/*--------------------------------*- C++ -*----------------------------------*\
  =========                 |
  \\      /  F ield         | OpenFOAM: The Open Source CFD Toolbox
   \\    /   O peration     | Website:  https://openfoam.org
    \\  /    A nd           | Version:  7
     \\/     M anipulation  |
\*---------------------------------------------------------------------------*/
FoamFile
{
    version     2.0;
    format      ascii;
    class       volScalarField;
    location    "96";
    object      p;
}
// * * * * * * * * * * * * * * * * * * * * * * * * * * * * * * * * * * * * * //

dimensions      [0 2 -2 0 0 0 0];

internalField   nonuniform List<scalar> 
2000
(
0.00700774
0.00708111
0.00721965
0.00739301
0.00757807
0.00776016
0.00792913
0.00807989
0.00821162
0.00831004
0.00703292
0.00714538
0.00729867
0.00748643
0.00768539
0.00788066
0.00806141
0.0082219
0.00836136
0.00845824
0.00703792
0.0071972
0.00736559
0.00756646
0.00777673
0.00798177
0.00817072
0.00833773
0.00848287
0.00857686
0.00702699
0.00723886
0.00742233
0.00763416
0.00785204
0.00806218
0.00825424
0.00842277
0.00856946
0.00865782
0.00700636
0.00727449
0.0074718
0.00769138
0.00791213
0.00812147
0.00831019
0.00847368
0.00861574
0.00869401
0.00698388
0.00730876
0.0075175
0.00774067
0.00795864
0.00816046
0.00833847
0.0084893
0.00861898
0.00868112
0.0069684
0.00734679
0.00756342
0.00778519
0.00799421
0.00818139
0.00834103
0.00847127
0.00858017
0.00861912
0.00696939
0.00739408
0.007614
0.00782877
0.00802251
0.00818817
0.0083223
0.00842484
0.00850566
0.00851495
0.00699655
0.00745635
0.00767403
0.00787584
0.00804821
0.0081864
0.00828957
0.00836013
0.00841062
0.00838729
0.00705923
0.00753932
0.00774858
0.00793136
0.00807672
0.00818255
0.0082513
0.00828933
0.00831501
0.00827358
0.00841728
0.00908479
0.00976397
0.0109628
0.0122533
0.0138358
0.0148638
0.0165047
0.0163086
0.017565
0.00850024
0.00911609
0.00961511
0.0106403
0.0117853
0.0132439
0.0141902
0.0156966
0.0156321
0.016698
0.00854053
0.00913169
0.00947052
0.0103284
0.0113351
0.0126781
0.0135469
0.0149608
0.01496
0.0158982
0.00853269
0.00911959
0.00932702
0.0100274
0.0109034
0.0121381
0.0129383
0.0142766
0.0142997
0.0151732
0.00847499
0.00906803
0.00917927
0.00973678
0.0104907
0.0116243
0.0123636
0.0136347
0.0136756
0.0145229
0.00837032
0.00896881
0.00901998
0.00945451
0.010097
0.0111356
0.0118182
0.0130236
0.0130833
0.0139293
0.00822709
0.00881922
0.00884163
0.00917766
0.00972226
0.0106737
0.0113067
0.0124555
0.012545
0.0133981
0.00805224
0.0086119
0.0086329
0.00890227
0.00936427
0.01023
0.0108122
0.0118951
0.0120156
0.012905
0.00783502
0.00833444
0.00837179
0.00861476
0.00903277
0.00983342
0.0103819
0.0114102
0.0115691
0.0124786
0.00766974
0.00811539
0.00814913
0.00833066
0.0086773
0.00939234
0.00989416
0.0108379
0.0110644
0.0120575
0.00821911
0.00865227
0.00889181
0.00902089
0.00911532
0.00943861
0.00975426
0.0104071
0.0105892
0.0112718
0.00654504
0.00695097
0.00731175
0.00763409
0.00793302
0.00832572
0.00867676
0.00920552
0.00934732
0.00975023
0.00531082
0.00568369
0.00601981
0.00630784
0.00658102
0.00695878
0.00731445
0.0077985
0.007926
0.00821557
0.00403863
0.00441099
0.0047971
0.00512115
0.0053912
0.00572132
0.0060303
0.00644793
0.00655484
0.00678722
0.00284039
0.0031785
0.00359654
0.00398121
0.00430111
0.00462121
0.00489138
0.00523746
0.00532122
0.00551207
0.00179419
0.00208673
0.0024973
0.00291192
0.00327805
0.00361711
0.0038821
0.00417967
0.00424437
0.0043896
0.000942326
0.00118726
0.00156637
0.00196955
0.00233768
0.0026737
0.00293094
0.00319586
0.00325364
0.00337017
0.00030853
0.000502646
0.000831034
0.00119437
0.00152924
0.00183171
0.00206151
0.00228914
0.00232964
0.00240882
-2.8401e-05
6.9842e-05
0.000320393
0.000598555
0.000844082
0.0010608
0.00121891
0.00138912
0.00140758
0.00146017
-0.000553051
-0.000272243
-3.54094e-05
0.00015212
0.000286762
0.000394428
0.000454821
0.000535547
0.000509882
0.00050661
0.00770677
0.00632686
0.00514252
0.0039123
0.00276532
0.00175739
0.000937981
0.000305272
-4.12434e-08
-0.000526102
0.00743179
0.00611483
0.00494286
0.00374665
0.00264595
0.00168177
0.000901705
0.000298199
1.28711e-05
-0.000447452
0.00716404
0.00592234
0.00476272
0.00360233
0.00254225
0.0016205
0.000876954
0.000305231
3.22378e-05
-0.000354002
0.00695697
0.0057901
0.00464045
0.00351196
0.00248763
0.00159776
0.000881762
0.00033354
6.2872e-05
-0.000268216
0.00681149
0.00570282
0.00456216
0.00346181
0.00246684
0.00160387
0.00090945
0.00037846
0.000102972
-0.000191023
0.00673023
0.00565669
0.00452392
0.00344576
0.00247483
0.0016336
0.000955336
0.000435992
0.000150049
-0.000121747
0.00672362
0.00564948
0.00452397
0.00346161
0.00250933
0.0016843
0.00101669
0.000503283
0.000202016
-6.05629e-05
0.006775
0.0056784
0.004559
0.00350598
0.00256709
0.00175293
0.0010907
0.000577724
0.00025707
-7.2772e-06
0.00687616
0.00574001
0.00462477
0.00357505
0.00264447
0.0018362
0.00117448
0.000656946
0.000313696
3.88366e-05
0.00701698
0.00582992
0.00471643
0.00366485
0.00273781
0.00193099
0.00126534
0.000738956
0.000370707
7.87381e-05
0.00718506
0.0059416
0.00482788
0.00377076
0.00284316
0.00203414
0.00136083
0.000822093
0.000427195
0.000113343
0.00737128
0.00606998
0.00495451
0.00388955
0.00295761
0.00214339
0.00145917
0.000905262
0.000482626
0.000143488
0.00756997
0.00621287
0.00509357
0.00401957
0.00307951
0.00225742
0.00155934
0.000987913
0.000536815
0.00017
0.00777563
0.0063683
0.00524219
0.00415921
0.00320735
0.00237512
0.00166061
0.00106974
0.000589737
0.000193562
0.00798361
0.00653526
0.00539801
0.00430715
0.00334002
0.00249568
0.00176252
0.00115065
0.00064148
0.000214725
0.00818959
0.00671328
0.00555899
0.00446208
0.00347665
0.00261841
0.00186478
0.00123062
0.000692195
0.000233933
0.00838713
0.00690043
0.00572261
0.00462215
0.00361627
0.00274262
0.00196717
0.0013097
0.000742062
0.000251572
0.00857217
0.00709994
0.00589133
0.00478898
0.00376047
0.00286937
0.00207053
0.00138853
0.000791541
0.000268042
0.00876051
0.00733764
0.00608232
0.00497391
0.00391757
0.00300407
0.00217829
0.00146911
0.000841581
0.00028345
0.00888451
0.00756749
0.00626814
0.00515244
0.00407255
0.00313506
0.00228339
0.001547
0.000890038
0.000296505
0.00843949
0.00760648
0.00644864
0.00538219
0.00432318
0.00336402
0.0024838
0.0017011
0.000990764
0.000329066
0.00839945
0.00755922
0.00643493
0.00543398
0.00441028
0.00348034
0.00260393
0.00180997
0.00106765
0.00035956
0.00859001
0.00772486
0.00658934
0.00560371
0.00457548
0.00364096
0.00274363
0.00192448
0.00114675
0.000394494
0.00900276
0.00801645
0.00682747
0.0058175
0.00476308
0.00380919
0.00288273
0.00203708
0.00122766
0.000435346
0.00962573
0.00844999
0.00717035
0.0060936
0.00499006
0.00399689
0.00303159
0.00215558
0.00131564
0.000483214
0.0104018
0.00900752
0.00761284
0.0064319
0.00525964
0.00420748
0.00319514
0.00228222
0.00140921
0.000532494
0.0112368
0.00962836
0.00811069
0.00680639
0.00555585
0.00443281
0.00336962
0.00241148
0.00149633
0.000568263
0.0120172
0.0102212
0.00858823
0.00716513
0.00584049
0.00464879
0.00353747
0.00252787
0.0015607
0.000579238
0.0126264
0.0106858
0.00896184
0.00744706
0.0060658
0.00482133
0.00367174
0.00261469
0.00159694
0.000570731
0.0129618
0.0109393
0.00916509
0.00760102
0.00619017
0.0049179
0.00374756
0.00266099
0.00161039
0.000558596
0.00929012
0.00924904
0.00949996
0.00998613
0.0106797
0.011524
0.0124409
0.0133189
0.0140247
0.0144227
0.00940797
0.0094948
0.00983282
0.0103999
0.0111634
0.0120641
0.0130254
0.0139359
0.014663
0.015074
0.00940037
0.00963422
0.0100923
0.0107737
0.011641
0.0126326
0.0136646
0.0146174
0.01536
0.0157754
0.00943789
0.00978698
0.010344
0.0111255
0.0120871
0.0131701
0.0142843
0.0152995
0.0160796
0.0165149
0.0095152
0.00998471
0.0106351
0.0115068
0.0125516
0.0137157
0.0149074
0.0159896
0.0168185
0.0172834
0.00960358
0.0102053
0.0109618
0.0119294
0.0130596
0.0143031
0.0155669
0.0167114
0.0175871
0.018081
0.00970158
0.0104372
0.0113121
0.0123841
0.0136081
0.0149362
0.0162731
0.0174765
0.0183937
0.0189113
0.00981627
0.0106825
0.0116836
0.0128641
0.0141885
0.0156075
0.0170217
0.0182845
0.0192407
0.0197776
0.00995151
0.0109439
0.0120777
0.013368
0.0147968
0.016311
0.0178067
0.0191317
0.0201275
0.0206812
0.0101088
0.0112199
0.0124938
0.0138942
0.0154315
0.017044
0.0186252
0.0200153
0.021053
0.0216226
0.0102896
0.0115065
0.0129297
0.0144396
0.0160901
0.0178046
0.0194757
0.0209344
0.0220171
0.0226023
0.0104925
0.0117993
0.0133808
0.0149986
0.0167684
0.0185891
0.020356
0.0218879
0.0230198
0.023621
0.0107103
0.012095
0.0138394
0.0155661
0.0174612
0.0193943
0.021264
0.0228757
0.0240618
0.0246804
0.0109289
0.0123947
0.0142934
0.0161369
0.0181613
0.0202153
0.0221949
0.0239004
0.0251451
0.0257843
0.0111029
0.0127147
0.0147339
0.0167084
0.018865
0.0210493
0.0231482
0.0249533
0.0262646
0.02693
0.0112584
0.0130173
0.0151531
0.0172665
0.0195622
0.0218874
0.0241172
0.0260301
0.027418
0.0281162
0.0113783
0.0132949
0.0155432
0.0178016
0.0202451
0.0227239
0.0250981
0.0271308
0.0286057
0.0293445
0.0114369
0.013546
0.0158959
0.0183046
0.0209026
0.0235466
0.0260798
0.0282483
0.0298236
0.0306141
0.0114106
0.0137629
0.0162082
0.0187782
0.0215441
0.0243687
0.0270742
0.0293905
0.0310763
0.0319295
0.0112495
0.0138984
0.0164306
0.0191502
0.022081
0.0250988
0.0280056
0.0305081
0.0323395
0.0332807
0.0118208
0.0151919
0.0180348
0.0210684
0.0242811
0.027577
0.0307561
0.0335207
0.0355728
0.0366659
0.0150058
0.018293
0.0213478
0.0248705
0.0285983
0.0324164
0.0360653
0.0392051
0.0415107
0.0427208
0.0185729
0.0220215
0.0254185
0.0294722
0.0337264
0.0380798
0.0421737
0.0456359
0.0481414
0.0494587
0.022377
0.0261958
0.0301345
0.0347943
0.0396102
0.0445083
0.0490048
0.0527202
0.0553374
0.0566531
0.026443
0.0307316
0.0352971
0.0405997
0.0460025
0.0514389
0.0562887
0.060192
0.0628545
0.0642083
0.0308487
0.0356182
0.0408618
0.0468256
0.0528357
0.0588104
0.0639833
0.0680036
0.0705261
0.0715272
0.0351424
0.0404985
0.0463786
0.0529367
0.0595226
0.0659839
0.0714463
0.0755355
0.0777981
0.0787238
0.0395246
0.0452195
0.0517163
0.0588957
0.0661019
0.0730943
0.0789836
0.083312
0.0851089
0.0839384
0.0417478
0.0482388
0.0553236
0.0630215
0.0707013
0.0780652
0.0841512
0.0884646
0.0890903
0.0906172
0.0451345
0.0517046
0.0592123
0.0673754
0.0757436
0.0838401
0.0912378
0.0974839
0.0993348
0.0824374
0.0108031
0.0139053
0.0171416
0.0206416
0.0242697
0.0285025
0.0321318
0.0366586
0.0382316
0.0415498
0.0104311
0.0136902
0.0168533
0.020322
0.0237976
0.0278978
0.0312651
0.0356891
0.0369916
0.0402559
0.0102503
0.0136739
0.0168126
0.0202451
0.0236449
0.0275749
0.0307492
0.0348932
0.036082
0.0391026
0.0100455
0.0135288
0.0166353
0.0200006
0.0233501
0.0271219
0.0301753
0.0340341
0.0352754
0.0379291
0.00982745
0.0132989
0.0163629
0.0196541
0.0229296
0.0265453
0.0295418
0.0331047
0.0344797
0.0367614
0.00961277
0.0130439
0.0160734
0.0193012
0.0224976
0.0259655
0.0289024
0.0322101
0.0336923
0.0356632
0.00939967
0.0127745
0.0157835
0.0189621
0.022093
0.0254367
0.0283
0.0314072
0.0329408
0.0346689
0.00918864
0.0124935
0.0154917
0.0186327
0.0217131
0.0249597
0.0277505
0.0306996
0.032254
0.0337882
0.00898464
0.0122083
0.0152024
0.0183159
0.0213567
0.0245295
0.027258
0.0300777
0.0316379
0.0330337
0.00879291
0.0119272
0.014924
0.0180205
0.0210313
0.024149
0.0268272
0.0295382
0.0310979
0.0324009
0.00861755
0.0116572
0.0146639
0.0177545
0.0207462
0.0238242
0.0264645
0.0290841
0.0306411
0.0318802
0.00845546
0.0113998
0.0144252
0.0175208
0.0205065
0.0235596
0.0261756
0.0287193
0.0302725
0.0314641
0.00829811
0.0111542
0.0142077
0.0173196
0.0203142
0.023358
0.0259639
0.0284465
0.0299947
0.0311516
0.0081374
0.010923
0.0140114
0.0171518
0.0201704
0.0232211
0.0258314
0.0282668
0.0298065
0.0309429
0.00796345
0.0107082
0.0138348
0.0170173
0.0200753
0.0231497
0.025779
0.028181
0.0297068
0.0308444
0.00776372
0.0105083
0.0136742
0.016914
0.0200269
0.0231425
0.025806
0.0281884
0.0296861
0.0308594
0.00752551
0.010318
0.0135232
0.0168374
0.0200224
0.0231976
0.0259129
0.0282919
0.0297467
0.031004
0.00723611
0.0101286
0.013375
0.0167802
0.0200543
0.0233063
0.0260915
0.0284832
0.0298567
0.0312826
0.00684919
0.00990945
0.0132191
0.0167397
0.020127
0.0234792
0.0263577
0.0287848
0.0300603
0.0317237
0.00640202
0.00963022
0.0130121
0.016657
0.0201699
0.0236371
0.0266351
0.0291279
0.0302348
0.0323053
0.00732747
0.0106852
0.0139622
0.0176597
0.0213543
0.0249631
0.0281022
0.0307124
0.0316521
0.0341123
0.00920506
0.012837
0.0163912
0.0204576
0.0245368
0.0285273
0.0320349
0.0349715
0.0362241
0.0383795
0.0119777
0.0159127
0.0198497
0.0244089
0.028983
0.0335118
0.0375281
0.0408514
0.0426774
0.044541
0.0153942
0.0197011
0.0241088
0.0292839
0.0345356
0.0398402
0.0446314
0.0486767
0.0515254
0.0537401
0.0190084
0.0237567
0.0287559
0.03469
0.0408196
0.0471783
0.0531449
0.0585367
0.063093
0.067068
0.0227896
0.0279476
0.033664
0.0404803
0.0476964
0.0554351
0.0631552
0.07107
0.0793081
0.0879021
0.0257134
0.0314759
0.0379805
0.0457356
0.0542634
0.0638261
0.0741206
0.0862568
0.101389
0.120438
0.0290929
0.0353675
0.0426981
0.0514718
0.0614902
0.0733468
0.087369
0.106619
0.135356
0.176238
0.029781
0.0361444
0.0437527
0.053107
0.0646436
0.0796
0.100006
0.131216
0.182997
0.263883
0.0322456
0.0398221
0.0489872
0.0606085
0.0758826
0.0967653
0.127053
0.175507
0.26063
0.393408
0.0073726
0.00912322
0.0113974
0.0142322
0.0170755
0.0204778
0.0227378
0.0259661
0.0265026
0.028432
0.00726788
0.0090404
0.0112346
0.0139381
0.0165705
0.0197835
0.0217933
0.0249092
0.0253146
0.0273116
0.00729291
0.00902222
0.0111423
0.0137469
0.0162584
0.0192702
0.0211074
0.0240233
0.0242448
0.0264701
0.00739028
0.00900256
0.0109848
0.0134468
0.0158191
0.0186425
0.0203449
0.0230767
0.0231236
0.0253859
0.00752062
0.00898493
0.0107956
0.0130927
0.0152934
0.0179244
0.0194851
0.0220676
0.0219569
0.0240773
0.00767141
0.00897636
0.0106061
0.0127323
0.0147634
0.0171988
0.0186076
0.021063
0.0208108
0.0227339
0.007834
0.00897853
0.0104248
0.0123603
0.0142567
0.0164958
0.0177639
0.0201034
0.0197327
0.0214933
0.00799911
0.00899187
0.0102501
0.0119939
0.0137498
0.0158086
0.0169724
0.0191876
0.018738
0.0203905
0.00815744
0.00901599
0.0100814
0.0116392
0.0132403
0.0151178
0.0162465
0.0182892
0.01783
0.0193966
0.00829985
0.00904858
0.00991903
0.0112957
0.012739
0.0144581
0.0155528
0.0173857
0.0170184
0.0184657
0.00716714
0.00764916
0.00784334
0.00800095
0.00811392
0.00818281
0.00821328
0.00821497
0.00821199
0.00817618
0.00733422
0.00779387
0.00796457
0.0080905
0.008166
0.00819363
0.008181
0.00813846
0.00808837
0.00800463
0.00756362
0.00797669
0.00811661
0.00820538
0.00823954
0.00822322
0.00816538
0.00807716
0.0079807
0.00785158
0.00785846
0.00820115
0.00830368
0.00835062
0.00834056
0.00827896
0.00817576
0.00804271
0.00790167
0.00773113
0.00822015
0.00846968
0.00852876
0.00852987
0.00847356
0.00836631
0.0082187
0.00804246
0.00785843
0.00765286
0.00864664
0.00878242
0.00879274
0.00874471
0.00864079
0.00848821
0.00829767
0.00808006
0.00785411
0.00763254
0.00913233
0.00913659
0.00909387
0.00899413
0.00884186
0.00864468
0.00841298
0.0081586
0.00789871
0.00762036
0.00966827
0.00952614
0.0094276
0.00927431
0.00907353
0.00883305
0.00856266
0.00827405
0.00798084
0.00766672
0.0102384
0.00994436
0.00978639
0.00957853
0.00932976
0.00904778
0.00874147
0.0084215
0.00809799
0.00775826
0.0108222
0.0103759
0.0101588
0.00989705
0.00960184
0.0092808
0.00894168
0.00859367
0.00824393
0.00788474
0.0113885
0.0108013
0.0105302
0.0102177
0.0098792
0.00952246
0.00915414
0.00878178
0.00841037
0.00803725
0.011945
0.0112166
0.0108914
0.0105299
0.0101511
0.00976231
0.00936878
0.00897619
0.00858802
0.00820657
0.0124641
0.0116018
0.0112261
0.0108202
0.0104058
0.00998989
0.00957594
0.00916772
0.00876794
0.00838393
0.0129212
0.0119387
0.0115193
0.0110755
0.010632
0.0101951
0.00976631
0.0093476
0.00894158
0.00856106
0.0132962
0.0122113
0.011757
0.0112841
0.0108195
0.0103687
0.00993153
0.00950795
0.00910121
0.00873046
0.0135716
0.0124053
0.0119269
0.0114355
0.0109593
0.010503
0.0100646
0.00964221
0.00924016
0.00888546
0.013733
0.0125087
0.0120191
0.0115215
0.0110447
0.0105921
0.0101605
0.00974564
0.00935316
0.00901966
0.0137695
0.0125126
0.0120261
0.0115364
0.0110711
0.0106327
0.0102165
0.00981591
0.00943575
0.00912421
0.0136747
0.0124116
0.0119437
0.011477
0.0110365
0.0106233
0.0102316
0.00985044
0.00947836
0.00918097
0.013447
0.0122042
0.0117707
0.0113431
0.010942
0.0105667
0.0102098
0.00985433
0.00948836
0.00919638
0.0130879
0.0118919
0.0115084
0.011136
0.01079
0.0104696
0.0101701
0.00988423
0.00962266
0.00947006
0.0125964
0.0114771
0.0111593
0.0108571
0.0105793
0.0103239
0.0100881
0.00987012
0.00968498
0.00958138
0.011987
0.0109702
0.0107307
0.0105106
0.0103105
0.0101267
0.00995656
0.0098015
0.00967354
0.00959216
0.0112762
0.0103838
0.0102318
0.0101031
0.00998872
0.00988259
0.00978293
0.00969318
0.00962302
0.00957766
0.0104827
0.00973271
0.00967461
0.00964406
0.00962185
0.00959928
0.00957536
0.00955514
0.00954658
0.0095494
0.00962775
0.00903372
0.00907277
0.00914465
0.00921938
0.00928518
0.00934164
0.00939488
0.00945182
0.00951019
0.00873423
0.00830506
0.00844145
0.00861726
0.00879172
0.00894937
0.0090899
0.00922016
0.00934664
0.00946704
0.0078252
0.00756495
0.00779607
0.00807465
0.00834948
0.0086009
0.00882814
0.00903829
0.00923793
0.00942634
0.00692347
0.00683056
0.00715146
0.00752909
0.00790277
0.0082482
0.00856347
0.00885541
0.00913088
0.00939214
0.00605961
0.00612181
0.00652319
0.00699283
0.00746117
0.00789878
0.00830187
0.00867633
0.00902909
0.00936666
0.00527752
0.00546836
0.00593143
0.00648059
0.00703534
0.00756041
0.00804899
0.00850508
0.0089349
0.00935048
0.00453336
0.0048538
0.00537272
0.0059946
0.00662866
0.00723613
0.00780698
0.00834281
0.008848
0.00934097
0.00385135
0.0042932
0.00486063
0.0055423
0.00624687
0.00692982
0.00757791
0.00819009
0.00876724
0.00933211
0.00324819
0.00379783
0.00440208
0.00513116
0.00589467
0.00664406
0.00736263
0.00804616
0.00869097
0.00931597
0.00273002
0.00337219
0.00400139
0.00476481
0.00557484
0.00638048
0.0071615
0.00790941
0.00861496
0.00930547
0.00229908
0.00301779
0.00366095
0.00444547
0.00528908
0.0061399
0.00697442
0.00777949
0.00853804
0.00927953
0.00195526
0.00273425
0.00338132
0.00417417
0.00503827
0.00592264
0.00680114
0.00765592
0.00845931
0.00923708
0.00169612
0.00251943
0.00316147
0.00395071
0.00482242
0.00572859
0.00664164
0.00753976
0.00838207
0.00918027
0.00151728
0.00236974
0.00299906
0.00377382
0.00464075
0.00555711
0.0064956
0.00743317
0.0083164
0.00912293
0.00141323
0.00228065
0.00289068
0.00364128
0.00449163
0.00540652
0.00636043
0.00733274
0.00827266
0.00910471
0.00137619
0.00224602
0.00283135
0.00354933
0.00437206
0.00527454
0.0062372
0.00725503
0.00835464
0.00947602
0.00139014
0.00225595
0.00281468
0.00349405
0.00427804
0.00515113
0.0060965
0.00710351
0.00819731
0.00930114
0.0014553
0.0023084
0.00283788
0.00347323
0.00420815
0.00503513
0.00593974
0.00690533
0.0079449
0.00898799
0.00156628
0.00239833
0.00289678
0.00348483
0.00416401
0.00493446
0.00578663
0.0067049
0.00769641
0.00869027
0.00171539
0.00251966
0.00298674
0.00352666
0.00414708
0.00485555
0.00564869
0.00651461
0.00745741
0.00840715
0.00189536
0.00266681
0.00310322
0.00359604
0.00415734
0.00480125
0.00553075
0.00633824
0.00722627
0.00813153
0.00209963
0.00283464
0.00324177
0.00368983
0.0041936
0.00477262
0.00543596
0.00618058
0.0070085
0.00786664
0.00232218
0.00301829
0.00339794
0.00380447
0.00425378
0.0047695
0.00536617
0.00604537
0.00680924
0.00761696
0.00255774
0.00321335
0.00356738
0.00393605
0.00433497
0.00479045
0.00532161
0.00593444
0.00663152
0.00738573
0.00280314
0.0034175
0.00374745
0.00408172
0.00443455
0.00483355
0.00530146
0.00584819
0.00647688
0.00717499
0.00305715
0.00363132
0.00393872
0.00424168
0.00455242
0.00489878
0.00530605
0.00578755
0.00634673
0.00698585
0.00330829
0.0038434
0.00413019
0.00440562
0.00467936
0.00497834
0.00532933
0.00574833
0.00623848
0.00681562
0.00355703
0.0040545
0.00432201
0.00457283
0.00481388
0.00507027
0.0053692
0.00572862
0.00615055
0.00666201
0.00380309
0.00426406
0.00451317
0.00474167
0.00495367
0.00517185
0.00542291
0.00572586
0.00608074
0.00652257
0.00404583
0.00447099
0.0047022
0.00491011
0.0050962
0.00528024
0.00548755
0.00573733
0.00602663
0.00639454
0.00428519
0.00467469
0.0048882
0.00507686
0.00523965
0.00539325
0.00556085
0.00576094
0.00598632
0.00627522
0.0045216
0.00487508
0.00507098
0.00524141
0.00538316
0.00550971
0.00564167
0.00579606
0.00595991
0.00616366
0.00475567
0.0050724
0.00525088
0.00540418
0.00552705
0.00562983
0.00573027
0.00584367
0.00594963
0.00605981
0.00498787
0.00526703
0.00542871
0.00556653
0.00567343
0.00575665
0.00583055
0.00590775
0.00595809
0.00595635
0.00521807
0.00545916
0.00560539
0.00573052
0.00582641
0.00589854
0.00595898
0.00601925
0.00604796
0.00596105
0.00544591
0.00564878
0.00578139
0.00589729
0.00598847
0.00606174
0.00613388
0.00623676
0.00643305
0.00676866
0.00567206
0.00583578
0.00595636
0.00606608
0.00615628
0.00623318
0.00631259
0.0064234
0.0066213
0.00691657
0.00589211
0.00601847
0.00612918
0.00623556
0.00632738
0.00640851
0.00649128
0.00659756
0.00676459
0.00698762
0.00610216
0.00619496
0.00629839
0.00640428
0.00650058
0.0065882
0.00667592
0.00678039
0.00692684
0.0071056
0.00630004
0.00636181
0.00646217
0.00657045
0.00667397
0.00677054
0.00686522
0.0069698
0.00710113
0.00725036
0.00647992
0.00651902
0.00661795
0.0067318
0.00684508
0.00695275
0.00705624
0.00716288
0.00728352
0.00741234
0.00663857
0.00666341
0.00676419
0.00688604
0.00701128
0.00713197
0.00724623
0.00735762
0.00747272
0.00758813
0.00677318
0.00679312
0.00689886
0.00703101
0.00716996
0.00730524
0.00743208
0.00755094
0.00766536
0.00777253
0.0068815
0.00690693
0.00702043
0.00716473
0.00731864
0.0074695
0.00761023
0.00773884
0.00785658
0.00795905
0.00696091
0.00700356
0.00712773
0.00728566
0.00745527
0.00762191
0.007777
0.00791664
0.00804065
0.00814066
)
;

boundaryField
{
    inlet
    {
        type            zeroGradient;
    }
    outlet
    {
        type            fixedValue;
        value           uniform 0;
    }
    cylinder
    {
        type            zeroGradient;
    }
    top
    {
        type            symmetryPlane;
    }
    bottom
    {
        type            symmetryPlane;
    }
    defaultFaces
    {
        type            empty;
    }
}


// ************************************************************************* //
