/*--------------------------------*- C++ -*----------------------------------*\
  =========                 |
  \\      /  F ield         | OpenFOAM: The Open Source CFD Toolbox
   \\    /   O peration     | Website:  https://openfoam.org
    \\  /    A nd           | Version:  7
     \\/     M anipulation  |
\*---------------------------------------------------------------------------*/
FoamFile
{
    version     2.0;
    format      ascii;
    class       volVectorField;
    location    "96";
    object      U;
}
// * * * * * * * * * * * * * * * * * * * * * * * * * * * * * * * * * * * * * //

dimensions      [0 1 -1 0 0 0 0];

internalField   nonuniform List<vector> 
2000
(
(-7.17504e-05 -0.00470226 -1.70143e-22)
(6.58837e-05 -0.0111408 0)
(0.000496736 -0.0149086 0)
(0.00117008 -0.0164431 -8.73564e-22)
(0.00204338 -0.0160241 2.84428e-22)
(0.00309604 -0.0138369 1.18007e-23)
(0.00432689 -0.0100097 -4.89693e-22)
(0.00574272 -0.00464862 0)
(0.00735219 0.00213965 0)
(0.00906248 0.0102335 0)
(0.000382104 -0.00457677 0)
(0.00133255 -0.0111609 -6.66067e-22)
(0.00248206 -0.015112 6.14248e-22)
(0.003666 -0.0168476 1.16693e-21)
(0.00485311 -0.0166541 0)
(0.0060329 -0.0147319 1.07004e-21)
(0.00721663 -0.0112193 -9.95069e-22)
(0.008428 -0.00621663 0)
(0.00970613 0.000194875 1.8355e-21)
(0.0109666 0.00793148 -3.53548e-21)
(0.000873296 -0.00452748 0)
(0.00276536 -0.0112717 5.32665e-21)
(0.00478424 -0.0153651 0)
(0.00662186 -0.0172485 4.7682e-21)
(0.00825899 -0.0172247 0)
(0.00969674 -0.0155161 -4.30799e-21)
(0.0109593 -0.0122764 0)
(0.0120867 -0.00760671 3.91945e-21)
(0.0131485 -0.00156683 -3.67082e-21)
(0.014066 0.00578901 -3.60897e-21)
(0.00142955 -0.00457194 -1.38451e-21)
(0.00439917 -0.0114921 -2.65912e-21)
(0.00742199 -0.0156768 -1.24678e-21)
(0.0100352 -0.0176428 -2.33984e-21)
(0.0122369 -0.0177192 -2.243e-21)
(0.014045 -0.016157 2.11771e-21)
(0.0155004 -0.0131304 2.03663e-21)
(0.0166602 -0.00874627 -2.18807e-23)
(0.0176227 -0.00304786 3.7081e-21)
(0.0183153 0.00392979 3.60734e-21)
(0.00208157 -0.0047193 -1.3605e-21)
(0.00626771 -0.0118262 -2.71955e-21)
(0.010404 -0.0160435 -5.17113e-21)
(0.013882 -0.0180206 2.37735e-21)
(0.0167277 -0.0181238 0)
(0.0189852 -0.0166367 0)
(0.0207189 -0.0137571 -4.19002e-21)
(0.0220058 -0.00960133 -3.97953e-21)
(0.0229716 -0.00419896 3.76132e-21)
(0.0235503 0.00242435 1.08689e-20)
(0.00285989 -0.00496617 1.38681e-21)
(0.00839776 -0.0122586 1.41674e-21)
(0.0137225 -0.0164458 -7.68405e-21)
(0.018111 -0.0183645 1.22013e-20)
(0.0216331 -0.018427 -2.27381e-21)
(0.0243716 -0.0169529 0)
(0.0264241 -0.0141641 0)
(0.0278938 -0.0101869 1.98295e-20)
(0.0289314 -0.00503697 -1.87787e-20)
(0.0294783 0.00126475 3.56772e-21)
(0.00379078 -0.00529517 1.08262e-20)
(0.0108029 -0.0127542 0)
(0.017348 -0.0168491 1.0263e-20)
(0.0226413 -0.0186492 -9.74001e-21)
(0.0268162 -0.01862 0)
(0.0300097 -0.0171182 4.43553e-21)
(0.0323646 -0.0143894 -1.24458e-20)
(0.0340191 -0.0105682 -1.58506e-20)
(0.0351487 -0.00565163 7.44208e-21)
(0.0356984 0.000351643 7.23364e-21)
(0.00489193 -0.00567571 -2.16755e-20)
(0.0134775 -0.0132603 -2.76799e-21)
(0.0212251 -0.0172057 -5.22518e-21)
(0.0273613 -0.0188434 -1.2274e-20)
(0.0321067 -0.018696 -4.69644e-21)
(0.0356687 -0.0171564 -4.44142e-21)
(0.0382478 -0.0144931 2.56959e-23)
(0.0400287 -0.0108488 0)
(0.0412182 -0.0061961 0)
(0.0417576 -0.000502504 3.99859e-23)
(0.00616862 -0.00606635 1.08495e-20)
(0.0163914 -0.013711 -1.10675e-20)
(0.0252701 -0.0174601 7.76004e-21)
(0.0321326 -0.0189141 1.72861e-20)
(0.0373114 -0.0186515 -4.61357e-21)
(0.0411004 -0.0170973 4.42678e-21)
(0.0437685 -0.0145421 4.18244e-21)
(0.0455573 -0.0111416 0)
(0.0467219 -0.00684602 0)
(0.0472116 -0.00154803 -1.67925e-22)
(0.00761129 -0.006419 -1.37128e-21)
(0.0194874 -0.014034 1.38897e-20)
(0.0293722 -0.017556 -2.60077e-21)
(0.0367955 -0.0188328 0)
(0.0422285 -0.0184899 0)
(0.0460656 -0.0169746 8.7918e-21)
(0.0486498 -0.0145943 0)
(0.0502805 -0.0115259 -7.73986e-21)
(0.0512726 -0.0077291 6.51296e-24)
(0.0516352 -0.00304156 6.93916e-21)
(0.012404 0.0308743 1.34345e-22)
(0.0220691 0.0793767 -1.3584e-22)
(0.0305111 0.132972 -1.51724e-22)
(0.0327962 0.183504 -1.70638e-22)
(0.0296665 0.23271 -2.07943e-22)
(0.0263466 0.284463 -7.93795e-24)
(0.0161337 0.345077 1.08471e-22)
(0.0135672 0.432392 3.92115e-22)
(-0.00406818 0.567365 0)
(0.00384048 0.727703 -2.8608e-22)
(0.01277 0.0278656 5.2163e-22)
(0.0199783 0.0752205 -5.83132e-22)
(0.0282926 0.130233 1.03952e-21)
(0.0309693 0.182542 1.70915e-22)
(0.0282505 0.232987 3.68874e-22)
(0.0252244 0.285556 6.34872e-22)
(0.0154745 0.346675 -2.35687e-22)
(0.0129759 0.434296 -2.63429e-22)
(-0.00390247 0.568563 5.04784e-22)
(0.0034541 0.727262 2.85404e-22)
(0.0144557 0.0248691 0)
(0.018621 0.0704664 -5.71318e-22)
(0.0264308 0.12649 -3.00816e-22)
(0.0293885 0.180615 0)
(0.0270294 0.232421 -1.13736e-21)
(0.0242786 0.285885 3.55943e-22)
(0.0149387 0.347513 3.96559e-22)
(0.012465 0.435355 1.42043e-21)
(-0.00371219 0.569278 -5.03149e-22)
(0.00311366 0.726652 1.03052e-21)
(0.0174858 0.0220447 0)
(0.0181316 0.0653309 5.76099e-22)
(0.0249541 0.121808 0)
(0.0280461 0.177718 1.33523e-21)
(0.0259896 0.231002 -1.34217e-21)
(0.0234936 0.285452 -8.08174e-22)
(0.0145111 0.347585 -4.55671e-23)
(0.0120443 0.435581 -1.3957e-21)
(-0.00350055 0.569342 -2.2652e-22)
(0.00279764 0.725706 -1.26624e-21)
(0.0217475 0.019511 3.23751e-23)
(0.0186364 0.0600566 -1.65078e-21)
(0.023906 0.116297 4.28278e-23)
(0.0269372 0.173863 -1.21421e-21)
(0.0251171 0.228728 0)
(0.0228533 0.284271 -7.74012e-22)
(0.0141782 0.346945 -6.50529e-23)
(0.0117013 0.435135 1.74886e-21)
(-0.00328548 0.569037 2.29316e-22)
(0.00250704 0.724704 -2.30161e-22)
(0.026959 0.0173205 -4.46402e-21)
(0.0201978 0.0548823 2.82963e-21)
(0.0233438 0.110118 1.19577e-21)
(0.0260612 0.169088 -1.19519e-21)
(0.0243991 0.225604 -6.40673e-22)
(0.0223465 0.282339 0)
(0.0139388 0.345555 -1.5493e-21)
(0.0114439 0.433827 7.8178e-22)
(-0.00306322 0.567859 8.42616e-22)
(0.00221972 0.723262 8.82538e-22)
(0.0326703 0.0154579 -5.36859e-22)
(0.0227446 0.0500165 0)
(0.023322 0.103483 0)
(0.0254229 0.163462 0)
(0.0238214 0.221657 -6.82002e-22)
(0.0219545 0.279746 1.32066e-21)
(0.0137711 0.343641 1.5116e-21)
(0.0112322 0.432204 -2.36292e-21)
(-0.00286316 0.566781 4.14843e-22)
(0.0019604 0.722048 -1.28494e-21)
(0.0382963 0.013824 3.36263e-21)
(0.0260106 0.0455167 2.32022e-21)
(0.0238508 0.0965885 -2.29895e-21)
(0.0250258 0.157105 2.41319e-21)
(0.0233796 0.216864 -2.99391e-21)
(0.0216775 0.276289 0)
(0.0136969 0.340734 -6.81841e-22)
(0.0111193 0.429225 3.33532e-23)
(-0.00264682 0.564137 -7.46465e-22)
(0.00168328 0.72006 -7.97757e-22)
(0.0431361 0.0120663 -2.85503e-21)
(0.0295128 0.041008 0)
(0.024859 0.0892311 -2.58748e-21)
(0.0248524 0.149976 4.63612e-21)
(0.0230355 0.211556 -1.72209e-21)
(0.0214739 0.272791 -3.12735e-22)
(0.0136463 0.338251 6.80355e-22)
(0.0109719 0.427342 1.02877e-23)
(-0.00250719 0.563065 1.08072e-21)
(0.00145131 0.718916 1.15695e-21)
(0.0463477 0.0100824 -2.32664e-21)
(0.0326183 0.0365339 2.27626e-21)
(0.0261962 0.0813022 2.8958e-22)
(0.0249942 0.141036 0)
(0.0228249 0.203591 0)
(0.0213951 0.266318 3.09301e-22)
(0.013777 0.332392 1.29859e-21)
(0.0110719 0.42129 -1.26141e-21)
(-0.00226524 0.557964 -3.40002e-22)
(0.00116519 0.716142 3.28615e-22)
(0.0480154 0.0108406 0)
(0.0368525 0.0350858 0)
(0.0285524 0.0758054 0)
(0.025887 0.135435 0)
(0.0231082 0.200704 0)
(0.0209178 0.266227 0)
(0.0133584 0.334134 0)
(0.0102101 0.424346 0)
(-0.00237859 0.560076 0)
(0.000690669 0.714875 0)
(0.0496567 0.023668 0)
(0.0403629 0.0514437 0)
(0.0304116 0.0880591 0)
(0.0255459 0.141714 0)
(0.0224085 0.204875 0)
(0.0199212 0.270787 0)
(0.0128527 0.340279 0)
(0.00929221 0.431682 0)
(-0.00212105 0.565468 0)
(0.000319597 0.713915 0)
(0.0469871 0.0266503 0)
(0.0413253 0.0587792 0)
(0.0322932 0.096124 0)
(0.0258811 0.147619 0)
(0.021827 0.209742 0)
(0.0188732 0.27575 0)
(0.0122323 0.346032 0)
(0.00842263 0.437664 0)
(-0.00196044 0.569532 0)
(1.8127e-05 0.712794 0)
(0.0425266 0.0282767 0)
(0.0396664 0.0642581 0)
(0.0327128 0.102786 0)
(0.026177 0.152933 0)
(0.0214864 0.214426 0)
(0.0180497 0.281195 0)
(0.0117263 0.353059 0)
(0.00778067 0.445537 0)
(-0.00160633 0.575207 0)
(-0.000126104 0.712175 0)
(0.0375886 0.0282998 0)
(0.0366449 0.0681187 0)
(0.0317185 0.108612 0)
(0.0259016 0.158002 0)
(0.021126 0.218448 0)
(0.0174154 0.285177 0)
(0.011314 0.357703 0)
(0.00719175 0.450334 0)
(-0.00148539 0.578352 0)
(-0.000315867 0.711135 0)
(0.0323872 0.0269492 0)
(0.0329727 0.0702554 0)
(0.0297532 0.113267 0)
(0.0248833 0.162968 0)
(0.0204116 0.223126 0)
(0.016748 0.29047 0)
(0.0110222 0.364482 0)
(0.00685455 0.45797 0)
(-0.00107666 0.583734 0)
(-0.000346297 0.710481 0)
(0.0271165 0.0244285 0)
(0.0290922 0.0709095 0)
(0.0275005 0.116691 0)
(0.0237018 0.1671 0)
(0.0196221 0.226688 0)
(0.0160396 0.293659 0)
(0.0106276 0.367861 0)
(0.00644104 0.461253 0)
(-0.00100156 0.58575 0)
(-0.000460933 0.709509 0)
(0.0217576 0.0206082 0)
(0.0250189 0.069831 0)
(0.0247463 0.118481 0)
(0.0220785 0.170752 0)
(0.0186794 0.231321 0)
(0.0153857 0.299393 0)
(0.0103948 0.375141 0)
(0.0062534 0.46931 0)
(-0.000544957 0.591287 0)
(-0.000410897 0.708916 0)
(0.0170911 0.0172117 0)
(0.0220187 0.0688887 0)
(0.0230289 0.120012 0)
(0.0211037 0.173154 0)
(0.0180156 0.233468 0)
(0.0148217 0.301216 0)
(0.0100481 0.377015 0)
(0.00596209 0.470997 0)
(-0.000537653 0.592289 0)
(-0.000478289 0.708299 0)
(0.0114989 0.00686856 0)
(0.0168837 0.0617093 0)
(0.0200802 0.117934 0)
(0.0199018 0.175417 0)
(0.0176821 0.23829 0)
(0.0147112 0.307853 0)
(0.0101795 0.385406 0)
(0.00599542 0.48017 0)
(4.00702e-05 0.598452 0)
(-0.000358826 0.707842 0)
(0.0536964 0.00147334 2.05542e-21)
(0.0524881 0.00676259 -2.0195e-21)
(0.0476118 0.00695669 1.77769e-22)
(0.0420881 0.0059915 0)
(0.0363287 0.00384317 0)
(0.0303956 0.000804323 5.72272e-23)
(0.0244709 -0.00298101 -8.1386e-23)
(0.0185797 -0.00770397 7.99692e-23)
(0.0131056 -0.0119098 -8.27681e-24)
(0.00698515 -0.0209262 8.12954e-24)
(0.0546396 -0.00238138 -2.70446e-21)
(0.0518209 -0.000300248 0)
(0.0462851 -0.00150051 1.00894e-21)
(0.0405717 -0.00353323 -2.01811e-21)
(0.0347512 -0.00648084 1.01422e-21)
(0.0288054 -0.010085 -5.591e-23)
(0.0228697 -0.0142682 5.70566e-23)
(0.0170197 -0.0192319 2.89801e-23)
(0.0114053 -0.0236824 -1.51219e-23)
(0.00568007 -0.0318752 -1.80422e-23)
(0.0548306 -0.00623691 3.05494e-21)
(0.0507184 -0.00698998 -1.43793e-21)
(0.0448169 -0.00961461 1.42413e-21)
(0.0389897 -0.0127648 -8.11395e-22)
(0.033133 -0.0165384 6.34335e-22)
(0.0271741 -0.0207082 0)
(0.0212402 -0.0252523 -5.71871e-23)
(0.0154453 -0.0303464 1.12506e-24)
(0.00980324 -0.0348701 -1.42696e-24)
(0.00455452 -0.0420054 2.51238e-23)
(0.0543571 -0.0105912 -4.66341e-22)
(0.0492088 -0.0137641 0)
(0.0431719 -0.0176451 0)
(0.0373116 -0.0218053 0)
(0.0314694 -0.0263119 4.26477e-22)
(0.0255287 -0.0309621 -2.64364e-22)
(0.0196276 -0.0357755 1.85395e-23)
(0.0139069 -0.0408718 -4.32997e-24)
(0.00835059 -0.0452891 3.2798e-24)
(0.00356891 -0.0512949 1.13389e-23)
(0.0531849 -0.0155551 -3.10698e-22)
(0.0472352 -0.0207296 -1.25288e-21)
(0.0412453 -0.0256597 -5.19167e-22)
(0.0354328 -0.0306522 5.18801e-22)
(0.0296652 -0.0357461 -1.60079e-22)
(0.02381 -0.0407495 0)
(0.0180035 -0.045709 -5.78184e-23)
(0.0124154 -0.050677 3.85124e-23)
(0.00705814 -0.0548328 -1.5536e-23)
(0.0027534 -0.0597403 -1.47835e-23)
(0.0513983 -0.0210814 -3.46254e-21)
(0.0448955 -0.0278251 5.68956e-22)
(0.0390905 -0.0336107 1.41486e-22)
(0.0333908 -0.0392366 5.11266e-22)
(0.0277573 -0.0447574 0)
(0.0220447 -0.0499721 0)
(0.016393 -0.0549485 0)
(0.0110008 -0.0596733 3.04557e-23)
(0.0059316 -0.0634564 0)
(0.00210303 -0.0673588 0)
(0.0490389 -0.0270861 0)
(0.0422899 -0.0349199 9.99643e-22)
(0.0367749 -0.0413987 -6.45347e-22)
(0.0312456 -0.0474609 -3.80668e-22)
(0.0257979 -0.0532541 3.82625e-22)
(0.0202781 -0.0585429 8.69838e-23)
(0.0148339 -0.0634191 -1.06477e-22)
(0.00969255 -0.0678138 -1.26706e-22)
(0.00496993 -0.0711617 1.03826e-23)
(0.00159514 -0.0741875 3.38397e-24)
(0.046197 -0.0333526 0)
(0.0395013 -0.0418842 -3.54559e-22)
(0.0343554 -0.0489115 -1.44718e-22)
(0.0290487 -0.0552278 0)
(0.0238313 -0.0611561 5.47552e-23)
(0.0185494 -0.0663997 -1.96774e-22)
(0.0133571 -0.0710814 9.53445e-23)
(0.00850972 -0.0750924 8.0672e-24)
(0.0041638 -0.0779874 -9.38653e-24)
(0.00120514 -0.0802787 -2.24016e-24)
(0.0430007 -0.0397225 4.66681e-22)
(0.0366028 -0.0485995 3.22581e-22)
(0.031883 -0.0560487 -1.07832e-22)
(0.0268474 -0.0624591 5.72686e-23)
(0.0218966 -0.068408 8.31311e-23)
(0.0168916 -0.0735118 8.80278e-23)
(0.0119847 -0.0779327 -1.97879e-23)
(0.00746025 -0.0815395 -1.14177e-23)
(0.00349758 -0.0839986 9.41724e-24)
(0.000909889 -0.0856956 9.75551e-25)
(0.0395628 -0.0460706 -9.87735e-23)
(0.0336581 -0.0549777 9.96843e-23)
(0.0294041 -0.0627371 -7.31299e-23)
(0.0246848 -0.069108 -5.7182e-23)
(0.0200277 -0.0749862 3.71942e-23)
(0.0153301 -0.0798831 -6.78192e-23)
(0.0107303 -0.0840045 2.79227e-23)
(0.00654304 -0.0872142 3.22751e-24)
(0.00295224 -0.0892775 0)
(0.000688317 -0.0905082 -9.77662e-25)
(0.0360034 -0.0523021 1.00952e-22)
(0.0307347 -0.060968 -1.01851e-22)
(0.0269672 -0.0689367 -7.65856e-23)
(0.0226039 -0.0751625 -6.05043e-23)
(0.0182548 -0.0808996 -3.88552e-23)
(0.0138849 -0.0855492 5.61437e-24)
(0.00960057 -0.0893559 1.40292e-23)
(0.00575099 -0.0921963 2.30765e-23)
(0.00250826 -0.0939158 0)
(0.00052239 -0.0947908 -2.13516e-24)
(0.0324437 -0.0583635 0)
(0.0279046 -0.0665571 -3.43084e-22)
(0.0246199 -0.0746396 5.80307e-22)
(0.0206449 -0.0806442 6.05936e-23)
(0.0166034 -0.0861862 9.6306e-23)
(0.0125697 -0.0905718 1.04391e-22)
(0.00859681 -0.0940662 -2.28722e-23)
(0.00507349 -0.0965773 -1.41293e-23)
(0.00214762 -0.0980081 1.68205e-23)
(0.000397831 -0.0986188 2.13015e-24)
(0.0289807 -0.0642392 0)
(0.0252262 -0.0717668 -3.93764e-22)
(0.0223956 -0.0798651 -1.58332e-22)
(0.0188342 -0.0856028 0)
(0.0150881 -0.0909064 -2.66997e-22)
(0.0113889 -0.0950304 1.00912e-22)
(0.00771421 -0.0982261 6.31157e-23)
(0.00449743 -0.100454 1.08765e-22)
(0.00185427 -0.101648 -1.67656e-23)
(0.000303607 -0.102068 1.20061e-23)
(0.0256828 -0.0699414 0)
(0.0227403 -0.0766519 3.97029e-22)
(0.0203125 -0.0846546 0)
(0.017184 -0.0901104 4.69596e-22)
(0.0137135 -0.0951372 -4.7203e-22)
(0.0103385 -0.0990159 -1.2997e-22)
(0.00694344 -0.101932 2.63841e-23)
(0.00400854 -0.103923 -1.12277e-22)
(0.00161447 -0.104925 -2.07445e-23)
(0.000231203 -0.105211 -1.83454e-23)
(0.0225967 -0.0754972 4.03085e-21)
(0.0204787 -0.0812963 -1.51431e-21)
(0.0183836 -0.089065 -1.42552e-22)
(0.0156979 -0.0942533 -6.225e-22)
(0.0124797 -0.0989656 0)
(0.00941057 -0.102624 -1.37292e-22)
(0.00627375 -0.10528 4.34896e-23)
(0.0035934 -0.107077 1.66464e-22)
(0.00141714 -0.107925 6.95973e-24)
(0.000174354 -0.108122 -6.95758e-24)
(0.0197468 -0.0809319 3.30147e-22)
(0.0184663 -0.0858078 2.3581e-21)
(0.0166219 -0.0931634 6.48188e-22)
(0.014375 -0.0981251 -6.47785e-22)
(0.0113859 -0.102483 -2.2917e-22)
(0.0085963 -0.105949 0)
(0.00569521 -0.108364 -2.23628e-22)
(0.0032407 -0.110004 1.19834e-22)
(0.00125401 -0.110728 6.20505e-23)
(0.000128704 -0.110869 1.56152e-23)
(0.0171444 -0.0862495 -5.61713e-22)
(0.0167317 -0.0903131 0)
(0.0150524 -0.0970234 0)
(0.0132173 -0.101819 0)
(0.0104355 -0.105781 -1.82714e-22)
(0.00788987 -0.109081 4.11416e-22)
(0.00520086 -0.11127 2.2905e-22)
(0.00294224 -0.112784 -2.73313e-22)
(0.00111951 -0.113407 1.58915e-23)
(9.13472e-05 -0.113519 -3.12024e-23)
(0.0147797 -0.0914127 -1.27829e-21)
(0.0152806 -0.0949479 1.74723e-21)
(0.0136944 -0.100722 -1.73072e-21)
(0.0122147 -0.105421 1.12853e-21)
(0.00962546 -0.108946 -1.36958e-21)
(0.00728172 -0.112102 0)
(0.00478243 -0.114077 -1.3661e-22)
(0.0026903 -0.115491 -5.08508e-24)
(0.00100917 -0.116031 -5.16826e-23)
(6.01001e-05 -0.116135 -1.72648e-23)
(0.012477 -0.0963028 -6.06981e-22)
(0.0139289 -0.0998425 0)
(0.0124622 -0.10434 -1.71027e-21)
(0.0112776 -0.109009 2.66794e-21)
(0.00889927 -0.112061 -9.19278e-22)
(0.00672804 -0.115089 -9.97896e-23)
(0.00441163 -0.116858 1.36298e-22)
(0.0024672 -0.118191 1.72846e-23)
(0.000915226 -0.118663 1.05803e-22)
(3.42983e-05 -0.11878 3.43451e-23)
(0.0102697 -0.100614 -2.4447e-21)
(0.0126064 -0.105116 2.39192e-21)
(0.0113691 -0.107988 2.19685e-22)
(0.0104019 -0.112667 0)
(0.00824932 -0.115213 0)
(0.0062272 -0.118118 1.02705e-22)
(0.00408579 -0.119684 2.51526e-22)
(0.00227332 -0.12095 -2.46865e-22)
(0.00083968 -0.121365 -1.87925e-23)
(2.3804e-05 -0.121514 1.84026e-23)
(0.00948352 -0.107764 0)
(0.0126271 -0.117736 0)
(0.0110396 -0.116598 0)
(0.00989323 -0.121501 0)
(0.00779255 -0.12294 0)
(0.00579265 -0.125648 0)
(0.00379338 -0.126764 0)
(0.0021082 -0.127895 0)
(0.000806821 -0.128161 0)
(5.28785e-05 -0.128344 0)
(0.0100683 -0.128938 0)
(0.00935087 -0.14029 0)
(0.00781717 -0.136145 0)
(0.00669502 -0.141113 0)
(0.00513447 -0.140784 0)
(0.00380984 -0.143173 0)
(0.00245166 -0.143388 0)
(0.00138335 -0.14431 0)
(0.000529703 -0.144241 0)
(5.25161e-05 -0.144452 0)
(0.0107532 -0.155619 0)
(0.00882804 -0.167998 0)
(0.00715959 -0.161562 0)
(0.00572495 -0.166888 0)
(0.00431414 -0.165038 0)
(0.0031105 -0.167473 0)
(0.00200181 -0.166897 0)
(0.00114857 -0.167843 0)
(0.000470342 -0.167446 0)
(6.31115e-05 -0.167744 0)
(0.0111658 -0.188605 0)
(0.00838983 -0.201898 0)
(0.006721 -0.193988 0)
(0.00501289 -0.199958 0)
(0.00378334 -0.196905 0)
(0.00261916 -0.199699 0)
(0.00172671 -0.198429 0)
(0.000989281 -0.199593 0)
(0.000442092 -0.198849 0)
(6.34656e-05 -0.199314 0)
(0.0111992 -0.227882 0)
(0.00800135 -0.241267 0)
(0.00639525 -0.233042 0)
(0.00448384 -0.239525 0)
(0.00342759 -0.235798 0)
(0.00224577 -0.23904 0)
(0.00153963 -0.237265 0)
(0.00084335 -0.238744 0)
(0.000413471 -0.237688 0)
(4.64701e-05 -0.238388 0)
(0.010578 -0.271075 0)
(0.00737488 -0.283178 0)
(0.00590386 -0.276068 0)
(0.00395143 -0.282425 0)
(0.00306402 -0.278814 0)
(0.00188631 -0.282233 0)
(0.00133924 -0.280312 0)
(0.000657261 -0.281999 0)
(0.000345152 -0.28078 0)
(8.01947e-06 -0.281677 0)
(0.00916675 -0.313481 0)
(0.00632356 -0.323102 0)
(0.00506326 -0.318294 0)
(0.0032874 -0.323701 0)
(0.00256694 -0.321003 0)
(0.001484 -0.324075 0)
(0.00106531 -0.322459 0)
(0.000428223 -0.324049 0)
(0.000229408 -0.322919 0)
(-3.71601e-05 -0.323838 0)
(0.00704553 -0.349634 0)
(0.00483224 -0.356364 0)
(0.00386162 -0.354279 0)
(0.00245944 -0.358226 0)
(0.00191821 -0.356865 0)
(0.00104512 -0.359154 0)
(0.000737308 -0.358158 0)
(0.000213173 -0.359341 0)
(0.000108339 -0.358524 0)
(-6.33963e-05 -0.359241 0)
(0.00441537 -0.375324 0)
(0.0030129 -0.379668 0)
(0.00240508 -0.379856 0)
(0.00151292 -0.382419 0)
(0.00117643 -0.382284 0)
(0.00060965 -0.383723 0)
(0.000416343 -0.383365 0)
(7.02869e-05 -0.384047 0)
(2.76926e-05 -0.383597 0)
(-5.74572e-05 -0.384008 0)
(0.00150386 -0.388472 0)
(0.00101814 -0.391522 0)
(0.000816102 -0.392958 0)
(0.000508304 -0.394713 0)
(0.000396198 -0.39528 0)
(0.000198525 -0.39619 0)
(0.000132673 -0.396221 0)
(1.05597e-05 -0.396577 0)
(7.5723e-07 -0.396371 0)
(-2.31124e-05 -0.39657 0)
(0.00985226 -0.116063 2.80202e-21)
(0.0114195 -0.138742 -2.74882e-21)
(0.0125705 -0.166751 3.52008e-22)
(0.0131258 -0.20025 0)
(0.0130821 -0.238797 0)
(0.0122378 -0.279828 4.10527e-22)
(0.0105416 -0.319056 -1.76841e-21)
(0.00809563 -0.351885 1.74264e-21)
(0.00508598 -0.374956 4.73642e-22)
(0.00173123 -0.386701 -4.66142e-22)
(0.010219 -0.120549 -3.32523e-21)
(0.0121801 -0.143228 0)
(0.0134421 -0.171264 2.41412e-21)
(0.014015 -0.204603 -5.58017e-21)
(0.0139112 -0.242631 3.58849e-21)
(0.012962 -0.282727 -3.82779e-22)
(0.011144 -0.320753 8.5511e-22)
(0.00856001 -0.352398 1.80868e-21)
(0.00538504 -0.374565 5.09613e-22)
(0.00182994 -0.38583 4.9476e-22)
(0.0107917 -0.125157 3.868e-21)
(0.0131915 -0.147887 -2.64949e-21)
(0.0145036 -0.175797 2.62433e-21)
(0.0150592 -0.208826 -2.95441e-21)
(0.0148636 -0.246215 2.18354e-21)
(0.0137804 -0.285306 0)
(0.0118091 -0.322129 -8.57172e-22)
(0.00905628 -0.352646 4.34737e-23)
(0.0056936 -0.373985 -9.49945e-22)
(0.00192652 -0.384819 -9.70334e-22)
(0.0116193 -0.129318 -6.22974e-22)
(0.0144073 -0.152144 0)
(0.0157329 -0.179963 0)
(0.0162504 -0.212708 0)
(0.0159442 -0.24949 2.43864e-21)
(0.0147094 -0.287625 -1.63247e-21)
(0.0125603 -0.323306 -1.26976e-23)
(0.00960819 -0.352745 -1.0143e-21)
(0.00603024 -0.373287 -5.21068e-22)
(0.00202958 -0.383699 -5.5846e-22)
(0.012766 -0.133131 5.39871e-23)
(0.0158216 -0.155894 -1.86954e-21)
(0.0171189 -0.183573 -1.431e-21)
(0.0175768 -0.216038 1.43008e-21)
(0.0171446 -0.252259 -7.95136e-22)
(0.0157472 -0.289533 0)
(0.0134044 -0.324189 -9.41651e-22)
(0.0102297 -0.352656 2.06782e-21)
(0.00640981 -0.372467 -1.05866e-21)
(0.00214703 -0.382485 1.09221e-21)
(0.0142628 -0.136639 -4.94642e-21)
(0.0174542 -0.159178 5.33001e-22)
(0.0186787 -0.186615 -1.1024e-22)
(0.0190471 -0.218759 1.4674e-21)
(0.0184685 -0.254437 0)
(0.016894 -0.290932 0)
(0.0143414 -0.32469 0)
(0.0109234 -0.352315 1.10829e-21)
(0.00683645 -0.371495 0)
(0.00228218 -0.381174 0)
(0.0161208 -0.139755 0)
(0.0193179 -0.161968 2.03804e-21)
(0.0204329 -0.189082 -1.37892e-21)
(0.0206778 -0.220873 -1.65637e-21)
(0.0199296 -0.25602 1.66498e-21)
(0.018158 -0.29181 1.00487e-21)
(0.0153744 -0.324786 -9.95472e-22)
(0.0116894 -0.351698 -3.95893e-21)
(0.00730957 -0.370352 2.81786e-22)
(0.00243565 -0.379755 -9.67638e-22)
(0.0183502 -0.142378 0)
(0.0214187 -0.164194 -6.6067e-22)
(0.0223949 -0.190935 -3.74237e-22)
(0.0224816 -0.222367 0)
(0.0215412 -0.257016 4.88988e-22)
(0.01955 -0.292179 -1.47226e-21)
(0.0165104 -0.324486 1.65117e-21)
(0.012531 -0.350804 5.91117e-22)
(0.0078295 -0.369032 -6.47422e-22)
(0.00260793 -0.378217 1.28355e-21)
(0.0209624 -0.144434 5.87088e-22)
(0.0237621 -0.165807 7.16466e-22)
(0.0245738 -0.192134 -1.56896e-22)
(0.0244665 -0.223219 2.15588e-22)
(0.023313 -0.257417 4.62233e-22)
(0.0210793 -0.292046 7.81498e-22)
(0.017757 -0.323801 -2.95435e-22)
(0.0134531 -0.349641 -3.20177e-22)
(0.00839851 -0.367534 6.49553e-22)
(0.00280012 -0.376557 3.52445e-22)
(0.0239672 -0.145861 -1.63937e-22)
(0.0263535 -0.166781 1.65522e-22)
(0.0269778 -0.192652 -1.92344e-22)
(0.0266387 -0.223413 -2.15302e-22)
(0.0252524 -0.257216 2.58798e-22)
(0.0227528 -0.291411 -5.29308e-22)
(0.0191211 -0.322734 4.52342e-22)
(0.0144616 -0.348213 1.62323e-22)
(0.00902004 -0.365858 0)
(0.0030136 -0.37477 -3.53236e-22)
(0.0273716 -0.146616 1.67511e-22)
(0.0291958 -0.16711 -1.69178e-22)
(0.0296142 -0.192482 -2.06005e-22)
(0.0290033 -0.222949 -2.32539e-22)
(0.027366 -0.256414 -2.7015e-22)
(0.0245766 -0.290277 -2.00785e-23)
(0.0206082 -0.321287 1.5925e-22)
(0.0155611 -0.346519 5.161e-22)
(0.00969718 -0.364002 0)
(0.0032494 -0.372853 -3.85944e-22)
(0.0311805 -0.146688 0)
(0.0322893 -0.166791 -7.84036e-22)
(0.0324875 -0.191631 1.42417e-21)
(0.0315635 -0.221836 2.32924e-22)
(0.0296598 -0.255015 5.46182e-22)
(0.0265567 -0.288647 9.03906e-22)
(0.022225 -0.319458 -3.23119e-22)
(0.0167576 -0.344558 -3.50313e-22)
(0.0104335 -0.361964 7.76863e-22)
(0.00350841 -0.370801 3.85048e-22)
(0.0353964 -0.146106 0)
(0.0356344 -0.165819 -7.66844e-22)
(0.0355972 -0.190136 -4.29125e-22)
(0.034322 -0.220094 0)
(0.0321377 -0.253048 -1.72565e-21)
(0.0286968 -0.28654 5.75237e-22)
(0.023974 -0.317267 6.93613e-22)
(0.0180532 -0.342329 2.24849e-21)
(0.0112309 -0.359736 -7.74338e-22)
(0.00379053 -0.368605 1.67382e-21)
(0.040013 -0.145008 0)
(0.0392328 -0.164158 7.73351e-22)
(0.0389353 -0.188041 0)
(0.0372822 -0.217734 2.18821e-21)
(0.0348027 -0.250522 -2.19945e-21)
(0.0310029 -0.283957 -1.36683e-21)
(0.0258661 -0.314706 -3.3975e-23)
(0.0194581 -0.339824 -2.31556e-21)
(0.0120932 -0.357315 -3.85969e-22)
(0.00409677 -0.366254 -2.082e-21)
(0.0449874 -0.143387 5.49827e-21)
(0.0431125 -0.161843 -2.11132e-21)
(0.0424783 -0.185374 2.55729e-22)
(0.040448 -0.21478 -2.01858e-21)
(0.0376541 -0.247459 0)
(0.0334779 -0.280917 -1.42611e-21)
(0.0279021 -0.311789 -1.26292e-22)
(0.0209726 -0.337071 3.14513e-21)
(0.0130219 -0.354712 4.32567e-22)
(0.00442662 -0.363756 -4.34254e-22)
(0.0502814 -0.141198 -6.21212e-22)
(0.0472608 -0.159009 3.97981e-21)
(0.0462188 -0.182181 2.09915e-21)
(0.0438159 -0.211292 -2.09774e-21)
(0.0406909 -0.243893 -1.28729e-21)
(0.0361247 -0.277436 0)
(0.0300862 -0.308516 -3.20944e-21)
(0.0226034 -0.334057 1.60982e-21)
(0.0140244 -0.351919 1.72498e-21)
(0.00478164 -0.361102 1.85597e-21)
(0.0558245 -0.138559 -7.53826e-22)
(0.0516674 -0.155684 0)
(0.0501443 -0.178519 0)
(0.0473784 -0.207333 0)
(0.0439099 -0.239892 -1.49979e-21)
(0.0389402 -0.273591 2.78224e-21)
(0.0324114 -0.304964 3.27053e-21)
(0.0243401 -0.330836 -5.16184e-21)
(0.0150917 -0.348964 9.26605e-22)
(0.00515643 -0.358303 -2.75658e-21)
(0.0615128 -0.135615 -1.08924e-21)
(0.0563242 -0.151904 3.96469e-21)
(0.0542333 -0.174428 -3.92692e-21)
(0.051124 -0.202894 5.18092e-21)
(0.0473121 -0.235383 -6.52392e-21)
(0.0419407 -0.269245 0)
(0.0349103 -0.300975 -1.71029e-21)
(0.0262234 -0.327279 -7.21138e-23)
(0.0162572 -0.345772 -1.92744e-21)
(0.00556292 -0.355309 -1.96602e-21)
(0.0672136 -0.13254 -7.98165e-22)
(0.0612389 -0.147814 0)
(0.0584607 -0.170123 -5.30934e-21)
(0.0550116 -0.198335 1.00835e-20)
(0.05084 -0.230875 -3.92058e-21)
(0.0450421 -0.264999 -8.04961e-22)
(0.0374726 -0.297105 1.70654e-21)
(0.028137 -0.323776 -8.93525e-23)
(0.0174338 -0.342545 2.81144e-21)
(0.0059645 -0.352226 2.90948e-21)
(0.0730944 -0.128243 -3.63472e-21)
(0.0669805 -0.142311 3.56404e-21)
(0.0632388 -0.164229 5.64836e-22)
(0.0593683 -0.192012 0)
(0.0548133 -0.224505 0)
(0.0486028 -0.259002 7.96883e-22)
(0.0404906 -0.291839 3.68546e-21)
(0.0304475 -0.319352 -3.60862e-21)
(0.0188805 -0.338793 -9.92398e-22)
(0.00645951 -0.348773 9.7592e-22)
(0.083097 -0.127928 0)
(0.0800471 -0.139894 0)
(0.073691 -0.162171 0)
(0.0686089 -0.189504 0)
(0.0628272 -0.221242 0)
(0.0553226 -0.254626 0)
(0.0458349 -0.286199 0)
(0.034339 -0.312586 0)
(0.0212483 -0.331345 0)
(0.00719127 -0.341178 0)
(0.10012 -0.117568 0)
(0.101814 -0.13355 0)
(0.0921796 -0.157873 0)
(0.0859621 -0.184665 0)
(0.0779514 -0.215148 0)
(0.0680732 -0.246499 0)
(0.0560174 -0.275736 0)
(0.0417694 -0.299816 0)
(0.025798 -0.316454 0)
(0.00886174 -0.324524 0)
(0.12106 -0.107549 0)
(0.124916 -0.125633 0)
(0.112224 -0.150112 0)
(0.105205 -0.175571 0)
(0.0944179 -0.204278 0)
(0.0817554 -0.233081 0)
(0.0666525 -0.259871 0)
(0.0493045 -0.282213 0)
(0.030245 -0.29836 0)
(0.0100501 -0.307321 0)
(0.146955 -0.100302 0)
(0.151309 -0.118809 0)
(0.135256 -0.142235 0)
(0.127382 -0.166287 0)
(0.11316 -0.193271 0)
(0.0974954 -0.219541 0)
(0.078915 -0.2439 0)
(0.0580457 -0.26384 0)
(0.0355311 -0.27738 0)
(0.0123127 -0.28319 0)
(0.177178 -0.0915621 0)
(0.179944 -0.108529 0)
(0.160259 -0.129572 0)
(0.150773 -0.151123 0)
(0.131934 -0.174972 0)
(0.112644 -0.197658 0)
(0.0898262 -0.219211 0)
(0.0651864 -0.237511 0)
(0.039313 -0.25169 0)
(0.0124523 -0.261352 0)
(0.211169 -0.0843689 0)
(0.211647 -0.099201 0)
(0.188433 -0.118468 0)
(0.176898 -0.137589 0)
(0.152867 -0.158654 0)
(0.130327 -0.178635 0)
(0.103124 -0.198303 0)
(0.074532 -0.214643 0)
(0.0449702 -0.225879 0)
(0.0165142 -0.228114 0)
(0.246835 -0.07028 0)
(0.241409 -0.0817386 0)
(0.215379 -0.0974176 0)
(0.199774 -0.111938 0)
(0.169814 -0.128364 0)
(0.143197 -0.143931 0)
(0.109705 -0.159768 0)
(0.0764662 -0.173976 0)
(0.0434092 -0.188493 0)
(0.00999735 -0.206724 0)
(0.280594 -0.0618668 0)
(0.271718 -0.069427 0)
(0.244559 -0.0825884 0)
(0.225208 -0.0936457 0)
(0.192557 -0.108276 0)
(0.163309 -0.12217 0)
(0.12626 -0.138114 0)
(0.0898288 -0.153375 0)
(0.0524279 -0.168368 0)
(0.0275061 -0.163126 0)
(0.319167 -0.0348439 0)
(0.30759 -0.0381353 0)
(0.26635 -0.0460515 0)
(0.24099 -0.0513553 0)
(0.195617 -0.0599458 0)
(0.157547 -0.0668657 0)
(0.106541 -0.0754428 0)
(0.0565915 -0.0840496 0)
(0.011093 -0.102384 0)
(-0.0435715 -0.154261 0)
(0.599054 -0.0184039 0)
(0.580101 -0.0213464 0)
(0.541578 -0.025563 0)
(0.511739 -0.0297394 0)
(0.464558 -0.0357573 0)
(0.421344 -0.0427308 0)
(0.360762 -0.0530995 0)
(0.294351 -0.0689437 0)
(0.207208 -0.0985803 0)
(0.149698 -0.15741 0)
(0.0987422 -0.11507 3.70365e-21)
(0.117796 -0.104627 -3.64673e-21)
(0.139068 -0.0949192 6.16197e-22)
(0.164404 -0.0878527 0)
(0.194723 -0.0796698 0)
(0.227471 -0.0732673 9.73747e-22)
(0.262866 -0.0608092 -4.68069e-21)
(0.295172 -0.0542737 4.61259e-21)
(0.345435 -0.0303508 1.3217e-21)
(0.619694 -0.0161515 -1.34405e-21)
(0.104265 -0.109436 -3.38979e-21)
(0.12324 -0.0989923 0)
(0.144268 -0.0896623 4.46152e-21)
(0.169285 -0.0828001 -1.0855e-20)
(0.199583 -0.0749293 7.36963e-21)
(0.232317 -0.068907 -9.15747e-22)
(0.267734 -0.0570558 1.98753e-21)
(0.300392 -0.0512736 4.53445e-21)
(0.355148 -0.0286061 1.22035e-21)
(0.627844 -0.0151965 1.25644e-21)
(0.109048 -0.103262 3.89756e-21)
(0.127929 -0.0930978 -4.09497e-21)
(0.148578 -0.08431 4.05617e-21)
(0.17342 -0.0777159 -5.78597e-21)
(0.203466 -0.0702451 4.18459e-21)
(0.236319 -0.0646787 0)
(0.271627 -0.0534876 -1.99229e-21)
(0.305188 -0.0484393 -5.27569e-23)
(0.363766 -0.0270138 -2.31216e-21)
(0.63564 -0.0142832 -2.48653e-21)
(0.113596 -0.0966839 -6.68827e-22)
(0.132726 -0.0870458 0)
(0.15308 -0.078906 0)
(0.177826 -0.0726203 0)
(0.207592 -0.065605 4.77843e-21)
(0.24051 -0.0605503 -3.26264e-21)
(0.275503 -0.0500807 -1.44465e-22)
(0.310063 -0.0457068 -2.30544e-21)
(0.371802 -0.025566 -1.17026e-21)
(0.643234 -0.0134536 -1.21053e-21)
(0.11763 -0.0897985 7.29775e-22)
(0.137186 -0.0809209 -2.13977e-21)
(0.157365 -0.0734902 -2.32807e-21)
(0.182031 -0.0675624 2.32661e-21)
(0.211636 -0.0610451 -1.49412e-21)
(0.24463 -0.0565061 0)
(0.279289 -0.0468206 -1.92678e-21)
(0.314863 -0.0430573 4.34664e-21)
(0.379382 -0.0242351 -2.18083e-21)
(0.650525 -0.0127207 2.40377e-21)
(0.121005 -0.082635 -5.02085e-21)
(0.141052 -0.0747471 1.92965e-22)
(0.161128 -0.0680704 -4.00127e-22)
(0.185693 -0.0625631 2.26798e-21)
(0.215194 -0.0565874 0)
(0.248283 -0.0525641 0)
(0.282773 -0.0437019 0)
(0.319269 -0.0404993 2.06251e-21)
(0.38644 -0.0230084 0)
(0.657401 -0.0120771 0)
(0.123648 -0.0752235 0)
(0.144279 -0.0685245 2.59883e-21)
(0.164324 -0.0626387 -1.81089e-21)
(0.188771 -0.0576164 -2.6166e-21)
(0.218168 -0.052223 2.63019e-21)
(0.251336 -0.0487338 1.73035e-21)
(0.285821 -0.0407141 -1.62121e-21)
(0.32314 -0.0380443 -7.08306e-21)
(0.392837 -0.0218816 4.99864e-22)