/*--------------------------------*- C++ -*----------------------------------*\
  =========                 |
  \\      /  F ield         | OpenFOAM: The Open Source CFD Toolbox
   \\    /   O peration     | Website:  https://openfoam.org
    \\  /    A nd           | Version:  7
     \\/     M anipulation  |
\*---------------------------------------------------------------------------*/
FoamFile
{
    version     2.0;
    format      ascii;
    class       volScalarField;
    location    "97";
    object      p;
}
// * * * * * * * * * * * * * * * * * * * * * * * * * * * * * * * * * * * * * //

dimensions      [0 2 -2 0 0 0 0];

internalField   nonuniform List<scalar> 
2000
(
0.00680496
0.0068773
0.00701315
0.00718307
0.00736449
0.00754302
0.00770874
0.00785668
0.00798598
0.0080825
0.00683078
0.00694166
0.00709194
0.00727592
0.00747085
0.0076622
0.00783938
0.00799683
0.00813383
0.00822897
0.00683705
0.00699393
0.00715899
0.00735573
0.00756165
0.00776247
0.0079476
0.00811138
0.00825395
0.00834638
0.00682789
0.00703637
0.00721618
0.00742359
0.00763687
0.00784258
0.00803068
0.00819589
0.00833996
0.00842691
0.00680947
0.00707307
0.00726637
0.0074813
0.0076973
0.00790217
0.00808693
0.00824716
0.00838665
0.00846367
0.00678952
0.00710859
0.007313
0.00753136
0.00774459
0.00794205
0.00811631
0.00826412
0.00839146
0.00845258
0.00677669
0.00714795
0.00735998
0.0075769
0.00778133
0.00796446
0.00812076
0.00824846
0.00835546
0.00839378
0.00678028
0.00719653
0.00741166
0.00762166
0.00781112
0.00797324
0.00810467
0.00820535
0.00828496
0.00829416
0.00680975
0.00725993
0.00747271
0.00766997
0.00783855
0.00797389
0.00807518
0.00814477
0.00819488
0.0081721
0.00687422
0.00734372
0.0075481
0.00772667
0.00786888
0.00797274
0.00804059
0.00807869
0.008105
0.00806477
0.0081858
0.00883651
0.00949253
0.0106588
0.0119152
0.0134629
0.0144585
0.0160734
0.0158568
0.0171056
0.0082688
0.00887015
0.00935151
0.0103477
0.0114612
0.012887
0.0138036
0.0152839
0.0152023
0.0162592
0.00830987
0.00888791
0.00921446
0.0100468
0.0110247
0.0123367
0.013178
0.0145665
0.0145501
0.0154784
0.00830374
0.0088781
0.00907809
0.00975657
0.0106062
0.0118117
0.0125861
0.0139
0.0139081
0.0147716
0.00824884
0.0088294
0.00893701
0.00947617
0.0102062
0.0113122
0.0120271
0.0132747
0.013301
0.0141386
0.0081481
0.00873397
0.00878403
0.00920369
0.00982463
0.0108374
0.0114966
0.0126794
0.012725
0.0135615
0.00800988
0.00858939
0.00861184
0.00893616
0.0094613
0.0103884
0.010999
0.0121259
0.0122021
0.013046
0.0078409
0.00838841
0.00840927
0.00866953
0.0091143
0.00995734
0.010518
0.0115796
0.0116876
0.0125678
0.00763012
0.00811871
0.0081548
0.0083898
0.00879229
0.00957181
0.0100996
0.0111077
0.0112553
0.0121556
0.00747052
0.00790751
0.00794003
0.00811507
0.00844808
0.00914336
0.00962441
0.0105482
0.0107644
0.0117481
0.00802467
0.00844775
0.00868393
0.00881129
0.0088999
0.00921119
0.00951178
0.010151
0.0103236
0.0109955
0.00638785
0.00678573
0.00714036
0.0074566
0.0077479
0.00813106
0.00847128
0.0089911
0.00912544
0.00952148
0.00518994
0.00555508
0.00588518
0.006167
0.00643208
0.00679941
0.00714461
0.00762045
0.00774198
0.00802839
0.0039506
0.004315
0.00469457
0.00501266
0.00527548
0.00559577
0.0058947
0.00630384
0.00640507
0.00663607
0.00278245
0.00311251
0.00352277
0.00390074
0.00421379
0.00452536
0.0047868
0.00512494
0.00520311
0.00539281
0.00176164
0.00204645
0.00244861
0.00285584
0.00321491
0.00354631
0.00380408
0.004095
0.0041547
0.00429803
0.000929205
0.00116699
0.00153781
0.00193379
0.00229515
0.00262428
0.00287547
0.003135
0.00318881
0.003303
0.000307718
0.000496287
0.00081713
0.00117419
0.00150345
0.00180031
0.00202527
0.00224854
0.00228613
0.00236347
-2.15627e-05
7.13574e-05
0.000315463
0.000589266
0.000831249
0.00104418
0.00119907
0.00136611
0.00138291
0.00143459
-0.000545533
-0.000269494
-3.63489e-05
0.000149579
0.000283452
0.000389813
0.000449213
0.000528169
0.000501793
0.000498041
0.00752313
0.00617822
0.00502818
0.00382943
0.002711
0.00172732
0.000926416
0.000306088
6.55701e-06
-0.000516226
0.00725603
0.0059729
0.00483409
0.0036681
0.00259476
0.00165363
0.00089121
0.000299386
1.93322e-05
-0.000438069
0.00699603
0.00578611
0.00465852
0.00352703
0.00249357
0.0015937
0.000866923
0.000306317
3.82125e-05
-0.000345827
0.00679504
0.00565799
0.00453936
0.003439
0.00244004
0.00157133
0.000871421
0.000333961
6.79712e-05
-0.000261441
0.00665412
0.00557357
0.00446308
0.00339006
0.00241958
0.00157706
0.000898202
0.000377701
0.000106883
-0.000185689
0.00657616
0.00552903
0.00442574
0.00337426
0.00242711
0.00160576
0.000942658
0.000433636
0.000152533
-0.000117824
0.0065699
0.00552229
0.00442564
0.00338947
0.0024604
0.00165483
0.00100213
0.000499003
0.000202903
-5.79635e-05
0.00662025
0.00555058
0.00445954
0.00343242
0.00251629
0.00172131
0.00107388
0.000571279
0.000256253
-5.88593e-06
0.00671905
0.00561055
0.00452331
0.00349935
0.00259124
0.00180202
0.0011551
0.000648174
0.000311124
3.91433e-05
0.00685641
0.00569794
0.00461224
0.00358643
0.00268171
0.00189391
0.00124321
0.00072776
0.000366371
7.80765e-05
0.00702026
0.00580641
0.0047204
0.00368916
0.00278383
0.00199394
0.00133582
0.000808434
0.000421118
0.000111817
0.00720173
0.00593109
0.0048433
0.00380441
0.00289483
0.00209991
0.0014312
0.000889139
0.00047485
0.000141188
0.00739528
0.00606986
0.00497828
0.00393062
0.00301309
0.00221055
0.00152839
0.000969348
0.000527391
0.000167001
0.00759551
0.00622085
0.00512255
0.0040662
0.00313715
0.00232479
0.00162666
0.00104877
0.000578718
0.000189929
0.00779787
0.0063831
0.00527382
0.00420989
0.00326595
0.00244183
0.0017256
0.00112732
0.000628919
0.000210509
0.00799808
0.00655618
0.00543009
0.00436041
0.00339863
0.00256102
0.00182491
0.00120497
0.000678139
0.000229175
0.00818982
0.00673822
0.00558894
0.00451598
0.00353428
0.00268169
0.00192437
0.00128178
0.000726552
0.000246305
0.00836911
0.00693242
0.00575277
0.00467816
0.00367443
0.00280489
0.00202483
0.00135839
0.000774609
0.00026229
0.00855107
0.00716391
0.00593833
0.004858
0.0038272
0.00293586
0.0021296
0.00143673
0.000823232
0.00027723
0.00866871
0.00738741
0.00611882
0.00503153
0.00397792
0.00306324
0.00223181
0.00151245
0.000870314
0.000289865
0.00822471
0.00742126
0.00629299
0.00525422
0.00422146
0.00328577
0.00242661
0.0016622
0.000968148
0.000321455
0.00818768
0.0073753
0.00627878
0.00530386
0.0043054
0.00339826
0.0025429
0.00176763
0.00104255
0.000350885
0.00837447
0.00753679
0.00642909
0.00546919
0.00446627
0.00355473
0.00267894
0.00187906
0.00111937
0.0003847
0.00878082
0.00782285
0.00666236
0.00567834
0.00464959
0.00371906
0.00281471
0.00198883
0.00119804
0.000424264
0.00939427
0.00824879
0.0069989
0.00594901
0.00487192
0.0039028
0.00296029
0.00210449
0.00128363
0.000470629
0.0101577
0.00879647
0.00743339
0.00628092
0.00513625
0.00410918
0.00312037
0.00222819
0.00137472
0.00051841
0.0109784
0.00940603
0.00792212
0.00664832
0.00542672
0.00432998
0.00329115
0.0023545
0.00145971
0.00055329
0.0117448
0.00998794
0.00839084
0.00700022
0.00570579
0.00454152
0.00345536
0.00246835
0.00152283
0.000564347
0.0123425
0.0104439
0.0087576
0.00727679
0.00592665
0.00471041
0.00358669
0.00255339
0.00155873
0.000556583
0.0126715
0.0106926
0.00895718
0.00742786
0.00604856
0.00480489
0.00366082
0.00259879
0.00157227
0.000545127
0.00905999
0.00902046
0.00926696
0.00974601
0.0104283
0.0112582
0.0121585
0.01302
0.0137118
0.0141016
0.00917271
0.00925889
0.00959142
0.0101504
0.0109015
0.0117868
0.0127307
0.013624
0.0143368
0.0147395
0.00916179
0.00939235
0.00984297
0.0105142
0.0113672
0.0123418
0.0133554
0.0142905
0.015019
0.0154265
0.00919529
0.00953926
0.0100873
0.0108566
0.0118023
0.0128667
0.013961
0.0149576
0.0157232
0.0161504
0.00926776
0.00973037
0.0103704
0.0112285
0.0122559
0.0134002
0.0145706
0.0156329
0.0164464
0.0169028
0.00935092
0.00994379
0.0106884
0.0116409
0.0127525
0.0139748
0.0152162
0.0163396
0.017199
0.0176838
0.0094434
0.0101682
0.0110296
0.0120847
0.0132886
0.0145943
0.0159076
0.0170889
0.0179891
0.018497
0.00955214
0.010406
0.0113915
0.0125535
0.0138561
0.0152512
0.0166405
0.0178802
0.0188187
0.0193455
0.00968087
0.0106595
0.0117756
0.0130456
0.0144511
0.0159397
0.0174092
0.0187099
0.0196874
0.0202307
0.00983097
0.0109276
0.0121815
0.0135597
0.0150719
0.0166573
0.0182108
0.0195753
0.0205941
0.0211531
0.0100038
0.0112065
0.0126067
0.0140927
0.0157163
0.0174019
0.0190438
0.0204756
0.0215388
0.0221131
0.0101977
0.011492
0.0130469
0.0146391
0.01638
0.0181701
0.0199063
0.0214097
0.0225215
0.0231114
0.0104054
0.0117813
0.0134943
0.0151939
0.017058
0.0189586
0.0207961
0.0223776
0.0235429
0.0241498
0.0106125
0.0120758
0.0139369
0.0157519
0.017743
0.0197627
0.0217078
0.0233825
0.0246046
0.025232
0.0107829
0.0123837
0.0143661
0.0163103
0.0184317
0.0205794
0.0226418
0.0244147
0.025702
0.0263551
0.0109339
0.0126754
0.0147744
0.0168555
0.0191139
0.0214003
0.0235914
0.0254702
0.0268328
0.0275182
0.0110488
0.0129432
0.0151543
0.0173783
0.0197823
0.0222197
0.0245527
0.0265492
0.0279972
0.0287226
0.0111031
0.0131855
0.0154977
0.0178697
0.0204258
0.0230258
0.0255149
0.0276448
0.0291916
0.0299677
0.0110734
0.0133943
0.0158012
0.018332
0.0210534
0.0238311
0.0264897
0.0287648
0.0304201
0.0312579
0.0109116
0.0135241
0.0160174
0.0186955
0.0215794
0.0245469
0.0274032
0.0298611
0.0316592
0.0325833
0.0114753
0.0147959
0.0175965
0.0205833
0.0237437
0.0269834
0.0301054
0.0328188
0.0348319
0.035904
0.0145968
0.0178368
0.0208479
0.0243154
0.0279821
0.0317341
0.0353164
0.0383966
0.0406573
0.0418436
0.0180979
0.021497
0.0248435
0.0288325
0.0330161
0.0372927
0.0413108
0.0447064
0.0471624
0.0484534
0.0218363
0.0255987
0.0294765
0.0340603
0.0387946
0.0436044
0.0480165
0.051659
0.0542229
0.055511
0.0258322
0.0300571
0.0345502
0.0397651
0.0450746
0.050411
0.0551683
0.0589931
0.0615995
0.0629235
0.0301654
0.0348618
0.0400206
0.0458853
0.0517907
0.0576546
0.0627284
0.0666654
0.0691306
0.0701031
0.0343836
0.0396585
0.0454431
0.0518928
0.0583636
0.0647049
0.0700615
0.0740632
0.0762692
0.0771677
0.0386976
0.0443037
0.050695
0.0577575
0.0648392
0.0717058
0.0774838
0.0817212
0.0834632
0.082268
0.0408631
0.0472617
0.0542348
0.0618095
0.0693559
0.0765881
0.0825537
0.0867729
0.0873393
0.0888638
0.0442345
0.050706
0.0580978
0.0661335
0.0743658
0.0823291
0.0896012
0.0957407
0.0975134
0.0805858
0.0104737
0.0135175
0.016693
0.020136
0.0236963
0.0278629
0.0314181
0.0358811
0.0373989
0.0407014
0.0101048
0.0133038
0.0164069
0.0198197
0.0232303
0.0272669
0.0305628
0.0349254
0.0361789
0.039427
0.00992401
0.013284
0.0163632
0.0197373
0.0230761
0.0269437
0.0300514
0.0341356
0.0352854
0.038289
0.0097213
0.0131386
0.0161862
0.0194934
0.0227803
0.0264926
0.0294856
0.0332813
0.0344935
0.0371282
0.00950635
0.0129106
0.0159159
0.0191502
0.0223632
0.025918
0.0288621
0.0323596
0.0337123
0.0359717
0.00929522
0.0126579
0.0156288
0.0187998
0.0219356
0.0253433
0.0282293
0.0314758
0.0329352
0.0348833
0.00908612
0.012391
0.0153409
0.0184624
0.0215343
0.0248196
0.0276311
0.0306834
0.0321917
0.0338977
0.00887955
0.0121129
0.015051
0.0181345
0.0211567
0.0243463
0.0270848
0.0299835
0.0315113
0.033025
0.00868022
0.0118306
0.0147636
0.017819
0.020802
0.0239183
0.026595
0.0293666
0.0309001
0.0322767
0.00849313
0.0115524
0.0144868
0.0175245
0.0204777
0.023539
0.0261658
0.0288299
0.0303634
0.0316479
0.00832212
0.0112853
0.014228
0.0172588
0.0201928
0.0232143
0.0258036
0.0283769
0.0299081
0.0311288
0.00816407
0.0110306
0.0139903
0.0170249
0.0199525
0.0229488
0.0255136
0.0280115
0.029539
0.0307122
0.00801062
0.010788
0.0137736
0.0168231
0.0197589
0.0227452
0.0252995
0.0277363
0.0292589
0.0303973
0.00785376
0.0105598
0.0135777
0.0166542
0.019613
0.0226052
0.0251633
0.0275524
0.0290664
0.0301843
0.00768378
0.0103482
0.0134014
0.0165183
0.0195151
0.0225297
0.0251059
0.0274607
0.0289605
0.0300796
0.00748843
0.0101514
0.0132409
0.0164132
0.0194633
0.0225175
0.0251266
0.0274605
0.0289318
0.0300866
0.00725548
0.00996423
0.0130901
0.0163345
0.0194547
0.0225666
0.0252258
0.0275546
0.0289824
0.0302217
0.00697244
0.009778
0.0129424
0.0162753
0.0194822
0.0226688
0.025396
0.0277353
0.0290809
0.030489
0.00659316
0.00956147
0.0127866
0.0162322
0.0195497
0.0228341
0.0256522
0.0280245
0.0292712
0.0309174
0.00615811
0.00928903
0.0125831
0.0161495
0.0195896
0.0229861
0.0259206
0.0283547
0.0294305
0.0314847
0.00707198
0.0103367
0.0135263
0.0171403
0.0207553
0.024288
0.0273584
0.029905
0.0308125
0.0332536
0.00888624
0.0124268
0.0158963
0.019875
0.0238681
0.0277736
0.0312028
0.0340729
0.0352888
0.0374208
0.0115865
0.0154267
0.0192745
0.0237381
0.0282176
0.0326503
0.0365777
0.0398269
0.0416056
0.043461
0.0149284
0.0191355
0.0234456
0.0285128
0.0336561
0.0388486
0.0435362
0.0474975
0.0502899
0.0525039
0.0184667
0.0231085
0.0279983
0.033809
0.0398131
0.0460396
0.0518834
0.0571738
0.0616652
0.0656315
0.0221724
0.0272155
0.0328063
0.0394822
0.0465532
0.0541372
0.0617115
0.0695023
0.077663
0.0862458
0.0250217
0.0306554
0.0370176
0.0446169
0.0529787
0.0623667
0.0724924
0.0844726
0.0995098
0.118567
0.0283462
0.0344858
0.0416618
0.0502657
0.0600968
0.0717582
0.0855858
0.104656
0.133294
0.174214
0.0289928
0.0352077
0.0426492
0.051821
0.0631558
0.0779037
0.0981003
0.129133
0.180838
0.261829
0.0314553
0.0388768
0.0478754
0.0593169
0.0743963
0.0950797
0.125171
0.173474
0.258562
0.391487
0.00713694
0.00883428
0.0110487
0.0138198
0.0165994
0.0199311
0.0221278
0.0252992
0.0258006
0.0277298
0.0070373
0.00875811
0.0108944
0.0135372
0.0161106
0.0192566
0.0212085
0.0242702
0.0246442
0.0266322
0.00706383
0.00874246
0.0108055
0.0133508
0.0158059
0.0187544
0.0205389
0.0234062
0.0236002
0.0258034
0.00716201
0.0087269
0.0106545
0.0130593
0.0153777
0.0181408
0.0197949
0.0224824
0.0225044
0.0247386
0.00729265
0.00871405
0.0104742
0.0127163
0.0148668
0.0174408
0.0189571
0.0214982
0.0213643
0.0234577
0.00744325
0.00871006
0.0102932
0.0123678
0.014352
0.0167342
0.0181028
0.0205193
0.0202451
0.0221453
0.00760531
0.00871656
0.0101204
0.0120088
0.0138594
0.01605
0.0172813
0.0195847
0.0191928
0.020935
0.00776967
0.00873396
0.00995405
0.0116547
0.0133671
0.0153814
0.0165102
0.018693
0.0182218
0.0198597
0.00792718
0.00876176
0.00979358
0.0113119
0.0128726
0.0147101
0.015802
0.0178179
0.0173354
0.0188909
0.00806884
0.00879757
0.00963951
0.0109802
0.0123863
0.0140685
0.0151278
0.0169359
0.0165442
0.0179836
0.00698313
0.00745392
0.00764335
0.00779724
0.00790783
0.00797572
0.00800643
0.00800941
0.00800833
0.00797545
0.00715012
0.00759831
0.00776456
0.00788737
0.00796136
0.00798903
0.00797775
0.00793762
0.00789046
0.00781052
0.00737811
0.00777998
0.00791588
0.00800225
0.00803581
0.00802057
0.00796519
0.00788044
0.00778786
0.00766336
0.00767005
0.0080023
0.00810136
0.00814669
0.00813699
0.0080775
0.0079778
0.00784927
0.00771309
0.00754804
0.00802718
0.00826753
0.00832382
0.00832418
0.00826919
0.00816504
0.00802191
0.0078511
0.00767266
0.00747356
0.00844739
0.00857571
0.00858402
0.00853617
0.00843453
0.008286
0.0081008
0.00788919
0.00766823
0.00745482
0.00892504
0.00892405
0.00888019
0.00878161
0.0086326
0.00844038
0.00821484
0.00796732
0.00771432
0.00744379
0.00945128
0.00930657
0.0092078
0.0090567
0.00886017
0.00862552
0.00836202
0.00808091
0.0077954
0.00748957
0.0100105
0.00971645
0.00955942
0.00935486
0.00911131
0.00883599
0.00853727
0.00822536
0.0079101
0.0075791
0.0105825
0.0101388
0.0099239
0.00966652
0.00937751
0.00906393
0.00873304
0.00839361
0.00805258
0.00770243
0.0111366
0.0105547
0.0102868
0.0099798
0.00964844
0.00929991
0.00894039
0.00857707
0.00821473
0.00785088
0.0116805
0.01096
0.0106392
0.0102844
0.0099136
0.00953375
0.00914953
0.00876635
0.00838752
0.00801546
0.0121872
0.0113354
0.0109653
0.0105671
0.0101616
0.00975525
0.00935104
0.00895252
0.00856223
0.00818766
0.0126327
0.0116631
0.0112503
0.0108153
0.0103815
0.00995454
0.00953585
0.00912701
0.00873053
0.00835937
0.0129974
0.0119275
0.0114808
0.0110174
0.0105631
0.0101227
0.00969577
0.00928215
0.00888487
0.0085233
0.0132642
0.0121146
0.0116446
0.0111633
0.0106978
0.010252
0.00982401
0.0094115
0.00901871
0.00867288
0.0134191
0.0122128
0.011732
0.011245
0.010779
0.0103371
0.00991564
0.00951047
0.00912692
0.00880183
0.0134515
0.0122134
0.0117359
0.0112568
0.0108022
0.0103743
0.00996802
0.00957681
0.00920513
0.00890146
0.0133553
0.0121113
0.0116522
0.0111958
0.0107657
0.0103625
0.00998023
0.00960798
0.00924389
0.00895366
0.0131289
0.0119049
0.0114796
0.0110617
0.0106703
0.0103044
0.00995631
0.00960918
0.00925069
0.00896483
0.0127736
0.0115957
0.0112195
0.0108558
0.0105186
0.0102066
0.00991499
0.0096365
0.00938162
0.00923374
0.0122886
0.0111863
0.0108744
0.0105795
0.0103091
0.010061
0.00983196
0.00962036
0.00944104
0.00934166
0.0116882
0.0106866
0.0104514
0.0102369
0.0100427
0.00986475
0.00970019
0.00955031
0.0094272
0.00934953
0.0109885
0.0101093
0.00995961
0.00983448
0.00972426
0.00962242
0.00952688
0.00944103
0.00937454
0.00933205
0.0102078
0.0094686
0.00941069
0.00938153
0.00936149
0.00934144
0.00932008
0.00930232
0.00929613
0.00930075
0.00936687
0.00878118
0.00881818
0.00888907
0.00896378
0.00903017
0.00908746
0.00914162
0.0091995
0.00925846
0.00848831
0.00806486
0.00819691
0.00836926
0.00854138
0.00869753
0.00883707
0.00896657
0.00909247
0.00921215
0.00759466
0.0073375
0.00756205
0.00783465
0.00810473
0.00835248
0.00857676
0.00878438
0.00898182
0.00916809
0.00670833
0.00661594
0.00692816
0.00729732
0.0076638
0.00800329
0.00831357
0.00860113
0.00887269
0.00913026
0.00585937
0.00591974
0.00631056
0.00676932
0.00722804
0.00765742
0.00805342
0.00842158
0.00876864
0.00910087
0.00509097
0.00527816
0.00572915
0.00626521
0.006808
0.00732257
0.00780193
0.00824974
0.00867202
0.00908048
0.00435987
0.0046748
0.00518039
0.00578703
0.00640699
0.00700173
0.00756123
0.00808679
0.00858257
0.00906654
0.00368986
0.00412451
0.00467747
0.00534237
0.0060307
0.00669878
0.00733346
0.00793338
0.00849922
0.00905338
0.00309738
0.00363838
0.00422737
0.00493834
0.00568378
0.00641633
0.00711954
0.00778888
0.00842045
0.00903407
0.00258847
0.00322081
0.00383431
0.00457856
0.00536898
0.00615603
0.00691986
0.0076519
0.00834271
0.00901949
0.0021653
0.00287323
0.00350055
0.00426523
0.00508802
0.0059187
0.00673438
0.00752201
0.00826449
0.00899092
0.00182778
0.00259526
0.00322663
0.00399934
0.00484173
0.00570468
0.00656289
0.00739876
0.00818482
0.00894652
0.00157349
0.00238476
0.00301151
0.00378063
0.00463011
0.00551389
0.00640536
0.00728319
0.00810693
0.00888811
0.00139812
0.00223821
0.00285283
0.00360784
0.00445237
0.00534565
0.0062615
0.00717743
0.00804074
0.00882926
0.00129624
0.00215113
0.00274722
0.00347873
0.00430689
0.00519834
0.00612882
0.00707834
0.00799682
0.00880959
0.00126019
0.00211748
0.00268976
0.00338957
0.00419065
0.00506971
0.00600845
0.00700257
0.00807884
0.00917834
0.0012742
0.00212752
0.00267412
0.00333644
0.00409967
0.00494976
0.0058712
0.00685427
0.00792443
0.00900591
0.0013385
0.00217926
0.00269757
0.00331715
0.00403249
0.0048373
0.00571842
0.00666029
0.00767642
0.00869708
0.00144776
0.00226773
0.002756
0.00332965
0.00399066
0.00474008
0.00556951
0.00646445
0.00743263
0.00840398
0.00159445
0.002387
0.00284483
0.00337177
0.00397556
0.00466436
0.00543575
0.0062789
0.00719854
0.00812568
0.0017714
0.00253156
0.00295962
0.00344085
0.00398714
0.0046129
0.00532186
0.00610735
0.00697257
0.00785523
0.00197217
0.00269639
0.00309599
0.0035338
0.00402417
0.00458667
0.00523084
0.00595443
0.0067601
0.0075958
0.00219083
0.00287672
0.0032496
0.00364711
0.0040846
0.00458546
0.00516445
0.00582379
0.00656616
0.00735176
0.00242222
0.00306823
0.00341617
0.00377695
0.00416554
0.0046078
0.00512285
0.0057171
0.00639363
0.00712623
0.00266323
0.00326865
0.00359312
0.00392052
0.00426439
0.00465177
0.00510515
0.00563471
0.00624395
0.00692109
0.00291265
0.00347855
0.00378101
0.00407801
0.00438107
0.00471731
0.00511165
0.00557744
0.00611843
0.00673739
0.00315926
0.00368676
0.00396909
0.00423932
0.00450649
0.00479674
0.00513632
0.00554111
0.00601444
0.0065724
0.00340335
0.003894
0.00415748
0.00440378
0.00463921
0.00488812
0.0051771
0.00552379
0.00593038
0.00642384
0.00364501
0.00409979
0.00434523
0.00456976
0.00477698
0.0049888
0.00523124
0.00552292
0.00586401
0.00628925
0.00388348
0.00430305
0.0045309
0.00473532
0.00491732
0.00509597
0.00529589
0.00553581
0.0058129
0.00616582
0.00411872
0.0045032
0.00471364
0.00489919
0.00505848
0.00520753
0.00536884
0.00556037
0.00577512
0.00605083
0.00435119
0.00470019
0.00489328
0.00506093
0.00519967
0.00532238
0.00544899
0.00559601
0.00575077
0.00594327
0.00458153
0.00489428
0.00507017
0.00522098
0.00534124
0.00544079
0.00553671
0.00564377
0.00574203
0.00584295
0.00481019
0.00508583
0.00524513
0.00538072
0.00548537
0.00556587
0.00563599
0.00570778
0.00575157
0.00574244
0.00503705
0.00527503
0.00541908
0.0055422
0.00563614
0.00570602
0.00576336
0.00581909
0.00584211
0.00574937
0.0052617
0.00546187
0.00559247
0.00570654
0.005796
0.00586736
0.00593685
0.0060356
0.00622532
0.00655185
0.0054848
0.00564623
0.00576495
0.00587294
0.00596156
0.00603675
0.00611384
0.00622101
0.00641287
0.00669973
0.00570196
0.00582643
0.00593536
0.00604006
0.00613035
0.00620989
0.0062906
0.00639376
0.00655576
0.00677184
0.00590927
0.0060006
0.00610226
0.00620647
0.00630119
0.00638723
0.00647304
0.00657474
0.0067169
0.00688987
0.00610464
0.00616531
0.00626382
0.00637037
0.0064722
0.0065671
0.00665987
0.00676191
0.00688953
0.0070339
0.00628225
0.00632049
0.00641762
0.00652955
0.00664093
0.00674675
0.00684826
0.00695249
0.00706991
0.00719462
0.00643894
0.00646315
0.00656206
0.00668176
0.00680484
0.00692341
0.00703555
0.00714458
0.00725683
0.00736877
0.00657199
0.00659142
0.00669516
0.0068249
0.00696135
0.00709422
0.00721872
0.00733521
0.00744703
0.00755125
0.00667922
0.00670415
0.00681546
0.00695704
0.00710809
0.00725618
0.0073943
0.00752043
0.00763574
0.00773567
0.00675809
0.00680006
0.00692181
0.00707667
0.00724306
0.00740652
0.0075587
0.00769571
0.00781734
0.00791515
)
;

boundaryField
{
    inlet
    {
        type            zeroGradient;
    }
    outlet
    {
        type            fixedValue;
        value           uniform 0;
    }
    cylinder
    {
        type            zeroGradient;
    }
    top
    {
        type            symmetryPlane;
    }
    bottom
    {
        type            symmetryPlane;
    }
    defaultFaces
    {
        type            empty;
    }
}


// ************************************************************************* //
