/*--------------------------------*- C++ -*----------------------------------*\
  =========                 |
  \\      /  F ield         | OpenFOAM: The Open Source CFD Toolbox
   \\    /   O peration     | Website:  https://openfoam.org
    \\  /    A nd           | Version:  7
     \\/     M anipulation  |
\*---------------------------------------------------------------------------*/
FoamFile
{
    version     2.0;
    format      ascii;
    class       volScalarField;
    location    "9.2";
    object      p;
}
// * * * * * * * * * * * * * * * * * * * * * * * * * * * * * * * * * * * * * //

dimensions      [0 2 -2 0 0 0 0];

internalField   nonuniform List<scalar> 
18000
(
0.345405
0.346457
0.347184
0.347931
0.348597
0.349171
0.349656
0.350078
0.35047
0.350872
0.351329
0.351884
0.352582
0.353463
0.354566
0.355922
0.357559
0.3595
0.361756
0.364334
0.367227
0.370425
0.373911
0.377665
0.381659
0.385863
0.39024
0.394755
0.399361
0.403991
0.345004
0.346012
0.346693
0.347385
0.347994
0.348511
0.348936
0.349294
0.349622
0.349957
0.35034
0.350813
0.351418
0.352195
0.353181
0.354409
0.355906
0.357694
0.359786
0.362187
0.364896
0.367903
0.371198
0.374761
0.378569
0.382592
0.386797
0.391148
0.395593
0.400078
0.344617
0.345571
0.3462
0.346834
0.347384
0.347843
0.348209
0.348507
0.348776
0.34905
0.349366
0.349766
0.350289
0.350973
0.351855
0.352968
0.354339
0.355988
0.357928
0.360165
0.362701
0.365529
0.368639
0.372018
0.375644
0.379489
0.383521
0.387706
0.391984
0.396317
0.34423
0.345121
0.345699
0.346275
0.346768
0.347169
0.347481
0.347725
0.347939
0.348158
0.348416
0.348751
0.349201
0.349804
0.350595
0.351606
0.352863
0.354385
0.356185
0.358272
0.360646
0.363305
0.366242
0.369444
0.372892
0.376561
0.38042
0.384438
0.388545
0.392725
0.343855
0.344679
0.345203
0.34572
0.346154
0.346499
0.346758
0.346952
0.347117
0.347286
0.347492
0.34777
0.348158
0.348691
0.349403
0.350325
0.35148
0.352887
0.354561
0.356509
0.358735
0.361236
0.364009
0.367042
0.370319
0.373815
0.377504
0.381353
0.385288
0.389309
0.343491
0.344238
0.344707
0.345166
0.345543
0.345834
0.346043
0.346192
0.346314
0.346438
0.346597
0.346828
0.347163
0.347637
0.348283
0.349126
0.350191
0.351496
0.353056
0.354879
0.356969
0.359325
0.361944
0.364818
0.367931
0.371259
0.374779
0.37846
0.382221
0.386082
0.343142
0.343808
0.34422
0.344618
0.344939
0.345177
0.345341
0.34545
0.345532
0.345617
0.345738
0.345928
0.346222
0.346648
0.347237
0.348014
0.349
0.350216
0.351676
0.353386
0.355353
0.357576
0.360053
0.362777
0.365732
0.368899
0.372254
0.37577
0.379356
0.383054
0.342812
0.343388
0.343741
0.344077
0.344343
0.344534
0.344656
0.344728
0.344775
0.344827
0.344917
0.345077
0.345338
0.345727
0.346269
0.34699
0.347911
0.34905
0.350422
0.352033
0.353889
0.355991
0.358337
0.360921
0.363727
0.366738
0.369934
0.373288
0.376702
0.380236
0.3425
0.342979
0.343272
0.343546
0.343758
0.343904
0.343989
0.344028
0.344046
0.344073
0.34414
0.344279
0.344516
0.344876
0.345383
0.346058
0.346926
0.348001
0.349297
0.350822
0.35258
0.354573
0.3568
0.359253
0.36192
0.364783
0.367826
0.371021
0.374264
0.377633
0.342206
0.342581
0.342813
0.343025
0.343186
0.34329
0.343342
0.343354
0.343349
0.343357
0.343411
0.343537
0.343759
0.344099
0.34458
0.345223
0.346048
0.347072
0.348305
0.349756
0.351428
0.353325
0.355442
0.357775
0.360312
0.363037
0.365933
0.368974
0.372049
0.375254
0.341929
0.342193
0.342363
0.342515
0.342627
0.342693
0.342715
0.342705
0.342685
0.342683
0.34273
0.342852
0.343068
0.343399
0.343864
0.344485
0.34528
0.346264
0.347447
0.348836
0.350436
0.352246
0.354267
0.356491
0.358908
0.361501
0.364257
0.367149
0.370061
0.373103
0.341666
0.341812
0.341921
0.342015
0.34208
0.342112
0.34211
0.342083
0.342055
0.342051
0.3421
0.342226
0.342445
0.342776
0.343236
0.343846
0.344621
0.345577
0.346723
0.348063
0.349602
0.351339
0.353274
0.3554
0.357707
0.360178
0.3628
0.365549
0.368302
0.371185
0.341415
0.341437
0.341485
0.341521
0.341545
0.341546
0.341524
0.341488
0.341459
0.341461
0.34152
0.341658
0.34189
0.342231
0.342697
0.343305
0.344073
0.345012
0.346132
0.347436
0.348926
0.350603
0.352464
0.354504
0.35671
0.359067
0.361563
0.364175
0.366777
0.369502
0.34117
0.341063
0.341051
0.341033
0.341017
0.340993
0.340956
0.340918
0.340895
0.340911
0.340989
0.341148
0.341402
0.341762
0.342243
0.342862
0.343632
0.344567
0.345674
0.346954
0.348408
0.350036
0.351836
0.353799
0.355915
0.358167
0.360545
0.363029
0.365486
0.368057
0.340928
0.340687
0.340616
0.340547
0.340495
0.340449
0.340405
0.340369
0.34036
0.340398
0.340504
0.340693
0.340977
0.341367
0.341873
0.342512
0.343297
0.344239
0.345345
0.346614
0.348044
0.349635
0.351384
0.353282
0.355317
0.357474
0.359744
0.362108
0.364428
0.366849
0.340681
0.340304
0.340176
0.340059
0.339976
0.339913
0.339865
0.33984
0.339852
0.33992
0.340061
0.34029
0.340613
0.341041
0.341582
0.342251
0.343062
0.344024
0.345141
0.346409
0.347828
0.349394
0.351103
0.352947
0.354913
0.356985
0.359156
0.361408
0.363601
0.365876
0.340424
0.339909
0.339726
0.339565
0.339455
0.339379
0.339334
0.339325
0.339365
0.339471
0.339657
0.339932
0.340304
0.340778
0.341364
0.342075
0.342922
0.343915
0.345054
0.346334
0.347751
0.349304
0.350985
0.352786
0.354693
0.356691
0.358774
0.360924
0.362999
0.365134
0.34015
0.339495
0.339262
0.339059
0.338926
0.338844
0.338806
0.338819
0.338895
0.339046
0.339284
0.339615
0.340043
0.340572
0.341212
0.341974
0.342869
0.343904
0.345075
0.346377
0.347805
0.349355
0.35102
0.352789
0.354648
0.356584
0.358589
0.360647
0.362615
0.364617
0.339851
0.339058
0.338776
0.338537
0.338386
0.3383
0.338276
0.338318
0.338436
0.338639
0.338936
0.339329
0.33982
0.340413
0.341115
0.341939
0.342893
0.343979
0.345193
0.346528
0.347977
0.349535
0.351195
0.352943
0.354767
0.356652
0.35859
0.360567
0.36244
0.364317
0.339517
0.338589
0.338263
0.33799
0.337825
0.337743
0.337738
0.337814
0.33798
0.338242
0.338604
0.339065
0.339627
0.340291
0.341065
0.341959
0.34298
0.344128
0.345394
0.346771
0.348252
0.34983
0.351495
0.353234
0.355035
0.356881
0.358765
0.360672
0.362464
0.364224
0.339141
0.338081
0.337714
0.337413
0.337239
0.337165
0.337184
0.3373
0.337519
0.337845
0.338277
0.338813
0.339452
0.340194
0.341047
0.342021
0.343118
0.344335
0.345663
0.347092
0.348615
0.350222
0.351903
0.353645
0.355434
0.357254
0.359096
0.360948
0.362674
0.364328
0.338712
0.337526
0.337122
0.336798
0.33662
0.336559
0.336607
0.336767
0.337045
0.337439
0.337946
0.338562
0.339283
0.34011
0.34105
0.34211
0.343291
0.344585
0.345982
0.347471
0.349044
0.350691
0.352398
0.354155
0.355945
0.357751
0.359565
0.361377
0.363054
0.364615
0.338221
0.336917
0.336481
0.336137
0.335959
0.335916
0.335997
0.336207
0.336547
0.337013
0.3376
0.338299
0.339107
0.340025
0.341058
0.342211
0.343481
0.344859
0.346331
0.347889
0.34952
0.351215
0.352959
0.35474
0.356543
0.35835
0.360151
0.361939
0.363586
0.365069
0.33766
0.336247
0.335782
0.335425
0.335252
0.335229
0.335348
0.33561
0.336015
0.336556
0.337225
0.338013
0.338912
0.339925
0.341055
0.342306
0.343671
0.345137
0.346692
0.348323
0.35002
0.351769
0.353559
0.355375
0.357202
0.359023
0.360826
0.362609
0.364248
0.365672
0.337019
0.335507
0.33502
0.334654
0.33449
0.334492
0.334651
0.334967
0.335439
0.336058
0.336812
0.33769
0.338684
0.339795
0.341027
0.342379
0.343841
0.3454
0.347041
0.348751
0.350518
0.352328
0.35417
0.356029
0.357891
0.359739
0.361562
0.36336
0.365017
0.366405
0.336291
0.334693
0.334189
0.333819
0.333668
0.333698
0.333899
0.334271
0.33481
0.335507
0.336348
0.337318
0.338408
0.33962
0.340955
0.342411
0.343973
0.345626
0.347356
0.349148
0.350988
0.352864
0.354762
0.35667
0.358575
0.360462
0.362321
0.364158
0.365863
0.367246
0.335468
0.3338
0.333284
0.332916
0.332781
0.332841
0.333085
0.333513
0.33412
0.334895
0.335822
0.336884
0.338071
0.339385
0.340825
0.342383
0.344046
0.345795
0.347614
0.349489
0.351404
0.353346
0.355302
0.357263
0.359217
0.36115
0.363059
0.364958
0.366749
0.368168
0.334546
0.332823
0.332301
0.331939
0.331824
0.331916
0.332204
0.332687
0.33336
0.334211
0.335223
0.336376
0.337661
0.339075
0.340618
0.342279
0.34404
0.345882
0.34779
0.349747
0.351736
0.353743
0.355757
0.357769
0.359771
0.361755
0.363722
0.365701
0.367626
0.369153
0.333521
0.33176
0.331236
0.330885
0.330793
0.330919
0.331251
0.331787
0.332523
0.333448
0.334543
0.335785
0.337163
0.338677
0.34032
0.342079
0.343935
0.345868
0.347862
0.349897
0.351956
0.354024
0.356091
0.358147
0.36019
0.362218
0.364242
0.366322
0.36846
0.370261
0.33239
0.330609
0.330089
0.329751
0.329685
0.329846
0.33022
0.330807
0.331604
0.3326
0.333772
0.335099
0.336568
0.338176
0.339914
0.341766
0.343712
0.34573
0.347804
0.349911
0.352035
0.354157
0.356266
0.358354
0.360418
0.362464
0.364518
0.366682
0.369047
0.371289
0.419725
0.442784
0.461549
0.475907
0.486495
0.494298
0.499996
0.504183
0.507206
0.509362
0.510856
0.511864
0.512476
0.512766
0.512795
0.512621
0.512274
0.511753
0.511074
0.510237
0.509251
0.508119
0.506845
0.505449
0.50393
0.502304
0.500613
0.498867
0.497271
0.495803
0.415874
0.438782
0.457884
0.472437
0.483197
0.49114
0.496949
0.50121
0.5043
0.506539
0.508116
0.50918
0.509845
0.510195
0.510292
0.510177
0.509877
0.509404
0.508772
0.507974
0.507024
0.505921
0.504679
0.503307
0.501807
0.500198
0.498514
0.49677
0.495172
0.4937
0.41215
0.43482
0.454233
0.468959
0.479888
0.487972
0.493893
0.49823
0.501391
0.503714
0.505375
0.506497
0.507216
0.507627
0.507794
0.507738
0.507486
0.507062
0.506476
0.505719
0.504806
0.503734
0.502525
0.501178
0.4997
0.498112
0.496437
0.494698
0.493098
0.491623
0.40858
0.430903
0.45059
0.465471
0.476577
0.484792
0.490822
0.49525
0.498495
0.50089
0.502621
0.503811
0.504594
0.50507
0.505298
0.505301
0.505101
0.504728
0.504187
0.503472
0.502598
0.501563
0.500384
0.499063
0.497609
0.496039
0.494379
0.49265
0.491052
0.489574
0.405162
0.427038
0.446968
0.461983
0.473265
0.481606
0.487743
0.492271
0.495604
0.498066
0.499863
0.501125
0.501978
0.502519
0.502805
0.502866
0.502724
0.502401
0.501905
0.501235
0.500401
0.499405
0.498257
0.496964
0.495535
0.493984
0.492342
0.490627
0.489031
0.487551
0.401895
0.423239
0.443384
0.458504
0.469954
0.478419
0.484663
0.48929
0.492709
0.495243
0.497106
0.498442
0.499363
0.499971
0.500318
0.500437
0.500352
0.500082
0.499631
0.499008
0.498214
0.497257
0.496143
0.49488
0.493479
0.491949
0.490328
0.488626
0.487035
0.485553
0.398786
0.419515
0.439844
0.455039
0.466649
0.475234
0.481585
0.486308
0.489813
0.492422
0.494354
0.495761
0.496752
0.497427
0.497838
0.498016
0.497987
0.49777
0.497367
0.496789
0.496038
0.495122
0.494043
0.492811
0.491441
0.489935
0.488335
0.486649
0.485063
0.483581
0.395843
0.415878
0.436352
0.451591
0.463351
0.472051
0.478508
0.483326
0.486919
0.489603
0.491606
0.493086
0.494147
0.494889
0.495364
0.495603
0.495631
0.495467
0.495112
0.494581
0.493874
0.492998
0.491957
0.490758
0.48942
0.487942
0.486365
0.484696
0.483117
0.481634
0.393071
0.412338
0.432917
0.448165
0.460063
0.468873
0.475435
0.480349
0.484027
0.486789
0.488864
0.490416
0.491549
0.492357
0.492898
0.493198
0.493283
0.493173
0.492869
0.492384
0.49172
0.490886
0.489884
0.488721
0.487418
0.48597
0.484417
0.482767
0.481195
0.479712
0.390474
0.408908
0.429543
0.444765
0.456788
0.4657
0.472365
0.477375
0.48114
0.483981
0.486128
0.487753
0.488958
0.489833
0.49044
0.490803
0.490944
0.490888
0.490635
0.490197
0.489577
0.488787
0.487826
0.4867
0.485433
0.484018
0.482492
0.480861
0.479299
0.477817
0.388058
0.405599
0.426237
0.441395
0.453527
0.462534
0.469302
0.474408
0.478259
0.48118
0.4834
0.485098
0.486375
0.487318
0.487991
0.488416
0.488616
0.488613
0.488412
0.488021
0.487447
0.486701
0.485783
0.484696
0.483467
0.482087
0.480589
0.478981
0.477429
0.475949
0.385825
0.402425
0.423006
0.438061
0.450284
0.459377
0.466245
0.471448
0.475385
0.478386
0.480682
0.482452
0.483802
0.484813
0.485552
0.48604
0.486298
0.486348
0.486199
0.485856
0.485328
0.484627
0.483755
0.482708
0.481519
0.480176
0.47871
0.477125
0.475585
0.474108
0.383778
0.399396
0.419854
0.434768
0.447059
0.456228
0.463195
0.468497
0.47252
0.475602
0.477973
0.479816
0.481239
0.482318
0.483124
0.483675
0.483991
0.484094
0.483996
0.483703
0.483223
0.482567
0.48174
0.480737
0.47959
0.478287
0.476853
0.475295
0.473769
0.472295
0.38192
0.396526
0.41679
0.43152
0.443856
0.453091
0.460153
0.465555
0.469664
0.472828
0.475276
0.477191
0.478687
0.479836
0.480707
0.481321
0.481694
0.48185
0.481805
0.481561
0.481129
0.48052
0.47974
0.478782
0.477677
0.476417
0.475019
0.473491
0.471979
0.470509
0.380252
0.393826
0.413819
0.428323
0.440676
0.449967
0.45712
0.462623
0.466819
0.470066
0.472591
0.474579
0.476148
0.477366
0.478302
0.478979
0.479408
0.479618
0.479625
0.479432
0.479048
0.478486
0.477753
0.476842
0.475782
0.474567
0.473206
0.471711
0.470218
0.468751
0.378775
0.391308
0.410948
0.425185
0.437523
0.446857
0.454096
0.459702
0.463985
0.467316
0.469921
0.471982
0.473623
0.474911
0.475911
0.476649
0.477135
0.477398
0.477457
0.477315
0.476979
0.476465
0.475779
0.474916
0.473904
0.472735
0.471416
0.469957
0.468486
0.467024
0.377487
0.388985
0.408185
0.422111
0.434399
0.443763
0.451082
0.456792
0.461163
0.46458
0.467264
0.4694
0.471114
0.472471
0.473534
0.474332
0.474874
0.475191
0.475302
0.475211
0.474922
0.474456
0.473819
0.473006
0.472041
0.470922
0.469648
0.468229
0.466785
0.465328
0.37639
0.386866
0.405537
0.419109
0.431309
0.440686
0.44808
0.453894
0.458354
0.461857
0.464622
0.466834
0.46862
0.470047
0.471171
0.472028
0.472627
0.472997
0.473159
0.473118
0.472877
0.472459
0.471871
0.471109
0.470192
0.469126
0.467902
0.466527
0.465114
0.463665
0.375479
0.384963
0.403014
0.416186
0.428257
0.43763
0.44509
0.451009
0.455557
0.459148
0.461995
0.464285
0.466143
0.467639
0.468824
0.469739
0.470393
0.470816
0.471028
0.471038
0.470844
0.470474
0.469935
0.469224
0.468358
0.467346
0.466177
0.464851
0.463476
0.462036
0.374754
0.383284
0.400624
0.41335
0.425247
0.434595
0.442114
0.448136
0.452772
0.456454
0.459384
0.461753
0.463683
0.465247
0.466492
0.467464
0.468174
0.468649
0.468909
0.468969
0.468823
0.468501
0.46801
0.467352
0.466538
0.465582
0.464473
0.463202
0.46187
0.460444
0.374211
0.381838
0.398376
0.410608
0.422286
0.431587
0.439152
0.445276
0.45
0.453775
0.456791
0.459241
0.461241
0.462872
0.464177
0.465205
0.465968
0.466496
0.466803
0.466911
0.466814
0.466539
0.466095
0.465489
0.46473
0.463833
0.462789
0.46158
0.460299
0.458892
0.373847
0.380629
0.396278
0.407969
0.419378
0.428609
0.436208
0.442431
0.447242
0.451111
0.454216
0.456747
0.458819
0.460515
0.461881
0.462962
0.463778
0.464356
0.464711
0.464866
0.464815
0.464586
0.464191
0.463637
0.462934
0.462099
0.461123
0.459984
0.458764
0.457383
0.373658
0.379661
0.394338
0.405442
0.41653
0.425665
0.433282
0.439601
0.444498
0.448464
0.451659
0.454273
0.456417
0.458178
0.459602
0.460737
0.461604
0.462231
0.462632
0.462832
0.462828
0.462644
0.462295
0.461793
0.461148
0.460377
0.459475
0.458413
0.457266
0.455922
0.373637
0.378934
0.392562
0.403037
0.413749
0.42276
0.430377
0.436786
0.441768
0.445833
0.449122
0.451819
0.454035
0.45586
0.457343
0.458529
0.459446
0.46012
0.460566
0.46081
0.46085
0.460709
0.460408
0.459958
0.459372
0.458666
0.457842
0.456867
0.455807
0.454515
0.373781
0.378444
0.390957
0.400764
0.411044
0.419898
0.427499
0.433987
0.439052
0.443219
0.446604
0.449385
0.451674
0.453562
0.455102
0.456339
0.457305
0.458023
0.458513
0.458798
0.458882
0.458784
0.45853
0.45813
0.457603
0.456964
0.456222
0.455344
0.454389
0.453169
0.374089
0.378185
0.389531
0.398632
0.408425
0.417085
0.424652
0.431208
0.436352
0.440622
0.444104
0.446971
0.449335
0.451285
0.452881
0.454167
0.455179
0.455941
0.456473
0.456796
0.456922
0.456866
0.456658
0.456309
0.45584
0.455269
0.454613
0.453842
0.453012
0.451894
0.374563
0.378143
0.38829
0.396653
0.405902
0.414327
0.421844
0.428451
0.433671
0.438042
0.441625
0.444578
0.447017
0.449029
0.450679
0.452013
0.45307
0.453873
0.454445
0.454805
0.454972
0.454956
0.454793
0.454492
0.454082
0.45358
0.453011
0.452357
0.451674
0.450701
0.375159
0.378287
0.387235
0.394838
0.403485
0.411632
0.419085
0.425718
0.431009
0.43548
0.439164
0.442205
0.444718
0.44679
0.448493
0.449873
0.450974
0.451815
0.452425
0.452821
0.453026
0.453051
0.45293
0.452678
0.452324
0.45189
0.45141
0.450881
0.450373
0.449607
0.375781
0.378506
0.386304
0.393156
0.401156
0.408979
0.416357
0.422985
0.428336
0.432904
0.436689
0.43982
0.442408
0.444543
0.446301
0.44773
0.448873
0.449753
0.4504
0.450832
0.451076
0.451141
0.451063
0.450858
0.45056
0.450192
0.449801
0.449405
0.449099
0.448629
0.377109
0.379057
0.385591
0.391618
0.398902
0.406336
0.413613
0.420183
0.425583
0.43025
0.434155
0.437396
0.440079
0.442291
0.444113
0.445594
0.446782
0.447701
0.448385
0.448852
0.44913
0.449233
0.449194
0.449034
0.448786
0.448481
0.448173
0.447911
0.44783
0.447784
0.386934
0.385932
0.388131
0.390303
0.394101
0.399327
0.405642
0.411753
0.417314
0.422434
0.426859
0.430549
0.433571
0.436028
0.43802
0.439623
0.440901
0.441895
0.442642
0.443171
0.443513
0.443691
0.443734
0.443672
0.443541
0.443387
0.443287
0.443372
0.443951
0.445508
0.383864
0.383
0.383765
0.383161
0.383873
0.387168
0.391754
0.397617
0.403604
0.409412
0.414524
0.41877
0.422194
0.424926
0.427109
0.428853
0.430242
0.431333
0.432172
0.432793
0.433229
0.433509
0.433662
0.433722
0.433731
0.433747
0.433869
0.434276
0.435364
0.437642
0.37376
0.375266
0.375523
0.373574
0.372327
0.373494
0.377254
0.383039
0.389698
0.396355
0.402262
0.407128
0.410979
0.413984
0.416336
0.418189
0.419655
0.420811
0.42171
0.422395
0.422899
0.423254
0.423491
0.423645
0.423759
0.423893
0.424148
0.424701
0.425948
0.428381
0.359103
0.362481
0.362892
0.360914
0.358739
0.358734
0.361884
0.367867
0.375351
0.382995
0.389812
0.395384
0.399718
0.403025
0.405555
0.407512
0.409045
0.410251
0.411198
0.411932
0.412491
0.412907
0.413212
0.413438
0.413628
0.41384
0.414166
0.414767
0.416011
0.418412
0.34178
0.346392
0.347518
0.346341
0.344345
0.344109
0.347199
0.353535
0.361709
0.370141
0.377689
0.383842
0.388584
0.392149
0.394827
0.396868
0.39845
0.399691
0.400669
0.401437
0.402035
0.402495
0.402848
0.403123
0.40336
0.403612
0.403962
0.404555
0.405715
0.407979
0.323935
0.329401
0.331509
0.331613
0.330696
0.3311
0.334557
0.341134
0.349563
0.358288
0.366147
0.372592
0.377568
0.381296
0.384076
0.386175
0.38779
0.389053
0.39005
0.39084
0.391463
0.391951
0.392331
0.392634
0.392893
0.393156
0.393498
0.394047
0.39509
0.397175
0.306883
0.313031
0.316204
0.317743
0.318361
0.319906
0.323906
0.330527
0.33877
0.347297
0.355053
0.361497
0.366534
0.370339
0.373184
0.375328
0.376973
0.378257
0.379272
0.380078
0.380717
0.38122
0.381616
0.381929
0.382193
0.382448
0.382761
0.383248
0.384164
0.386057
0.290941
0.297642
0.301821
0.304708
0.306886
0.309672
0.314239
0.320789
0.328613
0.336665
0.344065
0.35032
0.355304
0.359133
0.36203
0.364226
0.365914
0.367231
0.368272
0.369098
0.369753
0.370269
0.370672
0.370988
0.371245
0.371481
0.371758
0.372178
0.372969
0.374667
0.275919
0.283024
0.288042
0.292056
0.295558
0.299436
0.304514
0.310978
0.318355
0.325871
0.332836
0.338831
0.343717
0.347554
0.35051
0.35278
0.354535
0.355909
0.356994
0.357854
0.358533
0.359065
0.359476
0.359792
0.360039
0.360253
0.36049
0.360842
0.361512
0.363018
0.261522
0.268879
0.274531
0.279402
0.283904
0.288626
0.294117
0.300523
0.307524
0.314566
0.321129
0.326875
0.331664
0.335518
0.338552
0.340921
0.342774
0.344232
0.345386
0.3463
0.347019
0.347577
0.348002
0.34832
0.348559
0.348753
0.348953
0.349242
0.349801
0.351119
0.2475
0.254984
0.261074
0.266552
0.271756
0.277076
0.282869
0.289231
0.295942
0.302608
0.308845
0.314386
0.319102
0.322987
0.326117
0.328609
0.330587
0.332157
0.333406
0.334397
0.335174
0.335773
0.336223
0.336553
0.336789
0.336965
0.337128
0.337355
0.337812
0.338946
0.233657
0.24118
0.247554
0.253444
0.259119
0.264839
0.270826
0.277139
0.283625
0.290003
0.29599
0.301373
0.306039
0.309968
0.313204
0.315832
0.317952
0.319656
0.321022
0.322109
0.322963
0.323619
0.324108
0.32446
0.324703
0.32487
0.325006
0.325181
0.325546
0.326503
0.219855
0.227356
0.233908
0.240072
0.246055
0.252023
0.258115
0.264367
0.270673
0.276829
0.282621
0.287882
0.292516
0.296492
0.299833
0.302599
0.304866
0.306715
0.308212
0.309413
0.310361
0.311091
0.311635
0.312021
0.312278
0.312439
0.312549
0.312675
0.312957
0.313742
0.20599
0.213436
0.220098
0.22644
0.232614
0.238727
0.244863
0.251045
0.257198
0.263175
0.26881
0.273973
0.27858
0.282597
0.286032
0.288927
0.291339
0.293333
0.294966
0.296288
0.29734
0.298156
0.298767
0.299201
0.299488
0.299659
0.299757
0.299846
0.300056
0.300677
0.191987
0.199361
0.206095
0.21255
0.218838
0.225026
0.231166
0.237273
0.243292
0.249116
0.254619
0.259695
0.264275
0.268322
0.271835
0.274842
0.277384
0.279514
0.281281
0.282728
0.28389
0.2848
0.285485
0.285973
0.286293
0.286477
0.286567
0.286622
0.286769
0.287225
0.1778
0.185094
0.191881
0.198407
0.204754
0.210972
0.217091
0.223119
0.229018
0.234709
0.240093
0.245088
0.249633
0.253694
0.257264
0.26036
0.263013
0.265263
0.26715
0.268712
0.269982
0.270989
0.271758
0.272313
0.272681
0.272893
0.272988
0.273022
0.273119
0.273423
0.163413
0.170622
0.177454
0.184021
0.190389
0.196603
0.202683
0.208632
0.214421
0.21999
0.225264
0.230177
0.234678
0.238735
0.24234
0.245501
0.24824
0.25059
0.252583
0.254251
0.25562
0.256714
0.257558
0.258174
0.258587
0.258826
0.258926
0.258939
0.258989
0.259134
0.148855
0.155966
0.16283
0.169409
0.175762
0.181946
0.187975
0.193844
0.199529
0.204982
0.210148
0.214974
0.219418
0.223452
0.227067
0.230264
0.233061
0.235483
0.237557
0.239311
0.240769
0.24195
0.242873
0.243557
0.244024
0.244299
0.244415
0.24442
0.244436
0.244439
0.134211
0.141186
0.148046
0.154597
0.160898
0.167026
0.172992
0.17878
0.184363
0.189703
0.19476
0.199492
0.203865
0.207856
0.211454
0.214661
0.21749
0.219961
0.222094
0.22391
0.225428
0.226669
0.227649
0.228384
0.228892
0.229193
0.229315
0.229302
0.229277
0.229117
0.119619
0.126381
0.133162
0.139623
0.145827
0.151872
0.157761
0.16346
0.168937
0.174159
0.179098
0.183721
0.188004
0.191927
0.19548
0.198664
0.20149
0.203976
0.206141
0.208002
0.209575
0.210871
0.211906
0.212691
0.213242
0.213576
0.213713
0.213692
0.21363
0.213327
0.105257
0.111685
0.118263
0.124543
0.130592
0.136517
0.142306
0.147905
0.153268
0.158366
0.163178
0.167679
0.171852
0.175682
0.179163
0.182298
0.185094
0.187564
0.189721
0.191584
0.193166
0.194481
0.195538
0.196345
0.196914
0.197258
0.19739
0.197342
0.197222
0.196728
0.0913133
0.0972464
0.103452
0.109432
0.115251
0.121005
0.126661
0.132133
0.137362
0.142315
0.146976
0.15133
0.155364
0.159067
0.162438
0.165482
0.16821
0.170637
0.172773
0.17463
0.176216
0.177541
0.178613
0.179441
0.180032
0.180392
0.180527
0.180454
0.180268
0.179603
0.0779498
0.0832089
0.0888476
0.0943858
0.099878
0.105395
0.11087
0.116185
0.121258
0.126049
0.13054
0.134722
0.138589
0.142136
0.145367
0.148286
0.1509
0.153224
0.155274
0.157064
0.158602
0.159891
0.160937
0.161744
0.16232
0.162668
0.162782
0.162658
0.162365
0.161449
0.0652711
0.0696914
0.0745738
0.0795205
0.084574
0.0897633
0.094981
0.100074
0.104936
0.109517
0.113797
0.117764
0.121415
0.124755
0.127797
0.130553
0.133034
0.13525
0.137211
0.138926
0.140406
0.141653
0.14267
0.143458
0.144022
0.144366
0.144473
0.144308
0.143889
0.142741
0.0533235
0.0567874
0.060761
0.0649718
0.0694593
0.0742156
0.0790964
0.0839094
0.0885166
0.0928497
0.0968783
0.100591
0.103987
0.107074
0.109866
0.11238
0.114636
0.116653
0.118444
0.120017
0.121375
0.122521
0.123455
0.124176
0.124687
0.124993
0.125072
0.124847
0.12425
0.122761
0.0421025
0.0445681
0.0475408
0.0508907
0.0546688
0.0588427
0.0632375
0.0676349
0.0718784
0.0758784
0.0795816
0.0829653
0.0860368
0.0888195
0.091338
0.0936093
0.0956467
0.097465
0.0990782
0.100497
0.101728
0.102771
0.103624
0.104281
0.104742
0.105019
0.1051
0.104855
0.104077
0.102292
0.0315637
0.0330756
0.0350234
0.0374194
0.0403828
0.0438787
0.0476884
0.0515698
0.0553599
0.0589496
0.0622569
0.0652367
0.0678872
0.0702384
0.0723355
0.0742183
0.0759114
0.0774274
0.0787737
0.0799576
0.080984
0.0818533
0.0825628
0.0831038
0.0834671
0.083671
0.083732
0.0834888
0.0825316
0.080377
0.0216422
0.0223278
0.0232988
0.0246635
0.0266378
0.0292347
0.032223
0.0353782
0.0385452
0.0415829
0.0443755
0.0468686
0.0490643
0.0509947
0.0527005
0.0542164
0.0555662
0.056768
0.0578345
0.0587741
0.0595907
0.0602841
0.0608524
0.0612868
0.0615674
0.0617029
0.0617561
0.0616002
0.0606015
0.0582767
0.0122251
0.0122187
0.0123166
0.0128786
0.0140616
0.015785
0.0178278
0.0200917
0.0224614
0.0247486
0.0267881
0.028516
0.0299645
0.0312059
0.0323012
0.0332796
0.0341514
0.0349249
0.0356096
0.0362124
0.0367349
0.0371754
0.0375332
0.0378054
0.0379704
0.0380077
0.0379891
0.0379314
0.0371404
0.0348676
0.00328165
0.0011803
-0.000130477
0.000274409
0.00111243
0.00209524
0.00312574
0.00437957
0.00581935
0.00725222
0.00850979
0.0095222
0.0103076
0.0109276
0.0114386
0.0118746
0.0122527
0.0125839
0.0128766
0.0131362
0.0133635
0.013556
0.0137117
0.0138327
0.0139108
0.0139061
0.0138263
0.0138328
0.0137041
0.0122285
0.375781
0.371527
0.360801
0.345632
0.328995
0.312482
0.296784
0.281903
0.267636
0.253771
0.240146
0.226628
0.213122
0.199559
0.185879
0.172054
0.158084
0.143998
0.129877
0.11584
0.102042
0.0886501
0.0758126
0.0636286
0.0521452
0.0413571
0.0312003
0.0215928
0.0124721
0.00365865
0.375062
0.36912
0.35787
0.342288
0.325632
0.309279
0.293781
0.279084
0.264975
0.251248
0.237744
0.224333
0.210922
0.197446
0.183847
0.1701
0.156209
0.142211
0.128196
0.11429
0.100649
0.0874399
0.0748017
0.0628239
0.0515442
0.0409497
0.0309636
0.0214925
0.0124828
0.00374824
0.374382
0.366242
0.354347
0.338482
0.321989
0.305925
0.2907
0.276231
0.262302
0.248723
0.235343
0.222041
0.208725
0.195337
0.181819
0.168148
0.154336
0.140423
0.126505
0.112717
0.0992147
0.0861662
0.0737061
0.0619201
0.0508399
0.0404465
0.030647
0.0213319
0.012443
0.00382393
0.373164
0.362881
0.350615
0.334623
0.318365
0.302615
0.287664
0.273416
0.259665
0.246231
0.232974
0.219779
0.206557
0.193255
0.179815
0.166221
0.152489
0.138663
0.124849
0.111185
0.0978306
0.0849492
0.0726708
0.061075
0.0501867
0.0399817
0.0303545
0.0211836
0.0124028
0.00388458
0.371525
0.359213
0.346786
0.330769
0.314775
0.299345
0.284664
0.270635
0.257058
0.243768
0.230633
0.217544
0.204415
0.191196
0.177834
0.164315
0.150662
0.136925
0.123219
0.109685
0.0964846
0.0837768
0.0716858
0.0602826
0.0495835
0.0395579
0.03009
0.0210505
0.012366
0.00393019
0.369493
0.355335
0.342879
0.326928
0.311219
0.296113
0.2817
0.267887
0.254483
0.241336
0.22832
0.215336
0.202298
0.189161
0.175875
0.162431
0.148857
0.135212
0.121617
0.108218
0.0951758
0.0826465
0.0707458
0.0595359
0.0490224
0.0391677
0.0298475
0.0209287
0.0123304
0.00396362
0.367019
0.3513
0.338905
0.32311
0.307701
0.292922
0.278773
0.265172
0.25194
0.238934
0.226038
0.213157
0.200208
0.187151
0.17394
0.160569
0.147075
0.133525
0.120045
0.106785
0.0939062
0.0815598
0.0698518
0.0588346
0.0485022
0.0388097
0.0296261
0.0208169
0.0122958
0.00398736
0.364088
0.347167
0.334883
0.319326
0.304227
0.289774
0.275884
0.262491
0.24943
0.236564
0.223785
0.211007
0.198147
0.185167
0.172029
0.158731
0.145319
0.131866
0.118505
0.105388
0.0926775
0.0805178
0.0690038
0.0581778
0.0480219
0.0384827
0.0294251
0.0207147
0.0122627
0.00400331
0.36071
0.342986
0.330828
0.315584
0.3008
0.286668
0.273035
0.259847
0.246953
0.234226
0.221564
0.208886
0.196113
0.18321
0.170144
0.156919
0.143589
0.130236
0.116998
0.104029
0.0914913
0.079521
0.0682011
0.057564
0.047579
0.0381845
0.0292432
0.0206215
0.0122315
0.00401313
0.356917
0.338794
0.326758
0.311888
0.297424
0.283605
0.270225
0.257238
0.24451
0.23192
0.219374
0.206795
0.194108
0.181279
0.168285
0.155133
0.141888
0.128638
0.115526
0.102711
0.0903494
0.0785702
0.0674434
0.0569917
0.0471715
0.037913
0.0290787
0.0205365
0.0122024
0.00402241
0.352759
0.334617
0.322693
0.308239
0.2941
0.280587
0.267456
0.254666
0.242101
0.229647
0.217215
0.204733
0.192131
0.179375
0.166452
0.153375
0.140216
0.127073
0.114093
0.101436
0.0892537
0.0776665
0.0667309
0.05646
0.0467976
0.0376666
0.0289301
0.0204593
0.0121752
0.00402431
0.348301
0.330468
0.318651
0.30464
0.290831
0.277614
0.264726
0.252131
0.239726
0.227407
0.215089
0.202701
0.190182
0.177499
0.164647
0.151646
0.138575
0.125542
0.112699
0.100205
0.0882055
0.0768106
0.0660637
0.0559683
0.0464563
0.0374438
0.0287963
0.0203895
0.0121499
0.00402383
0.343617
0.326355
0.31465
0.301092
0.287619
0.274688
0.262039
0.249634
0.237389
0.225202
0.212994
0.200699
0.188261
0.175651
0.16287
0.149945
0.136967
0.124048
0.111347
0.0990206
0.0872057
0.076003
0.0654417
0.0555156
0.0461459
0.037243
0.028676
0.0203262
0.0121263
0.00402164
0.338781
0.32228
0.310705
0.297598
0.284462
0.27181
0.259394
0.247177
0.235088
0.223031
0.210932
0.198728
0.186369
0.173831
0.161121
0.148275
0.135391
0.122592
0.110037
0.0978825
0.0862545
0.075243
0.0648638
0.0551001
0.0458643
0.037062
0.0285676
0.0202685
0.012104
0.00401824
0.333865
0.318249
0.306827
0.29416
0.281362
0.26898
0.256792
0.244761
0.232825
0.220895
0.208902
0.196787
0.184506
0.172039
0.1594
0.146635
0.13385
0.121176
0.108772
0.0967913
0.0853513
0.0745295
0.0643279
0.0547191
0.0456087
0.0368985
0.0284693
0.0202156
0.0120828
0.00401412
0.328932
0.314262
0.303024
0.290779
0.278318
0.266198
0.254233
0.242384
0.230599
0.218794
0.206906
0.194878
0.182673
0.170276
0.157708
0.145026
0.132344
0.119799
0.107551
0.0957473
0.0844956
0.0738609
0.0638318
0.05437
0.0453763
0.0367501
0.0283797
0.0201667
0.0120625
0.00400963
0.324034
0.310325
0.299301
0.287458
0.275329
0.263465
0.251718
0.240048
0.228409
0.216728
0.204942
0.192999
0.180869
0.168541
0.156046
0.143451
0.130876
0.118465
0.106375
0.094751
0.083687
0.073236
0.0633732
0.0540502
0.0451648
0.0366151
0.0282977
0.0201213
0.0120431
0.00400503
0.319214
0.306444
0.295662
0.284199
0.272395
0.260781
0.249245
0.237751
0.226257
0.214696
0.20301
0.191152
0.179094
0.166835
0.154414
0.14191
0.129447
0.117174
0.105247
0.0938031
0.0829256
0.0726536
0.0629504
0.0537578
0.0449724
0.0364921
0.0282226
0.0200791
0.0120245
0.00400053
0.314505
0.302624
0.292109
0.281003
0.269516
0.258145
0.246815
0.235493
0.224141
0.212698
0.20111
0.189334