/*--------------------------------*- C++ -*----------------------------------*\
  =========                 |
  \\      /  F ield         | OpenFOAM: The Open Source CFD Toolbox
   \\    /   O peration     | Website:  https://openfoam.org
    \\  /    A nd           | Version:  7
     \\/     M anipulation  |
\*---------------------------------------------------------------------------*/
FoamFile
{
    version     2.0;
    format      ascii;
    class       surfaceScalarField;
    location    "55.4";
    object      phi;
}
// * * * * * * * * * * * * * * * * * * * * * * * * * * * * * * * * * * * * * //

dimensions      [0 3 -1 0 0 0 0];

internalField   nonuniform List<scalar> 
3880
(
-7.12301e-05
-0.000773394
0.000844624
-0.000134993
-0.00132464
0.0013884
-0.000128268
-0.00129593
0.0012892
-6.90282e-06
-0.000848722
0.000727357
0.0002619
-6.01946e-05
-0.000208609
0.000700675
0.0010294
-0.00146818
0.00131935
0.00239179
-0.00301047
0.00211278
0.00399543
-0.00478886
0.00305851
0.00579768
-0.0067434
0.00773818
0.00411486
-0.00879452
-8.33442e-05
-0.00069005
-0.000164427
-0.00124356
-0.000180533
-0.00127982
-8.8265e-05
-0.00094099
0.000146901
-0.000295361
0.000552482
0.00062382
0.00114659
0.00179769
0.00193341
0.00320861
0.00289821
0.00483288
0.00663518
0.00400121
-8.72007e-05
-0.000602849
-0.000170032
-0.00116073
-0.000190177
-0.00125968
-0.000108794
-0.00102237
0.000106417
-0.000510572
0.00048453
0.000245706
0.00104947
0.00123275
0.00181447
0.0024436
0.00277458
0.00387277
0.00551461
0.00389514
-8.06836e-05
-0.000522166
-0.000145753
-0.00109566
-0.000145207
-0.00126022
-4.82311e-05
-0.00111935
0.000171248
-0.000730051
0.000539577
-0.000122623
0.00108263
0.000689701
0.00182052
0.00170571
0.00275917
0.00293412
0.00440003
0.00387376
-6.24035e-05
-0.000459762
-8.75492e-05
-0.00107051
-3.70671e-05
-0.0013107
0.000109038
-0.00126545
0.000367561
-0.000988574
0.000757887
-0.000512949
0.00130272
0.000144867
0.00202524
0.000983185
0.00294114
0.00201823
0.00330082
0.00404035
-3.20685e-05
-0.000427694
5.60641e-06
-0.00110819
0.000136659
-0.00144176
0.000369381
-0.00149818
0.000709136
-0.00132833
0.001165
-0.000968817
0.00175228
-0.000442411
0.00249168
0.00024379
0.0034053
0.0011046
0.00220412
0.004502
1.03968e-05
-0.000438091
0.000130763
-0.00122855
0.000370899
-0.00168189
0.00072592
-0.0018532
0.00118956
-0.00179197
0.00175935
-0.00153861
0.00243993
-0.001123
0.00324474
-0.00056102
0.00419676
0.000152577
0.00107786
0.00532303
6.10445e-05
-0.000499136
0.000281358
-0.00144887
0.000652207
-0.00205274
0.00115678
-0.00235777
0.00177822
-0.0024134
0.00250324
-0.00226363
0.00332493
-0.00194469
0.00424575
-0.00148184
0.00528315
-0.000884819
-0.00011588
0.00647688
0.000118316
-0.000617452
0.000447493
-0.00177804
0.000959792
-0.00256504
0.00162645
-0.00302443
0.00242169
-0.00320864
0.00332396
-0.0031659
0.00431658
-0.00293731
0.005389
-0.00255426
0.00654357
-0.00203939
-0.0014044
0.0078321
0.000178217
-0.000795669
0.000616907
-0.00221673
0.00126759
-0.00321572
0.00208949
-0.00384633
0.00304982
-0.00416897
0.00412322
-0.0042393
0.00529047
-0.00410457
0.00653543
-0.00379922
0.00783622
-0.00334018
0.00919068
-0.00275886
0.00679718
0.0442483
-0.0469307
0.00805534
0.071245
-0.0725031
0.00797704
0.0923786
-0.0923003
0.0072822
0.111829
-0.111134
0.006323
0.13272
-0.131761
0.00519769
0.156558
-0.155433
0.00392662
0.184004
-0.182733
0.00246671
0.216164
-0.214705
0.00104151
0.258028
-0.256603
0.306601
-0.30556
0.0071985
0.041051
0.00908886
0.0693546
0.00937306
0.0920944
0.00884314
0.112359
0.00793815
0.133625
0.00677051
0.157726
0.0053527
0.185422
0.00362651
0.217891
0.00174031
0.259914
0.308342
0.00747133
0.0374749
0.0100467
0.0667792
0.010743
0.0913982
0.0104042
0.112698
0.00956062
0.134469
0.00835244
0.158934
0.00678565
0.186989
0.00479169
0.219885
0.00244209
0.262264
0.310784
0.00761348
0.0337351
0.0108866
0.063506
0.0120482
0.0902366
0.0119339
0.112812
0.0111645
0.135238
0.0099223
0.160176
0.00821
0.188701
0.00595121
0.222143
0.0031391
0.265076
0.313923
0.00766707
0.0301084
0.011568
0.0596051
0.0132499
0.0885548
0.0134022
0.11266
0.0127252
0.135915
0.0114595
0.161442
0.00961164
0.190549
0.00709361
0.224661
0.00382743
0.268342
0.31775
0.00771778
0.0268926
0.0120568
0.055266
0.0143112
0.0863004
0.0147766
0.112194
0.014214
0.136478
0.0129377
0.162718
0.0109676
0.192519
0.008204
0.227425
0.00449816
0.272048
0.322248
0.00786948
0.0243462
0.0123503
0.0507852
0.0152016
0.0834491
0.016034
0.111362
0.0156198
0.136892
0.014353
0.163985
0.0122772
0.194595
0.00928044
0.230422
0.00515037
0.276178
0.327399
0.00820117
0.0226219
0.0124837
0.0465027
0.0158897
0.0800431
0.017124
0.110128
0.0168883
0.137128
0.0156512
0.165222
0.0134937
0.196752
0.0102951
0.23362
0.00577045
0.280702
0.333169
0.00872283
0.0217312
0.0125152
0.0427103
0.0163924
0.0761659
0.0180975
0.108423
0.0180894
0.137136
0.0169001
0.166412
0.0146716
0.198981
0.0112706
0.237021
0.00636598
0.285607
0.339535
0.00944578
0.0214761
0.012566
0.0395901
0.0165906
0.0721413
0.0187451
0.106268
0.0190424
0.136838
0.0179551
0.167499
0.0157393
0.201197
0.0121627
0.240598
0.00696353
0.290806
0.346499
0.0249719
0.0326507
-0.0361466
0.0177693
0.0467927
0.0172029
0.0727077
0.0167951
0.106676
0.0149494
0.138684
0.0122777
0.170171
0.00908181
0.204393
0.00541622
0.244264
0.0018823
0.29434
0.348381
0.032376
0.0394466
-0.0391718
0.0235094
0.0556593
0.0194028
0.0768143
0.0176424
0.108436
0.0149523
0.141374
0.011714
0.173409
0.00844462
0.207662
0.00499276
0.247715
0.00175153
0.297581
0.350133
0.0357618
0.0427256
-0.0390408
0.0284157
0.0630054
0.022379
0.0828509
0.0191933
0.111622
0.0161818
0.144386
0.0126328
0.176958
0.00892492
0.21137
0.00515503
0.251485
0.00182677
0.30091
0.351959
0.0358341
0.0437448
-0.0368534
0.0309057
0.0679339
0.0248191
0.0889376
0.0202442
0.116197
0.0162607
0.148369
0.012418
0.180801
0.00875112
0.215037
0.00513946
0.255097
0.00188199
0.304167
0.353841
0.0337034
0.0433745
-0.033333
0.031113
0.0705242
0.0264669
0.0935837
0.0221334
0.12053
0.0179559
0.152547
0.0135753
0.185181
0.00936012
0.219252
0.00544924
0.259008
0.00204543
0.307571
0.355887
0.0298678
0.0419303
-0.0284237
0.0292086
0.0711834
0.025871
0.0969213
0.021611
0.12479
0.017404
0.156754
0.0132376
0.189348
0.00922196
0.223268
0.0054351
0.262795
0.00209543
0.310911
0.357982
0.0250907
0.0394814
-0.0226418
0.0264624
0.0698118
0.0255109
0.0978728
0.0226556
0.127646
0.0186591
0.16075
0.0141367
0.19387
0.00971084
0.227693
0.00566067
0.266845
0.00220095
0.31437
0.360183
0.0196949
0.0363678
-0.0165814
0.0219188
0.067588
0.0219584
0.0978331
0.02014
0.129464
0.0172133
0.163677
0.0135076
0.197576
0.00952149
0.23168
0.00567291
0.270693
0.00227915
0.317764
0.362462
0.0152667
0.0322624
-0.0111613
0.0193474
0.0635073
0.0213273
0.0958532
0.0205238
0.130268
0.0177393
0.166461
0.0139011
0.201414
0.00971341
0.235867
0.00576083
0.274646
0.00231718
0.321208
0.364779
0.0088527
-0.00533734
0.0128361
0.0160759
0.0173136
0.0162592
0.0133879
0.00970129
0.00582308
0.0024453
0.0128487
-0.0381093
-0.010886
0.012956
-0.0392791
0.0121177
-0.0382025
0.0108403
-0.035576
0.00936396
-0.0318567
0.00783513
-0.0268948
0.00636195
-0.0211686
0.00500023
-0.0152197
0.00369836
-0.00985941
-0.00445475
0.0119688
-0.0389915
-0.0110866
0.0114221
-0.0387324
0.0102544
-0.0370348
0.00880152
-0.0341231
0.0072312
-0.0302864
0.0056601
-0.0253237
0.00417805
-0.0196865
0.0028354
-0.013877
0.00157476
-0.00859877
-0.003611
0.0106379
-0.0390483
-0.0105811
0.00963249
-0.037727
0.0082341
-0.0356364
0.00664825
-0.0325373
0.00500529
-0.0286434
0.00340555
-0.023724
0.00193016
-0.0182112
0.000626915
-0.0125738
-0.00056964
-0.00740221
-0.00284381
0.00887561
-0.0384925
-0.0094314
0.00755638
-0.0364078
0.0060116
-0.0340916
0.00435026
-0.030876
0.00267929
-0.0269725
0.00108565
-0.0221304
-0.000355211
-0.0167703
-0.00160104
-0.011328
-0.00267175
-0.00633149
-0.00214921
0.00675862
-0.0374929
-0.00775826
0.00523799
-0.0348872
0.00361373
-0.0324673
0.001927
-0.0291892
0.00026549
-0.025311
-0.00127614
-0.0205887
-0.0026538
-0.0153926
-0.00381891
-0.0101628
-0.00476566
-0.00538474
-0.00156742
0.0043875
-0.0361791
-0.00570122
0.00275225
-0.0332519
0.00109751
-0.0308126
-0.000569074
-0.0275226
-0.00216854
-0.0237115
-0.00364706
-0.0191102
-0.00493574
-0.0141039
-0.00599739
-0.0091012
-0.00681082
-0.00457131
-0.00111117
0.00186399
-0.0346476
-0.00339555
0.000166611
-0.0315545
-0.00145436
-0.0291916
-0.00307393
-0.0259031
-0.00460213
-0.0221833
-0.00598444
-0.0177279
-0.00716554
-0.0129228
-0.00810745
-0.0081593
-0.00878119
-0.00389757
-0.000782681
-0.000710706
-0.0329797
-0.000957151
-0.00239016
-0.0298751
-0.00398827
-0.0275935
-0.00554052
-0.0243508
-0.00697393
-0.0207499
-0.0082446
-0.0164572
-0.00930644
-0.011861
-0.010119
-0.00734672
-0.0106529
-0.00336372
-0.000576042
-0.00325694
-0.0312206
0.00149786
-0.00490381
-0.0282282
-0.00644058
-0.0260568
-0.00790455
-0.0228868
-0.00923331
-0.0194211
-0.0103847
-0.0153058
-0.0113226
-0.0109232
-0.0120037
-0.00666565
-0.0124043
-0.00296304
-0.000478541
-0.00569059
-0.0294269
0.00389689
-0.00728515
-0.0266337
-0.00874843
-0.0245935
-0.0101137
-0.0215216
-0.011335
-0.0181998
-0.0123661
-0.0142747
-0.0131818
-0.0101074
-0.0137369
-0.00611063
-0.014018
-0.00268194
-0.000472019
-0.00794672
-0.0276447
0.00616445
-0.00947503
-0.0251053
-0.010861
-0.0232075
-0.0121234
-0.0202592
-0.0132406
-0.0170827
-0.0141564
-0.0133589
-0.0148584
-0.00940541
-0.0153001
-0.00566891
-0.0154812
-0.0025009
-0.00053425
-0.0099848
-0.0259074
0.00824753
-0.011434
-0.0236561
-0.0127427
-0.0218988
-0.0139025
-0.0190995
-0.0149228
-0.0160623
-0.0157335
-0.0125482
-0.0163353
-0.00880359
-0.0166825
-0.00532168
-0.0167876
-0.00239583
-0.000640426
-0.0117711
-0.0242417
0.0101054
-0.0131312
-0.022296
-0.0143663
-0.0206637
-0.0154281
-0.0180377
-0.0163628
-0.0151276
-0.0170839
-0.0118271
-0.0176041
-0.00828333
-0.0178809
-0.00504496
-0.017937
-0.00233966
-0.000764342
-0.0132874
-0.0226656
0.0117113
-0.0145508
-0.0210326
-0.0157183
-0.0194961
-0.0166912
-0.0170648
-0.0175539
-0.014265
-0.0182053
-0.0111758
-0.0186661
-0.0078225
-0.0188996
-0.00481146
-0.0189351
-0.00230415
-0.000879474
-0.0145283
-0.0211853
0.013048
-0.0156897
-0.0198713
-0.0167968
-0.018389
-0.0176944
-0.0161672
-0.0184999
-0.0134594
-0.0191048
-0.0105709
-0.0195305
-0.00739682
-0.0197495
-0.00459238
-0.0197925
-0.00226118
-0.000959795
-0.0154995
-0.019791
0.0141052
-0.0165579
-0.0188128
-0.0176104
-0.0173366
-0.0184502
-0.0153273
-0.0192136
-0.0126961
-0.019797
-0.00998752
-0.0202126
-0.00698121
-0.0204462
-0.00435884
-0.0205236
-0.00218372
-0.00098031
-0.0162131
-0.0184534
0.0148755
-0.017175
-0.0178508
-0.0181743
-0.0163373
-0.018978
-0.0145237
-0.0197137
-0.0119604
-0.0203011
-0.00940013
-0.0207316
-0.00655068
-0.0210075
-0.00408291
-0.0211451
-0.0020462
-0.000917297
-0.0166642
-0.0171442
0.015355
-0.0175524
-0.0169627
-0.0185003
-0.0153893
-0.0192953
-0.0137286
-0.0200201
-0.0112356
-0.0206372
-0.00878302
-0.0211076
-0.00608032
-0.0214525
-0.00373793
-0.0216744
-0.00182431
-0.000748271
-0.0168384
-0.0158591
0.0155533
-0.0177093
-0.0160918
-0.018609
-0.0144897
-0.0194247
-0.0129129
-0.0201568
-0.0105035
-0.0208276
-0.00811227
-0.0213614
-0.00554655
-0.0217999
-0.00329943
-0.0221289
-0.00149524
-0.000451611
-0.0168554
-0.01454
0.0155363
-0.0177726
-0.0151746
-0.0185732
-0.0136891
-0.0194035
-0.0120825
-0.0201491
-0.00975788
-0.0208857
-0.00737566
-0.0215061
-0.00492614
-0.0220633
-0.00274223
-0.0225295
-0.00102912
-1.0537e-05
-0.0708742
-0.012682
0.0690161
-0.0747751
-0.0112737
-0.07828
-0.0101842
-0.0818598
-0.00850267
-0.0847443
-0.0068734
-0.0871103
-0.00500968
-0.0886665
-0.00336993
-0.0895782
-0.00183057
-0.0898842
-0.000723088
-2.68098e-05
-0.0861
-0.0108595
0.0842776
-0.0886372
-0.00873645
-0.0909298
-0.00789163
-0.0932597
-0.00617276
-0.0950814
-0.00505172
-0.0965491
-0.00354198
-0.0974736
-0.00244539
-0.0979897
-0.00131444
-0.0981271
-0.000585687
-3.88314e-05
-0.101531
-0.00945107
0.100123
-0.103038
-0.00722977
-0.104569
-0.0063606
-0.106028
-0.00471425
-0.107192
-0.00388737
-0.108105
-0.00262902
-0.108642
-0.00190853
-0.108926
-0.00102993
-0.108978
-0.000534431
-4.07794e-05
-0.119179
-0.00858253
0.118311
-0.120164
-0.0062449
-0.121164
-0.00536018
-0.122071
-0.00380752
-0.122802
-0.00315695
-0.12337
-0.00206094
-0.123696
-0.00158184
-0.123876
-0.000850007
-0.123899
-0.000511809
-3.46144e-05
-0.140504
-0.00769686
0.139618
-0.14126
-0.00548896
-0.142004
-0.00461532
-0.14264
-0.00317194
-0.143168
-0.00262915
-0.143579
-0.00164961
-0.143844
-0.00131681
-0.144019
-0.000675012
-0.144079
-0.000452151
-2.32935e-06
-0.165592
-0.00663122
0.164526
-0.166397
-0.00468397
-0.167135
-0.00387674
-0.167732
-0.00257555
-0.168234
-0.00212669
-0.168624
-0.00125983
-0.168928
-0.00101247
-0.169172
-0.000431113
-0.169325
-0.000298867
4.29129e-05
-0.192059
-0.00536122
0.190789
-0.193191
-0.00355202
-0.194162
-0.00290541
-0.194823
-0.00191498
-0.195378
-0.00157125
-0.195788
-0.000850186
-0.196159
-0.000640597
-0.196452
-0.000138923
-0.196657
-9.40178e-05
9.64254e-05
-0.216497
-0.00341725
0.214553
-0.217507
-0.0025415
-0.218359
-0.00205386
-0.218994
-0.00127984
-0.219558
-0.00100748
-0.219945
-0.000462995
-0.220285
-0.000300478
-0.220497
7.29454e-05
-0.22064
4.89559e-05
0.000111308
-0.232707
-0.00191431
0.231204
-0.234121
-0.00112764
-0.235272
-0.000902404
-0.236
-0.000552324
-0.236549
-0.000458496
-0.236823
-0.000188508
-0.237019
-0.000104402
-0.237039
9.24283e-05
-0.237054
6.3591e-05
6.8488e-05
-0.242111
0.240196
-0.243238
-0.244141
-0.244693
-0.245151
-0.24534
-0.245444
-0.245352
-0.245288
-0.0174653
0.0704791
0.0160023
-0.0182591
0.0850713
-0.0186934
0.100557
-0.0187386
0.118356
-0.0182925
0.139172
-0.0169949
0.163228
-0.0145199
0.188314
-0.0105553
0.210588
-0.00566421
0.226313
0.234532
-0.0164753
0.0713651
0.0155893
-0.017145
0.085741
-0.017493
0.100905
-0.0174456
0.118308
-0.0169107
0.138637
-0.0155776
0.161895
-0.0131598
0.185896
-0.00953212
0.206961
-0.00505587
0.221837
0.229476
-0.0156505
0.0721116
0.014904
-0.0161931
0.0862836
-0.0164356
0.101148
-0.016321
0.118194
-0.0157458
0.138062
-0.0144342
0.160584
-0.0121277
0.183589
-0.00877141
0.203604
-0.00462102
0.217686
0.224855
-0.0147012
0.0727957
0.0140171
-0.0151439
0.0867264
-0.0152753
0.101279
-0.0150811
0.117999
-0.014467
0.137448
-0.0131874
0.159304
-0.0110205
0.181422
-0.00794889
0.200533
-0.00416613
0.213904
0.220689
-0.0135896
0.073405
0.0129803
-0.0139505
0.0870873
-0.0139947
0.101323
-0.0137381
0.117743
-0.0131017
0.136811
-0.0118715
0.158074
-0.00986702
0.179418
-0.00708807
0.197754
-0.00370263
0.210518
0.216986
-0.0123546
0.0739275
0.011832
-0.0126236
0.0873563
-0.0125908
0.10129
-0.0122896
0.117442
-0.0116509
0.136173
-0.0104932
0.156916
-0.00867449
0.177599
-0.00620274
0.195282
-0.00323228
0.207548
0.213754
-0.0110299
0.0743565
0.0106009
-0.0111986
0.087525
-0.0110884
0.10118
-0.0107508
0.117104
-0.0101243
0.135546
-0.00905935
0.155851
-0.00744713
0.175987
-0.00529984
0.193135
-0.00275487
0.205003
0.210999
-0.00963717
0.0746794
0.00931429
-0.0097057
0.0875936
-0.00951798
0.100993
-0.00914819
0.116734
-0.00854308
0.134941
-0.0075856
0.154894
-0.00619495
0.174596
-0.00438559
0.191325
-0.00227221
0.202889
0.208727
-0.00819934
0.0748778
0.00800093
-0.00817084
0.0875651
-0.00790648
0.100728
-0.00750897
0.116337
-0.00693164
0.134364
-0.00609177
0.154054
-0.00493188
0.173436
-0.00346755
0.189861
-0.00178798
0.20121
0.206939
-0.00674064
0.0749284
0.00669003
-0.00662198
0.0874464
-0.00627784
0.100384
-0.00585816
0.115917
-0.00531233
0.133818
-0.00459725
0.153339
-0.00367262
0.172512
-0.00255476
0.188743
-0.00130708
0.199962
0.205632
-0.00529583
0.0748075
0.00541669
-0.0050942
0.0872448
-0.00466351
0.0999533
-0.00422408
0.115478
-0.00370979
0.133304
-0.00312224
0.152751
-0.00243241
0.171822
-0.00165685
0.187968
-0.000834412
0.19914
0.204798
-0.00391087
0.0745186
0.00419983
-0.00361329
0.0869472
-0.00310428
0.0994443
-0.00263863
0.115012
-0.00215701
0.132822
-0.0016881
0.152282
-0.00122572
0.17136
-0.000784877
0.187527
-0.000375921
0.198731
0.204422
-0.00262715
0.0740773
0.00306843
-0.00221591
0.086536
-0.00164529
0.0988737
-0.00114713
0.114514
-0.000702309
0.132377
-0.000347066
0.151927
-0.000106116
0.171119
1.62603e-05
0.187404
4.7755e-05
0.198699
0.204469
-0.00147485
0.0735148
0.00203737
-0.00092697
0.0859881
-0.000334532
0.0982812
0.0002166
0.113963
0.000679945
0.131914
0.000957357
0.15165
0.00101046
0.171066
0.000835157
0.18758
0.000474297
0.19906
0.204944
-0.000483134
0.0728882
0.0011097
0.000231267
0.0852737
0.000951537
0.097561
0.00157458
0.11334
0.00201057
0.131478
0.00218904
0.151471
0.00205124
0.171203
0.001589
0.188042
0.000870329
0.199779
0.205814
0.000423777
0.0721953
0.00026907
0.0013429
0.0843546
0.00211903
0.0967848
0.00277867
0.11268
0.00320833
0.131048
0.00330872
0.151371
0.00300186
0.17151
0.00227894
0.188765
0.00123137
0.200826
0.207045
0.0012819
0.071394
-0.000480566
0.00230571
0.0833308
0.00314275
0.0959478
0.00385245
0.111971
0.00428876
0.130612
0.00433158
0.151328
0.00387849
0.171963
0.00291871
0.189725
0.00156619
0.202179
0.208612
0.00197818
0.0705759
-0.00116006
0.00311652
0.0821924
0.00400421
0.0950601
0.00475676
0.111218
0.00520009
0.130168
0.00519862
0.15133
0.00462551
0.172536
0.00346551
0.190885
0.00184971
0.203795
0.210461
0.00261124
0.0697762
-0.00181157
0.00385488
0.0809488
0.00479816
0.0941168
0.00559531
0.110421
0.00605522
0.129709
0.00602024
0.151365
0.00533641
0.17322
0.00398555
0.192235
0.00211962
0.205661
0.212581
0.00293593
0.0692885
-0.0024482
0.00422151
0.0796632
0.00521378
0.0931245
0.00604148
0.109593
0.00652089
0.129229
0.00648486
0.151401
0.00575265
0.173953
0.00429533
0.193693
0.00227181
0.207684
0.214853
-0.054897
0.0632319
0.0609536
-0.0495389
0.074305
-0.0456478
0.0892335
-0.0415567
0.105502
-0.0371099
0.124782
-0.0318309
0.146122
-0.0253392
0.167461
-0.0176254
0.185979
-0.00900391
0.199063
0.205849
-0.0661534
0.0582996
0.0710857
-0.0613841
0.0695357
-0.056837
0.0846863
-0.0517444
0.100409
-0.0462829
0.119321
-0.0396608
0.1395
-0.0315575
0.159358
-0.022012
0.176433
-0.0113937
0.188444
0.194455
-0.0792087
0.0534838
0.0840245
-0.0743186
0.0646456
-0.0689161
0.0792839
-0.0628946
0.0943879
-0.0561803
0.112606
-0.0478066
0.131126
-0.0377753
0.149326
-0.0261168
0.164775
-0.0132261
0.175554
0.181229
-0.0950562
0.0488483
0.0996917
-0.0895706
0.05916
-0.0834028
0.0731161
-0.0764151
0.0874002
-0.0681001
0.104292
-0.0576553
0.120681
-0.0454113
0.137082
-0.0313958
0.150759
-0.0161943
0.160352
0.165035
-0.112867
0.0433354
0.118379
-0.10678
0.0530735
-0.0995978
0.0659339
-0.0908874
0.0786897
-0.0801641
0.0935682
-0.0671423
0.107659
-0.0523137
0.122254
-0.0355582
0.134004
-0.0177134
0.142508
0.147321
-0.134514
0.0377912
0.140058
-0.127235
0.0457942
-0.118485
0.0571847
-0.107536
0.0677399
-0.0943017
0.0803343
-0.0787894
0.0921469
-0.0611642
0.104628
-0.041585
0.114425
-0.0212916
0.122214
0.12603
-0.156121
0.0305892
0.163323
-0.14726
0.0369329
-0.136293
0.0462184
-0.122605
0.0540515
-0.10652
0.0642492
-0.0877416
0.0733685
-0.0663743
0.0832612
-0.0432294
0.0912797
-0.020301
0.0992858
0.105729
-0.179771
0.0230062
0.187354
-0.169269
0.0264317
-0.156248
0.033197
-0.140461
0.0382644
-0.122032
0.0458201
-0.100483
0.05182
-0.0764737
0.0592515
-0.0512213
0.0660273
-0.0269702
0.0750347
0.0787584
-0.196323
0.0110438
0.208286
-0.182989
0.0130969
-0.166345
0.0165533
-0.147107
0.0190268
-0.124372
0.0230851
-0.0986581
0.0261057
-0.0699462
0.0305396
-0.0388281
0.0349092
-0.00785656
0.0440632
0.0709018
-0.278282
0.289326
-0.265185
-0.248632
-0.229605
-0.20652
-0.180414
-0.149874
-0.114965
-0.0709018
-0.000104596
0.0630128
-0.00195457
-0.0015409
0.072522
-0.00274059
0.0852242
-0.00364031
0.100591
-0.00417762
0.118917
-0.00430442
0.140185
-0.00391335
0.162932
-0.00302207
0.186462
-0.00262513
0.207889
0.2867
0.000429811
0.0649174
-0.0023344
-0.00117199
0.0741238
-0.00244023
0.0864924
-0.00336733
0.101519
-0.00394695
0.119496
-0.00409458
0.140333
-0.00377222
0.16261
-0.00291099
0.185601
-0.00238414
0.207362
0.284316
0.000972199
0.0666851
-0.00273993
-0.000611641
0.0757076
-0.00184889
0.0877297
-0.00276297
0.102433
-0.003366
0.120099
-0.00354673
0.140513
-0.00332457
0.162387
-0.00256055
0.184837
-0.00215064
0.206952
0.282166
0.00149139
0.0683631
-0.0031694
-9.53819e-05
0.0772944
-0.00119629
0.0888306
-0.00206625
0.103303
-0.00264556
0.120679
-0.00287156
0.140739
-0.00272587
0.162242
-0.00212218
0.184233
-0.0018437
0.206674
0.280322
0.00200401
0.0699754
-0.00361629
0.000527559
0.0787709
-0.000542207
0.0899004
-0.00135459
0.104115
-0.00189778
0.121222
-0.00214734
0.140989
-0.00207003
0.162164
-0.00162585
0.183789
-0.00148831
0.206536
0.278834
0.00254322
0.0715016
-0.00406939
0.00119414
0.0801199
0.000174799
0.0909197
-0.000582157
0.104872
-0.00108731
0.121727
-0.00135898
0.141261
-0.00135463
0.16216
-0.00107598
0.183511
-0.00109419
0.206554
0.277739
0.00311106
0.0729113
-0.0045208
0.00190173
0.0813293
0.000996441
0.091825
0.000279087
0.105589
-0.000192919
0.122199
-0.000497197
0.141565
-0.000553782
0.162217
-0.000475785
0.183433
-0.000660381
0.206739
0.277079
0.00370039
0.0741744
-0.00496352
0.00264242
0.0823872
0.0018456
0.0926218
0.00123354
0.106201
0.000777168
0.122655
0.000456617
0.141885
0.000317245
0.162356
0.000181548
0.183568
-0.000180836
0.207101
0.276898
0.00430473
0.0752576
-0.00538789
0.00340426
0.0832877
0.00272356
0.0933025
0.00220702
0.106718
0.00179722
0.123065
0.00147196
0.142211
0.00120736
0.162621
0.000927314
0.183848
0.000301968
0.207727
0.2772
0.00491057
0.0761271
-0.00578005
0.0041746
0.0840237
0.00361932
0.0938578
0.00320189
0.107135
0.00284644
0.123421
0.00250672
0.14255
0.00214298
0.162984
0.00167622
0.184315
0.000798814
0.208604
0.277999
0.00549633
0.076748
-0.00611723
0.00493293
0.0845871
0.00451194
0.0942788
0.00419936
0.107448
0.00390231
0.123718
0.00355386
0.142899
0.0030948
0.163443
0.00243788
0.184972
0.00131434
0.209728
0.279313
0.00605412
0.0770894
-0.00639552
0.0056703
0.0849709
0.00539054
0.0945586
0.00518865
0.10765
0.0049555
0.123951
0.00460653
0.143248
0.0040541
0.163996
0.00321188
0.185814
0.00183924
0.2111
0.281153
0.00655636
0.0771338
-0.0066008
0.00636073
0.0851665
0.0062287
0.0946906
0.00614126
0.107737
0.00598027
0.124112
0.00564058
0.143587
0.00500304
0.164633
0.00398485
0.186832
0.0023656
0.21272
0.283518
0.00698356
0.0768767
-0.00672645
0.00698594
0.0851641
0.00700394
0.0946726
0.00703406
0.107707
0.00695528
0.124191
0.00663412
0.143909
0.00592432
0.165343
0.00474232
0.188014
0.00288445
0.214577
0.286403
0.0073208
0.0763262
-0.00677026
0.00753034
0.0849546
0.00769673
0.0945062
0.0078466
0.107557
0.00785964
0.124178
0.00756984
0.144198
0.00680641
0.166107
0.00547571
0.189345
0.00339252
0.216661
0.289795
0.00755677
0.075507
-0.00673758
0.00797961
0.0845318
0.00828868
0.0941971
0.00855739
0.107288
0.00866761
0.124067
0.00842169
0.144444
0.00762621
0.166902
0.0061658
0.190805
0.0038764
0.21895
0.293672
0.00769123
0.0744599
-0.00664415
0.00832958
0.0838934
0.00877449
0.0937522
0.00916097
0.106902
0.0093759
0.123852
0.00919027
0.14463
0.00838477
0.167708
0.00681565
0.192375
0.00433926
0.221426
0.298011
0.00771913
0.0732562
-0.00651543
0.00855726
0.0830553
0.00912503
0.0931845
0.00961791
0.106409
0.00993493
0.123535
0.00981899
0.144746
0.00902884
0.168498
0.00738741
0.194016
0.00475646
0.224057
0.302767
0.00771738
0.0719349
-0.0063961
0.00874533
0.0820273
0.00942424
0.0925056
0.0100147
0.105819
0.0104339
0.123116
0.010396
0.144784
0.00963012
0.169264
0.00792471
0.195721
0.00514883
0.226833
0.307916
0.00743451
0.070774
-0.00627362
0.00855742
0.0809044
0.00937373
0.0916892
0.0100547
0.105138
0.0105838
0.122587
0.0106471
0.144721
0.0099782
0.169933
0.00827404
0.197426
0.00546011
0.229647
0.313376
-0.0395404
0.0653216
0.0449928
-0.0333576
0.0747216
-0.0284655
0.0867972
-0.023715
0.100387
-0.0190693
0.117941
-0.014211
0.139862
-0.00907692
0.164798
-0.00419779
0.192546
-0.00152957
0.226979
0.311847
-0.0552482
0.0595229
0.0610469
-0.0491087
0.0685821
-0.0430349
0.0807234
-0.036652
0.0940044
-0.0302676
0.111557
-0.0233159
0.13291
-0.0157949
0.157277
-0.00845197
0.185204
-0.00361375
0.222141
0.308233
-0.0723624
0.0533766
0.0785088
-0.0654738
0.0616935
-0.0582038
0.0734533
-0.0504974
0.0862979
-0.0425191
0.103579
-0.0333274
0.123719
-0.0232684
0.147218
-0.0132225
0.175158
-0.00550957
0.214428
0.302723
-0.0912867
0.0471753
0.097488
-0.0834078
0.0538147
-0.0752563
0.0653018
-0.0663541
0.0773957
-0.0564414
0.0936661
-0.0446477
0.111925
-0.0317548
0.134326
-0.0186605
0.162063
-0.00787963
0.203647
0.294844
-0.112584
0.0398647
0.119894
-0.104472
0.0457029
-0.0956459
0.0564755
-0.0850443
0.0667942
-0.0726895
0.0813113
-0.0581207
0.0973562
-0.0421752
0.11838
-0.0254765
0.145365
-0.0108456
0.189016
0.283998
-0.138322
0.0328317
0.145355
-0.129291
0.0366714
-0.118948
0.0461329
-0.106255
0.0541013
-0.0915704
0.0666262
-0.0744085
0.0801943
-0.0552386
0.0992103
-0.0346371
0.124763
-0.0157683
0.170147
0.26823
-0.167512
0.0239589
0.176385
-0.158041
0.0271999
-0.14636
0.0344517
-0.132293
0.0400351
-0.115881
0.0502138
-0.0961584
0.0604717
-0.0737337
0.0767856
-0.0490414
0.100071
-0.0240401
0.145146
0.24419
-0.202337
0.0151886
0.211107
-0.191746
0.0166087
-0.178806
0.0215126
-0.163688
0.0249165
-0.145547
0.0320734
-0.124177
0.0391015
-0.0998766
0.0524851
-0.0721726
0.0723668
-0.0402881
0.113262
0.203902
-0.253336
0.00586732
0.262657
-0.243435
0.00670749
-0.230857
0.00893459
-0.216767
0.0108265
-0.19922
0.0145265
-0.178946
0.0188272
-0.153565
0.0271041
-0.121081
0.0398835
-0.0740353
0.0662155
0.129866
-0.322892
0.328759
-0.316184
-0.30725
-0.296423
-0.281897
-0.263069
-0.235965
-0.196082
-0.129866
0.00275366
0.0471463
-0.00490718
-3.58449e-06
0.0638041
-0.0019241
0.0804293
-0.00362364
0.0991876
-0.00493848
0.121209
-0.00591197
0.146329
-0.00619211
0.176665
-0.00605781
0.210973
-0.00424238
0.260842
0.324517
0.00279315
0.048955
-0.00460182
0.000430388
0.0661669
-0.00156505
0.0824247
-0.00327132
0.100894
-0.00461482
0.122553
-0.00558565
0.1473
-0.00593992
0.177019
-0.00581147
0.210844
-0.00412135
0.259152
0.320395
0.00302572
0.0503211
-0.00439185
0.000986328
0.0682063
-0.000918427
0.0843295
-0.0025573
0.102533
-0.00388239
0.123878
-0.00484448
0.148262
-0.00527292
0.177448
-0.00516622
0.210738
-0.00377582
0.257761
0.316619
0.00332842
0.051263
-0.00427033
0.00158537
0.0699493
-0.00021282
0.0861276
-0.00171817
0.104038
-0.00298217
0.125142
-0.00395151
0.149231
-0.00443525
0.177932
-0.00444052
0.210743
-0.00333182
0.256653
0.313288
0.00368368
0.051794
-0.00421465
0.00226204
0.071371
0.000662073
0.0877276
-0.00080436
0.105504
-0.00199359
0.126331
-0.00296354
0.150201
-0.00350937
0.178477
-0.00365551
0.210889
-0.0028238
0.255821
0.310464
0.00411172
0.0518853
-0.00420304
0.00304673
0.072436
0.0016574
0.0891169
0.000233998
0.106928
-0.000890496
0.127456
-0.00187061
0.151181
-0.00250143
0.179108
-0.00280231
0.21119
-0.00226488
0.255284
0.308199
0.00461621
0.0514852
-0.00421612
0.00393414
0.073118
0.00276312
0.090288
0.00150829
0.108183
0.000356505
0.128607
-0.000673721
0.152211
-0.00138114
0.179816
-0.00187678
0.211685
-0.00166152
0.255068
0.306537
0.00517107
0.0505473
-0.00423312
0.00490441
0.0733847
0.00396873
0.0912236
0.00284713
0.109304
0.00175296
0.129702
0.000683343
0.153281
-0.000114338
0.180613
-0.000891278
0.212462
-0.00101559
0.255193
0.305522
0.00574491
0.0490352
-0.00423281
0.00593355
0.0731961
0.00525401
0.0919032
0.0042673
0.110291
0.00321704
0.130752
0.00215286
0.154345
0.00116403
0.181602
0.000130821
0.213496
-0.000323931
0.255647
0.305198
0.00630174
-0.00419721
0.00699467
0.00659758
0.00575427
0.00474505
0.00365721
0.00252618
0.00131722
0.000361933
0.000237374
-0.00103304
0.000776948
-0.00275631
0.00154742
-0.00398619
0.00249546
-0.00479437
0.00358252
-0.00525602
0.00478343
-0.00544021
0.00608609
-0.00540723
0.0074953
-0.00520844
0.00905411
-0.00489899
-0.00459078
0.00028891
-0.00132195
0.000909879
-0.00337728
0.0017671
-0.00484342
0.0027935
-0.00582077
0.00394403
-0.00640655
0.00519212
-0.0066883
0.00652688
-0.00674199
0.00795149
-0.00663305
0.00947789
-0.00642539
-0.00619944
0.00033016
-0.00165211
0.00100514
-0.00405225
0.00190415
-0.00574244
0.00294665
-0.00686327
0.00408181
-0.00754171
0.00528171
-0.00788821
0.00653502
-0.0079953
0.00784065
-0.00793868
0.0091971
-0.00778184
-0.00758344
0.000357199
-0.00200931
0.00105185
-0.0047469
0.00194012
-0.00663071
0.0029307
-0.00785384
0.00397018
-0.00858118
0.00503252
-0.00895056
0.00610954
-0.00907231
0.00720239
-0.00903153
0.00831223
-0.00889168
-0.00870262
0.000366674
-0.00237599
0.00104218
-0.00542241
0.00186471
-0.00745324
0.00273766
-0.00872679
0.00361033
-0.00945386
0.0044633
-0.00980353
0.00529587
-0.00990487
0.0061163
-0.00985197
0.00693435
-0.00970973
-0.00952652
0.000356079
-0.00273206
0.00097209
-0.00603842
0.00167664
-0.00815779
0.0023754
-0.00942554
0.00302646
-0.0101049
0.00362119
-0.0103983
0.00416894
-0.0104526
0.00468636
-0.0103694
0.00519126
-0.0102146
-0.0100365
0.000324052
-0.00305612
0.000841799
-0.00655617
0.00138342
-0.00869941
0.00186515
-0.00990728
0.0022591
-0.0104989
0.00256967
-0.0107088
0.00281613
-0.0106991
0.00302162
-0.0105749
0.00320801
-0.010401
-0.010224
0.000270612
-0.00332673
0.000655824
-0.00694138
0.000999984
-0.00904357
0.00123745
-0.0101447
0.00135745
-0.0106189
0.00137719
-0.0107286
0.00132354
-0.0106454
0.0012227
-0.010474
0.00109602
-0.0102744
-0.0100851
0.000197247
-0.00352398
0.000422432
-0.00716657
0.000546558
-0.00916769
0.000527563
-0.0101258
0.000372372
-0.0104637
0.000108755
-0.010465
-0.000232166
-0.0103045
-0.000624566
-0.0100816
-0.00105012
-0.0098488
-0.0096374
0.000106742
-0.00363072
0.000152646
-0.00721247
4.61351e-05
-0.00906118
-0.000228541
-0.00985107
-0.000648326
-0.0100439
-0.00117832
-0.00993497
-0.00178667
-0.00969615
-0.00245044
-0.00941787
-0.00315562
-0.00914362
-0.00889614
2.06948e-05
-0.00365141
-0.00011605
-0.00707573
-0.000452296
-0.00872494
-0.00097365
-0.00932972
-0.00164261
-0.00937494
-0.00241988
-0.0091577
-0.00327502
-0.008841
-0.00418894
-0.00850395
-0.00515216
-0.00818039
-0.00788385
-8.60941e-05
-0.00356532
-0.000413112
-0.00674871