/*--------------------------------*- C++ -*----------------------------------*\
  =========                 |
  \\      /  F ield         | OpenFOAM: The Open Source CFD Toolbox
   \\    /   O peration     | Website:  https://openfoam.org
    \\  /    A nd           | Version:  7
     \\/     M anipulation  |
\*---------------------------------------------------------------------------*/
FoamFile
{
    version     2.0;
    format      ascii;
    class       volScalarField;
    location    "97.5";
    object      p;
}
// * * * * * * * * * * * * * * * * * * * * * * * * * * * * * * * * * * * * * //

dimensions      [0 2 -2 0 0 0 0];

internalField   nonuniform List<scalar> 
2000
(
0.00670433
0.0067762
0.00691074
0.00707899
0.00725863
0.00743541
0.00759953
0.00774604
0.00787408
0.00796971
0.00673049
0.00684062
0.00698943
0.00717157
0.00736454
0.00755396
0.00772939
0.00788534
0.00802117
0.00811538
0.0067374
0.00689312
0.00705656
0.0072513
0.00745508
0.00765383
0.00783709
0.00799927
0.00814056
0.00823218
0.00672914
0.00693598
0.00711399
0.00731925
0.00753028
0.00773382
0.00791997
0.00808353
0.00822628
0.00831252
0.00671183
0.00697322
0.00716456
0.00737722
0.0075909
0.00779357
0.00797638
0.00813499
0.00827319
0.00834956
0.00669314
0.00700937
0.00721166
0.00742768
0.00763859
0.00783391
0.00800631
0.00815263
0.00827878
0.00833938
0.00668164
0.0070494
0.00725919
0.00747374
0.00767592
0.00785706
0.00801171
0.00813814
0.00824419
0.00828216
0.00668653
0.00709864
0.00731142
0.00751909
0.00770647
0.00786685
0.00799693
0.00809669
0.00817567
0.00818479
0.00671716
0.00716262
0.00737301
0.00756803
0.00773476
0.00786871
0.00796906
0.00803814
0.00808805
0.00806549
0.00678253
0.00724684
0.00744883
0.00762535
0.00776602
0.00786889
0.0079363
0.00797441
0.00800099
0.00796132
0.00807115
0.00871356
0.00935828
0.0105086
0.0117481
0.0132788
0.0142584
0.0158608
0.0156341
0.0168794
0.00815414
0.00874829
0.00922105
0.010203
0.011301
0.0127107
0.0136127
0.0150802
0.0149903
0.0160429
0.00819557
0.00876708
0.00908763
0.00990751
0.0108712
0.012168
0.0129957
0.0143718
0.014348
0.0152714
0.00819028
0.00875837
0.00895469
0.00962244
0.0104591
0.0116502
0.012412
0.013714
0.0137148
0.0145734
0.00813673
0.00871105
0.00881683
0.00934703
0.0100653
0.0111578
0.0118607
0.0130968
0.013116
0.0139489
0.00803791
0.00861748
0.00866689
0.00907931
0.00968963
0.0106897
0.0113375
0.0125092
0.0125479
0.0133798
0.00790214
0.00847535
0.00849768
0.00881631
0.00933189
0.010247
0.0108466
0.0119628
0.0120325
0.0128721
0.00773604
0.00827747
0.00829812
0.00855394
0.00899025
0.00982215
0.0103722
0.0114234
0.0115253
0.012401
0.00752843
0.00801158
0.0080469
0.00827801
0.00867288
0.00944203
0.00995956
0.0109579
0.0111
0.0119959
0.00737159
0.00780423
0.00783601
0.00800785
0.00833417
0.00901974
0.00949053
0.0104046
0.0106157
0.011595
0.00792817
0.00834612
0.00858048
0.0087069
0.00879266
0.00909811
0.00939127
0.0100239
0.0101918
0.0108586
0.00630957
0.00670338
0.00705485
0.00736802
0.00765556
0.00803405
0.00836896
0.00888445
0.00901511
0.0094079
0.00512959
0.00549082
0.00581782
0.0060965
0.00635761
0.00671984
0.0070599
0.00753178
0.00765039
0.0079353
0.00390648
0.00426688
0.00464311
0.00495818
0.00521744
0.00553294
0.00582696
0.006232
0.00633046
0.00656077
0.00275321
0.00307929
0.00348562
0.00386021
0.00416986
0.00447726
0.00473443
0.00506872
0.00514417
0.00533326
0.00174498
0.00202603
0.00242399
0.00282749
0.00318305
0.00351067
0.00376489
0.00405257
0.00410983
0.00425229
0.000922213
0.00115657
0.0015233
0.00191565
0.00227361
0.00259932
0.0028475
0.0031044
0.00315627
0.00326941
0.000307072
0.000492921
0.000810026
0.00116392
0.00149034
0.00178438
0.00200693
0.00222805
0.0022642
0.00234066
-1.82995e-05
7.20328e-05
0.000312941
0.000584532
0.000824699
0.00103572
0.00118898
0.00135445
0.00137042
0.00142165
-0.000541838
-0.000268106
-3.67796e-05
0.000148316
0.000281761
0.000387448
0.000446334
0.000524404
0.00049768
0.000493699
0.00743202
0.00610423
0.00497107
0.00378783
0.00268353
0.00171186
0.000920163
0.000306194
9.67859e-06
-0.000511427
0.00716879
0.00590223
0.00477975
0.00362864
0.00256885
0.00163912
0.00088549
0.000299649
2.23682e-05
-0.000433528
0.00691259
0.00571828
0.00460645
0.00348921
0.00246888
0.00157987
0.000861448
0.000306508
4.09913e-05
-0.000341886
0.00671457
0.00559223
0.00448884
0.00340234
0.00241591
0.0015577
0.000865812
0.000333803
7.03012e-05
-0.000258191
0.00657582
0.00550926
0.00441359
0.00335401
0.00239563
0.00156326
0.000892159
0.000376956
0.000108614
-0.000183147
0.00649941
0.00546554
0.00437671
0.00333835
0.00240295
0.00159146
0.000935923
0.000432105
0.000153551
-0.000115974
0.00649344
0.00545904
0.00437656
0.00335328
0.00243567
0.00163974
0.00099448
0.00049653
0.00020313
-5.67632e-05
0.00654337
0.00548706
0.00440993
0.00339554
0.00249066
0.00170518
0.00106513
0.000567749
0.00025564
-5.27749e-06
0.00664111
0.00554625
0.00447275
0.00346145
0.00256444
0.00178465
0.00114511
0.000643508
0.00030965
3.92208e-05
0.00677684
0.00563242
0.00456037
0.00354721
0.0026535
0.00187514
0.00123188
0.000721913
0.000364032
7.76803e-05
0.00693869
0.00573935
0.00466694
0.00364841
0.00275408
0.00197365
0.00132308
0.000801386
0.000417927
0.000110998
0.0071179
0.00586225
0.00478805
0.00376196
0.0028634
0.00207803
0.00141703
0.000880891
0.00047083
0.000139991
0.00730898
0.00599904
0.00492105
0.00388632
0.0029799
0.00218702
0.00151276
0.000959911
0.000522566
0.000165464
0.0075066
0.00614788
0.00506322
0.00401993
0.00310212
0.00229957
0.00160958
0.00103816
0.000573116
0.000188082
0.00770626
0.00630786
0.00521228
0.00416156
0.00322904
0.0024149
0.00170706
0.00111556
0.000622565
0.000208378
0.00790369
0.00647854
0.00536627
0.00430994
0.00335981
0.00253238
0.00180494
0.00119209
0.000671055
0.00022678
0.00809263
0.00665811
0.0055228
0.00446332
0.00349352
0.00265132
0.00190298
0.00126779
0.00071876
0.000243663
0.00826912
0.00684972
0.00568425
0.00462324
0.0036317
0.00277278
0.00200201
0.00134331
0.000766123
0.000259411
0.00844797
0.00707819
0.00586716
0.00480059
0.00378235
0.00290194
0.00210534
0.00142055
0.000814056
0.000274124
0.00856249
0.00729859
0.00604505
0.00497168
0.00393099
0.00302755
0.00220613
0.00149522
0.000860466
0.000286554
0.00811899
0.00732996
0.00621616
0.00519095
0.0041711
0.00324696
0.0023982
0.00164285
0.000956894
0.000317671
0.00808337
0.00728463
0.00620173
0.00523959
0.00425354
0.00335763
0.00251266
0.00174663
0.00103011
0.000346589
0.00826827
0.00744407
0.00635004
0.00540277
0.00441231
0.00351208
0.00264692
0.00185657
0.00110582
0.000379864
0.00867147
0.00772742
0.00658093
0.00560968
0.00459355
0.00367452
0.00278108
0.00196497
0.00118341
0.000418805
0.00928025
0.00814964
0.00691438
0.00587769
0.00481361
0.00385634
0.00292507
0.00207925
0.00126784
0.000464443
0.0100375
0.00869252
0.00734498
0.00620649
0.00507538
0.00406067
0.00308346
0.00220153
0.00135773
0.000511499
0.0108512
0.00929659
0.00782926
0.00657043
0.00536306
0.00427927
0.00325244
0.00232641
0.00144169
0.000545946
0.0116108
0.00987314
0.00829368
0.00691899
0.00563941
0.00448864
0.00341488
0.00243902
0.0015042
0.000557039
0.012203
0.0103249
0.00865709
0.00719296
0.00585811
0.00465576
0.00354478
0.0025232
0.00153992
0.000549631
0.0125288
0.0105713
0.00885487
0.00734261
0.00597882
0.00474922
0.00361809
0.00256816
0.0015535
0.000538502
0.0089468
0.00890789
0.00915213
0.00962767
0.0103044
0.0111273
0.0120196
0.012873
0.013558
0.0139438
0.00905704
0.00914274
0.00947246
0.0100274
0.0107724
0.0116502
0.0125858
0.0134707
0.0141765
0.0145751
0.00904452
0.0092733
0.00972013
0.0103864
0.0112323
0.0121987
0.0132032
0.0141297
0.0148515
0.0152551
0.00907608
0.00941735
0.00996076
0.0107242
0.011662
0.0127174
0.013802
0.0147895
0.0155481
0.0159714
0.00914622
0.00960521
0.01024
0.0110914
0.0121103
0.0132449
0.014405
0.0154576
0.0162637
0.0167159
0.00922688
0.00981509
0.0105537
0.0114988
0.0126012
0.0138133
0.0150437
0.016157
0.0170084
0.0174887
0.00931673
0.0100359
0.0108903
0.0119372
0.0131314
0.0144262
0.0157279
0.0168984
0.0177903
0.0182935
0.00942266
0.0102698
0.0112474
0.0124003
0.0136925
0.015076
0.0164532
0.0176816
0.0186115
0.0191334
0.00954834
0.0105194
0.0116265
0.0128866
0.0142808
0.0157571
0.0172139
0.0185027
0.0194713
0.0200096
0.00969516
0.0107835
0.0120271
0.0133947
0.0148948
0.0164671
0.0180071
0.0193592
0.0203689
0.0209227
0.00986443
0.0110584
0.0124467
0.0139216
0.0155322
0.0172039
0.0188317
0.0202503
0.0213041
0.021873
0.0100546
0.0113398
0.0128811
0.0144617
0.0161888
0.0179641
0.0196855
0.0211749
0.022277
0.0228614
0.0102584
0.0116249
0.0133226
0.0150103
0.0168595
0.0187445
0.0205663
0.022133
0.0232883
0.0238895
0.0104617
0.0119147
0.0137593
0.0155619
0.0175372
0.0195402
0.0214687
0.0231283
0.0243394
0.024961
0.0106291
0.0122174
0.0141832
0.0161139
0.0182185
0.0203486
0.0223932
0.0241504
0.025426
0.0260731
0.0107766
0.0125048
0.0145866
0.0166529
0.0188934
0.021161
0.0233332
0.0251955
0.0265457
0.0272249
0.0108881
0.0127689
0.0149619
0.0171698
0.0195547
0.021972
0.024285
0.0262638
0.0276989
0.0284177
0.0109396
0.0130074
0.015301
0.0176555
0.0201914
0.02277
0.0252378
0.0273488
0.0288817
0.0296509
0.0109079
0.0132125
0.0156004
0.0181124
0.0208124
0.0235672
0.026203
0.028458
0.0300984
0.0309286
0.0107454
0.0133396
0.0158138
0.0184718
0.021333
0.0242761
0.0271078
0.0295439
0.0313258
0.0322414
0.0113051
0.0146009
0.0173809
0.0203449
0.02348
0.0266922
0.0297864
0.0324747
0.0344688
0.0355307
0.0143952
0.0176126
0.0206024
0.024043
0.02768
0.0313996
0.0349494
0.0380005
0.0402393
0.041414
0.0178632
0.0212395
0.0245618
0.0285191
0.0326682
0.0369072
0.0408882
0.0442513
0.046683
0.0479611
0.0215749
0.0253077
0.0291548
0.0337011
0.0383955
0.0431619
0.0475326
0.0511395
0.0536773
0.0549519
0.0255346
0.029728
0.0341853
0.0393569
0.0446206
0.0499079
0.05462
0.0584064
0.0609852
0.0622948
0.0298318
0.0344924
0.0396095
0.0454254
0.0512795
0.0570891
0.0621143
0.0660105
0.0684477
0.0694063
0.0340131
0.039248
0.0449859
0.0513823
0.0577966
0.0640792
0.0693838
0.0733428
0.075521
0.0764064
0.0382936
0.0438563
0.0501959
0.057201
0.0642216
0.0710265
0.0767501
0.0809429
0.082658
0.0814507
0.0404313
0.0467845
0.0537026
0.0612169
0.0686978
0.0758655
0.0817721
0.0859451
0.0864826
0.088006
0.0437952
0.0502184
0.0575531
0.0655264
0.073692
0.0815899
0.0888005
0.0948877
0.0966221
0.0796798
0.0103111
0.0133264
0.0164627
0.0198988
0.0234161
0.0275502
0.0310696
0.0355014
0.036993
0.0402873
0.00994378
0.0131131
0.0161827
0.0195796
0.0229526
0.0269582
0.0302197
0.0345525
0.035783
0.0390224
0.00976302
0.0130916
0.0161401
0.0194924
0.0227976
0.0266347
0.02971
0.033766
0.0348977
0.0378921
0.00956138
0.0129463
0.0159641
0.019248
0.0225016
0.0261845
0.0291471
0.0329153
0.0341132
0.0367374
0.00934801
0.0127194
0.0156954
0.0189056
0.0220862
0.0256107
0.0285279
0.0319983
0.0333392
0.0355865
0.00913868
0.0124679
0.0154099
0.0185559
0.0216606
0.0250385
0.0278987
0.0311197
0.0325671
0.034503
0.00893161
0.0122024
0.0151233
0.0182189
0.021261
0.0245174
0.0273033
0.0303314
0.0318273
0.0335217
0.00872727
0.0119257
0.0148346
0.0178914
0.0208845
0.0240459
0.0267593
0.0296346
0.0311498
0.0326529
0.00853027
0.0116449
0.0145482
0.0175763
0.0205306
0.0236192
0.026271
0.0290197
0.0305408
0.0319076
0.00834548
0.0113682
0.0142723
0.017282
0.0202067
0.0232405
0.0258427
0.0284842
0.0300056
0.0312806
0.00817661
0.0111025
0.0140142
0.0170164
0.019922
0.022916
0.0254807
0.0280317
0.0295508
0.0307623
0.00802055
0.0108492
0.013777
0.0167822
0.0196814
0.0226501
0.0251902
0.0276659
0.0291814
0.0303454
0.007869
0.010608
0.0135606
0.01658
0.0194871
0.0224455
0.024975
0.0273894
0.0288999
0.0300292
0.00771401
0.0103814
0.0133649
0.0164105
0.0193402
0.022304
0.0248369
0.0272035
0.0287052
0.029814
0.00754597
0.0101713
0.0131887
0.0162738
0.0192408
0.0222265
0.024777
0.0271088
0.0285962
0.0297062
0.00735276
0.00997599
0.0130282
0.0161678
0.0191873
0.0222118
0.0247945
0.0271049
0.0285635
0.0297094
0.00712238
0.00979035
0.0128775
0.0160881
0.0191767
0.0222579
0.02489
0.0271943
0.0286092
0.0298397
0.00684245
0.00960565
0.01273
0.0160279
0.0192021
0.0223569
0.0250559
0.0273697
0.0287019
0.0301015
0.00646694
0.00939041
0.0125742
0.0159834
0.0192669
0.0225185
0.0253072
0.0276528
0.0288855
0.0305237
0.00603779
0.00912129
0.0123724
0.0159006
0.0193053
0.0226675
0.0255712
0.0279767
0.0290374
0.031084
0.00694599
0.0101652
0.0133121
0.0168855
0.0204618
0.0239574
0.0269946
0.0295103
0.0304017
0.0328346
0.00872925
0.012225
0.0156532
0.019589
0.0235402
0.0274046
0.0307958
0.0336339
0.0348304
0.0369529
0.011394
0.0151878
0.0189919
0.0234089
0.0278424
0.0322286
0.0361128
0.0393268
0.0410806
0.0429306
0.0146992
0.0188574
0.0231198
0.0281344
0.0332251
0.0383631
0.0430005
0.0469208
0.0496848
0.051898
0.0182001
0.0227898
0.0276263
0.033377
0.0393201
0.0454823
0.0512665
0.0565072
0.0609665
0.0649297
0.0218688
0.0268558
0.0323855
0.038993
0.0459934
0.0535023
0.0610057
0.0687358
0.0768584
0.0854366
0.0246816
0.0302526
0.0365455
0.0440689
0.0523499
0.0616528
0.0716964
0.0836003
0.0985908
0.117652
0.0279794
0.0340534
0.0411542
0.0496753
0.0594152
0.0709815
0.0847141
0.103696
0.132285
0.173224
0.0286061
0.0347485
0.0421087
0.0511917
0.0624282
0.0770746
0.0971691
0.128115
0.179783
0.260825
0.031067
0.0384136
0.0473312
0.0586851
0.0736696
0.0942559
0.124252
0.17248
0.257551
0.390548
0.00702045
0.0086918
0.0108769
0.0136166
0.0163649
0.019662
0.0218277
0.0249713
0.0254559
0.0273841
0.00692328
0.00861887
0.0107268
0.0133397
0.015884
0.0189971
0.0209207
0.023956
0.0243149
0.0262979
0.00695053
0.00860446
0.0106395
0.0131557
0.0155829
0.0185003
0.0202591
0.0231028
0.0232835
0.0254758
0.00704909
0.00859089
0.0104918
0.0128683
0.0151601
0.0178937
0.0195241
0.0221901
0.0222
0.0244209
0.00717986
0.00858034
0.0103157
0.0125307
0.0146564
0.0172025
0.0186972
0.021218
0.0210728
0.0231534
0.00733034
0.00857855
0.0101389
0.0121881
0.0141491
0.0165053
0.0178541
0.0202517
0.0199667
0.0218561
0.00749212
0.00858713
0.00997014
0.0118354
0.0136634
0.0158303
0.0170435
0.0193294
0.0189269
0.0206604
0.00765609
0.00860646
0.00980785
0.0114873
0.0131782
0.0151707
0.0162823
0.0184496
0.0179675
0.0195986
0.00781317
0.00863601
0.00965143
0.0111503
0.0126911
0.014509
0.0155828
0.017586
0.0170915
0.018642
0.00795444
0.00867334
0.00950135
0.0108243
0.0122121
0.0138762
0.0149182
0.0167144
0.0163102
0.0177463
0.00689196
0.00735724
0.00754436
0.00769642
0.00780585
0.00787324
0.00790405
0.00790764
0.00790746
0.00787599
0.00705893
0.0075015
0.00766558
0.00778687
0.00786012
0.00788779
0.00787715
0.00783819
0.00779244
0.00771435
0.00728626
0.00768265
0.00781658
0.00790178
0.00793504
0.00792032
0.00786611
0.00778305
0.00769236
0.00757012
0.00757681
0.00790395
0.00800132
0.00804586
0.00803633
0.00797785
0.00787986
0.00775352
0.0076197
0.00745734
0.00793175
0.00816761
0.00822253
0.00822253
0.00816816
0.00806552
0.00792456
0.00775639
0.00758059
0.00738494
0.00834893
0.00847361
0.00848094
0.00843316
0.00833263
0.00818604
0.00800344
0.00779464
0.00757557
0.00736791
0.00882271
0.00881914
0.00877472
0.0086767
0.00852927
0.00833944
0.00811689
0.00787268
0.00762298
0.00735659
0.00934426
0.00919827
0.0090994
0.00894936
0.00875487
0.00852305
0.0082629
0.00798542
0.00770366
0.00740192
0.00989825
0.00960414
0.00944757
0.00924459
0.00900358
0.00873149
0.00843645
0.00812846
0.00781722
0.00749048
0.0104645
0.0100221
0.00980822
0.00955296
0.00926696
0.00895699
0.00863009
0.00829483
0.00795805
0.00761231
0.0110127
0.0104333
0.010167
0.0098627
0.0095348
0.00919025
0.008835
0.00847607
0.00811815
0.00775881
0.0115505
0.0108339
0.0105152
0.0101636
0.00979675
0.00942121
0.00904152
0.00866291
0.00828862
0.00792113
0.0120513
0.0112046
0.0108372
0.0104427
0.0100416
0.0096398
0.00924032
0.0088465
0.00846083
0.00809085
0.0124911
0.0115278
0.0111183
0.0106875
0.0102583
0.00983626
0.00942245
0.00901842
0.00862657
0.00825997
0.0128509
0.0117882
0.0113452
0.0108865
0.0104371
0.0100017
0.00957983
0.00917105
0.00877837
0.00842126
0.0131136
0.011972
0.0115061
0.0110297
0.0105694
0.0101288
0.00970575
0.00929805
0.00890976
0.00856823
0.0132654
0.0120677
0.0115913
0.0111093
0.0106486
0.0102118
0.00979534
0.00939488
0.00901567
0.00869467
0.0132958
0.0120668
0.0115937
0.0111197
0.0106704
0.0102474
0.009846
0.00945933
0.00909177
0.00879191
0.013199
0.0119641
0.0115093
0.0110579
0.0106329
0.0102345
0.00985684
0.0094889
0.00912868
0.00884191
0.0129731
0.0117583
0.011337
0.0109237
0.0105371
0.0101757
0.00983191
0.00948881
0.00913394
0.00885104
0.0126198
0.0114507
0.011078
0.0107185
0.0103855
0.0100776
0.00978982
0.00951491
0.00926326
0.00911765
0.012138
0.0110438
0.0107349
0.0104435
0.0101768
0.00993217
0.00970635
0.00949781
0.00932129
0.00922393
0.0115419
0.0105478
0.0103146
0.0101028
0.00991155
0.0097364
0.00957449
0.00942711
0.00930632
0.00923042
0.0108476
0.00997482
0.0098263
0.00970292
0.00959472
0.00949494
0.00940139
0.0093174
0.00925266
0.00921152
0.0100731
0.00933924
0.00928145
0.00925297
0.00923399
0.00921515
0.00919502
0.00917843
0.00917335
0.00917878
0.00923904
0.00865745
0.00869349
0.00876392
0.00883864
0.00890531
0.008963
0.00901758
0.00907588
0.00913507
0.00836775
0.00794713
0.00807713
0.00824783
0.00841884
0.00857429
0.00871333
0.00884246
0.00896804
0.0090873
0.00748157
0.00722598
0.0074474
0.00771715
0.00798496
0.00823096
0.00845383
0.00866022
0.00885657
0.00904172
0.00660271
0.00651064
0.00681874
0.00718385
0.0075469
0.00788357
0.00819147
0.00847693
0.00874658
0.00900229
0.00576097
0.00582054
0.00620633
0.00665991
0.00711404
0.00753952
0.00793215
0.00829732
0.00864164
0.00897122
0.00499922
0.0051847
0.00562995
0.00615976
0.00669687
0.00720646
0.00768146
0.00812539
0.0085441
0.00894911
0.00427444
0.00458678
0.00508601
0.00568541
0.00629865
0.00688737
0.00744154
0.00796232
0.00845374
0.00893347
0.00361023
0.00404147
0.00458753
0.00524445
0.00592506
0.0065861
0.0072145
0.00780876
0.00836951
0.00891884
0.00302291
0.0035598
0.00414151
0.00484385
0.00558069
0.00630527
0.00700127
0.00766407
0.00828978
0.00889861
0.00251845
0.0031461
0.00375211
0.00448723
0.0052683
0.00604651
0.00680225
0.0075269
0.00821103
0.00888174
0.00209902
0.00280179
0.00342155
0.00417675
0.00498959
0.00581067
0.00661741
0.00739681
0.00813179
0.00885124
0.00176451
0.00252646
0.00315034
0.0039134
0.00474539
0.00559809
0.00644658
0.00727341
0.00805121
0.0088052
0.00151253
0.00231801
0.00293744
0.00369691
0.00453571
0.00540871
0.00628979
0.00715782
0.00797259
0.00874549
0.00133879
0.00217292
0.00278049
0.00352601
0.00435976
0.00524189
0.00614677
0.0070522
0.00790579
0.00868549
0.00123791
0.00208675
0.00267614
0.00339846
0.0042159
0.00509602
0.0060151
0.00695352
0.0078615
0.00866478
0.00120228
0.00205351
0.00261951
0.00331055
0.00410117
0.00496886
0.00589596
0.00687847
0.00794327
0.00903193
0.00121628
0.00206354
0.00260429
0.00325837
0.00401154
0.00485046
0.00576023
0.00673158
0.0077901
0.00886052
0.0012801
0.00211488
0.00262779
0.00323973
0.00394558
0.00473961
0.00560927
0.00653953
0.00754414
0.00855372
0.00138849
0.00220259
0.00268592
0.0032526
0.00390479
0.00464398
0.00546232
0.00634585
0.00730258
0.00826283
0.00153396
0.0023208
0.00277415
0.00329479
0.00389051
0.00456974
0.00533054
0.00616256
0.00707084
0.00798688
0.0017094
0.00246406
0.00288806
0.00336367
0.00390266
0.0045196
0.00521855
0.0059933
0.00684737
0.00771895
0.00190842
0.00262739
0.00302333
0.00345616
0.00394002
0.00449449
0.00512933
0.00584268
0.00663748
0.00746221
0.00212516
0.00280607
0.00317565
0.00356878
0.00400053
0.00449417
0.00506457
0.00571423
0.00644613
0.00722094
0.00235449
0.00299582
0.00334079
0.00369773
0.00408131
0.00451714
0.00502437
0.00560959
0.00627612
0.00699818
0.00259332
0.0031944
0.00351619
0.00384025
0.00417978
0.00456151
0.00500785
0.00552906
0.00612885
0.00679579
0.00284046
0.00340237
0.00370242
0.00399652
0.00429584
0.00462717
0.00501524
0.00547342
0.00600558
0.00661474
0.0030848
0.00360867
0.00388882
0.00415653
0.0044205
0.00470652
0.00504058
0.00543848
0.00590365
0.00645231
0.00332681
0.00381405
0.00407554
0.00431962
0.00455233
0.00479762
0.00508177
0.00542231
0.00582146
0.00630621
0.00356628
0.00401799
0.00426161
0.0044842
0.00468909
0.00489783
0.00513611
0.00542234
0.00575676
0.00617397
0.00380263
0.00421944
0.00444564
0.00464834
0.00482835
0.0050044
0.00520075
0.00543589
0.00570709
0.00605276
0.00403584
0.00441786
0.00462678
0.00481081
0.00496839
0.00511524
0.00527351
0.0054609
0.00567054
0.00593987
0.00426638
0.00461318
0.00480488
0.00497118
0.00510844
0.00522929
0.00535333
0.00549679
0.00564718
0.00583425
0.00449488
0.00480568
0.0049803
0.00512989
0.00524888
0.00534686
0.0054406
0.00554462
0.00563917
0.00573564
0.00472181
0.00499572
0.00515387
0.00528836
0.00539191
0.0054711
0.00553939
0.00560859
0.00564923
0.00563658
0.00494702
0.0051835
0.00532648
0.00544861
0.00554161
0.00561039
0.00566624
0.0057198
0.00574009
0.00564459
0.00517011
0.00536897
0.0054986
0.00561176
0.00570039
0.00577082
0.00583903
0.00593581
0.00612236
0.00644449
0.00539172
0.00555204
0.00566985
0.00577701
0.00586485
0.00593921
0.00601516
0.00612058
0.00630954
0.00659232
0.00560745
0.00573102
0.00583909
0.00594298
0.00603253
0.00611128
0.0061909
0.00629264
0.00645222
0.00666494
0.00581342
0.00590404
0.00600486
0.00610826
0.00620223
0.00628752
0.00637248
0.00647276
0.00661282
0.00678298
0.00600756
0.0060677
0.00616535
0.00627106
0.00637207
0.00646617
0.00655804
0.00665882
0.00678463
0.00692664
0.00618405
0.00622191
0.00631819
0.00642919
0.00653965
0.00664457
0.00674512
0.00684818
0.00696402
0.00708674
0.00633979
0.00636373
0.00646175
0.00658041
0.00670243
0.00681998
0.00693108
0.00703897
0.00714981
0.00726007
0.00647208
0.00649131
0.00659409
0.00672266
0.0068579
0.00698958
0.00711293
0.00722826
0.00733881
0.00744158
0.0065788
0.00660351
0.00671377
0.00685403
0.00700369
0.00715041
0.00728725
0.00741216
0.00752626
0.00762496
0.00665741
0.00669909
0.00681967
0.00697304
0.00713785
0.00729976
0.00745049
0.00758619
0.00770664
0.00780338
)
;

boundaryField
{
    inlet
    {
        type            zeroGradient;
    }
    outlet
    {
        type            fixedValue;
        value           uniform 0;
    }
    cylinder
    {
        type            zeroGradient;
    }
    top
    {
        type            symmetryPlane;
    }
    bottom
    {
        type            symmetryPlane;
    }
    defaultFaces
    {
        type            empty;
    }
}


// ************************************************************************* //
