/*--------------------------------*- C++ -*----------------------------------*\
  =========                 |
  \\      /  F ield         | OpenFOAM: The Open Source CFD Toolbox
   \\    /   O peration     | Website:  https://openfoam.org
    \\  /    A nd           | Version:  7
     \\/     M anipulation  |
\*---------------------------------------------------------------------------*/
FoamFile
{
    version     2.0;
    format      ascii;
    class       volScalarField;
    location    "5.6";
    object      p;
}
// * * * * * * * * * * * * * * * * * * * * * * * * * * * * * * * * * * * * * //

dimensions      [0 2 -2 0 0 0 0];

internalField   nonuniform List<scalar> 
18000
(
0.736243
0.736159
0.736227
0.736347
0.73656
0.736885
0.737377
0.738098
0.739086
0.740362
0.74193
0.743791
0.74595
0.748404
0.751133
0.754108
0.757298
0.76067
0.764195
0.767842
0.771572
0.775349
0.779137
0.782906
0.786634
0.790298
0.793882
0.797379
0.800768
0.803938
0.735367
0.735213
0.735261
0.73537
0.735575
0.735892
0.736376
0.737078
0.738037
0.739273
0.74079
0.742582
0.744652
0.746996
0.749596
0.752428
0.755461
0.758664
0.762005
0.765454
0.768978
0.772541
0.776112
0.779661
0.783167
0.786609
0.789975
0.793257
0.796434
0.799421
0.734463
0.734246
0.734275
0.734374
0.734577
0.734894
0.735378
0.736072
0.737009
0.73821
0.739678
0.741405
0.743389
0.745625
0.748097
0.750783
0.753656
0.756683
0.759835
0.763081
0.76639
0.769732
0.773075
0.776393
0.779666
0.782877
0.786012
0.789067
0.792017
0.794807
0.733512
0.733236
0.733257
0.733352
0.733561
0.733889
0.73438
0.735074
0.735998
0.73717
0.738592
0.740258
0.742158
0.744287
0.746631
0.74917
0.751878
0.754726
0.757681
0.760717
0.763804
0.766915
0.770021
0.7731
0.776131
0.779099
0.781993
0.784807
0.787517
0.790092
0.732538
0.732213
0.732227
0.732322
0.73254
0.732883
0.733387
0.734085
0.735
0.736148
0.737529
0.739133
0.740951
0.742974
0.74519
0.747582
0.750125
0.752787
0.755541
0.758359
0.761217
0.764089
0.766951
0.769781
0.772561
0.775275
0.777916
0.780477
0.782937
0.78528
0.731532
0.731161
0.73117
0.73127
0.731503
0.731865
0.732387
0.733096
0.734009
0.735137
0.73648
0.738025
0.739761
0.74168
0.743771
0.746017
0.74839
0.750863
0.753409
0.756005
0.758628
0.761254
0.763864
0.766437
0.768956
0.771407
0.773783
0.776082
0.778279
0.780379
0.730496
0.730086
0.730094
0.730202
0.730452
0.730839
0.731383
0.732107
0.733023
0.734136
0.735442
0.736929
0.738586
0.740403
0.742371
0.744469
0.746671
0.74895
0.751283
0.753652
0.756034
0.75841
0.76076
0.763069
0.765319
0.767498
0.7696
0.771625
0.773553
0.775397
0.729426
0.728986
0.728994
0.729114
0.729384
0.729798
0.730369
0.731114
0.732037
0.733137
0.734409
0.73584
0.737419
0.739139
0.740984
0.742934
0.744961
0.747043
0.749162
0.751299
0.753436
0.755556
0.757642
0.75968
0.761654
0.763553
0.765373
0.767118
0.76877
0.770346
0.728318
0.727859
0.727869
0.728002
0.728295
0.728739
0.729342
0.730111
0.731043
0.732134
0.733374
0.734752
0.736258
0.737881
0.739606
0.741405
0.743257
0.745141
0.747042
0.748945
0.750833
0.752694
0.754512
0.756273
0.757965
0.759579
0.761113
0.762573
0.763945
0.765242
0.727171
0.726701
0.726715
0.726862
0.727181
0.727658
0.728296
0.729093
0.730038
0.731121
0.732332
0.733661
0.735097
0.736627
0.738229
0.739879
0.741556
0.743242
0.744924
0.74659
0.748228
0.749827
0.751373
0.752854
0.75426
0.755586
0.75683
0.758004
0.759095
0.760107
0.725982
0.725509
0.725529
0.725694
0.72604
0.726553
0.727229
0.728055
0.729015
0.730093
0.73128
0.732564
0.733932
0.735369
0.736851
0.738353
0.739856
0.741344
0.742807
0.744236
0.745623
0.746958
0.74823
0.749429
0.750548
0.751585
0.752539
0.753425
0.754238
0.754962
0.724749
0.724281
0.72431
0.724494
0.724869
0.72542
0.726135
0.726993
0.72797
0.729047
0.730212
0.731454
0.732758
0.734104
0.735468
0.736825
0.738156
0.739447
0.740692
0.741886
0.743022
0.744094
0.745091
0.746008
0.74684
0.747588
0.748254
0.748856
0.749396
0.749832
0.72347
0.723014
0.723055
0.72326
0.723667
0.724258
0.725013
0.725904
0.726899
0.727977
0.729124
0.730326
0.731569
0.732828
0.734077
0.735291
0.736453
0.737551
0.738581
0.739542
0.74043
0.741239
0.741963
0.742599
0.743147
0.743609
0.743991
0.744313
0.744591
0.744745
0.722143
0.721706
0.721761
0.72199
0.72243
0.723062
0.723859
0.724783
0.725798
0.726879
0.72801
0.729177
0.730361
0.731536
0.732674
0.733749
0.734745
0.735654
0.736474
0.737207
0.737851
0.738402
0.738856
0.739214
0.739481
0.739663
0.739766
0.739817
0.739845
0.73973
0.720769
0.720354
0.720425
0.72068
0.721156
0.72183
0.722669
0.723628
0.724664
0.72575
0.726867
0.728001
0.72913
0.730225
0.731255
0.732195
0.733031
0.733756
0.734373
0.734884
0.73529
0.735589
0.735779
0.735865
0.735858
0.735766
0.7356
0.735389
0.735182
0.734814
0.719345
0.718957
0.719046
0.719329
0.719843
0.72056
0.72144
0.722433
0.723492
0.724584
0.72569
0.726795
0.727872
0.72889
0.729816
0.730627
0.731308
0.731858
0.732279
0.732577
0.732753
0.732806
0.73274
0.732562
0.732289
0.731934
0.73151
0.731051
0.730625
0.730025
0.717873
0.717514
0.717623
0.717936
0.718488
0.719247
0.720169
0.721197
0.722279
0.723379
0.724478
0.725556
0.726585
0.727529
0.728355
0.729041
0.729576
0.729958
0.730193
0.730287
0.730242
0.730059
0.729746
0.729316
0.728788
0.728183
0.727514
0.726822
0.726194
0.725387
0.716354
0.716023
0.716154
0.716499
0.717089
0.717891
0.718853
0.719916
0.721021
0.722132
0.723226
0.72428
0.725263
0.726137
0.726869
0.727437
0.727832
0.728055
0.728114
0.728014
0.727758
0.727351
0.726803
0.726133
0.725366
0.724525
0.723629
0.72272
0.721906
0.720917
0.714786
0.714484
0.714639
0.715017
0.715646
0.716489
0.717491
0.718587
0.719716
0.72084
0.721932
0.722966
0.723906
0.724712
0.725353
0.725809
0.726073
0.726148
0.726041
0.725757
0.725302
0.724682
0.723913
0.723019
0.722028
0.72097
0.719864
0.718755
0.717771
0.716627
0.71317
0.712896
0.713075
0.713488
0.714158
0.71504
0.71608
0.717208
0.718363
0.719502
0.720595
0.72161
0.722508
0.72325
0.723804
0.724154
0.724295
0.72423
0.723967
0.723511
0.722868
0.722049
0.721074
0.719972
0.718777
0.71752
0.716224
0.714934
0.713795
0.712523
0.711505
0.711255
0.711461
0.711911
0.712621
0.713543
0.714619
0.715779
0.71696
0.718116
0.71921
0.720207
0.721065
0.721744
0.722216
0.722466
0.722491
0.722295
0.721885
0.721267
0.720448
0.719444
0.718279
0.716987
0.715605
0.714168
0.712703
0.711252
0.709974
0.708599
0.709788
0.709561
0.709794
0.710283
0.711033
0.711995
0.713107
0.714298
0.715504
0.716677
0.717774
0.718753
0.719571
0.720189
0.720583
0.720738
0.720653
0.720333
0.719784
0.719012
0.718028
0.716851
0.715511
0.714046
0.712496
0.710899
0.709286
0.707695
0.706296
0.704843
0.708019
0.707812
0.708074
0.708602
0.709393
0.710394
0.71154
0.712762
0.713993
0.715182
0.71628
0.717241
0.718018
0.718577
0.718894
0.718958
0.718768
0.718329
0.717647
0.71673
0.715591
0.714253
0.712751
0.711126
0.709424
0.707686
0.705945
0.704238
0.702739
0.701235
0.706196
0.706006
0.706297
0.706864
0.707696
0.708736
0.709917
0.711168
0.712423
0.713627
0.714724
0.715663
0.7164
0.716899
0.717141
0.717116
0.716823
0.716268
0.715457
0.7144
0.713113
0.711623
0.709968
0.708197
0.706356
0.704492
0.702642
0.700842
0.699268
0.697747
0.704316
0.704142
0.704461
0.705068
0.705941
0.70702
0.708234
0.709513
0.710791
0.712007
0.713099
0.714013
0.714705
0.715144
0.71531
0.715196
0.714802
0.714132
0.713195
0.712001
0.710569
0.708931
0.707131
0.70522
0.70325
0.701272
0.699328
0.697458
0.695837
0.694343
0.702376
0.702216
0.702564
0.703211
0.704125
0.705241
0.706487
0.707794
0.709092
0.710315
0.711397
0.712281
0.712925
0.7133
0.713389
0.713185
0.712687
0.711902
0.710837
0.709506
0.707932
0.706148
0.704204
0.702156
0.700059
0.697971
0.695942
0.69402
0.692382
0.690968
0.700372
0.700226
0.700604
0.70129
0.702245
0.703397
0.704674
0.706005
0.70732
0.708545
0.70961
0.710458
0.711049
0.711355
0.711363
0.711064
0.71046
0.709556
0.708362
0.706893
0.705173
0.703242
0.701151
0.698961
0.696733
0.69453
0.692414
0.690446
0.688815
0.687541
0.698299
0.698169
0.698579
0.699306
0.7003
0.701486
0.702791
0.704143
0.705469
0.706688
0.707729
0.708534
0.709064
0.709296
0.709216
0.708817
0.708102
0.707075
0.705748
0.704136
0.702268
0.700184
0.697939
0.695596
0.693221
0.690883
0.688659
0.686635
0.685028
0.683961
0.696152
0.696042
0.696486
0.697254
0.698286
0.699504
0.700833
0.702202
0.703531
0.704737
0.705745
0.706498
0.706959
0.707108
0.706933
0.706428
0.705594
0.704439
0.702973
0.701215
0.699194
0.696951
0.694543
0.692032
0.689481
0.686962
0.684563
0.68241
0.680825
0.680084
0.693929
0.693845
0.694325
0.695135
0.696204
0.697448
0.698797
0.700176
0.7015
0.702683
0.703648
0.704339
0.704722
0.70478
0.7045
0.70388
0.70292
0.701631
0.700022
0.698114
0.695937
0.693534
0.690956
0.68826
0.685499
0.682725
0.68
0.677433
0.675379
0.674423
0.813841
0.8274
0.835927
0.843363
0.848062
0.851661
0.853831
0.855064
0.855473
0.855239
0.854447
0.853182
0.851511
0.849505
0.847226
0.844698
0.841974
0.839115
0.836112
0.832986
0.829764
0.826441
0.823056
0.819625
0.816166
0.812728
0.809351
0.806152
0.80341
0.801432
0.808997
0.822488
0.83121
0.838957
0.843916
0.847707
0.85003
0.851395
0.8519
0.851738
0.851009
0.849817
0.848212
0.84628
0.844042
0.841572
0.838914
0.836093
0.833139
0.830069
0.826878
0.823604
0.820248
0.816845
0.813411
0.809988
0.806625
0.803432
0.800676
0.798697
0.803989
0.81745
0.826385
0.834478
0.839725
0.84373
0.846218
0.847722
0.848324
0.84824
0.847574
0.846452
0.844913
0.843054
0.840858
0.838449
0.835857
0.833077
0.830175
0.827161
0.824004
0.820783
0.817459
0.814089
0.810686
0.807281
0.803934
0.800752
0.797983
0.796001
0.798793
0.812282
0.821458
0.829925
0.835483
0.839736
0.8424
0.844039
0.844743
0.844744
0.844149
0.843091
0.841618
0.839817
0.837684
0.835336
0.8328
0.830075
0.827222
0.824258
0.82115
0.81797
0.814691
0.811358
0.807989
0.804611
0.801282
0.798108
0.795332
0.79334
0.793412
0.806979
0.81642
0.8253
0.831197
0.835723
0.838577
0.840351
0.841162
0.841251
0.840731
0.839735
0.838325
0.836577
0.834516
0.832228
0.829743
0.827081
0.824278
0.82136
0.818309
0.815171
0.811942
0.808653
0.805319
0.801975
0.798666
0.795501
0.792722
0.790716
0.787855
0.801537
0.81126
0.820603
0.826872
0.831692
0.834749
0.836665
0.837584
0.83776
0.837316
0.836381
0.835036
0.833345
0.831351
0.829123
0.826692
0.824091
0.821343
0.818474
0.81548
0.812389
0.80921
0.805969
0.802676
0.799369
0.796084
0.792931
0.790152
0.788129
0.782124
0.795956
0.805978
0.815832
0.822509
0.827643
0.830916
0.83298
0.834011
0.834273
0.833906
0.833033
0.831752
0.830119
0.828189
0.826023
0.823649
0.821107
0.818416
0.815599
0.812663
0.809624
0.806497
0.803307
0.800058
0.796794
0.793536
0.790398
0.787621
0.785581
0.776225
0.79024
0.800577
0.810989
0.818107
0.823577
0.82708
0.829299
0.830444
0.830792
0.830501
0.82969
0.828474
0.8269
0.825032
0.82293
0.820613
0.81813
0.815499
0.812736
0.809857
0.806875
0.803804
0.800668
0.797467
0.794248
0.791023
0.787902
0.785128
0.783073
0.770171
0.784395
0.795061
0.806072
0.813667
0.819495
0.823242
0.825622
0.826884
0.827318
0.827103
0.826355
0.825203
0.82369
0.821883
0.819845
0.817587
0.815163
0.81259
0.809885
0.807064
0.804141
0.80113
0.798051
0.794902
0.791731
0.788543
0.785444
0.782675
0.780604
0.763981
0.778433
0.789436
0.801084
0.80919
0.815398
0.819402
0.82195
0.823331
0.823853
0.823713
0.823029
0.821941
0.820488
0.818743
0.816768
0.81457
0.812205
0.809691
0.807045
0.804285
0.801423
0.798474
0.795457
0.792364
0.789243
0.786098
0.783024
0.780261
0.778175
0.75768
0.772371
0.783715
0.79603
0.804678
0.811287
0.815561
0.818285
0.819787
0.820398
0.820334
0.819714
0.818688
0.817297
0.815614
0.8137
0.811563
0.809257
0.806802
0.804216
0.801519
0.798721
0.795837
0.792884
0.78985
0.786783
0.783686
0.780641
0.777887
0.775786
0.751299
0.766233
0.777913
0.790913
0.800132
0.807162
0.811722
0.814628
0.816255
0.816957
0.816966
0.816411
0.815447
0.814117
0.812495
0.810642
0.808565
0.806318
0.803924
0.801399
0.798767
0.796034
0.793217
0.790332
0.787362
0.784353
0.781307
0.778297
0.775553
0.773438
0.744877
0.760046
0.772049
0.785742
0.795558
0.803026
0.807885
0.810981
0.812736
0.81353
0.813613
0.813122
0.812219
0.81095
0.809387
0.807595
0.805578
0.80339
0.801056
0.798593
0.796029
0.793363
0.790616
0.787801
0.784899
0.781952
0.778963
0.775991
0.773262
0.771133
0.738456
0.753844
0.766147
0.780526
0.790959
0.79888
0.804052
0.807345
0.809231
0.810119
0.810275
0.809846
0.809004
0.807796
0.806293
0.804559
0.802601
0.800472
0.7982
0.7958
0.793305
0.790707
0.788032
0.78529
0.782461
0.77958
0.776652
0.773724
0.771013
0.768872
0.732082
0.747662
0.760235
0.775279
0.78634
0.794725
0.800224
0.80372
0.805743
0.806723
0.806952
0.806586
0.805804
0.804657
0.803213
0.801534
0.799635
0.797565
0.795355
0.793018
0.790594
0.788065
0.785465
0.782799
0.780046
0.777236
0.774375
0.771497
0.768808
0.766656
0.725805
0.741542
0.754344
0.770013
0.781706
0.790564
0.796402
0.800108
0.802271
0.803343
0.803647
0.803343
0.80262
0.801534
0.800146
0.79852
0.79668
0.794669
0.792522
0.790249
0.787896
0.785439
0.782913
0.780326
0.777653
0.774918
0.772131
0.769309
0.766649
0.764487
0.719676
0.735525
0.748507
0.764748
0.777066
0.786402
0.792587
0.796511
0.798817
0.799982
0.800359
0.800118
0.799454
0.798425
0.797093
0.795519
0.793736
0.791784
0.789701
0.787491
0.785209
0.782826
0.780376
0.77787
0.77528
0.772626
0.769918
0.767161
0.764536
0.762368
0.713745
0.729653
0.742758
0.759503
0.772427
0.782243
0.78878
0.79293
0.795383
0.796642
0.797091
0.796913
0.796305
0.795331
0.794053
0.792531
0.790804
0.788909
0.78689
0.784745
0.782533
0.780225
0.777852
0.775428
0.772925
0.770358
0.767735
0.765053
0.762473
0.760301
0.708059
0.723967
0.737131
0.754298
0.767799
0.778091
0.784986
0.789367
0.79197
0.793326
0.793846
0.793729
0.793175
0.792254
0.791027
0.789556
0.787884
0.786046
0.784088
0.782009
0.779866
0.777635
0.775339
0.772997
0.770586
0.768112
0.765583
0.762986
0.760462
0.758291
0.70266
0.718505
0.731659
0.749154
0.763194
0.773951
0.781206
0.785822
0.78858
0.790034
0.790625
0.790568
0.790065
0.789193
0.788016
0.786595
0.784975
0.783193
0.781296
0.779283
0.777207
0.775053
0.772835
0.770578
0.76826
0.765886
0.76346
0.76096
0.758504
0.756342
0.697582
0.713298
0.726375
0.744092
0.758624
0.769828
0.777442
0.782298
0.785213
0.786769
0.787429
0.787431
0.786976
0.786149
0.78502
0.783647
0.782079
0.78035
0.778513
0.776566
0.774557
0.772478
0.770339
0.768167
0.765947
0.763679
0.761365
0.758976
0.756605
0.75446
0.69285
0.708374
0.721304
0.739133
0.754101
0.765728
0.773696
0.778794
0.781871
0.783529
0.784258
0.784317
0.783907
0.783124
0.78204
0.780712
0.779193
0.777519
0.775739
0.773857
0.771913
0.769908
0.767848
0.765764
0.763645
0.761488
0.759296
0.757034
0.754767
0.752653
0.688481
0.703751
0.71647
0.734297
0.749636
0.761659
0.769972
0.775313
0.778554
0.780317
0.781113
0.781228
0.780861
0.780119
0.779077
0.777791
0.77632
0.774698
0.772974
0.771155
0.769274
0.767343
0.765362
0.763366
0.76135
0.759312
0.757251
0.755132
0.752994
0.750927
0.684486
0.699442
0.711887
0.729605
0.745244
0.757629
0.766274
0.771859
0.775264
0.777133
0.777997
0.778166
0.777839
0.777134
0.776131
0.774885
0.773458
0.771889
0.770217
0.768458
0.76664
0.764781
0.762878
0.760971
0.75906
0.757146
0.755226
0.75327
0.751288
0.749294
0.680875
0.695453
0.707568
0.725073
0.740937
0.753646
0.762607
0.768434
0.772004
0.773979
0.774911
0.775131
0.774842
0.77417
0.773204
0.771994
0.770611
0.769089
0.767468
0.765767
0.764008
0.76222
0.760395
0.758577
0.756772
0.754986
0.753219
0.751445
0.749651
0.747766
0.677659
0.691784
0.703519
0.720722
0.736736
0.749724
0.75898
0.765045
0.768778
0.77086
0.771858
0.772127
0.771871
0.771228
0.770295
0.769119
0.767776
0.7663
0.764726
0.76308
0.76138
0.759659
0.757911
0.756183
0.754483
0.752828
0.751223
0.749651
0.748085
0.74636
0.674858
0.688428
0.699743
0.716567
0.732658
0.745873
0.755401
0.761695
0.765588
0.767777
0.768841
0.769153
0.768928
0.76831
0.767405
0.766262
0.764956
0.76352
0.76199
0.760397
0.758754
0.757096
0.755425
0.753785
0.75219
0.750668
0.749232
0.747882
0.746589
0.745097
0.672518
0.685373
0.696219
0.712572
0.72865
0.742036
0.751817
0.758344
0.762402
0.764705
0.765837
0.766192
0.765995
0.765402
0.764522
0.763409
0.762136
0.76074
0.759252
0.757708
0.75612
0.754526
0.752929
0.751376
0.749885
0.748496
0.747234
0.746127
0.745156
0.744004
0.670653
0.682536
0.692852
0.708615
0.724572
0.738083
0.748113
0.75489
0.759136
0.761572
0.762785
0.763191
0.763028
0.762463
0.761611
0.76053
0.759292
0.757935
0.756491
0.754996
0.753464
0.751933
0.750411
0.748943
0.747556
0.746299
0.745215
0.744366
0.743771
0.743118
0.669275
0.679835
0.689704
0.704969
0.720796
0.73437
0.744575
0.751545
0.75594
0.758484
0.759765
0.760211
0.760076
0.759537
0.758708
0.757657
0.756451
0.75513
0.753727
0.752277
0.750797
0.749325
0.747873
0.746487
0.745197
0.744065
0.743153
0.742566
0.742394
0.742456
0.664347
0.671358
0.680579
0.695752
0.711935
0.725828
0.736325
0.743527
0.74804
0.750598
0.75182
0.752181
0.751976
0.751394
0.750546
0.749506
0.748326
0.747051
0.745712
0.744346
0.742975
0.741632
0.740344
0.739153
0.738104
0.737284
0.736812
0.736934
0.738017
0.740759
0.645565
0.65509
0.666447
0.681103
0.695683
0.708137
0.717799
0.724737
0.729364
0.732224
0.733813
0.734533
0.734663
0.734389
0.733829
0.733067
0.732159
0.731154
0.730088
0.728995
0.727903
0.726846
0.725856
0.724982
0.724285
0.723874
0.723909
0.724706
0.726751
0.730739
0.626207
0.638689
0.651376
0.665043
0.678025
0.689279
0.698333
0.705129
0.709924
0.713115
0.715101
0.716221
0.716731
0.716812
0.716587
0.716144
0.715544
0.714838
0.714064
0.713258
0.712451
0.711677
0.710972
0.710388
0.70999
0.709893
0.710255
0.711388
0.713805
0.718228
0.606843
0.620797
0.633859
0.646737
0.658775
0.669383
0.678141
0.684939
0.689953
0.693488
0.695866
0.697385
0.698281
0.698733
0.698863
0.698761
0.698489
0.6981
0.697632
0.697121
0.6966
0.696103
0.695666
0.695341
0.695191
0.695325
0.695891
0.697187
0.699716
0.704285
0.587066
0.601528
0.614644
0.627089
0.6386
0.648806
0.657373
0.66421
0.669449
0.673326
0.676106
0.678041
0.679348
0.680196
0.680706
0.680968
0.681044
0.680988
0.680837
0.680629
0.680393
0.680164
0.679976
0.679879
0.679929
0.680229
0.680914
0.682268
0.684766
0.689299
0.566691
0.581308
0.594389
0.606557
0.617705
0.62761
0.636039
0.64293
0.648387
0.652598
0.655774
0.658133
0.659865
0.661127
0.662034
0.662674
0.663112
0.663399
0.663573
0.663669
0.663716
0.663748
0.663793
0.663899
0.664116
0.66454
0.665289
0.666637
0.669022
0.673417
0.545733
0.560358
0.573334
0.58527
0.596148
0.605844
0.614196
0.621163
0.626833
0.631358
0.634916
0.637687
0.63984
0.641516
0.642823
0.643847
0.64465
0.645282
0.64578
0.646178
0.646504
0.646787
0.647054
0.647346
0.647709
0.648232
0.649017
0.650326
0.652556
0.656743
0.524198
0.538749
0.551575
0.563315
0.574004
0.58357
0.591897
0.59896
0.604838
0.609661
0.613577
0.616741
0.6193
0.62138
0.623081
0.624482
0.625644
0.626615
0.627432
0.628126
0.628723
0.629248
0.629726
0.630195
0.630695
0.631307
0.632121
0.633379
0.635438
0.639371
0.502087
0.516524
0.529192
0.540773
0.551335
0.560829
0.569166
0.576339
0.582421
0.587525
0.591778
0.595314
0.598259
0.600727
0.602808
0.604575
0.606085
0.607385
0.608511
0.609491
0.610348
0.611106
0.611788
0.612426
0.613058
0.613756
0.614598
0.61581
0.617698
0.621347
0.47942
0.493725
0.506243
0.517696
0.528174
0.537634
0.546008
0.5533
0.55958
0.56495
0.569521
0.573407
0.576718
0.579555
0.581999
0.584117
0.585963
0.58758
0.589001
0.590255
0.591361
0.592343
0.593221
0.594025
0.594787
0.595572
0.596448
0.59762
0.599352
0.60272
0.456215
0.47038
0.482761
0.494111
0.504533
0.513986
0.522416
0.529834
0.536308
0.541931
0.5468
0.551015
0.55467
0.557857
0.560646
0.563099
0.565266
0.567186
0.56889
0.570404
0.571748
0.572943
0.574006
0.574967
0.575854
0.576725
0.577638
0.578782
0.580375
0.583448
0.432487
0.446508
0.458765
0.470031
0.480418
0.489886
0.498386
0.505934
0.512597
0.51846
0.52361
0.528131
0.53211
0.535625
0.53874
0.541511
0.543983
0.546191
0.548163
0.549925
0.551496
0.552895
0.554139
0.555253
0.55626
0.557214
0.558164
0.559283
0.560757
0.563582
0.408249
0.422123
0.434266
0.445464
0.455833
0.465331
0.473911
0.481592
0.488438
0.494529
0.49994
0.504748
0.509028
0.512849
0.51627
0.51934
0.522099
0.524578
0.526804
0.528801
0.530585
0.532175
0.533584
0.534839
0.53596
0.536997
0.537989
0.539088
0.540446
0.542982
0.383507
0.397232
0.409272
0.420414
0.430778
0.440317
0.448984
0.456798
0.463821
0.470125
0.47578
0.480855
0.485413
0.489518
0.493222
0.49657
0.499596
0.50233
0.504796
0.507014
0.509002
0.510774
0.512344
0.513732
0.514954
0.516056
0.517074
0.518157
0.519437
0.521759
0.358273
0.371841
0.383786
0.394886
0.405255
0.414842
0.423598
0.431543
0.438734
0.445239
0.45112
0.456438
0.461252
0.465616
0.469579
0.473181
0.476454
0.479423
0.482108
0.484529
0.4867
0.488636
0.490352
0.491867
0.493195
0.494374
0.495426
0.496474
0.497627
0.49966
0.33255
0.345954
0.357816
0.368883
0.379265
0.388903
0.397747
0.405819
0.413168
0.419857
0.425944
0.431484
0.436527
0.441124
0.445319
0.44915
0.452646
0.455829
0.458718
0.461329
0.463674
0.465765
0.467608
0.469221
0.470616
0.471834
0.472906
0.473954
0.475072
0.476898
0.306348
0.319575
0.331366
0.342412
0.352811
0.362498
0.371427
0.379616
0.387113
0.393969
0.40024
0.405975
0.41122
0.416022
0.42042
0.424451
0.428141
0.431509
0.434572
0.437345
0.43984
0.442069
0.444043
0.445772
0.447259
0.448525
0.449586
0.450551
0.451522
0.453071
0.279682
0.292713
0.304448
0.315483
0.325897
0.335628
0.344633
0.35293
0.360558
0.367563
0.373993
0.379895
0.385312
0.390285
0.394853
0.399052
0.402907
0.406439
0.409659
0.412578
0.415199
0.417529
0.419577
0.42136
0.422893
0.424207
0.425313
0.426296
0.427228
0.428537
0.252585
0.265392
0.277087
0.288115
0.298535
0.308296
0.317364
0.325755
0.333498
0.340629
0.347192
0.35323
0.358783
0.363891
0.368591
0.372918
0.376897
0.380548
0.383885
0.38692
0.38966
0.392111
0.394267
0.396122
0.397672
0.39894
0.399954
0.400818
0.40163
0.402671
0.225137
0.23767
0.249325
0.260335
0.270738
0.280509
0.289623
0.298091
0.305928
0.31316
0.319822
0.325957
0.331604
0.336804
0.341595
0.346014
0.350087
0.353831
0.35725
0.360349
0.363131
0.36561
0.367799
0.36971
0.371339
0.372686
0.373737
0.374561
0.375257
0.376019
0.197497
0.209665
0.221242
0.232192
0.242533
0.252279
0.261416
0.26994
0.277847
0.285148
0.291874
0.298066
0.303764
0.309007
0.313834
0.318283
0.322387
0.326173
0.329652
0.332828
0.335691
0.338223
0.340413
0.342266
0.343801
0.345049
0.346013
0.346745
0.347325
0.347751
0.169962
0.1816
0.192977
0.203762
0.213961
0.22363
0.232757
0.241308
0.249253
0.256584
0.263325
0.269521
0.275214
0.280446
0.285261
0.289697
0.293785
0.297542
0.300977
0.304103
0.306936
0.309484
0.311738
0.313675
0.315262
0.316492
0.317365
0.317949
0.31836
0.318495
0.142999
0.153833
0.164752
0.175173
0.185096
0.194606
0.20367
0.21221
0.220155
0.227478
0.234194
0.240343
0.245967
0.251109
0.255824
0.26017
0.264194
0.267921
0.271345
0.274443
0.277194
0.279604
0.281698
0.283503
0.285014
0.286206
0.287022
0.287464
0.287629
0.287281
0.117196
0.126851
0.136901
0.146639
0.156073
0.165291
0.174207
0.182666
0.190545
0.19779
0.20441
0.210442
0.215929
0.220919
0.225465
0.229623
0.233446
0.236978
0.240246
0.243261
0.246006
0.248443
0.250537
0.252274
0.253668
0.254737
0.255446
0.255756
0.255709
0.25497
0.0931485
0.101207
0.109878
0.118506
0.127143
0.135859
0.144485
0.152765
0.16051
0.167625
0.174088
0.179919
0.18516
0.189885
0.194182
0.198127
0.201761
0.20509
0.208105
0.210816
0.213256
0.215454
0.217401
0.219058
0.220377
0.221337
0.221886
0.221942
0.221491
0.220109
0.0713291
0.077437
0.084236
0.0912891
0.0987392
0.106625
0.114675
0.122539
0.12997
0.136827
0.143037
0.148581
0.153482
0.157813
0.16168
0.165202
0.168476
0.17155
0.174412
0.177012
0.179303
0.18128
0.182976
0.18442
0.185602
0.186498
0.187019
0.186958
0.186122
0.184141
0.0519592
0.0559769
0.0605851
0.0656461
0.0715128
0.0781907
0.0852958
0.0924388
0.0993423
0.10578
0.111585
0.116692
0.121133
0.125003
0.128401
0.13141
0.134116
0.136605
0.138934
0.141113
0.1431
0.144844
0.146317
0.147514
0.148434
0.149097
0.149478
0.149303
0.148079
0.145346
0.0349219
0.0370036
0.0394508
0.0422673
0.0461913
0.0511233
0.0566196
0.06243
0.068359
0.0740885
0.0792803
0.0837432
0.0874839
0.0906448
0.0933997
0.0958853
0.0981785
0.10029
0.102194
0.103884
0.105386
0.106732
0.107928
0.108937
0.109695
0.110189
0.110459
0.110264
0.108789
0.105543
0.0196916
0.0202485
0.0208206
0.0216481
0.0240128
0.0270918
0.030506
0.0343664
0.0386455
0.0430447
0.047174
0.0507205
0.0535385
0.0556806
0.0573535
0.0588156
0.0602512
0.0616886
0.0630389
0.0642061
0.0651704
0.0659838
0.0667026
0.0673328
0.067816
0.0680939
0.0682139
0.0681042
0.0667882
0.0633347
0.00593879
0.00490034
0.00100468
0.000162595
0.00262857
0.00443461
0.00579447
0.00743068
0.00950621
0.0118475
0.0141971
0.0163104
0.0180177
0.0192753
0.0201613
0.0208226
0.0214013
0.0219766
0.0225478
0.0230697
0.0235072
0.0238634
0.0241603
0.0244114
0.0245979
0.0246639
0.0246093
0.0245952
0.024243
0.0218294
0.647028
0.63148
0.613288
0.594103
0.574349
0.553893
0.532865
0.511306
0.489212
0.4666
0.44349
0.419885
0.3958
0.371244
0.346232
0.320786
0.294925
0.26871
0.242206
0.215539
0.188896
0.162558
0.136949
0.112532
0.0897888
0.0690958
0.0506501
0.0343672
0.0197211
0.00627872
0.644858
0.627849
0.609168
0.589726
0.569921
0.549484
0.528501
0.507
0.484973
0.462433
0.4394
0.415877
0.391878
0.367414
0.342496
0.317153
0.291401
0.265309
0.238943
0.212439
0.185998
0.159913
0.134624
0.110589
0.0882741
0.0680235
0.0499936
0.0340569
0.0196519
0.00634637
0.641956
0.62399
0.605023
0.585426
0.565589
0.545174
0.524229
0.502778
0.480812
0.458341
0.435383
0.41194
0.388027
0.363656
0.338835
0.313596
0.287955
0.261987
0.235761
0.209422
0.183181
0.157339
0.132344
0.108647
0.0867071
0.0668579
0.0492343
0.0336636
0.0195238
0.00638049
0.63868
0.62009
0.600891
0.581172
0.561307
0.540915
0.520012
0.49861
0.476703
0.454297
0.431411
0.408045
0.384217
0.359937
0.335209
0.310072
0.28454
0.258694
0.232607
0.206431
0.180392
0.154801
0.130111
0.106769
0.0852204
0.0657754
0.048541
0.0333071
0.0194052
0.00639984
0.635112
0.616143
0.596781
0.576981
0.557093
0.536724
0.515861
0.494508
0.472657
0.450311
0.427493
0.404202
0.380454
0.356261
0.331625
0.306586
0.281162
0.255436
0.229488
0.203476
0.177644
0.152308
0.12793
0.104951
0.0838027
0.0647673
0.0479143
0.0329939
0.0193029
0.00640904
0.63132
0.612161
0.592702
0.572853
0.552948
0.532604
0.511779
0.490471
0.468672
0.446383
0.42363
0.400411
0.376739
0.352629
0.328082
0.30314
0.277822
0.252214
0.226405
0.20056
0.174937
0.149863
0.125805
0.103197
0.0824523
0.0638252
0.0473435
0.0327154
0.0192135
0.00640894
0.627366
0.608155
0.588658
0.56879
0.548873
0.528555
0.507766
0.486499
0.46475
0.442517
0.419825
0.396673
0.373074
0.349043
0.324584
0.299735
0.274521
0.249029
0.22336
0.197685
0.172277
0.147471
0.12374
0.10151
0.0811723
0.0629495
0.0468262
0.0324684
0.0191356
0.00640153
0.623301
0.604136
0.584652
0.564793
0.544871
0.524577
0.503823
0.482595
0.460892
0.438713
0.416079
0.39299
0.369461
0.345506
0.32113
0.296372
0.27126
0.245884
0.220356
0.194852
0.169664
0.145134
0.12174
0.099895
0.0799647
0.0621408
0.0463615
0.0322521
0.0190685
0.00639006
0.619172
0.600119
0.580685
0.560862
0.540942
0.520669
0.499948
0.478759
0.457101
0.434972
0.412392
0.389364
0.365902
0.34202
0.317723
0.293051
0.268041
0.24278
0.217393
0.192064
0.1671
0.142854
0.119804
0.0983506
0.0788286
0.061397
0.0459463
0.0320645
0.0190107
0.0063751
0.615015
0.596118
0.576765
0.556994
0.537086
0.516834
0.496145
0.474992
0.453377
0.431295
0.408767
0.385797
0.362399
0.338586
0.314364
0.289777
0.264866
0.23972
0.214472
0.189321
0.164586
0.140632
0.117933
0.096875
0.0777612
0.0607145
0.0455765
0.0319024
0.0189604
0.0063567
0.61086
0.592146
0.572896
0.553191
0.533304
0.513073
0.492413
0.471295
0.44972
0.427682
0.405204
0.382291
0.358954
0.335206
0.311056
0.286551
0.261737
0.236705
0.211597
0.186626
0.162124
0.138467
0.116125
0.0954667
0.07676
0.0600895
0.0452478
0.0317625
0.0189162
0.00633722
0.606733
0.588214
0.569083
0.549454
0.529596
0.509386
0.488754
0.467668
0.446129
0.424135
0.401705
0.378846
0.355567
0.331881
0.307801
0.283376
0.258656
0.233736
0.20877
0.183982
0.159719
0.136364
0.114384
0.0941259
0.0758234
0.059519
0.044957
0.0316422
0.0188772
0.00631794
0.602651
0.58433
0.565329
0.545784
0.525961
0.505773
0.485168
0.464111
0.442608
0.420655
0.39827
0.375462
0.352238
0.328612
0.3046
0.280253
0.255625
0.230816
0.205993
0.181393
0.157373
0.134327
0.112711
0.0928545
0.0749511
0.0590009
0.0447013
0.0315393
0.0188427
0.00629977
0.59863
0.580507
0.561642
0.542185
0.522403
0.502238
0.481657
0.460627
0.439156
0.417243
0.394901
0.372141
0.348968
0.325401
0.301456
0.277184
0.252646
0.227949
0.203272
0.178863
0.155091
0.132359
0.111111
0.0916546
0.0741431
0.0585334
0.0444784
0.0314519
0.0188122
0.00628338
0.594685
0.576753
0.558028
0.538659
0.518923
0.49878
0.478222
0.457218
0.435777
0.413901
0.391599
0.368883
0.34576
0.322249
0.298368
0.27417
0.249721
0.225135
0.200607
0.176394
0.152877
0.130463
0.109586
0.0905273
0.0733984
0.0581143
0.0442856
0.0313781
0.0187855
0.0062692
0.590826
0.573078
0.554491
0.53521
0.515523
0.495402
0.474867
0.453886
0.432473
0.41063
0.388364
0.365689
0.342615
0.319157
0.295339
0.271211
0.24685
0.222376
0.198
0.173988
0.150731
0.128641
0.108135
0.0894717
0.0727152
0.0577404
0.0441197
0.0313159
0.0187621
0.00625751
0.587062
0.569489
0.551037
0.531841
0.512204
0.492105
0.471591
0.450632
0.429244
0.407432
0.385199
0.362563
0.339535
0.316127
0.292367
0.268308
0.244034
0.219674
0.195452
0.171645
0.148652
0.126892
0.106759
0.0884857
0.0720904
0.0574083
0.0439776
0.0312634
0.0187473
0.00624864
0.583401
0.565994
0.547671
0.528554
0.508968
0.488892
0.468398
0.447459
0.426093
0.404308
0.382106
0.359505
0.336519
0.313159
0.289455
0.265462
0.241275
0.217029
0.192962
0.169364
0.146642
0.125215
0.105455
0.087567
0.0715208
0.0571145
0.0438564
0.031219
0.0187516
0.00624232
0.579853
0.562598
0.544397
0.525354
0.505817
0.485764
0.465288
0.444367
0.423021
0.40126
0.379087
0.356518
0.333571
0.310254
0.286604
0.262676
0.238575
0.214444
0.190534
0.167147
0.1447
0.12361
0.104224
0.0867134
0.071004
0.0568561
0.0437537
0.0311807
0.0187355
0.00623753
0.576425
0.559308