/*--------------------------------*- C++ -*----------------------------------*\
  =========                 |
  \\      /  F ield         | OpenFOAM: The Open Source CFD Toolbox
   \\    /   O peration     | Website:  https://openfoam.org
    \\  /    A nd           | Version:  7
     \\/     M anipulation  |
\*---------------------------------------------------------------------------*/
FoamFile
{
    version     2.0;
    format      ascii;
    class       surfaceScalarField;
    location    "5.6";
    object      phi;
}
// * * * * * * * * * * * * * * * * * * * * * * * * * * * * * * * * * * * * * //

dimensions      [0 3 -1 0 0 0 0];

internalField   nonuniform List<scalar> 
35640
(
-5.53178e-06
-3.76654e-05
4.31972e-05
-2.0113e-05
0.000169688
-0.000155107
-4.168e-05
0.000597666
-0.000576099
-6.74061e-05
0.00115546
-0.00112973
-9.44178e-05
0.00178886
-0.00176185
-0.000120017
0.00246459
-0.00243899
-0.000141824
0.00316125
-0.00313944
-0.000157847
0.00386435
-0.00384832
-0.000166456
0.00456373
-0.00455512
-0.000166353
0.00525162
-0.00525172
-0.000156562
0.00592146
-0.00593125
-0.000136399
0.00656738
-0.00658754
-0.000105384
0.00718396
-0.00721498
-6.32285e-05
0.00776627
-0.00780842
-9.80566e-06
0.00830985
-0.00836328
5.48865e-05
0.00881089
-0.00887558
0.00013074
0.00926626
-0.00934212
0.000217556
0.00967362
-0.00976043
0.000315053
0.0100314
-0.0101289
0.000422893
0.0103388
-0.0104467
0.000540694
0.0105959
-0.0107137
0.000668056
0.0108033
-0.0109306
0.000804553
0.010962
-0.0110985
0.000949727
0.0110738
-0.011219
0.0011031
0.0111405
-0.0112939
0.00126414
0.0111642
-0.0113253
0.00143217
0.0111471
-0.0113152
0.00160632
0.0110914
-0.0112655
0.00178526
0.0110013
-0.0111803
0.0108828
0.00196716
-0.0110647
-7.51547e-06
-3.01502e-05
-2.62248e-05
0.000188397
-5.33131e-05
0.000624755
-8.55174e-05
0.00118766
-0.000119707
0.00182305
-0.000153063
0.00249795
-0.000183074
0.00319126
-0.00020762
0.00388889
-0.000224958
0.00458107
-0.000233716
0.00526038
-0.00023285
0.00592059
-0.000221598
0.00655613
-0.000199425
0.00716179
-0.000165986
0.00773283
-0.00012109
0.00826496
-6.46967e-05
0.00875449
3.12317e-06
0.00919844
8.22107e-05
0.00959453
0.000172338
0.00994127
0.000273215
0.010238
0.000384499
0.0104846
0.000505807
0.010682
0.000636724
0.0108311
0.000776795
0.0109338
0.000925516
0.0109918
0.00108226
0.0110075
0.00124622
0.0109832
0.00141633
0.0109212
0.00159112
0.0108265
0.0107055
0.00176849
-9.31177e-06
-2.08386e-05
-3.16847e-05
0.000210771
-6.36421e-05
0.000656713
-0.000101552
0.00122557
-0.00014205
0.00186355
-0.000182166
0.00253806
-0.000219264
0.00322836
-0.000251167
0.00392079
-0.000276059
0.00460596
-0.000292485
0.0052768
-0.000299325
0.00592744
-0.000295758
0.00655256
-0.000281198
0.00714723
-0.000255257
0.00770688
-0.000217725
0.00822742
-0.000168521
0.00870529
-0.000107659
0.00913758
-3.52594e-05
0.00952213
4.84768e-05
0.00985753
0.000143287
0.0101432
0.000248877
0.010379
0.000364909
0.0105659
0.000490996
0.010705
0.000626687
0.0107981
0.000771433
0.0108471
0.000924537
0.0108544
0.00108509
0.0108226
0.00125185
0.0107545
0.00142314
0.0106553
0.010532
0.00159663
-1.08673e-05
-9.97152e-06
-3.65402e-05
0.000236443
-7.27826e-05
0.000692955
-0.00011558
0.00126837
-0.000161379
0.00190935
-0.000207127
0.00258381
-0.000250119
0.00327135
-0.000288093
0.00395877
-0.000319185
0.00463706
-0.000341888
0.00529951
-0.000355021
0.00594057
-0.000357711
0.00655525
-0.000349351
0.00713887
-0.000329521
0.00768705
-0.00029797
0.00819587
-0.00025459
0.00866191
-0.000199381
0.00908237
-0.000132432
0.00945518
-5.39053e-05
0.00977901
3.59879e-05
0.0100533
0.000136997
0.010278
0.000248825
0.0104541
0.000371126
0.0105827
0.000503467
0.0106657
0.000645286
0.0107052
0.000795846
0.0107038
0.000954118
0.0106643
0.00111872
0.0105899
0.00128776
0.0104862
0.010361
0.00145868
-1.2252e-05
2.28076e-06
-4.07083e-05
0.0002649
-8.04807e-05
0.000732727
-0.000127243
0.00131513
-0.000177285
0.00195939
-0.00022745
0.00263398
-0.000275012
0.00331891
-0.000317667
0.00400142
-0.000353502
0.00467289
-0.000380966
0.00532697
-0.000398851
0.00595845
-0.000406252
0.00656265
-0.000402517
0.00713513
-0.000387212
0.00767175
-0.000360079
0.00816874
-0.000320992
0.00862282
-0.000269925
0.0090313
-0.000206943
0.0093922
-0.000132175
0.00970424
-4.57874e-05
0.00996687
5.20255e-05
0.0101802
0.000161019
0.0103451
0.000280907
0.0104628
0.000411299
0.0105353
0.000551657
0.0105649
0.000701215
0.0105543
0.000858873
0.0105067
0.00102312
0.0104256
0.00119186
0.0103175
0.0101906
0.00136226
-1.33837e-05
1.56641e-05
-4.41164e-05
0.000295633
-8.66769e-05
0.000775288
-0.000136432
0.00136489
-0.000189564
0.00201252
-0.00024287
0.00268728
-0.000293607
0.00336965
-0.000339439
0.00404726
-0.000378441
0.00471189
-0.00040904
0.00535757
-0.000429995
0.00597941
-0.000440375
0.00657303
-0.000439517
0.00713428
-0.000426981
0.00765921
-0.000402496
0.00814426
-0.000365924
0.00858625
-0.000317235
0.00898262
-0.000256476
0.00933144
-0.000183737
0.0096315
-9.91364e-05
0.00988227
-2.81333e-06
0.0100839
0.000105067
0.0102372
0.000224285
0.0103436
0.000354527
0.0104051
0.000495311
0.0104241
0.000645881
0.0104037
0.000805114
0.0103475
0.000971384
0.0102594
0.00114242
0.0101465
0.010018
0.00131506
-1.42911e-05
2.99553e-05
-4.6743e-05
0.000328085
-9.12656e-05
0.000819811
-0.00014299
0.00141661
-0.000198012
0.00206755
-0.000253094
0.00274237
-0.000305506
0.00342206
-0.000352925
0.00409468
-0.000393408
0.00475238
-0.00042537
0.00538953
-0.000447563
0.0060016
-0.000459045
0.00658451
-0.000459143
0.00713437
-0.000447413
0.00764748
-0.000423585
0.00812043
-0.000387523
0.00855019
-0.000339194
0.00893429
-0.000278626
0.00927087
-0.000205878
0.00955875
-0.00012102
0.00979741
-2.41274e-05
0.00998701
8.47173e-05
0.0101284
0.000205394
0.010223
0.000337691
0.0102728
0.000481219
0.0102806
0.000635289
0.0102496
0.000798791
0.010184
0.00097004
0.0100881
0.00114659
0.00996991
0.00983966
0.00132491
-1.49585e-05
4.4914e-05
-4.85518e-05
0.000361678
-9.42017e-05
0.000865461
-0.000146829
0.00146924
-0.000202477
0.0021232
-0.000257912
0.0027978
-0.000310434
0.00347458
-0.000357741
0.00414198
-0.000397903
0.00479254
-0.00042934
0.00542097
-0.0004508
0.00602306
-0.000461339
0.00659505
-0.000460286
0.00713332
-0.0004472
0.0076344
-0.000421815
0.00809504
-0.000384002
0.00851238
-0.000333732
0.00888401
-0.00027102
0.00920816
-0.000195897
0.00948363
-0.000108387
0.0097099
-8.4971e-06
0.00988712
0.000103783
0.0100161
0.000228446
0.0100983
0.000365412
0.0101358
0.000514422
0.0101316
0.000674915
0.0100891
0.000845853
0.010013
0.00102555
0.00990842
0.00121139
0.00978406
0.00965158
0.00139948
-1.53875e-05
6.03017e-05
-4.9542e-05
0.000395833
-9.54663e-05
0.000911386
-0.000147914
0.00152169
-0.0002029
0.00217818
-0.000257218
0.00285212
-0.000308216
0.00352558
-0.000353634
0.0041874
-0.000391575
0.00483048
-0.000420475
0.00544987
-0.000439091
0.00604168
-0.000446484
0.00660245
-0.000441992
0.00712883
-0.000425179
0.00761758
-0.000395788
0.00806565
-0.000353705
0.00847029
-0.000298903
0.00882921
-0.000231391
0.00914065
-0.000151179
0.00940342
-5.82493e-05
0.00961697
4.74568e-05
0.00978141
0.000166041
0.00989751
0.000297624
0.0099667
0.000442276
0.00999118
0.000599908
0.00997394
0.000770137
0.00991891
0.000952075
0.00983108
0.00114409
0.0097164
0.00134349
0.00958466
0.00944916
0.0015459
-1.55811e-05
7.5883e-05
-4.97252e-05
0.000429978
-9.50841e-05
0.000956745
-0.000146275
0.00157288
-0.000199302
0.00223121
-0.000251006
0.00290382
-0.000298801
0.00357338
-0.000340492
0.00422909
-0.000374227
0.00486421
-0.000398472
0.00547411
-0.000412005
0.00605521
-0.000413902
0.00660434
-0.000403507
0.00711843
-0.000380393
0.00759447
-0.000344317
0.00802958
-0.00029518
0.00842116
-0.000232963
0.008767
-0.00015767
0.00906535
-6.92999e-05
0.00931505
3.21956e-05
0.00951547
0.000146933
0.00966668
0.000275103
0.00976934
0.000416946
0.00982486
0.00057269
0.00983543
0.00074245
0.00980418
0.000926065
0.0097353
0.00112287
0.00963427
0.00133137
0.0095079
0.00154885
0.00936718
0.00922751
0.0017705
-1.55467e-05
9.14298e-05
-4.91367e-05
0.000463568
-9.31211e-05
0.00100073
-0.000142001
0.00162176
-0.000191788
0.002281
-0.000239385
0.00295142
-0.000282281
0.00361627
-0.000318364
0.00426518
-0.000345843
0.00489169
-0.000363231
0.0054915
-0.000369335
0.00606132
-0.000363247
0.00659825
-0.000344322
0.00709951
-0.000312145
0.00756229
-0.00026649
0.00798392
-0.000207267
0.00836193
-0.000134464
0.00869419
-4.80957e-05
0.00897899
5.1845e-05
0.0092151
0.000165424
0.00940189
0.000292801
0.0095393
0.000434233
0.00962791
0.000590069
0.00966903
0.000760684
0.00966482
0.000946401
0.00961846
0.00114732
0.00953438
0.00136305
0.00941854
0.00159235
0.0092786
0.00183256
0.00912697
0.0089816
0.00207847
-1.53007e-05
0.000106731
-4.78322e-05
0.0004961
-8.96814e-05
0.00104258
-0.00013525
0.00166733
-0.000180559
0.00232631
-0.000222579
0.00299344
-0.000258889
0.00365258
-0.000287471
0.00429376
-0.000306614
0.00491084
-0.000314882
0.00549977
-0.000311124
0.00605756
-0.000294454
0.00658158
-0.00026424
0.00706929
-0.000220077
0.00751813
-0.000161753
0.0079256
-8.91881e-05
0.00828937
-2.38061e-06
0.00860738
9.86425e-05
0.00887796
0.000213881
0.00909987
0.000343404
0.00927237
0.000487389
0.00939531
0.000646134
0.00946916
0.000820054
0.00949511
0.00100965
0.00947522
0.00121543
0.00941268
0.00143776
0.00931205
0.00167658
0.00917972
0.00193097
0.00902421
0.00219848
0.00885946
0.0087065
0.00247358
-1.48662e-05
0.000121597
-4.5889e-05
0.000527123
-8.49113e-05
0.0010816
-0.000126241
0.00170866
-0.000165904
0.00236597
-0.000200936
0.00302847
-0.000229015
0.00368066
-0.000248227
0.00431297
-0.000256947
0.00491956
-0.000253809
0.00549663
-0.000237707
0.00604146
-0.000207785
0.00655166
-0.000163423
0.00702493
-0.00010423
0.00745894
-3.00008e-05
0.00785137
5.93354e-05
0.00820003
0.000163768
0.00850295
0.000283254
0.00875848
0.000417776
0.00896534
0.000567387
0.00912276
0.000732249
0.00923045
0.000912662
0.00928875
0.00110907
0.0092987
0.00132203
0.00926225
0.00155221
0.0091825
0.00180019
0.00906407
0.00206627
0.00891364
0.00234991
0.00874057
0.00264898
0.00856039
0.00839765
0.00295783
-1.42734e-05
0.000135871
-4.34035e-05
0.000556254
-7.89943e-05
0.00111719
-0.000115255
0.00174492
-0.000148199
0.00239891
-0.000174924
0.0030552
-0.000193204
0.00369894
-0.000201233
0.004321
-0.000197485
0.00491581
-0.000180672
0.00547982
-0.000149743
0.00601053
-0.000103872
0.00650579
-4.24596e-05
0.00696352
3.48749e-05
0.0073816
0.000128332
0.00775791
0.000237976
0.00809039
0.000363782
0.00837715
0.000505689
0.00861657
0.000663648
0.00880738
0.000837674
0.00894873
0.00102789
0.00904024
0.00123454
0.0090821
0.00145803
0.00907521
0.00169894
0.00902135
0.00195798
0.00892347
0.00223591
0.00878614
0.00253332
0.00861623
0.00285011
0.00842378
0.0031846
0.00822589
0.00805104
0.00353121
-1.35583e-05
0.00014943
-4.04887e-05
0.000583184
-7.21469e-05
0.00114885
-0.000102625
0.0017754
-0.000127901
0.00242419
-0.000145121
0.00307242
-0.00015215
0.00370597
-0.000147289
0.00431614
-0.000129114
0.00489763
-9.64255e-05
0.00544713
-4.82339e-05
0.00596233
1.62467e-05
0.00644131
9.75926e-05
0.00688217
0.000196176
0.00728302
0.000312193
0.00764189
0.000445699
0.00795688
0.000596656
0.00822619
0.000764976
0.00844825
0.000950572
0.00862179
0.0011534
0.00874591
0.00137349
0.00882014
0.00161102
0.00884457
0.00186628
0.00881995
0.00213976
0.00874787
0.00243214
0.00863109
0.00274425
0.00847402
0.00307691
0.00828357
0.0034304
0.00807029
0.00380361
0.00785268
0.00766341
0.00419124
-1.27611e-05
0.000162191
-3.72702e-05
0.000607693
-6.46108e-05
0.00117619
-8.87289e-05
0.00179951
-0.000105537
0.002441
-0.000112209
0.00307909
-0.000106688
0.00370045
-8.73753e-05
0.00429683
-5.2952e-05
0.00486321
-2.31603e-06
0.0053965
6.54558e-05
0.00589456
0.000151103
0.00635566
0.000255172
0.00677811
0.00037802
0.00716017
0.000519837
0.00750008
0.00068067
0.00779605
0.000860462
0.0080464
0.00105909
0.00824962
0.00127642
0.00840446
0.00151231
0.00851001
0.0017667
0.00856575
0.00203961
0.00857166
0.00233118
0.00852837
0.00264173
0.00843731
0.0029718
0.00830102
0.00332215
0.00812367
0.00369368
0.00791204
0.00408701
0.00767696
0.00450161
0.00743808
0.00723232
0.0049327
-1.19251e-05
0.000174116
-3.38814e-05
0.00062965
-5.6644e-05
0.00119895
-7.39728e-05
0.00181684
-8.16835e-05
0.00244871
-7.69482e-05
0.00307436
-5.7769e-05
0.00368128
-2.26368e-05
0.0042617
2.96591e-05
0.00481092
0.000100126
0.00532603
0.000189611
0.00580508
0.000298797
0.00624648
0.000428193
0.00664871
0.000578135
0.00701023
0.000748796
0.00732941
0.000940208
0.00760464
0.00115229
0.00783432
0.00138486
0.00801704
0.00163773
0.0081516
0.00191066
0.00823709
0.00220343
0.00827297
0.00251589
0.0082592
0.00284796
0.0081963
0.00319971
0.00808556
0.00357142
0.00792931
0.00396368
0.00773142
0.0043773
0.00749842
0.00481312
0.00724115
0.00527111
0.00698009
0.0067562
0.00574723
-1.10941e-05
0.00018521
-3.04579e-05
0.000649014
-4.85099e-05
0.001217
-5.87784e-05
0.00182711
-5.69458e-05
0.00244687
-4.0151e-05
0.00305756
-6.43015e-06
0.00364756
4.56472e-05
0.00420962
0.000117196
0.00473937
0.000209125
0.0052341
0.000322196
0.005692
0.000457027
0.00611164
0.000614076
0.00649166
0.000793644
0.00683066
0.000995877
0.00712718
0.00122077
0.00737974
0.00146821
0.00758688
0.00173796
0.00774729
0.00202973
0.00785984
0.00234314
0.00792367
0.00267784
0.00793828
0.00303342
0.00790362
0.00340956
0.00782017
0.00380601
0.00768911
0.00422272
0.00751259
0.00465994
0.0072942
0.0051183
0.00704006
0.00559863
0.00676081
0.00610135
0.00647737
0.00623433
0.00662322
-1.03111e-05
0.000195522
-2.71304e-05
0.000665833
-4.04643e-05
0.00123034
-4.35605e-05
0.00183021
-3.19308e-05
0.00243525
-2.64677e-06
0.00302828
4.62482e-05
0.00359866
0.000116126
0.00413974
0.000208011
0.00464748
0.000322717
0.00511939
0.000460916
0.00555381
0.000623145
0.00594941
0.0008098
0.00630501
0.00102113
0.00661933
0.00125723
0.00689108
0.00151805
0.00711892
0.0018034
0.00730153
0.00211298
0.00743771
0.00244636
0.00752645
0.00280304
0.00756699
0.00318244
0.00755888
0.00358392
0.00750213
0.00400685
0.00739724
0.00445063
0.00724533
0.00491482
0.00704841
0.00539924
0.00680978
0.00590417
0.00653512
0.00643034
0.00623464
0.00697843
0.00592929
0.00566676
0.00754599
-9.61477e-06
0.000205136
-2.40175e-05
0.000680236
-3.27411e-05
0.00123906
-2.87043e-05
0.00182617
-7.2131e-06
0.00241375
3.47619e-05
0.0029863
9.91994e-05
0.00353422
0.00018743
0.00405151
0.000300402
0.00453451
0.000438839
0.00498096
0.000603312
0.00538933
0.000794272
0.00575846
0.00101203
0.00608725
0.00125676
0.0063746
0.00152849
0.00661936
0.00182708
0.00682032
0.00215227
0.00697634
0.00250362
0.00708636
0.00288058
0.00714949
0.00328246
0.00716511
0.00370845
0.00713289
0.00415765
0.00705294
0.00462908
0.00692581
0.00512177
0.00675264
0.00563484
0.00653534
0.00616767
0.00627696
0.00672009
0.0059827
0.00729256
0.00566217
0.00788589
0.00533596
0.00505429
0.00849837
-9.03766e-06
0.000214174
-2.12177e-05
0.000692416
-2.55371e-05
0.00124338
-1.45419e-05
0.00181518
1.6699e-05
0.00238251
7.1349e-05
0.00293166
0.000151432
0.00345414
0.000258261
0.00394468
0.000392719
0.00440005
0.000555443
0.00481823
0.000746906
0.00519787
0.000967452
0.00553791
0.00121729
0.00583741
0.0014965
0.00609539
0.001805
0.00631086
0.00214256
0.00648276
0.00250877
0.00661012
0.00290308
0.00669205
0.00332473
0.00672783
0.00377284
0.006717
0.00424634
0.00665939
0.00474403
0.00655525
0.0052646
0.00640524
0.00580667
0.00621057
0.00636893
0.00597308
0.00695026
0.00569563
0.00755003
0.00538293
0.00816834
0.00504385
0.008806
0.0046983
0.00439836
0.00946193
-8.60334e-06
0.000222777
-1.88018e-05
0.000702614
-1.89976e-05
0.00124358
-1.32743e-06
0.00179751
3.94036e-05
0.00234178
0.000106517
0.00286454
0.000202105
0.00335855
0.00032748
0.00381931
0.000483476
0.00424405
0.000670649
0.00463106
0.000889368
0.00497915
0.00113986
0.00528742
0.00142222
0.00555505
0.00173639
0.00578122
0.00208217
0.00596508
0.00245918
0.00610575
0.00286687
0.00620243
0.0033045
0.00625443
0.00377112
0.00626121
0.0042656
0.00622252
0.00478659
0.0061384
0.00533258
0.00600925
0.00590191
0.00583591
0.00649282
0.00561966
0.00710352
0.00536237
0.00773243
0.00506672
0.00837841
0.00473695
0.00904116
0.00438109
0.00972141
0.00401805
0.00370113
0.0104186
-8.32442e-06
0.000231102
-1.68067e-05
0.000711096
-1.32036e-05
0.00123997
1.07867e-05
0.00177351
6.06387e-05
0.00229193
0.00013985
0.00278533
0.000250599
0.0032478
0.000394213
0.00367569
0.000571488
0.00406678
0.000782904
0.00441964
0.00102873
0.00473332
0.00130906
0.00500709
0.00162384
0.00524026
0.00197289
0.00543217
0.00235584
0.00558213
0.00277214
0.00568945
0.00322106
0.00575351
0.00370166
0.00577383
0.00421275
0.00575012
0.00475295
0.00568232
0.00532063
0.00557072
0.00591395
0.00541593
0.00653089
0.00521897
0.00716928
0.00498128
0.0078269
0.00470475
0.00850166
0.00439197
0.00919189
0.00404672
0.00989685
0.00367613
0.0106171
0.00329782
0.00296556
0.0113527
-8.20066e-06
0.000239302
-1.52298e-05
0.000718125
-8.15796e-06
0.0012329
2.17691e-05
0.00174359
8.03164e-05
0.00223338
0.000171167
0.00269448
0.000296592
0.00312238
0.000457946
0.00351434
0.000656
0.00386873
0.000891161
0.00418448
0.00116359
0.0044609
0.00147325
0.00469743
0.00181993
0.00489357
0.00220329
0.00504882
0.00262277
0.00516265
0.00307765
0.00523457
0.00356699
0.00526418
0.00408961
0.00525121
0.00464411
0.00519562
0.00522883
0.0050976
0.00584186
0.00495769
0.00648102
0.00477676
0.00714394
0.00455606
0.00782803
0.00429719
0.0085306
0.00400218
0.00924903
0.00367354
0.00998104
0.0033147
0.0107253
0.00293186
0.0114821
0.00254101
0.00219555
0.0122521
-8.21747e-06
0.00024752
-1.40256e-05
0.000723933
-3.78298e-06
0.00122266
3.17245e-05
0.00170808
9.85485e-05
0.00216656
0.000200556
0.00259247
0.000340116
0.00298282
0.000518617
0.00333584
0.000736809
0.00365053
0.000995033
0.00392626
0.00129334
0.00416259
0.00163155
0.00435922
0.00200931
0.00451581
0.00242607
0.00463205
0.00288112
0.0047076
0.0033735
0.00474218
0.00390208
0.0047356
0.00446545
0.00468784
0.00506197
0.0045991
0.00568972
0.00446986
0.0063465
0.00430091
0.00702984
0.00409342
0.00773699
0.00384891
0.00846493
0.00356924
0.00921047
0.00325664
0.00997034
0.00291367
0.0107415
0.00254354
0.0115218
0.00215156
0.0123109
0.00175187
0.00139629
0.0131102
-8.34546e-06
0.000255865
-1.31044e-05
0.000728692
8.9152e-08
0.00120946
4.09021e-05
0.00166727
0.000115661
0.0020918
0.000228406
0.00247973
0.000381603
0.00282962
0.000576674
0.00314077
0.000814356
0.00341285
0.00109492
0.00364569
0.00141831
0.0038392
0.00178421
0.00399332
0.0021921
0.00410792
0.00264126
0.00418289
0.00313077
0.0042181
0.00365947
0.00421347
0.00422601
0.00416906
0.00482877
0.00408508
0.00546588
0.003962
0.00613516
0.00380057
0.00683418
0.0036019
0.00756014
0.00336746
0.00830996
0.00309909
0.00908016
0.00279903
0.00986697
0.00246983
0.0106663
0.00211431
0.0114742
0.00173567
0.0122871
0.00133862
0.0131037
0.000935332
0.000574724
0.0139253
-8.54109e-06
0.000264406
-1.23332e-05
0.000732484
3.71142e-06
0.00119342
4.96934e-05
0.00162129
0.000132193
0.0020093
0.00025541
0.00235651
0.000421896
0.00266314
0.000633107
0.00292956
0.000889767
0.00315619
0.00119208
0.00334338
0.00153988
0.0034914
0.00193273
0.00360047
0.00236993
0.00367072
0.00285058
0.00370224
0.00337357
0.00369511
0.00393755
0.00364949
0.00454094
0.00356567
0.00518191
0.00344411
0.00585836
0.00328555
0.00656791
0.00309102
0.00730787
0.00286194
0.00807518
0.00260014
0.0088664
0.00230787
0.00967764
0.0019878
0.0105045
0.001643
0.0113419
0.00127687
0.0121845
0.000893035
0.0130271
0.000496093
0.0138657
9.6691e-05
-0.000259756
0.0147002
-8.74864e-06
0.000273155
-1.15409e-05
0.000735276
7.41398e-06
0.00117446
5.86203e-05
0.00157008
0.000148885
0.00191904
0.000282546
0.00222285
0.000462231
0.00248345
0.000689426
0.00270236
0.000964835
0.00288078
0.0012886
0.00301961
0.00166045
0.00311955
0.00207981
0.00318111
0.00254583
0.0032047
0.00305742
0.00319064
0.00361327
0.00313926
0.00421183
0.00305094
0.0048513
0.0029262
0.00552963
0.00276578
0.00624451
0.00257067
0.00699333
0.00234219
0.00777318
0.0020821
0.00858074
0.00179258
0.00941228
0.00147632
0.0102635
0.00113655
0.0111295
0.000777049
0.0120042
0.000402166
0.0128805
1.66972e-05
0.0137505
-0.000373878
0.0146064
-0.000759228
-0.00109588
0.0154425
-8.90235e-06
0.000282057
-1.05246e-05
0.000736899
1.15909e-05
0.00115235
6.83125e-05
0.00151336
0.000166644
0.00182071
0.000311034
0.00207846
0.000504179
0.00229031
0.000747584
0.00245896
0.00104193
0.00258644
0.00138729
0.00267425
0.00178329
0.00272355
0.00222921
0.00273519
0.00272405
0.00270987
0.00326652
0.00264817
0.0038551
0.00255068
0.004488
0.00241803
0.0051632
0.00225101
0.0058784
0.00205058
0.00663104
0.00181802
0.00741826
0.00155497
0.00823689
0.00126347
0.00908341
0.000946069
0.00995387
0.000605861
0.0108438
0.000246598
0.011748
-0.000127169
0.0126601
-0.000509881
0.0135714
-0.000894645
0.0144702
-0.00127264
0.01534
-0.00162906
-0.00192282
0.016167
-8.92983e-06
0.000290987
-9.05888e-06
0.000737028
1.66825e-05
0.00112661
7.94783e-05
0.00145056
0.000186496
0.00171369
0.000342273
0.00192268
0.000549557
0.00208302
0.00080986
0.00219865
0.00112383
0.00227247
0.00149146
0.00230662
0.00191227
0.00230274
0.00238538
0.00226208
0.0029096
0.00218565
0.00348342
0.00207435
0.00410508
0.00192902
0.00477251
0.0017506
0.0054834
0.00154011
0.00623514
0.00129884
0.00702484
0.00102833
0.00784931
0.000730499
0.00870508
0.000407701
0.00958839
6.27649e-05
0.0104952
-0.000300926
0.0114211
-0.000679328
0.0123615
-0.00106756
0.0133112
-0.00145955
0.0142638
-0.00184725
0.0152093
-0.00221816
0.0161222
-0.00254203
0.0169101
-0.00271067
0.00268579
0.0573483
-0.0580669
0.00356337
0.0517255
-0.0526031
0.00443156
0.0462124
-0.0470806
0.00525839
0.0421046
-0.0429314
0.00596437
0.0396799
-0.0403859
0.00650811
0.0386411
-0.0391848
0.00687563
0.0385238
-0.0388913
0.00707734
0.0389065
-0.0391083
0.00713993
0.039518
-0.0395806
0.00709449
0.0402336
-0.0401882
0.00696938
0.0410198
-0.0408947
0.00678632
0.0418667
-0.0416837
0.00655991
0.0427634
-0.042537
0.00630049
0.0436856
-0.0434262
0.00601522
0.0446063
-0.044321
0.00570926
0.0455068
-0.0452008
0.00538711
0.0463688
-0.0460467
0.00505264
0.0471829
-0.0468484
0.00470873
0.0479448
-0.0476009
0.0043577
0.0486513
-0.0483003
0.00400165
0.0492973
-0.0489412
0.00364197
0.0498854
-0.0495257
0.00327976
0.0504129
-0.0500506
0.00291592
0.0508781
-0.0505142
0.00255067
0.0512822
-0.0509169
0.00218434
0.0516223
-0.051256
0.00181665
0.0519032
-0.0515355
0.00144888
0.0521436
-0.0517759
0.00108374
0.0523569
-0.0519918
0.0525136
-0.0521555
0.00252701
0.0565897
0.00347211
0.0507804
0.00440876
0.0452757
0.00530004
0.0412133
0.00605868
0.0389213
0.00664149
0.0380582
0.0070355
0.0381297
0.00725342
0.0386886
0.00732414
0.0394473
0.00728126
0.0402765
0.00715463
0.0411464
0.00696796
0.0420534
0.00673616
0.0429952
0.00647057
0.0439512
0.00617782
0.044899
0.00586381
0.0458208
0.00553298
0.0466997
0.00518897
0.0475269
0.00483482
0.048299
0.00447342
0.0490127
0.00410607
0.0496646
0.003735
0.0502565
0.0033611
0.0507868
0.00298512
0.0512541
0.00260795
0.0516594
0.00222938
0.0520009
0.00184972
0.0522828
0.00147029
0.0525231
0.00109354
0.0527337
0.0528833
0.00238633
0.0558
0.00339267
0.0497741
0.00439398
0.0442744
0.00534662
0.0402607
0.006156
0.0381119
0.00677675
0.0374375
0.00719659
0.0377099
0.00743039
0.0384548
0.00750907
0.0393686
0.00746876
0.0403168
0.00734066
0.0412745
0.00715035
0.0422437
0.0069132
0.0432323
0.00664147
0.044223
0.00634139
0.0451991
0.00601945
0.0461427
0.00568004
0.0470391
0.00532664
0.0478803
0.00496237
0.0486633
0.00459063
0.0493844
0.00421206
0.0500432
0.0038296
0.0506389
0.00344401
0.0511723
0.00305588
0.0516422
0.00266672
0.0520485
0.00227585
0.0523918
0.00188406
0.0526746
0.00149281
0.0529143
0.00110411
0.0531224
0.0532651
0.00227051
0.0549882
0.00333002
0.0487145
0.00439044
0.043214
0.00540006
0.039251
0.00625738
0.0372546
0.00691433
0.0367805
0.00735901
0.0372652
0.00760819
0.0382056
0.00769469
0.0392822
0.00765679
0.0403547
0.0075273
0.041404
0.00733318
0.0424378
0.00709092
0.0434746
0.00681293
0.044501
0.00650581
0.0455062
0.00617603
0.0464725
0.00582807
0.047387
0.00546546
0.0482429
0.00509127
0.0490375
0.00470904
0.0497667
0.00431957
0.0504326
0.00392565
0.0510329
0.00352837
0.0515696
0.00312819
0.0520424
0.00272683
0.0524499
0.00232369
0.0527949
0.00191963
0.0530787
0.0015163
0.0533177
0.00111548
0.0535232
0.0536593
0.00218699
0.0541635
0.00328936
0.0476122
0.00440167
0.0421017
0.00546249
0.0381902
0.00636387
0.0363532
0.00705465
0.0360898
0.0075229
0.036797
0.00778678
0.0379418
0.00788076
0.0391882
0.00784506
0.0403904
0.00771429
0.0415348
0.00751638
0.0426357
0.00726909
0.0437219
0.00698478
0.0447853
0.00667083
0.0458202
0.00633337
0.04681
0.00597689
0.0477435
0.00560522
0.0486146
0.00522134
0.0494213
0.00482858
0.0501594
0.00442839
0.0508328
0.00402303
0.0514382
0.00361399
0.0519787
0.0032019
0.0524545
0.00278818
0.0528636
0.00237282
0.0532103
0.00195639
0.0534951
0.00154071
0.0537333
0.00112759
0.0539363
0.0540664
0.00214367
0.0533349
0.0032764
0.0464794
0.00443132
0.0409468
0.00553604
0.0370855
0.00647666
0.0354126
0.00719823
0.0353682
0.00768836
0.0363069
0.00796605
0.0376641
0.00806714
0.0390871
0.00803346
0.0404241
0.00790139
0.0416669
0.00769973
0.0428374
0.00744743
0.0439742
0.00715694
0.0450757
0.00683622
0.0461409
0.00649121
0.047155
0.00612639
0.0481083
0.00574576
0.0489952
0.00535232
0.0498148
0.00494918
0.0505626
0.00453827
0.0512437
0.00412161
0.0518549
0.00370082
0.0523995
0.00327682
0.0528785
0.00285075
0.0532897
0.0024231
0.0536379
0.00199422
0.053924
0.00156602
0.0541615
0.00114035
0.054362
0.0544868
0.00214849
0.0525113
0.00329699
0.0453309
0.00448327
0.0397605
0.00562299
0.0359458
0.00659691
0.0344387
0.00734557
0.0346195
0.00785549
0.0357969
0.0081459
0.0373736
0.00825366
0.0389793
0.00822181
0.0404559
0.0080884
0.0418003
0.00788302
0.0430428
0.00762576
0.0442314
0.00732924
0.0453723
0.00700181
0.0464683
0.0066494
0.0475074
0.00627641
0.0484813
0.00588692
0.0493847
0.00548404
0.0502177
0.00507068
0.0509759
0.0046491
0.0516653
0.00422122
0.0522828
0.00378875
0.0528319
0.00335283
0.0533144
0.00291443
0.0537281
0.00247444
0.0540779
0.00203303
0.0543654
0.00159216
0.0546024
0.0011537
0.0548004
0.0549206
0.00220925
0.0517015
0.00335712
0.0441831
0.00456155
0.0385561
0.00572577
0.0347816
0.0067259
0.0334385
0.00749724
0.0338482
0.00802443
0.0352697
0.00832627
0.0370718
0.00844013
0.0388655
0.0084099
0.0404862
0.00827508
0.0419351
0.00806603
0.0432518
0.00780386
0.0444936
0.00750146
0.0456747
0.00716742
0.0468024
0.00680774
0.0478671
0.00642675
0.0488623
0.00602854
0.0497829
0.00561632
0.0506299
0.00519291
0.0513994
0.00476072
0.0520975
0.00432173
0.0527217
0.00387764
0.053276
0.00342981
0.0537622
0.00297911
0.0541788
0.00252672
0.0545303
0.00207274
0.0548194
0.00161906
0.0550561
0.00116759
0.0552519
0.0553682
0.00233326
0.0509142
0.00346272
0.0430536
0.00467024
0.0373485
0.00584693
0.0336049
0.00686499
0.0324205
0.00765383
0.0330594
0.00819535
0.0347282
0.00850707
0.0367601
0.00862636
0.0387462
0.0085975
0.040515
0.00846122
0.0420714
0.00824857
0.0434645
0.00798156
0.0447606
0.0076734
0.0459828
0.00733288
0.0471429
0.00696606
0.0482339
0.00657724
0.0492511
0.00617046
0.0501897
0.00574903
0.0510513
0.00531572
0.0518327
0.00487302
0.0525402
0.00442298
0.0531718
0.00396734
0.0537317
0.00350765
0.0542219
0.00304467
0.0546418
0.00257984
0.0549951
0.00211326
0.055286
0.00164666
0.0555227
0.00118197
0.0557166
0.0558298
0.00252705
0.0501576
0.00361946
0.0419612
0.00481342
0.0361546
0.0059891
0.0324292
0.00701563
0.0313939
0.007816
0.032259
0.00836842
0.0341758
0.00868828
0.0364402
0.00881218
0.0386223
0.00878442
0.0405428
0.0086466
0.0422092
0.00843041
0.0436806
0.00815865
0.0450324
0.00784486
0.0462966
0.00749801
0.0474897
0.0071242
0.0486077
0.0067277
0.0496477
0.00631253
0.0506049
0.00588201
0.0514818
0.00543893
0.0522757
0.00498584
0.0529933
0.00452486
0.0536328
0.00405775
0.0541988
0.00358621
0.0546934
0.00311102
0.055117
0.0026337
0.0554725
0.00215448
0.0557652
0.00167489
0.0560023
0.0011968
0.0561947
0.0563057
0.00279597
0.0494401
0.00383253
0.0409246
0.004995
0.0349921
0.00615492
0.0312693
0.00717932
0.0303695
0.00798447
0.0314538
0.00854386
0.0336164
0.00886983
0.0361143
0.00899741
0.0384947
0.00897045
0.0405697
0.008831
0.0423487
0.00861134
0.0439003
0.00833493
0.0453088
0.00801565
0.0466159
0.00766262
0.0478428
0.00728199
0.0489883
0.00687797
0.0500517
0.00645458
0.0510283
0.00601512
0.0519213
0.00556241
0.0527285
0.00509906
0.0534567
0.00462721
0.0541046
0.00414872
0.0546773
0.00366538
0.0551768
0.00317803
0.0556043
0.00268821
0.0559623
0.00219633
0.0562571
0.00170367
0.0564949
0.00121205
0.0566863
0.0567959
0.00314386
0.0487699
0.00410627
0.0399622
0.00521855
0.0338798
0.00634694
0.0301409
0.00735761
0.0293589
0.00816
0.0306514
0.00872194
0.0330545
0.00905171
0.0357845
0.0091819
0.0383645
0.00915536
0.0405963
0.00901419
0.0424898
0.00879114
0.0441234
0.00851019
0.0455897
0.00818558
0.0469405
0.00782654
0.0482018
0.00743925
0.0493756
0.00702789
0.050463
0.00659645
0.0514597
0.00614822
0.0523695
0.00568601
0.0531907
0.00521254
0.0539301
0.00472992
0.0545872
0.00424015
0.055167
0.00374505
0.0556719
0.00324559
0.0561038
0.00274328
0.0564646
0.00223872
0.0567616
0.00173294
0.0570007
0.00122767
0.0571916
0.0573007
0.0035728
0.0481549
0.00444388
0.0390912
0.00548706
0.0328366
0.00656752
0.0290604
0.007552
0.0283744
0.00834334
0.0298601
0.00890292
0.0324949
0.00923388
0.0354535
0.00936549
0.0382329
0.00933892
0.0406229
0.00919595
0.0426328
0.00896957
0.0443497
0.00868423
0.0458751
0.00835444
0.0472703
0.00798957
0.0485667
0.00759581
0.0497694
0.00717731
0.0508815
0.00673799
0.051899
0.00628116
0.0528264
0.0058096
0.0536622
0.00532616
0.0544136
0.00483287
0.0550805
0.00433192
0.055668
0.00382511
0.0561787
0.00331359
0.0566153
0.00279882
0.0569794
0.00228157
0.0572789
0.00176264
0.0575196
0.00124364
0.0577106
0.0578202
0.00408274
0.0476034
0.00484707
0.0383268
0.00580271
0.031881
0.00681859
0.0280446
0.00776387
0.0274291
0.00853526
0.0290887
0.00908711
0.031943
0.00941635
0.0351243
0.00954803
0.0381012