/*--------------------------------*- C++ -*----------------------------------*\
  =========                 |
  \\      /  F ield         | OpenFOAM: The Open Source CFD Toolbox
   \\    /   O peration     | Website:  https://openfoam.org
    \\  /    A nd           | Version:  7
     \\/     M anipulation  |
\*---------------------------------------------------------------------------*/
FoamFile
{
    version     2.0;
    format      ascii;
    class       volScalarField;
    location    "0.025";
    object      p;
}
// * * * * * * * * * * * * * * * * * * * * * * * * * * * * * * * * * * * * * //

dimensions      [0 2 -2 0 0 0 0];

internalField   nonuniform List<scalar> 
400
(
1.48673e-09
-0.00455445
-0.00915252
-0.0117842
-0.0113207
-0.00736418
-4.25816e-05
0.0101809
0.0226375
0.036529
0.0509764
0.0650549
0.0778316
0.088416
0.096037
0.100154
0.100621
0.0978846
0.0931701
0.0885973
0.00441879
-0.00024663
-0.0037653
-0.00528695
-0.00431133
-0.000541178
0.00596158
0.0148561
0.0256159
0.0375859
0.0500269
0.0621558
0.073188
0.0823906
0.0891497
0.0930583
0.0940361
0.0924209
0.0888026
0.0841239
0.00928458
0.00296897
-0.000884653
-0.00224373
-0.00118055
0.00245836
0.00858385
0.0168766
0.0268641
0.0379599
0.0494975
0.0607658
0.0710496
0.0796784
0.0860835
0.0898703
0.090924
0.0894369
0.085437
0.0790692
0.0129418
0.00439305
-0.000474416
-0.00216341
-0.00120747
0.00240619
0.00851871
0.016776
0.026703
0.0377299
0.0492126
0.0604601
0.0707684
0.0794626
0.085945
0.0897601
0.0907062
0.0888341
0.0837335
0.0750565
0.0143447
0.00341601
-0.00267469
-0.00482522
-0.00395703
-0.000184831
0.00624866
0.0149285
0.0253476
0.0369218
0.0489989
0.0608754
0.071822
0.0811171
0.0880893
0.0921795
0.0930705
0.090679
0.0842308
0.0730382
0.0127672
-0.000718602
-0.00814858
-0.0107588
-0.00983806
-0.00562793
0.00153054
0.01114
0.0226379
0.0354032
0.0487525
0.0619453
0.0741975
0.0847063
0.0926847
0.0974266
0.0984646
0.0955679
0.0876108
0.0736272
0.00756883
-0.00879921
-0.0176694
-0.0206414
-0.0194164
-0.0143852
-0.00601065
0.00510474
0.018324
0.032974
0.0483271
0.0635901
0.0779043
0.0903558
0.100001
0.105934
0.107483
0.104222
0.0946052
0.07736
-0.0020265
-0.021769
-0.0321659
-0.0352914
-0.0333789
-0.0270205
-0.016837
-0.00356139
0.0120813
0.029361
0.0475047
0.0656662
0.0829046
0.0981749
0.110336
0.118216
0.120857
0.117543
0.106141
0.084943
-0.0171187
-0.0408838
-0.0528431
-0.0557544
-0.0525923
-0.0442388
-0.0315237
-0.0153383
0.00349802
0.0242066
0.0459859
0.0679554
0.0891048
0.108253
0.124026
0.13491
0.139541
0.136751
0.123529
0.0974806
-0.0393239
-0.0678738
-0.0812866
-0.0833502
-0.0781068
-0.0668623
-0.0507218
-0.0307618
-0.00789032
0.017092
0.0433955
0.0701516
0.0963234
0.120618
0.141411
0.156764
0.164752
0.163509
0.148675
0.116733
-0.0710296
-0.10515
-0.119577
-0.119698
-0.111117
-0.0957523
-0.0750612
-0.0503228
-0.0225085
0.00761198
0.0393321
0.0718792
0.104277
0.135193
0.162779
0.184607
0.198008
0.200067
0.184348
0.145473
-0.115796
-0.156098
-0.170413
-0.166696
-0.152848
-0.131644
-0.104964
-0.0742799
-0.0405662
-0.00447235
0.0334893
0.0727735
0.112612
0.15178
0.18831
0.219292
0.241141
0.249432
0.234572
0.188056
-0.179074
-0.225513
-0.237228
-0.226406
-0.204308
-0.174842
-0.140329
-0.102356
-0.0617802
-0.0189886
0.0258614
0.072637
0.120998
0.170075
0.21803
0.261621
0.296282
0.315562
0.305194
0.251398
-0.269658
-0.320272
-0.324185
-0.30069
-0.265785
-0.224692
-0.18004
-0.133311
-0.0850134
-0.0350479
0.0169985
0.0716429
0.129263
0.189715
0.25173
0.312167
0.365706
0.403496
0.404733
0.346861
-0.402749
-0.450311
-0.435778
-0.390309
-0.335878
-0.278741
-0.221311
-0.164461
-0.107925
-0.0507934
0.00819123
0.070465
0.137453
0.210211
0.288718
0.370815
0.451285
0.519164
0.545567
0.493904
-0.605485
-0.629723
-0.57575
-0.493396
-0.41014
-0.331753
-0.259096
-0.191394
-0.126906
-0.0634542
0.00135996
0.0701424
0.145671
0.230709
0.32739
0.436031
0.553514
0.66864
0.745028
0.725751
-0.92696
-0.876697
-0.74524
-0.604219
-0.480403
-0.375588
-0.286424
-0.208594
-0.137808
-0.0700854
-0.00163095
0.0714792
0.153566
0.249551
0.364803
0.504322
0.670607
0.856467
1.02506
1.09857
-1.4799
-1.20777
-0.932054
-0.706558
-0.531562
-0.398211
-0.294719
-0.210405
-0.137178
-0.0688911
-0.000359001
0.0735071
0.158474
0.26181
0.393148
0.565019
0.790352
1.07419
1.40771
1.73629
-2.57904
-1.61489
-1.06197
-0.736869
-0.520025
-0.372176
-0.267844
-0.18812
-0.121132
-0.0593316
0.00293675
0.0708618
0.150715
0.25114
0.385643
0.575794
0.851149
1.25172
1.89302
2.96509
-4.45772
-2.03549
-0.995209
-0.59523
-0.389468
-0.268461
-0.191755
-0.135735
-0.088085
-0.0425295
0.00486546
0.0577177
0.120406
0.200086
0.310139
0.476837
0.74911
1.24548
2.40151
4.94102
)
;

boundaryField
{
    movingWall
    {
        type            zeroGradient;
    }
    fixedWalls
    {
        type            zeroGradient;
    }
    frontAndBack
    {
        type            empty;
    }
}


// ************************************************************************* //
