/*--------------------------------*- C++ -*----------------------------------*\
  =========                 |
  \\      /  F ield         | OpenFOAM: The Open Source CFD Toolbox
   \\    /   O peration     | Website:  https://openfoam.org
    \\  /    A nd           | Version:  7
     \\/     M anipulation  |
\*---------------------------------------------------------------------------*/
FoamFile
{
    version     2.0;
    format      ascii;
    class       surfaceScalarField;
    location    "0.025";
    object      phi;
}
// * * * * * * * * * * * * * * * * * * * * * * * * * * * * * * * * * * * * * //

dimensions      [0 3 -1 0 0 0 0];

internalField   nonuniform List<scalar> 
760
(
5.59532e-09
-5.59545e-09
-3.00248e-08
3.56202e-08
-1.06056e-07
7.60311e-08
-2.07511e-07
1.01455e-07
-3.18945e-07
1.11434e-07
-4.27149e-07
1.08204e-07
-5.21746e-07
9.45971e-08
-5.95112e-07
7.33661e-08
-6.42007e-07
4.68952e-08
-6.59222e-07
1.72147e-08
-6.45384e-07
-1.38379e-08
-6.00983e-07
-4.44007e-08
-5.28608e-07
-7.23753e-08
-4.33336e-07
-9.52719e-08
-3.23166e-07
-1.1017e-07
-2.09284e-07
-1.13882e-07
-1.05862e-07
-1.03422e-07
-2.90318e-08
-7.68299e-08
6.28388e-09
-3.53156e-08
6.28391e-09
-3.38523e-08
2.8257e-08
-1.55408e-07
1.57176e-07
-3.52726e-07
2.7335e-07
-5.98908e-07
3.47637e-07
-8.63768e-07
3.76294e-07
-1.11941e-06
3.63843e-07
-1.34265e-06
3.17842e-07
-1.51576e-06
2.46472e-07
-1.62622e-06
1.57359e-07
-1.66635e-06
5.73443e-08
-1.633e-06
-4.71943e-08
-1.52761e-06
-1.49787e-07
-1.35669e-06
-2.433e-07
-1.13239e-06
-3.19567e-07
-8.73133e-07
-3.69426e-07
-6.03572e-07
-3.83443e-07
-3.53393e-07
-3.53601e-07
-1.5413e-07
-2.76093e-07
-3.28801e-08
-1.56565e-07
-2.65964e-08
-7.5875e-08
1.04132e-07
-2.81642e-07
3.62942e-07
-5.86705e-07
5.78414e-07
-9.5237e-07
7.13302e-07
-1.33808e-06
7.62003e-07
-1.70653e-06
7.32299e-07
-2.02652e-06
6.37823e-07
-2.27387e-06
4.93824e-07
-2.43144e-06
3.14928e-07
-2.48863e-06
1.14539e-07
-2.44112e-06
-9.47051e-08
-2.29093e-06
-2.99976e-07
-2.04699e-06
-4.87245e-07
-1.7259e-06
-6.40655e-07
-1.35261e-06
-7.42713e-07
-9.60286e-07
-7.75769e-07
-5.88675e-07
-7.25211e-07
-2.80358e-07
-5.8441e-07
-7.45455e-08
-3.62377e-07
-1.01142e-07
-1.11722e-07
2.15854e-07
-3.96176e-07
6.47396e-07
-8.02358e-07
9.84595e-07
-1.27742e-06
1.18837e-06
-1.77048e-06
1.25506e-06
-2.23647e-06
1.19829e-06
-2.63837e-06
1.03972e-06
-2.94783e-06
8.03286e-07
-3.14482e-06
5.11913e-07
-3.21692e-06
1.86647e-07
-3.15895e-06
-1.52681e-07
-2.97298e-06
-4.8595e-07
-2.66907e-06
-7.91148e-07
-2.26637e-06
-1.04336e-06
-1.79405e-06
-1.21503e-06
-1.29159e-06
-1.27823e-06
-8.07443e-07
-1.20936e-06
-3.95574e-07
-9.96279e-07
-1.10096e-07
-6.47856e-07
-2.11237e-07
-1.4417e-07
3.60024e-07
-5.05284e-07
1.00851e-06
-1.01196e-06
1.49127e-06
-1.5953e-06
1.7717e-06
-2.19296e-06
1.85272e-06
-2.75219e-06
1.75753e-06
-3.23113e-06
1.51866e-06
-3.59852e-06
1.17067e-06
-3.8326e-06
7.4599e-07
-3.91989e-06
2.73938e-07
-3.85442e-06
-2.18143e-07
-3.6378e-06
-7.02579e-07
-3.28007e-06
-1.14887e-06
-2.80142e-06
-1.52201e-06
-2.23387e-06
-1.78259e-06
-1.62241e-06
-1.88968e-06
-1.02454e-06
-1.80723e-06
-5.07429e-07
-1.51339e-06
-1.42717e-07
-1.01257e-06
-3.53954e-07
-1.77315e-07
5.37338e-07
-6.19184e-07
1.45038e-06
-1.23263e-06
2.10472e-06
-1.93043e-06
2.4695e-06
-2.63722e-06
2.55951e-06
-3.29217e-06
2.41247e-06
-3.84906e-06
2.07556e-06
-4.27473e-06
1.59634e-06
-4.5467e-06
1.01796e-06
-4.65106e-06
3.78299e-07
-4.58112e-06
-2.88091e-07
-4.33731e-06
-9.4638e-07
-3.92854e-06
-1.55764e-06
-3.37453e-06
-2.07602e-06
-2.70888e-06
-2.44824e-06
-1.98168e-06
-2.61689e-06
-1.26042e-06
-2.52849e-06
-6.28021e-07
-2.14579e-06
-1.77094e-07
-1.4635e-06
-5.31048e-07
-2.15174e-07
7.52512e-07
-7.48674e-07
1.98388e-06
-1.48202e-06
2.83806e-06
-2.3063e-06
3.29378e-06
-3.13125e-06
3.38447e-06
-3.88759e-06
3.16882e-06
-4.52555e-06
2.71352e-06
-5.01137e-06
2.08215e-06
-5.32312e-06
1.32972e-06
-5.44727e-06
5.02445e-07
-5.37647e-06
-3.58884e-07
-5.10933e-06
-1.21352e-06
-4.65206e-06
-2.01492e-06
-4.02204e-06
-2.70604e-06
-3.25263e-06
-3.21764e-06
-2.39811e-06
-3.47141e-06
-1.53682e-06
-3.38978e-06
-7.70548e-07
-2.91206e-06
-2.18022e-07
-2.01602e-06
-7.49071e-07
-2.61602e-07
1.01411e-06
-9.04166e-07
2.62644e-06
-1.77635e-06
3.71025e-06
-2.74265e-06
4.26008e-06
-3.69585e-06
4.33767e-06
-4.55849e-06
4.03146e-06
-5.27892e-06
3.43394e-06
-5.82491e-06
2.62814e-06
-6.17708e-06
1.68189e-06
-6.32354e-06
6.48908e-07
-6.25664e-06
-4.25786e-07
-5.97229e-06
-1.49787e-06
-5.47213e-06
-2.51508e-06
-4.76842e-06
-3.40975e-06
-3.8913e-06
-4.09477e-06
-2.89699e-06
-4.46572e-06
-1.87466e-06
-4.41211e-06
-9.4837e-07
-3.83834e-06
-2.70369e-07
-2.69402e-06
-1.01944e-06
-3.20431e-07
1.33454e-06
-1.09536e-06
3.40137e-06
-2.12901e-06
4.7439e-06
-3.25268e-06
5.38375e-06
-4.34043e-06
5.42542e-06
-5.30824e-06
4.99926e-06
-6.1058e-06
4.2315e-06
-6.706e-06
3.22834e-06
-7.09504e-06
2.07093e-06
-7.2647e-06
8.18568e-07
-7.20772e-06
-4.82767e-07
-6.91656e-06
-1.78903e-06
-6.38588e-06
-3.04575e-06
-5.61896e-06
-4.17667e-06
-4.63787e-06
-5.07586e-06
-3.4963e-06
-5.60728e-06
-2.29212e-06
-5.61629e-06
-1.1746e-06
-4.95587e-06
-3.39261e-07
-3.52936e-06
-1.3587e-06
-3.95821e-07
1.73037e-06
-1.3312e-06
4.33675e-06
-2.54898e-06
5.96168e-06
-3.83921e-06
6.67398e-06
-5.05686e-06
6.64307e-06
-6.11536e-06
6.05777e-06
-6.97143e-06
5.08757e-06
-7.60857e-06
3.86548e-06
-8.02292e-06
2.48528e-06
-8.21288e-06
1.00853e-06
-8.17289e-06
-5.22759e-07
-7.89142e-06
-2.0705e-06
-7.35351e-06
-3.58366e-06
-6.54844e-06
-4.98175e-06
-5.48309e-06
-6.14121e-06
-4.20069e-06
-6.88969e-06
-2.80187e-06
-7.0151e-06
-1.46167e-06
-6.29607e-06
-4.30446e-07
-4.56059e-06
-1.78915e-06
-4.92903e-07
2.22327e-06
-1.61986e-06
5.46371e-06
-3.03837e-06
7.38018e-06
-4.4889e-06
8.12451e-06
-5.81037e-06
7.96454e-06
-6.9219e-06
7.1693e-06
-7.79627e-06
5.96193e-06
-8.43531e-06
4.50452e-06
-8.85084e-06
2.90082e-06
-9.05166e-06
1.20935e-06
-9.03588e-06
-5.3854e-07
-8.78807e-06
-2.31831e-06
-8.28128e-06
-4.09046e-06
-7.48515e-06
-5.77787e-06
-6.38198e-06
-7.24438e-06
-4.99195e-06
-8.27971e-06
-3.40622e-06
-8.60083e-06
-1.8204e-06
-7.88189e-06
-5.50854e-07
-5.83014e-06
-2.34e-06
-6.18999e-07
2.84227e-06
-1.96871e-06
6.81343e-06
-3.58826e-06
8.99973e-06
-5.16307e-06
9.69933e-06
-6.52628e-06
9.32775e-06
-7.61753e-06
8.26055e-06
-8.43895e-06
6.78336e-06
-9.02045e-06
5.08602e-06
-9.39592e-06
3.27628e-06
-9.58858e-06
1.402e-06
-9.60275e-06
-5.24369e-07
-9.42022e-06
-2.50084e-06
-9.00099e-06
-4.50969e-06
-8.2902e-06
-6.48866e-06
-7.23479e-06
-8.29978e-06
-5.81442e-06
-9.70009e-06
-4.08902e-06
-1.03262e-05
-2.25821e-06
-9.71271e-06
-7.09599e-07
-7.37874e-06
-3.0496e-06
-7.86043e-07
3.62831e-06
-2.38376e-06
8.41115e-06
-4.17084e-06
1.07868e-05
-5.78267e-06
1.13112e-05
-7.07058e-06
1.06157e-05
-8.01898e-06
9.20895e-06
-8.67685e-06
7.44123e-06
-9.11237e-06
5.52154e-06
-9.38676e-06
3.55067e-06
-9.54056e-06
1.55581e-06
-9.58671e-06
-4.78222e-07
-9.50674e-06
-2.58081e-06
-9.24939e-06
-4.76703e-06
-8.73373e-06
-7.00432e-06
-7.86229e-06
-9.17122e-06
-6.55323e-06
-1.10092e-05
-4.80186e-06
-1.20776e-05
-2.77524e-06
-1.17393e-05
-9.19828e-07
-9.23416e-06
-3.96943e-06
-1.0148e-06
4.64311e-06
-2.8663e-06
1.02626e-05
-4.72287e-06
1.26434e-05
-6.20218e-06
1.27905e-05
-7.22111e-06
1.16346e-05
-7.84415e-06
9.83199e-06
-8.18605e-06
7.78314e-06
-8.36006e-06
5.69555e-06
-8.45526e-06
3.64587e-06
-8.52874e-06
1.62929e-06
-8.60297e-06
-4.03994e-07
-8.6632e-06
-2.52058e-06
-8.65329e-06
-4.77694e-06
-8.47187e-06
-7.18574e-06
-7.97544e-06
-9.66765e-06
-7.00235e-06
-1.19822e-05
-5.43949e-06
-1.36405e-05
-3.35515e-06
-1.38237e-05
-1.20138e-06
-1.13879e-05
-5.17081e-06
-1.33923e-06
5.98234e-06
-3.39748e-06
1.23209e-05
-5.10695e-06
1.43529e-05
-6.16115e-06
1.38447e-05
-6.62346e-06
1.20969e-05
-6.68049e-06
9.88902e-06
-6.52463e-06
7.62727e-06
-6.3098e-06
5.48072e-06
-6.14341e-06
3.47948e-06
-6.09123e-06
1.57711e-06
-6.18276e-06
-3.12465e-07
-6.41166e-06
-2.29167e-06
-6.72906e-06
-4.45954e-06
-7.03033e-06
-6.88448e-06
-7.14079e-06
-9.55719e-06
-6.81631e-06
-1.23067e-05
-5.7928e-06
-1.4664e-05
-3.93909e-06
-1.56774e-05
-1.58058e-06
-1.37464e-05
-6.75139e-06
-1.7973e-06
7.77964e-06
-3.87917e-06
1.44028e-05
-5.01803e-06
1.54917e-05
-5.19211e-06
1.40187e-05
-4.72357e-06
1.16283e-05
-3.94932e-06
9.11478e-06
-3.12575e-06
6.8037e-06
-2.42048e-06
4.77545e-06
-1.93386e-06
2.99286e-06
-1.72263e-06
1.36589e-06
-1.81573e-06
-2.1937e-07
-2.219e-06
-1.8884e-06
-2.90777e-06
-3.77077e-06
-3.805e-06
-5.98725e-06
-4.74565e-06
-8.61654e-06
-5.43751e-06
-1.16149e-05
-5.45515e-06
-1.46463e-05
-4.35139e-06
-1.67811e-05
-2.06901e-06
-1.60288e-05
-8.8204e-06
-2.3697e-06
1.01493e-05
-3.94754e-06
1.59806e-05
-3.76751e-06
1.53117e-05
-2.45347e-06
1.27047e-05
-6.73274e-07
9.84815e-06
1.12399e-06
7.31751e-06
2.68586e-06
5.24184e-06
3.89068e-06
3.57062e-06
4.68735e-06
2.19619e-06
5.05386e-06
9.99379e-07
4.97405e-06
-1.3956e-07
4.42928e-06
-1.34363e-06
3.40355e-06
-2.74504e-06
1.90719e-06
-4.49089e-06
2.67323e-08
-6.73609e-06
-1.9918e-06
-9.59633e-06
-3.64192e-06
-1.29962e-05
-4.11026e-06
-1.63128e-05
-2.58302e-06
-1.75561e-05
-1.14034e-05
-2.76105e-06
1.29104e-05
-2.45635e-06
1.56759e-05
1.70036e-07
1.26853e-05
3.53965e-06
9.33508e-06
6.7726e-06
6.6152e-06
9.50387e-06
4.58624e-06
1.16291e-05
3.1166e-06
1.31573e-05
2.04243e-06
1.41305e-05
1.22298e-06
1.45832e-05
5.4672e-07
1.45229e-05
-7.92587e-08
1.39226e-05
-7.43396e-07
1.27209e-05
-1.54332e-06
1.08341e-05
-2.60414e-06
8.19566e-06
-4.0976e-06
4.84903e-06
-6.2497e-06
1.13768e-06
-9.28485e-06
-1.97863e-06
-1.31965e-05
-2.70765e-06
-1.6827e-05
-1.41111e-05
-5.93785e-07
1.35042e-05
4.00508e-06
1.1077e-05
9.98635e-06
6.70404e-06
1.5196e-05
4.12545e-06
1.92309e-05
2.58025e-06
2.21937e-05
1.62349e-06
2.42867e-05
1.02358e-06
2.5695e-05
6.34148e-07
2.65545e-05
3.6349e-07
2.69468e-05
1.54368e-07
2.69012e-05
-3.36243e-08
2.63911e-05
-2.33311e-07
2.53323e-05
-4.84541e-07
2.35717e-05
-8.43477e-07
2.08807e-05
-1.40664e-06
1.69771e-05
-2.34608e-06
1.16576e-05
-3.96538e-06
5.27155e-06
-6.81043e-06
2.81595e-08
-1.15837e-05
-1.40829e-05
1.35042e-05
2.45812e-05
3.12853e-05
3.54107e-05
3.7991e-05
3.96144e-05
4.0638e-05
4.12722e-05
4.16357e-05
4.179e-05
4.17564e-05
4.15231e-05
4.10386e-05
4.01951e-05
3.87884e-05
3.64424e-05
3.2477e-05
2.56666e-05
1.40829e-05
)
;

boundaryField
{
    movingWall
    {
        type            calculated;
        value           uniform 0;
    }
    fixedWalls
    {
        type            calculated;
        value           uniform 0;
    }
    frontAndBack
    {
        type            empty;
        value           nonuniform 0();
    }
}


// ************************************************************************* //
