/*--------------------------------*- C++ -*----------------------------------*\
  =========                 |
  \\      /  F ield         | OpenFOAM: The Open Source CFD Toolbox
   \\    /   O peration     | Website:  https://openfoam.org
    \\  /    A nd           | Version:  7
     \\/     M anipulation  |
\*---------------------------------------------------------------------------*/
FoamFile
{
    version     2.0;
    format      ascii;
    class       volVectorField;
    location    "0.025";
    object      U;
}
// * * * * * * * * * * * * * * * * * * * * * * * * * * * * * * * * * * * * * //

dimensions      [0 1 -1 0 0 0 0];

internalField   nonuniform List<vector> 
400
(
(0.000154476 -0.00015001 0)
(-6.43191e-05 0.000157069 0)
(-0.00123063 0.000489322 0)
(-0.0030669 0.000697608 0)
(-0.00525293 0.0007807 0)
(-0.00749816 0.000761954 0)
(-0.00956453 0.0006667 0)
(-0.011272 0.000517234 0)
(-0.0124929 0.000331384 0)
(-0.0131438 0.000123336 0)
(-0.0131792 -9.45974e-05 0)
(-0.0125899 -0.00030998 0)
(-0.0114053 -0.000508338 0)
(-0.00970066 -0.000671656 0)
(-0.00760574 -0.000777615 0)
(-0.00531316 -0.000800231 0)
(-0.00307998 -0.00071293 0)
(-0.00121436 -0.000494839 0)
(-4.55469e-05 -0.000153869 0)
(0.000161701 0.000154979 0)
(-0.000129536 4.62975e-05 0)
(-0.00149166 0.00151995 0)
(-0.00477649 0.00293931 0)
(-0.00936305 0.00385221 0)
(-0.0146113 0.00421458 0)
(-0.0199352 0.0040915 0)
(-0.0248196 0.00357964 0)
(-0.0288536 0.00277819 0)
(-0.031736 0.00177611 0)
(-0.033267 0.000651004 0)
(-0.0333385 -0.000525947 0)
(-0.0319326 -0.00168258 0)
(-0.0291262 -0.00273841 0)
(-0.0251029 -0.00359949 0)
(-0.0201671 -0.00415793 0)
(-0.0147528 -0.00429914 0)
(-0.00941053 -0.0039211 0)
(-0.00476111 -0.00296818 0)
(-0.0014615 -0.00150918 0)
(-0.000116703 -2.45188e-05 0)
(-0.000457006 0.00116196 0)
(-0.00300257 0.00480977 0)
(-0.00826476 0.00799218 0)
(-0.0151986 0.0100227 0)
(-0.0229055 0.0107926 0)
(-0.0306118 0.0104146 0)
(-0.0376295 0.00909127 0)
(-0.0434016 0.00704788 0)
(-0.0475166 0.00449851 0)
(-0.0496994 0.00163789 0)
(-0.0498017 -0.00135111 0)
(-0.0477988 -0.00428287 0)
(-0.0437968 -0.00695385 0)
(-0.0380472 -0.009133 0)
(-0.030964 -0.0105641 0)
(-0.023133 -0.0109873 0)
(-0.01529 -0.010187 0)
(-0.00825825 -0.00806919 0)
(-0.00296456 -0.00479378 0)
(-0.000439003 -0.00111572 0)
(-0.000721561 0.00305465 0)
(-0.00434235 0.0097453 0)
(-0.0114733 0.0151528 0)
(-0.0205876 0.0184955 0)
(-0.0305098 0.0196605 0)
(-0.0402993 0.0188456 0)
(-0.0491373 0.0163918 0)
(-0.0563678 0.012682 0)
(-0.0615099 0.00808533 0)
(-0.0642426 0.00294201 0)
(-0.0643913 -0.00242653 0)
(-0.0619228 -0.00769393 0)
(-0.0569542 -0.0125039 0)
(-0.0497715 -0.0164547 0)
(-0.0408547 -0.0191046 0)
(-0.0308944 -0.0200095 0)
(-0.0207721 -0.018802 0)
(-0.0114997 -0.0153111 0)
(-0.00430133 -0.00973439 0)
(-0.000697267 -0.00297676 0)
(-0.000946514 0.00561521 0)
(-0.00558695 0.0161971 0)
(-0.0145689 0.024272 0)
(-0.0258525 0.0290719 0)
(-0.0379522 0.0305673 0)
(-0.0497508 0.0291053 0)
(-0.060311 0.0252121 0)
(-0.0689027 0.0194615 0)
(-0.0750016 0.012401 0)
(-0.0782615 0.00453193 0)
(-0.0784901 -0.00367444 0)
(-0.0756414 -0.0117401 0)
(-0.0698255 -0.0191415 0)
(-0.0613356 -0.0252839 0)
(-0.0506864 -0.0295073 0)
(-0.0386484 -0.0311381 0)
(-0.0262426 -0.0296002 0)
(-0.0146908 -0.024577 0)
(-0.00556357 -0.0162219 0)
(-0.00091781 -0.00550287 0)
(-0.00116939 0.00881719 0)
(-0.00687223 0.0241919 0)
(-0.0178189 0.0354268 0)
(-0.0314065 0.0418381 0)
(-0.0457955 0.0435766 0)
(-0.059672 0.0412243 0)
(-0.0719837 0.0355576 0)
(-0.0819436 0.0273842 0)
(-0.0890067 0.0174539 0)
(-0.0928187 0.00643779 0)
(-0.0931776 -0.00504244 0)
(-0.0900182 -0.0163583 0)
(-0.0834244 -0.0268142 0)
(-0.0736683 -0.0356046 0)
(-0.061269 -0.0418132 0)
(-0.0470571 -0.0444763 0)
(-0.0321955 -0.0427259 0)
(-0.0181514 -0.0360034 0)
(-0.00690968 -0.024326 0)
(-0.00114254 -0.0086816 0)
(-0.00142549 0.0127145 0)
(-0.00833983 0.0338816 0)
(-0.0215087 0.0488196 0)
(-0.0376668 0.0569926 0)
(-0.0545607 0.0588466 0)
(-0.0706603 0.0553096 0)
(-0.0848056 0.0474932 0)
(-0.0961767 0.036493 0)
(-0.104236 0.0232846 0)
(-0.108644 0.00871092 0)
(-0.109198 -0.00646795 0)
(-0.105808 -0.0214882 0)
(-0.0985087 -0.0354895 0)
(-0.087515 -0.0474434 0)
(-0.0733102 -0.0561351 0)
(-0.0567532 -0.0602315 0)
(-0.0391445 -0.0584591 0)
(-0.0222326 -0.0498842 0)
(-0.00851088 -0.0342711 0)
(-0.00141273 -0.0125951 0)
(-0.0017485 0.0174403 0)
(-0.0101282 0.0455514 0)
(-0.0259109 0.0647778 0)
(-0.0450051 0.0748236 0)
(-0.0646642 0.0765859 0)
(-0.0831311 0.0714868 0)
(-0.0991627 0.0610833 0)
(-0.111949 0.0468227 0)
(-0.121002 0.0299296 0)
(-0.126033 0.0114089 0)
(-0.126856 -0.00786909 0)
(-0.123351 -0.0270393 0)
(-0.115476 -0.0451016 0)
(-0.103339 -0.0608043 0)
(-0.0873256 -0.072592 0)
(-0.0682667 -0.0786649 0)
(-0.0475684 -0.0771913 0)
(-0.027286 -0.066674 0)
(-0.0105436 -0.0464509 0)
(-0.00177031 -0.0174223 0)
(-0.00217368 0.0232044 0)
(-0.012374 0.0596139 0)
(-0.0312708 0.0837308 0)
(-0.0537058 0.0956621 0)
(-0.0763464 0.0969862 0)
(-0.097219 0.0898227 0)
(-0.115055 0.076315 0)
(-0.129126 0.0583361 0)
(-0.139065 0.0373749 0)
(-0.144686 0.0145734 0)
(-0.145847 -0.00913919 0)
(-0.142399 -0.0328565 0)
(-0.13419 -0.0554904 0)
(-0.12116 -0.0755878 0)
(-0.103505 -0.0912202 0)
(-0.0819251 -0.100011 0)
(-0.0578544 -0.0993692 0)
(-0.0336444 -0.0869634 0)
(-0.0131922 -0.0614282 0)
(-0.00226219 -0.0234424 0)
(-0.00274397 0.0302961 0)
(-0.0152206 0.0765914 0)
(-0.037794 0.106155 0)
(-0.0639149 0.119789 0)
(-0.0895719 0.120105 0)
(-0.112633 0.110202 0)
(-0.131914 0.0929844 0)
(-0.146886 0.0708283 0)
(-0.157406 0.045489 0)
(-0.163461 0.0181947 0)
(-0.165 -0.0101464 0)
(-0.161851 -0.0386811 0)
(-0.153725 -0.0663221 0)
(-0.140314 -0.0914745 0)
(-0.121503 -0.111832 0)
(-0.0977012 -0.124332 0)
(-0.0702105 -0.125377 0)
(-0.0415946 -0.111412 0)
(-0.0166553 -0.0799187 0)
(-0.00294741 -0.0310432 0)
(-0.00352065 0.0390961 0)
(-0.0188326 0.0970903 0)
(-0.045629 0.132481 0)
(-0.0755581 0.147289 0)
(-0.103878 0.145695 0)
(-0.128445 0.132156 0)
(-0.14835 0.110545 0)
(-0.163439 0.0838076 0)
(-0.173925 0.0539361 0)
(-0.180064 0.022162 0)
(-0.181953 -0.0107443 0)
(-0.179421 -0.0441155 0)
(-0.172019 -0.0770019 0)
(-0.159117 -0.107783 0)
(-0.140138 -0.133827 0)
(-0.114975 -0.151308 0)
(-0.0845218 -0.155342 0)
(-0.0513283 -0.140619 0)
(-0.0211555 -0.102756 0)
(-0.00390922 -0.0407392 0)
(-0.00460436 0.0501071 0)
(-0.0234234 0.121759 0)
(-0.0548329 0.162942 0)
(-0.0882066 0.177821 0)
(-0.118143 0.172951 0)
(-0.14279 0.154637 0)
(-0.161818 0.127927 0)
(-0.175678 0.0963571 0)
(-0.185099 0.0620802 0)
(-0.190706 0.0262024 0)
(-0.192803 -0.0107957 0)
(-0.191259 -0.0486033 0)
(-0.185474 -0.0865946 0)
(-0.174444 -0.123312 0)
(-0.156983 -0.155949 0)
(-0.132186 -0.17993 0)
(-0.100116 -0.188825 0)
(-0.06285 -0.174904 0)
(-0.0269519 -0.130815 0)
(-0.00527719 -0.0532054 0)
(-0.00617682 0.0640235 0)
(-0.0293004 0.15121 0)
(-0.0652954 0.197309 0)
(-0.100838 0.21027 0)
(-0.130225 0.200179 0)
(-0.152453 0.175746 0)
(-0.168206 0.14334 0)
(-0.178813 0.107008 0)
(-0.185657 0.068902 0)
(-0.189803 0.0298241 0)
(-0.191811 -0.0102115 0)
(-0.191636 -0.0514393 0)
(-0.188579 -0.0937804 0)
(-0.181282 -0.13621 0)
(-0.167866 -0.176028 0)
(-0.146342 -0.208109 0)
(-0.115386 -0.224366 0)
(-0.0758026 -0.213919 0)
(-0.0343537 -0.164867 0)
(-0.00726824 -0.0693451 0)
(-0.00857676 0.0818681 0)
(-0.036919 0.185859 0)
(-0.0765398 0.234446 0)
(-0.11138 0.242226 0)
(-0.136381 0.224362 0)
(-0.152299 0.192461 0)
(-0.161373 0.154138 0)
(-0.166036 0.113688 0)
(-0.168371 0.0729807 0)
(-0.169864 0.0322943 0)
(-0.171318 -0.00899576 0)
(-0.172824 -0.0518333 0)
(-0.173695 -0.096902 0)
(-0.172358 -0.143931 0)
(-0.166321 -0.190776 0)
(-0.152365 -0.232249 0)
(-0.127178 -0.258854 0)
(-0.0891097 -0.256024 0)
(-0.0437012 -0.205272 0)
(-0.0102521 -0.0904015 0)
(-0.0123942 0.105208 0)
(-0.0468314 0.225529 0)
(-0.0871463 0.271525 0)
(-0.115767 0.269278 0)
(-0.130288 0.240745 0)
(-0.134498 0.200494 0)
(-0.132665 0.156874 0)
(-0.128335 0.11386 0)
(-0.124112 0.0726299 0)
(-0.121701 0.0327058 0)
(-0.122037 -0.00728208 0)
(-0.125362 -0.0490538 0)
(-0.13117 -0.0941812 0)
(-0.137992 -0.143445 0)
(-0.143088 -0.195829 0)
(-0.142219 -0.246944 0)
(-0.12975 -0.286795 0)
(-0.100169 -0.297302 0)
(-0.0551384 -0.251327 0)
(-0.0147966 -0.118084 0)
(-0.0184041 0.136522 0)
(-0.0590282 0.268443 0)
(-0.093083 0.302661 0)
(-0.105934 0.284151 0)
(-0.10139 0.242621 0)
(-0.0874977 0.194559 0)
(-0.0705213 0.147781 0)
(-0.0546154 0.105024 0)
(-0.0423377 0.0662901 0)
(-0.0351647 0.0301947 0)
(-0.033902 -0.00533255 0)
(-0.0388998 -0.0426642 0)
(-0.0500327 -0.0841798 0)
(-0.0664122 -0.131832 0)
(-0.085809 -0.186277 0)
(-0.103824 -0.245108 0)
(-0.112979 -0.299653 0)
(-0.102974 -0.330078 0)
(-0.0675903 -0.299901 0)
(-0.0214399 -0.15476 0)
(-0.0266699 0.18022 0)
(-0.0702567 0.308698 0)
(-0.0832876 0.316245 0)
(-0.0657578 0.275584 0)
(-0.0322684 0.221568 0)
(0.00513145 0.169279 0)
(0.039563 0.123829 0)
(0.0676065 0.085639 0)
(0.0877749 0.0532066 0)
(0.0994842 0.0243266 0)
(0.102427 -0.00347094 0)
(0.0962664 -0.0328141 0)
(0.0805981 -0.0664881 0)
(0.0552086 -0.107354 0)
(0.0207655 -0.157903 0)
(-0.0198459 -0.218825 0)
(-0.0593811 -0.285442 0)
(-0.0840245 -0.340644 0)
(-0.0756519 -0.34263 0)
(-0.0294271 -0.20417 0)
(-0.0320769 0.241027 0)
(-0.0655869 0.330018 0)
(-0.0294134 0.291616 0)
(0.0362313 0.22866 0)
(0.104804 0.169651 0)
(0.165368 0.121716 0)
(0.214124 0.0848407 0)
(0.250538 0.0566434 0)
(0.275372 0.0343976 0)
(0.289526 0.0156127 0)
(0.293484 -0.00197772 0)
(0.287071 -0.0206022 0)
(0.26938 -0.0427173 0)
(0.238854 -0.0712722 0)
(0.193728 -0.109885 0)
(0.13329 -0.16241 0)
(0.0603537 -0.230594 0)
(-0.0142994 -0.307524 0)
(-0.0615602 -0.35962 0)
(-0.0316383 -0.267834 0)
(0.00239853 0.286846 0)
(0.0134832 0.293126 0)
(0.135975 0.207204 0)
(0.25614 0.138601 0)
(0.349255 0.0914863 0)
(0.418395 0.0599419 0)
(0.468175 0.0389552 0)
(0.502554 0.0246824 0)
(0.524776 0.0144235 0)
(0.537051 0.00632533 0)
(0.540499 -0.000994856 0)
(0.535158 -0.00877678 0)
(0.519947 -0.0184076 0)
(0.492503 -0.0318178 0)
(0.449016 -0.052039 0)
(0.384366 -0.0838988 0)
(0.292223 -0.134422 0)
(0.166971 -0.211514 0)
(0.0326229 -0.308532 0)
(0.0117445 -0.304325 0)
(0.293472 0.149214 0)
(0.390115 0.127987 0)
(0.557102 0.0754056 0)
(0.67231 0.042611 0)
(0.738662 0.0242565 0)
(0.778957 0.0139314 0)
(0.804443 0.00807455 0)
(0.820465 0.00464966 0)
(0.83011 0.00249977 0)
(0.835122 0.000973549 0)
(0.836301 -0.000328796 0)
(0.833738 -0.00172896 0)
(0.826829 -0.00357676 0)
(0.814045 -0.00643774 0)
(0.792446 -0.011386 0)
(0.756648 -0.0205492 0)
(0.695138 -0.0380873 0)
(0.582446 -0.0717011 0)
(0.408991 -0.128044 0)
(0.302308 -0.152326 0)
)
;

boundaryField
{
    movingWall
    {
        type            fixedValue;
        value           uniform (1 0 0);
    }
    fixedWalls
    {
        type            noSlip;
    }
    frontAndBack
    {
        type            empty;
    }
}


// ************************************************************************* //
