/*--------------------------------*- C++ -*----------------------------------*\
  =========                 |
  \\      /  F ield         | OpenFOAM: The Open Source CFD Toolbox
   \\    /   O peration     | Website:  https://openfoam.org
    \\  /    A nd           | Version:  7
     \\/     M anipulation  |
\*---------------------------------------------------------------------------*/
FoamFile
{
    version     2.0;
    format      ascii;
    class       volScalarField;
    location    "8.1";
    object      p;
}
// * * * * * * * * * * * * * * * * * * * * * * * * * * * * * * * * * * * * * //

dimensions      [0 2 -2 0 0 0 0];

internalField   nonuniform List<scalar> 
8000
(
0.162003
0.16436
0.165857
0.167533
0.169246
0.170999
0.172788
0.174599
0.176422
0.178246
0.180059
0.181854
0.183624
0.185362
0.187065
0.188728
0.190348
0.191924
0.193453
0.194944
0.161194
0.16358
0.165112
0.166821
0.16856
0.17033
0.172125
0.173933
0.175743
0.177543
0.179325
0.181081
0.182805
0.184491
0.186136
0.187737
0.189294
0.190801
0.192246
0.19369
0.160337
0.162779
0.164357
0.16611
0.167884
0.169678
0.171487
0.173298
0.175099
0.176882
0.178636
0.180356
0.182036
0.183672
0.185261
0.186801
0.188295
0.189732
0.191092
0.192483
0.159491
0.161996
0.163623
0.165422
0.167234
0.169056
0.170883
0.172701
0.174498
0.176266
0.177996
0.179683
0.181321
0.182908
0.184442
0.185922
0.187351
0.188718
0.189994
0.191323
0.158654
0.161225
0.162903
0.164752
0.166606
0.168462
0.170311
0.17214
0.173937
0.175694
0.177403
0.179059
0.180658
0.182199
0.183679
0.185099
0.186464
0.187761
0.188951
0.190212
0.157819
0.160458
0.16219
0.164094
0.165996
0.16789
0.169766
0.171611
0.173413
0.175163
0.176854
0.178484
0.180047
0.181543
0.182972
0.184334
0.185635
0.186862
0.187966
0.189149
0.156982
0.159691
0.161482
0.163447
0.165402
0.167339
0.169247
0.171112
0.172922
0.17467
0.176348
0.177955
0.179486
0.180941
0.18232
0.183626
0.184864
0.186021
0.18704
0.188133
0.156137
0.15892
0.160775
0.162805
0.164819
0.166805
0.16875
0.17064
0.172463
0.174212
0.175882
0.177469
0.178973
0.180391
0.181724
0.182975
0.184151
0.185239
0.186175
0.187167
0.15528
0.15814
0.160065
0.162167
0.164246
0.166285
0.168272
0.17019
0.17203
0.173785
0.175451
0.177025
0.178504
0.17989
0.181181
0.182381
0.183498
0.184518
0.185372
0.186253
0.154402
0.157347
0.159347
0.161528
0.163677
0.165774
0.167807
0.169758
0.17162
0.173386
0.175052
0.176617
0.178078
0.179435
0.180689
0.181843
0.182903
0.18386
0.184636
0.185393
0.153496
0.156536
0.158617
0.160883
0.163108
0.165269
0.167351
0.169341
0.171228
0.173009
0.17468
0.17624
0.177687
0.179022
0.180245
0.181358
0.182368
0.183266
0.18397
0.184592
0.152555
0.155701
0.157871
0.160229
0.162535
0.164764
0.166901
0.168932
0.170849
0.172649
0.174329
0.175888
0.177326
0.178645
0.179844
0.180924
0.18189
0.182737
0.183381
0.183859
0.151571
0.154837
0.157104
0.15956
0.161953
0.164255
0.166451
0.168527
0.170478
0.1723
0.173992
0.175554
0.176988
0.178297
0.179479
0.180535
0.181467
0.182276
0.182877
0.183204
0.150534
0.153938
0.15631
0.158873
0.161358
0.163737
0.165996
0.168121
0.170107
0.171954
0.17366
0.175229
0.176664
0.177968
0.179142
0.180185
0.181097
0.181885
0.182465
0.182643
0.149438
0.153
0.155486
0.158161
0.160744
0.163206
0.165531
0.167707
0.169732
0.171604
0.173326
0.174903
0.176342
0.177646
0.17882
0.179861
0.18077
0.181562
0.18216
0.182198
0.148274
0.152017
0.154626
0.157422
0.160108
0.162656
0.16505
0.16728
0.169343
0.171241
0.172979
0.174565
0.176007
0.177315
0.178495
0.179547
0.180472
0.181301
0.181971
0.181902
0.147036
0.150986
0.153726
0.15665
0.159446
0.162083
0.164548
0.166832
0.168933
0.170856
0.172608
0.1742
0.175645
0.176954
0.178142
0.179213
0.180174
0.181077
0.181895
0.181794
0.145717
0.149901
0.152782
0.155843
0.158752
0.161482
0.16402
0.166358
0.168495
0.170439
0.172201
0.173794
0.175235
0.17654
0.177731
0.178824
0.179833
0.180853
0.181954
0.182004
0.144313
0.14876
0.151793
0.154997
0.158025
0.160849
0.16346
0.16585
0.168021
0.169983
0.171748
0.173333
0.174757
0.176042
0.17722
0.178324
0.179391
0.180616
0.182323
0.183041
0.142828
0.147566
0.150759
0.154113
0.157262
0.160181
0.162863
0.165303
0.167504
0.169477
0.171237
0.172802
0.17419
0.175427
0.176547
0.177593
0.17864
0.180007
0.182359
0.184277
0.198298
0.203128
0.206958
0.210624
0.213637
0.21635
0.218692
0.220768
0.222591
0.224202
0.225612
0.226837
0.227886
0.228769
0.229497
0.230081
0.230533
0.230863
0.23108
0.23119
0.19728
0.201741
0.205579
0.209152
0.212134
0.214816
0.217142
0.219208
0.221027
0.222636
0.224047
0.225273
0.226324
0.227209
0.227938
0.228524
0.228978
0.22931
0.229531
0.229652
0.196274
0.200393
0.204217
0.207697
0.210641
0.213288
0.215595
0.217649
0.219464
0.221071
0.222484
0.223712
0.224765
0.225654
0.226385
0.226974
0.227431
0.227767
0.227993
0.228123
0.195278
0.199086
0.202872
0.206261
0.209159
0.211769
0.214055
0.216095
0.217905
0.21951
0.220924
0.222155
0.223212
0.224104
0.224839
0.225432
0.225894
0.226234
0.226465
0.226604
0.194284
0.197822
0.201545
0.204845
0.207692
0.21026
0.212522
0.214548
0.21635
0.217954
0.219369
0.220603
0.221664
0.22256
0.223301
0.223899
0.224365
0.224711
0.224945
0.225093
0.193285
0.196602
0.200237
0.203452
0.206239
0.208765
0.210999
0.213008
0.214803
0.216405
0.217821
0.219058
0.220124
0.221025
0.221772
0.222375
0.222846
0.223197
0.223436
0.223592
0.192272
0.195428
0.198948
0.202081
0.204804
0.207284
0.209488
0.211478
0.213264
0.214862
0.21628
0.217521
0.218591
0.219498
0.220251
0.22086
0.221336
0.221693
0.221936
0.2221
0.191233
0.1943
0.197678
0.200734
0.203385
0.205817
0.207989
0.209959
0.211734
0.213329
0.214747
0.215991
0.217067
0.217981
0.21874
0.219354
0.219836
0.220198
0.220445
0.220616
0.190158
0.193218
0.196425
0.19941
0.201985
0.204367
0.206503
0.208452
0.210215
0.211805
0.213223
0.214471
0.215552
0.216472
0.217237
0.217858
0.218345
0.218713
0.218963
0.219139
0.189036
0.192178
0.19519
0.198108
0.200604
0.202932
0.205032
0.206957
0.208707
0.210291
0.211708
0.212959
0.214046
0.214972
0.215745
0.216372
0.216863
0.217236
0.21749
0.217671
0.187855
0.191178
0.193971
0.196826
0.19924
0.201514
0.203575
0.205476
0.207211
0.208788
0.210204
0.211458
0.21255
0.213483
0.214262
0.214894
0.215391
0.215768
0.216025
0.216209
0.186608
0.190209
0.192768
0.195562
0.197893
0.200111
0.202133
0.204007
0.205727
0.207297
0.208711
0.209967
0.211064
0.212003
0.212788
0.213427
0.213928
0.214309
0.214569
0.214754
0.185292
0.189259
0.191578
0.194311
0.196561
0.198724
0.200706
0.202553
0.204257
0.205817
0.207229
0.208487
0.209589
0.210534
0.211325
0.211968
0.212474
0.212858
0.21312
0.213305
0.183907
0.188312
0.190398
0.193069
0.195243
0.19735
0.199293
0.201113
0.202799
0.20435
0.205759
0.207018
0.208125
0.209075
0.209871
0.21052
0.211029
0.211416
0.211678
0.211862
0.182468
0.18735
0.189226
0.191833
0.193936
0.195988
0.197894
0.199687
0.201356
0.202897
0.204302
0.205562
0.206672
0.207627
0.208428
0.209081
0.209594
0.209982
0.210244
0.210425
0.181014
0.186365
0.18807
0.190605
0.192646
0.194644
0.196512
0.198278
0.199929
0.201459
0.202859
0.204119
0.205232
0.206191
0.206996
0.207652
0.208167
0.208555
0.208817
0.208992
0.179583
0.185326
0.186921
0.189381
0.191368
0.193314
0.195145
0.196884
0.198516
0.200035
0.20143
0.202689
0.203803
0.204765
0.205574
0.206233
0.206749
0.207136
0.207395
0.207563
0.178107
0.18407
0.185668
0.188075
0.190033
0.191941
0.193747
0.195466
0.197086
0.198598
0.199991
0.201252
0.20237
0.203339
0.204153
0.204816
0.205335
0.205722
0.205979
0.206139
0.176752
0.182517
0.184219
0.186595
0.188564
0.190462
0.192267
0.193988
0.195612
0.19713
0.198531
0.199802
0.20093
0.201909
0.202732
0.203403
0.203926
0.204313
0.204567
0.204717
0.177612
0.182019
0.183487
0.185662
0.187551
0.189374
0.19113
0.192815
0.194412
0.195907
0.197287
0.198537
0.199645
0.200603
0.201406
0.202057
0.202562
0.202931
0.20317
0.203302
0.188887
0.187197
0.186626
0.187595
0.188651
0.189724
0.190862
0.19204
0.193221
0.194367
0.195445
0.196428
0.197295
0.198033
0.19864
0.199119
0.199479
0.199734
0.199895
0.199977
0.182
0.180974
0.180914
0.182232
0.183492
0.184645
0.185807
0.186979
0.188129
0.189232
0.190264
0.191204
0.192035
0.192748
0.19334
0.193813
0.194174
0.194432
0.194598
0.19468
0.173924
0.173898
0.174476
0.176196
0.177747
0.179096
0.180386
0.181633
0.18282
0.183932
0.184956
0.185881
0.186697
0.187398
0.187984
0.188457
0.188822
0.189086
0.189258
0.189342
0.165493
0.166567
0.167772
0.169887
0.171769
0.173371
0.174841
0.176208
0.177467
0.178615
0.179648
0.180564
0.181363
0.182044
0.18261
0.183067
0.18342
0.183677
0.183844
0.183926
0.155921
0.158084
0.160038
0.162662
0.164991
0.166964
0.168721
0.170303
0.171716
0.172967
0.174064
0.175015
0.175828
0.176512
0.177075
0.177526
0.177874
0.178127
0.178292
0.178373
0.145429
0.148591
0.151343
0.154533
0.157376
0.1598
0.16193
0.163809
0.165452
0.166874
0.168092
0.169126
0.169993
0.170711
0.171294
0.171758
0.172114
0.172372
0.17254
0.172622
0.134374
0.138409
0.141927
0.145678
0.149047
0.151956
0.154503
0.156733
0.15866
0.160305
0.161693
0.16285
0.163806
0.164585
0.165211
0.165703
0.166078
0.166348
0.166524
0.166609
0.122966
0.127728
0.131935
0.136209
0.140082
0.143474
0.146458
0.149066
0.151312
0.153218
0.154813
0.15613
0.157204
0.158069
0.158756
0.159292
0.159696
0.159986
0.160173
0.160264
0.11134
0.116675
0.121468
0.126202
0.130535
0.134385
0.137797
0.14079
0.143373
0.145564
0.147393
0.148897
0.150115
0.151088
0.151854
0.152446
0.152889
0.153205
0.153408
0.153507
0.099597
0.105354
0.110615
0.115733
0.120463
0.124724
0.128533
0.131896
0.134814
0.137299
0.139377
0.141084
0.142464
0.143562
0.144422
0.145081
0.145573
0.14592
0.146143
0.146251
0.087825
0.0938581
0.0994639
0.104875
0.109924
0.11453
0.118687
0.122385
0.125616
0.128385
0.130711
0.132628
0.134178
0.135411
0.136373
0.137109
0.137654
0.138038
0.138282
0.138401
0.07609
0.0822674
0.0880942
0.0937006
0.0989764
0.103847
0.108283
0.112263
0.115767
0.118791
0.121348
0.123465
0.125183
0.126551
0.127618
0.128432
0.129033
0.129456
0.129724
0.129853
0.0644797
0.0706663
0.0765876
0.0822806
0.0876815
0.0927195
0.0973501
0.101538
0.105255
0.108488
0.11124
0.113533
0.115402
0.116894
0.118059
0.118947
0.119602
0.120061
0.120351
0.120492
0.05303
0.0591232
0.0650162
0.0706828
0.0760971
0.0811941
0.0859176
0.0902224
0.0940732
0.0974476
0.100341
0.102766
0.104753
0.106345
0.107591
0.108541
0.109241
0.109731
0.11004
0.11019
0.0419205
0.0477564
0.0534799
0.0589894
0.0642885
0.0693188
0.0740157
0.078327
0.0822108
0.0856381
0.0885961
0.0910902
0.093144
0.094795
0.0960899
0.0970778
0.0978054
0.0983136
0.0986346
0.09879
0.0310454
0.0365992
0.0420331
0.0472609
0.0523107
0.0571352
0.0616687
0.0658563
0.0696528
0.0730245
0.0759523
0.078435
0.0804894
0.0821475
0.0834516
0.084448
0.0851822
0.0856947
0.086018
0.0861722
0.0210453
0.0259243
0.0308579
0.0356212
0.0402505
0.0447032
0.04891
0.0528132
0.0563662
0.0595336
0.0622932
0.0646397
0.0665851
0.0681566
0.0693921
0.0703346
0.071027
0.0715089
0.0718149
0.0719728
0.010957
0.0155723
0.0199269
0.0240749
0.0281056
0.0320072
0.0357193
0.0391857
0.0423609
0.0452079
0.0477018
0.0498332
0.0516092
0.0530509
0.0541898
0.0550627
0.0557062
0.0561539
0.0564359
0.056559
0.00317741
0.00615036
0.00977364
0.0131097
0.0163072
0.0193706
0.0222455
0.0248903
0.0272798
0.0293962
0.0312294
0.0327793
0.0340566
0.0350813
0.0358803
0.0364841
0.036923
0.0372222
0.0374166
0.0376114
-0.0112692
-0.00629088
-0.00294919
8.4758e-05
0.00295013
0.00563444
0.00812121
0.0103944
0.0124318
0.0142164
0.0157435
0.017021
0.0180669
0.0189051
0.0195621
0.0200638
0.020433
0.0206847
0.0208023
0.0207138
0.175876
0.169448
0.163355
0.155699
0.146997
0.137406
0.12721
0.116556
0.105579
0.0943902
0.0831062
0.0717977
0.0606193
0.0495021
0.0389065
0.0280799
0.0191888
0.00762277
0.00564905
-0.0185748
0.176254
0.168152
0.162142
0.154079
0.145089
0.135267
0.124906
0.114144
0.103117
0.0919318
0.0806995
0.0694807
0.0584383
0.0474609
0.0370948
0.0263609
0.0179795
0.00596513
0.00616582
-0.0213851
0.176781
0.167012
0.160882
0.152325
0.14302
0.132945
0.122406
0.111532
0.100455
0.0892752
0.0780992
0.066978
0.0560747
0.0452545
0.0351073
0.0245243
0.0165655
0.00436571
0.00602589
-0.0235816
0.176353
0.165321
0.159175
0.150243
0.140729
0.130493
0.119852
0.108925
0.0978432
0.0867021
0.0756041
0.0645928
0.0538313
0.0431705
0.0332275
0.0228019
0.0152005
0.00288383
0.00573952
-0.0255921
0.175471
0.163422
0.157284
0.148035
0.138356
0.127995
0.117281
0.106328
0.0952617
0.084176
0.0731688
0.0622771
0.0516625
0.0411668
0.0314223
0.0211631
0.0138767
0.00148458
0.00538659
-0.0275348
0.174292
0.161457
0.155286
0.145761
0.135937
0.125469
0.114699
0.103734
0.0926955
0.0816757
0.0707678
0.0600038
0.0495414
0.0392175
0.0296669
0.0195867
0.0125772
0.000158667
0.00494861
-0.0294163
0.172805
0.159424
0.153174
0.143421
0.133475
0.122923
0.112113
0.10115
0.0901525
0.0792086
0.0684076
0.0577782
0.047473
0.0373265
0.0279651
0.0180757
0.0113066
-0.00108756
0.00442634
-0.0312494
0.171025
0.157329
0.150956
0.141025
0.13098
0.120366
0.109533
0.0985873
0.0876424
0.0767838
0.0660963
0.0556078
0.045464
0.0355
0.0263241
0.0166366
0.0100739
-0.00224398
0.00383352
-0.0330444
0.168984
0.155192
0.148649
0.138589
0.128465
0.117809
0.106968
0.0960533
0.0851722
0.0744075
0.0638399
0.0534977
0.0435189
0.0337418
0.0247495
0.0152745
0.00888704
-0.00329835
0.00318519
-0.0348058
0.166716
0.153027
0.146275
0.136127
0.125943
0.115263
0.10443
0.0935563
0.0827484
0.0720851
0.0616435
0.0514525
0.0416413
0.0320549
0.0232462
0.0139946
0.00775468
-0.00423458
0.00247259
-0.036691
0.16426
0.150845
0.143856
0.133656
0.123426
0.112739
0.101926
0.0911041
0.0803773
0.0698219
0.0595123
0.0494765
0.0398352
0.0304431
0.0218191
0.012802
0.00668876
-0.00502727
0.00163915
-0.0389806
0.16166
0.148657
0.141414
0.131191
0.120929
0.110247
0.0994663
0.0887046
0.078065
0.067623
0.0574504
0.0475735
0.0381044
0.0289103
0.0204728
0.0117022
0.00570595
-0.00564093
0.000641942
-0.0416877
0.158963
0.146474
0.138971
0.128746
0.118463
0.107797
0.097059
0.0863649
0.0758177
0.0654935
0.0554618
0.0457465
0.0364525
0.0274599
0.0192117
0.0107011
0.00482563
-0.00602532
-0.000396736
-0.0441762
0.15622
0.144306
0.136549
0.126337
0.116041
0.105401
0.0947125
0.0840917
0.0736414
0.0634382
0.0535499
0.0439983
0.0348823
0.0260942
0.0180392
0.00980261
0.0040622
-0.00615479
-0.00103864
-0.0409552
0.153483
0.142164
0.134168
0.123978
0.113678
0.103068
0.0924344
0.0818911
0.0715414
0.0614617
0.0517179
0.0423316
0.0333955
0.0248142
0.016957
0.00900636
0.00341837
-0.00605955
-0.00133557
-0.0324409
0.150803
0.140062
0.131849
0.121682
0.111384
0.100808
0.0902322
0.0797688
0.0695225
0.0595678
0.0499691
0.0407492
0.0319939
0.0236205
0.0159655
0.00830825
0.00288535
-0.00580372
-0.00163948
-0.0254553
0.148231
0.138015
0.12961
0.119464
0.109171
0.0986306
0.088113
0.0777304
0.0675888
0.0577598
0.0483065
0.0392535
0.0306789
0.0225135
0.0150636
0.00770287
0.00245087
-0.00546286
-0.00205338
-0.0201429
0.145813
0.136038
0.127469
0.117336
0.10705
0.0965436
0.0860833
0.075781
0.065744
0.0560404
0.0467323
0.0378461
0.0294513
0.0214935
0.0142495
0.00718394
0.00210452
-0.00506331
-0.00233644
-0.0160275
0.143588
0.13415
0.125443
0.115311
0.105031
0.0945545
0.0841492
0.0739256
0.0639915
0.0544121
0.0452485
0.0365277
0.0283118
0.0205595
0.0135208
0.00674447
0.00183793
-0.00463141
-0.0025088
-0.0127895
0.141591
0.132369
0.123547
0.1134
0.103121
0.0926698
0.0823162
0.0721687
0.0623348
0.0528779
0.0438569
0.0352989
0.0272603
0.0197099
0.0128746
0.00637791
0.00163872
-0.0041973
-0.00258928
-0.010214
0.139851
0.130712
0.121793
0.111612
0.101329
0.0908953
0.0805889
0.0705145
0.0607776
0.0514408
0.0425597
0.0341609
0.0262968
0.0189434
0.0123079
0.00607877
0.00150507
-0.00376834
-0.00259643
-0.00815815
0.138391
0.129198
0.120195
0.109959
0.0996609
0.0892355
0.0789706
0.068965
0.0593215
0.0501021
0.041357
0.0331133
0.0254199
0.0182579
0.011817
0.00584372
0.00142969
-0.00334564
-0.00254221
-0.006512
0.137227
0.127845
0.118763
0.108447
0.0981218
0.0876951
0.0774651
0.0675232
0.0579694
0.0488633
0.0402501
0.032157
0.0246291
0.0176522
0.0113993
0.00566744
0.00140891
-0.00292949
-0.00243703
-0.00518806
0.136371
0.126668
0.117505
0.107084
0.0967171
0.0862784
0.0760758
0.0661916
0.0567231
0.0477255
0.0392394
0.0312918
0.0239232
0.0171246
0.0110521
0.00554673
0.00143736
-0.00252058
-0.00229078
-0.00411821
0.135826
0.125683
0.116429
0.105875
0.0954505
0.0849889
0.0748055
0.0649725
0.0555841
0.046689
0.0383248
0.0305165
0.0233008
0.0166727
0.0107725
0.00547829
0.00151035
-0.00211893
-0.0021121
-0.00324966
0.135596
0.124905
0.115538
0.104825
0.0943248
0.083829
0.0736564
0.063868
0.0545536
0.0457545
0.0375062
0.0298305
0.0227607
0.0162945
0.0105579
0.0054592
0.00162403
-0.00172381
-0.00190819
-0.0025414
0.135676
0.124346
0.114835
0.103936
0.0933418
0.0828003
0.0726301
0.0628795
0.0536324
0.0449225
0.0367834
0.0292331
0.0223018
0.015988
0.0104061
0.00548707
0.00177489
-0.00133436
-0.00168505
-0.00196153
0.136062
0.124018
0.114322
0.103209
0.0925023
0.081904
0.0717279
0.062008
0.0528209
0.0441933
0.0361561
0.028724
0.021923
0.015752
0.0103145
0.00555959
0.00195951
-0.000950041
-0.00144769
-0.0014851
0.136744
0.123928
0.113995
0.102645
0.0918068
0.0811409
0.0709507
0.0612542
0.0521188
0.0435666
0.0356239
0.0283017
0.0216222
0.0155841
0.0102803
0.00567412
0.00217449
-0.000570589
-0.00120024
-0.00109244
0.13771
0.124085
0.113852
0.102243
0.091256
0.0805126
0.0702996
0.0606183
0.051526
0.0430423
0.0351847
0.0279646
0.0213972
0.0154818
0.0103003
0.0058277
0.00241667
-0.000195778
-0.000946046
-0.000767894
0.138945
0.124491
0.113887
0.102001
0.0908508
0.0800204
0.0697763
0.0601005
0.0510431
0.0426177
0.0348376
0.0277102
0.0212454
0.015442
0.0103715
0.0060175
0.00268324
0.000174786
-0.000687694
-0.000498936
0.140429
0.125144
0.114092
0.101921
0.0905935
0.0796663
0.0693825
0.0597009
0.0506681
0.0422919
0.0345805
0.0275359
0.0211642
0.0154619
0.0104913
0.00624109
0.00297172
0.000541644
-0.000427138
-0.000275473
0.142139
0.126038
0.114465
0.102002
0.0904881
0.0794564
0.0691146
0.0594179
0.0504
0.0420628
0.0344109
0.0274392
0.0211511
0.0155388
0.0106568
0.00649636
0.00327992
0.00090534
-0.000165807
-8.93154e-05
0.144017
0.127195
0.115008
0.102255
0.0905396
0.0793903
0.0689772
0.0592516
0.0502377
0.0419291
0.0343272
0.0274183
0.0212039
0.0156706
0.0108658
0.00678147
0.00360592
0.00126636
9.53197e-05
6.62688e-05
0.146031
0.128594
0.11573
0.102686
0.0907567
0.0794728
0.0689723
0.0592037
0.0501818
0.0418912
0.0343289
0.0274727
0.0213212
0.015856
0.0111164
0.00709484
0.00394819
0.00162522
0.000355685
0.000196913
0.148106
0.130194
0.116621
0.103284
0.0911294
0.0796951
0.0690912
0.0592676
0.0502264
0.0419447
0.0344117
0.0275988
0.0214995
0.0160918
0.0114058
0.00743423
0.00430507
0.00198225
0.000614944
0.000307429
0.150134
0.13197
0.117674
0.104021
0.0916194
0.0800137
0.0692904
0.059402
0.0503346
0.0420575
0.0345489
0.0277749
0.0217217
0.0163648
0.0117242
0.00779285
0.00467242
0.0023364
0.000872331
0.000402041
0.15213
0.134159
0.119089
0.105004
0.0922706
0.0804353
0.0695549
0.05958
0.050475
0.0421975
0.034711
0.027975
0.0219663
0.0166578
0.0120589
0.00816172
0.00504482
0.00268605
0.00112719
0.000484679
0.154146
0.137148
0.121305
0.106634
0.0934508
0.0812978
0.0701898
0.060069
0.0508765
0.0425545
0.0350507
0.0283177
0.0223224
0.0170348
0.012454
0.0085697
0.00543983
0.00304195
0.00138562
0.000558894
0.154947
0.139603
0.123671
0.108743
0.0953199
0.0829835
0.0717042
0.0614287
0.0520942
0.0436419
0.0360185
0.0291795
0.0230913
0.0177257
0.0130758
0.00913007
0.00592694
0.00344187
0.00166643
0.000626398
0.151996
0.140367
0.126633
0.1125
0.0994744
0.0873897
0.0761631
0.0657875
0.0562391
0.0474915
0.0395206
0.0323104
0.0258478
0.0201237
0.0151325
0.0108691
0.00733597
0.0045119
0.00237216
0.000784169
0.147161
0.136686
0.122458
0.108122
0.0951859
0.0834002
0.0726318
0.0628263
0.0539098
0.0458089
0.0384627
0.0318257
0.0258645
0.0205547
0.0158771
0.0118138
0.00834372
0.00543345
0.00303371
0.000998051
0.143303
0.133135
0.11912
0.105147
0.0926073
0.0812383
0.070909
0.0615515
0.0530784
0.0454028
0.0384505
0.0321622
0.0264928
0.0214071
0.0168756
0.0128693
0.00935472
0.00628842
0.00360948
0.00119106
0.140496
0.12973
0.116336
0.103004
0.0910023
0.0801288
0.0702634
0.0613274
0.0532286
0.0458774
0.0391965
0.033123
0.0276076
0.0226113
0.0181002
0.014041
0.0103954
0.00711707
0.00414333
0.00136797
0.138267
0.127254
0.114316
0.10163
0.0901631
0.0797499
0.0702883
0.0616969
0.0538856
0.0467679
0.0402683
0.034324
0.0288842
0.0239076
0.0193579
0.0151992
0.011392
0.00788955
0.00463196
0.0015306
0.136877
0.125829
0.113248
0.101145
0.0901496
0.080121
0.0709744
0.0626316
0.0550092
0.0480281
0.0416181
0.0357192
0.0302815
0.0252629
0.0206258
0.0163327
0.0123435
0.00861239
0.00508337
0.00168153
0.136491
0.125451
0.113161
0.101536
0.0909094
0.0811669
0.0722371
0.0640475
0.0565234
0.0495941
0.0431957
0.0372723
0.0317762
0.0266654
0.0219016
0.0174467
0.0132602
0.00929757
0.00550689
0.00182339
0.137117
0.126063
0.113992
0.102718
0.092341
0.0827776
0.073966
0.0658407
0.0583354
0.0513872
0.0449381
0.0389364
0.0333362
0.0280962
0.0231776
0.0185416
0.0141479
0.0099533
0.00590918
0.00195822
0.138675
0.127561
0.115629
0.104575
0.0943313
0.084846
0.076063
0.0679244
0.0603711
0.0533467
0.0467981
0.0406768
0.0349385
0.0295422
0.0244485
0.0196183
0.0150113
0.0105856
0.00629501
0.00208752
0.14104
0.129807
0.117934
0.106982
0.0967696
0.0872747
0.0784448
0.0702288
0.0625736
0.0554277
0.0487416
0.0424693
0.0365673
0.0309946
0.0257114
0.0206779
0.0158541
0.0111988
0.0066677
0.00221239
0.14406
0.132654
0.120769
0.109818
0.0995532
0.0899772
0.0810397
0.0726955
0.0648962
0.0575937
0.0507412
0.0442941
0.0382093
0.0324456
0.0269625
0.0217198
0.0166776
0.011795
0.00702903
0.00233341
0.147579
0.135952
0.123996
0.112967
0.102585
0.0928735
0.0837818
0.075271
0.0672955
0.0598101
0.0527697
0.0461304
0.0398493
0.0338845
0.028195
0.0227403
0.0174803
0.0123741
0.00737911
0.00245064
0.151432
0.139549
0.127479
0.116314
0.10577
0.0958822
0.0866035
0.0778986
0.0697246
0.0620381
0.0547954
0.0479527
0.0414669
0.0352958
0.0293977
0.0237316
0.0182569
0.0129326
0.00771618
0.00256351
0.155444
0.143286
0.131076
0.119737
0.109001
0.0989133
0.0894274
0.0805122
0.0721268
0.0642297
0.0567776
0.0497269
0.0430344
0.0366572
0.0305531
0.0246805
0.018998
0.0134643
0.0080366
0.00267083
0.15943
0.146993
0.134633
0.123099
0.112161
0.101862
0.0921622
0.0830321
0.0744332
0.0663252
0.0586653
0.05141
0.0445157
0.0379392
0.0316376
0.0255684
0.0196897
0.0139596
0.00833473
0.00277073
0.16319
0.150489
0.137983
0.126253
0.115115
0.10461
0.0947024
0.0853652
0.0765619
0.0682532
0.0603968
0.0529492
0.0458665
0.039105
0.0326212
0.0263718
0.0203143
0.014406
0.00860326
0.00286074
0.166521
0.153587
0.14095
0.129039
0.11772
0.107028
0.0969321
0.0874087
0.0784222
0.0699343
0.0619031
0.054285
0.0470362
0.0401123
0.0334694
0.0270633
0.0208509
0.0147891
0.00883357
0.00293799
0.169228
0.156105
0.143363
0.131301
0.119832
0.108985
0.0987349
0.0890584
0.0799217
0.0712872
0.0631132
0.0553565
0.0479729
0.0409177
0.0341464
0.0276144
0.0212781
0.0150938
0.0090167
0.00299944
0.171141
0.157886
0.145071
0.132899
0.121324
0.110367
0.100006
0.0902203
0.0809768
0.072238
0.0639628
0.0561078
0.0486289
0.0414811
0.0346194
0.0279991
0.021576
0.0153063
0.00914432
0.00304222
0.172133
0.158803
0.145952
0.133724
0.122093
0.111078
0.100661
0.0908186
0.0815197
0.072727
0.0643993
0.0564936
0.0489655
0.04177
0.0348619
0.0281961
0.0217285
0.015415
0.0092095
0.00306383
0.175972
0.172736
0.169496
0.165237
0.161276
0.157998
0.155717
0.15456
0.154538
0.155558
0.157466
0.160068
0.163158
0.166519
0.169939
0.173207
0.176121
0.178499
0.180182
0.181077
0.180777
0.177903
0.174314
0.170029
0.165971
0.162614
0.160272
0.159053
0.158965
0.159916
0.161753
0.164284
0.167301
0.170591
0.173939
0.177139
0.179994
0.182328
0.183984
0.184889
0.183856
0.180321
0.176026
0.171467
0.167424
0.16425
0.162187
0.161281
0.161497
0.162719
0.164781
0.167492
0.170651
0.17405
0.177485
0.180754
0.183664
0.186042
0.187732
0.188675
0.187466
0.183383
0.178455
0.173552
0.169414
0.166306
0.164405
0.163707
0.164142
0.16557
0.167815
0.17068
0.173967
0.177474
0.180999
0.184345
0.187319
0.189752
0.191482
0.192465
0.191282
0.18687
0.181476
0.176328
0.172091
0.169004
0.167195
0.166622
0.167194
0.168752
0.171114
0.17408
0.177452
0.181031
0.184618
0.188016
0.191034
0.193504
0.195263
0.196275
0.195055
0.190348
0.184592
0.17928
0.174978
0.171919
0.170194
0.169734
0.170422
0.172091
0.17455
0.177599
0.18104
0.184677
0.18831
0.191746
0.194795
0.197291
0.199069
0.200104
0.198812
0.193793
0.187751
0.182322
0.177975
0.174945
0.173298
0.17294
0.173736
0.175506
0.178054
0.18118
0.184684
0.188371
0.192045
0.195513
0.198585
0.201101
0.202894
0.203947
0.202578
0.197128
0.190983
0.185484
0.181109
0.178108
0.176526
0.176254
0.177142
0.179
0.181626
0.184818
0.188377
0.192108
0.195816
0.199309
0.202401
0.204932
0.206734
0.207799
0.206352
0.200574
0.194294
0.18876
0.18438
0.181411
0.179884
0.179684
0.180648
0.182578
0.18527
0.188517
0.192121
0.195887
0.199622
0.203135
0.206241
0.208781
0.210588
0.21166
0.210126
0.204062
0.197672
0.192131
0.187768
0.184838
0.183361
0.183221
0.184247
0.186236
0.188981
0.192273
0.195912
0.199705
0.20346
0.206987
0.2101
0.212644
0.214452
0.215525
0.213893
0.207557
0.201104
0.195582
0.191256
0.188372
0.186942
0.186852
0.187929
0.189965
0.192751
0.196078
0.199744
0.203557
0.207325
0.210859
0.213975
0.216518
0.218323
0.219392
0.217646
0.211069
0.204587
0.199104
0.194829
0.191998
0.190613
0.190566
0.191683
0.193756
0.196572
0.199925
0.203611
0.207437
0.211212
0.214748
0.217861
0.220399
0.222197
0.223257
0.221373
0.214602
0.208114
0.202686
0.198474
0.195702
0.194362
0.194352
0.1955
0.197599
0.200438
0.203808
0.207506
0.211339
0.215115
0.218647
0.221753
0.224281
0.226069
0.227116
0.225063
0.218151
0.211678
0.206318
0.202179
0.199471
0.198175
0.198197
0.199369
0.201487
0.204339
0.207719
0.211423
0.215256
0.219027
0.222551
0.225646
0.22816
0.229935
0.230966
0.228689
0.221703
0.215265
0.209988
0.205931
0.20329
0.20204
0.20209
0.203279
0.205409
0.208268
0.21165
0.215353
0.219181
0.222943
0.226454
0.229533
0.232032
0.233791
0.234803
0.23223
0.225246
0.218863
0.213683
0.209715
0.207146
0.205941
0.206018
0.20722
0.209355
0.212214
0.215593
0.219289
0.223107
0.226856
0.230349
0.23341
0.235889
0.237632
0.238621
0.235708
0.228766
0.222456
0.21739
0.213518
0.211025
0.209866
0.209969
0.21118
0.213315
0.216169
0.219538
0.223222
0.227026
0.230757
0.23423
0.23727
0.239728
0.241452
0.242417
0.239078
0.232245
0.226028
0.221092
0.217324
0.214912
0.213801
0.213929
0.215147
0.217278
0.220122
0.223478
0.227145
0.23093
0.234639
0.23809
0.241107
0.243542
0.245247
0.246185
0.242326
0.235668
0.229562
0.224774
0.221117
0.218792
0.217732
0.217886
0.219109
0.221233
0.224063
0.227401
0.231048
0.23481
0.238496
0.241922
0.244914
0.247325
0.24901
0.24992
0.24544
0.239018
0.233042
0.22842
0.224883
0.22265
0.221645
0.221826
0.223054
0.225169
0.227981
0.231298
0.234921
0.238658
0.242318
0.245718
0.248685
0.251071
0.252736
0.253618
0.248409
0.24228
0.236451
0.232013
0.228606
0.226473
0.225527
0.225736
0.226969
0.229073
0.231867
0.23516
0.238758
0.242467
0.2461
0.249472
0.252412
0.254773
0.256418
0.257271
0.25122
0.245435
0.239772
0.235534
0.232267
0.230241
0.229358
0.229599
0.230839
0.232934
0.235707
0.238976
0.242546
0.246227
0.249831
0.253176
0.25609
0.258425
0.26005
0.260876
0.253866
0.24847
0.24299
0.238969
0.23585
0.233939
0.233126
0.233403
0.234652
0.236738
0.239493
0.242736
0.246278
0.24993
0.253505
0.256822
0.25971
0.26202
0.263625
0.264424
0.256341
0.251371
0.246092
0.2423
0.239342
0.237552
0.236816
0.237134
0.238396
0.240476
0.243212
0.24643
0.249944
0.253567
0.257113
0.260402
0.263264
0.265551
0.267138
0.267912
0.258641
0.254125
0.249066
0.245515
0.242726
0.241066
0.240414
0.24078
0.242059
0.244136
0.246856
0.250049
0.253536
0.25713
0.260647
0.263909
0.266748
0.269011
0.27058
0.271332
0.260766
0.256724
0.251902
0.248599
0.245989
0.244468
0.243907
0.244327
0.24563
0.247708
0.250413
0.253585
0.257045
0.260611
0.264101
0.267337
0.270152
0.272393
0.273947
0.274678
0.262718
0.259156
0.254589
0.251542
0.24912
0.247744
0.247283
0.247765
0.249096
0.25118
0.253875
0.257027
0.260463
0.264003
0.267466
0.270677
0.27347
0.275692
0.277231
0.277945
0.264502
0.261417
0.257122
0.254333
0.252108
0.250884
0.250532
0.251082
0.252449
0.254543
0.257233
0.260368
0.263781
0.267297
0.270735
0.273923
0.276697
0.278901
0.280428
0.281127
0.266123
0.263502
0.259496
0.256965
0.254944
0.25388
0.253643
0.254269
0.255678
0.257789
0.260477
0.263599
0.266993
0.270487
0.273903
0.27707
0.279825
0.282015
0.283531
0.284218
0.267589
0.265407
0.261706
0.259432
0.257622
0.256723
0.256609
0.257318
0.258776
0.260909
0.263602
0.266715
0.270093
0.273567
0.276963
0.280111
0.282851
0.285027
0.286535
0.287214
0.268909
0.267133
0.263752
0.261731
0.260137
0.259409
0.259424
0.260222
0.261736
0.263898
0.266599
0.269709
0.273074
0.276532
0.279911
0.283042
0.285768
0.287934
0.289435
0.290109
0.270091
0.268679
0.265631
0.26386
0.262488
0.261933
0.262083
0.262976
0.264552
0.266748
0.269464
0.272574
0.275931
0.279376
0.282741
0.285859
0.288574
0.290731
0.292227
0.292898
0.271141
0.270048
0.267345
0.265819
0.264673
0.264294
0.264584
0.265576
0.26722
0.269457
0.272193
0.275309
0.278661
0.282096
0.28545
0.288557
0.291263
0.293414
0.294906
0.295578
0.272065
0.271244
0.268895
0.267612
0.266693
0.266493
0.266924
0.26802
0.269737
0.27202
0.274781
0.277907
0.28126
0.284689
0.288036
0.291135
0.293833
0.295979
0.29747
0.298146
0.272863
0.27227
0.270287
0.269245
0.268556
0.268532
0.269106
0.270308
0.272101
0.274435
0.277227
0.280368
0.283726
0.287154
0.290496
0.293589
0.296282
0.298425
0.299915
0.300597
0.273535
0.273138
0.271532
0.270733
0.270272
0.270423
0.271139
0.272448
0.274319
0.276708
0.279534
0.282694
0.286061
0.28949
0.29283
0.295919
0.298609
0.300749
0.30224
0.30293
0.274073
0.273854
0.272633
0.272078
0.271842
0.272163
0.273017
0.274432
0.276384
0.278831
0.281695
0.28488
0.28826
0.291695
0.295036
0.298124
0.300811
0.302951
0.304442
0.305143
0.274443
0.274389
0.27355