/*--------------------------------*- C++ -*----------------------------------*\
  =========                 |
  \\      /  F ield         | OpenFOAM: The Open Source CFD Toolbox
   \\    /   O peration     | Website:  https://openfoam.org
    \\  /    A nd           | Version:  7
     \\/     M anipulation  |
\*---------------------------------------------------------------------------*/
FoamFile
{
    version     2.0;
    format      ascii;
    class       volScalarField;
    location    "56.9";
    object      p;
}
// * * * * * * * * * * * * * * * * * * * * * * * * * * * * * * * * * * * * * //

dimensions      [0 2 -2 0 0 0 0];

internalField   nonuniform List<scalar> 
2000
(
0.0255617
0.0255768
0.0257672
0.0259939
0.0262301
0.0264689
0.0267165
0.0269857
0.0272853
0.0276591
0.0258976
0.0259133
0.0261303
0.0263971
0.0266777
0.0269556
0.0272278
0.0274983
0.0277663
0.0280681
0.0261717
0.0262101
0.0264609
0.0267741
0.0271059
0.027431
0.0277384
0.0280241
0.028279
0.0285214
0.0263753
0.0264622
0.0267533
0.0271165
0.0275034
0.0278793
0.0282285
0.0285408
0.0288018
0.0290004
0.0265055
0.0266681
0.0270035
0.0274189
0.0278566
0.0282828
0.0286751
0.0290204
0.0293048
0.0294803
0.0265646
0.0268294
0.0272113
0.0276736
0.0281566
0.0286251
0.0290543
0.0294311
0.0297494
0.0299247
0.02656
0.0269512
0.0273778
0.0278795
0.0283958
0.0288919
0.029344
0.0297409
0.0300904
0.0302852
0.0265082
0.0270395
0.0275076
0.0280371
0.0285694
0.0290726
0.0295265
0.0299236
0.0302896
0.0305149
0.0264262
0.0271052
0.0276069
0.0281488
0.0286752
0.0291595
0.0295882
0.0299617
0.0303295
0.0305983
0.026336
0.0271596
0.0276836
0.0282186
0.0287133
0.0291462
0.029512
0.0298209
0.0301451
0.0304428
0.0290048
0.0320644
0.0357562
0.0397817
0.0436074
0.0475569
0.0506363
0.0541161
0.0553349
0.0572767
0.0292173
0.0317677
0.0350205
0.0387094
0.0422599
0.0459726
0.0488398
0.0521157
0.0533571
0.055112
0.0294305
0.0315549
0.0343272
0.0376765
0.0409674
0.0444591
0.0471352
0.0502472
0.0514449
0.053082
0.0296154
0.0314374
0.033681
0.0366917
0.0397339
0.0430134
0.0455222
0.048485
0.0496222
0.0511879
0.0297435
0.0314092
0.0330859
0.0357647
0.0385648
0.0416416
0.0440042
0.0468304
0.047917
0.0494296
0.0297926
0.0314335
0.0325454
0.0349005
0.037457
0.040335
0.0425607
0.0452577
0.0463083
0.0477895
0.029753
0.0314434
0.0320662
0.0341063
0.0364236
0.0391142
0.0412174
0.0437967
0.0448173
0.0462648
0.0296151
0.0313595
0.0316513
0.0333628
0.0354306
0.037929
0.0399138
0.0423784
0.043384
0.0448297
0.0293805
0.0310974
0.0312969
0.0327236
0.0345675
0.0368797
0.0387556
0.0410973
0.0420739
0.0434886
0.0292767
0.0307374
0.030886
0.0319897
0.0336009
0.0357226
0.0375121
0.0397417
0.0407541
0.0421925
0.0304815
0.0317994
0.0320425
0.0322938
0.0330474
0.0343754
0.0357322
0.0373504
0.038239
0.0392418
0.0264418
0.0281655
0.029245
0.0299333
0.0306228
0.0315199
0.0324414
0.0335084
0.0341332
0.0347256
0.022114
0.0240768
0.0255116
0.0265189
0.027338
0.0282001
0.0289274
0.029674
0.0300596
0.0304266
0.0173525
0.0194922
0.021332
0.0227183
0.0236994
0.0245857
0.0252815
0.0258958
0.0261172
0.0263457
0.0124367
0.0145787
0.0167415
0.018537
0.0198134
0.0207987
0.0215091
0.0220813
0.0222463
0.022397
0.00782829
0.00987569
0.0121781
0.0142146
0.0157356
0.0168753
0.0176465
0.0182063
0.0183788
0.0185099
0.00397458
0.00576501
0.0079561
0.0100563
0.011711
0.0129382
0.0137284
0.0142485
0.0144007
0.0145166
0.00122166
0.0026213
0.00442147
0.00626925
0.0078532
0.00906806
0.00982743
0.0102876
0.0103902
0.0104578
-0.000325438
0.000606562
0.00187067
0.00321435
0.00441814
0.00535608
0.00590912
0.00624273
0.00627886
0.00631516
-0.0010406
-0.000589886
3.36596e-05
0.000738066
0.00137799
0.00187069
0.00210036
0.00225485
0.00219973
0.00219854
0.028526
0.0244662
0.0202898
0.0157493
0.0111495
0.00685561
0.00330166
0.000776009
-0.000475229
-0.00122024
0.027576
0.0234145
0.0192483
0.0147913
0.0103502
0.00624718
0.00290081
0.000550849
-0.000537453
-0.00128413
0.0264631
0.022415
0.0183106
0.0139571
0.00966992
0.00574124
0.00258073
0.000388977
-0.000568963
-0.00124134
0.0254105
0.0215522
0.0175194
0.0132764
0.00914421
0.00537674
0.00238115
0.000324168
-0.000557277
-0.0010834
0.0244971
0.0208234
0.0168656
0.0127297
0.00875026
0.0051256
0.00228189
0.000338366
-0.000495791
-0.000905382
0.0237716
0.02024
0.0163551
0.0123178
0.00847305
0.00499737
0.00227423
0.000421089
-0.000390337
-0.00072811
0.0232556
0.019808
0.0159837
0.0120447
0.00832367
0.00497253
0.00235166
0.000565324
-0.000247555
-0.000554086
0.0229481
0.0195164
0.0157641
0.0119026
0.00829052
0.00504409
0.00250524
0.000762437
-7.42785e-05
-0.000386588
0.0228426
0.0193711
0.0156797
0.011882
0.00836342
0.00520225
0.00272425
0.00100277
0.000122284
-0.000228696
0.0229081
0.0193609
0.0157201
0.0119707
0.008529
0.00543411
0.0029966
0.00127631
0.000334998
-8.20432e-05
0.0231066
0.0194609
0.0158629
0.0121484
0.00876829
0.00572366
0.00330888
0.00157301
0.000557254
5.28862e-05
0.0234102
0.0196513
0.0160901
0.0123996
0.0090663
0.00605802
0.00364994
0.00188446
0.000783657
0.000176316
0.0238012
0.0199207
0.0163903
0.0127146
0.00941253
0.00642751
0.00401098
0.00220398
0.00101016
0.000288965
0.024261
0.0202572
0.0167499
0.0130829
0.0097961
0.00682273
0.00438432
0.00252623
0.00123393
0.000391845
0.024774
0.020652
0.0171565
0.0134952
0.0102078
0.00723575
0.00476388
0.00284725
0.00145323
0.000486091
0.0253259
0.0210985
0.0175987
0.0139428
0.01064
0.00765994
0.00514511
0.0031643
0.0016672
0.000572845
0.0258947
0.0215852
0.0180631
0.0144161
0.0110856
0.00808957
0.00552458
0.00347557
0.00187565
0.000653284
0.0264704
0.0221199
0.0185557
0.0149187
0.0115478
0.00852585
0.0059031
0.00378159
0.00207949
0.00072877
0.0271262
0.0227879
0.019133
0.0154902
0.0120547
0.0089858
0.00629026
0.00408732
0.00228157
0.000799907
0.0276672
0.0234664
0.0196922
0.0160495
0.0125531
0.00943083
0.00666446
0.00438108
0.002478
0.000862147
0.0268868
0.0237861
0.0201955
0.0167403
0.0133205
0.0102022
0.00739209
0.00498671
0.00289947
0.00100187
0.0264391
0.0233865
0.019976
0.0167586
0.0135378
0.010587
0.00786001
0.00545747
0.00326864
0.00116906
0.0268924
0.0238005
0.0203831
0.0172154
0.014012
0.0110768
0.00832452
0.00587755
0.0035922
0.00133081
0.0276916
0.024414
0.0209189
0.0177245
0.014497
0.0115408
0.00874306
0.00625174
0.00389861
0.00150872
0.0289223
0.0253267
0.0216608
0.0183453
0.0150303
0.012003
0.00914189
0.00661273
0.00421377
0.00170887
0.0305054
0.0265172
0.0226113
0.0190868
0.015634
0.0124933
0.00955636
0.00697874
0.00453508
0.00191017
0.0322792
0.0278932
0.0236996
0.0199099
0.0162928
0.0130157
0.00999574
0.00734125
0.00480774
0.00202841
0.0340623
0.02918
0.0247186
0.0207005
0.0169485
0.0135484
0.0104365
0.00764834
0.00494739
0.00199978
0.035397
0.0302978
0.0256142
0.0213774
0.017502
0.0139987
0.010793
0.00784091
0.00493866
0.0018589
0.036385
0.0308418
0.0259999
0.0216911
0.0177883
0.0142538
0.0109985
0.00793639
0.00490071
0.00174947
0.0289581
0.0286678
0.0291802
0.0300397
0.0314672
0.033253
0.0352527
0.0373883
0.0389915
0.040309
0.0294127
0.0294623
0.0301498
0.031152
0.0327486
0.0346709
0.0367971
0.0389886
0.0406759
0.0418957
0.0295884
0.0299879
0.0309717
0.0322747
0.0341503
0.0363013
0.038621
0.0408573
0.0425815
0.0435747
0.0298985
0.0305336
0.0317433
0.0333288
0.0354594
0.0378386
0.0403692
0.042728
0.0445354
0.0454554
0.0303237
0.0312132
0.0326111
0.0344243
0.0367549
0.0393222
0.0420399
0.0445607
0.0464971
0.0474892
0.0307788
0.0319712
0.0335906
0.0356236
0.0381349
0.0408685
0.0437479
0.0464246
0.0484969
0.0496098
0.0312554
0.0327604
0.0346417
0.036914
0.0396198
0.0425288
0.0455662
0.0483837
0.0505741
0.0517902
0.0317753
0.0335801
0.0357446
0.0382686
0.0411884
0.0442938
0.0475027
0.0504579
0.0527492
0.0540353
0.0323499
0.0344393
0.036901
0.0396752
0.042822
0.0461402
0.049537
0.0526376
0.0550241
0.0563585
0.0329812
0.0353348
0.0381138
0.0411296
0.0445135
0.0480531
0.0516508
0.0549076
0.0573931
0.0587682
0.0336714
0.0362535
0.0393801
0.0426239
0.0462596
0.0500253
0.0538358
0.0572591
0.0598514
0.0612667
0.0344184
0.0371771
0.0406897
0.0441446
0.0480525
0.0520495
0.0560866
0.0596876
0.0623971
0.0638541
0.0352019
0.0380942
0.0420177
0.0456797
0.0498791
0.0541226
0.0584016
0.062194
0.0650338
0.0665345
0.0359851
0.039003
0.0433308
0.0472222
0.0517221
0.056237
0.0607726
0.0647793
0.0677684
0.0693177
0.0367202
0.0399093
0.0445809
0.0487773
0.0535812
0.0583899
0.0632
0.0674371
0.0705887
0.0721976
0.0373348
0.0408334
0.0457858
0.0503029
0.0554164
0.0605454
0.065658
0.0701493
0.0734835
0.0751683
0.0377943
0.04173
0.0469166
0.0517705
0.0572128
0.0626956
0.0681442
0.0729177
0.0764564
0.0782362
0.0381193
0.0425351
0.0479263
0.0531353
0.05892
0.0647864
0.0706088
0.0757088
0.0794913
0.0813962
0.0382926
0.043268
0.0488518
0.0544422
0.0605907
0.0668694
0.0730911
0.0785465
0.0826018
0.084666
0.0381007
0.0436953
0.0494456
0.055401
0.0619135
0.0686439
0.0753477
0.0812761
0.0857162
0.0880181
0.0393868
0.0464718
0.0526132
0.0592851
0.0664955
0.074055
0.0816194
0.0884235
0.0936074
0.0964116
0.0468086
0.0537244
0.0603025
0.0681288
0.0765766
0.0854991
0.0944018
0.102374
0.108417
0.111635
0.0549464
0.0623602
0.0698322
0.0789818
0.0887658
0.0991635
0.109382
0.118394
0.125142
0.128748
0.0635351
0.0718197
0.0806271
0.0912885
0.102589
0.114632
0.126145
0.136121
0.143447
0.147239
0.0725636
0.0819896
0.0923569
0.104631
0.117582
0.131329
0.144061
0.154928
0.162704
0.166801
0.0822328
0.0928814
0.104956
0.11888
0.133542
0.148929
0.162778
0.174418
0.182344
0.186114
0.0919789
0.10397
0.117653
0.13312
0.149438
0.166228
0.181095
0.19332
0.201108
0.204934
0.101603
0.114643
0.129791
0.146721
0.164623
0.182611
0.198617
0.211485
0.218751
0.220428
0.108366
0.122527
0.138807
0.156857
0.175959
0.19484
0.211918
0.225214
0.231695
0.234742
0.113568
0.128122
0.145184
0.164073
0.184107
0.203929
0.222661
0.23864
0.247758
0.233938
0.0372572
0.0441499
0.0513147
0.0592353
0.0673819
0.0765233
0.0853897
0.0947664
0.10077
0.10593
0.0366988
0.0439603
0.0508997
0.0585994
0.0664436
0.0753011
0.0837476
0.0927978
0.0981793
0.103186
0.0366257
0.044299
0.0512318
0.0588639
0.0665669
0.0751596
0.0832046
0.0916908
0.0963577
0.100958
0.0364188
0.0442129
0.0511367
0.0587077
0.0662985
0.0746839
0.0823975
0.0904362
0.0946851
0.098868
0.0361465
0.0438785
0.0507827
0.0582133
0.0656438
0.0737975
0.0812041
0.0889101
0.0929696
0.0968411
0.035872
0.0435369
0.0503989
0.057703
0.064958
0.0728444
0.0799524
0.0873549
0.0913026
0.0949508
0.035588
0.0432159
0.0500494
0.0572548
0.0643972
0.0720251
0.0788815
0.0859745
0.0898308
0.0932856
0.0352941
0.0428986
0.049733
0.0568603
0.0639343
0.0713591
0.0780564
0.0848213
0.0886398
0.0918859
0.0350053
0.0425953
0.0494499
0.0565259
0.0635445
0.0708286
0.0774266
0.0838974
0.0877325
0.0907484
0.0347415
0.0423265
0.0492132
0.0562653
0.0632385
0.0704316
0.0769504
0.0832106
0.087056
0.0898815
0.0345215
0.0421068
0.0490371
0.0560904
0.0630373
0.0701742
0.0766322
0.0827546
0.0865906
0.0892881
0.0343395
0.0419282
0.0489205
0.0559999
0.0629479
0.0700615
0.0764872
0.0825218
0.0863433
0.0889611
0.034172
0.0417712
0.0488521
0.0559852
0.0629664
0.070096
0.0765242
0.0825111
0.0863271
0.0888928
0.0340061
0.0416315
0.0488282
0.0560413
0.0630888
0.0702758
0.0767414
0.0827193
0.0865425
0.0890758
0.0338276
0.0415118
0.0488457
0.0561646
0.0633142
0.0705994
0.0771387
0.0831476
0.0869906
0.0895071
0.0336098
0.0414087
0.0488919
0.0563444
0.0636332
0.0710521
0.0777033
0.0837811
0.0876546
0.0901821
0.033318
0.0413166
0.0489541
0.0565739
0.064044
0.0716368
0.0784462
0.0846248
0.0885426
0.0911039
0.0328984
0.0412006
0.0489908
0.0568108
0.0644981
0.0723
0.0793175
0.0856343
0.0896142
0.0922694
0.0323643
0.0411004
0.049045
0.0570997
0.0650465
0.073097
0.0803684
0.0868481
0.0909119
0.0936889
0.0313999
0.0406899
0.0488247
0.0571387
0.0653721
0.0737167
0.0813349
0.0880852
0.0923109
0.0953506
0.0323706
0.0420855
0.0504137
0.059132
0.0679258
0.0767559
0.0849795
0.0921238
0.0967618
0.10004
0.0396537
0.0487631
0.056986
0.0663816
0.0760269
0.0858763
0.0952078
0.10322
0.108572
0.111729
0.0475396
0.0569178
0.0658351
0.0763449
0.0871606
0.0984551
0.1092
0.118405
0.124569
0.127817
0.0554721
0.0655868
0.0758461
0.0879584
0.100506
0.113899
0.126603
0.137635
0.145213
0.149095
0.0633702
0.0746154
0.0866049
0.100621
0.115397
0.131465
0.146786
0.160624
0.170752
0.176305
0.0714051
0.0839942
0.098014
0.114145
0.131604
0.150805
0.16955
0.187559
0.202334
0.212046
0.0789046
0.0930861
0.10906
0.127412
0.14782
0.17037
0.193592
0.217705
0.240249
0.25923
0.0862642
0.101747
0.119611
0.140246
0.163632
0.189836
0.218811
0.251397
0.287053
0.325634
0.0900312
0.1065
0.125692
0.148007
0.174056
0.204365
0.240496
0.284845
0.342078
0.415783
0.0934278
0.111724
0.132488
0.156922
0.186311
0.221944
0.266778
0.326436
0.414393
0.536553
0.0300355
0.0366885
0.0431705
0.0502565
0.0570405
0.0645721
0.0708261
0.077915
0.0812432
0.0832444
0.0293526
0.0359992
0.0423574
0.0490866
0.0554448
0.0626646
0.0683995
0.0752688
0.0781942
0.0805893
0.0291372
0.0358438
0.0421968
0.0487045
0.0547832
0.0616193
0.0669176
0.0733292
0.0757583
0.0791426
0.0289276
0.0354556
0.0416253
0.0479223
0.0537474
0.0602271
0.0651619
0.0711286
0.0731685
0.0770445
0.0287555
0.0349163
0.0407569
0.046811
0.0523117
0.0584115
0.0629886
0.0685695
0.0702879
0.074087
0.0286519
0.0343692
0.0398635
0.0456076
0.0507921
0.0564685
0.0606761
0.0658966
0.0673126
0.0707528
0.0286063
0.0338437
0.0390099
0.0443836
0.0493341
0.0545775
0.0584449
0.0633211
0.0644604
0.0675202
0.0286175
0.0333379
0.0381719
0.0431909
0.0478812
0.0527471
0.0563651
0.0608912
0.0618408
0.0646018
0.0286897
0.0328622
0.0373417
0.0420275
0.0464321
0.050951
0.0544106
0.0585479
0.0594784
0.0619852
0.0288218
0.0324327
0.0365318
0.040889
0.0450023
0.0492157
0.0525022
0.0562638
0.0573554
0.0595656
0.0262627
0.0272155
0.0277471
0.028254
0.0286898
0.0290375
0.0292959
0.0294681
0.0295647
0.0294668
0.0262385
0.0272894
0.0278099
0.0282669
0.0286202
0.0288591
0.0289893
0.0290183
0.0289665
0.0287708
0.0262875
0.027395
0.0278856
0.0282737
0.0285266
0.028642
0.0286348
0.0285215
0.0283408
0.0280618
0.0264349
0.0275491
0.0279916
0.0282952
0.0284364
0.0284219
0.0282762
0.0280244
0.0277171
0.0273318
0.0267046
0.0277698
0.0281481
0.0283561
0.0283803
0.0282368
0.0279585
0.0275777
0.0271496
0.0266479
0.0271167
0.0280754
0.0283756
0.028481
0.0283879
0.0281213
0.0277205
0.0272231
0.026683
0.0260675
0.0276853
0.0284817
0.0286925
0.0286912
0.0284835
0.0281019
0.0275904
0.0269893
0.0263478
0.0256317
0.028417
0.0290006
0.0291124
0.0290015
0.0286826
0.0281943
0.0275831
0.0268903
0.0261588
0.0253618
0.0293078
0.0296366
0.0296405
0.0294173
0.0289901
0.0284022
0.0277009
0.026927
0.0261153
0.0252375
0.0303319
0.0303797
0.0302703
0.0299329
0.0293998
0.0287184
0.0279356
0.0270897
0.0262083
0.0252704
0.0314372
0.0312032
0.0309832
0.0305321
0.0298963
0.0291269
0.0282699
0.0273604
0.0264204
0.0254406
0.0326446
0.032108
0.031765
0.0311955
0.0304577
0.0296051
0.0286808
0.0277158
0.0267288
0.0257214
0.0339
0.0330528
0.0325819
0.0318929
0.0310564
0.0301267
0.0291428
0.0281312
0.027109
0.0260872
0.0351462
0.0339954
0.0333965
0.0325908
0.0316617
0.0306629
0.0296287
0.0285805
0.0275354
0.0265127
0.0363283
0.0348916
0.0341697
0.0332544
0.0322421
0.031185
0.0301115
0.0290379
0.0279834
0.0269743
0.0373914
0.0356963
0.0348619
0.0338497
0.0327677
0.0316659
0.0305662
0.0294798
0.0284297
0.0274501
0.0382825
0.0363655
0.0354364
0.0343456
0.0332118
0.0320819
0.0309713
0.0298858
0.0288534
0.0279174
0.0389543
0.0368601
0.0358611
0.0347165
0.033553
0.0324144
0.0313102
0.0302397
0.029233
0.0283476
0.0393677
0.0371479
0.0361109
0.0349431
0.0337761
0.0326507
0.0315707
0.030525
0.0295393
0.0287087
0.0394938
0.0372054
0.036168
0.0350133
0.033874
0.0327877
0.0317513
0.0307379
0.0297665
0.0290007
0.0393141
0.0370178
0.0360219
0.0349211
0.0338472
0.0328377
0.0318931
0.0309939
0.0301789
0.0296513
0.0388155
0.036577
0.035667
0.0346615
0.0336877
0.0327824
0.0319484
0.031172
0.0304817
0.0300213
0.0380052
0.0358887
0.0351071
0.0342355
0.0333924
0.0326132
0.0319022
0.0312497
0.0306707
0.0302466
0.0369035
0.0349682
0.0343533
0.0336512
0.0329676
0.0323371
0.0317666
0.0312511
0.0307977
0.0304551
0.035542
0.0338398
0.0334248
0.0329238
0.0324267
0.0319675
0.0315567
0.0311934
0.0308803
0.0306514
0.0339621
0.0325356
0.032347
0.0320745
0.0317879
0.0315206
0.0312871
0.0310906
0.0309308
0.0308324
0.032213
0.0310935
0.0311503
0.0311279
0.0310723
0.0310148
0.0309741
0.0309576
0.0309643
0.0310113
0.0303475
0.0295546
0.0298674
0.0301106
0.0303019
0.0304689
0.0306338
0.0308084
0.0309938
0.0312019
0.0284201
0.0279602
0.0285316
0.0290488
0.0294979
0.0299001
0.0302805
0.0306552
0.0310287
0.0314118
0.0264981
0.0263552
0.0271765
0.0279679
0.0286798
0.0293238
0.029926
0.0305068
0.031075
0.0316439
0.0246731
0.0247979
0.0258415
0.0268955
0.0278674
0.0287539
0.0295804
0.0303698
0.0311356
0.0318979
0.0228867
0.0232815
0.024537
0.0258438
0.0270706
0.0281976
0.0292476
0.0302453
0.0312076
0.0321669
0.0211911
0.0218428
0.0232872
0.0248294
0.0263003
0.0276611
0.0289301
0.0301319
0.0312838
0.0324355
0.0196306
0.0205123
0.0221093
0.0238658
0.0255642
0.0271474
0.028627
0.0300253
0.0313547
0.0326797
0.0182261
0.0193058
0.0210223
0.0229611
0.0248671
0.0266574
0.0283353
0.0299208
0.031416
0.0328685
0.0169896
0.0182326
0.020037
0.0221245
0.0242111
0.0261905
0.0280517
0.0298127
0.0314772
0.0329632
0.0159283
0.0173004
0.0191589
0.0213594
0.0235982
0.0257454
0.0277747
0.0296923
0.0314825
0.0331631
0.015044
0.0165126
0.0183918
0.0206681
0.0230279
0.0253198
0.0275018
0.0295697
0.0314846
0.033263
0.0143334
0.0158683
0.0177367
0.0200514
0.0224991
0.0249104
0.0272285
0.0294437
0.0314947
0.0333382
0.0137906
0.0153638
0.017193
0.0195089
0.0220089
0.024511
0.0269425
0.0292923
0.0315113
0.0334768
0.0134038
0.0149917
0.0167568
0.0190384
0.021554
0.0241165
0.0266409
0.0291262
0.0316408
0.0340939
0.0131432
0.0147359
0.016421
0.0186372
0.0211294
0.02371
0.0262762
0.0287976
0.0313307
0.0337807
0.0130129
0.0145947
0.0161843
0.0183058
0.0207365
0.0232914
0.0258524
0.0283602
0.0308419
0.0332286
0.0130049
0.0145604
0.0160429
0.0180462
0.0203838
0.0228801
0.0254098
0.0278997
0.0303579
0.032711
0.013105
0.0146219
0.0159913
0.0178601
0.0200808
0.0224942
0.0249742
0.0274396
0.0298827
0.0322198
0.0132994
0.0147682
0.0160234
0.0177479
0.0198341
0.0221446
0.0245573
0.0269847
0.0294047
0.0317314
0.0135747
0.0149886
0.0161319
0.0177078
0.0196474
0.0218389
0.0241685
0.0265447
0.0289323
0.0312475
0.0139181
0.0152719
0.0163088
0.0177367
0.0195227
0.0215831
0.0238163
0.02613
0.028477
0.0307774
0.0143175
0.015607
0.0165447
0.0178293
0.0194596
0.0213807
0.023507
0.0257482
0.0280471
0.0303292
0.0147673
0.015988
0.0168333
0.0179809
0.0194564
0.0212333
0.0232441
0.0254041
0.0276481
0.0299091
0.0152695
0.016418
0.0171768
0.0181938
0.0195167
0.0211456
0.0230331
0.0251029
0.0272846
0.029521
0.0157835
0.0168634
0.0175471
0.0184464
0.0196257
0.0211089
0.0228697
0.0248431
0.0269551
0.0291601
0.0163105
0.0173246
0.0179421
0.0187352
0.0197799
0.0211209
0.0227525
0.0246231
0.0266566
0.0288184
0.0168485
0.0177989
0.0183574
0.0190548
0.0199744
0.0211778
0.0226788
0.0244404
0.0263857
0.0284895
0.0173927
0.0182812
0.0187871
0.019399
0.0202033
0.0212752
0.0226456
0.0242928
0.0261392
0.0281671
0.0179388
0.018767
0.019226
0.0197619
0.0204615
0.021409
0.0226508
0.0241794
0.0259153
0.0278439
0.0184842
0.0192536
0.0196704
0.0201391
0.0207442
0.0215759
0.0226927
0.0241009
0.0257157
0.0275159
0.0190268
0.0197388
0.0201176
0.020527
0.0210478
0.0217729
0.0227709
0.0240609
0.0255496
0.0271882
0.0195658
0.0202214
0.0205656
0.0209231
0.0213693
0.0219979
0.022885
0.0240645
0.0254373
0.0268937
0.0201007
0.0207007
0.0210135
0.0213258
0.021707
0.0222498
0.0230346
0.024111
0.0254023
0.0267067
0.0206322
0.0211766
0.0214606
0.0217335
0.0220593
0.0225296
0.0232312
0.0242464
0.0256562
0.0273519
0.0211627
0.0216487
0.021906
0.0221455
0.0224238
0.022828
0.0234423
0.0243438
0.025624
0.0271877
0.0216915
0.0221176
0.0223504
0.0225618
0.0227994
0.0231418
0.0236666
0.0244397
0.0255367
0.0268952
0.0222185
0.022583
0.022794
0.0229825
0.0231872
0.0234766
0.0239214
0.0245838
0.0255298
0.0267105
0.0227425
0.0230444
0.0232365
0.0234078
0.0235881
0.0238354
0.0242133
0.0247802
0.0255951
0.0266215
0.0232615
0.0235004
0.023677
0.0238375
0.0240023
0.0242187
0.024542
0.0250254
0.0257207
0.0266092
0.0237715
0.0239486
0.0241142
0.0242708
0.0244293
0.0246263
0.0249077
0.0253202
0.0259079
0.0266718
0.0242669
0.0243856
0.0245458
0.0247061
0.0248683
0.0250575
0.0253102
0.0256654
0.026159
0.0268102
0.0247393
0.0248069
0.0249684
0.0251409
0.0253169
0.0255106
0.0257481
0.0260601
0.026474
0.027023
0.0251765
0.0252069
0.0253772
0.0255715
0.0257722
0.0259824
0.0262182
0.0265015
0.0268505
0.0273073
)
;

boundaryField
{
    inlet
    {
        type            zeroGradient;
    }
    outlet
    {
        type            fixedValue;
        value           uniform 0;
    }
    cylinder
    {
        type            zeroGradient;
    }
    top
    {
        type            symmetryPlane;
    }
    bottom
    {
        type            symmetryPlane;
    }
    defaultFaces
    {
        type            empty;
    }
}


// ************************************************************************* //
