/*--------------------------------*- C++ -*----------------------------------*\
  =========                 |
  \\      /  F ield         | OpenFOAM: The Open Source CFD Toolbox
   \\    /   O peration     | Website:  https://openfoam.org
    \\  /    A nd           | Version:  7
     \\/     M anipulation  |
\*---------------------------------------------------------------------------*/
FoamFile
{
    version     2.0;
    format      ascii;
    class       surfaceScalarField;
    location    "60.3";
    object      phi;
}
// * * * * * * * * * * * * * * * * * * * * * * * * * * * * * * * * * * * * * //

dimensions      [0 3 -1 0 0 0 0];

internalField   nonuniform List<scalar> 
3880
(
-3.82972e-05
-0.000856382
0.000894679
-5.13652e-05
-0.00166144
0.00167451
1.96461e-06
-0.00188467
0.00183134
0.000151309
-0.001664
0.00151466
0.00042152
-0.00107402
0.000803808
0.000830027
-0.000157824
-0.000250683
0.00138527
0.00105172
-0.00160697
0.00208391
0.0025196
-0.00321825
0.00290889
0.00420075
-0.00502573
0.00603482
0.00382807
-0.00695399
-4.51682e-05
-0.000811214
-6.82083e-05
-0.0016384
-2.94541e-05
-0.00192342
0.000101055
-0.00179451
0.000348984
-0.00132195
0.000736525
-0.000545365
0.0012788
0.000509448
0.00198
0.00181841
0.00282892
0.00335183
0.00506858
0.00379515
-4.58038e-05
-0.00076541
-6.71387e-05
-0.00161706
-2.87889e-05
-0.00196177
9.54954e-05
-0.0019188
0.000330186
-0.00155664
0.000699384
-0.000914563
0.00122326
-1.44334e-05
0.00191378
0.00112789
0.00276732
0.00249829
0.00407814
0.00375776
-3.8674e-05
-0.000726736
-4.38077e-05
-0.00161193
1.23288e-05
-0.00201791
0.000148952
-0.00205542
0.000386666
-0.00179435
0.000748013
-0.00127591
0.00125607
-0.000522487
0.00192841
0.00045555
0.00277076
0.00165594
0.00308447
0.00376443
-2.27791e-05
-0.000703957
4.8004e-06
-0.00163951
9.93378e-05
-0.00211245
0.00027239
-0.00222847
0.00053685
-0.00205881
0.000910699
-0.00164976
0.00141592
-0.00102771
0.00207402
-0.00020255
0.00289921
0.000830747
0.00209986
0.00388383
3.1072e-06
-0.000707064
7.89356e-05
-0.00171534
0.000234426
-0.00226794
0.00047011
-0.00246416
0.000790166
-0.00237887
0.00120524
-0.00206483
0.00173275
-0.00155522
0.00239468
-0.000864483
0.00321153
1.39028e-05
0.00112131
0.00419007
3.60598e-05
-0.000743124
0.000176545
-0.00185582
0.000413144
-0.00250454
0.00073648
-0.00278749
0.00114155
-0.00278394
0.00163038
-0.00255366
0.00221331
-0.00213815
0.0029088
-0.00155998
0.0037414
-0.000818697
0.00013093
0.00473179
7.63169e-05
-0.000819441
0.000292241
-0.00207175
0.000624795
-0.00283709
0.00105456
-0.00321726
0.00156807
-0.00329745
0.00215897
-0.00314456
0.00282941
-0.00280858
0.00359144
-0.00232201
0.00446893
-0.00169619
-0.000896494
0.00549635
0.000120899
-0.00094034
0.000417958
-0.0023688
0.000852856
-0.00327199
0.00139683
-0.00376123
0.00202946
-0.00393008
0.00273778
-0.00385288
0.00351623
-0.00358703
0.00436791
-0.00317369
0.0053096
-0.00263788
-0.00197701
0.00639011
0.000166713
-0.00110705
0.000543629
-0.00274572
0.0010765
-0.00380486
0.00172794
-0.00441268
0.00247264
-0.00467478
0.00329431
-0.00467455
0.00418383
-0.00447655
0.00513725
-0.00412712
0.00615264
-0.00365327
0.00726336
-0.00308773
0.00615937
0.0374282
-0.0397595
0.00733183
0.0639415
-0.065114
0.00732451
0.085218
-0.0852106
0.00673784
0.104705
-0.104118
0.00588059
0.125461
-0.124604
0.00483529
0.148849
-0.147803
0.00363039
0.17542
-0.174215
0.0022373
0.2068
-0.205407
0.000906948
0.248819
-0.247489
0.298283
-0.297376
0.00655963
0.0346637
0.00827259
0.0622286
0.00860088
0.0848897
0.00818537
0.10512
0.00739623
0.12625
0.00632352
0.149921
0.00498806
0.176755
0.00335058
0.208438
0.00158395
0.250586
0.299867
0.00685551
0.0315659
0.00914668
0.0599374
0.00984912
0.0841872
0.00962728
0.105342
0.00891442
0.126963
0.00781713
0.151019
0.00635019
0.178222
0.0044679
0.21032
0.00226328
0.25279
0.30213
0.00703716
0.0282932
0.00991664
0.0570579
0.0110342
0.0830697
0.0110336
0.105342
0.0104101
0.127587
0.00929627
0.152133
0.00770222
0.179816
0.00557897
0.212443
0.00293708
0.255432
0.305068
0.00712461
0.0250524
0.0105479
0.0536346
0.0121212
0.0814964
0.0123757
0.105088
0.0118591
0.128103
0.0107407
0.153251
0.00902997
0.181527
0.00667153
0.214802
0.00360085
0.258503
0.308668
0.00717199
0.0220705
0.0110109
0.0497956
0.0130775
0.0794299
0.0136241
0.104541
0.0132347
0.128493
0.0121258
0.15436
0.0103127
0.18334
0.00773205
0.217382
0.00424691
0.261988
0.312915
0.0072504
0.0195519
0.0112948
0.0457512
0.0138753
0.0768494
0.0147563
0.10366
0.0145242
0.128725
0.0134454
0.155439
0.0115467
0.185239
0.00875585
0.220173
0.00487272
0.265871
0.317788
0.00741372
0.0176345
0.011415
0.0417499
0.0144889
0.0737755
0.0157315
0.102418
0.0156804
0.128776
0.0146517
0.156467
0.0126922
0.187198
0.00972127
0.223144
0.00546752
0.270125
0.323256
0.00766204
0.0163626
0.0113993
0.0380126
0.0149239
0.070251
0.0165869
0.100755
0.0167621
0.128601
0.015802
0.157428
0.0137925
0.189208
0.0106427
0.226294
0.0060347
0.274733
0.32929
0.00801114
0.0156148
0.0113287
0.034695
0.015084
0.0664957
0.0171403
0.0986982
0.017599
0.128142
0.0167591
0.158267
0.0147846
0.191182
0.0114816
0.229597
0.00660325
0.279611
0.335893
0.0191042
0.0254699
-0.0289593
0.0139029
0.0398963
0.0138309
0.0665677
0.0135612
0.098968
0.0122272
0.129476
0.0101515
0.160343
0.00749821
0.193835
0.00429565
0.2328
0.00126175
0.282645
0.337155
0.0240436
0.0326739
-0.0312476
0.0165744
0.0473656
0.0140231
0.0691189
0.0131013
0.0998898
0.0114249
0.131153
0.00925789
0.16251
0.00677646
0.196317
0.00386451
0.235711
0.00112136
0.285388
0.338277
0.0270619
0.0368675
-0.0312555
0.0199269
0.0545007
0.0153895
0.0736563
0.0135384
0.101741
0.0116665
0.133024
0.00928669
0.16489
0.00659002
0.199013
0.00363304
0.238668
0.00103018
0.287991
0.339307
0.0278977
0.0387486
-0.0297788
0.0222928
0.0601055
0.0168307
0.0791184
0.0136878
0.104884
0.0113244
0.135388
0.00897222
0.167242
0.00643332
0.201552
0.00363267
0.241469
0.00109982
0.290524
0.340407
0.0271811
0.0390042
-0.0274368
0.0235273
0.0637594
0.0185802
0.0840655
0.0150185
0.108445
0.0121477
0.138259
0.00929309
0.170097
0.00643852
0.204407
0.00356236
0.244345
0.00107322
0.293013
0.34148
0.0250726
0.0379818
-0.0240502
0.0231624
0.0656696
0.0189076
0.0883203
0.0150707
0.112282
0.0121388
0.141191
0.00944101
0.172794
0.00667716
0.207171
0.00381603
0.247206
0.00126215
0.295567
0.342742
0.022078
0.0357552
-0.0198514
0.0222259
0.0655217
0.0197269
0.0908193
0.0162334
0.115776
0.012847
0.144577
0.00965245
0.175989
0.0066499
0.210173
0.00375211
0.250104
0.00125611
0.298063
0.343998
0.0182524
0.032637
-0.0151342
0.0196299
0.0641443
0.018455
0.0919942
0.0159424
0.118288
0.0131841
0.147335
0.0102604
0.178913
0.00719785
0.213236
0.00415482
0.253147
0.00149581
0.300722
0.345494
0.0152727
0.0283999
-0.0110357
0.0184461
0.0609709
0.0187431
0.0916971
0.0165526
0.120479
0.0134421
0.150446
0.0102428
0.182112
0.00709995
0.216379
0.00410829
0.256139
0.00148849
0.303342
0.346982
0.010785
-0.00628262
0.0150713
0.0174096
0.0170493
0.0147133
0.0114041
0.00795593
0.00459397
0.00179092
0.0100325
-0.030696
-0.00829576
0.0104324
-0.0316475
0.00999512
-0.0308183
0.00913164
-0.0289154
0.00801122
-0.0263164
0.00673154
-0.0227705
0.00537245
-0.0184923
0.00403643
-0.0137982
0.00260285
-0.00960209
-0.00512978
0.00933969
-0.0316316
-0.00840416
0.00914887
-0.0314566
0.00836601
-0.0300354
0.0072866
-0.027836
0.00602282
-0.0250526
0.00465079
-0.0213984
0.00323996
-0.0170815
0.00188642
-0.0124447
0.000449525
-0.0081652
-0.00408145
0.00826248
-0.0318967
-0.00799733
0.00761346
-0.0308076
0.00656999
-0.028992
0.00531716
-0.0265831
0.00393645
-0.0236719
0.00249425
-0.0199562
0.0010585
-0.0156457
-0.000272584
-0.0111136
-0.00160437
-0.00683342
-0.00311751
0.00679552
-0.0316218
-0.00707046
0.00580695
-0.0298191
0.00457972
-0.0277647
0.00320764
-0.025211
0.00175415
-0.0222184
0.000279699
-0.0184818
-0.0011381
-0.0142279
-0.0024347
-0.00981698
-0.00361545
-0.00565267
-0.00228463
0.00498755
-0.0309221
-0.00568721
0.00376168
-0.0285932
0.00241736
-0.0264204
0.000976885
-0.0237706
-0.000500637
-0.0207409
-0.00195234
-0.0170301
-0.00332072
-0.0128595
-0.00453295
-0.00860474
-0.00555605
-0.00462957
-0.00160881
0.00292217
-0.029898
-0.00394634
0.00154353
-0.0272146
0.000126625
-0.0250035
-0.00131626
-0.0223277
-0.0027713
-0.0192858
-0.00417601
-0.0156254
-0.00545517
-0.0115804
-0.00654752
-0.00751239
-0.00740002
-0.00377707
-0.00109566
0.000693214
-0.0286328
-0.0019584
-0.000764771
-0.0257566
-0.00218164
-0.0235866
-0.00362226
-0.0208871
-0.00502493
-0.0178832
-0.0063419
-0.0143084
-0.00750355
-0.0104187
-0.00845229
-0.00656365
-0.00913062
-0.00309875
-0.000738203
-0.00160287
-0.0272115
0.000181604
-0.00308406
-0.0242754
-0.00448921
-0.0221815
-0.00588094
-0.0194953
-0.00720146
-0.0165626
-0.00840578
-0.0131041
-0.00943174
-0.00939277
-0.0102251
-0.00577024
-0.010736
-0.00258794
-0.000520581
-0.00388184
-0.025659
0.00232936
-0.00535175
-0.0228055
-0.00671434
-0.0208189
-0.00803158
-0.0181781
-0.00925128
-0.0153429
-0.0103283
-0.012027
-0.0112109
-0.00851015
-0.0118493
-0.00513192
-0.0122082
-0.00222897
-0.00042119
-0.00606363
-0.0240517
0.00445634
-0.00749458
-0.0213745
-0.00879708
-0.0195164
-0.0100231
-0.0169521
-0.0111325
-0.0142334
-0.0120775
-0.0110821
-0.0128194
-0.00776823
-0.0133136
-0.00463776
-0.0135433
-0.0019992
-0.00041518
-0.00808274
-0.0224373
0.00646828
-0.00945592
-0.0200013
-0.0106887
-0.0182836
-0.0118144
-0.0158264
-0.0128131
-0.0132348
-0.0136303
-0.0102649
-0.0142432
-0.00715527
-0.0146127
-0.00426833
-0.0147404
-0.00187148
-0.00047631
-0.00989707
-0.0208533
0.0083131
-0.0111971
-0.0187014
-0.012356
-0.0171247
-0.0133789
-0.0148035
-0.0142728
-0.0123409
-0.0149743
-0.00956344
-0.0154768
-0.0066527
-0.0157468
-0.0039984
-0.0158016
-0.00181661
-0.000578159
-0.0114738
-0.0193293
0.00994986
-0.0126894
-0.0174858
-0.0137759
-0.0160382
-0.0146999
-0.0138795
-0.0155014
-0.0115394
-0.0161056
-0.00895927
-0.0165214
-0.00623687
-0.0167206
-0.00379919
-0.0167322
-0.00180496
-0.000694946
-0.0127959
-0.0178857
0.0113523
-0.0139196
-0.0163622
-0.0149394
-0.0150183
-0.0157741
-0.0130448
-0.0164992
-0.0108143
-0.0170292
-0.00842929
-0.0173847
-0.0058814
-0.0175432
-0.00364067
-0.0175402
-0.00180795
-0.000801977
-0.0138596
-0.0165307
0.0125046
-0.014887
-0.0153348
-0.0158484
-0.014057
-0.0166084
-0.0122848
-0.0172753
-0.0101474
-0.017757
-0.00794762
-0.0180792
-0.00555914
-0.0182267
-0.00349318
-0.0182359
-0.00179879
-0.000875848
-0.014672
-0.0152573
0.0133987
-0.0156032
-0.0144035
-0.016514
-0.0131462
-0.0172184
-0.0115804
-0.0178452
-0.00952061
-0.0183054
-0.00748743
-0.0186209
-0.0052436
-0.0187855
-0.00332857
-0.0188316
-0.00175275
-0.000894489
-0.0152466
-0.0140406
0.0140298
-0.0160883
-0.0135618
-0.0169533
-0.0122812
-0.0176246
-0.0109091
-0.0182285
-0.00891664
-0.0186935
-0.00702243
-0.0190273
-0.00490979
-0.0192352
-0.00312073
-0.0193408
-0.00164714
-0.000837114
-0.0155859
-0.01285
0.0143953
-0.0163589
-0.0127888
-0.0171813
-0.0114588
-0.0178461
-0.0102442
-0.018445
-0.00831773
-0.0189403
-0.00652718
-0.019316
-0.00453409
-0.0195912
-0.00284557
-0.0197775
-0.00146082
-0.000684043
-0.0156821
-0.0116706
0.0145027
-0.016435
-0.012036
-0.0172179
-0.0106759
-0.0179045
-0.00955765
-0.0185166
-0.00770559
-0.0190654
-0.00597841
-0.0195047
-0.00409482
-0.0198689
-0.00248135
-0.0201556
-0.00117413
-0.00041637
-0.0156199
-0.0104575
0.0144067
-0.0164118
-0.011244
-0.0171214
-0.00996634
-0.017832
-0.00884703
-0.0184673
-0.00707032
-0.0190833
-0.00536243
-0.0196066
-0.00357152
-0.0200808
-0.00200709
-0.0204916
-0.000763359
-1.85514e-05
-0.0678264
-0.00928224
0.0666512
-0.0706822
-0.00838826
-0.073254
-0.0073945
-0.0758653
-0.00623577
-0.0779343
-0.00500135
-0.0796139
-0.00368284
-0.0807012
-0.00248416
-0.0813307
-0.00137756
-0.0815387
-0.000555452
-2.94466e-05
-0.0809377
-0.00820212
0.0798576
-0.0826799
-0.00664602
-0.0842194
-0.00585501
-0.0858341
-0.00462113
-0.0870812
-0.00375421
-0.0880927
-0.0026713
-0.0887173
-0.00185957
-0.0890684
-0.00102648
-0.0891579
-0.000465984
-3.91134e-05
-0.0948736
-0.00749859
0.0941701
-0.0957621
-0.00575754
-0.0967026
-0.00491451
-0.0976424
-0.0036813
-0.0984003
-0.00299636
-0.0990081
-0.00206349
-0.0993663
-0.00150139
-0.0995542
-0.000838574
-0.0995807
-0.000439447
-4.14024e-05
-0.11132
-0.00713281
0.110954
-0.111863
-0.00521401
-0.112439
-0.00433859
-0.113005
-0.00311585
-0.113466
-0.00253533
-0.11384
-0.0016894
-0.114055
-0.00128617
-0.114177
-0.000717065
-0.114187
-0.000429315
-3.69483e-05
-0.131522
-0.00664602
0.131035
-0.131993
-0.00474266
-0.132445
-0.00388687
-0.132869
-0.00269149
-0.133216
-0.00218863
-0.133506
-0.00139869
-0.133695
-0.00109789
-0.133827
-0.000584683
-0.133876
-0.000380057
-1.06077e-05
-0.155204
-0.00587769
0.154435
-0.155822
-0.00412398
-0.156351
-0.00335778
-0.156804
-0.00223914
-0.157174
-0.00181853
-0.15748
-0.00109272
-0.157716
-0.00086202
-0.157919
-0.000381824
-0.158045
-0.000254046
3.05849e-05
-0.179908
-0.00477715
0.178807
-0.180797
-0.00323491
-0.181548
-0.00260673
-0.182093
-0.0016939
-0.182544
-0.00136788
-0.182885
-0.000751133
-0.183186
-0.000561117
-0.183428
-0.000139984
-0.183596
-8.64035e-05
7.53529e-05
-0.201936
-0.00317704
0.200336
-0.202909
-0.00226219
-0.203708
-0.00180781
-0.204269
-0.00113275
-0.204749
-0.000887581
-0.205074
-0.000426291
-0.205358
-0.000277125
-0.205535
3.66804e-05
-0.205654
3.34189e-05
8.7401e-05
-0.217004
-0.00172376
0.215551
-0.218195
-0.00107166
-0.219159
-0.000843283
-0.219774
-0.000517731
-0.220241
-0.000420951
-0.220488
-0.000178942
-0.220665
-0.000100242
-0.220696
6.79391e-05
-0.220715
5.18848e-05
5.64055e-05
-0.225195
0.223471
-0.226267
-0.22711
-0.227628
-0.228048
-0.228227
-0.228328
-0.22826
-0.228208
-0.0160309
0.0679408
0.0147413
-0.0167486
0.0805752
-0.0171937
0.0946152
-0.0173196
0.11108
-0.0169712
0.130686
-0.0157927
0.153257
-0.0134478
0.176462
-0.00980739
0.196696
-0.00520734
0.210951
0.218264
-0.0151235
0.0687619
0.0143024
-0.015756
0.0812078
-0.0161319
0.0949911
-0.01617
0.111118
-0.015734
0.13025
-0.0145139
0.152037
-0.0122405
0.174189
-0.00887105
0.193326
-0.00467603
0.206756
0.213588
-0.014326
0.0694651
0.0136228
-0.0148624
0.0817441
-0.015153
0.0952817
-0.0151277
0.111093
-0.0146493
0.129772
-0.0134441
0.150832
-0.0112829
0.172028
-0.00815231
0.190196
-0.0042816
0.202885
0.209306
-0.0134151
0.0701181
0.0127621
-0.0138711
0.0822001
-0.0140688
0.0954795
-0.0139718
0.110996
-0.0134553
0.129256
-0.0122789
0.149655
-0.0102533
0.170002
-0.00738288
0.187325
-0.00386543
0.199367
0.205441
-0.0123608
0.0707143
0.0117647
-0.0127498
0.0825891
-0.0128719
0.0956015
-0.0127169
0.110841
-0.0121777
0.128716
-0.0110484
0.148526
-0.00917801
0.168132
-0.00658216
0.184729
-0.0034367
0.196222
0.202004
-0.0111925
0.0712424
0.0106644
-0.0115065
0.082903
-0.0115606
0.0956556
-0.0113624
0.110643
-0.010819
0.128173
-0.00975884
0.147466
-0.00806481
0.166438
-0.00575959
0.182424
-0.00299936
0.193462
0.199005
-0.00993895
0.0716937
0.00948766
-0.0101702
0.0831342
-0.0101558
0.0956412
-0.00992229
0.110409
-0.00938883
0.127639
-0.00841724
0.146494
-0.00691902
0.16494
-0.00492016
0.180425
-0.00255519
0.191097
0.196449
-0.00862066
0.0720549
0.0082594
-0.00876772
0.0832813
-0.00868449
0.095558
-0.00842068
0.110145
-0.00790708
0.127126
-0.00703843
0.145626
-0.00575045
0.163652
-0.00406958
0.178744
-0.00210649
0.189134
0.194343
-0.00725906
0.0723083
0.00700567
-0.00732364
0.0833459
-0.00717169
0.095406
-0.00688289
0.109857
-0.00639632
0.126639
-0.00564083
0.14487
-0.00457204
0.162583
-0.00321537
0.177388
-0.00165671
0.187575
0.192686
-0.00587639
0.0724314
0.00575332
-0.00586422
0.0833337
-0.00564016
0.095182
-0.00533267
0.109549
-0.00487744
0.126184
-0.0042424
0.144235
-0.00339719
0.161738
-0.00236606
0.176356
-0.00121014
0.186419
0.191476
-0.00450793
0.0724041
0.00453517
-0.00442262
0.0832484
-0.00412014
0.0948795
-0.0037972
0.109226
-0.00337379
0.12576
-0.00286247
0.143724
-0.0022403
0.161115
-0.00153107
0.175647
-0.000771456
0.18566
0.190705
-0.00319203
0.0722281
0.0033681
-0.00301989
0.0830763
-0.00264748
0.0945071
-0.00230344
0.108882
-0.00191403
0.125371
-0.00151884
0.143329
-0.00111386
0.16071
-0.000719776
0.175253
-0.00034555
0.185285
0.190359
-0.00196931
0.0719185
0.0022789
-0.00169088
0.0827978
-0.0012664
0.0940826
-0.000894274
0.10851
-0.000544953
0.125022
-0.000260931
0.143045
-6.87165e-05
0.160518
3.11319e-05
0.175153
4.93667e-05
0.185267
0.190408
-0.000873564
0.0715115
0.00128056
-0.000462816
0.0823871
-4.60247e-05
0.0936658
0.000421813
0.108042
0.000769333
0.124674
0.000968818
0.142845
0.000977834
0.160509
0.000790157
0.175341
0.000444789
0.185612
0.190853
4.01538e-05
0.0711024
0.000368914
0.000685404
0.0817418
0.00123038
0.0931208
0.00169865
0.107574
0.00202106
0.124352
0.00212388
0.142742
0.00194913
0.160684
0.00149146
0.175799
0.000811945
0.186292
0.191665
0.0010413
0.070516
-0.000454881
0.00174089
0.0810422
0.00234117
0.0925205
0.0028448
0.10707
0.00315469
0.124042
0.00317777
0.142719
0.00283897
0.161023
0.00213479
0.176503
0.00114763
0.187279
0.192813
0.00185265
0.0698525
-0.00118912
0.0026681
0.0802268
0.00332508
0.0918636
0.00386954
0.106526
0.00417838
0.123733
0.00413935
0.142758
0.00365747
0.161505
0.00272899
0.177431
0.00145743
0.188551
0.19427
0.00253454
0.0691734
-0.0018555
0.00345819
0.0793031
0.00416338
0.0911584
0.004742
0.105947
0.00505097
0.123424
0.00496222
0.142847
0.00436081
0.162106
0.00324048
0.178552
0.00172185
0.190069
0.195992
0.00315342
0.0685075
-0.00248752
0.00417395
0.0782826
0.00493001
0.0904023
0.00554448
0.105333
0.00586197
0.123107
0.00573411
0.142975
0.00502326
0.162817
0.00372177
0.179853
0.00197026
0.191821
0.197962
0.00349299
0.0681156
-0.00310103
0.00455521
0.0772204
0.00535943
0.0895981
0.00600028
0.104692
0.00632996
0.122777
0.00619205
0.143113
0.00542679
0.163582
0.00401843
0.181262
0.00211605
0.193723
0.200078
-0.0506691
0.0622295
0.0565551
-0.0456915
0.0722428
-0.0421717
0.0860782
-0.0385235
0.101044
-0.0345154
0.118769
-0.0296624
0.13826
-0.0236272
0.157547
-0.0164366
0.174071
-0.00840118
0.185688
0.191677
-0.0614503
0.0574842
0.0661957
-0.0570507
0.0678432
-0.0528788
0.0819064
-0.0482266
0.0963914
-0.0431748
0.113717
-0.0369984
0.132083
-0.029413
0.149961
-0.0204903
0.165148
-0.0105877
0.175785
0.18109
-0.0740363
0.0527985
0.078722
-0.0694864
0.0632932
-0.0644461
0.0768661
-0.0588215
0.0907668
-0.0524995
0.107395
-0.0446305
0.124214
-0.035206
0.140537
-0.0243072
0.154249
-0.0123098
0.163788
0.16878
-0.0892879
0.048343
0.0937434
-0.0840782
0.0580834
-0.0781807
0.0709686
-0.0715265
0.0841126
-0.0636271
0.0994958
-0.053763
0.11435
-0.0422304
0.129004
-0.0291303
0.141149
-0.0149885
0.149646
0.153791
-0.1063
0.0430161
0.111627
-0.100352
0.0521349
-0.0933862
0.064003
-0.085034
0.0757604
-0.074813
0.0892749
-0.0624813
0.102018
-0.0485139
0.115037
-0.032899
0.125534
-0.0163753
0.133122
0.137416
-0.126627
0.0375712
0.132072
-0.119456
0.0449635
-0.110959
0.0555066
-0.100423
0.0652245
-0.0877818
0.0766333
-0.073078
0.0873146
-0.0565132
0.0984721
-0.0383038
0.107325
-0.0195562
0.114375
0.11786
-0.146606
0.0303935
0.153783
-0.137893
0.0362509
-0.127262
0.0448755
-0.114062
0.0520244
-0.0987073
0.0612787
-0.0809567
0.069564
-0.0609801
0.0784956
-0.0395114
0.0858561
-0.01836
0.0932235
0.0994997
-0.168224
0.0229267
0.17569
-0.157975
0.0260018
-0.145391
0.032292
-0.130249
0.0368819
-0.11279
0.0438205
-0.0925539
0.0493275
-0.0702242
0.0561659
-0.046856
0.0624878
-0.0246646
0.0710322
0.0748351
-0.18357
0.0109988
0.195498
-0.170447
0.0128787
-0.154273
0.0161181
-0.135766
0.018375
-0.114093
0.0221476
-0.0897469
0.0249809
-0.0627138
0.0291328
-0.0336715
0.0334456
-0.00515564
0.0425163
0.0696794
-0.269274
0.280273
-0.256396
-0.240278
-0.221903
-0.199755
-0.174774
-0.145641
-0.112196
-0.0696794
0.000748882
0.0584831
-0.00267682
-0.00080801
0.0677526
-0.00198697
0.079901
-0.00288819
0.0946446
-0.00344294
0.112182
-0.0036068
0.132236
-0.00328643
0.153463
-0.00253627
0.17494
-0.00238628
0.195348
0.277887
0.00118847
0.0603298
-0.00303524
-0.000427192
0.0693682
-0.00165797
0.0811318
-0.00259048
0.0955771
-0.00319131
0.112783
-0.00338062
0.132425
-0.0031335
0.153216
-0.00241775
0.174224
-0.00215621
0.195087
0.275731
0.00168539
0.0620534
-0.00340895
8.2974e-05
0.0709707
-0.00109176
0.0823065
-0.0020138
0.0964992
-0.00263792
0.113407
-0.00286261
0.13265
-0.00271407
0.153067
-0.00209471
0.173605
-0.00193196
0.194924
0.273799
0.00217298
0.0636797
-0.00379929
0.000662306
0.0724813
-0.000490346
0.0834592
-0.00136586
0.0973747
-0.00196692
0.114008
-0.0022343
0.132917
-0.00215847
0.152992
-0.00169088
0.173138
-0.00163775
0.194871
0.272161
0.00265088
0.0652275
-0.00419872
0.00123305
0.0738992
0.000112802
0.0845794
-0.000699617
0.0981871
-0.00126514
0.114574
-0.00155686
0.133209
-0.00154613
0.152981
-0.0012307
0.172822
-0.00129544
0.194936
0.270866
0.00315001
0.0666743
-0.00459677
0.00184719
0.075202
0.000836496
0.0855901
-4.99462e-06
0.0990286
-0.000500369
0.115069
-0.000818186
0.133527
-0.000870766
0.153033
-0.000719288
0.172671
-0.000913824
0.19513
0.269952
0.00367272
0.0679878
-0.00498623
0.00250422
0.0763705
0.00159297
0.0865014
0.000876874
0.0997447
0.000352664
0.115593
-3.16677e-05
0.133911
-9.96583e-05
0.153101
-0.00016816
0.172739
-0.000491801
0.195454
0.26946
0.00421096
0.0691375
-0.00536064
0.00319161
0.0773898
0.00238779
0.0873052
0.00175819
0.100374
0.00126848
0.116083
0.000910711
0.134269
0.00068885
0.153323
0.000490152
0.172938
-9.25479e-06
0.195953
0.269451
0.00475843
0.0700902
-0.00571112
0.00389692
0.0782513
0.00320865
0.0879934
0.00267001
0.100913
0.00222618
0.116527
0.00185673
0.134638
0.00153447
0.153645
0.00117785
0.173294
0.000431386
0.1967
0.269882
0.00530277
0.0708127
-0.00602535
0.00460758
0.0789465
0.00404343
0.0885576
0.00360269
0.101354
0.00321126
0.116918
0.0028291
0.13502
0.00241422
0.15406
0.00188275
0.173826
0.00091656
0.197666
0.270799
0.00582292
0.0712732
-0.00628344
0.00530385
0.0794656
0.00487361
0.0889878
0.00453588
0.101691
0.00420275
0.117251
0.00381388
0.135409
0.00330814
0.154566
0.00260284
0.174531
0.00141703
0.198852
0.272216
0.00631058
0.0714459
-0.00648319
0.00597752
0.0797987
0.00568875
0.0892766
0.00545986
0.10192
0.00519126
0.11752
0.00480299
0.135798
0.00421006
0.155159
0.00333489
0.175406
0.00192626
0.20026
0.274142
0.00674351
0.0713153
-0.00661292
0.00660463
0.0799375
0.00646366
0.0894176
0.00634838
0.102036
0.00615195
0.117716
0.00577392
0.136176
0.00510267
0.15583
0.00406562
0.176443
0.00243693
0.201889
0.276579
0.00710343
0.0708803
-0.00666848
0.00716802
0.079873
0.00717838
0.0894072
0.00717993
0.102034
0.00706448
0.117832
0.00670689
0.136533
0.00596958
0.156568
0.00478221
0.177631
0.00294086
0.20373
0.27952
0.00737557
0.0701551
-0.00665039
0.00765253
0.079596
0.00781367
0.0892461
0.00793474
0.101913
0.00791038
0.117856
0.00758496
0.136859
0.00679864
0.157354
0.00547589
0.178954
0.00343396
0.205772
0.282954
0.0075505
0.0691715
-0.00656684
0.00804501
0.0791015
0.00835266
0.0889384
0.00859315
0.101672
0.00866573
0.117783
0.00838502
0.137139
0.00756973
0.158169
0.00613007
0.180393
0.00390416
0.207998
0.286858
0.00762809
0.0679792
-0.00643579
0.00833958
0.07839
0.00878815
0.0884899
0.00914744
0.101313
0.00932427
0.117607
0.00910421
0.137359
0.00828209
0.158991
0.00674525
0.18193
0.00435258
0.210391
0.29121
0.00761161
0.0666519
-0.00628434
0.00852114
0.0774805
0.00909829
0.0879127
0.00956614
0.100845
0.0098452
0.117328
0.00969519
0.137509
0.00888975
0.159797
0.00728938
0.18353
0.00475759
0.212923
0.295968
0.00755078
0.0652507
-0.0061496
0.00864922
0.076382
0.00934738
0.0872145
0.00991777
0.100275
0.0103007
0.116945
0.0102301
0.13758
0.00945174
0.160575
0.00779843
0.185184
0.00513636
0.215585
0.301104
0.00728118
0.0639683
-0.00599872
0.00844678
0.0752164
0.00928319
0.0863781
0.00994755
0.0996106
0.0104403
0.116452
0.0104702
0.13755
0.00978519
0.16126
0.00813602
0.186833
0.0054459
0.218275
0.30655
-0.0347022
0.059885
0.0387855
-0.0295804
0.0700946
-0.0252372
0.082035
-0.0209129
0.0952862
-0.0166234
0.112162
-0.012086
0.133013
-0.00728851
0.156463
-0.00285381
0.182398
-0.000778909
0.2162
0.305771
-0.0501946
0.0550739
0.0550057
-0.0448622
0.0647622
-0.0393017
0.0764745
-0.0334057
0.0893903
-0.0273976
0.106154
-0.0207993
0.126414
-0.0136619
0.149325
-0.00684166
0.175578
-0.0027785
0.212137
0.302993
-0.0670245
0.0498197
0.0722787
-0.0608331
0.0585708
-0.0540595
0.0697009
-0.0468189
0.0821496
-0.0391909
0.0985263
-0.0303787
0.117602
-0.0207454
0.139692
-0.0113022
0.166135
-0.00454454
0.205379
0.298448
-0.0856223
0.0443132
0.0911289
-0.0783458
0.0512943
-0.070606
0.0619611
-0.0621044
0.073648
-0.0525347
0.0889566
-0.0411696
0.106237
-0.0287789
0.127301
-0.0164668
0.153823
-0.00680418
0.195716
0.291644
-0.106546
0.0376365
0.113223
-0.0987536
0.0435015
-0.0902443
0.0534518
-0.0800485
0.0634522
-0.0680851
0.0769933
-0.0540081
0.0921601
-0.0386609
0.111954
-0.022938
0.1381
-0.00965485
0.182433
0.281989
-0.131397
0.0310258
0.138008
-0.122605
0.0347095
-0.112626
0.0434726
-0.100343
0.051169
-0.0860699
0.0627205
-0.0694939
0.0755841
-0.0511128
0.0935729
-0.0317955
0.118782
-0.0144619
0.1651
0.267527
-0.159284
0.0224747
0.167835
-0.150052
0.0254781
-0.138817
0.032237
-0.125151
0.037503
-0.109302
0.0468722
-0.0904439
0.0567257
-0.0692213
0.0723503
-0.0461051
0.0956662
-0.0228242
0.141819
0.244703
-0.192931
0.0139713
0.201435
-0.182698
0.0152444
-0.170263
0.0198024
-0.155712
0.0229518
-0.138459
0.029619
-0.118219
0.0364859
-0.0953587
0.0494902
-0.0695064
0.0698139
-0.0394296
0.111742
0.205274
-0.244449
0.00517149
0.253248
-0.235152
0.00594757
-0.223352
0.00800286
-0.210184
0.00978331
-0.193856
0.0132912
-0.174928
0.017558
-0.151199
0.0257607
-0.120336
0.0389517
-0.0744453
0.065851
0.130828
-0.315975
0.321146
-0.310027
-0.302024
-0.292241
-0.27895
-0.261392
-0.235631
-0.196679
-0.130828
0.00270964
0.0406331
-0.00455726
0.000180841
0.0575345
-0.00174363
0.0742032
-0.00341781
0.092803
-0.00471629
0.114522
-0.00568862
0.13898
-0.00601136
0.168157
-0.00596785
0.201391
-0.00427782
0.251558
0.316868
0.00268687
0.0421308
-0.00418457
0.000518277
0.0597031
-0.0014133
0.0761347
-0.00308237
0.0944721
-0.00440503
0.115844
-0.00537334
0.139949
-0.00576113
0.168545
-0.00572553
0.201356
-0.00415152
0.249984
0.312717
0.00283654
0.043226
-0.00393174
0.000982061
0.0615575
-0.00083526
0.0779521
-0.00242446
0.0960613
-0.00372009
0.11714
-0.00467556
0.140904
-0.00512992
0.168999
-0.00510931
0.201335
-0.00380142
0.248677
0.308915
0.00306275
0.0439462
-0.00378299
0.00149974
0.0631205
-0.000197378
0.0796492
-0.00165041
0.0975143
-0.00287921
0.118369
-0.00383465
0.141859
-0.00433829
0.169503
-0.00441388
0.201411
-0.00336207
0.247625
0.305553
0.00335076
0.0443078
-0.00371233
0.00209804
0.0643733
0.00060194
0.0811453
-0.000798154
0.0989144
-0.00194971
0.11952
-0.00289959
0.142809
-0.00346052
0.170064
-0.00365727
0.201607
-0.00286283
0.24683
0.30269
0.00371551
0.0442907
-0.00369843
0.00279936
0.0652894
0.00151603
0.0824286
0.000162316
0.100268
-0.000908044
0.120591
-0.00186194
0.143763
-0.00249963
0.170702
-0.00283244
0.20194
-0.00231533
0.246313
0.300375
0.00415667
0.0438571
-0.00372304
0.00359705
0.065849
0.00253325
0.0834924
0.00135661
0.101445
0.000264244
0.121683
-0.000723429
0.144751
-0.00142839
0.171407
-0.00193753
0.202449
-0.0017261
0.246102
0.298649
0.00465108
0.042973
-0.00376696
0.00447285
0.0660273
0.00364263
0.0843226
0.00260631
0.102481
0.00157929
0.12271
0.000553636
0.145777
-0.000224818
0.172185
-0.000984739
0.203209
-0.00109721
0.246214
0.297552
0.00517167
0.0416116
-0.00381026
0.00540465
0.0657943
0.00482481
0.0849025
0.00393089
0.103375
0.00295698
0.123684
0.00195016
0.146783
0.00100077
0.173135
-3.18906e-05
0.204242
-0.000427439
0.24661
0.297124
0.00568721
-0.00383512
0.00636749
0.00605931
0.00531647
0.00439641
0.0033763
0.00229619
0.00113095
0.000251976
0.000211024
-0.00131808
0.000658842
-0.00319354
0.00127294
-0.00441896
0.00200811
-0.00514786
0.00283606
-0.00550272
0.00374093
-0.00557942
0.00471704
-0.00545266
0.0057708
-0.00518088
0.00693583
-0.0048183
-0.00444766
0.000247185
-0.00156526
0.000748202
-0.00369455
0.00141611
-0.00508687
0.00219788
-0.00592962
0.00306251
-0.00636735
0.00399451
-0.00651142
0.0049896
-0.00644775
0.00605259
-0.00624386
0.00719377
-0.00595948
-0.00565805
0.000273601
-0.00183886
0.000804007
-0.00422496
0.00148898
-0.00577184
0.00226875
-0.00670938
0.00311054
-0.00720915
0.00399954
-0.00740043
0.00493228
-0.00738049
0.00591133
-0.00722291
0.00693768
-0.00698583
-0.0067177
0.000287039
-0.0021259
0.000817746
-0.00475567
0.00147745
-0.00643155
0.00220206
-0.00743399
0.00295916
-0.00796625
0.00373639
-0.00817766
0.004533
-0.0081771
0.00535331
-0.00804322
0.00620023
-0.00783275
-0.00758793
0.000284911
-0.00241081
0.000783682
-0.00525444
0.00137418
-0.00702205
0.001992
-0.00805181
0.00260825
-0.00858249
0.00321556
-0.00878498
0.00381822
-0.00877975
0.00442526
-0.00865026
0.00504564
-0.00845314
-0.0082295
0.000265477
-0.00267629
0.000699373
-0.00568833
0.00117918
-0.00750185
0.00164527
-0.0085179
0.00207583
-0.00901305
0.00247078
-0.00917993
0.00284075
-0.00914972
0.00320013
-0.00900964
0.00356365
-0.00881666
-0.00861219
0.00022805
-0.00290434
0.000565921
-0.0060262
0.000899387
-0.00783532
0.00117908
-0.0087976
0.00139332
-0.00922728
0.00155052
-0.00933713
0.0016675
-0.0092667
0.0017625
-0.00910464
0.00185175
-0.00890591
-0.00871883
0.000173123
-0.00307746
0.000387854
-0.00624094
0.000547613
-0.00799508
0.000618236
-0.00886822
0.000599916
-0.00920896
0.000509545
-0.00924676
0.000368765
-0.00912592
0.000198705
-0.00893458
1.71612e-05
-0.00872437
-0.00852007
0.000102395
-0.00317986
0.000172632
-0.00631117
0.000140825
-0.00796327
-8.76833e-06
-0.00871863
-0.000262728
-0.008955
-0.000597964
-0.00891152
-0.000989986
-0.0087339
-0.00141892
-0.00850564
-0.00187124
-0.00827205
-0.00806195
1.86057e-05
-0.00319846
-6.99516e-05
-0.00622262
-0.000301578
-0.00773164
-0.000670948
-0.00834926
-0.00115419
-0.00847176
-0.00172269
-0.00834302
-0.00235178
-0.00810481
-0.00302358
-0.00783383
-0.00372662
-0.00756901
-0.00733223
-5.99288e-05
-0.00313854
-0.00030839
-0.00597415
-0.000738286
-0.00730175
-0.00132085
-0.00776669
-0.00202129
-0.00777132