/*--------------------------------*- C++ -*----------------------------------*\
  =========                 |
  \\      /  F ield         | OpenFOAM: The Open Source CFD Toolbox
   \\    /   O peration     | Website:  https://openfoam.org
    \\  /    A nd           | Version:  7
     \\/     M anipulation  |
\*---------------------------------------------------------------------------*/
FoamFile
{
    version     2.0;
    format      ascii;
    class       volScalarField;
    location    "2";
    object      p;
}
// * * * * * * * * * * * * * * * * * * * * * * * * * * * * * * * * * * * * * //

dimensions      [0 2 -2 0 0 0 0];

internalField   nonuniform List<scalar> 
2000
(
0.478444
0.486131
0.491837
0.497502
0.502628
0.50709
0.510912
0.514169
0.51696
0.519262
0.475142
0.483387
0.48937
0.495216
0.50042
0.504874
0.508619
0.51174
0.514345
0.516394
0.471443
0.480374
0.486664
0.492709
0.498008
0.502472
0.506164
0.509178
0.51163
0.513419
0.467357
0.47709
0.4837
0.489948
0.495345
0.499832
0.503489
0.506424
0.508764
0.510293
0.462875
0.473525
0.480458
0.486902
0.492392
0.496901
0.500535
0.503417
0.50569
0.506979
0.458008
0.469685
0.476934
0.483554
0.489117
0.493637
0.497247
0.500096
0.502352
0.503441
0.452796
0.465593
0.47314
0.479905
0.485508
0.490012
0.493585
0.496403
0.498688
0.499656
0.44731
0.461297
0.469109
0.475974
0.481573
0.486021
0.489528
0.492315
0.49471
0.495732
0.441656
0.456865
0.464896
0.471805
0.477338
0.481666
0.485054
0.48782
0.490545
0.492097
0.435972
0.452389
0.460581
0.467467
0.472852
0.476943
0.480041
0.482561
0.485371
0.487651
0.523281
0.532148
0.536792
0.542358
0.545868
0.550807
0.552319
0.556438
0.556668
0.558339
0.519673
0.528938
0.533392
0.538942
0.542476
0.547434
0.549055
0.553183
0.553527
0.555199
0.515677
0.525594
0.529846
0.535394
0.538972
0.543968
0.545716
0.549871
0.550341
0.552023
0.511262
0.522073
0.526142
0.531705
0.535353
0.540401
0.5423
0.546494
0.547105
0.548801
0.506425
0.518324
0.52227
0.527869
0.531616
0.536729
0.538805
0.543044
0.543812
0.545524
0.501211
0.514296
0.518225
0.52388
0.52776
0.532948
0.53523
0.539511
0.540458
0.542185
0.495705
0.509923
0.513988
0.519726
0.523777
0.529052
0.531572
0.535888
0.537037
0.538774
0.489914
0.504975
0.509411
0.515306
0.5196
0.524997
0.527803
0.532155
0.533536
0.535278
0.484027
0.499227
0.504352
0.510523
0.515174
0.520749
0.52391
0.528296
0.529949
0.53169
0.480385
0.494425
0.500041
0.506272
0.511188
0.516741
0.5202
0.524455
0.526358
0.528021
0.482905
0.491431
0.495776
0.500491
0.504815
0.509018
0.512481
0.515733
0.517923
0.519127
0.454854
0.464895
0.471703
0.478559
0.484767
0.490273
0.494811
0.498657
0.501495
0.502925
0.423726
0.435198
0.443667
0.452338
0.460463
0.467723
0.473502
0.478541
0.481982
0.483786
0.387697
0.40088
0.410992
0.421473
0.431505
0.440503
0.447745
0.454131
0.458603
0.461097
0.345413
0.360365
0.372297
0.38469
0.396634
0.407337
0.416036
0.423474
0.428448
0.43073
0.295024
0.312178
0.326145
0.34051
0.354331
0.36673
0.376979
0.385958
0.392829
0.396639
0.238358
0.256864
0.272551
0.28832
0.303428
0.316992
0.328157
0.337181
0.342844
0.345114
0.169167
0.190219
0.207537
0.224263
0.239893
0.25385
0.265561
0.276104
0.285624
0.290942
0.0993186
0.118722
0.135958
0.15096
0.164125
0.175382
0.18384
0.190366
0.194982
0.198006
0.0137471
0.0330887
0.0462159
0.0572424
0.0672317
0.0765835
0.084144
0.0912408
0.0946261
0.0963425
0.464681
0.438611
0.408095
0.370732
0.327632
0.275508
0.220619
0.14834
0.0894482
-0.00650835
0.460234
0.432086
0.401073
0.363107
0.319617
0.266993
0.212538
0.139072
0.0840507
-0.0155887
0.454458
0.425035
0.393648
0.355274
0.311448
0.258518
0.204281
0.129989
0.0783014
-0.0246061
0.448292
0.418494
0.386765
0.347996
0.303765
0.250532
0.196232
0.121312
0.0724591
-0.0336785
0.442364
0.412631
0.380501
0.341303
0.29659
0.243039
0.188412
0.113052
0.0665006
-0.0431686
0.437052
0.407548
0.37495
0.335266
0.289994
0.23609
0.180895
0.105294
0.0602907
-0.0541147
0.432693
0.403374
0.370234
0.329986
0.284071
0.229754
0.173793
0.0982109
0.0536889
-0.0677275
0.42957
0.400232
0.366468
0.32556
0.278908
0.224094
0.167231
0.0920106
0.0470187
-0.0807668
0.427896
0.398233
0.363751
0.322074
0.274585
0.21917
0.161312
0.086765
0.0412025
-0.0801604
0.427804
0.397464
0.362161
0.319603
0.271169
0.215026
0.156097
0.0823726
0.0364397
-0.0678588
0.42936
0.397987
0.361754
0.318205
0.268715
0.211699
0.151612
0.0787069
0.0326458
-0.0578612
0.432562
0.39984
0.362575
0.317935
0.267278
0.20923
0.147875
0.0756302
0.0297613
-0.0507248
0.437337
0.403067
0.364665
0.31885
0.266912
0.207659
0.144925
0.0729544
0.0263841
-0.0441114
0.44357
0.407688
0.36804
0.320983
0.267647
0.207007
0.14276
0.0706334
0.023048
-0.0384655
0.451096
0.413608
0.372611
0.324248
0.269402
0.207218
0.141232
0.0689031
0.019906
-0.0338922
0.459593
0.420567
0.378139
0.328447
0.272025
0.208165
0.140257
0.0675529
0.0171976
-0.0301088
0.468743
0.428506
0.38472
0.333792
0.275833
0.210209
0.14019
0.0666514
0.0149328
-0.0268881
0.479034
0.438551
0.393668
0.341672
0.282225
0.214643
0.142018
0.0667411
0.0131752
-0.0240767
0.491164
0.451587
0.405722
0.352623
0.291546
0.221684
0.145877
0.068054
0.0119622
-0.0214412
0.499473
0.460765
0.413669
0.359176
0.296389
0.224682
0.146792
0.0681438
0.0107564
-0.0186044
0.499891
0.4637
0.415037
0.358033
0.292358
0.218498
0.139682
0.0635334
0.00798501
-0.0117765
0.510659
0.472902
0.422553
0.361647
0.290268
0.210174
0.126622
0.0506757
0.00136178
-0.0086278
0.520176
0.482582
0.431483
0.367448
0.290678
0.204425
0.116929
0.0428145
0.00125013
-0.00455505
0.531767
0.495381
0.444068
0.377037
0.294289
0.200954
0.10937
0.0382189
0.0042342
-0.000520936
0.546194
0.51201
0.461167
0.391216
0.301813
0.20088
0.106135
0.0394605
0.011037
0.00334655
0.563503
0.532274
0.482626
0.410266
0.314528
0.206753
0.110345
0.0486043
0.0221949
0.00739578
0.581317
0.55418
0.508292
0.436734
0.337582
0.224594
0.126414
0.0668141
0.0372715
0.0120784
0.599236
0.579868
0.54193
0.475668
0.375679
0.256818
0.153789
0.0914252
0.0541393
0.0176007
0.619406
0.607308
0.578506
0.51941
0.419964
0.295653
0.186696
0.118091
0.070096
0.0235208
0.628123
0.621735
0.600031
0.54767
0.451187
0.324979
0.212178
0.137835
0.0817412
0.0280333
0.535668
0.540217
0.545709
0.554133
0.565359
0.578719
0.594307
0.605071
0.622807
0.627419
0.546032
0.549291
0.554225
0.561881
0.572279
0.584215
0.598831
0.607434
0.623651
0.626914
0.553697
0.555638
0.560508
0.567798
0.577746
0.588661
0.602135
0.609694
0.623837
0.626365
0.560609
0.561377
0.565973
0.572783
0.582207
0.59219
0.604561
0.611341
0.62362
0.625655
0.566801
0.566772
0.571
0.577247
0.586058
0.595109
0.606457
0.612434
0.623176
0.62477
0.572068
0.571547
0.575431
0.581142
0.589344
0.597503
0.607914
0.613109
0.622551
0.62375
0.576426
0.575628
0.579194
0.584422
0.592049
0.599389
0.608945
0.613437
0.62176
0.622626
0.579956
0.579057
0.582327
0.587118
0.594205
0.600801
0.609586
0.613458
0.620824
0.621417
0.582742
0.581879
0.584886
0.589282
0.595867
0.601791
0.609883
0.613211
0.619764
0.620137
0.584877
0.584137
0.586925
0.590966
0.597089
0.602409
0.609882
0.612733
0.618599
0.618796
0.586464
0.585885
0.5885
0.592223
0.597923
0.602702
0.609623
0.612059
0.617343
0.617402
0.587603
0.587179
0.58967
0.593104
0.598419
0.602716
0.609141
0.611218
0.616006
0.615958
0.588394
0.588082
0.590495
0.593663
0.598625
0.602492
0.608471
0.610238
0.6146
0.614469
0.58892
0.588658
0.591029
0.593952
0.598589
0.602073
0.607642
0.609141
0.613132
0.612938
0.589243
0.588969
0.591323
0.59402
0.598351
0.601494
0.606683
0.60795
0.611609
0.611367
0.589405
0.589074
0.591422
0.593912
0.59795
0.600789
0.605618
0.606683
0.610037
0.609759
0.589437
0.589042
0.591371
0.593673
0.597423
0.599989
0.604471
0.605357
0.608422
0.608116
0.589364
0.588931
0.591201
0.593327
0.596794
0.599108
0.603261
0.603985
0.606771
0.60644
0.589049
0.58869
0.590858
0.592841
0.596034
0.598134
0.601977
0.602572
0.605083
0.604735
0.588069
0.588248
0.590386
0.592326
0.595214
0.59718
0.600628
0.601156
0.603345
0.603011
0.585784
0.58825
0.590481
0.592388
0.59424
0.595837
0.597721
0.597975
0.599149
0.598924
0.586697
0.587978
0.589349
0.590391
0.591089
0.591657
0.592458
0.591699
0.592253
0.591667
0.586992
0.587405
0.587919
0.588028
0.587637
0.587021
0.586885
0.584907
0.58487
0.583743
0.586314
0.586033
0.585802
0.585122
0.58377
0.581995
0.580863
0.577677
0.576768
0.575033
0.585062
0.584072
0.58306
0.581585
0.579312
0.576302
0.574131
0.56967
0.567585
0.565077
0.583472
0.581899
0.580129
0.577822
0.574587
0.570164
0.566728
0.560839
0.556936
0.553344
0.581475
0.579584
0.577151
0.573995
0.56974
0.563757
0.558563
0.551001
0.544596
0.538598
0.57919
0.577379
0.574368
0.570322
0.564849
0.557355
0.549691
0.539303
0.529413
0.517553
0.577629
0.576139
0.5727
0.567893
0.561173
0.552374
0.541692
0.526545
0.513957
0.491597
0.580192
0.578169
0.574697
0.570301
0.564222
0.556168
0.546057
0.534425
0.511362
0.41484
0.581104
0.58347
0.584423
0.584652
0.584411
0.583841
0.583126
0.582735
0.582668
0.583759
0.57918
0.582793
0.583925
0.584437
0.584447
0.584124
0.583658
0.583547
0.583809
0.584482
0.578079
0.582736
0.583925
0.5846
0.584712
0.584504
0.584092
0.583938
0.584192
0.584497
0.577393
0.582673
0.58395
0.584797
0.58503
0.584852
0.584496
0.584275
0.584457
0.584479
0.576879
0.582524
0.583947
0.584976
0.585325
0.585192
0.584872
0.584591
0.584708
0.584567
0.576494
0.58234
0.583968
0.585171
0.585621
0.585531
0.585218
0.584862
0.584898
0.58468
0.576222
0.582132
0.584023
0.585392
0.585928
0.585876
0.585543
0.585089
0.585021
0.584762
0.576057
0.581883
0.584105
0.585631
0.586256
0.586233
0.58586
0.585294
0.585096
0.584812
0.575936
0.581563
0.584231
0.585889
0.586608
0.586611
0.586183
0.585491
0.585149
0.584842
0.575797
0.581224
0.584364
0.586167
0.58699
0.587019
0.586527
0.585698
0.5852
0.584865
0.575618
0.580854
0.584495
0.586465
0.587406
0.587467
0.586907
0.585935
0.585267
0.584899
0.57537
0.580449
0.584619
0.586783
0.58786
0.587965
0.587339
0.586219
0.585369
0.584968
0.57501
0.580007
0.584724
0.58712
0.588356
0.588522
0.587838
0.586569
0.585524
0.585101
0.574492
0.579529
0.584796
0.587469
0.588893
0.589144
0.588416
0.587
0.585746
0.585331
0.573763
0.579011
0.584818
0.587823
0.589468
0.589835
0.589086
0.587528
0.586049
0.585691
0.572774
0.578452
0.584775
0.588172
0.590078
0.590597
0.589855
0.588167
0.586441
0.586218
0.57149
0.577852
0.58466
0.588507
0.590715
0.591428
0.590729
0.58892
0.58692
0.586944
0.569839
0.577193
0.58446
0.588817
0.591375
0.592327
0.591707
0.589761
0.587418
0.587894
0.567525
0.576328
0.584085
0.589037
0.59202
0.593278
0.592789
0.590682
0.58789
0.589074
0.564611
0.575105
0.583424
0.589036
0.592528
0.594196
0.594026
0.592053
0.589082
0.59067
0.559808
0.571916
0.581436
0.588439
0.59325
0.596201
0.597608
0.597823
0.597187
0.597231
0.565744
0.576294
0.585315
0.592602
0.597932
0.601425
0.603275
0.603784
0.603432
0.60248
0.571097
0.581056
0.589931
0.597606
0.603523
0.607664
0.610037
0.610794
0.61033
0.608534
0.575882
0.585686
0.594804
0.603068
0.609781
0.614798
0.617939
0.619137
0.618743
0.616516
0.580529
0.590658
0.600213
0.6092
0.616875
0.622896
0.627029
0.628963
0.628766
0.626405
0.585727
0.596063
0.60631
0.616397
0.625668
0.633231
0.638688
0.641071
0.641129
0.639935
0.588714
0.599765
0.610689
0.621742
0.632543
0.643214
0.651239
0.655476
0.658031
0.66104
0.593261
0.604621
0.616594
0.629407
0.642453
0.655439
0.66724
0.675461
0.683772
0.703965
0.594546
0.606601
0.619178
0.632711
0.648854
0.666225
0.683726
0.69774
0.717697
0.788781
0.596563
0.60883
0.622344
0.637997
0.655639
0.677912
0.704649
0.73723
0.809693
0.981355
0.549606
0.558111
0.563519
0.569358
0.573437
0.579574
0.581189
0.586639
0.586765
0.589063
0.546044
0.555416
0.56083
0.566882
0.570868
0.577012
0.578364
0.583806
0.583666
0.585934
0.543939
0.553662
0.558908
0.564858
0.568721
0.57452
0.57582
0.58092
0.58075
0.58286
0.541821
0.55165
0.556785
0.562649
0.566402
0.571927
0.573185
0.577995
0.577828
0.579805
0.539544
0.549273
0.554358
0.56018
0.563849
0.569195
0.570423
0.575029
0.574867
0.576755
0.537213
0.546702
0.551756
0.557539
0.561144
0.566352
0.567576
0.572025
0.571886
0.573708
0.534805
0.544004
0.549028
0.554762
0.558319
0.563417
0.564663
0.568986
0.568891
0.570659
0.53226
0.541188
0.546169
0.551854
0.555378
0.560395
0.561682
0.565911
0.565876
0.567604
0.529524
0.538267
0.543177
0.548814
0.55232
0.557285
0.558631
0.562797
0.562838
0.564535
0.526548
0.535254
0.540051
0.545648
0.549149
0.554089
0.55551
0.55964
0.55977
0.561449
0.430435
0.447987
0.456277
0.463072
0.468228
0.471945
0.47448
0.476045
0.47664
0.474347
0.425303
0.443834
0.452136
0.458775
0.46365
0.466963
0.46896
0.46979
0.469313
0.466431
0.420796
0.440076
0.448305
0.454736
0.459309
0.462229
0.463754
0.464035
0.463029
0.460232
0.417153
0.436883
0.444954
0.451136
0.455397
0.45794
0.459037
0.458853
0.45745
0.454662
0.414621
0.434442
0.442272
0.448171
0.452116
0.454301
0.455005
0.454409
0.452651
0.449742
0.413437
0.432945
0.440451
0.446036
0.449666
0.451512
0.451847
0.450868
0.448753
0.445607
0.413816
0.432575
0.439678
0.444923
0.448237
0.449756
0.44974
0.448389
0.445905
0.442439
0.415951
0.433514
0.440132
0.445006
0.447999
0.449197
0.448838
0.447121
0.444263
0.440432
0.419978
0.435917
0.441968
0.446435
0.449091
0.449965
0.449267
0.447193
0.443967
0.439759
0.425798
0.439807
0.445248
0.449284
0.451592
0.452139
0.451106
0.44869
0.445119
0.440551
0.432965
0.444994
0.449898
0.453533
0.455504
0.455733
0.45438
0.451646
0.447768
0.442881
0.442393
0.451993
0.456217
0.459351
0.460917
0.46079
0.459104
0.456065
0.451922
0.446771
0.453766
0.46061
0.464062
0.466622
0.46773
0.467219
0.465198
0.461875
0.457516
0.452171
0.466788
0.470675
0.473294
0.475215
0.475817
0.474896
0.472536
0.468948
0.464426
0.458966
0.481213
0.482022
0.483748
0.484964
0.485008
0.483648
0.480945
0.477107
0.472472
0.466986
0.496742
0.494425
0.495201
0.49565
0.495088
0.493266
0.490212
0.486132
0.48142
0.475983
0.513016
0.507608
0.507389
0.507019
0.505814
0.503508
0.500102
0.495784
0.490996
0.485625
0.529644
0.521254
0.520015
0.518793
0.516921
0.514123
0.510366
0.505797
0.500846
0.495512
0.546218
0.535026
0.532766
0.530684
0.528146
0.524866
0.520769
0.515882
0.510485
0.505065
0.562316
0.548577
0.54533
0.542412
0.539247
0.535544
0.531188
0.525988
0.519874
0.513983
0.577579
0.561595
0.557416
0.553713
0.54999
0.545986
0.541598
0.536491
0.530308
0.526775
0.59184
0.573834
0.568758
0.564322
0.560109
0.555879
0.551539
0.546815
0.541572
0.539143
0.604597
0.584947
0.579077
0.573992
0.569354
0.564933
0.560615
0.556182
0.551582
0.54935
0.615546
0.594699
0.588171
0.582541
0.577549
0.572976
0.568681
0.564475
0.560311
0.558102
0.624512
0.602934
0.595899
0.589844
0.584584
0.579907
0.575653
0.571653
0.56784
0.565639
0.631406
0.609557
0.60218
0.595832
0.5904
0.585679
0.581497
0.577697
0.574196
0.572016
0.636215
0.614534
0.606987
0.600489
0.594989
0.590295
0.586222
0.582631
0.579426
0.577299
0.638999
0.617889
0.610345
0.603842
0.598384
0.59379
0.589873
0.586507
0.583596
0.58156
0.639881
0.619694
0.612318
0.605954
0.600647
0.596231
0.59252
0.5894
0.586781
0.584877
0.639058
0.620072
0.613014
0.60692
0.60187
0.597707
0.59425
0.591399
0.589075
0.587338
0.636827
0.619208
0.612581
0.606871
0.602169
0.598327
0.59517
0.592611
0.590581
0.589042
0.633301
0.617205
0.611119
0.605899
0.601634
0.59818
0.595372
0.593128
0.591397
0.590087
0.628713
0.614244
0.608785
0.604145
0.600392
0.597385
0.594966
0.593061
0.59163
0.59057
0.623299
0.610504
0.605736
0.601743
0.598563
0.59605
0.594055
0.592509
0.591379
0.590584
0.617271
0.606152
0.602113
0.598817
0.596256
0.594276
0.592735
0.591564
0.590733
0.590211
0.610821
0.601339
0.598051
0.59548
0.593572
0.592154
0.59109
0.590309
0.589775
0.589523
0.604123
0.596207
0.593669
0.591839
0.590601
0.589765
0.589196
0.58882
0.588582
0.588585
0.597327
0.590879
0.589076
0.587983
0.587423
0.587181
0.58712
0.587164
0.587225
0.587463
0.590559
0.585464
0.584367
0.583995
0.584106
0.58446
0.584913
0.585388
0.585769
0.586225
0.583928
0.580056
0.579622
0.579942
0.580708
0.581654
0.582623
0.583558
0.584392
0.585128
0.577493
0.574717
0.574896
0.575868
0.577265
0.578791
0.580282
0.581768
0.583527
0.584965
0.571165
0.569446
0.57022
0.571812
0.573802
0.57586
0.577796
0.57961
0.581534
0.582856
0.565103
0.564341
0.56566
0.567821
0.570357
0.572907
0.575256
0.577373
0.579419
0.580755
0.559359
0.559455
0.561254
0.563932
0.566972
0.569986
0.572743
0.575193
0.577458
0.578972
0.553962
0.5548
0.557025
0.560169
0.563674
0.567126
0.570279
0.573071
0.575593
0.577358
0.548914
0.550385
0.552987
0.556547
0.560479
0.56434
0.567874
0.571
0.573791
0.575851
0.544207
0.546216
0.549148
0.553078
0.557392
0.561632
0.565527
0.568977
0.572037
0.574423
0.539822
0.542284
0.545504
0.549758
0.554414
0.558999
0.563229
0.566986
0.570296
0.572954
0.535738
0.538575
0.542045
0.54658
0.551536
0.55643
0.560967
0.565011
0.568558
0.571478
0.532034
0.535121
0.538784
0.543547
0.548755
0.553916
0.558727
0.563033
0.566801
0.569997
0.528945
0.532061
0.535798
0.540697
0.546084
0.551455
0.556495
0.561032
0.564998
0.568465
0.525843
0.529062
0.532902
0.53793
0.543471
0.54902
0.554257
0.558994
0.563132
0.566847
0.522838
0.52619
0.530127
0.535258
0.540916
0.546602
0.552
0.556905
0.561185
0.565121
0.519985
0.523469
0.527481
0.532681
0.538416
0.544197
0.549713
0.554753
0.559145
0.563271
0.517265
0.520882
0.52495
0.530189
0.535963
0.541799
0.547395
0.552532
0.557001
0.561281
0.514658
0.518411
0.522521
0.527775
0.533556
0.539407
0.545043
0.55024
0.554749
0.559137
0.512149
0.516043
0.520186
0.525435
0.531193
0.537026
0.542662
0.547881
0.552389
0.556831
0.509727
0.513766
0.517938
0.523167
0.528878
0.53466
0.540262
0.545467
0.549929
0.55435
0.507383
0.511573
0.51577
0.520968
0.526614
0.532319
0.53785
0.542996
0.547343
0.551579
0.505116
0.509457
0.513679
0.518839
0.524408
0.530018
0.535448
0.540505
0.544735
0.548571
0.502902
0.5074
0.511648
0.516771
0.522257
0.527772
0.533113
0.538218
0.543139
0.547281
0.500617
0.505343
0.509651
0.514753
0.520157
0.525557
0.530764
0.535739
0.540651
0.544722
0.498343
0.50332
0.507704
0.512791
0.518108
0.523375
0.528422
0.533218
0.537925
0.541841
0.496092
0.501328
0.5058
0.510882
0.516113
0.52124
0.526121
0.530737
0.535225
0.538957
0.49384
0.499346
0.503922
0.509015
0.514171
0.519158
0.523866
0.52829
0.532544
0.536089
0.491555
0.497349
0.502052
0.507177
0.51227
0.517125
0.521657
0.525875
0.529879
0.53324
0.489201
0.495309
0.500164
0.505345
0.510397
0.515131
0.519491
0.523498
0.527243
0.530417
0.486733
0.493191
0.498228
0.503493
0.508527
0.513159
0.517357
0.521155
0.524643
0.527619
0.484105
0.490957
0.496206
0.501587
0.506629
0.511183
0.515235
0.518836
0.522074
0.52484
0.481317
0.488593
0.494075
0.499595
0.504672
0.50917
0.513097
0.516516
0.519521
0.522064
)
;

boundaryField
{
    inlet
    {
        type            zeroGradient;
    }
    outlet
    {
        type            fixedValue;
        value           uniform 0;
    }
    cylinder
    {
        type            zeroGradient;
    }
    top
    {
        type            symmetryPlane;
    }
    bottom
    {
        type            symmetryPlane;
    }
    defaultFaces
    {
        type            empty;
    }
}


// ************************************************************************* //
