/*--------------------------------*- C++ -*----------------------------------*\
  =========                 |
  \\      /  F ield         | OpenFOAM: The Open Source CFD Toolbox
   \\    /   O peration     | Website:  https://openfoam.org
    \\  /    A nd           | Version:  7
     \\/     M anipulation  |
\*---------------------------------------------------------------------------*/
FoamFile
{
    version     2.0;
    format      ascii;
    class       surfaceScalarField;
    location    "2";
    object      phi;
}
// * * * * * * * * * * * * * * * * * * * * * * * * * * * * * * * * * * * * * //

dimensions      [0 3 -1 0 0 0 0];

internalField   nonuniform List<scalar> 
3880
(
0.00019244
0.00266166
-0.0028541
0.000806191
0.00575452
-0.00636827
0.0018097
0.0077767
-0.00878021
0.00315133
0.00917354
-0.0105152
0.00476857
0.0101945
-0.0118117
0.00659376
0.0109883
-0.0128135
0.00855803
0.011651
-0.0136153
0.0105936
0.012249
-0.0142846
0.0126341
0.0128305
-0.014871
0.0134306
0.014612
-0.0154085
0.000208835
0.00245283
0.000874542
0.00508882
0.00196424
0.006687
0.00342557
0.00771222
0.00519575
0.00842431
0.00720665
0.00897742
0.00938814
0.00946953
0.0116698
0.00996741
0.0139801
0.0105202
0.0111675
0.0162431
0.000231194
0.00222163
0.000959895
0.00436012
0.00214824
0.00549865
0.00374092
0.00611954
0.00567366
0.00649157
0.00787767
0.00677341
0.0102824
0.00706477
0.0128167
0.00743317
0.0154065
0.00793037
0.00860439
0.0179696
0.000260803
0.00196083
0.00106531
0.00355561
0.00236643
0.00419753
0.00410317
0.0043828
0.00620803
0.00438671
0.00861083
0.00437061
0.0112412
0.00443439
0.0140291
0.00464533
0.0169012
0.00505818
0.00573294
0.0197727
0.000298687
0.00166215
0.00119311
0.00266119
0.00262245
0.00276819
0.00451685
0.00248839
0.00680333
0.00210024
0.00940894
0.00176499
0.0122633
0.00157999
0.0152992
0.00160948
0.018448
0.00190941
0.002554
0.0216269
0.000345627
0.00131652
0.00134481
0.001662
0.00291826
0.00119475
0.004984
0.000422643
0.00746091
-0.00037667
0.0102712
-0.00104531
0.0133434
-0.00149224
0.0166138
-0.00166087
0.0200222
-0.00149901
-0.000918664
0.0234949
0.000401911
0.000914611
0.00152033
0.000543584
0.00325283
-0.00053775
0.00550218
-0.0018267
0.00817645
-0.00305094
0.0111905
-0.00405938
0.0144694
-0.00477117
0.0179519
-0.00514331
0.021589
-0.00513609
-0.0046539
0.0253242
0.00046715
0.000447461
0.00171744
-0.000706702
0.00362101
-0.00244133
0.00606268
-0.00426836
0.00893763
-0.00592589
0.012151
-0.00727276
0.015621
-0.00824119
0.0192846
-0.00880691
0.0231038
-0.00895525
-0.00860459
0.0270545
0.00054013
-9.26676e-05
0.00193133
-0.00209791
0.00401257
-0.00452256
0.00664889
-0.00690469
0.00972212
-0.00899912
0.0131274
-0.0106781
0.016774
-0.0118878
0.020589
-0.0126219
0.0245319
-0.0128982
-0.0127208
0.0286481
0.000618714
-0.000711381
0.00215435
-0.00363354
0.00441144
-0.00677965
0.00723463
-0.00972788
0.0104943
-0.0122588
0.0140811
-0.0142649
0.0179044
-0.0157111
0.0218883
-0.0166057
0.0259637
-0.0169736
0.0301203
-0.0168774
0.0164031
0.0561563
-0.0579474
0.0168886
0.0628648
-0.0633504
0.0161912
0.0698234
-0.069126
0.0146943
0.0762381
-0.0747411
0.0127262
0.0820016
-0.0800336
0.0103995
0.0870414
-0.0847147
0.00793615
0.0910779
-0.0886145
0.00532208
0.0950103
-0.0923962
0.00263577
0.0984076
-0.0957213
0.103321
-0.100685
0.018256
0.0541434
0.0188361
0.0622847
0.0181244
0.0705351
0.0165171
0.0778453
0.0143612
0.0841575
0.011782
0.0896206
0.00901573
0.0938442
0.0060568
0.0979692
0.00299976
0.101465
0.106321
0.0201569
0.0519562
0.0208092
0.0616323
0.0200853
0.071259
0.0183738
0.0795569
0.0160376
0.0864937
0.013206
0.0924522
0.0101382
0.0969119
0.0068254
0.101282
0.00338833
0.104902
0.109709
0.0220828
0.049646
0.0227834
0.0609317
0.0220524
0.0719901
0.0202473
0.081362
0.0177434
0.0889976
0.0146638
0.0955319
0.0113001
0.100276
0.00762691
0.104955
0.00380191
0.108727
0.113511
0.0240084
0.0472646
0.0247324
0.0602077
0.024001
0.0727215
0.0221172
0.0832457
0.0194633
0.0916515
0.0161447
0.0988505
0.0124951
0.103925
0.0084583
0.108992
0.00423979
0.112945
0.117751
0.025901
0.0448584
0.0266266
0.0594821
0.0259034
0.0734447
0.0239595
0.0851896
0.0211779
0.0944332
0.0176344
0.102394
0.0137139
0.107846
0.00931398
0.113392
0.0046999
0.117559
0.122451
0.0277116
0.042471
0.0284272
0.0587665
0.0277258
0.074146
0.025745
0.0871704
0.0228631
0.0973151
0.0191143
0.106143
0.0149432
0.112017
0.0101852
0.11815
0.0051784
0.122566
0.127629
0.0293587
0.0401668
0.0300726
0.0580525
0.0294209
0.0747978
0.0274353
0.089156
0.024487
0.100263
0.0205591
0.110071
0.0161642
0.116412
0.011059
0.123255
0.00566928
0.127956
0.133298
0.0307693
0.0380456
0.0315122
0.0573097
0.0309501
0.0753599
0.0289968
0.0911093
0.026018
0.103242
0.0219404
0.114148
0.0173536
0.120999
0.0119179
0.128691
0.00616422
0.13371
0.139463
0.031969
0.036197
0.0328093
0.0564694
0.0323263
0.0758428
0.0304234
0.0930123
0.0274213
0.106244
0.0232234
0.118346
0.0184634
0.125759
0.0127331
0.134421
0.00664291
0.1398
0.146106
0.125981
0.0527718
-0.142556
0.111885
0.0705654
0.0987662
0.088962
0.0860267
0.105752
0.0728175
0.119453
0.0594622
0.131702
0.0452718
0.139949
0.0306997
0.148993
0.0156565
0.154843
0.161762
0.144702
0.0689196
-0.160849
0.129351
0.0859158
0.114653
0.10366
0.100021
0.120385
0.0847995
0.134674
0.0691539
0.147347
0.0525482
0.156555
0.0356554
0.165886
0.0183424
0.172156
0.180105
0.160977
0.0843202
-0.176378
0.145548
0.101345
0.130159
0.119049
0.114407
0.136137
0.0976734
0.151408
0.0800862
0.164934
0.0611648
0.175476
0.0417096
0.185341
0.0214596
0.192406
0.201564
0.177929
0.0988305
-0.192439
0.162549
0.116724
0.146529
0.135069
0.129606
0.15306
0.111331
0.169683
0.0916991
0.184567
0.0703526
0.196823
0.047942
0.207752
0.0244422
0.215906
0.226006
0.196339
0.112879
-0.210387
0.180883
0.13218
0.16422
0.151732
0.146131
0.171149
0.126239
0.189575
0.104451
0.206354
0.0806642
0.22061
0.0554219
0.232994
0.0286173
0.24271
0.254624
0.215721
0.126601
-0.229443
0.20031
0.147591
0.183283
0.168759
0.164293
0.190139
0.142923
0.210945
0.119
0.230278
0.0924051
0.247204
0.0634694
0.26193
0.0325056
0.273674
0.287129
0.238163
0.139993
-0.251555
0.222747
0.163008
0.205241
0.186265
0.185192
0.210188
0.161903
0.234233
0.134834
0.257347
0.103777
0.27826
0.0694048
0.296302
0.0342114
0.308867
0.321341
0.258438
0.152426
-0.270872
0.243939
0.177506
0.227635
0.202569
0.208596
0.229227
0.186096
0.256733
0.159946
0.283498
0.129982
0.308225
0.0955706
0.330714
0.0528079
0.35163
0.374149
0.284818
0.155207
-0.287599
0.274429
0.187895
0.257503
0.219495
0.234908
0.251822
0.206412
0.285229
0.171635
0.318274
0.130378
0.349481
0.0856268
0.375465
0.0410374
0.396219
0.415186
0.27461
-0.247578
0.287773
0.288614
0.278751
0.259191
0.229366
0.188939
0.135424
0.0712371
0.0386508
-0.148482
-0.0327247
0.0421992
-0.164398
0.0445954
-0.178774
0.0463973
-0.194241
0.0475849
-0.211575
0.0483886
-0.230247
0.0479581
-0.251124
0.0468808
-0.269794
0.0395222
-0.28024
-0.23426
0.0377751
-0.153474
-0.0327831
0.040882
-0.167505
0.043047
-0.180939
0.0446748
-0.195869
0.0457356
-0.212635
0.0464103
-0.230922
0.0458975
-0.250611
0.0444449
-0.268342
0.0364893
-0.272285
-0.220322
0.0365287
-0.15778
-0.032223
0.0392131
-0.170189
0.0411454
-0.182871
0.0426058
-0.197329
0.0435703
-0.2136
0.0441342
-0.231486
0.0435882
-0.250065
0.0417452
-0.266499
0.0333454
-0.263885
-0.205803
0.0347541
-0.16146
-0.0310741
0.0370483
-0.172483
0.0387643
-0.184587
0.0400855
-0.198651
0.0409928
-0.214507
0.0414983
-0.231991
0.0409589
-0.249526
0.0387822
-0.264322
0.0300403
-0.255143
-0.190835
0.032406
-0.164539
-0.0293268
0.0343362
-0.174414
0.035865
-0.186116
0.0370904
-0.199876
0.0379909
-0.215408
0.0384985
-0.232499
0.0380084
-0.249036
0.0355644
-0.261878
0.0266099
-0.246189
-0.175547
0.029469
-0.167037
-0.0269712
0.0310717
-0.176016
0.0324532
-0.187498
0.0336349
-0.201058
0.0345822
-0.216355
0.035152
-0.233068
0.0347499
-0.248634
0.032105
-0.259233
0.0231105
-0.237194
-0.160052
0.0259616
-0.16898
-0.0240182
0.0272839
-0.177339
0.028564
-0.188778
0.0297553
-0.202249
0.0308012
-0.217401
0.0314878
-0.233755
0.0312031
-0.248349
0.028406
-0.256436
0.0195999
-0.228388
-0.14449
0.0219299
-0.170407
-0.0205037
0.0230248
-0.178433
0.02425
-0.190003
0.0255013
-0.2035
0.0266922
-0.218592
0.0275442
-0.234607
0.0273977
-0.248203
0.0244708
-0.253509
0.0160436
-0.219961
-0.12925
0.0174418
-0.17136
-0.0164879
0.0183643
-0.179356
0.019577
-0.191216
0.0209321
-0.204855
0.0223074
-0.219967
0.0233677
-0.235667
0.0233831
-0.248218
0.0203812
-0.250507
0.0122105
-0.21179
-0.115329
0.0125842
-0.171891
-0.0120539
0.0133862
-0.180158
0.0146206
-0.19245
0.0161133
-0.206348
0.0177043
-0.221558
0.0190104
-0.236973
0.0192231
-0.248431
0.01627
-0.247554
0.00836678
-0.203887
-0.103226
0.00747005
-0.172044
-0.00731658
0.0081943
-0.180882
0.00947262
-0.193728
0.0111244
-0.208
0.0129515
-0.223385
0.0145341
-0.238556
0.0149882
-0.248885
0.0122101
-0.244776
0.00467744
-0.196354
-0.0927955
0.00217681
-0.171852
-0.0023691
0.00286479
-0.18157
0.00419702
-0.195061
0.00601714
-0.20982
0.00809305
-0.225461
0.00997856
-0.240441
0.0107264
-0.249633
0.00822899
-0.242279
0.000902219
-0.189027
-0.0840334
-0.00314202
-0.171358
0.00264828
-0.00249238
-0.18222
-0.001112
-0.196441
0.000872086
-0.211804
0.00319725
-0.227786
0.00540187
-0.242646
0.00648697
-0.250718
0.00438037
-0.240172
-0.00211246
-0.182535
-0.0761297
-0.00838469
-0.170578
0.00760448
-0.00778078
-0.182824
-0.00637029
-0.197852
-0.00424375
-0.213931
-0.00167705
-0.230353
0.000865475
-0.245189
0.00228591
-0.252138
0.000706623
-0.238593
-0.00506146
-0.176767
-0.0689544
-0.0134434
-0.169507
0.0123724
-0.0129156
-0.183352
-0.0115057
-0.199261
-0.0092666
-0.21617
-0.00647984
-0.23314
-0.00363089
-0.248038
-0.00179045
-0.253979
-0.00301946
-0.237364
-0.00808458
-0.171701
-0.0625209
-0.0182214
-0.168121
0.016836
-0.017822
-0.183751
-0.0164489
-0.200634
-0.0141362
-0.218482
-0.0111569
-0.236119
-0.00799423
-0.2512
-0.00574802
-0.256225
-0.00654222
-0.236569
-0.011069
-0.167175
-0.0567585
-0.0226143
-0.166406
0.0208993
-0.0223993
-0.183966
-0.0211025
-0.201931
-0.0187639
-0.220821
-0.0156322
-0.239251
-0.0121827
-0.25465
-0.00955823
-0.25885
-0.00990734
-0.23622
-0.0139716
-0.16311
-0.05158
-0.0264608
-0.164434
0.0244885
-0.0264921
-0.183935
-0.0253291
-0.203094
-0.0230332
-0.223117
-0.019814
-0.24247
-0.0161325
-0.258331
-0.0131703
-0.261812
-0.0131112
-0.236279
-0.0167741
-0.159448
-0.0468988
-0.0297363
-0.162264
0.0275658
-0.0301226
-0.183548
-0.0291716
-0.204045
-0.0269934
-0.225295
-0.0237523
-0.245711
-0.019886
-0.262197
-0.0166122
-0.265086
-0.0161692
-0.236722
-0.0194793
-0.156138
-0.0426419
-0.0327412
-0.159646
0.0301237
-0.0336025
-0.182687
-0.0329369
-0.204711
-0.0309342
-0.227298
-0.0276913
-0.248954
-0.0236223
-0.266266
-0.0199051
-0.268803
-0.0191012
-0.237526
-0.0219513
-0.153287
-0.038572
-0.0187319
-0.155129
0.0142153
-0.0224144
-0.179005
-0.0238044
-0.203321
-0.0234116
-0.227691
-0.0224172
-0.249948
-0.0246786
-0.264005
-0.0367172
-0.256764
-0.0639438
-0.2103
-0.0971944
-0.120037
-0.0192453
-0.0456893
-0.15107
0.0416302
-0.0483592
-0.176335
-0.0495933
-0.202087
-0.0494903
-0.227794
-0.0500648
-0.249374
-0.0564223
-0.257647
-0.0754832
-0.237703
-0.108397
-0.177386
-0.142533
-0.0859012
-0.00544425
-0.0705686
-0.146555
0.0660532
-0.074379
-0.172524
-0.0766821
-0.199784
-0.0780213
-0.226454
-0.0814391
-0.245956
-0.0931767
-0.24591
-0.118932
-0.211948
-0.155325
-0.140993
-0.186773
-0.0544537
0.00295493
-0.0966345
-0.140156
0.0902352
-0.102523
-0.166636
-0.106855
-0.195451
-0.110673
-0.222637
-0.118177
-0.238452
-0.136293
-0.227794
-0.168261
-0.17998
-0.20588
-0.103374
-0.231993
-0.0283407
0.00632788
-0.123406
-0.130469
0.11372
-0.132642
-0.1574
-0.140611
-0.187482
-0.148872
-0.214376
-0.162526
-0.224797
-0.187878
-0.202443
-0.224203
-0.143655
-0.259356
-0.0682206
-0.277984
-0.00971352
0.00591306
-0.150432
-0.116697
0.13666
-0.164962
-0.14287
-0.179046
-0.173398
-0.194559
-0.198864
-0.216485
-0.202871
-0.248631
-0.170296
-0.285819
-0.106466
-0.314514
-0.0395265
-0.324593
0.000366314
0.00334096
-0.177672
-0.0956868
0.156662
-0.199533
-0.121009
-0.222507
-0.150423
-0.248272
-0.173099
-0.279916
-0.171227
-0.317053
-0.13316
-0.351073
-0.0724466
-0.370665
-0.0199346
-0.373396
0.0030975
0.000479694
-0.201835
-0.0705802
0.176729
-0.232152
-0.0906921
-0.266861
-0.115715
-0.306196
-0.133764
-0.349544
-0.127879
-0.391155
-0.0915486
-0.420617
-0.042984
-0.431945
-0.0086068
-0.430313
0.00146557
-0.00122846
-0.214421
-0.0372171
0.181058
-0.255125
-0.0499882
-0.305161
-0.0656788
-0.363129
-0.075796
-0.421725
-0.0692825
-0.468136
-0.0451379
-0.492692
-0.0184278
-0.49812
-0.00317926
-0.496216
-0.000437833
-0.00128426
-0.217766
0.180549
-0.267754
-0.333433
-0.409229
-0.478512
-0.523649
-0.542077
-0.545256
-0.545694
-0.0375064
0.01945
0.0322717
-0.0408274
0.0449512
-0.0425474
0.0677732
-0.042613
0.0903008
-0.0407624
0.111869
-0.0369275
0.132825
-0.0308388
0.150573
-0.0220395
0.167929
-0.0117451
0.170763
0.168804
-0.0374392
0.0237052
0.0331841
-0.0400238
0.0475358
-0.0412026
0.068952
-0.0407677
0.0898659
-0.0385646
0.109666
-0.0344915
0.128752
-0.0285335
0.144615
-0.020072
0.159468
-0.0106623
0.161354
0.158142
-0.0371903
0.0274145
0.033481
-0.0391486
0.0494941
-0.0397853
0.0695886
-0.0388739
0.0889545
-0.0363444
0.107136
-0.0321171
0.124524
-0.0262497
0.138748
-0.018277
0.151495
-0.00960418
0.152681
0.148537
-0.0364747
0.03068
0.0332093
-0.0379331
0.0509525
-0.0381042
0.0697598
-0.0368012
0.0876515
-0.0340302
0.104365
-0.0297334
0.120228
-0.0240291
0.133044
-0.0165647
0.144031
-0.00861202
0.144728
0.139925
-0.0353104
0.0335432
0.0324473
-0.0363716
0.0520136
-0.0361651
0.0695533
-0.0345684
0.0860547
-0.0316457
0.101443
-0.0273631
0.115945
-0.021878
0.127559
-0.0149409
0.137094
-0.00767615
0.137464
0.132249
-0.0337765
0.0360523
0.0312674
-0.0345245
0.0527616
-0.0340181
0.069047
-0.0322171
0.0842538
-0.0292235
0.098449
-0.0250266
0.111748
-0.0198065
0.122339
-0.0134024
0.130689
-0.00679361
0.130855
0.125456
-0.0319428
0.038256
0.029739
-0.0324515
0.0532703
-0.0317181
0.0683136
-0.0297923
0.082328
-0.0267977
0.0954543
-0.0227447
0.107695
-0.0178248
0.117419
-0.0119483
0.124813
-0.00596505
0.124872
0.119491
-0.0298724
0.0401956
0.0279329
-0.0302051
0.053603
-0.0293134
0.0674218
-0.027333
0.0803477
-0.0243974
0.0925187
-0.020535
0.103833
-0.015941
0.112825
-0.0105806
0.119452
-0.00519281
0.119484
0.114298
-0.0276293
0.0419043
0.0259206
-0.0278377
0.0538113
-0.0268496
0.0664337
-0.0248744
0.0783725
-0.0220479
0.0896921
-0.0184122
0.100197
-0.0141621
0.108575
-0.0093024
0.114593
-0.00447966
0.114661
0.109818
-0.0252767
0.0434084
0.0237725
-0.0254015
0.0539361
-0.0243705
0.0654027
-0.022449
0.0764511
-0.0197716
0.0870147
-0.016389
0.0968144
-0.0124938
0.104679
-0.00811646
0.110215
-0.00382762
0.110372
0.10599
-0.022878
0.0447277
0.0215588
-0.0229498
0.0540079
-0.0219201
0.064373
-0.0200898
0.0746208
-0.0175917
0.0845166
-0.0144789
0.0937017
-0.0109431
0.101144
-0.00702587
0.106298
-0.00323795
0.106584
0.102753
-0.0204813
0.0458745
0.0193345
-0.0205198
0.0540465
-0.0195259
0.0633791
-0.0178139
0.0729088
-0.015517
0.0822197
-0.0126836
0.0908683
-0.00950758
0.0979675
-0.00602705
0.102818
-0.00270781
0.103265
0.100045
-0.0181369
0.046856
0.0171553
-0.0181518
0.0540614
-0.0172189
0.0624462
-0.0156434
0.0713333
-0.0135616
0.0801379
-0.0110099
0.0883166
-0.00818911
0.0951468
-0.00511904
0.0997476
-0.00223528
0.100381
0.0978095
-0.0158835
0.047675
0.0150646
-0.0158743
0.0540522
-0.0150189
0.0615907
-0.0135902
0.0699046
-0.0117309
0.0782785
-0.00945734
0.086043
-0.00698425
0.0926737
-0.00429727
0.0970606
-0.00181681
0.0979008
0.0959926
-0.0137504
0.0483314
0.013094
-0.0137072
0.054009
-0.0129371
0.0608206
-0.0116593
0.0686268
-0.0100244
0.0766437
-0.00802151
0.0840401
-0.00588648
0.0905387
-0.00355549
0.0947296
-0.00144855
0.0957939
0.0945441
-0.0117561
0.0488238
0.0112636
-0.0116615
0.0539145
-0.0109774
0.0601364
-0.00984941
0.0674989
-0.00843673
0.075231
-0.00669386
0.0822972
-0.00488659
0.0887314
-0.00288612
0.0927291
-0.00112675
0.0940345
0.0934173
-0.00990648
0.0491494
0.0095809
-0.00974033
0.0537483
-0.00913683
0.0595329
-0.00815423
0.0665163
-0.00695801
0.0740348
-0.00546278
0.080802
-0.00397309
0.0872417
-0.00228068
0.0910367
-0.000847917
0.0926017
0.0925694
-0.00819482
0.0493024
0.00804182
-0.00794111
0.0534946
-0.00740939
0.0590012
-0.00656517
0.0656721
-0.00557642
0.073046
-0.00431514
0.0795407
-0.00313308
0.0860597
-0.00173009
0.0896337
-0.000608692
0.0914804
0.0919607
-0.00661784
0.0492824
0.00663787
-0.00626395
0.0531407
-0.00579052
0.0585278
-0.00507385
0.0649554
-0.00428021
0.0722524
-0.00323669
0.0784972
-0.00235331
0.0851763
-0.00122447
0.0885049
-0.000405723
0.0906616
0.091555
-0.0051692
0.0490698
0.00538173
-0.0047026
0.0526741
-0.0042629
0.0580881
-0.00366889
0.0643614
-0.0030503
0.0716338
-0.00222097
0.0776679
-0.00161395
0.0845693
-0.000761175
0.0876521
-0.000232602
0.090133
0.0913224
-0.0634979
0.0405633
0.0720043
-0.0571583
0.0463346
-0.0514487
0.0523785
-0.0456066
0.0585193
-0.038857
0.0648842
-0.0316967
0.0705075
-0.0234735
0.0763461
-0.0153909
0.0795695
-0.00731785
0.08206
0.0840046
-0.0581925
0.0343123
0.0644436
-0.0522276
0.0403697
-0.046402
0.0465529
-0.0403837
0.052501
-0.033952
0.0584525
-0.0273552
0.0639106
-0.0201741
0.0691651
-0.01355
0.0729454
-0.00689552
0.0754055
0.077109
-0.0516579
0.0290759
0.0568942
-0.0463377
0.0350495
-0.0408112
0.0410265
-0.035074
0.0467638
-0.029085
0.0524635
-0.0231105
0.0579362
-0.0168224
0.0628769
-0.0112546
0.0673776
-0.00570833
0.0698592
0.0714007
-0.0454647
0.0245299
0.0500108
-0.0405176
0.0301023
-0.0351747
0.0356835
-0.0295774
0.0411665
-0.0238416
0.0467277
-0.0182656
0.0523602
-0.0126996
0.0573109
-0.00801395
0.0626919
-0.00381885
0.0656641
0.0675819
-0.0396575
0.020519
0.0436683
-0.0349804
0.0254253
-0.0297422
0.0304453
-0.0241484
0.0355727
-0.0184208
0.0410002
-0.0129775
0.0469169
-0.00791765
0.0522511
-0.0039312
0.0587055
-0.00145037
0.0631833
0.0661315
-0.0346093
0.0168009
0.0383274
-0.0300063
0.0208223
-0.0246709
0.0251099
-0.0188631
0.0297649
-0.0128469
0.0349839
-0.00712367
0.0411937
-0.00237807
0.0475055
0.00133681
0.0549906
0.00180487
0.0627153
0.0679364
-0.0315567
0.0131874
0.0351702
-0.0267333
0.0159989
-0.0209795
0.019356
-0.014573
0.0233585
-0.00779117
0.0282021
-0.000922687
0.0343252
0.00438606
0.0421968
0.00811777
0.0512589
0.00701354
0.0638195
0.0749499
-0.0370021
0.00905813
0.0411313
-0.0315125
0.0105093
-0.0249086
0.0127522
-0.0172998
0.0157497
-0.00883708
0.0197393
0.000432892
0.0250552
0.00861406
0.0340156
0.0151875
0.0446854
0.0146629
0.0643441
0.0896128
-0.0798259
0.00357285
0.0853111
-0.0735859
0.00426934
-0.0661613
0.00532756
-0.0571666
0.00675506
-0.0462615
0.00883418
-0.033471
0.0122647
-0.0181358
0.0186804
7.35165e-05
0.0264761
0.0129475
0.0514701
0.10256
-0.236638
0.240211
-0.232368
-0.227041
-0.220286
-0.211452
-0.199187
-0.180506
-0.15403
-0.10256
-0.00423428
0.0714623
0.00477627
-0.00302895
0.0632383
-0.00187977
0.055745
-0.000851137
0.0489822
-8.64211e-05
0.0429036
0.000340096
0.0379009
0.000244361
0.035266
-0.000770454
0.0421461
-0.00238129
0.086922
0.237829
-0.00340332
0.0710428
0.00382284
-0.00246433
0.0622993
-0.00151901
0.0547997
-0.000660566
0.0481237
-3.13758e-05
0.0422744
0.000297209
0.0375723
0.000161504
0.0354017
-0.000748879
0.0430565
-0.00213318
0.0883063
0.235696
-0.00260297
0.070754
0.00289177
-0.00189959
0.0615959
-0.0011589
0.054059
-0.000472829
0.0474377
3.16521e-05
0.0417699
0.000271088
0.0373329
0.000114532
0.0355582
-0.000685354
0.0438564
-0.00186388
0.0894848
0.233832
-0.00186691
0.0705861
0.00203488
-0.00138957
0.0611185
-0.000834487
0.0535039
-0.000304071
0.0469072
8.55564e-05
0.0413803
0.000265218
0.0371532
0.000109609
0.0357138
-0.000572441
0.0445385
-0.00156441
0.0904768
0.232268
-0.00122361
0.0705262
0.00128349
-0.000949248
0.0608442
-0.000555032
0.0531097
-0.000157325
0.0465095
0.000141784
0.0410812
0.000278809
0.0370162
0.00014221
0.0358504
-0.000417971
0.0450986
-0.00124123
0.0913
0.231027
-0.000682086
0.0705524
0.000655925
-0.000577341
0.0607394
-0.000317102
0.0528494
-2.83155e-05
0.0462207
0.000200611
0.0408523
0.000310769
0.036906
0.000206463
0.0359548
-0.00023142
0.0455365
-0.000901754
0.0919704
0.230125
-0.00024368
0.0706322
0.000163877
-0.000270788
0.0607665
-0.000116143
0.0526948
8.73494e-05
0.0460173
0.000262593
0.040677
0.000358802
0.0368098
0.000295685
0.0360179
-1.86081e-05
0.0458508
-0.000552014
0.0925038
0.229573
9.24238e-05
0.0707477
-0.000207921
-2.80099e-05
0.060887
5.31978e-05
0.0526136
0.000188126
0.0458823
0.000327237
0.0405379
0.000419103
0.036718
0.000402113
0.0360349
0.000201643
0.0460513
-0.000197694
0.0929031
0.229375
0.000328604
0.070885
-0.000465997
0.000175087
0.0610405
0.000193978
0.0525947
0.000280297
0.045796
0.000392592
0.0404256
0.000486567
0.036624
0.000518194
0.0360032
0.000432201
0.0461373
0.000157094
0.0931782
0.229532
0.000501306
0.0710089
-0.000625134
0.000334335
0.0612075
0.000313877
0.0526151
0.000363601
0.0457463
0.000455515
0.0403337
0.000555323
0.0365242
0.000635959
0.0359226
0.000661329
0.0461119
0.000506786
0.0933328
0.230039
0.00061455
0.0711051
-0.000710778
0.000459783
0.0613622
0.00041345
0.0526615
0.000435326
0.0457244
0.000510554
0.0402585
0.000618066
0.0364167
0.000746876
0.0357938
0.000880334
0.0459784
0.000845273
0.0933678
0.230884
0.000698955
0.0711711
-0.000764965
0.000570417
0.0614908
0.000501828
0.0527301
0.000497963
0.0457283
0.00055646
0.0402
0.000670896
0.0363022
0.000845921
0.0356188
0.00108443
0.0457399
0.00117023
0.093282
0.232055
0.000770285
0.0712126
-0.000811791
0.000672404
0.0615887
0.000580298
0.0528222
0.000548786
0.0457598
0.000588283
0.0401605
0.000707529
0.036183
0.000926386
0.0353999
0.00126675
0.0453996
0.00147583
0.093073
0.23353
0.000848032
0.0712451
-0.000880504
0.000774777
0.0616619
0.000653184
0.0529438
0.00058785
0.0458251
0.000603515
0.0401448
0.000723847
0.0360626
0.000983713
0.03514
0.00142259
0.0449607
0.00175767
0.0927379
0.235288
0.000952177
0.0712927
-0.00099981
0.00088728
0.0617268
0.000726078
0.053105
0.000616732
0.0459345
0.000601118
0.0401604
0.00071707
0.0359467
0.00101462
0.0348425
0.00154855
0.0444268
0.00201192
0.0922745
0.2373
0.00110472
0.0713861
-0.00119814
0.00102165
0.0618099
0.000806574
0.05332
0.000639121
0.0461019
0.000581886
0.0402177
0.000685881
0.0358427
0.00101696
0.0345114
0.00164248
0.0438012
0.00223549
0.0916815
0.239535
0.00133157
0.0715585
-0.00150389
0.00119289
0.0619485
0.000904855
0.0536081
0.000661241
0.0463455
0.000548716
0.0403302
0.000630392
0.035761
0.000989166
0.0341526
0.00170303
0.0430874
0.00242586
0.0909587
0.241961
0.00165919
0.0718436
-0.00194429
0.00141773
0.06219
0.0010326
0.0539932
0.000691407
0.0466867
0.000506478
0.0405151
0.000551718
0.0357158
0.000929087
0.0337753
0.00172879
0.0422877
0.00258014
0.0901073
0.244541
0.00210512
0.0722731
-0.00253469
0.00171015
0.062585
0.0011994
0.054504
0.000737573
0.0471485
0.000460635
0.040792
0.00045082
0.0357256
0.00083241
0.0333937
0.00171856
0.0414015
0.00269959
0.0891263
0.247241
0.00273065
0.0727914
-0.00324888
0.00208556
0.0632301
0.00141632
0.0551732
0.000810724
0.0477541
0.000421736
0.041181
0.000335316
0.035812
0.000703975
0.033025
0.00168931
0.0404162
0.00280562
0.08801
0.250047
-0.0474677
0.0606218
0.0596372
-0.0376257
0.0533881
-0.0299733
0.0475208
-0.0237094
0.0414902
-0.0183383
0.0358099
-0.0135567
0.0310304
-0.00936494
0.0288333
-0.00596395
0.0370152
-0.00351074
0.0855568
0.246536
-0.0506434
0.0512755
0.0599898
-0.0428251
0.0455697
-0.0357247
0.0404205
-0.0293076
0.0350731
-0.0234032
0.0299055
-0.0178305
0.0254577
-0.0125666
0.0235694
-0.00780678
0.0322554
-0.00365723
0.0814072
0.242879
-0.0541337
0.0431491
0.0622601
-0.047367
0.0388029
-0.0407013
0.0337548
-0.0342844
0.0286562
-0.0280001
0.0236212
-0.0216879
0.0191454
-0.0153039
0.0171854
-0.00908044
0.0260319
-0.00357945
0.0759062
0.239299
-0.058443
0.0363369
0.0652553
-0.0521033
0.0324632
-0.0456855
0.027337
-0.0392739
0.0222446
-0.0327192
0.0170665
-0.0258059
0.0122321
-0.0184093
0.00978882
-0.0107909
0.0184135
-0.00388591
0.0690012
0.235413
-0.0632333
0.0294946
0.0700756
-0.0570056
0.0262355
-0.0508064
0.0211378
-0.0445244
0.0159626
-0.037884
0.0104262
-0.0305536
0.00490167
-0.0223385
0.0015737
-0.0132741
0.00934912
-0.00473628
0.0604634
0.230677
-0.0675352
0.0239158
0.073114
-0.0618348
0.0205351
-0.0561917
0.0154946
-0.05046
0.010231
-0.0442209
0.00418699
-0.0366107
-0.00270851
-0.0274817
-0.00755531
-0.0167844
-0.00134816
-0.00651138
0.0501904
0.224166
-0.0724341
0.0173331
0.0790168
-0.0664494
0.0145504
-0.0610483
0.0100935
-0.0559196
0.00510232
-0.0510276
-0.000705048
-0.0450595
-0.0086766
-0.0368467
-0.0157681
-0.0264498
-0.011745
-0.0131953
0.0369358
0.21097
-0.0764253
0.0121302
0.0816282
-0.0714596
0.00958473
-0.0672793
0.00591326
-0.063629
0.00145193
-0.0597992
-0.00453483
-0.0558091
-0.0126667
-0.0501222
-0.0214551
-0.0410349
-0.0208323
-0.0251449
0.0210458
0.185826
-0.0803037
0.00602788
0.086406
-0.0752766
0.00455758
-0.071796
0.00243267
-0.0702624
-8.16368e-05
-0.0704636
-0.00433361
-0.0723746
-0.0107557
-0.0751178
-0.0187118
-0.0748394
-0.0211108
-0.062138
0.00834445
0.123688
-0.0840287
0.0900566
-0.0794711
-0.0770385
-0.0771201
-0.0814537
-0.0922094
-0.110921
-0.132032
-0.123688
0.00261211
0.0606033
-0.00357816
0.00174655
0.0608554
0.00114112
0.0628655
0.000603597
0.0657928
0.000313097
0.0703661
-0.000167859
0.073595
-6.10784e-05
0.07891
-0.00020528
0.0817724
2.17548e-05
0.086179
0.0900784
0.00362849
0.0614599
-0.00448513
0.00280119
0.0616827
0.00215073
0.063516
0.00153712
0.0664064
0.00111165
0.0707916
0.000570031
0.0741366
0.000456006
0.0790241
0.000167268
0.0820612
0.000209302
0.086137
0.0902877
0.00479998
0.06208
-0.0054201
0.0040362
0.0624464
0.00333456
0.0642176
0.00262045
0.0671205
0.00204446
0.0713675
0.00137593
0.0748051
0.00105323
0.0793468
0.000604219
0.0825102
0.000415168
0.086326
0.0907028
0.00600619
0.0624236
-0.00634975
0.00535525
0.0630974
0.00462823
0.0649446
0.00381571
0.0679331
0.00308529
0.072098
0.0022617
0.0756287
0.0017183
0.0798902
0.00107413
0.0831543
0.000637627
0.0867625
0.0913405
0.00723195
0.0624755
-0.00728385
0.00673994
0.0635894
0.00601321
0.0656714
0.00511091
0.0688354
0.00422202
0.0729869
0.00322713
0.0766236
0.00244612
0.0806712
0.00158267
0.0840178
0.000874964
0.0874702
0.0922154
0.00851269
0.0622149
-0.00825214
0.00820523
0.0638969
0.00749278
0.0663838
0.00650346
0.0698247
0.00545032
0.07404
0.00426759
0.0778063
0.00323368
0.0817051
0.00212737
0.0851241
0.00112698
0.0884706
0.0933424
0.00987923
0.0616271
-0.00929134
0.00976283
0.0640133
0.00906778
0.0670789
0.00798871
0.0709038
0.00676422
0.0752645
0.0053773
0.0791932
0.00407687
0.0830055
0.00270515
0.0864958
0.00139392
0.0897818
0.0947363
0.0113507
0.0607103
-0.010434
0.0114164
0.0639476
0.0107338
0.0677614
0.00955916
0.0720784
0.00815601
0.0766676
0.00655025
0.080799
0.0049714
0.0845844
0.00331382
0.0881534
0.00167661
0.0914191
0.0964129
0.0129343
0.0594762
-0.0117002
0.013163
0.063719
0.0124837
0.0684407
0.0112066
0.0733555
0.00961838
0.0782559
0.00778126
0.0826361
0.00591413
0.0864515
0.0039526
0.0901149
0.00197656
0.0933951
0.0983895
0.0146249
-0.0130961
0.0149935
0.0143082
0.0129226
0.0111449
0.00906635
0.00690333
0.00462204
0.00229582
0.000701339
-0.00141272
0.00237849
-0.00531069
0.00479766
-0.00919882
0.00778249
-0.0127127
0.0111944
-0.0156706
0.0149273
-0.0179978
0.0189105
-0.0196943
0.0231201
-0.0208153
0.027627
-0.0214805
-0.0219751
0.000778464
-0.00219118