/*--------------------------------*- C++ -*----------------------------------*\
  =========                 |
  \\      /  F ield         | OpenFOAM: The Open Source CFD Toolbox
   \\    /   O peration     | Website:  https://openfoam.org
    \\  /    A nd           | Version:  7
     \\/     M anipulation  |
\*---------------------------------------------------------------------------*/
FoamFile
{
    version     2.0;
    format      ascii;
    class       volVectorField;
    location    "2";
    object      U;
}
// * * * * * * * * * * * * * * * * * * * * * * * * * * * * * * * * * * * * * //

dimensions      [0 1 -1 0 0 0 0];

internalField   nonuniform List<vector> 
2000
(
(-0.000116061 0.0276455 -4.27624e-21)
(0.00563198 0.0610266 0)
(0.0179953 0.083782 0)
(0.0326916 0.100103 -2.87536e-20)
(0.0484202 0.112385 9.64882e-21)
(0.0640947 0.122047 1.5254e-22)
(0.0789479 0.130011 -1.80679e-20)
(0.0924782 0.136926 0)
(0.104374 0.143263 0)
(0.114306 0.149351 0)
(-0.00193695 0.0255796 0)
(0.00229853 0.0550247 -1.88891e-20)
(0.0144302 0.0747678 1.90228e-20)
(0.0295426 0.0888178 3.84271e-20)
(0.0460887 0.0995614 0)
(0.062821 0.108378 3.72442e-20)
(0.0788616 0.116141 -3.59725e-20)
(0.0936241 0.12345 0)
(0.106723 0.130745 6.77186e-20)
(0.117731 0.138345 -1.3944e-19)
(-0.00334205 0.0232424 0)
(0.000245054 0.048402 1.48752e-19)
(0.0129345 0.0649516 0)
(0.0290996 0.076616 1.52143e-19)
(0.046939 0.0857398 0)
(0.0650511 0.0936436 -1.47332e-19)
(0.082464 0.101145 0)
(0.0985321 0.1088 1.39544e-19)
(0.11283 0.117037 -1.34122e-19)
(0.124819 0.126188 -1.38108e-19)
(-0.00425535 0.0206218 -3.3743e-20)
(-0.000341573 0.041235 -7.47672e-20)
(0.0137697 0.0545353 -3.75739e-20)
(0.0316736 0.063821 -7.58723e-20)
(0.0513127 0.0713489 -7.45953e-20)
(0.0711406 0.0783527 7.3592e-20)
(0.0901101 0.0855801 7.12151e-20)
(0.107544 0.0935445 -7.26718e-22)
(0.123015 0.102679 1.33376e-19)
(0.135866 0.113356 1.3797e-19)
(-0.00458939 0.0177294 -3.30843e-20)
(0.000726209 0.033641 -7.40898e-20)
(0.0171765 0.0437691 -1.50835e-19)
(0.0375338 0.050813 7.48722e-20)
(0.0594893 0.0568856 0)
(0.0813649 0.0630967 0)
(0.102059 0.0701005 -1.42516e-19)
(0.120894 0.0783569 -1.37981e-19)
(0.137485 0.0883203 1.32435e-19)
(0.151061 0.100419 4.09057e-19)
(-0.00424256 0.0145816 3.31423e-20)
(0.00363884 0.025757 3.74998e-20)
(0.0233702 0.0329338 -2.21532e-19)
(0.0468909 0.0380107 3.73604e-19)
(0.0716578 0.0428927 -7.36358e-20)
(0.0958805 0.0485232 0)
(0.118428 0.0554293 0)
(0.138654 0.0639933 6.83613e-19)
(0.156271 0.0746922 -6.60081e-19)
(0.170413 0.0880248 1.35448e-19)
(-0.00310362 0.0112114 2.57352e-19)
(0.00857376 0.0177553 0)
(0.032515 0.022346 2.97284e-19)
(0.0598654 0.0258624 -2.9832e-19)
(0.0878797 0.0299366 0)
(0.114683 0.0353013 1.44557e-19)
(0.139144 0.042318 -4.18733e-19)
(0.160683 0.0512483 -5.44424e-19)
(0.17917 0.0625679 2.61445e-19)
(0.193706 0.0768513 2.69794e-19)
(-0.00105773 0.00767428 -5.11539e-19)
(0.0156809 0.00984497 -7.22612e-20)
(0.0447034 0.0123496 -1.45573e-19)
(0.0764611 0.0148247 -3.66617e-19)
(0.108059 0.01857 -1.46507e-19)
(0.137579 0.0240729 -1.42251e-19)
(0.163916 0.0314954 2.42205e-21)
(0.186591 0.040924 0)
(0.205708 0.0527734 0)
(0.220475 0.0676635 -2.22426e-22)
(0.00200446 0.00405435 2.54192e-19)
(0.0250633 0.00227407 -2.82546e-19)
(0.0599317 0.00330677 2.19007e-19)
(0.09654 0.00533733 5.12912e-19)
(0.131925 0.00928623 -1.43712e-19)
(0.164179 0.0153832 1.44747e-19)
(0.192262 0.023591 1.3947e-19)
(0.215791 0.033811 0)
(0.23512 0.0463581 0)
(0.249841 0.0617056 -2.0538e-21)
(0.00617618 0.000467173 -3.11748e-20)
(0.0367566 -0.00467271 3.53535e-19)
(0.0780764 -0.00441557 -7.14192e-20)
(0.1198 -0.00220574 0)
(0.159011 0.0024634 0)
(0.193921 0.00957312 2.81804e-19)
(0.223642 0.0189447 0)
(0.247935 0.03041 -2.64595e-19)
(0.267248 0.0442432 -1.33966e-21)
(0.281442 0.0603506 2.61698e-19)
(0.131002 0.162882 6.13214e-21)
(0.139691 0.180077 -6.23389e-21)
(0.140286 0.198207 -6.35066e-21)
(0.132307 0.215347 -6.44665e-21)
(0.116228 0.231121 -6.56877e-21)
(0.102554 0.244999 -9.35022e-24)
(0.0758893 0.256352 3.30647e-21)
(0.0637087 0.267371 1.01044e-20)
(0.0289507 0.277022 0)
(0.018386 0.291159 -6.85402e-21)
(0.136254 0.156399 2.40763e-20)
(0.14526 0.177437 -2.51372e-20)
(0.146276 0.199114 4.42298e-20)
(0.138156 0.218671 6.44953e-21)
(0.121575 0.235927 1.29538e-20)
(0.107182 0.250947 1.97312e-20)
(0.0796877 0.26284 -6.65046e-21)
(0.066326 0.274365 -6.72763e-21)
(0.0305525 0.284369 1.34401e-20)
(0.0185902 0.298348 6.83776e-21)
(0.144462 0.149043 0)
(0.152484 0.174125 -2.48632e-20)
(0.153335 0.19956 -1.26548e-20)
(0.144718 0.22172 0)
(0.127423 0.240616 -3.88872e-20)
(0.1122 0.256919 1.29071e-20)
(0.0837388 0.269452 1.30191e-20)
(0.0692216 0.281585 3.97507e-20)
(0.0322343 0.291982 -1.33876e-20)
(0.0189926 0.305773 2.6912e-20)
(0.15582 0.141054 0)
(0.161502 0.170265 2.49733e-20)
(0.161524 0.19957 0)
(0.152031 0.224489 5.10131e-20)
(0.133804 0.245159 -5.10896e-20)
(0.117631 0.262896 -2.59609e-20)
(0.0880663 0.276155 -1.27421e-22)
(0.0724211 0.289019 -3.94448e-20)
(0.0340164 0.299839 -6.57909e-21)
(0.0196062 0.313455 -3.33765e-20)
(0.170457 0.132695 1.04655e-21)
(0.17246 0.166005 -7.31438e-20)
(0.170896 0.199183 4.57363e-22)
(0.160118 0.226976 -5.02766e-20)
(0.14073 0.249529 0)
(0.123481 0.268855 -2.57217e-20)
(0.0926785 0.28291 -1.51026e-22)
(0.075935 0.296648 5.19343e-20)
(0.0359078 0.307919 6.51706e-21)
(0.0204382 0.32142 -6.55136e-21)
(0.188363 0.124256 -1.9332e-19)
(0.18547 0.161539 1.23068e-19)
(0.181481 0.198469 5.01571e-20)
(0.16898 0.229194 -4.99804e-20)
(0.148192 0.253708 -2.51349e-20)
(0.12973 0.274778 0)
(0.0975632 0.289679 -5.09268e-20)
(0.0797537 0.304457 2.54019e-20)
(0.0378992 0.316196 2.56008e-20)
(0.0214919 0.329689 2.5714e-20)
(0.209318 0.116039 -2.38484e-20)
(0.200556 0.1571 0)
(0.193268 0.197525 0)
(0.178584 0.231181 0)
(0.156151 0.257688 -2.51721e-20)
(0.136323 0.280652 4.99942e-20)
(0.102678 0.296425 5.04191e-20)
(0.0838398 0.31243 -7.55315e-20)
(0.03996 0.324643 1.26098e-20)
(0.022765 0.338283 -3.80067e-20)
(0.232822 0.108152 1.45191e-19)
(0.217582 0.152679 9.99519e-20)
(0.206171 0.196266 -9.88088e-20)
(0.188845 0.232846 9.97216e-20)
(0.164524 0.261371 -1.23404e-19)
(0.143154 0.286406 0)
(0.10794 0.303071 -2.46556e-20)
(0.0881154 0.320528 1.768e-22)
(0.0420305 0.333214 -2.46154e-20)
(0.0242477 0.347207 -2.46784e-20)
(0.257937 0.100279 -1.22217e-19)
(0.236219 0.147644 0)
(0.220037 0.194184 -1.11905e-19)
(0.199623 0.233802 1.97167e-19)
(0.173181 0.264458 -7.30619e-20)
(0.150051 0.291833 -1.21946e-20)
(0.113208 0.309456 2.44426e-20)
(0.0924471 0.328658 5.0547e-23)
(0.0440134 0.341835 3.63045e-20)
(0.0259245 0.356452 3.6349e-20)
(0.28312 0.0940416 -1.07106e-19)
(0.25597 0.143143 1.06244e-19)
(0.234704 0.192221 1.33521e-20)
(0.210744 0.234726 0)
(0.181937 0.267497 0)
(0.156751 0.297247 1.2961e-20)
(0.11825 0.315814 5.13457e-20)
(0.0966047 0.336894 -5.05381e-20)
(0.0457522 0.350532 -1.25763e-20)
(0.027776 0.366022 1.24599e-20)
(0.332604 0.100646 0)
(0.298058 0.149599 0)
(0.26708 0.200462 0)
(0.235092 0.246483 0)
(0.200967 0.282127 0)
(0.170498 0.315077 0)
(0.128412 0.334478 0)
(0.104897 0.358743 0)
(0.0485388 0.372439 0)
(0.0324755 0.389578 0)
(0.381727 0.15484 0)
(0.344316 0.19776 0)
(0.309469 0.24294 0)
(0.272988 0.285646 0)
(0.234519 0.321506 0)
(0.197291 0.353829 0)
(0.150102 0.375577 0)
(0.121317 0.399663 0)
(0.0564025 0.414389 0)
(0.0388135 0.433741 0)
(0.423534 0.195867 0)
(0.385814 0.238277 0)
(0.35003 0.282491 0)
(0.311321 0.324938 0)
(0.269675 0.362317 0)
(0.227405 0.395457 0)
(0.175351 0.420534 0)
(0.140565 0.444807 0)
(0.0672947 0.461332 0)
(0.0440799 0.482658 0)
(0.465912 0.233043 0)
(0.429058 0.2773 0)
(0.392759 0.322783 0)
(0.351788 0.367006 0)
(0.306661 0.407207 0)
(0.259623 0.442925 0)
(0.202288 0.471751 0)
(0.16065 0.498055 0)
(0.078615 0.518252 0)
(0.0482359 0.544802 0)
(0.512739 0.269953 0)
(0.475952 0.316905 0)
(0.438789 0.364685 0)
(0.395594 0.411911 0)
(0.346872 0.456171 0)
(0.295011 0.496077 0)
(0.232013 0.529474 0)
(0.18354 0.558184 0)
(0.093666 0.578048 0)
(0.0539948 0.600139 0)
(0.561706 0.302254 0)
(0.525334 0.354389 0)
(0.487868 0.406513 0)
(0.443231 0.458503 0)
(0.391429 0.508377 0)
(0.335081 0.554243 0)
(0.265909 0.593953 0)
(0.209147 0.629853 0)
(0.109007 0.662964 0)
(0.0593793 0.707875 0)
(0.620316 0.344416 0)
(0.583158 0.39838 0)
(0.544361 0.453445 0)
(0.498013 0.510052 0)
(0.442676 0.566234 0)
(0.380265 0.619069 0)
(0.301724 0.665585 0)
(0.231346 0.702383 0)
(0.116632 0.722044 0)
(0.0587807 0.734343 0)
(0.669956 0.359063 0)
(0.635352 0.424079 0)
(0.59953 0.489245 0)
(0.556243 0.556414 0)
(0.502861 0.624252 0)
(0.442754 0.690644 0)
(0.365853 0.752848 0)
(0.299188 0.813888 0)
(0.18277 0.870473 0)
(0.0898268 0.934438 0)
(0.73527 0.425705 0)
(0.714173 0.486673 0)
(0.67801 0.548749 0)
(0.628615 0.616053 0)
(0.563706 0.687037 0)
(0.485454 0.755512 0)
(0.383329 0.816837 0)
(0.284461 0.86243 0)
(0.143758 0.895634 0)
(0.068563 0.932096 0)
(0.669422 0.328746 0)
(0.719662 0.444744 0)
(0.737661 0.554942 0)
(0.726857 0.663136 0)
(0.687846 0.771598 0)
(0.629111 0.880603 0)
(0.533457 0.985948 0)
(0.429229 1.08433 0)
(0.255696 1.16382 0)
(0.107752 1.22974 0)
(0.375466 0.0856538 9.60365e-20)
(0.421301 0.13318 -9.54221e-20)
(0.46013 0.17185 1.04479e-20)
(0.500796 0.206456 0)
(0.546085 0.240757 0)
(0.594079 0.269045 6.57687e-21)
(0.648778 0.310013 -1.7549e-20)
(0.696733 0.317734 1.72375e-20)
(0.730543 0.382275 9.55962e-22)
(0.619364 0.251786 -9.55177e-22)
(0.397766 0.0837428 -1.15913e-19)
(0.438003 0.12951 0)
(0.474188 0.165759 6.51862e-20)
(0.513844 0.198452 -1.4003e-19)
(0.558244 0.230998 8.01702e-20)
(0.606077 0.257719 -6.38385e-21)
(0.658569 0.29706 9.69546e-21)
(0.70542 0.302507 1.13344e-20)
(0.722965 0.362923 -6.05854e-22)
(0.594846 0.218284 -1.69296e-21)
(0.416887 0.0851509 1.34898e-19)
(0.452945 0.12814 -8.08298e-20)
(0.487378 0.161203 7.98777e-20)
(0.526363 0.191436 -6.43352e-20)
(0.570098 0.221766 4.861e-20)
(0.61776 0.24684 0)
(0.66812 0.283934 -9.7795e-21)
(0.712951 0.287229 -4.13755e-22)
(0.713366 0.342133 -3.75816e-21)
(0.567458 0.184254 9.29954e-22)
(0.434302 0.0878166 -2.18631e-20)
(0.46679 0.126777 0)
(0.499985 0.156357 0)
(0.538395 0.183968 0)
(0.581569 0.211975 4.08515e-20)
(0.628911 0.235483 -2.63441e-20)
(0.677185 0.270071 1.58588e-21)
(0.718838 0.271313 -3.95627e-21)
(0.701516 0.319801 -4.55364e-22)
(0.53683 0.14999 2.26431e-21)
(0.449811 0.0905388 -3.93018e-21)
(0.479092 0.124562 -6.28877e-20)
(0.511461 0.150572 -3.47816e-20)
(0.549451 0.175586 3.46534e-20)
(0.592228 0.201329 -1.43647e-20)
(0.639191 0.22341 0)
(0.685421 0.255343 -9.15292e-21)
(0.722827 0.254588 9.8286e-21)
(0.687364 0.295891 -4.25655e-21)
(0.503044 0.115831 -1.83478e-21)
(0.463071 0.0925522 -1.64037e-19)
(0.489668 0.121148 2.38404e-20)
(0.521644 0.143624 3.46683e-21)
(0.55942 0.166172 3.40299e-20)
(0.601979 0.189791 0)
(0.648519 0.21058 0)
(0.692688 0.239734 0)
(0.724839 0.236981 4.86904e-21)
(0.671206 0.270318 0)
(0.466958 0.0823049 0)
(0.473885 0.0933217 0)
(0.498458 0.116395 5.60852e-20)
(0.530464 0.135465 -3.69581e-20)
(0.568253 0.155743 -2.93737e-20)
(0.610764 0.177411 2.94152e-20)
(0.656834 0.197009 9.67955e-21)
(0.698846 0.223268 -1.1356e-20)
(0.724771 0.218426 -1.78507e-20)
(0.653555 0.242748 1.91648e-21)
(0.430387 0.0503699 3.54431e-21)
(0.482139 0.0924761 0)
(0.505425 0.110268 -1.90838e-20)
(0.53787 0.126131 -8.69616e-21)
(0.575907 0.144372 0)
(0.618525 0.164275 5.41926e-21)
(0.664073 0.182747 -1.74137e-20)
(0.703749 0.206009 1.13448e-20)
(0.722492 0.198844 1.46689e-21)
(0.634763 0.212442 -1.07e-21)
(0.392654 0.0216101 -3.66215e-21)
(0.487787 0.0897856 2.03614e-20)
(0.510567 0.102807 1.80354e-20)
(0.54383 0.115712 -5.11813e-21)
(0.582352 0.132165 3.82854e-21)
(0.625213 0.150485 6.63186e-21)
(0.670187 0.167861 7.94449e-21)
(0.707286 0.188073 -1.917e-21)
(0.717971 0.17823 -1.02561e-21)
(0.614648 0.178999 1.07419e-21)
(0.341387 -0.00259449 -9.00469e-22)
(0.490843 0.0851563 -4.79857e-21)
(0.51392 0.0941124 4.87464e-21)
(0.548333 0.10434 -4.30819e-21)
(0.587574 0.119244 -3.82607e-21)
(0.630797 0.136148 2.91183e-21)
(0.675156 0.152436 -5.53817e-21)
(0.709418 0.169602 2.63927e-21)
(0.711401 0.1568 3.03446e-22)
(0.593592 0.144536 0)
(0.310328 -0.0236635 9.02303e-22)
(0.49138 0.0786294 4.8142e-21)
(0.515562 0.0843313 -4.88505e-21)
(0.551393 0.0921693 -4.29726e-21)
(0.591573 0.105735 -3.79179e-21)
(0.635264 0.121361 -2.87637e-21)
(0.678986 0.136555 3.57309e-22)
(0.710192 0.150733 1.11448e-21)
(0.703122 0.134851 1.63598e-21)
(0.571462 0.111428 0)
(0.279289 -0.0443064 6.61765e-22)
(0.489512 0.0703741 0)
(0.515585 0.0736357 -1.80249e-20)
(0.553027 0.0793668 3.10333e-20)
(0.594352 0.0917549 3.79176e-21)
(0.638608 0.106213 6.39487e-21)
(0.681704 0.120296 7.54171e-21)
(0.70971 0.131581 -1.80774e-21)
(0.693523 0.112625 -9.35552e-22)
(0.548492 0.0796955 6.83564e-22)
(0.250786 -0.0653676 -6.60046e-22)
(0.485398 0.060668 0)
(0.514063 0.0622015 -1.92171e-20)
(0.553243 0.0660923 -8.64517e-21)
(0.595904 0.0774058 0)
(0.640825 0.090775 -1.77432e-20)
(0.683353 0.103727 6.38629e-21)
(0.708095 0.11223 4.30624e-21)
(0.683058 0.0903312 6.10196e-21)
(0.525809 0.0489295 -6.80872e-22)
(0.225451 -0.086852 -1.99807e-21)
(0.479207 0.0498752 0)
(0.511038 0.0501966 1.92918e-20)
(0.552041 0.05249 0)
(0.596218 0.0627768 2.80922e-20)
(0.641923 0.0751085 -2.81397e-20)
(0.683999 0.0869115 -8.37509e-21)
(0.705494 0.0927204 1.48837e-21)
(0.672111 0.0679159 -5.68392e-21)
(0.504143 0.0188944 -1.22217e-21)
(0.202144 -0.108807 2.0769e-21)
(0.471097 0.0384093 1.7065e-19)
(0.506585 0.0377645 -6.50805e-20)
(0.549489 0.0386856 -4.27192e-21)
(0.595359 0.0479454 -3.32906e-20)
(0.641999 0.0592656 0)
(0.683765 0.0699131 -8.31947e-21)
(0.702186 0.0730838 3.30391e-21)
(0.660763 0.0453429 8.35703e-21)
(0.483472 -0.0105047 -8.38632e-23)
(0.180711 -0.131168 8.34237e-23)
(0.46132 0.026677 6.18455e-21)
(0.500927 0.0250124 1.0489e-19)
(0.545828 0.0247811 3.39115e-20)
(0.593544 0.0329819 -3.37992e-20)
(0.641271 0.0433065 -1.30664e-20)
(0.682879 0.0527797 0)
(0.698469 0.0534087 -1.15951e-20)
(0.64923 0.0226537 6.10189e-21)
(0.463812 -0.0393267 2.00868e-21)
(0.161318 -0.153695 -1.34152e-21)
(0.450233 0.0150159 -2.31138e-20)
(0.494252 0.0120245 0)
(0.541188 0.0108702 0)
(0.590799 0.0179722 0)
(0.63971 0.0273059 -1.01032e-20)
(0.681324 0.0355884 2.30298e-20)
(0.694318 0.0337858 1.14941e-20)
(0.637735 -7.08098e-05 -1.11518e-20)
(0.445047 -0.0676043 -1.39801e-22)
(0.143963 -0.176167 1.46247e-21)
(0.437566 0.00375818 -4.98415e-20)
(0.485669 -0.00104359 8.1668e-20)
(0.534569 -0.00290727 -8.0745e-20)
(0.586038 0.00305662 5.99023e-20)
(0.636244 0.0113794 -7.29746e-20)
(0.678156 0.018436 0)
(0.689051 0.0142609 -6.73733e-21)
(0.626037 -0.0227886 -3.27239e-23)
(0.427111 -0.0953752 -5.81709e-22)
(0.128579 -0.198424 1.04165e-21)
(0.421879 -0.00640921 -2.44373e-20)
(0.47322 -0.0138736 0)
(0.524247 -0.0163759 -8.40859e-20)
(0.577749 -0.0116095 1.34961e-19)
(0.62963 -0.00437926 -4.75302e-20)
(0.672432 0.00133877 -5.2313e-21)
(0.682058 -0.00526524 6.67751e-21)
(0.613764 -0.0456314 1.25638e-21)
(0.40993 -0.122787 2.50935e-21)
(0.114997 -0.220393 -1.1304e-21)
(0.405869 -0.0143965 -1.14124e-19)
(0.460452 -0.0261668 1.12922e-19)
(0.514243 -0.0294919 1.18847e-20)
(0.570188 -0.025999 0)
(0.624154 -0.0199864 0)
(0.668034 -0.0157641 6.2369e-21)
(0.676305 -0.024909 1.18383e-20)
(0.602353 -0.0687444 -1.15528e-20)
(0.393859 -0.15 1.00192e-22)
(0.102734 -0.242104 -9.50384e-23)
(0.389375 -0.0287403 0)
(0.450336 -0.053734 0)
(0.510268 -0.0603345 0)
(0.57122 -0.0603864 0)
(0.629136 -0.0576184 0)
(0.673353 -0.0570366 0)
(0.674386 -0.0720206 0)
(0.581806 -0.124258 0)
(0.358515 -0.21422 0)
(0.0754086 -0.293272 0)
(0.390408 -0.100612 0)
(0.453624 -0.118831 0)
(0.517208 -0.12556 0)
(0.580636 -0.125968 0)
(0.636489 -0.125187 0)
(0.665443 -0.130791 0)
(0.630629 -0.160944 0)
(0.492387 -0.234111 0)
(0.257447 -0.332074 0)
(0.0274737 -0.395283 0)
(0.378707 -0.163822 0)
(0.443362 -0.183169 0)
(0.510595 -0.19248 0)
(0.577372 -0.196103 0)
(0.630555 -0.200254 0)
(0.642874 -0.216173 0)
(0.575564 -0.264504 0)
(0.406916 -0.354142 0)
(0.175809 -0.448796 0)
(-0.000417731 -0.494609 0)
(0.366054 -0.228608 0)
(0.432721 -0.251993 0)
(0.503933 -0.265998 0)
(0.572618 -0.275123 0)
(0.618424 -0.287173 0)
(0.605934 -0.317312 0)
(0.501265 -0.38548 0)
(0.310182 -0.486146 0)
(0.10119 -0.569438 0)
(-0.0145427 -0.597188 0)
(0.345426 -0.293364 0)
(0.412904 -0.323934 0)
(0.487684 -0.346259 0)
(0.557055 -0.365335 0)
(0.591962 -0.391041 0)
(0.551184 -0.440805 0)
(0.414048 -0.527669 0)
(0.216457 -0.629021 0)
(0.0437394 -0.692622 0)
(-0.0173417 -0.70461 0)
(0.314356 -0.35775 0)
(0.382978 -0.398719 0)
(0.461703 -0.434812 0)
(0.530516 -0.470811 0)
(0.550931 -0.517683 0)
(0.480543 -0.590683 0)
(0.32012 -0.689923 0)
(0.133509 -0.778936 0)
(0.00693866 -0.81687 0)
(-0.0124299 -0.81752 0)
(0.274249 -0.417749 0)
(0.342587 -0.475516 0)
(0.421265 -0.532007 0)
(0.483912 -0.592821 0)
(0.485363 -0.667741 0)
(0.390195 -0.76442 0)
(0.224572 -0.866613 0)
(0.0686186 -0.932143 0)
(-0.00884547 -0.94446 0)
(-0.00448818 -0.940621 0)
(0.219967 -0.475723 0)
(0.277154 -0.545511 0)
(0.345795 -0.627267 0)
(0.395671 -0.720579 0)
(0.381422 -0.831567 0)
(0.280508 -0.954847 0)
(0.136989 -1.05575 0)
(0.0278995 -1.09559 0)
(-0.00805932 -1.08975 0)
(0.001919 -1.08803 0)
(0.125682 -0.495745 0)
(0.170126 -0.587562 0)
(0.225901 -0.700503 0)
(0.264885 -0.838764 0)
(0.248329 -0.999352 0)
(0.166956 -1.15419 0)
(0.0686272 -1.25028 0)
(0.00996557 -1.26683 0)
(-0.000685228 -1.25506 0)
(0.00390595 -1.25964 0)
(0.0691873 -0.498704 0)
(0.0883383 -0.604001 0)
(0.110875 -0.7482 0)
(0.120568 -0.932815 0)
(0.0999335 -1.13658 0)
(0.0548113 -1.30516 0)
(0.0161699 -1.38419 0)
(0.00219351 -1.38485 0)
(0.0024675 -1.37855 0)
(0.00175326 -1.38876 0)
(0.355636 -0.0424799 1.22023e-19)
(0.348098 -0.110183 -1.20924e-19)
(0.338581 -0.1715 1.52681e-20)
(0.324555 -0.23213 0)
(0.302988 -0.290286 0)
(0.272434 -0.346701 1.5622e-20)
(0.231625 -0.394729 -6.37768e-20)
(0.1844 -0.442262 6.31748e-20)
(0.101531 -0.451163 1.6249e-20)
(0.0573188 -0.447374 -1.60999e-20)
(0.338404 -0.0531507 -1.37283e-19)
(0.329911 -0.117702 0)
(0.321822 -0.176398 9.58063e-20)
(0.307632 -0.234006 -2.16906e-19)
(0.286069 -0.288648 1.35117e-19)
(0.256048 -0.341434 -1.36429e-20)
(0.215226 -0.385267 2.78722e-20)
(0.170794 -0.427633 5.62906e-20)
(0.0926385 -0.433784 1.46414e-20)
(0.0525166 -0.426918 1.42934e-20)
(0.320291 -0.064653 1.64577e-19)
(0.312573 -0.125984 -1.09782e-19)
(0.305842 -0.181806 1.08499e-19)
(0.291521 -0.235955 -1.10151e-19)
(0.270059 -0.286886 8.16955e-20)
(0.240613 -0.335827 0)
(0.200094 -0.375962 -2.81199e-20)
(0.158248 -0.412944 9.09736e-23)
(0.084699 -0.417442 -2.88697e-20)
(0.0479609 -0.407684 -2.89994e-20)
(0.30203 -0.0750561 -2.73077e-20)
(0.296065 -0.132749 0)
(0.290579 -0.185922 0)
(0.276244 -0.23676 0)
(0.255004 -0.284279 8.38435e-20)
(0.226194 -0.329597 -5.56878e-20)
(0.186238 -0.366392 -1.15359e-22)
(0.146755 -0.398658 -2.88899e-20)
(0.0775806 -0.401843 -1.46409e-20)
(0.043638 -0.389775 -1.4697e-20)
(0.284128 -0.0846651 1.70255e-22)
(0.280419 -0.138238 -8.19257e-20)
(0.276002 -0.188656 -5.51833e-20)
(0.261796 -0.23626 5.49886e-20)
(0.24089 -0.280621 -2.78865e-20)
(0.212795 -0.322613 0)
(0.173584 -0.356408 -2.8773e-20)
(0.13625 -0.384741 5.83459e-20)
(0.0711477 -0.386865 -2.92866e-20)
(0.0395264 -0.373167 2.97539e-20)
(0.266884 -0.0936389 -2.19224e-19)
(0.265645 -0.142853 2.73582e-20)
(0.262113 -0.190303 -4.59259e-22)
(0.248178 -0.2347 5.5305e-20)
(0.227691 -0.27608 0)
(0.20039 -0.315 0)
(0.162042 -0.346124 0)
(0.126658 -0.371157 2.93233e-20)
(0.065284 -0.372496 0)
(0.0356384 -0.357804 0)
(0.250522 -0.101888 0)
(0.251728 -0.146675 8.25069e-20)
(0.248911 -0.19099 -5.50784e-20)
(0.235373 -0.232263 -5.61911e-20)
(0.215372 -0.270831 5.62794e-20)
(0.18893 -0.306918 2.89521e-20)
(0.151524 -0.335671 -2.89151e-20)
(0.117914 -0.357931 -1.03287e-19)
(0.0599134 -0.358736 7.39074e-21)
(0.0320148 -0.343645 -2.26535e-20)
(0.235245 -0.109328 0)
(0.238665 -0.149714 -2.73849e-20)
(0.236404 -0.190777 -1.38828e-20)
(0.223358 -0.229061 0)
(0.203888 -0.264999 1.43608e-20)
(0.178362 -0.29849 -4.31325e-20)
(0.141944 -0.325148 4.40865e-20)
(0.109971 -0.345094 1.48742e-20)
(0.0549984 -0.345578 -1.50448e-20)
(0.0287061 -0.330639 3.04169e-20)
(0.221246 -0.115913 2.74774e-20)
(0.226478 -0.152009 2.75966e-20)
(0.224622 -0.189751 -6.89265e-21)
(0.212119 -0.225207 7.03675e-21)
(0.193206 -0.2587 1.42495e-20)
(0.168636 -0.289824 2.16987e-20)
(0.133225 -0.314633 -7.36352e-21)
(0.102791 -0.332667 -7.43176e-21)
(0.0505261 -0.333015 1.51041e-20)
(0.0257565 -0.318724 7.60828e-21)
(0.208698 -0.121608 -6.85426e-21)
(0.215214 -0.15361 6.90342e-21)
(0.213617 -0.188016 -6.95248e-21)
(0.201659 -0.220821 -7.03535e-21)
(0.183308 -0.252048 7.1835e-21)
(0.159714 -0.281024 -1.44618e-20)
(0.125309 -0.304207 1.10674e-20)
(0.0963467 -0.32067 3.73201e-21)
(0.0464909 -0.321042 0)
(0.0231948 -0.307821 -7.62599e-21)
(0.197753 -0.126383 6.87084e-21)
(0.20493 -0.154561 -6.92391e-21)
(0.203448 -0.185682 -6.9911e-21)
(0.191991 -0.216017 -7.0665e-21)
(0.174185 -0.245156 -7.19106e-21)
(0.151568 -0.272183 -2.87881e-23)
(0.118146 -0.293947 3.67468e-21)
(0.0906141 -0.30912 1.11371e-20)
(0.0428823 -0.309653 0)
(0.0210305 -0.297838 -7.5915e-21)
(0.188533 -0.130213 0)
(0.195682 -0.154899 -2.78447e-20)
(0.194167 -0.182848 4.89781e-20)
(0.183127 -0.210893 7.06963e-21)
(0.165832 -0.238124 1.4338e-20)
(0.144169 -0.263385 2.17439e-20)
(0.111691 -0.283922 -7.35913e-21)
(0.0855629 -0.298031 -7.4166e-21)
(0.0396779 -0.29884 1.4983e-20)
(0.0192572 -0.288679 7.57351e-21)
(0.181121 -0.13308 0)
(0.187513 -0.154649 -2.79248e-20)
(0.185805 -0.179602 -1.40456e-20)
(0.175064 -0.205536 0)
(0.15823 -0.23104 -4.30997e-20)
(0.137482 -0.254699 1.43786e-20)
(0.105891 -0.274192 1.46224e-20)
(0.0811523 -0.287408 4.42124e-20)
(0.0368422 -0.28859 -1.49245e-20)
(0.0178579 -0.280246 3.00066e-20)
(0.175548 -0.134975 0)
(0.18044 -0.153825 2.80483e-20)
(0.178359 -0.17602 0)
(0.167779 -0.200018 5.70071e-20)
(0.15134 -0.223979 -5.70936e-20)
(0.131452 -0.246181 -2.9005e-20)
(0.100685 -0.26481 -1.53482e-22)
(0.0773285 -0.277253 -4.39256e-20)
(0.0343294 -0.278887 -7.34582e-21)
(0.0168125 -0.272446 -3.724e-20)
(0.17179 -0.135895 2.25204e-19)
(0.174452 -0.152425 -8.46442e-20)
(0.171787 -0.172161 2.41997e-22)
(0.161215 -0.194395 -5.67432e-20)
(0.145098 -0.216999 0)
(0.126003 -0.237872 -2.88919e-20)
(0.0959911 -0.255817 -1.5432e-22)
(0.0740238 -0.26756 5.81594e-20)
(0.0320877 -0.269717 7.31648e-21)
(0.0161034 -0.26519 -7.35521e-21)
(0.169749 -0.135841 4.93367e-23)
(0.169497 -0.15043 1.4232e-19)
(0.166004 -0.168067 5.70431e-20)
(0.155286 -0.188713 -5.68416e-20)
(0.13941 -0.210151 -2.85703e-20)
(0.12103 -0.229806 0)
(0.0917141 -0.247246 -5.76021e-20)
(0.0711569 -0.258326 2.86634e-20)
(0.0300634 -0.261068 2.88421e-20)
(0.0157189 -0.258399 2.89718e-20)
(0.169234 -0.134836 -2.87674e-20)
(0.165474 -0.147825 0)
(0.160886 -0.163779 0)
(0.149871 -0.183017 0)
(0.13416 -0.203478 -2.86371e-20)
(0.116407 -0.222011 5.68523e-20)
(0.0877428 -0.23913 5.71628e-20)
(0.0686344 -0.249546 -8.54145e-20)
(0.0282042 -0.252939 1.42591e-20)
(0.0156526 -0.252 -4.28749e-20)
(0.169926 -0.132985 -5.80912e-20)
(0.162219 -0.144636 1.1628e-19)
(0.156274 -0.15934 -1.14934e-19)
(0.144827 -0.177342 1.14652e-19)
(0.129212 -0.197017 -1.41951e-19)
(0.111988 -0.214503 0)
(0.0839561 -0.231503 -2.82519e-20)
(0.0663539 -0.24122 6.48531e-23)
(0.0264611 -0.245338 -2.80493e-20)
(0.0159002 -0.245928 -2.80154e-20)
(0.171336 -0.13032 -2.96777e-20)
(0.1595 -0.140784 0)
(0.151984 -0.154657 -1.30616e-19)
(0.139982 -0.17161 2.29184e-19)
(0.124417 -0.190705 -8.48188e-20)
(0.107603 -0.207221 -1.40469e-20)
(0.0802216 -0.224351 2.8007e-20)
(0.0642014 -0.233338 -2.52557e-23)
(0.0247882 -0.238278 4.14086e-20)
(0.0164529 -0.240123 4.13182e-20)
(0.172846 -0.126135 -1.29885e-19)
(0.156999 -0.135881 1.28382e-19)
(0.147797 -0.149475 1.57903e-20)
(0.135121 -0.165693 0)
(0.119586 -0.184396 0)
(0.103039 -0.200128 1.51049e-20)
(0.0763728 -0.217575 5.97398e-20)
(0.0620318 -0.225898 -5.88756e-20)
(0.0231342 -0.231735 -1.4578e-20)
(0.017283 -0.23454 1.44591e-20)
(0.174874 -0.113766 0)
(0.151081 -0.124337 0)
(0.138192 -0.138471 0)
(0.123492 -0.153641 0)
(0.107761 -0.17112 0)
(0.0912262 -0.185342 0)
(0.066402 -0.202744 0)
(0.0562839 -0.209605 0)
(0.0190575 -0.217312 0)
(0.0197405 -0.221874 0)
(0.159743 -0.0965728 0)
(0.138723 -0.111931 0)
(0.125302 -0.127451 0)
(0.110317 -0.14231 0)
(0.0950696 -0.15746 0)
(0.0789306 -0.170806 0)
(0.0562342 -0.184615 0)
(0.0502327 -0.192695 0)
(0.0153915 -0.199262 0)
(0.0215104 -0.203896 0)
(0.141397 -0.0793109 0)
(0.123698 -0.095058 0)
(0.110674 -0.111003 0)
(0.0964337 -0.126225 0)
(0.0821538 -0.141173 0)
(0.0673271 -0.155088 0)
(0.0462258 -0.167755 0)
(0.0433225 -0.178137 0)
(0.0106581 -0.184045 0)
(0.0202206 -0.187979 0)
(0.12442 -0.067265 0)
(0.108854 -0.0819156 0)
(0.0960633 -0.0966709 0)
(0.0822322 -0.111047 0)
(0.0684133 -0.125443 0)
(0.054756 -0.13961 0)
(0.034329 -0.152119 0)
(0.0340095 -0.164686 0)
(0.00394854 -0.171292 0)
(0.0170938 -0.175447 0)
(0.108346 -0.0570254 0)
(0.0947458 -0.0703966 0)
(0.0821662 -0.0838648 0)
(0.0683874 -0.0973256 0)
(0.0544187 -0.111248 0)
(0.0415925 -0.125828 0)
(0.0208937 -0.138771 0)
(0.0225441 -0.153598 0)
(-0.00446842 -0.162661 0)
(0.0129429 -0.168439 0)
(0.0944137 -0.0472633 0)
(0.0822905 -0.0587187 0)
(0.0695069 -0.0706268 0)
(0.0552039 -0.0831179 0)
(0.0402562 -0.0967072 0)
(0.0276308 -0.112056 0)
(0.00578458 -0.126697 0)
(0.0081335 -0.144138 0)
(-0.0156539 -0.158905 0)
(0.00765485 -0.16865 0)
(0.0853537 -0.0380452 0)
(0.0744993 -0.0468443 0)
(0.0608157 -0.0566693 0)
(0.0451149 -0.0678123 0)
(0.0280077 -0.0808031 0)
(0.0139128 -0.096559 0)
(-0.0103165 -0.114587 0)
(-0.0101866 -0.135591 0)
(-0.0325898 -0.160057 0)
(-0.000141333 -0.179408 0)
(0.0974514 -0.0283435 0)
(0.087728 -0.033799 0)
(0.072071 -0.0409552 0)
(0.0537694 -0.0500153 0)
(0.0330834 -0.0614884 0)
(0.0138597 -0.0763005 0)
(-0.0166258 -0.0985424 0)
(-0.0246263 -0.124019 0)
(-0.0552482 -0.162326 0)
(-0.0127758 -0.201448 0)
(0.203851 -0.0160835 0)
(0.195752 -0.0183211 0)
(0.177962 -0.0223585 0)
(0.157211 -0.0279288 0)
(0.132717 -0.0356481 0)
(0.104065 -0.0472983 0)
(0.0620398 -0.0684372 0)
(0.0342039 -0.0924697 0)
(-0.0356934 -0.15754 0)
(-0.0201565 -0.279378 0)
(0.601064 -0.00415858 0)
(0.596676 -0.0052599 0)
(0.583451 -0.00682672 0)
(0.568758 -0.00906934 0)
(0.549421 -0.0128042 0)
(0.523459 -0.0196357 0)
(0.486054 -0.0319334 0)
(0.429792 -0.0519 0)
(0.318695 -0.104197 0)
(0.259734 -0.190809 0)
(0.183764 -0.103531 1.33583e-19)
(0.164321 -0.0827461 -1.31805e-19)
(0.144717 -0.0668987 1.61708e-20)
(0.12705 -0.0559633 0)
(0.111043 -0.0467219 0)
(0.0977453 -0.0381974 1.5248e-20)
(0.0903423 -0.0301734 -5.98912e-20)
(0.106903 -0.022296 5.91243e-20)
(0.221178 -0.0143466 1.4763e-20)
(0.613217 -0.00445153 -1.50091e-20)
(0.187282 -0.0979638 -1.45874e-19)
(0.165375 -0.0762579 0)
(0.145289 -0.0613684 1.00099e-19)
(0.127483 -0.0510233 -2.25408e-19)
(0.111729 -0.0423403 1.3897e-19)
(0.0989329 -0.0344573 -1.37122e-20)
(0.0925825 -0.027072 2.71173e-20)
(0.111545 -0.0200146 5.3703e-20)
(0.229268 -0.013727 1.3343e-20)
(0.619258 -0.00466145 1.31082e-20)
(0.190092 -0.0912884 1.71546e-19)
(0.166202 -0.0694228 -1.14719e-19)
(0.145683 -0.0556754 1.1343e-19)
(0.12778 -0.0459717 -1.1249e-19)
(0.112315 -0.0379404 8.3553e-20)
(0.100064 -0.0307944 0)
(0.0947785 -0.0241863 -2.73563e-20)
(0.116054 -0.0180339 1.69508e-23)
(0.23713 -0.0132175 -2.70311e-20)
(0.625519 -0.00492461 -2.6623e-20)
(0.192718 -0.0835174 -2.80914e-20)
(0.167336 -0.0622294 0)
(0.146333 -0.0497385 0)
(0.128257 -0.0407674 0)
(0.112983 -0.0335076 8.37225e-20)
(0.101181 -0.0271971 -5.55031e-20)
(0.096809 -0.0214729 1.40347e-23)
(0.120044 -0.0162902 -2.74721e-20)
(0.24411 -0.0127522 -1.36997e-20)
(0.631403 -0.00520137 -1.35064e-20)
(0.195227 -0.0746155 4.71412e-22)
(0.168682 -0.0546127 -8.3767e-20)
(0.147144 -0.0434895 -5.61867e-20)
(0.128843 -0.0353887 5.59985e-20)
(0.113677 -0.0290317 -2.79493e-20)
(0.102219 -0.0236526 0)
(0.0986207 -0.0188915 -2.77934e-20)
(0.123497 -0.0147059 5.54814e-20)
(0.250177 -0.0122541 -2.77156e-20)
(0.636826 -0.00544491 2.73538e-20)
(0.197512 -0.0645208 -2.19741e-19)
(0.170107 -0.046501 2.72518e-20)
(0.14799 -0.0368878 -1.35478e-22)
(0.129435 -0.0298377 5.5922e-20)
(0.114315 -0.0245169 0)
(0.103115 -0.0201564 0)
(0.10016 -0.0164144 0)
(0.126401 -0.0132237 2.79749e-20)
(0.255362 -0.0116736 0)
(0.641811 -0.00561801 0)
(0.199471 -0.0532087 0)
(0.171527 -0.0378536 8.32671e-20)
(0.148795 -0.0299216 -5.56261e-20)
(0.129971 -0.0241296 -5.59576e-20)
(0.114843 -0.0199711 5.60481e-20)
(0.103824 -0.0167033 2.8075e-20)
(0.101376 -0.0140153 -2.81459e-20)
(0.128715 -0.0117981 -9.85501e-20)
(0.259636 -0.0109841 7.05578e-21)
(0.646321 -0.00569705 -2.09276e-20)
(0.201043 -0.0407177 0)
(0.17285 -0.0286771 -2.76068e-20)
(0.149488 -0.0226054 -1.38977e-20)
(0.130403 -0.0182865 0)
(0.115217 -0.0153996 1.40303e-20)
(0.104308 -0.0132827 -4.22429e-20)
(0.102233 -0.0116651 4.23329e-20)
(0.130408 -0.0103887 1.41367e-20)
(0.262947 -0.0101706 -1.41919e-20)
(0.650283 -0.00566689 2.80911e-20)
(0.202184 -0.0271881 2.67434e-20)
(0.173946 -0.0190161 2.75741e-20)
(0.15001 -0.0149777 -6.87574e-21)
(0.130684 -0.0123317 6.98872e-21)
(0.115399 -0.0108014 1.40454e-20)
(0.104541 -0.00987931 2.116e-20)
(0.102707 -0.00933589 -7.08018e-21)
(0.131463 -0.00895873 -7.10026e-21)
(0.265254 -0.00922175 1.42479e-20)
(0.653626 -0.00552046 7.0549e-21)
(0.202834 -0.0128303 -6.74421e-21)
(0.174703 -0.00894945 6.83286e-21)
(0.150312 -0.00709822 -6.93376e-21)
(0.13077 -0.00628112 -6.98695e-21)
(0.115367 -0.00617082 7.03124e-21)
(0.104507 -0.00647336 -1.41253e-20)
(0.102789 -0.00699917 1.06312e-20)
(0.131867 -0.00747936 3.55265e-21)
(0.266536 -0.00813196 0)
(0.656287 -0.00525508 -7.07053e-21)
(0.202932 0.00212319 6.74197e-21)
(0.175055 0.0014269 -6.83048e-21)
(0.150345 0.000971899 -6.9375e-21)
(0.130635 -0.0001473 -6.99456e-21)
(0.115108 -0.00149825 -7.03678e-21)
(0.104197 -0.00304238 -3.365e-24)
(0.102476 -0.00462826 3.55321e-21)
(0.131621 -0.00592996 1.06784e-20)