/*--------------------------------*- C++ -*----------------------------------*\
  =========                 |
  \\      /  F ield         | OpenFOAM: The Open Source CFD Toolbox
   \\    /   O peration     | Website:  https://openfoam.org
    \\  /    A nd           | Version:  7
     \\/     M anipulation  |
\*---------------------------------------------------------------------------*/
FoamFile
{
    version     2.0;
    format      ascii;
    class       volScalarField;
    location    "8.7";
    object      p;
}
// * * * * * * * * * * * * * * * * * * * * * * * * * * * * * * * * * * * * * //

dimensions      [0 2 -2 0 0 0 0];

internalField   nonuniform List<scalar> 
18000
(
0.382201
0.38325
0.383945
0.384643
0.385248
0.385756
0.386183
0.386562
0.386936
0.387348
0.387844
0.388469
0.389266
0.390273
0.391523
0.393044
0.394855
0.396974
0.399405
0.402149
0.405192
0.40852
0.41211
0.415938
0.419976
0.424192
0.428549
0.433012
0.437536
0.442056
0.381776
0.382776
0.383427
0.384073
0.384624
0.385077
0.385445
0.385762
0.386074
0.386421
0.386847
0.387392
0.388099
0.389004
0.390143
0.39154
0.393219
0.395193
0.39747
0.40005
0.402922
0.406073
0.409486
0.413138
0.417004
0.421051
0.425248
0.429558
0.433929
0.438313
0.38137
0.382312
0.382912
0.383501
0.383995
0.384393
0.384705
0.384966
0.385222
0.385512
0.385874
0.386349
0.386976
0.387793
0.388831
0.390118
0.391675
0.393517
0.395652
0.398077
0.400788
0.403772
0.407014
0.410496
0.414192
0.418073
0.422108
0.426262
0.430474
0.434716
0.380969
0.381843
0.382392
0.382926
0.383365
0.383709
0.383971
0.384182
0.384388
0.384626
0.384934
0.385347
0.385906
0.386644
0.387594
0.388783
0.390231
0.391952
0.393953
0.396236
0.398796
0.401621
0.404701
0.408017
0.411547
0.415263
0.419136
0.423131
0.427181
0.431277
0.380586
0.381386
0.381881
0.382358
0.382741
0.383033
0.383247
0.383415
0.383577
0.38377
0.384029
0.38439
0.384889
0.38556
0.386435
0.387538
0.388888
0.390499
0.392378
0.394529
0.396948
0.399625
0.40255
0.405707
0.409076
0.412629
0.41634
0.420174
0.424059
0.428004
0.380216
0.380935
0.381375
0.381793
0.382123
0.382366
0.382537
0.382667
0.382791
0.382945
0.383162
0.383479
0.383929
0.384545
0.385356
0.386385
0.387648
0.38916
0.39093
0.39296
0.395248
0.397787
0.400566
0.403572
0.406784
0.410178
0.413727
0.4174
0.421116
0.424907
0.379866
0.380497
0.380879
0.381237
0.381515
0.381712
0.381846
0.381942
0.382034
0.382154
0.382338
0.382619
0.383032
0.383604
0.384362
0.385326
0.386513
0.387939
0.389611
0.391532
0.393701
0.396111
0.398753
0.401615
0.404676
0.407913
0.411303
0.414816
0.418362
0.421995
0.379535
0.380071
0.380394
0.380692
0.380918
0.381074
0.381175
0.381243
0.381307
0.381401
0.38156
0.381816
0.3822
0.382739
0.383454
0.384364
0.385488
0.386838
0.388424
0.390247
0.392307
0.394599
0.397114
0.399839
0.402756
0.405842
0.409075
0.412428
0.415805
0.419277
0.379224
0.379658
0.379921
0.380158
0.380336
0.380454
0.380526
0.380571
0.380614
0.38069
0.380832
0.381072
0.381438
0.381953
0.382634
0.383502
0.384573
0.38586
0.387371
0.389108
0.391071
0.393255
0.395652
0.398248
0.401026
0.403966
0.407048
0.410242
0.413449
0.416758
0.37893
0.379256
0.379458
0.379636
0.379768
0.379853
0.379901
0.379927
0.379957
0.380021
0.380156
0.38039
0.380747
0.381246
0.381905
0.382742
0.383772
0.385007
0.386455
0.388117
0.389994
0.39208
0.394367
0.396843
0.399491
0.40229
0.405224
0.408262
0.411301
0.414444
0.378652
0.378864
0.379005
0.379125
0.379214
0.379271
0.3793
0.379313
0.379336
0.379398
0.379534
0.37977
0.380127
0.380621
0.381268
0.382085
0.383085
0.384279
0.385675
0.387274
0.389076
0.391074
0.393261
0.395625
0.39815
0.400816
0.403605
0.406491
0.409363
0.41234
0.378386
0.378478
0.378559
0.378624
0.378674
0.378706
0.378721
0.378728
0.378751
0.37882
0.378966
0.379213
0.379579
0.380078
0.380723
0.381529
0.38251
0.383675
0.385031
0.386579
0.388316
0.390236
0.392333
0.394595
0.397005
0.399543
0.402193
0.40493
0.407639
0.41045
0.378126
0.378095
0.378116
0.37813
0.378145
0.378157
0.378162
0.37817
0.378201
0.378285
0.378449
0.378716
0.379101
0.379615
0.380268
0.381074
0.382046
0.383193
0.384521
0.386028
0.387712
0.389566
0.391583
0.393751
0.396054
0.39847
0.400987
0.40358
0.406131
0.408776
0.377869
0.37771
0.377674
0.377639
0.377624
0.37762
0.377621
0.377636
0.377683
0.37779
0.377981
0.378278
0.378691
0.379228
0.379899
0.380715
0.381689
0.382829
0.38414
0.385619
0.387261
0.389059
0.391006
0.39309
0.395293
0.397596
0.399987
0.402441
0.40484
0.407321
0.377608
0.377318
0.377228
0.377149
0.377108
0.377092
0.377095
0.377123
0.377193
0.377331
0.377559
0.377893
0.378343
0.378913
0.379611
0.380447
0.381433
0.382578
0.383884
0.385346
0.386957
0.388711
0.390598
0.392606
0.394718
0.396916
0.399188
0.401511
0.403764
0.406083
0.377337
0.376916
0.376774
0.376655
0.376591
0.376568
0.376578
0.376625
0.376726
0.376903
0.377176
0.377558
0.378052
0.378664
0.379398
0.380264
0.381274
0.382435
0.383746
0.385202
0.386793
0.388512
0.390349
0.392291
0.394323
0.396425
0.398586
0.400785
0.4029
0.40506
0.37705
0.376497
0.376307
0.376152
0.376071
0.376044
0.376065
0.376138
0.376277
0.376502
0.376828
0.377264
0.377812
0.378473
0.379251
0.380158
0.381202
0.38239
0.383718
0.385177
0.386758
0.388452
0.39025
0.392137
0.394097
0.396113
0.398172
0.400257
0.402243
0.404249
0.376739
0.376056
0.375822
0.375636
0.37554
0.375515
0.375552
0.375657
0.375841
0.376121
0.376507
0.377004
0.377613
0.378331
0.379164
0.38012
0.381208
0.382433
0.383787
0.38526
0.386842
0.388521
0.390289
0.39213
0.39403
0.39597
0.397938
0.399917
0.401785
0.403644
0.376397
0.375587
0.375313
0.375099
0.374994
0.374975
0.375033
0.375175
0.375411
0.375752
0.376205
0.376771
0.377446
0.378229
0.379124
0.380139
0.381281
0.382551
0.383941
0.385437
0.387028
0.388704
0.390452
0.392258
0.394108
0.395982
0.39787
0.399754
0.401517
0.403236
0.376016
0.375082
0.374772
0.374535
0.374425
0.374417
0.374502
0.374687
0.37498
0.375388
0.375913
0.376552
0.377301
0.378155
0.37912
0.380202
0.381407
0.382731
0.384164
0.385692
0.387302
0.388983
0.390721
0.392504
0.394314
0.396135
0.397953
0.399755
0.401427
0.403015
0.375587
0.374536
0.374194
0.373938
0.373827
0.373833
0.37395
0.374184
0.374539
0.375019
0.375621
0.376338
0.377165
0.378098
0.37914
0.380297
0.381571
0.382957
0.38444
0.386008
0.387645
0.389339
0.391078
0.392847
0.394629
0.396408
0.39817
0.399904
0.401499
0.40297
0.375103
0.37394
0.37357
0.373299
0.373192
0.373218
0.373372
0.373658
0.37408
0.374635
0.375318
0.376118
0.377027
0.378043
0.379168
0.380407
0.381758
0.38321
0.384751
0.386364
0.388036
0.389752
0.3915
0.393264
0.395031
0.39678
0.398498
0.400179
0.401716
0.403084
0.374555
0.373288
0.372894
0.372613
0.372512
0.372562
0.372757
0.3731
0.373592
0.374226
0.374992
0.375878
0.376875
0.377978
0.379192
0.380517
0.381948
0.383473
0.385075
0.38674
0.388452
0.390197
0.391962
0.393732
0.395492
0.397223
0.398913
0.400556
0.402055
0.403338
0.373934
0.372573
0.372159
0.371871
0.371782
0.37186
0.372099
0.372502
0.373066
0.373781
0.374633
0.375608
0.376694
0.377888
0.379194
0.380609
0.382124
0.383724
0.385393
0.387113
0.388871
0.39065
0.392437
0.39422
0.395983
0.397708
0.399383
0.401006
0.402489
0.403709
0.373234
0.371788
0.371359
0.371068
0.370994
0.371103
0.37139
0.371855
0.372492
0.37329
0.374229
0.375293
0.37647
0.377759
0.379158
0.380666
0.382267
0.383945
0.385682
0.38746
0.389266
0.391082
0.392897
0.394698
0.396471
0.3982
0.399873
0.401495
0.402986
0.404171
0.372444
0.370927
0.370487
0.370199
0.370144
0.370287
0.370623
0.37115
0.371862
0.372741
0.373768
0.374922
0.376192
0.377575
0.37907
0.38067
0.382357
0.384113
0.385919
0.387757
0.389611
0.391466
0.39331
0.395132
0.396919
0.398658
0.400341
0.40198
0.403507
0.40469
0.371561
0.369985
0.369539
0.369258
0.369226
0.369406
0.369792
0.370382
0.371166
0.372126
0.373239
0.374483
0.375845
0.377322
0.378913
0.380603
0.382376
0.384208
0.386082
0.387977
0.389879
0.391771
0.393643
0.395484
0.397286
0.399038
0.400737
0.402409
0.404001
0.405227
0.370579
0.368958
0.368511
0.368242
0.368235
0.368454
0.368891
0.369542
0.370397
0.371436
0.372633
0.373964
0.375417
0.376987
0.37867
0.380449
0.382302
0.384208
0.386146
0.388096
0.390041
0.391967
0.393862
0.395717
0.397526
0.399286
0.401001
0.402711
0.4044
0.405742
0.369493
0.367845
0.367401
0.367148
0.367169
0.367428
0.367916
0.368627
0.369549
0.370663
0.37194
0.373355
0.374896
0.376556
0.378326
0.380188
0.382118
0.384092
0.386088
0.388087
0.390071
0.392022
0.393931
0.395789
0.397593
0.399345
0.40106
0.402808
0.404652
0.406277
0.368303
0.366643
0.366207
0.365973
0.366025
0.366326
0.366863
0.36763
0.368617
0.369801
0.371153
0.372648
0.374272
0.376015
0.377867
0.379804
0.381802
0.383837
0.385885
0.387926
0.389938
0.391905
0.393815
0.395658
0.39743
0.399135
0.400803
0.402535
0.404469
0.406435
0.45738
0.479221
0.49668
0.509883
0.519411
0.526339
0.531282
0.534852
0.537374
0.539119
0.540257
0.540961
0.541302
0.541334
0.54112
0.540714
0.540125
0.539369
0.538459
0.537391
0.536188
0.534843
0.53337
0.531776
0.530065
0.528259
0.526397
0.5245
0.522781
0.521246
0.453688
0.475332
0.493066
0.506424
0.516095
0.523139
0.528185
0.531829
0.534415
0.536241
0.537472
0.538235
0.538631
0.538731
0.53859
0.53824
0.537706
0.537
0.536137
0.535112
0.533945
0.532634
0.531189
0.529622
0.527931
0.52614
0.524284
0.522387
0.520666
0.519127
0.450112
0.471481
0.489465
0.502955
0.512766
0.519926
0.525077
0.528799
0.531454
0.533362
0.534685
0.535509
0.535964
0.536134
0.536065
0.535771
0.535294
0.534638
0.533822
0.532842
0.53171
0.530435
0.529021
0.527481
0.525813
0.52404
0.522194
0.5203
0.518579
0.517037
0.446668
0.467674
0.485873
0.499476
0.50943
0.516703
0.521955
0.525765
0.528503
0.530485
0.531885
0.532782
0.533306
0.533547
0.533541
0.533308
0.532889
0.532285
0.531515
0.530581
0.529489
0.528251
0.526868
0.525354
0.52371
0.521954
0.520125
0.518241
0.51652
0.514977
0.443356
0.463919
0.4823
0.495994
0.50609
0.513474
0.518824
0.522727
0.525555
0.527611
0.52908
0.530056
0.530655
0.530965
0.531022
0.530852
0.530491
0.52994
0.529217
0.52833
0.527279
0.526079
0.524729
0.523242
0.521624
0.519888
0.518078
0.516206
0.514488
0.512943
0.440177
0.460223
0.478754
0.492517
0.502748
0.510241
0.515689
0.519686
0.522604
0.524736
0.526277
0.527333
0.528007
0.528387
0.52851
0.528403
0.528099
0.527604
0.526929
0.526088
0.52508
0.523918
0.522604
0.521147
0.519557
0.517843
0.516053
0.514196
0.512481
0.510936
0.437137
0.456596
0.475242
0.489047
0.499405
0.507004
0.512553
0.516644
0.519651
0.521864
0.523479
0.524614
0.525363
0.525814
0.526004
0.525961
0.525715
0.525276
0.52465
0.523856
0.522892
0.52177
0.520493
0.519067
0.517509
0.515819
0.514051
0.51221
0.5105
0.508955
0.43424
0.453048
0.471768
0.485588
0.496064
0.503766
0.509415
0.513601
0.516698
0.518994
0.520686
0.521901
0.522726
0.523248
0.523507
0.523528
0.523339
0.522957
0.522381
0.521634
0.520716
0.519635
0.518396
0.517004
0.515479
0.513817
0.512072
0.510249
0.508544
0.506999
0.431491
0.449588
0.468337
0.482143
0.492725
0.500527
0.506277
0.510559
0.513748
0.51613
0.5179
0.519195
0.520097
0.52069
0.521018
0.521103
0.520973
0.520646
0.520123
0.519423
0.51855
0.517511
0.516312
0.514957
0.513466
0.511836
0.510116
0.508312
0.506615
0.50507
0.428894
0.446226
0.464952
0.478716
0.489391
0.497288
0.503139
0.507519
0.510801
0.513271
0.515121
0.516496
0.517476
0.518141
0.518537
0.518688
0.518617
0.518345
0.517875
0.517223
0.516396
0.515401
0.514244
0.512926
0.511472
0.509877
0.508184
0.5064
0.504712
0.503168
0.426453
0.442971
0.46162
0.475308
0.486062
0.494048
0.500002
0.504483
0.507858
0.510419
0.512351
0.513807
0.514865
0.515602
0.516067
0.516282
0.51627
0.516054
0.515637
0.515033
0.514253
0.513302
0.512189
0.510912
0.509497
0.507938
0.506275
0.504513
0.502835
0.501293
0.42417
0.439834
0.458345
0.471925
0.48274
0.49081
0.496867
0.50145
0.504922
0.507574
0.509591
0.511128
0.512264
0.513073
0.513606
0.513887
0.513935
0.513772
0.513409
0.512854
0.512122
0.511217
0.510148
0.508915
0.507541
0.506021
0.504389
0.502653
0.500986
0.499445
0.422049
0.436826
0.455133
0.468568
0.479424
0.487572
0.493734
0.498421
0.501992
0.504738
0.506841
0.508459
0.509674
0.510556
0.511157
0.511503
0.51161
0.511501
0.511191
0.510686
0.510002
0.509145
0.508122
0.506934
0.505603
0.504124
0.502526
0.500818
0.499165
0.497626
0.420093
0.433956
0.451989
0.465244
0.476118
0.484336
0.490603
0.495397
0.49907
0.501912
0.504103
0.505803
0.507096
0.508051
0.508721
0.50913
0.509295
0.509241
0.508984
0.508529
0.507894
0.507085
0.50611
0.504969
0.503683
0.502247
0.500687
0.499009
0.497373
0.495836
0.418304
0.431235
0.448922
0.461956
0.472823
0.481103
0.487473
0.492378
0.496155
0.499096
0.501379
0.50316
0.504533
0.50556
0.506297
0.506769
0.506993
0.506992
0.506788
0.506384
0.505798
0.505038
0.504112
0.503019
0.50178
0.500391
0.49887
0.497227
0.495609
0.494074
0.416685
0.428673
0.445938
0.45871
0.469541
0.477872
0.484346
0.489362
0.49325
0.496292
0.498668
0.500532
0.501984
0.503084
0.503887
0.504421
0.504702
0.504755
0.504604
0.504252
0.503714
0.503004
0.502127
0.501084
0.499894
0.498553
0.497077
0.49547
0.493876
0.492344
0.415236
0.426282
0.443045
0.455512
0.466275
0.474645
0.48122
0.486351
0.490352
0.493499
0.495972
0.49792
0.499451
0.500624
0.501492
0.502087
0.502425
0.502531
0.502432
0.502131
0.501642
0.500981
0.500154
0.499163
0.498023
0.496734
0.495305
0.49374
0.492173
0.490646
0.413958
0.42407
0.440253
0.452369
0.463027
0.471421
0.478096
0.483344
0.487463
0.490719
0.49329
0.495325
0.496936
0.49818
0.499112
0.499767
0.50016
0.50032
0.500272
0.500023
0.499582
0.498971
0.498194
0.497255
0.496167
0.494933
0.493557
0.492038
0.490503
0.488981
0.412854
0.422049
0.437573
0.449286
0.459803
0.468203
0.474974
0.480339
0.484581
0.48795
0.490622
0.492747
0.494437
0.495753
0.496748
0.497461
0.49791
0.498122
0.498125
0.497926
0.497534
0.496972
0.496245
0.49536
0.494325
0.493149
0.49183
0.490362
0.488866
0.487353
0.411923
0.420226
0.435015
0.446273
0.456607
0.464992
0.471853
0.477338
0.481707
0.485194
0.487971
0.490187
0.491957
0.493344
0.494401
0.49517
0.495673
0.495938
0.495989
0.495841
0.495497
0.494983
0.494307
0.493476
0.492497
0.491381
0.490124
0.488715
0.487264
0.485763
0.411165
0.41861
0.432589
0.443336
0.453444
0.461792
0.468735
0.474338
0.478839
0.482449
0.485335
0.487646
0.489495
0.490953
0.492071
0.492896
0.493452
0.493768
0.493866
0.493766
0.49347
0.493005
0.492379
0.491602
0.490681
0.489627
0.488439
0.487095
0.485697
0.484214
0.410578
0.417207
0.430305
0.440485
0.450322
0.458606
0.465619
0.471341
0.475978
0.479717
0.482717
0.485125
0.487053
0.488582
0.48976
0.490638
0.491246
0.491612
0.491756
0.491703
0.491455
0.491036
0.49046
0.489738
0.488875
0.487888
0.486772
0.485502
0.484168
0.482711
0.410161
0.41602
0.428173
0.437731
0.447246
0.455439
0.462507
0.468346
0.473123
0.476999
0.480117
0.482624
0.484632
0.486229
0.487467
0.488399
0.489056
0.48947
0.48966
0.489651
0.489449
0.489076
0.488549
0.487881
0.48708
0.48616
0.485123
0.483936
0.482678
0.481257
0.409912
0.415053
0.4262
0.435085
0.444225
0.452297
0.459399
0.465353
0.470275
0.474293
0.477535
0.480143
0.482232
0.483898
0.485194
0.486177
0.486882
0.487342
0.487575
0.48761
0.487452
0.487124
0.486647
0.486032
0.485293
0.484444
0.48349
0.482395
0.481228
0.479859
0.409826
0.414304
0.424395
0.432558
0.441268
0.449185
0.456301
0.462363
0.467434
0.4716
0.47497
0.477682
0.479854
0.481587
0.48294
0.483973
0.484725
0.485228
0.485504
0.485578
0.485465
0.48518
0.484751
0.48419
0.483513
0.482735
0.481869
0.480878
0.47982
0.478525
0.409903
0.413768
0.422764
0.430161
0.438387
0.446112
0.453215
0.459379
0.464601
0.468921
0.472424
0.475242
0.477497
0.479297
0.480705
0.481787
0.482583
0.483127
0.483443
0.483556
0.483485
0.483243
0.482861
0.482352
0.481738
0.481033
0.480257
0.479381
0.478454
0.477264
0.410143
0.413438
0.421315
0.427908
0.435593
0.443091
0.450149
0.456404
0.461777
0.466255
0.469896
0.472824
0.475164
0.477029
0.478492
0.479619
0.480458
0.481041
0.481395
0.481543
0.481513
0.481312
0.480976
0.480518
0.479965
0.479334
0.478652
0.4779
0.47713
0.47609
0.410511
0.41329
0.420048
0.425812
0.432895
0.440134
0.44711
0.453441
0.458963
0.463601
0.467383
0.470423
0.472848
0.474777
0.476293
0.477465
0.478344
0.478963
0.479353
0.479536
0.479544
0.479384
0.479092
0.478685
0.478192
0.477634
0.477046
0.476428
0.475843
0.475019
0.410925
0.413233
0.418909
0.423847
0.430271
0.437222
0.444069
0.450453
0.456115
0.460914
0.464842
0.467999
0.470515
0.472512
0.474084
0.475303
0.476222
0.476878
0.477304
0.477523
0.477568
0.477449
0.477202
0.476845
0.47641
0.475923
0.475431
0.474954
0.474584
0.474072
0.412006
0.413443
0.417966
0.422018
0.427698
0.434297
0.440933
0.447333
0.453142
0.458129
0.462238
0.465542
0.46817
0.470249
0.471885
0.473153
0.474113
0.474804
0.475264
0.475517
0.475596
0.475515
0.475309
0.474998
0.474617
0.474196
0.473794
0.473459
0.473328
0.473264
0.420497
0.418179
0.418583
0.418756
0.42109
0.42579
0.431392
0.437879
0.444361
0.450164
0.454989
0.458817
0.461789
0.46408
0.465846
0.467197
0.468216
0.468955
0.469461
0.469765
0.469901
0.469894
0.46977
0.469562
0.469305
0.469045
0.468865
0.468901
0.469471
0.471101
0.412302
0.411323
0.410496
0.40809
0.407704
0.410403
0.415726
0.42271
0.430116
0.436891
0.442512
0.446908
0.450253
0.452784
0.454709
0.456179
0.457294
0.458125
0.458722
0.459123
0.459361
0.459465
0.459463
0.45939
0.459288
0.459217
0.459279
0.459659
0.460763
0.46314
0.397252
0.398422
0.397427
0.394774
0.393328
0.395135
0.400369
0.407941
0.416237
0.423908
0.430259
0.435173
0.438851
0.441585
0.443635
0.445188
0.44637
0.447264
0.447927
0.448402
0.44872
0.448914
0.449011
0.449048
0.449067
0.44913
0.44934
0.449877
0.451147
0.453686
0.379012
0.381821
0.381498
0.379692
0.378404
0.380075
0.385493
0.393628
0.402673
0.411093
0.418075
0.423452
0.427433
0.430351
0.432509
0.434131
0.435367
0.436312
0.43703
0.437566
0.437954
0.438225
0.438406
0.438531
0.438642
0.438796
0.439088
0.439683
0.440954
0.443464
0.359904
0.364148
0.365097
0.36476
0.364521
0.366732
0.372463
0.380868
0.390202
0.398935
0.406224
0.411867
0.416048
0.4191
0.421342
0.423021
0.424302
0.42529
0.426055
0.426643
0.42709
0.427423
0.427671
0.427862
0.428035
0.428242
0.428569
0.429162
0.430354
0.432731
0.341546
0.347087
0.349579
0.350951
0.352252
0.355409
0.361442
0.369735
0.378826
0.387375
0.394605
0.400286
0.404551
0.40769
0.410006
0.411743
0.413074
0.414108
0.41492
0.415557
0.416053
0.416437
0.416734
0.416971
0.417181
0.417413
0.417741
0.418298
0.419379
0.421583
0.32446
0.331058
0.335017
0.338019
0.340923
0.345118
0.351394
0.359348
0.36789
0.375965
0.38291
0.388487
0.392766
0.395975
0.398375
0.400191
0.40159
0.402686
0.403553
0.404242
0.404786
0.405213
0.405549
0.405817
0.406048
0.406285
0.406596
0.407099
0.408059
0.410075
0.308461
0.315815
0.320972
0.325337
0.32961
0.33471
0.341173
0.348757
0.356713
0.364257
0.370855
0.376283
0.38056
0.383848
0.386355
0.38828
0.389777
0.390959
0.391899
0.39265
0.393247
0.393719
0.394089
0.39438
0.394623
0.394856
0.39514
0.395585
0.396427
0.398255
0.293191
0.301035
0.307079
0.312469
0.317759
0.323535
0.33014
0.337431
0.344901
0.351988
0.358276
0.363571
0.367859
0.371244
0.373886
0.375951
0.377578
0.378873
0.37991
0.380741
0.381403
0.381925
0.382332
0.382647
0.382898
0.383124
0.38338
0.383764
0.384491
0.386129
0.278348
0.286481
0.293131
0.299231
0.30521
0.311447
0.318154
0.325235
0.332343
0.339076
0.345124
0.350323
0.35464
0.35814
0.360939
0.363169
0.364954
0.366388
0.367545
0.368476
0.369219
0.369803
0.370254
0.370596
0.37086
0.37108
0.371309
0.371639
0.372259
0.37371
0.263713
0.27199
0.279025
0.285591
0.292019
0.298554
0.305319
0.312241
0.319082
0.325554
0.331425
0.336562
0.340924
0.344546
0.34751
0.349921
0.35188
0.353475
0.354771
0.355821
0.356661
0.357321
0.357829
0.358209
0.358491
0.358709
0.358913
0.359188
0.359707
0.360973
0.249128
0.257452
0.264718
0.271583
0.278297
0.285012
0.291792
0.298583
0.30522
0.311498
0.317242
0.32234
0.326752
0.330492
0.333619
0.336211
0.338352
0.340117
0.341567
0.34275
0.343701
0.344451
0.345026
0.345454
0.345764
0.34599
0.34618
0.346411
0.346841
0.347925
0.234484
0.242793
0.250192
0.257246
0.264134
0.270945
0.277708
0.284386
0.290864
0.296992
0.302638
0.30771
0.312168
0.316017
0.319293
0.322057
0.324375
0.326311
0.327919
0.329243
0.330317
0.331169
0.331825
0.332312
0.332657
0.332895
0.333072
0.333261
0.333609
0.334514
0.219704
0.227959
0.235433
0.242599
0.249587
0.256441
0.263169
0.269746
0.276093
0.282102
0.287668
0.292717
0.297214
0.301153
0.30456
0.307478
0.30996
0.312059
0.313822
0.315287
0.316485
0.317444
0.318189
0.318746
0.319141
0.319407
0.319588
0.31975
0.320031
0.320763
0.204731
0.212911
0.220426
0.227658
0.234697
0.24156
0.248244
0.25473
0.260966
0.266872
0.272369
0.277395
0.281918
0.285929
0.289444
0.292494
0.29512
0.297367
0.299275
0.300876
0.3022
0.303268
0.304105
0.304733
0.305179
0.305473
0.305659
0.305796
0.306018
0.306579
0.189533
0.197625
0.205167
0.212436
0.219493
0.226343
0.232977
0.23938
0.245518
0.251335
0.256766
0.261764
0.266299
0.27036
0.273958
0.277114
0.279862
0.282237
0.284271
0.285994
0.287431
0.288605
0.289537
0.290246
0.290756
0.291094
0.291298
0.291426
0.291604
0.292008
0.174103
0.182097
0.189665
0.196951
0.204001
0.21082
0.217397
0.223723
0.229774
0.235507
0.240874
0.245836
0.250368
0.254458
0.258113
0.261349
0.264193
0.266673
0.268817
0.270648
0.272188
0.273455
0.274467
0.275243
0.275807
0.276182
0.276402
0.276518
0.276656
0.276896
0.158477
0.166357
0.173943
0.181226
0.188241
0.195012
0.20153
0.207782
0.21375
0.219401
0.224699
0.229614
0.234124
0.23822
0.241906
0.245194
0.248104
0.250659
0.252884
0.2548
0.256427
0.257781
0.258876
0.259726
0.260349
0.260768
0.261012
0.261128
0.261239
0.261336
0.142745
0.150472
0.158045
0.16529
0.17224
0.178944
0.185394
0.191572
0.197457
0.203024
0.208246
0.213102
0.217573
0.221652
0.225341
0.228651
0.2316
0.234209
0.236494
0.238471
0.240156
0.241565
0.242712
0.243611
0.244275
0.244723
0.244976
0.245078
0.245151
0.24508
0.127052
0.134549
0.14204
0.149188
0.156031
0.162641
0.169012
0.175109
0.180904
0.186377
0.19151
0.196286
0.200694
0.204728
0.20839
0.211688
0.21464
0.217264
0.219578
0.221598
0.223334
0.224796
0.225994
0.226939
0.227644
0.228122
0.228393
0.228489
0.228528
0.228309
0.111595
0.118735
0.12602
0.132979
0.139654
0.146136
0.152405
0.158408
0.164104
0.169473
0.174502
0.179181
0.183501
0.18746
0.191064
0.194324
0.197253
0.199864
0.20217
0.204186
0.205924
0.207395
0.208607
0.209568
0.210284
0.210765
0.211024
0.211087
0.211065
0.210648
0.0965871
0.103201
0.110101
0.116744
0.12317
0.12947
0.135605
0.141488
0.147061
0.152299
0.157196
0.161745
0.165945
0.169793
0.173297
0.176472
0.179334
0.1819
0.184183
0.186191
0.187928
0.189403
0.190622
0.191593
0.192322
0.192813
0.193067
0.193098
0.193005
0.192408
0.082225
0.0881143
0.0944129
0.100581
0.106655
0.112703
0.118653
0.124383
0.129809
0.134897
0.139638
0.144028
0.148072
0.151774
0.155148
0.158205
0.160956
0.163418
0.165608
0.167539
0.169218
0.170648
0.171829
0.172767
0.173467
0.173932
0.174152
0.17412
0.173907
0.173043
0.0686415
0.0736166
0.0790942
0.0846157
0.0902118
0.0959115
0.101599
0.107109
0.112329
0.117213
0.12175
0.125934
0.12977
0.133269
0.136452
0.139344
0.14196
0.144312
0.146409
0.14826
0.149872
0.151249
0.152392
0.1533
0.153976
0.154422
0.15462
0.154531
0.154178
0.153067
0.0559017
0.0598188
0.0642899
0.0689946
0.0739703
0.0792083
0.0845461
0.0897714
0.0947369
0.0993754
0.103663
0.107594
0.111178
0.114428
0.117365
0.120013
0.122394
0.124534
0.12645
0.128146
0.129625
0.130887
0.131931
0.132755
0.133361
0.133753
0.133906
0.133738
0.133185
0.131706
0.0440078
0.0468075
0.0501498
0.0538842
0.0580811
0.0626995
0.0675274
0.0723193
0.0769109
0.0812124
0.085172
0.0887704
0.0920202
0.0949543
0.0976077
0.100005
0.102163
0.104098
0.105825
0.107356
0.108695
0.109841
0.11079
0.111535
0.112075
0.112421
0.11256
0.112353
0.111595
0.109793
0.0329135
0.0346423
0.0368082
0.039445
0.0427471
0.0466428
0.0508443
0.0550844
0.0591979
0.0630735
0.0666269
0.0698151
0.0726385
0.0751314
0.0773465
0.0793337
0.0811268
0.0827417
0.0841848
0.0854618
0.0865773
0.0875311
0.0883187
0.0889296
0.0893533
0.0896079
0.0897087
0.0894851
0.0885212
0.0863138
0.0225401
0.0233434
0.024377
0.0257948
0.028037
0.0309803
0.0342881
0.0377378
0.0411857
0.0444796
0.0474908
0.0501635
0.0525059
0.0545576
0.0563661
0.0579725
0.0594058
0.0606872
0.061831
0.0628452
0.0637321
0.0644906
0.0651176
0.0656036
0.0659272
0.0660971
0.0661757
0.0660261
0.0649965
0.0625863
0.0127602
0.0128144
0.012798
0.0131792
0.0146658
0.0166714
0.0189096
0.0213593
0.0239343
0.0264307
0.0286571
0.0305323
0.0320866
0.0334044
0.0345632
0.0356011
0.0365295
0.0373557
0.0380899
0.0387405
0.0393085
0.0397907
0.0401849
0.0404877
0.0406769
0.0407314
0.0407242
0.0406665
0.0398367
0.0374565
0.00365374
0.00235785
-0.000244778
-0.000687835
0.000918954
0.0022068
0.00331645
0.00463162
0.00615864
0.00769991
0.00906868
0.0101754
0.0110279
0.0116912
0.0122329
0.0126951
0.0130979
0.0134521
0.0137657
0.0140447
0.0142902
0.0144989
0.0146684
0.0148003
0.0148859
0.0148839
0.0148025
0.0148061
0.0146608
0.0130986
0.407067
0.397562
0.382705
0.365051
0.347391
0.330578
0.314704
0.299521
0.284783
0.270304
0.255948
0.241603
0.227196
0.212676
0.197995
0.183141
0.168125
0.152983
0.137809
0.122727
0.107906
0.0935333
0.0797799
0.0667652
0.054552
0.0431444
0.0324777
0.022458
0.012968
0.00396497
0.405777
0.394557
0.379421
0.361601
0.344042
0.327396
0.311679
0.296636
0.282022
0.267655
0.253399
0.239147
0.224825
0.210386
0.195783
0.181006
0.166071
0.151021
0.135958
0.121013
0.106361
0.0921866
0.078652
0.065866
0.0538796
0.042688
0.0322114
0.0223441
0.0129685
0.00403674
0.404582
0.391025
0.375616
0.357789
0.340488
0.324112
0.308611
0.29374
0.279265
0.265013
0.250859
0.236699
0.222463
0.208105
0.19358
0.178881
0.164028
0.149068
0.134109
0.119291
0.10479
0.0907892
0.0774484
0.0648717
0.0531041
0.0421335
0.0318626
0.0221671
0.0129205
0.00409043
0.402803
0.387142
0.3717
0.353978
0.336965
0.320868
0.305581
0.290879
0.276541
0.262405
0.248351
0.234283
0.22013
0.205852
0.191403
0.176781
0.162011
0.147144
0.132294
0.11761
0.103268
0.0894498
0.0763082
0.0639407
0.0523849
0.0416222
0.0315414
0.022004
0.0128739
0.00413166
0.400546
0.383075
0.367752
0.350199
0.333477
0.317659
0.302585
0.288051
0.273848
0.259827
0.245873
0.231896
0.217825
0.203624
0.189252
0.174705
0.160017
0.145245
0.130509
0.115964
0.101787
0.0881572
0.0752208
0.0630661
0.0517203
0.0411568
0.0312521
0.0218584
0.0128324
0.00416144
0.397864
0.378898
0.363773
0.346453
0.330024
0.314486
0.299623
0.285255
0.271188
0.257281
0.243427
0.22954
0.215549
0.201424
0.187126
0.172654
0.158049
0.143373
0.128754
0.114352
0.100345
0.0869095
0.0741823
0.0622413
0.0511025
0.0407296
0.0309885
0.021726
0.0127932
0.0041818
0.394734
0.374658
0.359769
0.342745
0.326611
0.31135
0.296695
0.282493
0.268561
0.254769
0.241013
0.227214
0.213304
0.199253
0.185027
0.17063
0.156107
0.14153
0.127032
0.112777
0.0989459
0.0857088
0.0731935
0.061466
0.0505303
0.0403389
0.0307493
0.0216057
0.0127562
0.00419462
0.391164
0.370399
0.355753
0.33908
0.323241
0.308252
0.293804
0.279766
0.26597
0.25229
0.238633
0.224921
0.211089
0.197111
0.182956
0.168632
0.154193
0.139718
0.125344
0.111241
0.0975905
0.0845562
0.0722547
0.0607399
0.0500025
0.0399834
0.0305338
0.0214966
0.0127215
0.00420154
0.387189
0.366155
0.351737
0.335458
0.319915
0.305193
0.29095
0.277075
0.263413
0.249846
0.236285
0.22266
0.208907
0.194999
0.180915
0.166665
0.152311
0.137938
0.123693
0.109747
0.096281
0.0834527
0.0713655
0.0600613
0.0495166
0.0396607
0.03034
0.021398
0.0126892
0.00420419
0.382864
0.361943
0.347735
0.331882
0.316637
0.302175
0.288136
0.27442
0.260891
0.247436
0.233973
0.220433
0.206757
0.192918
0.178904
0.164728
0.15046
0.136194
0.122081
0.108297
0.0950197
0.0823995
0.070526
0.0594293
0.0490706
0.0393686
0.0301662
0.021309
0.0126595
0.00420361
0.378257
0.357773
0.343761
0.328352
0.313407
0.299198
0.28536
0.271803
0.258405
0.245062
0.231695
0.218239
0.204638
0.190868
0.176924
0.162823
0.148643
0.134486
0.12051
0.106893
0.0938086
0.081398
0.0697368
0.0588429
0.048663
0.0391051
0.0300109
0.0212291
0.0126322
0.00420049
0.373441
0.353648
0.339829
0.324868
0.310229
0.296265
0.282625
0.269224
0.255957
0.242724
0.229452
0.216078
0.202552
0.188851
0.174976
0.160952
0.146861
0.132817
0.118983
0.105538
0.0926497
0.0804494
0.0689983
0.0583018
0.0482923
0.0388687
0.0298725
0.0211576
0.0126072
0.00419578
0.368493
0.34957
0.335953
0.321433
0.307102
0.293377
0.279931
0.266685
0.253548
0.240424
0.227245
0.213952
0.2005
0.186867
0.173061
0.159113
0.145115
0.131188
0.117502
0.104233
0.091544
0.0795543
0.0683107
0.0578046
0.047957
0.0386573
0.0297493
0.0210935
0.0125842
0.00419009
0.363481
0.345539
0.33214
0.318047
0.304026
0.290534
0.27728
0.264188
0.251178
0.238162
0.225075
0.211861
0.198481
0.184916
0.17118
0.15731
0.143407
0.129601
0.116067
0.102979
0.0904916
0.0787122
0.0676719
0.0573504
0.0476544
0.0384684
0.0296396
0.0210358
0.0125626
0.00418388
0.358468
0.341557
0.328398
0.314715
0.301003
0.287739
0.274673
0.261732
0.248849
0.23594
0.222943
0.209807
0.196498
0.182999
0.169331
0.155541
0.141737
0.128058
0.11468
0.101777
0.0894924
0.0779221
0.0670806
0.0569353
0.0473816
0.0382993
0.0295412
0.0209834
0.0125424
0.00417751
0.353504
0.337626
0.324731
0.311436
0.298031
0.28499
0.27211
0.259319
0.24656
0.233756
0.220848
0.207789
0.194549
0.181116
0.167517
0.153809
0.140108
0.126559
0.113342
0.100627
0.0885461
0.0771827
0.0665347
0.0565568
0.0471354
0.0381475
0.0294525
0.0209355
0.0125232
0.00417127
0.34863
0.333751
0.321143
0.308215
0.295111
0.28229
0.269591
0.256948
0.244312
0.231612
0.218792
0.205808
0.192636
0.179269
0.165739
0.152115
0.13852
0.125107
0.112054
0.0995294
0.0876526
0.0764927
0.0660319
0.0562121
0.0469134
0.038011
0.0293725
0.0208917
0.0125052
0.00416538
0.343874
0.329938
0.317634
0.305053
0.292244
0.279637
0.267116
0.25462
0.242105
0.229507
0.216774
0.203864
0.190758
0.177456
0.163997
0.150461
0.136976
0.123702
0.110818
0.0984858
0.0868123
0.0758514
0.0655706
0.0558994
0.0467138
0.0378883
0.0293
0.0208515
0.0124882
0.00415997
0.339258
0.326193
0.314206
0.301952
0.289429
0.277033
0.264686
0.252335
0.239939
0.227441
0.214794
0.201957
0.188917
0.17568
0.162293
0.148847