/*--------------------------------*- C++ -*----------------------------------*\
  =========                 |
  \\      /  F ield         | OpenFOAM: The Open Source CFD Toolbox
   \\    /   O peration     | Website:  https://openfoam.org
    \\  /    A nd           | Version:  7
     \\/     M anipulation  |
\*---------------------------------------------------------------------------*/
FoamFile
{
    version     2.0;
    format      ascii;
    class       volVectorField;
    location    "8.7";
    object      U;
}
// * * * * * * * * * * * * * * * * * * * * * * * * * * * * * * * * * * * * * //

dimensions      [0 1 -1 0 0 0 0];

internalField   nonuniform List<vector> 
18000
(
(0.000488679 -0.00888345 4.37778e-21)
(0.00274277 -0.0187164 0)
(0.00685996 -0.0213217 0)
(0.0120113 -0.0183146 0)
(0.0180722 -0.0108447 -1.45175e-21)
(0.0248731 0.000219744 7.34585e-21)
(0.0323 0.0141918 -1.48652e-21)
(0.0402663 0.0305236 1.49672e-21)
(0.0486986 0.0487715 0)
(0.0575297 0.068567 -4.52643e-21)
(0.0666961 0.0895953 -1.51394e-21)
(0.0761331 0.111579 0)
(0.0857716 0.134263 3.02014e-21)
(0.0955381 0.15741 3.02736e-21)
(0.105355 0.180791 -6.04536e-21)
(0.115139 0.204181 -6.03619e-21)
(0.124808 0.227364 0)
(0.134274 0.250131 -9.04001e-21)
(0.143454 0.272282 3.00127e-21)
(0.152265 0.293632 -9.01549e-21)
(0.160632 0.31401 2.99194e-21)
(0.16849 0.33327 0)
(0.175782 0.351287 -2.96518e-21)
(0.182463 0.367962 -2.98238e-21)
(0.1885 0.383223 0)
(0.193876 0.397021 0)
(0.198585 0.40933 -5.9605e-21)
(0.202643 0.420124 -5.95646e-21)
(0.206069 0.429365 -6.007e-21)
(0.208779 0.436896 6.41701e-21)
(0.000731054 -0.0093894 6.24094e-21)
(0.00318025 -0.0200407 1.08849e-20)
(0.0071833 -0.0233527 -1.11547e-20)
(0.0119849 -0.0209818 -1.13849e-20)
(0.0175046 -0.014104 -2.89802e-21)
(0.0236133 -0.0036033 8.78797e-21)
(0.0302301 0.0098233 -1.18504e-20)
(0.0372944 0.0256248 -1.19409e-20)
(0.0447528 0.0433581 1.20054e-20)
(0.0525566 0.0626564 1.20518e-20)
(0.0606579 0.08321 -6.03162e-21)
(0.0690056 0.104748 -1.20806e-20)
(0.077545 0.127025 -6.0567e-21)
(0.0862173 0.14981 1.20661e-20)
(0.0949581 0.172884 -1.20484e-20)
(0.103699 0.196034 1.20494e-20)
(0.112369 0.21905 -2.40599e-20)
(0.120895 0.24173 1.79902e-20)
(0.129204 0.26388 -1.19558e-20)
(0.137223 0.285317 5.99738e-21)
(0.144885 0.305873 -1.19139e-20)
(0.152129 0.325396 0)
(0.158902 0.343758 6.06595e-21)
(0.165159 0.360852 -1.18513e-20)
(0.170868 0.376597 1.18536e-20)
(0.176004 0.390931 0)
(0.180561 0.403812 -5.87056e-21)
(0.184551 0.4152 5.85081e-21)
(0.187965 0.425035 2.36009e-20)
(0.190695 0.433134 1.27588e-20)
(0.000998471 -0.00989447 -9.99295e-21)
(0.00367499 -0.0213233 -1.08847e-20)
(0.00757959 -0.0252839 1.67322e-20)
(0.0120438 -0.0235034 2.84364e-20)
(0.017038 -0.0171842 0)
(0.0224753 -0.00722586 -1.17298e-20)
(0.0283069 0.00566969 1.18502e-20)
(0.0344996 0.0209483 3.57733e-20)
(0.0410204 0.0381668 -1.20053e-20)
(0.0478358 0.0569626 -1.20478e-20)
(0.0549127 0.077031 3.61552e-20)
(0.0622137 0.0981073 1.20806e-20)
(0.0696956 0.119954 0)
(0.0773112 0.142348 -2.41294e-20)
(0.0850087 0.16508 3.60303e-20)
(0.0927319 0.187945 -1.19837e-20)
(0.100422 0.210743 1.20032e-20)
(0.108016 0.233278 1.1986e-20)
(0.115451 0.255364 5.97478e-23)
(0.122666 0.27682 0)
(0.129601 0.29748 3.57667e-20)
(0.136199 0.317193 -2.36364e-20)
(0.142413 0.335825 1.18801e-20)
(0.148199 0.353265 0)
(0.153525 0.369421 -1.18537e-20)
(0.158365 0.384224 4.72349e-20)
(0.162711 0.397618 -3.5122e-20)
(0.166572 0.409545 -1.18198e-20)
(0.169916 0.419928 1.16226e-20)
(0.172611 0.428563 1.28123e-20)
(0.00128709 -0.0103454 0)
(0.00421109 -0.0224807 5.43611e-21)
(0.00802328 -0.0270495 7.88287e-24)
(0.0121589 -0.0258288 -2.84105e-20)
(0.0166377 -0.0200472 0)
(0.0214187 -0.0106185 -2.33761e-20)
(0.0264876 0.00175144 0)
(0.0318359 0.0165068 -3.57394e-20)
(0.0374508 0.0332056 1.19628e-20)
(0.0433154 0.0514895 -2.3985e-20)
(0.0494091 0.0710594 -2.40835e-20)
(0.055705 0.0916565 -1.20416e-20)
(0.0621712 0.11305 1.20181e-20)
(0.0687708 0.135026 1.19632e-20)
(0.0754624 0.157383 -1.20429e-20)
(0.0821998 0.179925 -2.38926e-20)
(0.088934 0.202459 2.38264e-20)
(0.0956134 0.224798 0)
(0.102185 0.246761 0)
(0.108594 0.268174 0)
(0.11479 0.288871 0)
(0.120724 0.308702 0)
(0.12635 0.327533 0)
(0.131629 0.345247 -2.3447e-20)
(0.13653 0.361746 -2.35821e-20)
(0.141027 0.376951 -1.84623e-22)
(0.145111 0.390793 -2.35481e-20)
(0.148792 0.403204 -4.4449e-22)
(0.152011 0.414085 -2.38748e-20)
(0.154619 0.423217 5.03567e-20)
(0.001593 -0.0107677 0)
(0.00478081 -0.0235491 4.88086e-20)
(0.00850301 -0.0286731 7.07279e-24)
(0.0123106 -0.0279742 -1.7015e-20)
(0.0162793 -0.0227049 5.75972e-20)
(0.0204154 -0.0137901 3.50567e-20)
(0.0247381 -0.00193941 3.53409e-20)
(0.0292657 0.0122928 0)
(0.034005 0.0284677 0)
(0.0389532 0.0462311 3.59679e-20)
(0.0441016 0.0652894 9.66668e-24)
(0.0494339 0.0853907 -8.39743e-20)
(0.0549269 0.106311 7.18955e-20)
(0.0605524 0.127845 -2.39896e-20)
(0.0662774 0.149797 2.38074e-20)
(0.0720648 0.171979 2.38141e-20)
(0.0778742 0.194209 -2.37546e-20)
(0.0836631 0.216305 2.37812e-20)
(0.0893867 0.238094 4.73539e-20)
(0.0949996 0.259404 -2.35325e-20)
(0.100457 0.280077 -4.69741e-20)
(0.105717 0.299961 4.68545e-20)
(0.110738 0.318923 -4.67426e-20)
(0.115486 0.336842 2.34473e-20)
(0.11993 0.353616 0)
(0.124047 0.369157 0)
(0.127829 0.383386 3.59263e-22)
(0.131284 0.396222 -9.24851e-20)
(0.134333 0.407551 4.6178e-20)
(0.136809 0.417141 -5.05821e-20)
(0.00191276 -0.0111431 0)
(0.00537169 -0.0244959 -4.33788e-20)
(0.00899867 -0.0301262 4.43776e-20)
(0.0124757 -0.0299154 0)
(0.0159352 -0.0251375 -9.2075e-20)
(0.019433 -0.0167267 -1.16597e-20)
(0.0230248 -0.00539262 -2.3588e-20)
(0.0267532 0.00831334 -1.18549e-20)
(0.0306438 0.0239559 0)
(0.0347085 0.0411868 -2.39133e-20)
(0.0389494 0.0597192 2.39365e-20)
(0.0433586 0.0793073 4.79554e-20)
(0.0479205 0.0997339 -4.79209e-20)
(0.0526146 0.1208 0)
(0.0574149 0.14232 -4.77496e-20)
(0.0622913 0.164111 4.74956e-20)
(0.0672113 0.185999 4.75024e-20)
(0.0721399 0.20781 7.09091e-20)
(0.07704 0.229376 -7.0752e-20)
(0.0818732 0.250532 9.40651e-20)
(0.0866017 0.271123 4.70191e-20)
(0.0911887 0.291001 -4.6855e-20)
(0.0955997 0.31003 9.32653e-20)
(0.0998028 0.32809 0)
(0.10377 0.345074 4.62905e-20)
(0.107481 0.360886 9.26936e-20)
(0.110928 0.375441 -4.57343e-20)
(0.114124 0.388646 4.62728e-20)
(0.116964 0.400372 4.55681e-23)
(0.119268 0.41038 -5.026e-20)
(0.00224156 -0.0114708 -4.97381e-21)
(0.00597249 -0.0253195 0)
(0.00949427 -0.0314041 -5.54693e-20)
(0.0126323 -0.0316479 1.13031e-20)
(0.0155805 -0.027343 3.45063e-20)
(0.0184455 -0.0194272 1.16341e-20)
(0.0213185 -0.00860915 4.69605e-20)
(0.0242672 0.00456426 0)
(0.0273357 0.0196645 2.37889e-20)
(0.030549 0.0363504 2.3814e-20)
(0.0339188 0.0543411 -2.39006e-20)
(0.0374448 0.0733977 7.16279e-20)
(0.0411182 0.0933101 0)
(0.0449244 0.113886 0)
(0.048843 0.134946 7.13138e-20)
(0.0528503 0.156317 -1.18553e-19)
(0.0569202 0.177828 4.72255e-20)
(0.0610237 0.199316 -4.72128e-20)
(0.0651302 0.220617 -4.69154e-20)
(0.0692079 0.241572 -1.40648e-19)
(0.073225 0.262029 -2.2098e-22)
(0.0771505 0.281844 4.64618e-20)
(0.0809544 0.300884 -9.28446e-20)
(0.0846091 0.319024 4.61885e-20)
(0.0880902 0.336156 -2.29805e-22)
(0.0913785 0.35218 -4.61837e-20)
(0.0944704 0.367002 4.60799e-20)
(0.0973797 0.38052 0)
(0.0999808 0.392594 4.55777e-20)
(0.102082 0.40298 5.37032e-22)
(0.00257463 -0.0117446 -9.93884e-21)
(0.00657041 -0.0260081 1.0818e-20)
(0.0099716 -0.032496 -6.64089e-20)
(0.0127596 -0.0331624 -3.38493e-20)
(0.0151919 -0.0293133 4.58562e-20)
(0.0174274 -0.0218872 -6.9671e-20)
(0.0195932 -0.0115881 -2.35039e-20)
(0.0217814 0.00104482 -4.72091e-20)
(0.0240535 0.0155909 4.74367e-20)
(0.0264471 0.0317165 -9.52435e-20)
(0.0289821 0.0491483 -4.7641e-20)
(0.0316652 0.0676546 -9.66373e-23)
(0.0344928 0.0870319 2.38398e-20)
(0.0374551 0.107095 -7.12774e-20)
(0.0405368 0.12767 -9.4902e-20)
(0.0437191 0.148591 -9.56818e-24)
(0.0469809 0.169696 -1.31838e-22)
(0.0502986 0.190825 4.6946e-20)
(0.0536467 0.211821 4.6916e-20)
(0.0569992 0.232532 -4.57861e-23)
(0.06033 0.252809 -2.58014e-22)
(0.0636126 0.272512 4.60706e-20)
(0.0668218 0.291508 4.63225e-20)
(0.0699341 0.309674 6.50469e-23)
(0.0729284 0.326898 -1.37975e-19)
(0.0757882 0.343076 9.13645e-20)
(0.078513 0.358109 9.17657e-20)
(0.0811186 0.371889 -9.07709e-20)
(0.0834598 0.384264 -4.55783e-20)
(0.0853322 0.394991 -4.99503e-20)
(0.00290651 -0.0119591 -8.93447e-20)
(0.00715257 -0.0265531 -1.08053e-20)
(0.0104131 -0.0333922 5.53184e-20)
(0.0128368 -0.0344508 4.51367e-20)
(0.0147472 -0.0310434 -4.5856e-20)
(0.0163562 -0.0241041 4.64325e-20)
(0.0178264 -0.0143288 -2.34209e-20)
(0.0192736 -0.00224698 7.07915e-20)
(0.0207756 0.0117306 -4.74368e-20)
(0.0223813 0.0272793 4.75762e-20)
(0.0241184 0.0441338 2.38359e-20)
(0.025999 0.0620698 -2.38533e-20)
(0.0280241 0.0808905 -1.426e-19)
(0.0301876 0.100417 9.49462e-20)
(0.0324784 0.120484 4.7398e-20)
(0.0348816 0.140929 0)
(0.0373801 0.161597 0)
(0.0399543 0.182335 -2.54376e-22)
(0.0425837 0.202992 -4.66992e-20)
(0.0452469 0.223419 0)
(0.0479223 0.243474 0)
(0.0505879 0.263019 -4.62954e-20)
(0.0532227 0.281923 0)
(0.0558071 0.300064 -9.16464e-20)
(0.0583233 0.317328 0)
(0.0607574 0.333608 -4.57175e-20)
(0.0631122 0.348801 9.12965e-20)
(0.0654055 0.362794 -9.03067e-20)
(0.0674733 0.375426 0)
(0.0690989 0.386461 0)
(0.00323147 -0.0121092 7.94135e-20)
(0.00770571 -0.0269456 0)
(0.0108012 -0.0340846 -1.1048e-20)
(0.0128444 -0.0355068 1.1258e-20)
(0.0142264 -0.0325292 -6.85592e-20)
(0.0152124 -0.0260762 4.08317e-24)
(0.0159995 -0.0168321 -2.33796e-20)
(0.0167262 -0.00531388 0)
(0.0174855 0.00807939 0)
(0.0183364 0.0230331 -2.37285e-20)
(0.0193133 0.0392907 2.37516e-20)
(0.0204326 0.0566355 -4.75359e-20)
(0.0216992 0.074878 4.76068e-20)
(0.0231103 0.0938462 0)
(0.0246575 0.113379 0)
(0.0263291 0.133323 0)
(0.0281111 0.153528 4.67952e-20)
(0.0299876 0.173845 -9.16067e-23)
(0.0319414 0.194129 4.68065e-20)
(0.0339554 0.214238 -9.27599e-20)
(0.0360118 0.234032 4.63764e-20)
(0.0380924 0.253378 -2.30421e-19)
(0.04018 0.272146 -1.38671e-22)
(0.0422586 0.290216 9.16478e-20)
(0.0443134 0.307473 -4.71061e-22)
(0.0463331 0.323808 9.05288e-20)
(0.0483232 0.339113 -9.0354e-20)
(0.0503033 0.353275 -9.05593e-20)
(0.0520921 0.366127 -1.21572e-22)
(0.0534593 0.377437 -9.81215e-20)
(0.00354327 -0.0121899 -9.91551e-21)
(0.0082161 -0.0271783 0)
(0.0111188 -0.0345663 2.20678e-20)
(0.0127642 -0.0363254 -2.24875e-20)
(0.0136117 -0.0337678 2.05588e-19)
(0.0139793 -0.027803 2.61263e-24)
(0.0140976 -0.0190993 -2.33433e-20)
(0.0141262 -0.0081588 2.35066e-20)
(0.014172 0.0046329 -1.18014e-19)
(0.0143028 0.0189723 0)
(0.0145584 0.0346125 0)
(0.0149593 0.051345 -4.7345e-20)
(0.0155129 0.0689875 4.74887e-20)
(0.0162188 0.0873745 -4.73404e-20)
(0.0170712 0.106351 4.71392e-20)
(0.0180603 0.125769 0)
(0.0191749 0.145484 -1.87498e-19)
(0.0204015 0.165352 9.33196e-20)
(0.0217263 0.185234 4.6611e-20)
(0.023135 0.204992 1.39105e-19)
(0.0246131 0.224491 0)
(0.0261461 0.243599 9.20413e-20)
(0.02772 0.262192 9.13082e-20)
(0.0293216 0.28015 9.0933e-20)
(0.0309388 0.297357 -2.83632e-22)
(0.0325627 0.313703 -9.03709e-20)
(0.034201 0.32908 9.03555e-20)
(0.0358745 0.343372 0)
(0.0373859 0.356408 -1.1234e-22)
(0.0384891 0.367969 1.96011e-19)
(0.00383537 -0.0121969 -7.92408e-20)
(0.00866991 -0.0272448 0)
(0.011349 -0.0348319 -8.81018e-20)
(0.0125791 -0.0369031 -1.12249e-19)
(0.0128875 -0.0347579 -6.84975e-20)
(0.0126436 -0.0292848 2.30913e-20)
(0.0121097 -0.0211325 6.69826e-25)
(0.0114652 -0.0107849 -2.34696e-20)
(0.010829 0.00138703 1.41262e-22)
(0.0102765 0.0150923 4.73083e-20)
(0.00985202 0.0300942 4.73084e-20)
(0.00957886 0.046193 -4.72588e-20)
(0.00946653 0.0632137 4.72983e-20)
(0.00951632 0.0809972 -1.41683e-19)
(0.00972388 0.0993946 1.41241e-19)
(0.0100814 0.118263 9.38767e-20)
(0.0105793 0.137462 2.34092e-19)
(0.0112064 0.156856 -4.66847e-20)
(0.0119512 0.176308 -9.28146e-20)
(0.0128019 0.195685 -1.491e-22)
(0.0137467 0.214856 -9.23383e-20)
(0.0147739 0.233694 2.75123e-19)
(0.0158725 0.252076 -1.82906e-19)
(0.0170316 0.269884 1.81583e-19)
(0.0182414 0.287003 -9.07292e-20)
(0.0194946 0.303323 1.8048e-19)
(0.0208008 0.318733 4.39232e-22)
(0.0221807 0.333121 -1.78977e-19)
(0.0234227 0.346314 1.77733e-19)
(0.0242622 0.358103 9.75895e-20)
(0.00410088 -0.0121267 7.92406e-20)
(0.00905328 -0.0271403 0)
(0.0114761 -0.0348777 1.98114e-19)
(0.0122739 -0.0372379 6.73552e-20)
(0.0120404 -0.0354993 0)
(0.0111948 -0.0305232 0)
(0.0100286 -0.022934 0)
(0.00873909 -0.0131954 0)
(0.00745543 -0.00166184 4.71577e-20)
(0.0062592 0.0113893 4.72277e-20)
(0.00519805 0.0257322 -9.46641e-20)
(0.00429741 0.0411761 9.46746e-20)
(0.00356807 0.0575534 1.41768e-19)
(0.00301236 0.0747116 4.72663e-20)
(0.00262699 0.0925073 4.70046e-20)
(0.00240534 0.110803 -1.40739e-19)
(0.00233922 0.129464 -1.86995e-19)
(0.00241919 0.148357 -9.31907e-20)
(0.00263542 0.167353 9.28162e-20)
(0.00297811 0.186322 -1.84997e-19)
(0.00343776 0.205137 9.17693e-20)
(0.00400515 0.223673 -1.83459e-19)
(0.0046712 0.241812 9.11022e-20)
(0.00542727 0.259437 3.4179e-22)
(0.00626523 0.276434 -9.01192e-20)
(0.00717889 0.292692 -1.8038e-19)
(0.00817831 0.308105 1.79038e-19)
(0.00928346 0.32256 0)
(0.0102699 0.335887 1.2317e-22)
(0.0108513 0.347887 -1.9501e-19)
(0.00433274 -0.0119764 9.89495e-21)
(0.00935254 -0.0268616 0)
(0.0114851 -0.0347019 -8.7999e-20)
(0.0118351 -0.0373299 2.24026e-20)
(0.0110599 -0.0359936 -2.27477e-20)
(0.00962582 -0.0315206 0)
(0.00785109 -0.0245068 -2.32417e-20)
(0.00594821 -0.0153934 2.34021e-20)
(0.00405495 -0.00451662 4.7037e-20)
(0.00225753 0.00786079 -1.41451e-19)
(0.000605935 0.0215244 -4.72604e-20)
(-0.00087318 0.0362928 -4.42747e-23)
(-0.00216845 0.052006 -4.37862e-23)
(-0.00327706 0.0685177 -9.42666e-20)
(-0.0042017 0.0856904 -4.70996e-20)
(-0.00494822 0.103391 0)
(-0.00552382 0.121491 -9.50883e-23)
(-0.00593679 0.139862 9.30949e-20)
(-0.00619561 0.158377 -9.25056e-20)
(-0.00630841 0.176912 0)
(-0.00628286 0.195343 0)
(-0.00612636 0.21355 0)
(-0.00584622 0.231416 0)
(-0.00544953 0.248827 -1.32043e-22)
(-0.00494329 0.265672 0)
(-0.00433335 0.28184 0)
(-0.00361027 0.297226 8.92815e-20)
(-0.00275596 0.311724 8.88414e-20)
(-0.00200604 0.325166 8.87588e-20)
(-0.00167267 0.337366 1.49702e-22)
(0.0045238 -0.0117441 9.88813e-21)
(0.00955444 -0.0264073 -2.14671e-20)
(0.0113622 -0.0343045 1.31713e-19)
(0.0112511 -0.0371808 -2.23764e-20)
(0.009938 -0.0362437 2.27158e-20)
(0.00793295 -0.0322801 -3.99399e-25)
(0.00557751 -0.025854 6.95638e-20)
(0.00309696 -0.0173817 -9.34224e-20)
(0.000635659 -0.0071793 1.4086e-19)
(-0.00171697 0.00450572 5.18039e-23)
(-0.0039098 0.017471 -4.71564e-20)
(-0.00591575 0.0315443 9.43679e-20)
(-0.00772346 0.0465736 -9.43025e-20)
(-0.00933021 0.0624191 9.41511e-20)
(-0.0107385 0.0789487 0)
(-0.0119538 0.0960348 9.36486e-20)
(-0.0129826 0.113553 0)
(-0.0138325 0.131379 4.79159e-23)
(-0.0145109 0.149391 -9.2588e-20)
(-0.0150246 0.167467 -9.21886e-20)
(-0.0153799 0.185489 9.1775e-20)
(-0.0155825 0.203341 -9.13508e-20)
(-0.0156387 0.220907 -9.0919e-20)
(-0.0155543 0.238077 -1.81054e-19)
(-0.0153359 0.254741 -9.00364e-20)
(-0.0149898 0.270792 8.98958e-20)
(-0.0145084 0.286129 -1.78222e-19)
(-0.0138768 0.30065 -8.88429e-20)
(-0.0133399 0.314194 0)
(-0.01324 0.326584 -9.7388e-20)
(0.00466701 -0.011429 0)
(0.00964646 -0.0257781 8.57399e-20)
(0.0110953 -0.0336882 -6.58604e-20)
(0.0105127 -0.0367944 -1.11668e-19)
(0.00866972 -0.0362537 0)
(0.00611574 -0.0328059 0)
(0.00321203 -0.0269793 -1.39132e-19)
(0.00019382 -0.0191626 1.86716e-19)
(-0.00278998 -0.00965079 -1.40746e-19)
(-0.0056483 0.00132472 0)
(-0.00832995 0.0135739 4.7167e-20)
(-0.0108082 0.0269344 -4.72297e-20)
(-0.0130724 0.0412619 6.62648e-23)
(-0.0151202 0.0564228 -4.7161e-20)
(-0.0169545 0.0722908 -4.69795e-20)
(-0.0185805 0.088743 -3.56277e-23)
(-0.0200046 0.105659 9.32985e-20)
(-0.0212337 0.12292 9.29705e-20)
(-0.0222745 0.140407 -1.58106e-22)
(-0.0231328 0.158004 1.84189e-19)
(-0.0238136 0.175594 -1.83737e-19)
(-0.0243217 0.193066 1.82479e-19)
(-0.0246621 0.210307 9.09207e-20)
(-0.0248404 0.227211 9.04825e-20)
(-0.024863 0.24367 7.09067e-23)
(-0.0247376 0.259581 0)
(-0.0244599 0.274846 8.93055e-20)
(-0.0240189 0.289374 -2.65965e-19)
(-0.0236675 0.30301 8.70613e-20)
(-0.0237827 0.315587 9.67157e-20)
(0.00475553 -0.0110316 -5.9209e-20)
(0.00961708 -0.0249769 -1.92801e-19)
(0.010674 -0.0328577 1.00492e-23)
(0.00961319 -0.0361765 1.27971e-22)
(0.00725309 -0.0360295 -6.78964e-20)
(0.0041772 -0.0331031 0)
(0.000762504 -0.0278862 -4.62251e-20)
(-0.0027488 -0.0207378 -2.79733e-19)
(-0.00620544 -0.0119308 1.40619e-19)
(-0.00951623 -0.00167972 -9.39787e-20)
(-0.012631 0.00983801 1.41287e-19)
(-0.0155241 0.02247 -4.71006e-20)
(-0.018186 0.0360796 9.42397e-20)
(-0.0206156 0.0505399 -2.35245e-19)
(-0.022816 0.0657296 1.40774e-19)
(-0.0247928 0.081531 1.14796e-22)
(-0.0265524 0.0978281 -2.79756e-19)
(-0.0281014 0.114505 9.31046e-20)
(-0.0294461 0.131448 -9.24072e-20)
(-0.0305911 0.148544 0)
(-0.0315407 0.165681 9.17608e-20)
(-0.0322988 0.18275 0)
(-0.03287 0.199644 -9.10892e-20)
(-0.0332593 0.216257 9.01938e-20)
(-0.0334739 0.232488 8.99687e-20)
(-0.0335237 0.248238 8.94458e-20)
(-0.0334087 0.263414 0)
(-0.0331233 0.277934 0)
(-0.0329264 0.291655 -1.76409e-19)
(-0.0332344 0.304418 2.90838e-19)
(0.00478293 -0.0105534 5.92435e-20)
(0.00945603 -0.0240087 1.07061e-19)
(0.0100902 -0.0318198 -8.74594e-20)
(0.00854851 -0.0353348 1.78277e-19)
(0.00568925 -0.0355782 2.27516e-20)
(0.0021238 -0.0331773 2.2899e-20)
(-0.00175953 -0.028578 1.35699e-22)
(-0.00571468 -0.0221082 -9.30103e-20)
(-0.00959027 -0.0140174 -4.67618e-20)
(-0.0132965 -0.00450309 9.36389e-23)
(-0.0167852 0.00627052 -7.78589e-23)
(-0.0200327 0.018161 -1.41298e-19)
(-0.023031 0.0310396 -4.70983e-20)
(-0.0257804 0.0447854 3.02717e-23)
(-0.028285 0.0592828 9.38448e-20)
(-0.0305508 0.0744187 9.35985e-20)
(-0.0325845 0.0900811 -9.69647e-24)
(-0.0343929 0.106158 -9.29708e-20)
(-0.0359813 0.12254 9.27636e-20)
(-0.0373542 0.139116 -9.20137e-20)
(-0.0385147 0.15578 -1.83557e-19)
(-0.0394665 0.172426 -9.15419e-20)
(-0.0402136 0.18895 1.81575e-19)
(-0.0407612 0.205251 0)
(-0.0411174 0.221233 -8.99382e-20)
(-0.0412952 0.2368 -1.7888e-19)
(-0.0413 0.25187 -1.78278e-19)
(-0.0411325 0.26637 8.79708e-20)
(-0.0410561 0.280171 -2.63935e-19)
(-0.0415313 0.293119 9.66467e-20)
(0.00474333 -0.00999722 -9.85058e-20)
(0.00915459 -0.0228807 2.13951e-20)
(0.00933784 -0.030584 8.74604e-20)
(0.00731756 -0.0342786 -6.68268e-20)
(0.00398265 -0.0349081 2.26538e-20)
(-3.44856e-05 -0.0330344 -2.35194e-24)
(-0.00433889 -0.0290581 2.30831e-19)
(-0.00868392 -0.0232739 9.30668e-20)
(-0.0129203 -0.0159075 9.35558e-20)
(-0.0169611 -0.00713862 1.40838e-19)
(-0.0207611 0.0028816 -1.41082e-19)
(-0.0242994 0.0140209 9.41657e-20)
(-0.0275701 0.0261583 1.88363e-19)
(-0.030575 0.0391792 9.4121e-20)
(-0.0333196 0.0529732 1.19949e-22)
(-0.0358108 0.0674316 -1.87078e-19)
(-0.0380557 0.0824465 1.86776e-19)
(-0.0400611 0.0979097 1.40762e-22)
(-0.0418323 0.113714 -9.28054e-20)
(-0.0433731 0.129755 9.20552e-20)
(-0.0446862 0.145928 9.17965e-20)
(-0.0457748 0.162132 -9.14126e-20)
(-0.0466427 0.178266 -1.82032e-19)
(-0.0472954 0.194234 -4.21538e-22)
(-0.0477425 0.209946 8.97043e-20)
(-0.0480001 0.225312 8.94341e-20)
(-0.0480804 0.240258 1.7823e-19)
(-0.0479912 0.254724 -1.76279e-19)
(-0.0479984 0.268601 0)
(-0.0486119 0.281733 9.70993e-20)
(0.00463159 -0.00936724 8.4827e-23)
(0.00870587 -0.0216027 0)
(0.00841372 -0.0291618 -6.53968e-20)
(0.00592232 -0.0330193 -2.22273e-20)
(0.0021411 -0.0340285 -9.01524e-20)
(-0.00228417 -0.0326811 0)
(-0.00695681 -0.0293293 -1.38384e-19)
(-0.011633 -0.0242339 4.64323e-20)
(-0.0161676 -0.0175958 0)
(-0.0204783 -0.00957705 -9.37075e-20)
(-0.0245237 -0.000315398 0)
(-0.028286 0.010067 -1.41146e-19)
(-0.0317621 0.0214568 1.41068e-19)
(-0.0349559 0.0337458 -9.40124e-20)
(-0.0378742 0.0468286 -9.38454e-20)
(-0.0405252 0.0606011 0)
(-0.0429167 0.0749588 0)
(-0.0450558 0.0897972 9.32063e-20)
(-0.0469477 0.105013 3.57097e-22)
(-0.0485959 0.120505 9.27112e-20)
(-0.0500029 0.136172 -9.16935e-20)
(-0.0511715 0.151915 1.83065e-19)
(-0.0521054 0.167641 -9.07821e-20)
(-0.0528104 0.183257 0)
(-0.0532978 0.198677 2.70382e-19)
(-0.0535872 0.213822 -4.47384e-19)
(-0.0536983 0.228625 8.84931e-20)
(-0.0536462 0.243045 8.83589e-20)
(-0.0536982 0.25699 8.77586e-20)
(-0.054418 0.270305 1.94881e-19)
(0.00444348 -0.00866885 -7.85392e-20)
(0.00810513 -0.0201862 1.70365e-19)
(0.00731738 -0.0275667 8.72105e-20)
(0.00436802 -0.0315699 1.99512e-19)
(0.000175843 -0.03295 2.47641e-19)
(-0.0046082 -0.0321241 4.55994e-20)
(-0.00959092 -0.0293942 -2.30028e-19)
(-0.0145346 -0.0249858 0)
(-0.0193008 -0.0190753 -1.86463e-19)
(-0.0238127 -0.0118064 -9.35215e-20)
(-0.0280339 -0.00330376 0)
(-0.0319505 0.00632057 -9.39507e-20)
(-0.0355624 0.0169608 9.87267e-23)
(-0.0388758 0.0285151 -2.81843e-19)
(-0.0418993 0.0408832 9.38474e-20)
(-0.0446426 0.053965 9.3802e-20)
(-0.0471146 0.0676596 -1.865e-19)
(-0.0493228 0.0818661 -1.8619e-19)
(-0.0512725 0.0964847 -3.67972e-22)
(-0.0529672 0.111417 -1.50681e-22)
(-0.0544094 0.126565 0)
(-0.0556017 0.141834 -9.17362e-20)
(-0.0565476 0.157134 -9.13718e-20)
(-0.0572535 0.172378 0)
(-0.057732 0.187487 0)
(-0.0580065 0.202389 2.68969e-19)
(-0.0581039 0.21703 -2.66628e-19)
(-0.0580475 0.231384 0)
(-0.058104 0.245387 2.63679e-19)
(-0.0588955 0.258877 -1.9393e-19)
(0.00417588 -0.00790873 1.86117e-22)
(0.00734999 -0.0186451 -1.70412e-19)
(0.00605146 -0.0258143 -2.17607e-20)
(0.0026633 -0.0299447 -2.21622e-19)
(-0.00189836 -0.0316839 -1.35042e-19)
(-0.00698602 -0.0313705 4.55275e-20)
(-0.0122154 -0.0292547 9.20651e-20)
(-0.0173582 -0.0255262 2.31435e-19)
(-0.0222847 -0.0203367 1.86467e-19)
(-0.0269254 -0.0138119 1.87235e-19)
(-0.0312494 -0.00606319 0)
(-0.0352473 0.00280714 1.14968e-22)
(-0.0389224 0.012701 0)
(-0.0422835 0.0235227 1.87973e-19)
(-0.0453416 0.0351771 0)
(-0.0481078 0.047568 -9.38405e-20)
(-0.0505925 0.060598 9.31793e-20)
(-0.0528038 0.0741697 0)
(-0.0547475 0.0881865 0)
(-0.0564275 0.102552 -2.77677e-19)
(-0.0578465 0.117173 9.18638e-20)
(-0.059007 0.131957 0)
(-0.0599127 0.146817 1.8194e-19)
(-0.0605701 0.161672 1.8125e-19)
(-0.0609932 0.176449 -3.60648e-19)
(-0.0612083 0.191086 3.5847e-19)
(-0.0612497 0.205539 3.12202e-22)
(-0.0611484 0.219804 1.76993e-19)
(-0.0611687 0.233848 -1.75585e-19)
(-0.0619952 0.247501 0)
(0.00382691 -0.00709476 1.96261e-19)
(0.00644071 -0.0169954 -2.12788e-20)
(0.00462183 -0.0239223 -1.73516e-19)
(0.000820258 -0.0281597 0)
(-0.00406322 -0.0302423 -1.79361e-19)
(-0.00939356 -0.0304274 0)
(-0.0148007 -0.0289119 -2.29312e-19)
(-0.0200697 -0.0258501 -1.3891e-19)
(-0.025081 -0.0213687 -1.85983e-19)
(-0.0297739 -0.0155758 0)
(-0.034124 -0.00856968 4.69316e-20)
(-0.0381268 -0.000443176 4.72678e-20)
(-0.0417896 0.00871329 -9.38632e-20)
(-0.0451239 0.0188102 -1.87909e-19)
(-0.0481433 0.0297573 -9.37042e-20)
(-0.050861 0.0414623 -3.7485e-19)
(-0.0532887 0.0538314 1.86564e-19)
(-0.0554358 0.0667706 -3.80091e-22)
(-0.0573088 0.080186 -3.94153e-22)
(-0.0589125 0.0939844 2.77373e-19)
(-0.0602501 0.108074 0)
(-0.0613246 0.122365 0)
(-0.0621396 0.136775 5.18033e-22)
(-0.0627022 0.151226 3.02165e-22)
(-0.0630269 0.165652 -1.80653e-19)
(-0.0631427 0.179998 -1.79823e-19)
(-0.0630897 0.194236 -4.84102e-22)
(-0.0629056 0.208382 -1.76996e-19)
(-0.0628502 0.222439 -1.76062e-19)
(-0.063674 0.236229 -4.00449e-22)
(0.00339611 -0.00623596 0)
(0.00538032 -0.0152545 1.69439e-19)
(0.0030377 -0.0219098 1.5186e-19)
(-0.00114549 -0.0262322 2.20725e-20)
(-0.00629696 -0.0286381 3.58365e-19)
(-0.0118033 -0.0293018 -4.5369e-20)
(-0.0173143 -0.0283667 3.66433e-19)
(-0.0226313 -0.0259512 1.84488e-19)
(-0.0276475 -0.0221579 2.78924e-19)
(-0.0323119 -0.0170772 1.39963e-19)
(-0.0366075 -0.0107954 4.68933e-20)
(-0.0405355 -0.00339555 2.34904e-19)
(-0.0441071 0.00503928 2.84346e-22)
(-0.0473372 0.0144257 9.4117e-20)
(-0.050242 0.0246783 1.87738e-19)
(-0.0528372 0.0357085 1.87435e-19)
(-0.0551362 0.0474265 0)
(-0.0571499 0.0597413 0)
(-0.0588863 0.072562 0)
(-0.0603513 0.0857972 0)
(-0.0615494 0.0993572 1.84623e-19)
(-0.0624844 0.113155 0)
(-0.0631607 0.127109 -3.06273e-22)
(-0.0635857 0.141146 3.63313e-19)
(-0.0637745 0.155204 1.80375e-19)
(-0.063757 0.169236 1.79273e-19)
(-0.063578 0.183225 3.57003e-19)
(-0.0632792 0.197212 0)
(-0.0631123 0.211242 -3.52323e-19)
(-0.0638954 0.22513 3.89337e-19)
(0.0028845 -0.00534226 1.5623e-19)
(0.00417475 -0.0134416 -1.69442e-19)
(0.00131166 -0.0197974 0)
(-0.00321482 -0.0241802 -1.75928e-19)
(-0.00857433 -0.0268848 -4.51047e-20)
(-0.0141844 -0.0280011 -1.35598e-19)
(-0.0197201 -0.027619 -4.11533e-19)
(-0.0250021 -0.025822 -4.03398e-22)
(-0.0299386 -0.0226886 -1.39064e-19)
(-0.0344896 -0.0182927 -3.26267e-19)
(-0.0386462 -0.0127086 -4.67242e-20)
(-0.0424157 -0.0060103 -1.87467e-19)
(-0.0458136 0.0017265 -1.87714e-19)
(-0.0488586 0.0104243 0)
(-0.05157 0.0200024 -1.87703e-19)
(-0.0539659 0.0303763 -2.81431e-19)
(-0.0560619 0.0414599 9.3371e-20)
(-0.0578707 0.0531656 -1.86716e-19)
(-0.0594024 0.065405 -1.86171e-19)
(-0.0606649 0.078089 0)
(-0.0616646 0.0911295 -3.69427e-19)
(-0.0624071 0.104441 0)
(-0.0628983 0.117943 -3.6631e-19)
(-0.0631469 0.131562 -1.82438e-19)
(-0.0631682 0.14524 -3.61977e-19)
(-0.0629924 0.158936 1.80265e-19)
(-0.0626661 0.17264 -5.35781e-19)
(-0.0622308 0.186418 1.77606e-19)
(-0.0619239 0.200363 -2.22656e-22)
(-0.0626303 0.214286 -1.95566e-19)
(0.00229468 -0.00442439 -1.56234e-19)
(0.00283291 -0.0115771 2.10971e-20)
(-0.000540282 -0.0176069 1.50772e-19)
(-0.00536515 -0.0220232 1.75932e-19)
(-0.0108667 -0.0249966 -1.78613e-19)
(-0.0165028 -0.0265325 4.14152e-22)
(-0.0219786 -0.0266686 1.82713e-19)
(-0.027138 -0.0254537 -3.68077e-19)
(-0.0319056 -0.0229435 -4.60402e-20)
(-0.0362536 -0.0191959 4.189e-19)
(-0.0401823 -0.0142739 -2.80371e-19)
(-0.0437052 -0.00824304 4.68283e-19)
(-0.046843 -0.00117172 4.69275e-19)
(-0.0496183 0.00686814 -9.36982e-20)
(-0.0520536 0.0158003 1.87707e-19)
(-0.0541698 0.0255446 2.81448e-19)
(-0.0559852 0.0360187 9.38041e-20)
(-0.0575146 0.0471387 -6.40818e-23)
(-0.0587708 0.0588188 9.28379e-20)
(-0.0597643 0.0709722 9.25815e-20)
(-0.0605045 0.0835123 -9.28076e-20)
(-0.0610001 0.0963544 9.18213e-20)
(-0.0612602 0.109418 -1.83272e-19)
(-0.061296 0.122629 1.82133e-19)
(-0.0611244 0.135928 -1.8591e-22)
(-0.0607755 0.149272 1.80183e-19)
(-0.0602953 0.162659 -1.93237e-22)
(-0.0597184 0.176169 -1.77366e-19)
(-0.0592559 0.18995 2.21118e-22)
(-0.0598524 0.203817 0)
(0.00163084 -0.00349365 0)
(0.00136669 -0.00968217 0)
(-0.0024988 -0.0153611 -1.93871e-19)
(-0.00757057 -0.0197811 2.19188e-20)
(-0.0131424 -0.0229878 0)
(-0.0187211 -0.0249038 1.80449e-19)
(-0.0240478 -0.0255149 4.55659e-20)
(-0.0289917 -0.0248371 1.3798e-19)
(-0.0334964 -0.0229039 1.85096e-19)
(-0.0375471 -0.0197583 -1.86061e-19)
(-0.0411541 -0.0154529 1.86779e-19)
(-0.0443379 -0.0100451 -1.87272e-19)
(-0.0471246 -0.00359656 -1.87565e-19)
(-0.0495409 0.00382596 0)
(-0.0516131 0.0121507 0)
(-0.0533652 0.0213018 0)
(-0.0548179 0.0312011 -1.87191e-19)
(-0.0559891 0.0417683 2.80418e-19)
(-0.0568945 0.0529208 -9.29293e-20)
(-0.0575482 0.0645745 0)
(-0.0579636 0.0766448 2.77684e-19)
(-0.0581539 0.0890477 -9.18898e-20)
(-0.0581336 0.101702 1.83274e-19)
(-0.0579194 0.114531 -3.65262e-19)
(-0.0575323 0.12747 3.62241e-19)
(-0.0570044 0.14047 4.68095e-22)
(-0.0563799 0.153519 2.92743e-22)
(-0.0556792 0.166703 1.77526e-19)
(-0.055065 0.180214 -6.16354e-22)
(-0.0555181 0.193891 1.95196e-19)
(0.000898784 -0.00256179 1.93698e-20)
(-0.000209073 -0.00777894 -2.10452e-20)
(-0.00454136 -0.0130836 4.29012e-20)
(-0.00980206 -0.0174746 -2.61965e-19)
(-0.0153666 -0.0208739 4.43748e-20)
(-0.0207996 -0.0231228 0)
(-0.0258826 -0.0241577 1.8144e-19)
(-0.0305135 -0.0239625 -1.83031e-19)
(-0.0346562 -0.02255 0)
(-0.0383103 -0.0199498 2.31839e-19)
(-0.0414967 -0.0162046 -4.65115e-20)
(-0.0442437 -0.0113642 0)
(-0.0465829 -0.00548446 -9.38292e-20)
(-0.048546 0.00137271 1.87469e-19)
(-0.050163 0.00913986 -9.35375e-20)
(-0.0514611 0.0177455 9.39233e-20)
(-0.052464 0.0271157 -1.87167e-19)
(-0.0531928 0.0371741 -4.6723e-22)
(-0.0536663 0.0478419 -4.69059e-22)
(-0.0539028 0.0590384 -9.31185e-20)
(-0.0539205 0.0706821 -1.8555e-19)
(-0.0537388 0.0826911 -8.98295e-22)
(-0.0533799 0.0949842 -4.5936e-22)
(-0.0528695 0.107483 1.82452e-19)
(-0.0522382 0.120112 -1.8188e-19)
(-0.0515252 0.132811 1.80358e-19)
(-0.0507771 0.14554 -3.58454e-19)
(-0.0499962 0.15836 -3.12694e-22)
(-0.0492616 0.17148 -3.53977e-19)
(-0.0495203 0.184775 1.95299e-19)
(0.000106057 -0.00164091 0)
(-0.00187645 -0.00588994 -1.67213e-19)
(-0.00664215 -0.0107984 0)
(-0.0120275 -0.0151251 5.38651e-22)
(-0.0175019 -0.0186704 4.42626e-20)
(-0.0226957 -0.021198 4.54539e-23)
(-0.0274358 -0.0225967 -3.62316e-19)
(-0.0316512 -0.0228202 1.37378e-19)
(-0.0353277 -0.0218622 0)
(-0.0384807 -0.0197396 -2.31753e-19)
(-0.0411424 -0.0164865 4.64208e-20)
(-0.0433492 -0.0121459 0)
(-0.0451392 -0.0067685 -9.37121e-20)
(-0.046549 -0.000411961 9.34155e-20)
(-0.0476127 0.00686031 9.33204e-20)
(-0.0483611 0.014981 1.87273e-19)
(-0.0488209 0.0238805 -9.33e-20)
(-0.0490161 0.0334865 0)
(-0.0489692 0.0437248 0)
(-0.0487023 0.0545192 1.85772e-19)
(-0.0482388 0.065793 -1.85571e-19)
(-0.0476047 0.0774689 1.83887e-19)
(-0.0468315 0.0894694 1.83472e-19)
(-0.0459574 0.101716 1.82954e-19)
(-0.0450285 0.114132 -1.81097e-19)
(-0.0441018 0.126638 1.80398e-19)
(-0.0432418 0.139159 1.79645e-19)
(-0.0424539 0.151694 -1.77695e-19)
(-0.0417238 0.164424 -4.08921e-22)
(-0.0417884 0.177212 3.9141e-19)
(-0.00073884 -0.00074256 1.92561e-20)
(-0.00361546 -0.00403701 1.46341e-19)
(-0.00877312 -0.00852904 0)
(-0.0142128 -0.0127534 1.74053e-19)
(-0.0195088 -0.0163932 0)
(-0.0243654 -0.0191382 0)
(-0.0286586 -0.0208325 1.35749e-19)
(-0.0323511 -0.0214014 -1.08689e-22)
(-0.0354524 -0.020821 4.58593e-20)
(-0.0379946 -0.0190972 4.62775e-20)
(-0.0400216 -0.0162561 -1.39323e-19)
(-0.0415792 -0.0123351 9.29468e-20)
(-0.0427122 -0.00738034 0)
(-0.0434625 -0.00144606 0)
(-0.0438687 0.00540798 -1.87224e-19)
(-0.0439651 0.0131183 0)
(-0.0437814 0.0216192 -9.37121e-20)
(-0.0433446 0.0308429 9.30716e-20)