-0.365783 	0.365783 	0.5 	-0.0267638 	-0.0414042 	4.11681e-18
-0.38935 	0.38935 	0.5 	-0.110934 	-0.171345 	3.13171e-17
-0.412917 	0.412917 	0.5 	-0.0993483 	-0.263173 	0
-0.436483 	0.436483 	0.5 	-0.0452394 	-0.323351 	3.72727e-17
-0.46005 	0.46005 	0.5 	0.0286094 	-0.360734 	0
-0.483617 	0.483617 	0.5 	0.112777 	-0.38149 	0
-0.507183 	0.507183 	0.5 	0.201155 	-0.389571 	2.88922e-17
-0.53075 	0.53075 	0.5 	0.29006 	-0.388363 	2.88126e-20
-0.554317 	0.554317 	0.5 	0.377571 	-0.381241 	9.72591e-18
-0.577883 	0.577883 	0.5 	0.461531 	-0.370036 	9.70069e-18
-0.60145 	0.60145 	0.5 	0.541182 	-0.356762 	-2.90949e-17
-0.625017 	0.625017 	0.5 	0.615998 	-0.34269 	1.93831e-17
-0.648583 	0.648583 	0.5 	0.685865 	-0.328706 	0
-0.67215 	0.67215 	0.5 	0.750811 	-0.31563 	0
-0.695717 	0.695717 	0.5 	0.810804 	-0.303778 	-3.79973e-17
-0.719283 	0.719283 	0.5 	0.866143 	-0.293521 	0
-0.74285 	0.74285 	0.5 	0.917147 	-0.284977 	-1.86569e-17
-0.766417 	0.766417 	0.5 	0.96418 	-0.278236 	1.85443e-17
-0.789983 	0.789983 	0.5 	1.00754 	-0.273209 	1.82796e-17
-0.81355 	0.81355 	0.5 	1.04743 	-0.269838 	-7.06028e-20
-0.837117 	0.837117 	0.5 	1.08403 	-0.268058 	-1.79313e-17
-0.860683 	0.860683 	0.5 	1.11747 	-0.267729 	0
-0.88425 	0.88425 	0.5 	1.14771 	-0.268637 	-3.48238e-17
-0.907817 	0.907817 	0.5 	1.17476 	-0.270625 	3.45025e-17
-0.931383 	0.931383 	0.5 	1.19855 	-0.27355 	0
-0.95495 	0.95495 	0.5 	1.21884 	-0.277105 	0
-0.978517 	0.978517 	0.5 	1.23342 	-0.278528 	0
-1.00208 	1.00208 	0.5 	1.25799 	-0.292027 	0
-1.02565 	1.02565 	0.5 	1.26455 	-0.242748 	-3.21008e-17
-1.04922 	1.04922 	0.5 	1.24303 	-0.256363 	8.76127e-20
-1.061 	1.061 	0.5 	1.3951 	-0.429268 	1.51302e-17
-1.14332 	1.14332 	0.5 	1.51823 	-0.579259 	0
-1.22563 	1.22563 	0.5 	1.27345 	-0.374937 	0
-1.30795 	1.30795 	0.5 	1.08141 	-0.143659 	0
-1.39027 	1.39027 	0.5 	0.983213 	-0.236253 	0
-1.47258 	1.47258 	0.5 	0.971835 	-0.13578 	0
-1.5549 	1.5549 	0.5 	0.866392 	-0.154442 	0
-1.63722 	1.63722 	0.5 	0.840533 	-0.0543495 	0
-1.71953 	1.71953 	0.5 	0.741061 	-0.0708488 	0
