/*--------------------------------*- C++ -*----------------------------------*\
  =========                 |
  \\      /  F ield         | OpenFOAM: The Open Source CFD Toolbox
   \\    /   O peration     | Website:  https://openfoam.org
    \\  /    A nd           | Version:  7
     \\/     M anipulation  |
\*---------------------------------------------------------------------------*/
FoamFile
{
    version     2.0;
    format      ascii;
    class       surfaceScalarField;
    location    "0.175";
    object      phi;
}
// * * * * * * * * * * * * * * * * * * * * * * * * * * * * * * * * * * * * * //

dimensions      [0 3 -1 0 0 0 0];

internalField   nonuniform List<scalar> 
760
(
1.42531e-08
-1.42945e-08
-2.23524e-08
3.66054e-08
-1.14246e-07
9.18942e-08
-2.45331e-07
1.31085e-07
-3.95837e-07
1.50507e-07
-5.47022e-07
1.51186e-07
-6.82774e-07
1.35752e-07
-7.90188e-07
1.07414e-07
-8.59693e-07
6.95059e-08
-8.85114e-07
2.54201e-08
-8.63805e-07
-2.13088e-08
-7.96911e-07
-6.68931e-08
-6.89668e-07
-1.07244e-07
-5.51632e-07
-1.38036e-07
-3.9669e-07
-1.54942e-07
-2.426e-07
-1.5409e-07
-1.09731e-07
-1.32869e-07
-1.85781e-08
-9.11521e-08
1.57655e-08
-3.43432e-08
1.5766e-08
-3.43446e-08
2.00502e-08
-1.80355e-07
1.82616e-07
-4.33865e-07
3.45403e-07
-7.64027e-07
4.61248e-07
-1.13145e-06
5.17926e-07
-1.49612e-06
5.15854e-07
-1.82188e-06
4.61519e-07
-2.07882e-06
3.64353e-07
-2.24439e-06
2.35077e-07
-2.30409e-06
8.51212e-08
-2.252e-06
-7.33995e-08
-2.09131e-06
-2.27586e-07
-1.83478e-06
-3.63773e-07
-1.5049e-06
-4.67919e-07
-1.13332e-06
-5.26521e-07
-7.59134e-07
-5.28275e-07
-4.25302e-07
-4.66701e-07
-1.72691e-07
-3.43764e-07
-3.09931e-08
-1.76042e-07
-1.52269e-08
-9.2028e-08
1.12078e-07
-3.56727e-07
4.47315e-07
-7.64073e-07
7.52749e-07
-1.26765e-06
9.64822e-07
-1.81343e-06
1.06371e-06
-2.34734e-06
1.04977e-06
-2.82034e-06
9.34516e-07
-3.19154e-06
7.35552e-07
-3.43e-06
4.73542e-07
-3.51583e-06
1.70948e-07
-3.44094e-06
-1.48283e-07
-3.20982e-06
-4.58714e-07
-2.83997e-06
-7.33619e-07
-2.36207e-06
-9.45822e-07
-1.81903e-06
-1.06956e-06
-1.26365e-06
-1.08365e-06
-7.54054e-07
-9.76298e-07
-3.46719e-07
-7.51098e-07
-8.71435e-08
-4.35618e-07
-1.0237e-07
-1.45027e-07
2.57104e-07
-5.25049e-07
8.27338e-07
-1.08087e-06
1.30857e-06
-1.7463e-06
1.63025e-06
-2.45263e-06
1.77003e-06
-3.13419e-06
1.73132e-06
-3.73267e-06
1.533e-06
-4.19995e-06
1.20283e-06
-4.49973e-06
7.73331e-07
-4.60865e-06
2.79868e-07
-4.51704e-06
-2.39898e-07
-4.22971e-06
-7.46041e-07
-3.76667e-06
-1.19666e-06
-3.16338e-06
-1.54912e-06
-2.47012e-06
-1.76281e-06
-1.74984e-06
-1.80394e-06
-1.07375e-06
-1.65238e-06
-5.14734e-07
-1.31011e-06
-1.3913e-07
-8.11222e-07
-2.41501e-07
-1.93443e-07
4.50546e-07
-6.8451e-07
1.31841e-06
-1.38468e-06
2.00874e-06
-2.20576e-06
2.45133e-06
-3.06342e-06
2.6277e-06
-3.8812e-06
2.5491e-06
-4.59346e-06
2.24526e-06
-5.14717e-06
1.75654e-06
-5.50279e-06
1.12895e-06
-5.63476e-06
4.11839e-07
-5.53203e-06
-3.42624e-07
-5.19884e-06
-1.07923e-06
-4.65569e-06
-1.73982e-06
-3.94022e-06
-2.26458e-06
-3.10752e-06
-2.59551e-06
-2.22892e-06
-2.68254e-06
-1.38865e-06
-2.49266e-06
-6.77995e-07
-2.02077e-06
-1.8759e-07
-1.30163e-06
-4.29091e-07
-2.39761e-07
6.90307e-07
-8.3979e-07
1.91843e-06
-1.6822e-06
2.85116e-06
-2.65537e-06
3.4245e-06
-3.65855e-06
3.63087e-06
-4.60492e-06
3.49547e-06
-5.42303e-06
3.06336e-06
-6.05687e-06
2.39038e-06
-6.4654e-06
1.53748e-06
-6.62198e-06
5.68413e-07
-6.51427e-06
-4.50338e-07
-6.14491e-06
-1.44859e-06
-5.53296e-06
-2.35177e-06
-4.71579e-06
-3.08175e-06
-3.75091e-06
-3.5604e-06
-2.71658e-06
-3.71686e-06
-1.71032e-06
-3.49892e-06
-8.44044e-07
-2.88705e-06
-2.3597e-07
-1.9097e-06
-6.65061e-07
-2.86537e-07
9.76844e-07
-9.96458e-07
2.62836e-06
-1.98088e-06
3.83558e-06
-3.10311e-06
4.54674e-06
-4.24551e-06
4.77327e-06
-5.31183e-06
4.56179e-06
-6.22667e-06
3.9782e-06
-6.93337e-06
3.09708e-06
-7.39143e-06
1.99555e-06
-7.57443e-06
7.51408e-07
-7.46895e-06
-5.55821e-07
-7.07501e-06
-1.84253e-06
-6.40803e-06
-3.01875e-06
-5.50213e-06
-3.98764e-06
-4.41416e-06
-4.64837e-06
-3.22715e-06
-4.90387e-06
-2.05149e-06
-4.67458e-06
-1.02177e-06
-3.91676e-06
-2.88012e-07
-2.64346e-06
-9.53073e-07
-3.36081e-07
1.31293e-06
-1.15966e-06
3.45194e-06
-2.28671e-06
4.96262e-06
-3.55305e-06
5.81308e-06
-4.8241e-06
6.04432e-06
-5.99605e-06
5.73374e-06
-6.99262e-06
4.97477e-06
-7.75979e-06
3.86425e-06
-8.26052e-06
2.49628e-06
-8.47049e-06
9.61381e-07
-8.37577e-06
-6.50545e-07
-7.97273e-06
-2.24557e-06
-7.27056e-06
-3.72092e-06
-6.29624e-06
-4.96197e-06
-5.10144e-06
-5.84317e-06
-3.76995e-06
-6.23535e-06
-2.42311e-06
-6.02142e-06
-1.21978e-06
-5.1201e-06
-3.47349e-07
-3.51589e-06
-1.30042e-06
-3.90646e-07
1.70357e-06
-1.33407e-06
4.39536e-06
-2.60353e-06
6.23208e-06
-4.00389e-06
7.21345e-06
-5.38426e-06
7.42469e-06
-6.63681e-06
6.98629e-06
-7.68919e-06
6.02715e-06
-8.49499e-06
4.67005e-06
-9.02475e-06
3.02603e-06
-9.25909e-06
1.19572e-06
-9.18468e-06
-7.24951e-07
-8.79343e-06
-2.63682e-06
-8.08532e-06
-4.42903e-06
-7.07511e-06
-5.97217e-06
-5.80275e-06
-7.11553e-06
-4.34605e-06
-7.69205e-06
-2.83264e-06
-7.53483e-06
-1.44584e-06
-6.50689e-06
-4.1761e-07
-4.54413e-06
-1.71803e-06
-4.53051e-07
2.15662e-06
-1.5247e-06
5.46702e-06
-2.93325e-06
7.64063e-06
-4.44795e-06
8.72814e-06
-5.9038e-06
8.88054e-06
-7.19506e-06
8.27756e-06
-8.26077e-06
7.09286e-06
-9.06907e-06
5.47835e-06
-9.60375e-06
3.56072e-06
-9.85432e-06
1.44629e-06
-9.80995e-06
-7.69317e-07
-9.45769e-06
-2.98908e-06
-8.78523e-06
-5.10149e-06
-7.78904e-06
-6.96837e-06
-6.48835e-06
-8.41621e-06
-4.94452e-06
-9.23587e-06
-3.28244e-06
-9.19692e-06
-1.70704e-06
-8.0823e-06
-5.02919e-07
-5.74825e-06
-2.22095e-06
-5.27815e-07
2.68444e-06
-1.73844e-06
6.67764e-06
-3.27608e-06
9.17827e-06
-4.86931e-06
1.03214e-05
-6.34454e-06
1.03558e-05
-7.60835e-06
9.54137e-06
-8.62196e-06
8.10647e-06
-9.37734e-06
6.23374e-06
-9.87863e-06
4.06201e-06
-1.0129e-05
1.69671e-06
-1.01231e-05
-7.75311e-07
-9.84326e-06
-3.26887e-06
-9.26251e-06
-5.68224e-06
-8.35249e-06
-7.8784e-06
-7.10065e-06
-9.66805e-06
-5.53679e-06
-1.07997e-05
-3.76743e-06
-1.09663e-05
-2.01002e-06
-9.8397e-06
-6.08799e-07
-7.14947e-06
-2.82975e-06
-6.2305e-07
3.30749e-06
-1.98588e-06
8.04047e-06
-3.62969e-06
1.08221e-05
-5.23947e-06
1.19312e-05
-6.64524e-06
1.17615e-05
-7.78246e-06
1.06786e-05
-8.64933e-06
8.97334e-06
-9.27289e-06
6.85729e-06
-9.68524e-06
4.47436e-06
-9.90846e-06
1.91993e-06
-9.94561e-06
-7.38158e-07
-9.77651e-06
-3.43798e-06
-9.3582e-06
-6.10055e-06
-8.63225e-06
-8.60434e-06
-7.54243e-06
-1.07579e-05
-6.06738e-06
-1.22748e-05
-4.27042e-06
-1.27632e-05
-2.36098e-06
-1.17492e-05
-7.43708e-07
-8.76674e-06
-3.57346e-06
-7.53587e-07
4.06108e-06
-2.28264e-06
9.56952e-06
-3.98451e-06
1.2524e-05
-5.50661e-06
1.34533e-05
-6.70762e-06
1.29625e-05
-7.57722e-06
1.15482e-05
-8.16934e-06
9.56546e-06
-8.5574e-06
7.24535e-06
-8.80779e-06
4.72474e-06
-8.96514e-06
2.07728e-06
-9.04422e-06
-6.59078e-07
-9.0251e-06
-3.4571e-06
-8.85118e-06
-6.27446e-06
-8.43247e-06
-9.02305e-06
-7.65959e-06
-1.15308e-05
-6.43795e-06
-1.34964e-05
-4.75215e-06
-1.4449e-05
-2.7638e-06
-1.37375e-05
-9.21513e-07
-1.0609e-05
-4.49497e-06
-9.45674e-07
5.00675e-06
-2.64707e-06
1.12709e-05
-4.30847e-06
1.41853e-05
-5.57109e-06
1.47159e-05
-6.36938e-06
1.37608e-05
-6.78295e-06
1.19618e-05
-6.94103e-06
9.72355e-06
-6.97093e-06
7.27525e-06
-6.97439e-06
4.7282e-06
-7.01825e-06
2.12115e-06
-7.1302e-06
-5.47128e-07
-7.2949e-06
-3.29241e-06
-7.44901e-06
-6.12035e-06
-7.47721e-06
-8.99485e-06
-7.21605e-06
-1.17919e-05
-6.47972e-06
-1.42328e-05
-5.12988e-06
-1.57989e-05
-3.21269e-06
-1.56547e-05
-1.16476e-06
-1.2657e-05
-5.65973e-06
-1.24115e-06
6.2479e-06
-3.08362e-06
1.31134e-05
-4.50594e-06
1.56077e-05
-5.23325e-06
1.54432e-05
-5.35521e-06
1.38828e-05
-5.08299e-06
1.16895e-05
-4.63303e-06
9.27359e-06
-4.18213e-06
6.82435e-06
-3.85773e-06
4.40381e-06
-3.74064e-06
2.00406e-06
-3.86874e-06
-4.19034e-07
-4.23596e-06
-2.92519e-06
-4.78481e-06
-5.5715e-06
-5.39291e-06
-8.38675e-06
-5.85921e-06
-1.13256e-05
-5.90605e-06
-1.41859e-05
-5.23161e-06
-1.64733e-05
-3.66707e-06
-1.72192e-05
-1.50485e-06
-1.48192e-05
-7.16458e-06
-1.68696e-06
7.93487e-06
-3.51939e-06
1.49458e-05
-4.31612e-06
1.64044e-05
-4.08987e-06
1.52169e-05
-3.19521e-06
1.29881e-05
-2.00192e-06
1.04963e-05
-7.99183e-07
8.07085e-06
2.14615e-07
5.81055e-06
9.13065e-07
3.70536e-06
1.22014e-06
1.69698e-06
1.09645e-06
-2.95338e-07
5.35476e-07
-2.36422e-06
-4.28289e-07
-4.60774e-06
-1.69753e-06
-7.11751e-06
-3.07689e-06
-9.94625e-06
-4.23483e-06
-1.3028e-05
-4.70004e-06
-1.60081e-05
-3.97673e-06
-1.79425e-05
-1.96101e-06
-1.68349e-05
-9.12559e-06
-2.27135e-06
1.02062e-05
-3.6091e-06
1.62836e-05
-3.08308e-06
1.58784e-05
-1.34827e-06
1.34821e-05
8.91942e-07
1.07479e-05
3.14939e-06
8.23881e-06
5.13212e-06
6.08812e-06
6.68234e-06
4.26033e-06
7.71916e-06
2.66853e-06
8.19962e-06
1.21652e-06
8.09664e-06
-1.92358e-07
7.39155e-06
-1.65912e-06
6.07914e-06
-3.29533e-06
4.19119e-06
-5.22956e-06
1.84567e-06
-7.60074e-06
-6.71087e-07
-1.05112e-05
-2.80465e-06
-1.38745e-05
-3.68967e-06
-1.70575e-05
-2.46032e-06
-1.80642e-05
-1.15859e-05
-2.69697e-06
1.29032e-05
-2.20755e-06
1.57941e-05
7.13613e-07
1.29572e-05
4.46333e-06
9.73241e-06
8.12556e-06
7.08568e-06
1.12935e-05
5.07086e-06
1.38211e-05
3.56057e-06
1.56801e-05
2.40125e-06
1.68837e-05
1.46497e-06
1.74468e-05
6.53473e-07
1.73679e-05
-1.13507e-07
1.66216e-05
-9.12771e-07
1.51576e-05
-1.8314e-06
1.29134e-05
-2.98529e-06
9.85119e-06
-4.53857e-06
6.05128e-06
-6.71131e-06
1.89987e-06
-9.72313e-06
-1.59549e-06
-1.35622e-05
-2.59412e-06
-1.70656e-05
-1.418e-05
-5.79033e-07
1.34822e-05
4.12014e-06
1.1095e-05
1.02997e-05
6.77768e-06
1.5788e-05
4.24407e-06
2.01497e-05
2.72406e-06
2.3449e-05
1.7715e-06
2.58521e-05
1.15746e-06
2.75134e-05
7.39985e-07
2.85462e-05
4.32154e-07
2.90185e-05
1.81212e-07
2.89542e-05
-4.92487e-08
2.83301e-05
-2.8863e-07
2.70723e-05
-5.73652e-07
2.5045e-05
-9.57957e-07
2.20425e-05
-1.53606e-06
1.78098e-05
-2.47863e-06
1.21749e-05
-4.08824e-06
5.52148e-06
-6.90874e-06
9.58954e-08
-1.164e-05
-1.40841e-05
1.34822e-05
2.45772e-05
3.13549e-05
3.55989e-05
3.8323e-05
4.00945e-05
4.12519e-05
4.19919e-05
4.24241e-05
4.26053e-05
4.25561e-05
4.22674e-05
4.16938e-05
4.07358e-05
3.91998e-05
3.67211e-05
3.26329e-05
2.57242e-05
1.40841e-05
)
;

boundaryField
{
    movingWall
    {
        type            calculated;
        value           uniform 0;
    }
    fixedWalls
    {
        type            calculated;
        value           uniform 0;
    }
    frontAndBack
    {
        type            empty;
        value           nonuniform 0();
    }
}


// ************************************************************************* //
