/*--------------------------------*- C++ -*----------------------------------*\
  =========                 |
  \\      /  F ield         | OpenFOAM: The Open Source CFD Toolbox
   \\    /   O peration     | Website:  https://openfoam.org
    \\  /    A nd           | Version:  7
     \\/     M anipulation  |
\*---------------------------------------------------------------------------*/
FoamFile
{
    version     2.0;
    format      ascii;
    class       volScalarField;
    location    "34.1";
    object      p;
}
// * * * * * * * * * * * * * * * * * * * * * * * * * * * * * * * * * * * * * //

dimensions      [0 2 -2 0 0 0 0];

internalField   nonuniform List<scalar> 
2000
(
-0.0208798
-0.0202652
-0.0201229
-0.0202775
-0.0206734
-0.0211833
-0.0216785
-0.022062
-0.0222831
-0.0222884
-0.0198045
-0.0192098
-0.0189706
-0.018988
-0.0192353
-0.0196098
-0.019997
-0.0203072
-0.020493
-0.0205139
-0.0186912
-0.0181121
-0.0177682
-0.0176347
-0.0177165
-0.0179353
-0.0181939
-0.0184107
-0.0185392
-0.018557
-0.0175629
-0.0169905
-0.0165365
-0.016244
-0.0161502
-0.0162015
-0.016319
-0.0164298
-0.0164878
-0.0164907
-0.0164405
-0.0158623
-0.0152966
-0.0148429
-0.0145708
-0.0144512
-0.0144229
-0.014423
-0.0144062
-0.0143922
-0.0153444
-0.0147431
-0.0140678
-0.0134565
-0.0130106
-0.0127241
-0.0125535
-0.0124453
-0.0123581
-0.0123374
-0.0142921
-0.0136462
-0.0128666
-0.0121068
-0.0114988
-0.0110577
-0.0107551
-0.0105468
-0.0103993
-0.0103947
-0.0132904
-0.012586
-0.0117062
-0.010812
-0.0100602
-0.00948403
-0.00906731
-0.00877286
-0.00857754
-0.0086208
-0.0123449
-0.0115662
-0.010594
-0.00958504
-0.00871368
-0.00802764
-0.00752006
-0.00715816
-0.00693184
-0.00706392
-0.0114571
-0.0105805
-0.00953118
-0.00843298
-0.00747129
-0.00670118
-0.00611821
-0.00568758
-0.00540197
-0.00558768
-0.0214545
-0.0180788
-0.0132432
-0.00650239
-0.000187684
0.00652464
0.0113056
0.0169486
0.0191028
0.0229165
-0.0198191
-0.0171119
-0.0126927
-0.00651445
-0.000589631
0.00562506
0.0101398
0.0152373
0.0173761
0.0207301
-0.0180253
-0.0160048
-0.0120292
-0.00637599
-0.000860516
0.00488872
0.00913718
0.0137372
0.0158268
0.0187842
-0.0161507
-0.0148018
-0.0112817
-0.00612226
-0.00102705
0.00430471
0.00825996
0.012456
0.0144189
0.0170841
-0.0142712
-0.0135342
-0.0104634
-0.00578273
-0.00110142
0.00385155
0.00750964
0.0113866
0.0131787
0.0156349
-0.0124578
-0.0122407
-0.00960501
-0.00539885
-0.00111322
0.00349239
0.00686316
0.0104644
0.0120803
0.014402
-0.0107799
-0.0109514
-0.00870877
-0.00496123
-0.00105129
0.00322865
0.00633398
0.00969678
0.0111555
0.0133768
-0.00930265
-0.00973029
-0.00786409
-0.00455109
-0.00098285
0.00299367
0.00584642
0.00898291
0.0103213
0.0125038
-0.00810804
-0.00852387
-0.00695985
-0.00405907
-0.000825436
0.00285212
0.00548041
0.0084214
0.00965896
0.0117933
-0.00721973
-0.0076835
-0.00643303
-0.00385288
-0.000863158
0.00256682
0.0050054
0.00775506
0.00899526
0.0111506
-0.000854076
-0.00252699
-0.0027262
-0.00164247
0.000283871
0.00284035
0.00496429
0.00714531
0.00834985
0.00993645
-0.000695951
-7.61304e-06
0.000501429
0.00111245
0.00220094
0.00379873
0.0052744
0.00670224
0.00741829
0.0082939
-0.000928662
0.000669984
0.00187202
0.00265791
0.00348848
0.00457301
0.00554607
0.0065705
0.00697888
0.00744814
-0.00127181
0.000825202
0.00239299
0.00329505
0.00402736
0.00481998
0.00541205
0.00602656
0.00624549
0.00681414
-0.00160905
0.000648083
0.00247032
0.00343617
0.00413549
0.00479912
0.00528398
0.0056977
0.00558003
0.00587508
-0.001523
0.000673816
0.00232791
0.00325938
0.00388734
0.00444318
0.00484587
0.00524735
0.00517672
0.00531994
-0.00118478
0.000700684
0.0020855
0.00291444
0.00336679
0.00384418
0.00417419
0.00446049
0.00439547
0.00462313
-0.000722321
0.000633359
0.00165895
0.00229949
0.00272778
0.00311705
0.00343785
0.00372239
0.0035533
0.00359591
-0.000382953
0.000492916
0.00112653
0.00153415
0.00181076
0.00206399
0.00227786
0.00252669
0.0024268
0.00244783
-0.000375201
4.05397e-06
0.000360792
0.000636779
0.000773934
0.000882939
0.000947387
0.00104719
0.000897438
0.000890752
-0.00109847
-0.0012148
-0.00186633
-0.00261236
-0.00301057
-0.00281786
-0.00221691
-0.00142698
-0.000813255
-0.000541097
-0.0009817
-0.00157497
-0.00248853
-0.00336327
-0.00371693
-0.00342796
-0.00267508
-0.00173948
-0.00098936
-0.000608344
-0.00113647
-0.00215885
-0.00326008
-0.00418061
-0.00444528
-0.00402674
-0.00311127
-0.00203932
-0.00115376
-0.000666439
-0.00155341
-0.00285136
-0.00405185
-0.0049713
-0.00512887
-0.00457767
-0.00351009
-0.00231376
-0.00130184
-0.000714442
-0.00214777
-0.00358411
-0.00482287
-0.00571398
-0.00575407
-0.00507611
-0.00386957
-0.00256141
-0.00143447
-0.00075437
-0.00279451
-0.00428268
-0.00552032
-0.0063731
-0.00629839
-0.00550874
-0.00418288
-0.00278001
-0.00155316
-0.000789047
-0.00334034
-0.00486591
-0.00608453
-0.00690613
-0.00673389
-0.00585883
-0.00444145
-0.00296613
-0.00165849
-0.000822641
-0.00365694
-0.00526494
-0.00646707
-0.00728048
-0.00703896
-0.00611472
-0.0046386
-0.00311721
-0.00174921
-0.000854005
-0.00367401
-0.00543565
-0.00663965
-0.00747862
-0.00720232
-0.00627145
-0.00477059
-0.00323214
-0.0018233
-0.00085625
-0.00337983
-0.00536552
-0.00660654
-0.00748714
-0.00722669
-0.00631967
-0.00484652
-0.00331054
-0.00188639
-0.000818297
-0.002817
-0.00507309
-0.0063754
-0.00732999
-0.00712111
-0.00627406
-0.00485956
-0.0033518
-0.00192984
-0.000773747
-0.00203731
-0.00459357
-0.00597491
-0.00702911
-0.00690404
-0.00614504
-0.00481566
-0.00335749
-0.00195373
-0.00072927
-0.00109493
-0.00396653
-0.00544068
-0.00661125
-0.00659778
-0.00594702
-0.00472425
-0.00333157
-0.00195959
-0.000686133
-4.18854e-05
-0.00322967
-0.00480962
-0.00610414
-0.00622504
-0.00569481
-0.00459364
-0.00327723
-0.00194787
-0.00064526
0.00107814
-0.00241328
-0.0041153
-0.00553298
-0.00580594
-0.00540185
-0.00443132
-0.00319787
-0.00191937
-0.00060702
0.00222719
-0.00154171
-0.00338669
-0.00491939
-0.00535663
-0.00507954
-0.00424376
-0.003097
-0.00187537
-0.000571186
0.00336723
-0.000635491
-0.00264598
-0.00428033
-0.00488891
-0.00473748
-0.00403646
-0.00297804
-0.00181728
-0.000537215
0.00449373
0.000316069
-0.00189246
-0.00362148
-0.00440947
-0.00438461
-0.00381622
-0.00284564
-0.00174727
-0.000504286
0.00566363
0.00138225
-0.00109571
-0.00293277
-0.00391486
-0.00402292
-0.00358745
-0.00270497
-0.00166764
-0.00047068
0.00657942
0.00243813
-0.000317088
-0.00224179
-0.00339284
-0.00362804
-0.0033234
-0.00254085
-0.00156869
-0.000433616
0.00686575
0.0040707
0.00122409
-0.000708018
-0.002049
-0.00256678
-0.00254135
-0.002024
-0.00125469
-0.00035355
0.00813651
0.00549567
0.00284689
0.00100258
-0.000411143
-0.00111806
-0.00137979
-0.00116252
-0.00068198
-0.000100362
0.0103153
0.00752514
0.00475664
0.00279618
0.00119085
0.000254375
-0.000280409
-0.000308388
-6.95791e-05
0.000202992
0.0128138
0.00973707
0.00677129
0.00459851
0.00274574
0.00154823
0.000755106
0.000534103
0.000587506
0.000569361
0.0155946
0.0121044
0.00884374
0.00637658
0.00423195
0.00275693
0.00173041
0.00137069
0.00129585
0.00100239
0.0185943
0.0146087
0.0109525
0.0081082
0.00564521
0.00389078
0.00266956
0.00221187
0.00204972
0.001486
0.0217456
0.0171379
0.0130007
0.00975203
0.00699898
0.00498654
0.00361091
0.00305179
0.00278662
0.00192374
0.0245844
0.0191466
0.0148373
0.0113192
0.0083166
0.00607048
0.00455716
0.00381961
0.00328936
0.00203918
0.0271926
0.0221469
0.0170919
0.0128414
0.00945632
0.00700817
0.00534631
0.00429947
0.0033224
0.00173816
0.0295976
0.022488
0.017223
0.0131398
0.00994151
0.00755702
0.00582983
0.00452235
0.00319115
0.00142185
0.00907068
0.0104198
0.0125708
0.0151405
0.0181662
0.0214527
0.0248497
0.0291311
0.0300857
0.0352777
0.00984531
0.011537
0.0138571
0.016587
0.0198006
0.0232676
0.0268641
0.0310347
0.0324238
0.0367543
0.0104241
0.012577
0.0152591
0.0183566
0.021906
0.0256784
0.0295691
0.0334134
0.0356237
0.0378574
0.0109931
0.0134655
0.0164551
0.0199202
0.0238056
0.0278883
0.0320673
0.0359003
0.0386333
0.0397281
0.0116327
0.0143987
0.0176338
0.021391
0.0255418
0.0298694
0.0342814
0.0383134
0.0413464
0.0423576
0.0123078
0.0154347
0.0189476
0.0229716
0.0273443
0.031867
0.0364584
0.0407162
0.043975
0.045375
0.013
0.016539
0.020396
0.0247137
0.0293187
0.0340396
0.0387988
0.0432461
0.0467075
0.0485115
0.013725
0.0176927
0.0219386
0.0265789
0.0314486
0.0364021
0.0413573
0.0459805
0.0496254
0.051688
0.0145026
0.0189003
0.0235596
0.0285315
0.0336915
0.0389106
0.0441021
0.0489199
0.0527365
0.0549348
0.0153456
0.0201645
0.0252602
0.0305583
0.0360251
0.0415282
0.0469882
0.0520292
0.0560203
0.0583014
0.016264
0.0214738
0.0270394
0.0326509
0.0384427
0.0442389
0.0499918
0.0552802
0.0594605
0.0618186
0.0172565
0.0227983
0.0288825
0.03479
0.0409351
0.0470327
0.0531012
0.0586573
0.0630478
0.0654927
0.0182918
0.0241035
0.0307566
0.0369494
0.043485
0.0499076
0.0563207
0.0621709
0.0667871
0.0693252
0.0193181
0.0253687
0.0326146
0.0391081
0.0460689
0.0528568
0.0596372
0.0658337
0.0706822
0.073319
0.020273
0.0265867
0.0344071
0.0412575
0.0486748
0.0559032
0.0630673
0.0696266
0.0747274
0.0774747
0.0210833
0.0277547
0.0360628
0.043439
0.0512801
0.0589639
0.0665549
0.0735061
0.0789015
0.0817832
0.0216813
0.0288534
0.0376814
0.0455559
0.0538471
0.0620232
0.0701024
0.0774879
0.0832171
0.0862605
0.021951
0.0299207
0.0391049
0.0474871
0.0562679
0.0649786
0.0736068
0.0814992
0.087636
0.0908919
0.021942
0.0309616
0.0403782
0.0493192
0.0586256
0.0679163
0.0771398
0.0855908
0.0921857
0.0957139
0.0212672
0.0313984
0.0410723
0.0505794
0.0604184
0.0703378
0.0802668
0.0894643
0.0967266
0.10068
0.0222175
0.0346841
0.04494
0.055528
0.066455
0.0776787
0.0890473
0.0997601
0.108383
0.113285
0.0336491
0.0453101
0.0558616
0.0679418
0.0806069
0.0939774
0.107712
0.120744
0.131288
0.137165
0.0458244
0.0578197
0.069458
0.0832956
0.0978875
0.113787
0.13013
0.145605
0.158073
0.165061
0.0578749
0.0708646
0.0844134
0.100411
0.117495
0.136535
0.155807
0.173971
0.188429
0.196368
0.0699933
0.0844343
0.10031
0.11879
0.138984
0.161653
0.184143
0.205259
0.221692
0.230823
0.0825991
0.0987879
0.117192
0.138499
0.162354
0.188939
0.214863
0.239041
0.257193
0.266834
0.0953369
0.113498
0.13449
0.159014
0.186801
0.217157
0.246612
0.273696
0.292997
0.303817
0.10803
0.128117
0.151905
0.179812
0.211362
0.245104
0.278304
0.308126
0.327889
0.336996
0.117944
0.139829
0.165995
0.196508
0.230884
0.267372
0.303948
0.33605
0.356701
0.366648
0.125177
0.148225
0.175936
0.208108
0.244359
0.283026
0.322488
0.358316
0.383174
0.377558
0.0170234
0.0276227
0.0386766
0.0502593
0.0616087
0.0737138
0.0851741
0.0973134
0.106567
0.113517
0.0158086
0.0267546
0.0375418
0.0488813
0.0599038
0.0717186
0.0826499
0.0944584
0.103219
0.109907
0.015392
0.0270065
0.0378463
0.0490833
0.0599102
0.0714305
0.08197
0.0932574
0.101291
0.10755
0.0144824
0.0264845
0.0373643
0.0486025
0.0593249
0.0706407
0.0809064
0.0917392
0.0991979
0.105053
0.0133165
0.025449
0.0363095
0.0474865
0.0580711
0.0691659
0.0791623
0.0895982
0.0966478
0.102171
0.0120895
0.0242784
0.0352231
0.0462966
0.056713
0.0675425
0.077234
0.0872751
0.0939822
0.0992218
0.0107793
0.0230484
0.03422
0.0452458
0.0555414
0.0661311
0.0755308
0.0852104
0.0915906
0.0965783
0.00937201
0.0218019
0.0331897
0.0443037
0.054567
0.0649922
0.0741756
0.083577
0.0896687
0.0944365
0.00789449
0.0205484
0.0321713
0.0433767
0.0537558
0.0640712
0.0731534
0.0823336
0.0882442
0.0928103
0.00638221
0.0193109
0.0312141
0.0425409
0.0530463
0.063329
0.072451
0.0813688
0.0872784
0.0916264
0.00486464
0.0181166
0.0303397
0.0418421
0.0524715
0.0627932
0.0719806
0.0807271
0.0866881
0.090833
0.00333263
0.0169409
0.0295341
0.0412738
0.0520586
0.0624752
0.0717359
0.0804225
0.0864256
0.0904265
0.00174942
0.0157369
0.0287652
0.0408076
0.0518066
0.0623752
0.071742
0.0804533
0.0864952
0.09041
0.000104487
0.0144944
0.0280192
0.0404255
0.0517018
0.0624842
0.0720042
0.0808046
0.0869019
0.0907799
-0.00160531
0.0132271
0.0273
0.0401253
0.0517402
0.0628005
0.0725286
0.0814792
0.0876571
0.0915286
-0.00340695
0.0119237
0.0265819
0.0398778
0.0518967
0.063292
0.0732847
0.0824454
0.0887386
0.0926435
-0.00532525
0.0106094
0.0258739
0.0396876
0.0521806
0.0639696
0.0742943
0.0837177
0.0901581
0.0941171
-0.0074745
0.00916238
0.0250381
0.0394427
0.0524883
0.064729
0.0754606
0.085211
0.0918624
0.0959397
-0.00970965
0.00780372
0.024231
0.0392589
0.0529051
0.0656467
0.0768542
0.0869756
0.093888
0.0981128
-0.0127721
0.00562754
0.0227192
0.0385285
0.0528801
0.0662189
0.0780429
0.0887036
0.0960793
0.10063
-0.0147801
0.00418574
0.0217888
0.0388668
0.0546985
0.0693394
0.0825637
0.0942779
0.102689
0.107701
-0.00706119
0.01143
0.0292132
0.0477692
0.0651609
0.0815355
0.0968093
0.110403
0.12032
0.125861
0.00282712
0.0224988
0.0414821
0.061978
0.0809251
0.0994728
0.117129
0.133005
0.144675
0.150857
0.0139798
0.0346232
0.055639
0.078532
0.0999468
0.121867
0.142761
0.161897
0.176156
0.18339
0.0252864
0.0471817
0.0707091
0.0963168
0.121359
0.147662
0.17293
0.19677
0.214891
0.224005
0.0368958
0.0603169
0.0866849
0.115574
0.145248
0.176695
0.207719
0.237947
0.261766
0.274702
0.0482266
0.0736688
0.102835
0.135339
0.170143
0.207457
0.24559
0.28388
0.316379
0.337262
0.0595112
0.0867754
0.118656
0.154878
0.194945
0.238709
0.285042
0.333252
0.378689
0.416176
0.0673713
0.0964541
0.13065
0.169872
0.214262
0.263814
0.318523
0.378724
0.443788
0.511968
0.0734043
0.104846
0.140714
0.18215
0.229831
0.284288
0.347246
0.422158
0.515034
0.62784
-0.0199289
-0.012783
-0.00655839
0.00325986
0.0134173
0.0245462
0.0342823
0.045106
0.0521597
0.0559308
-0.0219419
-0.0145788
-0.00888926
0.000770172
0.010556
0.0213626
0.0304128
0.0408374
0.0473858
0.0516998
-0.0232898
-0.0156757
-0.00957691
0.000181317
0.00982169
0.020214
0.0287102
0.0383847
0.0443706
0.0502881
-0.0243178
-0.0168411
-0.0105697
-0.000859831
0.00862545
0.0186498
0.0267405
0.0357263
0.0412004
0.0480084
-0.0250067
-0.0179532
-0.0117552
-0.00237757
0.00678053
0.016369
0.0240726
0.0324808
0.037413
0.0441843
-0.0253199
-0.0187844
-0.0127113
-0.00379676
0.00490094
0.0139409
0.0211923
0.0290501
0.0333757
0.0395722
-0.0252498
-0.0192753
-0.0133402
-0.00485939
0.00335286
0.0118116
0.018556
0.0258759
0.0295734
0.0350898
-0.0248025
-0.0194365
-0.0136952
-0.0055845
0.00215428
0.0100838
0.0163027
0.0231496
0.0262589
0.0312261
-0.0239971
-0.0192965
-0.013782
-0.00606024
0.00120226
0.00868394
0.0143817
0.0208371
0.0234561
0.028032
-0.0228659
-0.018831
-0.0136389
-0.00634688
0.000425917
0.00751927
0.0127215
0.0188099
0.02109
0.0253274
-0.0106094
-0.00961903
-0.00851263
-0.00735811
-0.00634274
-0.00551922
-0.00487208
-0.00433875
-0.00381278
-0.00319766
-0.00976164
-0.00866263
-0.00752724
-0.00635778
-0.00533688
-0.00451159
-0.0038601
-0.0033245
-0.00283989
-0.00239556
-0.00888774
-0.00769445
-0.00656071
-0.00542268
-0.00445117
-0.00368369
-0.00309299
-0.002629
-0.00224989
-0.00196721
-0.00794958
-0.00669154
-0.00559301
-0.00453439
-0.00366737
-0.00301506
-0.00254164
-0.00219785
-0.00194071
-0.00178099
-0.00690486
-0.00562866
-0.00460004
-0.00366573
-0.00295162
-0.00246221
-0.0021503
-0.00196223
-0.00184445
-0.00180291
-0.00571396
-0.00448068
-0.00355495
-0.00278202
-0.00225652
-0.00196171
-0.0018381
-0.00182569
-0.00186056
-0.00194942
-0.00434377
-0.00322408
-0.00243002
-0.00184462
-0.00152758
-0.00144057
-0.00151323
-0.00168012
-0.00187281
-0.00210576
-0.00277045
-0.00183861
-0.00119996
-0.000816971
-0.000713291
-0.000831138
-0.00109234
-0.00142891
-0.00177508
-0.00215385
-0.000984917
-0.000311493
0.000153267
0.000328259
0.000224238
-8.49348e-05
-0.000517391
-0.00100618
-0.00149375
-0.00200422
0.000989624
0.00135241
0.001634
0.00160241
0.00130205
0.000819579
0.0002366
-0.000384091
-0.00099681
-0.00163027
0.00308968
0.00312641
0.00322879
0.00299706
0.0025148
0.00187731
0.00116368
0.000430428
-0.000288687
-0.00101868
0.00535726
0.00501432
0.00491975
0.00448946
0.00383595
0.00305913
0.00223248
0.00140448
0.000599329
-0.000200643
0.00771836
0.00696534
0.00666531
0.00603935
0.00522512
0.00432317
0.00339902
0.00249257
0.00162166
0.000774185
0.0100933
0.00892086
0.0084122
0.00759558
0.00663176
0.00561851
0.00461168
0.00364275
0.00272604
0.00185131
0.0124004
0.0108154
0.0101
0.00910157
0.00800156
0.00689216
0.00581827
0.00480314
0.00386019
0.00297806
0.0145526
0.0125774
0.0116655
0.0105002
0.00928154
0.0080939
0.00697032
0.00592597
0.00497566
0.00410632
0.0164621
0.014135
0.0130471
0.0117384
0.0104242
0.00918002
0.00802671
0.00697093
0.00603028
0.00519305
0.0180462
0.0154207
0.0141897
0.0127706
0.0113906
0.010116
0.00895639
0.00790745
0.00698563
0.00619022
0.0192323
0.0163756
0.0150476
0.0135615
0.0121523
0.0108775
0.00973548
0.0087051
0.00779356
0.00704395
0.0199611
0.0169528
0.0155863
0.0140877
0.012695
0.0114561
0.0103559
0.00934701
0.00842542
0.00773065
0.020189
0.0171182
0.0157816
0.0143354
0.0130178
0.0118749
0.0108943
0.0100369
0.00932845
0.00900459
0.0198827
0.0168478
0.0156162
0.0142896
0.0131021
0.0120969
0.0112625
0.0105652
0.0100259
0.00980899
0.0190342
0.0161362
0.0150851
0.0139429
0.0129348
0.0121019
0.0114334
0.0108993
0.0105025
0.0103417
0.0176583
0.0149945
0.0141955
0.0132997
0.0125192
0.0118957
0.0114222
0.0110746
0.0108432
0.0107811
0.0157904
0.0134492
0.0129682
0.012377
0.0118711
0.0114952
0.0112489
0.0111146
0.0110767
0.011162
0.0134843
0.0115412
0.0114354
0.0112024
0.0110152
0.0109238
0.0109356
0.01104
0.0112196
0.011486
0.0108088
0.00932301
0.00963903
0.00981039
0.00998212
0.010209
0.0105074
0.0108744
0.0112941
0.0117683
0.00784266
0.00685497
0.00762662
0.00824005
0.00880494
0.00937969
0.00998992
0.0106413
0.0113225
0.0120295
0.00467071
0.00420059
0.00544811
0.00653118
0.00751646
0.00846326
0.0094065
0.010361
0.0113226
0.0122862
0.00139705
0.00142903
0.00315445
0.00472249
0.00614696
0.0074838
0.00877646
0.0100491
0.0113067
0.0125483
-0.00183899
-0.00137234
0.000803679
0.00285438
0.00472584
0.00646308
0.00811586
0.00971706
0.0112816
0.012819
-0.00510288
-0.00419562
-0.00157738
0.000951518
0.00327192
0.00541406
0.00743252
0.00936796
0.0112446
0.0130905
-0.00830539
-0.00698316
-0.00394934
-0.000960207
0.00180175
0.00434599
0.00672944
0.0089988
0.0111849
0.013342
-0.0113725
-0.00968496
-0.00627691
-0.00285996
0.000326179
0.00326199
0.00600319
0.00859993
0.0110844
0.0135424
-0.0142669
-0.0122597
-0.00853488
-0.00473141
-0.00114837
0.0021608
0.00524606
0.0081581
0.0109224
0.0136555
-0.0169476
-0.0146541
-0.01073
-0.00656237
-0.00261861
0.00103817
0.00444755
0.00765871
0.0106796
0.0136411
-0.0193952
-0.0168788
-0.0127938
-0.00835288
-0.00408391
-0.000111258
0.00359633
0.00708911
0.0103484
0.0134664
-0.0215959
-0.0189185
-0.0147328
-0.0100792
-0.00554246
-0.00129377
0.00267994
0.00643415
0.00992968
0.0131156
-0.0235421
-0.0207578
-0.01654
-0.0117407
-0.00699478
-0.00251466
0.00169123
0.00568292
0.00943101
0.012685
-0.0252322
-0.0223894
-0.0182059
-0.0133348
-0.00844244
-0.00378099
0.00061496
0.0048049
0.00877991
0.0123231
-0.0266747
-0.0238147
-0.0197256
-0.0148566
-0.00988449
-0.00509598
-0.000554908
0.00379745
0.00809426
0.0122257
-0.0279093
-0.0250486
-0.0210994
-0.0163005
-0.0113189
-0.00646982
-0.00185389
0.00254097
0.00683085
0.0109403
-0.0289192
-0.0260862
-0.0223208
-0.0176571
-0.0127348
-0.00789108
-0.00325851
0.00113642
0.00537709
0.00942225
-0.0297102
-0.026933
-0.0233873
-0.018915
-0.0141129
-0.00932834
-0.00471544
-0.000319938
0.00392047
0.00794626
-0.0302997
-0.0276011
-0.0242995
-0.0200637
-0.0154341
-0.0107549
-0.00619527
-0.00181617
0.00242614
0.00644943
-0.0307076
-0.028105
-0.0250608
-0.0210958
-0.0166834
-0.0121534
-0.00768395
-0.00335211
0.000867699
0.00489018
-0.0309542
-0.0284602
-0.0256779
-0.0220074
-0.0178498
-0.0135094
-0.00916689
-0.00491347
-0.000742327
0.0032684
-0.031061
-0.0286844
-0.0261602
-0.022798
-0.0189247
-0.0148096
-0.0106284
-0.00648282
-0.00238492
0.00159729
-0.0310501
-0.0287965
-0.0265205
-0.0234711
-0.0199027
-0.0160428
-0.0120546
-0.00804522
-0.00404435
-0.000107385
-0.0309331
-0.0288097
-0.0267705
-0.0240325
-0.0207824
-0.0172023
-0.0134356
-0.00958958
-0.00570876
-0.00183268
-0.0307041
-0.0287206
-0.0269094
-0.0244794
-0.0215574
-0.018278
-0.0147597
-0.0111042
-0.00736759
-0.00357025
-0.0304494
-0.0285884
-0.0269805
-0.0248412
-0.022244
-0.0192761
-0.0160267
-0.0125857
-0.00901832
-0.00532494
-0.0301697
-0.0284175
-0.0269939
-0.0251287
-0.0228503
-0.0202007
-0.0172374
-0.0140337
-0.0106615
-0.00710605
-0.0298711
-0.0282166
-0.0269621
-0.0253558
-0.0233882
-0.0210599
-0.018396
-0.0154502
-0.0122986
-0.0089173
-0.0295648
-0.0279977
-0.0268995
-0.0255376
-0.0238708
-0.021863
-0.0195079
-0.0168369
-0.0139298
-0.0107601
-0.0292596
-0.0277703
-0.0268183
-0.0256875
-0.0243106
-0.0226194
-0.0205778
-0.018195
-0.0155544
-0.0126383
-0.0289593
-0.02754
-0.0267265
-0.0258154
-0.0247174
-0.0233362
-0.0216089
-0.0195221
-0.0171669
-0.01455
-0.0286635
-0.0273084
-0.0266278
-0.0259264
-0.0250963
-0.0240167
-0.0226001
-0.020811
-0.0187515
-0.0164834
-0.0283672
-0.0270727
-0.0265205
-0.0260198
-0.0254461
-0.0246576
-0.0235449
-0.0220464
-0.0202704
-0.0183795
-0.028062
-0.0268265
-0.0263977
-0.026088
-0.0257584
-0.0252489
-0.0244326
-0.0232211
-0.0216837
-0.0201191
-0.0277361
-0.0265599
-0.0262484
-0.0261183
-0.026018
-0.0257714
-0.0252375
-0.0242982
-0.0228291
-0.0210869
-0.0273758
-0.0262614
-0.0260578
-0.0260913
-0.0262017
-0.0262014
-0.0259428
-0.0253205
-0.0241949
-0.0226863
-0.0269651
-0.0259148
-0.0258064
-0.0259831
-0.0262801
-0.0265036
-0.0265009
-0.0261744
-0.0253984
-0.0242066
-0.02649
-0.0255058
-0.0254754
-0.0257693
-0.0262214
-0.0266346
-0.0268498
-0.026764
-0.0262597
-0.0253466
-0.0259389
-0.0250215
-0.0250483
-0.025428
-0.0259974
-0.0265582
-0.0269466
-0.0270524
-0.0267665
-0.0260886
-0.0253035
-0.0244519
-0.0245119
-0.0249424
-0.0255871
-0.0262501
-0.0267655
-0.0270194
-0.0269129
-0.0264318
-0.0245792
-0.0237907
-0.0238584
-0.0243026
-0.0249787
-0.0256971
-0.0262929
-0.0266516
-0.0266859
-0.0263642
-0.023765
-0.0230359
-0.0230858
-0.0235068
-0.0241706
-0.024898
-0.0255284
-0.0259496
-0.0260855
-0.0258885
-0.0228651
-0.02219
-0.022199
-0.0225618
-0.0231719
-0.0238642
-0.0244862
-0.0249296
-0.0251292
-0.0250275
-0.0218936
-0.0212615
-0.0212071
-0.0214803
-0.0219994
-0.0226174
-0.0231923
-0.0236214
-0.023848
-0.023813
)
;

boundaryField
{
    inlet
    {
        type            zeroGradient;
    }
    outlet
    {
        type            fixedValue;
        value           uniform 0;
    }
    cylinder
    {
        type            zeroGradient;
    }
    top
    {
        type            symmetryPlane;
    }
    bottom
    {
        type            symmetryPlane;
    }
    defaultFaces
    {
        type            empty;
    }
}


// ************************************************************************* //
