/*--------------------------------*- C++ -*----------------------------------*\
  =========                 |
  \\      /  F ield         | OpenFOAM: The Open Source CFD Toolbox
   \\    /   O peration     | Website:  https://openfoam.org
    \\  /    A nd           | Version:  7
     \\/     M anipulation  |
\*---------------------------------------------------------------------------*/
FoamFile
{
    version     2.0;
    format      ascii;
    class       volScalarField;
    location    "88.5";
    object      p;
}
// * * * * * * * * * * * * * * * * * * * * * * * * * * * * * * * * * * * * * //

dimensions      [0 2 -2 0 0 0 0];

internalField   nonuniform List<scalar> 
2000
(
0.00852155
0.00860618
0.00876857
0.0089714
0.00918701
0.0093981
0.00959277
0.00976523
0.00991455
0.0100275
0.00854536
0.00867286
0.00885243
0.00907257
0.00930524
0.00953248
0.00974134
0.00992494
0.010082
0.0101908
0.00854406
0.00872422
0.00892135
0.00915733
0.00940405
0.00964356
0.00986263
0.010054
0.0102172
0.0103209
0.00852255
0.00876253
0.00897744
0.00922683
0.00948326
0.00972954
0.00995295
0.0101465
0.0103114
0.0104078
0.00848758
0.00879259
0.00902403
0.00928312
0.00954362
0.00978968
0.0100098
0.0101979
0.0103577
0.0104423
0.00844798
0.00881977
0.00906517
0.00932912
0.00958695
0.00982463
0.0100325
0.010206
0.0103517
0.0104182
0.00841398
0.00885003
0.00910552
0.00936851
0.00961621
0.0098368
0.010023
0.0101722
0.0102937
0.0103342
0.0083967
0.00888983
0.00915029
0.00940571
0.00963558
0.00983054
0.00998617
0.0101021
0.0101903
0.0101972
0.00840771
0.00894597
0.00920513
0.00944592
0.00965047
0.00981228
0.00993028
0.0100072
0.0100586
0.0100284
0.00845838
0.00902536
0.00927615
0.00949507
0.00966732
0.00978969
0.00986517
0.00990117
0.00992
0.00986678
0.0101731
0.0109757
0.0118603
0.0133274
0.0148998
0.0167721
0.0180543
0.0199217
0.0199094
0.0212267
0.0102547
0.0109826
0.0116405
0.0129075
0.0143123
0.0160436
0.0172263
0.0189556
0.0190524
0.0201865
0.0102879
0.0109768
0.0114271
0.0125006
0.0137465
0.0153466
0.0164369
0.0180655
0.0182115
0.0192258
0.0102657
0.0109438
0.0112178
0.0121076
0.0132033
0.0146804
0.0156895
0.0172335
0.0173951
0.0183487
0.0101851
0.0108687
0.0110085
0.0117284
0.0126836
0.0140459
0.0149839
0.0164528
0.0166261
0.017554
0.0100487
0.0107392
0.010792
0.0113616
0.0121876
0.0134418
0.0143141
0.0157101
0.0158965
0.0168232
0.00986556
0.01055
0.0105597
0.0110045
0.0117162
0.0128713
0.0136872
0.0150201
0.0152284
0.0161626
0.0096446
0.0102924
0.0102994
0.0106537
0.0112653
0.0123215
0.0130803
0.0143422
0.0145739
0.0155476
0.00937762
0.00995303
0.00998541
0.0103006
0.0108539
0.0118321
0.0125511
0.0137502
0.014007
0.0150052
0.0091674
0.00967026
0.00969882
0.00993784
0.0104043
0.0112859
0.0119585
0.0130724
0.013387
0.0144744
0.00969293
0.010189
0.0104359
0.0105703
0.0107186
0.0111499
0.0115953
0.0123708
0.0126247
0.0134187
0.00771604
0.00817361
0.00856825
0.008932
0.00929479
0.00977132
0.0102161
0.0108307
0.0110327
0.0114929
0.00620029
0.00662339
0.00699121
0.00731986
0.00765996
0.00812635
0.00856927
0.00912921
0.00930937
0.00961405
0.0046741
0.00510314
0.00552704
0.00588781
0.00621442
0.00662616
0.00701666
0.00750737
0.00766304
0.00790317
0.00324511
0.00364657
0.00411572
0.00454294
0.00491216
0.00530011
0.00563952
0.00605165
0.00618068
0.00638785
0.00200735
0.00236479
0.00283629
0.00330008
0.00371489
0.00411155
0.00443185
0.00478419
0.00488802
0.00505572
0.0010133
0.00132072
0.00176399
0.00221654
0.00263037
0.00301569
0.00331706
0.00362546
0.00371288
0.00385083
0.00028915
0.000537501
0.000928479
0.00133612
0.0017078
0.00204853
0.00231157
0.00257289
0.00263222
0.00273003
-9.67729e-05
5.42108e-05
0.000358975
0.000667538
0.000934376
0.00117588
0.00135514
0.00154981
0.00158089
0.00163662
-0.000616486
-0.000290537
-2.1209e-05
0.000176553
0.000312529
0.000427234
0.000492773
0.000586804
0.00056725
0.000564561
0.00910507
0.00743512
0.00598087
0.00450426
0.00313545
0.00194387
0.000988039
0.000266967
-7.13679e-05
-0.000614729
0.00876839
0.00717076
0.00573808
0.00430443
0.00299094
0.00185175
0.000942293
0.000255369
-5.92365e-05
-0.000533636
0.00843869
0.00693354
0.00552272
0.00413285
0.00286925
0.00177925
0.000913072
0.000262704
-3.69119e-05
-0.000431055
0.00818279
0.0067689
0.00537695
0.00402537
0.00280483
0.0017532
0.000919498
0.000296118
3.24434e-07
-0.000334016
0.00800373
0.00665965
0.00528352
0.00396672
0.00278178
0.00176234
0.00095408
0.000350302
4.98157e-05
-0.000244871
0.00790484
0.00660294
0.00523965
0.00394981
0.00279442
0.00180086
0.00101155
0.000420659
0.00010843
-0.000163706
0.00789324
0.00659516
0.00524313
0.0039724
0.00283996
0.00186558
0.00108858
0.000503683
0.000173506
-9.12402e-05
0.00795501
0.00663323
0.00528992
0.00403048
0.00291446
0.00195275
0.00118163
0.000596076
0.000242692
-2.75855e-05
0.00807908
0.00671278
0.00537497
0.0041194
0.00301349
0.00205833
0.00128709
0.000694819
0.000314005
2.78911e-05
0.0082527
0.00682816
0.00549236
0.00423424
0.0031325
0.00217838
0.00140157
0.000797342
0.000385886
7.61923e-05
0.00846042
0.00697095
0.00563445
0.00436915
0.00326648
0.0023089
0.00152193
0.000901495
0.000457152
0.000118337
0.00869101
0.00713461
0.00579548
0.00451998
0.00341175
0.002447
0.00164586
0.00100582
0.000527089
0.000155269
0.00893757
0.00731612
0.00597198
0.00468459
0.00356612
0.00259093
0.001772
0.00110954
0.000595411
0.000187926
0.00919343
0.00751277
0.00616033
0.00486082
0.0037276
0.0027392
0.00189934
0.00121219
0.000662056
0.000217096
0.0094531
0.00772302
0.00635753
0.00504693
0.00389469
0.0028907
0.00202723
0.00131357
0.000727112
0.000243418
0.00971169
0.00794607
0.00656097
0.00524124
0.00406624
0.00304455
0.00215527
0.00141364
0.000790752
0.000267417
0.00996183
0.00817943
0.00676748
0.00544148
0.00424101
0.00319982
0.00228314
0.00151239
0.000853194
0.000289552
0.0101988
0.00842671
0.00697985
0.00564954
0.00442084
0.00335777
0.00241181
0.00161058
0.000914981
0.000310307
0.010444
0.00871941
0.00721885
0.00587928
0.00461578
0.00352484
0.00254532
0.00171053
0.000977243
0.000329833
0.0106234
0.00900539
0.00745159
0.00610171
0.00480799
0.00368727
0.00267547
0.00180713
0.0010376
0.000346626
0.0101777
0.00909606
0.00769177
0.00639664
0.00512277
0.00397408
0.00292588
0.00199986
0.00116388
0.000387653
0.010123
0.00904839
0.00769319
0.00647659
0.00524556
0.00413012
0.00308431
0.00214214
0.00126463
0.000428435
0.0103566
0.00925857
0.00789044
0.00669049
0.0054533
0.00433068
0.0032588
0.00228568
0.0013651
0.000473797
0.0108313
0.00960458
0.00817672
0.00694953
0.0056822
0.00453603
0.00342935
0.0024248
0.00146688
0.000526591
0.0115401
0.0101081
0.0085785
0.00727635
0.00595262
0.00476045
0.00360868
0.00256956
0.00157701
0.000588269
0.0124267
0.0107531
0.00909246
0.00767233
0.00626974
0.00500945
0.00380392
0.00272323
0.00169343
0.000651236
0.0133862
0.0114727
0.00967058
0.00810979
0.00661708
0.00527535
0.00401189
0.00287929
0.00179991
0.000695004
0.014288
0.012161
0.0102251
0.00852868
0.00695108
0.00553113
0.00421241
0.00301857
0.00187529
0.000704949
0.014996
0.0127007
0.0106582
0.00885748
0.00721562
0.00573625
0.00437304
0.00312114
0.00191419
0.000689344
0.0153881
0.012995
0.0108932
0.00903659
0.00736161
0.00585148
0.00446405
0.00317538
0.00192648
0.000670797
0.0111559
0.0111128
0.0114116
0.011966
0.0127612
0.0137319
0.0147915
0.0158131
0.0166407
0.0171108
0.0113172
0.0114217
0.0118165
0.0124602
0.013335
0.0143703
0.0154815
0.0165403
0.0173912
0.0178745
0.0113381
0.0116138
0.012146
0.0129212
0.0139154
0.0150546
0.0162464
0.0173513
0.0182148
0.0186981
0.0114097
0.0118178
0.0124631
0.0133546
0.0144574
0.0157013
0.016987
0.0181623
0.019066
0.0195691
0.011528
0.0120733
0.0128233
0.0138181
0.0150155
0.0163516
0.017726
0.0189783
0.019938
0.0204755
0.0116604
0.012357
0.0132257
0.014329
0.0156223
0.0170476
0.0185041
0.0198283
0.0208428
0.0214149
0.0118045
0.0126546
0.0136566
0.014878
0.0162765
0.0177971
0.0193365
0.0207282
0.0217908
0.0223913
0.0119684
0.0129682
0.0141121
0.0154565
0.0169681
0.0185916
0.0202188
0.0216786
0.0227856
0.0234085
0.0121564
0.0133006
0.0145936
0.0160622
0.0176918
0.0194234
0.0211435
0.0226747
0.0238262
0.0244685
0.0123704
0.0136503
0.0151006
0.0166934
0.0184455
0.0202889
0.0221064
0.023713
0.0249114
0.025572
0.0126119
0.0140127
0.0156303
0.0173462
0.0192265
0.0211856
0.0231055
0.0247921
0.0260404
0.0267193
0.012879
0.0143827
0.0161775
0.0180146
0.02003
0.0221096
0.0241384
0.0259108
0.0272133
0.0279112
0.0131628
0.0147564
0.0167328
0.0186923
0.0208501
0.0230572
0.0252029
0.0270678
0.0284315
0.0291495
0.0134461
0.0151347
0.0172832
0.019374
0.0216786
0.0240233
0.0262951
0.028262
0.0296989
0.0304393
0.0136911
0.0155159
0.0178222
0.0200584
0.0225119
0.0250044
0.0274128
0.029491
0.0310073
0.0317764
0.0139037
0.0158902
0.018334
0.0207258
0.0233367
0.0259894
0.0285475
0.0307492
0.0323532
0.0331593
0.0140719
0.0162411
0.0188099
0.0213658
0.0241444
0.0269721
0.0296956
0.0320349
0.0337375
0.0345899
0.0141698
0.0165597
0.0192406
0.021967
0.0249208
0.027937
0.0308426
0.0333382
0.0351558
0.0360674
0.0141738
0.0168407
0.0196267
0.0225364
0.0256798
0.0289013
0.0320037
0.0346689
0.0366133
0.0375976
0.0140171
0.0170198
0.0199002
0.02298
0.0263099
0.029752
0.0330861
0.0359673
0.0380812
0.0391681
0.0146536
0.0184872
0.021707
0.0251485
0.0288071
0.0325807
0.0362437
0.0394448
0.0418284
0.0431
0.0183938
0.0221044
0.025545
0.0295431
0.0337907
0.0381704
0.0423854
0.0460326
0.0487215
0.0501352
0.0225294
0.0264213
0.0302573
0.0348649
0.0397182
0.044723
0.0494611
0.0534911
0.0564201
0.0579629
0.0269091
0.0312183
0.0356793
0.040986
0.0464932
0.0521421
0.057358
0.0616962
0.0647699
0.0663222
0.0315649
0.0364084
0.0415935
0.0476418
0.0538358
0.0601251
0.0657631
0.070339
0.0734838
0.0750937
0.0365896
0.0419857
0.0479536
0.0547586
0.0616586
0.0685801
0.0746007
0.0793367
0.082353
0.0836013
0.0415141
0.0475715
0.054267
0.0617472
0.0693133
0.0767979
0.0831664
0.08801
0.090762
0.0919264
0.0464744
0.0529318
0.0603295
0.0685048
0.0767749
0.0848424
0.0916851
0.0967983
0.0990706
0.0981203
0.0491767
0.0564679
0.0645085
0.0732561
0.0820739
0.0905601
0.097678
0.102807
0.103943
0.105511
0.0527097
0.0601227
0.0686205
0.0778681
0.0873955
0.0966281
0.105101
0.11226
0.114782
0.0981474
0.0134815
0.0170958
0.0208258
0.0248762
0.0290497
0.0338706
0.03811
0.0431814
0.0452057
0.0486837
0.0130786
0.016862
0.0205299
0.0245106
0.0285205
0.0331918
0.0371466
0.0420911
0.0437923
0.0472231
0.0128951
0.016871
0.0205165
0.0244749
0.0283831
0.0328727
0.0365999
0.0412379
0.0427429
0.0459382
0.0126689
0.0167226
0.0203336
0.024234
0.0280821
0.0324033
0.0359736
0.0403219
0.0418096
0.044656
0.0124199
0.0164712
0.0200385
0.0238551
0.027631
0.0317926
0.0352528
0.0393308
0.0408943
0.0433927
0.0121706
0.0161907
0.0197262
0.0234682
0.0271624
0.0311569
0.0345539
0.0383373
0.0400275
0.0422092
0.0119187
0.015894
0.019415
0.023103
0.0267275
0.0305786
0.0339067
0.0374462
0.0392106
0.0411383
0.0116651
0.0155838
0.0191019
0.0227522
0.026324
0.0300666
0.0333186
0.0366768
0.0384705
0.0401852
0.0114165
0.0152685
0.0187917
0.0224166
0.025949
0.0296127
0.0327948
0.0360145
0.0378117
0.0393739
0.0111805
0.0149577
0.0184938
0.0221058
0.02561
0.0292171
0.0323431
0.0354503
0.0372422
0.0387051
0.0109635
0.0146595
0.0182172
0.0218292
0.0253173
0.0288856
0.0319715
0.0349852
0.0367713
0.0381687
0.0107627
0.0143744
0.0179646
0.0215897
0.0250769
0.0286234
0.0316858
0.0346238
0.0364048
0.0377551
0.0105684
0.0141003
0.0177354
0.0213871
0.0248904
0.0284333
0.0314895
0.0343693
0.0361458
0.0374616
0.0103717
0.0138398
0.0175296
0.0212218
0.0247587
0.0283172
0.0313841
0.0342229
0.0359924
0.0372875
0.0101618
0.0135956
0.0173457
0.0210935
0.0246817
0.0282756
0.0313703
0.0341855
0.0359438
0.0372388
0.00992379
0.0133668
0.0171792
0.0209994
0.024657
0.0283063
0.0314464
0.0342554
0.0359895
0.0373184
0.00964122
0.0131478
0.0170228
0.0209342
0.0246814
0.0284072
0.0316135
0.0344362
0.0361327
0.0375416
0.00929911
0.0129298
0.0168665
0.0208882
0.0247445
0.028566
0.0318597
0.0347167
0.0363399
0.0379119
0.00885121
0.0126881
0.0167062
0.0208645
0.024856
0.0287989
0.0322054
0.0351224
0.0366559
0.0384563
0.00830408
0.0123521
0.0164661
0.0207757
0.0249181
0.0290012
0.0325542
0.0355726
0.0369579
0.0391536
0.00931757
0.0134578
0.0174634
0.0218659
0.0262447
0.0305172
0.0342569
0.0374421
0.0386812
0.0412688
0.0117247
0.0161095
0.0203689
0.0251815
0.0300029
0.0347375
0.0389326
0.0424582
0.0440773
0.046348
0.015109
0.019818
0.0244938
0.0298665
0.0352609
0.0406331
0.0454358
0.0493882
0.0516999
0.0536341
0.0191285
0.0242586
0.0294851
0.0355877
0.0417843
0.0480758
0.0537876
0.0585771
0.0619455
0.0642708
0.023357
0.0289959
0.0349272
0.0419308
0.04916
0.0566859
0.0637391
0.070038
0.0751726
0.0792923
0.0277591
0.0338949
0.0406948
0.0487329
0.0572246
0.0663306
0.0753322
0.0843413
0.0932697
0.101967
0.0313078
0.0381813
0.04592
0.0550345
0.0650195
0.0761235
0.0879078
0.1014
0.117351
0.136335
0.0351873
0.0426325
0.0513062
0.0615649
0.0732224
0.0867877
0.102517
0.12333
0.152899
0.19344
0.036226
0.0438584
0.0529284
0.0638928
0.0772027
0.0939827
0.116215
0.148952
0.201361
0.281325
0.0386942
0.0476819
0.0583028
0.0714885
0.0884548
0.111073
0.143058
0.192808
0.278212
0.409677
0.00917579
0.0113873
0.0141647
0.0175132
0.0208724
0.0248557
0.0276478
0.0313789
0.0322622
0.0340329
0.00902693
0.0112489
0.0139287
0.0171199
0.0202305
0.0239961
0.0264946
0.0300897
0.030805
0.0327509
0.00904009
0.0112107
0.0138086
0.0168895
0.0198589
0.0233929
0.0256777
0.029024
0.0295099
0.0318563
0.00912986
0.0111556
0.0135956
0.0165194
0.0193285
0.0226475
0.0247645
0.0278862
0.0281688
0.0306362
0.00925644
0.0110952
0.0133302
0.0160736
0.0186799
0.021777
0.0237219
0.0266647
0.0267715
0.0290974
0.00940742
0.0110447
0.0130658
0.0156125
0.0180224
0.0208888
0.0226518
0.0254409
0.025391
0.0274849
0.00957292
0.0110063
0.0128118
0.0151293
0.0174011
0.020027
0.0216235
0.0242684
0.024088
0.0259842
0.00974256
0.0109807
0.0125644
0.0146581
0.0167714
0.0191854
0.0206598
0.0231486
0.0228854
0.024648
0.00990607
0.0109683
0.0123226
0.0142025
0.0161354
0.0183431
0.0197688
0.0220532
0.0217883
0.0234443
0.0100531
0.0109681
0.0120875
0.0137591
0.0155084
0.0175364
0.0189064
0.0209663
0.0208008
0.0223168
0.00856061
0.00913554
0.00937026
0.00956003
0.00969347
0.00977071
0.00979868
0.00978854
0.009768
0.00970676
0.00873117
0.00928623
0.00949524
0.00964826
0.00973696
0.00976425
0.00973983
0.00967632
0.00960031
0.00948409
0.008975
0.00948206
0.00965689
0.0097668
0.00980632
0.0097808
0.00970208
0.00958427
0.00945437
0.00928633
0.00929701
0.00972807
0.009861
0.00992238
0.00990952
0.00982995
0.00969712
0.00952641
0.00934493
0.00912884
0.00970003
0.010028
0.010112
0.0101202
0.0100528
0.00991902
0.00973353
0.00951236
0.00928157
0.00902153
0.0101828
0.0103831
0.0104118
0.0103631
0.0102394
0.0100523
0.00981631
0.00954766
0.00927048
0.00897615
0.0107396
0.010791
0.0107591
0.0106507
0.0104695
0.0102303
0.00994643
0.00963437
0.0093151
0.00897062
0.0113602
0.0112459
0.0111492
0.010978
0.0107406
0.0104504
0.0101214
0.00976947
0.00941125
0.00902827
0.0120288
0.0117385
0.0115734
0.0113382
0.0110447
0.0107057
0.0103349
0.00994669
0.00955364
0.00914139
0.0127192
0.0122526
0.0120186
0.0117197
0.0113714
0.0109866
0.0105776
0.010157
0.00973395
0.00929944
0.0133948
0.0127651
0.0124674
0.012108
0.0117082
0.0112813
0.0108381
0.0103894
0.00994175
0.00949131
0.0140644
0.0132704
0.0129081
0.0124899
0.0120419
0.0115769
0.0111042
0.0106322
0.0101656
0.00970558
0.0146949
0.0137444
0.0133213
0.0128492
0.0123582
0.0118608
0.0113641
0.010874
0.0103945
0.0099315
0.0152565
0.0141651
0.0136885
0.0131699
0.0126434
0.0121206
0.0116062
0.0111041
0.0106179
0.010159
0.0157249
0.0145127
0.0139928
0.0134376
0.0128848
0.012345
0.0118205
0.0113129
0.0108267
0.0103791
0.0160782
0.0147696
0.0142189
0.0136396
0.0130716
0.0125245
0.0119984
0.0114925
0.0110128
0.0105839
0.0162986
0.0149206
0.0143543
0.0137656
0.0131953
0.012652
0.0121336
0.0116369
0.0111698
0.0107659
0.0163726
0.0149548
0.0143901
0.0138085
0.0132504
0.0127229
0.0122226
0.0117432
0.0112923
0.0109152
0.0162919
0.014865
0.0143206
0.0137644
0.0132342
0.0127357
0.0122639
0.0118082
0.0113699
0.0110132
0.0160539
0.014649
0.0141441
0.0136325
0.0131474
0.0126926
0.0122614
0.0118363
0.0114086
0.0110665
0.0156602
0.0143082
0.0138619
0.0134145
0.0129932
0.0126016
0.0122361
0.0118889
0.0115728
0.011383
0.0151102
0.0138457
0.0134771
0.0131122
0.0127702
0.012454
0.012162
0.011892
0.0116599
0.0115233
0.0144204
0.0132732
0.0129979
0.0127302
0.0124797
0.0122471
0.0120317
0.0118348
0.0116684
0.0115583
0.0136102
0.0126054
0.0124352
0.0122765
0.0121275
0.0119865
0.0118539
0.0117336
0.0116352
0.0115684
0.0127014
0.0118597
0.0118027
0.0117619
0.0117228
0.0116808
0.0116377
0.0115995
0.0115742
0.0115652
0.0117191
0.0110558
0.0111163
0.0111992
0.0112763
0.0113397
0.0113921
0.011441
0.0114936
0.0115508
0.0106902
0.010215
0.0103936
0.0106026
0.0108001
0.0109736
0.0111261
0.0112666
0.0114021
0.0115329
0.00964181
0.0093589
0.0096525
0.0099869
0.0103061
0.0105925
0.0108488
0.0110845
0.0113073
0.0115185
0.00860053
0.00850762
0.00891025
0.00936606
0.00980583
0.010206
0.0105679
0.0109015
0.0112148
0.011512
0.00760146
0.00768425
0.00818468
0.00875397
0.00931
0.00982235
0.0102903
0.0107227
0.0111285
0.011516
0.00669474
0.0069222
0.00749847
0.00816706
0.00883029
0.00945003
0.0100217
0.0105525
0.0110508
0.0115307
0.00583162
0.00620504
0.00684912
0.00760876
0.0083709
0.00909253
0.0097647
0.010392
0.0109811
0.0115531
0.00504019
0.00554988
0.00625217
0.00708677
0.00793803
0.00875391
0.00952107
0.0102413
0.0109179
0.011576
0.00433947
0.00496944
0.00571551
0.00661017
0.00753678
0.00843652
0.00929134
0.0100993
0.0108597
0.0115889
0.00373658
0.00446932
0.00524437
0.00618299
0.0071701
0.00814198
0.00907538
0.00996276
0.0107966
0.0116068
0.00323417
0.00405157
0.00484172
0.00580786
0.00683983
0.00787089
0.00887273
0.00983187
0.0107316
0.0116055
0.0028322
0.00371594
0.00450856
0.00548617
0.0065469
0.00762329
0.00868259
0.00970517
0.010662
0.0115825
0.00252791
0.00346014
0.00424401
0.00521792
0.00629139
0.00739886
0.00850441
0.00958299
0.0105903
0.01154
0.00231631
0.00328015
0.00404565
0.00500198
0.00607254
0.00719673
0.00833753
0.00946751
0.0105279
0.0114946
0.00219112
0.00317083
0.00390987
0.00483614
0.00588868
0.00701482
0.00817827
0.00935328
0.0104835
0.0114866
0.00214348
0.0031252
0.00383121
0.00471652
0.00573675
0.00685065
0.00802718
0.00925565
0.0105612
0.0118742
0.00215514
0.00313195
0.00380257
0.00463905
0.00561278
0.00669381
0.00785335
0.0090729
0.0103751
0.0116746
0.0022263
0.00318862
0.00382081
0.00460151
0.00551566
0.00654348
0.00765869
0.008835
0.0100813
0.011321
0.00235076
0.0032893
0.00388121
0.00460189
0.00544768
0.00640904
0.00746548
0.00859134
0.00978868
0.01098
0.00251972
0.00342697
0.00397848
0.00463791
0.00541098
0.00629836
0.0072873
0.00835621
0.00950354
0.0106516
0.00272483
0.00359506
0.00410735
0.00470669
0.00540596
0.00621529
0.0071302
0.00813418
0.00922389
0.0103275
0.00295851
0.00378753
0.00426262
0.00480474
0.00543165
0.00616162
0.00699837
0.00793114
0.00895613
0.0100115
0.00321378
0.00399868
0.0044391
0.00492802
0.00548597
0.0061377
0.00689464
0.00775209
0.0087067
0.00970905
0.00348451
0.00422329
0.00463164
0.00507204
0.00556582
0.00614241
0.00681999
0.00759989
0.00847981
0.00942463
0.00376705
0.00445861
0.00483705
0.00523346
0.00566831
0.00617393
0.00677408
0.00747576
0.008278
0.00916139
0.00406009
0.00470533
0.00505598
0.00541249
0.00579345
0.00623255
0.00675785
0.00738148
0.00810362
0.0089214
0.00434983
0.00494999
0.00527555
0.00559718
0.00593074
0.00630971
0.006765
0.00731303
0.00795451
0.00870223
0.00463669
0.00519339
0.00549581
0.00578659
0.00607837
0.00640315
0.00679335
0.0072687
0.00782942
0.00850162
0.00492017
0.00543482
0.00571549
0.00597867
0.00623359
0.00650982
0.00683995
0.00724595
0.0077264
0.00831737
0.00519928
0.00567288
0.00593275
0.00617096
0.00639336
0.00662639
0.00690162
0.00724206
0.00764328
0.00814696
0.00547363
0.00590673
0.00614642
0.00636174
0.00655538
0.0067502
0.00697575
0.00725486
0.00757843
0.00798804
0.00574345
0.00613614
0.00635605
0.00655018
0.00671829
0.00687952
0.00706071
0.00728351
0.00753223
0.00784019
0.00600928
0.00636124
0.00656184
0.00673637
0.00688193
0.00701393
0.00715613
0.00732867
0.00750746
0.00770483
0.00627158
0.00658239
0.00676452
0.00692149
0.00704798
0.00715574
0.00726486
0.00739313
0.00750643
0.00757628
0.00653032
0.00679982
0.00696503
0.00710756
0.00722041
0.00731297
0.00740255
0.00750607
0.00758999
0.00756182
0.00678529
0.00701359
0.00716395
0.00729587
0.007402
0.00749257
0.00758933
0.0077309
0.00798765
0.00840479
0.00703738
0.00722364
0.00736101
0.00748589
0.00758981
0.00768193
0.00778263
0.00792706
0.00817968
0.00855022
0.00728234
0.00742828
0.00755521
0.00767643
0.00778148
0.00787656
0.00797789
0.00811259
0.00832503
0.00861076
0.0075163
0.00762553
0.007745
0.00786603
0.00797582
0.00807702
0.00818164
0.00831087
0.00849572
0.00872694
0.0077362
0.0078124
0.00792837
0.00805272
0.00817075
0.00828144
0.00839239
0.00851925
0.00868349
0.00887686
0.00793653
0.00798764
0.00810291
0.00823403
0.00836343
0.00848652
0.00860649
0.0087337
0.00888259
0.00904851
0.00811351
0.00814837
0.00826634
0.00840719
0.00855079
0.00868883
0.00882047
0.00895143
0.00909096
0.00923748
0.00826366
0.00829227
0.00841633
0.00856964
0.00872967
0.00888475
0.00903047
0.00916859
0.00930451
0.00943763
0.00838411
0.00841774
0.00855102
0.00871901
0.00889698
0.00907053
0.00923211
0.00938028
0.00951746
0.00964147
0.00847153
0.00852312
0.00866889
0.00885338
0.00905008
0.00924261
0.0094209
0.00958098
0.00972315
0.0098409
)
;

boundaryField
{
    inlet
    {
        type            zeroGradient;
    }
    outlet
    {
        type            fixedValue;
        value           uniform 0;
    }
    cylinder
    {
        type            zeroGradient;
    }
    top
    {
        type            symmetryPlane;
    }
    bottom
    {
        type            symmetryPlane;
    }
    defaultFaces
    {
        type            empty;
    }
}


// ************************************************************************* //
