/*--------------------------------*- C++ -*----------------------------------*\
  =========                 |
  \\      /  F ield         | OpenFOAM: The Open Source CFD Toolbox
   \\    /   O peration     | Website:  https://openfoam.org
    \\  /    A nd           | Version:  7
     \\/     M anipulation  |
\*---------------------------------------------------------------------------*/
FoamFile
{
    version     2.0;
    format      ascii;
    class       volScalarField;
    location    "4.6";
    object      p;
}
// * * * * * * * * * * * * * * * * * * * * * * * * * * * * * * * * * * * * * //

dimensions      [0 2 -2 0 0 0 0];

internalField   nonuniform List<scalar> 
18000
(
0.925239
0.924368
0.924296
0.924435
0.92487
0.92556
0.926511
0.927753
0.929302
0.931159
0.933305
0.935716
0.938378
0.941271
0.944365
0.947625
0.951012
0.954491
0.95803
0.961601
0.965172
0.968716
0.972209
0.975631
0.978967
0.982207
0.985342
0.988379
0.991308
0.993991
0.923546
0.922671
0.92262
0.922788
0.923244
0.923941
0.924883
0.926093
0.927586
0.929363
0.931404
0.933681
0.936178
0.938879
0.941756
0.944781
0.947922
0.951144
0.954418
0.957718
0.961018
0.964296
0.96753
0.970703
0.973802
0.976816
0.979738
0.982574
0.985313
0.987839
0.921757
0.9209
0.920874
0.921072
0.921553
0.922263
0.923205
0.924389
0.92583
0.927527
0.929458
0.931597
0.933924
0.936425
0.939079
0.94186
0.944741
0.947693
0.950689
0.953705
0.956722
0.959721
0.962684
0.965598
0.96845
0.971232
0.973936
0.976567
0.979111
0.981475
0.919858
0.919034
0.919046
0.919283
0.919796
0.920526
0.921471
0.922638
0.92403
0.925645
0.927464
0.92946
0.931613
0.933909
0.936331
0.938859
0.94147
0.944138
0.946841
0.949561
0.952282
0.95499
0.957671
0.960316
0.962914
0.965457
0.967938
0.97036
0.972709
0.974905
0.917891
0.91712
0.917169
0.917446
0.91799
0.91874
0.919691
0.92084
0.922183
0.923715
0.925419
0.927267
0.92924
0.931326
0.93351
0.935777
0.938108
0.940481
0.942879
0.945289
0.947702
0.950108
0.952497
0.954864
0.9572
0.959497
0.96175
0.963962
0.966115
0.968142
0.91585
0.915139
0.915227
0.915545
0.916123
0.916898
0.917855
0.918987
0.920282
0.921732
0.923318
0.925015
0.926806
0.928677
0.930618
0.932618
0.934661
0.936728
0.93881
0.9409
0.942994
0.945086
0.947174
0.949253
0.951319
0.953364
0.955385
0.957386
0.959347
0.961204
0.913747
0.913108
0.913236
0.913596
0.914208
0.915008
0.915973
0.917088
0.918335
0.919701
0.921167
0.92271
0.924313
0.925967
0.927663
0.929391
0.931137
0.932889
0.934646
0.936407
0.938171
0.93994
0.941717
0.943501
0.94529
0.947079
0.948864
0.950654
0.952429
0.954117
0.911582
0.911028
0.911196
0.911599
0.912245
0.91307
0.914044
0.915143
0.916342
0.917622
0.918966
0.920353
0.921769
0.923205
0.924653
0.926104
0.927546
0.928977
0.930402
0.931825
0.933253
0.934693
0.936152
0.937634
0.939139
0.940666
0.942216
0.943796
0.945391
0.946916
0.909361
0.908901
0.909109
0.909554
0.910235
0.911087
0.912071
0.913154
0.914304
0.915499
0.916721
0.917952
0.91918
0.920398
0.921598
0.922767
0.923903
0.92501
0.926098
0.927179
0.928266
0.929371
0.930508
0.931682
0.9329
0.934164
0.935477
0.936851
0.938275
0.939641
0.907087
0.90673
0.906978
0.907465
0.90818
0.909059
0.910054
0.911123
0.912225
0.913335
0.914436
0.915513
0.916556
0.917558
0.918507
0.919395
0.920225
0.921007
0.921757
0.922495
0.92324
0.92401
0.924822
0.925686
0.926615
0.927615
0.928693
0.929865
0.931125
0.932341
0.904766
0.904518
0.904805
0.905333
0.906083
0.906989
0.907996
0.909052
0.910107
0.911135
0.912118
0.913045
0.913907
0.914694
0.915395
0.916006
0.916533
0.916993
0.917409
0.917806
0.918211
0.918648
0.919136
0.919692
0.920333
0.921071
0.921918
0.922889
0.923995
0.925069
0.902403
0.902268
0.902594
0.903163
0.903947
0.904881
0.905902
0.906945
0.907956
0.908905
0.909776
0.910558
0.911243
0.91182
0.912278
0.912618
0.912849
0.912994
0.913081
0.913145
0.913218
0.913327
0.913497
0.91375
0.914107
0.914588
0.915206
0.915981
0.916938
0.917882
0.900002
0.899982
0.900347
0.900957
0.901776
0.902739
0.903774
0.904807
0.905778
0.906652
0.907415
0.908058
0.908573
0.908948
0.909172
0.909249
0.909194
0.909034
0.908806
0.908548
0.908299
0.908091
0.907952
0.90791
0.907992
0.908222
0.908616
0.909199
0.910012
0.910836
0.897569
0.897661
0.898067
0.898717
0.899573
0.900566
0.901617
0.902642
0.903576
0.904381
0.905043
0.905555
0.905908
0.90609
0.906091
0.905917
0.905589
0.905139
0.904609
0.904045
0.90349
0.90298
0.902546
0.902221
0.902039
0.902027
0.902204
0.902598
0.903272
0.903986
0.895107
0.895309
0.895754
0.896446
0.89734
0.898364
0.899433
0.900453
0.901354
0.902097
0.902667
0.903057
0.903258
0.903258
0.903048
0.902638
0.902051
0.901328
0.900516
0.899666
0.898823
0.898028
0.897316
0.896725
0.896291
0.896049
0.896018
0.89623
0.896766
0.897378
0.892623
0.892927
0.893411
0.894145
0.895078
0.896136
0.897224
0.898243
0.899117
0.899804
0.90029
0.900569
0.900629
0.900459
0.900052
0.899421
0.898595
0.897619
0.896547
0.895431
0.894323
0.893263
0.892292
0.891451
0.890783
0.890324
0.890097
0.890134
0.890533
0.891048
0.890119
0.890516
0.891039
0.891816
0.89279
0.893883
0.894992
0.896013
0.896865
0.897504
0.897917
0.898095
0.898027
0.8977
0.897111
0.896277
0.895231
0.894024
0.892713
0.891356
0.890003
0.888699
0.887489
0.886419
0.885534
0.884874
0.884465
0.884336
0.884597
0.88502
0.887599
0.888078
0.888641
0.889462
0.890478
0.891606
0.892737
0.893763
0.894599
0.8952
0.89555
0.895639
0.895454
0.894983
0.894227
0.893208
0.891963
0.890546
0.88902
0.887443
0.885868
0.884342
0.882914
0.881635
0.880553
0.879709
0.879131
0.878845
0.878968
0.879303
0.885065
0.885614
0.886215
0.887083
0.888142
0.889305
0.890459
0.891493
0.892318
0.89289
0.893187
0.893198
0.892907
0.892306
0.891399
0.890211
0.888786
0.887183
0.885463
0.883687
0.88191
0.880183
0.878558
0.87709
0.87583
0.87482
0.874087
0.873656
0.873643
0.873891
0.882517
0.883122
0.883763
0.884677
0.88578
0.886979
0.888157
0.889201
0.890022
0.890572
0.890826
0.890768
0.890382
0.889662
0.888618
0.887278
0.885692
0.88392
0.882026
0.880072
0.878113
0.876204
0.874401
0.872764
0.871344
0.870185
0.869313
0.868748
0.868605
0.86877
0.879952
0.880601
0.881281
0.882244
0.883392
0.884626
0.885829
0.886885
0.887706
0.888241
0.888458
0.888339
0.887868
0.88704
0.88587
0.884393
0.882661
0.880737
0.878686
0.87657
0.874446
0.872373
0.870411
0.868623
0.867061
0.86577
0.864775
0.864091
0.863825
0.863916
0.877369
0.878049
0.878769
0.87978
0.880973
0.882244
0.883472
0.884542
0.885366
0.885889
0.886075
0.8859
0.885349
0.884421
0.883136
0.881533
0.879669
0.877606
0.875412
0.873147
0.870874
0.868652
0.866547
0.864624
0.862937
0.86153
0.86043
0.859644
0.859269
0.859297
0.874763
0.875463
0.876222
0.877282
0.87852
0.879827
0.881081
0.882165
0.882992
0.883505
0.883662
0.883434
0.882807
0.881785
0.880392
0.878673
0.876685
0.874494
0.872165
0.869764
0.867353
0.864996
0.862762
0.860719
0.858923
0.857416
0.856226
0.855358
0.854894
0.854877
0.87213
0.872842
0.873638
0.874745
0.876027
0.877369
0.878647
0.879745
0.880576
0.881078
0.881204
0.880923
0.880221
0.879108
0.877613
0.875783
0.873677
0.871363
0.868908
0.866379
0.863839
0.861358
0.859007
0.856856
0.854964
0.853373
0.852111
0.851181
0.850651
0.850616
0.869466
0.87018
0.871012
0.872164
0.873488
0.874864
0.876164
0.877274
0.878106
0.878593
0.878685
0.878346
0.877568
0.876365
0.874769
0.872831
0.87061
0.868178
0.865603
0.862952
0.860292
0.857694
0.855235
0.852987
0.851009
0.849346
0.848026
0.847054
0.846486
0.846465
0.866761
0.867473
0.868338
0.869534
0.870897
0.872304
0.873623
0.874741
0.875569
0.876036
0.876085
0.875684
0.874826
0.87353
0.871833
0.869786
0.867454
0.864907
0.862215
0.859447
0.856673
0.853965
0.851404
0.849063
0.847005
0.845276
0.843908
0.842909
0.842328
0.84236
0.864008
0.864715
0.865613
0.866849
0.86825
0.869682
0.871014
0.872135
0.872953
0.87339
0.873388
0.872916
0.871972
0.87058
0.868779
0.866624
0.864181
0.861521
0.858716
0.855836
0.852952
0.850138
0.847476
0.845043
0.842903
0.841105
0.839687
0.838668
0.838094
0.838217
0.861196
0.861899
0.862829
0.864105
0.865539
0.866991
0.868331
0.869446
0.870243
0.87064
0.870576
0.870024
0.868988
0.867494
0.865586
0.863322
0.860768
0.857998
0.855085
0.852098
0.849107
0.84619
0.843426
0.840894
0.838658
0.836771
0.835282
0.834229
0.83368
0.833933
0.858314
0.859019
0.859983
0.861297
0.862759
0.864224
0.865562
0.866663
0.867428
0.867772
0.867635
0.866993
0.865856
0.864255
0.862237
0.859862
0.8572
0.854324
0.851307
0.848218
0.845127
0.842109
0.83924
0.836595
0.834233
0.832208
0.830578
0.829422
0.828906
0.829402
0.855358
0.856073
0.857071
0.85842
0.859904
0.861374
0.862702
0.863777
0.864497
0.864774
0.864552
0.863811
0.862565
0.860851
0.85872
0.856235
0.853467
0.850491
0.847378
0.844196
0.841012
0.837897
0.834921
0.832148
0.829625
0.827387
0.825467
0.82393
0.822995
0.823437
1.00215
1.01506
1.02265
1.02951
1.03346
1.03611
1.03729
1.03746
1.03679
1.03545
1.03358
1.03122
1.02848
1.02544
1.02217
1.01869
1.01509
1.01141
1.00766
1.00388
1.00004
0.996213
0.992382
0.988618
0.984889
0.981293
0.977786
0.974597
0.97183
0.970004
0.995754
1.00918
1.01724
1.02453
1.02879
1.03164
1.03296
1.03324
1.03267
1.03142
1.0296
1.02733
1.02467
1.02171
1.01849
1.01509
1.01155
1.00793
1.00424
1.00051
0.996723
0.992929
0.989135
0.985379
0.981664
0.978056
0.974534
0.971318
0.968505
0.96666
0.989105
1.00314
1.01173
1.01949
1.02408
1.02714
1.0286
1.02901
1.02855
1.02739
1.02562
1.02344
1.02087
1.01798
1.01482
1.01149
1.00802
1.00446
1.00083
0.99715
0.993415
0.989661
0.985908
0.982167
0.978472
0.97486
0.971329
0.968094
0.965237
0.963374
0.982194
0.996954
1.00612
1.0144
1.01933
1.02262
1.02424
1.02477
1.02442
1.02334
1.02166
1.01955
1.01705
1.01424
1.01115
1.00789
1.00449
1.001
0.99742
0.993799
0.990116
0.986408
0.982695
0.978988
0.975311
0.97171
0.968172
0.964918
0.962028
0.960139
0.97503
0.990622
1.00042
1.00926
1.01455
1.01808
1.01987
1.02053
1.02027
1.01928
1.01769
1.01565
1.01323
1.01049
1.00748
1.0043
1.00097
0.997537
0.99402
0.990456
0.986828
0.983172
0.9795
0.975837
0.972182
0.9686
0.96506
0.961792
0.958877
0.956957
0.967629
0.984152
0.994622
1.00407
1.00974
1.01352
1.01549
1.01628
1.01612
1.01523
1.01373
1.01176
1.00941
1.00674
1.00382
1.0007
0.997442
0.99408
0.990628
0.987121
0.983554
0.979952
0.976326
0.97271
0.969086
0.965528
0.961993
0.958715
0.955779
0.953829
0.96001
0.977554
0.98874
0.998829
1.00491
1.00895
1.0111
1.01203
1.01198
1.01117
1.00976
1.00787
1.00559
1.003
1.00015
0.997111
0.99392
0.990628
0.987243
0.983797
0.980291
0.976748
0.973174
0.969608
0.966021
0.962493
0.95897
0.955688
0.952735
0.950756
0.952202
0.970842
0.982781
0.993545
1.00005
1.00436
1.00671
1.00777
1.00783
1.00712
1.00579
1.00398
1.00178
0.999256
0.996487
0.993524
0.990405
0.987182
0.983866
0.980483
0.977039
0.973561
0.970044
0.966531
0.962988
0.959495
0.955991
0.952709
0.949743
0.947739
0.944239
0.964032
0.976756
0.98822
0.995176
0.999772
1.00232
1.00351
1.00368
1.00306
1.00182
1.00009
0.997965
0.995521
0.992828
0.989943
0.986896
0.983743
0.980496
0.97718
0.973801
0.97039
0.966935
0.963481
0.959987
0.956533
0.953056
0.94978
0.946804
0.944777
0.936168
0.957148
0.970679
0.982861
0.990283
0.995174
0.99792
0.999259
0.999539
0.999014
0.997861
0.996207
0.99416
0.991793
0.989176
0.986368
0.983395
0.980311
0.977134
0.973887
0.970577
0.967235
0.963848
0.960456
0.957016
0.953607
0.950164
0.946902
0.943917
0.941868
0.928042
0.950213
0.964565
0.977474
0.985376
0.99057
0.993522
0.995008
0.9954
0.994973
0.993905
0.992331
0.990363
0.988072
0.985532
0.982801
0.979901
0.976888
0.973781
0.970604
0.967366
0.964096
0.96078
0.957455
0.954077
0.950717
0.947315
0.944073
0.941084
0.939015
0.919921
0.943257
0.958431
0.972065
0.980459
0.985964
0.989128
0.990763
0.991269
0.990941
0.989959
0.988466
0.986575
0.984361
0.981897
0.979241
0.976415
0.973473
0.970437
0.967332
0.96417
0.960974
0.957733
0.954478
0.951167
0.947864
0.944509
0.941294
0.938305
0.936217
0.91187
0.936309
0.952295
0.966641
0.975534
0.981357
0.984739
0.986528
0.98715
0.986922
0.986025
0.984611
0.982799
0.980661
0.978272
0.975691
0.972938
0.970067
0.967102
0.964072
0.960987
0.957867
0.954705
0.951526
0.948287
0.945048
0.941746
0.938566
0.935581
0.933476
0.903955
0.929403
0.946177
0.961211
0.970607
0.976751
0.980357
0.982302
0.983044
0.982914
0.982104
0.980769
0.979034
0.976974
0.974659
0.97215
0.96947
0.966669
0.963778
0.960823
0.957818
0.954776
0.951697
0.948598
0.945436
0.942267
0.939028
0.935888
0.932915
0.930793
0.896244
0.92257
0.940098
0.955781
0.965679
0.972148
0.975986
0.97809
0.978953
0.978921
0.978197
0.97694
0.975283
0.973301
0.971058
0.96862
0.966011
0.963282
0.960466
0.957587
0.954664
0.951702
0.948707
0.945693
0.942613
0.939522
0.936352
0.933263
0.930307
0.928171
0.888794
0.915845
0.934076
0.950361
0.960755
0.967551
0.971626
0.973892
0.974879
0.974943
0.974306
0.973126
0.971547
0.969643
0.96747
0.9651
0.962563
0.959906
0.957164
0.954362
0.951522
0.948643
0.945733
0.94281
0.939817
0.936811
0.933719
0.930689
0.92776
0.925611
0.881659
0.909258
0.92813
0.944961
0.955838
0.962964
0.967281
0.969713
0.970824
0.970983
0.970432
0.969329
0.967827
0.965999
0.963895
0.961592
0.959125
0.95654
0.953873
0.951149
0.948392
0.945599
0.942776
0.939944
0.937046
0.934131
0.931126
0.928168
0.925275
0.923117
0.874877
0.90284
0.922278
0.939592
0.950932
0.958391
0.962953
0.965556
0.966791
0.967045
0.966578
0.965553
0.964125
0.962369
0.960333
0.958096
0.955698
0.953184
0.950593
0.947947
0.945271
0.942567
0.939832
0.937095
0.934296
0.931481
0.928574
0.9257
0.922855
0.920692
0.868476
0.896618
0.916536
0.934264
0.946044
0.953836
0.958646
0.961423
0.962784
0.963133
0.962748
0.961799
0.960443
0.958755
0.956785
0.954613
0.952283
0.949839
0.947322
0.944755
0.942161
0.939545
0.9369
0.93426
0.931565
0.92886
0.926062
0.923285
0.920503
0.918341
0.862471
0.890615
0.91092
0.928986
0.941181
0.949302
0.954364
0.957317
0.958806
0.959249
0.958945
0.958069
0.95678
0.955157
0.953251
0.951144
0.948879
0.946504
0.944061
0.941573
0.939059
0.936532
0.933978
0.931437
0.928851
0.926264
0.923588
0.920925
0.918223
0.916071
0.856866
0.884851
0.905445
0.923767
0.936348
0.944793
0.95011
0.953241
0.954858
0.955397
0.955169
0.954365
0.953139
0.951577
0.949732
0.947687
0.945486
0.94318
0.940808
0.938399
0.935964
0.933525
0.931063
0.928624
0.926153
0.923692
0.921151
0.918621
0.91602
0.913888
0.851659
0.87934
0.900121
0.918619
0.931555
0.940315
0.945886
0.949196
0.950943
0.951576
0.951422
0.950687
0.94952
0.948015
0.94623
0.944244
0.942105
0.939866
0.937564
0.935232
0.932876
0.930523
0.928154
0.925818
0.923467
0.921141
0.918749
0.916373
0.913899
0.911803
0.846845
0.874093
0.894957
0.913552
0.926807
0.935875
0.941698
0.945187
0.947064
0.94779
0.947706
0.947036
0.945925
0.944474
0.942746
0.940814
0.938735
0.936563
0.934328
0.932071
0.929791
0.927524
0.925248
0.923017
0.92079
0.918608
0.916379
0.91418
0.911863
0.909824
0.842421
0.869117
0.88996
0.908579
0.922114
0.931481
0.937551
0.94122
0.943224
0.944039
0.944023
0.943415
0.942356
0.940954
0.93928
0.937399
0.935378
0.93327
0.9311
0.928913
0.926709
0.924526
0.922343
0.920218
0.918119
0.916087
0.914036
0.91204
0.909915
0.907965
0.838387
0.864418
0.885134
0.903711
0.917489
0.92714
0.933451
0.937299
0.939428
0.94033
0.940378
0.939827
0.938816
0.937458
0.935832
0.934
0.932034
0.929986
0.927879
0.925759
0.923629
0.921527
0.919437
0.917419
0.915449
0.913575
0.911716
0.909949
0.90806
0.906241
0.834746
0.859997
0.88049
0.898967
0.91295
0.922865
0.929408
0.933432
0.93568
0.936666
0.936775
0.936274
0.935306
0.933987
0.932405
0.930619
0.928704
0.926712
0.924664
0.922608
0.920549
0.918526
0.916527
0.914617
0.912777
0.911066
0.909411
0.907902
0.9063
0.904674
0.831507
0.855852
0.876034
0.894365
0.908513
0.918666
0.925431
0.929625
0.931987
0.933053
0.933218
0.93276
0.931828
0.930542
0.929
0.927255
0.925387
0.923447
0.921454
0.91946
0.917468
0.915521
0.913612
0.91181
0.910099
0.908553
0.907113
0.905891
0.904633
0.903291
0.828702
0.85193
0.871693
0.889825
0.904108
0.914484
0.92147
0.925837
0.928315
0.929463
0.929682
0.929262
0.928361
0.927106
0.925598
0.923894
0.922069
0.920177
0.918238
0.916301
0.914376
0.912503
0.910683
0.908986
0.907404
0.906025
0.904809
0.903899
0.903054
0.902124
0.82625
0.848061
0.867287
0.885176
0.899573
0.91018
0.917403
0.921964
0.924575
0.925818
0.926097
0.925719
0.924852
0.923631
0.922159
0.920497
0.918717
0.916874
0.914989
0.913111
0.911251
0.909454
0.907724
0.90613
0.904676
0.903464
0.902479
0.901905
0.901545
0.90122
0.824062
0.844438
0.863231
0.880887
0.895306
0.906049
0.913437
0.918146
0.920865
0.922186
0.922519
0.922178
0.921344
0.920156
0.918717
0.917097
0.915359
0.913562
0.911728
0.909905
0.908108
0.906381
0.904736
0.903239
0.901907
0.900853
0.900093
0.899865
0.900054
0.900596
0.815515
0.834538
0.853242
0.870883
0.88531
0.896126
0.903617
0.908403
0.911139
0.912436
0.912737
0.912371
0.911531
0.910359
0.908945
0.907373
0.905694
0.903967
0.902223
0.900509
0.898847
0.897279
0.895835
0.894576
0.893546
0.892889
0.892716
0.893434
0.895272
0.899036
0.795752
0.814825
0.832985
0.849205
0.86246
0.872746
0.880233
0.885316
0.888505
0.890295
0.891081
0.89116
0.890736
0.889956
0.888919
0.88771
0.886387
0.885008
0.88361
0.882239
0.880923
0.879709
0.878632
0.877769
0.877184
0.877053
0.877545
0.879157
0.882248
0.887579
0.774575
0.793627
0.810909
0.825951
0.83843
0.848441
0.856017
0.861417
0.865057
0.867346
0.868631
0.869187
0.869219
0.868873
0.868256
0.867453
0.866524
0.865527
0.864502
0.863496
0.862539
0.861682
0.860965
0.86047
0.860265
0.860533
0.861443
0.863489
0.867081
0.873044
0.752123
0.770793
0.787284
0.801607
0.813678
0.823575
0.831279
0.836984
0.841037
0.84379
0.845551
0.846579
0.847069
0.847169
0.846985
0.846604
0.846084
0.845487
0.84485
0.844221
0.843631
0.843132
0.842761
0.842601
0.842716
0.843281
0.844448
0.846694
0.850434
0.856641
0.728733
0.74692
0.762799
0.77663
0.78841
0.798218
0.806036
0.812021
0.816465
0.819669
0.821906
0.823412
0.824372
0.824931
0.825192
0.825242
0.825142
0.824952
0.824709
0.824461
0.824235
0.824084
0.82404
0.824181
0.824563
0.82535
0.82667
0.82898
0.832666
0.838861
0.70448
0.722227
0.737609
0.751046
0.762587
0.772325
0.780251
0.786495
0.791306
0.794945
0.79765
0.799633
0.801068
0.802092
0.802804
0.803292
0.803616
0.803834
0.803982
0.804107
0.804236
0.804416
0.804675
0.805086
0.805695
0.806652
0.808063
0.810361
0.813896
0.819944
0.679401
0.696761
0.711722
0.72484
0.736201
0.745901
0.753941
0.760432
0.765591
0.769645
0.772802
0.775253
0.777156
0.778642
0.779805
0.78073
0.781473
0.782093
0.782624
0.783111
0.783579
0.78407
0.78461
0.785263
0.786067
0.787162
0.788629
0.790884
0.794233
0.800071
0.653516
0.670538
0.685148
0.698017
0.709254
0.718952
0.727117
0.73385
0.739342
0.743792
0.747382
0.750285
0.752646
0.754584
0.75619
0.757544
0.758698
0.759709
0.760612
0.761448
0.762237
0.763021
0.76382
0.764693
0.765672
0.766885
0.768397
0.7706
0.773761
0.779357
0.626849
0.643577
0.657902
0.670582
0.681743
0.691469
0.69977
0.706741
0.712552
0.71738
0.721386
0.724725
0.727528
0.729907
0.731946
0.733717
0.735271
0.736662
0.737922
0.739092
0.740187
0.741246
0.742287
0.743365
0.744503
0.745823
0.747374
0.749529
0.752509
0.757845
0.599427
0.615901
0.629993
0.642533
0.653656
0.663433
0.671881
0.679085
0.685203
0.690393
0.694798
0.698556
0.701785
0.704591
0.707048
0.709224
0.711167
0.712928
0.714532
0.71602
0.717407
0.718728
0.719998
0.721268
0.722558
0.723979
0.725569
0.727678
0.730487
0.735555
0.571271
0.587524
0.601426
0.613865
0.624977
0.634825
0.643427
0.650863
0.657276
0.662813
0.6676
0.671759
0.675398
0.678614
0.681474
0.684042
0.686363
0.688479
0.690417
0.692212
0.693878
0.695449
0.696937
0.698388
0.699819
0.701332
0.702954
0.705019
0.707666
0.712452
0.542403
0.558458
0.572205
0.584569
0.595693
0.605629
0.614392
0.622056
0.628756
0.634625
0.639775
0.644316
0.648347
0.651955
0.655203
0.65815
0.660832
0.663292
0.66555
0.667641
0.669577
0.671389
0.673087
0.674713
0.676281
0.677885
0.679541
0.681562
0.684049
0.688555
0.512844
0.528715
0.54233
0.554641
0.565795
0.57583
0.584759
0.592649
0.599624
0.60581
0.611306
0.61621
0.620614
0.624595
0.628214
0.631521
0.63455
0.637338
0.639904
0.642279
0.644474
0.646516
0.648411
0.6502
0.65189
0.653573
0.655257
0.657236
0.659574
0.663762
0.482602
0.4983
0.511802
0.524075
0.535272
0.545416
0.554513
0.562623
0.569864
0.576351
0.582175
0.587424
0.592178
0.596513
0.60048
0.604129
0.607487
0.610588
0.613448
0.616095
0.618537
0.620802
0.622892
0.624843
0.62666
0.628422
0.63013
0.632057
0.634245
0.638163
0.4517
0.467223
0.480622
0.492869
0.504117
0.514374
0.523638
0.531963
0.539458
0.546231
0.552364
0.557936
0.563019
0.567683
0.571977
0.575944
0.579611
0.583007
0.586143
0.589045
0.591718
0.594185
0.596449
0.598541
0.600466
0.602299
0.604038
0.60593
0.607973
0.611512
0.420146
0.435487
0.448791
0.46102
0.472323
0.482694
0.492122
0.500656
0.508391
0.515432
0.521854
0.527725
0.533112
0.53808
0.542674
0.546935
0.550887
0.554555
0.55795
0.561092
0.563989
0.566657
0.569097
0.571333
0.573358
0.575239
0.576974
0.578806
0.580743
0.584053
0.387953
0.403096
0.416311
0.428527
0.439887
0.450368
0.459955
0.468686
0.476649
0.483938
0.490625
0.49677
0.502433
0.507676
0.51254
0.517066
0.521274
0.525186
0.528811
0.532167
0.535253
0.538088
0.540671
0.543032
0.545167
0.547135
0.548913
0.550692
0.552428
0.555285
0.355131
0.370052
0.383185
0.395394
0.406809
0.417393
0.427127
0.436044
0.444217
0.451733
0.458659
0.465049
0.470957
0.47644
0.481539
0.486295
0.490726
0.494857
0.498694
0.502252
0.505527
0.508528
0.511245
0.513691
0.515858
0.51781
0.51955
0.521299
0.52304
0.525709
0.321694
0.336361
0.349422
0.36163
0.373091
0.383763
0.393631
0.402719
0.411084
0.418804
0.425941
0.432542
0.438658
0.444341
0.449635
0.45458
0.459194
0.463499
0.467497
0.471201
0.474611
0.477743
0.480594
0.483178
0.485473
0.487502
0.489225
0.490811
0.492244
0.494439
0.28768
0.302045
0.315046
0.327251
0.33874
0.34948
0.359464
0.368707
0.377243
0.38514
0.392452
0.399226
0.405505
0.411343
0.416785
0.421874
0.426633
0.431085
0.43523
0.439074
0.4426
0.445807
0.448681
0.451246
0.453512
0.455537
0.457301
0.45895
0.460437
0.462375
0.253177
0.267169
0.280106
0.292292
0.303773
0.314549
0.324625
0.334003
0.342689
0.35073
0.35818
0.365082
0.371478
0.377419
0.382951
0.388118
0.392948
0.397465
0.401677
0.405598
0.409228
0.412566
0.415583
0.418251
0.420523
0.42242
0.423945
0.425297
0.426524
0.428071
0.218414
0.231899
0.244713
0.256814
0.26822
0.27898
0.289119
0.298609
0.307417
0.315566
0.323107
0.330085
0.336539
0.34252
0.348082
0.353278
0.358143
0.362698
0.366935
0.37085
0.374427
0.377682
0.380628
0.383292
0.38566
0.387723
0.38939
0.390735
0.391767
0.39285
0.183843
0.196578
0.209074
0.220931
0.232138
0.242803
0.252959
0.262531
0.271431
0.279651
0.28724
0.294242
0.300687
0.306626
0.312117
0.317227
0.322007
0.326505
0.330737
0.334706
0.338368
0.341671
0.344556
0.347021
0.349098
0.350864
0.352298
0.353468
0.35435
0.354948
0.150225
0.16181
0.173582
0.184869
0.195657
0.206099
0.216197
0.225798
0.234735
0.242968
0.250539
0.257492
0.263854
0.26968
0.27504
0.280003
0.284619
0.288922
0.29293
0.29667
0.300155
0.303393
0.306353
0.30898
0.311188
0.312943
0.314194
0.31502
0.315495
0.315587
0.118545
0.128454
0.138878
0.149067
0.159065
0.169049
0.178949
0.188488
0.197403
0.205601
0.2131
0.219921
0.22608
0.231644
0.236712
0.2414
0.2458
0.249962
0.253873
0.257476
0.260704
0.263551
0.266067
0.268324
0.270331
0.272046
0.273303
0.273984
0.27402
0.273245
0.0897838
0.0974902
0.105846
0.114272
0.122956
0.13208
0.141457
0.150684
0.159406
0.167451
0.174779
0.181381
0.187261
0.192475
0.197118
0.201313
0.205187
0.208854
0.212389
0.2158
0.219013
0.221911
0.22439
0.226429
0.228082
0.229445
0.230467
0.230945
0.230613
0.229169
0.0645932
0.0697856
0.0755199
0.0815576
0.0883625
0.0960935
0.104437
0.112944
0.121206
0.12892
0.135912
0.142104
0.147502
0.152211
0.156371
0.160107
0.163499
0.1666
0.16946
0.172147
0.174701
0.177114
0.179317
0.181217
0.18274
0.183902
0.184668
0.184786
0.18377
0.181249
0.0429653
0.0457229
0.0487822
0.0521028
0.0565763
0.0622158
0.0686426
0.0755932
0.0827652
0.0897495
0.0961624
0.101751
0.106435
0.110316
0.113599
0.116511
0.11924
0.121894
0.124466
0.126867
0.128987
0.13079
0.132331
0.133694
0.134888
0.135887
0.136624
0.136747
0.135363
0.132028
0.024175
0.0249353
0.0256841
0.0266158
0.029171
0.0325453
0.0364399
0.0409937
0.0461133
0.0514392
0.0565609
0.0611366
0.0649397
0.0678949
0.0700778
0.0717165
0.0731348
0.0746252
0.0763057
0.0780823
0.0797368
0.0810858
0.0820938
0.0828614
0.0834824
0.0839846
0.0843835
0.0845213
0.083266
0.0795118
0.00737179
0.00634481
0.00224648
0.00132422
0.00379416
0.00557241
0.00698081
0.00877219
0.011079
0.0137208
0.016459
0.0190642
0.0213401
0.0231617
0.0244881
0.0253866
0.0260147
0.0265522
0.0271341
0.0278044
0.0285071
0.0291444
0.0296474
0.030019
0.0302804
0.0304162
0.0304258
0.0304584
0.0300519
0.0272772
0.79957
0.780616
0.759296
0.736599
0.713162
0.688882
0.663817
0.637989
0.611406
0.584093
0.556081
0.527376
0.498009
0.467989
0.437344
0.406093
0.374255
0.341875
0.309001
0.275736
0.242224
0.208744
0.175746
0.143879
0.11395
0.086733
0.0627765
0.0421217
0.0240678
0.00774282
0.79545
0.775554
0.753986
0.731222
0.707841
0.683635
0.658647
0.632902
0.606405
0.579179
0.55126
0.52265
0.493382
0.463468
0.432932
0.4018
0.370087
0.337847
0.305127
0.272042
0.238744
0.205524
0.17286
0.141412
0.111975
0.0852958
0.0618701
0.0416771
0.023948
0.00781101
0.790949
0.770537
0.748798
0.725988
0.702654
0.678519
0.653604
0.627933
0.601519
0.574382
0.546553
0.518038
0.488871
0.459065
0.42864
0.397628
0.366043
0.333944
0.30138
0.268475
0.23539
0.202429
0.170084
0.139015
0.110011
0.0837995
0.0608636
0.0411398
0.0237656
0.00783692
0.786213
0.765531
0.743675
0.720841
0.697547
0.673479
0.648636
0.623037
0.596702
0.569647
0.541903
0.513479
0.484409
0.454709
0.424393
0.393498
0.362039
0.330078
0.297668
0.264938
0.232067
0.199364
0.167343
0.136667
0.108117
0.0823929
0.0599401
0.0406529
0.0235983
0.00784624
0.781339
0.760558
0.738643
0.715805
0.692546
0.668535
0.643758
0.61823
0.591966
0.564986
0.537322
0.508986
0.480007
0.450409
0.420198
0.389417
0.358082
0.326256
0.293998
0.261443
0.228785
0.196344
0.164651
0.134376
0.106289
0.0810621
0.0590943
0.0402226
0.0234547
0.00784528
0.776384
0.755621
0.733702
0.710875
0.687646
0.663691
0.638972
0.613508
0.58731
0.5604
0.532811
0.504559
0.475667
0.446164
0.416057
0.385387
0.354172
0.322478
0.290371
0.257989
0.225545
0.193371
0.162013
0.132146
0.104529
0.0798026
0.0583149
0.0398376
0.0233303
0.00783375
0.771396
0.750725
0.728849
0.70605
0.682847
0.658944
0.634281
0.608873
0.582736
0.555892
0.528374
0.500199
0.47139
0.441978
0.411971
0.381408
0.35031
0.318744
0.286787
0.25458
0.222352
0.190449
0.159433
0.129985
0.102843
0.078617
0.0576004
0.0394946
0.0232236
0.00781404
0.766409
0.745874
0.724079
0.70133
0.678152
0.654294
0.629681
0.604325
0.578246
0.551464
0.524012
0.495908
0.467179
0.437853
0.407942
0.377481
0.346497
0.315058
0.283249
0.251217
0.219207
0.187582
0.156918
0.127896
0.101233
0.0775067
0.0569498
0.0391926
0.0231333
0.0077996
0.761453
0.74108
0.719392
0.696712
0.67356
0.64974
0.625174
0.599867
0.573841
0.547117
0.519726
0.49169
0.463036
0.433792
0.403971
0.373608
0.342735
0.311422
0.279757
0.2479
0.216111
0.184769
0.154467
0.125879
0.0996997
0.0764703
0.0563599
0.0389291
0.0230569
0.00777004
0.756549
0.736355
0.714791
0.692193
0.669072
0.645284
0.62076
0.595498
0.569523
0.542851
0.515518
0.487546
0.458965
0.429798
0.400062
0.369792
0.339028
0.307836
0.276314
0.244631
0.213064
0.182012
0.152078
0.123931
0.0982397
0.0755042
0.0558264
0.0387005
0.022992
0.00773829
0.751716
0.731708
0.710278
0.68777
0.664685
0.640927
0.61644
0.59122
0.565292
0.538668
0.51139
0.48348
0.454967
0.425871
0.396215
0.366036
0.335376
0.304303
0.27292
0.241411
0.210069
0.179311
0.149751
0.122051
0.0968507
0.074605
0.0553449
0.0385027
0.0229365
0.00770613
0.746966
0.727146
0.705856
0.683444
0.660399
0.63667
0.612217
0.587032
0.561147
0.534568
0.507343
0.479491
0.451041
0.422014
0.392435
0.362343
0.331782
0.300825
0.269579
0.238244
0.207128
0.176668
0.147488
0.120239
0.0955324
0.07377
0.054912
0.0383326
0.0228892
0.00767455
0.742312
0.722676
0.701529
0.679215
0.656215
0.632512
0.60809
0.582935
0.557088
0.530553
0.503377
0.475579
0.447189
0.418227
0.388722
0.358715
0.328249
0.297403
0.266295
0.235134
0.204248
0.174089
0.145294
0.1185
0.0942858
0.0729981
0.0545254
0.0381875
0.0228473
0.00764477
0.737767
0.718307
0.697302
0.675087
0.652135
0.628455
0.60406
0.578933
0.55312
0.526625
0.499493
0.471745
0.443411
0.414512
0.385078
0.355152
0.324777
0.294041
0.263071
0.232086
0.201432
0.171579
0.143173
0.116836
0.0931119
0.072288
0.0541825
0.0380651
0.0228105
0.00761785
0.733339
0.714048
0.69318
0.671062
0.64816
0.624502
0.600131
0.575027
0.549244
0.522786
0.495692
0.467991
0.43971
0.410872
0.381505
0.351656
0.321369
0.290739
0.259908
0.229102
0.198683
0.169142
0.141128
0.11525
0.0920104
0.0716377
0.0538805
0.037963
0.0228184
0.00759489
0.729039
0.709905
0.689169
0.667144
0.644292
0.620654
0.596304
0.571222
0.545463
0.519037
0.491978
0.464318
0.436086
0.407305
0.378002
0.348225
0.318025
0.2875
0.256807
0.22618
0.196002
0.166776
0.139158
0.113741
0.0909794
0.0710443
0.053616
0.0378772
0.0227903
0.0075744
0.724876
0.705887
0.685275
0.663334
0.640534
0.616915
0.592583
0.567518
0.54178
0.515381
0.488351
0.460729
0.432543
0.403815
0.374571
0.344862
0.314745
0.284324
0.253768
0.22332
0.193385
0.164481
0.137263
0.112307
0.0900161
0.0705043
0.0533853
0.0378055
0.0227664
0.00755706
0.720856
0.701998
0.681501
0.659636
0.636886
0.613285
0.588968
0.563918
0.538195
0.511818
0.484815
0.457226
0.429081
0.4004
0.371211
0.341567
0.311531
0.281209
0.250788
0.220521
0.190832
0.162256
0.13544
0.110945
0.0891178
0.0700143
0.0531851
0.0377456
0.0227467
0.00754321
0.716988
0.698245
0.677852
0.656056
0.633351
0.609767
0.585461
0.560423
0.534711
0.508352
0.481372
0.453812
0.425703
0.397063
0.367925
0.338341
0.308383
0.278159
0.247871
0.217785
0.188346
0.1601
0.133691
0.109654
0.0882826
0.0695717
0.0530129
0.0376961
0.0227289
0.00753277
0.71328
0.694634
0.674333
0.652596
0.629932
0.606362
0.582064
0.557032
0.531329
0.504983
0.478024
0.450488
0.422409
0.393807
0.364716
0.335189
0.305305
0.275176
0.245018