/*--------------------------------*- C++ -*----------------------------------*\
  =========                 |
  \\      /  F ield         | OpenFOAM: The Open Source CFD Toolbox
   \\    /   O peration     | Website:  https://openfoam.org
    \\  /    A nd           | Version:  7
     \\/     M anipulation  |
\*---------------------------------------------------------------------------*/
FoamFile
{
    version     2.0;
    format      ascii;
    class       volVectorField;
    location    "2.7";
    object      U;
}
// * * * * * * * * * * * * * * * * * * * * * * * * * * * * * * * * * * * * * //

dimensions      [0 1 -1 0 0 0 0];

internalField   nonuniform List<vector> 
18000
(
(-0.00185735 0.0487964 1.85558e-20)
(-0.00791479 0.11999 0)
(-0.0173628 0.173566 0)
(-0.0275644 0.211416 0)
(-0.0376328 0.236511 -6.12372e-21)
(-0.0466621 0.251648 3.09601e-20)
(-0.0540446 0.259078 -6.27068e-21)
(-0.059403 0.260468 6.3139e-21)
(-0.0625332 0.257029 0)
(-0.0633547 0.249653 -1.90879e-20)
(-0.0618813 0.239048 -6.394e-21)
(-0.0581934 0.225821 0)
(-0.0524201 0.210534 1.27392e-20)
(-0.0447292 0.193726 1.279e-20)
(-0.0353154 0.17592 -2.54947e-20)
(-0.0243937 0.157617 -2.54254e-20)
(-0.0121938 0.139287 0)
(0.00104643 0.121355 -3.7906e-20)
(0.0150871 0.104193 1.25762e-20)
(0.0296899 0.0881139 -3.7532e-20)
(0.0446257 0.0733615 1.24388e-20)
(0.0596822 0.060113 0)
(0.0746671 0.0484792 -1.22076e-20)
(0.0894103 0.0385106 -1.21922e-20)
(0.103767 0.0302063 0)
(0.117615 0.0235236 0)
(0.130856 0.0183962 -2.37749e-20)
(0.143433 0.0147559 -2.35716e-20)
(0.155338 0.0126516 -2.34552e-20)
(0.166281 0.012427 2.5263e-20)
(-0.00294322 0.0500633 2.63318e-20)
(-0.00998317 0.122825 4.58834e-20)
(-0.0194646 0.17741 -4.69699e-20)
(-0.0292794 0.215782 -4.79014e-20)
(-0.0387015 0.240925 -1.21998e-20)
(-0.0469547 0.25569 3.69212e-20)
(-0.0535048 0.262403 -4.98402e-20)
(-0.0580105 0.262798 -5.02348e-20)
(-0.0602761 0.258156 5.0525e-20)
(-0.0602282 0.249432 5.07595e-20)
(-0.0578906 0.237385 -2.53816e-20)
(-0.0533453 0.222666 -5.0891e-20)
(-0.0467239 0.205872 -2.55668e-20)
(-0.0382045 0.187582 5.08178e-20)
(-0.0279901 0.168351 -5.06743e-20)
(-0.0163036 0.148709 5.0745e-20)
(-0.00338705 0.129155 -1.00983e-19)
(0.0105094 0.110137 7.54844e-20)
(0.0251374 0.0920455 -4.99358e-20)
(0.0402518 0.0752058 2.49831e-20)
(0.0556163 0.05987 -4.9385e-20)
(0.0710131 0.046216 0)
(0.0862482 0.0343504 2.47338e-20)
(0.101153 0.0243144 -4.84801e-20)
(0.115583 0.0160928 4.80382e-20)
(0.129426 0.00962711 0)
(0.14259 0.00483368 -2.3494e-20)
(0.155019 0.00162716 2.33787e-20)
(0.166728 5.06604e-05 9.29891e-20)
(0.177441 0.000475141 5.0008e-20)
(-0.00406942 0.0509661 -4.22452e-20)
(-0.0121096 0.124952 -4.58822e-20)
(-0.0215702 0.18046 7.04183e-20)
(-0.0308986 0.219361 1.19446e-19)
(-0.0395418 0.24462 0)
(-0.0468621 0.259106 -4.9326e-20)
(-0.0524016 0.265192 4.98381e-20)
(-0.0558641 0.264685 1.50295e-19)
(-0.0570766 0.258932 -5.05227e-20)
(-0.0559776 0.248944 -5.07212e-20)
(-0.0525953 0.235529 1.52051e-19)
(-0.0470227 0.219389 5.08885e-20)
(-0.039401 0.20116 0)
(-0.0299146 0.181453 -1.0155e-19)
(-0.0187799 0.16086 1.51462e-19)
(-0.00623276 0.139941 -5.0193e-20)
(0.00747419 0.119222 5.03827e-20)
(0.0220803 0.0991756 5.00936e-20)
(0.0373265 0.0802118 2.16155e-22)
(0.052959 0.0626679 0)
(0.0687368 0.0468024 1.47992e-19)
(0.08444 0.0327943 -9.77125e-20)
(0.0998746 0.0207456 4.8746e-20)
(0.114874 0.0106869 0)
(0.129302 0.00258863 -4.80361e-20)
(0.143052 -0.00362525 1.89888e-19)
(0.15604 -0.00805933 -1.40831e-19)
(0.168224 -0.0108159 -4.68627e-20)
(0.179631 -0.0118633 4.58939e-20)
(0.190015 -0.0108153 4.96674e-20)
(-0.00521425 0.0515835 0)
(-0.0142684 0.126528 2.28157e-20)
(-0.0236822 0.182809 1.67786e-23)
(-0.0324467 0.222205 -1.19244e-19)
(-0.0401863 0.247605 0)
(-0.0464222 0.261877 -9.78971e-20)
(-0.0507842 0.267425 0)
(-0.0530247 0.26611 -1.50006e-19)
(-0.0530004 0.259335 5.01824e-20)
(-0.0506678 0.248173 -1.00545e-19)
(-0.0460675 0.233484 -1.01206e-19)
(-0.0393033 0.216008 -5.0552e-20)
(-0.0305299 0.196427 5.04533e-20)
(-0.019945 0.175387 5.00934e-20)
(-0.00777635 0.153511 -5.06155e-20)
(0.00572628 0.131395 -9.98076e-20)
(0.0202954 0.109587 9.97704e-20)
(0.0356587 0.0885862 0)
(0.0515478 0.0688203 0)
(0.0677018 0.0506394 0)
(0.0838753 0.0343082 0)
(0.0998475 0.0200058 0)
(0.115427 0.00782799 0)
(0.130453 -0.00220545 -9.56159e-20)
(0.144797 -0.0101395 -9.53188e-20)
(0.158365 -0.0160689 -4.11977e-22)
(0.171085 -0.0201193 -9.36093e-20)
(0.182925 -0.0224124 -4.29525e-22)
(0.19393 -0.0229343 -9.27383e-20)
(0.203883 -0.02129 1.96953e-19)
(-0.00636596 0.051867 0)
(-0.01644 0.127403 2.04121e-19)
(-0.0257735 0.184315 1.77493e-23)
(-0.0339082 0.224178 -7.11804e-20)
(-0.0406489 0.249765 2.40713e-19)
(-0.0456692 0.263907 1.46763e-19)
(-0.0486984 0.269017 1.47669e-19)
(-0.0495522 0.267001 0)
(-0.0481204 0.259316 0)
(-0.0443817 0.24709 1.50718e-19)
(-0.0383969 0.231231 4.41978e-23)
(-0.0302863 0.212525 -3.51402e-19)
(-0.0202187 0.191692 3.00782e-19)
(-0.00840635 0.169417 -1.00546e-19)
(0.00490578 0.146358 9.93601e-20)
(0.0194511 0.123137 9.9767e-20)
(0.0349483 0.100333 -9.88162e-20)
(0.0511133 0.0784662 9.89774e-20)
(0.067667 0.057983 1.96377e-19)
(0.0843412 0.0392451 -9.76942e-20)
(0.100888 0.0225224 -1.939e-19)
(0.117089 0.00799275 1.92679e-19)
(0.132756 -0.00425446 -1.91388e-19)
(0.147737 -0.0142115 9.56114e-20)
(0.161917 -0.0219397 0)
(0.175213 -0.0275531 0)
(0.187571 -0.0311991 8.01549e-22)
(0.198974 -0.0330215 -3.68411e-19)
(0.209482 -0.0330276 1.82411e-19)
(0.218913 -0.0308217 -1.95563e-19)
(-0.0075008 0.0518364 0)
(-0.0185897 0.12764 -1.8139e-19)
(-0.0278354 0.185018 1.84987e-19)
(-0.0352987 0.225288 0)
(-0.0409553 0.251082 -3.8427e-19)
(-0.0446483 0.265161 -4.86756e-20)
(-0.0462116 0.269928 -9.86949e-20)
(-0.0455244 0.267319 -4.95019e-20)
(-0.0425234 0.25884 0)
(-0.0372198 0.245664 -9.98906e-20)
(-0.0296951 0.22875 9.99878e-20)
(-0.0200891 0.20893 2.00559e-19)
(-0.00859133 0.186962 -2.00377e-19)
(0.00456715 0.163568 0)
(0.0191236 0.139437 -1.9946e-19)
(0.0347934 0.115223 1.9764e-19)
(0.0512792 0.0915295 1.97991e-19)
(0.0682834 0.0689 2.94277e-19)
(0.0855169 0.0477978 -2.93739e-19)
(0.102706 0.0285943 3.88528e-19)
(0.1196 0.0115638 1.93552e-19)
(0.135985 -0.00311773 -1.92669e-19)
(0.15168 -0.0153695 3.81556e-19)
(0.166545 -0.0251964 0)
(0.180479 -0.0326762 1.8742e-19)
(0.193417 -0.037944 3.72727e-19)
(0.205322 -0.0411678 -1.8362e-19)
(0.216195 -0.0425164 1.8402e-19)
(0.226117 -0.0420209 -3.81909e-22)
(0.234942 -0.0392961 -1.9419e-19)
(-0.00860455 0.0514984 -2.07338e-20)
(-0.0206969 0.127219 0)
(-0.0298495 0.184876 -2.3116e-19)
(-0.0366137 0.225485 4.70546e-20)
(-0.0411293 0.251496 1.43892e-19)
(-0.0434029 0.265572 4.84489e-20)
(-0.0433806 0.270091 1.95417e-19)
(-0.0410192 0.267004 0)
(-0.0363076 0.257849 9.91276e-20)
(-0.0292922 0.243849 9.89859e-20)
(-0.0200835 0.226011 -9.95678e-20)
(-0.00884769 0.205206 2.98095e-19)
(0.00420315 0.182232 0)
(0.0188175 0.157847 0)
(0.0347106 0.132773 2.96205e-19)
(0.051577 0.10769 -4.92577e-19)
(0.0691031 0.0832296 1.95652e-19)
(0.0869782 0.0599546 -1.95896e-19)
(0.104902 0.0383438 -1.93705e-19)
(0.122594 0.0187774 -5.79916e-19)
(0.139806 0.00153201 -8.62902e-22)
(0.156328 -0.0132196 1.90251e-19)
(0.17199 -0.0254058 -3.79139e-19)
(0.186667 -0.0350461 1.8763e-19)
(0.200275 -0.0422359 -1.18247e-21)
(0.212769 -0.0471294 -1.85945e-19)
(0.224136 -0.0499171 1.84425e-19)
(0.234394 -0.0507919 0)
(0.243647 -0.049813 1.80104e-19)
(0.251792 -0.0466151 3.34228e-22)
(-0.00966016 0.0508658 -4.12943e-20)
(-0.0227359 0.126157 4.49153e-20)
(-0.0318037 0.183895 -2.75479e-19)
(-0.0378588 0.224749 -1.40338e-19)
(-0.0411929 0.250969 1.90268e-19)
(-0.0419765 0.265095 -2.89309e-19)
(-0.0402738 0.269454 -9.79248e-20)
(-0.036124 0.265995 -1.96028e-19)
(-0.0295758 0.25629 1.96963e-19)
(-0.0207197 0.2416 -3.95873e-19)
(-0.00970057 0.222973 -1.97698e-19)
(0.00328588 0.201322 -9.61044e-22)
(0.0180011 0.177484 9.89337e-20)
(0.0341681 0.152251 -2.95413e-19)
(0.0514779 0.126374 -3.93368e-19)
(0.069604 0.100561 3.94885e-22)
(0.0882145 0.0754675 -7.43421e-22)
(0.106983 0.0516767 1.93546e-19)
(0.1256 0.0296789 1.93694e-19)
(0.143779 0.00986174 3.44282e-22)
(0.161275 -0.00749676 -5.12089e-22)
(0.177884 -0.0222299 1.88194e-19)
(0.193452 -0.0342769 1.88962e-19)
(0.207868 -0.0436723 -3.41809e-22)
(0.221072 -0.05053 -5.57469e-19)
(0.233043 -0.055023 3.67527e-19)
(0.243791 -0.057364 3.65768e-19)
(0.253356 -0.0577693 -3.618e-19)
(0.261866 -0.0563286 -1.80097e-19)
(0.269267 -0.0527062 -1.89767e-19)
(-0.0106547 0.0499625 -3.69423e-19)
(-0.0246857 0.12448 -4.47371e-20)
(-0.0336845 0.182082 2.29298e-19)
(-0.0390358 0.223073 1.87204e-19)
(-0.0411693 0.249476 -1.90263e-19)
(-0.040415 0.263685 1.92725e-19)
(-0.0369582 0.26796 -9.71319e-20)
(-0.0309273 0.264237 2.93821e-19)
(-0.0224377 0.254106 -1.96954e-19)
(-0.0116306 0.23886 1.9749e-19)
(0.00130872 0.219587 9.9069e-20)
(0.0161504 0.197239 -9.90414e-20)
(0.0326259 0.172689 -5.89446e-19)
(0.0504293 0.146759 3.92997e-19)
(0.0692243 0.120229 1.96132e-19)
(0.0886617 0.0938361 0)
(0.108391 0.0682569 0)
(0.128068 0.0440903 -1.90914e-21)
(0.147373 0.0218375 -1.90991e-19)
(0.166017 0.00189116 0)
(0.183758 -0.0154717 0)
(0.200402 -0.030092 -1.89042e-19)
(0.215811 -0.0419224 0)
(0.229897 -0.0510136 -3.70516e-19)
(0.242622 -0.0574974 0)
(0.253994 -0.0615661 -1.83584e-19)
(0.264051 -0.0634528 3.63421e-19)
(0.272855 -0.0633973 -3.59479e-19)
(0.28056 -0.0615196 0)
(0.287165 -0.0575223 0)
(-0.0115773 0.0488132 3.28298e-19)
(-0.026527 0.122223 0)
(-0.0354793 0.179463 -4.56357e-20)
(-0.040146 0.22046 4.65029e-20)
(-0.041079 0.246995 -2.82979e-19)
(-0.0387608 0.261304 5.36215e-23)
(-0.0334989 0.265561 -9.67187e-20)
(-0.0255162 0.261672 0)
(-0.0150017 0.251235 0)
(-0.002154 0.235571 -9.80868e-20)
(0.0127967 0.215799 9.81811e-20)
(0.029582 0.192906 -1.96189e-19)
(0.0478978 0.167801 1.97719e-19)
(0.067406 0.141334 0)
(0.0877425 0.114313 0)
(0.108533 0.0874998 0)
(0.129403 0.0615906 1.91567e-19)
(0.149994 0.0371975 -1.09772e-21)
(0.169974 0.0148305 1.9211e-19)
(0.189053 -0.00511502 -3.78198e-19)
(0.206995 -0.0223667 1.88745e-19)
(0.223618 -0.036776 -9.35499e-19)
(0.238804 -0.0483099 6.44784e-22)
(0.252489 -0.0570364 3.70499e-19)
(0.264666 -0.0631053 -1.61511e-21)
(0.275371 -0.0667284 3.63199e-19)
(0.28467 -0.0681576 -3.59522e-19)
(0.292656 -0.067654 -3.57968e-19)
(0.299504 -0.0653674 7.60116e-22)
(0.305276 -0.0610463 -3.7189e-19)
(-0.0124192 0.0474475 -4.07845e-20)
(-0.0282432 0.11943 0)
(-0.0371756 0.176074 9.09165e-20)
(-0.0411883 0.216924 -9.26438e-20)
(-0.0409381 0.243523 8.47976e-19)
(-0.03705 0.257927 5.15303e-23)
(-0.0299542 0.262215 -9.63436e-20)
(-0.019972 0.258247 9.70167e-20)
(-0.0073707 0.247619 -4.86522e-19)
(0.00758781 0.23167 0)
(0.0246222 0.211545 0)
(0.0434209 0.188265 -1.9441e-19)
(0.0636413 0.162766 1.95779e-19)
(0.0849098 0.135928 -1.94297e-19)
(0.10683 0.108584 1.93468e-19)
(0.129001 0.0815181 0)
(0.151025 0.0554424 -7.66924e-19)
(0.172524 0.0309806 3.80364e-19)
(0.193157 0.00864819 1.89855e-19)
(0.212634 -0.0111605 5.65812e-19)
(0.230726 -0.028181 0)
(0.247268 -0.0422775 3.73393e-19)
(0.262163 -0.0534332 3.69227e-19)
(0.27538 -0.0617345 3.66536e-19)
(0.286941 -0.0673497 -2.28219e-21)
(0.296915 -0.070509 -3.60216e-19)
(0.305403 -0.0714813 3.59508e-19)
(0.312523 -0.0705468 0)
(0.318477 -0.0678831 8.00413e-22)
(0.323392 -0.0632894 7.40213e-19)
(-0.0131751 0.0458984 -3.24302e-19)
(-0.0298209 0.116155 0)
(-0.038761 0.171961 -3.61354e-19)
(-0.042158 0.212497 -4.61044e-19)
(-0.0407555 0.239065 -2.8233e-19)
(-0.0353103 0.253541 9.50834e-20)
(-0.0263721 0.257889 1.5317e-23)
(-0.0143633 0.253917 -9.66495e-20)
(0.000365884 0.243203 1.53864e-21)
(0.017485 0.227096 1.94485e-19)
(0.0366573 0.206763 1.93729e-19)
(0.0575232 0.183251 -1.92615e-19)
(0.079697 0.157523 1.93964e-19)
(0.102766 0.130483 -5.78977e-19)
(0.126301 0.10299 5.76568e-19)
(0.149868 0.0758435 3.82284e-19)
(0.173044 0.0497716 9.53516e-19)
(0.195433 0.025405 -1.91602e-19)
(0.216685 0.00326146 -3.76051e-19)
(0.236512 -0.0162698 -2.16948e-21)
(0.254696 -0.0329352 -3.72921e-19)
(0.27109 -0.046615 1.1089e-18)
(0.285628 -0.0573109 -7.37075e-19)
(0.298308 -0.065128 7.27913e-19)
(0.309191 -0.0702533 -3.63092e-19)
(0.318379 -0.0729341 7.18146e-19)
(0.326008 -0.0734546 1.51401e-21)
(0.332227 -0.07211 -7.05934e-19)
(0.337262 -0.0691042 6.98126e-19)
(0.341308 -0.0642892 3.65129e-19)
(-0.0138429 0.0442009 3.24301e-19)
(-0.0312499 0.112457 0)
(-0.0402228 0.167182 8.11533e-19)
(-0.0430461 0.20722 2.76723e-19)
(-0.0405318 0.233644 0)
(-0.0335562 0.248145 0)
(-0.0227846 0.252564 0)
(-0.00874096 0.248645 0)
(0.00813835 0.237939 1.9419e-19)
(0.0274502 0.221793 1.93818e-19)
(0.0487976 0.201391 -3.88384e-19)
(0.0717688 0.1778 3.87897e-19)
(0.0959305 0.152006 5.78205e-19)
(0.120828 0.124936 1.93254e-19)
(0.145992 0.0974687 1.89719e-19)
(0.170956 0.0704196 -5.72859e-19)
(0.195269 0.0445261 -7.58626e-19)
(0.218516 0.0204237 -3.78224e-19)
(0.240341 -0.00137234 3.76032e-19)
(0.260459 -0.0204821 -7.46828e-19)
(0.278665 -0.0366674 3.69869e-19)
(0.29484 -0.049827 -7.37127e-19)
(0.308947 -0.0599827 3.64101e-19)
(0.321025 -0.0672593 -1.30848e-21)
(0.33117 -0.0718626 -3.59272e-19)
(0.339525 -0.0740549 -7.15137e-19)
(0.346259 -0.074133 7.08338e-19)
(0.351553 -0.0724033 0)
(0.355657 -0.0690928 -8.1606e-22)
(0.358836 -0.0641074 -7.26983e-19)
(-0.014423 0.0423904 4.02961e-20)
(-0.0325233 0.108401 0)
(-0.0415477 0.161805 -3.59962e-19)
(-0.0438378 0.20115 9.16892e-20)
(-0.0402567 0.227298 -9.30985e-20)
(-0.0317874 0.241754 0)
(-0.0192044 0.246236 -9.52632e-20)
(-0.00313249 0.242409 9.59171e-20)
(0.0159037 0.231789 1.92537e-19)
(0.0374253 0.215713 -5.78258e-19)
(0.0609708 0.195373 -1.92891e-19)
(0.0860717 0.171852 1.60541e-22)
(0.112242 0.146154 -8.32883e-22)
(0.138981 0.119225 -3.82952e-19)
(0.165775 0.0919603 -1.91533e-19)
(0.192121 0.0651878 0)
(0.217539 0.0396507 7.65815e-22)
(0.241597 0.0159843 3.76207e-19)
(0.263932 -0.0053038 -3.72631e-19)
(0.284266 -0.0238479 0)
(0.302415 -0.0394287 0)
(0.31829 -0.0519668 0)
(0.331892 -0.0615058 0)
(0.343299 -0.0681909 -2.15981e-21)
(0.352652 -0.0722451 0)
(0.360132 -0.0739442 0)
(0.365945 -0.0735938 3.5046e-19)
(0.370304 -0.0715082 3.47338e-19)
(0.373479 -0.0679329 3.45566e-19)
(0.375804 -0.0628269 -8.67345e-22)
(-0.0149188 0.0405022 4.01385e-20)
(-0.0336371 0.104053 -8.74052e-20)
(-0.0427213 0.155904 5.36185e-19)
(-0.0445119 0.194355 -9.12343e-20)
(-0.0399078 0.220078 9.28391e-20)
(-0.0299852 0.234402 5.21055e-23)
(-0.0156204 0.238917 2.84072e-19)
(0.00246314 0.235204 -3.81508e-19)
(0.0236519 0.224732 5.74836e-19)
(0.0473888 0.208823 7.65369e-22)
(0.0731441 0.188667 -1.9133e-19)
(0.100387 0.165358 3.8296e-19)
(0.128575 0.139913 -3.81823e-19)
(0.157153 0.113295 3.80326e-19)
(0.185562 0.0864098 0)
(0.213257 0.0600943 3.76595e-19)
(0.239729 0.0350926 0)
(0.264528 0.0120343 1.91814e-21)
(0.287289 -0.00858601 -3.69945e-19)
(0.307749 -0.0264222 -3.67551e-19)
(0.325749 -0.0412782 3.65078e-19)
(0.341235 -0.0530991 -3.62519e-19)
(0.354252 -0.0619515 -3.59866e-19)
(0.364924 -0.0680007 -7.16348e-19)
(0.373434 -0.0714853 -3.5426e-19)
(0.380007 -0.0726924 3.52742e-19)
(0.384884 -0.0719325 -6.9944e-19)
(0.388308 -0.0695239 -3.47329e-19)
(0.390568 -0.0657266 0)
(0.392066 -0.0605491 -3.5798e-19)
(-0.0153357 0.0385703 0)
(-0.0345892 0.0994804 3.47424e-19)
(-0.0437276 0.149559 -2.6803e-19)
(-0.0450403 0.186914 -4.54027e-19)
(-0.0394492 0.212051 0)
(-0.0281109 0.22614 0)
(-0.0119952 0.23064 -5.6809e-19)
(0.00807915 0.227044 7.61684e-19)
(0.0314103 0.216768 -5.73421e-19)
(0.0573611 0.201108 0)
(0.0853293 0.181249 1.92305e-19)
(0.114716 0.158286 -1.9175e-19)
(0.144917 0.133247 1.61216e-21)
(0.175317 0.107105 -1.91358e-19)
(0.205305 0.0807758 -1.87945e-19)
(0.234294 0.0550969 -1.77232e-21)
(0.261743 0.0308086 3.72646e-19)
(0.287191 0.00852843 3.72243e-19)
(0.310275 -0.0112684 6.78221e-22)
(0.330751 -0.0282605 7.338e-19)
(0.348494 -0.0422789 -7.2949e-19)
(0.363494 -0.0532954 7.23627e-19)
(0.375843 -0.0614002 3.59853e-19)
(0.385715 -0.0667778 3.57102e-19)
(0.39334 -0.0696808 2.11628e-21)
(0.398981 -0.0704036 0)
(0.402917 -0.0692589 3.47463e-19)
(0.405419 -0.0665641 -1.03228e-18)
(0.406792 -0.0625892 3.38587e-19)
(0.4075 -0.0573882 3.54433e-19)
(-0.015681 0.0366262 -2.38373e-19)
(-0.035379 0.0947495 -7.80274e-19)
(-0.044548 0.142854 -1.16929e-22)
(-0.0453869 0.178912 1.23271e-21)
(-0.0388308 0.203299 -2.75739e-19)
(-0.0261044 0.217035 0)
(-0.00826328 0.221458 -1.87783e-19)
(0.0137833 0.217967 -1.13816e-18)
(0.0392463 0.207919 5.72116e-19)
(0.0674064 0.192579 -3.80773e-19)
(0.0975843 0.173116 5.71158e-19)
(0.129108 0.150626 -1.90432e-19)
(0.161301 0.12614 3.80185e-19)
(0.193486 0.100639 -9.44479e-19)
(0.224995 0.0750376 5.6485e-19)
(0.255195 0.0501719 -8.29671e-22)
(0.283518 0.0267706 -1.11517e-18)
(0.309493 0.00543254 3.69641e-19)
(0.332772 -0.0133931 -3.66867e-19)
(0.353135 -0.0294145 0)
(0.370501 -0.0424936 3.61127e-19)
(0.38491 -0.0526303 0)
(0.396507 -0.0599384 -3.57126e-19)
(0.405518 -0.0646198 3.53619e-19)
(0.41222 -0.0669384 3.52124e-19)
(0.416916 -0.0671924 3.47025e-19)
(0.419918 -0.0656924 0)
(0.421522 -0.0627512 0)
(0.422047 -0.0586443 -6.79822e-19)
(0.422011 -0.053466 1.05351e-18)
(-0.0159628 0.034698 2.38613e-19)
(-0.0360064 0.0899225 4.32396e-19)
(-0.0451612 0.13587 -3.53204e-19)
(-0.0455078 0.170443 7.22226e-19)
(-0.037988 0.193914 9.3175e-20)
(-0.0238847 0.207174 9.30534e-20)
(-0.00433099 0.211445 1.38271e-21)
(0.0196778 0.208033 -3.76577e-19)
(0.0472667 0.198234 -1.88961e-19)
(0.0776318 0.183271 1.44115e-21)
(0.110011 0.164298 -1.47774e-21)
(0.143652 0.142399 -5.67723e-19)
(0.177802 0.118609 -1.87996e-19)
(0.211711 0.0939045 1.60887e-21)
(0.244652 0.0691992 3.73462e-19)
(0.275948 0.0453173 3.7135e-19)
(0.305008 0.0229691 1.74268e-21)
(0.331363 0.00272712 -3.66745e-19)
(0.354681 -0.0149917 3.65446e-19)
(0.374785 -0.0299302 -3.62489e-19)
(0.391641 -0.0419837 -7.20327e-19)
(0.405349 -0.0511804 -3.57827e-19)
(0.416111 -0.0576568 7.08215e-19)
(0.424206 -0.06163 0)
(0.429956 -0.0633712 -3.47967e-19)
(0.433704 -0.0631792 -6.91942e-19)
(0.435791 -0.0613582 -6.86213e-19)
(0.436534 -0.0582127 3.40205e-19)
(0.43626 -0.0540191 -1.01067e-18)
(0.435535 -0.0489067 3.48879e-19)
(-0.0161895 0.0328093 -3.94748e-19)
(-0.0364707 0.0850561 8.5962e-20)
(-0.0455423 0.128691 3.53207e-19)
(-0.0453509 0.161603 -2.70441e-19)
(-0.0368427 0.183997 9.2098e-20)
(-0.0213508 0.196658 -1.18062e-22)
(-7.86813e-05 0.200696 9.3535e-19)
(0.0258963 0.19733 3.77318e-19)
(0.0556136 0.187788 3.78768e-19)
(0.088181 0.173253 5.68478e-19)
(0.122748 0.154851 -5.68452e-19)
(0.158474 0.133657 3.78307e-19)
(0.194521 0.110697 7.53028e-19)
(0.230064 0.0869413 3.7434e-19)
(0.264314 0.0632924 -9.11874e-22)
(0.296555 0.0405555 -7.41926e-19)
(0.326182 0.0194144 7.37384e-19)
(0.352734 0.000407483 9.56318e-22)
(0.375915 -0.0160864 -3.63601e-19)
(0.395595 -0.0298484 3.60659e-19)
(0.411803 -0.0408083 3.59202e-19)
(0.424699 -0.0490229 -3.54611e-19)
(0.434547 -0.0546487 -7.06844e-19)
(0.44168 -0.057915 -5.83348e-22)
(0.446462 -0.0590965 3.48687e-19)
(0.449271 -0.058488 3.44918e-19)
(0.450473 -0.0563841 6.81925e-19)
(0.450401 -0.053077 -6.72412e-19)
(0.449387 -0.0488404 0)
(0.448037 -0.043833 3.46695e-19)
(-0.0163689 0.0309791 1.20067e-21)
(-0.0367696 0.0802005 0)
(-0.0456625 0.121393 -2.62673e-19)
(-0.0448569 0.152489 -8.95372e-20)
(-0.0353049 0.173659 -3.63741e-19)
(-0.0183846 0.185599 0)
(0.00463521 0.189324 -5.59831e-19)
(0.032598 0.185965 1.87639e-19)
(0.0644563 0.176685 0)
(0.0992252 0.16262 -3.76419e-19)
(0.135958 0.144867 0)
(0.173717 0.124484 -5.63136e-19)
(0.211573 0.102481 5.61399e-19)
(0.248625 0.0798185 -3.73766e-19)
(0.284022 0.0573758 -3.70181e-19)
(0.317017 0.0359316 0)
(0.347004 0.0161345 0)
(0.373545 -0.00151828 3.64218e-19)
(0.39639 -0.0166908 2.97157e-22)
(0.415473 -0.0292051 3.58532e-19)
(0.430889 -0.0390258 -3.56164e-19)
(0.442868 -0.046236 7.08516e-19)
(0.451733 -0.0510096 -3.50563e-19)
(0.457869 -0.0535838 0)
(0.46168 -0.0542328 1.03622e-18)
(0.463573 -0.0532432 -1.70799e-18)
(0.463932 -0.0508968 3.39214e-19)
(0.463103 -0.0474705 3.3644e-19)
(0.461416 -0.0432321 3.30999e-19)
(0.45951 -0.0383643 6.86339e-19)
(-0.0165078 0.0292212 -3.12026e-19)
(-0.0368986 0.075398 6.81728e-19)
(-0.0454891 0.114047 3.50548e-19)
(-0.0439601 0.143197 8.02133e-19)
(-0.0332751 0.163012 9.97795e-19)
(-0.0148552 0.174123 1.83945e-19)
(0.00996779 0.177458 -9.27027e-19)
(0.039959 0.174069 0)
(0.0739807 0.165053 -7.48953e-19)
(0.110949 0.151498 -3.73472e-19)
(0.149811 0.134467 0)
(0.189526 0.114994 -3.72206e-19)
(0.22907 0.0940701 -1.05086e-21)
(0.267462 0.0726321 -1.11281e-18)
(0.303801 0.0515312 3.70174e-19)
(0.337321 0.031509 3.67102e-19)
(0.367427 0.0131708 -7.27973e-19)
(0.393725 -0.00303338 -7.24802e-19)
(0.416025 -0.0168142 -2.442e-22)
(0.434333 -0.0280353 -1.05244e-21)
(0.448819 -0.0366949 0)
(0.459784 -0.0428997 -3.51986e-19)
(0.467611 -0.0468365 -3.47195e-19)
(0.472731 -0.0487461 0)
(0.475583 -0.0488979 0)
(0.476596 -0.0475669 1.02071e-18)
(0.476166 -0.0450189 -1.00617e-18)
(0.474645 -0.0415138 0)
(0.472358 -0.0373108 9.86955e-19)
(0.469971 -0.0326133 -6.80909e-19)
(-0.0166108 0.0275443 2.48332e-21)
(-0.0368498 0.0706821 -6.81612e-19)
(-0.0449855 0.106717 -8.70754e-20)
(-0.0425899 0.133817 -8.908e-19)
(-0.0306478 0.15217 -5.44043e-19)
(-0.0106249 0.16236 1.83249e-19)
(0.0160835 0.16524 3.71453e-19)
(0.0481614 0.16179 9.29528e-19)
(0.084375 0.153042 7.48952e-19)
(0.123532 0.140035 7.49884e-19)
(0.164468 0.123795 0)
(0.20603 0.105326 3.09923e-21)
(0.247098 0.0855929 0)
(0.286618 0.0654986 7.41146e-19)
(0.323652 0.0458564 0)
(0.35743 0.0273625 -3.65423e-19)
(0.38739 0.0105714 3.66564e-19)
(0.413196 -0.00411852 0)
(0.434735 -0.0164662 0)
(0.452094 -0.0263763 -1.06465e-18)
(0.465525 -0.0338776 3.5253e-19)
(0.475396 -0.0390962 0)
(0.482148 -0.0422273 6.93515e-19)
(0.486252 -0.0435107 6.89882e-19)
(0.488173 -0.0432069 -1.36352e-18)
(0.488355 -0.0415759 1.35088e-18)
(0.487201 -0.0388658 2.41622e-21)
(0.485059 -0.0353183 6.60327e-19)
(0.48225 -0.0311828 -6.57771e-19)
(0.479454 -0.0266821 0)
(-0.0166802 0.0259518 7.7983e-19)
(-0.0366118 0.0660774 -8.46531e-20)
(-0.0441119 0.0994569 -6.93019e-19)
(-0.0406734 0.124434 0)
(-0.0273158 0.141244 -7.192e-19)
(-0.00555535 0.150441 0)
(0.0231444 0.152817 -9.19867e-19)
(0.0573805 0.149284 -5.57812e-19)
(0.0958144 0.140816 -7.42996e-19)
(0.137137 0.128397 0)
(0.180061 0.113016 1.85996e-19)
(0.223321 0.0956395 1.88324e-19)
(0.265704 0.0771953 -3.70311e-19)
(0.306095 0.0585459 -7.34702e-19)
(0.343536 0.0404563 -3.64625e-19)
(0.377276 0.0235693 -1.45377e-18)
(0.406805 0.00838323 7.24669e-19)
(0.431867 -0.00475794 -2.39169e-23)
(0.452435 -0.0156614 -1.40372e-22)
(0.468689 -0.0242702 1.06259e-18)
(0.480957 -0.0306397 0)
(0.489677 -0.0349103 0)
(0.495339 -0.0372805 -1.56746e-21)
(0.498445 -0.0379846 2.30982e-21)
(0.49948 -0.0372701 -6.75788e-19)
(0.498894 -0.03538 -6.7172e-19)
(0.497086 -0.0325434 1.72803e-21)
(0.4944 -0.0289833 -6.60327e-19)
(0.491145 -0.0249404 -6.51763e-19)
(0.488013 -0.0206543 1.88572e-21)
(-0.0167154 0.0244423 0)
(-0.0361692 0.0615994 6.73741e-19)
(-0.0428257 0.0923121 6.06504e-19)
(-0.0381369 0.115125 8.81702e-20)
(-0.0231747 0.130339 1.43557e-18)
(0.000484643 0.138496 -1.81822e-19)
(0.0313 0.140338 1.46832e-18)
(0.0677719 0.136717 7.37466e-19)
(0.108446 0.128546 1.11369e-18)
(0.151886 0.116761 5.54976e-19)
(0.196677 0.102304 1.85206e-19)
(0.241443 0.0860981 9.2556e-19)
(0.284886 0.0690273 -6.74853e-22)
(0.325849 0.0519027 3.67842e-19)
(0.363377 0.035433 7.30545e-19)
(0.396762 0.0202012 7.26005e-19)
(0.425571 0.00664568 0)
(0.449641 -0.00494456 0)
(0.469047 -0.0144229 0)
(0.484057 -0.0217667 0)
(0.495083 -0.0270526 6.96198e-19)
(0.50262 -0.0304296 0)
(0.5072 -0.0320946 -2.22355e-21)
(0.509349 -0.0322716 1.35792e-18)
(0.50956 -0.0311921 6.73502e-19)
(0.508279 -0.0290804 6.67081e-19)
(0.505897 -0.0261466 1.32164e-18)
(0.502745 -0.0225956 0)
(0.499118 -0.0186613 -1.29301e-18)
(0.495721 -0.0145972 1.33816e-18)
(-0.0167126 0.0230096 6.16652e-19)
(-0.0355024 0.0572549 -6.73756e-19)
(-0.0410827 0.0853168 0)
(-0.0349094 0.105954 -7.01703e-19)
(-0.0181276 0.119552 -1.81719e-19)
(0.00761207 0.126649 -5.41776e-19)
(0.0406776 0.127949 -1.64506e-18)
(0.0794596 0.124249 -2.95684e-21)
(0.122376 0.116406 -5.5206e-19)
(0.167853 0.105303 -1.29358e-18)
(0.214348 0.0918306 -1.84767e-19)
(0.26038 0.0768645 -7.3471e-19)
(0.304583 0.0612335 -7.31767e-19)
(0.345784 0.0456894 0)
(0.383057 0.0308778 -7.23901e-19)
(0.415765 0.0173171 -1.07966e-18)
(0.443572 0.00538462 3.58173e-19)
(0.466422 -0.00468411 -7.09213e-19)
(0.484497 -0.0127848 -7.03837e-19)
(0.498159 -0.0189236 0)
(0.507892 -0.0231925 -1.3887e-18)
(0.514244 -0.0257434 0)
(0.517776 -0.0267663 -1.36693e-18)
(0.519027 -0.026471 -6.76378e-19)
(0.51849 -0.0250704 -1.33958e-18)
(0.516598 -0.0227692 6.63556e-19)
(0.513726 -0.0197582 -1.96998e-18)
(0.510184 -0.0162276 6.48026e-19)
(0.506255 -0.012408 4.07452e-21)
(0.502664 -0.00856806 -6.64444e-19)
(-0.0166649 0.0216441 -6.16665e-19)
(-0.0345886 0.0530436 8.37669e-20)
(-0.0388386 0.0784961 5.98976e-19)
(-0.0309248 0.0969774 7.01718e-19)
(-0.0120896 0.108969 -7.13479e-19)
(0.0159233 0.115015 3.0395e-21)
(0.0513736 0.115788 7.29645e-19)
(0.0925261 0.112036 -1.46528e-18)
(0.137657 0.104561 -1.80393e-19)
(0.185052 0.0941902 1.6558e-18)
(0.233042 0.0817601 -1.10053e-18)
(0.280054 0.0680892 1.83299e-18)
(0.324682 0.0539437 1.8249e-18)
(0.365762 0.0400092 -3.63549e-19)
(0.40243 0.0268632 7.23899e-19)
(0.434144 0.0149573 1.07795e-18)
(0.460686 0.00460863 3.54464e-19)
(0.482119 -0.00399709 3.49132e-21)
(0.49873 -0.0107924 3.52791e-19)
(0.510973 -0.0158063 3.48212e-19)
(0.519396 -0.0191396 -3.41662e-19)
(0.524587 -0.0209414 3.42263e-19)
(0.52713 -0.0213899 -6.76535e-19)
(0.527563 -0.0206771 6.7418e-19)
(0.526368 -0.0189949 4.05599e-21)
(0.523958 -0.0165277 6.57185e-19)
(0.52068 -0.0134479 4.12846e-21)
(0.516822 -0.00993447 -6.4576e-19)
(0.512643 -0.00622346 2.23466e-21)
(0.508893 -0.00260855 0)
(-0.0165624 0.0203338 0)
(-0.0334019 0.0489593 0)
(-0.03605 0.0718663 -7.70171e-19)
(-0.0261243 0.0882403 8.70991e-20)
(-0.00499159 0.0986642 0)
(0.0254888 0.103695 7.19744e-19)
(0.0634478 0.10398 1.81184e-19)
(0.107006 0.100219 5.48638e-19)
(0.154289 0.0931621 7.3352e-19)
(0.203436 0.0835758 -7.34199e-19)
(0.252664 0.0722378 7.33386e-19)
(0.300332 0.059902 -7.31369e-19)
(0.34502 0.0472654 -7.28413e-19)
(0.385611 0.0349422 0)
(0.421329 0.0234388 0)
(0.451756 0.0131406 0)
(0.476802 0.00430786 -7.10944e-19)
(0.496654 -0.00291844 1.05767e-18)
(0.511708 -0.00850139 -3.49301e-19)
(0.522498 -0.0124861 0)
(0.529627 -0.0149759 1.03227e-18)
(0.533713 -0.0161117 -3.4038e-19)
(0.535345 -0.0160559 6.76544e-19)
(0.535057 -0.0149789 -1.33449e-18)
(0.533308 -0.0130492 1.32531e-18)
(0.530479 -0.0104289 -1.89869e-21)
(0.526886 -0.00727226 2.24309e-21)
(0.522781 -0.00374886 6.41595e-19)
(0.518394 -0.000113313 -4.60159e-22)
(0.514503 0.00332118 6.56467e-19)
(-0.0163923 0.0190644 7.63378e-20)
(-0.0319142 0.0449913 -8.29384e-20)
(-0.0326762 0.0654363 1.70232e-19)
(-0.020459 0.0797771 -1.04007e-18)
(0.00321675 0.0887 1.7638e-19)
(0.0363497 0.0927774 0)
(0.0769193 0.0926343 7.20087e-19)
(0.122885 0.0889249 -7.24454e-19)
(0.172212 0.0823416 0)
(0.222899 0.073591 9.09498e-19)
(0.273067 0.0633852 -1.82261e-19)
(0.321033 0.0524071 0)
(0.365404 0.0412792 -3.61313e-19)
(0.405139 0.0305415 7.19681e-19)
(0.439583 0.0206293 -3.57988e-19)
(0.46846 0.0118644 3.55203e-19)
(0.491818 0.00445511 -7.05796e-19)
(0.509972 -0.00149563 1.93871e-22)
(0.523417 -0.00597489 1.15222e-22)
(0.532757 -0.00903723 -3.42669e-19)
(0.538639 -0.0107825 -6.83148e-19)
(0.541697 -0.0113396 -2.8413e-23)
(0.54252 -0.0108511 1.98218e-21)
(0.541622 -0.00946209 6.66173e-19)
(0.539434 -0.0073147 -6.57661e-19)
(0.5363 -0.00454365 6.5312e-19)
(0.532488 -0.00127987 -1.28856e-18)
(0.528198 0.00231264 -2.283e-21)
(0.523631 0.0059596 -1.26016e-18)
(0.51958 0.00930727 6.52778e-19)
(-0.0161388 0.0178208 0)
(-0.0300951 0.0411252 -6.59697e-19)
(-0.0286793 0.0592082 0)
(-0.0138902 0.0716132 3.05991e-21)
(0.0125657 0.0791271 1.75777e-19)
(0.0485166 0.0823369 5.18773e-23)
(0.0917668 0.0818443 -1.43693e-18)
(0.140099 0.0782571 5.43699e-19)
(0.191314 0.0722094 0)
(0.243285 0.064342 -9.08635e-19)
(0.294057 0.0552965 1.81392e-19)
(0.341946 0.0456798 0)
(0.385619 0.0360371 -3.59577e-19)
(0.424149 0.0268335 3.58423e-19)
(0.457028 0.0184354 3.54461e-19)
(0.484134 0.0111061 7.07329e-19)
(0.505661 0.0050088 -3.51306e-19)
(0.522043 0.000214862 0)
(0.533866 -0.00327992 0)
(0.541793 -0.00553313 6.87289e-19)
(0.5465 -0.00663704 -6.79283e-19)
(0.548629 -0.00670532 6.73135e-19)
(0.548756 -0.00585767 6.68624e-19)
(0.547374 -0.00421229 6.60026e-19)
(0.544881 -0.0018796 -6.53348e-19)
(0.54158 0.00104187 6.48774e-19)
(0.537678 0.00445925 6.39989e-19)
(0.533276 0.00823733 -6.33061e-19)
(0.528441 0.01215 1.78316e-21)
(0.523816 0.0157386 1.29905e-18)
(-0.0157881 0.0165917 7.56881e-20)
(-0.0279168 0.037349 5.77656e-19)
(-0.0240275 0.0531827 0)
(-0.00639251 0.0637681 6.90008e-19)
(0.0230638 0.0699863 0)
(0.061969 0.0724338 0)
(0.10793 0.071686 5.38151e-19)
(0.15854 0.0683015 2.06217e-22)
(0.21144 0.0628523 1.8055e-19)
(0.264394 0.0559094 1.80367e-19)
(0.315411 0.0480387 -5.40811e-19)
(0.36284 0.0397678 3.60051e-19)
(0.405447 0.0315643 0)
(0.442453 0.0238206 0)
(0.473517 0.0168384 -7.10259e-19)
(0.49868 0.0108292 0)
(0.518279 0.00591853 -3.49221e-19)
(0.53286 0.00215301 3.46836e-19)
(0.543087 -0.00048198 3.43741e-19)
(0.549666 -0.00204187 -1.77599e-22)
(0.553291 -0.00260898 -3.37856e-19)
(0.554599 -0.0022798 0)
(0.55415 -0.0011509 -6.62482e-19)
(0.552413 0.000685232 6.55981e-19)
(0.549762 0.00315294 0)
(0.546476 0.00619728 0)
(0.542737 0.00978752 0)
(0.538601 0.0139039 0)
(0.533865 0.0184157 -6.22069e-19)
(0.529225 0.0236418 1.29055e-18)
(0.197916 0.0190708 -0.0192034)
(0.227554 0.0351558 -0.0197259)
(0.248569 0.0575416 -0.0198411)
(0.25896 0.0790278 -0.0199174)
(0.264317 0.0973627 -0.0199288)
(0.265526 0.111712 -0.0199108)
(0.264132 0.12313 -0.0198603)
(0.260898 0.133027 -0.01979)
(0.256342 0.142336 -0.0197052)
(0.250779 0.151425 -0.0196096)