/*--------------------------------*- C++ -*----------------------------------*\
  =========                 |
  \\      /  F ield         | OpenFOAM: The Open Source CFD Toolbox
   \\    /   O peration     | Website:  https://openfoam.org
    \\  /    A nd           | Version:  7
     \\/     M anipulation  |
\*---------------------------------------------------------------------------*/
FoamFile
{
    version     2.0;
    format      ascii;
    class       volScalarField;
    location    "86";
    object      p;
}
// * * * * * * * * * * * * * * * * * * * * * * * * * * * * * * * * * * * * * //

dimensions      [0 2 -2 0 0 0 0];

internalField   nonuniform List<scalar> 
2000
(
0.00899899
0.00908867
0.00926031
0.00947413
0.00970073
0.00992179
0.0101249
0.0103041
0.0104585
0.0105761
0.0090247
0.00915814
0.00934771
0.00957987
0.00982466
0.0100629
0.0102809
0.0104716
0.0106334
0.0107453
0.00902356
0.00921125
0.00941915
0.00966813
0.00992797
0.0101794
0.0104083
0.0106071
0.0107749
0.0108805
0.00900063
0.00925022
0.0094768
0.00974006
0.0100104
0.0102693
0.010503
0.0107042
0.0108736
0.0109708
0.00896272
0.0092801
0.00952411
0.0097978
0.0100727
0.0103317
0.0105622
0.0107578
0.0109221
0.0110068
0.00891902
0.0093065
0.00956535
0.00984441
0.0101168
0.0103672
0.0105851
0.0107656
0.0109153
0.0109812
0.00888018
0.00933566
0.00960542
0.00988373
0.0101457
0.0103783
0.0105735
0.0107285
0.0108531
0.0108922
0.00885793
0.00937441
0.0096498
0.00992043
0.0101638
0.0103694
0.0105324
0.0106524
0.0107422
0.0107468
0.00886452
0.00942994
0.00970447
0.00995997
0.0101767
0.0103472
0.0104704
0.0105492
0.0106002
0.0105667
0.00891206
0.00950959
0.0097759
0.0100086
0.0101912
0.0103198
0.0103977
0.0104328
0.0104489
0.0103912
0.0107395
0.011591
0.0125609
0.0141299
0.0158053
0.0177849
0.0191617
0.0211176
0.0211725
0.0225144
0.0108201
0.0115858
0.0123119
0.013672
0.0151728
0.0170051
0.0182761
0.020091
0.0202497
0.0214094
0.0108505
0.0115699
0.0120696
0.0132278
0.0145633
0.0162589
0.017432
0.019143
0.0193461
0.0203887
0.0108232
0.0115283
0.0118326
0.0127987
0.0139779
0.0155454
0.0166326
0.0182556
0.0184711
0.0194551
0.0107349
0.0114445
0.0115974
0.0123849
0.0134177
0.0148657
0.0158781
0.0174228
0.0176479
0.018607
0.0105877
0.0113051
0.0113571
0.0119852
0.012883
0.0142183
0.0151616
0.0166308
0.0168671
0.0178258
0.0103914
0.011103
0.0111034
0.0115969
0.0123751
0.0136073
0.0144915
0.015895
0.0161511
0.0171176
0.0101555
0.0108289
0.0108239
0.011217
0.0118889
0.0130178
0.0138426
0.0151729
0.0154508
0.0164577
0.00987283
0.0104688
0.0104919
0.0108393
0.0114475
0.0124938
0.0132762
0.0145402
0.0148402
0.0158728
0.00964875
0.0101642
0.0101832
0.0104472
0.010963
0.0119086
0.0126445
0.0138223
0.0141785
0.0153021
0.0101751
0.0106842
0.0109233
0.0110559
0.0112278
0.0117037
0.0121991
0.0130195
0.0133104
0.014153
0.00809401
0.0085632
0.0089615
0.00933594
0.00972247
0.0102323
0.0107136
0.0113585
0.0115814
0.0120991
0.00648636
0.00692195
0.00729269
0.00763093
0.00799509
0.00849492
0.00897068
0.00955782
0.00975238
0.0100962
0.00487677
0.0053235
0.00575434
0.00612252
0.00646802
0.00690943
0.00732992
0.00784799
0.00801262
0.00828042
0.00337204
0.003797
0.00428009
0.0047174
0.00510118
0.00551236
0.00587652
0.00631367
0.00645258
0.00667312
0.00207129
0.00245561
0.00294753
0.00342497
0.00385327
0.00426811
0.00460707
0.00497967
0.00508969
0.00526962
0.00103122
0.00136654
0.00183398
0.00230147
0.00272753
0.00312717
0.00344224
0.00376662
0.00386165
0.00399777
0.000278879
0.00055247
0.000968706
0.0013908
0.00177189
0.00212277
0.00239509
0.00266766
0.0027349
0.00282517
-0.000121224
5.38399e-05
0.000380709
0.000699306
0.000970649
0.00121798
0.00140247
0.00160379
0.00163762
0.00169529
-0.000639824
-0.000293717
-1.01427e-05
0.000191254
0.000325751
0.000440995
0.000507042
0.000604352
0.000585304
0.000586611
0.00956636
0.00779327
0.00624817
0.00468877
0.00324625
0.00199357
0.000993631
0.000244575
-9.9283e-05
-0.000650318
0.00920909
0.00751138
0.00599052
0.00447678
0.00309227
0.00189445
0.000943087
0.000230323
-8.89633e-05
-0.000569039
0.00885786
0.00725895
0.00576291
0.0042954
0.00296376
0.00181704
0.000911281
0.000236825
-6.66407e-05
-0.000463429
0.0085848
0.00708337
0.00560928
0.00418116
0.00289519
0.00178897
0.00091743
0.000271176
-2.78143e-05
-0.000362344
0.00839386
0.00696699
0.00551031
0.0041195
0.00287076
0.00179847
0.000953763
0.000327992
2.44046e-05
-0.000268748
0.00828879
0.00690729
0.00546469
0.00410216
0.00288462
0.00183962
0.00101484
0.000402482
8.66472e-05
-0.000183078
0.00827629
0.00690011
0.00546985
0.00412717
0.00293387
0.00190909
0.00109714
0.000490875
0.000156058
-0.000106297
0.00834303
0.00694244
0.00552148
0.00419043
0.00301437
0.00200285
0.00119688
0.000589603
0.000230084
-3.86542e-05
0.00847696
0.00702961
0.00561428
0.00428697
0.0031214
0.00211659
0.00131017
0.000695391
0.000306556
2.04387e-05
0.00866437
0.00715552
0.00574195
0.00441152
0.00325009
0.00224605
0.00143334
0.000805443
0.000383766
7.1995e-05
0.00888861
0.00731105
0.00589629
0.00455774
0.00339501
0.00238691
0.00156298
0.00091741
0.000460415
0.000117073
0.00913759
0.00748909
0.00607108
0.00472115
0.00355216
0.00253602
0.00169657
0.00102969
0.000535707
0.000156658
0.00940389
0.00768626
0.00626255
0.00489935
0.00371912
0.00269143
0.00183259
0.00114138
0.000609304
0.000191726
0.00968033
0.00789954
0.00646674
0.00508996
0.00389368
0.00285149
0.0019699
0.00125195
0.000681113
0.000223101
0.00996103
0.00812716
0.00668039
0.00529107
0.00407417
0.00301497
0.00210777
0.00136117
0.000751211
0.000251456
0.0102409
0.00836821
0.00690065
0.00550085
0.00425931
0.00318086
0.00224572
0.00146894
0.000819771
0.000277343
0.0105121
0.00861993
0.00712408
0.00571683
0.00444775
0.00334817
0.00238339
0.00157525
0.000887015
0.000301251
0.0107698
0.00888611
0.0073536
0.005941
0.0046414
0.00351819
0.0025218
0.00168087
0.000953513
0.000323691
0.0110373
0.00920028
0.00761124
0.00618811
0.00485093
0.0036977
0.00266517
0.00178823
0.00102045
0.000344834
0.011238
0.00950817
0.00786218
0.00642757
0.00505748
0.00387221
0.00280491
0.00189199
0.00108537
0.000363108
0.0107947
0.00962152
0.00812702
0.00674895
0.00539785
0.00418195
0.003075
0.0020999
0.00122168
0.000407425
0.0107396
0.00957836
0.00813881
0.0068437
0.00553774
0.00435592
0.00325016
0.00225645
0.00133257
0.000452624
0.0109941
0.00980934
0.00835567
0.00707713
0.00576389
0.00457343
0.00343927
0.00241213
0.00144195
0.000502348
0.011496
0.0101793
0.00866315
0.00735578
0.00601046
0.00479441
0.00362295
0.00256224
0.00155241
0.000560115
0.0122398
0.010712
0.00908953
0.00770375
0.00629891
0.00503397
0.00381481
0.00271782
0.00167171
0.000627515
0.0131704
0.0113922
0.00963228
0.00812308
0.00663525
0.00529853
0.00402294
0.00288254
0.00179754
0.000696138
0.0141788
0.0121508
0.0102422
0.00858559
0.00700294
0.00558065
0.00424439
0.00304948
0.00191193
0.000743155
0.0151284
0.0128767
0.010827
0.00902823
0.00735648
0.00585234
0.00445804
0.00319799
0.00199165
0.000752523
0.0158753
0.0134458
0.0112834
0.00937549
0.00763661
0.00607055
0.00462929
0.0033068
0.00203143
0.000733775
0.0162898
0.013756
0.0115307
0.00956442
0.00779111
0.00619315
0.00472626
0.00336404
0.00204278
0.00071242
0.0118195
0.0117802
0.0121016
0.0126858
0.0135226
0.0145436
0.0156595
0.0167375
0.0176133
0.0181122
0.0119971
0.012113
0.0125338
0.0132104
0.0141306
0.0152195
0.0163898
0.0175067
0.0184063
0.0189184
0.0120289
0.0123257
0.0128908
0.0137055
0.014751
0.0159488
0.0172033
0.0183676
0.0192783
0.019788
0.0121132
0.0125494
0.0132332
0.0141706
0.0153303
0.0166377
0.0179907
0.0192284
0.0201799
0.0207091
0.0122469
0.0128269
0.01362
0.0146658
0.0159244
0.0173282
0.0187741
0.0200927
0.021103
0.0216682
0.0123959
0.0131345
0.0140515
0.0152106
0.016569
0.0180657
0.0195975
0.0209916
0.0220599
0.0226621
0.0125573
0.0134573
0.0145135
0.0157957
0.0172638
0.0188598
0.0204781
0.0219429
0.023062
0.0236944
0.0127397
0.0137967
0.0150015
0.0164122
0.0179981
0.0197015
0.0214116
0.0229478
0.0241132
0.0247694
0.0129476
0.014156
0.0155169
0.0170571
0.0187662
0.0205826
0.0223899
0.024001
0.0252127
0.0258893
0.0131829
0.0145335
0.0160594
0.0177285
0.0195656
0.0214989
0.0234083
0.0250988
0.026359
0.0270549
0.0134474
0.0149241
0.016626
0.0184226
0.0203938
0.0224479
0.0244646
0.0262394
0.0275511
0.0282664
0.013739
0.0153223
0.0172114
0.0191327
0.0212456
0.0234254
0.0255561
0.0274215
0.028789
0.0295247
0.0140479
0.0157239
0.0178057
0.0198525
0.0221147
0.0244276
0.0266807
0.0286437
0.0300745
0.0308318
0.0143561
0.0161296
0.0183947
0.0205767
0.0229928
0.0254493
0.0278346
0.0299029
0.031413
0.0321929
0.0146266
0.0165397
0.0189664
0.021305
0.023876
0.0264871
0.0290153
0.0311995
0.032794
0.0336036
0.0148599
0.016943
0.0195119
0.022015
0.0247498
0.0275286
0.0302137
0.0325274
0.0342137
0.035062
0.0150454
0.0173215
0.020021
0.0226955
0.0256054
0.0285676
0.031426
0.0338841
0.0356737
0.0365704
0.0151568
0.0176651
0.0204818
0.0233344
0.0264275
0.0295871
0.0326364
0.0352586
0.037169
0.0381278
0.0151706
0.0179699
0.0208961
0.0239406
0.0272316
0.030606
0.0338615
0.0366616
0.0387053
0.0397405
0.0150129
0.0181641
0.0211882
0.0244114
0.0278972
0.0315029
0.0350017
0.0380292
0.0402518
0.0413953
0.015672
0.0196949
0.0230687
0.0266726
0.0305057
0.0344642
0.0383143
0.0416844
0.0441963
0.0455372
0.0196271
0.0235122
0.0271088
0.0312941
0.0357443
0.0403413
0.0447754
0.0486196
0.0514574
0.0529504
0.0239862
0.0280584
0.0320698
0.0368939
0.0419793
0.0472359
0.0522236
0.0564744
0.0595684
0.0611993
0.0285837
0.0330948
0.0377636
0.0433223
0.0490971
0.0550366
0.0605317
0.0651126
0.0683649
0.07001
0.033471
0.0385374
0.0439665
0.0503044
0.0568049
0.0634253
0.0693702
0.0742091
0.077543
0.0792536
0.0387366
0.0443807
0.0506321
0.0577634
0.0650085
0.0722988
0.07865
0.0836669
0.0868779
0.088224
0.0439006
0.0502369
0.0572521
0.0650906
0.0730377
0.0809206
0.0876429
0.0927833
0.095729
0.0969899
0.0490875
0.0558462
0.0635957
0.0721577
0.080842
0.0893287
0.0965445
0.101967
0.104427
0.103567
0.0519804
0.0595844
0.0679965
0.0771514
0.0864117
0.0953341
0.102856
0.108307
0.109644
0.111236
0.0555739
0.0633153
0.0721977
0.0818662
0.0918441
0.101518
0.110411
0.117928
0.120713
0.104183
0.0144328
0.0182435
0.022176
0.02642
0.0308145
0.0358689
0.0403362
0.0456236
0.0478335
0.0513749
0.0140158
0.0179998
0.0218755
0.0260319
0.030261
0.035161
0.0393324
0.044485
0.0463549
0.0498489
0.0138295
0.0180168
0.0218647
0.0260143
0.0301298
0.0348452
0.0387711
0.0436082
0.0452548
0.048512
0.0135928
0.0178649
0.0216751
0.0257769
0.0298215
0.0343711
0.0381219
0.0426675
0.0442757
0.0471862
0.0133296
0.0176024
0.0213676
0.0253836
0.0293578
0.0337433
0.0373681
0.0416465
0.0433143
0.0458837
0.0130646
0.0173094
0.021043
0.0249809
0.0288733
0.0330771
0.0366532
0.0406228
0.0423998
0.0446647
0.0127957
0.0169997
0.0207203
0.0246033
0.0284239
0.0324754
0.035989
0.0396999
0.0415491
0.0435621
0.0125238
0.0166757
0.0203959
0.0242419
0.0280086
0.0319479
0.0353823
0.0389043
0.0407886
0.042578
0.0122563
0.0163466
0.0200746
0.0238966
0.0276236
0.0314827
0.0348429
0.0382237
0.0401147
0.0417433
0.0120016
0.0160226
0.0197666
0.0235774
0.0272765
0.0310786
0.0343805
0.0376477
0.0395335
0.0410602
0.0117672
0.0157121
0.019481
0.0232941
0.0269782
0.0307418
0.0340032
0.0371766
0.0390559
0.0405174
0.0115506
0.0154153
0.0192208
0.02305
0.0267348
0.0304777
0.0337166
0.0368146
0.038689
0.0401042
0.0113413
0.0151295
0.018985
0.0228443
0.0265478
0.0302893
0.0335239
0.0365653
0.0384362
0.0398171
0.0111306
0.0148573
0.0187736
0.0226776
0.026418
0.0301785
0.0334267
0.0364297
0.0382957
0.0396557
0.0109071
0.0146017
0.0185852
0.0225494
0.0263453
0.0301456
0.0334257
0.0364089
0.0382665
0.0396259
0.0106552
0.0143619
0.0184151
0.0224567
0.0263271
0.0301882
0.0335186
0.0365008
0.0383381
0.0397303
0.0103573
0.0141324
0.0182555
0.0223939
0.0263602
0.0303041
0.0337068
0.036709
0.0385141
0.0399835
0.00999723
0.013904
0.0180952
0.0223504
0.0264329
0.0304796
0.033977
0.0370212
0.0387605
0.0403888
0.00952947
0.0136552
0.0179327
0.0223314
0.0265569
0.0307329
0.034351
0.037464
0.0391224
0.0409725
0.00894735
0.0132995
0.0176798
0.0222384
0.0266237
0.0309494
0.0347245
0.0379518
0.0394769
0.0417136
0.00999129
0.0144219
0.0186924
0.0233586
0.0279992
0.0325315
0.0365101
0.0399278
0.0413282
0.0439466
0.0125952
0.0172546
0.0217733
0.0268661
0.0319727
0.0369983
0.041475
0.0452288
0.0470515
0.0493412
0.0162131
0.0212008
0.0261459
0.0318271
0.0375406
0.0432458
0.0483715
0.0525912
0.055096
0.057061
0.0204509
0.0258809
0.0314118
0.0378707
0.0444387
0.0511245
0.0572113
0.0623118
0.0658791
0.0682551
0.024901
0.0308701
0.037156
0.0445744
0.0522389
0.0602334
0.0677259
0.0743975
0.0797648
0.083941
0.0295299
0.0360373
0.0432559
0.0517706
0.0607687
0.0704249
0.0799409
0.0893951
0.098604
0.107341
0.0333142
0.0406159
0.0488334
0.0584804
0.069044
0.0807659
0.093153
0.107188
0.123463
0.142425
0.0373932
0.0452911
0.0544918
0.0653367
0.0776443
0.091889
0.108303
0.12974
0.159632
0.200037
0.0385411
0.0466852
0.0563436
0.0679447
0.0819581
0.0994624
0.122421
0.155765
0.208417
0.288018
0.0411248
0.0506271
0.0618004
0.0755912
0.0932263
0.116533
0.149192
0.199454
0.284968
0.415914
0.00976942
0.0121599
0.0151282
0.018663
0.0222092
0.0264044
0.0293982
0.0333315
0.0343055
0.0361103
0.00960296
0.012001
0.0148645
0.0182321
0.0215157
0.0254835
0.0281675
0.0319583
0.0327642
0.0347239
0.00961173
0.0119561
0.0147351
0.0179883
0.0211226
0.0248482
0.0273032
0.030827
0.0314021
0.0337709
0.00969788
0.0118874
0.0145014
0.017593
0.0205587
0.02406
0.0263346
0.0296162
0.0299836
0.0324904
0.00982204
0.0118097
0.0142065
0.0171133
0.0198637
0.0231327
0.0252238
0.0283122
0.0284975
0.0308736
0.00997201
0.0117415
0.0139127
0.0166148
0.019157
0.0221834
0.0240813
0.0270038
0.0270254
0.0291708
0.0101374
0.0116857
0.0136299
0.0160894
0.0184918
0.0212619
0.0229836
0.02575
0.0256353
0.0275788
0.0103075
0.0116426
0.0133535
0.0155779
0.0178165
0.0203614
0.0219551
0.0245529
0.0243529
0.0261573
0.0104717
0.0116134
0.0130823
0.0150829
0.0171338
0.0194635
0.0210001
0.0233831
0.0231835
0.0248758
0.0106194
0.0115975
0.0128176
0.0146004
0.01646
0.0186023
0.0200744
0.0222259
0.0221298
0.0236752
0.0090133
0.00962141
0.00987145
0.0100736
0.0102151
0.0102957
0.0103229
0.0103084
0.0102811
0.0102106
0.0091861
0.00977577
0.00999943
0.010163
0.0102571
0.0102846
0.010256
0.0101849
0.0100993
0.00997134
0.00943614
0.00997784
0.0101662
0.0102845
0.0103265
0.0102979
0.0102117
0.0100832
0.00994104
0.00975904
0.00976905
0.0102332
0.0103781
0.0104455
0.010432
0.0103461
0.0102025
0.0100181
0.00982186
0.00958947
0.0101883
0.0105462
0.0106402
0.0106517
0.0105806
0.0104372
0.0102379
0.0100003
0.0097523
0.00947319
0.010693
0.0109185
0.0109548
0.0109064
0.0107761
0.0105762
0.0103235
0.010036
0.00973936
0.0094218
0.0112775
0.0113481
0.011321
0.0112093
0.0110191
0.0107639
0.0104606
0.0101273
0.00978634
0.00941876
0.0119313
0.011829
0.011734
0.0115563
0.0113061
0.0109973
0.0106466
0.0102714
0.00988954
0.00948187
0.0126384
0.0123514
0.0121846
0.0119395
0.0116296
0.0112694
0.0108748
0.0104615
0.0100431
0.00960466
0.0133709
0.0128985
0.0126592
0.0123467
0.0119786
0.01157
0.0111351
0.0106878
0.0102381
0.00977623
0.0140899
0.013446
0.0131391
0.0127625
0.0123398
0.0118866
0.0114156
0.0109388
0.0104632
0.00998463
0.0148046
0.0139875
0.013612
0.0131727
0.0126986
0.0122052
0.0117031
0.0112017
0.0107063
0.0102176
0.0154797
0.0144974
0.014057
0.01356
0.0130401
0.0125122
0.0119846
0.0114643
0.0109554
0.0104635
0.0160835
0.014952
0.0144543
0.0139074
0.0133495
0.0127944
0.0122482
0.0117151
0.0111995
0.0107117
0.0165896
0.0153302
0.0147857
0.0141993
0.013613
0.0130397
0.0124826
0.0119438
0.0114284
0.0109524
0.0169749
0.0156128
0.0150347
0.014422
0.0138191
0.0132378
0.0126789
0.012142
0.0116337
0.0111775
0.0172196
0.0157836
0.0151881
0.0145645
0.0139587
0.013381
0.0128302
0.0123032
0.0118085
0.0113788
0.0173093
0.0158304
0.0152358
0.014619
0.0140255
0.0134644
0.0129326
0.0124241
0.0119472
0.0115461
0.0172349
0.0157456
0.0151718
0.0145812
0.0140168
0.0134861
0.0129845
0.0125012
0.0120388
0.0116604
0.0169934
0.0155266
0.0149943
0.0144504
0.0139333
0.0134486
0.0129897
0.0125389
0.0120888
0.0117287
0.0165863
0.0151748
0.0147043
0.0142282
0.0137781
0.0133598
0.01297
0.0126003
0.0122648
0.0120621
0.0160132
0.0146932
0.0143054
0.0139164
0.0135501
0.0132112
0.0128986
0.01261
0.0123612
0.0122134
0.0152914
0.0140944
0.0138059
0.0135201
0.0132507
0.0130001
0.0127685
0.0125568
0.012377
0.0122572
0.0144413
0.0133939
0.0132175
0.0130477
0.012886
0.0127324
0.0125884
0.0124577
0.0123499
0.0122764
0.0134861
0.0126099
0.0125545
0.0125104
0.0124656
0.0124173
0.0123681
0.0123245
0.0122943
0.0122822
0.0124523
0.0117635
0.0118338
0.011922
0.0120011
0.0120648
0.012117
0.0121658
0.0122185
0.0122768
0.0113686
0.0108772
0.0110741
0.0112973
0.0115049
0.0116858
0.0118445
0.0119907
0.0121315
0.0122679
0.0102637
0.00997382
0.010294
0.0106517
0.0109895
0.011291
0.0115601
0.0118076
0.0120411
0.0122629
0.00916568
0.00907484
0.009512
0.0100001
0.0104672
0.0108901
0.011272
0.0116235
0.0119534
0.0122665
0.00811156
0.00820453
0.00874669
0.00935693
0.00994892
0.0104921
0.010987
0.0114439
0.0118721
0.0122809
0.00715391
0.00739781
0.00802186
0.00873927
0.00944691
0.0101054
0.0107113
0.011273
0.0117998
0.0123068
0.00624206
0.00663841
0.00733553
0.00815091
0.00896565
0.00973376
0.0104474
0.0111121
0.0117357
0.0123407
0.0054057
0.00594416
0.00670309
0.00760042
0.00851161
0.00938129
0.0101971
0.0109616
0.0116773
0.0123754
0.00466479
0.00532838
0.00613386
0.00709665
0.0080897
0.00905035
0.00996091
0.0108211
0.0116209
0.0124009
0.00402683
0.00479711
0.0056332
0.00664396
0.00770315
0.00874225
0.00973729
0.0106813
0.0115656
0.0124254
0.00349466
0.00435261
0.00520426
0.00624522
0.00735385
0.00845767
0.00952684
0.010548
0.0115044
0.0124315
0.00306825
0.00399473
0.00484819
0.00590196
0.00704276
0.00819661
0.00932847
0.0104183
0.0114366
0.0124144
0.00274472
0.0037211
0.00456418
0.00561428
0.00676996
0.00795859
0.00914127
0.010292
0.0113651
0.0123756
0.00251884
0.00352754
0.00434982
0.0053811
0.00653469
0.00774268
0.00896444
0.0101711
0.011302
0.0123326
0.00238403
0.00340868
0.00420141
0.00520022
0.00633528
0.00754665
0.00879387
0.0100495
0.0112552
0.0123262
0.00233097
0.00335722
0.00411333
0.00506776
0.00616868
0.00736792
0.00862986
0.00994184
0.0113286
0.0127164
0.00234056
0.00336129
0.0040782
0.00497958
0.00603092
0.00719598
0.00844108
0.00974475
0.011129
0.0125048
0.00241296
0.00341825
0.00409278
0.0049335
0.00592106
0.00703018
0.00822963
0.00948938
0.010817
0.0121336
0.00254167
0.00352187
0.00415213
0.00492753
0.00584165
0.00688045
0.00801877
0.00922694
0.0105052
0.0117737
0.00271742
0.00366474
0.00425069
0.00495937
0.00579512
0.00675525
0.00782286
0.0089724
0.0102002
0.0114256
0.00293142
0.00383991
0.00438295
0.0050261
0.00578209
0.00665884
0.00764844
0.00873063
0.00989975
0.0110808
0.00317571
0.004041
0.00454342
0.00512409
0.00580164
0.00659328
0.00750012
0.00850798
0.00961069
0.0107431
0.00344292
0.00426197
0.0047266
0.00524914
0.00585177
0.0065592
0.00738111
0.00830994
0.00933995
0.0104185
0.0037266
0.00449727
0.00492705
0.00539657
0.00592932
0.00655559
0.00729273
0.00813978
0.00909223
0.0101118
0.0040229
0.004744
0.00514138
0.00556283
0.0060313
0.00658074
0.00723487
0.0079991
0.00887049
0.00982677
0.0043305
0.0050029
0.00537026
0.00574814
0.00615779
0.00663506
0.00720873
0.00789001
0.00867746
0.00956585
0.00463469
0.00525971
0.00560009
0.00593997
0.00629785
0.00670976
0.00720796
0.00780865
0.00851118
0.00932671
0.00493591
0.00551526
0.00583088
0.00613725
0.00644953
0.00680249
0.00723039
0.00775335
0.00837054
0.00910715
0.00523355
0.00576879
0.00606128
0.00633782
0.00660994
0.00691007
0.00727303
0.00772166
0.00825372
0.00890504
0.00552649
0.00601876
0.00628931
0.00653903
0.00677586
0.00702904
0.00733261
0.00771088
0.00815866
0.00871796
0.00581424
0.00626426
0.00651367
0.00673902
0.0069448
0.00715655
0.00740641
0.00771881
0.00808383
0.00854369
0.00609694
0.00650498
0.00673383
0.00693682
0.00711522
0.00729069
0.00749266
0.00774461
0.00802975
0.00838197
0.00637507
0.00674102
0.00694991
0.00713238
0.00728676
0.00743078
0.00759078
0.00778884
0.00799947
0.00823483
0.00664909
0.0069727
0.0071626
0.00732677
0.00746089
0.00757882
0.00770316
0.00785383
0.00799527
0.00809754
0.00691898
0.00720027
0.00737281
0.00752195
0.00764145
0.00774254
0.00784489
0.0079677
0.00807674
0.00807638
0.0071846
0.0074238
0.00758114
0.00771923
0.00783124
0.00792903
0.00803656
0.00819518
0.00847802
0.00892931
0.00744695
0.00764323
0.00778735
0.00791814
0.00802745
0.00812585
0.00823575
0.00839483
0.00867073
0.00907266
0.00770182
0.00785692
0.00799046
0.00811753
0.00822775
0.00832846
0.00843766
0.00858459
0.00881628
0.00912847
0.00794541
0.00806285
0.00818894
0.00831595
0.00843095
0.00853748
0.00864903
0.00878868
0.0089897
0.00924316
0.00817443
0.00825817
0.00838073
0.00851136
0.00863493
0.00875096
0.00886832
0.00900428
0.0091822
0.0093943
0.00838349
0.00844129
0.00856343
0.00870123
0.00883672
0.00896547
0.00909161
0.00922695
0.00938734
0.00956893
0.00856863
0.0086094
0.0087345
0.00888269
0.00903311
0.00917736
0.00931531
0.00945359
0.00960273
0.00976222
0.00872618
0.00876003
0.00889158
0.00905292
0.00922082
0.00938279
0.00953507
0.00968006
0.00982401
0.00996768
0.00885301
0.00889141
0.00903265
0.00920952
0.0093964
0.00957774
0.00974637
0.00990116
0.0100451
0.0101775
0.00894551
0.00900175
0.00915606
0.00935049
0.00955703
0.00975843
0.00994441
0.0101111
0.0102591
0.0103832
)
;

boundaryField
{
    inlet
    {
        type            zeroGradient;
    }
    outlet
    {
        type            fixedValue;
        value           uniform 0;
    }
    cylinder
    {
        type            zeroGradient;
    }
    top
    {
        type            symmetryPlane;
    }
    bottom
    {
        type            symmetryPlane;
    }
    defaultFaces
    {
        type            empty;
    }
}


// ************************************************************************* //
