/*--------------------------------*- C++ -*----------------------------------*\
  =========                 |
  \\      /  F ield         | OpenFOAM: The Open Source CFD Toolbox
   \\    /   O peration     | Website:  https://openfoam.org
    \\  /    A nd           | Version:  7
     \\/     M anipulation  |
\*---------------------------------------------------------------------------*/
FoamFile
{
    version     2.0;
    format      ascii;
    class       surfaceScalarField;
    location    "86";
    object      phi;
}
// * * * * * * * * * * * * * * * * * * * * * * * * * * * * * * * * * * * * * //

dimensions      [0 3 -1 0 0 0 0];

internalField   nonuniform List<scalar> 
3880
(
-1.9421e-05
-0.000501103
0.000520524
-1.82302e-05
-0.00120721
0.00120602
1.54586e-05
-0.00162089
0.0015872
8.76848e-05
-0.00178354
0.00171131
0.000204273
-0.00172304
0.00160646
0.000372091
-0.00145855
0.00129073
0.000598509
-0.00100384
0.000777421
0.000889409
-0.000370518
7.96179e-05
0.00124652
0.000429294
-0.000786408
0.00138165
0.00166453
-0.00179966
-8.0228e-06
-0.000493081
1.63011e-05
-0.00123153
7.9346e-05
-0.00168393
0.000183545
-0.00188774
0.000332188
-0.00187169
0.00053077
-0.00165713
0.000786337
-0.00125941
0.00110553
-0.000689711
0.00149186
4.29674e-05
0.000931039
0.00194246
7.87603e-06
-0.000500957
6.30699e-05
-0.00128672
0.000165632
-0.00178649
0.000313373
-0.00203548
0.000506352
-0.00206467
0.000747874
-0.00189866
0.00104388
-0.00155542
0.00140115
-0.00104698
0.00182476
-0.000380643
0.000441262
0.00231454
2.73814e-05
-0.000528338
0.000120554
-0.0013799
0.000271494
-0.00193743
0.000473038
-0.00223702
0.000721644
-0.00231327
0.00101798
-0.00219499
0.00136633
-0.00190377
0.00177302
-0.00145367
0.00224407
-0.000851697
-9.66914e-05
0.00278202
5.0065e-05
-0.000578403
0.00018629
-0.00151612
0.000392022
-0.00214317
0.000654818
-0.00249982
0.000967469
-0.00262592
0.00132795
-0.00255547
0.00173871
-0.00231454
0.00220526
-0.00192021
0.00273395
-0.00138039
-0.000692179
0.00332944
7.47801e-05
-0.000653183
0.000256785
-0.00169813
0.00052023
-0.00240661
0.000847357
-0.00282695
0.00122749
-0.00300606
0.00165619
-0.00298416
0.00213431
-0.00279266
0.00266659
-0.00245249
0.0032594
-0.0019732
-0.00135108
0.0039183
0.000100179
-0.000753362
0.000327716
-0.00192566
0.000647399
-0.00272629
0.00103626
-0.00321581
0.00148049
-0.00345029
0.00197368
-0.00347735
0.0025156
-0.00333458
0.00311076
-0.00304765
0.00376591
-0.00262835
-0.00207146
0.0044863
0.000124743
-0.000878106
0.000394207
-0.00219513
0.000763707
-0.00309579
0.00120528
-0.00365737
0.00170235
-0.00394737
0.00224699
-0.004022
0.00283835
-0.00392593
0.00348149
-0.00369079
0.00418502
-0.00333188
-0.00284036
0.00495392
0.000146867
-0.00102497
0.000451161
-0.00249942
0.00085903
-0.00350366
0.00133791
-0.00413626
0.00186892
-0.00447838
0.0024429
-0.00459597
0.00305844
-0.00454147
0.00372129
-0.00435364
0.0044439
-0.00405449
-0.00363457
0.00523811
0.00016494
-0.00118991
0.000493614
-0.00282809
0.000923809
-0.00393386
0.00141913
-0.00463158
0.00195909
-0.00501833
0.00253374
-0.00517063
0.00314091
-0.00514864
0.00378546
-0.00499819
0.00448267
-0.0047517
0.00527587
-0.00442776
0.00294193
0.0138952
-0.0151725
0.00431528
0.0334909
-0.0348643
0.00490207
0.0541865
-0.0547733
0.00480574
0.0732847
-0.0731884
0.00428468
0.0920285
-0.0915075
0.00348415
0.111816
-0.111015
0.00250026
0.134256
-0.133272
0.00136107
0.164406
-0.163267
0.000408104
0.209778
-0.208825
0.264112
-0.263704
0.00326072
0.0125769
0.00489445
0.0318572
0.00577131
0.0533097
0.00586694
0.0731891
0.00543765
0.0924578
0.00464284
0.112611
0.00358924
0.13531
0.00230871
0.165687
0.00100383
0.211083
0.265116
0.00360225
0.0112892
0.00544072
0.0300187
0.00661374
0.0521367
0.00691797
0.0728849
0.00659089
0.0927849
0.00580563
0.113396
0.00468181
0.136434
0.00325269
0.167116
0.00160552
0.21273
0.266722
0.00397299
0.0100982
0.00593965
0.0280521
0.00740483
0.0506715
0.00793472
0.072355
0.00772401
0.0929956
0.00695511
0.114165
0.00576482
0.137624
0.00418764
0.168693
0.00220049
0.214718
0.268922
0.00437704
0.00905062
0.00638337
0.0260457
0.00812221
0.0489327
0.00889373
0.0715835
0.00881663
0.0930727
0.00807531
0.114906
0.00682526
0.138874
0.00510352
0.170415
0.0027835
0.217038
0.271706
0.00480824
0.00816068
0.00676976
0.0240842
0.00874728
0.0469551
0.00977302
0.0705577
0.00984907
0.0929967
0.00914927
0.115606
0.0078492
0.140174
0.00598941
0.172275
0.0033473
0.21968
0.275053
0.00524253
0.00740444
0.00709758
0.0222292
0.00926649
0.0447862
0.0105531
0.0692711
0.0108043
0.0927454
0.0101641
0.116246
0.00882754
0.141511
0.00683951
0.174263
0.00389118
0.222628
0.278944
0.00562917
0.00672919
0.00735784
0.0205005
0.00966959
0.0424745
0.0112167
0.067724
0.0116614
0.0923007
0.0110975
0.11681
0.00973922
0.142869
0.00763735
0.176365
0.0044027
0.225863
0.283347
0.00588783
0.00607947
0.00752268
0.0188656
0.00994184
0.0400553
0.0117555
0.0659104
0.0124272
0.091629
0.0119651
0.117272
0.0106023
0.144232
0.00839547
0.178572
0.00489122
0.229367
0.288238
0.0059799
0.00537543
0.00762871
0.0172168
0.0101031
0.0375809
0.0121292
0.0638843
0.0130255
0.0907327
0.0126889
0.117609
0.0113689
0.145552
0.00906282
0.180878
0.00536214
0.233068
0.2936
0.0188157
0.00977256
-0.0232128
0.0145296
0.0215029
0.0124183
0.0396921
0.0112789
0.0650238
0.00985019
0.0921614
0.00791661
0.119542
0.00541079
0.148058
0.00244168
0.183847
8.04477e-05
0.235429
0.293681
0.0196309
0.0128518
-0.0227101
0.0153874
0.0257464
0.0124453
0.0426343
0.0109006
0.0665684
0.00943655
0.0936254
0.00752928
0.12145
0.00506119
0.150526
0.00222811
0.18668
2.60455e-05
0.237631
0.293707
0.0191858
0.0144796
-0.0208137
0.015833
0.0290992
0.0126559
0.0458114
0.0106282
0.0685961
0.00896048
0.0952932
0.00706782
0.123342
0.00470747
0.152886
0.0020139
0.189373
-2.80321e-05
0.239673
0.293679
0.0178416
0.0151373
-0.0184993
0.0154447
0.0314961
0.0126116
0.0486445
0.0104311
0.0707765
0.00861232
0.097112
0.00670348
0.125251
0.00442425
0.155165
0.00189827
0.191899
-4.67384e-06
0.241576
0.293674
0.0161265
0.0151022
-0.0160914
0.014526
0.0330966
0.0121875
0.050983
0.0101065
0.0728575
0.00827893
0.0989396
0.00637867
0.127151
0.00416192
0.157382
0.00174627
0.194315
-4.40434e-05
0.243366
0.29363
0.0142144
0.0144722
-0.0135845
0.0132996
0.0340114
0.0114502
0.0528325
0.00961617
0.0746915
0.00792129
0.100634
0.00611141
0.128961
0.0039874
0.159506
0.00170117
0.196601
8.38903e-06
0.245059
0.293638
0.0122622
0.0132852
-0.0110752
0.0120167
0.0342569
0.0106669
0.0541822
0.00906593
0.0762924
0.0075036
0.102197
0.00580323
0.130662
0.00378479
0.161524
0.00158853
0.198797
-1.65033e-05
0.246664
0.293622
0.0102677
0.0115883
-0.00857078
0.0105796
0.033945
0.00974816
0.0550136
0.00850626
0.0775343
0.00714054
0.103563
0.00557147
0.132231
0.00365881
0.163437
0.0015921
0.200864
5.67674e-05
0.248199
0.293679
0.00873581
0.00920298
-0.00635047
0.00965802
0.0330228
0.00917602
0.0554956
0.00809178
0.0786186
0.00682193
0.104832
0.00534419
0.133708
0.00351061
0.165271
0.00151332
0.202861
4.21328e-05
0.24967
0.293721
0.0063396
-0.00356337
0.00819932
0.00853289
0.00784332
0.00673078
0.00528643
0.00353381
0.00157097
0.000161199
0.00516461
-0.023408
-0.00496938
0.0047334
-0.0222789
0.00400374
-0.020084
0.00319383
-0.0176893
0.00235952
-0.015257
0.00151881
-0.0127438
0.000675963
-0.0102323
-0.000135666
-0.00775915
-0.00105673
-0.00542941
-0.00282481
0.00426572
-0.0232463
-0.00442742
0.00359296
-0.0216061
0.0027395
-0.0192305
0.00185304
-0.0168029
0.000963247
-0.0143673
8.17255e-05
-0.0118623
-0.000790173
-0.00936041
-0.00163294
-0.00691638
-0.00251241
-0.00454995
-0.00214655
0.0032153
-0.0227881
-0.00367354
0.00234115
-0.020732
0.00139146
-0.0182808
0.000443053
-0.0158545
-0.000484198
-0.01344
-0.00138576
-0.0109607
-0.00225976
-0.00848641
-0.00309119
-0.00608495
-0.00389862
-0.00374252
-0.00156015
0.00201115
-0.0220903
-0.0027089
0.000991898
-0.0197127
-2.66533e-05
-0.0172623
-0.00100651
-0.0148746
-0.00195083
-0.0124957
-0.00284968
-0.0100619
-0.00369898
-0.0076371
-0.00448541
-0.00529853
-0.00519502
-0.00303291
-0.00108191
0.000670298
-0.0211982
-0.00156245
-0.000438738
-0.0186037
-0.00148204
-0.016219
-0.00247676
-0.0138799
-0.00341031
-0.0115621
-0.00427964
-0.00919253
-0.00507836
-0.00683838
-0.00579192
-0.00458498
-0.00638746
-0.00243736
-0.000715598
-0.000759277
-0.0201638
-0.000275085
-0.00191646
-0.0174465
-0.00295956
-0.0151759
-0.00393457
-0.0129049
-0.00483147
-0.0106652
-0.00564705
-0.00837694
-0.00637316
-0.00611227
-0.00699383
-0.00396431
-0.0074693
-0.00196189
-0.000456592
-0.00223592
-0.0190098
0.00108194
-0.00339667
-0.0162857
-0.00441256
-0.01416
-0.00534413
-0.0119733
-0.00618294
-0.00982642
-0.00692565
-0.00763424
-0.00756381
-0.00547412
-0.00808095
-0.00344717
-0.00843939
-0.00160345
-0.000294351
-0.0036994
-0.0177837
0.0024733
-0.0048334
-0.0151517
-0.00580195
-0.0131915
-0.00667153
-0.0111037
-0.00743702
-0.00906093
-0.00809451
-0.00697675
-0.00863716
-0.00493146
-0.00904934
-0.00303499
-0.00930091
-0.00135188
-0.000214635
-0.00510053
-0.0165257
0.00384247
-0.00618545
-0.0140668
-0.00709305
-0.0122839
-0.00788834
-0.0103084
-0.00857216
-0.00837712
-0.0091394
-0.00640952
-0.00958672
-0.00448414
-0.00990033
-0.00272137
-0.0100601
-0.00119207
-0.000201317
-0.00639732
-0.0152703
0.00514198
-0.00741896
-0.0130452
-0.00825845
-0.0114444
-0.00897351
-0.00959337
-0.00957414
-0.00777649
-0.010053
-0.00593061
-0.0104119
-0.00412528
-0.0106393
-0.00249398
-0.0107253
-0.00110603
-0.000237667
-0.00755779
-0.0140453
0.00633275
-0.00850882
-0.0120941
-0.0092792
-0.010674
-0.00991396
-0.00895861
-0.010436
-0.00725443
-0.0108344
-0.00553218
-0.0111169
-0.00384279
-0.0112743
-0.00233657
-0.0113057
-0.00107464
-0.000307137
-0.00856552
-0.0128705
0.00739071
-0.00944166
-0.011218
-0.0101464
-0.00996922
-0.0107055
-0.00839954
-0.011158
-0.00680191
-0.0114881
-0.00520214
-0.0117095
-0.00362137
-0.0118151
-0.00223098
-0.0118109
-0.00107885
-0.00039376
-0.00941006
-0.011759
0.00829859
-0.0102107
-0.0104174
-0.0108572
-0.00932273
-0.0113494
-0.00790735
-0.0117447
-0.00640661
-0.0120216
-0.00492526
-0.0121991
-0.0034438
-0.0122718
-0.00215829
-0.0122503
-0.00110039
-0.000482325
-0.0100905
-0.0107167
0.00904821
-0.0108174
-0.00969047
-0.0114153
-0.00872487
-0.0118524
-0.00747021
-0.0122045
-0.00605447
-0.0124451
-0.00468473
-0.0125966
-0.00329231
-0.0126549
-0.00209992
-0.0126332
-0.00112209
-0.000558398
-0.0106127
-0.00974103
0.00963707
-0.0112693
-0.00903394
-0.0118288
-0.00816531
-0.0122249
-0.0070741
-0.0125484
-0.005731
-0.01277
-0.00446314
-0.0129128
-0.0031495
-0.0129745
-0.00203818
-0.0129686
-0.00112804
-0.000608253
-0.0109867
-0.00882011
0.0100657
-0.0115784
-0.00844218
-0.0121089
-0.00763483
-0.0124794
-0.00670356
-0.0127882
-0.00542222
-0.013008
-0.0042434
-0.0131586
-0.00299882
-0.0132403
-0.00195648
-0.013265
-0.00110341
-0.000618762
-0.0112236
-0.00793175
0.0103352
-0.0117601
-0.00790562
-0.0122679
-0.00712707
-0.012629
-0.00634242
-0.0129362
-0.00511506
-0.0131704
-0.00400925
-0.0133444
-0.00282482
-0.0134615
-0.00183935
-0.0135306
-0.00103433
-0.000577278
-0.0113273
-0.00705086
0.0104464
-0.0118264
-0.00740659
-0.0123158
-0.00663759
-0.0126848
-0.00597348
-0.0130032
-0.00479664
-0.0132673
-0.00374516
-0.0134793
-0.00261281
-0.0136464
-0.00167226
-0.0137732
-0.000907534
-0.000471475
-0.0112946
-0.00616371
0.0104075
-0.0117886
-0.00691261
-0.0122638
-0.00616243
-0.0126574
-0.0055798
-0.0129999
-0.00445423
-0.0133084
-0.00343664
-0.0135722
-0.00234898
-0.013803
-0.00144147
-0.0140003
-0.00071023
-0.000289144
-0.0111717
-0.00525195
0.0102599
-0.0116927
-0.00639162
-0.0121405
-0.00571463
-0.0125612
-0.00515908
-0.012937
-0.00407843
-0.0133005
-0.00307312
-0.01363
-0.00201951
-0.0139381
-0.0011334
-0.0142201
-0.00042817
-1.87913e-05
-0.0497981
-0.00506764
0.0496138
-0.0510288
-0.00516089
-0.0523454
-0.00439807
-0.0536546
-0.00384992
-0.054743
-0.00299001
-0.0555909
-0.00222518
-0.0561651
-0.00144533
-0.0564888
-0.000809719
-0.0566095
-0.000307492
-2.31354e-05
-0.0589223
-0.00503312
0.0588877
-0.0596886
-0.00439453
-0.0604339
-0.00365281
-0.0612598
-0.003024
-0.0619392
-0.00231057
-0.0624719
-0.00169255
-0.0628228
-0.00109436
-0.063009
-0.000623514
-0.0630695
-0.000247075
-2.8578e-05
-0.0701893
-0.00511297
0.0702692
-0.0705602
-0.00402366
-0.0709493
-0.00326366
-0.0714411
-0.00253225
-0.0718313
-0.0019204
-0.0721601
-0.00136376
-0.072359
-0.000895464
-0.0724652
-0.000517231
-0.0724874
-0.000224934
-3.16219e-05
-0.0841501
-0.00515999
0.0841971
-0.0843769
-0.00379677
-0.0845902
-0.00305036
-0.0849006
-0.00222189
-0.0851252
-0.00169584
-0.0853382
-0.00115077
-0.0854519
-0.000781699
-0.0855243
-0.000444865
-0.0855328
-0.000216403
-2.94538e-05
-0.10083
-0.00498785
0.100658
-0.101085
-0.0035415
-0.10129
-0.00284576
-0.101545
-0.00196672
-0.101719
-0.00152246
-0.101893
-0.00097598
-0.101986
-0.000688991
-0.102064
-0.000366575
-0.102087
-0.000193876
-1.51439e-05
-0.119156
-0.00450397
0.118673
-0.119559
-0.00313897
-0.119879
-0.00252534
-0.120167
-0.0016796
-0.120374
-0.0013148
-0.120558
-0.000791959
-0.120675
-0.00057259
-0.12078
-0.000260812
-0.120831
-0.000143044
7.85777e-06
-0.137077
-0.00368882
0.136262
-0.137673
-0.0025435
-0.138155
-0.00204315
-0.138511
-0.00132399
-0.138786
-0.00103927
-0.138991
-0.000587229
-0.139142
-0.000421343
-0.139259
-0.000144152
-0.139326
-7.54762e-05
2.92767e-05
-0.152235
-0.0026038
0.15115
-0.152999
-0.00177906
-0.153618
-0.00142481
-0.154034
-0.000907775
-0.154363
-0.000710451
-0.154572
-0.00037788
-0.154732
-0.000261612
-0.154823
-5.27432e-05
-0.154878
-2.0835e-05
3.54275e-05
-0.162904
-0.00134457
0.161645
-0.163774
-0.000909031
-0.164471
-0.00072723
-0.164921
-0.000458064
-0.165273
-0.000358234
-0.165469
-0.00018208
-0.165609
-0.000121511
-0.165654
-8.25966e-06
-0.165675
7.06289e-07
2.37333e-05
-0.16834
0.166996
-0.169249
-0.169977
-0.170435
-0.170793
-0.170975
-0.171096
-0.171105
-0.171104
-0.0114407
0.0506168
0.0104378
-0.0121651
0.0596121
-0.0127539
0.070858
-0.0130674
0.0845105
-0.0128827
0.100473
-0.0119381
0.117728
-0.0100672
0.134391
-0.00729635
0.148379
-0.00383639
0.158185
0.163159
-0.0108549
0.0513734
0.0100983
-0.0115305
0.0602877
-0.0120502
0.0713778
-0.0122777
0.084738
-0.0120188
0.100214
-0.0110527
0.116762
-0.0092548
0.132594
-0.00666984
0.145794
-0.00349375
0.155008
0.159666
-0.010298
0.0520721
0.00959926
-0.0109088
0.0608986
-0.0113503
0.0718192
-0.0115022
0.0848899
-0.0111929
0.099905
-0.0102347
0.115804
-0.00852935
0.130888
-0.00612598
0.143391
-0.0032022
0.152085
0.156463
-0.00964831
0.052747
0.00897344
-0.0101984
0.0614487
-0.0105584
0.0721792
-0.0106369
0.0849683
-0.0102863
0.0995545
-0.00935058
0.114868
-0.00775492
0.129293
-0.00555025
0.141186
-0.002895
0.149429
0.153568
-0.0088899
0.0533893
0.00824756
-0.00938193
0.0619407
-0.00966856
0.0724658
-0.00968545
0.0849852
-0.00930955
0.0991786
-0.00841408
0.113973
-0.00694452
0.127823
-0.00495216
0.139194
-0.00257697
0.147054
0.150991
-0.00804174
0.0539889
0.0074421
-0.00846897
0.062368
-0.00868599
0.0726829
-0.00865231
0.0849515
-0.00826711
0.0987934
-0.0074302
0.113136
-0.00610352
0.126496
-0.00433655
0.137427
-0.00225102
0.144969
0.14874
-0.00712174
0.0545371
0.00657355
-0.0074793
0.0627255
-0.00762816
0.0728317
-0.00755192
0.0848753
-0.00717031
0.0984118
-0.00640733
0.112373
-0.00523789
0.125327
-0.00370751
0.135896
-0.00191932
0.143181
0.146821
-0.00614457
0.0550233
0.00565841
-0.00643143
0.0630124
-0.00651462
0.0729149
-0.00640288
0.0847635
-0.00603519
0.0980441
-0.00535789
0.111695
-0.00435623
0.124325
-0.00307025
0.13461
-0.00158437
0.141695
0.145237
-0.00512657
0.0554356
0.00471428
-0.00534388
0.0632297
-0.00536437
0.0729354
-0.00522379
0.0846229
-0.00487831
0.0976986
-0.00429532
0.111112
-0.00346827
0.123498
-0.00243085
0.133573
-0.0012491
0.140513
0.143988
-0.0040853
0.0557613
0.00375963
-0.00423668
0.0633811
-0.00419632
0.072895
-0.00403276
0.0844594
-0.00371545
0.0973813
-0.00323253
0.110629
-0.00258363
0.122849
-0.00179554
0.132785
-0.000916599
0.139634
0.143071
-0.00304898
0.0559927
0.00281756
-0.00313469
0.0634668
-0.00303411
0.0727945
-0.00285142
0.0842767
-0.00256506
0.0970949
-0.00218457
0.110249
-0.00171368
0.122378
-0.00117169
0.132243
-0.000590615
0.139053
0.14248
-0.00203799
0.0561321
0.00189856
-0.00205271
0.0634815
-0.00189791
0.0726397
-0.00169619
0.084075
-0.0014417
0.0968404
-0.00116149
0.109969
-0.000864946
0.122082
-0.000564759
0.131943
-0.000273608
0.138762
0.142207
-0.00108356
0.0561942
0.00102151
-0.00101662
0.0634146
-0.000819494
0.0724425
-0.000597949
0.0838534
-0.000378008
0.0966205
-0.000195358
0.109786
-6.77719e-05
0.121954
-2.61008e-06
0.131878
2.16253e-05
0.138738
0.142228
-0.00022004
0.0562224
0.000191755
-6.0246e-05
0.0632548
0.000177458
0.0722048
0.000440816
0.0835901
0.000643469
0.0964178
0.000743929
0.109686
0.000718228
0.12198
0.000567504
0.132028
0.000316181
0.138989
0.142545
0.000629791
0.0561696
-0.000576962
0.000873207
0.0630113
0.00115973
0.0719183
0.00143381
0.083316
0.00160983
0.0962418
0.00162573
0.10967
0.00145069
0.122155
0.00109098
0.132388
0.000588563
0.139491
0.143133
0.00140696
0.0560508
-0.00128815
0.00171583
0.0627025
0.00204184
0.0715923
0.0023369
0.0830209
0.00249399
0.0960847
0.00243665
0.109727
0.00212621
0.122465
0.00157428
0.13294
0.00083919
0.140226
0.143972
0.0020959
0.0558982
-0.00194333
0.00247073
0.0623276
0.00283178
0.0712313
0.00314837
0.0827043
0.00329303
0.0959401
0.00317404
0.109846
0.0027432
0.122896
0.00201648
0.133667
0.00106775
0.141175
0.14504
0.00270614
0.0557436
-0.00255149
0.00313642
0.0618974
0.00352558
0.0708421
0.00385918
0.0823707
0.00399376
0.0958055
0.00382243
0.110017
0.00328677
0.123432
0.00240586
0.134548
0.00126773
0.142313
0.146308
0.00325463
0.0556185
-0.0031295
0.00372379
0.0614282
0.00414026
0.0704256
0.00449149
0.0820195
0.00462296
0.095674
0.00440971
0.110231
0.00378122
0.12406
0.0027596
0.135569
0.00144806
0.143625
0.147756
0.00365887
0.0556327
-0.00367307
0.00412524
0.0609618
0.00456665
0.0699842
0.00492613
0.08166
0.00505474
0.0955454
0.00481551
0.11047
0.00412571
0.12475
0.00300633
0.136689
0.00157052
0.145061
0.149326
-0.0368723
0.0512325
0.0412725
-0.033458
0.0575476
-0.0312004
0.0677266
-0.0288175
0.0792771
-0.0259589
0.0926868
-0.0222973
0.106808
-0.0177095
0.120162
-0.0122951
0.131274
-0.00629106
0.139057
0.143035
-0.0451268
0.047409
0.0489502
-0.0420041
0.0544248
-0.0391753
0.0648978
-0.035938
0.0760398
-0.0321683
0.0889171
-0.0274512
0.102091
-0.021697
0.114408
-0.0150284
0.124606
-0.00771342
0.131742
0.135322
-0.0544583
0.0437839
0.0580834
-0.0512728
0.0512393
-0.0477922
0.0614172
-0.043692
0.0719395
-0.0388362
0.0840614
-0.0328242
0.0960793
-0.0257149
0.107299
-0.0176665
0.116557
-0.00895351
0.123029
0.126368
-0.0656951
0.0403128
0.0691662
-0.0620181
0.0475623
-0.0577176
0.0571167
-0.0526361
0.0668581
-0.0465224
0.0779477
-0.0390361
0.0885929
-0.0303936
0.0986563
-0.0208034
0.106967
-0.010607
0.112832
0.115761
-0.0782503
0.0362895
0.0822736
-0.0737574
0.0430694
-0.0683843
0.0517436
-0.0619237
0.0603975
-0.0541135
0.0701375
-0.0448212
0.0793006
-0.0344314
0.0882665
-0.0231766
0.0957122
-0.0115051
0.101161
0.104256
-0.0926824
0.0322559
0.096716
-0.0870679
0.0374549
-0.0804152
0.0450908
-0.0723468
0.0523291
-0.0627556
0.0605462
-0.0517082
0.0682533
-0.039533
0.0760912
-0.026531
0.0827102
-0.0134274
0.088057
0.090829
-0.10643
0.0263594
0.112326
-0.0996025
0.0306277
-0.091368
0.0368563
-0.0812273
0.0421885
-0.0695083
0.0488272
-0.0562208
0.0549658
-0.0417164
0.0615869
-0.026514
0.0675078
-0.0118737
0.0734167
0.0789553
-0.121024
0.0205754
0.126808
-0.113052
0.0226557
-0.103437
0.0272418
-0.0919533
0.0307044
-0.0789526
0.0358264
-0.0642435
0.0402566
-0.0483567
0.0457001
-0.031858
0.0510091
-0.0168005
0.0583591
0.0621548
-0.135231
0.0100039
0.145803
-0.123975
0.0113993
-0.110614
0.013881
-0.0956267
0.0157172
-0.0784341
0.0186338
-0.0593882
0.0212107
-0.0384261
0.024738
-0.0164761
0.0290592
0.00391865
0.0379644
0.0660734
-0.238677
0.248681
-0.227278
-0.213397
-0.197679
-0.179046
-0.157835
-0.133097
-0.104038
-0.0660734
0.00194049
0.0427301
-0.0033981
0.000637862
0.0502529
-0.000349995
0.0590713
-0.00102459
0.0698408
-0.00143483
0.0826839
-0.00158245
0.0968636
-0.00135705
0.112101
-0.00101692
0.126468
-0.00170591
0.146492
0.246975
0.00229011
0.0441473
-0.00370731
0.00101737
0.0515256
-1.2337e-05
0.060101
-0.000698804
0.0705273
-0.00115024
0.0831353
-0.00132926
0.0970427
-0.00118244
0.111954
-0.000892892
0.126178
-0.00150553
0.147104
0.245469
0.00271131
0.0454643
-0.00402834
0.00147741
0.0527595
0.000500017
0.0610784
-0.000247068
0.0712744
-0.000711666
0.0835999
-0.000931999
0.097263
-0.000851951
0.111874
-0.00066959
0.125996
-0.00130407
0.147739
0.244165
0.00313513
0.0466826
-0.0043534
0.00194627
0.0539484
0.00100135
0.0620233
0.000256167
0.0720196
-0.000214439
0.0840705
-0.000477854
0.0975264
-0.000443507
0.11184
-0.000393645
0.125946
-0.00104536
0.148391
0.24312
0.003553
0.0477991
-0.00466948
0.00242767
0.0550737
0.0015247
0.0629263
0.000817659
0.0727266
0.000336261
0.0845519
-6.14216e-06
0.0978688
2.97866e-05
0.111804
-8.21886e-05
0.126058
-0.000741017
0.149049
0.242379
0.00397869
0.0487863
-0.00496594
0.00293907
0.0561133
0.0020862
0.0637791
0.00141609
0.0733967
0.000945052
0.0850229
0.000622439
0.0981914
0.00051733
0.111909
0.000341663
0.126234
-0.00039599
0.149787
0.241983
0.0044113
0.0496104
-0.00523537
0.00347863
0.057046
0.0026855
0.0645723
0.00205759
0.0740246
0.00159751
0.085483
0.00126006
0.0985289
0.00106965
0.112099
0.000800501
0.126503
1.53577e-06
0.150586
0.241984
0.00484511
0.0502365
-0.00547119
0.00403685
0.0578543
0.00331366
0.0652954
0.00273448
0.0746038
0.00228893
0.0859286
0.00193501
0.0988828
0.00166462
0.11237
0.00128827
0.126879
0.000370758
0.151504
0.242355
0.00527175
0.0506307
-0.00566594
0.00460296
0.0585231
0.00396003
0.0659384
0.00343606
0.0751278
0.00301133
0.0863533
0.00264158
0.0992526
0.0022929
0.112718
0.00180612
0.127366
0.000785934
0.152524
0.243141
0.00567858
0.0507634
-0.00581129
0.00516495
0.0590367
0.0046134
0.0664899
0.00415106
0.0755901
0.00375463
0.0867497
0.00336963
0.0996375
0.0029461
0.113142
0.00234872
0.127963
0.00122225
0.15365
0.244363
0.00604758
0.0506121
-0.00589632
0.00570555
0.0593787
0.00525833
0.0669371
0.00486325
0.0759852
0.00450144
0.0871115
0.0041049
0.100034
0.00361197
0.113635
0.00290625
0.128669
0.00167016
0.154886
0.246034
0.00637076
0.0501647
-0.00592331
0.00621733
0.0595321
0.0058866
0.0672679
0.0055651
0.0763067
0.00524385
0.0874328
0.00484148
0.100436
0.00428497
0.114191
0.00347446
0.12948
0.00212665
0.156234
0.24816
0.00663051
0.0494233
-0.00588911
0.00668204
0.0594806
0.00647815
0.0674718
0.0062372
0.0765476
0.00596308
0.0877069
0.00556306
0.100836
0.00495094
0.114803
0.00404258
0.130388
0.00258459
0.157692
0.250745
0.00681554
0.0484063
-0.00579853
0.00708492
0.0592112
0.00701731
0.0675394
0.00686378
0.0767012
0.00664391
0.0879268
0.00625586
0.101225
0.00559814
0.115461
0.00460177
0.131384
0.00303747
0.159256
0.253782
0.00691805
0.0471499
-0.00566167
0.00741327
0.058716
0.0074897
0.0674629
0.00742978
0.0767611
0.00727193
0.0880846
0.00690628
0.10159
0.00621533
0.116152
0.00514352
0.132456
0.00347934
0.160921
0.257262
0.00693592
0.0457083
-0.00549436
0.00765745
0.0579945
0.00788266
0.0672377
0.00792153
0.0767222
0.00783367
0.0881725
0.00750074
0.101923
0.00679082
0.116862
0.00565878
0.133588
0.00390185
0.162677
0.261163
0.00687579
0.0441488
-0.00531622
0.00781186
0.0570584
0.00818617
0.0668634
0.00832822
0.0765802
0.00831747
0.0881832
0.00802917
0.102211
0.0073168
0.117574
0.00614205
0.134763
0.00430076
0.164519
0.265464
0.00675332
0.0425381
-0.00514264
0.00787461
0.0559371
0.00839398
0.066344
0.00863911
0.0763351
0.00870857
0.0881138
0.00847436
0.102446
0.00777569
0.118273
0.00658025
0.135958
0.0046626
0.166436
0.270127
0.00657066
0.0409224
-0.00495492
0.00784459
0.0546632
0.00851323
0.0656754
0.00886541
0.0759829
0.00902096
0.0879582
0.00885244
0.102614
0.0081815
0.118944
0.00698418
0.137156
0.00499354
0.168427
0.27512
0.00629536
0.03926
-0.00463299
0.00763789
0.0533207
0.00845095
0.0648623
0.00890652
0.0755273
0.00915415
0.0877106
0.00906268
0.102706
0.00845481
0.119552
0.00727939
0.138331
0.00528742
0.170419
0.280408
-0.0176195
0.0390911
0.0177884
-0.0156566
0.0513578
-0.0130042
0.0622099
-0.0100105
0.0725336
-0.00693497
0.0846351
-0.00365353
0.0994242
-0.000261128
0.116159
0.00226377
0.135806
0.00175714
0.170926
0.282165
-0.030763
0.0375918
0.0322624
-0.0279447
0.0485395
-0.0240304
0.0582955
-0.0196185
0.0681217
-0.0149884
0.080005
-0.0099628
0.0943986
-0.00477178
0.110968
-0.000569751
0.131604
0.000443596
0.169912
0.282609
-0.0450973
0.035259
0.0474301
-0.0411536
0.0445958
-0.0358655
0.0530074
-0.0300724
0.0623286
-0.0238767
0.0738093
-0.0169739
0.0874958
-0.00972978
0.103724
-0.00353124
0.125406
-0.000873283
0.167254
0.281735
-0.0606962
0.0320486
0.0639065
-0.0553495
0.0392491
-0.0488903
0.0465482
-0.0418332
0.0552715
-0.0339326
0.0659087
-0.0249544
0.0785176
-0.0155218
0.0942917
-0.00720126
0.117085
-0.00252567
0.162579
0.27921
-0.0778041
0.027455
0.0823978
-0.071264
0.0327089
-0.0639881
0.0392723
-0.0555425
0.0468259
-0.0457444
0.0561106
-0.0346355
0.0674086
-0.0229634
0.0826197
-0.0122655
0.106387
-0.00491965
0.155233
0.27429
-0.0970996
0.0222982
0.102256
-0.0896868
0.0252961
-0.0814182
0.0310037
-0.0713488
0.0367565
-0.0597686
0.0445304
-0.0467258
0.0543658
-0.0330376
0.0689314
-0.0199048
0.0932545
-0.00927329
0.144601
0.265017
-0.119261
0.0154372
0.126122
-0.111393
0.0174284
-0.102329
0.0219393
-0.09132
0.0257477
-0.078899
0.0321094
-0.0646711
0.0401379
-0.0494707
0.0537311
-0.0337908
0.0775745
-0.0181859
0.128996
0.246831
-0.150049
0.00839028
0.157096
-0.141734
0.00911329
-0.131957
0.0121626
-0.120615
0.0144051
-0.107713
0.0192076
-0.093047
0.0254719
-0.0768757
0.0375597
-0.0590034
0.0597022
-0.0362125
0.106206
0.210618
-0.206782
0.0021742
0.212998
-0.200329
0.00266059
-0.192178
0.0040118
-0.183191
0.00541784
-0.172203
0.00822002
-0.159201
0.0124696
-0.142216
0.0205751
-0.117755
0.0352413
-0.0761288
0.0645789
0.134489
-0.287665
0.289839
-0.285004
-0.280992
-0.275574
-0.267354
-0.254885
-0.23431
-0.199068
-0.134489
0.00217909
0.0186365
-0.00302724
0.000612165
0.0338293
-0.000993069
0.0490354
-0.0024264
0.0653399
-0.00358899
0.0835604
-0.00454713
0.103215
-0.00514809
0.126723
-0.00558934
0.157537
-0.00455805
0.211966
0.285281
0.00192245
0.0191497
-0.00243563
0.000656489
0.0350952
-0.000807198
0.050499
-0.00218638
0.066719
-0.0033417
0.0847157
-0.00428684
0.10416
-0.00490398
0.12734
-0.00536287
0.157996
-0.00427627
0.21088
0.281004
0.0017678
0.0193958
-0.00201394
0.000790833
0.0360722
-0.000496938
0.0517868
-0.00176398
0.0679861
-0.00286589
0.0858176
-0.00378172
0.105076
-0.00442728
0.127986
-0.00485979
0.158429
-0.00390853
0.209929
0.277096
0.00169576
0.0194154
-0.00171533
0.000994043
0.0367739
-0.000120721
0.0529016
-0.00125201
0.0691174
-0.00227824
0.0868438
-0.00316979
0.105967
-0.00383363
0.128649
-0.00428423
0.158879
-0.00348746
0.209132
0.273608
0.001701
0.0192212
-0.00150676
0.00127649
0.0371984
0.000377211
0.0538009
-0.000655457
0.07015
-0.0016036
0.087792
-0.00246949
0.106833
-0.00315583
0.129336
-0.00364411
0.159368
-0.00301999
0.208508
0.270589
0.00177999
0.0188134
-0.00137218
0.0016415
0.0373369
0.000964817
0.0544775
9.66491e-06
0.0711052
-0.000829036
0.0886307
-0.00167743
0.107681
-0.00239198
0.13005
-0.00293847
0.159914
-0.00251321
0.208082
0.268075
0.00192495
0.0181919
-0.00130348
0.00208233
0.0371796
0.00163701
0.0549229
0.000875667
0.0718665
4.68327e-05
0.0894595
-0.000798967
0.108527
-0.00153683
0.130788
-0.00217096
0.160548
-0.00197336
0.207885
0.266102
0.00212528
0.0173633
-0.00129668
0.00258749
0.0367173
0.00238258
0.0551278
0.00177799
0.0724711
0.00101942
0.0902181
0.000152414
0.109394
-0.000588227
0.131529
-0.00135334
0.161313
-0.00140497
0.207936
0.264697
0.00236907
0.0163457
-0.00135146
0.00314147
0.0359449
0.00318678
0.0550825
0.00274367
0.0729142
0.00205952
0.0909022
0.00124351
0.11021
0.000414915
0.132357
-0.000506281
0.162235
-0.000810068
0.20824
0.263887
0.00264472
-0.00147158
0.00372539
0.00403451
0.00376034
0.00315512
0.00235003
0.00143497
0.000402317
-0.00018275
0.000178076
-0.00136799
0.000517597
-0.00316761
0.000949664
-0.00436592
0.0014356
-0.00511752
0.00195469
-0.00553742
0.00249753
-0.00571346
0.00306205
-0.00571316
0.00365191
-0.00558805
0.00427833
-0.00537812
-0.00511882
0.000181808
-0.0015498
0.000515406
-0.00350121
0.000927241
-0.00477776
0.00137775
-0.00556803
0.00184733
-0.006007
0.00232857
-0.00619471
0.0028214
-0.00620599
0.00333033
-0.00609697
0.00386287
-0.00591066
-0.00568337
0.000177037
-0.00172683
0.000487153
-0.00381133
0.000855275
-0.00514588
0.00124319
-0.00595594
0.00163412
-0.00639793
0.002024
-0.00658458
0.00241591
-0.00659791
0.00281663
-0.00649769
0.00323386
-0.00632789
-0.00612306
0.000162887
-0.00188972
0.000431421
-0.00407986
0.000732888
-0.00544735
0.00103295
-0.00625601
0.00131926
-0.00668424
0.001592
-0.00685731
0.00185789
-0.0068638
0.00212642
-0.00676623
0.00240727
-0.00660874
-0.00642469
0.000138978
-0.0020287
0.000348393
-0.00428928
0.000562355
-0.00566131
0.00075301
-0.00644666
0.000913799
-0.00684503
0.00104964
-0.00699315
0.0011708
-0.00698496
0.00128914
-0.00688457
0.00141584
-0.00673544
-0.0065713
0.000105479
-0.00213418
0.000239886
-0.00442369
0.000348904
-0.00577033
0.000413601
-0.00651136
0.000434177
-0.00686561
0.000420295
-0.00697927
0.000385229
-0.0069499
0.000342543
-0.00684188
0.000303944
-0.00669684
-0.00654244
6.31462e-05
-0.00219732
0.000109225
-0.00446976
0.000100235
-0.00576134
2.81281e-05
-0.00643925
-9.96631e-05
-0.00673782
-0.000269144
-0.00680979
-0.000464907
-0.00675413
-0.00067298
-0.00663381
-0.000882069
-0.00648775
-0.00634257
1.32597e-05
-0.00221058
-3.88788e-05
-0.00441763
-0.000174143
-0.00562608
-0.000388073
-0.00622532
-0.000666152
-0.00645974
-0.000990877
-0.00648506
-0.00134578
-0.00639923
-0.00171737
-0.00626221
-0.00209549
-0.00610962
-0.00596476
-4.26782e-05
-0.00216791
-0.000199098
-0.00426121
-0.000463721
-0.00536145
-0.000819003
-0.00587004
-0.00124378
-0.00603497
-0.001718
-0.00601084