/*--------------------------------*- C++ -*----------------------------------*\
  =========                 |
  \\      /  F ield         | OpenFOAM: The Open Source CFD Toolbox
   \\    /   O peration     | Website:  https://openfoam.org
    \\  /    A nd           | Version:  7
     \\/     M anipulation  |
\*---------------------------------------------------------------------------*/
FoamFile
{
    version     2.0;
    format      ascii;
    class       volVectorField;
    location    "86";
    object      U;
}
// * * * * * * * * * * * * * * * * * * * * * * * * * * * * * * * * * * * * * //

dimensions      [0 1 -1 0 0 0 0];

internalField   nonuniform List<vector> 
2000
(
(-0.000126805 -0.00509971 -2.18489e-22)
(-9.07444e-06 -0.0120444 0)
(0.000504412 -0.0159985 0)
(0.00136169 -0.0174018 -1.11858e-21)
(0.00251131 -0.0165331 3.63478e-22)
(0.00392782 -0.0135773 1.42584e-23)
(0.00560805 -0.00866776 -6.25696e-22)
(0.00755291 -0.00192619 0)
(0.00975317 0.00650659 0)
(0.0120852 0.0164527 0)
(0.000358295 -0.00493596 0)
(0.00135507 -0.0120691 -8.5338e-22)
(0.00263724 -0.0162715 7.86987e-22)
(0.00401703 -0.0179544 1.49433e-21)
(0.00545235 -0.0174044 0)
(0.00693016 -0.0148243 1.3655e-21)
(0.00846555 -0.0103562 -1.26982e-21)
(0.0100852 -0.00410936 0)
(0.0118214 0.00381616 2.33301e-21)
(0.0135643 0.0133031 -4.49156e-21)
(0.00088559 -0.00485569 0)
(0.00292189 -0.0121913 6.81196e-21)
(0.00516405 -0.0165894 0)
(0.00724752 -0.0184829 6.08803e-21)
(0.00913892 -0.0181791 0)
(0.0108376 -0.0159096 -5.49067e-21)
(0.0123759 -0.0118352 0)
(0.0138046 -0.0060615 4.98232e-21)
(0.0151983 0.00134643 -4.66624e-21)
(0.0164579 0.010324 -4.57359e-21)
(0.00148845 -0.0048835 -1.77131e-21)
(0.00473623 -0.0124378 -3.40193e-21)
(0.00811451 -0.0169652 -1.59255e-21)
(0.0110625 -0.018982 -2.99099e-21)
(0.01356 -0.0188303 -2.86063e-21)
(0.0156239 -0.0167801 2.70223e-21)
(0.0173068 -0.0130197 2.59281e-21)
(0.018683 -0.00766131 -2.64812e-23)
(0.0198683 -0.000743211 4.70876e-21)
(0.0207751 0.0077097 4.57147e-21)
(0.00220447 -0.00503442 -1.74038e-21)
(0.00684249 -0.0128196 -3.46795e-21)
(0.0115065 -0.0173986 -6.58334e-21)
(0.0154437 -0.0194416 3.02938e-21)
(0.0186595 -0.0193382 0)
(0.0211982 -0.017404 0)
(0.0231406 -0.0138614 -5.32242e-21)
(0.0245868 -0.00883732 -5.04909e-21)
(0.0256917 -0.00235144 4.76572e-21)
(0.0263834 0.00559635 1.37524e-20)
(0.00307262 -0.00530952 1.76848e-21)
(0.00927796 -0.013325 1.80024e-21)
(0.0153378 -0.0178727 -9.76013e-21)
(0.0203383 -0.019845 1.55056e-20)
(0.0243291 -0.0196912 -2.89106e-21)
(0.0273981 -0.0177764 0)
(0.0296653 -0.0143599 0)
(0.0312639 -0.00958755 2.51354e-20)
(0.0323856 -0.00346581 -2.37847e-20)
(0.0329786 0.00401925 4.51819e-21)
(0.0041281 -0.00569297 1.37781e-20)
(0.0120652 -0.0139186 0)
(0.0195791 -0.0183523 1.30461e-20)
(0.0256536 -0.0201687 -1.23761e-20)
(0.0304079 -0.0198856 0)
(0.0339926 -0.0179188 5.62454e-21)
(0.036582 -0.0145637 -1.57697e-20)
(0.0383532 -0.00998636 -2.00742e-20)
(0.0395346 -0.00418007 9.41911e-21)
(0.0400944 0.0028842 9.13989e-21)
(0.00539704 -0.00615211 -2.75456e-20)
(0.0152043 -0.0145425 -3.50869e-21)
(0.0241686 -0.0187863 -6.60729e-21)
(0.0312569 -0.0203832 -1.55406e-20)
(0.036688 -0.0199242 -5.94861e-21)
(0.040697 -0.0178738 -5.61257e-21)
(0.0435289 -0.0145612 5.1482e-23)
(0.0454179 -0.0101718 0)
(0.0466352 -0.00468401 0)
(0.0471653 0.00196927 4.3982e-23)
(0.00689135 -0.00663973 1.37677e-20)
(0.0186659 -0.0151207 -1.39782e-20)
(0.0290086 -0.0191126 9.82749e-21)
(0.0369785 -0.0204567 2.1872e-20)
(0.0429278 -0.0198165 -5.83391e-21)
(0.0471985 -0.0176982 5.61599e-21)
(0.0501202 -0.0144599 5.29114e-21)
(0.0519959 -0.0103084 0)
(0.0531553 -0.00521091 0)
(0.0536111 0.000965344 -2.19029e-22)
(0.00860514 -0.00709874 -1.7312e-21)
(0.0223865 -0.015567 1.75383e-20)
(0.0339655 -0.019266 -3.28078e-21)
(0.0426197 -0.0203621 0)
(0.0488714 -0.019581 0)
(0.0531905 -0.0174573 1.11e-20)
(0.0560012 -0.0143666 0)
(0.0576773 -0.010539 -9.73347e-21)
(0.0586139 -0.00595769 1.77692e-23)
(0.0588934 -0.000453302 8.71051e-21)
(0.0168738 0.0415274 1.71385e-22)
(0.02902 0.0977535 -1.73317e-22)
(0.0372911 0.155723 -1.94737e-22)
(0.0387696 0.209229 -2.19603e-22)
(0.0347043 0.262118 -2.67732e-22)
(0.0307982 0.318231 -9.6137e-24)
(0.0197336 0.382032 1.40345e-22)
(0.0167859 0.467952 5.02357e-22)
(-0.00221695 0.597815 0)
(0.00493828 0.753551 -3.66742e-22)
(0.0164526 0.0375647 6.62891e-22)
(0.0263155 0.0930194 -7.43998e-22)
(0.0347695 0.153025 1.32794e-21)
(0.0367066 0.208446 2.19964e-22)
(0.033078 0.262556 4.74435e-22)
(0.0295022 0.319465 8.15036e-22)
(0.0189313 0.383803 -3.03702e-22)
(0.0160858 0.470089 -3.37119e-22)
(-0.00210921 0.59937 6.53351e-22)
(0.00453346 0.753546 3.65875e-22)
(0.0175119 0.0335495 0)
(0.0243178 0.0874623 -7.23064e-22)
(0.0326199 0.149198 -3.84301e-22)
(0.0349154 0.206631 0)
(0.0316682 0.262088 -1.46088e-21)
(0.0283988 0.319884 4.5702e-22)
(0.0182641 0.384794 5.11533e-22)
(0.0154786 0.471411 1.81874e-21)
(-0.00197071 0.600452 -6.51234e-22)
(0.00417255 0.753363 1.32146e-21)
(0.0201652 0.0297101 0)
(0.0231694 0.0813118 7.29126e-22)
(0.0308585 0.144278 0)
(0.0333848 0.20377 1.70826e-21)
(0.03046 0.260706 -1.71713e-21)
(0.0274713 0.319487 -1.03711e-21)
(0.0177177 0.384984 -6.10209e-23)
(0.0149724 0.471887 -1.78172e-21)
(-0.00180391 0.600849 -2.90748e-22)
(0.0038355 0.752826 -1.62482e-21)
(0.0243794 0.0262409 3.68021e-23)
(0.0230355 0.0748552 -2.08726e-21)
(0.0295145 0.138349 6.02283e-23)
(0.0321056 0.199867 -1.53955e-21)
(0.0294377 0.258413 0)
(0.0267012 0.3183 -9.92076e-22)
(0.0172751 0.384456 -8.27446e-23)
(0.0145496 0.471727 2.23779e-21)
(-0.00163065 0.600912 2.94834e-22)
(0.00352411 0.75224 -2.95915e-22)
(0.0299094 0.0232587 -5.6408e-21)
(0.0240511 0.0684036 3.57226e-21)
(0.0286352 0.131553 1.51101e-21)
(0.0310719 0.194949 -1.51028e-21)
(0.0285881 0.255204 -8.16563e-22)
(0.0260777 0.316291 0)
(0.0169363 0.383105 -1.98479e-21)
(0.0142222 0.470637 9.95108e-22)
(-0.00143977 0.600043 1.08117e-21)
(0.00321801 0.751187 1.12848e-21)
(0.0362716 0.0207847 -6.77479e-22)
(0.0262356 0.0622563 0)
(0.028278 0.124097 0)
(0.0302818 0.189066 0)
(0.0278922 0.251133 -8.68584e-22)
(0.0255783 0.313625 1.68257e-21)
(0.0166734 0.381291 1.93578e-21)
(0.0139411 0.469336 -3.01769e-21)
(-0.0012739 0.599357 5.31988e-22)
(0.00293875 0.75037 -1.64453e-21)
(0.0427668 0.0187225 4.24197e-21)
(0.029389 0.0565581 2.91359e-21)
(0.0284741 0.116222 -2.88703e-21)
(0.0297387 0.182312 3.05298e-21)
(0.0273485 0.246075 -3.78977e-21)
(0.0252067 0.309911 0)
(0.016516 0.378271 -8.72528e-22)
(0.013776 0.466494 4.32317e-23)
(-0.00107146 0.597003 -9.58735e-22)
(0.00264627 0.748755 -1.01607e-21)
(0.0485033 0.0166766 -3.59674e-21)
(0.0330186 0.0509297 0)
(0.0291864 0.10776 -3.24858e-21)
(0.0294085 0.174797 5.83973e-21)
(0.0269172 0.240697 -2.17175e-21)
(0.0249133 0.306435 -3.96995e-22)
(0.0163741 0.37598 8.70638e-22)
(0.013562 0.464997 1.04946e-23)
(-0.000967087 0.59633 1.38657e-21)
(0.00239167 0.747978 1.47485e-21)
(0.0523711 0.0144943 -2.91747e-21)
(0.0363689 0.0453459 2.85325e-21)
(0.0303426 0.098305 3.61456e-22)
(0.029395 0.164791 0)
(0.0266088 0.231964 0)
(0.0247756 0.29932 3.90773e-22)
(0.016448 0.36977 1.64944e-21)
(0.0136374 0.459044 -1.60241e-21)
(-0.000711896 0.591574 -4.31685e-22)
(0.00209518 0.745592 4.17504e-22)
(0.0542027 0.0157711 0)
(0.0407364 0.043376 0)
(0.0325271 0.0919421 0)
(0.0301254 0.159321 0)
(0.0266024 0.229667 0)
(0.0239505 0.299776 0)
(0.0157484 0.371888 0)
(0.0126099 0.462473 0)
(-0.000952013 0.594206 0)
(0.00154555 0.745028 0)
(0.055644 0.0309436 0)
(0.0441533 0.0615619 0)
(0.0336924 0.104197 0)
(0.0293094 0.165427 0)
(0.0256664 0.234127 0)
(0.0227154 0.304773 0)
(0.0150249 0.378411 0)
(0.0115113 0.470343 0)
(-0.0008541 0.600523 0)
(0.0010705 0.745444 0)
(0.0526604 0.0353059 0)
(0.0451223 0.070467 0)
(0.0350276 0.112895 0)
(0.0289624 0.171628 0)
(0.0246417 0.239432 0)
(0.0213338 0.310051 0)
(0.0141745 0.384243 0)
(0.0104752 0.476427 0)
(-0.000793772 0.605035 0)
(0.000714432 0.745204 0)
(0.0476948 0.0378736 0)
(0.0434059 0.0771799 0)
(0.0351257 0.12008 0)
(0.0286807 0.177123 0)
(0.0238927 0.244576 0)
(0.0202232 0.315982 0)
(0.0134749 0.391588 0)
(0.00967271 0.484703 0)
(-0.000517419 0.611509 0)
(0.000516977 0.745793 0)
(0.0422072 0.0386444 0)
(0.0402115 0.0822441 0)
(0.0339112 0.126558 0)
(0.0279248 0.182266 0)
(0.0230846 0.248756 0)
(0.0192313 0.32016 0)
(0.0128177 0.396266 0)
(0.00891049 0.489536 0)
(-0.000462847 0.614975 0)
(0.000301313 0.745401 0)
(0.036414 0.0378125 0)
(0.0362624 0.0854529 0)
(0.0316957 0.13191 0)
(0.0265441 0.187389 0)
(0.0221021 0.253641 0)
(0.018356 0.325756 0)
(0.0123577 0.403283 0)
(0.00840059 0.497531 0)
(-0.000145445 0.621111 0)
(0.000215172 0.745864 0)
(0.0305705 0.0355537 0)
(0.0321608 0.0871171 0)
(0.0293091 0.136199 0)
(0.0249899 0.191625 0)
(0.0209311 0.257084 0)
(0.017386 0.328882 0)
(0.0117981 0.406558 0)
(0.00786135 0.500757 0)
(-0.00012931 0.623314 0)
(7.38395e-05 0.745345 0)
(0.0246613 0.0316663 0)
(0.0277565 0.0865845 0)
(0.0264196 0.138735 0)
(0.0232452 0.195723 0)
(0.0198471 0.261932 0)
(0.0165917 0.334775 0)
(0.0114493 0.413935 0)
(0.00752652 0.509067 0)
(0.000255479 0.629537 0)
(7.79611e-05 0.745838 0)
(0.019791 0.028167 0)
(0.0248247 0.086472 0)
(0.0247064 0.141011 0)
(0.0220253 0.198142 0)
(0.0189216 0.263877 0)
(0.0158696 0.336465 0)
(0.0110179 0.415692 0)
(0.00717432 0.510671 0)
(0.000242417 0.630608 0)
(4.90274e-06 0.745442 0)
(0.0133402 0.0164285 0)
(0.0195667 0.0791727 0)
(0.0221559 0.140066 0)
(0.021111 0.201349 0)
(0.0185878 0.268964 0)
(0.0156508 0.343108 0)
(0.0110556 0.424017 0)
(0.00707841 0.519978 0)
(0.000758075 0.637414 0)
(8.03203e-05 0.746079 0)
(0.0612523 0.00522962 2.53892e-21)
(0.0594232 0.0117947 -2.49556e-21)
(0.0538979 0.0126675 2.15529e-22)
(0.0476408 0.0121077 0)
(0.04117 0.0102049 0)
(0.0344613 0.00725895 6.46613e-23)
(0.0277785 0.00336784 -8.10434e-23)
(0.0211912 -0.00174084 7.96406e-23)
(0.0152061 -0.00638647 -1.17984e-23)
(0.00813413 -0.0168098 1.1591e-23)
(0.0622946 0.000899461 -3.36095e-21)
(0.0587052 0.00377345 0)
(0.0524776 0.00293104 1.21391e-21)
(0.0460157 0.00107227 -2.41355e-21)
(0.0394811 -0.00183486 1.19807e-21)
(0.0327463 -0.00551642 -6.32103e-23)
(0.0260354 -0.00995107 5.94869e-23)
(0.0194713 -0.0154104 1.92925e-23)
(0.0132389 -0.0204203 -1.95881e-23)
(0.0066218 -0.0299752 -2.17256e-23)
(0.0625172 -0.0035503 3.78722e-21)
(0.0575329 -0.00392836 -1.75252e-21)
(0.0509218 -0.0064683 1.73568e-21)
(0.044332 -0.00966729 -9.58623e-22)
(0.0377415 -0.0136057 7.51825e-22)
(0.0309783 -0.0180246 0)
(0.0242467 -0.0229631 -5.96229e-23)
(0.0177154 -0.0286417 1.30019e-24)
(0.0113874 -0.0338087 4.92475e-24)
(0.00530997 -0.0421904 3.23663e-23)
(0.0620187 -0.00871897 -5.75966e-22)
(0.0559117 -0.0118666 0)
(0.0491512 -0.0158752 0)
(0.0425305 -0.0202659 0)
(0.0359298 -0.0251122 4.91768e-22)
(0.029174 -0.0301558 -3.03116e-22)
(0.0224564 -0.0354783 2.19732e-23)
(0.0159789 -0.0412165 2.63491e-24)
(0.0097012 -0.0463146 6.23464e-24)
(0.00415386 -0.0534046 1.3864e-23)
(0.0607316 -0.0147024 -3.99131e-22)
(0.0537718 -0.020131 -1.54016e-21)
(0.0470541 -0.0253583 -6.23085e-22)
(0.0404824 -0.0307213 6.22642e-22)
(0.0339457 -0.0362882 -1.86301e-22)
(0.0272666 -0.0417906 0)
(0.0206362 -0.0473361 -6.03992e-23)
(0.0142816 -0.0529665 3.07054e-23)
(0.00819374 -0.0577939 -1.13718e-23)
(0.00319348 -0.0636019 -2.03146e-23)
(0.0587446 -0.0214004 -4.26086e-21)
(0.0512208 -0.0286125 7.07458e-22)
(0.0447043 -0.0348323 1.79515e-22)
(0.0382332 -0.0409316 6.13734e-22)
(0.0318321 -0.0470222 0)
(0.0252936 -0.0528002 0)
(0.0188208 -0.0584006 0)
(0.0126645 -0.063773 2.89654e-23)
(0.00687691 -0.0681801 0)
(0.00242695 -0.0727988 0)
(0.0561329 -0.0286433 0)
(0.048368 -0.0371262 1.21767e-21)
(0.0421687 -0.0441521 -7.84691e-22)
(0.0358601 -0.0507576 -4.50167e-22)
(0.0296513 -0.0571857 4.5248e-22)
(0.0233112 -0.0630652 9.68117e-23)
(0.0170581 -0.0685696 -1.20198e-22)
(0.0111663 -0.0735686 -1.26453e-22)
(0.00575344 -0.0774676 1.01771e-23)
(0.00182967 -0.08104 5.16157e-24)
(0.0529887 -0.0361972 0)
(0.0453093 -0.0454857 -4.33272e-22)
(0.0395095 -0.0531594 -1.75479e-22)
(0.0334224 -0.0600599 0)
(0.0274568 -0.0666627 6.22619e-23)
(0.0213682 -0.072495 -2.2774e-22)
(0.015387 -0.0777833 1.03304e-22)
(0.00981266 -0.0823367 6.12356e-24)
(0.00481434 -0.0856983 -8.82523e-24)
(0.00137323 -0.0883903 -4.78679e-24)
(0.0494369 -0.0438533 5.77327e-22)
(0.0421225 -0.0535278 3.93514e-22)
(0.0367834 -0.0617142 -1.32906e-22)
(0.0309741 -0.0687245 6.88062e-23)
(0.0252949 -0.0753684 9.78731e-23)
(0.0195045 -0.0810382 1.01346e-22)
(0.0138352 -0.0860278 -2.22508e-23)
(0.00861468 -0.0901068 -1.22759e-23)
(0.00404185 -0.0929475 8.8541e-24)
(0.0010301 -0.0949269 7.66838e-25)
(0.0456021 -0.0514388 -1.21651e-22)
(0.0388764 -0.0611304 1.22752e-22)
(0.0340414 -0.069712 -8.89048e-23)
(0.0285643 -0.0766778 -6.87019e-23)
(0.023205 -0.0832587 4.37845e-23)
(0.0177508 -0.088687 -7.92562e-23)
(0.0124194 -0.0933315 3.1337e-23)
(0.00757174 -0.096944 3.12733e-24)
(0.00341322 -0.0993115 0)
(0.000774884 -0.100733 -7.68481e-25)
(0.0416241 -0.0588231 1.24613e-22)
(0.0356467 -0.0682201 -1.25694e-22)
(0.0313391 -0.0770918 -9.36915e-23)
(0.0262436 -0.0838918 -7.32885e-23)
(0.0212221 -0.0903318 -4.60612e-23)
(0.0161304 -0.0954741 6.89147e-24)
(0.0111472 -0.0997572 1.63897e-23)
(0.0066752 -0.102938 2.60928e-23)
(0.00290462 -0.104896 0)
(0.000585674 -0.105895 -2.27509e-24)
(0.0376466 -0.0659285 0)
(0.0325164 -0.0747713 -4.21988e-22)
(0.0287326 -0.0838336 7.12863e-22)
(0.0240594 -0.0903819 7.33966e-23)
(0.0193754 -0.0966226 1.15994e-22)
(0.014659 -0.101465 1.23684e-22)
(0.0100194 -0.105392 -2.64374e-23)
(0.00591178 -0.108193 -1.59268e-23)
(0.00249386 -0.10981 1.88924e-23)
(0.000445027 -0.110498 2.26971e-24)
(0.0337828 -0.072728 0)
(0.0295506 -0.0808035 -4.87801e-22)
(0.0262596 -0.089952 -1.94345e-22)
(0.0220424 -0.0962001 0)
(0.0176809 -0.102195 -3.2102e-22)
(0.0133406 -0.106747 1.22153e-22)
(0.00902949 -0.110338 7.5089e-23)
(0.0052652 -0.112818 1.26691e-22)
(0.00216135 -0.114158 -1.88307e-23)
(0.000339585 -0.114623 1.36952e-23)
(0.0301113 -0.0792315 0)
(0.0267932 -0.0863784 4.91845e-22)
(0.0239398 -0.0954902 0)
(0.0202052 -0.101428 5.72672e-22)
(0.0161424 -0.107134 -5.75642e-22)
(0.0121694 -0.111424 -1.5527e-22)
(0.00816577 -0.114702 3.29527e-23)
(0.00471804 -0.116921 -1.31542e-22)
(0.00189055 -0.118038 -2.42315e-23)
(0.000259209 -0.118351 -2.1012e-23)
(0.0266872 -0.0854713 5.0393e-21)
(0.0242786 -0.0915944 -1.89002e-21)
(0.0217862 -0.100511 -1.81447e-22)
(0.0185509 -0.106167 -7.67852e-22)
(0.0147587 -0.111537 0)
(0.0111347 -0.115604 -1.65165e-22)
(0.00741515 -0.118594 5.34729e-23)
(0.00425408 -0.120605 1.97221e-22)
(0.00166835 -0.121546 8.15025e-24)
(0.000196538 -0.12176 -8.14538e-24)
(0.0235393 -0.0914821 4.29687e-22)
(0.0220352 -0.0965811 2.94293e-21)
(0.0198131 -0.105092 8.02147e-22)
(0.0170777 -0.110528 -8.01652e-22)
(0.0135288 -0.115511 -2.81325e-22)
(0.0102254 -0.119395 0)
(0.00676591 -0.122118 -2.69354e-22)
(0.00385977 -0.12397 1.44275e-22)
(0.0014851 -0.124768 7.38581e-23)
(0.000146487 -0.124925 1.86036e-23)
(0.0206834 -0.097276 -7.05161e-22)
(0.0200988 -0.101493 0)
(0.0180498 -0.109319 0)
(0.0157876 -0.114622 0)
(0.0124572 -0.119162 -2.23635e-22)
(0.00943435 -0.122903 5.04391e-22)
(0.00621014 -0.125373 2.76704e-22)
(0.00352545 -0.127105 -3.29276e-22)
(0.00133437 -0.127787 1.90043e-23)
(0.000105646 -0.127919 -3.72392e-23)
(0.0181134 -0.102819 -1.62342e-21)
(0.0184818 -0.106495 2.18406e-21)
(0.0165186 -0.113282 -2.16344e-21)
(0.0146685 -0.118556 1.39686e-21)
(0.0115411 -0.122594 -1.69487e-21)
(0.00875007 -0.126223 0)
(0.00573846 -0.128451 -1.66776e-22)
(0.00324206 -0.130093 -6.79391e-24)
(0.00121103 -0.13068 -6.24693e-23)
(7.13203e-05 -0.130811 -2.09222e-23)
(0.0156071 -0.107981 -7.63973e-22)
(0.0169618 -0.111745 0)
(0.0151098 -0.11708 -2.13557e-21)
(0.013607 -0.122422 3.32202e-21)
(0.0107106 -0.125906 -1.14263e-21)
(0.00811826 -0.129446 -1.23049e-22)
(0.00531668 -0.131437 1.66395e-22)
(0.00298833 -0.133013 2.0871e-23)
(0.00110578 -0.133519 1.28294e-22)
(4.23053e-05 -0.133673 4.16442e-23)
(0.0131569 -0.112417 -3.08566e-21)
(0.015445 -0.117388 3.01777e-21)
(0.0138366 -0.120849 2.75355e-22)
(0.0125943 -0.126322 0)
(0.00995538 -0.129208 0)
(0.00753613 -0.132666 1.2667e-22)
(0.00494085 -0.134418 3.08469e-22)
(0.00276413 -0.135941 -3.02736e-22)
(0.00102004 -0.136377 -2.29417e-23)
(2.96888e-05 -0.136574 2.24582e-23)
(0.0126931 -0.119444 0)
(0.0156317 -0.13092 0)
(0.0135657 -0.12969 0)
(0.012099 -0.135685 0)
(0.00948668 -0.137235 0)
(0.00706417 -0.140586 0)
(0.0046214 -0.141791 0)
(0.00257745 -0.143203 0)
(0.000985253 -0.143445 0)
(6.28216e-05 -0.143704 0)
(0.0123763 -0.141765 0)
(0.0113554 -0.154647 0)
(0.00958783 -0.15002 0)
(0.00818151 -0.15611 0)
(0.00630381 -0.155588 0)
(0.0046857 -0.158644 0)
(0.00303206 -0.158759 0)
(0.00172406 -0.159976 0)
(0.000668699 -0.159787 0)
(6.85211e-05 -0.160103 0)
(0.0129078 -0.169616 0)
(0.0106192 -0.183608 0)
(0.00867713 -0.176391 0)
(0.00694255 -0.182894 0)
(0.00526195 -0.180607 0)
(0.00380117 -0.183758 0)
(0.00246862 -0.182914 0)
(0.00142809 -0.184194 0)
(0.000596541 -0.183573 0)
(8.13691e-05 -0.184021 0)
(0.0130651 -0.204475 0)
(0.00990971 -0.219548 0)
(0.00799947 -0.210561 0)
(0.00600227 -0.217811 0)
(0.00456278 -0.214088 0)
(0.00317575 -0.217684 0)
(0.0021213 -0.215981 0)
(0.00122969 -0.21755 0)
(0.000564192 -0.216474 0)
(8.2156e-05 -0.217157 0)
(0.0128806 -0.246811 0)
(0.00930705 -0.262117 0)
(0.00748299 -0.252616 0)
(0.00529425 -0.260478 0)
(0.00407761 -0.255915 0)
(0.00269577 -0.26006 0)
(0.00187746 -0.257721 0)
(0.0010436 -0.259696 0)
(0.000526223 -0.258212 0)
(5.95825e-05 -0.259219 0)
(0.0120507 -0.294308 0)
(0.00847679 -0.308247 0)
(0.00681967 -0.299927 0)
(0.00460288 -0.307635 0)
(0.00359658 -0.303185 0)
(0.00223314 -0.307531 0)
(0.00160994 -0.30501 0)
(0.000797207 -0.307245 0)
(0.000429252 -0.305557 0)
(7.4003e-06 -0.306833 0)
(0.0103747 -0.341593 0)
(0.00720092 -0.352693 0)
(0.00578924 -0.347019 0)
(0.00378098 -0.353549 0)
(0.00297208 -0.350206 0)
(0.00172269 -0.354077 0)
(0.00124874 -0.351956 0)
(0.000491765 -0.354038 0)
(0.00026785 -0.352491 0)
(-5.33168e-05 -0.353784 0)
(0.00792886 -0.382068 0)
(0.00545712 -0.389797 0)
(0.00437431 -0.38731 0)
(0.00279469 -0.392019 0)
(0.00218947 -0.390311 0)
(0.00118326 -0.393142 0)
(0.000832507 -0.391823 0)
(0.000212418 -0.39334 0)
(0.000105975 -0.392231 0)
(-8.71133e-05 -0.393223 0)
(0.00494532 -0.410701 0)
(0.00337803 -0.41565 0)
(0.00270261 -0.415818 0)
(0.00170147 -0.418811 0)
(0.00132613 -0.418587 0)
(0.000673284 -0.420307 0)
(0.00045061 -0.419802 0)
(4.27035e-05 -0.420639 0)
(8.08725e-06 -0.420031 0)
(-7.73516e-05 -0.420583 0)
(0.00167943 -0.425249 0)
(0.00113619 -0.428707 0)
(0.000912733 -0.43032 0)
(0.000568077 -0.432319 0)
(0.000443612 -0.432936 0)
(0.000215848 -0.433972 0)
(0.000139562 -0.433955 0)
(-4.37692e-06 -0.434358 0)
(-9.6623e-06 -0.434078 0)
(-3.07541e-05 -0.43433 0)
(0.0126944 -0.128169 3.57556e-21)
(0.0137666 -0.152035 -3.50675e-21)
(0.0148481 -0.181485 4.49603e-22)
(0.0151733 -0.217143 0)
(0.0149424 -0.258906 0)
(0.0138823 -0.304151 5.19878e-22)
(0.0119028 -0.347916 -2.2335e-21)
(0.00910918 -0.384631 2.20206e-21)
(0.00570973 -0.410294 5.97816e-22)
(0.00194172 -0.423261 -5.88394e-22)
(0.0129733 -0.132812 -4.24166e-21)
(0.014568 -0.156645 0)
(0.0157758 -0.186185 3.07073e-21)
(0.0161293 -0.221764 -7.08652e-21)
(0.0158499 -0.263057 4.54837e-21)
(0.0146815 -0.307337 -4.82935e-22)
(0.0125736 -0.349788 1.07618e-21)
(0.00963251 -0.385186 2.27172e-21)
(0.00605127 -0.409848 6.3914e-22)
(0.00205569 -0.422292 6.20567e-22)
(0.0135149 -0.137625 4.9469e-21)
(0.0156619 -0.161489 -3.38645e-21)
(0.0169189 -0.190922 3.35432e-21)
(0.0172617 -0.226227 -3.75038e-21)
(0.0168955 -0.266902 2.77412e-21)
(0.0155844 -0.310131 0)
(0.0133116 -0.351268 -1.07879e-21)
(0.0101864 -0.385418 5.48858e-23)
(0.00639729 -0.409175 -1.19235e-21)
(0.00216418 -0.42116 -1.2175e-21)
(0.0143587 -0.141959 -7.98519e-22)
(0.0169922 -0.165938 0)
(0.0182551 -0.195309 0)
(0.018564 -0.230361 0)
(0.018086 -0.27044 3.08857e-21)
(0.0166106 -0.312658 -2.06606e-21)
(0.0141439 -0.35254 -1.47177e-23)
(0.0107985 -0.385492 -1.27328e-21)
(0.00677 -0.408368 -6.53662e-22)
(0.00227743 -0.419894 -6.99897e-22)
(0.0155716 -0.145915 6.80901e-23)
(0.0185465 -0.169844 -2.40374e-21)
(0.0197676 -0.199108 -1.82792e-21)
(0.0200198 -0.233917 1.82676e-21)
(0.0194102 -0.273449 -1.00857e-21)
(0.0177581 -0.314755 0)
(0.0150797 -0.353507 -1.18588e-21)
(0.0114878 -0.385371 2.59744e-21)
(0.00718972 -0.407431 -1.32931e-21)
(0.00240616 -0.418519 1.36948e-21)
(0.0171879 -0.14955 -6.38136e-21)
(0.0203458 -0.17325 6.94888e-22)
(0.021473 -0.202292 -1.32735e-22)
(0.0216355 -0.236814 1.87567e-21)
(0.0208701 -0.275811 0)
(0.0190256 -0.316293 0)
(0.0161187 -0.354057 0)
(0.0122581 -0.384979 1.39179e-21)
(0.00766303 -0.406331 0)
(0.00255517 -0.417038 0)
(0.0192186 -0.152773 0)
(0.0224048 -0.176131 2.62381e-21)
(0.0233949 -0.204856 -1.77327e-21)
(0.0234288 -0.239046 -2.10663e-21)
(0.0224801 -0.277515 2.11758e-21)
(0.0204215 -0.317248 1.26653e-21)
(0.0172638 -0.354152 -1.25606e-21)
(0.0131092 -0.384277 -4.97156e-21)
(0.00818912 -0.405043 3.53943e-22)
(0.00272526 -0.41544 -1.21192e-21)
(0.0216729 -0.155472 0)
(0.0247295 -0.178411 -8.52527e-22)
(0.0255487 -0.20676 -4.80644e-22)
(0.0254142 -0.240604 0)
(0.0242556 -0.278568 6.17229e-22)
(0.0219584 -0.317633 -1.8611e-21)
(0.0185225 -0.353801 2.07636e-21)
(0.0140438 -0.383263 7.41372e-22)
(0.00876742 -0.403556 -8.11176e-22)
(0.00291663 -0.413712 1.60785e-21)
(0.0245621 -0.157561 7.66215e-22)
(0.0273252 -0.180034 9.23442e-22)
(0.0279445 -0.207957 -2.04651e-22)
(0.0276004 -0.241462 2.75077e-22)
(0.026208 -0.278966 5.86275e-22)
(0.0236468 -0.317459 9.8618e-22)
(0.0199035 -0.353019 -3.71383e-22)
(0.0150673 -0.381949 -4.01575e-22)
(0.00939979 -0.401872 8.13847e-22)
(0.00313021 -0.411849 4.41097e-22)
(0.027896 -0.15897 -2.13068e-22)
(0.0301971 -0.180969 2.15092e-22)
(0.030591 -0.208416 -2.47176e-22)
(0.0299939 -0.241603 -2.74715e-22)
(0.0283457 -0.278698 3.27241e-22)
(0.0254949 -0.316727 -6.68527e-22)
(0.0214149 -0.351811 5.68357e-22)
(0.0161862 -0.380337 2.03418e-22)
(0.01009 -0.399991 0)
(0.00336757 -0.409846 -4.42085e-22)
(0.0316819 -0.159648 2.18077e-22)
(0.0333478 -0.181209 -2.20215e-22)
(0.033496 -0.208125 -2.64941e-22)
(0.0325995 -0.241026 -2.96661e-22)
(0.0306757 -0.277766 -3.4146e-22)
(0.0275089 -0.315441 -2.43583e-23)
(0.0230628 -0.350182 2.00163e-22)
(0.0174055 -0.378431 6.46998e-22)
(0.0108409 -0.397913 0)
(0.00362995 -0.407699 -4.82529e-22)
(0.0359244 -0.159583 0)
(0.0367775 -0.180752 -1.01302e-21)
(0.0366645 -0.207093 1.8365e-21)
(0.0354204 -0.239738 2.97155e-22)
(0.0332048 -0.276174 6.91888e-22)
(0.029695 -0.313602 1.13898e-21)
(0.0248546 -0.348128 -4.05779e-22)
(0.0187324 -0.376226 -4.38982e-22)
(0.0116574 -0.395633 9.71271e-22)
(0.0039186 -0.405405 4.81408e-22)
(0.0406253 -0.158809 0)
(0.0404864 -0.179591 -9.97463e-22)
(0.0400963 -0.205359 -5.52062e-22)
(0.0384597 -0.237761 0)
(0.0359376 -0.27395 -2.18141e-21)
(0.0320572 -0.311232 7.28274e-22)
(0.0267938 -0.345669 8.70822e-22)
(0.0201678 -0.373736 2.81559e-21)
(0.0125392 -0.393142 -9.68116e-22)
(0.00423327 -0.402951 2.09039e-21)
(0.0457794 -0.157438 0)
(0.0444756 -0.177727 1.00594e-21)
(0.043782 -0.202985 0)
(0.04172 -0.235103 2.77983e-21)
(0.0388774 -0.271109 -2.7941e-21)
(0.0346025 -0.30833 -1.71734e-21)
(0.0288876 -0.342792 -3.9897e-23)
(0.0217252 -0.370945 -2.898e-21)
(0.0134966 -0.390429 -4.83067e-22)
(0.00457418 -0.400326 -2.60015e-21)
(0.0513454 -0.155518 7.2502e-21)
(0.0487644 -0.175162 -2.78318e-21)
(0.0477129 -0.19999 3.05149e-22)
(0.0452096 -0.231784 -2.58554e-21)
(0.0420218 -0.267673 0)
(0.0373336 -0.304921 -1.79097e-21)
(0.0311372 -0.339525 -1.52452e-22)
(0.0234026 -0.367873 3.93551e-21)
(0.0145276 -0.387523 5.39934e-22)
(0.00494019 -0.397541 -5.42027e-22)
(0.0572867 -0.153035 -7.52683e-22)
(0.0533553 -0.171974 5.20685e-21)
(0.0518665 -0.196425 2.68905e-21)
(0.0489242 -0.227886 -2.68725e-21)
(0.0453703 -0.263678 -1.6285e-21)
(0.0402551 -0.301014 0)
(0.0335522 -0.335852 -4.01774e-21)
(0.0252109 -0.364495 2.01512e-21)
(0.0156418 -0.384403 2.15401e-21)
(0.00533492 -0.394582 2.31367e-21)
(0.0635337 -0.15007 -9.98062e-22)
(0.0582406 -0.168246 0)
(0.0562233 -0.192363 0)
(0.0528554 -0.223488 0)
(0.0489188 -0.259224 -1.88556e-21)
(0.043359 -0.296728 3.50797e-21)
(0.0361172 -0.331893 4.09306e-21)
(0.0271287 -0.360907 -6.44943e-21)
(0.0168212 -0.381117 1.15517e-21)
(0.00574905 -0.391471 -3.43639e-21)
(0.0699763 -0.14676 -1.48625e-21)
(0.0634113 -0.164012 5.13753e-21)
(0.0607616 -0.187819 -5.08855e-21)
(0.0569947 -0.218537 6.57635e-21)
(0.0526758 -0.254166 -8.27399e-21)
(0.046677 -0.291833 0)
(0.0388873 -0.3274 -2.13978e-21)
(0.0292221 -0.356913 -8.86405e-23)
(0.0181191 -0.37755 -2.4014e-21)
(0.00620297 -0.388134 -2.44768e-21)
(0.0764639 -0.143388 -1.05968e-21)
(0.0688532 -0.159525 0)
(0.0654322 -0.183149 -6.80944e-21)
(0.061275 -0.21357 1.28568e-20)
(0.0565507 -0.249241 -4.98305e-21)
(0.0500797 -0.287182 -1.01076e-21)
(0.0416965 -0.323151 2.13512e-21)
(0.0313194 -0.353054 -1.08907e-22)
(0.0194081 -0.373982 3.5046e-21)
(0.00664187 -0.384721 3.62231e-21)
(0.0831794 -0.138637 -4.78694e-21)
(0.0752403 -0.15338 4.69377e-21)
(0.0707337 -0.176614 7.26897e-22)
(0.0661084 -0.206517 0)
(0.0609584 -0.242088 0)
(0.0540386 -0.280418 9.97526e-22)
(0.0450613 -0.317213 4.58404e-21)
(0.0339027 -0.348087 -4.48694e-21)
(0.0210292 -0.369791 -1.22989e-21)
(0.00720115 -0.380866 1.20942e-21)
(0.093458 -0.138594 0)
(0.0895567 -0.150753 0)
(0.0821724 -0.174573 0)
(0.0762535 -0.203975 0)
(0.0697918 -0.238714 0)
(0.0614669 -0.275771 0)
(0.0509802 -0.311099 0)
(0.0382146 -0.340652 0)
(0.023646 -0.361555 0)
(0.00799004 -0.372468 0)
(0.111362 -0.126573 0)
(0.11346 -0.143281 0)
(0.102297 -0.169679 0)
(0.0954005 -0.198591 0)
(0.0865554 -0.232099 0)
(0.0756703 -0.266931 0)
(0.0623775 -0.299606 0)
(0.0465709 -0.3265 0)
(0.0287978 -0.34497 0)
(0.00992403 -0.353861 0)
(0.13418 -0.115061 0)
(0.138869 -0.134119 0)
(0.124113 -0.160788 0)
(0.116671 -0.188331 0)
(0.104782 -0.220057 0)
(0.0908985 -0.252097 0)
(0.0742601 -0.282032 0)
(0.0550097 -0.306944 0)
(0.0337616 -0.324818 0)
(0.0111934 -0.334683 0)
(0.162529 -0.106912 0)
(0.168016 -0.126454 0)
(0.14936 -0.152046 0)
(0.141415 -0.178152 0)
(0.125657 -0.208084 0)
(0.10855 -0.2372 0)
(0.0880641 -0.264309 0)
(0.0648999 -0.286411 0)
(0.0398047 -0.30133 0)
(0.0138464 -0.307718 0)
(0.195753 -0.0970587 0)
(0.199644 -0.115057 0)
(0.176959 -0.138196 0)
(0.167686 -0.161719 0)
(0.146593 -0.188204 0)
(0.125629 -0.213219 0)
(0.100401 -0.237162 0)
(0.0730415 -0.257304 0)
(0.0441043 -0.272723 0)
(0.0139449 -0.283037 0)
(0.233638 -0.0892115 0)
(0.234866 -0.105017 0)
(0.208466 -0.126321 0)
(0.197106 -0.147079 0)
(0.169934 -0.170301 0)
(0.145628 -0.192075 0)
(0.115422 -0.213707 0)
(0.0836851 -0.231357 0)
(0.0506888 -0.243465 0)
(0.0186545 -0.246083 0)
(0.2731 -0.07393 0)
(0.267845 -0.0862029 0)
(0.238556 -0.103642 0)
(0.22269 -0.119333 0)
(0.188901 -0.137554 0)
(0.160611 -0.154533 0)
(0.123248 -0.171933 0)
(0.086593 -0.18706 0)
(0.0494896 -0.202363 0)
(0.0117811 -0.220694 0)
(0.311352 -0.0642352 0)
(0.301521 -0.0725225 0)
(0.271542 -0.0870066 0)
(0.250997 -0.0987749 0)
(0.214397 -0.114755 0)
(0.182994 -0.129392 0)
(0.141244 -0.146246 0)
(0.101145 -0.161933 0)
(0.0594587 -0.177377 0)
(0.0301585 -0.17297 0)
(0.349173 -0.0358137 0)
(0.335975 -0.0394538 0)
(0.292985 -0.0481506 0)
(0.266136 -0.0537505 0)
(0.217421 -0.0632107 0)
(0.177409 -0.0703237 0)
(0.121794 -0.0795402 0)
(0.0692523 -0.0884387 0)
(0.0187738 -0.107306 0)
(-0.0400706 -0.158806 0)
(0.615979 -0.0187978 0)
(0.596021 -0.0217577 0)
(0.556454 -0.0261173 0)
(0.525172 -0.0302923 0)
(0.476092 -0.0364472 0)
(0.431124 -0.0432916 0)
(0.367955 -0.0536515 0)
(0.29977 -0.0691713 0)
(0.209876 -0.0986376 0)
(0.150967 -0.157108 0)
(0.111635 -0.124911 4.90775e-21)
(0.131697 -0.112453 -4.83298e-21)
(0.154658 -0.101242 8.00333e-22)
(0.182566 -0.0932879 0)
(0.215708 -0.0841134 0)
(0.252064 -0.0770711 1.23068e-21)
(0.290941 -0.0635651 -5.87249e-21)
(0.327161 -0.0559143 5.79004e-21)
(0.375485 -0.0308899 1.65052e-21)
(0.636804 -0.016476 -1.67545e-21)
(0.117884 -0.118961 -4.55728e-21)
(0.137754 -0.10635 0)
(0.160349 -0.0955338 5.74473e-21)
(0.187937 -0.0877982 -1.39118e-20)
(0.221116 -0.0789536 9.39726e-21)
(0.257398 -0.0722973 -1.15315e-21)
(0.296311 -0.0594535 2.50296e-21)
(0.332666 -0.0526288 5.66313e-21)
(0.385222 -0.028969 1.52861e-21)
(0.644989 -0.0154877 1.55022e-21)
(0.123361 -0.112385 5.2583e-21)
(0.142923 -0.0999657 -5.35626e-21)
(0.165065 -0.0897049 5.30557e-21)
(0.192276 -0.0822691 -7.40061e-21)
(0.225306 -0.0738616 5.36216e-21)
(0.261654 -0.0676694 0)
(0.30054 -0.0555457 -2.50897e-21)
(0.33757 -0.0495532 -5.79388e-23)
(0.393828 -0.0272279 -2.89864e-21)
(0.65275 -0.0145369 -3.08197e-21)
(0.128689 -0.105349 -9.03476e-22)
(0.148322 -0.0934067 0)
(0.170072 -0.0838015 0)
(0.197079 -0.0767125 0)
(0.229803 -0.0688114 6.08719e-21)
(0.26613 -0.0631541 -4.14924e-21)
(0.304836 -0.0518117 -1.70409e-22)
(0.342527 -0.0466148 -2.881e-21)
(0.401853 -0.0256511 -1.46211e-21)
(0.660273 -0.0136654 -1.50456e-21)
(0.133501 -0.0979684 9.28979e-22)
(0.15341 -0.0867643 -2.87215e-21)
(0.174866 -0.0778871 -3.02165e-21)
(0.201773 -0.0711842 3.01977e-21)
(0.234262 -0.0638234 -1.91041e-21)
(0.270643 -0.0587479 0)
(0.309035 -0.0482245 -2.43555e-21)
(0.347482 -0.0437627 5.46119e-21)
(0.40942 -0.0242026 -2.74152e-21)
(0.667473 -0.0128787 2.99531e-21)
(0.137623 -0.0902657 -6.77516e-21)
(0.157865 -0.0800606 3.15116e-22)
(0.17908 -0.0719726 -4.90522e-22)
(0.205863 -0.0657164 2.95053e-21)
(0.23821 -0.0589461 0)
(0.274718 -0.0544446 0)
(0.312801 -0.0447873 0)
(0.352126 -0.041016 2.60403e-21)
(0.416439 -0.0228528 0)
(0.674261 -0.0121773 0)
(0.140978 -0.082262 0)
(0.161638 -0.0732896 3.44184e-21)
(0.182673 -0.0660419 -2.39171e-21)
(0.209281 -0.0603035 -3.37944e-21)
(0.241506 -0.0541733 3.397e-21)
(0.27811 -0.0502506 2.20449e-21)
(0.316094 -0.0414946 -2.07651e-21)
(0.356202 -0.0383835 -8.95886e-21)
(0.422757 -0.0215936 6.33248e-22)
(0.680532 -0.0115488 -2.12834e-21)
(0.143465 -0.0739901 0)