/*--------------------------------*- C++ -*----------------------------------*\
  =========                 |
  \\      /  F ield         | OpenFOAM: The Open Source CFD Toolbox
   \\    /   O peration     | Website:  https://openfoam.org
    \\  /    A nd           | Version:  7
     \\/     M anipulation  |
\*---------------------------------------------------------------------------*/
FoamFile
{
    version     2.0;
    format      ascii;
    class       surfaceScalarField;
    location    "20.8";
    object      phi;
}
// * * * * * * * * * * * * * * * * * * * * * * * * * * * * * * * * * * * * * //

dimensions      [0 3 -1 0 0 0 0];

internalField   nonuniform List<scalar> 
3880
(
0.000849129
0.00168296
-0.00253209
0.00301647
0.00755358
-0.00972092
0.00609843
0.014136
-0.017218
0.00954345
0.020471
-0.0239161
0.0128721
0.025951
-0.0292796
0.0157908
0.030331
-0.0332497
0.0181882
0.0336274
-0.0360248
0.0200796
0.0359898
-0.0378812
0.0215429
0.0376145
-0.0390777
0.0386742
0.0226732
-0.0398045
0.00071195
0.000971009
0.00266644
0.00559909
0.00563639
0.011166
0.00920772
0.0168997
0.0129259
0.0222328
0.016427
0.0268298
0.019491
0.0305634
0.0220337
0.033447
0.0240684
0.0355798
0.0370849
0.0256577
0.000574599
0.00039641
0.0022707
0.00390299
0.00500311
0.00843363
0.00851089
0.0133919
0.0124271
0.0183166
0.0163826
0.0228743
0.0200828
0.0268632
0.0233398
0.03019
0.0260722
0.0328474
0.0348885
0.0282685
0.000442446
-4.60362e-05
0.00185791
0.00248753
0.00426225
0.00602928
0.00753137
0.0101228
0.0114186
0.0144294
0.0156138
0.0186791
0.0198089
0.0226681
0.0237454
0.0262535
0.0272459
0.0293468
0.0319359
0.0301986
0.000318314
-0.00036435
0.00144957
0.00135627
0.00347447
0.00400439
0.00637187
0.0072254
0.0100137
0.0107875
0.0141871
0.0145057
0.0186326
0.0182227
0.0230814
0.0218047
0.0272974
0.0251308
0.0281482
0.0310852
0.00020321
-0.00056756
0.00105979
0.000499687
0.00268815
0.00237603
0.00513386
0.0047797
0.00836301
0.00755838
0.0122652
0.0106035
0.0166672
0.0138207
0.0213515
0.0171203
0.026083
0.0203993
0.0235869
0.0306444
9.77155e-05
-0.000665276
0.000697814
-0.000100412
0.00193787
0.00113597
0.00390041
0.00281716
0.0066143
0.0048445
0.0100535
0.00716426
0.014139
0.00973523
0.0187448
0.0125146
0.0236936
0.0154505
0.0184729
0.0288076
6.00457e-06
-0.00067128
0.000372382
-0.00046679
0.00125063
0.000257728
0.00273595
0.00133184
0.00489152
0.00268892
0.00774944
0.00430634
0.0113121
0.00617253
0.0155566
0.0082701
0.0204079
0.0105991
0.0131237
0.0257572
-7.82599e-05
-0.00059302
9.51043e-05
-0.000640154
0.000655463
-0.00030263
0.00169933
0.000287972
0.00330158
0.00108668
0.00552501
0.0020829
0.00842947
0.00326807
0.012083
0.00461661
0.0165579
0.00612424
0.00776356
0.021918
-0.00013747
-0.00045555
-0.000114927
-0.000662696
0.000190427
-0.000607984
0.000859887
-0.000381488
0.00195878
-1.22169e-05
0.00354969
0.000491993
0.00570344
0.00111432
0.00852123
0.00179882
0.0122631
0.00238239
0.0174704
0.00255621
0.019241
0.145828
-0.142395
0.0157845
0.143938
-0.140482
0.0126952
0.139992
-0.136903
0.00980715
0.136309
-0.13342
0.00720342
0.132854
-0.130251
0.00491509
0.130938
-0.12865
0.00291754
0.135968
-0.133971
0.00143313
0.161227
-0.159743
0.000501492
0.216612
-0.21568
0.283964
-0.283463
0.0221084
0.149377
0.0183057
0.147741
0.0148288
0.143469
0.011556
0.139581
0.00860212
0.135808
0.00600682
0.133533
0.00381258
0.138163
0.00222731
0.162812
0.00104055
0.217799
0.285005
0.0249471
0.152698
0.0209061
0.151782
0.0170425
0.147333
0.0133734
0.14325
0.0100538
0.139128
0.00712376
0.136463
0.00470584
0.140581
0.00299051
0.164528
0.00156824
0.219221
0.286573
0.0276542
0.155243
0.0235406
0.155895
0.019301
0.151572
0.0152404
0.147311
0.0115492
0.142819
0.00826777
0.139745
0.00559287
0.143255
0.00372194
0.166399
0.00207703
0.220866
0.28865
0.0301105
0.156217
0.0261953
0.159811
0.0216021
0.156166
0.0171518
0.151761
0.0130768
0.146894
0.00942375
0.143398
0.00645985
0.146219
0.00440547
0.168453
0.00255149
0.22272
0.291202
0.0321148
0.154747
0.0287119
0.163214
0.0238634
0.161014
0.0190805
0.156544
0.0146317
0.151343
0.0105978
0.147432
0.00731671
0.1495
0.00505016
0.170719
0.0029949
0.224775
0.294197
0.0336417
0.149913
0.0311479
0.165707
0.0261428
0.166019
0.0210252
0.161662
0.0161817
0.156187
0.0117527
0.151861
0.00812608
0.153127
0.00561866
0.173227
0.00338421
0.22701
0.297581
0.0342762
0.141394
0.0330246
0.166959
0.0282344
0.17081
0.0229458
0.16695
0.0177641
0.161368
0.0129545
0.15667
0.00895729
0.157124
0.00616738
0.176017
0.00373757
0.229439
0.301318
0.0346356
0.128676
0.0349177
0.166677
0.0303606
0.175367
0.0247952
0.172516
0.0192334
0.16693
0.014033
0.161871
0.00965961
0.161498
0.006582
0.179094
0.00401391
0.232007
0.305332
0.0331608
0.112986
0.0357977
0.16404
0.0323135
0.178851
0.0267947
0.178035
0.0209831
0.172742
0.0153993
0.167455
0.0105854
0.166311
0.00707801
0.182602
0.00430995
0.234776
0.309642
0.0286824
0.0987741
-0.0144708
0.0319334
0.160789
0.0283026
0.182482
0.0211734
0.185164
0.0126027
0.181312
0.00377886
0.176278
-0.00445814
0.174548
-0.00967067
0.187814
-0.0073314
0.232436
0.302311
0.0187612
0.0946267
-0.0146139
0.0213056
0.158245
0.0194845
0.184303
0.0150712
0.189577
0.00902204
0.187362
0.00149011
0.18381
-0.00699948
0.183038
-0.0133642
0.194179
-0.0109187
0.229991
0.291392
0.0118692
0.096063
-0.0133056
0.0135746
0.156539
0.0122655
0.185612
0.00763906
0.194203
0.00109989
0.193901
-0.00655492
0.191465
-0.0144339
0.190917
-0.0196778
0.199423
-0.0159543
0.226267
0.275438
0.00346688
0.100743
-0.00814716
0.00487456
0.155131
0.00624174
0.184245
0.00561276
0.194832
0.00211303
0.197401
-0.00415616
0.197734
-0.0118759
0.198637
-0.0179445
0.205492
-0.0160272
0.22435
0.259411
-0.000410378
0.105389
-0.00423517
0.000405911
0.154315
-0.000861672
0.185512
-0.00294068
0.196911
-0.00602857
0.200488
-0.0101463
0.201852
-0.0149525
0.203443
-0.0182254
0.208764
-0.015308
0.221432
0.244103
-0.00567515
0.111814
-0.000749875
-0.00158861
0.150229
0.00159813
0.182325
0.00231026
0.196199
0.000771501
0.202027
-0.00253642
0.20516
-0.00689585
0.207802
-0.0104951
0.212364
-0.00978448
0.220722
0.234318
-0.00526694
0.121478
-0.00439729
-0.00559884
0.150561
-0.00525386
0.18198
-0.00576437
0.19671
-0.00618762
0.20245
-0.00665612
0.205629
-0.00755723
0.208704
-0.00819737
0.213004
-0.00669765
0.219222
0.227621
-0.000943717
0.131537
-0.00911547
0.00061583
0.149001
0.00562108
0.176975
0.00619399
0.196137
0.00414173
0.204503
0.0015638
0.208206
-0.000731953
0.210999
-0.00235713
0.214629
-0.00254925
0.219414
0.225071
0.0035136
0.146936
-0.018912
-0.00663829
0.159153
-0.00553511
0.175872
-0.00144228
0.192044
0.000712734
0.202348
0.000702467
0.208217
-0.000369599
0.212071
-0.00150791
0.215767
-0.0017013
0.219608
0.22337
0.0247885
-0.0277605
0.0150899
0.00871203
0.00652977
0.00589153
0.00510679
0.00374002
0.00204801
0.000609141
0.0122347
-0.017635
-0.00907044
0.0158112
-0.0181904
0.0187089
-0.0162033
0.0214196
-0.0108578
0.0239323
-0.00674793
0.0271873
-0.00400488
0.0303167
-0.00752669
0.0332741
-0.0120728
0.034717
-0.020355
-0.0262898
0.0104837
-0.0219842
-0.00613456
0.0153249
-0.0230315
0.0189147
-0.0197932
0.021925
-0.013868
0.0245954
-0.00941839
0.0277142
-0.00712364
0.0303072
-0.0101197
0.0322707
-0.0140363
0.032097
-0.0201812
-0.0238976
0.0117185
-0.0277411
-0.00596158
0.016881
-0.028194
0.0203899
-0.0233021
0.0231483
-0.0166264
0.025529
-0.0117992
0.0280594
-0.00965403
0.0297232
-0.0117835
0.0303579
-0.014671
0.0287794
-0.0186027
-0.020877
0.0147893
-0.0344381
-0.0080923
0.0195833
-0.032988
0.0224767
-0.0261955
0.0245631
-0.0187128
0.0262589
-0.013495
0.0278291
-0.0112242
0.0283035
-0.0122579
0.0275654
-0.0139329
0.0249069
-0.0159441
-0.0175224
0.0185503
-0.0412454
-0.011743
0.0223705
-0.0368082
0.0242956
-0.0281206
0.0254584
-0.0198757
0.0262258
-0.0142623
0.0266473
-0.0116457
0.0258984
-0.011509
0.0239789
-0.0120133
0.0206504
-0.0126156
-0.0141087
0.0218036
-0.0471709
-0.0158781
0.024243
-0.0392476
0.0250484
-0.0289259
0.0252235
-0.0200509
0.0250131
-0.0140519
0.0243179
-0.0109505
0.0225256
-0.00971666
0.019778
-0.00926571
0.0162059
-0.00904356
-0.010873
0.0235955
-0.0513763
-0.0193901
0.0245245
-0.0401765
0.0242548
-0.0286562
0.0235422
-0.0193383
0.0224773
-0.012987
0.020877
-0.00935029
0.0183646
-0.00720419
0.0152127
-0.00611386
0.0117788
-0.0056096
-0.00799512
0.0234111
-0.0534607
-0.0213268
0.0229571
-0.0397225
0.0218173
-0.0275164
0.0204295
-0.0179506
0.0187449
-0.0113024
0.0165539
-0.00715921
0.0137034
-0.00435373
0.0105594
-0.00296985
0.00755662
-0.00260683
-0.00558974
0.0211966
-0.0535179
-0.0211393
0.0196704
-0.0381963
0.0179574
-0.0258034
0.0161574
-0.0161506
0.0141321
-0.00927706
0.0116927
-0.00471975
0.00887222
-0.00153329
0.00607587
-0.000173508
0.0036798
-0.000210761
-0.00371428
0.0172978
-0.0519894
-0.0188264
0.0150755
-0.035974
0.0130957
-0.0238235
0.0111412
-0.0141961
0.00904326
-0.00717912
0.00667153
-0.00234803
0.00418308
0.000955168
0.00197598
0.00203359
0.000174538
0.00159068
-0.00243796
0.012302
-0.0494255
-0.014866
0.00973888
-0.0334109
0.00773011
-0.0218148
0.00583969
-0.0123057
0.00389042
-0.00522985
0.00184248
-0.000300079
-0.000125038
0.00292268
-0.00164456
0.00355312
-0.0026798
0.00262592
-0.00153571
0.00681886
-0.046304
-0.00994038
0.00422658
-0.0308186
0.00233133
-0.0199195
0.000673948
-0.0106483
-0.000962287
-0.00359361
-0.00254541
0.00128305
-0.00386438
0.00424165
-0.00473776
0.00442649
-0.0051671
0.00305525
-0.000995256
0.00131132
-0.0429123
-0.00470299
-0.00100282
-0.0285045
-0.00272986
-0.0181925
-0.00409856
-0.00927957
-0.00530937
-0.0023828
-0.00632805
0.00230172
-0.00699943
0.00491304
-0.00729012
0.00471718
-0.00728535
0.00305048
-0.000722423
-0.00374621
-0.0394954
0.000329334
-0.00582958
-0.0264211
-0.00720635
-0.0168157
-0.00821362
-0.00827231
-0.00896132
-0.0016351
-0.00942646
0.00276686
-0.00953994
0.00502653
-0.00938836
0.0045656
-0.00910887
0.00277098
-0.000620968
-0.00808558
-0.036298
0.00488817
-0.00984534
-0.0246613
-0.0109306
-0.0157304
-0.0115701
-0.00763287
-0.0118848
-0.00132039
-0.0118752
0.00275731
-0.0115669
0.00471821
-0.0111332
0.00413193
-0.010718
0.0023558
-0.000609455
-0.0116366
-0.0333841
0.00872271
-0.0130255
-0.0232724
-0.0138565
-0.0148995
-0.0141697
-0.00731958
-0.0141236
-0.00136655
-0.0137648
0.00239854
-0.0131905
0.00414387
-0.0126243
0.00356581
-0.0121818
0.0019133
-0.000624192
-0.0143633
-0.0307787
0.0117579
-0.0154114
-0.0222243
-0.0160165
-0.0142944
-0.0160862
-0.00724994
-0.015776
-0.0016767
-0.0152133
0.00183582
-0.0145212
0.00345175
-0.0139446
0.00298923
-0.0135523
0.00152097
-0.000616613
-0.0162955
-0.0284759
0.0139927
-0.0170937
-0.0214261
-0.0174948
-0.0138933
-0.0174295
-0.00731529
-0.0169619
-0.0021443
-0.0163372
0.00121121
-0.0156517
0.00276621
-0.0151541
0.00249167
-0.0148646
0.00123142
-0.000548484
-0.0174923
-0.0265021
0.0155185
-0.0181745
-0.0207439
-0.0183943
-0.0136735
-0.0183111
-0.0073985
-0.0177963
-0.0026591
-0.0172325
0.000647469
-0.0166485
0.00218212
-0.0162908
0.00213402
-0.0161407
0.0010813
-0.000387283
-0.0180106
-0.0250654
0.0165739
-0.0187003
-0.0200542
-0.0187602
-0.0136135
-0.0187601
-0.00739865
-0.0183254
-0.00309378
-0.0179509
0.000273
-0.0175452
0.00177637
-0.0173781
0.00196693
-0.0173869
0.00109006
-9.67634e-05
-0.0767909
-0.0201584
0.0718839
-0.0826365
-0.0142086
-0.0851761
-0.0110738
-0.0863234
-0.00625139
-0.0845808
-0.00483642
-0.0829619
-0.00134585
-0.0805847
-0.000600816
-0.0789772
0.000359341
-0.0778765
-1.06368e-05
-9.9128e-05
-0.100534
-0.0163989
0.0967743
-0.102502
-0.0122399
-0.103473
-0.0101031
-0.10361
-0.00611496
-0.103004
-0.00544187
-0.102173
-0.00217671
-0.100851
-0.00192338
-0.100081
-0.000410139
-0.0994156
-0.000676318
-5.10997e-06
-0.118755
-0.0136798
0.116036
-0.1208
-0.0101946
-0.121971
-0.0089318
-0.122163
-0.00592311
-0.12248
-0.00512505
-0.122007
-0.00264956
-0.121628
-0.00230233
-0.121165
-0.000873453
-0.120919
-0.000922534
8.09221e-05
-0.1403
-0.0121082
0.138728
-0.141492
-0.00900187
-0.142655
-0.00776909
-0.14326
-0.00531778
-0.143822
-0.00456365
-0.143769
-0.0027028
-0.143769
-0.00230232
-0.143495
-0.00114761
-0.143531
-0.000886333
5.33031e-05
-0.164845
-0.0100578
0.162795
-0.166177
-0.00766981
-0.167383
-0.00656285
-0.168066
-0.00463497
-0.1687
-0.00392988
-0.168853
-0.00254932
-0.168969
-0.00218676
-0.168862
-0.001255
-0.168817
-0.000930962
-3.27292e-05
-0.194204
-0.00841278
0.192559
-0.195627
-0.00624689
-0.19687
-0.00532005
-0.197702
-0.00380255
-0.198298
-0.00333401
-0.198583
-0.00226467
-0.198782
-0.00198708
-0.198807
-0.00123006
-0.198873
-0.000865334
-4.22303e-05
-0.231103
-0.0065341
0.229225
-0.232783
-0.00456754
-0.234134
-0.00396923
-0.235036
-0.00289986
-0.235798
-0.00257208
-0.236311
-0.00175179
-0.236772
-0.00152621
-0.237148
-0.000854033
-0.237447
-0.00056604
1.76999e-05
-0.278459
-0.00404218
0.275967
-0.279774
-0.00325222
-0.281009
-0.0027346
-0.282036
-0.00187293
-0.282985
-0.00162302
-0.283713
-0.00102319
-0.284432
-0.000807869
-0.285052
-0.000234203
-0.285524
-9.39195e-05
0.00013143
-0.324842
-0.00197351
0.322773
-0.327077
-0.00101634
-0.328932
-0.000880369
-0.33014
-0.000665059
-0.331111
-0.000651955
-0.331759
-0.0003753
-0.332362
-0.000203951
-0.332732
0.000134923
-0.332995
0.000169284
0.000147031
-0.35796
0.355987
-0.358976
-0.359857
-0.360522
-0.361174
-0.361549
-0.361753
-0.361618
-0.361449
-0.0208932
0.0744395
0.0183376
-0.0220942
0.0979754
-0.0224512
0.116393
-0.0223534
0.13863
-0.021634
0.162075
-0.0202916
0.191217
-0.0181982
0.227131
-0.0139337
0.271702
-0.00832769
0.317167
0.347659
-0.0197673
0.0761561
0.0180507
-0.0207224
0.0989304
-0.0209844
0.116655
-0.0207459
0.138392
-0.0199434
0.161273
-0.0185345
0.189808
-0.0163258
0.224923
-0.012498
0.267875
-0.00721716
0.311886
0.340442
-0.0186765
0.0775799
0.0172527
-0.0194943
0.0997482
-0.0196445
0.116805
-0.0193462
0.138094
-0.0185216
0.160448
-0.0171579
0.188444
-0.0150192
0.222784
-0.0115435
0.264399
-0.00650983
0.306852
0.333932
-0.0174307
0.0788785
0.0161321
-0.0181458
0.100463
-0.0181669
0.116826
-0.0177915
0.137718
-0.0169489
0.159605
-0.0156282
0.187123
-0.0135992
0.220755
-0.0104425
0.261242
-0.00577271
0.302183
0.328159
-0.0160328
0.0801178
0.0147935
-0.0166661
0.101097
-0.0165765
0.116736
-0.0161345
0.137276
-0.0152845
0.158756
-0.0140081
0.185847
-0.012112
0.218859
-0.00925049
0.258381
-0.00505925
0.297991
0.3231
-0.0144791
0.0812981
0.0132989
-0.0150354
0.101653
-0.0148563
0.116557
-0.014368
0.136788
-0.0135276
0.157915
-0.0123096
0.184629
-0.0105665
0.217116
-0.00800721
0.255821
-0.00436088
0.294345
0.318739
-0.0127962
0.082401
0.0116932
-0.0132786
0.102135
-0.0130199
0.116299
-0.0124972
0.136265
-0.0116787
0.157097
-0.0105354
0.183486
-0.00896514
0.215545
-0.0067315
0.253588
-0.00365399
0.291267
0.315085
-0.0110206
0.0834064
0.0100152
-0.0114383
0.102553
-0.0111038
0.115964
-0.0105506
0.135712
-0.00975831
0.156304
-0.00870137
0.182429
-0.00731889
0.214163
-0.00543394
0.251703
-0.00293247
0.288766
0.312153
-0.00918848
0.0842899
0.00830495
-0.00955417
0.102919
-0.00914419
0.115554
-0.0085641
0.135132
-0.00779589
0.155536
-0.00683324
0.181466
-0.00564606
0.212976
-0.00412354
0.25018
-0.00219944
0.286842
0.309953
-0.00733614
0.0850193
0.00660672
-0.00766284
0.103245
-0.0071686
0.11506
-0.00657303
0.134536
-0.00581765
0.154781
-0.00495981
0.180608
-0.00396673
0.211983
-0.00281449
0.249028
-0.00146645
0.285494
0.308487
-0.00550797
0.0855528
0.00497454
-0.00580812
0.103546
-0.00522625
0.114478
-0.00461886
0.133929
-0.00387077
0.154033
-0.00311342
0.179851
-0.00230349
0.211173
-0.00152168
0.248246
-0.00074054
0.284713
0.307746
-0.00373047
0.0858334
0.00344985
-0.00401289
0.103828
-0.00336275
0.113828
-0.00272065
0.133287
-0.0019952
0.153307
-0.00130675
0.179163
-0.000700078
0.210566
-0.000255651
0.247802
-3.11072e-05
0.284488
0.307715
-0.00204854
0.0857955
0.00208648
-0.00231344
0.104093
-0.00163632
0.113151
-0.000911863
0.132562
-0.000270376
0.152666
0.000405556
0.178487
0.0008522
0.210119
0.000973376
0.247681
0.000662201
0.284799
0.308377
-0.000500794
0.0853796
0.000916598
-0.000729504
0.104322
-0.000128888
0.11255
0.000772318
0.131661
0.00146548
0.151973
0.00206093
0.177891
0.00234834
0.209832
0.00214517
0.247884
0.0013187
0.285626
0.309696
0.000870325
0.084597
-8.76695e-05
0.000724354
0.104468
0.00143164
0.111843
0.00234765
0.130745
0.00305754
0.151263
0.00360301
0.177346
0.00375686
0.209678
0.0032671
0.248374
0.00195667
0.286936
0.311653
0.00203062
0.0832972
-0.000730834
0.00203108
0.104467
0.00276646
0.111108
0.00374695
0.129765
0.00448006
0.15053
0.00499412
0.176832
0.0050345
0.209638
0.00428835
0.24912
0.00253291
0.288692
0.314186
0.00295498
0.0814782
-0.00113602
0.00318918
0.104233
0.00392526
0.110371
0.00498414
0.128706
0.00576032
0.149753
0.00626801
0.176324
0.00622902
0.209677
0.0052638
0.250085
0.00309907
0.290856
0.317285
0.00357481
0.0791836
-0.00128021
0.0041371
0.103671
0.00485314
0.109655
0.00598595
0.127573
0.00680327
0.148936
0.00731217
0.175815
0.00721485
0.209774
0.00607518
0.251225
0.00356099
0.293371
0.320846
0.0040044
0.0763815
-0.0012023
0.00504862
0.102626
0.00572918
0.108975
0.00692725
0.126375
0.00779441
0.148069
0.00832403
0.175285
0.00818799
0.20991
0.00689296
0.25252
0.004048
0.296216
0.324894
0.00382392
0.0732768
-0.000719192
0.00535992
0.10109
0.0060599
0.108275
0.00732633
0.125108
0.00824013
0.147155
0.00880775
0.174718
0.00867728
0.210041
0.00733775
0.253859
0.00429885
0.299254
0.329193
-0.0653759
0.0672213
0.0714314
-0.0595299
0.0952444
-0.0521504
0.100895
-0.0449809
0.117939
-0.0387482
0.140922
-0.032242
0.168212
-0.0253902
0.203189
-0.0178299
0.246299
-0.00913938
0.290564
0.320053
-0.0835707
0.0622218
0.0885703
-0.0749883
0.086662
-0.0654172
0.0913242
-0.0563249
0.108847
-0.049064
0.133662
-0.0411242
0.160272
-0.0329982
0.195063
-0.0237415
0.237042
-0.0127645
0.279587
0.307289
-0.100716
0.0554669
0.107471
-0.0898905
0.0758367
-0.0794672
0.0809009
-0.0695708
0.0989503
-0.0602404
0.124331
-0.0510325
0.151064
-0.0408863
0.184917
-0.0291467
0.225303
-0.0149794
0.26542
0.292309
-0.117
0.0461287
0.126338
-0.105525
0.0643616
-0.096098
0.0714741
-0.0860591
0.0889114
-0.0751741
0.113446
-0.0652596
0.141149
-0.0529149
0.172572
-0.0380735
0.210461
-0.020606
0.247952
0.271703
-0.136735
0.0342564
0.148608
-0.125035
0.0526608
-0.115846
0.0622854
-0.10573
0.0787951
-0.0934954
0.101212
-0.0813082
0.128962
-0.0656144
0.156878
-0.0465578
0.191405
-0.023872
0.225266
0.247831
-0.165016
0.0220061
0.177266
-0.15362
0.041265
-0.143991
0.0526562
-0.133516
0.06832
-0.119982
0.087678
-0.104181
0.113161
-0.0842643
0.136962
-0.0605237
0.167664
-0.0328054
0.197548
0.215026
-0.201777
0.0117143
0.212069
-0.19011
0.0295976
-0.178592
0.0411387
-0.165748
0.055476
-0.149174
0.0711035
-0.12809
0.0920766
-0.10236
0.111232
-0.0715383
0.136842
-0.035683
0.161693
0.179343
-0.245945
0.00545565
0.252203
-0.235418
0.0190712
-0.222905
0.0286256
-0.207282
0.0398526
-0.187205
0.0510266
-0.161073
0.0659449
-0.129476
0.0796349
-0.0915514
0.0989175
-0.0495051
0.119647
0.129838
-0.281861
0.00293471
0.284382
-0.271998
0.00920737
-0.257417
0.0140452
-0.237628
0.0200633
-0.212483
0.0258814
-0.180163
0.0336257
-0.141376
0.0408478
-0.093872
0.0514131
-0.0392476
0.0650221
0.0905901
-0.350696
0.353631
-0.341489
-0.327444
-0.30738
-0.281499
-0.247873
-0.207025
-0.155612
-0.0905901
-0.00482683
0.0738421
0.00241611
-0.00700687
0.0907503
-0.0090723
0.109536
-0.0112057
0.128472
-0.0135299
0.150932
-0.0149702
0.178707
-0.0152
0.212299
-0.0112667
0.24827
-0.00693169
0.280047
0.346699
-0.00629912
0.0758681
0.00427311
-0.00866959
0.0931208
-0.0109451
0.111812
-0.013108
0.130635
-0.0150185
0.152842
-0.0160758
0.179764
-0.0151892
0.211412
-0.0117507
0.244832
-0.00647418
0.274771
0.340225
-0.00770625
0.0773532
0.00622113
-0.0100614
0.0954759
-0.0122883
0.114038
-0.0143694
0.132716
-0.0160316
0.154505
-0.0166663
0.180399
-0.0153153
0.210061
-0.0114969
0.241013
-0.00621583
0.26949
0.334009
-0.00932702
0.0785349
0.00814531
-0.011619
0.0977679
-0.0136549
0.116074
-0.0154907
0.134551
-0.0167978
0.155812
-0.0169609
0.180562
-0.0151638
0.208264
-0.0110414
0.236891
-0.00583682
0.264285
0.328172
-0.0111592
0.0796701
0.0100241
-0.0134131
0.100022
-0.0151716
0.117833
-0.0166563
0.136036
-0.0175034
0.156659
-0.0171372
0.180196
-0.0148742
0.206001
-0.0105085
0.232525
-0.00538345
0.25916
0.322789
-0.013098
0.0809031
0.011865
-0.0152406
0.102164
-0.016653
0.119245
-0.0177313
0.137114
-0.0180687
0.156996
-0.0171596
0.179286
-0.0144437
0.203285
-0.00989074
0.227972
-0.00487346
0.254143
0.317915
-0.0150394
0.0822835
0.013659
-0.0169482
0.104073
-0.0179412
0.120238
-0.0185685
0.137742
-0.0183803
0.156808
-0.0169501
0.177856
-0.0138344
0.20017
-0.00915847
0.223296
-0.00430876
0.249293
0.313607
-0.0168647
0.0837885
0.0153597
-0.0184313
0.10564
-0.0189539
0.120761
-0.0191011
0.137889
-0.0183917
0.156099
-0.0164806
0.175945
-0.0130361
0.196725
-0.00830639
0.218567
-0.00369218
0.244679
0.309914
-0.0184437
0.0853416
0.0168906
-0.019594
0.10679
-0.0196346
0.120801
-0.0193031
0.137557
-0.0181019
0.154897
-0.0157649
0.173608
-0.0120693
0.193029
-0.00735415
0.213851
-0.00303272
0.240357
0.306882
-0.019651
0.0868301
0.0181625
-0.020353
0.107492
-0.0199373
0.120386
-0.0191587
0.136779
-0.0175236
0.153262
-0.0148288
0.170913
-0.010966
0.189167
-0.00633036
0.209216
-0.00234298
0.23637
0.304539
-0.0203832
0.0881104
0.0191029
-0.0206639
0.107773
-0.0198407
0.119562
-0.0186728
0.135611
-0.0166817
0.151271
-0.0137092
0.167941
-0.00976377
0.185221
-0.00526496
0.204717
-0.00163546
0.232741
0.302903
-0.0206462
0.0891109
0.0196457
-0.0205468
0.107674
-0.0193711
0.118387
-0.0178828
0.134123
-0.0155976
0.148986
-0.0124444
0.164787
-0.00848684
0.181264
-0.00417686
0.200407
-0.000929279
0.229493
0.301974
-0.0204795
0.089831
0.0197594
-0.0200343
0.107228
-0.018587
0.116939
-0.0168387
0.132374
-0.014338
0.146485
-0.0110823
0.161532
-0.00717113
0.177353
-0.00309181
0.196328
-0.000248303
0.22665
0.301726
-0.0198805
0.0902843
0.0194272
-0.0191532
0.106501
-0.0175238
0.11531
-0.0155842
0.130435
-0.0129497
0.143851
-0.00966694
0.158249
-0.00584797
0.173534
-0.00203691
0.192517
0.000446869
0.224166
0.302173
-0.0188848
0.09051
0.0186591
-0.0179494
0.105566
-0.01623
0.11359
-0.0141683
0.128373
-0.0114786
0.141161
-0.00823786
0.155008
-0.00454912
0.169845
-0.00103659
0.189004
0.00112734
0.222002
0.3033
-0.017563
0.0905737
0.0174994
-0.016493
0.104496
-0.0147703
0.111868
-0.0126533
0.126256
-0.0099801
0.138488
-0.00684037
0.151869
-0.00331329
0.166318
-0.000143344
0.185834
0.00176992
0.220089
0.30507
-0.0159719
0.0905565
0.0159891
-0.0148376
0.103361
-0.0131887
0.110219
-0.0110789
0.124146
-0.0084832
0.135892
-0.00549039
0.148876
-0.00215012
0.162977
0.000851149
0.182833
0.00238795
0.218552
0.307458
-0.014247
0.0905673
0.0142362
-0.0131016
0.102216
-0.0115886
0.108706
-0.00954584
0.122103
-0.0070746
0.133421
-0.00425882
0.14606
-0.00113439
0.159853
0.00167844
0.18002
0.00293595
0.217294
0.310394
-0.0122685
0.0906502
0.0121856
-0.0111968
0.101144
-0.00987223
0.107381
-0.007956
0.120187
-0.00565655
0.131122
-0.00304887
0.143452
-0.000193849
0.156998
0.00247422
0.177352
0.00346473
0.216304
0.313858
-0.0106752
0.0911437
0.0101817
-0.00964038
0.100109
-0.00852367
0.106265
-0.00677318
0.118437
-0.00463637
0.128985
-0.00220864
0.141025
0.000536413
0.154253
0.00299257
0.174896
0.00382374
0.215473
0.317682
-0.125855
0.0845724
0.132426
-0.113428
0.0876819
-0.102508
0.0953448
-0.088009
0.103938
-0.0715256
0.112501
-0.0532346
0.122734
-0.0343131
0.135331
-0.0170108
0.157594
-0.00536155
0.203823
0.312321
-0.12148
0.0762571
0.129795
-0.108055
0.0742571
-0.0969039
0.0841933
-0.0810823
0.0881166
-0.0649796
0.0963986
-0.047188
0.104942
-0.029617
0.117761
-0.014274
0.14225
-0.00446361
0.194013
0.307857
-0.116101
0.0654096
0.126948
-0.103329
0.0614854
-0.0916852
0.0725496
-0.0755826
0.072014
-0.0601679
0.0809839
-0.0430534
0.0878275
-0.0268428
0.10155
-0.0130036
0.128411
-0.00416241
0.185172
0.303695
-0.112081
0.0533572
0.124133
-0.100182
0.0495873
-0.0877991
0.0601662
-0.0722073
0.0564222
-0.0573697
0.0661463
-0.0411285
0.0715862
-0.025948
0.0863695
-0.0128789
0.115342
-0.00439404
0.176687
0.299301
-0.109631
0.0411471
0.121842
-0.0987126
0.0386684
-0.0856564
0.04711
-0.0715382
0.0423041
-0.0571624
0.0517704
-0.0419459
0.0563697
-0.0278029
0.0722265
-0.0154388
0.102978
-0.00608741
0.167335
0.293213
-0.109083
0.0307214
0.119509
-0.0988968
0.0284821
-0.0862798
0.034493
-0.0742636
0.0302879
-0.0607315
0.0382384
-0.0467831
0.0424213
-0.0333801
0.0588235
-0.0209977
0.0905957
-0.00980133
0.156139
0.283412
-0.112634
0.0203101
0.123046
-0.103804
0.0196522
-0.0926205
0.023309
-0.0832012
0.0208686
-0.071655
0.0266921
-0.0602212
0.0309874
-0.048434
0.0470363
-0.035613
0.0777747
-0.0197111
0.140237
0.263701
-0.138008
0.0112477
0.147071
-0.129457
0.0111006
-0.118845
0.012697
-0.110093
0.012117
-0.0994769
0.0160759
-0.0895045
0.0210151
-0.0781802
0.035712
-0.0629645
0.062559
-0.0391489
0.116422
0.224552
-0.20815
0.00370895
0.215689
-0.200861
0.00381171
-0.192456
0.00429204
-0.185438
0.00509835
-0.176806
0.00744394
-0.167485
0.0116941
-0.152811
0.0210378
-0.128249
0.0379977
-0.0826062
0.0707784
0.141946
-0.3041
0.307809
-0.300288
-0.295996
-0.290898
-0.283454
-0.27176
-0.250722
-0.212724
-0.141946
-0.00614622
0.131052
0.0075207
-0.00503332
0.128683
-0.00424271
0.126158
-0.00361981
0.12351
-0.0031197
0.121341
-0.00300927
0.119398
-0.0034286
0.123465
-0.00467863
0.148321
-0.00455585
0.215566
0.303253
-0.0042614
0.130566
0.00474738
-0.003682
0.128103
-0.00324188
0.125717
-0.00289046
0.123159
-0.00261713
0.121068
-0.00266498
0.119446
-0.00323857
0.124039
-0.00449427
0.149577
-0.00404962
0.215122
0.299203
-0.00173982
0.130373
0.00193282
-0.00171745
0.128081
-0.00175061
0.125751
-0.00179183
0.1232
-0.00183578
0.121112
-0.00211681
0.119727
-0.00284626
0.124768
-0.0040637
0.150794
-0.00368225
0.21474
0.295521
0.000698526
0.130618
-0.000943632
0.000196864
0.128582
-0.000263476
0.126211
-0.000631476
0.123568
-0.000962626
0.121443
-0.00148313
0.120248
-0.00235791
0.125643
-0.0035601
0.151996
-0.00326524
0.214445
0.292256
0.00320018
0.131354
-0.00393656
0.00230127
0.129481
0.00144532
0.127067
0.00063741
0.124376
-8.60351e-05
0.122167
-0.000793017
0.120955
-0.00178972
0.126639
-0.00298813
0.153195
-0.00280455
0.214262
0.289451
0.00569895
0.132613
-0.00695799
0.00436541
0.130815
0.003149
0.128283
0.00202998
0.125495
0.00103297
0.123164
-8.13931e-05
0.122069
-0.00114665
0.127705
-0.00235408
0.154402
-0.00230785
0.214216
0.287143
0.00827364
0.134371
-0.0100307
0.00650377
0.132585
0.00491299
0.129874
0.00345757
0.12695
0.0021639
0.124457
0.000874858
0.123358
-0.000430895
0.12901
-0.00166723
0.155638
-0.00178115
0.21433
0.285362
0.0109248
0.136603
-0.0131573
0.0087225
0.134787
0.00675425
0.131842
0.00495197
0.128752
0.00334802
0.126061
0.00183414
0.124872
0.000345263
0.130499
-0.000943416
0.156927
-0.00122847
0.214615
0.284134
0.0136462
0.13929
-0.0163335
0.0110115
0.137422
0.00866749
0.134186
0.00651344
0.130906
0.00458697
0.127988
0.00282628
0.126633
0.00117483
0.132151
-0.00021388
0.158316
-0.000650341
0.215051
0.283483
0.0164263
-0.0195314
0.0133664
0.0106497
0.00813567
0.00587279
0.00385573
0.0020357
0.000608803
-2.04569e-05
-0.000169331
-0.000286219
-0.000236688
-0.000595339
-9.8511e-05
-0.000746161
0.000303289
-0.000783288
0.00100891
-0.000717841
0.0020495
-0.000548592
0.00344291
-0.000279093
0.00517682
6.49153e-05
0.00713064
0.000428574
0.000616405
-0.00016757
-0.000118649
-0.000250685
-0.000512224
-0.000167714
-0.000829132
0.000116644
-0.00106765
0.000617658
-0.00121886
0.00134152
-0.00127245
0.00228441
-0.00122199
0.00342435
-0.00107502
0.00472927
-0.000876349
-0.000788887
-0.000128922
1.02733e-05
-0.000147421
-0.000493725
5.769e-06
-0.000982323
0.000347247
-0.00140912
0.000875957
-0.00174757
0.0015827
-0.00197919
0.002456
-0.00209529
0.00348531
-0.00210433
0.00466458
-0.00205562
-0.00208589
-5.56211e-05
6.58945e-05
6.64641e-05
-0.00061581
0.000408628
-0.00132449
0.000975264
-0.00197576
0.00175197
-0.00252427
0.00271801
-0.00294524
0.00385333
-0.0032306
0.00514251
-0.00339351
0.00657434
-0.00348745
-0.00360384
4.66736e-05
1.92208e-05
0.000369255
-0.000938392
0.000994997
-0.00195023
0.00191471
-0.00289547
0.00310061
-0.00371017
0.00451717
-0.0043618
0.00612877
-0.0048422
0.00790135
-0.0051661
0.00979713
-0.00538323
-0.00554968
0.000164787
-0.000145567
0.000728945
-0.00150255
0.00169508
-0.00291636
0.00303607
-0.00423646
0.00470405
-0.00537815
0.00664137
-0.00629912
0.0087894
-0.00699023
0.0110902
-0.00746685
0.0134777
-0.00777076
-0.00795012
0.000290764
-0.00043633
0.00111103
-0.00232282
0.00243129
-0.00423662
0.00419414
-0.00599931
0.00631977
-0.00750379
0.00871924
-0.00869859
0.0113058
-0.00957679
0.0139991
-0.0101602
0.0167188
-0.0104905
-0.0106214
0.000414907
-0.000851237
0.00148269
-0.00339061
0.00312832
-0.00588225
0.00524772
-0.00811871
0.00771551
-0.00997158
0.010404
-0.0113871
0.0131981
-0.0123708
0.0160013
-0.0129635
0.0187345
-0.0132237
-0.0132137
0.000529425
-0.00138066
0.0018142
-0.00467538
0.00371675
-0.0077848
0.00606915
-0.0104711
0.00869038
-0.0125928
0.0114137
-0.0141104
0.0141036
-0.0150607
0.0166612
-0.0155211
0.0190216
-0.0155841
-0.0153314
0.000627227
-0.00200789
0.00207788
-0.00612603
0.00413404
-0.00984095
0.00655191
-0.012889
0.00909523
-0.0151361
0.0115698
-0.016585
0.0138385
-0.0173294
0.0158202
-0.0175027
0.017481
-0.0172449
-0.0166768
0.000715533
-0.00272342
0.00227251
-0.00768301
0.00435905
-0.0119275
0.00665634
-0.0151863
0.00888925
-0.017369
0.0108613
-0.0185571
0.0124595
-0.0189275
0.0136424
-0.0186857
0.0144237
-0.0180262
-0.017119
0.000767226
-0.00349065
0.00234225
-0.00925803
0.0043174
-0.0139027
0.00631572
-0.0171846
0.00805237
-0.0191057
0.00935782
-0.0198626
0.0101649
-0.0197346
0.0104833
-0.0190041
0.0103758
-0.0179187
-0.0166836
0.000783402
-0.00427405
0.00228689
-0.0107615
0.00402103
-0.0156368
0.00558298
-0.0187465
0.0067126
-0.0202353
0.00729102
-0.020441
0.00730626
-0.0197498
0.00681575
-0.0185136
0.00591477
-0.0170177
-0.0154718
0.000759125
-0.00503317
0.00210446
-0.0121069
0.00349513
-0.0170275
0.00454094
-0.0197924
0.00503398
-0.0207283
0.0049159