/*--------------------------------*- C++ -*----------------------------------*\
  =========                 |
  \\      /  F ield         | OpenFOAM: The Open Source CFD Toolbox
   \\    /   O peration     | Website:  https://openfoam.org
    \\  /    A nd           | Version:  7
     \\/     M anipulation  |
\*---------------------------------------------------------------------------*/
FoamFile
{
    version     2.0;
    format      ascii;
    class       volScalarField;
    location    "2";
    object      p;
}
// * * * * * * * * * * * * * * * * * * * * * * * * * * * * * * * * * * * * * //

dimensions      [0 2 -2 0 0 0 0];

internalField   nonuniform List<scalar> 
32000
(
1.50447
1.50397
1.50466
1.5057
1.50704
1.50856
1.51017
1.51184
1.51359
1.5154
1.51729
1.51928
1.52145
1.52386
1.52655
1.52951
1.53269
1.53606
1.53954
1.54311
1.5467
1.5503
1.55388
1.55741
1.56087
1.56424
1.56749
1.57061
1.5736
1.57644
1.57915
1.58173
1.58418
1.58652
1.58876
1.59092
1.59298
1.59498
1.59692
1.59865
1.49975
1.49945
1.5002
1.50129
1.50264
1.50412
1.50566
1.50724
1.50886
1.51055
1.51229
1.51412
1.51612
1.51837
1.5209
1.52372
1.52679
1.53006
1.53347
1.53697
1.54052
1.54408
1.54763
1.55115
1.5546
1.55797
1.56122
1.56434
1.56731
1.57014
1.57283
1.57538
1.5778
1.5801
1.5823
1.5844
1.58642
1.58835
1.59022
1.5919
1.49496
1.49489
1.49572
1.49685
1.49822
1.49967
1.50114
1.50262
1.50412
1.50566
1.50724
1.5089
1.51074
1.51282
1.51521
1.51788
1.52083
1.52399
1.52732
1.53076
1.53426
1.53779
1.54132
1.54482
1.54826
1.55163
1.55488
1.55799
1.56095
1.56376
1.56642
1.56894
1.57133
1.57359
1.57575
1.57781
1.57977
1.58164
1.58345
1.58507
1.49015
1.4903
1.4912
1.49239
1.49377
1.4952
1.49661
1.49799
1.49936
1.50074
1.50216
1.50365
1.50532
1.50725
1.50948
1.51201
1.51482
1.51788
1.52112
1.5245
1.52796
1.53145
1.53495
1.53843
1.54187
1.54523
1.54848
1.55158
1.55453
1.55731
1.55995
1.56244
1.56479
1.56702
1.56914
1.57114
1.57304
1.57486
1.57659
1.57817
1.48536
1.48572
1.48669
1.48793
1.48933
1.49074
1.49208
1.49335
1.49459
1.49582
1.49706
1.49839
1.4999
1.50166
1.50373
1.50611
1.5088
1.51174
1.5149
1.51821
1.52161
1.52507
1.52854
1.53202
1.53545
1.5388
1.54204
1.54512
1.54805
1.55081
1.55342
1.55588
1.5582
1.56039
1.56246
1.56441
1.56625
1.568
1.56967
1.57119
1.48056
1.48114
1.48216
1.48346
1.48488
1.48626
1.48755
1.48873
1.48983
1.4909
1.49198
1.49314
1.49448
1.49607
1.49798
1.50022
1.50277
1.5056
1.50867
1.5119
1.51525
1.51867
1.52212
1.52558
1.529
1.53235
1.53556
1.53863
1.54153
1.54427
1.54685
1.54927
1.55156
1.55371
1.55573
1.55762
1.5594
1.56109
1.56269
1.56415
1.47578
1.47657
1.47766
1.47901
1.48044
1.48181
1.48304
1.48412
1.4851
1.48601
1.48692
1.48791
1.48908
1.49051
1.49225
1.49434
1.49676
1.49948
1.50245
1.5056
1.50889
1.51227
1.5157
1.51915
1.52256
1.52588
1.52907
1.53211
1.53499
1.53769
1.54024
1.54263
1.54488
1.54698
1.54895
1.55079
1.55251
1.55412
1.55565
1.55705
1.47104
1.47203
1.47317
1.47458
1.47603
1.47739
1.47856
1.47955
1.4804
1.48116
1.4819
1.48272
1.48371
1.48498
1.48656
1.4885
1.49079
1.49339
1.49626
1.49932
1.50255
1.50589
1.5093
1.51272
1.51611
1.51941
1.52258
1.52559
1.52843
1.5311
1.53361
1.53597
1.53817
1.54023
1.54214
1.54392
1.54557
1.54711
1.54856
1.5499
1.46634
1.46752
1.46873
1.47018
1.47165
1.473
1.47412
1.47502
1.47574
1.47635
1.47693
1.47758
1.4784
1.4795
1.48093
1.48272
1.48487
1.48735
1.4901
1.49308
1.49625
1.49954
1.50293
1.50633
1.50969
1.51296
1.51609
1.51906
1.52187
1.52451
1.52698
1.52929
1.53144
1.53344
1.5353
1.53701
1.5386
1.54007
1.54144
1.54271
1.46169
1.46305
1.46432
1.46582
1.46731
1.46865
1.46972
1.47054
1.47114
1.47161
1.47202
1.4725
1.47315
1.47409
1.47536
1.477
1.47902
1.48137
1.48401
1.4869
1.49
1.49325
1.4966
1.49997
1.50329
1.50652
1.50961
1.51255
1.51532
1.51792
1.52035
1.52261
1.52471
1.52664
1.52843
1.53008
1.5316
1.533
1.53429
1.53549
1.45709
1.45863
1.45995
1.4615
1.46301
1.46434
1.46537
1.4661
1.46659
1.46692
1.46718
1.46749
1.46798
1.46875
1.46986
1.47136
1.47324
1.47546
1.47799
1.48079
1.48382
1.48702
1.49033
1.49365
1.49694
1.50012
1.50317
1.50606
1.50879
1.51134
1.51372
1.51593
1.51796
1.51984
1.52156
1.52315
1.52459
1.52591
1.52712
1.52825
1.45255
1.45425
1.45564
1.45723
1.45876
1.46007
1.46106
1.46172
1.46211
1.46231
1.46242
1.46256
1.46289
1.46349
1.46446
1.46581
1.46755
1.46964
1.47205
1.47476
1.47772
1.48087
1.48412
1.4874
1.49063
1.49377
1.49677
1.49961
1.50229
1.50479
1.50711
1.50926
1.51123
1.51304
1.51469
1.5162
1.51758
1.51881
1.51994
1.52099
1.44807
1.44993
1.45137
1.453
1.45455
1.45585
1.4568
1.4574
1.4577
1.45777
1.45773
1.45772
1.45788
1.45833
1.45915
1.46036
1.46195
1.46391
1.46621
1.46882
1.47171
1.47479
1.47798
1.4812
1.48438
1.48746
1.49041
1.4932
1.49583
1.49827
1.50053
1.50261
1.50451
1.50625
1.50783
1.50927
1.51056
1.51172
1.51276
1.51373
1.44366
1.44567
1.44716
1.44883
1.45038
1.45167
1.45259
1.45313
1.45334
1.45329
1.45311
1.45295
1.45296
1.45326
1.45393
1.455
1.45645
1.45828
1.46047
1.46299
1.4658
1.4688
1.47193
1.47508
1.4782
1.48122
1.48411
1.48684
1.48941
1.49179
1.49398
1.49599
1.49782
1.49948
1.50099
1.50235
1.50356
1.50463
1.50558
1.50647
1.43931
1.44145
1.44299
1.44469
1.44625
1.44753
1.44843
1.44892
1.44905
1.44889
1.44858
1.44827
1.44814
1.44829
1.44882
1.44974
1.45106
1.45276
1.45484
1.45726
1.45998
1.46291
1.46595
1.46904
1.47208
1.47504
1.47787
1.48054
1.48304
1.48536
1.48748
1.48941
1.49116
1.49275
1.49418
1.49546
1.49659
1.49757
1.49842
1.49922
1.43502
1.43728
1.43886
1.4406
1.44217
1.44344
1.44432
1.44477
1.44481
1.44455
1.44412
1.44368
1.4434
1.44341
1.44379
1.44458
1.44576
1.44735
1.44932
1.45164
1.45427
1.45711
1.46007
1.46308
1.46605
1.46894
1.4717
1.47431
1.47673
1.47897
1.48101
1.48287
1.48454
1.48605
1.4874
1.4886
1.48964
1.49053
1.49129
1.492
1.43078
1.43314
1.43477
1.43654
1.43812
1.4394
1.44025
1.44066
1.44063
1.44027
1.43973
1.43917
1.43875
1.43862
1.43886
1.43951
1.44058
1.44204
1.44391
1.44613
1.44866
1.45141
1.45428
1.4572
1.4601
1.46291
1.4656
1.46813
1.47048
1.47264
1.4746
1.47638
1.47797
1.4794
1.48067
1.48178
1.48273
1.48352
1.48418
1.4848
1.42659
1.42904
1.43072
1.43251
1.4341
1.43538
1.43622
1.43659
1.4365
1.43606
1.43541
1.43473
1.43418
1.43392
1.43402
1.43455
1.43549
1.43684
1.4386
1.44073
1.44316
1.44581
1.44858
1.45141
1.45423
1.45696
1.45957
1.46202
1.46429
1.46636
1.46825
1.46994
1.47145
1.4728
1.47398
1.475
1.47586
1.47655
1.47712
1.47765
1.42244
1.42497
1.42669
1.42851
1.43012
1.4314
1.43222
1.43255
1.4324
1.43189
1.43115
1.43036
1.42969
1.42929
1.42927
1.42966
1.43049
1.43175
1.4334
1.43543
1.43775
1.44029
1.44297
1.44571
1.44844
1.4511
1.45362
1.45598
1.45816
1.46015
1.46195
1.46356
1.46499
1.46625
1.46735
1.46828
1.46904
1.46964
1.4701
1.47055
1.41833
1.42092
1.42267
1.42452
1.42615
1.42743
1.42825
1.42854
1.42834
1.42776
1.42693
1.42604
1.42526
1.42474
1.42459
1.42487
1.42559
1.42674
1.4283
1.43022
1.43244
1.43487
1.43745
1.4401
1.44274
1.4453
1.44774
1.45001
1.4521
1.454
1.45571
1.45724
1.45858
1.45976
1.46077
1.46161
1.46228
1.46278
1.46315
1.4635
1.41423
1.41687
1.41866
1.42055
1.4222
1.42348
1.42428
1.42454
1.4243
1.42365
1.42275
1.42177
1.42088
1.42024
1.41998
1.42014
1.42076
1.42182
1.42328
1.4251
1.42721
1.42954
1.43202
1.43457
1.43711
1.43959
1.44193
1.44411
1.4461
1.44791
1.44954
1.45098
1.45224
1.45334
1.45426
1.45501
1.45559
1.45599
1.45626
1.45653
1.41015
1.41283
1.41466
1.41657
1.41824
1.41953
1.42032
1.42055
1.42026
1.41956
1.41859
1.41752
1.41654
1.4158
1.41542
1.41549
1.416
1.41697
1.41833
1.42005
1.42206
1.42429
1.42666
1.42911
1.43156
1.43394
1.43618
1.43827
1.44017
1.44189
1.44343
1.44479
1.44597
1.44698
1.44782
1.44848
1.44896
1.44927
1.44945
1.44964
1.40607
1.40878
1.41064
1.41259
1.41428
1.41558
1.41635
1.41655
1.41623
1.41548
1.41444
1.4133
1.41222
1.41139
1.41092
1.41088
1.41131
1.41218
1.41346
1.41509
1.41699
1.41911
1.42138
1.42373
1.42608
1.42836
1.4305
1.43249
1.4343
1.43594
1.43739
1.43866
1.43976
1.44069
1.44144
1.44202
1.44241
1.44264
1.44273
1.44283
1.40198
1.40471
1.40661
1.40859
1.41031
1.4116
1.41236
1.41254
1.41218
1.41138
1.41029
1.40908
1.40793
1.40701
1.40645
1.40633
1.40667
1.40746
1.40865
1.41018
1.41199
1.414
1.41617
1.41842
1.42066
1.42283
1.42488
1.42677
1.4285
1.43004
1.43141
1.43259
1.43361
1.43446
1.43514
1.43563
1.43595
1.43609
1.4361
1.43613
1.39789
1.40063
1.40255
1.40457
1.4063
1.40761
1.40836
1.40851
1.40811
1.40727
1.40612
1.40485
1.40364
1.40265
1.40201
1.40181
1.40207
1.40278
1.4039
1.40534
1.40705
1.40896
1.41102
1.41316
1.4153
1.41736
1.41931
1.42111
1.42275
1.42421
1.42549
1.42659
1.42753
1.42831
1.42891
1.42933
1.42958
1.42964
1.42957
1.42953
1.39376
1.39651
1.39847
1.40051
1.40227
1.40357
1.40431
1.40444
1.40401
1.40312
1.40193
1.40061
1.39935
1.39829
1.39759
1.39732
1.39751
1.39815
1.39918
1.40054
1.40215
1.40397
1.40592
1.40795
1.40998
1.41195
1.4138
1.4155
1.41705
1.41842
1.41962
1.42065
1.42152
1.42222
1.42276
1.42312
1.42329
1.42329
1.42315
1.42305
1.38962
1.39237
1.39434
1.39641
1.39819
1.3995
1.40022
1.40033
1.39986
1.39894
1.39771
1.39635
1.39504
1.39393
1.39317
1.39284
1.39297
1.39354
1.39451
1.39579
1.39731
1.39902
1.40087
1.40279
1.40471
1.40657
1.40833
1.40994
1.4114
1.4127
1.41382
1.41478
1.41558
1.41622
1.41669
1.41699
1.41711
1.41705
1.41686
1.4167
1.38543
1.38818
1.39017
1.39227
1.39405
1.39537
1.39609
1.39617
1.39567
1.39471
1.39345
1.39206
1.39071
1.38956
1.38875
1.38836
1.38844
1.38896
1.38986
1.39106
1.39249
1.3941
1.39585
1.39766
1.39948
1.40124
1.40289
1.40442
1.4058
1.40701
1.40806
1.40896
1.4097
1.41028
1.41071
1.41095
1.41103
1.41093
1.41068
1.41048
1.38119
1.38394
1.38595
1.38806
1.38986
1.39118
1.39189
1.39195
1.39142
1.39043
1.38914
1.38772
1.38634
1.38517
1.38432
1.38389
1.38392
1.3844
1.38523
1.38636
1.3877
1.38922
1.39086
1.39257
1.39428
1.39593
1.3975
1.39894
1.40023
1.40138
1.40236
1.40319
1.40388
1.40442
1.4048
1.40501
1.40505
1.40492
1.40464
1.4044
1.3769
1.37965
1.38166
1.38379
1.38561
1.38693
1.38762
1.38766
1.3871
1.38609
1.38478
1.38334
1.38194
1.38074
1.37987
1.37941
1.37941
1.37984
1.38062
1.38167
1.38293
1.38436
1.3859
1.3875
1.38911
1.39066
1.39213
1.39348
1.3947
1.39577
1.3967
1.39748
1.39812
1.39862
1.39897
1.39915
1.39917
1.39903
1.39874
1.39848
1.37254
1.37529
1.37731
1.37945
1.38128
1.3826
1.38328
1.3833
1.38272
1.38168
1.38036
1.37891
1.3775
1.37629
1.3754
1.37492
1.37489
1.37528
1.37601
1.37699
1.37817
1.37951
1.38096
1.38245
1.38395
1.3854
1.38678
1.38805
1.38919
1.3902
1.39107
1.39181
1.39241
1.39288
1.39321
1.39338
1.3934
1.39326
1.39298
1.39273
1.36812
1.37086
1.37289
1.37504
1.37687
1.37819
1.37887
1.37886
1.37826
1.37721
1.37587
1.37442
1.37301
1.3718
1.3709
1.37042
1.37037
1.37073
1.3714
1.37232
1.37342
1.37467
1.37602
1.37742
1.37881
1.38017
1.38145
1.38264
1.38371
1.38466
1.38548
1.38617
1.38674
1.38719
1.38751
1.38769
1.38772
1.38761
1.38736
1.38714
1.36361
1.36637
1.36839
1.37054
1.37238
1.3737
1.37436
1.37434
1.37373
1.37267
1.37133
1.36988
1.36848
1.36727
1.36639
1.3659
1.36584
1.36616
1.36679
1.36765
1.36868
1.36984
1.37109
1.37239
1.37368
1.37494
1.37613
1.37723
1.37824
1.37913
1.3799
1.38056
1.3811
1.38154
1.38186
1.38206
1.38214
1.38207
1.38189
1.38172
1.35902
1.36179
1.36381
1.36597
1.36781
1.36912
1.36978
1.36974
1.36912
1.36806
1.36673
1.36529
1.3639
1.36271
1.36184
1.36136
1.3613
1.36159
1.36217
1.36297
1.36393
1.365
1.36616
1.36736
1.36855
1.36971
1.37082
1.37184
1.37277
1.37361
1.37433
1.37495
1.37548
1.37591
1.37625
1.37649
1.37662
1.37663
1.37654
1.37647
1.35435
1.35713
1.35915
1.36131
1.36315
1.36446
1.3651
1.36506
1.36444
1.36338
1.36206
1.36064
1.35928
1.35811
1.35727
1.3568
1.35674
1.35701
1.35755
1.35829
1.35917
1.36016
1.36123
1.36233
1.36343
1.36449
1.3655
1.36645
1.36731
1.36808
1.36876
1.36935
1.36986
1.37029
1.37065
1.37094
1.37114
1.37126
1.37129
1.37136
1.34959
1.35239
1.35442
1.35658
1.35841
1.35971
1.36034
1.3603
1.35968
1.35863
1.35733
1.35594
1.35461
1.35348
1.35266
1.35222
1.35216
1.35241
1.35291
1.35359
1.3544
1.35531
1.35629
1.35729
1.35829
1.35926
1.36019
1.36105
1.36184
1.36255
1.36318
1.36373
1.36422
1.36466
1.36504
1.36538
1.36567
1.36591
1.36611
1.36637
1.34474
1.34758
1.3496
1.35176
1.35359
1.35487
1.3555
1.35545
1.35484
1.35381
1.35254
1.35118
1.3499
1.34881
1.34803
1.34762
1.34756
1.3478
1.34826
1.34888
1.34962
1.35045
1.35134
1.35225
1.35315
1.35403
1.35487
1.35565
1.35636
1.357
1.35758
1.35809
1.35855
1.35897
1.35938
1.35977
1.36015
1.36053
1.36093
1.36145
1.3398
1.34268
1.34471
1.34687
1.34868
1.34995
1.35057
1.35053
1.34993
1.34893
1.34769
1.34638
1.34514
1.34411
1.34338
1.34299
1.34294
1.34317
1.34359
1.34416
1.34483
1.34558
1.34638
1.34719
1.348
1.34879
1.34953
1.35023
1.35086
1.35143
1.35193
1.35239
1.35281
1.35321
1.35362
1.35405
1.35452
1.35504
1.35568
1.35653
1.33477
1.33771
1.33973
1.34189
1.34369
1.34495
1.34557
1.34553
1.34495
1.34398
1.34279
1.34153
1.34035
1.33938
1.3387
1.33835
1.33831
1.33852
1.33891
1.33943
1.34003
1.3407
1.34141
1.34213
1.34284
1.34353
1.34418
1.34479
1.34533
1.34582
1.34625
1.34664
1.34699
1.34735
1.34772
1.34814
1.34864
1.34929
1.35023
1.35164
1.32967
1.33266
1.33468
1.33683
1.33862
1.33987
1.34049
1.34047
1.33991
1.33898
1.33784
1.33665
1.33553
1.33463
1.334
1.33369
1.33367
1.33386
1.33422
1.33468
1.33522
1.33581
1.33643
1.33705
1.33767
1.33826
1.33882
1.33933
1.33978
1.34018
1.34052
1.34082
1.34109
1.34136
1.34164
1.34196
1.34235
1.3429
1.34376
1.3457
1.60372
1.61217
1.61881
1.62564
1.63165
1.63739
1.64285
1.64816
1.65332
1.6582
1.66287
1.66742
1.6718
1.67599
1.68001
1.68393
1.68778
1.69157
1.69536
1.69913
1.70293
1.70672
1.71049
1.71431
1.71814
1.72194
1.72571
1.72941
1.73303
1.73654
1.73987
1.74311
1.74606
1.74896
1.75143
1.75407
1.75593
1.75875
1.75942
1.76442
1.59683
1.6059
1.61294
1.62013
1.62633
1.63229
1.63793
1.64335
1.64855
1.65357
1.65838
1.66299
1.66737
1.67165
1.67576
1.67972
1.68357
1.6874
1.69125
1.69508
1.69889
1.7027
1.70653
1.71036
1.71422
1.71807
1.72185
1.72557
1.72916
1.73269
1.73604
1.73927
1.74223
1.74512
1.74761
1.75027
1.75214
1.75497
1.75569
1.76071
1.58986
1.59957
1.60701
1.61455
1.62097
1.62715
1.63296
1.6385
1.64376
1.64891
1.65385
1.65852
1.66292
1.66728
1.67148
1.67547
1.67935
1.68323
1.68712
1.69101
1.69484
1.69867
1.70256
1.70641
1.71029
1.71418
1.71798
1.72172
1.7253
1.72885
1.73222
1.73546
1.73843
1.74133
1.74385
1.74652
1.74843
1.75128
1.75203
1.75709
1.58283
1.59311
1.60101
1.60892
1.6156
1.62197
1.62794
1.63362
1.63898
1.64423
1.64925
1.65399
1.65847
1.66288
1.66714
1.67119
1.67513
1.67906
1.68298
1.68691
1.69078
1.69465
1.69858
1.70247
1.70637
1.71027
1.71409
1.71786
1.72147
1.72503
1.72842
1.73167
1.73467
1.73759
1.74013
1.74283
1.74477
1.74765
1.74845
1.75355
1.57572
1.58666
1.59495
1.60325
1.6102
1.61677
1.62288
1.6287
1.6342
1.63952
1.64462
1.64943
1.65401
1.65846
1.66277
1.66689
1.67089
1.67487
1.67883
1.68278
1.68671
1.69063
1.69458
1.69851
1.70244
1.70636
1.7102
1.714
1.71764
1.72123
1.72463
1.72791
1.73094
1.73389
1.73647
1.7392
1.74118
1.7441
1.74494
1.75008
1.56854
1.58015
1.58885
1.59755
1.60477
1.61154
1.6178
1.62376
1.62938
1.63479
1.63996
1.64486
1.64952
1.65403
1.65838
1.66256
1.66663
1.67067
1.67466
1.67865
1.68263
1.68659
1.69058
1.69455
1.6985
1.70245
1.70632
1.71014
1.71382
1.71743
1.72086
1.72418
1.72725
1.73024
1.73286
1.73563
1.73765
1.74061
1.74149
1.74669
1.56129
1.57359
1.58271
1.59181
1.5993
1.60628
1.61269
1.61879
1.62454
1.63003
1.63529
1.64026
1.64501
1.64957
1.65398
1.65823
1.66236
1.66644
1.67049
1.67451
1.67854
1.68255
1.68657
1.69058
1.69456
1.69853
1.70244
1.70629
1.71001
1.71365
1.71712
1.72048
1.72359
1.72663
1.72929
1.7321
1.73417
1.73718
1.73811
1.74336
1.55398
1.56698
1.57654
1.58605
1.5938
1.60099
1.60757
1.6138
1.61967
1.62526
1.63059
1.63565
1.64047
1.6451
1.64956
1.65387
1.65807
1.66221
1.66629
1.67037
1.67444
1.6785
1.68255
1.6866
1.69061
1.69462
1.69856
1.70244
1.70621
1.70989
1.71339
1.7168
1.71996
1.72305
1.72577
1.72863
1.73075
1.73382
1.7348
1.74009
1.54663
1.56034
1.57033
1.58027
1.58828
1.59568
1.60242
1.60879
1.61478
1.62047
1.62589
1.63102
1.63592
1.64061
1.64513
1.6495
1.65377
1.65795
1.66209
1.66621
1.67033
1.67443
1.67852
1.68261
1.68666
1.6907
1.69468
1.6986
1.70241
1.70614
1.70969
1.71314
1.71635
1.71951
1.72229
1.72521
1.72739
1.73051
1.73155
1.73689
1.53924
1.55367
1.5641
1.57446
1.58274
1.59036
1.59726
1.60377
1.60988
1.61567
1.62117
1.62638
1.63135
1.6361
1.64069
1.64512
1.64944
1.65368
1.65787
1.66204
1.66621
1.67036
1.67449
1.67862
1.68271
1.68678
1.6908
1.69477
1.69862
1.70239
1.706
1.70951
1.71278
1.716
1.71884
1.72183
1.72408
1.72726
1.72836
1.73375
1.53181
1.54697
1.55786
1.56864
1.57719
1.58502
1.59209
1.59873
1.60497
1.61085
1.61645
1.62172
1.62677
1.63159
1.63624
1.64073
1.64511
1.6494
1.65363
1.65786
1.66207
1.66628
1.67045
1.67462
1.67875
1.68286
1.68693
1.69093
1.69484
1.69866
1.70232
1.7059
1.70923
1.71252
1.71544
1.7185
1.72082
1.72407
1.72523
1.73068
1.52437
1.54026
1.55161
1.56281
1.57163
1.57966
1.58691
1.59369
1.60005
1.60603
1.61171
1.61706
1.62218
1.62707
1.63178
1.63633
1.64076
1.6451
1.64939
1.65367
1.65793
1.66219
1.6664
1.67061
1.67479
1.67894
1.68305
1.6871
1.69106
1.69494
1.69866
1.7023
1.7057
1.70907
1.71207
1.71521
1.71761
1.72094
1.72217
1.72767
1.51691
1.53355
1.54536
1.55698
1.56606
1.57431
1.58172
1.58865
1.59512
1.60121
1.60698
1.6124
1.61759
1.62254
1.62732
1.63193
1.63641
1.6408
1.64514
1.64947
1.65378
1.65809
1.66234
1.66659
1.67082
1.67501
1.67917
1.68327
1.68728
1.69122
1.69501
1.69872
1.7022
1.70565
1.70874
1.71197
1.71445
1.71786
1.71916
1.72472
1.50946
1.52684
1.53911
1.55114
1.56049
1.56895
1.57654
1.5836
1.5902
1.59639
1.60224
1.60774
1.613
1.61802
1.62285
1.62752
1.63204
1.63649
1.64088
1.64526
1.64962
1.65397
1.65828
1.66257
1.66685
1.67108
1.67528
1.67944
1.6835
1.68751
1.69136
1.69516
1.69871
1.70226
1.70544
1.70877
1.71134
1.71483
1.71621
1.72183
1.50201
1.52014
1.53288
1.54532
1.55493
1.5636
1.57135
1.57856
1.58528
1.59157
1.5975
1.60309
1.60841
1.61349
1.61839
1.6231
1.62768
1.63217
1.63661
1.64105
1.64545
1.64985
1.6542
1.65854
1.66287
1.66715
1.67139
1.67561
1.67973
1.68381
1.68773
1.69161
1.69525
1.6989
1.70218
1.70561
1.70828
1.71187
1.71332
1.719
1.49459
1.51346
1.52667
1.5395
1.54937
1.55825
1.56617
1.57353
1.58036
1.58675
1.59277
1.59843
1.60383
1.60897
1.61392
1.61868
1.62331
1.62785
1.63234
1.63682
1.64127
1.64572
1.65012
1.6545
1.65888
1.66321
1.6675
1.67177
1.67596
1.68011
1.68411
1.68808
1.69181
1.69556
1.69896
1.7025
1.70527
1.70895
1.7105
1.71624
1.48719
1.50681
1.52049
1.5337
1.54382
1.55291
1.561
1.5685
1.57545
1.58194
1.58804
1.59378
1.59925
1.60445
1.60945
1.61426
1.61893
1.62353
1.62806
1.63259
1.63709
1.64158
1.64603
1.65045
1.65488
1.65926
1.66361
1.66794
1.67219
1.67641
1.68049
1.68456
1.68839
1.69225
1.69576
1.69943
1.70231
1.7061
1.70773
1.71355
1.47984
1.5002
1.51435
1.52793
1.53829
1.54759
1.55585
1.56349
1.57056
1.57714
1.58333
1.58915
1.59467
1.59994
1.60499
1.60984
1.61456
1.61921
1.62378
1.62836
1.6329
1.63743
1.64194
1.6464
1.65087
1.65531
1.65971
1.6641
1.66843
1.67272
1.67688
1.68104
1.68499
1.68897
1.6926
1.69639
1.6994
1.70331
1.70503
1.71092
1.47254
1.49364
1.50825
1.52217
1.53278
1.54229
1.55072
1.5585
1.56568
1.57236
1.57863
1.58452
1.59011
1.59543
1.60053
1.60543
1.6102
1.61489
1.61951
1.62413
1.62871
1.63328
1.63783
1.64235
1.64686
1.65135
1.65581
1.66026
1.66466
1.66903
1.67328
1.67754
1.6816
1.68571
1.68947
1.6934
1.69654
1.70057
1.7024
1.70836
1.46531
1.48714
1.50221
1.51646
1.5273
1.53702
1.54562
1.55353
1.56082
1.5676
1.57394
1.57992
1.58557
1.59094
1.59609
1.60104
1.60585
1.61057
1.61524
1.61989
1.62452
1.62913
1.63372
1.63829
1.64284
1.64739
1.6519
1.65641
1.66089
1.66534
1.66968
1.67404
1.67823
1.68246
1.68636
1.69045
1.69373
1.6979
1.69983
1.70588
1.45816
1.48071
1.49622
1.51077
1.52185
1.53177
1.54054
1.54859
1.55599
1.56286
1.56928
1.57533
1.58104
1.58647
1.59167
1.59665
1.6015
1.60627
1.61097
1.61566
1.62033
1.62497
1.62961
1.63422
1.63881
1.64342
1.64799
1.65257
1.65711
1.66165
1.66608
1.67056
1.67486
1.67924
1.68329
1.68754
1.69097
1.69529
1.69733
1.70347
1.45109
1.47435
1.4903
1.50513
1.51644
1.52657
1.5355
1.54368
1.55118
1.55815
1.56465
1.57077
1.57654
1.58201
1.58726
1.59228
1.59716
1.60197
1.6067
1.61143
1.61614
1.62081
1.62549
1.63015
1.63478
1.63944
1.64407
1.64871
1.65333
1.65795
1.66248
1.66707
1.67151
1.67604
1.68024
1.68467
1.68827
1.69274
1.69491
1.70113
1.44413
1.46808
1.48444
1.49954
1.51108
1.52141
1.5305
1.53881
1.54642
1.55347
1.56004
1.56623
1.57206
1.57758
1.58287
1.58792
1.59284
1.59768
1.60245
1.60721
1.61195
1.61666
1.62137
1.62607
1.63075
1.63546
1.64015
1.64486
1.64955
1.65426
1.65888
1.66359
1.66816
1.67284
1.67722
1.68183
1.68561
1.69026
1.69256
1.69888
1.43727
1.4619
1.47866
1.494
1.50577
1.51629
1.52554
1.53398
1.54169
1.54883
1.55547
1.56172
1.5676
1.57317
1.57849
1.58358
1.58852
1.5934
1.5982
1.60299
1.60776
1.6125
1.61724
1.62199
1.62671
1.63147
1.63622
1.64099
1.64576
1.65055
1.65528
1.66011
1.66482
1.66966
1.67422
1.67902
1.683
1.68783
1.69029
1.6967
1.43054
1.45583
1.47297
1.48852
1.50051
1.51123
1.52064
1.5292
1.53701
1.54422
1.55094
1.55725
1.56317
1.56878
1.57414
1.57925
1.58422
1.58913
1.59396
1.59878
1.60357
1.60834
1.61311
1.61791
1.62266
1.62748
1.63228
1.63712
1.64196
1.64684
1.65168
1.65662
1.66148
1.66649
1.67123
1.67624
1.68043
1.68547
1.68809
1.6946
1.42395
1.44986
1.46735
1.4831
1.49531
1.50623
1.51579
1.52446
1.53237
1.53967
1.54645
1.55282
1.55878
1.56442
1.5698
1.57494
1.57994
1.58488
1.58974
1.59457
1.59939
1.60419
1.60899
1.61382
1.61862
1.62348
1.62834
1.63324
1.63815
1.64313
1.64807
1.65314
1.65814
1.66332
1.66825
1.67348
1.67791
1.68317
1.68597
1.69259
1.41751
1.44401
1.46183
1.47774
1.49018
1.50129
1.51101
1.51979
1.52779
1.53516
1.542
1.54842
1.55443
1.56009
1.5655
1.57066
1.57568
1.58064
1.58552
1.59038
1.59521
1.60004
1.60486
1.60973
1.61457
1.61947
1.62439
1.62935
1.63434
1.6394
1.64445
1.64964
1.6548
1.66015
1.66528
1.67075
1.67542
1.68093
1.68393
1.69068
1.41123
1.43828
1.4564
1.47245
1.48512
1.49642
1.50628
1.51517
1.52326
1.5307
1.5376
1.54407
1.55011
1.5558
1.56122
1.5664
1.57145
1.57642
1.58132
1.58619
1.59105
1.59589
1.60074
1.60564
1.61052
1.61546
1.62043
1.62545
1.63051
1.63566
1.64082
1.64614
1.65145
1.65698
1.66233
1.66804
1.67298
1.67876
1.68198
1.68887
1.40513
1.43268
1.45106
1.46724
1.48014
1.49162
1.50162
1.51062
1.51879
1.52631
1.53325
1.53977
1.54583
1.55154
1.55698
1.56217
1.56723
1.57222
1.57714
1.58201
1.58689
1.59175
1.59662
1.60154
1.60646
1.61144
1.61647
1.62154
1.62668
1.63192
1.63719
1.64263
1.64809
1.6538
1.65937
1.66534
1.67057
1.67665
1.68012
1.68717
1.39923
1.42721
1.44581
1.4621
1.47524
1.4869
1.49705
1.50614
1.5144
1.52197
1.52896
1.53551
1.5416
1.54732
1.55277
1.55798
1.56305
1.56804
1.57297
1.57785
1.58274
1.58761
1.5925
1.59745
1.6024
1.60741
1.61249
1.61763
1.62283
1.62816
1.63353
1.63911
1.64472
1.65062
1.65642
1.66266
1.6682
1.6746
1.67836
1.6856
1.39355
1.42188
1.44066
1.45706
1.47044
1.48227
1.49255
1.50174
1.51007
1.51771
1.52474
1.53132
1.53741
1.54315
1.5486
1.55381
1.55889
1.56389
1.56882
1.57371
1.5786
1.58348
1.58839
1.59335
1.59834
1.60338
1.60851
1.6137
1.61898
1.62439
1.62987
1.63557
1.64133
1.64743
1.65346
1.65998
1.66585
1.67262
1.67671
1.68416
1.38811
1.41668
1.43561
1.45212
1.46575
1.47773
1.48815
1.49743
1.50583
1.51352
1.52058
1.52718
1.53328
1.53902
1.54447
1.54968
1.55476
1.55975
1.56469
1.56957
1.57447
1.57936
1.58428
1.58925
1.59427
1.59934
1.60452
1.60977
1.6151
1.6206
1.62619
1.63202
1.63794
1.64423
1.65049
1.6573
1.66352
1.6707
1.67517
1.68287
1.38292
1.41163
1.43066
1.44728
1.46116
1.4733
1.48384
1.49321
1.50167
1.5094
1.51649
1.5231
1.5292
1.53494
1.54038
1.54559
1.55067
1.55565
1.56059
1.56546
1.57036
1.57524
1.58018
1.58516
1.5902
1.5953
1.60051
1.60582
1.61122
1.6168
1.62249
1.62845
1.63452
1.641
1.6475
1.65462
1.66121
1.66884
1.67375
1.68175
1.378
1.40672
1.42584
1.44258
1.45669
1.46898
1.47964
1.4891
1.49761
1.50537
1.51247
1.51908
1.52518
1.53091
1.53634
1.54154
1.54662
1.55158
1.5565
1.56137
1.56625
1.57114
1.57608
1.58106
1.58613
1.59126
1.5965
1.60186
1.60732
1.61299
1.61877
1.62486
1.63108
1.63775
1.6445
1.65192
1.65891
1.66703
1.67247
1.68083
1.37337
1.40199
1.42115
1.43802
1.45236
1.46479
1.47556
1.48509
1.49365
1.50143
1.50854
1.51514
1.52122
1.52694
1.53236
1.53754
1.5426
1.54754
1.55244
1.5573
1.56217
1.56705
1.57199
1.57697
1.58205
1.58721
1.59248
1.59789
1.60341
1.60915
1.61504
1.62124
1.62761
1.63448
1.64146
1.6492
1.65661
1.66527
1.67132
1.68013
1.36906
1.39742
1.41663
1.43364
1.44819
1.46075
1.47162
1.48121
1.4898
1.49759
1.5047
1.51128
1.51734
1.52304
1.52843
1.53358
1.53862
1.54354
1.54842
1.55326
1.5581
1.56297
1.5679
1.57289
1.57797
1.58315
1.58845
1.59391
1.59948
1.6053
1.61128
1.6176
1.62412
1.63117
1.6384
1.64645
1.6543
1.66354
1.67031
1.6797
1.3651
1.39304
1.41233
1.42948
1.44422
1.45689
1.46784
1.47748
1.48609
1.49388
1.50096
1.50751
1.51355
1.51921
1.52457
1.52969
1.5347
1.53958
1.54442
1.54924
1.55406
1.55891
1.56382
1.56881
1.57389
1.57909
1.58441
1.58991
1.59553
1.60143
1.60749
1.61393
1.6206
1.62783
1.63529
1.64366
1.65196
1.66183
1.66944
1.67957
1.36149
1.38877
1.40813
1.42542
1.44032
1.4531
1.46413
1.4738
1.48242
1.49019
1.49724
1.50375
1.50975
1.51537
1.52069
1.52578
1.53074
1.5356
1.5404
1.54518
1.54997
1.5548
1.5597
1.56468
1.56976
1.57497
1.58031
1.58585
1.59153
1.59749
1.60365
1.6102
1.61701
1.62441
1.63211
1.64079
1.64957
1.66011
1.66872
1.67982
1.35791
1.38428
1.4037
1.42114
1.43619
1.4491
1.46022
1.46993
1.47857
1.48633
1.49336
1.49983
1.5058
1.51138
1.51666
1.52173
1.52665
1.53147
1.53623
1.54099
1.54575
1.55057
1.55545
1.56042
1.56551
1.57074
1.5761
1.58168
1.58743
1.59346
1.59971
1.60637
1.61333
1.6209
1.62883
1.63782
1.64708
1.65833
1.66811
1.68051
1.35483
1.37991
1.39952
1.41701
1.43214
1.44511
1.45628
1.46602
1.47467
1.48241
1.48944
1.49588
1.50182
1.50738
1.51264
1.51768
1.52258
1.52737
1.5321
1.53683
1.54157
1.54637
1.55124
1.55621
1.56129
1.56654
1.57193
1.57754
1.58334
1.58943
1.59577
1.60253
1.60961
1.61734
1.62548
1.63474
1.64447
1.65639
1.66747
1.68153
1.34616
1.36974
1.38942
1.40687
1.42198
1.43487
1.44588
1.45545
1.46396
1.47161
1.47856
1.48491
1.49078
1.49625
1.50141
1.50636
1.51114
1.51583
1.52047
1.5251
1.52976
1.53448
1.53929
1.54422
1.54929
1.55454
1.55997
1.56564
1.57155
1.57777
1.58429
1.59126
1.59862
1.60667
1.61529
1.62515
1.63598
1.64957
1.66431
1.6838
1.32076
1.34375
1.36309
1.38007
1.395
1.40795
1.41913
1.42892
1.43763
1.44546
1.45257
1.45908
1.4651
1.47074
1.47607
1.48119
1.48615
1.49102
1.49584
1.50067
1.50552
1.51045
1.51547
1.52061
1.52591
1.53138
1.53705
1.54297
1.54913
1.55562
1.56243
1.56972
1.57743
1.58589
1.59503
1.60558
1.61743
1.63257
1.6497
1.672
1.29546
1.3176
1.33632
1.35291
1.36766
1.38061
1.39188
1.4018
1.41066
1.41864
1.4259
1.43257
1.43876
1.44456
1.45008
1.45538
1.46054
1.4656
1.47063
1.47566
1.48073
1.48588
1.49113
1.49652
1.50205
1.50778
1.5137
1.51988
1.52632
1.5331
1.54021
1.54783
1.5559
1.56477
1.57438
1.5855
1.59802
1.61396
1.63196
1.65527
1.26989
1.29117
1.30927
1.32547
1.34
1.35287
1.36415
1.37414
1.3831
1.3912
1.3986
1.40542
1.41177
1.41774
1.42343
1.42891
1.43426
1.43952
1.44475
1.44999
1.45528
1.46065
1.46614
1.47176
1.47755
1.48353
1.48972
1.49617
1.5029
1.50998
1.5174
1.52535
1.53378
1.54304
1.55306
1.5646
1.57754
1.59386
1.61211
1.63574
1.24406
1.26449
1.28196
1.29773
1.31203
1.32478
1.33602
1.34605
1.35509
1.3633
1.37083
1.3778
1.38431
1.39046
1.39633
1.40201
1.40755
1.41302
1.41846
1.42392
1.42943
1.43504
1.44076
1.44663
1.45267
1.45891
1.46537
1.47209
1.47909
1.48646
1.49419
1.50244
1.51118
1.52075
1.53108
1.54291
1.55607
1.5725
1.59072
1.61435
1.2178
1.23746
1.25431
1.26965
1.28368
1.29629
1.30748
1.31751
1.32661
1.33492
1.34258
1.3497
1.35638
1.36271
1.36878
1.37466
1.38041
1.38609
1.39175
1.39743
1.40318
1.40903
1.41499
1.42111
1.4274
1.4339
1.44062
1.44761
1.45487
1.46251
1.4705
1.47901
1.48801
1.49782
1.50837
1.52036
1.5336
1.55001
1.56806
1.59158
1.19103
1.20997
1.22624
1.24116
1.25491
1.26738
1.2785
1.28853
1.29768
1.30607
1.31385
1.32112
1.32797
1.33449
1.34076
1.34684
1.35281
1.35871
1.36461
1.37053
1.37652
1.3826
1.38881
1.39518
1.40172
1.40847
1.41544
1.42268
1.43019
1.43807
1.44629
1.45503
1.46423
1.47423
1.48492
1.497
1.51023
1.52653
1.54435
1.56768
1.16366
1.18197
1.19769
1.21221
1.2257
1.23802
1.24906
1.25907
1.26825
1.27673
1.28463
1.29204
1.29906
1.30577
1.31224
1.31854
1.32473
1.33087
1.33699
1.34316
1.34939
1.35572
1.36218
1.36879
1.37558
1.38257
1.38978
1.39725
1.405
1.41309
1.42153
1.43045
1.43983
1.44996
1.46075
1.47285
1.48603
1.50216
1.5197
1.54278
1.13564
1.15338
1.16861
1.18275
1.196
1.20817
1.21913
1.22911
1.23832
1.24688
1.25488
1.26244
1.26963
1.27653
1.2832
1.28972
1.29614
1.30251
1.30887
1.31528
1.32175
1.32833
1.33503
1.34189
1.34892
1.35615
1.36359
1.37129
1.37925
1.38754
1.39616
1.40526
1.41477
1.425
1.43585
1.44795
1.46104
1.47696
1.49417
1.51697
1.10693
1.12417
1.13896
1.15275
1.16576
1.17779
1.18867
1.19862
1.20786
1.21648
1.2246
1.23229
1.23965
1.24674
1.25362
1.26036
1.267
1.27361
1.28021
1.28686
1.29358
1.3004
1.30735
1.31444
1.32171
1.32917
1.33683
1.34474
1.3529
1.36139
1.37018
1.37941
1.38905
1.39936
1.41024
1.42231
1.43529
1.45098
1.46782
1.4903
1.07751
1.09431
1.10869
1.12216
1.13495
1.14685
1.15765
1.16758
1.17684
1.18553
1.19374
1.20158
1.2091
1.21638
1.22346
1.23042
1.23729
1.24413
1.25097
1.25786
1.26482
1.27189
1.27907
1.28641
1.2939
1.30159
1.30947
1.31758
1.32594
1.33459
1.34354
1.35291
1.36264
1.37302
1.38393
1.39595
1.4088
1.42424
1.4407
1.46283
1.04733
1.06375
1.07777
1.09095
1.10354
1.11532
1.12606
1.13596
1.14524
1.15399
1.16231
1.17027
1.17796
1.18542
1.19271
1.19987
1.20697
1.21404
1.22113
1.22825
1.23546
1.24276
1.25018
1.25775
1.26547
1.27337
1.28146
1.28978
1.29831
1.30714
1.31623
1.32572
1.33555
1.34599
1.3569
1.36887
1.38158
1.39677
1.41284
1.4346
1.01641
1.03248
1.04619
1.0591
1.0715
1.08317
1.09385
1.10373
1.11303
1.12185
1.13026
1.13836
1.1462
1.15383
1.16132
1.1687
1.17602
1.18332
1.19064
1.19801
1.20545
1.21298
1.22064
1.22843
1.23638
1.24449
1.25279
1.26129
1.27001
1.27899
1.28822
1.29783
1.30775
1.31824
1.32916
1.34108