/*--------------------------------*- C++ -*----------------------------------*\
  =========                 |
  \\      /  F ield         | OpenFOAM: The Open Source CFD Toolbox
   \\    /   O peration     | Website:  https://openfoam.org
    \\  /    A nd           | Version:  7
     \\/     M anipulation  |
\*---------------------------------------------------------------------------*/
FoamFile
{
    version     2.0;
    format      ascii;
    class       surfaceScalarField;
    location    "2";
    object      phi;
}
// * * * * * * * * * * * * * * * * * * * * * * * * * * * * * * * * * * * * * //

dimensions      [0 3 -1 0 0 0 0];

internalField   nonuniform List<scalar> 
63520
(
-1.64979e-05
0.00117586
-0.00115936
-5.55265e-05
0.00295125
-0.00291222
-0.000111889
0.00429284
-0.00423648
-0.000179557
0.00523463
-0.00516696
-0.000252018
0.00583365
-0.00576119
-0.000322689
0.00615119
-0.00608052
-0.000385378
0.00624388
-0.00618119
-0.000434557
0.00616026
-0.00611108
-0.000465537
0.00594065
-0.00590967
-0.000474522
0.00561773
-0.00560874
-0.000458615
0.00521806
-0.00523397
-0.000415796
0.00476354
-0.00480636
-0.000344847
0.00427243
-0.00434338
-0.000245304
0.00376026
-0.0038598
-0.000117381
0.00324039
-0.00336831
3.81029e-05
0.00272438
-0.00287987
0.000219784
0.00222217
-0.00240385
0.000425857
0.00174207
-0.00194814
0.00065416
0.0012909
-0.0015192
0.000902254
0.000874023
-0.00112212
0.00116753
0.000495299
-0.000760578
0.00144731
0.000157218
-0.000436999
0.0017389
-0.000138964
-0.000152623
0.00203967
-0.000393131
9.23631e-05
0.00234714
-0.000606154
0.000298679
0.00265905
-0.000779702
0.000467798
0.00297331
-0.00091606
0.000601798
0.0032881
-0.00101797
0.000703185
0.00360183
-0.00108847
0.000774734
0.00391319
-0.00113074
0.000819384
0.00422109
-0.00114803
0.00084013
0.00452466
-0.0011435
0.000839929
0.00482323
-0.00112019
0.000821622
0.00511631
-0.00108097
0.000787882
0.00540357
-0.00102845
0.000741193
0.00568478
-0.000965027
0.000683817
0.0059598
-0.000892818
0.000617798
0.00622852
-0.000813801
0.000545079
0.00649086
-0.000727439
0.000465098
-0.000628435
0.00674652
0.00037278
-1.28735e-05
0.00118873
-4.43426e-05
0.00298272
-9.05745e-05
0.00433907
-0.00014668
0.00529073
-0.000206914
0.00589388
-0.000265232
0.00620951
-0.000315762
0.00629441
-0.000353171
0.00619767
-0.000372856
0.00596034
-0.000371082
0.00561595
-0.000344992
0.00519197
-0.000292572
0.00471112
-0.000212592
0.00419245
-0.000104573
0.00365224
3.12694e-05
0.00310454
0.000194113
0.00256154
0.000382599
0.00203368
0.0005949
0.00152977
0.000828823
0.00105698
0.00108193
0.000620918
0.0013516
0.000225634
0.00163511
-0.000126294
0.00192978
-0.000433632
0.002233
-0.000696355
0.00254232
-0.000915473
0.00285547
-0.00109285
0.00317041
-0.00123101
0.00348538
-0.00133294
0.00379885
-0.00140194
0.00410955
-0.00144144
0.00441646
-0.00145494
0.00471877
-0.00144581
0.0050159
-0.00141731
0.0053074
-0.00137247
0.005593
-0.00131405
0.00587254
-0.00124457
0.00614593
-0.00116621
0.00641314
-0.00108101
0.00667415
-0.000988444
-0.000883065
0.00692878
-9.2944e-06
0.00119803
-3.30507e-05
0.00300647
-6.88905e-05
0.00437491
-0.000113027
0.00533487
-0.000160507
0.00594136
-0.00020584
0.00625484
-0.000243495
0.00633206
-0.000268388
0.00622256
-0.00027604
0.00596799
-0.000262793
0.0056027
-0.000225815
0.00515499
-0.000163093
0.00464839
-7.34224e-05
0.00410278
4.36676e-05
0.00353515
0.000187962
0.00296025
0.000358619
0.00239088
0.000554254
0.00183805
0.000773027
0.00131099
0.00101274
0.00081727
0.0012709
0.000362749
0.0015449
-4.83565e-05
0.001832
-0.0004134
0.00212953
-0.00073116
0.00243488
-0.00100171
0.00274563
-0.00122622
0.00305956
-0.00140678
0.00337471
-0.00154615
0.00368933
-0.00164756
0.00400197
-0.00171458
0.00431144
-0.00175092
0.0046168
-0.0017603
0.00491732
-0.00174633
0.00521246
-0.00171245
0.00550186
-0.00166188
0.00578533
-0.00159752
0.00606276
-0.00152199
0.00633412
-0.00143758
0.00659944
-0.00134634
0.00685879
-0.00124779
-0.00113638
0.0071121
-5.77043e-06
0.0012038
-2.18051e-05
0.00302251
-4.70962e-05
0.0044002
-7.89571e-05
0.00536673
-0.000113232
0.00597563
-0.000145009
0.00628661
-0.000169157
0.00635621
-0.000180838
0.00623424
-0.000175724
0.00596288
-0.00015025
0.00557723
-0.000101652
0.00510639
-2.79496e-05
0.00457469
7.20507e-05
0.00400278
0.000198798
0.0034084
0.000352048
0.002807
0.00053094
0.00221199
0.000734071
0.00163492
0.000959562
0.0010855
0.00120518
0.000571657
0.00146843
9.94943e-05
0.00174667
-0.0003266
0.00203718
-0.000703909
0.00233728
-0.00103126
0.00264441
-0.00130884
0.00295618
-0.00153799
0.00327043
-0.00172103
0.00358523
-0.00186095
0.00389895
-0.00196128
0.00421021
-0.00202584
0.00451789
-0.0020586
0.00482113
-0.00206354
0.00511929
-0.00204448
0.00541192
-0.00200508
0.00569873
-0.00194869
0.00597959
-0.00187838
0.00625445
-0.00179685
0.00652336
-0.00170649
0.00678641
-0.00160939
0.00704374
-0.00150512
-0.00138806
0.00729542
-2.35093e-06
0.00120615
-1.06878e-05
0.00303084
-2.53643e-05
0.00441488
-4.47323e-05
0.00538609
-6.54615e-05
0.00599636
-8.32214e-05
0.00630437
-9.32962e-05
0.00636629
-9.11186e-05
0.00623207
-7.25743e-05
0.00594433
-3.42048e-05
0.00553886
2.67029e-05
0.00504548
0.000112061
0.00448933
0.000223021
0.00389182
0.000359998
0.00327142
0.000522718
0.00264428
0.000710275
0.00202443
0.000921216
0.00142397
0.00115364
0.000853081
0.00140528
0.000320016
0.00167362
-0.000168849
0.001956
-0.000608978
0.00224971
-0.000997615
0.00255209
-0.00133364
0.00286062
-0.00161736
0.00317296
-0.00185034
0.00348703
-0.00203509
0.00380097
-0.0021749
0.00411324
-0.00227354
0.00442254
-0.00233514
0.00472786
-0.00236392
0.00502843
-0.00236411
0.00532369
-0.00233975
0.00561329
-0.00229467
0.00589701
-0.00223242
0.00617479
-0.00215615
0.00644665
-0.00206872
0.00671271
-0.00197255
0.00697311
-0.00186979
0.00722805
-0.00176007
-0.00163776
0.00747774
9.75808e-07
0.00120517
2.31732e-07
0.00303159
-3.85748e-06
0.00441897
-1.06473e-05
0.00539288
-1.75816e-05
0.0060033
-2.09381e-05
0.00630773
-1.64526e-05
0.0063618
1.42492e-07
0.00621547
3.27508e-05
0.00591172
8.46903e-05
0.00548692
0.000158557
0.00497162
0.000256207
0.00439168
0.000378738
0.00376929
0.000526501
0.00312366
0.000699161
0.00247162
0.000895765
0.00182783
0.00111482
0.00120493
0.00135436
0.000613537
0.0016121
6.22771e-05
0.00188549
-0.000442244
0.00217187
-0.000895358
0.00246854
-0.00129429
0.00277288
-0.00163798
0.00308242
-0.0019269
0.00339488
-0.0021628
0.00370826
-0.00234847
0.00402081
-0.00248744
0.00433107
-0.0025838
0.00463785
-0.00264193
0.00494026
-0.00266633
0.00523762
-0.00266147
0.00552947
-0.0026316
0.00581554
-0.00258074
0.0060957
-0.00251258
0.00636997
-0.00243042
0.00663843
-0.00233718
0.00690126
-0.00223537
0.00715866
-0.00212718
0.0074109
-0.00201231
-0.00188516
0.0076583
4.16384e-06
0.00120101
1.08407e-05
0.00302491
1.72371e-05
0.00441257
2.30537e-05
0.00538707
3.00642e-05
0.00599628
4.13912e-05
0.0062964
6.08466e-05
0.00634234
9.23608e-05
0.00618396
0.00013959
0.00586449
0.000205685
0.00542082
0.000293128
0.00488417
0.000403676
0.00428113
0.000538336
0.00363463
0.000697387
0.00296461
0.000880429
0.00228858
0.00108644
0.00162182
0.00131385
0.000977514
0.00156066
0.000366721
0.00182455
-0.000201608
0.00210294
-0.000720634
0.00239316
-0.00118558
0.00269254
-0.00159366
0.0029985
-0.00194394
0.00330864
-0.00223704
0.00362077
-0.00247493
0.00393296
-0.00266067
0.00424358
-0.00279807
0.00455129
-0.00289151
0.00485503
-0.00294566
0.00515399
-0.0029653
0.00544762
-0.00295509
0.00573557
-0.00291954
0.00601765
-0.00286282
0.00629383
-0.00278876
0.00656418
-0.00270078
0.00682887
-0.00260187
0.00708812
-0.00249462
0.0073422
-0.00238127
0.00759146
-0.00226157
-0.00212999
0.00783629
7.17759e-06
0.00119383
2.10585e-05
0.00301103
3.77644e-05
0.00439587
5.61046e-05
0.00536872
7.712e-05
0.00597527
0.000103334
0.00627019
0.000138071
0.00630761
0.000184911
0.00613712
0.000247248
0.00580216
0.000328035
0.00534004
0.000429604
0.0047826
0.000553588
0.00415715
0.000700891
0.00348732
0.000871698
0.0027938
0.00106552
0.00209476
0.00128124
0.0014061
0.00151723
0.000741521
0.00177144
0.000112511
0.00204149
-0.000471655
0.00232478
-0.00100393
0.00261866
-0.00147945
0.00292048
-0.00189549
0.00322773
-0.00225118
0.00353806
-0.00254737
0.00384939
-0.00278627
0.00415992
-0.00297119
0.00446811
-0.00310626
0.00477276
-0.00319616
0.00507294
-0.00324584
0.00536796
-0.00326032
0.00565738
-0.00324452
0.00594097
-0.00320313
0.00621863
-0.00314049
0.00649043
-0.00306056
0.0067565
-0.00296685
0.00701708
-0.00286245
0.00727246
-0.00275
0.00752294
-0.00263175
0.00776893
-0.00250756
-0.00237202
0.00801096
1.00039e-05
0.00118383
3.08029e-05
0.00299023
5.75604e-05
0.00436911
8.82647e-05
0.00533802
0.000123249
0.00594028
0.000164444
0.00622899
0.000214687
0.00625736
0.000277181
0.00607462
0.000355031
0.00572431
0.000450967
0.0052441
0.000567144
0.00466643
0.000705048
0.00401925
0.000865452
0.00332692
0.00104843
0.00261083
0.00125337
0.00188982
0.00147908
0.00118039
0.00172384
0.00049676
0.00198553
-0.00014918
0.00226172
-0.000747849
0.00254981
-0.00129202
0.00284715
-0.00177679
0.00315114
-0.00219947
0.00345931
-0.00255936
0.00376944
-0.0028575
0.00407954
-0.00309636
0.00438792
-0.00327956
0.0046932
-0.00341154
0.00499431
-0.00349727
0.00529044
-0.00354197
0.00558106
-0.00355094
0.00586584
-0.0035293
0.00614467
-0.00348195
0.00641754
-0.00341336
0.0066846
-0.00332762
0.00694608
-0.00322833
0.00720227
-0.00311864
0.00745349
-0.00300122
0.00770013
-0.00287839
0.00794263
-0.00275006
-0.00261099
0.00818161
1.26228e-05
0.0011712
4.00047e-05
0.00296285
7.64809e-05
0.00433263
0.000119299
0.0052952
0.000168123
0.00589146
0.0002243
0.00617282
0.000290177
0.00619149
0.00036856
0.00599624
0.000462246
0.00563062
0.000573712
0.00513264
0.000704909
0.00453523
0.00085715
0.00386701
0.00103106
0.00315301
0.00122656
0.00241533
0.00144292
0.00167345
0.00167885
0.000944469
0.00193252
0.000243088
0.00220174
-0.000418403
0.00248404
-0.00103015
0.0027768
-0.00158478
0.00307738
-0.00207738
0.00338325
-0.00250534
0.00369201
-0.00286813
0.00400153
-0.00316702
0.00430996
-0.00340479
0.00461575
-0.00358535
0.00491766
-0.00371346
0.00521478
-0.00379438
0.00550644
-0.00383363
0.00579224
-0.00383674
0.006072
-0.00380907
0.0063457
-0.00375565
0.00661346
-0.00368112
0.0068755
-0.00358966
0.00713212
-0.00348494
0.00738366
-0.00337018
0.00763052
-0.00324808
0.0078731
-0.00312097
0.00811191
-0.00298887
-0.00284673
0.00834765
1.50163e-05
0.00115619
4.86017e-05
0.00292926
9.43971e-05
0.00428684
0.000148995
0.0052406
0.000211436
0.00582902
0.000282501
0.00610175
0.000364046
0.00610994
0.000458465
0.00590182
0.000568222
0.00552086
0.000695518
0.00500534
0.000842074
0.00438867
0.001009
0.00370008
0.00119674
0.00296527
0.00140507
0.002207
0.00163311
0.00144541
0.00187943
0.00069815
0.00214212
-1.95977e-05
0.00241889
-0.000695175
0.00270723
-0.00131848
0.0030045
-0.00188205
0.00330811
-0.00238098
0.00361556
-0.00281278
0.00392456
-0.00317713
0.00423309
-0.00347556
0.00453944
-0.00371114
0.00484222
-0.00388812
0.00514034
-0.00401158
0.00543305
-0.00408709
0.00571984
-0.00412043
0.00600048
-0.00411737
0.00627488
-0.00408347
0.00654316
-0.00402393
0.00680554
-0.0039435
0.00706231
-0.00384643
0.00731385
-0.00373649
0.00756057
-0.00361689
0.00780288
-0.0034904
0.00804126
-0.00335935
0.00827623
-0.00322384
-0.00307906
0.00850856
1.71758e-05
0.00113901
5.6544e-05
0.00288989
0.000111197
0.00423218
0.000177165
0.00517463
0.000252916
0.00575327
0.000338682
0.00601598
0.000435833
0.00601279
0.000546344
0.00579131
0.000672322
0.00539489
0.000815666
0.004862
0.00097784
0.0042265
0.00115973
0.00351819
0.00136159
0.00276342
0.00158299
0.00198559
0.0018229
0.00120549
0.00207976
0.000441297
0.00235152
-0.00029136
0.00263582
-0.000979476
0.00293009
-0.00161276
0.00323171
-0.00218367
0.0035381
-0.00268737
0.00384683
-0.00312152
0.00415572
-0.00348603
0.00446289
-0.00378273
0.00476677
-0.00401502
0.00506614
-0.00418749
0.00536009
-0.00430553
0.00564802
-0.00437503
0.00592962
-0.00440203
0.00620477
-0.00439253
0.00647355
-0.00435225
0.00673617
-0.00428655
0.00699295
-0.00420028
0.00724429
-0.00409776
0.0074906
-0.0039828
0.00773236
-0.00385865
0.00797002
-0.00372806
0.00820408
-0.0035934
0.00843509
-0.00345486
-0.00330788
0.00866391
1.90915e-05
0.00111992
6.37915e-05
0.00284519
0.000126792
0.00416918
0.000203653
0.00509777
0.000292323
0.0056646
0.000392518
0.00591579
0.000505129
0.00590018
0.000631697
0.00566474
0.000773957
0.00525263
0.000933486
0.00470247
0.00111146
0.00404852
0.00130853
0.00332112
0.0015247
0.00254724
0.00175936
0.00175093
0.0020113
0.000953555
0.00227877
0.000173824
0.00255962
-0.000572213
0.0028514
-0.00127125
0.00315148
-0.00191284
0.00345724
-0.00248943
0.00376615
-0.00299627
0.00407586
-0.00343123
0.0043843
-0.00379447
0.00468974
-0.00408817
0.00499078
-0.00431606
0.00528638
-0.00448308
0.00557581
-0.00459496
0.00585866
-0.00465788
0.00613477
-0.00467814
0.00640419
-0.00466195
0.00666713
-0.00461519
0.00692392
-0.00454333
0.00717496
-0.00445133
0.00742074
-0.00434354
0.00766174
-0.0042238
0.00789846
-0.00409537
0.00813141
-0.00396101
0.00836109
-0.00382308
0.0085881
-0.00368187
-0.00353311
0.00881333
2.07598e-05
0.00109916
7.03196e-05
0.00279563
0.000141115
0.00409839
0.000228333
0.00501056
0.000329463
0.00556346
0.000443736
0.00580151
0.000571574
0.00577234
0.000714081
0.00552223
0.000872604
0.0050941
0.00104837
0.0045267
0.00124226
0.00385463
0.00145464
0.00310874
0.00168528
0.00231661
0.00193332
0.00150289
0.00219737
0.000689515
0.00247549
-0.000104302
0.00276541
-0.000862127
0.00306456
-0.0015704
0.00337028
-0.00221857
0.00367997
-0.00279911
0.00399111
-0.00330742
0.00430148
-0.0037416
0.00460914
-0.00410213
0.0049125
-0.00439153
0.00521035
-0.00461391
0.00550184
-0.00477458
0.00578645
-0.00487958
0.00606395
-0.00493538
0.00633435
-0.00494854
0.00659785
-0.00492545
0.0068548
-0.00487213
0.00710563
-0.00479417
0.00735087
-0.00469656
0.00759104
-0.00458372
0.0078267
-0.00445946
0.00805838
-0.00432706
0.00828662
-0.00418925
0.00851193
-0.00404839
0.00873492
-0.00390486
-0.00375473
0.00895654
2.21804e-05
0.00107698
7.61152e-05
0.0027417
0.000154125
0.00402038
0.000251117
0.00491356
0.000364188
0.00545039
0.000492119
0.00567358
0.000634876
0.00562958
0.000793126
0.00536398
0.000967812
0.00491942
0.0011598
0.00433471
0.00136965
0.00364478
0.00159741
0.00288098
0.00184259
0.00207143
0.00210408
0.00124139
0.00238026
0.000413339
0.00266902
-0.000393061
0.00296791
-0.00116102
0.00327429
-0.00187678
0.00358547
-0.00252974
0.00389881
-0.00311246
0.0042119
-0.00362051
0.0045226
-0.00405229
0.00482912
-0.00440865
0.00513006
-0.00469247
0.0054244
-0.00490826
0.0057115
-0.00506167
0.00599103
-0.00515911
0.00626296
-0.00520731
0.00652747
-0.00521305
0.00678492
-0.0051829
0.00703579
-0.005123
0.00728063
-0.00503901
0.00752004
-0.00493597
0.00775462
-0.0048183
0.00798498
-0.00468981
0.00821167
-0.00455375
0.00843525
-0.00441283
0.00865624
-0.00426939
0.00887528
-0.00412389
-0.00397277
0.00909332
2.33575e-05
0.00105362
8.11784e-05
0.00268388
0.000165802
0.00393575
0.000271953
0.00480741
0.000396401
0.00532595
0.000537513
0.00553247
0.000694816
0.00547228
0.000868542
0.00519026
0.00105922
0.00472874
0.00126734
0.00412658
0.00149311
0.00341902
0.00173626
0.00263783
0.00199599
0.0018117
0.00227094
0.000966449
0.00255922
0.00012506
0.00285853
-0.000692372
0.00316627
-0.00146876
0.00347969
-0.00219021
0.00379606
-0.00284611
0.00411278
-0.00342917
0.00442748
-0.00393522
0.00473817
-0.00436298
0.00504322
-0.00471369
0.00534141
-0.00499066
0.00563194
-0.00519879
0.00591438
-0.00534411
0.00618862
-0.00543335
0.00645481
-0.0054735
0.00671332
-0.00547156
0.00696465
-0.00543423
0.00720942
-0.00536777
0.00744828
-0.00527787
0.00768191
-0.0051696
0.00791099
-0.00504737
0.00813613
-0.00491496
0.00835795
-0.00477557
0.00857699
-0.00463186
0.00879378
-0.00448619
0.00900896
-0.00433907
-0.00418732
0.00922351
2.42997e-05
0.00102932
8.55226e-05
0.00262265
0.000176155
0.00384512
0.000290831
0.00469274
0.000426056
0.00519072
0.000579827
0.0053787
0.00075125
0.00530086
0.000940127
0.00500138
0.00114657
0.00452229
0.00137067
0.00390248
0.00161227
0.00317742
0.00187075
0.00237935
0.00214498
0.00153747
0.00243331
0.000678121
0.00273359
-0.000175225
0.00304331
-0.00100209
0.0033597
-0.00178515
0.00367992
-0.00251043
0.0040012
-0.00316738
0.00432095
-0.00374892
0.00463692
-0.00425119
0.00494724
-0.0046733
0.00525047
-0.00501692
0.0055456
-0.00528579
0.00583204
-0.00548524
0.0061096
-0.00562167
0.00637837
-0.00570212
0.00663871
-0.00573384
0.00689115
-0.005724
0.00713635
-0.00567944
0.00737505
-0.00560647
0.00760801
-0.00551083
0.00783598
-0.00539757
0.00805968
-0.00527107
0.00827978
-0.00513506
0.00849689
-0.00499267
0.00871156
-0.00484654
0.00892433
-0.00469896
0.00913582
-0.00455055
-0.00439852
0.00934702
2.50194e-05
0.0010043
8.91742e-05
0.0025585
0.000185217
0.00374908
0.000307778
0.00457017
0.000453165
0.00504533
0.000619042
0.00521282
0.000804118
0.00511578
0.00100777
0.00479773
0.00122969
0.00430037
0.00146957
0.00366261
0.00172684
0.00292015
0.00200052
0.00210566
0.00228914
0.00124885
0.00259072
0.00037654
0.00290285
-0.000487348
0.00322276
-0.00132201
0.00354755
-0.00210994
0.00387425
-0.00283713
0.00420008
-0.00349321
0.00452249
-0.00407134
0.00483935
-0.00456804
0.00514893
-0.00498288
0.00544999
-0.00531798
0.00574175
-0.00557755
0.00602385
-0.00576735
0.00629633
-0.00589415
0.00655951
-0.00596529
0.00681392
-0.00598825
0.00706028
-0.00597037
0.00729941
-0.00591856
0.00753214
-0.00583921
0.00775934
-0.00573803
0.00798182
-0.00562005
0.00820034
-0.00548959
0.0084156
-0.00535032
0.00862821
-0.00520529
0.00883875
-0.00505707
0.00904772
-0.00490794
0.00925573
-0.00475856
-0.00460657
0.00946378
2.55323e-05
0.000978769
9.2172e-05
0.00249186
0.000193045
0.0036482
0.000322862
0.00444036
0.00047779
0.0048904
0.000655204
0.00503541
0.00085344
0.00491755
0.00107146
0.00457971
0.00130853
0.0040633
0.00156392
0.00340722
0.00183665
0.00264742
0.00212536
0.00181696
0.00242819
0.000946019
0.00274282
6.1909e-05
0.00306654
-0.000811071
0.00339637
-0.00165184
0.00372921
-0.00244278
0.00406203
-0.00316995
0.004392
-0.00382319
0.00471666
-0.004396
0.00503399
-0.00488537
0.00534243
-0.00529133
0.00564098
-0.00561652
0.00592907
-0.00586565
0.00620662
-0.00604489
0.00647386
-0.00616139
0.00673134
-0.00622277
0.00697981
-0.00623673
0.00722015
-0.0062107
0.00745329
-0.0061517
0.00768021
-0.00606612
0.00790183
-0.00595966
0.00811904
-0.00583726
0.00833262
-0.00570318
0.0085433
-0.005561
0.0087517
-0.00541369
0.00895837
-0.00526374
0.00916382
-0.00511338
0.00936862
-0.00496336
-0.00481173
0.00957377
2.58576e-05
0.000952912
9.45656e-05
0.00242315
0.00019972
0.00354305
0.000336185
0.00430389
0.000500046
0.00472654
0.000688428
0.00484702
0.000899315
0.00470666
0.00113127
0.00434775
0.00138313
0.00381144
0.00165374
0.00313661
0.00194168
0.00235948
0.00224516
0.00151348
0.00256194
0.000629237
0.00288935
-0.000265496
0.00322435
-0.00114608
0.00356373
-0.00199122
0.00390422
-0.00278327
0.0042427
-0.00350843
0.00457636
-0.00415684
0.0049028
-0.00472244
0.00522014
-0.00520271
0.00552705
-0.00559824
0.00582273
-0.0059122
0.00610688
-0.0061498
0.00637965
-0.00631766
0.00664153
-0.00642327
0.00689328
-0.00647453
0.00713583
-0.00647928
0.00737023
-0.0064451
0.00759754
-0.00637902
0.00781884
-0.00628742
0.00803513
-0.00617594
0.00824733
-0.00604946
0.00845627
-0.00591212
0.00866267
-0.0057674
0.00886716
-0.00561818
0.00907028
-0.00546686
0.00927251
-0.00531561
0.00947441
-0.00516525
-0.00501428
0.00967696
2.60173e-05
0.000926894
9.64146e-05
0.00235275
0.000205342
0.00343412
0.000347886
0.00416135
0.000520096
0.00455433
0.000718888
0.00464823
0.000941922
0.00448362
0.00118737
0.0041023
0.00145364
0.00354517
0.00173912
0.00285113
0.00204196
0.00205664
0.00235992
0.00119552
0.00269034
0.000298818
0.00303016
-0.000605321
0.00337605
-0.00149197
0.00372453
-0.0023397
0.00407218
-0.00313092
0.00441581
-0.00385206
0.00475262
-0.00449365
0.00508032
-0.00505015
0.0053972
-0.00551959
0.00570215
-0.00590318
0.00599461
-0.00620466
0.00627455
-0.00642974
0.00654237
-0.00658548
0.0067988
-0.0066797
0.0070448
-0.00672053
0.00728151
-0.00671598
0.0075101
-0.00667369
0.00773178
-0.0066007
0.0079477
-0.00650334
0.00815893
-0.00638717
0.00836643
-0.00625696
0.00857105
-0.00611674
0.00877351
-0.00596986
0.00897444
-0.00581911
0.00917435
-0.00566677
0.00937371
-0.00551498
0.00957304
-0.00536459
-0.00521457
0.00977333
2.60356e-05
0.000900859
9.77879e-05
0.002281
0.000210032
0.00332188
0.000358133
0.00401325
0.000538148
0.00437432
0.00074682
0.00443956
0.000981508
0.00424894
0.00124
0.00384381
0.00152028
0.00326489
0.00182028
0.00255114
0.00213766
0.00173926
0.00246974
0.000863444
0.0028134
-4.48462e-05
0.00316521
-0.000957129
0.00352149
-0.00184825
0.00387853
-0.00269674
0.00423276
-0.00348515
0.00458094
-0.00420024
0.00492032
-0.00483303
0.00524872
-0.00537855
0.00556464
-0.00583552
0.0058672
-0.00620573
0.00615609
-0.00649356
0.00643156
-0.00670521
0.00669427
-0.00684819
0.00694519
-0.00693062
0.00718548
-0.00696083
0.00741645
-0.00694695
0.00763942
-0.00689666
0.0078557
-0.00681698
0.00806653
-0.00671417
0.00827301
-0.00659365
0.00847614
-0.00646009
0.00867679
-0.00631738
0.00887567
-0.00616875
0.00907339
-0.00601683
0.00927046
-0.00586384
0.00946732
-0.00571183
0.00966446
-0.00556172
-0.00541295
0.00986284
2.59383e-05
0.000874921
9.87619e-05
0.00220818
0.000213927
0.00320671
0.000367119
0.00386005
0.000554445
0.00418699
0.000772505
0.0042215
0.00101838
0.00400306
0.00128949
0.0035727
0.00158337
0.002971
0.00189749
0.00223702
0.00222902
0.00140773
0.00257478
0.00051768
0.00293123
-0.000401288
0.00329449
-0.0013204
0.00366059
-0.00221435
0.00402557
-0.00306172
0.00438572
-0.0038453
0.00473778
-0.0045523
0.00507907
-0.00517432
0.00540758
-0.00570706
0.005722
-0.00614994
0.00602171
-0.00650544
0.0063067
-0.00677854
0.00657747
-0.00697599
0.00683495
-0.00710566
0.00708032
-0.00717599
0.00731496
-0.00719547
0.00754034
-0.00717233
0.00775791
-0.00711423
0.00796906
-0.00702814
0.0081751
-0.0069202
0.00837717
-0.00679573
0.0085763
-0.00665922
0.00877335
-0.00651442
0.00896902
-0.00636442
0.00916392
-0.00621173
0.00935853
-0.00605845
0.00955325
-0.00590656
0.00974856
-0.00575703
-0.0056098
0.00994541
2.5752e-05
0.000849169
9.94185e-05
0.00213451
0.000217174
0.00308896
0.000375059
0.00370217
0.000569262
0.00399279
0.000796268
0.00399449
0.0010529
0.00374643
0.00133619
0.0032894
0.00164327
0.00266393
0.00197109
0.00190921
0.00231633
0.00106249
0.0026753
0.000158712
0.00304397
-0.000769961
0.00341809
-0.00169452
0.00379333
-0.00258959
0.00416552
-0.00343391
0.00453085
-0.00421063
0.00488605
-0.0049075
0.00522854
-0.00551681
0.00555651
-0.00603503
0.00586888
-0.00646231
0.0061653
-0.00680186
0.00644605
-0.00705929
0.00671191
-0.00724185
0.00696405
-0.0073578
0.00720389
-0.00741583
0.00743299
-0.00742457
0.00765296
-0.00739229
0.00786536
-0.00732664
0.00807169
-0.00723446
0.00827327
-0.00712179
0.0084713
-0.00699376
0.00866679
-0.00685472
0.00886061
-0.00670824
0.00905346
-0.00655727
0.00924592
-0.00640418
0.00943843
-0.00625096
0.0096314
-0.00609952
0.00982526
-0.0059509
-0.00580549
0.010021
2.55037e-05
0.000823665
9.98428e-05
0.00206017
0.000219928
0.00296887
0.000382179
0.00353992
0.000582893
0.00379208
0.00081846
0.00375893
0.00108544
0.00347945
0.00138054
0.00299431
0.00170039
0.00234407
0.00204147
0.00156813
0.00239992
0.000704042
0.00277154
-0.000212907
0.00315182
-0.00115024
0.00353608
-0.00207878
0.0039197
-0.00297321
0.00429829
-0.0038125
0.00466796
-0.0045803
0.0050255
-0.00526504
0.00536845
-0.00585977
0.00569521
-0.00636178
0.00600496
-0.00677206
0.00629765
-0.00709455
0.00657384
-0.00733548
0.0068346
-0.00750261
0.00708133
-0.00760454
0.00731568
-0.00765018
0.00753937
-0.00764826
0.00775414
-0.00760707
0.00796166
-0.00753416
0.00816347
-0.00743628
0.00836095
-0.00731927
0.0085553
-0.00718811
0.00874754
-0.00704696
0.00893852
-0.00689922
0.00912892
-0.00674768
0.0093193
-0.00659456
0.00951008
-0.00644175
0.00970165
-0.00629109
0.00989442
-0.00614367
-0.00600038
0.0100893
2.52207e-05
0.000798444
0.000100121
0.00198527
0.000222348
0.00284664
0.000388717
0.00337355
0.000595648
0.00358515
0.000839448
0.00351513
0.00111644
0.00320246
0.00142295
0.0026878
0.00175516
0.00201186
0.00210904
0.00121426
0.00248016
0.000332915
0.00286381
-0.000596549
0.00325497
-0.0015414
0.00364858
-0.00247239
0.0040397
-0.00336433
0.00442379
-0.00419659
0.00479692
-0.00495343
0.00515593
-0.00562405
0.00549855
-0.00620238
0.0058234
-0.00668664
0.00612997
-0.00707863
0.00641849
-0.00738307
0.00668983
-0.00760682
0.00694532
-0.0077581
0.00718661
-0.00784583
0.00741554
-0.0078791
0.00763398
-0.00786671
0.0078438
-0.00781688
0.00804673
-0.00773709
0.00824436
-0.00763391
0.0084381
-0.007513
0.00862914
-0.00737915
0.0088185
-0.00723632
0.00900701
-0.00708773
0.00919533
-0.00693599
0.00938398
-0.00678321
0.00957338
-0.00663114
0.00976388
-0.00648159
0.00995588
-0.00633568
-0.0061948
0.0101503
2.49304e-05
0.000773514
0.000100337
0.00190986
0.000224593
0.00272239
0.00039491
0.00320323
0.000607838
0.00337222
0.000859607
0.00326336
0.0011463
0.00291576
0.00146386
0.00237024
0.00180803
0.00166769
0.00217419
0.000848093
0.0025574
-5.02907e-05
0.00295236
-0.000991515
0.00335361
-0.00194265
0.00375568
-0.00287446
0.00415336
-0.00376201
0.00454197
-0.0045852
0.00491758
-0.00532904
0.00527715
-0.00598362
0.00561861
-0.00654385
0.00594086
-0.00700889
0.00624368
-0.00738145
0.00652762
-0.00766701
0.00679384
-0.00787304
0.00704394
-0.00800819
0.00727978
-0.00808168
0.00750339
-0.00810271
0.00771678
-0.00808009
0.0079219
-0.008022
0.00812055
-0.00793575
0.00831436
-0.00782771
0.00850472
-0.00770336
0.00869283
-0.00756726
0.00887968
-0.00742317
0.00906608
-0.00727413
0.00925265
-0.00712257
0.0094399
-0.00697046
0.00962822
-0.00681946
0.00981795
-0.00667132
0.0100095
-0.00652721
-0.00638905
0.0102037
2.46597e-05
0.000748854
0.000100575
0.00183395
0.000226819
0.00259614
0.00040099
0.00302906
0.000619767
0.00315344
0.000879301
0.00300382
0.00117543
0.00261963
0.00150371
0.00204195
0.00185939
0.00131202
0.00223731
0.000470172
0.00263195
-0.000444923
0.00303746
-0.00139703
0.00344791
-0.00235309
0.00385745
-0.003284
0.00426064
-0.00416521
0.00465273
-0.00497729
0.0050298
-0.00570612
0.00538899
-0.00634281
0.00572847
-0.00688332
0.00604742
-0.00732784
0.00634595
-0.00767998
0.00662491
-0.00794598
0.00688578
-0.0081339
0.00713038
-0.0082528
0.00736081
-0.00831211
0.00757923
-0.00832113
0.00778778
-0.00828865
0.00798848
-0.00822271
0.00818318
-0.00813045
0.00837351
-0.00801804
0.00856085
-0.00789071
0.00874639
-0.0077528
0.00893109
-0.00760787
0.00911571
-0.00745875
0.00930086
-0.00730772
0.009487
-0.0071566
0.00967451
-0.00700697
0.00986372
-0.00686053
0.010055
-0.00671852
-0.00658338
0.0102494
2.4434e-05
0.00072442
0.000100913
0.00175747
0.000229172
0.00246789
0.000407179
0.00285105
0.000631725
0.00292889
0.000898875
0.00273667
0.00120421
0.0023143
0.00154289
0.00170327
0.00190964
0.000945265
0.00229875
8.10681e-05
0.00270409
-0.000850266
0.0031193
-0.00181224
0.00353796
-0.00277176
0.00395391
-0.00369995
0.00436152
-0.00457282
0.00475597
-0.00537174
0.00513346
-0.0060836
0.0054913
-0.00670065
0.00582795
-0.00721997
0.00614292
-0.00764281
0.00643663
-0.00797369
0.00671027
-0.00821963
0.00696558
-0.00838921
0.00720463
-0.00849185
0.0074297
-0.00853717
0.00764309
-0.00853452
0.00784704
-0.0084926
0.00804362
-0.00841929
0.0082347
-0.00832152
0.00842189
-0.00820523
0.00860658
-0.0080754
0.00878991
-0.00793613
0.00897279
-0.00779075
0.00915596
-0.00764192
0.00933997
-0.00749173
0.00952526
-0.00734189
0.00971219
-0.0071939
0.00990108
-0.00704942
0.0100923
-0.00690979
-0.00677796
0.0102869
2.42766e-05
0.000700143
0.000101422
0.00168032
0.000231789
0.00233752
0.000413678
0.00266916
0.000643976
0.0026986
0.000918644
0.00246201
0.00123299
0.00199996
0.00158174
0.00135452
0.0019591
0.000567907
0.00235877
-0.000318599
0.00277404
-0.00126554
0.00319802
-0.00223621
0.00362385
-0.00319759
0.00404507
-0.00412117
0.00445591
-0.00498366
0.00485157
-0.0057674
0.00522839
-0.00646042
0.00558392
-0.00705618
0.00591693
-0.00755298
0.00622726
-0.00795313
0.00651567
-0.00826211
0.00678367
-0.00848763
0.00703326
-0.00863879
0.00726673
-0.00872532
0.00748653
-0.00875697
0.00769508
-0.00874307
0.00789468
-0.0086922
0.00808744
-0.00861205
0.00827523
-0.00850931
0.00845964
-0.00838965
0.00864203
-0.00825778
0.00882348
-0.00811758
0.00900487
-0.00797214
0.00918687
-0.00782392
0.00937
-0.00767486
0.00955466
-0.00752655
0.00974118
-0.00738042
0.00992989
-0.00723813
0.0101212
-0.00710113
-0.00697291
0.0103162
2.42079e-05
0.000675935
0.000102168
0.00160236
0.00023479
0.0022049
0.000420669
0.00248329
0.000656755
0.00246251
0.000938883
0.00217988
0.00126205
0.00167678
0.00162055
0.000996025
0.00200803
0.000180432
0.00241759
-0.000728158
0.00284194
-0.0016899
0.00327368
-0.00266795
0.00370555
-0.00362946
0.00413084
-0.00454647
0.00454371
-0.00539652
0.0049394
-0.00616309
0.00531446
-0.00683548
0.00566672
-0.00740845
0.00599529
-0.00788155
0.00630036
-0.0082582
0.00658304
-0.00854479
0.00684512
-0.00874971
0.00708887
-0.00888253
0.00731677
-0.00895323
0.00753142
-0.00897162
0.00773533
-0.00894697
0.00793085
-0.00888772
0.0081201
-0.0088013
0.00830493
-0.00869414
0.00848691
-0.00857163
0.00866733
-0.00843821
0.00884724
-0.00829749
0.00902743
-0.00815234
0.00920854
-0.00800502
0.00939102
-0.00785734
0.00957523
-0.00771076
0.00976148
-0.00756666
0.00995009
-0.00742674
0.0101415
-0.00729258
-0.00716825
0.0103369
2.42455e-05
0.000651689
0.000103206
0.0015234
0.000238281
0.00206982
0.000428304
0.00229326
0.00067026
0.00222055
0.00095982
0.00189032
0.00129165
0.00134496
0.00165955
0.000628121
0.00205661
-0.000216631
0.00247534
-0.00114688
0.00290787
-0.00212243
0.00334629
-0.00310637
0.00378301
-0.00406618
0.00421112
-0.00497458
0.00462475
-0.00581016
0.00501929
-0.00655763
0.00539151
-0.0072077
0.00573958
-0.00775652
0.00606296
-0.00820493
0.0063622
-0.00855744
0.00663875
-0.00882134
0.00689469
-0.00900566
0.00713252
-0.00912036
0.00735491
-0.00917562
0.00756455