/*--------------------------------*- C++ -*----------------------------------*\
  =========                 |
  \\      /  F ield         | OpenFOAM: The Open Source CFD Toolbox
   \\    /   O peration     | Website:  https://openfoam.org
    \\  /    A nd           | Version:  7
     \\/     M anipulation  |
\*---------------------------------------------------------------------------*/
FoamFile
{
    version     2.0;
    format      ascii;
    class       volVectorField;
    location    "2";
    object      U;
}
// * * * * * * * * * * * * * * * * * * * * * * * * * * * * * * * * * * * * * //

dimensions      [0 1 -1 0 0 0 0];

internalField   nonuniform List<vector> 
32000
(
(-0.00104915 0.0467074 -1.30558e-21)
(-0.0042957 0.117266 0)
(-0.00932397 0.170565 -1.16354e-20)
(-0.0149305 0.207976 0)
(-0.0206309 0.231796 1.21312e-20)
(-0.0258847 0.244485 0)
(-0.0302595 0.248308 1.25488e-20)
(-0.033425 0.245199 -9.54016e-21)
(-0.0351552 0.236755 3.79976e-24)
(-0.0353153 0.224269 3.99201e-24)
(-0.0338472 0.208788 -3.29508e-21)
(-0.0307512 0.191167 1.32816e-20)
(-0.0260805 0.172123 0)
(-0.0199342 0.15226 -3.37722e-21)
(-0.0124416 0.132098 3.39122e-21)
(-0.00375167 0.112087 0)
(0.00597024 0.0926095 1.71113e-20)
(0.0165507 0.0739896 -3.4358e-21)
(0.0278139 0.0564906 0)
(0.0395848 0.0403193 6.92497e-21)
(0.0516957 0.0256257 6.90978e-21)
(0.0639906 0.0125062 0)
(0.076325 0.00100936 0)
(0.088569 -0.00886002 0)
(0.100611 -0.0171348 0)
(0.112357 -0.0238786 0)
(0.123732 -0.0291791 0)
(0.134674 -0.0331419 0)
(0.145141 -0.035884 -1.37634e-20)
(0.155102 -0.0375278 0)
(0.164539 -0.038198 1.36843e-20)
(0.173445 -0.0380175 0)
(0.181822 -0.037104 0)
(0.189679 -0.0355679 0)
(0.19703 -0.0335113 -1.34724e-20)
(0.203892 -0.031027 -6.72337e-21)
(0.210282 -0.0281982 2.00641e-20)
(0.216233 -0.0251033 -1.92933e-23)
(0.221797 -0.0217202 1.32442e-20)
(0.226817 -0.0178413 -2.29829e-23)
(-0.0018581 0.0472894 0)
(-0.00600065 0.118646 2.26392e-20)
(-0.0112658 0.172497 5.82233e-21)
(-0.0167172 0.21023 -4.81266e-24)
(-0.0219816 0.234129 -6.07549e-21)
(-0.0266199 0.246656 0)
(-0.0302706 0.250094 1.24707e-20)
(-0.0326507 0.246404 -1.26485e-20)
(-0.033567 0.237224 0)
(-0.032909 0.223882 -2.59855e-20)
(-0.0306343 0.207459 0)
(-0.0267552 0.188849 -3.97472e-20)
(-0.021334 0.168796 0)
(-0.0144755 0.147933 0)
(-0.00631412 0.126806 1.35374e-20)
(0.0029946 0.105883 -1.35809e-20)
(0.0132812 0.0855687 -1.36793e-20)
(0.0243689 0.0661988 0)
(0.0360771 0.0480493 4.11949e-20)
(0.0482286 0.0313342 -1.3762e-20)
(0.0606551 0.0162067 -1.18012e-23)
(0.0731993 0.00276356 -4.13843e-20)
(0.0857173 -0.00894988 -2.75989e-20)
(0.0980831 -0.0189344 -1.38445e-20)
(0.110189 -0.0272304 4.13987e-20)
(0.121943 -0.0339111 -4.13914e-20)
(0.133273 -0.0390747 4.13891e-20)
(0.144127 -0.0428379 -5.49833e-20)
(0.154467 -0.0453279 -1.36521e-20)
(0.164269 -0.0466782 7.90233e-23)
(0.173518 -0.0470236 -4.08956e-20)
(0.182215 -0.0464957 -2.71971e-20)
(0.190366 -0.0452199 5.41977e-20)
(0.197986 -0.0433132 -5.39376e-20)
(0.205093 -0.0408833 -1.33615e-20)
(0.211708 -0.0380282 -5.34922e-20)
(0.217853 -0.0348328 3.88546e-23)
(0.22356 -0.031376 1.32387e-20)
(0.228883 -0.0276363 -5.26534e-20)
(0.233676 -0.023402 -7.28981e-20)
(-0.00268543 0.0476853 -5.18732e-21)
(-0.00774111 0.119599 -1.1335e-20)
(-0.0132431 0.173914 -5.20357e-20)
(-0.0185236 0.211947 0)
(-0.0233196 0.23594 6.03997e-21)
(-0.0272954 0.248343 -6.14277e-21)
(-0.0301622 0.251447 -7.48969e-20)
(-0.0316888 0.247237 2.53741e-20)
(-0.0317191 0.23738 -1.28345e-20)
(-0.0301709 0.223238 7.77721e-20)
(-0.0270168 0.20593 2.61973e-20)
(-0.0222812 0.186381 1.32637e-20)
(-0.0160381 0.165369 -5.31436e-20)
(-0.00840144 0.143553 0)
(0.000487829 0.121503 0)
(0.0104689 0.0997115 2.71084e-20)
(0.021365 0.0785991 5.46054e-23)
(0.0329942 0.0585182 -2.72687e-20)
(0.0451746 0.0397552 -2.74337e-20)
(0.0577251 0.0225312 -5.47747e-20)
(0.0704745 0.00700305 8.23941e-20)
(0.0832674 -0.0067326 8.79779e-23)
(0.0959626 -0.018633 2.52762e-23)
(0.108435 -0.028705 2.75134e-20)
(0.120581 -0.0369979 -5.51535e-20)
(0.132316 -0.0435945 1.09949e-19)
(0.143573 -0.0486035 0)
(0.154306 -0.0521522 2.74769e-20)
(0.164483 -0.0543791 2.74144e-20)
(0.174087 -0.0554286 5.46489e-20)
(0.183112 -0.0554453 7.87998e-23)
(0.191563 -0.054569 0)
(0.199453 -0.0529328 2.69884e-20)
(0.206802 -0.0506607 -2.68004e-20)
(0.213632 -0.0478658 -2.66094e-20)
(0.219969 -0.0446489 8.00496e-20)
(0.225839 -0.0410991 -7.93702e-20)
(0.231276 -0.0372961 5.28083e-20)
(0.236335 -0.0332166 -7.85498e-20)
(0.240878 -0.0286475 2.89115e-20)
(-0.00352532 0.0479452 4.12989e-20)
(-0.00951312 0.120291 -4.49998e-20)
(-0.0152551 0.174971 9.23538e-20)
(-0.0203545 0.213251 0)
(-0.024654 0.237323 3.60368e-20)
(-0.0279235 0.249614 6.11941e-20)
(-0.0299507 0.252411 1.26076e-20)
(-0.0305608 0.247721 1.15768e-23)
(-0.0296367 0.237231 3.82858e-20)
(-0.0271231 0.222339 -1.31043e-20)
(-0.0230139 0.204199 6.51753e-20)
(-0.0173503 0.183765 -7.89092e-20)
(-0.0102172 0.161845 7.96508e-20)
(-0.00173774 0.139125 -2.67142e-20)
(0.00793746 0.116201 2.68252e-20)
(0.0186402 0.0935873 -5.38481e-20)
(0.0301886 0.071722 -8.11904e-20)
(0.0423947 0.0509738 2.71594e-20)
(0.0550711 0.0316394 -2.7297e-20)
(0.0680346 0.0139462 8.20733e-20)
(0.0811139 -0.00194511 -5.48693e-20)
(0.0941533 -0.0159375 -5.47062e-20)
(0.107014 -0.0279926 0)
(0.119575 -0.0381238 0)
(0.131739 -0.046388 -5.47244e-20)
(0.143426 -0.0528783 -5.49035e-20)
(0.154577 -0.0577147 -5.46016e-20)
(0.165154 -0.0610353 0)
(0.175132 -0.0629897 0)
(0.184502 -0.0637328 -1.08621e-19)
(0.193265 -0.0634183 -8.90157e-23)
(0.201435 -0.0621949 5.41e-20)
(0.209029 -0.0602031 -5.37441e-20)
(0.216072 -0.0575731 -5.36001e-20)
(0.222594 -0.0544233 5.3519e-20)
(0.228623 -0.0508579 0)
(0.23419 -0.0469687 5.29342e-20)
(0.239332 -0.0428362 -1.05017e-19)
(0.244102 -0.0384382 1.04628e-19)
(0.248374 -0.0335593 -1.15348e-19)
(-0.00436742 0.048028 -2.06812e-20)
(-0.0112961 0.120602 3.3768e-20)
(-0.0172838 0.175544 -4.61062e-20)
(-0.0221949 0.214028 0)
(-0.0259767 0.238178 -6.00873e-20)
(-0.0285058 0.250382 -3.67324e-20)
(-0.0296457 0.252919 4.9728e-20)
(-0.0292809 0.247802 0)
(-0.0273377 0.236742 -7.65685e-20)
(-0.0237914 0.221164 -2.58673e-20)
(-0.0186583 0.202252 -2.60959e-20)
(-0.0119962 0.180991 5.25891e-20)
(-0.00390556 0.15822 -5.28563e-20)
(0.00547831 0.134653 2.65792e-20)
(0.0159962 0.110909 0)
(0.0274711 0.0875245 8.07412e-20)
(0.0397125 0.0649575 2.71137e-20)
(0.0525265 0.0435901 -5.42088e-20)
(0.0657213 0.0237301 1.0862e-19)
(0.0791111 0.0056118 -1.08869e-19)
(0.0925232 -0.0106012 1.0888e-19)
(0.105804 -0.0248126 5.47048e-20)
(0.118817 -0.0369873 0)
(0.131449 -0.0471458 5.46912e-20)
(0.143605 -0.0553544 1.75541e-22)
(0.155214 -0.0617166 0)
(0.166227 -0.0663628 5.46004e-20)
(0.176612 -0.0694421 -5.44381e-20)
(0.186355 -0.0711153 5.42113e-20)
(0.195454 -0.0715477 1.08391e-19)
(0.20392 -0.070902 -1.07894e-19)
(0.211772 -0.0693351 1.07594e-19)
(0.219036 -0.0669949 0)
(0.225743 -0.0640176 0)
(0.231926 -0.0605252 1.06202e-19)
(0.237619 -0.0566263 0)
(0.242857 -0.0524144 0)
(0.247679 -0.0479713 -1.04469e-19)
(0.252139 -0.043276 1.04028e-19)
(0.256117 -0.0381131 5.74715e-20)
(-0.00520607 0.0479722 1.02745e-20)
(-0.013079 0.120603 0)
(-0.0193179 0.175702 9.16516e-20)
(-0.0240408 0.214334 1.17357e-20)
(-0.0272905 0.238543 1.19828e-20)
(-0.0290475 0.250675 7.29508e-20)
(-0.0292574 0.252983 9.88517e-20)
(-0.027866 0.247484 0)
(-0.024843 0.235907 2.54196e-20)
(-0.0201976 0.2197 7.69004e-20)
(-0.0139729 0.200075 1.03544e-19)
(-0.00624615 0.17805 -2.61551e-20)
(0.00286627 0.154489 -7.88142e-20)
(0.0132153 0.130133 0)
(0.0246296 0.105629 1.06353e-19)
(0.0369219 0.0815317 0)
(0.049894 0.0583182 1.61075e-19)
(0.0633447 0.0363855 -5.38802e-20)
(0.0770766 0.0160514 0)
(0.0909015 -0.00244366 -5.42662e-20)
(0.104647 -0.0189327 -1.74194e-22)
(0.118162 -0.0333203 -5.40694e-20)
(0.131313 -0.0455767 -5.43316e-20)
(0.143992 -0.0557299 5.44603e-20)
(0.156114 -0.0638554 -5.43173e-20)
(0.167615 -0.0700666 0)
(0.178455 -0.0745049 -5.43106e-20)
(0.188614 -0.0773308 5.41029e-20)
(0.198086 -0.0787159 0)
(0.206879 -0.078835 0)
(0.215012 -0.0778601 0)
(0.222514 -0.0759561 -1.07143e-19)
(0.229416 -0.0732773 1.06577e-19)
(0.235755 -0.0699651 0)
(0.241572 -0.0661456 -5.29862e-20)
(0.246904 -0.0619302 0)
(0.251789 -0.0574149 1.0478e-19)
(0.25627 -0.0526821 -5.19185e-20)
(0.2604 -0.0477123 -1.03667e-19)
(0.264067 -0.0422915 1.13974e-19)
(-0.00603301 0.0477689 7.15572e-20)
(-0.0148487 0.120277 -1.00333e-19)
(-0.0213463 0.17542 -1.71588e-19)
(-0.0258797 0.214139 -9.34176e-20)
(-0.0285854 0.238392 -2.38709e-20)
(-0.0295483 0.250461 -4.8724e-20)
(-0.0287923 0.252572 -2.22065e-19)
(-0.0263258 0.24674 -7.49009e-20)
(-0.0221682 0.234702 -1.26477e-19)
(-0.0163645 0.217928 -1.28185e-19)
(-0.00898521 0.197655 -1.80898e-19)
(-0.000130559 0.174931 -1.04023e-19)
(0.0100638 0.150645 3.7919e-22)
(0.0214334 0.125566 -1.05388e-19)
(0.0337938 0.100364 -1.06351e-19)
(0.0469467 0.0756171 -1.5979e-19)
(0.0606834 0.0518184 1.06637e-19)
(0.0747951 0.0293787 -5.36615e-20)
(0.0890793 0.00862611 0)
(0.103346 -0.0101924 1.07733e-19)
(0.117423 -0.0269077 0)
(0.131162 -0.0414269 2.16519e-19)
(0.144433 -0.0537257 0)
(0.157137 -0.0638394 -5.42293e-20)
(0.169196 -0.0718529 5.44338e-20)
(0.180558 -0.0778903 -1.08082e-19)
(0.191193 -0.0821039 0)
(0.201091 -0.0846652 -1.07954e-19)
(0.210257 -0.0857563 1.07504e-19)
(0.218709 -0.0855616 0)
(0.226477 -0.0842617 0)
(0.233596 -0.0820289 0)
(0.240106 -0.0790237 -1.05964e-19)
(0.246051 -0.0753913 0)
(0.251476 -0.0712624 -1.05344e-19)
(0.256424 -0.0667502 2.0956e-19)
(0.260936 -0.0619527 -2.08514e-19)
(0.265057 -0.056953 1.03375e-19)
(0.26884 -0.0517335 2.06296e-19)
(0.272182 -0.0460829 -1.13317e-19)
(-0.0068434 0.0474288 -9.20058e-20)
(-0.0165941 0.119632 2.7372e-22)
(-0.0233551 0.174708 9.13707e-20)
(-0.0277022 0.21345 1.86553e-19)
(-0.0298578 0.237719 -2.37993e-20)
(-0.0300072 0.249731 -9.67386e-20)
(-0.0282546 0.251676 9.85308e-20)
(-0.0246728 0.245555 1.49814e-19)
(-0.0193314 0.23311 5.06581e-20)
(-0.0123139 0.215831 1.27415e-19)
(-0.00372241 0.194978 1.03188e-19)
(0.00631741 0.171621 1.55743e-19)
(0.0176494 0.146679 3.13686e-19)
(0.0300915 0.120947 1.57809e-19)
(0.043444 0.0951162 0)
(0.0574953 0.069786 5.32765e-20)
(0.0720265 0.0454673 5.2849e-20)
(0.0868201 0.0225839 5.32234e-20)
(0.101669 0.00147358 1.07276e-19)
(0.116381 -0.0176111 -5.41462e-20)
(0.130785 -0.0345003 0)
(0.144733 -0.0491038 -4.5539e-22)
(0.158107 -0.0614032 -1.07638e-19)
(0.17081 -0.0714419 1.07649e-19)
(0.182778 -0.0793144 2.1567e-19)
(0.19397 -0.0851552 2.15362e-19)
(0.204366 -0.0891278 -1.17051e-22)
(0.21397 -0.0914143 1.07162e-19)
(0.222796 -0.0922072 1.06914e-19)
(0.230876 -0.0917001 -1.0662e-19)
(0.238247 -0.0900816 1.06285e-19)
(0.244955 -0.0875306 1.05911e-19)
(0.251046 -0.0842127 2.11463e-19)
(0.256572 -0.0802776 -2.96959e-22)
(0.261583 -0.0758584 3.14212e-19)
(0.266127 -0.0710709 -1.73014e-22)
(0.270248 -0.0660141 -1.03557e-19)
(0.273993 -0.0607721 -1.03479e-19)
(0.277415 -0.055329 1.02443e-19)
(0.280419 -0.0494779 1.1245e-19)
(-0.00763089 0.0469581 8.12749e-20)
(-0.0183033 0.118683 1.11088e-19)
(-0.0253327 0.173573 6.80893e-20)
(-0.0294976 0.212268 -6.98749e-20)
(-0.0311004 0.236524 -1.18436e-19)
(-0.030423 0.24848 9.67162e-20)
(-0.0276493 0.250282 0)
(-0.0229169 0.243913 9.93153e-20)
(-0.0163482 0.231117 0)
(-0.00806809 0.213395 -2.03475e-19)
(0.00178751 0.192027 5.13441e-20)
(0.0130652 0.168108 -2.58682e-19)
(0.0255857 0.142582 -1.0437e-19)
(0.0391471 0.116269 5.20389e-20)
(0.0535326 0.0898816 5.72107e-23)
(0.0685163 0.0640401 -5.2869e-20)
(0.0838674 0.0392717 -1.06416e-19)
(0.0993599 0.0160123 -2.13095e-19)
(0.114781 -0.00539121 0)
(0.129938 -0.0246815 -1.10814e-22)
(0.144661 -0.0416888 -1.07112e-19)
(0.158805 -0.056327 -1.0757e-19)
(0.172258 -0.0685837 1.07635e-19)
(0.184937 -0.0785108 -1.07992e-19)
(0.196785 -0.0862125 1.07143e-19)
(0.207774 -0.0918341 -2.14671e-19)
(0.217901 -0.0955499 -1.24578e-22)
(0.227177 -0.0975531 -2.13985e-19)
(0.235633 -0.0980455 -1.06912e-19)
(0.24331 -0.0972293 1.4413e-22)
(0.250256 -0.0953003 -3.16534e-22)
(0.256526 -0.0924436 -1.05909e-19)
(0.262175 -0.088829 -1.05499e-19)
(0.267261 -0.08461 -4.64182e-22)
(0.271839 -0.0799218 -1.04583e-19)
(0.275962 -0.0748819 -4.67244e-22)
(0.279677 -0.0695904 -1.03186e-19)
(0.283034 -0.0641315 3.07986e-19)
(0.286084 -0.0584919 -1.02442e-19)
(0.288739 -0.0524701 -1.12319e-19)
(-0.00839023 0.0463664 -8.12836e-20)
(-0.0199653 0.117441 2.21103e-20)
(-0.027267 0.172027 -6.81358e-20)
(-0.0312553 0.210601 -2.31679e-20)
(-0.0323058 0.234806 9.4729e-20)
(-0.0307931 0.2467 -2.40802e-20)
(-0.026979 0.248379 2.4443e-20)
(-0.0210667 0.241801 -1.48905e-19)
(-0.0132332 0.228705 5.01687e-20)
(-0.0036475 0.2106 1.01571e-19)
(0.00751854 0.188785 0)
(0.0200813 0.164377 2.06239e-19)
(0.0338358 0.138342 0)
(0.048558 0.111523 -2.08829e-19)
(0.0640124 0.0846562 -1.04742e-19)
(0.0799575 0.0583793 0)
(0.0961495 0.0332351 0)
(0.112353 0.00967127 2.12233e-19)
(0.128352 -0.0119571 1.06493e-19)
(0.143951 -0.031389 -2.13225e-19)
(0.15898 -0.0484564 1.06664e-19)
(0.173302 -0.0630774 0)
(0.186813 -0.0752466 -1.07073e-19)
(0.199439 -0.0850244 2.1347e-19)
(0.211138 -0.0925254 -1.068e-19)
(0.221895 -0.0979056 -1.0693e-19)
(0.23172 -0.10135 1.06561e-19)
(0.240639 -0.103063 0)
(0.248695 -0.103254 2.12303e-19)
(0.255941 -0.102133 -1.05835e-19)
(0.262437 -0.0999038 -1.05668e-19)
(0.268246 -0.0967556 -1.50662e-22)
(0.273433 -0.0928623 4.19041e-19)
(0.27806 -0.0883799 -3.13173e-19)
(0.28219 -0.0834455 0)
(0.285879 -0.0781776 -1.03613e-19)
(0.289177 -0.0726767 -2.05795e-19)
(0.292136 -0.0670273 1.01971e-19)
(0.294806 -0.0612187 1.01493e-19)
(0.297107 -0.0550561 0)
(-0.00911722 0.0456635 -1.61516e-19)
(-0.0215701 0.115921 -2.20419e-20)
(-0.0291459 0.170084 1.80553e-19)
(-0.0329639 0.208457 -1.84621e-19)
(-0.0334659 0.232569 0)
(-0.0311132 0.244389 0)
(-0.0262442 0.245959 -4.87705e-20)
(-0.0191285 0.239206 -2.06856e-23)
(-0.00999889 0.22586 5.00147e-20)
(0.00092963 0.207433 0)
(0.0134468 0.185239 0)
(0.027336 0.160414 -5.15496e-20)
(0.0423639 0.133947 2.20981e-23)
(0.058283 0.106701 5.22189e-20)
(0.0748373 0.0794336 1.04739e-19)
(0.0917676 0.0528004 0)
(0.108816 0.0273578 1.05446e-19)
(0.12574 0.00356495 -1.05731e-19)
(0.142316 -0.0182163 -2.11919e-19)
(0.158349 -0.0377234 2.12344e-19)
(0.173671 -0.0547904 2.23435e-22)
(0.188151 -0.0693407 -1.06327e-19)
(0.201694 -0.0813762 1.0662e-19)
(0.21424 -0.0909667 -2.13125e-19)
(0.225761 -0.0982373 0)
(0.236255 -0.103355 1.06472e-19)
(0.245748 -0.106515 -2.1242e-19)
(0.254281 -0.10793 1.05909e-19)
(0.26191 -0.10782 -1.0599e-19)
(0.268701 -0.106402 -1.05548e-19)
(0.274724 -0.103884 -1.05364e-19)
(0.280054 -0.10046 4.18993e-19)
(0.284761 -0.0963076 -3.13105e-19)
(0.288917 -0.0915838 -2.079e-19)
(0.292587 -0.0864271 2.0671e-19)
(0.295832 -0.0809564 0)
(0.298705 -0.0752724 2.04846e-19)
(0.301259 -0.0694594 -2.03564e-19)
(0.303544 -0.0635094 -1.01492e-19)
(0.305488 -0.0572357 0)
(-0.00980792 0.0448594 3.42721e-19)
(-0.023108 0.114142 1.53663e-19)
(-0.0309579 0.167762 -1.80551e-19)
(-0.0346121 0.20585 1.61563e-19)
(-0.0345709 0.22982 -2.35423e-20)
(-0.0313769 0.241549 4.78387e-20)
(-0.0254434 0.24302 0)
(-0.017106 0.236121 -4.92889e-20)
(-0.00665426 0.22257 4.98628e-20)
(0.00564854 0.203879 5.03833e-20)
(0.0195513 0.181373 -5.08234e-20)
(0.0348022 0.156205 -5.12147e-20)
(0.0511377 0.129383 5.15354e-20)
(0.0682843 0.101791 0)
(0.0859634 0.0742054 0)
(0.103897 0.047298 -1.0465e-19)
(0.121814 0.0216381 1.04896e-19)
(0.13946 -0.00230518 -1.05356e-19)
(0.15661 -0.0241649 1.0544e-19)
(0.173064 -0.0436782 1.05839e-19)
(0.188661 -0.0606827 -2.11787e-19)
(0.203276 -0.0751073 2.12e-19)
(0.216826 -0.0869622 2.33276e-22)
(0.229263 -0.0963272 -1.05944e-19)
(0.240575 -0.103338 0)
(0.250777 -0.108172 1.06018e-19)
(0.25991 -0.111035 2.06536e-22)
(0.26803 -0.112149 -1.05454e-19)
(0.275208 -0.11174 0)
(0.281522 -0.110033 2.10175e-19)
(0.287055 -0.107239 -2.09173e-19)
(0.291888 -0.103557 0)
(0.296104 -0.0991655 2.07871e-19)
(0.299778 -0.0942234 -2.06726e-19)
(0.30298 -0.0888692 0)
(0.305775 -0.0832216 0)
(0.308219 -0.0773809 0)
(0.310366 -0.071431 -2.02779e-19)
(0.312264 -0.0653671 2.01479e-19)
(0.31385 -0.0590114 2.20334e-19)
(-0.0104594 0.0439649 -1.61024e-19)
(-0.0245711 0.112122 -1.75636e-19)
(-0.0326916 0.165079 -2.24818e-20)
(-0.0361876 0.202796 6.8941e-20)
(-0.0356096 0.22657 -9.37588e-20)
(-0.0315758 0.238186 9.54367e-20)
(-0.0245718 0.239559 -9.69379e-20)
(-0.0149991 0.232539 -1.4713e-19)
(-0.00320488 0.218824 0)
(0.010498 0.199925 -5.02233e-20)
(0.0258154 0.177173 5.0662e-20)
(0.0424575 0.151735 0)
(0.0601285 0.124637 1.02743e-19)
(0.0785269 0.0967816 -1.03274e-19)
(0.09735 0.0689625 -3.11002e-19)
(0.116299 0.0418654 -9.9987e-23)
(0.135089 0.016072 2.09123e-19)
(0.153457 -0.00794043 -1.04786e-19)
(0.17117 -0.0298019 0)
(0.188031 -0.0492508 0)
(0.203881 -0.0661289 2.10491e-19)
(0.218605 -0.0803718 1.05675e-19)
(0.232133 -0.091999 -1.05501e-19)
(0.244433 -0.101101 -1.0573e-19)
(0.255506 -0.107823 2.11129e-19)
(0.265387 -0.112354 -1.05353e-19)
(0.274132 -0.114909 2.10811e-19)
(0.281815 -0.115718 -4.20394e-19)
(0.28852 -0.115014 4.19381e-19)
(0.29434 -0.113027 -4.18187e-19)
(0.299367 -0.109972 4.16823e-19)
(0.303694 -0.106051 -4.153e-19)
(0.307409 -0.101442 2.0669e-19)
(0.310594 -0.0963054 2.06027e-19)
(0.313325 -0.0907789 2.05309e-22)
(0.315668 -0.0849806 1.84466e-22)
(0.317682 -0.0790096 -2.02782e-19)
(0.319423 -0.0729494 5.421e-22)
(0.320936 -0.0667982 -2.00531e-19)
(0.322167 -0.0603885 0)
(-0.0110693 0.042991 2.00356e-20)
(-0.0259516 0.109881 -2.18684e-20)
(-0.0343363 0.162058 6.72256e-20)
(-0.0376778 0.199315 -9.16391e-20)
(-0.0365693 0.222834 4.67215e-20)
(-0.031699 0.234306 0)
(-0.0236218 0.235578 0)
(-0.0128043 0.228457 1.96254e-19)
(0.00034829 0.214617 2.4755e-19)
(0.0154718 0.195561 -5.00699e-20)
(0.0322269 0.172627 2.52183e-19)
(0.050284 0.146992 -5.08735e-20)
(0.0693125 0.119697 0)
(0.0889811 0.0916623 0)
(0.108961 0.0636953 2.07178e-19)
(0.128933 0.0364954 0)
(0.148595 0.0106544 1.03709e-19)
(0.167676 -0.0133442 -1.04122e-19)
(0.185939 -0.0351291 0)
(0.203185 -0.0544415 -2.09359e-19)
(0.219263 -0.0711283 -1.05348e-19)
(0.234068 -0.0851333 -3.14862e-19)
(0.247544 -0.0964857 -1.05292e-19)
(0.259674 -0.105287 1.05066e-19)
(0.270479 -0.111693 2.09815e-19)
(0.280011 -0.115902 0)
(0.288343 -0.118139 2.0928e-19)
(0.295567 -0.118642 4.18347e-19)
(0.301782 -0.117648 3.46777e-22)
(0.307092 -0.115393 -2.08026e-19)
(0.311602 -0.112093 -2.07645e-19)
(0.315415 -0.107952 2.066e-19)
(0.318625 -0.103148 2.06013e-19)
(0.32132 -0.0978412 -4.09972e-19)
(0.323579 -0.0921679 4.08038e-19)
(0.325472 -0.0862447 -2.03457e-19)
(0.32706 -0.0801696 2.01846e-19)
(0.328398 -0.0740249 4.01615e-19)
(0.329532 -0.0678123 1.99172e-19)
(0.330412 -0.0613752 2.17234e-19)
(-0.0116361 0.0419487 -1.59578e-19)
(-0.0272433 0.10744 1.52262e-19)
(-0.0358813 0.158723 -1.33804e-19)
(-0.0390693 0.195428 1.36785e-19)
(-0.0374358 0.218629 2.32778e-19)
(-0.0317329 0.229922 -1.89524e-19)
(-0.0225819 0.231084 2.40697e-19)
(-0.0105135 0.223876 1.46275e-19)
(0.00400904 0.209943 -3.45958e-19)
(0.0205689 0.190781 9.95367e-20)
(0.0387795 0.167726 4.97218e-20)
(0.0582695 0.141966 1.01407e-19)
(0.0786715 0.114553 1.01698e-19)
(0.0996223 0.0864225 -2.04804e-19)
(0.120766 0.0583946 2.05718e-19)
(0.14176 0.0311802 3.09982e-19)
(0.162288 0.00537912 -3.11653e-19)
(0.182069 -0.0185213 4.16222e-19)
(0.20086 -0.0401502 2.08176e-19)
(0.218466 -0.0592529 3.13924e-19)
(0.234742 -0.0756832 1.04301e-19)
(0.249596 -0.0893941 2.09835e-19)
(0.262987 -0.100426 -2.09083e-19)
(0.274916 -0.108889 0)
(0.285424 -0.114953 -6.28344e-19)
(0.294579 -0.118825 4.18304e-19)
(0.302476 -0.120736 -2.08888e-19)
(0.309221 -0.120932 -2.08494e-19)
(0.31493 -0.119656 -2.66453e-22)
(0.31972 -0.117144 0)
(0.323707 -0.113617 0)
(0.327002 -0.109275 2.05375e-19)
(0.329706 -0.1043 -2.0509e-19)
(0.331913 -0.0988467 2.0396e-19)
(0.333704 -0.0930519 -2.03183e-19)
(0.335153 -0.0870296 -2.02157e-19)
(0.336321 -0.0808755 0)
(0.337264 -0.0746713 -1.99807e-19)
(0.338026 -0.0684218 -1.9906e-19)
(0.338566 -0.0619824 -6.50125e-19)
(-0.0121588 0.0408491 1.59547e-19)
(-0.0284406 0.104822 -1.52381e-19)
(-0.0373164 0.155099 1.78458e-19)
(-0.0403482 0.19116 -3.18897e-19)
(-0.0381931 0.213976 -2.32645e-19)
(-0.0316613 0.225049 1.89522e-19)
(-0.0214371 0.226087 -3.84445e-19)
(-0.00811385 0.218799 -1.95113e-19)
(0.00778664 0.204803 2.46667e-19)
(0.0257941 0.18558 -4.47907e-19)
(0.0454732 0.162465 -3.0141e-19)
(0.0664084 0.136649 -1.00757e-19)
(0.0881937 0.109196 -3.05438e-19)
(0.110432 0.0810535 3.07027e-19)
(0.132739 0.0530524 -2.05714e-19)
(0.154749 0.0259125 -2.06497e-19)
(0.176129 0.000239767 0)
(0.196588 -0.0234771 -2.07715e-19)
(0.215881 -0.04487 -3.12143e-19)
(0.233816 -0.0636898 1.03983e-19)
(0.250257 -0.0797987 -2.08812e-19)
(0.265126 -0.0931602 0)
(0.278397 -0.103825 2.09079e-19)
(0.290092 -0.111917 2.08849e-19)
(0.300272 -0.117614 -2.0745e-19)
(0.309026 -0.121133 0)
(0.316466 -0.122713 0)
(0.322717 -0.122603 0)
(0.327908 -0.121053 -8.80452e-22)
(0.332171 -0.118299 0)
(0.335631 -0.114561 -4.11082e-19)
(0.338408 -0.110041 -5.80391e-22)
(0.34061 -0.104916 -4.07789e-19)
(0.342335 -0.099342 4.06291e-19)
(0.343667 -0.0934507 -2.02081e-19)
(0.34468 -0.0873539 2.01602e-19)
(0.345438 -0.0811454 0)
(0.345997 -0.0749053 3.98362e-19)
(0.346398 -0.0686419 -1.97697e-19)
(0.346608 -0.0622233 0)
(-0.0126371 0.0397028 1.98567e-20)
(-0.029539 0.102048 0)
(-0.0386317 0.151212 -2.21895e-19)
(-0.0415003 0.186537 2.72842e-19)
(-0.0388237 0.208898 1.38819e-19)
(-0.031465 0.219707 -1.88459e-19)
(-0.0201683 0.2206 1.91949e-19)
(-0.005588 0.213237 -1.94002e-19)
(0.0116959 0.199202 0)
(0.0311586 0.17996 1.98769e-19)
(0.0523143 0.156839 -1.99831e-19)
(0.0747016 0.131036 6.26726e-22)
(0.097874 0.10362 0)
(0.121399 0.0755492 2.03439e-19)
(0.144861 0.0476626 -1.01959e-19)
(0.167873 0.0206868 2.05109e-19)
(0.190085 -0.00476899 1.02692e-19)
(0.211195 -0.028217 -2.06191e-19)
(0.230957 -0.0492939 0)
(0.249184 -0.0677581 3.10714e-19)
(0.265751 -0.0834819 1.03494e-19)
(0.280596 -0.0964401 0)
(0.293711 -0.106696 0)
(0.305139 -0.114383 0)
(0.314962 -0.11969 2.08088e-19)
(0.32329 -0.122843 0)
(0.330254 -0.124088 -2.07274e-19)
(0.335996 -0.123677 4.1331e-19)
(0.340662 -0.121862 -4.12538e-19)
(0.344394 -0.11888 0)
(0.347329 -0.114951 2.05252e-19)
(0.349593 -0.110273 -2.03576e-19)
(0.3513 -0.105022 2.03615e-19)
(0.352552 -0.0993507 0)
(0.353436 -0.093387 0)
(0.354027 -0.0872399 2.0028e-19)
(0.354388 -0.0810001 -1.9906e-19)
(0.354577 -0.0747463 3.96056e-19)
(0.35463 -0.0684904 -3.9352e-19)
(0.354525 -0.0621133 0)
(-0.0130713 0.0385201 1.38326e-19)
(-0.0305345 0.0991397 4.3174e-20)
(-0.0398177 0.147089 1.77444e-19)
(-0.0425106 0.181588 1.80962e-19)
(-0.0393084 0.203422 -1.85144e-19)
(-0.0311224 0.213917 1.88458e-19)
(-0.0187527 0.214641 1.90875e-19)
(-0.00291359 0.207201 1.94001e-19)
(0.0157573 0.193147 0)
(0.0366797 0.173924 1.97603e-19)
(0.0593159 0.150852 1.99828e-19)
(0.083157 0.125126 2.01228e-19)
(0.107714 0.0978237 0)
(0.132517 0.0699067 -6.60709e-22)
(0.157121 0.0422219 2.04305e-19)
(0.181112 0.0154994 -1.02666e-19)
(0.204126 -0.00965098 -1.03339e-19)
(0.225852 -0.0327453 3.09158e-19)
(0.246044 -0.0534272 1.39243e-22)
(0.264521 -0.0714645 -1.03972e-19)
(0.281172 -0.0867411 -2.07198e-19)
(0.29595 -0.0992443 0)
(0.30887 -0.109049 0)
(0.319997 -0.116302 0)
(0.329434 -0.1212 0)
(0.337313 -0.123977 0)
(0.343785 -0.124884 0)
(0.349008 -0.124177 2.05959e-19)
(0.353143 -0.122109 -2.05103e-19)
(0.356345 -0.118914 0)
(0.358759 -0.114812 0)
(0.360518 -0.109999 2.03574e-19)
(0.361742 -0.104645 0)
(0.362535 -0.0988995 2.01416e-19)
(0.362985 -0.092887 -2.00264e-19)
(0.363169 -0.0867121 0)
(0.36315 -0.0804629 3.96493e-19)
(0.362985 -0.0742161 -3.94013e-19)
(0.362707 -0.0679869 0)
(0.362304 -0.0616702 0)
(-0.013462 0.0373109 -1.58158e-19)
(-0.0314241 0.0961185 -4.31139e-20)
(-0.0408651 0.142758 4.41466e-20)
(-0.0433636 0.176342 -1.80962e-19)
(-0.0396267 0.197576 0)
(-0.0306089 0.207706 0)
(-0.017164 0.208232 -1.43216e-19)
(-6.3624e-05 0.20071 -4.82897e-20)
(0.0199967 0.186652 -9.76865e-20)
(0.0423807 0.167482 -9.89265e-20)
(0.0664973 0.144508 -9.94394e-20)
(0.0917887 0.118924 1.00179e-19)
(0.117722 0.0918085 1.00432e-19)
(0.143788 0.0641274 -1.01536e-19)
(0.16951 0.0367308 0)
(0.19445 0.0103499 0)
(0.218229 -0.0144079 -2.04944e-19)
(0.240529 -0.0370652 0)
(0.261104 -0.0572746 0)
(0.279783 -0.0748158 2.05211e-19)
(0.296468 -0.0895856 3.4871e-22)
(0.311135 -0.101585 -2.05156e-22)
(0.323821 -0.110901 -2.064e-19)
(0.334612 -0.117692 2.05956e-19)
(0.343635 -0.122164 2.05596e-19)
(0.351044 -0.124557 -2.05339e-19)
(0.357009 -0.125127 0)
(0.361706 -0.124132 2.051e-19)
(0.365309 -0.121822 2.92065e-22)
(0.367985 -0.118432 -2.03626e-19)
(0.369887 -0.114177 0)
(0.371153 -0.109249 0)
(0.371908 -0.103815 2.01462e-19)
(0.372258 -0.098018 -2.00352e-19)
(0.372293 -0.0919788 -1.99505e-19)
(0.372089 -0.0857977 1.98326e-19)
(0.371708 -0.0795593 0)
(0.371207 -0.0733384 0)
(0.370618 -0.0671535 0)
(0.369936 -0.0609139 -2.11322e-19)
(-0.0138101 0.0360838 1.96647e-19)
(-0.032205 0.0930047 -8.59182e-20)
(-0.0417645 0.138245 4.40217e-20)
(-0.0440431 0.170829 0)
(-0.0397562 0.191389 2.29589e-19)
(-0.0298978 0.201101 3.43917e-23)
(-0.0153719 0.201399 1.89832e-19)
(0.0029933 0.193785 -1.44468e-19)
(0.0244451 0.179736 1.94839e-19)
(0.0482906 0.160649 -9.8392e-20)
(0.073884 0.137821 0)
(0.100617 0.112439 9.98208e-20)
(0.127911 0.0855823 -3.01592e-19)
(0.155217 0.058217 0)
(0.182026 0.0311936 3.036e-19)
(0.207877 0.00524103 -2.0293e-19)
(0.232375 -0.0190389 -2.03897e-19)
(0.255197 -0.0411776 1.02139e-19)
(0.276101 -0.0608398 0)
(0.294927 -0.0778185 -2.05422e-19)
(0.311597 -0.0920253 -2.05434e-19)
(0.326105 -0.103475 -5.63159e-22)
(0.338514 -0.112269 2.05025e-19)
(0.348934 -0.118573 2.05536e-19)
(0.357516 -0.122606 -4.10592e-19)
(0.364436 -0.124611 2.05337e-19)
(0.369883 -0.124847 0)
(0.37405 -0.123572 -2.03689e-19)
(0.377124 -0.121034 2.03129e-19)
(0.37928 -0.117466 2.0248e-19)
(0.380681 -0.113078 -2.01748e-19)
(0.381471 -0.108057 2.00939e-19)
(0.381775 -0.102564 0)
(0.381702 -0.0967377 1.99619e-19)
(0.381342 -0.0906928 3.96834e-19)
(0.38077 -0.0845256 -3.9486e-19)
(0.38005 -0.0783167 3.92815e-19)
(0.379234 -0.072139 1.15555e-22)
(0.378354 -0.066014 -1.94419e-19)
(0.377413 -0.0598661 4.21424e-19)
(-0.0141167 0.0348468 -1.17954e-19)
(-0.0328751 0.0898175 -2.56803e-19)
(-0.0425069 0.133578 1.75395e-19)
(-0.0445327 0.165079 -1.34556e-19)
(-0.0396737 0.184895 -4.63676e-20)
(-0.0289599 0.194134 4.66372e-20)
(-0.0133435 0.19417 -9.50299e-20)
(0.00629247 0.186453 -9.60408e-20)
(0.0291381 0.172421 9.71281e-20)
(0.0544432 0.153445 -1.96168e-19)
(0.0815063 0.130807 6.55508e-23)
(0.109667 0.105686 9.95826e-20)
(0.138299 0.0791578 0)
(0.166815 0.0521864 -1.0057e-19)
(0.19467 0.0256191 -1.01295e-19)
(0.221384 0.000179474 2.02963e-19)
(0.246547 -0.0235395 0)
(0.269832 -0.0450812 0)
(0.291004 -0.0641245 2.04156e-19)
(0.309918 -0.0804784 -2.0418e-19)
(0.326515 -0.0940701 0)
(0.340814 -0.104929 2.04793e-19)
(0.352903 -0.11317 -2.04663e-19)
(0.362919 -0.118969 -4.09114e-19)
(0.371034 -0.122552 -3.56913e-22)
(0.377448 -0.124168 2.04503e-19)
(0.382369 -0.124075 -4.06911e-19)
(0.386004 -0.122531 2.03687e-19)
(0.388554 -0.119781 -2.03127e-19)
(0.390202 -0.116053 -3.11635e-22)
(0.391118 -0.111552 5.41805e-22)
(0.391448 -0.106458 -2.00937e-19)
(0.391323 -0.100928 -1.9919e-19)
(0.390849 -0.0950918 -1.98237e-19)
(0.390117 -0.089061 -8.80497e-22)
(0.389202 -0.0829261 0)
(0.388164 -0.0767639 -1.95029e-19)
(0.387057 -0.0706449 3.88647e-19)
(0.385908 -0.0645937 -5.79712e-19)
(0.38473 -0.0585501 6.94936e-23)
(-0.0143831 0.0336071 -3.9141e-20)
(-0.0334322 0.0865748 3.41771e-19)
(-0.0430833 0.128781 -1.75453e-19)
(-0.0448154 0.159122 1.34625e-19)
(-0.0393545 0.178126 -3.65727e-19)
(-0.0277642 0.186839 4.65077e-20)
(-0.0110431 0.186578 -1.88757e-19)
(0.00987238 0.178743 0)
(0.0341149 0.164734 0)
(0.0608765 0.145895 -1.95331e-19)
(0.0893987 0.123489 9.85547e-20)
(0.118968 0.0986857 -2.99126e-22)
(0.148909 0.0725536 9.98358e-20)
(0.178594 0.0460518 0)
(0.207448 0.0200212 -3.01638e-19)
(0.234967 -0.00482368 1.00977e-19)
(0.26073 -0.027902 -2.0217e-19)
(0.284411 -0.0487719 0)
(0.305784 -0.0671292 0)
(0.324721 -0.0828004 4.99478e-22)
(0.341185 -0.09573 -2.03624e-19)
(0.355223 -0.105963 2.03492e-19)
(0.366949 -0.113625 -2.04041e-19)
(0.376526 -0.118904 2.03603e-19)
(0.384151 -0.122032 5.58125e-22)
(0.390045 -0.123259 5.694e-22)
(0.394434 -0.122845 2.03334e-19)
(0.39754 -0.121044 -2.02041e-19)
(0.399574 -0.118098 0)
(0.400729 -0.114228 -2.0132e-19)
(0.401177 -0.109634 2.00362e-19)
(0.40107 -0.104488 0)
(0.400537 -0.0989402 1.99189e-19)
(0.399687 -0.0931146 -1.9748e-19)
(0.398608 -0.0871162 1.96232e-19)
(0.397374 -0.0810306 0)
(0.396044 -0.0749306 5.84238e-19)
(0.394669 -0.0688841 -3.86776e-19)
(0.393276 -0.0629189 0)
(0.391885 -0.0569906 2.09041e-19)
(-0.0146107 0.0323707 3.1177e-19)
(-0.0338746 0.0832932 -1.70641e-19)
(-0.0434845 0.123879 -4.3707e-20)
(-0.0448738 0.15299 4.46433e-20)
(-0.0387733 0.171116 1.82585e-19)
(-0.0262783 0.179251 0)
(-0.00843276 0.178658 1.88758e-19)
(0.013774 0.170691 2.86002e-19)
(0.0394175 0.15671 9.661e-20)
(0.067631 0.13803 9.78411e-20)
(0.0975982 0.115896 9.83389e-20)
(0.128551 0.0914642 -2.97119e-19)
(0.159765 0.0657937 9.95343e-20)
(0.190571 0.0398349 3.9918e-19)
(0.220364 0.0144186 1.00652e-19)
(0.24862 -0.00975321 1.00651e-19)
(0.274911 -0.0321151 2.02168e-19)
(0.298913 -0.0522432 0)
(0.320413 -0.0698526 0)
(0.339303 -0.0847892 4.06235e-19)
(0.355572 -0.0970152 -8.11457e-19)
(0.369295 -0.106591 -5.22827e-22)
(0.380615 -0.113654 0)
(0.38972 -0.118404 0)
(0.396834 -0.121074 2.03202e-19)
(0.402196 -0.121917 0)
(0.406051 -0.121192 0)
(0.408634 -0.119149 -2.00422e-19)
(0.410165 -0.116024 -4.01287e-19)
(0.410843 -0.112031 0)
(0.410844 -0.107363 -3.98426e-19)
(0.410323 -0.102185 -7.94515e-19)
(0.409409 -0.0966382 3.95654e-19)
(0.408208 -0.0908409 -3.93029e-19)
(0.406809 -0.0848916 3.91912e-19)
(0.405283 -0.0788707 -3.89596e-19)
(0.403686 -0.0728467 -3.8654e-19)
(0.402068 -0.066885 0)