/*--------------------------------*- C++ -*----------------------------------*\
  =========                 |
  \\      /  F ield         | OpenFOAM: The Open Source CFD Toolbox
   \\    /   O peration     | Website:  https://openfoam.org
    \\  /    A nd           | Version:  7
     \\/     M anipulation  |
\*---------------------------------------------------------------------------*/
FoamFile
{
    version     2.0;
    format      ascii;
    class       volVectorField;
    location    "3.3";
    object      U;
}
// * * * * * * * * * * * * * * * * * * * * * * * * * * * * * * * * * * * * * //

dimensions      [0 1 -1 0 0 0 0];

internalField   nonuniform List<vector> 
18000
(
(-0.0016738 0.0332284 1.53717e-20)
(-0.00770752 0.0863247 0)
(-0.0172536 0.130478 0)
(-0.0276199 0.165674 0)
(-0.0380486 0.19311 -5.06617e-21)
(-0.0477867 0.214188 2.56193e-20)
(-0.0563451 0.230104 -5.18833e-21)
(-0.0634225 0.241756 5.22413e-21)
(-0.0688472 0.249779 0)
(-0.0725379 0.254606 -1.58066e-20)
(-0.0744832 0.256549 -5.29281e-21)
(-0.0747149 0.255855 0)
(-0.0732919 0.252754 1.0555e-20)
(-0.0702915 0.247482 1.05903e-20)
(-0.0658033 0.240287 -2.11164e-20)
(-0.0599276 0.231439 -2.10574e-20)
(-0.0527715 0.221221 0)
(-0.0444479 0.209921 -3.13844e-20)
(-0.0350772 0.197836 1.04112e-20)
(-0.0247861 0.185253 -3.10679e-20)
(-0.013707 0.172449 1.0296e-20)
(-0.00197522 0.159682 0)
(0.0102738 0.147185 -1.0102e-20)
(0.0229039 0.135169 -1.00914e-20)
(0.0357805 0.123816 0)
(0.0487716 0.113288 0)
(0.0617446 0.103731 -1.96796e-20)
(0.0745875 0.0952861 -1.95137e-20)
(0.0871846 0.088204 -1.94248e-20)
(0.0991011 0.0828962 2.12563e-20)
(-0.00245407 0.0346084 2.18334e-20)
(-0.00936577 0.0893693 3.80163e-20)
(-0.0192324 0.134539 -3.89075e-20)
(-0.0296666 0.170283 -3.967e-20)
(-0.0400108 0.197869 -1.00991e-20)
(-0.0495864 0.218762 3.0582e-20)
(-0.0579468 0.234221 -4.12745e-20)
(-0.0648047 0.245204 -4.16088e-20)
(-0.0699899 0.252396 4.18577e-20)
(-0.0734238 0.256273 4.20507e-20)
(-0.0750911 0.257178 -2.10433e-20)
(-0.0750151 0.255385 -4.21789e-20)
(-0.073252 0.251143 -2.11765e-20)
(-0.0698775 0.244705 4.21186e-20)
(-0.0649804 0.236334 -4.20005e-20)
(-0.0586616 0.226314 4.20342e-20)
(-0.0510316 0.214941 -8.36472e-20)
(-0.0422097 0.20252 6.25126e-20)
(-0.0323224 0.189361 -4.13489e-20)
(-0.0215031 0.175767 2.06809e-20)
(-0.00989338 0.162028 -4.08745e-20)
(0.00236178 0.148414 0)
(0.0151176 0.135173 2.04743e-20)
(0.0282294 0.122523 -4.01181e-20)
(0.0415563 0.110657 3.97441e-20)
(0.0549605 0.0997407 0)
(0.0683045 0.08993 -1.94318e-20)
(0.0814758 0.081382 1.93432e-20)
(0.0943605 0.0743776 7.6966e-20)
(0.10652 0.0693923 4.20677e-20)
(-0.00327663 0.03577 -3.50144e-20)
(-0.0110693 0.0919289 -3.80154e-20)
(-0.0211913 0.138058 5.83342e-20)
(-0.0315872 0.174354 9.89559e-20)
(-0.0417175 0.20213 0)
(-0.0509829 0.222897 -4.08446e-20)
(-0.0589798 0.237961 4.12731e-20)
(-0.0654478 0.248336 1.24541e-19)
(-0.0702263 0.254753 -4.18562e-20)
(-0.0732324 0.257727 -4.20284e-20)
(-0.0744484 0.257638 1.26068e-19)
(-0.0738981 0.254784 4.21773e-20)
(-0.0716336 0.249434 0)
(-0.0677301 0.24186 -8.41768e-20)
(-0.0622778 0.232339 1.25574e-19)
(-0.055382 0.22117 -4.16129e-20)
(-0.047159 0.208664 4.17395e-20)
(-0.0377329 0.195143 4.14889e-20)
(-0.0272385 0.18093 1.69686e-22)
(-0.0158198 0.166344 0)
(-0.00362688 0.151689 1.22477e-19)
(0.00918627 0.137252 -8.08625e-20)
(0.0224652 0.123289 4.0334e-20)
(0.0360579 0.11003 0)
(0.049816 0.0976734 -3.97427e-20)
(0.0635959 0.0863918 1.5706e-19)
(0.0772597 0.0763454 -1.16473e-19)
(0.0906951 0.0677043 -3.87799e-20)
(0.103791 0.060776 3.79494e-20)
(0.116105 0.0561027 4.17798e-20)
(-0.0041402 0.0367402 0)
(-0.0128199 0.0941171 1.89166e-20)
(-0.0231335 0.141103 9.53005e-24)
(-0.0334004 0.177917 -9.88148e-20)
(-0.043187 0.2059 0)
(-0.051992 0.226583 -8.11572e-20)
(-0.0594676 0.241307 0)
(-0.0653767 0.251128 -1.24347e-19)
(-0.0695705 0.256825 4.16107e-20)
(-0.0719724 0.258953 -8.34248e-20)
(-0.0725647 0.257919 -8.39319e-20)
(-0.0713692 0.254051 -4.19403e-20)
(-0.0684374 0.247639 4.18589e-20)
(-0.0638473 0.23897 4.15814e-20)
(-0.0576937 0.22834 -4.19548e-20)
(-0.0500863 0.216061 -8.2772e-20)
(-0.0411479 0.20246 8.27108e-20)
(-0.0310122 0.187874 0)
(-0.0198236 0.172642 0)
(-0.00773519 0.1571 0)
(0.00509331 0.141567 0)
(0.0184978 0.126342 0)
(0.0323142 0.111695 0)
(0.0463827 0.097863 -7.90473e-20)
(0.0605498 0.085051 -7.88116e-20)
(0.0746677 0.0734354 -3.58534e-22)
(0.0885958 0.0631793 -7.73916e-20)
(0.102224 0.0544591 -3.76558e-22)
(0.11545 0.0476036 -7.67433e-20)
(0.12783 0.0432241 1.65573e-19)
(-0.00501889 0.0374514 0)
(-0.0145795 0.0958007 1.69373e-19)
(-0.025034 0.143533 1.04484e-23)
(-0.0350829 0.18085 -5.90271e-20)
(-0.0444109 0.209068 1.99637e-19)
(-0.0526201 0.22972 1.21683e-19)
(-0.0594178 0.244173 1.2252e-19)
(-0.0646024 0.253514 0)
(-0.0680426 0.258561 0)
(-0.0696675 0.259909 1.25072e-19)
(-0.0694621 0.257996 4.07063e-23)
(-0.0674512 0.253175 -2.91768e-19)
(-0.0636887 0.245759 2.49736e-19)
(-0.0582562 0.236053 -8.34308e-20)
(-0.0512548 0.224368 8.24942e-20)
(-0.0428015 0.211032 8.27733e-20)
(-0.0330286 0.196389 -8.19204e-20)
(-0.0220799 0.180791 8.19935e-20)
(-0.0101103 0.164594 1.62588e-19)
(0.00271644 0.148147 -8.08877e-20)
(0.0162298 0.131787 -1.60398e-19)
(0.0302554 0.115826 1.59314e-19)
(0.0446209 0.100544 -1.58188e-19)
(0.0591591 0.0861879 7.90438e-20)
(0.0737105 0.0729674 0)
(0.0881248 0.0610601 0)
(0.102261 0.0506286 7.15913e-22)
(0.116009 0.0418516 -3.04445e-19)
(0.129281 0.035073 1.50753e-19)
(0.141634 0.0309668 -1.64324e-19)
(-0.00590391 0.0379381 0)
(-0.0163329 0.0970079 -1.50518e-19)
(-0.0268807 0.145366 1.53538e-19)
(-0.0366411 0.183142 0)
(-0.0454072 0.211607 -3.18787e-19)
(-0.0528891 0.232277 -4.0388e-20)
(-0.0588645 0.246522 -8.18544e-20)
(-0.0631674 0.255453 -4.10834e-20)
(-0.0656853 0.259926 0)
(-0.0663621 0.260567 -8.29637e-20)
(-0.0651899 0.257845 8.30454e-20)
(-0.0621963 0.252141 1.66547e-19)
(-0.0574404 0.243791 -1.66385e-19)
(-0.051012 0.233116 0)
(-0.0430199 0.220445 -1.65539e-19)
(-0.0335905 0.206123 1.64001e-19)
(-0.0228668 0.190507 1.64163e-19)
(-0.011005 0.173965 2.43839e-19)
(0.00182821 0.15687 -2.4329e-19)
(0.0154573 0.139588 3.2148e-19)
(0.0297012 0.122469 1.60036e-19)
(0.0443752 0.105836 -1.59306e-19)
(0.0592978 0.0899827 3.15293e-19)
(0.0742957 0.0751632 0)
(0.0892047 0.0615909 1.54755e-19)
(0.103873 0.0494439 3.07794e-19)
(0.118158 0.0388807 -1.51566e-19)
(0.131954 0.0300772 1.52053e-19)
(0.145188 0.023385 -3.38067e-22)
(0.157425 0.019536 -1.63041e-19)
(-0.00677773 0.0381778 -1.72245e-20)
(-0.0180576 0.0977027 0)
(-0.0286618 0.146546 -1.91866e-19)
(-0.0380677 0.18473 3.90602e-20)
(-0.0461807 0.213453 1.1939e-19)
(-0.0528227 0.234184 4.02138e-20)
(-0.05784 0.248284 1.62278e-19)
(-0.0611099 0.256885 0)
(-0.0625482 0.260863 8.23573e-20)
(-0.0621154 0.260877 8.23007e-20)
(-0.0598118 0.257429 -8.27478e-20)
(-0.0556738 0.250926 2.47779e-19)
(-0.0497702 0.241723 0)
(-0.0421993 0.23016 0)
(-0.0330794 0.216587 2.45962e-19)
(-0.0225495 0.201361 -4.08811e-19)
(-0.0107663 0.184856 1.62268e-19)
(0.00210173 0.167456 -1.62339e-19)
(0.0158754 0.149548 -1.60386e-19)
(0.0303659 0.131513 -4.79772e-19)
(0.04538 0.113715 -6.83645e-22)
(0.060724 0.0964902 1.57174e-19)
(0.0762081 0.080142 -3.1314e-19)
(0.091652 0.0649313 1.5487e-19)
(0.106889 0.0510745 -1.0677e-21)
(0.121765 0.0387486 -1.53526e-19)
(0.136142 0.0281053 1.52279e-19)
(0.149914 0.0193129 0)
(0.163032 0.0127218 1.48688e-19)
(0.175073 0.00911171 3.31656e-22)
(-0.00762832 0.038175 -3.43185e-20)
(-0.0197333 0.0978749 3.73062e-20)
(-0.0303624 0.147056 -2.28816e-19)
(-0.0393639 0.185583 -1.16558e-19)
(-0.0467478 0.214556 1.58017e-19)
(-0.0524478 0.235385 -2.40289e-19)
(-0.0563851 0.249406 -8.13094e-20)
(-0.0584859 0.257751 -1.62904e-19)
(-0.0586976 0.261318 1.63734e-19)
(-0.0570016 0.260793 -3.291e-19)
(-0.0534128 0.256709 -1.64415e-19)
(-0.04798 0.249495 -7.27123e-22)
(-0.0407831 0.23953 8.22328e-20)
(-0.0319314 0.227175 -2.45544e-19)
(-0.0215569 0.212795 -3.26736e-19)
(-0.00981296 0.196762 3.77034e-22)
(0.00313019 0.179466 -5.44739e-22)
(0.0170896 0.161306 1.60383e-19)
(0.0318715 0.142684 1.60377e-19)
(0.047274 0.123994 3.70505e-22)
(0.0630919 0.105612 -3.04011e-22)
(0.0791215 0.087888 1.55422e-19)
(0.0951654 0.0711327 1.56028e-19)
(0.111038 0.0556133 -3.44566e-22)
(0.126568 0.0415486 -4.59953e-19)
(0.141606 0.0291125 3.03134e-19)
(0.156015 0.0184486 3.01769e-19)
(0.169693 0.00971113 -2.98493e-19)
(0.182616 0.00324028 -1.48681e-19)
(0.194396 -0.000156994 -1.58903e-19)
(-0.00844183 0.0379338 -3.07166e-19)
(-0.0213405 0.0975282 -3.71718e-20)
(-0.031972 0.146881 1.9048e-19)
(-0.0405313 0.185669 1.55478e-19)
(-0.0471256 0.214877 -1.58013e-19)
(-0.0517989 0.23583 1.60075e-19)
(-0.0545503 0.249826 -8.0723e-20)
(-0.0553597 0.257989 2.44178e-19)
(-0.0542115 0.26123 -1.63727e-19)
(-0.0511132 0.260259 1.64218e-19)
(-0.0460986 0.255632 8.23742e-20)
(-0.0392326 0.247806 -8.23497e-20)
(-0.0306092 0.237181 -4.90234e-19)
(-0.020352 0.224139 3.26713e-19)
(-0.00860855 0.209057 1.62931e-19)
(0.00445141 0.192327 0)
(0.0186426 0.17435 0)
(0.0337673 0.155542 -1.51822e-21)
(0.0496156 0.136317 -1.57988e-19)
(0.0659714 0.117081 0)
(0.0826179 0.0982239 0)
(0.0993417 0.0801039 -1.56103e-19)
(0.115937 0.0630402 0)
(0.132214 0.047304 -3.05478e-19)
(0.148001 0.0331158 0)
(0.16315 0.0206461 -1.51392e-19)
(0.17753 0.0100279 2.99658e-19)
(0.191042 0.00139677 -2.96406e-19)
(0.203689 -0.00492721 0)
(0.215123 -0.00813004 0)
(-0.00920625 0.0374648 2.72976e-19)
(-0.0228614 0.0966708 0)
(-0.0334814 0.146017 -3.79249e-20)
(-0.0415742 0.184968 3.8646e-20)
(-0.0473348 0.214376 -2.3519e-19)
(-0.0509146 0.235467 5.7604e-23)
(-0.052392 0.249485 -8.03882e-20)
(-0.0518051 0.257536 0)
(-0.0491804 0.260536 0)
(-0.0445569 0.259211 -8.16161e-20)
(-0.0379921 0.254143 8.16956e-20)
(-0.02957 0.245809 -1.63234e-19)
(-0.0194022 0.234634 1.64407e-19)
(-0.00763028 0.221015 0)
(0.00558046 0.205349 0)
(0.0200444 0.188038 0)
(0.0355591 0.169503 1.58989e-19)
(0.0519093 0.150169 -9.24455e-22)
(0.0688697 0.130463 1.58936e-19)
(0.08621 0.110802 -3.12622e-19)
(0.103701 0.0915876 1.55817e-19)
(0.121119 0.0731853 -7.71861e-19)
(0.138252 0.0559203 7.0534e-22)
(0.154904 0.0400677 3.05461e-19)
(0.170906 0.0258483 -1.39466e-21)
(0.186113 0.0134281 2.99263e-19)
(0.200401 0.00292749 -2.96173e-19)
(0.213678 -0.00553877 -2.95094e-19)
(0.225971 -0.0116784 6.30112e-22)
(0.236991 -0.0146837 -3.10368e-19)
(-0.00991176 0.0367834 -3.39266e-20)
(-0.0242801 0.0953209 0)
(-0.0348825 0.144473 7.55789e-20)
(-0.0424977 0.183473 -7.70156e-20)
(-0.0473977 0.213028 7.04859e-19)
(-0.0498357 0.234254 5.59536e-23)
(-0.0499702 0.24833 -8.01026e-20)
(-0.0479017 0.256331 8.07106e-20)
(-0.0437037 0.259169 -4.04858e-19)
(-0.037451 0.257584 0)
(-0.0292293 0.252176 0)
(-0.0191466 0.243444 -1.61897e-19)
(-0.00733546 0.231832 1.62852e-19)
(0.00604291 0.217755 -1.61549e-19)
(0.0208038 0.201626 1.60861e-19)
(0.0367433 0.183864 0)
(0.0536407 0.1649 -6.36151e-19)
(0.0712633 0.14517 3.15119e-19)
(0.0893692 0.125114 1.57008e-19)
(0.107714 0.105159 4.67554e-19)
(0.126055 0.0857127 0)
(0.144158 0.0671495 3.08054e-19)
(0.161805 0.0497984 3.0442e-19)
(0.178799 0.0339371 3.02037e-19)
(0.194969 0.0197846 -2.02119e-21)
(0.210178 0.00750136 -2.96575e-19)
(0.224311 -0.00280555 2.96158e-19)
(0.237285 -0.0110444 0)
(0.249151 -0.0169567 6.51124e-22)
(0.259699 -0.0197562 6.1682e-19)
(-0.0105508 0.0359091 -2.69869e-19)
(-0.0255839 0.0935066 0)
(-0.0361692 0.142267 -3.00545e-19)
(-0.0433076 0.181183 -3.83395e-19)
(-0.0473362 0.210814 -2.34702e-19)
(-0.0486033 0.232156 7.90774e-20)
(-0.0473467 0.246311 3.42973e-23)
(-0.0437321 0.254314 -8.04035e-20)
(-0.0378844 0.257065 1.18502e-21)
(-0.0299194 0.255309 1.61934e-19)
(-0.0199555 0.249662 1.61374e-19)
(-0.0081278 0.240641 -1.6045e-19)
(0.00540657 0.228709 1.61481e-19)
(0.0204642 0.214298 -4.81655e-19)
(0.0368399 0.197835 4.79395e-19)
(0.0543098 0.179754 3.17495e-19)
(0.0726341 0.160495 7.90845e-19)
(0.0915614 0.140508 -1.58845e-19)
(0.110833 0.120238 -3.1111e-19)
(0.13019 0.100124 -1.85455e-21)
(0.149376 0.0805804 -3.0764e-19)
(0.168148 0.0619845 9.14325e-19)
(0.186279 0.0446691 -6.07424e-19)
(0.203572 0.0289119 5.99438e-19)
(0.219861 0.0149293 -2.98966e-19)
(0.235013 0.00287374 5.91146e-19)
(0.248926 -0.007161 1.33789e-21)
(0.261529 -0.0151078 -5.81345e-19)
(0.272898 -0.0207465 5.75051e-19)
(0.28292 -0.0233261 3.03714e-19)
(-0.0111181 0.0348646 2.69868e-19)
(-0.0267634 0.0912641 0)
(-0.0373365 0.139428 6.75051e-19)
(-0.0440096 0.178114 2.30107e-19)
(-0.0471709 0.207729 0)
(-0.047256 0.229148 0)
(-0.0445806 0.243386 0)
(-0.0393772 0.251429 0)
(-0.0318258 0.254158 1.61608e-19)
(-0.022087 0.252316 1.61391e-19)
(-0.0103168 0.246527 -3.23451e-19)
(0.00331888 0.237327 3.23026e-19)
(0.0186361 0.225193 4.81422e-19)
(0.0354269 0.210572 1.60731e-19)
(0.0534642 0.193907 1.57719e-19)
(0.0725029 0.175641 -4.75865e-19)
(0.0922831 0.156227 -6.29317e-19)
(0.112534 0.136122 -3.1333e-19)
(0.13298 0.115782 3.11093e-19)
(0.153346 0.0956506 -6.16834e-19)
(0.173362 0.0761467 3.05382e-19)
(0.192774 0.0576514 -6.07535e-19)
(0.211352 0.040498 2.99876e-19)
(0.228897 0.0249624 -1.29095e-21)
(0.245246 0.0112555 -2.95696e-19)
(0.260278 -0.000479522 -5.88519e-19)
(0.273905 -0.0101629 5.82957e-19)
(0.28607 -0.0177521 0)
(0.296872 -0.0230686 -6.29358e-22)
(0.306316 -0.0254075 -6.03688e-19)
(-0.0116112 0.0336758 3.35437e-20)
(-0.0278124 0.0886367 0)
(-0.038381 0.135997 -2.99467e-19)
(-0.0446077 0.17429 7.62782e-20)
(-0.0469185 0.203781 -7.74516e-20)
(-0.0458273 0.225217 0)
(-0.0417248 0.239524 -7.9292e-20)
(-0.0349109 0.247631 7.98373e-20)
(-0.0256236 0.25039 1.60367e-19)
(-0.0140721 0.248537 -4.81737e-19)
(-0.000453017 0.2427 -1.60705e-19)
(0.0150331 0.233426 1.66892e-22)
(0.0321732 0.221205 -6.71536e-22)
(0.0507332 0.206499 -3.18727e-19)
(0.0704621 0.189761 -1.5918e-19)
(0.091093 0.171448 0)
(0.112344 0.152019 8.42549e-22)
(0.133925 0.13194 3.11646e-19)
(0.155542 0.111674 -3.08475e-19)
(0.176903 0.0916688 0)
(0.197723 0.0723465 0)
(0.21774 0.0540888 0)
(0.236717 0.0372273 0)
(0.254456 0.0220333 -1.83063e-21)
(0.270802 0.00870949 0)
(0.285645 -0.00261166 0)
(0.298915 -0.011865 2.88331e-19)
(0.310574 -0.0190318 2.85862e-19)
(0.320746 -0.0239776 2.84648e-19)
(0.329563 -0.0260494 -6.37664e-22)
(-0.0120301 0.0323701 3.34196e-20)
(-0.028728 0.0856734 -7.27491e-20)
(-0.0393003 0.132022 4.46281e-19)
(-0.045104 0.169751 -7.59257e-20)
(-0.0465903 0.19899 7.72576e-20)
(-0.0443424 0.220366 5.64345e-23)
(-0.0388216 0.234708 2.36519e-19)
(-0.0303949 0.242886 -3.17728e-19)
(-0.0193599 0.245714 4.78919e-19)
(-0.00597737 0.243914 6.04245e-22)
(0.00951279 0.238112 -1.5952e-19)
(0.0268729 0.228863 3.19196e-19)
(0.0458583 0.216667 -3.18141e-19)
(0.0662073 0.201996 3.16694e-19)
(0.0876437 0.185316 0)
(0.109877 0.167089 3.12933e-19)
(0.132602 0.147786 0)
(0.155509 0.127877 1.55108e-21)
(0.178282 0.10783 -3.06052e-19)
(0.200612 0.0880979 -3.03622e-19)
(0.2222 0.0691012 3.01178e-19)
(0.242772 0.0512201 -2.98732e-19)
(0.26209 0.034782 -2.96291e-19)
(0.279957 0.0200501 -5.89468e-19)
(0.296227 0.00721696 -2.91411e-19)
(0.310804 -0.0035981 2.90167e-19)
(0.323644 -0.0123448 -5.75397e-19)
(0.33473 -0.0190283 -2.8585e-19)
(0.344207 -0.0235573 0)
(0.352349 -0.0253337 -2.96334e-19)
(-0.0123777 0.0309766 0)
(-0.0295105 0.0824275 2.89297e-19)
(-0.040092 0.127563 -2.23093e-19)
(-0.0454969 0.164547 -3.77953e-19)
(-0.0461903 0.193393 0)
(-0.0428149 0.21461 0)
(-0.0358983 0.228937 -4.72999e-19)
(-0.0258726 0.237174 6.34377e-19)
(-0.0130956 0.240095 -4.7784e-19)
(0.00211854 0.238398 0)
(0.0194848 0.232707 1.60275e-19)
(0.0387264 0.223574 -1.59792e-19)
(0.0595651 0.211507 1.23688e-21)
(0.08171 0.196988 -1.5919e-19)
(0.104858 0.18049 -1.56354e-19)
(0.128694 0.162484 -1.38824e-21)
(0.152887 0.143444 3.09296e-19)
(0.177103 0.123848 3.08426e-19)
(0.201007 0.104167 7.71692e-22)
(0.224268 0.0848538 6.064e-19)
(0.246573 0.0663268 -6.01637e-19)
(0.267638 0.0489616 5.96464e-19)
(0.287223 0.0330778 2.96276e-19)
(0.305138 0.0189279 2.93838e-19)
(0.321248 0.00669077 1.72479e-21)
(0.335478 -0.00352937 0)
(0.347808 -0.0116981 2.85896e-19)
(0.358251 -0.0178428 -8.49616e-19)
(0.366973 -0.0219152 2.78474e-19)
(0.374394 -0.0233695 2.92751e-19)
(-0.012659 0.0295241 -1.98584e-19)
(-0.0301629 0.0789554 -6.49802e-19)
(-0.0407538 0.122683 -8.61603e-23)
(-0.0457804 0.15874 9.57432e-22)
(-0.0457128 0.187039 -2.29601e-19)
(-0.0412441 0.207986 0)
(-0.0329626 0.222228 -1.56415e-19)
(-0.0213632 0.230496 -9.48289e-19)
(-0.00686306 0.233516 4.76783e-19)
(0.0101701 0.231962 -3.17546e-19)
(0.0294048 0.226441 4.7638e-19)
(0.0505236 0.217506 -1.5881e-19)
(0.0732133 0.205667 3.16881e-19)
(0.097152 0.19141 -7.86776e-19)
(0.122008 0.175214 4.70153e-19)
(0.147436 0.157557 -8.64549e-22)
(0.17308 0.138917 -9.25941e-19)
(0.19858 0.119776 3.06116e-19)
(0.223575 0.100607 -3.03817e-19)
(0.247714 0.0818576 0)
(0.270668 0.0639435 2.97989e-19)
(0.292145 0.0472321 0)
(0.311908 0.0320314 -2.93974e-19)
(0.329774 0.0185794 2.91083e-19)
(0.345627 0.00703791 2.8966e-19)
(0.359417 -0.00250487 2.85498e-19)
(0.371154 -0.010032 0)
(0.380884 -0.0155914 0)
(0.388793 -0.0191755 -5.59948e-19)
(0.395451 -0.0202871 8.69395e-19)
(-0.0128811 0.028041 1.98774e-19)
(-0.0306899 0.075314 3.60157e-19)
(-0.0412818 0.117453 -2.94212e-19)
(-0.0459426 0.152401 6.01445e-19)
(-0.0451408 0.179994 7.75157e-20)
(-0.0396119 0.200547 7.75266e-20)
(-0.0299992 0.214619 1.10861e-21)
(-0.0168567 0.222874 -3.13954e-19)
(-0.000659187 0.225986 -1.57644e-19)
(0.0181729 0.224597 1.08337e-21)
(0.0392609 0.219297 -1.10792e-21)
(0.0622462 0.210631 -4.73661e-19)
(0.0867789 0.199108 -1.56823e-19)
(0.112504 0.185216 1.2134e-21)
(0.139056 0.169439 3.11013e-19)
(0.16606 0.152256 3.08867e-19)
(0.193129 0.13415 1.34281e-21)
(0.219871 0.115603 -3.04095e-19)
(0.245901 0.0970877 3.02239e-19)
(0.270843 0.0790465 -2.99791e-19)
(0.294356 0.0618858 -5.94458e-19)
(0.316143 0.0459616 -2.94827e-19)
(0.335972 0.0315666 5.83436e-19)
(0.353675 0.0189206 0)
(0.36916 0.00816625 -2.86362e-19)
(0.382407 -0.000627159 -5.69328e-19)
(0.393463 -0.00745976 -5.64793e-19)
(0.402408 -0.0123986 2.79915e-19)
(0.409453 -0.0154735 -8.32555e-19)
(0.415307 -0.0162317 2.87408e-19)
(-0.0130525 0.0265537 -3.28987e-19)
(-0.0310974 0.0715594 7.16303e-20)
(-0.04167 0.111944 2.94214e-19)
(-0.0459645 0.14561 -2.25234e-19)
(-0.0444448 0.172337 7.66628e-20)
(-0.0378811 0.192363 -1.31969e-22)
(-0.0269666 0.206171 7.79465e-19)
(-0.01231 0.214355 3.1452e-19)
(0.00555927 0.217539 3.15869e-19)
(0.0261692 0.216326 4.74308e-19)
(0.0490947 0.211286 -4.74358e-19)
(0.0739346 0.20295 3.15668e-19)
(0.1003 0.191823 6.28098e-19)
(0.1278 0.178393 3.12014e-19)
(0.156032 0.163144 -8.90712e-22)
(0.184585 0.146556 -6.17344e-19)
(0.213036 0.129114 6.12212e-19)
(0.240962 0.111299 4.94077e-22)
(0.267945 0.0935761 -3.00804e-19)
(0.293591 0.0763812 2.98368e-19)
(0.317545 0.0601081 2.9647e-19)
(0.339514 0.0450966 -2.92444e-19)
(0.359273 0.0316203 -5.82179e-19)
(0.376681 0.0198767 -3.54949e-22)
(0.391673 0.00998769 2.86936e-19)
(0.404268 0.00200214 2.83831e-19)
(0.41455 -0.00409666 5.61426e-19)
(0.422643 -0.00839277 -5.53681e-19)
(0.428777 -0.0109505 0)
(0.433791 -0.011354 2.85495e-19)
(-0.0131826 0.0250861 9.30265e-22)
(-0.0313913 0.0677447 0)
(-0.041909 0.106232 -2.18935e-19)
(-0.0458194 0.138452 -7.46082e-20)
(-0.0435813 0.164157 -3.03121e-19)
(-0.0359941 0.183524 0)
(-0.0237954 0.196967 -4.66681e-19)
(-0.00764428 0.205014 1.5646e-19)
(0.0118785 0.208237 0)
(0.0342515 0.207202 -3.14301e-19)
(0.0590032 0.20245 0)
(0.0856891 0.194497 -4.7026e-19)
(0.113879 0.18384 4.68708e-19)
(0.143138 0.170963 -3.11707e-19)
(0.173026 0.156345 -3.08551e-19)
(0.203086 0.14047 0)
(0.232858 0.123817 0)
(0.261881 0.106865 3.01912e-19)
(0.289708 0.0900683 -2.35522e-22)
(0.315924 0.0738505 2.96107e-19)
(0.340171 0.058589 -2.94318e-19)
(0.362162 0.0446033 5.8423e-19)
(0.381693 0.0321434 -2.89031e-19)
(0.398653 0.0213828 0)
(0.413017 0.0124201 8.5314e-19)
(0.424844 0.00528406 -1.40638e-18)
(0.434265 -5.83811e-05 2.79224e-19)
(0.441443 -0.00370473 2.77081e-19)
(0.446631 -0.00574872 2.72828e-19)
(0.450775 -0.00580562 5.64724e-19)
(-0.0132807 0.0236583 -2.6028e-19)
(-0.0315762 0.0639186 5.68431e-19)
(-0.0419855 0.100386 2.92157e-19)
(-0.0454722 0.131016 6.6863e-19)
(-0.0424931 0.155554 8.31686e-19)
(-0.0338726 0.174133 1.53371e-19)
(-0.0203888 0.18711 -7.73191e-19)
(-0.00274606 0.194951 0)
(0.0184266 0.198178 -6.25366e-19)
(0.0425601 0.197313 -3.12138e-19)
(0.0691365 0.19287 0)
(0.0976654 0.185347 -3.11172e-19)
(0.12767 0.175227 -9.06733e-22)
(0.158669 0.162987 -9.28954e-19)
(0.190173 0.149102 3.08544e-19)
(0.22168 0.13405 3.05419e-19)
(0.252682 0.118307 -6.05796e-19)
(0.282681 0.102341 -6.0155e-19)
(0.311203 0.0865939 2.75851e-22)
(0.33782 0.0714717 -5.78108e-22)
(0.362176 0.0573306 0)
(0.384002 0.0444659 -2.90335e-19)
(0.403125 0.0331007 -2.86285e-19)
(0.419471 0.0233828 0)
(0.433064 0.0153867 0)
(0.44401 0.00912185 8.40739e-19)
(0.452487 0.00454016 -8.29044e-19)
(0.458701 0.00153389 0)
(0.462926 -1.40522e-05 8.13967e-19)
(0.466205 0.000263731 -5.59727e-19)
(-0.0133555 0.0222865 1.89959e-21)
(-0.0316545 0.0601241 -5.68345e-19)
(-0.0418811 0.0944774 -7.26098e-20)
(-0.0448791 0.123392 -7.42577e-19)
(-0.0411094 0.146635 -4.53496e-19)
(-0.0314195 0.16431 1.52849e-19)
(-0.0166242 0.176724 3.09766e-19)
(0.00253008 0.184292 7.76003e-19)
(0.0253691 0.187484 6.25367e-19)
(0.0512771 0.186781 6.26435e-19)
(0.0796882 0.182666 0)
(0.110062 0.175614 2.27344e-21)
(0.141871 0.166094 0)
(0.174578 0.154572 6.18674e-19)
(0.207638 0.141514 0)
(0.240497 0.127391 -3.04154e-19)
(0.272601 0.112668 3.04841e-19)
(0.303414 0.0978008 0)
(0.332441 0.0832121 0)
(0.35925 0.0692859 -8.81086e-19)
(0.383499 0.0563534 2.91566e-19)
(0.404947 0.044682 0)
(0.423464 0.0344658 5.72248e-19)
(0.439026 0.0258261 5.68678e-19)
(0.451707 0.0188142 -1.12385e-18)
(0.461667 0.0134208 1.11333e-18)
(0.469128 0.00958561 1.88903e-21)
(0.474343 0.00719255 5.44504e-19)
(0.477609 0.00610673 -5.42369e-19)
(0.480056 0.00667882 0)
(-0.0134142 0.0209829 6.50537e-19)
(-0.0316256 0.0563976 -7.06233e-20)
(-0.0415721 0.0885681 -5.78126e-19)
(-0.0439884 0.11567 0)
(-0.0393476 0.137509 -5.99958e-19)
(-0.0285211 0.154179 0)
(-0.0123583 0.165949 -7.67942e-19)
(0.00835482 0.173184 -4.65735e-19)
(0.0329001 0.176307 -6.21009e-19)
(0.0606144 0.175759 0)
(0.0908808 0.171989 1.55539e-19)
(0.123104 0.165449 1.57113e-19)
(0.156695 0.156589 -3.09617e-19)
(0.191056 0.145861 -6.13874e-19)
(0.225581 0.133719 -3.04601e-19)
(0.259659 0.12062 -1.21156e-18)
(0.292691 0.107017 6.03296e-19)
(0.32411 0.0933439 4.67487e-22)
(0.353408 0.0800024 3.46616e-22)
(0.380163 0.0673497 8.79931e-19)
(0.40406 0.0556884 0)
(0.424902 0.0452552 0)
(0.44261 0.0362151 -1.28969e-21)
(0.457218 0.0286631 1.59317e-21)
(0.468858 0.0226292 -5.57433e-19)
(0.47774 0.0180881 -5.53885e-19)
(0.484133 0.0149685 1.25785e-21)
(0.488327 0.0131492 -5.44499e-19)
(0.490635 0.012476 -5.37868e-19)
(0.492235 0.0132684 1.31356e-21)
(-0.0134619 0.0197545 0)
(-0.0314846 0.0527677 5.62335e-19)
(-0.0410293 0.0827149 5.05946e-19)
(-0.0427408 0.107933 7.35626e-20)
(-0.0371157 0.128288 1.19779e-18)
(-0.025052 0.143875 -1.51787e-19)
(-0.00743346 0.154934 1.22601e-18)
(0.0149146 0.16179 6.16239e-19)
(0.0412293 0.16482 9.30917e-19)
(0.0707971 0.164424 4.64414e-19)
(0.102945 0.161021 1.54957e-19)
(0.137014 0.155034 7.74171e-19)
(0.172347 0.146892 -7.37139e-22)
(0.208279 0.137028 3.07162e-19)
(0.244135 0.125881 6.0974e-19)
(0.279251 0.113889 6.05122e-19)
(0.312987 0.101488 0)
(0.344754 0.0890843 0)
(0.37405 0.0770542 0)
(0.400475 0.0657246 0)
(0.423759 0.0553671 5.76148e-19)
(0.44376 0.0461871 0)
(0.460463 0.0383213 -1.51843e-21)
(0.473964 0.0318407 1.12109e-18)
(0.484454 0.0267565 5.55733e-19)
(0.492192 0.023031 5.50368e-19)
(0.497488 0.0205851 1.09039e-18)
(0.500661 0.0192954 0)
(0.502037 0.0189936 -1.06749e-18)
(0.502821 0.0199751 1.09872e-18)
(-0.013501 0.0186039 5.14973e-19)
(-0.0312219 0.0492548 -5.62348e-19)
(-0.0402181 0.0769656 0)
(-0.0410717 0.10026 -5.85757e-19)
(-0.0343158 0.119079 -1.51457e-19)
(-0.0208805 0.13353 -4.52542e-19)
(-0.00168645 0.143835 -1.37438e-18)
(0.0223994 0.150282 -2.24764e-21)
(0.0505662 0.153207 -4.62001e-19)
(0.0820442 0.152973 -1.08257e-18)
(0.116096 0.149962 -1.54652e-19)
(0.151991 0.14457 -6.1515e-19)
(0.188996 0.137201 -6.12421e-19)
(0.226371 0.128265 0)
(0.263376 0.118179 -6.04665e-19)
(0.299296 0.107363 -9.00285e-19)
(0.33346 0.0962215 2.98474e-19)
(0.365279 0.0851374 -5.89706e-19)
(0.394266 0.0744535 -5.84326e-19)
(0.42007 0.0644654 0)
(0.442476 0.0554123 -1.14953e-18)
(0.461412 0.0474696 0)
(0.476933 0.0407482 -1.12916e-18)
(0.489201 0.0352979 -5.5843e-19)
(0.498461 0.0311165 -1.10591e-18)
(0.50502 0.028156 5.47739e-19)
(0.509218 0.0263343 -1.62614e-18)
(0.511398 0.0255276 5.35121e-19)
(0.511892 0.0255576 3.13785e-21)
(0.511915 0.0266927 -5.45508e-19)
(-0.0135306 0.0175289 -5.14984e-19)
(-0.0308231 0.0458708 6.9949e-20)
(-0.0390992 0.0713589 5.00239e-19)
(-0.0389128 0.0927194 5.85771e-19)
(-0.0308481 0.109981 -5.95672e-19)
(-0.0158758 0.123273 2.25515e-21)
(0.00504154 0.132806 6.09721e-19)
(0.0309898 0.138835 -1.22556e-18)
(0.0611032 0.141661 -1.51338e-19)
(0.0945475 0.141606 1.38642e-18)
(0.130511 0.139019 -9.21864e-19)
(0.168183 0.134266 1.53506e-18)
(0.206748 0.12772 1.52745e-18)
(0.245389 0.119765 -3.04194e-19)
(0.283305 0.110794 6.0466e-19)
(0.319742 0.101197 8.98959e-19)
(0.354018 0.0913514 2.95124e-19)
(0.385557 0.0816063 2.68022e-21)
(0.413917 0.0722718 2.9302e-19)
(0.438805 0.0636107 2.88941e-19)
(0.460082 0.0558307 -2.83131e-19)
(0.477754 0.04908 2.83323e-19)
(0.491948 0.043447 -5.59501e-19)
(0.502891 0.038966 5.56925e-19)
(0.510882 0.0356245 3.03084e-21)
(0.516261 0.0333702 5.42921e-19)
(0.519392 0.0321198 3.13287e-21)
(0.52063 0.0317515 -5.33321e-19)
(0.520304 0.0320751 1.77944e-21)
(0.519633 0.033325 0)
(-0.0135466 0.0165233 0)
(-0.0302687 0.0426201 0)
(-0.0376296 0.0659242 -6.43217e-19)
(-0.0361947 0.0853711 7.27539e-20)
(-0.0266155 0.101085 0)
(-0.00991476 0.113225 6.01405e-19)
(0.0128947 0.121993 1.5157e-19)
(0.0408427 0.127619 4.59014e-19)
(0.0729986 0.130366 6.14069e-19)
(0.108453 0.130521 -6.1493e-19)
(0.14631 0.128397 6.1438e-19)
(0.185669 0.124324 -6.12619e-19)
(0.22563 0.118644 -6.0985e-19)
(0.265305 0.111712 0)
(0.303843 0.103888 0)
(0.340467 0.0955323 0)
(0.374504 0.0869885 -5.92282e-19)
(0.405418 0.0785713 8.79594e-19)
(0.43283 0.0705573 -2.9038e-19)
(0.456525 0.0631768 0)
(0.476451 0.0566091 8.55091e-19)
(0.492696 0.050979 -2.81915e-19)
(0.505461 0.0463566 5.59503e-19)
(0.515033 0.0427673 -1.10343e-18)
(0.521755 0.0401934 1.09532e-18)
(0.525991 0.0385829 -1.43621e-21)
(0.528116 0.0378551 1.70166e-21)
(0.528484 0.0378911 5.30133e-19)
(0.527411 0.0384808 -4.72931e-22)
(0.526101 0.0398249 5.39017e-19)
(-0.0135411 0.0155771 6.38094e-20)
(-0.029535 0.0395001 -6.93271e-20)
(-0.0357644 0.0606813 1.42252e-19)
(-0.0328499 0.078263 -8.69262e-19)
(-0.0215286 0.0924697 1.47407e-19)
(-0.00288925 0.103493 0)
(0.021993 0.111531 6.02657e-19)
(0.0520797 0.116789 -6.06727e-19)
(0.0863626 0.119496 0)
(0.123844 0.119901 7.62447e-19)
(0.163536 0.118281 -1.52775e-19)
(0.204444 0.114927 0)
(0.245584 0.110148 -3.02515e-19)
(0.286006 0.104262 6.02244e-19)
(0.32483 0.0975968 -2.99411e-19)
(0.361278 0.0904782 2.96272e-19)
(0.394713 0.0832136 -5.88253e-19)
(0.424659 0.0760832 5.81123e-22)
(0.450822 0.0693304 4.8172e-22)
(0.47308 0.0631559 -2.84339e-19)
(0.491474 0.0577144 -5.66104e-19)
(0.506176 0.0531109 4.20362e-22)
(0.517458 0.0494053 1.68506e-21)
(0.525662 0.0466173 5.50948e-19)
(0.531159 0.0447321 -5.43804e-19)
(0.534329 0.0437048 5.39886e-19)
(0.53554 0.0434649 -1.06527e-18)
(0.535121 0.0438935 -1.77151e-21)
(0.533373 0.044762 -1.04197e-18)
(0.531452 0.0462148 5.36103e-19)
(-0.0135023 0.0146776 0)
(-0.0285935 0.0365017 -5.51687e-19)
(-0.0334567 0.0556406 0)
(-0.0288145 0.0714313 2.31044e-21)
(-0.0155088 0.0841991 1.47019e-19)
(0.00528843 0.0941689 1.23873e-22)
(0.0324247 0.101536 -1.20281e-18)
(0.0647779 0.106482 4.5536e-19)
(0.101248 0.109201 0)
(0.140738 0.109905 -7.61785e-19)
(0.182157 0.10883 1.52108e-19)
(0.224419 0.106229 0)
(0.266467 0.102371 -3.01129e-19)
(0.307306 0.0975379 3.00158e-19)
(0.346047 0.0920209 2.96585e-19)
(0.381942 0.0861085 5.9052e-19)
(0.414412 0.0800729 -2.93079e-19)
(0.443069 0.0741606 0)
(0.467717 0.068584 0)
(0.488339 0.0635178 5.70534e-19)
(0.50507 0.0590965 -5.63176e-19)
(0.518166 0.0554104 5.58072e-19)
(0.527963 0.0525129 5.53567e-19)
(0.534846 0.0504255 5.46211e-19)
(0.539213 0.0491435 -5.40682e-19)
(0.541443 0.0486396 5.36525e-19)
(0.541875 0.048866 5.293e-19)
(0.540773 0.0497259 -5.23571e-19)
(0.538333 0.0510255 1.35576e-21)
(0.535503 0.0527841 1.06717e-18)
(-0.0134189 0.0138135 6.33192e-20)
(-0.0274154 0.0336147 4.83052e-19)
(-0.0306627 0.0508073 0)
(-0.0240326 0.0649027 5.76965e-19)
(-0.00849366 0.0763249 0)
(0.01468 0.0853288 0)
(0.0442401 0.0921049 4.50528e-19)
(0.0789638 0.0968108 8.23938e-23)
(0.117644 0.0996059 1.51362e-19)
(0.159074 0.100661 1.51299e-19)
(0.20206 0.100172 -4.53605e-19)
(0.245429 0.0983492 3.01975e-19)
(0.288065 0.0954191 0)
(0.328956 0.0916255 0)
(0.36723 0.0872223 -5.93827e-19)
(0.402196 0.0824614 0)
(0.433363 0.0775807 -2.9099e-19)
(0.460447 0.072795 2.88997e-19)
(0.483364 0.0682896 2.85688e-19)
(0.502203 0.0642177 -4.49784e-22)
(0.517195 0.0606961 -2.80489e-19)
(0.52867 0.0578067 0)
(0.537023 0.0555993 -5.48766e-19)
(0.542676 0.054101 5.43378e-19)
(0.546046 0.0533219 0)
(0.54752 0.0532613 0)
(0.547429 0.0539194 0)
(0.546003 0.055287 0)
(0.543225 0.0572581 -5.14653e-19)
(0.539906 0.0603756 1.0606e-18)
(0.135965 0.0708376 -0.0159838)
(0.1775 0.0682309 -0.0163722)
(0.209349 0.0802997 -0.0164488)
(0.227441 0.0971666 -0.0164807)
(0.238462 0.11439 -0.0164415)
(0.243305 0.129395 -0.0163716)
(0.244185 0.141602 -0.0162667)
(0.242273 0.151713 -0.0161399)
(0.238467 0.160698 -0.0159916)
(0.233341 0.169231 -0.0158256)
(0.227214 0.177558 -0.0156473)
(0.220315 0.185667 -0.0154645)
(0.212734 0.193461 -0.0152822)
(0.204623 0.200864 -0.0150997)
(0.195978 0.207837 -0.0149194)
(0.186998 0.214332 -0.0147409)
(0.177545 0.22037 -0.0145707)