/*--------------------------------*- C++ -*----------------------------------*\
  =========                 |
  \\      /  F ield         | OpenFOAM: The Open Source CFD Toolbox
   \\    /   O peration     | Website:  https://openfoam.org
    \\  /    A nd           | Version:  7
     \\/     M anipulation  |
\*---------------------------------------------------------------------------*/
FoamFile
{
    version     2.0;
    format      ascii;
    class       volVectorField;
    location    "57.5";
    object      U;
}
// * * * * * * * * * * * * * * * * * * * * * * * * * * * * * * * * * * * * * //

dimensions      [0 1 -1 0 0 0 0];

internalField   nonuniform List<vector> 
2000
(
(-0.000400775 -0.0087294 -5.9038e-22)
(-0.00101098 -0.0156217 0)
(-0.00100291 -0.0162309 0)
(0.000199357 -0.0121781 -2.93934e-21)
(0.00261093 -0.00429776 9.17916e-22)
(0.00616181 0.00692887 1.55963e-23)
(0.010709 0.0211178 -1.58197e-21)
(0.0160303 0.0378386 0)
(0.0217709 0.0565322 0)
(0.0275787 0.0764614 0)
(8.67923e-05 -0.00814397 0)
(-0.00018905 -0.0152116 -2.28562e-21)
(-0.000312104 -0.016501 2.10782e-21)
(0.000410145 -0.0134354 3.91455e-21)
(0.00206382 -0.00676427 0)
(0.00465276 0.00310563 3.46677e-21)
(0.00811577 0.0158912 -3.2238e-21)
(0.0123146 0.0312901 0)
(0.016953 0.0488882 5.80352e-21)
(0.0216805 0.0681139 -1.11911e-20)
(0.000535549 -0.00745527 0)
(0.000796952 -0.0146286 1.85097e-20)
(0.00087253 -0.0165297 0)
(0.00144737 -0.0143967 1.61131e-20)
(0.00264404 -0.00891668 0)
(0.00451605 -0.000451541 -1.4161e-20)
(0.00706916 0.0107941 0)
(0.0102449 0.024642 1.25035e-20)
(0.0138229 0.0408457 -1.171e-20)
(0.0174299 0.0590457 -1.14509e-20)
(0.000966757 -0.00673292 -4.88475e-21)
(0.00201733 -0.013956 -9.19229e-21)
(0.00267353 -0.0163516 -4.31216e-21)
(0.00348661 -0.0150162 -7.94641e-21)
(0.00458681 -0.0106029 -7.54339e-21)
(0.00605273 -0.00346499 6.97819e-21)
(0.00793787 0.00623319 6.67895e-21)
(0.0102534 0.0184135 5.29651e-23)
(0.0128716 0.0330027 1.19287e-20)
(0.0153754 0.0498847 1.14518e-20)
(0.00142355 -0.00605707 -4.90087e-21)
(0.003565 -0.0132866 -9.43414e-21)
(0.00521929 -0.0160138 -1.77102e-20)
(0.00668969 -0.0152642 8.13557e-21)
(0.00809593 -0.0116893 0)
(0.00952137 -0.00566833 0)
(0.0110489 0.00262907 -1.3738e-20)
(0.0127431 0.0131794 -1.29598e-20)
(0.0145843 0.0260644 1.22889e-20)
(0.0161152 0.0414134 3.53594e-20)
(0.0019696 -0.00550488 4.93831e-21)
(0.00554687 -0.0127085 4.80985e-21)
(0.00862633 -0.0155684 -2.66008e-20)
(0.0111756 -0.0151395 4.1595e-20)
(0.0132973 -0.0120936 -7.71408e-21)
(0.0150731 -0.00686289 0)
(0.0165998 0.000332687 0)
(0.0179793 0.00946645 6.56092e-20)
(0.0193113 0.0207304 -6.1759e-20)
(0.0201451 0.0344617 1.17662e-20)
(0.00268576 -0.00513982 3.92784e-20)
(0.00807343 -0.0122898 0)
(0.0129795 -0.0150675 3.54241e-20)
(0.0169904 -0.0146724 -3.32443e-20)
(0.0201983 -0.0118065 0)
(0.0226876 -0.00697199 1.49221e-20)
(0.0245674 -0.000469108 -4.1941e-20)
(0.0259651 0.00761552 -5.29177e-20)
(0.0271027 0.0175151 2.49173e-20)
(0.0276294 0.0297073 2.39777e-20)
(0.00366072 -0.00499665 -7.8476e-20)
(0.0112463 -0.0120683 -9.59753e-21)
(0.0183171 -0.0145537 -1.79262e-20)
(0.024087 -0.0139175 -4.19596e-20)
(0.0286573 -0.0109008 -1.59439e-20)
(0.0321319 -0.006074 -1.50901e-20)
(0.0346422 0.000176114 -1.29066e-22)
(0.0363383 0.00766304 0)
(0.0375591 0.0165837 0)
(0.0381826 0.0274732 2.24239e-22)
(0.00497806 -0.00507622 3.91984e-20)
(0.0151394 -0.0120393 -3.8221e-20)
(0.024616 -0.0140452 2.674e-20)
(0.0323144 -0.0129443 5.90154e-20)
(0.0383797 -0.00952239 -1.57209e-20)
(0.0429634 -0.00440129 1.50149e-20)
(0.0462368 0.00196871 1.41836e-20)
(0.0483702 0.00930691 0)
(0.0497817 0.0177314 0)
(0.0507082 0.0277145 -2.11345e-22)
(0.00670868 -0.00534529 -4.87991e-21)
(0.0197821 -0.0121479 4.78875e-20)
(0.0317776 -0.0135287 -8.90827e-21)
(0.0414143 -0.0118241 0)
(0.048933 -0.00786851 0)
(0.0545783 -0.00231293 2.99188e-20)
(0.0586009 0.00437565 0)
(0.0612128 0.0118956 -2.6716e-20)
(0.0628003 0.0203277 -2.58038e-22)
(0.0637867 0.0299226 2.41376e-20)
(0.0420677 0.122076 4.4602e-22)
(0.0584157 0.196513 -4.51386e-22)
(0.060934 0.254811 -5.28816e-22)
(0.057605 0.309359 -5.93205e-22)
(0.049652 0.368478 -6.98053e-22)
(0.0438014 0.435882 -1.87452e-23)
(0.0302659 0.513006 3.67439e-22)
(0.0265802 0.60366 1.25281e-21)
(0.00404364 0.723339 0)
(0.00864786 0.863514 -9.06615e-22)
(0.0340137 0.113517 1.66047e-21)
(0.0523633 0.191308 -1.98211e-21)
(0.0567233 0.253291 3.56643e-21)
(0.054458 0.309638 5.94224e-22)
(0.0471851 0.369571 1.27254e-21)
(0.0418291 0.4375 2.12109e-21)
(0.028921 0.515124 -7.77125e-22)
(0.0254638 0.606289 -8.38471e-22)
(0.00387067 0.725843 1.66795e-21)
(0.0081553 0.864929 9.04461e-22)
(0.0268376 0.103637 0)
(0.0465743 0.184103 -1.87707e-21)
(0.0528413 0.250245 -1.04257e-21)
(0.0516479 0.308728 0)
(0.0450049 0.369604 -3.89505e-21)
(0.0401122 0.438155 1.23985e-21)
(0.0277584 0.516379 1.36856e-21)
(0.0244845 0.608165 4.63752e-21)
(0.00375984 0.727949 -1.66255e-21)
(0.00770968 0.866145 3.33624e-21)
(0.0210547 0.0929245 0)
(0.0410456 0.174852 1.89298e-21)
(0.0492753 0.2456 0)
(0.049152 0.306584 4.66223e-21)
(0.0430968 0.368555 -4.68626e-21)
(0.0386349 0.437786 -2.7405e-21)
(0.0267659 0.516617 -1.31586e-22)
(0.02365 0.60903 -4.54659e-21)
(0.00371477 0.729218 -7.5143e-22)
(0.00728901 0.866966 -4.11378e-21)
(0.0174598 0.0820516 2.42472e-22)
(0.0358537 0.163654 -5.42353e-21)
(0.0460099 0.239294 2.71822e-22)
(0.0469428 0.303177 -4.21425e-21)
(0.0414423 0.366494 0)
(0.0373737 0.436572 -2.65227e-21)
(0.025921 0.516177 -1.66445e-22)
(0.0229312 0.609431 5.80969e-21)
(0.00370151 0.730286 7.62626e-22)
(0.00690496 0.867693 -7.65359e-22)
(0.017012 0.0718103 -1.48889e-20)
(0.0312246 0.150868 9.48777e-21)
(0.0430324 0.231294 4.16079e-21)
(0.045 0.298431 -4.15853e-21)
(0.0400318 0.363278 -2.28223e-21)
(0.0363229 0.4342 0)
(0.0252256 0.514508 -5.32175e-21)
(0.0223462 0.60852 2.64405e-21)
(0.0037488 0.730175 2.84269e-21)
(0.00652995 0.867937 2.92476e-21)
(0.0204849 0.0629947 -1.86525e-21)
(0.0275975 0.13719 0)
(0.0403337 0.2216 0)
(0.0432917 0.292463 0)
(0.0388469 0.359322 -2.40317e-21)
(0.0354548 0.431436 4.67812e-21)
(0.024647 0.512764 5.22343e-21)
(0.0218288 0.607846 -8.02811e-21)
(0.00378172 0.730492 1.4014e-21)
(0.00619605 0.868309 -4.2846e-21)
(0.0280044 0.0561218 1.16357e-20)
(0.0256223 0.123587 8.06799e-21)
(0.0379649 0.210277 -7.99531e-21)
(0.0418199 0.284806 8.66985e-21)
(0.0378699 0.353636 -1.07788e-20)
(0.0347806 0.426753 0)
(0.0242161 0.508865 -2.42531e-21)
(0.0214688 0.604859 8.43798e-23)
(0.00391069 0.728818 -2.59873e-21)
(0.00585215 0.868003 -2.66988e-21)
(0.0386735 0.0509694 -1.0021e-20)
(0.0260393 0.110495 0)
(0.0359695 0.197898 -9.28158e-21)
(0.040577 0.277067 1.67473e-20)
(0.0371235 0.348838 -6.26266e-21)
(0.0342441 0.423617 -1.1292e-21)
(0.0238455 0.50693 2.42016e-21)
(0.0210729 0.604085 8.84517e-24)
(0.0039272 0.729036 3.78089e-21)
(0.00556356 0.868212 3.89902e-21)
(0.0503118 0.0478446 -8.36312e-21)
(0.0294932 0.0977512 8.16552e-21)
(0.0347984 0.181451 1.02034e-21)
(0.0394179 0.263643 0)
(0.0364598 0.338157 0)
(0.0339511 0.414632 1.09336e-21)
(0.0237075 0.499228 4.53338e-21)
(0.0209921 0.597911 -4.40144e-21)
(0.00418085 0.725203 -1.14772e-21)
(0.00523548 0.867342 1.11226e-21)
(0.0678854 0.0568523 0)
(0.0396387 0.0936866 0)
(0.0363271 0.170249 0)
(0.0394948 0.258431 0)
(0.0358591 0.337691 0)
(0.0329077 0.416458 0)
(0.0229053 0.501728 0)
(0.0198231 0.601359 0)
(0.00386288 0.728222 0)
(0.00466787 0.86813 0)
(0.082727 0.0868944 0)
(0.0574303 0.121368 0)
(0.0415478 0.178391 0)
(0.0402414 0.26091 0)
(0.0354179 0.342494 0)
(0.0308039 0.423577 0)
(0.0211176 0.510788 0)
(0.0179426 0.612281 0)
(0.00359485 0.738956 0)
(0.0040599 0.874555 0)
(0.0873943 0.0994375 0)
(0.0711793 0.142566 0)
(0.0507343 0.191803 0)
(0.0432372 0.266399 0)
(0.0378938 0.347708 0)
(0.0324627 0.428875 0)
(0.0221114 0.51581 0)
(0.0176645 0.61717 0)
(0.00388368 0.743047 0)
(0.00373025 0.875249 0)
(0.0852389 0.105097 0)
(0.0774466 0.15853 0)
(0.0591266 0.207433 0)
(0.0464481 0.276044 0)
(0.0380083 0.35644 0)
(0.0315479 0.438648 0)
(0.0217089 0.526709 0)
(0.0170787 0.629218 0)
(0.00427244 0.754512 0)
(0.00348715 0.882314 0)
(0.0793869 0.106236 0)
(0.0775398 0.168977 0)
(0.0644215 0.220996 0)
(0.051825 0.285501 0)
(0.0424304 0.363714 0)
(0.0343234 0.444872 0)
(0.0233229 0.531496 0)
(0.0174821 0.632942 0)
(0.00483121 0.757357 0)
(0.00336219 0.88247 0)
(0.0701106 0.104513 0)
(0.0725055 0.175027 0)
(0.0644153 0.23333 0)
(0.0521549 0.297298 0)
(0.0419061 0.374511 0)
(0.0338018 0.456781 0)
(0.0234401 0.544638 0)
(0.0175187 0.646678 0)
(0.00557554 0.769796 0)
(0.0033251 0.89051 0)
(0.0585008 0.0999108 0)
(0.0644748 0.175303 0)
(0.0632511 0.240374 0)
(0.0557912 0.306932 0)
(0.0459193 0.383034 0)
(0.036315 0.463067 0)
(0.0247324 0.548737 0)
(0.0177763 0.64946 0)
(0.00591696 0.771807 0)
(0.00324252 0.890541 0)
(0.045621 0.0931729 0)
(0.0536035 0.171921 0)
(0.0554091 0.242728 0)
(0.0512746 0.313877 0)
(0.0440597 0.393584 0)
(0.0360806 0.476995 0)
(0.0255173 0.564403 0)
(0.0183346 0.665299 0)
(0.00683296 0.785868 0)
(0.00328632 0.900093 0)
(0.0342841 0.0844878 0)
(0.0460801 0.166247 0)
(0.0535295 0.244269 0)
(0.0530463 0.320208 0)
(0.0462356 0.399901 0)
(0.0372931 0.481243 0)
(0.0260406 0.566886 0)
(0.0183979 0.666721 0)
(0.00701362 0.786934 0)
(0.00325491 0.900126 0)
(0.0199663 0.0671982 0)
(0.0316806 0.148005 0)
(0.0422589 0.231995 0)
(0.0473156 0.31895 0)
(0.0451515 0.408944 0)
(0.0384751 0.497126 0)
(0.0279048 0.58527 0)
(0.0195036 0.684911 0)
(0.00815601 0.802705 0)
(0.00337137 0.91102 0)
(0.0874244 0.0462255 7.39591e-21)
(0.0939819 0.0611611 -7.27096e-21)
(0.0929405 0.0650837 6.66881e-22)
(0.0877873 0.0651787 0)
(0.0797811 0.0623181 0)
(0.0684564 0.0578714 2.13384e-22)
(0.0548647 0.0516687 -2.72327e-22)
(0.0402834 0.0439459 2.67913e-22)
(0.0274299 0.0357431 -2.43499e-23)
(0.0141798 0.0203458 2.40126e-23)
(0.0929768 0.0417021 -9.41314e-21)
(0.0948852 0.050547 0)
(0.0915551 0.0507921 3.81715e-21)
(0.085296 0.0485566 -7.6619e-21)
(0.0767343 0.0440063 3.8602e-21)
(0.0651761 0.0383946 -2.09624e-22)
(0.0515995 0.0314437 1.77476e-22)
(0.0371977 0.0233475 4.14009e-23)
(0.0242407 0.0152947 -6.07634e-23)
(0.0119484 0.000759922 -5.03804e-23)
(0.0959999 0.0359766 1.06157e-20)
(0.0946932 0.0395502 -5.27603e-21)
(0.0900406 0.0367411 5.22515e-21)
(0.0830047 0.0323491 -3.02794e-21)
(0.0739521 0.0260694 2.36248e-21)
(0.0621071 0.0191859 0)
(0.0484791 0.0113491 -1.77881e-22)
(0.0342402 0.00287226 -7.37623e-24)
(0.0211925 -0.00509874 2.83487e-23)
(0.00947443 -0.0183961 7.73604e-23)
(0.0973502 0.028191 -1.64215e-21)
(0.0934786 0.0272366 0)
(0.0879539 0.0219777 0)
(0.0803571 0.0157871 0)
(0.0709838 0.00801039 1.48962e-21)
(0.0589965 3.70665e-05 -9.19314e-22)
(0.0454208 -0.00857514 6.13688e-23)
(0.0314042 -0.0173049 3.6168e-23)
(0.0184335 -0.0252066 2.41623e-23)
(0.00766301 -0.0369297 3.70917e-23)
(0.0970894 0.0184444 -8.58379e-22)
(0.0912649 0.0137541 -4.36362e-21)
(0.085221 0.00649329 -1.8507e-21)
(0.0772298 -0.00117269 1.84931e-21)
(0.0676506 -0.0101995 -5.63131e-22)
(0.055709 -0.0190294 0)
(0.0422877 -0.0282239 -1.52251e-22)
(0.0285957 -0.0370377 2.64731e-23)
(0.0159514 -0.0447628 -2.03333e-25)
(0.00604072 -0.0547692 -6.18819e-23)
(0.095462 0.00711361 -1.16024e-20)
(0.0882663 -0.000522787 1.8917e-21)
(0.0819809 -0.00947447 4.83305e-22)
(0.0737469 -0.0183319 1.77806e-21)
(0.0640824 -0.0284 0)
(0.0522799 -0.037857 0)
(0.039121 -0.0474212 0)
(0.0258535 -0.0561558 3.61685e-23)
(0.0137198 -0.0635426 0)
(0.00465289 -0.071837 0)
(0.0926991 -0.00537066 0)
(0.0846386 -0.0152095 3.37358e-21)
(0.0783536 -0.0256452 -2.18892e-21)
(0.0699759 -0.0354397 -1.26074e-21)
(0.0603641 -0.0463474 1.26718e-21)
(0.0487439 -0.0562247 2.33781e-22)
(0.0359771 -0.0659754 -2.96044e-22)
(0.0232306 -0.074471 -1.87902e-22)
(0.0117387 -0.0813628 1.3092e-23)
(0.00353209 -0.0880404 2.31327e-23)
(0.0889949 -0.0186097 0)
(0.0805391 -0.029969 -1.18559e-21)
(0.0743894 -0.0417332 -4.78538e-22)
(0.0659646 -0.0522179 0)
(0.0565193 -0.0637908 1.57258e-22)
(0.0451913 -0.073907 -5.81307e-22)
(0.0329031 -0.0836766 2.11863e-22)
(0.020766 -0.0917962 -7.19415e-24)
(0.0100081 -0.098071 -2.79087e-24)
(0.00265454 -0.103287 -2.90177e-23)
(0.0844868 -0.0322762 1.46652e-21)
(0.0760749 -0.0445002 1.05233e-21)
(0.0701238 -0.0574673 -3.46501e-22)
(0.0617833 -0.0684195 1.82785e-22)
(0.0526071 -0.0804904 2.58645e-22)
(0.0416756 -0.0906855 2.45821e-22)
(0.0299392 -0.100324 -4.61793e-23)
(0.0184886 -0.107964 -1.92235e-23)
(0.00851905 -0.113547 2.8e-24)
(0.00198162 -0.117494 -2.19217e-24)
(0.0793284 -0.0460303 -3.13074e-22)
(0.0713057 -0.0585614 3.16012e-22)
(0.0656492 -0.0726143 -2.37429e-22)
(0.0575056 -0.0838246 -1.82503e-22)
(0.0486832 -0.0962317 1.0854e-22)
(0.0382432 -0.10637 -1.9341e-22)
(0.0271212 -0.115747 6.35582e-23)
(0.0164172 -0.122843 1.72217e-24)
(0.00725489 -0.127709 0)
(0.00147478 -0.130599 2.19651e-24)
(0.0737584 -0.0596085 3.1561e-22)
(0.0663652 -0.0719687 -3.18358e-22)
(0.0610776 -0.0869814 -2.4167e-22)
(0.0532349 -0.0982592 -1.87787e-22)
(0.0448234 -0.110842 -1.12558e-22)
(0.0349527 -0.120819 2.09006e-23)
(0.0244856 -0.129825 3.60618e-23)
(0.014563 -0.136352 4.83754e-23)
(0.00619391 -0.140518 0)
(0.00109823 -0.142562 -2.12695e-24)
(0.0680327 -0.0728244 0)
(0.0614253 -0.0845976 -1.07362e-21)
(0.0565404 -0.100418 1.81699e-21)
(0.0490915 -0.111605 1.8806e-22)
(0.0411121 -0.1242 2.86448e-22)
(0.0318639 -0.133943 2.88912e-22)
(0.0220642 -0.14249 -5.57619e-23)
(0.0129285 -0.148466 -2.84442e-23)
(0.00531187 -0.151978 3.02107e-23)
(0.000820562 -0.153376 2.12164e-24)
(0.0623462 -0.0855528 0)
(0.0566154 -0.0963877 -1.21326e-21)
(0.0521276 -0.112819 -4.94463e-22)
(0.0451581 -0.123807 0)
(0.0376057 -0.136239 -7.79609e-22)
(0.0290128 -0.14572 2.99868e-22)
(0.019873 -0.153738 1.67956e-22)
(0.0115052 -0.159213 2.53464e-22)
(0.00458365 -0.162136 -3.01121e-23)
(0.000615855 -0.16307 2.27097e-23)
(0.0568384 -0.0977125 0)
(0.0520243 -0.107353 1.22329e-21)
(0.0478917 -0.12413 0)
(0.0414807 -0.13488 1.4138e-21)
(0.0343345 -0.146959 -1.42115e-21)
(0.0264121 -0.156188 -3.52847e-22)
(0.0179135 -0.163626 8.76045e-23)
(0.0102762 -0.168675 -2.64867e-22)
(0.00398517 -0.17108 -4.78145e-23)
(0.000463513 -0.171704 -3.58937e-23)
(0.0516224 -0.109255 1.21079e-20)
(0.0477328 -0.117582 -4.55085e-21)
(0.0438809 -0.134343 -4.39422e-22)
(0.0380921 -0.144902 -1.90123e-21)
(0.0313221 -0.156421 0)
(0.0240628 -0.165443 -3.77734e-22)
(0.0161793 -0.172262 1.37164e-22)
(0.00922006 -0.176975 4.14506e-22)
(0.00349506 -0.178928 1.56777e-23)
(0.000347697 -0.179371 -1.56493e-23)
(0.0467762 -0.120143 9.36836e-22)
(0.0438162 -0.127237 7.10463e-21)
(0.0401479 -0.143495 1.97279e-21)
(0.0350172 -0.154001 -1.97163e-21)
(0.0285915 -0.164737 -6.80918e-22)
(0.02196 -0.173621 0)
(0.0146608 -0.179794 -5.99419e-22)
(0.0083154 -0.18426 3.19597e-22)
(0.00309558 -0.18582 1.53622e-22)
(0.000256648 -0.186187 3.88324e-23)
(0.042374 -0.13031 -1.6769e-21)
(0.0403758 -0.136541 0)
(0.0367765 -0.151665 0)
(0.0322871 -0.162333 0)
(0.0261752 -0.172064 -5.25167e-22)
(0.0201022 -0.180883 1.20481e-21)
(0.0133504 -0.186391 6.19602e-22)
(0.00754401 -0.190694 -7.2011e-22)
(0.00277326 -0.191911 3.98422e-23)
(0.000181679 -0.192283 -7.78493e-23)
(0.0384392 -0.139629 -3.84605e-21)
(0.0374586 -0.14575 5.28324e-21)
(0.0338146 -0.158965 -5.23357e-21)
(0.0298899 -0.170058 3.38351e-21)
(0.0240804 -0.178582 -4.10181e-21)
(0.0184707 -0.187398 0)
(0.0122313 -0.19223 -3.82221e-22)
(0.00688619 -0.196438 -1.86976e-23)
(0.00251609 -0.197354 -1.35416e-22)
(0.000114923 -0.197797 -4.68243e-23)
(0.0344572 -0.147819 -1.81497e-21)
(0.034603 -0.155101 0)
(0.0309897 -0.165547 -5.17982e-21)
(0.0275624 -0.17733 8.04427e-21)
(0.0221416 -0.184492 -2.76267e-21)
(0.0169386 -0.193341 -2.9081e-22)
(0.0112252 -0.19749 3.81352e-22)
(0.00629428 -0.201651 4.63339e-23)
(0.00230173 -0.2023 2.81651e-22)
(5.02511e-05 -0.202869 9.25736e-23)
(0.0304919 -0.154234 -7.377e-21)
(0.0316572 -0.164808 7.20144e-21)
(0.0283866 -0.171667 6.69245e-22)
(0.0252985 -0.184324 0)
(0.0203514 -0.190036 0)
(0.0155009 -0.198914 2.99746e-22)
(0.0103172 -0.202367 7.07677e-22)
(0.00575838 -0.206493 -6.94271e-22)
(0.00212044 -0.206893 -5.17455e-23)
(1.07434e-05 -0.207635 5.05734e-23)
(0.0321126 -0.162863 0)
(0.0318906 -0.187535 0)
(0.0281384 -0.185347 0)
(0.0242166 -0.200394 0)
(0.0192667 -0.202875 0)
(0.0142247 -0.211882 0)
(0.00945291 -0.21367 0)
(0.00518184 -0.217659 0)
(0.00200035 -0.217396 0)
(5.96321e-05 -0.218502 0)
(0.024132 -0.198982 0)
(0.0198744 -0.223 0)
(0.0181903 -0.2159 0)
(0.0146275 -0.229688 0)
(0.012047 -0.228156 0)
(0.00867814 -0.235957 0)
(0.00600249 -0.235222 0)
(0.00331203 -0.238663 0)
(0.00142938 -0.237311 0)
(0.000100888 -0.238649 0)
(0.0227702 -0.236686 0)
(0.0177657 -0.259886 0)
(0.0155158 -0.249161 0)
(0.0117512 -0.262522 0)
(0.00958086 -0.257939 0)
(0.00660853 -0.265497 0)
(0.0047167 -0.262828 0)
(0.00259783 -0.266307 0)
(0.001284 -0.263976 0)
(0.000110736 -0.265683 0)
(0.0204696 -0.280159 0)
(0.015177 -0.303465 0)
(0.0130664 -0.289958 0)
(0.00944566 -0.303677 0)
(0.00781063 -0.29662 0)
(0.00521288 -0.304618 0)
(0.00394084 -0.300294 0)
(0.00217096 -0.304264 0)
(0.00123771 -0.300949 0)
(0.000103892 -0.303222 0)
(0.0186944 -0.332946 0)
(0.0135599 -0.356467 0)
(0.0113376 -0.341501 0)
(0.00793879 -0.355884 0)
(0.00656734 -0.347201 0)
(0.00426565 -0.355999 0)
(0.00337654 -0.350421 0)
(0.00182013 -0.35515 0)
(0.00115297 -0.350966 0)
(6.18705e-05 -0.354005 0)
(0.0168309 -0.39607 0)
(0.0119245 -0.41811 0)
(0.00982021 -0.404082 0)
(0.00663385 -0.418267 0)
(0.00549428 -0.40947 0)
(0.00340058 -0.418606 0)
(0.00275108 -0.412599 0)
(0.0013238 -0.417873 0)
(0.000889838 -0.413275 0)
(-4.3824e-05 -0.41698 0)
(0.0140633 -0.46412 0)
(0.00975242 -0.482047 0)
(0.00798756 -0.471793 0)
(0.00521472 -0.483928 0)
(0.00428688 -0.476949 0)
(0.00243366 -0.485081 0)
(0.00190805 -0.479877 0)
(0.000642263 -0.484804 0)
(0.00043453 -0.480632 0)
(-0.000171234 -0.484395 0)
(0.0105894 -0.525395 0)
(0.00728335 -0.537898 0)
(0.00583229 -0.5328 0)
(0.00367574 -0.541329 0)
(0.00292009 -0.537314 0)
(0.00143433 -0.543068 0)
(0.00099423 -0.539598 0)
(-6.76201e-06 -0.543099 0)
(-3.28365e-06 -0.540099 0)
(-0.000242082 -0.542964 0)
(0.00647062 -0.569414 0)
(0.00433372 -0.576733 0)
(0.00345073 -0.576164 0)
(0.002105 -0.581094 0)
(0.0016378 -0.579971 0)
(0.000667691 -0.583023 0)
(0.000369798 -0.581416 0)
(-0.000278178 -0.583074 0)
(-0.000178665 -0.581443 0)
(-0.000206412 -0.582901 0)
(0.00208291 -0.591415 0)
(0.0013018 -0.596478 0)
(0.00110564 -0.598377 0)
(0.000655222 -0.601227 0)
(0.000537181 -0.601636 0)
(0.000188426 -0.60308 0)
(9.34411e-05 -0.602531 0)
(-0.00014082 -0.603088 0)
(-8.6197e-05 -0.602283 0)
(-7.9302e-05 -0.602861 0)
(0.0297878 -0.175057 8.51142e-21)
(0.0249288 -0.212094 -8.34975e-21)
(0.0247701 -0.25137 1.05912e-21)
(0.0227234 -0.296332 0)
(0.0212366 -0.349359 0)
(0.019169 -0.410548 1.17129e-21)
(0.0161462 -0.474199 -4.96467e-21)
(0.0122194 -0.529909 4.90744e-21)
(0.00767419 -0.569358 1.32267e-21)
(0.00262282 -0.588803 -1.30265e-21)
(0.0293716 -0.181139 -1.00614e-20)
(0.0256454 -0.217668 0)
(0.0257378 -0.256785 7.06414e-21)
(0.0237654 -0.301791 -1.61839e-20)
(0.0223684 -0.354599 1.02845e-20)
(0.0202007 -0.414937 -1.07027e-21)
(0.0170694 -0.476973 2.34978e-21)
(0.0129586 -0.530889 4.91422e-21)
(0.00821329 -0.568824 1.36872e-21)
(0.00285022 -0.587729 1.33331e-21)
(0.0293941 -0.187425 1.17689e-20)
(0.0268622 -0.223746 -7.91089e-21)
(0.0270465 -0.262374 7.83596e-21)
(0.0250995 -0.306994 -8.48666e-21)
(0.0237191 -0.359294 6.293e-21)
(0.0213898 -0.418596 0)
(0.0180771 -0.478991 -2.35557e-21)
(0.0137255 -0.531252 1.1674e-22)
(0.00870231 -0.567871 -2.56668e-21)
(0.00301587 -0.586425 -2.62004e-21)
(0.0298803 -0.192818 -1.90021e-21)
(0.0284601 -0.229254 0)
(0.0286726 -0.267616 0)
(0.0267346 -0.311912 0)
(0.0253054 -0.363719 6.8932e-21)
(0.0227672 -0.421982 -4.60053e-21)
(0.0192137 -0.480786 -2.25983e-23)
(0.0145607 -0.531398 -2.74267e-21)
(0.00918703 -0.566741 -1.4021e-21)
(0.00314984 -0.584769 -1.49232e-21)
(0.0309406 -0.197546 5.97953e-23)
(0.0303983 -0.233884 -5.70804e-21)
(0.0305649 -0.272048 -4.19536e-21)
(0.028625 -0.316153 4.19278e-21)
(0.0270974 -0.367571 -2.26189e-21)
(0.0243239 -0.424908 0)
(0.0204991 -0.482279 -2.58654e-21)
(0.0155037 -0.531346 5.6044e-21)
(0.0097313 -0.565476 -2.86298e-21)
(0.00329704 -0.58285 2.92862e-21)
(0.0326371 -0.201791 -1.52855e-20)
(0.0327134 -0.237759 1.7356e-21)
(0.0327369 -0.275604 -2.3357e-22)
(0.0307567 -0.319516 4.29775e-21)
(0.0290781 -0.370583 0)
(0.0260468 -0.427104 0)
(0.0219314 -0.483234 0)
(0.0165678 -0.530956 2.99458e-21)
(0.010366 -0.56402 0)
(0.00348191 -0.580763 0)
(0.0349802 -0.205432 0)
(0.0354333 -0.240911 6.1334e-21)
(0.0352306 -0.278323 -4.13276e-21)
(0.0331501 -0.321987 -4.73338e-21)
(0.0312606 -0.372684 4.75805e-21)
(0.0279416 -0.428459 2.76012e-21)
(0.0235094 -0.483521 -2.74628e-21)
(0.0177505 -0.530121 -1.06905e-20)
(0.0110912 -0.56231 7.61882e-22)
(0.00370788 -0.57854 -2.57957e-21)
(0.0379731 -0.208285 0)
(0.0385621 -0.243239 -2.00527e-21)
(0.038075 -0.280178 -1.10804e-21)
(0.0358285 -0.323568 0)
(0.0336698 -0.373883 1.35132e-21)
(0.0300282 -0.428976 -4.08981e-21)
(0.0252425 -0.483124 4.48389e-21)
(0.0190519 -0.528807 1.5868e-21)
(0.0118995 -0.560311 -1.72869e-21)
(0.00397081 -0.576164 3.42484e-21)
(0.0416256 -0.21022 1.88047e-21)
(0.0420991 -0.244649 2.14826e-21)
(0.0412852 -0.281095 -4.92262e-22)
(0.0388047 -0.324232 6.2015e-22)
(0.0363263 -0.374184 1.3019e-21)
(0.0323264 -0.428687 2.1523e-21)
(0.0271441 -0.482077 -7.99496e-22)
(0.0204762 -0.527036 -8.57686e-22)
(0.0127855 -0.558022 1.7344e-21)
(0.00426707 -0.573612 9.36004e-22)
(0.0459477 -0.211137 -5.07491e-22)
(0.0460476 -0.245096 5.11906e-22)
(0.0448721 -0.281009 -5.68897e-22)
(0.0420837 -0.323945 -6.19372e-22)
(0.0392437 -0.373567 7.17642e-22)
(0.0348505 -0.427594 -1.46126e-21)
(0.029229 -0.480395 1.22136e-21)
(0.0220349 -0.524817 4.33338e-22)
(0.013754 -0.555444 0)
(0.00459782 -0.570868 -9.38084e-22)
(0.0509441 -0.210951 5.19407e-22)
(0.0504093 -0.244582 -5.24139e-22)
(0.0488481 -0.279885 -6.07716e-22)
(0.0456693 -0.322693 -6.65604e-22)
(0.0424329 -0.372022 -7.46834e-22)
(0.0376086 -0.425711 -4.58763e-23)
(0.0315044 -0.478102 4.30021e-22)
(0.0237321 -0.522177 1.37779e-21)
(0.0148061 -0.552587 0)
(0.0049632 -0.567928 -1.01986e-21)
(0.0566147 -0.209634 0)
(0.0551812 -0.243118 -2.34787e-21)
(0.0532238 -0.277732 4.23503e-21)
(0.0495611 -0.320482 6.66753e-22)
(0.045904 -0.369541 1.52044e-21)
(0.0406097 -0.423019 2.46402e-21)
(0.0339854 -0.475168 -8.69375e-22)
(0.0255848 -0.519089 -9.33382e-22)
(0.0159544 -0.549436 2.05268e-21)
(0.00536789 -0.564781 1.01747e-21)
(0.0629549 -0.207243 0)
(0.0603559 -0.240703 -2.33544e-21)
(0.0580062 -0.274604 -1.26442e-21)
(0.0537648 -0.317334 0)
(0.0496656 -0.366179 -4.76175e-21)
(0.0438554 -0.419568 1.59577e-21)
(0.0366671 -0.471658 1.86199e-21)
(0.0275823 -0.515598 5.96918e-21)
(0.0171894 -0.546004 -2.04603e-21)
(0.00580648 -0.561427 4.40043e-21)
(0.0699597 -0.203898 0)
(0.0659296 -0.237323 2.35544e-21)
(0.0631837 -0.270658 0)
(0.0582774 -0.313252 6.14043e-21)
(0.0537256 -0.361934 -6.1719e-21)
(0.0473626 -0.415304 -3.67756e-21)
(0.0395755 -0.467489 -6.97704e-23)
(0.0297606 -0.511619 -6.13252e-21)
(0.0185375 -0.542234 -1.02253e-21)
(0.00628842 -0.557823 -5.47327e-21)
(0.0776138 -0.199832 1.76848e-20)
(0.0718839 -0.232922 -6.72598e-21)
(0.0687569 -0.265906 5.63508e-22)
(0.0631401 -0.308237 -5.82178e-21)
(0.0580801 -0.35686 0)
(0.0511232 -0.41034 -3.82714e-21)
(0.0426859 -0.462801 -2.88897e-22)
(0.0320849 -0.507287 8.32441e-21)
(0.0199684 -0.538218 1.13425e-21)
(0.00679687 -0.554022 -1.13853e-21)
(0.0859033 -0.195124 -1.30091e-21)
(0.0782745 -0.227471 1.23225e-20)
(0.0746774 -0.260294 6.04505e-21)
(0.0683476 -0.302352 -6.04094e-21)
(0.0627389 -0.350916 -3.54795e-21)
(0.0551718 -0.404531 0)
(0.0460564 -0.457372 -8.5028e-21)
(0.0346282 -0.502402 4.26302e-21)
(0.0215458 -0.533834 4.52802e-21)
(0.00736203 -0.549942 4.84156e-21)
(0.0946445 -0.189818 -2.42116e-21)
(0.0851123 -0.221235 0)
(0.0808935 -0.254071 0)
(0.0738676 -0.295902 0)
(0.0676623 -0.344513 -4.03444e-21)
(0.0594386 -0.398409 7.56939e-21)
(0.0495758 -0.451768 8.65362e-21)
(0.0372561 -0.497398 -1.3573e-20)
(0.0231583 -0.529319 2.41729e-21)
(0.00792502 -0.545721 -7.19054e-21)
(0.103718 -0.183895 -4.00429e-21)
(0.0923928 -0.214125 1.18136e-20)
(0.0874137 -0.246984 -1.17009e-20)
(0.0797552 -0.288394 1.44199e-20)
(0.072956 -0.336886 -1.81029e-20)
(0.0641021 -0.390968 0)
(0.0534942 -0.444953 -4.51619e-21)
(0.0402448 -0.491492 -1.7647e-22)
(0.0250268 -0.524242 -5.01465e-21)
(0.00859381 -0.541084 -5.10249e-21)
(0.112888 -0.178276 -2.5771e-21)
(0.0999293 -0.207206 0)
(0.0939962 -0.240409 -1.52708e-20)
(0.0857229 -0.281633 2.84501e-20)
(0.0782717 -0.330303 -1.09429e-20)
(0.0687146 -0.384742 -2.15246e-21)
(0.0572759 -0.439247 4.50652e-21)
(0.0430546 -0.48629 -2.14324e-22)
(0.0267417 -0.519422 7.32664e-21)
(0.0091596 -0.536499 7.5507e-21)
(0.122575 -0.17019 -1.1345e-20)
(0.108932 -0.196998 1.11024e-20)
(0.101668 -0.230296 1.63408e-21)
(0.0927465 -0.270997 0)
(0.0846008 -0.319577 0)
(0.074379 -0.374486 2.09573e-21)
(0.0621042 -0.430234 9.46018e-21)
(0.0467941 -0.478918 -9.24269e-21)
(0.0291154 -0.513428 -2.51278e-21)
(0.0100229 -0.53109 2.47e-21)
(0.133824 -0.171149 0)
(0.128285 -0.193461 0)
(0.117074 -0.228065 0)
(0.106591 -0.268061 0)
(0.0968514 -0.315702 0)
(0.0847827 -0.368878 0)
(0.0704517 -0.422473 0)
(0.0528822 -0.469075 0)
(0.0327548 -0.502298 0)
(0.0109649 -0.519755 0)
(0.156854 -0.155591 0)
(0.161785 -0.18281 0)
(0.144072 -0.22046 0)
(0.133309 -0.259856 0)
(0.120751 -0.306687 0)
(0.105447 -0.357395 0)
(0.0873864 -0.407349 0)
(0.0655434 -0.44986 0)
(0.0407903 -0.479237 0)
(0.0142887 -0.493479 0)
(0.188142 -0.140269 0)
(0.197796 -0.16887 0)
(0.173152 -0.206034 0)
(0.163508 -0.243853 0)
(0.14679 -0.28928 0)
(0.127676 -0.336699 0)
(0.105076 -0.382984 0)
(0.0782671 -0.422515 0)
(0.0481826 -0.450736 0)
(0.0158084 -0.466212 0)
(0.22765 -0.129596 0)
(0.238905 -0.157183 0)
(0.207888 -0.192983 0)
(0.200262 -0.229626 0)
(0.177602 -0.27333 0)
(0.154545 -0.316507 0)
(0.126538 -0.358497 0)
(0.093964 -0.393344 0)
(0.0581343 -0.41692 0)
(0.0205465 -0.427478 0)
(0.274532 -0.115755 0)
(0.283967 -0.140935 0)
(0.247605 -0.174155 0)
(0.240496 -0.207902 0)
(0.208853 -0.246917 0)
(0.181433 -0.283996 0)
(0.146337 -0.321341 0)
(0.107494 -0.352522 0)
(0.0652772 -0.375693 0)
(0.0205036 -0.390177 0)
(0.330442 -0.106425 0)
(0.335655 -0.128553 0)
(0.295319 -0.159233 0)
(0.285974 -0.188588 0)
(0.244329 -0.222465 0)
(0.214064 -0.254411 0)
(0.170833 -0.287601 0)
(0.12534 -0.313421 0)
(0.0768544 -0.331286 0)
(0.0284182 -0.336869 0)
(0.388828 -0.0868623 0)
(0.385504 -0.104334 0)
(0.342274 -0.129903 0)
(0.326438 -0.152388 0)
(0.275386 -0.179932 0)
(0.241634 -0.205381 0)
(0.18603 -0.231865 0)
(0.134298 -0.252705 0)
(0.0783502 -0.273017 0)
(0.0205135 -0.2924 0)
(0.450185 -0.0735966 0)
(0.43777 -0.0862139 0)
(0.395439 -0.10698 0)
(0.370695 -0.123387 0)
(0.316237 -0.146238 0)
(0.276615 -0.165625 0)
(0.211843 -0.187679 0)
(0.156522 -0.206595 0)
(0.0938987 -0.225467 0)
(0.0428877 -0.224303 0)
(0.494822 -0.0397665 0)
(0.475108 -0.0458752 0)
(0.424486 -0.0583725 0)
(0.390195 -0.0664241 0)
(0.326644 -0.080192 0)
(0.276605 -0.0892608 0)
(0.198588 -0.102231 0)
(0.133785 -0.113083 0)
(0.0570471 -0.134793 0)
(-0.0224945 -0.183322 0)
(0.708757 -0.0200979 0)
(0.684217 -0.0235062 0)
(0.639843 -0.0286875 0)
(0.601029 -0.0332806 0)
(0.542504 -0.0402644 0)
(0.487323 -0.0469745 0)
(0.410364 -0.0575815 0)
(0.331279 -0.0717618 0)
(0.225653 -0.100358 0)
(0.15799 -0.15687 0)
(0.160434 -0.150973 1.18859e-20)
(0.186149 -0.134313 -1.171e-20)
(0.218615 -0.119778 1.81575e-21)
(0.257723 -0.109844 0)
(0.304165 -0.0976351 0)
(0.357645 -0.0893792 2.60364e-21)
(0.414094 -0.0723342 -1.22377e-20)
(0.471523 -0.0618156 1.21005e-20)
(0.521721 -0.0325651 3.43373e-21)
(0.730092 -0.0172915 -3.46031e-21)
(0.168723 -0.14245 -1.16803e-20)
(0.193655 -0.125388 0)
(0.225927 -0.111554 1.27017e-20)
(0.265067 -0.102018 -3.03831e-20)
(0.311617 -0.0904684 2.02426e-20)
(0.364912 -0.0826471 -2.40145e-21)
(0.42125 -0.066547 5.21838e-21)
(0.478198 -0.0571254 1.16085e-20)
(0.531343 -0.0297018 3.18722e-21)
(0.738172 -0.0160966 3.12112e-21)
(0.175863 -0.132958 1.35828e-20)
(0.199904 -0.116024 -1.23989e-20)
(0.231369 -0.103174 1.22816e-20)
(0.270248 -0.0941445 -1.60568e-20)
(0.31668 -0.0833444 1.16908e-20)
(0.369915 -0.0760737 0)
(0.426306 -0.061019 -5.23112e-21)
(0.483389 -0.052795 -7.54629e-23)
(0.539505 -0.0271494 -6.01458e-21)
(0.745461 -0.0149644 -6.25517e-21)
(0.183102 -0.12286 -2.31213e-21)
(0.207016 -0.106405 0)
(0.237661 -0.0946329 0)
(0.276233 -0.0861975 0)
(0.322408 -0.0762215 1.30632e-20)
(0.375407 -0.0696167 -8.86569e-21)
(0.431683 -0.0557071 -2.93812e-22)
(0.488728 -0.0487292 -5.91171e-21)
(0.547177 -0.0248605 -3.02286e-21)
(0.752369 -0.0139172 -3.07308e-21)
(0.189806 -0.112414 1.74895e-21)
(0.21384 -0.0967148 -7.23552e-21)
(0.243877 -0.0860328 -6.82264e-21)
(0.282284 -0.0782761 6.81842e-21)
(0.328342 -0.0691545 -4.13896e-21)
(0.381197 -0.0632923 0)
(0.437345 -0.0505683 -5.14571e-21)
(0.494263 -0.0448202 1.1376e-20)
(0.554582 -0.0227405 -5.72947e-21)
(0.758947 -0.0129426 6.15494e-21)
(0.195731 -0.101652 -1.76155e-20)
(0.219684 -0.0870044 1.27103e-21)
(0.249267 -0.077427 -8.93208e-22)
(0.287537 -0.0704353 6.70949e-21)
(0.333534 -0.0622165 0)
(0.386433 -0.0571484 0)
(0.442562 -0.0456113 0)
(0.499487 -0.0410435 5.48187e-21)
(0.561503 -0.0207386 0)
(0.765076 -0.0120242 0)
(0.200843 -0.0905817 0)
(0.224533 -0.0772577 8.2946e-21)
(0.253684 -0.0688214 -5.70705e-21)
(0.291818 -0.0626613 -7.5211e-21)
(0.337693 -0.0554061 7.56024e-21)
(0.390728 -0.0512002 4.73088e-21)
(0.446875 -0.0408429 -4.50281e-21)
(0.504044 -0.0374074 -1.8948e-20)
(0.567691 -0.0188443 1.34459e-21)
(0.770652 -0.0111583 -4.46552e-21)
(0.205052 -0.0792332 0)
(0.228432 -0.0674548 -2.59537e-21)
(0.257161 -0.0602025 -1.50913e-21)
(0.29513 -0.0549357 0)
(0.340892 -0.0486942 2.22424e-21)
(0.394039 -0.0454039 -6.45587e-21)
(0.4502 -0.0362491 7.52735e-21)
(0.507831 -0.0339177 2.84688e-21)
(0.572972 -0.017048 -2.82944e-21)