/*--------------------------------*- C++ -*----------------------------------*\
  =========                 |
  \\      /  F ield         | OpenFOAM: The Open Source CFD Toolbox
   \\    /   O peration     | Website:  https://openfoam.org
    \\  /    A nd           | Version:  7
     \\/     M anipulation  |
\*---------------------------------------------------------------------------*/
FoamFile
{
    version     2.0;
    format      ascii;
    class       surfaceScalarField;
    location    "7.6";
    object      phi;
}
// * * * * * * * * * * * * * * * * * * * * * * * * * * * * * * * * * * * * * //

dimensions      [0 3 -1 0 0 0 0];

internalField   nonuniform List<scalar> 
3880
(
0.000407641
0.00207341
-0.00248105
0.00147
0.00820889
-0.00927125
0.0030797
0.0144798
-0.0160895
0.00506315
0.020161
-0.0221445
0.00722496
0.024853
-0.0270148
0.00940077
0.0284061
-0.0305819
0.0114808
0.0308575
-0.0329376
0.013408
0.0323536
-0.0342808
0.0151639
0.0330883
-0.0348442
0.0332469
0.0167551
-0.0348381
0.000325661
0.00174775
0.00123218
0.00730237
0.00267419
0.0130378
0.0045308
0.0183044
0.0066408
0.022743
0.00885147
0.0261954
0.0110467
0.0286623
0.0131522
0.0302481
0.015128
0.0311125
0.0314187
0.0169562
0.000236187
0.00151156
0.000975099
0.00656346
0.00222714
0.0117857
0.00391851
0.0166131
0.00592225
0.0207393
0.00810261
0.0240151
0.0103447
0.0264202
0.0125648
0.028028
0.0147058
0.0289715
0.0293981
0.0167264
0.000139571
0.00137199
0.000702813
0.00600022
0.00174981
0.0107387
0.00324659
0.0151163
0.00509774
0.0188882
0.00718732
0.0219255
0.00940854
0.024199
0.011677
0.0257596
0.0139278
0.0267207
0.0272252
0.0161007
3.73636e-05
0.00133463
0.000424586
0.005613
0.00126252
0.00990081
0.00254942
0.0138294
0.00421664
0.0172209
0.00616805
0.0199741
0.00830929
0.0220578
0.010564
0.0235049
0.0128721
0.0244126
0.0249327
0.0151646
-6.3999e-05
0.00139863
0.000156426
0.00539257
0.000797256
0.00925998
0.00188011
0.0127465
0.00335646
0.0157446
0.0051471
0.0181835
0.00717052
0.0200343
0.00936289
0.0213125
0.0116824
0.0220931
0.0225451
0.01407
-0.000157654
0.00155628
-7.91326e-05
0.00531405
0.000399029
0.00878181
0.00131422
0.0118313
0.00263119
0.0144276
0.0042827
0.0165319
0.00619553
0.0181215
0.00831375
0.0191943
0.0106158
0.0197911
0.0200845
0.0130763
-0.0002349
0.00179118
-0.000255532
0.00533468
0.000123634
0.00840265
0.000947864
0.0110071
0.00219256
0.0131829
0.00379768
0.0149268
0.00569029
0.0162289
0.00780459
0.01708
0.0101098
0.0174859
0.0175939
0.0126004
-0.000286553
0.00207773
-0.000344803
0.00539293
2.93707e-05
0.00802847
0.000885249
0.0101512
0.002212
0.0118562
0.00395574
0.0131831
0.00603851
0.0141461
0.0083582
0.0147603
0.0108057
0.0150384
0.0152215
0.0131781
-0.000305026
0.00238276
-0.000323618
0.00541153
0.000161693
0.00754316
0.00121651
0.00909641
0.00283935
0.0102333
0.00499328
0.0110291
0.00761153
0.0115279
0.0105659
0.0118059
0.0136425
0.0119618
0.0154938
0.0133702
0.0169168
0.118642
-0.118803
0.0160219
0.111501
-0.110606
0.0141037
0.105914
-0.103996
0.0117725
0.103168
-0.100837
0.00947759
0.10248
-0.100185
0.00730293
0.103859
-0.101684
0.00536297
0.10481
-0.10287
0.00345913
0.107391
-0.105487
0.00179565
0.109365
-0.107702
0.11349
-0.111694
0.0179706
0.117627
0.0175255
0.111946
0.0157711
0.107669
0.0133767
0.105562
0.0108892
0.104968
0.0084495
0.106298
0.00619854
0.107061
0.00399354
0.109596
0.00206158
0.111297
0.115551
0.0186551
0.115699
0.0187665
0.111834
0.017319
0.109116
0.0149788
0.107903
0.0123767
0.10757
0.00969465
0.108981
0.00713886
0.109617
0.00461187
0.112123
0.00236976
0.113539
0.117921
0.0189818
0.112817
0.0197444
0.111072
0.0187226
0.110138
0.0165517
0.110073
0.0139097
0.110212
0.0110257
0.111864
0.00817457
0.112468
0.00531248
0.114985
0.00272099
0.116131
0.120642
0.0190009
0.108981
0.0204802
0.109592
0.0199737
0.110645
0.0180643
0.111983
0.0154537
0.112822
0.0124142
0.114904
0.0092856
0.115597
0.00608761
0.118183
0.00311243
0.119106
0.123754
0.0187892
0.104262
0.0210069
0.107375
0.0210743
0.110577
0.0194939
0.113563
0.0169759
0.11534
0.0138267
0.118053
0.0104476
0.118976
0.00692042
0.12171
0.00353611
0.12249
0.12729
0.0184582
0.09888
0.0213614
0.104472
0.0220326
0.109906
0.0208267
0.114769
0.0184493
0.117718
0.0152298
0.121273
0.0116289
0.122577
0.0077842
0.125554
0.0039814
0.126293
0.131272
0.0181817
0.0932986
0.0215883
0.101065
0.0228487
0.108646
0.0220422
0.115576
0.0198502
0.11991
0.0166055
0.124517
0.0128234
0.126359
0.00868549
0.129692
0.00445459
0.130524
0.135726
0.0181979
0.0882788
0.0217937
0.0974692
0.0235837
0.106856
0.023169
0.11599
0.0211693
0.121909
0.0179064
0.12778
0.0139483
0.130317
0.00949932
0.134141
0.00486284
0.13516
0.140589
0.0188778
0.0848948
0.0220138
0.0943332
0.0241463
0.104723
0.0241576
0.115979
0.0224631
0.123604
0.0192768
0.130966
0.0152662
0.134327
0.0106497
0.138758
0.00557105
0.140239
0.14616
0.0570244
0.10633
-0.0784592
0.0497635
0.101594
0.0488395
0.105647
0.0477577
0.117061
0.0443455
0.127016
0.0376052
0.137707
0.0276632
0.144269
0.0154921
0.150929
0.00624759
0.149484
0.152408
0.111438
0.124817
-0.129925
0.0926418
0.12039
0.0776146
0.120674
0.0659057
0.12877
0.0566389
0.136283
0.0496384
0.144707
0.0451378
0.14877
0.0422947
0.153772
0.0280732
0.163705
0.180481
0.134738
0.138713
-0.148634
0.116861
0.138266
0.0996344
0.137901
0.0852538
0.14315
0.0702253
0.151311
0.0519834
0.162949
0.0295033
0.17125
0.00708716
0.176188
-0.00232251
0.173115
0.178159
0.143918
0.150126
-0.155331
0.128155
0.154029
0.108798
0.157258
0.0895516
0.162397
0.0748781
0.165985
0.0661308
0.171696
0.0599347
0.177446
0.0490185
0.187104
0.0252229
0.19691
0.203382
0.147925
0.161038
-0.158836
0.136555
0.165399
0.125961
0.167853
0.112616
0.175742
0.0914821
0.187118
0.0650563
0.198122
0.0399643
0.202538
0.0229844
0.204084
0.0121392
0.207755
0.215521
0.154571
0.171066
-0.164599
0.138408
0.181563
0.118404
0.187856
0.102632
0.191514
0.0935782
0.196173
0.0859173
0.205783
0.0719228
0.216533
0.0517169
0.22429
0.027416
0.232056
0.242937
0.163078
0.178154
-0.170166
0.157734
0.186907
0.146578
0.199012
0.124263
0.21383
0.0965669
0.223868
0.0708518
0.231498
0.0501148
0.23727
0.0312198
0.243185
0.0148138
0.248462
0.257751
0.164412
0.184988
-0.171246
0.148786
0.202532
0.139513
0.208285
0.133947
0.219395
0.124026
0.23379
0.106123
0.249401
0.082319
0.261073
0.0549459
0.270558
0.0255918
0.277816
0.283342
0.184441
0.165649
-0.165103
0.17938
0.207594
0.158354
0.229311
0.135302
0.242448
0.114048
0.255044
0.0933672
0.270082
0.0713901
0.28305
0.0483819
0.293567
0.024411
0.301787
0.307753
0.157566
-0.121254
0.177408
0.179455
0.168002
0.149002
0.125357
0.0978557
0.0674359
0.0350542
0.0463031
-0.0986058
-0.0261566
0.0537102
-0.137332
0.0556363
-0.15056
0.0560003
-0.155695
0.0559721
-0.158808
0.0557819
-0.164409
0.0535827
-0.167967
0.0482325
-0.165896
0.0358479
-0.152718
-0.108348
0.0504729
-0.115873
-0.033206
0.0555633
-0.142422
0.0563461
-0.151342
0.0562636
-0.155613
0.0560433
-0.158588
0.0550628
-0.163429
0.0516257
-0.16453
0.0443894
-0.15866
0.0313038
-0.139633
-0.0950458
0.0523114
-0.128462
-0.0397217
0.055563
-0.145674
0.055881
-0.15166
0.0556788
-0.155411
0.0552327
-0.158142
0.0534924
-0.161688
0.0488801
-0.159917
0.0400653
-0.149845
0.0262659
-0.125833
-0.0817389
0.0531507
-0.13675
-0.0448629
0.0550573
-0.147581
0.0550699
-0.151673
0.0547142
-0.155055
0.0539194
-0.157347
0.0512799
-0.159049
0.0453391
-0.153977
0.0351451
-0.139651
0.0210163
-0.111704
-0.0686917
0.0527341
-0.141554
-0.0479303
0.0537707
-0.148617
0.053697
-0.151599
0.0532252
-0.154583
0.0519527
-0.156075
0.0483115
-0.155408
0.0411066
-0.146772
0.0298053
-0.12835
0.0156452
-0.0975442
-0.0562323
0.0513385
-0.144159
-0.0487331
0.0519636
-0.149242
0.0518743
-0.15151
0.0512151
-0.153924
0.0493212
-0.154181
0.0446369
-0.150723
0.0362655
-0.1384
0.0241524
-0.116237
0.0101743
-0.0835662
-0.0448609
0.0491368
-0.145665
-0.0476313
0.0496177
-0.149723
0.0495197
-0.151412
0.0485986
-0.153003
0.0459843
-0.151566
0.0402794
-0.145018
0.0309379
-0.129059
0.0183732
-0.103672
0.00481797
-0.070011
-0.0349387
0.0463167
-0.146784
-0.0451976
0.0467896
-0.150196
0.0466452
-0.151268
0.0453713
-0.151729
0.0419822
-0.148177
0.0353493
-0.138386
0.0252891
-0.118999
0.012632
-0.0910147
-0.000423649
-0.0569553
-0.026794
0.0429959
-0.147865
-0.0419146
0.0434894
-0.15069
0.0432332
-0.151011
0.0415338
-0.15003
0.037381
-0.144025
0.0299694
-0.130974
0.0194669
-0.108496
0.00710769
-0.0786555
-0.00438973
-0.0454579
-0.0196428
0.0392537
-0.149036
-0.0380827
0.0397493
-0.151185
0.0393145
-0.150577
0.0371473
-0.147863
0.0323007
-0.139178
0.024301
-0.122974
0.0136262
-0.0978213
0.00184933
-0.0668786
-0.00829323
-0.0353153
-0.0137756
0.0351475
-0.150305
-0.0338793
0.0356152
-0.151653
0.0349427
-0.149904
0.0323077
-0.145228
0.0268869
-0.133757
0.0185121
-0.114599
0.00791273
-0.087222
-0.0031399
-0.0558259
-0.0118919
-0.0265633
-0.00920361
0.0306903
-0.151629
-0.0293661
0.0311159
-0.152078
0.0301978
-0.148986
0.0271405
-0.14217
0.0212958
-0.127912
0.0127646
-0.106068
0.00246271
-0.07692
-0.00773353
-0.0456297
-0.0151001
-0.0191968
-0.00583294
0.0259459
-0.152973
-0.0246016
0.0263308
-0.152463
0.0251984
-0.147854
0.0218011
-0.138773
0.0157004
-0.121812
0.00721367
-0.0975816
-0.00260354
-0.0671028
-0.0117912
-0.0364421
-0.017875
-0.013113
-0.00350402
0.0209814
-0.154321
-0.0196331
0.0213374
-0.152819
0.0200475
-0.146564
0.0164292
-0.135155
0.010246
-0.115629
0.00198744
-0.089323
-0.00719654
-0.0579188
-0.0153241
-0.0283145
-0.020218
-0.00821909
-0.00202393
0.0158402
-0.15565
-0.0145115
0.0161866
-0.153166
0.014844
-0.145221
0.0111595
-0.13147
0.0050637
-0.109533
-0.00282143
-0.0814378
-0.0112893
-0.0494509
-0.0183472
-0.0212566
-0.0221484
-0.00441786
-0.00117577
0.0105682
-0.156934
-0.00928421
0.0109834
-0.153581
0.00974491
-0.143983
0.00615557
-0.127881
0.000328858
-0.103706
-0.00720065
-0.0739083
-0.0148705
-0.0417811
-0.0208927
-0.0152344
-0.0237318
-0.0015788
-0.000760571
0.0054006
-0.158334
-0.00400059
0.00604455
-0.154225
0.00500903
-0.142947
0.00160736
-0.124479
-0.00406077
-0.0980379
-0.0110483
-0.0669208
-0.017945
-0.0348844
-0.0230078
-0.0101716
-0.0250414
0.00045489
-0.000608065
0.000331241
-0.159988
0.00132285
0.00159116
-0.155485
0.000866065
-0.142222
-0.0023793
-0.121234
-0.00781099
-0.0926062
-0.01436
-0.0603719
-0.0205524
-0.028692
-0.0247622
-0.00596177
-0.0261287
0.00182139
-0.000561622
-0.00364152
-0.163002
0.0066549
-0.00248283
-0.156643
-0.00302067
-0.141684
-0.00606526
-0.118189
-0.0111765
-0.0874949
-0.0172555
-0.0542928
-0.0227573
-0.0231902
-0.026188
-0.00253107
-0.0270751
0.00270854
-0.00049208
-0.00942562
-0.165534
0.0119579
-0.00791346
-0.158156
-0.00778965
-0.141808
-0.0101673
-0.115812
-0.0146362
-0.083026
-0.0199249
-0.0490042
-0.024544
-0.0185711
-0.0273599
0.000284832
-0.0279357
0.00328427
-0.000283962
0.0730315
-0.154437
-0.0841289
0.0535415
-0.138666
0.0232162
-0.111483
-0.0170191
-0.0755763
-0.0615227
-0.0385225
-0.0973381
-0.0131888
-0.114827
-0.00108234
-0.117152
0.00261048
-0.114723
0.000855077
-0.000854587
0.0136934
-0.131927
-0.0362031
-0.02378
-0.101192
-0.0675036
-0.067759
-0.108949
-0.0341313
-0.137125
-0.0103457
-0.150047
-0.000266658
-0.148715
-0.00241503
-0.141888
-0.00421648
-0.138955
-0.00207743
0.000182994
-0.058512
-0.0981765
0.0247617
-0.102358
-0.0573458
-0.138088
-0.0320294
-0.159476
-0.0127428
-0.164419
-0.00540339
-0.160279
-0.00440622
-0.157177
-0.00551696
-0.157667
-0.00372679
-0.159317
-0.000427696
0.000673936
-0.140423
-0.0657317
0.107978
-0.170463
-0.027305
-0.184623
-0.0178699
-0.188104
-0.00926136
-0.183775
-0.00973308
-0.179758
-0.00842294
-0.179609
-0.00566562
-0.182009
-0.0013269
-0.183041
0.000604048
0.0001481
-0.201342
-0.0420844
0.177695
-0.211336
-0.0173116
-0.20816
-0.021046
-0.205096
-0.0123246
-0.202685
-0.0121445
-0.205125
-0.00598305
-0.208309
-0.0024818
-0.209532
-0.000102996
-0.208575
-0.000353793
-0.000224235
-0.231964
-0.0315268
0.221407
-0.229686
-0.0195898
-0.228228
-0.0225043
-0.231058
-0.00949419
-0.23376
-0.00944293
-0.23756
-0.00218307
-0.237808
-0.00223394
-0.237108
-0.000803188
-0.236402
-0.00105994
7.37754e-05
-0.25587
-0.0258095
0.250153
-0.257419
-0.0180405
-0.264453
-0.0154703
-0.268832
-0.00511602
-0.270985
-0.00728979
-0.271767
-0.00140111
-0.270737
-0.0032636
-0.271192
-0.000348327
-0.271207
-0.00104514
0.000223671
-0.303974
-0.0184137
0.296579
-0.310634
-0.0113811
-0.316831
-0.00927319
-0.317389
-0.00455822
-0.319166
-0.00551245
-0.319569
-0.000998028
-0.320026
-0.00280625
-0.320722
0.000347401
-0.320279
-0.00148778
0.000126664
-0.374226
-0.00914824
0.364961
-0.37929
-0.00631687
-0.382875
-0.0056883
-0.385426
-0.00200701
-0.388643
-0.00229567
-0.388329
-0.0013122
-0.389796
-0.00133957
-0.389724
0.000275218
-0.389468
-0.0017437
0.000209438
-0.42871
0.419561
-0.435027
-0.440715
-0.442722
-0.445018
-0.44633
-0.447669
-0.447394
-0.449138
-0.0260877
-0.0760623
0.0180211
-0.0335137
-0.0287771
-0.0369842
0.0282321
-0.0374551
0.108449
-0.0345809
0.174821
-0.0307106
0.217537
-0.0265702
0.246012
-0.0206373
0.290646
-0.0120747
0.356398
0.407487
-0.0306558
-0.0679163
0.0225098
-0.0361863
-0.0232467
-0.0376155
0.0296614
-0.0361433
0.106976
-0.0322832
0.170961
-0.0282982
0.213552
-0.0242873
0.242001
-0.0185819
0.28494
-0.0105565
0.348373
0.39693
-0.0345237
-0.0603062
0.0269135
-0.038789
-0.0189813
-0.0390264
0.0298987
-0.0361906
0.104141
-0.0313584
0.166128
-0.0271272
0.20932
-0.023223
0.238097
-0.0177678
0.279485
-0.00990551
0.34051
0.387025
-0.0379532
-0.0531246
0.0307716
-0.0411024
-0.0158321
-0.0404008
0.0291972
-0.0363571
0.100097
-0.0305984
0.16037
-0.0259891
0.204711
-0.0220702
0.234178
-0.0168424
0.274257
-0.00923709
0.332905
0.377788
-0.040883
-0.0463958
0.0341543
-0.0431892
-0.013526
-0.0417075
0.0277155
-0.0365001
0.0948897
-0.0299393
0.153809
-0.0250039
0.199776
-0.0209944
0.230169
-0.015949
0.269212
-0.00864407
0.3256
0.369144
-0.0432961
-0.0400587
0.036959
-0.0450443
-0.0117777
-0.0429816
0.0256528
-0.0367049
0.0886129
-0.0293618
0.146466
-0.0241092
0.194523
-0.0200131
0.226073
-0.0151289
0.264328
-0.00814207
0.318613
0.361001
-0.0451448
-0.0340663
0.0391523
-0.0466171
-0.0103055
-0.0442237
0.0232594
-0.037082
0.0814712
-0.0289618
0.138345
-0.0232707
0.188832
-0.0190859
0.221888
-0.0143673
0.259609
-0.00770774
0.311954
0.353294
-0.0463793
-0.0283875
0.0407005
-0.0478263
-0.00885845
-0.0453881
0.0208212
-0.0376956
0.0737788
-0.0288484
0.129498
-0.0225352
0.182519
-0.0182019
0.217555
-0.0136472
0.255054
-0.00731776
0.305624
0.345976
-0.0469546
-0.0230244
0.0415915
-0.0485704
-0.00724268
-0.0463846
0.0186353
-0.0385524
0.0659466
-0.0290873
0.120033
-0.021971
0.175403
-0.0173922
0.212976
-0.0129768
0.250639
-0.00696595
0.299613
0.33901
-0.0468461
-0.018014
0.0418357
-0.0487416
-0.00534722
-0.047085
0.0169788
-0.0395754
0.058437
-0.0297014
0.110159
-0.0216292
0.16733
-0.016694
0.208041
-0.0123828
0.246328
-0.0066593
0.29389
0.332351
-0.0460708
-0.0134174
0.0414742
-0.0483125
-0.00310544
-0.0473546
0.0160209
-0.0406785
0.0517608
-0.0306752
0.100156
-0.0215818
0.158237
-0.0161356
0.202595
-0.0118937
0.242086
-0.00639714
0.288393
0.325954
-0.0448172
-0.00920512
0.0406049
-0.0473382
-0.000584412
-0.0471577
0.0158404
-0.0417028
0.0463059
-0.0319948
0.0904479
-0.0219792
0.148221
-0.0157805
0.196396
-0.0115165
0.237822
-0.00616887
0.283046
0.319785
-0.0431689
-0.00535589
0.0393197
-0.045819
0.00206561
-0.0463926
0.0164141
-0.0423775
0.0422907
-0.033505
0.0815754
-0.0228637
0.13758
-0.015717
0.189249
-0.0112463
0.233351
-0.00595319
0.277753
0.313832
-0.0411496
-0.00189637
0.03769
-0.0438367
0.00475275
-0.0450084
0.0175857
-0.0424737
0.0397561
-0.0349378
0.0740395
-0.0241884
0.126831
-0.0159966
0.181057
-0.0110813
0.228436
-0.00579021
0.272462
0.308041
-0.0388636
0.00118705
0.0357802
-0.0414603
0.0073495
-0.0430392
0.0191646
-0.0418548
0.0385716
-0.0360024
0.0681871
-0.0258063
0.116635
-0.0166571
0.171908
-0.0109865
0.222765
-0.00557911
0.267054
0.302462
-0.0363953
0.00392695
0.0336554
-0.0388006
0.00975486
-0.0405867
0.0209507
-0.0404958
0.0384807
-0.036446
0.0641373
-0.0274705
0.107659
-0.0177185
0.162156
-0.0110585
0.216105
-0.00542718
0.261423
0.297035
-0.0338074
0.00633509
0.0313993
-0.0359662
0.0119136
-0.0377891
0.0227737
-0.0384747
0.0391663
-0.036112
0.0617746
-0.0288585
0.100406
-0.0190667
0.152364
-0.0112379
0.208277
-0.00511913
0.255304
0.291916
-0.0311647
0.00843562
0.0290642
-0.0330543
0.0138032
-0.0347923
0.0245117
-0.0359448
0.0403188
-0.034983
0.0608128
-0.0297014
0.095124
-0.0206604
0.143323
-0.0119279
0.199544
-0.00501769
0.248394
0.286898
-0.0285263
0.0102765
0.0266854
-0.0301468
0.0154237
-0.0317237
0.0260885
-0.0330831
0.0416782
-0.0331326
0.0608624
-0.0297107
0.0917021
-0.0219545
0.135567
-0.0126273
0.190217
-0.00489743
0.240664
0.282001
-0.0257375
0.0117178
0.0242963
-0.0271233
0.0168094
-0.028539
0.0275043
-0.0300013
0.0431405
-0.0308188
0.0616799
-0.029225
0.0901083
-0.0236028
0.129945
-0.0144557
0.18107
-0.00507857
0.231287
0.276922
-0.124239
0.016394
0.119563
-0.129692
0.022262
-0.136324
0.0341365
-0.142446
0.0492626
-0.14711
0.0663436
-0.14651
0.0895082
-0.133684
0.117119
-0.103
0.150386
-0.0551569
0.183444
0.221765
-0.114893
0.0185028
0.112784
-0.11785
0.0252188
-0.120747
0.0370339
-0.122191
0.050706
-0.122217
0.0663701
-0.118616
0.085907
-0.108202
0.106705
-0.0868679
0.129052
-0.0523803
0.148956
0.169385
-0.10537
0.0187899
0.105083
-0.106274
0.0261232
-0.106415
0.0371745
-0.104812
0.0491035
-0.10136
0.0629178
-0.0944109
0.0789581
-0.0824297
0.0947237
-0.0635562
0.110179
-0.0370912
0.122491
0.132294
-0.0968366
0.0178002
0.0978263
-0.0961773
0.0254638
-0.0942485
0.0352458
-0.0905461
0.0454011
-0.0848081
0.0571797
-0.0761219
0.0702719
-0.0636499
0.0822517
-0.0469779
0.0935066
-0.0259864
0.1015
0.106307
-0.0888729
0.0170455
0.0896277
-0.087144
0.0237349
-0.083989
0.0320908
-0.0791063
0.0405184
-0.0721332
0.0502067
-0.0627352
0.0608739
-0.0506717
0.0701882
-0.0361652
0.0790001
-0.019411
0.0847453
0.0868964
-0.0815449
0.0156273
0.0829631
-0.0790912
0.0212812
-0.0751826
0.0281822
-0.0696522
0.034988
-0.0621437
0.0426982
-0.0525704
0.0513006
-0.0411851
0.0588029
-0.0281307
0.0659457
-0.0143782
0.0709928
0.0725182
-0.0756546
0.0140443
0.0772376
-0.0725515
0.0181781
-0.0680062
0.0236369
-0.0619342
0.0289159
-0.0541337
0.0348977
-0.0444496
0.0416165
-0.0336819
0.0480351
-0.0219173
0.0541811
-0.0107913
0.0598669
0.0617269
-0.0718529
0.0117065
0.0741908
-0.0679568
0.0142819
-0.0625773
0.0182573
-0.0558044
0.0221431
-0.047615
0.0267083
-0.037792
0.0317935
-0.0279386
0.0381818
-0.0167144
0.0429569
-0.00831883
0.0514713
0.0534081
-0.0863157
0.00561994
0.0924022
-0.0795681
0.00753439
-0.0707867
0.0094759
-0.0605624
0.0119187
-0.0485394
0.0146853
-0.0336928
0.0169469
-0.0184527
0.0229417
-0.00151393
0.0260181
0.0146805
0.0352769
0.0680885
-0.212886
0.218506
-0.205352
-0.195876
-0.183957
-0.169272
-0.152325
-0.129384
-0.103365
-0.0680885
-0.0177064
0.115843
0.0214262
-0.0142008
0.109279
-0.0110264
0.101908
-0.00806098
0.0948609
-0.00551385
0.0870805
-0.00341024
0.0808595
-0.00170344
0.0755308
-0.00100513
0.0734925
-0.00190017
0.0932973
0.216606
-0.0164541
0.113329
0.0189684
-0.0134001
0.106225
-0.0104573
0.0989653
-0.00765787
0.0920615
-0.00525249
0.0846751
-0.00325965
0.0788666
-0.00165868
0.0739298
-0.00101701
0.0728508
-0.00176557
0.0940458
0.214841
-0.0144445
0.111152
0.0166214
-0.0119357
0.103716
-0.00940441
0.096434
-0.00692028
0.0895774
-0.00477638
0.0825312
-0.00297442
0.0770646
-0.00153794
0.0724933
-0.00096918
0.0722821
-0.00158126
0.0946579
0.213259
-0.012591
0.1093
0.0144426
-0.0105057
0.101631
-0.00833881
0.0942671
-0.00615473
0.0873933
-0.00427037
0.0806469
-0.00265627
0.0754505
-0.0013854
0.0712225
-0.000877948
0.0717746
-0.00135637
0.0951363
0.211903
-0.011039
0.107893
0.0124465
-0.00929265
0.0998843
-0.00739308
0.0923675
-0.00544437
0.0854446
-0.00377477
0.0789773
-0.00232665
0.0740024
-0.00120778
0.0701036
-0.000742099
0.0713089
-0.00109602
0.0954903
0.210807
-0.00959978
0.106871
0.0106211
-0.0081501
0.0984346
-0.0064953
0.0907127
-0.00475672
0.083706
-0.00327802
0.0774986
-0.0019837
0.0727081
-0.00100382
0.0691237
-0.000563876
0.070869
-0.000804364
0.0957307
0.210003
-0.00823375
0.10614
0.00896481
-0.00702362
0.0972245
-0.00560737
0.0892965
-0.00407243
0.082171
-0.0027735
0.0761996
-0.00162631
0.0715609
-0.000773554
0.068271
-0.000348242
0.0704437
-0.00048753
0.09587
0.209515
-0.00696053
0.105626
0.00747443
-0.00592871
0.0961927
-0.00473555
0.0881033
-0.00339759
0.0808331
-0.00226683
0.0750689
-0.0012589
0.070553
-0.00052065
0.0675327
-0.000100821
0.0700239
-0.000155818
0.095925
0.209359
-0.00579583
0.10528
0.00614233
-0.00489013
0.095287
-0.00389498
0.0871082
-0.00274479
0.0796829
-0.00176741
0.0740915
-0.000888169
0.0696738
-0.000251209
0.0668958
0.000175539
0.0695971
0.000214633
0.0958859
0.209574
-0.00474056
0.105071
0.00494991
-0.00392782
0.0944742
-0.00309742
0.0862778
-0.0021251
0.0787106
-0.00128352
0.0732499
-0.000522312
0.0689126
2.85374e-05
0.0663449
0.000467536
0.0691581
0.000605581
0.0957479
0.210179
-0.00377887
0.104978
0.00387107
-0.00306031
0.0937557
-0.002355
0.0855725
-0.00154979
0.0779054
-0.000824345
0.0725245
-0.000158958
0.0682472
0.000344922
0.065841
0.000770858
0.0687322
0.000995606
0.0955231
0.211175
-0.00285631
0.104996
0.00283833
-0.00225875
0.0931581
-0.00165504
0.0849688
-0.000996671
0.077247
-0.000388366
0.0719162
0.000195384
0.0676634
0.000647527
0.0653889
0.00108107
0.0682986
0.00138764
0.0952166
0.212563
-0.00193348
0.105123
0.00180696
-0.00148081
0.0927054
-0.000988662
0.0844766
-0.000466892
0.0767252
4.02192e-05
0.0714091
0.000526608
0.067177
0.000940409
0.0649751
0.0013919
0.0678471
0.00177582
0.0948327
0.214339
-0.000985989
0.105386
0.000722557
-0.000702386
0.0924218
-0.000349785
0.084124
4.41752e-05
0.0763313
0.000412289
0.071041
0.000837063
0.0667523
0.00122024
0.0645919
0.00169843
0.067369
0.00215452
0.0943766
0.216493
-4.16259e-05
0.105808
-0.000380187
9.02581e-05
0.0922899
0.000239544
0.0839747
0.000467174
0.0761036
0.000755984
0.0707521
0.00112053
0.0663877
0.00148616
0.0642263
0.00199528
0.0668598
0.00251574
0.0938561
0.219009
0.000978789
0.10627
-0.00144071
0.000790837
0.0924779
0.000776092
0.0839895
0.000867869
0.0760119
0.00106321
0.0705568
0.00137085
0.0660801
0.00173014
0.063867
0.00227687
0.0663131
0.00285242
0.0932806
0.221861
0.00193419
0.106778
-0.00244238
0.00150844
0.0929036
0.00128954
0.0842084
0.00123366
0.0760677
0.00133064
0.0704598
0.00158212
0.0658286
0.00194493
0.0635042
0.00253753
0.0657205
0.00315124
0.0926669
0.225012
0.00274936
0.107328
-0.00329867
0.00218467
0.0934683
0.00176718
0.0846259
0.00156148
0.0762734
0.00155579
0.0704655
0.00174912
0.0656353
0.002124
0.0631293
0.0027727
0.0650718
0.00341088
0.0920287
0.228423
0.00362245
0.107873
-0.0041683
0.00290465
0.0941861
0.00224411
0.0852864
0.00186231
0.0766552
0.00174027
0.0705876
0.00186816
0.0655074
0.00226143
0.062736
0.00297831
0.0643549
0.00361726
0.0913897
0.232041
0.00389716
0.108534
-0.00455735
0.00334971
0.0947336
0.00257871
0.0860574
0.00207052
0.0771634
0.00185648
0.0708016
0.00192713
0.0654367
0.0023477
0.0623155
0.00313561
0.063567
0.00379019
0.0907351
0.235831
-0.0700972
0.0895809
0.08905
-0.0539369
0.0785734
-0.0429727
0.0750931
-0.0325374
0.0667281
-0.0237372
0.0620014
-0.0152703
0.0569698
-0.00717228
0.0542175
-0.000952956
0.0573477
0.000804032
0.0889782
0.236635
-0.0755342
0.0732768
0.0918383
-0.0615682
0.0646073
-0.050427
0.0639519
-0.0389227
0.0552239
-0.0291312
0.0522099
-0.0195259
0.0473645
-0.0106326
0.0453241
-0.00354748
0.0502626
-0.000325489
0.0857562
0.236309
-0.0790608
0.0572982
0.0950394
-0.066418
0.0519646
-0.0546973
0.0522312
-0.043916
0.0444425
-0.0334662
0.0417602
-0.0234375
0.0373358
-0.0140857
0.0359723
-0.00645911
0.042636
-0.0025051
0.0818022
0.233804
-0.0812996
0.0471012
0.0914966
-0.0702632
0.0409281
-0.0583427
0.0403107
-0.0483804
0.0344802
-0.0373486
0.0307284
-0.0267133
0.0267004
-0.0163716
0.0256306
-0.0076134
0.0338778
-0.00223931
0.0764281
0.231565
-0.0833352
0.036934
0.0935024
-0.0731976
0.0307905
-0.0619467
0.0290598
-0.0525668
0.0251003
-0.0414947
0.0196564
-0.0306156
0.0158213
-0.0197202
0.0147353
-0.0103945
0.0245521
-0.00437108
0.0704046
0.227194
-0.0857627
0.0296574
0.0930392
-0.0768771
0.0219049
-0.0668072
0.0189899
-0.0574604
0.0157535
-0.046102
0.00829804
-0.033977
0.0036962
-0.0210664
0.00182478
-0.0100999
0.0135855
-0.00438185
0.0646866
0.222812
-0.0879638
0.0205955
0.0970258
-0.0798071
0.0137482
-0.0712604
0.0104432
-0.0623305
0.00682364
-0.0520596
-0.00197287
-0.0399997
-0.00836371
-0.0270057
-0.0111693
-0.0167558
0.00333568
-0.0106509
0.0585816
0.212161
-0.0915887
0.0138191
0.0983651
-0.0850718
0.00723121
-0.0784144
0.00378585
-0.070767
-0.000823798
-0.0618809
-0.0108589
-0.0514065
-0.0188381
-0.0408441
-0.0217317
-0.031351
-0.0061574
-0.0243158
0.0515464
0.187845
-0.0934193
0.00605582
0.101182
-0.0884781
0.0022901
-0.0843808
-0.000311501
-0.0805064
-0.00469819
-0.078075
-0.0132903
-0.0765507
-0.0203624
-0.0774808
-0.0208016
-0.0806227
-0.00301548
-0.0642654
0.0351891
0.12358
-0.0985797
0.104635
-0.0962896
-0.0966011
-0.101299
-0.11459
-0.134952
-0.155754
-0.158769
-0.12358
0.00170966
0.0928402
-0.00549991
-0.000695885
0.0942438
-0.000928267
0.0952718
-0.000892514
0.0914609
-0.000558648
0.0931686
-0.000577013
0.0930576
-0.00038725
0.096836
-0.000320494
0.0982984
-0.00019931
0.101061
0.104436
0.00251236
0.0970511
-0.00672324
1.78166e-05
0.0967383
-0.000144028
0.0954337
-0.000188503
0.0915054
0.000136156
0.0928439
-6.65499e-05
0.0932603
0.000110651
0.0966588
6.06309e-06
0.098403
7.85304e-07
0.101067
0.104437
0.00370861
0.101198
-0.00785537
0.00152297
0.098924
0.00121992
0.0957367
0.00098662
0.0917387
0.00105916
0.0927714
0.000741012
0.0935784
0.000688121
0.0967117
0.000461195
0.0986299
0.000227366
0.1013
0.104664
0.00503925
0.105134
-0.00897585
0.00302983
0.100933
0.00259876
0.0961678
0.0021564
0.092181
0.00198285
0.0929449
0.00148786
0.0940734
0.00125386
0.0969457
0.00085616
0.0990276
0.000438764
0.101718
0.105103
0.00651628
0.108773
-0.0101548
0.00464192
0.102808
0.00402031
0.0967894
0.00333548
0.0928658
0.00291026
0.0933701
0.0022208
0.0947629
0.00180468
0.0973618
0.00122623
0.099606
0.000639112
0.102305
0.105742
0.00818558
0.111998
-0.0114104
0.0064045
0.104589
0.00552245
0.0976714
0.00455649
0.0938318
0.00385071
0.0940759
0.00295269
0.0956609
0.002339
0.0979755
0.00157597
0.100369
0.000827829
0.103053
0.10657
0.0100183
0.114696
-0.012717
0.00831387
0.106293
0.00712913
0.0988562
0.00584437
0.0951166
0.00482553
0.0950948
0.00370009
0.0967863
0.00286644
0.0988092
0.00191289
0.101323
0.00100731
0.103959
0.107577
0.0119301
0.116777
-0.0140106
0.0103196
0.107904
0.00883215
0.100344
0.00721308
0.0967356
0.00585516
0.0964527
0.00448489
0.0981566
0.00340608
0.099888
0.00225016
0.102479
0.00118321
0.105026
0.108761
0.0138047
0.118166
-0.0151936
0.0123394
0.109369
0.0105955
0.102088
0.00866573
0.0986654
0.0069602
0.0981582
0.00533249
0.0997843
0.00398594
0.101235
0.00260637
0.103858
0.00136614
0.106266
0.110127
0.0155108
-0.0161482
0.014274
0.0123653
0.010194
0.00816706
0.00626726
0.00463167
0.00300299
0.00156722
-0.000286413
0.00266917
-0.000173992
0.00529911
0.000561522
0.00680765
0.00200198
0.00765596
0.00415922
0.00807608
0.00701804
0.00817032
0.0105561
0.00798981
0.0147615
0.00760055
0.0198518
0.00687142
0.00706549
-0.000221591
0.00289076
0.000115048
0.00496247
0.00124442
0.00567828
0.00325001
0.00565037
0.0061431
0.00518299
0.00990113
0.0044123
0.0144907
0.00340022
0.0198914
0.0021999
0.026063
0.000699836
-7.75416e-05
-0.000109594
0.00300035
0.000546449
0.00430643
0.00220896
0.00401576
0.00493969
0.00291964
0.00871144
0.00141124
0.0134429
-0.000319155
0.0190206
-0.00217751
0.0253172
-0.00409668
0.0321415
-0.00612449
-0.00765772
5.15064e-05
0.00294885
0.00112263
0.00323531
0.00344496
0.00169343
0.00701447
-0.000649875
0.0117101
-0.0032844
0.0173397
-0.00594876
0.0236819
-0.00851969
0.0305017
-0.0109165
0.0375362
-0.013159
-0.0149844
0.000249531
0.00269932
0.00183836
0.00164649
0.00491659
-0.0013848
0.00935412
-0.0050874
0.0148744
-0.00880471
0.0211441
-0.0122185
0.0278392
-0.0152147
0.0346676
-0.0177449
0.0413805
-0.0198719
-0.0215343
0.000498977
0.00220034
0.00267922
-0.000533753
0.00654589
-0.00525148
0.011755
-0.0102965
0.0178341
-0.0148838
0.0243289
-0.0187133
0.0308731
-0.0217589
0.0372098
-0.0240817
0.0431791
-0.0258411
-0.0270883
0.000794622
0.00140572
0.00361023
-0.00334936
0.00820363
-0.00984488
0.0139475
-0.0160404
0.0201946
-0.0211308
0.0264527
-0.0249713
0.0324148
-0.027721
0.0379422
-0.0296091
0.0430008
-0.0308997
-0.0317188
0.00112928
0.000276433
0.00457208
-0.00679215
0.00972045
-0.0149932
0.0156577
-0.0219777
0.0216591
-0.0271322
0.0273109
-0.0306231
0.0324515
-0.0328616
0.0370884
-0.0342461
0.0412987
-0.0351099
-0.0356177
0.00148902
-0.00121258
0.0054826
-0.0107857
0.0109211
-0.0204318
0.0166856
-0.0277422
0.0221133
-0.0325599
0.026961
-0.0354708
0.031237
-0.0371376
0.0350644
-0.0380735
0.0385787
-0.0386243
-0.0389535
0.00185155
-0.00306414
0.00624713
-0.0151813
0.0116683
-0.025853
0.0169533
-0.0330271
0.0216193
-0.037226
0.0256233
-0.0394747
0.0291092
-0.0406235
0.0322577
-0.041222
0.0352116
-0.0415782
-0.0418246
0.00222029
-0.00528442
0.00684273
-0.0198038
0.0119737
-0.0309839
0.0165788
-0.0376323
0.0204169
-0.041064
0.0236197
-0.0426775
0.0264108
-0.0434146
0.0289789
-0.0437901
0.0314436
-0.044043
-0.0442602
0.00251737
-0.00780179
0.00712283
-0.0244092
0.0117297
-0.0355908
0.0155516
-0.0414542
0.0185819
-0.0440944
0.0210709
-0.0451665
0.023266
-0.0456096
0.0253318
-0.0458559
0.0273528
-0.0460639
-0.0462735
0.00272634
-0.0105281
0.00709362
-0.0287765
0.0110284
-0.0395256
0.0140427
-0.0444685
0.016322
-0.0463737
0.0181772
-0.0470218
0.0198414
-0.0472737
0.0214414
-0.047456
0.0230262
-0.0476486
-0.0478489
0.00282131
-0.0133494
0.00676299
-0.0327182
0.00994816
-0.0427108
0.0121779
-0.0466982
0.0137721
-0.0479679
0.0150557
-0.0483053
0.0162267
-0.0484447
0.0173734
-0.0486028
0.018515
-0.0487902
-0.048967
0.00278857
-0.016138
0.0061652
-0.0360948
0.00857455
-0.0451201
0.0100641
-0.0481878
0.0110324
-0.0489362
0.0117859