# Probe 0 (1 0 0.5)
# Probe 1 (2 0 0.5)
# Probe 2 (3 0 0.5)
# Probe 3 (1 0.5 0.5)
# Probe 4 (2 0.5 0.5)
# Probe 5 (3 0.5 0.5)
# Probe 6 (1 -0.5 0.5)
# Probe 7 (2 -0.5 0.5)
# Probe 8 (3 -0.5 0.5)
# Probe 9 (1 -1.5 0.5)
# Probe 10 (2 -1.5 0.5)
# Probe 11 (3 -1.5 0.5)
# Probe 12 (1 1.5 0.5)
# Probe 13 (2 1.5 0.5)
# Probe 14 (3 1.5 0.5)
#       Probe             0             1             2             3             4             5             6             7             8             9            10            11            12            13            14
#        Time
         0.05       -64.984      -57.9918      -53.4404      -58.9683      -53.8541      -50.3198      -69.7703      -61.5006      -55.7436      -75.1813      -66.1833       -59.554      -49.4591      -47.0843      -43.5178
          0.1       2.01413       2.50624       1.99137       1.73798       3.12461       2.93977       2.67469       2.08083      0.678318       2.89349      0.121795      -2.01032       4.24009       5.20921        4.5029
         0.15      -4.79941      -5.05317      -4.62587      -4.76477      -4.74657      -4.25119      -5.02349      -5.09121      -4.87906      -5.97156      -5.89458      -5.64054      -3.57824      -3.77166      -3.44635
          0.2       3.82806       4.08487       4.42871       3.31732       3.83588        4.4018        4.2692       4.41554       4.52589       4.43935       4.49794       4.84484        3.1699       3.80858       4.17227
         0.25       1.41255       1.61853       2.28405       1.14482        1.4514       2.22878       1.54846       1.79868        2.4659       1.29105       1.62922       2.68937      0.912639       1.25643        1.8556
          0.3        2.7058       3.09261       3.72413        2.4041       2.89613       3.61035       2.98239       3.32085       3.92305       3.12592       3.32986       4.06984       2.09614       2.49617       3.02451
         0.35       4.12175        4.6035       5.40366       3.70209        4.3182       5.16962       4.44044       4.94739       5.75624       4.72565       5.18724       6.17333       3.11777       3.62302       4.34837
          0.4       4.74705        5.2584       6.10173       4.28448       4.93075       5.81733       5.09953       5.63632       6.53016       5.40501       6.00778        7.1658       3.53103       4.06828       4.95311
         0.45       4.74382       5.24917       6.01487       4.31055       4.92565       5.72836       5.08244       5.62026       6.43476       5.42316       6.07523       7.12332        3.5201       4.05334       4.93669
          0.5       4.49692       4.96122       5.59576       4.11059       4.67066       5.33508       4.81147       5.29682       5.95964       5.16669       5.77512        6.5673       3.37137       3.88263       4.65327
         0.55       4.23347       4.63929       5.15193       3.88026       4.37837       4.91524       4.52498       4.94079       5.46805       4.86981       5.40922       5.98567       3.19986       3.68217        4.3144
          0.6       3.96001       4.31651       4.74236       3.64072        4.0847       4.52915       4.22451       4.58361       5.01752       4.54623       5.01463       5.46348       3.02563       3.47492       3.99005
         0.65       3.64433       3.95495       4.31324       3.35297       3.74602       4.11838       3.88955       4.19562       4.56014       4.18788       4.58905       4.95739       2.80253       3.20707       3.62706
          0.7       3.44568       3.72569        4.0403       3.17692       3.53329       3.85905       3.67164       3.94507       4.26606       3.95165       4.30093       4.62635       2.67056       3.04406        3.3991
         0.75       3.11788       3.36396       3.63849       2.87699       3.19106       3.47409       3.32448       3.55967       3.84157       3.57804       3.87904       4.16525       2.42561       2.75424       3.05666
          0.8       3.03123       3.25554       3.50543       2.79802       3.08916       3.34847       3.22689       3.44059       3.69621       3.46432       3.73436       4.00161       2.36559       2.67661       2.94596
         0.85        2.6726       2.87232       3.09315       2.47152       2.72676       2.95428       2.84543       3.03295       3.26187       3.05643       3.29227        3.5297       2.09419       2.36043       2.59897
          0.9       2.69784       2.88995       3.10047        2.4895       2.74184        2.9604       2.88012       3.05569       3.26969       3.09587       3.31345       3.54048       2.11785       2.38193       2.60325
         0.95       2.27737       2.44334       2.62635       2.11523       2.32351        2.5111       2.42072       2.57468       2.76575       2.59622       2.78672       2.98696       1.80179       2.01657       2.21339
            1       2.43521       2.61336       2.79356       2.25414       2.48093        2.6693        2.6042       2.76153       2.94498       2.80708       2.98903       3.18354       1.93385        2.1644       2.35295
         1.05       1.91285       2.05285       2.20423        1.7835       1.95667       2.11274       2.03037       2.15806       2.31739       2.17266       2.32758       2.49471       1.52995       1.70286       1.86892
          1.1       2.25296       2.42126       2.57772        2.0929       2.29992       2.46504       2.41273       2.55788       2.71398       2.60984       2.76741        2.9345       1.80488       2.01354       2.17621
         1.15       1.56078       1.67915       1.80575       1.46295       1.60623       1.73596       1.65116       1.75895       1.89401        1.7617       1.88912       2.02793       1.26721       1.40217       1.54352
          1.2       2.16298       2.30464       2.43613       2.00498       2.18697       2.32956       2.31357       2.43297       2.56214       2.49498       2.62834       2.76786        1.7221       1.91809       2.06005
         1.25       1.22484       1.32473       1.43089         1.161       1.27492       1.38176       1.28857       1.37786       1.49419       1.37081       1.47329       1.58871        1.0161       1.11671       1.23747
          1.3       2.09908        2.2284        2.3401       1.94256       2.11276       2.23689       2.25003       2.35316        2.4597       2.42419       2.53881       2.65512       1.67031       1.85736       1.98098
         1.35       0.93044       1.01765       1.10761      0.898571      0.988015       1.07637      0.967641       1.04839       1.15095       1.02611       1.11057        1.2108      0.796583      0.868751      0.973252
          1.4       2.04185       2.16089       2.25533       1.88561       2.04682         2.155       2.19479       2.28326       2.36872       2.36331       2.46123       2.55554       1.62397       1.80328        1.9108
         1.45      0.702227      0.777934      0.855404      0.692205      0.763172      0.837728       0.71942      0.791602      0.883258      0.756565       0.82726      0.917232       0.62394       0.67429      0.766194
          1.5       1.97214       2.08287       2.16235       1.81919       1.97177       2.06589       2.12416       2.20127         2.269       2.28744        2.3716       2.44705       1.56948        1.7403       1.83398
         1.55      0.537959      0.606012      0.674123      0.543255      0.601705      0.665904      0.541649      0.607824      0.691279      0.564637      0.624896      0.707339      0.499279      0.534633      0.616757
          1.6       1.88936        1.9928       2.06018        1.7416       1.88579       1.96826       2.03787       2.10617       2.16032       2.19597       2.26866       2.32906       1.50531         1.667       1.74935
         1.65      0.426361      0.488539      0.549158      0.440827      0.490984      0.547175      0.421586      0.482708      0.559009      0.434887      0.487083      0.563301      0.413618      0.438953      0.513122
          1.7        1.8013       1.89801       1.95548       1.65966       1.79573       1.86819        1.9438       2.00543       2.04938       2.09615       2.15981       2.20879       1.43662       1.58895       1.66206
         1.75      0.346424      0.405747      0.460409      0.367749      0.412907      0.462842      0.337517      0.395226       0.46497      0.345933      0.391051      0.461374      0.353299      0.372089      0.439571
          1.8       1.71253       1.80328       1.85263       1.57704       1.70603       1.77002       1.84806       1.90474       1.94088       1.99507       2.05134       2.09119        1.3674       1.51088        1.5763
         1.85      0.293896      0.350171       0.39948      0.318318      0.360045      0.404614      0.281903      0.336405      0.400558      0.287046      0.326595       0.39157      0.312067      0.326694      0.388546
          1.9       1.62547       1.71186        1.7547       1.49667       1.61965       1.67666       1.75451       1.80765       1.83755        1.8967       1.94664       1.97945       1.30017       1.43537       1.49449
         1.95      0.254665      0.308376       0.35288      0.280615      0.320146      0.359934      0.240423      0.292368      0.351291      0.243991      0.278661       0.33826       0.28109        0.2925      0.349286
            2       1.54311       1.62564       1.66287       1.42066       1.53829       1.58915       1.66567         1.716       1.74065       1.80341       1.84784       1.87455       1.23649       1.36415       1.41774
         2.05      0.231136       0.28282      0.323383      0.256981      0.295429      0.331418      0.215656      0.265734      0.320227      0.218952      0.249798      0.305113      0.261467      0.271376      0.324069
          2.1        1.4654       1.54484       1.57772       1.34888       1.46209       1.50801       1.58168       1.63015       1.65091       1.71528       1.75518       1.77749       1.17643       1.29717       1.34635
         2.15      0.208506      0.258344      0.294984      0.234231      0.271806      0.303962      0.191813      0.240237      0.290243      0.195583      0.222574      0.272917      0.242802      0.251082       0.29972
          2.2       1.39412       1.47051       1.49918       1.28287       1.39206       1.43319       1.50427       1.55108       1.56808       1.63432          1.67       1.68774       1.12117       1.23566        1.2806
         2.25      0.203166       0.25108      0.284816      0.226679      0.264158       0.29371      0.185616      0.232962      0.279798      0.190338      0.214944      0.262338      0.236111      0.244564      0.290356
          2.3       1.32655       1.40067       1.42656       1.22037       1.32622         1.364       1.43076       1.47679        1.4917       1.55729       1.58973       1.60507       1.06859       1.17739       1.21945
         2.35      0.185841      0.232782      0.263197      0.209238      0.246463      0.272702      0.167862      0.214264      0.256954       0.17447      0.195596      0.238057      0.221814      0.229169      0.271464
          2.4       1.26682       1.33844       1.36103       1.16487       1.26766       1.30157       1.36555       1.41069       1.42257       1.48965       1.51873       1.53027       1.02212       1.12597       1.16454
         2.45      0.194549       0.23975      0.268491        0.2138       0.25185       0.27694      0.176251      0.222269      0.263009      0.184712      0.204742      0.246069      0.224587      0.233638      0.274541
          2.5        1.2077        1.2778       1.29899       1.11047       1.21058        1.2425       1.30077       1.34608       1.35739       1.42166       1.44864       1.45965      0.975998       1.07505       1.11207
         2.55      0.179612      0.224799      0.250708      0.199204      0.237482      0.259622      0.161602      0.207353      0.244326      0.173253      0.190008      0.226284      0.212739      0.220938      0.258714
          2.6       1.16054       1.22852       1.24716       1.06645       1.16416       1.19298        1.2489       1.29393       1.30288       1.36857       1.39305       1.40106      0.938827       1.03414       1.06829
         2.65      0.187436      0.231208      0.256091       0.20382      0.242628      0.264146      0.168575      0.214518       0.25037      0.181707      0.198039      0.234014      0.215565      0.225386      0.262292
          2.7        1.1095       1.17627       1.19389       1.01985        1.1151       1.14241        1.1925       1.23813       1.24675       1.30946       1.33228       1.33985      0.899187      0.990533       1.02352
         2.75       0.17711      0.220777      0.243256      0.193313      0.232324      0.251418      0.158417      0.204411      0.237092      0.175113      0.188735      0.220191      0.206624      0.215992      0.250336
          2.8       1.06995       1.13503       1.15078      0.983159       1.07623       1.10116       1.14887       1.19457       1.20151       1.26514       1.28604       1.29146      0.867803      0.956151      0.986905
         2.85      0.183619      0.226488      0.248442      0.197569      0.237025       0.25589      0.164452      0.210926      0.242834      0.182719      0.196066      0.227531      0.209011      0.220055      0.253908
          2.9       1.02407       1.08826       1.10333      0.941399       1.03232       1.05618       1.09833       1.14475       1.15143       1.21261       1.23183       1.23664         0.832      0.917171      0.947164
         2.95      0.179083      0.221632      0.241639      0.192289      0.231794      0.248783      0.159902      0.206722      0.235969      0.181916      0.193254      0.220927      0.203962      0.214985       0.24676
            3      0.990483       1.05338       1.06722      0.910571      0.999378       1.02157       1.06115       1.10798       1.11371       1.17507       1.19299       1.19661      0.805054      0.887787      0.916222
         3.05      0.182963      0.225382      0.245191      0.195136      0.234872      0.251842      0.163665      0.211242      0.239994      0.187487      0.198517      0.226223      0.205067      0.217618      0.249116
          3.1      0.949667       1.01188       1.02527      0.873831       0.96046      0.981853       1.01608       1.06385       1.06938       1.12857       1.14502       1.14797       0.77323      0.853345      0.881175
         3.15      0.182006      0.224334      0.242691      0.193482      0.233183       0.24884       0.16299      0.211162      0.237754      0.190669      0.200179      0.224824      0.202695      0.215666      0.245576
          3.2      0.921832       0.98311      0.995886      0.848607      0.933194      0.953606      0.985203       1.03369       1.03888       1.09768       1.11334       1.11598      0.750561       0.82882       0.85569
         3.25      0.182352      0.224767      0.243068      0.193748      0.233237      0.248958       0.16305      0.212134      0.238374      0.192504      0.201663      0.226207       0.20146      0.215613      0.245353
          3.3      0.886071      0.946884      0.959246      0.816805       0.89921      0.918933      0.945843      0.995263        1.0001        1.0575       1.07175       1.07332      0.722766      0.798872      0.825147
         3.35      0.183909      0.226358      0.243668      0.194776      0.234006      0.248919      0.165045      0.214892      0.239489      0.198251      0.206384      0.228644      0.200967      0.215843      0.244444
          3.4      0.863205      0.923443      0.935692       0.79645      0.876884      0.896212      0.920492      0.970851      0.975845       1.03241       1.04628       1.04826      0.703835      0.778585      0.804424
         3.45      0.180412       0.22314      0.240504       0.19215      0.230703      0.245758      0.161106      0.211977      0.236322      0.196033      0.203731       0.22569       0.19721      0.212886      0.241365
          3.5      0.831909      0.892145      0.904086      0.769178      0.847565      0.866333      0.886526      0.937877      0.942326      0.998355       1.01083       1.01145      0.679819      0.752848      0.778075
         3.55       0.18337      0.226218      0.242994       0.19478      0.232848      0.247541      0.164577       0.21633      0.239487      0.202984      0.210079      0.230503      0.197776      0.214384      0.242106
          3.6      0.813533      0.873248      0.885371      0.753043      0.829366      0.848175       0.86589      0.918264      0.923275      0.978058      0.990516      0.992033      0.664081       0.73614      0.761361
         3.65      0.176527      0.219844      0.236722       0.18962      0.226603       0.24148      0.157231      0.210052      0.233004      0.197299      0.203864      0.223753      0.191821      0.208841      0.236487
          3.7      0.786498      0.846369      0.858155      0.729903      0.804109       0.82243      0.836771        0.8901       0.89442      0.949377      0.960522      0.960426      0.643416      0.714058      0.738635
         3.75      0.181204       0.22435      0.240826       0.19404      0.230053      0.244855      0.162039      0.215734       0.23781      0.205056      0.211462      0.230485      0.193389      0.211488      0.238668
          3.8      0.771205      0.830855      0.843157      0.716868      0.789014      0.807812      0.819685      0.874109      0.879293      0.932682      0.944058      0.945285      0.630092      0.700061      0.725028
         3.85      0.170831      0.214977      0.231633      0.186037      0.220966      0.236001      0.151686      0.206514      0.228347      0.196861      0.202358      0.220348      0.184918      0.203298      0.230532
          3.9      0.745935      0.806128      0.818051      0.695755      0.765855      0.784144      0.792981      0.848392      0.852728       0.90692      0.916934      0.916185      0.611354      0.680029      0.704199
         3.95      0.178622      0.222835      0.239547       0.19335      0.227472      0.242986      0.160049      0.215825      0.237291      0.208058      0.213836      0.231802      0.188917      0.208716      0.235917
            4      0.732394      0.792356      0.805126      0.684373      0.752261      0.771487      0.777543      0.834127      0.839749      0.891605      0.902151      0.903283      0.599212      0.667364      0.692344
         4.05      0.165716      0.211072      0.227835      0.183491      0.216141      0.231759      0.147087      0.203998      0.225116      0.197163      0.202001      0.218586      0.179161      0.198664      0.225698
          4.1       0.70973      0.770349      0.782643      0.665731      0.731557      0.750272      0.753917      0.811391      0.815964      0.869249      0.878458      0.877363      0.582531      0.649578      0.673681
         4.15      0.175599      0.221171      0.238303      0.192903       0.22469      0.241186      0.157751      0.215672       0.23683       0.21043      0.215919      0.233161      0.184779      0.205932      0.233283
          4.2       0.69586      0.756687      0.770126        0.6544      0.718101      0.738118      0.738559      0.797313      0.803338      0.853977      0.863736      0.864757      0.570527      0.637108      0.662306
         4.25      0.162626      0.209446      0.226554      0.182992       0.21329      0.229895       0.14499      0.203984      0.224622      0.199951      0.204403       0.21995      0.175093      0.195846      0.222971
          4.3       0.67626      0.737665      0.750619      0.638412      0.699995      0.719616      0.718165      0.777728      0.782852      0.834931      0.843618      0.842602       0.55597      0.621579      0.645988
         4.35      0.171374      0.218572      0.236168       0.19162       0.22092      0.238579      0.154546      0.214531      0.235419      0.211825      0.217008      0.233421      0.180111      0.202395      0.230022
          4.4      0.663411       0.72519      0.739269      0.628073      0.687579      0.708585      0.704132      0.764917      0.771432      0.821094      0.830303      0.831222       0.54491      0.610105      0.635674
         4.45      0.158233      0.206727      0.224288       0.18158       0.20933       0.22716      0.141726      0.202707      0.223091      0.201197      0.205396      0.220116      0.170395      0.192182      0.219626
          4.5      0.646294       0.70879      0.722461      0.614329      0.671825      0.692614        0.6866      0.748158      0.753871      0.805021      0.813319      0.812395      0.532263      0.596635      0.621554
         4.55      0.164841      0.213817      0.231905      0.188394      0.215049      0.234002      0.149095      0.211036      0.231754      0.210622      0.215529      0.231131      0.174029       0.19711      0.225149
          4.6      0.633971      0.696962      0.711638       0.60448      0.659973      0.682108      0.673338      0.736026      0.742953      0.792047      0.800769      0.801447      0.521835      0.585779      0.611813
         4.65      0.152655      0.202961      0.221041       0.17914      0.204298       0.22353      0.137401      0.200262      0.220546      0.201033       0.20508      0.219139      0.165048      0.187645      0.215601
          4.7      0.618216      0.682039      0.696416      0.591921      0.645525      0.667621      0.657406       0.72084      0.727124      0.777535      0.785487      0.784587      0.510249      0.573417      0.598986
         4.75      0.158003      0.208911      0.227527      0.184847      0.208938      0.229322      0.143551      0.207339      0.227994      0.209094      0.213814      0.228719      0.167934      0.191635      0.220255
          4.8      0.606237      0.670909      0.686296       0.58252      0.634365      0.657846      0.644998      0.709552      0.716981      0.765603      0.773884      0.774433      0.500493      0.563236       0.58992
         4.85      0.146697      0.198974      0.217655      0.176228      0.198996      0.219774      0.132877      0.197569       0.21787      0.200466      0.204433      0.217985      0.159644      0.182877      0.211535
          4.9      0.592263       0.65765      0.672782       0.57127      0.621342      0.644889      0.630793      0.696046      0.702963      0.752685      0.760405      0.759628      0.490047       0.55203      0.578438
         4.95      0.150574      0.203574      0.222748       0.18062      0.202369      0.224252      0.137573       0.20314       0.22384      0.206911      0.211529      0.225863      0.161615      0.185697      0.215074
            5      0.580825      0.647139      0.663167      0.562263       0.61076      0.635585      0.619099      0.685389       0.69333      0.741508      0.749521      0.749966      0.480869      0.542355      0.569854
         5.05      0.140526      0.194937      0.214212      0.172978      0.193614      0.215939      0.128305      0.194736      0.215172      0.199643      0.203645      0.216814      0.154288      0.177897      0.207443
          5.1      0.567555      0.634682      0.650547      0.551526      0.598484      0.623453      0.605729      0.672722      0.680297      0.729354      0.736923      0.736274      0.471015      0.531688      0.559091
         5.15      0.143423      0.198653      0.218382      0.176403      0.196203      0.219547      0.132064      0.199342      0.220152      0.205078       0.20968      0.223525      0.155713      0.179959      0.210263
          5.2      0.556946      0.625062      0.641748      0.543103      0.588747      0.614893      0.595037      0.663013      0.671536       0.71925      0.727116      0.727568      0.462575      0.522681      0.551181
         5.25      0.134026      0.190695      0.210557      0.169178      0.188111      0.211896      0.123503      0.191618      0.212255      0.198406        0.2025      0.215359       0.14894      0.172642      0.203243
          5.3      0.545202      0.614234      0.630837      0.533555      0.578001      0.604337      0.583401      0.652086      0.660363       0.70886      0.716409      0.715987      0.453893      0.513182      0.541766
         5.35      0.135156      0.192716      0.213013      0.170903      0.189195      0.213877      0.125427      0.194378      0.215397      0.201845      0.206497      0.219968      0.149237      0.173275      0.204677
          5.4       0.53537      0.605412      0.622732      0.525956      0.569165      0.596442      0.573355      0.643119       0.65227      0.699389      0.707347      0.707932      0.446527      0.504994      0.534527
         5.45      0.126377      0.185364      0.205811      0.163926       0.18169      0.206784        0.1176      0.187305      0.208193      0.195813      0.200009      0.212614      0.142861      0.166311      0.198155
          5.5      0.524089      0.595076      0.612335      0.516639      0.558946      0.586359       0.56224      0.632679      0.641647      0.689414      0.697103      0.696932      0.438282      0.495818      0.525557
         5.55      0.126975      0.186872      0.207711      0.164951      0.182377       0.20822      0.119033      0.189514      0.210743      0.198697      0.203402      0.216533      0.142859      0.166435      0.199126
          5.6      0.514348      0.586362      0.604266      0.508578      0.550218      0.578453      0.552621      0.623917       0.63362      0.680462      0.688373      0.688951      0.430784        0.4875      0.518318
         5.65      0.119221      0.180538      0.201555      0.158753      0.175941      0.202082       0.11224      0.183497      0.204673       0.19368      0.198057      0.210466      0.137391      0.160236      0.193443
          5.7      0.503384      0.576376      0.594293      0.499333       0.54043      0.568744      0.541869      0.613841      0.623466      0.670794      0.678509      0.678483      0.422853      0.478488      0.509663
         5.75      0.119404      0.181684      0.203074      0.159229      0.176406      0.203141      0.113273      0.185291      0.206797      0.196134      0.200999      0.213868      0.137255      0.159999      0.194098
          5.8      0.493998      0.568056      0.586594      0.491395      0.532185      0.561156      0.532692      0.605498      0.615832      0.662318      0.670263      0.670926      0.415765      0.470424      0.502707
         5.85       0.11193      0.175637      0.197237      0.153081      0.170361      0.197278      0.106774       0.17957      0.201075      0.191353      0.195948      0.208185      0.132106      0.153963      0.188668
          5.9      0.483544      0.558602      0.577192      0.482399      0.523012      0.551964      0.522507      0.595983      0.606285      0.653198      0.660985      0.661114       0.40832      0.461762      0.494508
         5.95      0.111866       0.17655      0.198516      0.153129       0.17073      0.198088      0.107588       0.18112      0.202954      0.193582       0.19865      0.211313      0.131908      0.153436      0.189084
            6      0.474014      0.550128      0.569302      0.474139      0.514767       0.54419      0.513177       0.58746      0.598431       0.64453      0.652527       0.65327      0.401293      0.453546       0.48742
         6.05      0.105978      0.171888      0.194028      0.148045      0.166036      0.193444      0.102559      0.176813       0.19864      0.190192      0.195123      0.207266      0.127828      0.148345      0.184684
          6.1      0.463576      0.540693      0.559995      0.464985      0.505741      0.535063      0.502979      0.577939      0.588982      0.635289      0.643194      0.643569       0.39396      0.444778      0.479253
         6.15      0.105999      0.173115      0.195714      0.148097       0.16687      0.194611      0.103758      0.178796      0.200994      0.192999      0.198343      0.210871      0.128007      0.148031      0.185377
          6.2      0.453973      0.532151      0.552073      0.456455      0.497567      0.527237      0.493567      0.569357        0.5811      0.626524      0.634668      0.635675      0.387023       0.43646      0.472103
         6.25      0.100888      0.169253      0.192081      0.143508      0.163046      0.190755     0.0995841       0.17536      0.197595      0.190497      0.195765      0.207846      0.124642      0.143542       0.18165
          6.3      0.443531      0.522906       0.54312       0.44724      0.488882      0.518423      0.483586      0.560131      0.572071      0.617568      0.625645      0.626411      0.379977      0.427838      0.464184
         6.35      0.100393      0.169958      0.193268      0.142897      0.163525      0.191442      0.100249      0.176813      0.199396      0.192758      0.198402      0.210785      0.124614      0.142797      0.181919
          6.4      0.434235      0.514646      0.535473      0.438785       0.48108       0.51083      0.474534      0.551881       0.56447      0.609216       0.61751      0.618817      0.373412      0.419725      0.457225
         6.45     0.0955586      0.166334      0.189917      0.138371      0.160038      0.187845     0.0963453      0.173637      0.196294      0.190471      0.196077      0.208083      0.121583      0.138479      0.178408
          6.5      0.424645      0.506043      0.527139      0.429995      0.473043      0.502585      0.465241      0.543277      0.556062      0.600846      0.609144      0.610275      0.366916      0.411489       0.44975
         6.55     0.0944336      0.166373       0.19043      0.137051          0.16      0.187886     0.0963105      0.174361      0.197355      0.191969      0.197914      0.210169      0.121241      0.137143      0.178077