# Probe 0 (1 0 0.5)
# Probe 1 (2 0 0.5)
# Probe 2 (3 0 0.5)
# Probe 3 (1 0.5 0.5)
# Probe 4 (2 0.5 0.5)
# Probe 5 (3 0.5 0.5)
# Probe 6 (1 -0.5 0.5)
# Probe 7 (2 -0.5 0.5)
# Probe 8 (3 -0.5 0.5)
# Probe 9 (1 -1.5 0.5)
# Probe 10 (2 -1.5 0.5)
# Probe 11 (3 -1.5 0.5)
# Probe 12 (1 1.5 0.5)
# Probe 13 (2 1.5 0.5)
# Probe 14 (3 1.5 0.5)
#       Probe             0             1             2             3             4             5             6             7             8             9            10            11            12            13            14
#        Time
         0.05             (0.548025 -0.345708 -2.90246e-19)             (0.761415 -0.458265 0.4775)             (0.826599 -0.397059 0.396711)             (0.755386 -0.491253 0)             (0.814874 -0.498661 0.424662)             (0.855216 -0.435135 0.356945)             (0.579154 -0.143204 0)             (0.741409 -0.360933 0.469448)             (0.820741 -0.33527 0.382575)             (0.563302 -0.158746 -9.44619e-18)             (0.625107 -0.281437 0.900238)             (0.735328 -0.282881 0.74212)             (0.736187 -0.36215 3.66441e-18)             (0.809658 -0.486582 0.663724)             (0.849848 -0.438813 0.568633)
          0.1             (0.432706 -0.50132 9.01579e-21)             (0.682733 -0.368683 -0.0227616)             (0.792218 -0.337173 -0.00540142)             (0.625074 -0.599387 0)             (0.726079 -0.434263 -0.0288425)             (0.81811 -0.366937 -0.0165279)             (0.448939 -0.266782 0)             (0.692239 -0.313471 -0.00930606)             (0.783025 -0.30701 0.0117423)             (0.607 -0.213759 3.62825e-19)             (0.756081 -0.243943 0.0394426)             (0.785191 -0.245492 0.0666433)             (0.660538 -0.49516 -3.22247e-19)             (0.819805 -0.46242 -0.0757986)             (0.890017 -0.40031 -0.041318)
         0.15             (0.466654 -0.524696 -2.15195e-20)             (0.700338 -0.404605 0.0422421)             (0.789129 -0.371098 0.0335413)             (0.676755 -0.620037 0)             (0.735346 -0.462941 0.0350004)             (0.814261 -0.400436 0.0281182)             (0.481108 -0.282792 0)             (0.699744 -0.345253 0.0408024)             (0.782316 -0.341484 0.0361225)             (0.616724 -0.222955 -7.49385e-19)             (0.729038 -0.272568 0.0837019)             (0.782165 -0.291122 0.0849484)             (0.711231 -0.514539 2.63454e-19)             (0.817986 -0.490321 0.0568781)             (0.867129 -0.433321 0.03924)
          0.2             (0.454232 -0.513129 1.71622e-20)             (0.685512 -0.356661 -0.0365134)             (0.771433 -0.323382 -0.0405853)             (0.668234 -0.601539 0)             (0.718831 -0.413155 -0.036635)             (0.79578 -0.35323 -0.0394936)             (0.468692 -0.261692 0)             (0.680838 -0.299233 -0.0367764)             (0.764799 -0.290968 -0.0376483)             (0.599994 -0.211013 5.57112e-19)             (0.702965 -0.226835 -0.0747978)             (0.769183 -0.23715 -0.0788246)             (0.703917 -0.496377 -2.38454e-19)             (0.799489 -0.445985 -0.063321)             (0.847037 -0.388771 -0.0744248)
         0.25             (0.442498 -0.498234 6.33563e-21)             (0.663726 -0.344813 -0.0158437)             (0.733569 -0.303971 -0.0296248)             (0.663122 -0.582543 0)             (0.69988 -0.39409 -0.01618)             (0.759783 -0.331774 -0.0282011)             (0.458072 -0.245456 0)             (0.651874 -0.286396 -0.0172191)             (0.722948 -0.268401 -0.0314576)             (0.598911 -0.20182 1.58328e-19)             (0.660117 -0.220675 -0.0368085)             (0.707856 -0.221182 -0.0766506)             (0.723232 -0.472916 -6.86215e-20)             (0.780084 -0.425628 -0.0249479)             (0.808828 -0.363683 -0.0511233)
          0.3             (0.425612 -0.489701 1.21406e-20)             (0.637376 -0.324819 -0.0286997)             (0.692261 -0.279317 -0.041106)             (0.651944 -0.565852 0)             (0.676621 -0.367131 -0.0275904)             (0.719499 -0.300868 -0.039181)             (0.44046 -0.234114 0)             (0.621783 -0.270751 -0.0296501)             (0.677475 -0.248143 -0.0422002)             (0.583712 -0.195444 3.89296e-19)             (0.633106 -0.213213 -0.0583749)             (0.658833 -0.208994 -0.0913208)             (0.728332 -0.448201 -1.54756e-19)             (0.760793 -0.395164 -0.0439938)             (0.776039 -0.325704 -0.066184)
         0.35             (0.408583 -0.471237 1.84816e-20)             (0.606946 -0.295824 -0.0423821)             (0.645776 -0.246249 -0.0573214)             (0.636886 -0.539351 0)             (0.64834 -0.331416 -0.039616)             (0.673989 -0.261579 -0.0539887)             (0.421404 -0.215372 0)             (0.587871 -0.246695 -0.0440536)             (0.627246 -0.219866 -0.05931)             (0.555214 -0.181352 5.91537e-19)             (0.595603 -0.199378 -0.0899777)             (0.599513 -0.190096 -0.13)             (0.723874 -0.41577 -2.29728e-19)             (0.734309 -0.354634 -0.0635339)             (0.733335 -0.277351 -0.0929436)
          0.4             (0.387282 -0.447502 2.12877e-20)             (0.572157 -0.264789 -0.0481711)             (0.595929 -0.21142 -0.0637134)             (0.617316 -0.50784 0)             (0.615344 -0.293671 -0.0445414)             (0.624404 -0.222058 -0.059801)             (0.398188 -0.192636 0)             (0.549447 -0.220837 -0.0501292)             (0.573807 -0.188227 -0.0661675)             (0.529233 -0.165296 6.76971e-19)             (0.551204 -0.182627 -0.104841)             (0.536167 -0.164792 -0.147832)             (0.714468 -0.379663 -2.60355e-19)             (0.703562 -0.311798 -0.0717499)             (0.682456 -0.229266 -0.107457)
         0.45             (0.365596 -0.422346 2.12754e-20)             (0.538215 -0.234938 -0.0479328)             (0.551142 -0.179177 -0.0614323)             (0.597196 -0.47511 0)             (0.582604 -0.257675 -0.0440633)             (0.579047 -0.186379 -0.0576646)             (0.374524 -0.16945 0)             (0.512404 -0.196018 -0.0498462)             (0.526813 -0.158517 -0.0634969)             (0.506786 -0.149676 6.79101e-19)             (0.507614 -0.164817 -0.105919)             (0.485745 -0.139087 -0.139407)             (0.703106 -0.343574 -2.59655e-19)             (0.672477 -0.270887 -0.0718009)             (0.634739 -0.186456 -0.105512)
          0.5             (0.344893 -0.397591 2.01671e-20)             (0.50803 -0.207197 -0.0450973)             (0.515103 -0.150784 -0.0556869)             (0.577712 -0.443941 0)             (0.552916 -0.225202 -0.041407)             (0.542133 -0.155391 -0.0520995)             (0.351955 -0.146594 0)             (0.480219 -0.172554 -0.0466792)             (0.490136 -0.132602 -0.0570017)             (0.487515 -0.134443 6.46996e-19)             (0.470515 -0.146316 -0.0995101)             (0.45173 -0.116314 -0.120776)             (0.691212 -0.309675 -2.48726e-19)             (0.643521 -0.234184 -0.0686611)             (0.597099 -0.150302 -0.0950064)
         0.55             (0.326498 -0.374404 1.89862e-20)             (0.482705 -0.181917 -0.0419326)             (0.487025 -0.125987 -0.0501185)             (0.560412 -0.415306 0)             (0.527434 -0.196452 -0.038489)             (0.513404 -0.128415 -0.0467396)             (0.331861 -0.12479 0)             (0.453854 -0.150718 -0.043198)             (0.462202 -0.110335 -0.0509808)             (0.47038 -0.119711 6.09864e-19)             (0.441122 -0.128266 -0.0916293)             (0.427521 -0.0969809 -0.105847)             (0.679013 -0.278753 -2.36096e-19)             (0.617742 -0.201872 -0.0646976)             (0.569293 -0.119572 -0.0836878)
          0.6             (0.309784 -0.352441 1.77601e-20)             (0.461274 -0.158866 -0.0388512)             (0.464206 -0.103741 -0.045465)             (0.54488 -0.389166 0)             (0.505531 -0.170891 -0.0356869)             (0.490298 -0.104217 -0.0423086)             (0.313805 -0.103782 0)             (0.432052 -0.13034 -0.0398148)             (0.439588 -0.0904551 -0.0461321)             (0.455121 -0.105549 5.69376e-19)             (0.417899 -0.111133 -0.083723)             (0.407572 -0.0799588 -0.0952491)             (0.666752 -0.250679 -2.23295e-19)             (0.595317 -0.173223 -0.0605234)             (0.548069 -0.0923014 -0.0745701)
         0.65             (0.294608 -0.332351 1.63452e-20)             (0.443076 -0.138511 -0.0354764)             (0.445099 -0.084092 -0.0410089)             (0.531254 -0.365916 0)             (0.486816 -0.148532 -0.0325672)             (0.471114 -0.0827422 -0.0380688)             (0.297703 -0.0841929 0)             (0.413848 -0.111974 -0.0362686)             (0.420511 -0.0729347 -0.0416099)             (0.44177 -0.0924344 5.2446e-19)             (0.399522 -0.0957083 -0.0757524)             (0.390197 -0.0650977 -0.0860134)             (0.655037 -0.225674 -2.06904e-19)             (0.576446 -0.148176 -0.055339)             (0.53107 -0.0681014 -0.0663549)
          0.7             (0.28059 -0.313139 1.54547e-20)             (0.427163 -0.119488 -0.033329)             (0.428264 -0.0654544 -0.0381781)             (0.519116 -0.344534 0)             (0.470465 -0.127769 -0.0305949)             (0.454382 -0.0623771 -0.0354077)             (0.283113 -0.0653162 0)             (0.398038 -0.094532 -0.0339714)             (0.403515 -0.056259 -0.0387183)             (0.429469 -0.0799818 4.94816e-19)             (0.384047 -0.0812177 -0.0704524)             (0.374148 -0.0510752 -0.0801629)             (0.643636 -0.20282 -1.9723e-19)             (0.560348 -0.124973 -0.0519781)             (0.51655 -0.045088 -0.0613035)
         0.75             (0.26751 -0.295597 1.39851e-20)             (0.413285 -0.103137 -0.0300414)             (0.413404 -0.0492288 -0.0343142)             (0.508541 -0.325768 0)             (0.456268 -0.109793 -0.0275649)             (0.43963 -0.0445587 -0.031794)             (0.269962 -0.0479434 0)             (0.384278 -0.0793332 -0.0305874)             (0.388441 -0.0417759 -0.0348331)             (0.418718 -0.0686833 4.4798e-19)             (0.371071 -0.0686307 -0.0632697)             (0.359775 -0.0389303 -0.0721778)             (0.633421 -0.182577 -1.79198e-19)             (0.546932 -0.104797 -0.0467029)             (0.503802 -0.0248071 -0.0549659)
          0.8             (0.255136 -0.278268 1.35961e-20)             (0.400747 -0.0869467 -0.0290034)             (0.399808 -0.0329696 -0.0328887)             (0.498973 -0.308066 0)             (0.443501 -0.092081 -0.0266148)             (0.426209 -0.0267676 -0.0304867)             (0.257984 -0.0309994 0)             (0.371849 -0.0641833 -0.029459)             (0.374559 -0.0271643 -0.0333587)             (0.408233 -0.0577957 4.33704e-19)             (0.359278 -0.0562115 -0.060681)             (0.346192 -0.026714 -0.0692009)             (0.623502 -0.163595 -1.74783e-19)             (0.535162 -0.0850328 -0.0449869)             (0.492259 -0.00463518 -0.0525208)
         0.85             (0.24322 -0.262416 1.19887e-20)             (0.389566 -0.0738655 -0.0255774)             (0.387548 -0.0195899 -0.029063)             (0.490649 -0.292889 0)             (0.432259 -0.0774491 -0.0234596)             (0.414039 -0.0119813 -0.0269377)             (0.247031 -0.0156708 0)             (0.360738 -0.0516982 -0.0259812)             (0.36207 -0.0152589 -0.0294831)             (0.399385 -0.0481324 3.82608e-19)             (0.349141 -0.0459501 -0.0534543)             (0.334121 -0.0167218 -0.0611563)             (0.615128 -0.146961 -1.54774e-19)             (0.525255 -0.0684548 -0.0395591)             (0.481643 0.0123304 -0.0466425)
          0.9             (0.231754 -0.246305 1.21018e-20)             (0.379173 -0.0598482 -0.0256909)             (0.376129 -0.00518541 -0.0289668)             (0.482974 -0.278075 0)             (0.421811 -0.0619617 -0.0235585)             (0.402825 0.00379568 -0.0268041)             (0.237047 -0.000409042 0)             (0.350406 -0.0382945 -0.0260809)             (0.350369 -0.00225027 -0.0293599)             (0.390324 -0.0386741 3.87513e-19)             (0.339449 -0.0350374 -0.0536203)             (0.322537 -0.00585667 -0.0609886)             (0.606582 -0.130835 -1.56511e-19)             (0.516094 -0.0510842 -0.039642)             (0.471892 0.0302101 -0.0461612)
         0.95             (0.220739 -0.231616 1.02173e-20)             (0.369982 -0.0497387 -0.0217269)             (0.365914 0.00553869 -0.0246311)             (0.476689 -0.265726 0)             (0.412714 -0.0502738 -0.0199416)             (0.392742 0.0156396 -0.0228153)             (0.227908 0.0131846 0)             (0.341164 -0.0284196 -0.0220272)             (0.339812 0.00720122 -0.0250131)             (0.383196 -0.0305227 3.24946e-19)             (0.331185 -0.0268362 -0.0451847)             (0.312423 0.00199887 -0.0517324)             (0.599921 -0.117037 -1.33189e-19)             (0.508508 -0.0375134 -0.0335524)             (0.462873 0.0441095 -0.0397428)
            1             (0.210012 -0.216115 1.09255e-20)             (0.361213 -0.0371447 -0.0232005)             (0.356425 0.0187691 -0.025908)             (0.47045 -0.253037 0)             (0.403968 -0.0363476 -0.0212893)             (0.383294 0.0297313 -0.0240182)             (0.21971 0.0270367 0)             (0.332449 -0.0162389 -0.0235149)             (0.32993 0.0191047 -0.0262767)             (0.375161 -0.0221993 3.51317e-19)             (0.322993 -0.0169436 -0.0482245)             (0.302602 0.0118159 -0.0544967)             (0.592375 -0.103028 -1.4294e-19)             (0.50096 -0.0218101 -0.0357873)             (0.45458 0.060233 -0.0414159)
         1.05             (0.199768 -0.202384 8.58348e-21)             (0.353606 -0.0297561 -0.0182437)             (0.347969 0.0270054 -0.0206561)             (0.465778 -0.243167 0)             (0.396554 -0.02739 -0.0167728)             (0.374735 0.0387616 -0.0192308)             (0.212246 0.0388052 0)             (0.324719 -0.00880871 -0.0184648)             (0.321389 0.0264731 -0.0208652)             (0.369699 -0.0154714 2.71888e-19)             (0.316285 -0.0106794 -0.0377152)             (0.294245 0.0176968 -0.0431978)             (0.587203 -0.0916476 -1.13118e-19)             (0.494979 -0.0110356 -0.028239)             (0.446854 0.0711035 -0.0336613)
          1.1             (0.189498 -0.187108 1.011e-20)             (0.34609 -0.0180495 -0.02146)             (0.339818 0.0393098 -0.0238062)             (0.460673 -0.232062 0)             (0.389109 -0.0144614 -0.019707)             (0.366678 0.051934 -0.022038)             (0.205493 0.0515923 0)             (0.317238 0.00265257 -0.0217371)             (0.313055 0.0379211 -0.0240444)             (0.362283 -0.0080339 3.26617e-19)             (0.309201 -0.00138143 -0.0445084)             (0.28593 0.0270794 -0.0497944)             (0.580383 -0.0792547 -1.33404e-19)             (0.488518 0.00358309 -0.0331255)             (0.439815 0.085949 -0.0379109)
         1.15             (0.17972 -0.17422 7.00522e-21)             (0.339742 -0.0133342 -0.0149288)             (0.332611 0.0448647 -0.0170093)             (0.457226 -0.224397 0)             (0.383082 -0.00827305 -0.0137614)             (0.3594 0.0582302 -0.0158752)             (0.199336 0.0616302 0)             (0.310829 0.00741976 -0.0150836)             (0.305725 0.0428352 -0.0171806)             (0.358452 -0.00255618 2.20429e-19)             (0.303792 0.00280945 -0.0306416)             (0.279051 0.0309832 -0.0352278)             (0.576671 -0.0700467 -9.37289e-20)             (0.483809 0.011533 -0.0232309)             (0.43311 0.0937994 -0.0280456)
          1.2             (0.169966 -0.159067 9.70528e-21)             (0.33335 -0.00201389 -0.0203483)             (0.325652 0.0568322 -0.0222811)             (0.452985 -0.214452 0)             (0.376754 0.00410803 -0.0186719)             (0.352554 0.0709759 -0.0206153)             (0.193975 0.0734247 0)             (0.30454 0.01868 -0.0205559)             (0.298609 0.0539663 -0.0224461)             (0.351657 0.00409826 3.12189e-19)             (0.297805 0.0118137 -0.042042)             (0.272116 0.0402764 -0.0464055)             (0.570252 -0.0589212 -1.27287e-19)             (0.478167 0.0255264 -0.0313974)             (0.427151 0.107888 -0.0354462)
         1.25             (0.160331 -0.146778 5.49894e-21)             (0.328032 -7.21798e-05 -0.0117771)             (0.319478 0.0599069 -0.0135902)             (0.450422 -0.208669 0)             (0.371881 0.00730176 -0.0108989)             (0.346296 0.0746037 -0.0127413)             (0.188883 0.08222 0)             (0.298949 0.0215491 -0.0118573)             (0.292397 0.0565629 -0.0137012)             (0.349364 0.00835372 1.71506e-19)             (0.293565 0.014337 -0.0239505)             (0.266355 0.0422731 -0.0278786)             (0.568033 -0.0516388 -7.51921e-20)             (0.474527 0.0307247 -0.0185197)             (0.421254 0.112834 -0.0228509)
          1.3             (0.151005 -0.131679 9.41897e-21)             (0.322506 0.0111533 -0.0196232)             (0.313664 0.0717505 -0.0211709)             (0.446777 -0.199581 0)             (0.366434 0.0194243 -0.017991)             (0.340556 0.0871608 -0.0195799)             (0.184736 0.0932502 0)             (0.29353 0.0326516 -0.0198018)             (0.286478 0.0675545 -0.0212771)             (0.342937 0.014445 3.03291e-19)             (0.288536 0.0234405 -0.0403807)             (0.260669 0.0515786 -0.0439223)             (0.561902 -0.0414647 -1.23459e-19)             (0.469475 0.0443758 -0.0302735)             (0.416314 0.126471 -0.0335853)
         1.35             (0.141648 -0.119867 4.17906e-21)             (0.317925 0.0107829 -0.00907092)             (0.308367 0.0726786 -0.0106619)             (0.444914 -0.19519 0)             (0.362511 0.0201714 -0.00844044)             (0.335157 0.0884915 -0.0100647)             (0.18047 0.10083 0)             (0.288719 0.0334461 -0.00908865)             (0.28117 0.0681637 -0.0107275)             (0.341953 0.0177962 1.28372e-19)             (0.285048 0.0244166 -0.0181883)             (0.255675 0.0518904 -0.0216808)             (0.560936 -0.0357371 -5.89855e-20)             (0.466689 0.0471713 -0.0144527)             (0.41105 0.128952 -0.0184026)
          1.4             (0.132768 -0.105014 9.16226e-21)             (0.313092 0.0219411 -0.0189843)             (0.303545 0.0843603 -0.0201948)             (0.441576 -0.186765 0)             (0.357789 0.0319841 -0.0173904)             (0.330365 0.100811 -0.018657)             (0.177401 0.110971 0)             (0.284131 0.0443769 -0.0191258)             (0.276293 0.0790089 -0.0202502)             (0.335873 0.0233618 2.95635e-19)             (0.280885 0.0334545 -0.0389336)             (0.251174 0.0611421 -0.0416808)             (0.555052 -0.0264195 -1.20037e-19)             (0.462155 0.060422 -0.0292734)             (0.406993 0.142139 -0.0319417)
         1.45             (0.123727 -0.0935348 3.15572e-21)             (0.309084 0.019854 -0.00695503)             (0.298908 0.0836995 -0.00838713)             (0.440131 -0.183253 0)             (0.354564 0.030817 -0.00651967)             (0.325634 0.100425 -0.00798001)             (0.173838 0.117585 0)             (0.279894 0.0436478 -0.00692758)             (0.271656 0.078182 -0.0084302)             (0.335871 0.0260337 9.46511e-20)             (0.277905 0.0332705 -0.013709)             (0.246682 0.0602159 -0.0169131)             (0.555087 -0.021864 -4.62383e-20)             (0.459999 0.0613666 -0.0112722)             (0.402219 0.142769 -0.014914)
          1.5             (0.115299 -0.0789996 8.84966e-21)             (0.304826 0.0307098 -0.0182592)             (0.294894 0.095012 -0.0191927)             (0.436992 -0.175272 0)             (0.350484 0.0421117 -0.0167178)             (0.32163 0.112329 -0.0177242)             (0.171623 0.126932 0)             (0.275948 0.0542825 -0.0183705)             (0.267615 0.0886953 -0.0191948)             (0.330148 0.0311098 2.8612e-19)             (0.274498 0.0420924 -0.0373367)             (0.243198 0.0692418 -0.0394091)             (0.549534 -0.0133131 -1.16006e-19)             (0.455932 0.0740611 -0.0281551)             (0.398886 0.155364 -0.0302967)
         1.55             (0.106603 -0.0677858 2.41915e-21)             (0.301255 0.0275053 -0.00543683)             (0.29077 0.0933134 -0.00674475)             (0.43569 -0.172196 0)             (0.347818 0.0396421 -0.00513956)             (0.317425 0.110816 -0.0064693)             (0.168684 0.132792 0)             (0.272141 0.0525755 -0.00537715)             (0.263501 0.0869645 -0.00677517)             (0.33086 0.0332767 7.06423e-20)             (0.27188 0.0411426 -0.0105066)             (0.239061 0.0675231 -0.0135033)             (0.550263 -0.00960511 -3.70308e-20)             (0.454229 0.0737151 -0.00898595)             (0.394511 0.154745 -0.0123612)
          1.6             (0.0984527 -0.0535001 8.47834e-21)             (0.297441 0.0378946 -0.0174399)             (0.287393 0.104136 -0.0181621)             (0.432532 -0.164518 0)             (0.344256 0.0502223 -0.0159623)             (0.314031 0.122146 -0.0167667)             (0.16723 0.141441 0)             (0.268734 0.0627656 -0.017528)             (0.260127 0.0970065 -0.0181238)             (0.325558 0.0378885 2.74659e-19)             (0.269103 0.0496293 -0.0355767)             (0.236382 0.0761895 -0.0371282)             (0.545098 -0.00174661 -1.11263e-19)             (0.450567 0.0857138 -0.0268987)             (0.391737 0.166638 -0.0286367)
         1.65             (0.090147 -0.042552 1.91857e-21)             (0.294194 0.0340311 -0.00439591)             (0.283689 0.101809 -0.00559695)             (0.431135 -0.161528 0)             (0.342037 0.0468603 -0.00419039)             (0.310261 0.119933 -0.00540862)             (0.164846 0.146699 0)             (0.265278 0.0604695 -0.00431449)             (0.256437 0.0947386 -0.00561629)             (0.326753 0.0396867 5.44112e-20)             (0.266764 0.0482165 -0.00831262)             (0.232543 0.0740048 -0.0111248)             (0.546293 0.00135514 -3.07007e-20)             (0.449187 0.0845165 -0.00741237)             (0.387707 0.16522 -0.0105431)
          1.7             (0.0824132 -0.0286875 8.08328e-21)             (0.290729 0.0438408 -0.016587)             (0.28081 0.112044 -0.0171464)             (0.427808 -0.153929 0)             (0.338886 0.0566971 -0.0151778)             (0.307348 0.130626 -0.0158193)             (0.163985 0.154666 0)             (0.26227 0.0701465 -0.0166535)             (0.253585 0.104255 -0.0170832)             (0.321871 0.0438965 2.62161e-19)             (0.264474 0.0563042 -0.0337685)             (0.230473 0.0822459 -0.0349344)             (0.541534 0.0086104 -1.06185e-19)             (0.445877 0.0957632 -0.0255871)             (0.38536 0.176369 -0.0270189)
         1.75             (0.0745202 -0.0180697 1.56015e-21)             (0.287725 0.0395726 -0.00366123)             (0.277468 0.109333 -0.00476287)             (0.426126 -0.150799 0)             (0.336985 0.0527278 -0.00352155)             (0.30395 0.12796 -0.00464496)             (0.162093 0.159398 0)             (0.259115 0.0675076 -0.00356669)             (0.250263 0.101657 -0.00477653)             (0.32342 0.0453946 4.32839e-20)             (0.262385 0.0546081 -0.00676585)             (0.226925 0.079779 -0.00938998)             (0.543023 0.0112603 -2.62428e-20)             (0.444743 0.0939881 -0.00630519)             (0.381635 0.174427 -0.00921011)
          1.8             (0.0672375 -0.00469904 7.68497e-21)             (0.284544 0.0488348 -0.0157423)             (0.274993 0.11898 -0.0161733)             (0.422478 -0.143117 0)             (0.334206 0.0618058 -0.014402)             (0.301429 0.138028 -0.014914)             (0.161739 0.166754 0)             (0.25644 0.0766598 -0.0157907)             (0.247835 0.11063 -0.0160927)             (0.318941 0.0492578 2.49511e-19)             (0.260488 0.0622809 -0.0319949)             (0.22534 0.0875767 -0.0328577)             (0.538657 0.017975 -1.01068e-19)             (0.441739 0.104483 -0.0242915)             (0.379628 0.184841 -0.0254786)
         1.85             (0.0597765 0.00553886 1.32431e-21)             (0.281731 0.0443959 -0.00316365)             (0.27196 0.116066 -0.00417504)             (0.420359 -0.139652 0)             (0.332564 0.0574702 -0.00306609)             (0.298352 0.135116 -0.00409632)             (0.160283 0.171043 0)             (0.25354 0.0738538 -0.00305684)             (0.244827 0.10787 -0.00417873)             (0.320728 0.0505358 3.59168e-20)             (0.258614 0.0604395 -0.00571155)             (0.222058 0.0849774 -0.00815934)             (0.540351 0.020285 -2.31946e-20)             (0.440783 0.102348 -0.00554804)             (0.376174 0.182584 -0.00824227)
          1.9             (0.0529443 0.0183502 7.29443e-21)             (0.278758 0.0530898 -0.0149313)             (0.269812 0.125128 -0.0152616)             (0.416282 -0.131771 0)             (0.330077 0.0658109 -0.0136584)             (0.296151 0.14455 -0.014072)             (0.160329 0.177833 0)             (0.251133 0.0824967 -0.0149658)             (0.242741 0.116308 -0.0151717)             (0.316637 0.0540892 2.37206e-19)             (0.257028 0.0677038 -0.0303029)             (0.220846 0.0923301 -0.0309368)             (0.53636 0.0265319 -9.60981e-20)             (0.438043 0.112114 -0.0230493)             (0.374428 0.192293 -0.0240491)
         1.95             (0.045952 0.0281304 1.14803e-21)             (0.276095 0.0485637 -0.00278776)             (0.267059 0.122086 -0.00371302)             (0.41363 -0.127865 0)             (0.328643 0.061215 -0.00272119)             (0.293358 0.141481 -0.00366304)             (0.159269 0.181713 0)             (0.248464 0.079601 -0.00267102)             (0.240019 0.113447 -0.00370588)             (0.318601 0.0551804 3.05319e-20)             (0.255364 0.0657732 -0.00491138)             (0.217838 0.0896488 -0.00717641)             (0.538184 0.0285794 -2.08999e-20)             (0.437241 0.109716 -0.00497191)             (0.371225 0.189813 -0.00746848)
            2             (0.0395848 0.0403193 6.92497e-21)             (0.273289 0.0567337 -0.0141684)             (0.265197 0.130584 -0.0144135)             (0.409055 -0.119709 0)             (0.326402 0.0688693 -0.0129598)             (0.291438 0.150312 -0.0132885)             (0.159655 0.187981 0)             (0.246293 0.0877657 -0.0141907)             (0.238235 0.121373 -0.0143152)             (0.314877 0.0584585 2.25538e-19)             (0.254048 0.07265 -0.0287133)             (0.21695 0.0965735 -0.0291485)             (0.534528 0.034399 -9.13924e-20)             (0.434738 0.118804 -0.0218827)             (0.369703 0.19886 -0.0227212)
         2.05             (0.0330695 0.0496213 1.04215e-21)             (0.270731 0.0522812 -0.00255521)             (0.262677 0.127532 -0.00340611)             (0.405786 -0.115269 0)             (0.325121 0.0641691 -0.002506)             (0.288886 0.147215 -0.00337133)             (0.158938 0.191523 0)             (0.243818 0.0849072 -0.00243146)             (0.235749 0.11853 -0.00339116)             (0.316948 0.0594191 2.74014e-20)             (0.252543 0.0707252 -0.00441781)             (0.214161 0.0939168 -0.00653287)             (0.536418 0.0362469 -1.94449e-20)             (0.434042 0.116287 -0.00461228)             (0.366713 0.196297 -0.0069327)
          2.1             (0.027163 0.0611559 6.5764e-21)             (0.268036 0.0599269 -0.0134565)             (0.261031 0.135507 -0.01364)             (0.400652 -0.106786 0)             (0.323068 0.0711838 -0.012309)             (0.287182 0.155479 -0.0125749)             (0.159601 0.197316 0)             (0.24183 0.092625 -0.0134691)             (0.234192 0.125978 -0.0135382)             (0.313569 0.0624551 2.14518e-19)             (0.251433 0.0772299 -0.0272368)             (0.2135 0.100433 -0.0275385)             (0.533075 0.0416857 -8.69531e-20)             (0.431745 0.124746 -0.0207932)             (0.365354 0.204732 -0.0215138)
         2.15             (0.0211438 0.0698865 9.4033e-22)             (0.265567 0.0555037 -0.00233233)             (0.258735 0.132417 -0.00310735)             (0.396759 -0.101837 0)             (0.32192 0.0663729 -0.00229975)             (0.284857 0.152325 -0.00308909)             (0.159195 0.200505 0)             (0.239546 0.0897767 -0.0022022)             (0.231944 0.123101 -0.0030827)             (0.31575 0.0632763 2.44798e-20)             (0.250119 0.0752863 -0.00394122)             (0.210971 0.0977551 -0.00588135)             (0.535014 0.0433272 -1.80606e-20)             (0.431168 0.122102 -0.00426436)             (0.362572 0.202064 -0.00641548)
          2.2             (0.0157151 0.0807249 6.25659e-21)             (0.262975 0.062754 -0.0128018)             (0.257307 0.139897 -0.0129229)             (0.391066 -0.0930268 0)             (0.320036 0.0728212 -0.0117104)             (0.283367 0.160071 -0.0119122)             (0.160106 0.205856 0)             (0.237747 0.0970973 -0.0128045)             (0.230618 0.130107 -0.012815)             (0.312685 0.0660957 2.04396e-19)             (0.249212 0.0814585 -0.025875)             (0.210554 0.103898 -0.0260281)             (0.53194 0.0484005 -8.28689e-20)             (0.429067 0.129992 -0.0197926)             (0.361378 0.209937 -0.0203925)