/*--------------------------------*- C++ -*----------------------------------*\
  =========                 |
  \\      /  F ield         | OpenFOAM: The Open Source CFD Toolbox
   \\    /   O peration     | Website:  https://openfoam.org
    \\  /    A nd           | Version:  7
     \\/     M anipulation  |
\*---------------------------------------------------------------------------*/
FoamFile
{
    version     2.0;
    format      ascii;
    class       surfaceScalarField;
    location    "2.4";
    object      phi;
}
// * * * * * * * * * * * * * * * * * * * * * * * * * * * * * * * * * * * * * //

dimensions      [0 3 -1 0 0 0 0];

internalField   nonuniform List<scalar> 
63520
(
-1.86858e-05
0.000959694
-0.000941008
-6.297e-05
0.00246675
-0.00242247
-0.000127122
0.00366925
-0.00360509
-0.000205423
0.00458228
-0.00450398
-0.000292141
0.00524094
-0.00515422
-0.000381625
0.0056851
-0.00559562
-0.000468551
0.00595257
-0.00586565
-0.000548085
0.00607625
-0.00599671
-0.00061599
0.00608367
-0.00601577
-0.000668659
0.00599716
-0.0059445
-0.00070311
0.00583474
-0.00580029
-0.000716969
0.00561111
-0.00559725
-0.000708413
0.00533847
-0.00534703
-0.000676135
0.00502726
-0.00505954
-0.000619304
0.00468669
-0.00474352
-0.000537533
0.00432511
-0.00440688
-0.000430854
0.00395017
-0.00405685
-0.000299679
0.00356893
-0.0037001
-0.000144771
0.00318786
-0.00334277
3.2788e-05
0.00281288
-0.00299044
0.000231636
0.00244921
-0.00264806
0.000450183
0.00210142
-0.00231997
0.00068664
0.00177337
-0.00200983
0.000939069
0.00146817
-0.0017206
0.00120546
0.00118819
-0.00145458
0.00148375
0.000935072
-0.00121336
0.00177189
0.000709787
-0.000997928
0.00206786
0.000512677
-0.000808653
0.00236975
0.000343532
-0.000645415
0.00267573
0.000201657
-0.000507637
0.00298413
8.59548e-05
-0.000394357
0.00329343
-4.98522e-06
-0.000304309
0.00360224
-7.28126e-05
-0.000236007
0.00390939
-0.000119331
-0.000187815
0.00421382
-0.000146415
-0.000158011
0.00451462
-0.000155927
-0.000144877
0.00481101
-0.000149618
-0.000146769
0.00510224
-0.000129113
-0.000162116
0.00538757
-9.33611e-05
-0.000191974
-3.68116e-05
0.00566596
-0.000241582
-1.56292e-05
0.000975322
-5.34581e-05
0.00250458
-0.000108941
0.00372473
-0.000177353
0.00465069
-0.000253631
0.00531722
-0.000332585
0.00576405
-0.000409165
0.00602915
-0.000478696
0.00614578
-0.000537003
0.00614198
-0.000580513
0.00604067
-0.000606259
0.00586049
-0.000611855
0.00561671
-0.000595444
0.00532206
-0.000555686
0.0049875
-0.000491731
0.00462273
-0.000403168
0.00423654
-0.000290002
0.00383701
-0.000152639
0.00343157
8.15531e-06
0.00302707
0.00019131
0.00262972
0.000395459
0.00224506
0.000618987
0.0018779
0.000860095
0.00153226
0.00111685
0.00121142
0.00138721
0.000917831
0.0016691
0.000653183
0.00196045
0.000418434
0.00225925
0.000213875
0.00256357
3.92097e-05
0.0028716
-0.000106375
0.00318168
-0.000224119
0.00349228
-0.000315593
0.00380209
-0.000382615
0.00410991
-0.000427155
0.00441475
-0.000451256
0.00471575
-0.000456932
0.00501219
-0.000446051
0.00530338
-0.000420308
0.00558869
-0.000378673
-0.000315344
0.00586722
-1.25296e-05
0.000987851
-4.36342e-05
0.00253569
-9.00499e-05
0.00377114
-0.000148023
0.00470867
-0.000213182
0.00538237
-0.000280822
0.00583169
-0.000346184
0.00609452
-0.000404801
0.00620439
-0.000452594
0.00618977
-0.000486038
0.00607412
-0.000502172
0.00587662
-0.000498594
0.00561313
-0.000473447
0.00529691
-0.000425381
0.00493944
-0.00035352
0.00455087
-0.000257446
0.00414047
-0.000137163
0.00371672
6.93625e-06
0.00328747
0.000174094
0.00285991
0.000363224
0.00244059
0.000572948
0.00203534
0.000801649
0.00164919
0.00104751
0.0012864
0.00130857
0.000950363
0.00158278
0.00064362
0.00186807
0.000367896
0.00216236
0.000124144
0.00246363
-8.73969e-05
0.00276996
-0.000267119
0.00307955
-0.00041597
0.00339077
-0.000535335
0.00370213
-0.00062695
0.00401232
-0.000692804
0.00432021
-0.000735048
0.00462485
-0.000755897
0.00492543
-0.000757517
0.0052213
-0.000741915
0.00551186
-0.00071087
0.00579658
-0.00066339
-0.000593484
0.00607472
-9.40185e-06
0.000997253
-3.36377e-05
0.00255992
-7.06785e-05
0.00380818
-0.000117752
0.00475574
-0.000171189
0.00543581
-0.00022679
0.00588729
-0.000280142
0.00614787
-0.000326982
0.00625123
-0.000363352
0.00622614
-0.000385795
0.00609656
-0.000391392
0.00588222
-0.00037775
0.00559949
-0.000343006
0.00526217
-0.000285806
0.00488224
-0.000205277
0.00447035
-0.000100993
0.00403618
2.70502e-05
0.00358868
0.000178446
0.00313607
0.000352426
0.00268593
0.0005479
0.00224512
0.000763479
0.00181976
0.000997517
0.00141516
0.00124818
0.00103574
0.00151352
0.00068503
0.00179146
0.000365676
0.00207993
7.94311e-05
0.00237684
-0.000172771
0.00268019
-0.000390751
0.00298808
-0.000575009
0.00329874
-0.000726625
0.00361054
-0.000847141
0.00392206
-0.000938465
0.00423202
-0.00100277
0.00453936
-0.00104239
0.00484317
-0.0010597
0.0051427
-0.00105705
0.00543736
-0.00103658
0.00572667
-0.00100017
0.00601019
-0.000946916
-0.000870661
0.00628737
-6.28956e-06
0.00100354
-2.35455e-05
0.00257718
-5.09841e-05
0.00383562
-8.67749e-05
0.00479153
-0.00012798
0.00547701
-0.000170913
0.00593022
-0.000211519
0.00618847
-0.000245766
0.00628548
-0.00026987
0.00625024
-0.000280454
0.00610714
-0.000274636
0.0058764
-0.000250054
0.0055749
-0.000204866
0.00521698
-0.000137723
0.00481509
-4.7756e-05
0.00438038
6.5448e-05
0.00392298
0.000201873
0.00345225
0.000361111
0.00297683
0.000542379
0.00250466
0.000744562
0.00204294
0.000966247
0.00159808
0.00120578
0.00117562
0.00146132
0.0007802
0.00173087
0.000415471
0.0020124
8.41546e-05
0.00230379
-0.000211968
0.00260301
-0.000471983
0.00290804
-0.000695786
0.00321702
-0.000883989
0.00352821
-0.00103781
0.00384004
-0.00115897
0.00415111
-0.00124954
0.00446023
-0.00131189
0.00476638
-0.00134853
0.0050687
-0.00136203
0.00536655
-0.00135489
0.00565938
-0.00132942
0.00594681
-0.0012876
0.00622852
-0.00122863
-0.00114626
0.00650412
-3.19724e-06
0.00100674
-1.34311e-05
0.00258741
-3.11266e-05
0.00385332
-5.53717e-05
0.00481578
-8.39249e-05
0.00550557
-0.000113635
0.00595993
-0.000140841
0.00621568
-0.000161767
0.00630641
-0.000172803
0.00626128
-0.000170685
0.00610502
-0.000152605
0.00585832
-0.000116243
0.00553854
-5.97793e-05
0.00516052
1.8104e-05
0.00473721
0.000118249
0.00428023
0.000241051
0.00380018
0.000386478
0.00330683
0.000554091
0.00280922
0.000743084
0.00231567
0.000952316
0.00183371
0.00118035
0.00137004
0.00142552
0.000930461
0.00168595
0.000519768
0.00195966
0.00014176
0.00224459
-0.000200776
0.00253866
-0.000506037
0.00283982
-0.000773146
0.00314612
-0.00100208
0.0034557
-0.00119357
0.00376689
-0.001349
0.00407817
-0.00147025
0.0043882
-0.00155957
0.00469585
-0.00161954
0.00500017
-0.00165285
0.0053004
-0.00166225
0.00559592
-0.00165041
0.00588631
-0.00161981
0.00617125
-0.00157254
0.00645056
-0.00150794
-0.00141973
0.00672402
-1.7427e-07
0.00100691
-3.40957e-06
0.00259065
-1.12956e-05
0.0038612
-2.37956e-05
0.00482828
-3.93738e-05
0.00552114
-5.54102e-05
0.00597597
-6.86404e-05
0.00622891
-7.55767e-05
0.00631334
-7.28163e-05
0.00625852
-5.72262e-05
0.00608943
-2.60842e-05
0.00582718
2.28646e-05
0.00548959
9.13861e-05
0.005092
0.00018076
0.00464784
0.000291797
0.0041692
0.000424856
0.00366712
0.000579865
0.00315182
0.000756357
0.00263273
0.000953494
0.00211853
0.0011701
0.0016171
0.0014047
0.00113544
0.00165561
0.000679551
0.00192095
0.000254427
0.00219873
-0.000136018
0.00248689
-0.000488931
0.00278335
-0.000802502
0.00308611
-0.0010759
0.00339324
-0.00130921
0.00370295
-0.00150328
0.0040136
-0.00165966
0.00432375
-0.0017804
0.00463215
-0.00186797
0.00493772
-0.00192512
0.0052396
-0.00195473
0.0055371
-0.00195975
0.0058297
-0.00194301
0.00611705
-0.00190716
0.00639893
-0.00185443
0.00667528
-0.00178429
-0.00169051
0.00694607
2.7727e-06
0.00100414
6.4282e-06
0.00258699
8.33373e-06
0.0038593
7.66756e-06
0.00482894
5.29444e-06
0.00552352
3.3012e-06
0.00597796
4.5255e-06
0.00622768
1.21513e-05
0.00630572
2.93643e-05
0.00624131
5.91357e-05
0.00605966
0.000104074
0.00578224
0.00016635
0.00542732
0.000247665
0.00501068
0.000349243
0.00454626
0.000471843
0.0040466
0.000615773
0.00352319
0.000780917
0.00298667
0.000966765
0.00244688
0.00117243
0.00191287
0.0013967
0.00139283
0.00163807
0.000894067
0.00189482
0.000422797
0.00216507
-1.58221e-05
0.00244681
-0.00041776
0.002738
-0.000780114
0.00303658
-0.00110108
0.00334057
-0.0013799
0.00364811
-0.00161674
0.00395746
-0.00181263
0.00426705
-0.00196925
0.00457553
-0.00208887
0.0048817
-0.00217415
0.00518461
-0.00222802
0.00548346
-0.00225358
0.00577765
-0.00225394
0.00606675
-0.00223212
0.00635051
-0.00219091
0.00662879
-0.00213271
0.00690165
-0.00205715
-0.00195811
0.00716924
5.58492e-06
0.000998556
1.59841e-05
0.00257659
2.75751e-05
0.00384771
3.87436e-05
0.00481777
4.97027e-05
0.00551256
6.20081e-05
0.00596566
7.80693e-05
0.00621162
0.000100745
0.00628304
0.000132977
0.00620907
0.000177555
0.00601508
0.000236953
0.00572284
0.000313238
0.00535103
0.000408023
0.0049159
0.000522463
0.00443182
0.000657246
0.00391181
0.000812621
0.00336781
0.000988415
0.00281088
0.00118406
0.00225124
0.00139861
0.00169831
0.00163081
0.00116064
0.00187912
0.000645757
0.0021418
0.000160122
0.00241693
-0.000290958
0.00270253
-0.000703352
0.00299654
-0.00107412
0.00329695
-0.00140149
0.00360182
-0.00168478
0.00390935
-0.00192427
0.00421787
-0.00212115
0.00452589
-0.00227728
0.00483215
-0.00239513
0.00513556
-0.00247756
0.00543524
-0.0025277
0.0057305
-0.00254884
0.00602083
-0.00254427
0.00630591
-0.0025172
0.00658555
-0.00247055
0.00685973
-0.00240689
0.00712862
-0.00232603
-0.00222204
0.00739256
8.25026e-06
0.000990306
2.51698e-05
0.00255967
4.62525e-05
0.00382662
6.91542e-05
0.00479487
9.34663e-05
0.00548824
0.000120221
0.0059389
0.000151396
0.00618045
0.000189508
0.00624493
0.000237233
0.00616135
0.000297158
0.00595516
0.000371599
0.0056484
0.000462497
0.00526013
0.000571363
0.00480703
0.00069926
0.00430392
0.000846796
0.00376428
0.00101414
0.00320047
0.00120106
0.00262397
0.0014069
0.0020454
0.00163066
0.00147455
0.00187103
0.000920268
0.00212643
0.000390356
0.00239509
-0.000108535
0.00267508
-0.000570948
0.0029644
-0.000992672
0.00326102
-0.00137075
0.00356298
-0.00170345
0.00386839
-0.00199018
0.0041755
-0.00223138
0.00448273
-0.00242838
0.0047887
-0.00258325
0.00509224
-0.00269866
0.00539235
-0.00277767
0.00568828
-0.00282363
0.00597944
-0.00284
0.00626542
-0.00283025
0.00654599
-0.00279776
0.00682105
-0.00274562
0.00709069
-0.00267652
0.00735517
-0.00259052
-0.0024819
0.00761503
1.07425e-05
0.000979563
3.39018e-05
0.00253651
6.41986e-05
0.00379633
9.86315e-05
0.00476044
0.00013621
0.00545067
0.000177455
0.00589765
0.000223911
0.00613399
0.000277737
0.0061911
0.00034133
0.00609776
0.000417048
0.00587944
0.000507029
0.00555842
0.000613066
0.0051541
0.00073655
0.00468355
0.000878435
0.00416204
0.00103923
0.00360348
0.00121902
0.00302068
0.00141747
0.00242551
0.00163387
0.001829
0.00186713
0.00124129
0.00211587
0.000671519
0.00237849
0.000127737
0.00265317
-0.000383213
0.00293797
-0.000855744
0.00323088
-0.00128559
0.00352992
-0.00166979
0.00383315
-0.00200668
0.00413874
-0.00229578
0.00444504
-0.00253768
0.00475056
-0.0027339
0.00505401
-0.00288671
0.00535435
-0.00299899
0.0056507
-0.00307402
0.0059424
-0.00311533
0.00622899
-0.00312659
0.00651017
-0.00311143
0.00678579
-0.00307339
0.00705588
-0.00301571
0.00732059
-0.00294123
0.00758031
-0.00285023
-0.00273732
0.00783572
1.30434e-05
0.000966519
4.21046e-05
0.00250745
8.12574e-05
0.00375717
0.000126924
0.00471477
0.000177575
0.00540002
0.000233238
0.00584199
0.00029503
0.0060722
0.000364743
0.00612139
0.000444472
0.00601803
0.00053633
0.00578758
0.000642252
0.0054525
0.000763869
0.00503248
0.000902429
0.00454499
0.00105876
0.00400571
0.00123326
0.00342898
0.00142591
0.00282803
0.00163627
0.00221515
0.00186353
0.00160174
0.00210653
0.000998283
0.00236384
0.000414212
0.00263378
-0.0001422
0.0029145
-0.000663929
0.00320403
-0.00114528
0.0035004
-0.00158196
0.00380164
-0.00197102
0.00410585
-0.0023109
0.0044113
-0.00260123
0.00471641
-0.00284279
0.00501981
-0.00303729
0.00532033
-0.00318723
0.00561703
-0.00329569
0.00590917
-0.00336616
0.00619622
-0.00340238
0.00647783
-0.0034082
0.00675382
-0.00338742
0.00702414
-0.00334372
0.00728892
-0.00328048
0.00754838
-0.0032007
0.00780303
-0.00310488
-0.002988
0.00805371
1.51341e-05
0.000951385
4.97111e-05
0.00247287
9.72905e-05
0.00370959
0.000153802
0.00465826
0.000217227
0.00533659
0.000287127
0.00577209
0.000364197
0.00599513
0.000449855
0.00603573
0.00054588
0.005922
0.00065412
0.00567934
0.000776291
0.00533032
0.000913839
0.00489493
0.00106785
0.00439097
0.00123902
0.00383454
0.0014276
0.0032404
0.00163345
0.00262218
0.00185604
0.00199256
0.00209444
0.00136334
0.0023474
0.000745322
0.00261341
0.000148201
0.00289073
-0.000419524
0.00317748
-0.000950678
0.00347169
-0.00143949
0.00377136
-0.00188163
0.00407457
-0.00227424
0.0043795
-0.00261583
0.00468448
-0.00290621
0.00498805
-0.00314636
0.00528895
-0.00333819
0.00558614
-0.00348442
0.0058788
-0.00358836
0.00616635
-0.00365371
0.00644838
-0.00368441
0.00672466
-0.00368448
0.00699513
-0.00365789
0.00725986
-0.00360844
0.00751904
-0.00353966
0.00777302
-0.00345467
0.00802236
-0.00335422
-0.00323373
0.00826808
1.70006e-05
0.000934384
5.66668e-05
0.00243321
0.000112178
0.00365408
0.000179061
0.00459138
0.000254864
0.00526079
0.000338714
0.00568824
0.000430893
0.00590295
0.000532443
0.00593418
0.000644815
0.00580963
0.000769576
0.00555458
0.000908205
0.0051917
0.00106194
0.0047412
0.0012317
0.00422121
0.00141801
0.00364824
0.00162098
0.00303743
0.00184034
0.00240282
0.00207541
0.00175749
0.00232517
0.00111359
0.00258825
0.000482236
0.00286307
-0.000126618
0.00314782
-0.000704276
0.00344057
-0.00124343
0.00373934
-0.00173825
0.00404215
-0.00218444
0.00434712
-0.0025792
0.00465249
-0.0029212
0.0049567
-0.00321042
0.00525839
-0.00344804
0.00555643
-0.00363623
0.00584993
-0.00377792
0.00613821
-0.00387665
0.00642083
-0.00393633
0.00669752
-0.0039611
0.00696819
-0.00395515
0.00723289
-0.00392259
0.00749179
-0.00386735
0.00774519
-0.00379306
0.0079935
-0.00370298
0.00823738
-0.00359811
-0.00347433
0.00847798
1.86328e-05
0.000915751
6.29284e-05
0.00238891
0.000125821
0.00359119
0.000202527
0.00451467
0.000290223
0.00517309
0.000387636
0.00559083
0.00049465
0.00579593
0.000611931
0.0058169
0.000740594
0.00568097
0.000881912
0.00541326
0.00103711
0.0050365
0.00120721
0.00457109
0.00139293
0.0040355
0.0015946
0.00344656
0.00181221
0.00281982
0.0020453
0.00216972
0.00229307
0.00150972
0.00255435
0.000852313
0.00282768
0.000208902
0.00311138
-0.000410312
0.00340356
-0.000996457
0.00370225
-0.00154212
0.00400546
-0.00204146
0.00431123
-0.00249021
0.00461772
-0.00288569
0.00492326
-0.00322674
0.00522639
-0.00351355
0.00552588
-0.00374753
0.00582074
-0.00393109
0.00611023
-0.00406741
0.00639383
-0.00416025
0.00667123
-0.00421374
0.00694233
-0.0042322
0.00720716
-0.00421998
0.0074659
-0.00418133
0.00771883
-0.00412027
0.00796632
-0.00404055
0.00820887
-0.00394553
0.00844722
-0.00383646
-0.00370974
0.00868263
2.00246e-05
0.000895727
6.84648e-05
0.00234047
0.000138145
0.00352151
0.000224061
0.00442875
0.000323087
0.00507406
0.000433586
0.00548033
0.000555062
0.00567446
0.000687812
0.00568415
0.000832607
0.00553617
0.000990419
0.00525545
0.00116221
0.00486471
0.00134875
0.00438455
0.00155055
0.0038337
0.00176776
0.00322935
0.00200017
0.00258741
0.00224717
0.00192272
0.00250778
0.00124911
0.0027807
0.000579389
0.00306436
-7.47569e-05
0.00335695
-0.000702905
0.00365653
-0.00129603
0.00396107
-0.00184667
0.00426857
-0.00234896
0.00457709
-0.00279873
0.00488486
-0.00319346
0.00519029
-0.00353218
0.00549205
-0.00381531
0.00578903
-0.00404452
0.00608041
-0.00422247
0.0063656
-0.0043526
0.00664425
-0.00443889
0.00691621
-0.0044857
0.00718152
-0.00449751
0.00744036
-0.00447882
0.00769302
-0.00443399
0.00793989
-0.00436714
0.00818144
-0.0042821
0.00841822
-0.00418232
0.00865105
-0.00406928
-0.00393998
0.00888129
2.11741e-05
0.000874553
7.32586e-05
0.00228839
0.000149098
0.00344567
0.000243565
0.00433429
0.000353292
0.00496434
0.000476321
0.0053573
0.000611798
0.00553898
0.000759661
0.00553629
0.000920338
0.0053755
0.00109449
0.0050813
0.00128279
0.00467641
0.00148578
0.00418156
0.00170372
0.00361576
0.00193656
0.00299651
0.00218387
0.0023401
0.00244488
0.00166172
0.00271843
0.000975562
0.00300307
0.000294753
0.00329707
-0.000368763
0.00359854
-0.00100437
0.00390543
-0.00160292
0.00421568
-0.00215692
0.00452728
-0.00266055
0.00483832
-0.00310978
0.0051471
-0.00350224
0.00545214
-0.00383722
0.00575223
-0.00411539
0.00604641
-0.00433871
0.00633403
-0.00451009
0.00661467
-0.00463323
0.00688815
-0.00471237
0.00715449
-0.00475204
0.00741388
-0.0047569
0.00766663
-0.00473158
0.00791317
-0.00468052
0.00815398
-0.00460795
0.00838961
-0.00451773
0.00862069
-0.0044134
0.00884808
-0.00429668
-0.00416514
0.00907324
2.20839e-05
0.000852469
7.73063e-05
0.00223316
0.000158658
0.00336432
0.000260978
0.00423196
0.000380727
0.00484459
0.000515665
0.00522236
0.000664609
0.00539004
0.000827149
0.00537375
0.00100337
0.00519927
0.00119363
0.00489104
0.0013983
0.00447173
0.00161766
0.00396221
0.00185172
0.0033817
0.0021002
0.00274803
0.00236247
0.00207783
0.00263753
0.00138666
0.00292405
0.000689039
0.00322041
-1.60108e-06
0.00352473
-0.000673083
0.00383498
-0.00131462
0.00414905
-0.001917
0.00446483
-0.0024727
0.0047803
-0.00297602
0.0050936
-0.00342308
0.0054031
-0.00381175
0.00570745
-0.00414156
0.00600557
-0.00441351
0.00629668
-0.00462982
0.00658028
-0.0047937
0.00685616
-0.00490911
0.00712429
-0.00498051
0.00738488
-0.00501263
0.00763827
-0.00501029
0.0078849
-0.00497822
0.00812533
-0.00492095
0.00836014
-0.00484276
0.00858995
-0.00474754
0.00881546
-0.00463892
0.00903758
-0.00451879
-0.00438538
0.00925782
2.27604e-05
0.000829708
8.06181e-05
0.00217531
0.000166828
0.00327811
0.000276287
0.00412251
0.000405341
0.00471553
0.00055152
0.00507618
0.000713337
0.00522822
0.000890053
0.00519704
0.00108142
0.0050079
0.00128748
0.00468499
0.0015083
0.00425091
0.00174388
0.00372663
0.00199398
0.0031316
0.00225806
0.00248394
0.00253526
0.00180063
0.00282437
0.00109755
0.00312384
0.000389572
0.00343185
-0.000309616
0.00374639
-0.000987618
0.00406528
-0.00163352
0.00438634
-0.00223805
0.00470741
-0.00279377
0.00502647
-0.00329509
0.00534172
-0.00373833
0.00565163
-0.00412166
0.00595497
-0.0044449
0.00625082
-0.00470936
0.00653857
-0.00491757
0.00681793
-0.00507305
0.00708885
-0.00518002
0.0073515
-0.00524316
0.00760626
-0.00526739
0.00785362
-0.00525765
0.00809417
-0.00521877
0.00832857
-0.00515535
0.0085575
-0.00507168
0.00878166
-0.0049717
0.0090018
-0.00485906
0.00921886
-0.00473585
-0.00460095
0.00943442
2.32142e-05
0.000806494
8.32178e-05
0.0021153
0.000173641
0.00318769
0.000289518
0.00400663
0.000427146
0.00457791
0.000583866
0.00491946
0.000757922
0.00505416
0.000948262
0.00500669
0.00115432
0.00480184
0.00137581
0.0044635
0.00161251
0.00401421
0.00186412
0.00347503
0.00213011
0.00286561
0.0024097
0.00220436
0.00270175
0.00150857
0.00300482
0.000794481
0.00331714
7.72529e-05
0.00363669
-0.000629166
0.00396127
-0.0013122
0.00428859
-0.00196084
0.00461637
-0.00256583
0.00494242
-0.00311982
0.00526474
-0.00361741
0.00558159
-0.00405519
0.00589156
-0.00443162
0.00619354
-0.00474689
0.00648681
-0.00500263
0.00677095
-0.00520171
0.00704584
-0.00534795
0.00731164
-0.00544582
0.00756872
-0.00550024
0.00781761
-0.00551628
0.00805897
-0.005499
0.00829352
-0.00545332
0.00852202
-0.00538386
0.00874526
-0.00529492
0.00896399
-0.00519044
0.00917902
-0.00507408
0.0093913
-0.00494813
-0.00481212
0.00960248
2.34596e-05
0.000783035
8.51424e-05
0.00205362
0.000179154
0.00309367
0.000300744
0.00388504
0.000446215
0.00443243
0.000612765
0.00475291
0.000798402
0.00486853
0.00100179
0.00480331
0.00122204
0.00458158
0.00145857
0.00422698
0.00171082
0.00376196
0.0019782
0.00320765
0.0022599
0.00258391
0.00255483
0.00190942
0.0028616
0.0012018
0.00317849
0.000477591
0.0035035
-0.00024775
0.00383438
-0.000960047
0.00416876
-0.00164658
0.00450421
-0.00229629
0.00483836
-0.00289999
0.00516902
-0.00345047
0.00549419
-0.00394258
0.00581224
-0.00437324
0.00612187
-0.00474125
0.00642214
-0.00504716
0.00671251
-0.005293
0.00699276
-0.00548196
0.00726299
-0.00561817
0.00752355
-0.00570638
0.00777499
-0.00575169
0.00801803
-0.00575932
0.00825346
-0.00573443
0.00848214
-0.005682
0.00870494
-0.00560665
0.00892271
-0.00551269
0.00913629
-0.00540401
0.0093465
-0.0052843
0.00955435
-0.00515598
-0.00501924
0.00976146
2.35146e-05
0.00075952
8.64419e-05
0.00199069
0.000183452
0.00299666
0.000310079
0.00375841
0.000462679
0.00427983
0.000638357
0.00457723
0.000834917
0.00467197
0.00105075
0.00458747
0.00128469
0.00434764
0.00153582
0.00397585
0.00180328
0.0034945
0.00208615
0.00292478
0.00238331
0.00228674
0.00269339
0.00159935
0.00301467
0.000880513
0.00334517
0.000147094
0.00368261
-0.000585191
0.00402453
-0.00130197
0.00436836
-0.00199041
0.00471155
-0.00263948
0.00505166
-0.0032401
0.00538646
-0.00378526
0.00571402
-0.00427015
0.00603281
-0.00469202
0.00634166
-0.0050501
0.00663984
-0.00534534
0.00692698
-0.00558014
0.00720309
-0.00575807
0.00746847
-0.00588356
0.00772368
-0.00596159
0.00796947
-0.00599747
0.0082067
-0.00599655
0.00843632
-0.00596406
0.00865931
-0.00590498
0.00887663
-0.00582397
0.00908922
-0.00572527
0.00929796
-0.00561275
0.00950371
-0.00549006
0.00970747
-0.00535974
-0.00522267
0.00991091
2.33998e-05
0.000736121
8.71784e-05
0.00192691
0.000186647
0.0028972
0.000317676
0.00362738
0.000476732
0.00412078
0.000660863
0.0043931
0.000867703
0.00446513
0.00109541
0.00435977
0.00134252
0.00410053
0.0016078
0.00371057
0.00189009
0.00321221
0.00218814
0.00262673
0.00250049
0.00197439
0.00282544
0.0012744
0.00316097
0.00054498
0.00350478
-0.000196716
0.00385433
-0.000934733
0.0042069
-0.00165454
0.00455975
-0.00234326
0.00491019
-0.00298992
0.00525572
-0.00358563
0.00559412
-0.00412366
0.00592354
-0.00459957
0.00624254
-0.00501103
0.00655016
-0.00535771
0.00684582
-0.00564101
0.0071294
-0.00586372
0.00740112
-0.00602978
0.00766149
-0.00614393
0.00791128
-0.00621139
0.00815142
-0.00623761
0.00838293
-0.00622806
0.0086069
-0.00618803
0.00882442
-0.0061225
0.00903654
-0.00603609
0.00924425
-0.00593299
0.0094485
-0.00581699
0.00965016
-0.00569172
0.00985024
-0.00555983
-0.00542284
0.0100504
2.31387e-05
0.000712982
8.74242e-05
0.00186263
0.000188867
0.00279575
0.000323727
0.00349252
0.000488618
0.00395589
0.000680572
0.00420115
0.000897087
0.00424861
0.0011361
0.00412076
0.00139587
0.00384076
0.00167488
0.00343157
0.00197161
0.00291547
0.00228449
0.00231385
0.00261172
0.00164716
0.00295123
0.000934887
0.00330068
0.000195536
0.00365742
-0.000553461
0.00401863
-0.00129594
0.00438136
-0.00201727
0.00474267
-0.00270457
0.00509977
-0.00334702
0.0054501
-0.00393596
0.00579147
-0.00446504
0.00612213
-0.00493023
0.00644079
-0.00532969
0.00674665
-0.00566358
0.00703938
-0.00593373
0.00731906
-0.0061434
0.00758614
-0.00629687
0.00784136
-0.00639915
0.00808569
-0.00645571
0.00832022
-0.00647214
0.00854614
-0.00645398
0.00876466
-0.00640655
0.00897696
-0.0063348
0.00918417
-0.00624331
0.00938736
-0.00613617
0.00958747
-0.00601711
0.00978544
-0.00588968
0.00998226
-0.00575664
-0.00562016
0.0101796
2.27567e-05
0.000690225
8.72605e-05
0.00179812
0.000190263
0.00269275
0.00032845
0.00335433
0.000498626
0.00378571
0.000697837
0.00400194
0.000923472
0.00402298
0.00117327
0.00387096
0.00144524
0.00356879
0.00173753
0.00313927
0.00204833
0.00260467
0.00237568
0.0019865
0.00271742
0.00130542
0.00307112
0.000581189
0.00343406
-0.000167399
0.00380326
-0.000922664
0.0041756
-0.00166828
0.00454788
-0.00238955
0.00491699
-0.00307369
0.00528004
-0.00371007
0.00563445
-0.00429036
0.00597808
-0.00480867
0.00630929
-0.00526144
0.00662698
-0.00564738
0.00693055
-0.00596715
0.0072199
-0.00622308
0.00749534
-0.00641884
0.00775756
-0.00655909
0.00800752
-0.00664911
0.00824637
-0.00669456
0.00847537
-0.00670115
0.00869586
-0.00667447
0.00890915
-0.00661984
0.00911652
-0.00654217
0.00931916
-0.00644595
0.00951816
-0.00633518
0.00971454
-0.00621349
0.00990921
-0.00608435
0.0101032
-0.00595061
-0.00581505
0.0102981
2.22816e-05
0.000667944
8.67749e-05
0.00173363
0.000190998
0.00258853
0.000332094
0.00321324
0.000507085
0.00361072
0.000713063
0.00379596
0.000947331
0.00378871
0.00120745
0.00361084
0.00149117
0.00328506
0.00179636
0.00283408
0.00212083
0.0022802
0.00246227
0.00164506
0.00281812
0.00094957
0.00318556
0.000213751
0.00356148
-0.00054332
0.00394256
-0.00130375
0.00432537
-0.00205109
0.00470647
-0.00277065
0.0050826
-0.00344982
0.00545078
-0.00407824
0.00580844
-0.00464803
0.00615353
-0.00515376
0.00648457
-0.00559248
0.00680063
-0.00596344
0.00710135
-0.00626787
0.00738687
-0.0065086
0.00765775
-0.00668973
0.00791491
-0.00681625
0.00815951
-0.00689372
0.0083929
-0.00692795
0.00861649
-0.00692474
0.00883174
-0.00688972
0.00904006
-0.00682816
0.0092428
-0.00674491
0.0094412
-0.00664435
0.00963639
-0.00653037
0.0098294
-0.00640649
0.0100212
-0.00627611
0.0102127
-0.00614211
-0.0060079
0.0104055
2.17431e-05
0.000646201
8.60597e-05
0.00166931
0.000191247
0.00248334
0.000334924
0.00306956
0.000514354
0.00343129
0.000726695
0.00358362
0.000969186
0.00354622
0.00123922
0.00334081
0.00153431
0.00298997
0.00185201
0.00251639
0.00218977
0.00194244
0.00254489
0.00128995
0.0029144
0.00058006
0.00329506
-0.000166906
0.00368336
-0.000931622
0.00407562
-0.00169601
0.00446812
-0.00244358
0.00485719
-0.00315972
0.00523943
-0.00383206
0.00561181
-0.00445063
0.00597181
-0.00500803
0.0063175
-0.00549945
0.00664756
-0.00592254
0.0069613
-0.00627718
0.0072586
-0.00656517
0.00753985
-0.00678985
0.00780587
-0.00695574
0.00805779
-0.00706817
0.00829699
-0.00713292
0.00852497
-0.00715593
0.00874329
-0.00714306
0.00895352
-0.00709995
0.00915715
-0.00703179
0.00935559
-0.00694334
0.00955011
-0.00683887
0.00974186
-0.00672213
0.00993187
-0.00659651
0.0101211
-0.00646532
0.0103105
-0.00633151
-0.00619905
0.0105016
2.11717e-05
0.000625029
8.521e-05
0.00160527
0.000191191
0.00237736
0.000337219
0.00292353
0.000520808
0.0032477
0.000739201
0.00336523
0.00098959
0.00329583
0.00126921
0.00306119
0.00157533
0.00268385
0.00190517
0.00218655
0.00225584
0.00159178
0.00262419
0.00092159
0.00300685
0.000197406
0.00340012
-0.000560177
0.00380009
-0.0013316
0.00420273
-0.00209865
0.00460401
-0.00284485
0.00500006
-0.00355578
0.00538739
-0.00421939
0.00576296
-0.00482619
0.00612431
-0.00536938
0.00646966
-0.00584481
0.00679793
-0.0062508
0.00710864
-0.0065879
0.00740196
-0.00685848
0.00767852
-0.00706641
0.00793939
-0.00721662
0.00818594
-0.00731472
0.00841971
-0.00736669
0.00864237
-0.00737859
0.00885561
-0.00735631
0.00906108
-0.00730541
0.00926033
-0.00723104
0.0094548
-0.00713782
0.00964579
-0.00702986
0.00983447
-0.0069108
0.0100218
-0.00678388
0.0102089
-0.00665233
0.0103965
-0.00651913
-0.00638881
0.0105862
2.05984e-05
0.00060443
8.43215e-05
0.00154155
0.000191012
0.00227067
0.000339258
0.00277529
0.000526829
0.00306013
0.000751062
0.00314099
0.00100911
0.00303778
0.00129805
0.00277225
0.0016149
0.002367
0.00195656
0.00184489
0.00231972
0.00122861
0.00270084
0.000540473
0.00309606
-0.000197809
0.00350124
-0.00096536
0.00391206
-0.00174242
0.00432414
-0.00251073
0.00473316
-0.00325388
0.00513511
-0.00395773
0.0055264
-0.00461068
0.00590403
-0.00520382
0.00626567
-0.00573102
0.00660973
-0.00618887
0.00693535
-0.00657642
0.00724234
-0.00689489
0.00753112
-0.00714726
0.0078026
-0.0073379
0.00805809
-0.00747211
0.00829915
-0.00755578
0.00852753
-0.00759506
0.00874501
-0.00759607
0.00895338
-0.00756468
0.00915436
-0.00750639
0.00934956
-0.00742623
0.00954042
-0.00732868
0.00972825
-0.00721769
0.0099142
-0.00709675
0.0100993
-0.00696896
0.0102844
-0.00683746
0.0104706
-0.00670527
-0.00657749
0.0106592
2.00529e-05
0.000584377
8.34883e-05
0.00147812
0.000190892
0.00216326
0.000341318
0.00262486
0.000532794
0.00286866
0.000762749
0.00291104
0.0010283
0.00277223
0.00132636
0.00247419
0.00165369
0.00203967
0.00200684
0.00149174
0.00238209
0.000853354
0.00277544
0.000147126
0.00318255
-0.000604923
0.00359885
-0.00138165
0.00401958
-0.00216316
0.00444002
-0.00293117
0.00485564
-0.00366949
0.00526227
-0.00436436
0.00565631
-0.00500472
0.00603482
-0.00558233
0.00639565
-0.00609185
0.00673743
-0.00653065
0.00705956
-0.00689855
0.00736213
-0.00719746
0.00764586
-0.00743099
0.00791191
-0.00760395
0.00816182
-0.00772201
0.00839735
-0.00779131
0.0086204
-0.00781811
0.00883287
-0.00780854
0.00903663
-0.00776844
0.00923344
-0.00770321
0.00942493
-0.00761772
0.00961254
-0.0075163
0.00979758
-0.00740273
0.00998115
-0.00728032
0.0101643
-0.00715207
0.0103478
-0.00702101
0.0105327
-0.00689021
-0.00676532
0.0107206
1.95636e-05
0.000564813
8.28e-05
0.00141488
0.000191001
0.00205506
0.000343664
0.0024722
0.000539063
0.00267326
0.000774717
0.00267538
0.00104769
0.00249926
0.00135473
0.00216714
0.00169232
0.00170209
0.00205663
0.00112743
0.00244353
0.000466458
0.00284851
-0.000257858
0.00326677
-0.00102318
0.00369326
-0.00180814
0.00412284
-0.00259274
0.00455048
-0.0033588
0.00497142
-0.00409044
0.00538143
-0.00477437
0.00577692
-0.00540021
0.00615509
-0.0059605
0.00651398
-0.00645074
0.00685249
-0.00686916
0.0071703
-0.00721636
0.00746782
-0.00749498
0.00774602
-0.00770919
0.00800634
-0.00786427
0.00825052
-0.0079662
0.00848052
-0.00802131
0.00869836
-0.00803594
0.00890603
-0.00801621
0.00910547
-0.00796788
0.00929845
-0.00789619
0.0094866
-0.00780587
0.00967134
-0.00770104
0.00985394
-0.00758533
0.0100355
-0.00746186
0.0102169
-0.0073335
0.0103991
-0.00720322
0.010583
-0.00707414
-0.00695248
0.0107702
1.91567e-05
0.000545656
8.23396e-05
0.0013517
0.000191498
0.00194591
0.000346542
0.00231715
0.000545971
0.00247383
0.000787381
0.00243397
0.00106777
0.00221887
0.0013837
0.00185122
0.00173134
0.00135445
0.00210648
0.000752282
0.00250453
6.84123e-05
0.00292048
-0.000673813
0.00334904
-0.00145174
0.00378471
-0.00224381
0.00422196
-0.00302999
0.00465549
-0.00379233
0.0050804
-0.00451535
0.0054924
-0.00518638
0.00588801
-0.00579581
0.00626458
-0.00633707
0.0066204
-0.00680657
0.00695467
-0.00720343