/*--------------------------------*- C++ -*----------------------------------*\
  =========                 |
  \\      /  F ield         | OpenFOAM: The Open Source CFD Toolbox
   \\    /   O peration     | Website:  https://openfoam.org
    \\  /    A nd           | Version:  7
     \\/     M anipulation  |
\*---------------------------------------------------------------------------*/
FoamFile
{
    version     2.0;
    format      ascii;
    class       surfaceScalarField;
    location    "1.8";
    object      phi;
}
// * * * * * * * * * * * * * * * * * * * * * * * * * * * * * * * * * * * * * //

dimensions      [0 3 -1 0 0 0 0];

internalField   nonuniform List<scalar> 
63520
(
-1.53272e-05
0.00129554
-0.00128022
-5.1208e-05
0.00320644
-0.00317056
-0.000102322
0.00459852
-0.0045474
-0.000162168
0.00552077
-0.00546092
-0.000223617
0.00604679
-0.00598534
-0.00027952
0.00625346
-0.00619756
-0.000323264
0.00621082
-0.00616708
-0.000349101
0.00597831
-0.00595248
-0.000352332
0.00560495
-0.00560172
-0.00032937
0.00513036
-0.00515332
-0.000277724
0.00458666
-0.00463831
-0.00019596
0.00400021
-0.00408198
-8.36087e-05
0.00339277
-0.00350512
5.89254e-05
0.00278245
-0.00292499
0.000230479
0.00218431
-0.00235586
0.000429246
0.00161072
-0.00180949
0.000652887
0.00107159
-0.00129523
0.000898683
0.000574445
-0.000820242
0.00116367
0.000124672
-0.000389656
0.00144473
-0.00027436
-6.70693e-06
0.00173878
-0.000621145
0.000327101
0.0020428
-0.000915778
0.000611758
0.00235396
-0.00115965
0.000848497
0.00266964
-0.00135525
0.00103956
0.00298756
-0.00150585
0.00118793
0.00330572
-0.00161529
0.00129713
0.00362243
-0.00168772
0.00137101
0.0039363
-0.0017274
0.00141354
0.00424623
-0.00173858
0.00142865
0.00455138
-0.00172532
0.00142017
0.00485116
-0.00169144
0.00139167
0.00514513
-0.00164046
0.00134648
0.00543306
-0.00157553
0.0012876
0.00571483
-0.00149948
0.00121772
0.00599041
-0.00141477
0.00113918
0.00625987
-0.00132353
0.00105407
0.0065233
-0.00122763
0.0009642
0.00678078
-0.00112879
0.000871302
0.0070324
-0.00102647
0.000774856
-0.000915363
0.00727805
0.000669712
-1.1478e-05
0.00130702
-3.94091e-05
0.00323437
-7.9873e-05
0.00463898
-0.000127556
0.00556845
-0.000176138
0.00609537
-0.000219031
0.00629635
-0.000249966
0.00624175
-0.00026341
0.00599175
-0.000254771
0.00559631
-0.00022053
0.00509611
-0.000158256
0.00452439
-6.65437e-05
0.0039085
5.50743e-05
0.00327115
0.000206195
0.00263133
0.00038563
0.00200487
0.000591549
0.0014048
0.000821604
0.000841531
0.00107304
0.000323008
0.00134286
-0.000145144
0.00162796
-0.000559457
0.00192523
-0.000918419
0.00223167
-0.00122222
0.00254448
-0.00147246
0.0028611
-0.00167187
0.0031793
-0.00182404
0.00349713
-0.00193312
0.00381299
-0.00200357
0.00412557
-0.00203999
0.00443387
-0.00204688
0.00473711
-0.00202857
0.00503478
-0.00198911
0.00532654
-0.00193221
0.0056122
-0.00186119
0.0058917
-0.00177899
0.0061651
-0.00168817
0.0064325
-0.00159093
0.00669403
-0.00148916
0.00694984
-0.00138459
0.00720003
-0.00127666
-0.00115997
0.00744463
-7.72581e-06
0.00131475
-2.7613e-05
0.00325425
-5.72379e-05
0.00466861
-9.24369e-05
0.00560365
-0.000127711
0.00613064
-0.00015706
0.0063257
-0.000174574
0.00625927
-0.000174985
0.00599217
-0.000153842
0.00557517
-0.000107722
0.00504999
-3.42317e-05
0.0044509
6.80185e-05
0.00380625
0.000199452
0.00313972
0.00035963
0.00247116
0.000547346
0.00181716
0.00076073
0.00119142
0.000997388
0.000604873
0.00125455
6.58506e-05
0.00152919
-0.000419788
0.0018182
-0.000848466
0.00211847
-0.00121869
0.00242704
-0.00153078
0.00274112
-0.00178654
0.00305824
-0.00198899
0.00337622
-0.00214202
0.00369321
-0.00225011
0.0040077
-0.00231806
0.00431847
-0.00235076
0.0046246
-0.002353
0.00492542
-0.00232939
0.0052205
-0.00228419
0.00550958
-0.00222128
0.00579254
-0.00214415
0.00606939
-0.00205584
0.00634025
-0.00195902
0.00660525
-0.00185594
0.00686459
-0.0017485
0.00711844
-0.00163845
0.00736698
-0.0015252
-0.00140329
0.0076103
-4.0727e-06
0.00131882
-1.59732e-05
0.00326616
-3.46809e-05
0.00468732
-5.7168e-05
0.00562614
-7.8769e-05
0.00615224
-9.40883e-05
0.00634102
-9.76398e-05
0.00626282
-8.44156e-05
0.00597894
-5.01337e-05
0.00554089
8.52253e-06
0.00499134
9.38641e-05
0.00436556
0.000207224
0.00369289
0.000348993
0.00299795
0.000518689
0.00230146
0.000715047
0.0016208
0.000936157
0.000970306
0.00117959
0.000361438
0.00144253
-0.00019709
0.00172194
-0.000699193
0.0020147
-0.00114122
0.00231772
-0.00152171
0.00262806
-0.00184112
0.002943
-0.00210149
0.00326015
-0.00230614
0.00357742
-0.00245928
0.00389305
-0.00256574
0.00420562
-0.00263064
0.00451403
-0.00265917
0.00481747
-0.00265644
0.00511537
-0.00262729
0.00540738
-0.0025762
0.00569332
-0.00250723
0.00597317
-0.002424
0.00624701
-0.00232968
0.00651498
-0.00222699
0.00677728
-0.00211824
0.00703415
-0.00200537
0.00728581
-0.00189011
0.00753248
-0.00177187
-0.00164514
0.00777433
-5.94384e-07
0.00131941
-4.57118e-06
0.00327013
-1.23701e-05
0.00469511
-2.20072e-05
0.00563577
-2.96763e-05
0.00615991
-3.05901e-05
0.00634193
-1.96985e-05
0.00625193
7.72039e-06
0.00595152
5.57217e-05
0.00549288
0.000127497
0.00491956
0.000225277
0.00426777
0.000350319
0.00356785
0.000502939
0.00284533
0.000682592
0.00212181
0.000887957
0.00141544
0.00111706
0.000741206
0.0013674
0.000111094
0.00163614
-0.000465833
0.00192023
-0.000983283
0.00221655
-0.00143754
0.00252202
-0.00182719
0.00283376
-0.00215286
0.00314915
-0.00241687
0.00346585
-0.00262284
0.00378188
-0.00277532
0.00409561
-0.00287947
0.00440573
-0.00294076
0.00471126
-0.0029647
0.00501149
-0.00295668
0.00530598
-0.00292177
0.00559445
-0.00286468
0.00587684
-0.00278962
0.00615319
-0.00270035
0.00642364
-0.00260013
0.0066884
-0.00249175
0.00694772
-0.00237756
0.00720187
-0.00225952
0.00745111
-0.00213935
0.00769572
-0.00201648
-0.00188537
0.00793595
2.79965e-06
0.00131661
6.53182e-06
0.0032664
9.54011e-06
0.00469211
1.27624e-05
0.00563255
1.91986e-05
0.00615347
3.30039e-05
0.00632813
5.87542e-05
0.00622618
0.000100851
0.00590942
0.000163125
0.00543061
0.000248605
0.00483408
0.000359392
0.00415699
0.000496646
0.00343059
0.000660605
0.00268137
0.000850628
0.00193178
0.00106531
0.00120076
0.00130259
0.000503919
0.00155995
-0.000146258
0.00183448
-0.000740365
0.00212312
-0.00127192
0.00242275
-0.00173717
0.00273037
-0.0021348
0.00304312
-0.00246562
0.00335849
-0.00273224
0.00367425
-0.00293859
0.00398853
-0.0030896
0.00429983
-0.00319077
0.00460698
-0.00324791
0.00490912
-0.00326684
0.00520566
-0.00325322
0.00549626
-0.00321238
0.00578078
-0.00314919
0.00605921
-0.00306805
0.00633169
-0.00297283
0.00659842
-0.00286686
0.00685967
-0.002753
0.00711573
-0.00263362
0.00736692
-0.00251071
0.00761353
-0.00238596
0.00785588
-0.00225883
-0.00212378
0.00809429
5.99267e-06
0.00131062
1.72326e-05
0.00325516
3.08833e-05
0.00467845
4.69248e-05
0.00561651
6.75491e-05
0.00613285
9.62856e-05
0.00629939
0.000137237
0.00618522
0.000194447
0.00585221
0.000271479
0.00535358
0.000371172
0.00473439
0.000495485
0.00403267
0.00064545
0.00328063
0.000821178
0.00250564
0.00102192
0.00173104
0.00124618
0.000976498
0.00149182
0.000258277
0.00175624
-0.000410671
0.0020365
-0.00102063
0.00232953
-0.00156495
0.00263224
-0.00203988
0.00294165
-0.0024442
0.00325502
-0.00277899
0.00356991
-0.00304713
0.00388424
-0.00325292
0.00419627
-0.00340163
0.00450464
-0.00349914
0.00480831
-0.00355158
0.00510656
-0.00356509
0.00539895
-0.00354561
0.00568524
-0.00349867
0.0059654
-0.00342935
0.00623951
-0.00334217
0.0065078
-0.00324111
0.00677051
-0.00312958
0.00702798
-0.00301047
0.00728054
-0.00288619
0.00752854
-0.00275871
0.00777232
-0.00262974
0.00801222
-0.00249874
-0.00236021
0.00824865
8.986e-06
0.00130164
2.74639e-05
0.00323668
5.15242e-05
0.00465439
8.02436e-05
0.00558779
0.000115058
0.00609803
0.000158872
0.00625558
0.000215278
0.00612882
0.000287947
0.00577954
0.000380158
0.00526137
0.000494523
0.00462002
0.00063282
0.00389438
0.000795922
0.00311753
0.000983799
0.00231777
0.00119558
0.00151926
0.00142964
0.000742439
0.00168375
4.16582e-06
0.00195523
-0.000682157
0.00224114
-0.00130653
0.00253837
-0.00186219
0.00284387
-0.00234538
0.00315473
-0.00275506
0.0034683
-0.00309257
0.00378228
-0.00336111
0.0040947
-0.00356535
0.00440399
-0.00371093
0.00470894
-0.00380408
0.00500866
-0.0038513
0.00530258
-0.00385902
0.0055904
-0.00383342
0.00587199
-0.00378026
0.00614743
-0.00370479
0.0064169
-0.00361165
0.00668069
-0.0035049
0.00693913
-0.00338802
0.00719258
-0.00326392
0.00744143
-0.00313503
0.00768606
-0.00300333
0.00792682
-0.0028705
0.0081641
-0.00273602
-0.00259449
0.00839838
1.17689e-05
0.00128987
3.71586e-05
0.00321129
7.13242e-05
0.00462023
0.000112515
0.0055466
0.000161435
0.00604911
0.000220373
0.00619664
0.00029241
0.00605678
0.000380813
0.00569114
0.000488546
0.00515363
0.000617967
0.0044906
0.000770642
0.0037417
0.000947253
0.00294091
0.0011476
0.00211741
0.00137067
0.0012962
0.0016147
0.000498411
0.00187735
-0.00025849
0.00215589
-0.000960695
0.00244732
-0.00159796
0.00274854
-0.00216341
0.00305653
-0.00265337
0.00336848
-0.00306701
0.00368185
-0.00340594
0.00399446
-0.00367373
0.00430452
-0.00387541
0.00461062
-0.00401702
0.00491169
-0.00410515
0.00520703
-0.00414664
0.00549621
-0.0041482
0.00577907
-0.00411628
0.00605562
-0.00405681
0.00632603
-0.0039752
0.00659059
-0.0038762
0.00684964
-0.00376395
0.00710358
-0.00364195
0.00735281
-0.00351316
0.00759777
-0.00337999
0.00783885
-0.00324441
0.00807644
-0.00310809
0.00831095
-0.00297054
-0.00282645
0.00854292
1.43274e-05
0.00127554
4.62634e-05
0.00317935
9.01664e-05
0.00457632
0.000143542
0.00549322
0.000206405
0.00598625
0.000280432
0.00612261
0.000368188
0.00596902
0.000472517
0.00558681
0.000596041
0.00503011
0.000740832
0.00434581
0.000908207
0.00357433
0.00109864
0.00275049
0.00131172
0.00190433
0.00154628
0.00106164
0.00180039
0.000244295
0.00207163
-0.000529725
0.00235716
-0.00124623
0.00265395
-0.00189475
0.00295892
-0.00246838
0.00326911
-0.00296355
0.00358178
-0.00337968
0.00389454
-0.0037187
0.00420537
-0.00398455
0.00451263
-0.00418267
0.00481508
-0.00431947
0.00511186
-0.00440193
0.00540243
-0.0044372
0.00568651
-0.00443229
0.00596409
-0.00439385
0.0062353
-0.00432803
0.00650043
-0.00424033
0.00675984
-0.00413561
0.00701395
-0.00401806
0.00726321
-0.00389121
0.00750807
-0.00375803
0.00774899
-0.00362091
0.00798639
-0.00348181
0.00822067
-0.00334237
0.00845228
-0.00320215
-0.00305597
0.0086818
1.66487e-05
0.00125889
5.47318e-05
0.00314127
0.000107951
0.0045231
0.000173156
0.00542802
0.000249717
0.00590969
0.000338717
0.00603361
0.0004422
0.00586554
0.000562567
0.00546645
0.000702071
0.00489061
0.00086247
0.00418541
0.0010448
0.00339199
0.00124929
0.002546
0.00147532
0.00167829
0.00172151
0.00081546
0.00198578
-1.99813e-05
0.00226558
-0.000809527
0.00255801
-0.00153865
0.00285999
-0.00219673
0.00316845
-0.00277685
0.0034805
-0.00327561
0.00379354
-0.00369271
0.0041053
-0.00403046
0.00441392
-0.00429318
0.00471797
-0.00448671
0.00501638
-0.00461789
0.00530849
-0.00469404
0.00559393
-0.00472264
0.0058726
-0.00471096
0.00614462
-0.00466587
0.00641026
-0.00459366
0.0066699
-0.00449996
0.00692398
-0.00438969
0.007173
-0.00426708
0.00741745
-0.00413567
0.00765783
-0.0039984
0.0078946
-0.00385768
0.00812821
-0.00371542
0.00835909
-0.00357325
0.00858769
-0.00343075
-0.00328292
0.00881463
1.87302e-05
0.00124016
6.25305e-05
0.00309747
0.000124596
0.00446104
0.000201213
0.0053514
0.000291158
0.00581974
0.000394936
0.00592983
0.00051407
0.00574641
0.000650508
0.00533001
0.000806108
0.004735
0.000982278
0.00400924
0.00117975
0.00319452
0.00139848
0.00232727
0.00163759
0.00143918
0.0018955
0.000557555
0.00216996
-0.000294439
0.00245827
-0.00109784
0.00275745
-0.00183783
0.0030644
-0.00250367
0.00337607
-0.00308852
0.00368967
-0.00358921
0.0040027
-0.00400574
0.00431306
-0.00434082
0.00461909
-0.0045992
0.00491953
-0.00478715
0.00521354
-0.0049119
0.00550065
-0.00498115
0.00578066
-0.00500266
0.00605366
-0.00498396
0.0063199
-0.00493212
0.00657978
-0.00485354
0.00683378
-0.00475396
0.00708242
-0.00463834
0.00732625
-0.00451091
0.00756581
-0.00437523
0.00780163
-0.00423422
0.00803419
-0.00409024
0.00826396
-0.00394518
0.00849136
-0.00380065
0.00871685
-0.00365625
-0.00350718
0.00894112
2.05668e-05
0.00121959
6.96353e-05
0.0030484
0.000140042
0.00439063
0.000227603
0.00526384
0.000330549
0.0057168
0.000448837
0.00581154
0.000583477
0.00561177
0.000735942
0.00517754
0.000907675
0.00456327
0.00109971
0.00381721
0.00131244
0.00298179
0.00154551
0.0020942
0.0017978
0.00118689
0.00206746
0.000287894
0.00235207
-0.00057905
0.00264879
-0.00139456
0.00295454
-0.00214359
0.00326621
-0.00281534
0.0035808
-0.00340311
0.00389559
-0.003904
0.00420824
-0.00431839
0.00451683
-0.00464941
0.00481988
-0.00490225
0.00511636
-0.00508363
0.00540564
-0.00520119
0.00568745
-0.00526296
0.0059618
-0.005277
0.00622892
-0.00525109
0.00648922
-0.00519242
0.00674322
-0.00510754
0.00699148
-0.00500222
0.00723461
-0.00488147
0.00747321
-0.00474951
0.00770786
-0.00460988
0.0079391
-0.00446546
0.00816743
-0.00431857
0.00839332
-0.00417107
0.0086172
-0.00402453
0.00883954
-0.00387859
-0.0037287
0.00906105
2.21603e-05
0.00119743
7.60378e-05
0.00299452
0.000154253
0.00431242
0.000252243
0.00516585
0.000367755
0.00560128
0.000500225
0.00567907
0.000650152
0.00546184
0.00081853
0.00500917
0.00100636
0.00437544
0.00121428
0.00360929
0.00144231
0.00275376
0.00168977
0.00184674
0.00195525
0.000921414
0.00223664
6.5059e-06
0.00253131
-0.000873724
0.00283628
-0.00169953
0.0031484
-0.0024557
0.00346451
-0.00313145
0.00378168
-0.00372028
0.00409731
-0.00421963
0.0044092
-0.00463029
0.00471564
-0.00495584
0.00501536
-0.00520197
0.00530755
-0.00537583
0.00559182
-0.00548545
0.00586809
-0.00553923
0.00613658
-0.00554549
0.00639767
-0.00551218
0.00665193
-0.00544668
0.00689998
-0.00535559
0.00714247
-0.00524472
0.00738009
-0.00511908
0.00761347
-0.00498289
0.00784322
-0.00483963
0.00806991
-0.00469214
0.00829403
-0.0045427
0.00851606
-0.0043931
0.00873642
-0.00424489
0.00895559
-0.00409776
-0.00394741
0.0091743
2.35151e-05
0.00117392
8.17399e-05
0.0029363
0.000167214
0.00422694
0.000275088
0.00505797
0.000402687
0.00547368
0.000548955
0.0055328
0.000713892
0.0052969
0.000898003
0.00482505
0.00110183
0.00417162
0.00132558
0.00338554
0.00156889
0.00251044
0.00183073
0.0015849
0.00210935
0.000642795
0.00240238
-0.000286523
0.00270698
-0.00117832
0.00301999
-0.00201255
0.00333819
-0.0027739
0.00365842
-0.00345168
0.00397782
-0.00403968
0.00429391
-0.00453572
0.00460468
-0.00494106
0.0049086
-0.00525976
0.00520466
-0.00549802
0.00549227
-0.00566345
0.00577128
-0.00576446
0.00604182
-0.00580977
0.0063043
-0.00580796
0.00655928
-0.00576717
0.00680745
-0.00569485
0.00704954
-0.00559768
0.00728629
-0.00548148
0.00751844
-0.00535123
0.00774667
-0.00521112
0.0079716
-0.00506456
0.00819381
-0.00491435
0.0084138
-0.00476269
0.00863202
-0.00461133
0.0088489
-0.00446177
0.00906491
-0.00431377
-0.0041633
0.0092808
2.46399e-05
0.00114928
8.67557e-05
0.00287418
0.000178933
0.00413476
0.000296129
0.00494078
0.000435304
0.00533451
0.000594945
0.00537316
0.000774561
0.00511729
0.000974165
0.00462545
0.00119382
0.00395196
0.0014333
0.00314607
0.00169181
0.00225193
0.00196794
0.00130877
0.00225959
0.000351143
0.00256411
-0.000591038
0.00287841
-0.00149262
0.00319921
-0.00233335
0.00352317
-0.00309786
0.00384717
-0.00377568
0.00416842
-0.00436093
0.00448458
-0.00485188
0.00479383
-0.00525031
0.00509488
-0.00556082
0.00538696
-0.0057901
0.00566974
-0.00594623
0.00594328
-0.006038
0.00620795
-0.00607444
0.00646434
-0.00606435
0.00671317
-0.006016
0.00695526
-0.00593694
0.00719144
-0.00583386
0.00742254
-0.00571257
0.00764933
-0.00557802
0.00787252
-0.00543431
0.00809276
-0.0052848
0.00831061
-0.0051322
0.00852658
-0.00497865
0.0087411
-0.00482585
0.00895459
-0.00467526
0.0091675
-0.00452667
-0.0043764
0.00938059
2.55474e-05
0.00112373
9.11115e-05
0.00280862
0.000189444
0.00403643
0.000315391
0.00481483
0.000465611
0.00518429
0.000638168
0.0052006
0.000832092
0.00492336
0.0010469
0.00441064
0.00128218
0.00371668
0.00153721
0.00289104
0.00181077
0.00197836
0.00210104
0.0010185
0.00240555
4.66366e-05
0.00272132
-0.000906817
0.00304506
-0.00181636
0.00337331
-0.00266159
0.00370267
-0.00342722
0.00403003
-0.00410305
0.00435271
-0.00468361
0.00466853
-0.0051677
0.00497589
-0.00555766
0.00527373
-0.00585866
0.00556155
-0.00607792
0.00583926
-0.00622394
0.00610718
-0.00630591
0.00636587
-0.00633314
0.00661613
-0.00631461
0.00685884
-0.0062587
0.00709492
-0.00617302
0.0073253
-0.00606425
0.00755088
-0.00593815
0.00777246
-0.0057996
0.00799079
-0.00565264
0.00820651
-0.00550052
0.00842018
-0.00534588
0.00863229
-0.00519077
0.00884326
-0.00503682
0.00905348
-0.00488548
0.00926339
-0.00473658
-0.00458678
0.00947376
2.62538e-05
0.00109748
9.4845e-05
0.00274003
0.000198801
0.00393248
0.000332935
0.0046807
0.000493663
0.00502356
0.000678658
0.00501561
0.000886489
0.00471553
0.00111618
0.00418095
0.0013668
0.00346606
0.00163716
0.00262068
0.00192557
0.00168995
0.00222975
0.000714318
0.00254687
-0.000270475
0.00287362
-0.00123357
0.00320644
-0.00214919
0.00354174
-0.00299689
0.00387607
-0.00376155
0.00420636
-0.00443333
0.00453002
-0.00500728
0.00484508
-0.00548276
0.00515015
-0.00586274
0.00544446
-0.00615297
0.00572775
-0.0063612
0.0060002
-0.0064964
0.00626237
-0.00656809
0.00651506
-0.00658582
0.00675921
-0.00655876
0.00699586
-0.00649536
0.00722605
-0.00640321
0.0074508
-0.00628899
0.00767103
-0.00615839
0.00788762
-0.00601619
0.00810129
-0.00586631
0.00831271
-0.00571194
0.00852242
-0.00555558
0.00873088
-0.00539923
0.00893849
-0.00524443
0.00914561
-0.0050926
0.00935267
-0.00494364
-0.00479455
0.00956045
2.67782e-05
0.0010707
9.80044e-05
0.0026688
0.000207077
0.0038234
0.000348855
0.00453892
0.000519558
0.00485286
0.000716508
0.00481866
0.000937823
0.00449422
0.00118203
0.00393674
0.0014477
0.0032004
0.00173311
0.00233527
0.00203609
0.00138697
0.00235391
0.000396505
0.0026833
-0.00059987
0.00302065
-0.00157092
0.00336215
-0.00249069
0.00370405
-0.00333879
0.00404286
-0.00410036
0.00437557
-0.00476604
0.00469974
-0.00533145
0.00501359
-0.00579661
0.005316
-0.00616515
0.00560646
-0.00644343
0.00588498
-0.00663972
0.00615202
-0.00676344
0.00640838
-0.00682444
0.00665505
-0.00683249
0.00689316
-0.00679687
0.00712388
-0.00672607
0.00734835
-0.00662769
0.00756766
-0.0065083
0.00778279
-0.00637352
0.00799462
-0.00622802
0.00820391
-0.0060756
0.00841128
-0.00591931
0.00861728
-0.00576158
0.00882233
-0.00560428
0.00902682
-0.00544892
0.00923106
-0.00529685
0.00943547
-0.00514805
-0.00499991
0.00964083
2.71424e-05
0.00104356
0.000100647
0.0025953
0.000214367
0.00370968
0.000363272
0.00439001
0.000543438
0.00467269
0.00075186
0.00461024
0.000986228
0.00425985
0.00124457
0.00367839
0.00152494
0.00292003
0.00182508
0.00203512
0.00214231
0.00106974
0.0024734
6.54169e-05
0.00281467
-0.000941149
0.00316218
-0.00191842
0.00351185
-0.00284037
0.00385982
-0.00368675
0.00420257
-0.00444312
0.00453716
-0.00510064
0.00486133
-0.00565562
0.00517353
-0.0061088
0.00547289
-0.0064645
0.00575919
-0.00672973
0.00603273
-0.00691327
0.00629425
-0.00702496
0.00654475
-0.00707495
0.00678545
-0.00707319
0.00701763
-0.00702905
0.00724259
-0.00695103
0.00746156
-0.00684665
0.00767568
-0.00672242
0.00788598
-0.00658382
0.00809335
-0.00643539
0.00829853
-0.00628078
0.00850216
-0.00612294
0.00870473
-0.00596415
0.00890666
-0.00580621
0.0091083
-0.00565055
0.00930993
-0.00549848
0.00951193
-0.00535005
-0.00520306
0.00971509
2.73706e-05
0.00101618
0.000102837
0.00251983
0.00022078
0.00359174
0.000376338
0.00423445
0.000565479
0.00448355
0.000784908
0.00439081
0.0010319
0.00401286
0.00130398
0.00340631
0.00159867
0.00262534
0.00191317
0.00172062
0.00224425
0.000738666
0.00258819
-0.000278518
0.00294087
-0.00129383
0.00329799
-0.00227554
0.00365527
-0.00319765
0.0040087
-0.00404018
0.00435479
-0.0047892
0.00469069
-0.00543654
0.00501433
-0.00597926
0.0053244
-0.00641887
0.00562033
-0.00676044
0.00590219
-0.00701159
0.00617058
-0.00718166
0.00642648
-0.00728086
0.00667115
-0.00731961
0.00690596
-0.00730801
0.00713237
-0.00725546
0.00735178
-0.00717044
0.00756549
-0.00706037
0.00777472
-0.00693165
0.00798049
-0.0067896
0.00818371
-0.00663861
0.00838512
-0.00648219
0.00858531
-0.00632314
0.00878478
-0.00616362
0.0089839
-0.00600534
0.00918298
-0.00584963
0.00938229
-0.00569779
0.00958218
-0.00554993
-0.0054043
0.00978341
2.74882e-05
0.000988697
0.000104645
0.00244267
0.00022644
0.00346994
0.000388222
0.00407267
0.00058589
0.00428588
0.000815883
0.00416081
0.00107506
0.00375368
0.00136048
0.00312089
0.00166909
0.00231673
0.00199754
0.00139218
0.00234202
0.000394185
0.0026983
-0.0006348
0.00306184
-0.00165737
0.00342797
-0.00264167
0.0037922
-0.00356188
0.00415042
-0.00439841
0.00449918
-0.00513796
0.00483577
-0.00577312
0.00515831
-0.0063018
0.00546579
-0.00672635
0.00575793
-0.00705257
0.00603509
-0.00728876
0.00629817
-0.00744474
0.00654841
-0.0075311
0.00678728
-0.00755848
0.00701634
-0.00753707
0.00723717
-0.00747629
0.00745127
-0.00738454
0.00766002
-0.00726913
0.00786466
-0.00713628
0.00806624
-0.00699118
0.00826565
-0.00683802
0.00846363
-0.00668016
0.00866074
-0.00652025
0.00885744
-0.00636032
0.00905408
-0.00620198
0.00925093
-0.00604648
0.00944824
-0.0058951
0.00964632
-0.00574801
-0.00560392
0.00984594
2.75217e-05
0.000961175
0.000106149
0.00236404
0.000231481
0.00334461
0.000399114
0.00390504
0.000604906
0.00408009
0.00084505
0.00392067
0.00111602
0.00348271
0.00141435
0.00282255
0.00173646
0.00199463
0.00207838
0.00105025
0.00243575
3.68145e-05
0.00280381
-0.00100285
0.00317755
-0.00203111
0.003552
-0.00301612
0.00392245
-0.00393233
0.00428474
-0.0047607
0.00463546
-0.00548868
0.00497207
-0.00610973
0.00529295
-0.00662268
0.00559736
-0.00703076
0.00588534
-0.00734056
0.00615758
-0.00756099
0.00641523
-0.00770239
0.00665979
-0.00777566
0.00689294
-0.00779163
0.00711641
-0.00776054
0.00733189
-0.00769177
0.00754096
-0.00759361
0.00774507
-0.00747323
0.00794546
-0.00733667
0.00814319
-0.00718892
0.00833915
-0.00703398
0.00853405
-0.00687505
0.00872842
-0.00671462
0.0089227
-0.0065546
0.0091172
-0.00639648
0.00931217
-0.00624144
0.00950781
-0.00609074
0.00970442
-0.00594462
-0.00580227
0.00990277
2.74971e-05
0.000933678
0.000107427
0.00228411
0.000236043
0.003216
0.000409213
0.00373187
0.000622776
0.00386653
0.000872697
0.00367075
0.00115505
0.00320036
0.00146589
0.00251171
0.00180104
0.00165948
0.00215594
0.000695357
0.00252562
-0.00033287
0.00290479
-0.00138203
0.00328802
-0.00241434
0.00367001
-0.0033981
0.00404588
-0.00430819
0.00441143
-0.00512626
0.00476335
-0.0058406
0.0050993
-0.00644568
0.00541793
-0.00694131
0.00571881
-0.00733164
0.0060023
-0.00762405
0.00626939
-0.00782808
0.00652152
-0.00795452
0.00676043
-0.00801457
0.00698799
-0.00801918
0.00720606
-0.00797861
0.00741644
-0.00790216
0.00762079
-0.00779797
0.00782058
-0.00767302
0.00801708
-0.00753317
0.00821133
-0.00738317
0.00840421
-0.00722685
0.00859638
-0.00706723
0.00878838
-0.00690662
0.00898059
-0.00674681
0.00917329
-0.00658918
0.00936671
-0.00643486
0.00956102
-0.00628506
0.0097565
-0.0061401
-0.00599969
0.00995392
2.74398e-05
0.000906238
0.000108558
0.002203
0.000240268
0.00308429
0.000418723
0.00355341
0.000639761
0.00364549
0.000899123
0.00341139
0.0011925
0.00290698
0.00151542
0.00218879
0.00186313
0.00131178
0.00223044
0.000328043
0.0026118
-0.000714226
0.00300136
-0.00177159
0.00339328
-0.00280625
0.00378195
-0.00378678
0.00416236
-0.00468861
0.00453032
-0.00549422
0.00488265
-0.00619293
0.00521724
-0.00678027
0.00553303
-0.00725711
0.00582992
-0.00762854
0.0061086
-0.00790273
0.00637036
-0.00808984
0.00661692
-0.00820108
0.00685023
-0.00824788
0.00707233
-0.00824128
0.00728523
-0.00819151
0.0074908
-0.00810773
0.00769075
-0.00799792
0.00788658
-0.00786885
0.00807954
-0.00772613
0.00827068
-0.00757431
0.00846083
-0.00741701
0.00865065
-0.00725704
0.00884062
-0.00709659
0.00903109
-0.00693729
0.00922233
-0.00678042
0.00941452
-0.00662705
0.00960784
-0.00647837
0.00980253
-0.0063348
-0.00619653
0.00999937
2.73749e-05
0.000878863
0.00010962
0.00212075
0.000244298
0.00294961
0.000427851
0.00336986
0.000656121
0.00341722
0.00092463
0.00314288
0.00122867
0.00260294
0.00156325
0.0018542
0.00192301
0.00095202
0.00230214
-5.10846e-05
0.00269446
-0.00110655
0.00309362
-0.00217074
0.00349333
-0.00320596
0.00388776
-0.0041812
0.00427178
-0.00507263
0.00464125
-0.0058637
0.00499317
-0.00654484
0.00532568
-0.00711278
0.00563805
-0.00756948
0.00593052
-0.007921
0.00620409
-0.00817631
0.00646038
-0.00834613
0.00670133
-0.00844204
0.00692913
-0.00847567
0.00714595
-0.0084581
0.00735392
-0.00839947
0.00755498
-0.00830879
0.00775086
-0.00819381
0.00794308
-0.00806106
0.00813287
-0.00791592
0.00832126
-0.0077627
0.00850905
-0.0076048
0.00869686
-0.00744485
0.00888513
-0.00728486
0.0090742
-0.00712635
0.00926429
-0.00697051
0.00945556
-0.00681832
0.00964818
-0.00667099
0.0098424
-0.00652901
-0.00639311
0.010039
2.73265e-05
0.000851537
0.000110687
0.00203739
0.000248268
0.00281203
0.000436796
0.00318133
0.000672111
0.0031819
0.000949508
0.00286548
0.00126388
0.00228857
0.0016097
0.00150838
0.00198097
0.000580743
0.00237126
-0.00044137
0.00277377
-0.00150906
0.00318163
-0.0025786
0.00358819
-0.00361252
0.00398738
-0.00458039
0.00437403
-0.00545927
0.00474408
-0.00623375
0.00509473
-0.0068955
0.00542445
-0.0074425
0.00573284
-0.00787786
0.00602046
-0.00820863
0.00628868
-0.00844452
0.00653936
-0.00859681
0.00677473
-0.00867741
0.00699712
-0.00869807
0.00720887
-0.00866985
0.00741218
-0.00860278
0.00760903
-0.00850564
0.00780119
-0.00838597
0.00799015
-0.00825002
0.00817714
-0.00810291
0.00836314
-0.0079487
0.00854891
-0.00779057
0.00873504
-0.00763098
0.00892194
-0.00747176
0.0091099
-0.00731431
0.00929912
-0.00715973
0.00948975
-0.00700896
0.00968195
-0.00686318
0.00987596
-0.00672302
-0.00658973
0.0100726
2.73177e-05
0.000824219
0.00011183
0.00195288
0.000252308
0.00267155
0.000445745
0.00298789
0.000687968
0.00293968
0.000974033
0.00257941
0.00129841
0.00196419
0.00165503
0.00115177
0.00203725
0.000198519
0.00243799
-0.000842105
0.00284985
-0.00192092
0.00326546
-0.00299422
0.00367785
-0.00402491
0.00408075
-0.0049833
0.00446899
-0.00584751
0.00483866
-0.00660342
0.00518721
-0.00724406
0.00551344
-0.00776872
0.00581729
-0.00818171
0.00609969
-0.00849104
0.00636232
-0.00870715
0.00660732
-0.00884182
0.00683713
-0.00890722
0.00705427
-0.0089152
0.00726116
-0.00887675
0.00746008
-0.0088017
0.00765305
-0.00869861
0.00784183
-0.00857475
0.00802789
-0.00843608
0.00821242
-0.00828744
0.00839637
-0.00813265
0.00858045
-0.00797466
0.00876521
-0.00781574
0.00895103
-0.00765757
0.00913815
-0.00750144
0.00932675
-0.00734833
0.00951698
-0.00719918
0.00970898
-0.00705518
0.00990301
-0.00691705
-0.00678662
0.0100999
2.73696e-05
0.000796849
0.000113111
0.00186713
0.000256536
0.00252812
0.000454873
0.00278956
0.000703912
0.00269064
0.000998451
0.00228487
0.00133253
0.00163012
0.00169948
0.000784813
0.00209205
-0.000194045
0.00250247
-0.00125253
0.00292277
-0.00234122
0.00334513
-0.00341658
0.00376225
-0.00444203
0.00416777
-0.00538881
0.00455654
-0.00623629
0.00492487
-0.00697174
0.00527049
-0.00758968
0.00559253
-0.00809077
0.00589133
-0.00848051
0.00616817
-0.00876787
0.00642501
-0.00896399
0.00666429
-0.00908109
0.00688862
-0.00913156
0.00710066
-0.00912724
0.00730293
-0.00907902
0.00749775
-0.00899652
0.00768716
-0.00888802
0.00787289
-0.00876048
0.00805639
-0.00861958
0.0082388
-0.00846986
0.00842103
-0.00831487
0.00860373
-0.00815737
0.00878741
-0.00799942
0.0089724
-0.00784256
0.00915893
-0.00768796
0.00934713
-0.00753654
0.00953714
-0.00738919
0.0097291
-0.00724715
0.00992333
-0.00711128
-0.00698397
0.0101207
2.75008e-05
0.000769348
0.000114587
0.00178005
0.000261058
0.00238165
0.000464331
0.00258629
0.000720131
0.00243484
0.00102297
0.00198203
0.00136643
0.00128666
0.00174326
0.00040799
0.00214551
-0.000596299
0.0025648
-0.00167182
0.00299259
-0.00276901
0.00342062
-0.0038446
0.00384135
-0.00486276
0.00424834
-0.00579581
0.00463658
-0.00662453
0.0050026
-0.00733776
0.00534446
-0.00793155
0.00566168
-0.00840799
0.00595495
-0.00877379
0.00622591
-0.00903883
0.00647682
-0.0092149
0.00671035
-0.00931462
0.00692929
-0.0093505
0.00713641
-0.00933437
0.00733431
-0.00927692
0.00752533
-0.00918753
0.00771149
-0.00907418
0.0078945
-0.0089435
0.00807577
-0.00880084
0.00825638
-0.00865047
0.00843719
-0.00849568
0.00861881
-0.00833899
0.00880168
-0.00818228
0.00898608
-0.00802696
0.00917221
-0.00787408
0.00936018
-0.00772451
0.0095501
-0.00757912
0.00974216
-0.0074392
0.00993667
-0.00730579
-0.00718188
0.0101346
2.77267e-05
0.000741621
0.000116309
0.00169146
0.000265963
0.002232
0.000474248
0.002378
0.000736785
0.00217231
0.00104778
0.00167104
0.0014003
0.000934133
0.00178649
2.18017e-05
0.00219774
-0.00100755
0.00262503
-0.0020991
0.00305928
-0.00320326
0.00349185
-0.00427718
0.00391502
-0.00528592
0.00432235
-0.00620314
0.00470899
-0.00701117
0.00507174
-0.00770051
0.00540906
-0.00826886
0.00572084
-0.00871977
0.00600815
-0.0090611
0.00627296
-0.00930364
0.00651783
-0.00945977
0.00674563
-0.00954241
0.0069593
-0.00956417
0.00716171
-0.00953678
0.00735549
-0.0094707
0.00754298
-0.00937502
0.0077262
-0.0092574
0.00790681
-0.00912411
0.00808615
-0.00898019
0.00826527
-0.00882959
0.00844495
-0.00867536
0.00862575
-0.00851979
0.00880804
-0.00836458
0.00899207
-0.00821099
0.00917798
-0.00805999
0.00936586
-0.00791238
0.00955579
-0.00776905
0.00974798
-0.00763138
0.0099428
-0.00750061
-0.00738036
0.0101413
2.80601e-05
0.000713561
0.000118316
0.00160121
0.000271324
0.00207899
0.000484725
0.0021646
0.000753996
0.00190304
0.00107298
0.00135205
0.00143424
0.000572876
0.00182926
-0.000373218
0.00224878
-0.00142707
0.00268314
-0.00253346
0.00312278
-0.0036429
0.00355873
-0.00471313
0.00398315
-0.00571034
0.00438966
-0.00660965
0.00477363
-0.00739514
0.00513221
-0.00805909
0.00546424
-0.00860089
0.00577001
-0.00902554
0.00605097
-0.00934207
0.00630942
-0.00956209
0.00654818
-0.00969852
0.00677028
-0.00976452
0.00697882
-0.00977272
0.00717672
-0.00973467
0.00736663
-0.00966061