/*--------------------------------*- C++ -*----------------------------------*\
  =========                 |
  \\      /  F ield         | OpenFOAM: The Open Source CFD Toolbox
   \\    /   O peration     | Website:  https://openfoam.org
    \\  /    A nd           | Version:  7
     \\/     M anipulation  |
\*---------------------------------------------------------------------------*/
FoamFile
{
    version     2.0;
    format      ascii;
    class       volVectorField;
    location    "1.8";
    object      U;
}
// * * * * * * * * * * * * * * * * * * * * * * * * * * * * * * * * * * * * * //

dimensions      [0 1 -1 0 0 0 0];

internalField   nonuniform List<vector> 
32000
(
(-0.00108209 0.0515189 -1.44703e-21)
(-0.0042027 0.127541 0)
(-0.00888113 0.182907 -1.28981e-20)
(-0.013948 0.219595 0)
(-0.0188879 0.240567 1.3449e-20)
(-0.0231422 0.248907 0)
(-0.0262709 0.247412 1.39122e-20)
(-0.0279495 0.238448 -1.05764e-20)
(-0.0279725 0.223958 4.2681e-24)
(-0.0262383 0.205507 4.56791e-24)
(-0.0227303 0.184358 -3.65335e-21)
(-0.0174974 0.161544 1.47268e-20)
(-0.0106458 0.137915 0)
(-0.00233004 0.114178 -3.74589e-21)
(0.00726605 0.0909167 3.7614e-21)
(0.0179419 0.0686122 0)
(0.0294856 0.0476478 1.89854e-20)
(0.0416848 0.0283156 -3.81221e-21)
(0.0543339 0.0108232 0)
(0.0672375 -0.00469904 7.68497e-21)
(0.0802179 -0.0181923 7.6689e-21)
(0.0931187 -0.0296596 0)
(0.105804 -0.0391549 0)
(0.118159 -0.0467736 0)
(0.130095 -0.0526421 0)
(0.141544 -0.0569079 0)
(0.152456 -0.0597312 0)
(0.162802 -0.0612773 0)
(0.172566 -0.0617099 -1.52632e-20)
(0.181745 -0.0611865 0)
(0.190345 -0.0598551 1.51716e-20)
(0.19838 -0.0578525 0)
(0.205873 -0.0553022 0)
(0.212847 -0.0523137 0)
(0.219331 -0.0489832 -1.49308e-20)
(0.225351 -0.0453947 -7.45045e-21)
(0.230932 -0.0416215 2.22333e-20)
(0.236112 -0.0377323 -2.15081e-23)
(0.240944 -0.0337053 1.46753e-20)
(0.245283 -0.0293322 -2.52419e-23)
(-0.00197422 0.0520492 0)
(-0.00606709 0.128789 2.50931e-20)
(-0.0109789 0.184627 6.45416e-21)
(-0.0158275 0.221543 -5.65035e-24)
(-0.020225 0.242482 -6.7358e-21)
(-0.0237291 0.25053 0)
(-0.0259828 0.248509 1.38236e-20)
(-0.0267188 0.238822 -1.40206e-20)
(-0.0257725 0.223456 0)
(-0.0230721 0.204021 -2.88071e-20)
(-0.0186217 0.181823 0)
(-0.0124868 0.157937 -4.40707e-20)
(-0.00478638 0.133248 0)
(0.00431776 0.108494 0)
(0.0146347 0.0842859 1.50171e-20)
(0.0259555 0.0611272 -1.50654e-20)
(0.0380643 0.0394172 -1.51775e-20)
(0.0507462 0.0194593 0)
(0.0637919 0.00146812 4.57183e-20)
(0.0770062 -0.0144251 -1.5273e-20)
(0.0902142 -0.0281652 -1.24773e-23)
(0.103262 -0.0397622 -4.59318e-20)
(0.116017 -0.0492804 -3.06308e-20)
(0.128375 -0.0568268 -1.53626e-20)
(0.140252 -0.0625409 4.59384e-20)
(0.151587 -0.0665842 -4.59229e-20)
(0.162339 -0.0691303 4.59127e-20)
(0.172486 -0.0703572 -6.09892e-20)
(0.182021 -0.07044 -1.51422e-20)
(0.190948 -0.0695464 8.45017e-23)
(0.19928 -0.0678341 -4.5346e-20)
(0.207037 -0.0654466 -3.01521e-20)
(0.214245 -0.0625133 6.00756e-20)
(0.220935 -0.0591482 -5.97845e-20)
(0.227137 -0.0554509 -1.48089e-20)
(0.232881 -0.0515085 -5.92796e-20)
(0.238197 -0.0473937 4.3514e-23)
(0.24312 -0.0431753 1.46695e-20)
(0.247705 -0.0388297 -5.83443e-20)
(0.251814 -0.034146 -8.0465e-20)
(-0.00288456 0.0523824 -5.74912e-21)
(-0.00796828 0.12959 -1.25641e-20)
(-0.0131158 0.185809 -5.76763e-20)
(-0.0177329 0.222933 0)
(-0.0215571 0.243857 6.69548e-21)
(-0.0242652 0.251655 -6.80941e-21)
(-0.0255847 0.249165 -8.30246e-20)
(-0.0253106 0.238819 2.81286e-20)
(-0.0233226 0.222641 -1.42275e-20)
(-0.0195839 0.202285 8.62126e-20)
(-0.0141197 0.179099 2.9043e-20)
(-0.00701102 0.154198 1.47073e-20)
(0.00160813 0.128503 -5.89281e-20)
(0.0115629 0.102784 0)
(0.022654 0.0776801 0)
(0.0346663 0.0537147 3.00766e-20)
(0.047376 0.0313054 6.50838e-23)
(0.0605637 0.0107671 -3.02587e-20)
(0.074021 -0.00768027 -3.04462e-20)
(0.0875517 -0.0239047 -6.07987e-20)
(0.100982 -0.0378548 9.14577e-20)
(0.114162 -0.0495483 9.59866e-23)
(0.12697 -0.059059 2.75096e-23)
(0.139305 -0.0665067 3.05364e-20)
(0.151092 -0.0720449 -6.12013e-20)
(0.162279 -0.0758488 1.22001e-19)
(0.172836 -0.0781055 0)
(0.182749 -0.0790051 3.04779e-20)
(0.192019 -0.0787343 3.04042e-20)
(0.200658 -0.0774714 6.05995e-20)
(0.208687 -0.0753821 8.42554e-23)
(0.216133 -0.0726167 0)
(0.223027 -0.06931 2.99149e-20)
(0.229404 -0.0655804 -2.97096e-20)
(0.235298 -0.0615311 -2.94931e-20)
(0.240742 -0.0572493 8.87113e-20)
(0.245769 -0.0528099 -8.79582e-20)
(0.250416 -0.0482809 5.8517e-20)
(0.254734 -0.0436362 -8.70413e-20)
(0.258595 -0.0386648 3.19159e-20)
(-0.00380602 0.0525722 4.57663e-20)
(-0.0099012 0.130118 -4.98726e-20)
(-0.0152908 0.186615 1.02362e-19)
(-0.0196682 0.223891 0)
(-0.0228924 0.244783 3.99438e-20)
(-0.0247609 0.252346 6.78301e-20)
(-0.0250904 0.249416 1.39783e-20)
(-0.0237422 0.238455 1.27929e-23)
(-0.0206439 0.221517 4.24361e-20)
(-0.0157918 0.200295 -1.45299e-20)
(-0.00923776 0.176181 7.22478e-20)
(-0.00108474 0.150325 -8.74846e-20)
(0.00851804 0.123683 8.83177e-20)
(0.0193837 0.0970558 -2.96292e-20)
(0.0313007 0.0711104 2.97522e-20)
(0.044045 0.0463926 -5.97412e-20)
(0.0573877 0.0233358 -9.00945e-20)
(0.0711046 0.00226706 3.0139e-20)
(0.0849838 -0.0165887 -3.02992e-20)
(0.0988308 -0.0331005 9.10997e-20)
(0.112475 -0.0472204 -6.09062e-20)
(0.125774 -0.0589734 -6.07318e-20)
(0.13861 -0.0684451 0)
(0.150894 -0.0757681 0)
(0.162559 -0.081109 -6.07391e-20)
(0.173565 -0.0846573 -6.09234e-20)
(0.18389 -0.0866135 -6.05859e-20)
(0.193532 -0.08718 0)
(0.202501 -0.0865546 0)
(0.210818 -0.0849251 -1.20462e-19)
(0.218511 -0.0824651 -9.00857e-23)
(0.225615 -0.0793314 5.99803e-20)
(0.232166 -0.0756638 -5.95833e-20)
(0.238203 -0.0715847 -5.94106e-20)
(0.243764 -0.0671995 5.93188e-20)
(0.248887 -0.0625969 0)
(0.253605 -0.0578522 5.86607e-20)
(0.257957 -0.0530317 -1.16372e-19)
(0.261993 -0.048109 1.15939e-19)
(0.265591 -0.0428725 -1.27359e-19)
(-0.0047288 0.05258 -2.29182e-20)
(-0.0118448 0.130251 3.74255e-20)
(-0.0174848 0.186919 -5.11017e-20)
(-0.021617 0.224303 0)
(-0.0242212 0.245166 -6.66022e-20)
(-0.0252165 0.252523 -4.07159e-20)
(-0.0245081 0.249206 5.51199e-20)
(-0.022027 0.237689 0)
(-0.0177526 0.220057 -8.4869e-20)
(-0.011719 0.198039 -2.86737e-20)
(-0.00400651 0.173062 -2.89268e-20)
(0.00525997 0.146314 5.83064e-20)
(0.0159113 0.118789 -5.86067e-20)
(0.0277444 0.0913161 2.94733e-20)
(0.0405367 0.0645898 0)
(0.0540541 0.0391786 8.95808e-20)
(0.0680588 0.0155321 3.00891e-20)
(0.0823223 -0.00601308 -6.01689e-20)
(0.0966315 -0.0252268 1.2057e-19)
(0.110793 -0.0419783 -1.20858e-19)
(0.124641 -0.0562247 1.20879e-19)
(0.138039 -0.0679995 6.07303e-20)
(0.150879 -0.0773992 0)
(0.163082 -0.0845697 6.07089e-20)
(0.174593 -0.0896921 1.88145e-22)
(0.185382 -0.0929698 0)
(0.19544 -0.0946162 6.05846e-20)
(0.204775 -0.0948454 -6.0393e-20)
(0.213408 -0.093866 6.01415e-20)
(0.22137 -0.0918752 1.20211e-19)
(0.228696 -0.0890535 -1.19649e-19)
(0.235428 -0.0855637 1.19301e-19)
(0.241608 -0.0815504 0)
(0.24728 -0.0771393 0)
(0.252486 -0.072437 1.17713e-19)
(0.257267 -0.067534 0)
(0.261659 -0.0625049 0)
(0.265702 -0.0574156 -1.15766e-19)
(0.269442 -0.0522389 1.15277e-19)
(0.272763 -0.0467627 6.34667e-20)
(-0.00564695 0.0524449 1.13853e-20)
(-0.0137875 0.130064 0)
(-0.0196848 0.186796 1.01573e-19)
(-0.023574 0.22423 1.3007e-20)
(-0.0255445 0.245046 1.32812e-20)
(-0.0256346 0.252213 8.08519e-20)
(-0.0238445 0.248543 1.09557e-19)
(-0.0201772 0.23652 0)
(-0.0146647 0.218252 2.81732e-20)
(-0.00738231 0.1955 8.52287e-20)
(0.00155625 0.169727 1.14766e-19)
(0.0120006 0.142157 -2.8997e-20)
(0.0237608 0.113816 -8.73855e-20)
(0.036616 0.0855647 0)
(0.0503286 0.0581246 1.1797e-19)
(0.0646533 0.0320846 0)
(0.0793446 0.00791026 1.78757e-19)
(0.0941691 -0.0140516 -5.97977e-20)
(0.108911 -0.0335674 0)
(0.123381 -0.0505076 -6.02506e-20)
(0.137418 -0.0648343 -1.92249e-22)
(0.150895 -0.0765898 -6.00426e-20)
(0.163713 -0.0858832 -6.03253e-20)
(0.175804 -0.0928741 6.04594e-20)
(0.187126 -0.0977578 -6.03008e-20)
(0.197663 -0.100751 0)
(0.207419 -0.102079 -6.02671e-20)
(0.216413 -0.101969 6.00368e-20)
(0.224677 -0.100639 0)
(0.232251 -0.0982939 0)
(0.239181 -0.095122 0)
(0.245514 -0.0912912 -1.18797e-19)
(0.251299 -0.08695 1.18169e-19)
(0.256584 -0.0822263 0)
(0.261416 -0.0772283 -5.87304e-20)
(0.265837 -0.0720466 0)
(0.269886 -0.0667563 1.16118e-19)
(0.273606 -0.061422 -5.75387e-20)
(0.277037 -0.0560164 -1.14874e-19)
(0.280071 -0.0503281 1.25888e-19)
(-0.00655156 0.0521593 7.92892e-20)
(-0.0157148 0.129543 -1.11185e-19)
(-0.0218786 0.186221 -1.90159e-19)
(-0.0255242 0.223644 -1.0353e-19)
(-0.0268493 0.244398 -2.64558e-20)
(-0.0260116 0.251388 -5.40031e-20)
(-0.0231026 0.247402 -2.46108e-19)
(-0.0181989 0.234925 -8.30054e-20)
(-0.0113917 0.216084 -1.40164e-19)
(-0.00280066 0.192666 -1.42068e-19)
(0.0074263 0.166168 -2.00501e-19)
(0.0191095 0.137847 -1.15307e-19)
(0.0320341 0.108762 4.24738e-22)
(0.0459597 0.0798054 -1.16869e-19)
(0.0606328 0.0517225 -1.17967e-19)
(0.0757955 0.0251236 -1.77296e-19)
(0.0911935 0.000489173 1.18346e-19)
(0.106588 -0.0218258 -5.95582e-20)
(0.121763 -0.0415846 0)
(0.136532 -0.0586588 1.19626e-19)
(0.150742 -0.0730168 0)
(0.164273 -0.0847115 2.40435e-19)
(0.17704 -0.0938644 0)
(0.188988 -0.100649 -6.02096e-20)
(0.200088 -0.105274 6.0422e-20)
(0.210339 -0.107969 -1.19986e-19)
(0.219758 -0.108973 0)
(0.228378 -0.108523 -1.19784e-19)
(0.236242 -0.106848 1.19285e-19)
(0.2434 -0.104159 0)
(0.249907 -0.100651 0)
(0.255817 -0.0964963 0)
(0.261185 -0.091847 -1.17489e-19)
(0.266064 -0.0868321 0)
(0.270504 -0.0815613 -1.16764e-19)
(0.274551 -0.076125 2.32268e-19)
(0.278245 -0.070598 -2.31089e-19)
(0.281629 -0.0650436 1.14567e-19)
(0.284742 -0.0594348 2.28604e-19)
(0.287479 -0.0535623 -1.25185e-19)
(-0.0074378 0.0517359 -1.01947e-19)
(-0.0176147 0.128698 3.07182e-22)
(-0.0240502 0.185207 1.01258e-19)
(-0.0274557 0.222555 2.06742e-19)
(-0.0281288 0.24322 -2.63751e-20)
(-0.0263425 0.250041 -1.07205e-19)
(-0.022282 0.245773 1.09196e-19)
(-0.0160999 0.232892 1.66024e-19)
(-0.00794746 0.213537 5.61408e-20)
(0.00200851 0.189522 1.41197e-19)
(0.0135807 0.162372 1.14366e-19)
(0.0265571 0.133376 1.72627e-19)
(0.0406963 0.103624 3.47773e-19)
(0.055736 0.0740378 1.75005e-19)
(0.0714047 0.0453886 0)
(0.0874307 0.0183055 5.91027e-20)
(0.10355 -0.00671758 5.86488e-20)
(0.11952 -0.0293179 5.9079e-20)
(0.135123 -0.0492563 1.19106e-19)
(0.150179 -0.066407 -6.01119e-20)
(0.164542 -0.080746 0)
(0.178104 -0.0923372 -4.93745e-22)
(0.19079 -0.101315 -1.19542e-19)
(0.202562 -0.107866 1.19546e-19)
(0.213407 -0.112214 2.39465e-19)
(0.223339 -0.1146 2.39083e-19)
(0.23239 -0.115276 -1.35277e-22)
(0.240605 -0.114488 1.1893e-19)
(0.24804 -0.112474 1.18632e-19)
(0.254755 -0.109454 -1.18283e-19)
(0.260815 -0.105625 1.17889e-19)
(0.26628 -0.101167 1.17454e-19)
(0.271212 -0.0962304 2.34468e-19)
(0.275669 -0.0909478 -3.20239e-22)
(0.279704 -0.0854284 3.48305e-19)
(0.283364 -0.0797628 -1.97006e-22)
(0.286692 -0.0740246 -1.14771e-19)
(0.289731 -0.0682761 -1.14675e-19)
(0.292519 -0.0624906 1.13521e-19)
(0.294953 -0.0564623 1.24249e-19)
(-0.00829922 0.0511818 9.00516e-20)
(-0.0194749 0.127544 1.23097e-19)
(-0.0261863 0.183765 7.5451e-20)
(-0.0293549 0.220965 -7.74356e-20)
(-0.029372 0.241513 -1.31245e-19)
(-0.0266219 0.248169 1.07181e-19)
(-0.0213831 0.243645 0)
(-0.0138851 0.230407 1.10048e-19)
(-0.00434213 0.2106 0)
(0.00702803 0.186055 -2.25476e-19)
(0.019996 0.158326 5.69049e-20)
(0.0343146 0.128733 -2.86714e-19)
(0.0497132 0.0983946 -1.15709e-19)
(0.0659049 0.0682609 5.77104e-20)
(0.0825985 0.0391258 8.04266e-23)
(0.0995076 0.0116373 -5.86513e-20)
(0.116359 -0.0136984 -1.18104e-19)
(0.132904 -0.0365124 -2.36562e-19)
(0.148928 -0.0565642 0)
(0.164255 -0.0737317 -1.12473e-22)
(0.178749 -0.0879998 -1.18958e-19)
(0.192313 -0.0994441 -1.1947e-19)
(0.20489 -0.108212 1.19539e-19)
(0.216454 -0.114504 -1.19915e-19)
(0.227011 -0.118556 1.18979e-19)
(0.236592 -0.120623 -2.38347e-19)
(0.245243 -0.120968 -1.44826e-22)
(0.253025 -0.119847 -2.375e-19)
(0.260005 -0.117504 -1.1863e-19)
(0.266255 -0.114166 1.67731e-22)
(0.271847 -0.110036 -3.36795e-22)
(0.27685 -0.105294 -1.17452e-19)
(0.281332 -0.100094 -1.16978e-19)
(0.285353 -0.0945684 -5.11561e-22)
(0.288971 -0.0888261 -1.15931e-19)
(0.292235 -0.0829571 -5.16182e-22)
(0.29519 -0.0770342 -1.14353e-19)
(0.297879 -0.071118 3.41322e-19)
(0.300334 -0.0651828 -1.1352e-19)
(0.30246 -0.0590272 -1.24129e-19)
(-0.00913059 0.0505074 -9.00619e-20)
(-0.0212832 0.126096 2.44983e-20)
(-0.0282729 0.181907 -7.55027e-20)
(-0.0312083 0.218884 -2.56725e-20)
(-0.0305676 0.239279 1.04974e-19)
(-0.0268424 0.245766 -2.66829e-20)
(-0.0204033 0.241012 2.7085e-20)
(-0.0115575 0.22746 -1.64995e-19)
(-0.000584833 0.207258 5.55881e-20)
(0.0122429 0.182252 1.12549e-19)
(0.0266512 0.15402 0)
(0.042355 0.12391 2.28578e-19)
(0.0590513 0.0930686 0)
(0.0764267 0.0624716 -2.31561e-19)
(0.0941688 0.0329353 -1.16177e-19)
(0.111976 0.00512436 0)
(0.129563 -0.0204446 0)
(0.14668 -0.0433976 2.35615e-19)
(0.163113 -0.0634938 1.18263e-19)
(0.178692 -0.0806166 -2.36807e-19)
(0.193292 -0.0947609 1.18469e-19)
(0.20683 -0.106014 0)
(0.219265 -0.114538 -1.18927e-19)
(0.23059 -0.120545 2.37102e-19)
(0.240828 -0.124285 -1.18612e-19)
(0.250028 -0.126025 -1.1872e-19)
(0.258251 -0.126038 1.1831e-19)
(0.265574 -0.124589 0)
(0.272077 -0.12193 2.35585e-19)
(0.277841 -0.11829 -1.17435e-19)
(0.282948 -0.113878 -1.17203e-19)
(0.287475 -0.108875 -1.46065e-22)
(0.291494 -0.103436 4.64653e-19)
(0.29507 -0.0976929 -3.4723e-19)
(0.298264 -0.0917542 0)
(0.301127 -0.0857086 -1.14846e-19)
(0.303703 -0.0796277 -2.28075e-19)
(0.306037 -0.0735705 1.13016e-19)
(0.308158 -0.0675125 1.12469e-19)
(0.309973 -0.0612578 0)
(-0.00992774 0.0497232 -1.78945e-19)
(-0.0230291 0.12437 -2.44216e-20)
(-0.030296 0.179649 2.00055e-19)
(-0.0330015 0.216324 -2.04566e-19)
(-0.0317035 0.236523 0)
(-0.0269951 0.242833 0)
(-0.0193376 0.237867 -5.40366e-20)
(-0.00911734 0.224041 -2.14541e-23)
(0.0033181 0.2035 5.54133e-20)
(0.0176406 0.1781 0)
(0.033528 0.149442 0)
(0.0506535 0.118897 -5.71266e-20)
(0.0686795 0.0876387 3.94548e-23)
(0.0872641 0.0566663 5.79118e-20)
(0.106072 0.0268168 1.16174e-19)
(0.124785 -0.00123054 0)
(0.143108 -0.0269504 1.17051e-19)
(0.160787 -0.0499646 -1.1735e-19)
(0.177613 -0.070034 -2.35329e-19)
(0.193422 -0.0870493 2.35843e-19)
(0.208101 -0.101016 2.57666e-22)
(0.221583 -0.112035 -1.18112e-19)
(0.233845 -0.12028 1.18434e-19)
(0.244899 -0.125978 -2.36731e-19)
(0.254788 -0.129391 0)
(0.263577 -0.130797 1.1822e-19)
(0.271348 -0.130479 -2.35834e-19)
(0.278189 -0.12871 1.17571e-19)
(0.284194 -0.125747 -1.17621e-19)
(0.289457 -0.121825 -1.17097e-19)
(0.294066 -0.117152 -1.16846e-19)
(0.298106 -0.111911 4.64703e-19)
(0.301654 -0.106259 -3.4722e-19)
(0.30478 -0.100324 -2.30486e-19)
(0.307545 -0.094216 2.29167e-19)
(0.310003 -0.0880209 0)
(0.312198 -0.0818087 2.27024e-19)
(0.314176 -0.0756371 -2.25604e-19)
(0.315962 -0.0694827 -1.12468e-19)
(0.317465 -0.0631566 0)
(-0.0106868 0.0488394 3.79698e-19)
(-0.0247021 0.122384 1.70245e-19)
(-0.032242 0.17701 -2.00053e-19)
(-0.03472 0.213298 1.79018e-19)
(-0.0327656 0.233255 -2.6084e-20)
(-0.0270682 0.239374 5.30042e-20)
(-0.0181785 0.234209 0)
(-0.00656233 0.220146 -5.4605e-20)
(0.00736399 0.199318 5.52405e-20)
(0.0232129 0.173592 5.58205e-20)
(0.0406113 0.144583 -5.63079e-20)
(0.0591885 0.113686 -5.67607e-20)
(0.0785697 0.082098 5.7116e-20)
(0.0983825 0.0508406 0)
(0.118268 0.0207685 0)
(0.137888 -0.00742644 -1.1613e-19)
(0.156941 -0.0332117 1.16403e-19)
(0.175169 -0.056207 -1.16985e-19)
(0.192366 -0.076177 1.17078e-19)
(0.208379 -0.0930213 1.17567e-19)
(0.223107 -0.106757 -2.35265e-19)
(0.236501 -0.117498 2.35514e-19)
(0.248557 -0.12543 2.53448e-22)
(0.259309 -0.130796 -1.1769e-19)
(0.26882 -0.133868 0)
(0.277173 -0.134937 1.17722e-19)
(0.284468 -0.134291 2.05298e-22)
(0.290808 -0.132212 -1.17073e-19)
(0.2963 -0.12896 0)
(0.301048 -0.124773 2.33179e-19)
(0.30515 -0.119862 -2.32068e-19)
(0.308697 -0.114408 0)
(0.31177 -0.108568 2.30493e-19)
(0.314442 -0.102469 -2.29223e-19)
(0.316778 -0.0962184 0)
(0.318831 -0.0899005 0)
(0.320646 -0.0835836 0)
(0.322269 -0.0773233 -2.24714e-19)
(0.323722 -0.0710983 2.23275e-19)
(0.324915 -0.0647275 2.43656e-19)
(-0.0114047 0.0478674 -1.78393e-19)
(-0.0262936 0.120158 -1.94589e-19)
(-0.0340979 0.17401 -2.49084e-20)
(-0.0363483 0.209824 7.63819e-20)
(-0.0337383 0.229487 -1.03877e-19)
(-0.0270482 0.235396 1.05733e-19)
(-0.0169155 0.23004 -1.07391e-19)
(-0.0038859 0.21577 -1.62975e-19)
(0.0115538 0.194706 0)
(0.0289548 0.168717 -5.5638e-20)
(0.0478903 0.139433 5.61239e-20)
(0.0679427 0.108268 0)
(0.0886977 0.0764401 1.13892e-19)
(0.109751 0.04499 -1.1448e-19)
(0.130717 0.0147882 -3.44938e-19)
(0.151242 -0.0134632 -1.53181e-22)
(0.171012 -0.0392264 2.32099e-19)
(0.189769 -0.0621212 -1.16319e-19)
(0.207312 -0.0819183 0)
(0.223498 -0.0985275 0)
(0.238243 -0.111978 2.33842e-19)
(0.251516 -0.122398 1.17403e-19)
(0.263334 -0.129987 -1.17209e-19)
(0.273754 -0.134998 -1.17446e-19)
(0.282858 -0.137718 2.34507e-19)
(0.290752 -0.138445 -1.1701e-19)
(0.29755 -0.137477 2.34045e-19)
(0.303373 -0.135099 -4.66675e-19)
(0.308341 -0.131574 4.65447e-19)
(0.312566 -0.127144 -4.64019e-19)
(0.316155 -0.122017 4.62407e-19)
(0.319205 -0.116376 -4.60624e-19)
(0.321803 -0.110374 2.29226e-19)
(0.324023 -0.104138 2.28413e-19)
(0.325931 -0.0977714 1.95882e-22)
(0.327582 -0.091357 1.77508e-22)
(0.329021 -0.0849608 -2.24759e-19)
(0.330293 -0.078637 5.93221e-22)
(0.331416 -0.072366 -2.22222e-19)
(0.332304 -0.0659761 0)
(-0.0120793 0.0468178 2.21954e-20)
(-0.0277951 0.117712 -2.42267e-20)
(-0.0358505 0.170671 7.44764e-20)
(-0.0378704 0.205922 -1.01523e-19)
(-0.0346047 0.225234 5.17608e-20)
(-0.0269187 0.230908 0)
(-0.0155347 0.225365 0)
(-0.0010781 0.210915 2.17394e-19)
(0.0158932 0.18966 2.74181e-19)
(0.0348665 0.163471 -5.54591e-20)
(0.0553588 0.133987 2.79347e-19)
(0.0769032 0.102638 -5.63599e-20)
(0.0990437 0.0706598 0)
(0.121342 0.0391108 0)
(0.143386 0.00887378 2.29769e-19)
(0.164803 -0.0193412 0)
(0.185272 -0.0449935 1.15076e-19)
(0.204533 -0.0677054 -1.15616e-19)
(0.222392 -0.0872559 0)
(0.238718 -0.103566 -2.32554e-19)
(0.253444 -0.116679 -1.1703e-19)
(0.266561 -0.126736 -3.49815e-19)
(0.278109 -0.13395 -1.16976e-19)
(0.288166 -0.138588 1.16724e-19)
(0.296839 -0.140946 2.33058e-19)
(0.304252 -0.141331 0)
(0.310537 -0.140047 2.32377e-19)
(0.315831 -0.137382 4.64386e-19)
(0.320264 -0.133603 3.31803e-22)
(0.323962 -0.12895 -2.30854e-19)
(0.327037 -0.123633 -2.3033e-19)
(0.329592 -0.117829 2.29172e-19)
(0.331717 -0.111692 2.28434e-19)
(0.333489 -0.105344 -4.54555e-19)
(0.334975 -0.0988877 4.52342e-19)
(0.33623 -0.0924022 -2.25521e-19)
(0.3373 -0.0859515 2.23719e-19)
(0.338227 -0.0795878 4.45071e-19)
(0.339026 -0.0732941 2.20704e-19)
(0.339615 -0.0669088 2.40319e-19)
(-0.0127088 0.0457017 -1.76766e-19)
(-0.0291993 0.115067 1.68661e-19)
(-0.0374871 0.167017 -1.4822e-19)
(-0.0392697 0.201615 1.51523e-19)
(-0.0353458 0.220516 2.57856e-19)
(-0.0266608 0.225924 -2.09928e-19)
(-0.0140189 0.220191 2.66592e-19)
(0.00187548 0.205583 1.61994e-19)
(0.020392 0.184182 -3.83148e-19)
(0.0409527 0.157852 1.10223e-19)
(0.0630156 0.128241 5.50432e-20)
(0.0860623 0.0967911 1.12356e-19)
(0.109593 0.0647536 1.12696e-19)
(0.133134 0.0332 -2.27012e-19)
(0.156245 0.00302325 2.28115e-19)
(0.178536 -0.0250614 3.43898e-19)
(0.199678 -0.050513 -3.45855e-19)
(0.219412 -0.0729596 4.62088e-19)
(0.23755 -0.09219 2.31184e-19)
(0.253978 -0.108139 3.48713e-19)
(0.268648 -0.120862 1.15881e-19)
(0.281573 -0.130515 2.33132e-19)
(0.292818 -0.137327 -2.32295e-19)
(0.302485 -0.141574 0)
(0.310702 -0.143563 -6.97936e-19)
(0.317615 -0.143607 4.64563e-19)
(0.323373 -0.142014 -2.31992e-19)
(0.328129 -0.139078 -2.31506e-19)
(0.332024 -0.135063 -3.24133e-22)
(0.335193 -0.13021 0)
(0.337757 -0.124725 0)
(0.339821 -0.118785 2.27786e-19)
(0.341481 -0.112538 -2.27409e-19)
(0.342813 -0.106105 2.26156e-19)
(0.343886 -0.099583 -2.25226e-19)
(0.344754 -0.0930507 -2.24058e-19)
(0.345462 -0.0865685 0)
(0.346054 -0.0801872 -2.21432e-19)
(0.346538 -0.0738924 -2.20596e-19)
(0.346835 -0.0675338 -7.19383e-19)
(-0.0132923 0.0445296 1.76731e-19)
(-0.0304997 0.112243 -1.68796e-19)
(-0.0389956 0.163074 1.97687e-19)
(-0.0405289 0.196928 -3.53245e-19)
(-0.0359416 0.215353 -2.57704e-19)
(-0.0262532 0.22046 2.09927e-19)
(-0.0123472 0.21453 -4.25782e-19)
(0.00499338 0.199782 -2.16087e-19)
(0.0250654 0.178274 2.73166e-19)
(0.0472236 0.151862 -4.96001e-19)
(0.0708651 0.122195 -3.3383e-19)
(0.0954174 0.090727 -1.11603e-19)
(0.120335 0.0587201 -3.38456e-19)
(0.145108 0.0272565 3.40294e-19)
(0.169268 -0.00276392 -2.2811e-19)
(0.192408 -0.0306239 -2.29072e-19)
(0.21419 -0.0557853 0)
(0.234358 -0.0778845 -2.30601e-19)
(0.252736 -0.0967224 -3.46654e-19)
(0.269224 -0.112248 1.15488e-19)
(0.283797 -0.124532 -2.3198e-19)
(0.296494 -0.133744 0)
(0.307403 -0.140127 2.32291e-19)
(0.316651 -0.143968 2.32002e-19)
(0.324392 -0.145582 -2.30444e-19)
(0.330788 -0.145288 0)
(0.33601 -0.143398 0)
(0.340222 -0.140205 0)
(0.343579 -0.135975 -9.81737e-22)
(0.346223 -0.130944 0)
(0.34828 -0.125316 -4.56007e-19)
(0.349863 -0.119264 -6.21732e-22)
(0.351067 -0.112932 -4.52178e-19)
(0.351971 -0.106438 4.50463e-19)
(0.352642 -0.0998754 -2.24033e-19)
(0.353135 -0.093319 2.23458e-19)
(0.353494 -0.086827 0)
(0.35376 -0.0804485 4.41447e-19)
(0.353939 -0.0741722 -2.19074e-19)
(0.353955 -0.0678599 0)
(-0.0138291 0.0433117 2.19933e-20)
(-0.0316907 0.109263 0)
(-0.0403636 0.158866 -2.45768e-19)
(-0.0416305 0.191885 3.02212e-19)
(-0.0363703 0.20977 1.53742e-19)
(-0.0256719 0.214538 -2.08708e-19)
(-0.0104956 0.208399 2.12577e-19)
(0.00829831 0.193525 -2.14805e-19)
(0.029933 0.171946 0)
(0.0536945 0.145505 2.20097e-19)
(0.0789165 0.115853 -2.21261e-19)
(0.104971 0.0844476 7.25654e-22)
(0.131266 0.0525608 0)
(0.157252 0.0212817 2.25447e-19)
(0.182434 -0.00848663 -1.13005e-19)
(0.206388 -0.036028 2.27541e-19)
(0.22877 -0.0608105 1.13967e-19)
(0.249329 -0.0824814 -2.28881e-19)
(0.267899 -0.100856 0)
(0.284403 -0.115899 3.45121e-19)
(0.298837 -0.127696 1.14976e-19)
(0.311266 -0.136433 0)
(0.321807 -0.142364 0)
(0.330611 -0.145787 0)
(0.337855 -0.147023 2.31139e-19)
(0.343723 -0.146397 0)
(0.348401 -0.144221 -2.30118e-19)
(0.352068 -0.140789 4.58809e-19)
(0.354889 -0.136363 -4.57876e-19)
(0.357015 -0.131176 0)
(0.358578 -0.125429 2.27694e-19)
(0.359691 -0.119289 -2.25781e-19)
(0.360452 -0.112897 2.25788e-19)
(0.360942 -0.106366 0)
(0.361226 -0.0997849 0)
(0.361357 -0.0932255 2.21973e-19)
(0.36138 -0.0867435 -2.20621e-19)
(0.361334 -0.0803863 4.38873e-19)
(0.361221 -0.0741461 -4.36062e-19)
(0.360969 -0.0678976 0)
(-0.0143192 0.0420577 1.53191e-19)
(-0.0327673 0.106147 4.78157e-20)
(-0.0415795 0.154419 1.96533e-19)
(-0.0425564 0.186516 2.00409e-19)
(-0.0366087 0.203793 -2.05051e-19)
(-0.0248909 0.20818 2.08707e-19)
(-0.00843665 0.201817 2.11337e-19)
(0.011817 0.186827 2.14803e-19)
(0.035019 0.165209 0)
(0.0603852 0.138792 2.18743e-19)
(0.0871844 0.109222 2.21259e-19)
(0.114731 0.0779588 2.22852e-19)
(0.142384 0.0462809 0)
(0.169556 0.0152799 -7.62735e-22)
(0.195725 -0.0141413 2.26501e-19)
(0.22045 -0.0412713 -1.13851e-19)
(0.243385 -0.0655878 -1.14658e-19)
(0.264283 -0.0867519 3.43194e-19)
(0.282995 -0.104595 1.88691e-22)
(0.299465 -0.119099 -1.15479e-19)
(0.313715 -0.130366 -2.30172e-19)
(0.325838 -0.138596 0)
(0.335979 -0.144055 0)
(0.344315 -0.14705 0)
(0.351046 -0.147908 0)
(0.356375 -0.146957 0)
(0.360506 -0.144509 0)
(0.36363 -0.140855 2.28596e-19)
(0.365924 -0.136254 -2.27647e-19)
(0.367542 -0.130934 0)
(0.368623 -0.125091 0)
(0.369281 -0.118888 2.25779e-19)
(0.369617 -0.112459 0)
(0.369709 -0.105912 2.23285e-19)
(0.369622 -0.0993334 -2.22008e-19)
(0.369409 -0.0927904 0)
(0.369112 -0.0863362 4.39384e-19)
(0.368769 -0.0800168 -4.36636e-19)
(0.368377 -0.0738279 0)
(0.367871 -0.0676583 0)
(-0.0147629 0.0407766 -1.75156e-19)
(-0.0337248 0.102914 -4.77451e-20)
(-0.0426315 0.149761 4.88887e-20)
(-0.043288 0.180848 -2.00409e-19)
(-0.0366328 0.197449 0)
(-0.0238817 0.201412 0)
(-0.00614005 0.194807 -1.58576e-19)
(0.0155796 0.179708 -5.34598e-20)
(0.0403517 0.15808 -1.08129e-19)
(0.0673201 0.131736 -1.09517e-19)
(0.0956872 0.102313 -1.10089e-19)
(0.124708 0.0712711 1.10907e-19)
(0.153693 0.0398893 1.11192e-19)
(0.182015 0.00925884 -1.12534e-19)
(0.209126 -0.0197219 0)
(0.234571 -0.0463497 0)
(0.258003 -0.0701155 -2.27385e-19)
(0.279183 -0.0906973 0)
(0.297981 -0.107945 0)
(0.314364 -0.121857 2.27904e-19)
(0.328384 -0.132554 4.17032e-22)
(0.340163 -0.140249 -2.27903e-22)
(0.349873 -0.145219 -2.29277e-19)
(0.357719 -0.14778 2.28784e-19)
(0.363922 -0.148263 2.28337e-19)
(0.368706 -0.146995 -2.28012e-19)
(0.37229 -0.14429 0)
(0.374878 -0.140432 2.27631e-19)
(0.376654 -0.135678 2.72121e-22)
(0.377779 -0.130248 -2.25944e-19)
(0.378394 -0.124332 0)
(0.378616 -0.118087 0)
(0.378545 -0.111643 2.23363e-19)
(0.378258 -0.105101 -2.22133e-19)
(0.377821 -0.0985443 -2.21128e-19)
(0.377282 -0.0920353 2.19821e-19)
(0.376682 -0.0856247 0)
(0.376058 -0.0793575 0)
(0.375405 -0.0732331 0)
(0.374661 -0.0671551 -2.34011e-19)
(-0.0151604 0.0394765 2.17743e-19)
(-0.0345593 0.0995845 -9.51381e-20)
(-0.0435084 0.144916 4.87456e-20)
(-0.0438063 0.174911 0)
(-0.036417 0.19077 2.54194e-19)
(-0.0226144 0.194263 3.22888e-23)
(-0.00357302 0.187397 2.10118e-19)
(0.0196196 0.172192 -1.599e-19)
(0.0459626 0.150582 2.15638e-19)
(0.074527 0.124356 -1.08892e-19)
(0.104447 0.0951437 0)
(0.134918 0.0643997 1.1052e-19)
(0.1652 0.0333995 -3.33969e-19)
(0.194627 0.00322981 0)
(0.222626 -0.0252192 3.36483e-19)
(0.248731 -0.0512569 -2.24941e-19)
(0.272596 -0.0743908 -2.26183e-19)
(0.293995 -0.0943183 1.13328e-19)
(0.312818 -0.110909 0)
(0.32906 -0.124181 -2.28128e-19)
(0.342802 -0.134272 -2.28182e-19)
(0.354197 -0.141409 -6.45328e-22)
(0.363447 -0.145878 2.27728e-19)
(0.370782 -0.148002 2.28277e-19)
(0.376446 -0.148114 -4.56015e-19)
(0.380683 -0.146542 2.2801e-19)
(0.383724 -0.143596 0)
(0.385785 -0.139554 -2.26067e-19)
(0.387056 -0.134666 2.25395e-19)
(0.387706 -0.129148 2.24626e-19)
(0.387874 -0.123181 -2.23767e-19)
(0.387681 -0.116917 2.22825e-19)
(0.387224 -0.110478 0)
(0.386581 -0.10396 2.21277e-19)
(0.385813 -0.0974422 4.39808e-19)
(0.384969 -0.0909828 -4.37641e-19)
(0.384086 -0.08463 4.35283e-19)
(0.3832 -0.0784273 9.32894e-23)
(0.382303 -0.0723783 -2.15432e-19)
(0.381338 -0.0664026 4.66761e-19)
(-0.0155125 0.0381643 -1.30609e-19)
(-0.035267 0.0961749 -2.84318e-19)
(-0.0441986 0.13991 1.94186e-19)
(-0.0440924 0.168733 -1.48963e-19)
(-0.0359355 0.183785 -5.13561e-20)
(-0.0210574 0.186764 5.1629e-20)
(-0.000700864 0.179615 -1.05203e-19)
(0.0239725 0.164308 -1.06292e-19)
(0.0518858 0.142739 1.07475e-19)
(0.0820362 0.116677 -2.17067e-19)
(0.113489 0.0877363 5.70376e-23)
(0.145377 0.0573643 1.10209e-19)
(0.176912 0.026829 0)
(0.207389 -0.00279192 -1.11417e-19)
(0.236214 -0.0306209 -1.12289e-19)
(0.262911 -0.0559842 2.2503e-19)
(0.287139 -0.0784092 0)
(0.308687 -0.0976152 0)
(0.32747 -0.113494 2.26655e-19)
(0.343512 -0.126082 -2.26682e-19)
(0.356927 -0.135537 0)
(0.367901 -0.142096 2.27459e-19)
(0.376663 -0.146056 -2.27334e-19)
(0.38347 -0.147743 -4.54359e-19)
(0.388588 -0.147493 -3.62395e-22)
(0.392276 -0.14563 2.27065e-19)
(0.394782 -0.142459 -4.51707e-19)
(0.396328 -0.138253 2.26065e-19)
(0.397113 -0.133253 -2.25394e-19)
(0.397307 -0.127668 -3.77063e-22)
(0.397051 -0.121672 5.85056e-22)
(0.396466 -0.115408 -2.22824e-19)
(0.395647 -0.108993 -2.20833e-19)
(0.39467 -0.102517 -2.19743e-19)
(0.393594 -0.0960528 -9.86604e-22)
(0.392466 -0.0896568 0)
(0.391321 -0.0833738 -2.16111e-19)
(0.390193 -0.0772463 4.30616e-19)
(0.389071 -0.0712818 -6.42309e-19)
(0.387904 -0.065417 9.76263e-23)
(-0.0158197 0.0368461 -4.33324e-20)
(-0.0358443 0.0927019 3.78359e-19)
(-0.0446913 0.134766 -1.94249e-19)
(-0.0441268 0.162344 1.49049e-19)
(-0.0351616 0.176527 -4.04838e-19)
(-0.0191786 0.178949 5.14787e-20)
(0.00251238 0.171495 -2.0887e-19)
(0.0286755 0.156086 0)
(0.0581573 0.134582 0)
(0.0898797 0.108727 -2.16074e-19)
(0.122838 0.0801173 1.09051e-19)
(0.156104 0.0501895 -3.57978e-22)
(0.188838 0.0202 1.10497e-19)
(0.220302 -0.00878726 0)
(0.249879 -0.0359118 -3.34204e-19)
(0.277091 -0.0605206 1.11904e-19)
(0.301604 -0.0821646 -2.24194e-19)
(0.323227 -0.100587 0)
(0.341901 -0.115703 0)
(0.357685 -0.127572 5.91226e-22)
(0.370726 -0.136364 -2.2609e-19)
(0.38124 -0.142331 2.25972e-19)
(0.389489 -0.145778 -2.26592e-19)
(0.395754 -0.147033 2.26106e-19)
(0.40032 -0.146431 6.14618e-22)
(0.403464 -0.144293 6.25026e-22)
(0.405445 -0.140915 2.25702e-19)
(0.406493 -0.136564 -2.24197e-19)
(0.406811 -0.131473 0)
(0.406571 -0.125842 -2.23291e-19)
(0.405915 -0.119836 2.22228e-19)
(0.404962 -0.113592 0)
(0.403806 -0.107217 2.20833e-19)
(0.40252 -0.100798 -2.18863e-19)
(0.401161 -0.0944021 2.17509e-19)
(0.399772 -0.0880816 0)
(0.398386 -0.0818789 6.47366e-19)
(0.397037 -0.0758353 -4.28559e-19)
(0.395711 -0.0699629 0)
(0.394361 -0.0642158 2.31611e-19)
(-0.0160824 0.0355274 3.45089e-19)
(-0.0362877 0.0891807 -1.88898e-19)
(-0.0449752 0.129507 -4.83799e-20)
(-0.0438906 0.155773 4.94161e-20)
(-0.0340684 0.169028 2.021e-19)
(-0.016945 0.170852 0)
(0.00610329 0.163073 2.0887e-19)
(0.0337663 0.147563 3.16364e-19)
(0.0648131 0.126146 1.0687e-19)
(0.0980897 0.100538 1.08238e-19)
(0.13252 0.0723177 1.08776e-19)
(0.167116 0.0429044 -3.28771e-19)
(0.200987 0.0135387 1.10143e-19)
(0.233364 -0.0147335 4.41941e-19)
(0.263613 -0.0410735 1.11488e-19)
(0.291254 -0.064853 1.11525e-19)
(0.315968 -0.0856496 2.24192e-19)
(0.337586 -0.103233 0)
(0.356082 -0.117544 0)
(0.371547 -0.128661 4.50988e-19)
(0.384165 -0.136771 -9.00907e-19)
(0.394185 -0.142139 -6.06621e-22)
(0.401898 -0.145072 0)
(0.407609 -0.145902 0)
(0.411622 -0.144961 2.25613e-19)
(0.414229 -0.142564 0)
(0.415699 -0.138998 0)
(0.416267 -0.134523 -2.22352e-19)
(0.416141 -0.129362 -4.45154e-19)
(0.415491 -0.123704 0)
(0.414462 -0.117707 -4.41809e-19)
(0.413168 -0.111499 -8.80853e-19)
(0.411701 -0.10518 4.3864e-19)
(0.410132 -0.098832 -4.35615e-19)
(0.408513 -0.0925165 4.34312e-19)
(0.406886 -0.0862819 -4.31745e-19)
(0.405282 -0.0801683 -4.28285e-19)
(0.403733 -0.0742161 0)
(0.402223 -0.0684417 0)
(0.400712 -0.0628179 0)