/*--------------------------------*- C++ -*----------------------------------*\
  =========                 |
  \\      /  F ield         | OpenFOAM: The Open Source CFD Toolbox
   \\    /   O peration     | Website:  https://openfoam.org
    \\  /    A nd           | Version:  7
     \\/     M anipulation  |
\*---------------------------------------------------------------------------*/
FoamFile
{
    version     2.0;
    format      ascii;
    class       volVectorField;
    location    "83.1";
    object      U;
}
// * * * * * * * * * * * * * * * * * * * * * * * * * * * * * * * * * * * * * //

dimensions      [0 1 -1 0 0 0 0];

internalField   nonuniform List<vector> 
2000
(
(-0.00013705 -0.00531754 -2.31217e-22)
(-1.29864e-05 -0.0124795 0)
(0.000543167 -0.0164878 0)
(0.0014797 -0.0178038 -1.18421e-21)
(0.00274378 -0.0167181 3.84684e-22)
(0.00430883 -0.0134222 1.49379e-23)
(0.00617041 -0.00805667 -6.62124e-22)
(0.00832497 -0.000754348 0)
(0.0107526 0.00832583 0)
(0.0133185 0.0189787 0)
(0.000361915 -0.00514332 0)
(0.00138154 -0.0125101 -9.03367e-22)
(0.00270934 -0.0167919 8.33085e-22)
(0.00415609 -0.0184196 1.58197e-21)
(0.0056797 -0.0176911 0)
(0.00726837 -0.0148163 1.44519e-21)
(0.00893907 -0.0099427 -1.34392e-21)
(0.0107182 -0.00318654 0)
(0.0126316 0.00534027 2.4664e-21)
(0.0145597 0.015502 -4.74774e-21)
(0.000904082 -0.00505128 0)
(0.00298918 -0.012634 7.2114e-21)
(0.0052923 -0.0171325 0)
(0.00744193 -0.0189979 6.44599e-21)
(0.00940534 -0.01855 0)
(0.0111846 -0.0160293 -5.81296e-21)
(0.0128167 -0.0116015 0)
(0.0143557 -0.00537622 5.26971e-21)
(0.0158742 0.00257601 -4.9354e-21)
(0.0172649 0.0121821 -4.83326e-21)
(0.0015241 -0.00506828 -1.87564e-21)
(0.00485761 -0.0128807 -3.6009e-21)
(0.00832563 -0.0175234 -1.68601e-21)
(0.0113518 -0.0195318 -3.16673e-21)
(0.0139166 -0.0192627 -3.02894e-21)
(0.0160408 -0.016998 2.86101e-21)
(0.0177837 -0.0129326 2.74485e-21)
(0.0192259 -0.00718098 -2.61312e-23)
(0.0204861 0.000218221 4.9811e-21)
(0.0214699 0.00924127 4.83107e-21)
(0.00226135 -0.00521164 -1.84349e-21)
(0.00703441 -0.0132642 -3.6714e-21)
(0.0118308 -0.017966 -6.96983e-21)
(0.0158712 -0.0200105 3.20738e-21)
(0.0191616 -0.019806 0)
(0.0217517 -0.0176835 0)
(0.0237303 -0.0138748 -5.63369e-21)
(0.0252071 -0.00851012 -5.34252e-21)
(0.0263441 -0.00160596 5.04144e-21)
(0.0270656 0.00684703 1.45367e-20)
(0.00315721 -0.00548467 1.87261e-21)
(0.00956028 -0.0137748 1.90521e-21)
(0.0158082 -0.0184445 -1.03312e-20)
(0.0209484 -0.0204182 1.6417e-20)
(0.0250322 -0.0201674 -3.0612e-21)
(0.0281542 -0.0180773 0)
(0.0304452 -0.0144206 0)
(0.0320499 -0.00934913 2.66023e-20)
(0.0331723 -0.00286489 -2.51624e-20)
(0.0337605 0.00506043 4.77746e-21)
(0.00424983 -0.00587299 1.45887e-20)
(0.012461 -0.0143786 0)
(0.0202295 -0.0189253 1.38102e-20)
(0.0264889 -0.0207328 -1.31032e-20)
(0.0313622 -0.0203453 0)
(0.0350098 -0.0182032 5.95569e-21)
(0.0376196 -0.0146196 -1.66975e-20)
(0.0393828 -0.00977032 -2.12469e-20)
(0.0405449 -0.00364573 9.96859e-21)
(0.0410801 0.00379973 9.66401e-21)
(0.00556827 -0.00634433 -2.91602e-20)
(0.0157393 -0.0150176 -3.7131e-21)
(0.0250321 -0.019358 -6.99134e-21)
(0.0323546 -0.0209269 -1.645e-20)
(0.0379338 -0.020347 -6.29865e-21)
(0.0420191 -0.0181107 -5.94256e-21)
(0.0448728 -0.0145687 5.5233e-23)
(0.0467462 -0.00992065 0)
(0.0479321 -0.00414514 0)
(0.0484293 0.00284058 5.02797e-23)
(0.00712715 -0.00685064 1.45717e-20)
(0.0193667 -0.0156144 -1.4785e-20)
(0.0301147 -0.0196799 1.03997e-20)
(0.038367 -0.0209715 2.31517e-20)
(0.0444909 -0.0201883 -6.17556e-21)
(0.0488491 -0.0178674 5.94764e-21)
(0.0517934 -0.0143908 5.60206e-21)
(0.0536469 -0.00998264 0)
(0.0547641 -0.00461422 0)
(0.0551811 0.00185865 -2.34701e-22)
(0.0089225 -0.00733275 -1.83076e-21)
(0.0232792 -0.0160796 1.85507e-20)
(0.0353377 -0.0198251 -3.47018e-21)
(0.0443154 -0.0208419 0)
(0.0507601 -0.0198953 0)
(0.055171 -0.0175521 1.17509e-20)
(0.0580001 -0.0142124 0)
(0.0596447 -0.0101236 -1.02981e-20)
(0.060525 -0.00527559 2.09072e-23)
(0.0607515 0.000503662 9.21176e-21)
(0.0186847 0.0456923 1.81525e-22)
(0.0315447 0.104397 -1.83582e-22)
(0.0394995 0.163401 -2.07061e-22)
(0.0405823 0.217594 -2.33999e-22)
(0.0361641 0.271526 -2.85776e-22)
(0.0320815 0.32899 -1.01644e-23)
(0.020773 0.393958 1.50002e-22)
(0.0177539 0.479766 5.3632e-22)
(-0.00164254 0.608241 0)
(0.00528615 0.762515 -3.91858e-22)
(0.0179165 0.0413866 7.00821e-22)
(0.028652 0.0995394 -7.88904e-22)
(0.0368949 0.160781 1.40909e-21)
(0.0384543 0.216903 2.34385e-22)
(0.0344753 0.272023 5.05803e-22)
(0.0307288 0.330264 8.6935e-22)
(0.0199222 0.39577 -3.24478e-22)
(0.0170155 0.481962 -3.59837e-22)
(-0.00155658 0.609894 6.99205e-22)
(0.00487475 0.762647 3.90932e-22)
(0.0186441 0.0369818 0)
(0.0264392 0.0937684 -7.64021e-22)
(0.0346635 0.156995 -4.07924e-22)
(0.0366045 0.215163 0)
(0.0330091 0.271598 -1.55725e-21)
(0.0295735 0.330707 4.86837e-22)
(0.0192099 0.396794 5.46019e-22)
(0.0163734 0.48335 1.94034e-21)
(-0.00143752 0.611081 -6.9694e-22)
(0.00450729 0.762599 1.41111e-21)
(0.0210163 0.0327297 0)
(0.0250433 0.0873078 7.7043e-22)
(0.0328168 0.152069 0)
(0.0350197 0.212359 1.81667e-21)
(0.0317501 0.270244 -1.8261e-21)
(0.0285988 0.330317 -1.10582e-21)
(0.0186222 0.397004 -6.62505e-23)
(0.0158358 0.483884 -1.8993e-21)
(-0.00128754 0.611571 -3.10303e-22)
(0.00416349 0.762188 -1.73523e-21)
(0.025043 0.0288554 3.67553e-23)
(0.0246336 0.0804516 -2.2045e-21)
(0.0313772 0.146076 6.74946e-23)
(0.033689 0.208489 -1.63023e-21)
(0.0306818 0.267964 0)
(0.0277852 0.329126 -1.05716e-21)
(0.0181408 0.396495 -8.88523e-23)
(0.0153831 0.483795 2.386e-21)
(-0.00113001 0.61174 3.14855e-22)
(0.00384575 0.761729 -3.16007e-22)
(0.0305134 0.025507 -5.96034e-21)
(0.0253658 0.0735319 3.77248e-21)
(0.0303848 0.139142 1.5978e-21)
(0.0326044 0.203576 -1.59703e-21)
(0.0297908 0.264752 -8.67192e-22)
(0.0271222 0.32709 0)
(0.0177663 0.395137 -2.11507e-21)
(0.0150292 0.482749 1.0588e-21)
(-0.000951198 0.610954 1.1535e-21)
(0.00353363 0.760795 1.20304e-21)
(0.0369557 0.022731 -7.15635e-22)
(0.0272965 0.0668822 0)
(0.0298931 0.131463 0)
(0.0317611 0.197666 0)
(0.0290568 0.260671 -9.23011e-22)
(0.0265857 0.324406 1.78746e-21)
(0.0174683 0.393339 2.06235e-21)
(0.0147206 0.481529 -3.21433e-21)
(-0.000798 0.610377 5.67445e-22)
(0.00324926 0.760101 -1.75349e-21)
(0.0436481 0.0204446 4.48397e-21)
(0.0302662 0.0606873 3.07194e-21)
(0.0299368 0.123288 -3.04398e-21)
(0.0311621 0.190834 3.23183e-21)
(0.0284781 0.255555 -4.01275e-21)
(0.0261813 0.320609 0)
(0.0172804 0.390261 -9.28648e-22)
(0.0145337 0.478701 4.6472e-23)
(-0.000601507 0.608093 -1.02291e-21)
(0.00295238 0.758601 -1.08125e-21)
(0.0496392 0.0182481 -3.80263e-21)
(0.0338046 0.0545809 0)
(0.0304887 0.114468 -3.42553e-21)
(0.0307673 0.183256 6.16814e-21)
(0.0280157 0.250198 -2.29549e-21)
(0.025855 0.317154 -4.21228e-22)
(0.0171035 0.388018 9.2664e-22)
(0.014291 0.477302 1.02853e-23)
(-0.000508264 0.607527 1.4789e-21)
(0.00269462 0.757937 1.56989e-21)
(0.0537207 0.0159732 -3.07737e-21)
(0.0371366 0.0485156 3.00913e-21)
(0.0315107 0.104465 3.80199e-22)
(0.0306776 0.172938 0)
(0.0276714 0.241257 0)
(0.0256979 0.309844 4.14e-22)
(0.0171562 0.381679 1.75175e-21)
(0.0143512 0.471351 -1.70181e-21)
(-0.000250729 0.602851 -4.58802e-22)
(0.00239601 0.755672 4.43817e-22)
(0.0556314 0.0174113 0)
(0.0414173 0.0462052 0)
(0.0335267 0.0977501 0)
(0.0312958 0.167566 0)
(0.0275318 0.239195 0)
(0.0247366 0.310484 0)
(0.0163479 0.383897 0)
(0.0132434 0.474865 0)
(-0.00051849 0.605607 0)
(0.00184623 0.755322 0)
(0.0571016 0.0335462 0)
(0.0447353 0.0649087 0)
(0.0343181 0.109776 0)
(0.0302493 0.173519 0)
(0.0264812 0.243728 0)
(0.0234062 0.315611 0)
(0.0155438 0.390519 0)
(0.0120647 0.482869 0)
(-0.000460854 0.612187 0)
(0.00136195 0.756108 0)
(0.0541352 0.038515 0)
(0.0457694 0.074372 0)
(0.0354027 0.118543 0)
(0.0296185 0.179702 0)
(0.0252726 0.249114 0)
(0.0218854 0.320953 0)
(0.0145972 0.39634 0)
(0.0109539 0.488941 0)
(-0.000454477 0.616798 0)
(0.000981469 0.756081 0)
(0.0491244 0.0415369 0)
(0.0441602 0.0815947 0)
(0.0353964 0.125834 0)
(0.0291129 0.185142 0)
(0.0243856 0.254332 0)
(0.0206947 0.326993 0)
(0.0138491 0.403748 0)
(0.0101036 0.497292 0)
(-0.000213637 0.623473 0)
(0.000765116 0.75699 0)
(0.0435587 0.042669 0)
(0.0410549 0.0871871 0)
(0.034182 0.132541 0)
(0.0281966 0.190237 0)
(0.0234098 0.258488 0)
(0.0195703 0.331175 0)
(0.0131042 0.408389 0)
(0.00928488 0.502082 0)
(-0.000204721 0.626982 0)
(0.000520421 0.756746 0)
(0.0376546 0.0420849 0)
(0.0371512 0.0908742 0)
(0.0319828 0.138155 0)
(0.0267461 0.195353 0)
(0.0223837 0.263382 0)
(0.0186658 0.336827 0)
(0.0126178 0.415444 0)
(0.00873831 0.510139 0)
(8.81812e-05 0.633287 0)
(0.000414416 0.757508 0)
(0.0316893 0.0399516 0)
(0.0331079 0.0930105 0)
(0.0296773 0.142841 0)
(0.0251164 0.199611 0)
(0.0210929 0.266721 0)
(0.0176093 0.339877 0)
(0.012005 0.418645 0)
(0.00816181 0.513304 0)
(7.93984e-05 0.635503 0)
(0.000258903 0.757079 0)
(0.0256465 0.0360215 0)
(0.028683 0.0927072 0)
(0.0268753 0.145706 0)
(0.0234546 0.203898 0)
(0.0200565 0.271643 0)
(0.0168341 0.345809 0)
(0.0116619 0.426035 0)
(0.00781185 0.521655 0)
(0.000448311 0.641878 0)
(0.000242638 0.757847 0)
(0.0207585 0.0324985 0)
(0.0258688 0.0929772 0)
(0.025271 0.148358 0)
(0.0222043 0.206349 0)
(0.0190588 0.273483 0)
(0.0160666 0.34742 0)
(0.0112079 0.42773 0)
(0.0074465 0.523208 0)
(0.000424484 0.642944 0)
(0.000161179 0.757488 0)
(0.0140588 0.0201783 0)
(0.0206464 0.0855853 0)
(0.0230187 0.147906 0)
(0.0215685 0.210035 0)
(0.0188557 0.278754 0)
(0.0158937 0.354104 0)
(0.0112644 0.436048 0)
(0.00734451 0.532538 0)
(0.000931297 0.649895 0)
(0.000215964 0.758411 0)
(0.063235 0.00669369 2.6764e-21)
(0.0612978 0.0138611 -2.63098e-21)
(0.0556428 0.015068 2.26123e-22)
(0.0492426 0.0147367 0)
(0.0426189 0.0129826 0)
(0.0357186 0.0101008 6.64321e-23)
(0.0288312 0.00618041 -7.97091e-23)
(0.0220424 0.000924319 7.83316e-23)
(0.0159515 -0.0038744 -1.29467e-23)
(0.00860023 -0.0148745 1.27202e-23)
(0.0643635 0.00228756 -3.54812e-21)
(0.0606179 0.00559714 0)
(0.0542346 0.00496431 1.27067e-21)
(0.0476163 0.00323935 -2.52199e-21)
(0.040914 0.000395441 1.24728e-21)
(0.0339719 -0.00329495 -6.49532e-23)
(0.0270388 -0.00781787 5.92921e-23)
(0.0202631 -0.0134613 1.51739e-23)
(0.0138838 -0.0186696 -2.08673e-23)
(0.00700572 -0.0287784 -2.31558e-23)
(0.0646455 -0.00229799 3.99612e-21)
(0.0594669 -0.0023923 -1.84067e-21)
(0.0526832 -0.00482906 1.82297e-21)
(0.045924 -0.00798088 -9.97504e-22)
(0.0391493 -0.0119368 7.83e-22)
(0.0321653 -0.0164342 0)
(0.0251952 -0.0215155 -5.94276e-23)
(0.0184431 -0.0274083 1.25529e-24)
(0.0119372 -0.0328043 7.04743e-24)
(0.00561732 -0.0416901 3.50213e-23)
(0.0641865 -0.00769192 -6.07271e-22)
(0.0578484 -0.0106919 0)
(0.0509051 -0.0146827 0)
(0.0440933 -0.0190968 0)
(0.037298 -0.0240286 5.07221e-22)
(0.0303101 -0.0292069 -3.12061e-22)
(0.0233428 -0.0347139 2.28399e-23)
(0.0166364 -0.0406848 5.54062e-24)
(0.0101623 -0.0460248 7.35089e-24)
(0.00439103 -0.0535516 1.48611e-23)
(0.0629083 -0.0139857 -4.25442e-22)
(0.0556871 -0.019385 -1.6214e-21)
(0.0487816 -0.0246617 -6.51164e-22)
(0.0419985 -0.0301039 6.50699e-22)
(0.03526 -0.0358109 -1.92735e-22)
(0.028339 -0.0414863 0)
(0.0214539 -0.0472425 -5.99609e-23)
(0.0148664 -0.0531101 2.66132e-23)
(0.0085741 -0.0581748 -9.3483e-24)
(0.00337114 -0.0643443 -2.24478e-23)
(0.0609012 -0.0210634 -4.48748e-21)
(0.0530932 -0.0283433 7.47212e-22)
(0.0463857 -0.0346676 1.90876e-22)
(0.0396941 -0.0408887 6.41288e-22)
(0.0330822 -0.0471593 0)
(0.0262953 -0.0531319 0)
(0.0195672 -0.0589543 0)
(0.0131783 -0.064555 2.74316e-23)
(0.00718679 -0.0691805 0)
(0.00255692 -0.0740856 0)
(0.0582447 -0.0287337 0)
(0.0501807 -0.0373606 1.27828e-21)
(0.0437912 -0.0445379 -8.2328e-22)
(0.0372556 -0.0512953 -4.6778e-22)
(0.0308306 -0.05793 4.70182e-22)
(0.0242398 -0.0640116 9.82848e-23)
(0.0177345 -0.069736 -1.22679e-22)
(0.0116147 -0.0749438 -1.22483e-22)
(0.00600431 -0.0790331 9.8042e-24)
(0.00192305 -0.0828228 5.93641e-24)
(0.0550303 -0.0367484 0)
(0.0470504 -0.0462296 -4.55306e-22)
(0.0410641 -0.0540959 -1.83937e-22)
(0.0347455 -0.0611668 0)
(0.0285622 -0.0679919 6.37224e-23)
(0.0222246 -0.0740225 -2.34631e-22)
(0.0159978 -0.0795194 1.03663e-22)
(0.0102033 -0.0842554 5.06015e-24)
(0.00501773 -0.0877747 -8.31601e-24)
(0.00143958 -0.0906249 -5.92565e-24)
(0.0513848 -0.0448785 6.09291e-22)
(0.0437822 -0.0547693 4.13312e-22)
(0.0382631 -0.0631847 -1.40067e-22)
(0.0322207 -0.0703734 7.18764e-23)
(0.0263267 -0.0772473 1.01489e-22)
(0.0202927 -0.0831036 1.04166e-22)
(0.0143869 -0.0882844 -2.26459e-23)
(0.00895651 -0.0925171 -1.22597e-23)
(0.0042083 -0.0954832 8.34322e-24)
(0.00107714 -0.0975729 6.27102e-25)
(0.0474376 -0.0529326 -1.28199e-22)
(0.040447 -0.0628424 1.29353e-22)
(0.0354412 -0.0716862 -9.32724e-23)
(0.0297335 -0.0788291 -7.17673e-23)
(0.0241654 -0.0856422 4.53786e-23)
(0.0184764 -0.0912406 -8.19139e-23)
(0.0129192 -0.0960563 3.18657e-23)
(0.00787353 -0.0997945 2.97649e-24)
(0.0035517 -0.102258 0)
(0.000808531 -0.103754 -6.2844e-25)
(0.0433358 -0.0607645 1.31442e-22)
(0.0371246 -0.0703643 -1.32574e-22)
(0.0326572 -0.0795288 -9.8518e-23)
(0.0273372 -0.0864975 -7.6777e-23)
(0.0221154 -0.0931684 -4.78581e-23)
(0.0168002 -0.098463 7.26068e-24)
(0.0116025 -0.102898 1.69274e-23)
(0.00694496 -0.10618 2.65982e-23)
(0.00302226 -0.10821 0)
(0.000610194 -0.109255 -2.25437e-24)
(0.0392312 -0.068285 0)
(0.0339019 -0.0773022 -4.44573e-22)
(0.0299702 -0.0866853 7.50693e-22)
(0.0250822 -0.0933893 7.68902e-23)
(0.020207 -0.0998576 1.21243e-22)
(0.0152802 -0.104835 1.28456e-22)
(0.0104373 -0.108896 -2.7191e-23)
(0.00615626 -0.111779 -1.62136e-23)
(0.00259602 -0.113448 1.92128e-23)
(0.000463345 -0.114163 2.24903e-24)
(0.0352433 -0.0754594 0)
(0.030847 -0.0836721 -5.15264e-22)
(0.0274199 -0.0931667 -2.04613e-22)
(0.0230007 -0.0995556 0)
(0.0184566 -0.105773 -3.35308e-22)
(0.0139202 -0.110448 1.27917e-22)
(0.00941589 -0.114157 7.80959e-23)
(0.0054898 -0.116704 1.30668e-22)
(0.00225193 -0.118081 -1.91501e-23)
(0.000353639 -0.118562 1.40048e-23)
(0.031455 -0.0822938 0)
(0.0280055 -0.0895362 5.19535e-22)
(0.0250264 -0.0990147 0)
(0.0211058 -0.10508 6.01406e-22)
(0.0168675 -0.111002 -6.04525e-22)
(0.0127132 -0.115406 -1.61756e-22)
(0.00852562 -0.11879 3.49103e-23)
(0.00492685 -0.121066 -1.35976e-22)
(0.00197232 -0.122211 -2.50206e-23)
(0.000270263 -0.122531 -2.15256e-23)
(0.0279248 -0.0888203 5.34268e-21)
(0.025413 -0.0949968 -2.00282e-21)
(0.0228034 -0.104294 -1.93571e-22)
(0.0194004 -0.110068 -8.0991e-22)
(0.0154383 -0.115645 0)
(0.0116478 -0.119823 -1.72528e-22)
(0.00775243 -0.122907 5.63284e-23)
(0.0044501 -0.124973 2.04776e-22)
(0.00174331 -0.125932 8.42618e-24)
(0.00020541 -0.126151 -8.42036e-24)
(0.0246838 -0.0950751 4.61668e-22)
(0.0230991 -0.10019 3.11837e-21)
(0.0207653 -0.109083 8.47134e-22)
(0.0178825 -0.114637 -8.46613e-22)
(0.0141675 -0.119813 -2.96179e-22)
(0.0107118 -0.123812 0)
(0.00708385 -0.126618 -2.81486e-22)
(0.00404517 -0.128524 1.50742e-22)
(0.00155474 -0.129335 7.68318e-23)
(0.00015371 -0.129495 1.93747e-23)
(0.0217495 -0.101072 -7.49059e-22)
(0.0211021 -0.10528 0)
(0.0189427 -0.113471 0)
(0.016554 -0.118905 0)
(0.0130599 -0.123618 -2.35177e-22)
(0.00989731 -0.127482 5.30759e-22)
(0.00651158 -0.130025 2.89503e-22)
(0.00370183 -0.131814 -3.44144e-22)
(0.00139989 -0.132505 1.98111e-23)
(0.000111553 -0.132641 -3.87997e-23)
(0.0191169 -0.106778 -1.72968e-21)
(0.0194366 -0.110443 2.31537e-21)
(0.0173592 -0.117555 -2.29351e-21)
(0.0154016 -0.122984 1.47535e-21)
(0.0121129 -0.127169 -1.78994e-21)
(0.00919206 -0.130935 0)
(0.00602584 -0.133224 -1.7521e-22)
(0.00341055 -0.13493 -7.37774e-24)
(0.00127341 -0.13552 -6.53824e-23)
(7.60622e-05 -0.135659 -2.19356e-23)
(0.016548 -0.11206 -8.12258e-22)
(0.0178683 -0.115847 0)
(0.0158973 -0.121439 -2.26303e-21)
(0.0143046 -0.126974 3.51663e-21)
(0.0112521 -0.130572 -1.20879e-21)
(0.00853848 -0.134265 -1.29777e-22)
(0.00559067 -0.136305 1.74811e-22)
(0.00314902 -0.137952 2.18289e-23)
(0.00116557 -0.138457 1.34434e-22)
(4.58339e-05 -0.138624 4.36593e-23)
(0.0140249 -0.116557 -3.28294e-21)
(0.0162948 -0.121645 3.21024e-21)
(0.0145703 -0.125268 2.92181e-22)
(0.0132518 -0.130981 0)
(0.0104666 -0.133946 0)
(0.0079333 -0.137573 1.33606e-22)
(0.00520171 -0.139361 3.24653e-22)
(0.00291693 -0.140962 -3.18614e-22)
(0.00107755 -0.141392 -2.41083e-23)
(3.22577e-05 -0.141607 2.35976e-23)
(0.0136806 -0.123559 0)
(0.016539 -0.135543 0)
(0.0143238 -0.134218 0)
(0.0127657 -0.140573 0)
(0.00999943 -0.142113 0)
(0.00745322 -0.145674 0)
(0.00487735 -0.14688 0)
(0.00272492 -0.148384 0)
(0.0010429 -0.148605 0)
(6.60604e-05 -0.148893 0)
(0.0130904 -0.146288 0)
(0.0119721 -0.159656 0)
(0.010139 -0.154824 0)
(0.00864363 -0.161285 0)
(0.00667381 -0.16066 0)
(0.00496427 -0.163941 0)
(0.00322175 -0.163997 0)
(0.00183689 -0.165318 0)
(0.000717178 -0.165074 0)
(7.40521e-05 -0.165433 0)
(0.013587 -0.174482 0)
(0.0111857 -0.188974 0)
(0.00915774 -0.18148 0)
(0.0073296 -0.18837 0)
(0.00556744 -0.185913 0)
(0.00402527 -0.18931 0)
(0.00262448 -0.188357 0)
(0.00152218 -0.189756 0)
(0.000641177 -0.189047 0)
(8.73566e-05 -0.189554 0)
(0.0136706 -0.209868 0)
(0.0103988 -0.2255 0)
(0.00841052 -0.216153 0)
(0.0063236 -0.223825 0)
(0.00481795 -0.219865 0)
(0.00336032 -0.223738 0)
(0.002255 -0.221875 0)
(0.00131217 -0.223588 0)
(0.000607694 -0.222386 0)
(8.83714e-05 -0.223152 0)
(0.0134198 -0.253112 0)
(0.00973033 -0.269037 0)
(0.00783503 -0.25911 0)
(0.0055606 -0.267433 0)
(0.00429198 -0.262581 0)
(0.00284751 -0.267038 0)
(0.0019928 -0.264496 0)
(0.00111365 -0.266648 0)
(0.000566212 -0.265005 0)
(6.41461e-05 -0.266127 0)
(0.0125238 -0.301962 0)
(0.0088336 -0.316507 0)
(0.00711632 -0.307777 0)
(0.00481715 -0.315944 0)
(0.0037723 -0.311203 0)
(0.00235061 -0.315872 0)
(0.00170214 -0.313136 0)
(0.000846513 -0.315566 0)
(0.000458631 -0.313706 0)
(7.32166e-06 -0.315122 0)
(0.0107619 -0.350848 0)
(0.00748303 -0.362443 0)
(0.00602317 -0.356471 0)
(0.00394184 -0.363385 0)
(0.00310469 -0.359816 0)
(0.0018025 -0.363967 0)
(0.00130994 -0.361665 0)
(0.00051347 -0.363923 0)
(0.000280355 -0.362224 0)
(-5.89198e-05 -0.363657 0)
(0.00821038 -0.392773 0)
(0.00565615 -0.400836 0)
(0.00453782 -0.398208 0)
(0.00290234 -0.403178 0)
(0.00227666 -0.401347 0)
(0.00122764 -0.404368 0)
(0.000861996 -0.402931 0)
(0.000210243 -0.404567 0)
(0.000103244 -0.403351 0)
(-9.54435e-05 -0.404446 0)
(0.00511283 -0.4224 0)
(0.00349265 -0.427549 0)
(0.00279606 -0.427705 0)
(0.00176076 -0.430844 0)
(0.00137294 -0.430585 0)
(0.000692217 -0.432402 0)
(0.000459445 -0.431842 0)
(3.14066e-05 -0.432733 0)
(-3.06153e-08 -0.432068 0)
(-8.43423e-05 -0.432672 0)
(0.00173451 -0.43742 0)
(0.0011726 -0.441012 0)
(0.000942655 -0.44268 0)
(0.000586493 -0.444759 0)
(0.000458172 -0.445389 0)
(0.000220644 -0.446466 0)
(0.000140958 -0.446429 0)
(-9.9575e-06 -0.446846 0)
(-1.33976e-05 -0.446538 0)
(-3.34528e-05 -0.44681 0)
(0.0135704 -0.132471 3.81851e-21)
(0.014498 -0.156731 -3.74467e-21)
(0.015571 -0.186591 4.80769e-22)
(0.0158275 -0.222863 0)
(0.0155391 -0.265589 0)
(0.0144101 -0.312168 5.55753e-22)
(0.0123389 -0.357426 -2.38741e-21)
(0.00943323 -0.395447 2.3542e-21)
(0.00590899 -0.421984 6.39303e-22)
(0.00200898 -0.435363 -6.29244e-22)
(0.0138235 -0.137175 -4.52666e-21)
(0.0153143 -0.16138 0)
(0.0165181 -0.191344 3.28097e-21)
(0.0168055 -0.227562 -7.57078e-21)
(0.016472 -0.269839 4.85878e-21)
(0.0152334 -0.315448 -5.15625e-22)
(0.0130319 -0.359357 1.14896e-21)
(0.00997596 -0.396017 2.42496e-21)
(0.00626493 -0.421523 6.82381e-22)
(0.00212829 -0.434366 6.62491e-22)
(0.0143584 -0.14206 5.2827e-21)
(0.0164372 -0.166278 -3.62054e-21)
(0.0176889 -0.196134 3.58621e-21)
(0.0179667 -0.23209 -4.00844e-21)
(0.0175477 -0.273761 2.96544e-21)
(0.0161634 -0.318308 0)
(0.0137933 -0.36087 -1.15175e-21)
(0.0105484 -0.396244 5.88573e-23)
(0.00662319 -0.420821 -1.27284e-21)
(0.00224072 -0.433196 -1.29974e-21)
(0.0152114 -0.146455 -8.53293e-22)
(0.0178076 -0.170785 0)
(0.0190612 -0.200583 0)
(0.0193053 -0.236296 0)
(0.0187736 -0.277378 3.30141e-21)
(0.0172208 -0.320901 -2.20816e-21)
(0.0146516 -0.362173 -1.54863e-23)
(0.0111799 -0.39631 -1.35941e-21)
(0.00700726 -0.419979 -6.97826e-22)
(0.0023571 -0.431884 -7.47129e-22)
(0.0164496 -0.150459 7.52317e-23)
(0.0194105 -0.174739 -2.57138e-21)
(0.0206164 -0.204438 -1.95608e-21)
(0.0208036 -0.23992 1.95485e-21)
(0.0201381 -0.280461 -1.07836e-21)
(0.0184035 -0.323058 0)
(0.0156167 -0.363169 -1.26669e-21)
(0.0118908 -0.39618 2.77361e-21)
(0.00743957 -0.419004 -1.41943e-21)
(0.00248924 -0.430457 1.46195e-21)
(0.0181085 -0.154137 -6.83096e-21)
(0.0212668 -0.178182 7.43809e-22)
(0.0223705 -0.207662 -1.41465e-22)
(0.0224669 -0.242868 2.00779e-21)
(0.021642 -0.282881 0)
(0.0197098 -0.324643 0)
(0.0166885 -0.363737 0)
(0.0126856 -0.395773 1.48625e-21)
(0.00792773 -0.417863 0)
(0.00264255 -0.428921 0)
(0.0201992 -0.157395 0)
(0.0233922 -0.181089 2.81124e-21)
(0.0243482 -0.210251 -1.8997e-21)
(0.0243133 -0.245134 -2.25402e-21)
(0.0233001 -0.284622 2.26574e-21)
(0.021148 -0.325623 1.35324e-21)
(0.0178695 -0.363834 -1.3423e-21)
(0.0135641 -0.395046 -5.30908e-21)
(0.00847087 -0.416528 3.77984e-22)
(0.0028179 -0.427265 -1.29379e-21)
(0.0227305 -0.160118 0)
(0.0257927 -0.183384 -9.13677e-22)
(0.0265657 -0.212166 -5.15112e-22)
(0.0263578 -0.246707 0)
(0.0251285 -0.285691 6.59659e-22)
(0.0227312 -0.326013 -1.98968e-21)
(0.0191674 -0.363467 2.21783e-21)
(0.0145288 -0.393995 7.91553e-22)
(0.00906809 -0.414989 -8.66051e-22)
(0.00301534 -0.425477 1.71651e-21)
(0.0257136 -0.162216 8.21969e-22)
(0.0284734 -0.185008 9.90106e-22)
(0.0290334 -0.213358 -2.1969e-22)
(0.0286095 -0.247564 2.94579e-22)
(0.0271391 -0.286086 6.27162e-22)
(0.0244706 -0.325826 1.05406e-21)
(0.0205913 -0.362654 -3.9671e-22)
(0.015585 -0.392632 -4.28802e-22)
(0.00972106 -0.413245 8.68904e-22)
(0.00323568 -0.423548 4.70875e-22)
(0.0291581 -0.163617 -2.28671e-22)
(0.0314397 -0.185929 2.30831e-22)
(0.0317601 -0.213794 -2.64983e-22)
(0.0310746 -0.247685 -2.94193e-22)
(0.0293405 -0.285795 3.4993e-22)
(0.0263745 -0.325062 -7.14716e-22)
(0.0221496 -0.361401 6.07077e-22)
(0.0167396 -0.390962 2.17174e-22)
(0.0104336 -0.411297 0)
(0.00348053 -0.421476 -4.71929e-22)
(0.0330714 -0.164266 2.34162e-22)
(0.0346941 -0.186141 -2.36447e-22)
(0.0347541 -0.21346 -2.84183e-22)
(0.0337581 -0.24707 -3.17762e-22)
(0.0317402 -0.284818 -3.65142e-22)
(0.0284493 -0.323726 -2.58595e-23)
(0.0238485 -0.359712 2.13845e-22)
(0.0179978 -0.388989 6.90855e-22)
(0.0112088 -0.409146 0)
(0.00375103 -0.419257 -5.15048e-22)
(0.037458 -0.16415 0)
(0.0382367 -0.18564 -1.08724e-21)
(0.0380204 -0.212365 1.97068e-21)
(0.0366628 -0.245725 3.18294e-22)
(0.0343452 -0.283161 7.40285e-22)
(0.0307014 -0.321818 1.21737e-21)
(0.0256958 -0.357584 -4.33435e-22)
(0.0193669 -0.386707 -4.68706e-22)
(0.0120515 -0.406787 1.03682e-21)
(0.00404861 -0.416885 5.1385e-22)
(0.0423194 -0.163305 0)
(0.0420676 -0.184422 -1.07156e-21)
(0.0415595 -0.210549 -5.92311e-22)
(0.0397921 -0.243672 0)
(0.0371601 -0.280854 -2.33312e-21)
(0.0331347 -0.319363 7.79194e-22)
(0.0276947 -0.355037 9.30294e-22)
(0.0208482 -0.38413 3.00611e-21)
(0.0129615 -0.404212 -1.03345e-21)
(0.00437258 -0.414349 2.23095e-21)
(0.0476502 -0.161843 0)
(0.0461882 -0.182484 1.08067e-21)
(0.0453613 -0.208091 0)
(0.0431479 -0.240918 2.97611e-21)
(0.0401887 -0.277909 -2.99139e-21)
(0.0357566 -0.316355 -1.83479e-21)
(0.0298532 -0.352057 -4.20517e-23)
(0.0224544 -0.381241 -3.0939e-21)
(0.0139494 -0.40141 -5.15735e-22)
(0.00472453 -0.411635 -2.77499e-21)
(0.053415 -0.159823 7.80346e-21)
(0.0506131 -0.179825 -2.99584e-21)
(0.0494189 -0.205002 3.23587e-22)
(0.0467431 -0.237479 -2.77253e-21)
(0.0434272 -0.274352 0)
(0.0385695 -0.312826 -1.91341e-21)
(0.0321718 -0.348676 -1.61677e-22)
(0.0241832 -0.378063 4.20169e-21)
(0.0150124 -0.398408 5.76202e-22)
(0.00510252 -0.408758 -5.78432e-22)
(0.0595726 -0.157234 -8.02726e-22)
(0.0553509 -0.176521 5.60035e-21)
(0.0537076 -0.20132 2.88384e-21)
(0.0505717 -0.233447 -2.8819e-21)
(0.0468758 -0.270217 -1.74252e-21)
(0.041579 -0.308778 0)
(0.0346615 -0.34487 -4.29009e-21)
(0.026048 -0.374567 2.15171e-21)
(0.0161622 -0.395182 2.29892e-21)
(0.00551054 -0.405701 2.46862e-21)
(0.066053 -0.15415 -1.07524e-21)
(0.0603953 -0.172664 0)
(0.058206 -0.197129 0)
(0.0546233 -0.228911 0)
(0.0505299 -0.265617 -2.01514e-21)
(0.044775 -0.304348 3.75116e-21)
(0.0373031 -0.34078 4.37036e-21)
(0.0280229 -0.370861 -6.88429e-21)
(0.0173768 -0.391789 1.23256e-21)
(0.00593743 -0.402491 -3.66654e-21)
(0.0727442 -0.150703 -1.60586e-21)
(0.0657374 -0.168282 5.52053e-21)
(0.0628932 -0.192439 -5.46788e-21)
(0.0588919 -0.223795 7.04198e-21)
(0.0544016 -0.26038 -8.8584e-21)
(0.0481954 -0.299271 0)
(0.0401611 -0.336118 -2.28473e-21)
(0.0301841 -0.366723 -9.43732e-23)
(0.0187176 -0.388099 -2.56203e-21)
(0.0064071 -0.399043 -2.61107e-21)
(0.07949 -0.147221 -1.14218e-21)
(0.0713534 -0.163669 0)
(0.0677096 -0.187658 -7.30599e-21)
(0.0632996 -0.218704 1.37793e-20)
(0.0583875 -0.255326 -5.33756e-21)
(0.0516938 -0.294491 -1.08003e-21)
(0.0430486 -0.331748 2.27976e-21)
(0.0323392 -0.36275 -1.15739e-22)
(0.0200416 -0.384422 3.7394e-21)
(0.00685766 -0.395526 3.86412e-21)
(0.0864905 -0.142288 -5.15288e-21)
(0.077957 -0.157305 5.05253e-21)
(0.0731868 -0.180917 7.80099e-22)
(0.0682906 -0.211418 0)
(0.0629363 -0.247919 0)
(0.0557814 -0.287475 1.0648e-21)
(0.0465255 -0.325588 4.88677e-21)
(0.0350107 -0.357605 -4.78271e-21)
(0.0217194 -0.380088 -1.31014e-21)
(0.00743843 -0.391541 1.28831e-21)
(0.0968713 -0.142361 0)
(0.0926812 -0.154632 0)
(0.0849498 -0.178898 0)
(0.0787289 -0.208877 0)
(0.0720335 -0.244516 0)
(0.063437 -0.282746 0)
(0.052629 -0.319326 0)
(0.0394573 -0.349957 0)
(0.0244152 -0.371601 0)
(0.0082442 -0.382888 0)
(0.115057 -0.129817 0)
(0.1173 -0.146778 0)
(0.105606 -0.173787 0)
(0.0984602 -0.2033 0)
(0.0893331 -0.237729 0)
(0.0781157 -0.273683 0)
(0.0644254 -0.307509 0)
(0.0481184 -0.335366 0)
(0.0297665 -0.354472 0)
(0.0102683 -0.36365 0)
(0.138522 -0.117806 0)
(0.143483 -0.137178 0)
(0.12799 -0.164483 0)
(0.12039 -0.192626 0)
(0.108132 -0.225293 0)
(0.0938494 -0.25839 0)
(0.0767191 -0.289385 0)
(0.0568563 -0.31518 0)
(0.0349008 -0.333655 0)
(0.0115619 -0.343835 0)
(0.167673 -0.10934 0)
(0.173537 -0.129189 0)
(0.153946 -0.155412 0)
(0.145982 -0.182134 0)
(0.129712 -0.213004 0)
(0.112138 -0.243057 0)
(0.0910398 -0.271101 0)
(0.0671325 -0.293951 0)
(0.0411994 -0.309354 0)
(0.0143488 -0.31595 0)
(0.201902 -0.0990776 0)
(0.206149 -0.117375 0)
(0.182396 -0.141146 0)
(0.173225 -0.165285 0)
(0.15137 -0.192616 0)
(0.129869 -0.2184 0)
(0.103861 -0.243159 0)
(0.0756168 -0.26394 0)
(0.0456777 -0.279793 0)
(0.0144344 -0.290336 0)
(0.241096 -0.0909854 0)
(0.242544 -0.107065 0)
(0.215032 -0.129005 0)
(0.203771 -0.150276 0)
(0.175525 -0.174193 0)
(0.150669 -0.19657 0)
(0.119477 -0.218882 0)
(0.0867069 -0.236988 0)
(0.0525779 -0.249406 0)
(0.019361 -0.252166 0)
(0.281849 -0.0752669 0)
(0.276641 -0.0877721 0)
(0.246222 -0.105781 0)
(0.230304 -0.121836 0)
(0.1952 -0.140652 0)
(0.16641 -0.158117 0)
(0.127743 -0.176052 0)
(0.0899642 -0.191493 0)
(0.0515182 -0.207071 0)
(0.0123819 -0.225439 0)
(0.321664 -0.0651096 0)
(0.311498 -0.0736181 0)
(0.280539 -0.0885418 0)
(0.259613 -0.100531 0)
(0.221663 -0.116968 0)
(0.189589 -0.131854 0)
(0.146229 -0.149013 0)
(0.104949 -0.164853 0)
(0.0618224 -0.180472 0)
(0.0310455 -0.176327 0)
(0.359408 -0.0361796 0)
(0.345637 -0.039932 0)
(0.302039 -0.0488927 0)
(0.274663 -0.0545863 0)
(0.224817 -0.0643471 0)
(0.184149 -0.0715224 0)
(0.126957 -0.0809632 0)
(0.0735588 -0.089966 0)
(0.0213711 -0.10902 0)
(-0.0388801 -0.16037 0)
(0.621905 -0.0189272 0)
(0.601588 -0.021896 0)
(0.561657 -0.0263054 0)
(0.529869 -0.0304824 0)
(0.480134 -0.0366886 0)
(0.434551 -0.0434915 0)
(0.370484 -0.0538564 0)
(0.301673 -0.0692681 0)
(0.210813 -0.0986745 0)
(0.151409 -0.157025 0)
(0.115867 -0.128321 5.28357e-21)
(0.136279 -0.115278 -5.20334e-21)
(0.159887 -0.103572 8.58719e-22)
(0.188579 -0.0953126 0)
(0.222698 -0.0857969 0)
(0.260285 -0.0784973 1.31549e-21)
(0.300316 -0.0646023 -6.27201e-21)
(0.337931 -0.0565458 6.18509e-21)
(0.385768 -0.0311052 1.76197e-21)
(0.642805 -0.0165814 -1.78753e-21)
(0.122336 -0.12223 -4.91103e-21)
(0.142534 -0.109009 0)
(0.165718 -0.097702 6.15613e-21)
(0.194141 -0.0896709 -1.48987e-20)
(0.228295 -0.0805074 1.0057e-20)
(0.265801 -0.0735827 -1.23111e-21)
(0.305856 -0.0603692 2.67431e-21)
(0.343552 -0.0531637 6.04008e-21)
(0.395519 -0.0291221 1.63315e-21)
(0.651006 -0.015582 1.64886e-21)
(0.128016 -0.115485 5.66945e-21)
(0.147852 -0.102439 -5.75311e-21)
(0.170521 -0.0917077 5.69867e-21)
(0.198586 -0.0839935 -7.92365e-21)
(0.232595 -0.0752814 5.74291e-21)
(0.270153 -0.0688156 0)
(0.310193 -0.0563459 -2.68074e-21)
(0.348513 -0.0500059 -6.00436e-23)
(0.404125 -0.0273279 -3.09591e-21)
(0.658762 -0.0146207 -3.28209e-21)
(0.133574 -0.108259 -9.7488e-22)
(0.153437 -0.0956844 0)
(0.175692 -0.0856293 0)
(0.203522 -0.0782839 0)
(0.23722 -0.0700946 6.51315e-21)
(0.27475 -0.0641611 -4.43815e-21)
(0.314618 -0.0525004 -1.78849e-22)
(0.353529 -0.0469963 -3.07176e-21)
(0.41215 -0.0257046 -1.56006e-21)
(0.666265 -0.0137377 -1.60254e-21)
(0.138613 -0.100674 9.97643e-22)
(0.158714 -0.0888421 -3.0958e-21)
(0.180658 -0.0795376 -3.24212e-21)
(0.208379 -0.0725949 3.24011e-21)
(0.241817 -0.0649673 -2.04557e-21)
(0.279385 -0.0596213 0)
(0.318983 -0.0488033 -2.60481e-21)
(0.358544 -0.0440793 5.83171e-21)
(0.419728 -0.0242125 -2.9285e-21)
(0.673445 -0.0129387 3.19313e-21)
(0.142949 -0.0927542 -7.30244e-21)
(0.163341 -0.0819334 3.47458e-22)
(0.185018 -0.0734448 -5.2218e-22)
(0.212611 -0.0669636 3.16668e-21)
(0.245903 -0.0599428 0)
(0.283571 -0.0551948 0)
(0.322915 -0.0452584 0)
(0.363252 -0.0412655 2.78344e-21)
(0.426758 -0.0228211 0)
(0.680203 -0.0122215 0)
(0.146506 -0.0845174 0)
(0.167267 -0.0749499 3.70257e-21)
(0.188731 -0.0673323 -2.57201e-21)
(0.21614 -0.0613868 -3.62388e-21)
(0.249319 -0.0550219 3.64271e-21)
(0.287076 -0.0508821 2.35958e-21)
(0.326323 -0.0418624 -2.22438e-21)
(0.367401 -0.0385654 -9.57951e-21)
(0.433085 -0.0215207 6.77491e-22)
(0.686447 -0.0115765 -2.27364e-21)
(0.149179 -0.0759948 0)
(0.170457 -0.0678839 -1.1343e-21)