/*--------------------------------*- C++ -*----------------------------------*\
  =========                 |
  \\      /  F ield         | OpenFOAM: The Open Source CFD Toolbox
   \\    /   O peration     | Website:  https://openfoam.org
    \\  /    A nd           | Version:  7
     \\/     M anipulation  |
\*---------------------------------------------------------------------------*/
FoamFile
{
    version     2.0;
    format      ascii;
    class       volVectorField;
    location    "4.7";
    object      U;
}
// * * * * * * * * * * * * * * * * * * * * * * * * * * * * * * * * * * * * * //

dimensions      [0 1 -1 0 0 0 0];

internalField   nonuniform List<vector> 
18000
(
(-0.000702755 0.00794167 1.04908e-20)
(-0.00382118 0.0277174 0)
(-0.00899601 0.0506985 0)
(-0.0147488 0.0745043 0)
(-0.0206598 0.0979921 -3.4502e-21)
(-0.0263237 0.120662 1.74543e-20)
(-0.0314824 0.142302 -3.53186e-21)
(-0.0359754 0.162819 3.55621e-21)
(-0.0397091 0.182152 0)
(-0.0426361 0.200236 -1.07756e-20)
(-0.0447419 0.216986 -3.60517e-21)
(-0.0460347 0.232308 0)
(-0.0465401 0.246105 7.21173e-21)
(-0.0462927 0.258294 7.22724e-21)
(-0.0453336 0.268812 -1.44439e-20)
(-0.0437073 0.277625 -1.44172e-20)
(-0.0414579 0.284726 0)
(-0.0386293 0.290138 -2.15259e-20)
(-0.0352654 0.293911 7.13849e-21)
(-0.0314072 0.296119 -2.13502e-20)
(-0.0270939 0.296855 7.07357e-21)
(-0.0223633 0.296224 0)
(-0.0172508 0.294342 -6.96337e-21)
(-0.011792 0.291331 -6.95252e-21)
(-0.00602476 0.287316 0)
(8.18989e-06 0.28242 0)
(0.00625206 0.276764 -1.36012e-20)
(0.012663 0.270464 -1.34952e-20)
(0.0191869 0.26371 -1.34451e-20)
(0.0255428 0.256738 1.49969e-20)
(-0.000963968 0.00874881 1.49387e-20)
(-0.00469225 0.0294945 2.59798e-20)
(-0.0105572 0.0530538 -2.6579e-20)
(-0.0170129 0.0771716 -2.70876e-20)
(-0.0236226 0.100759 -6.88722e-21)
(-0.0299725 0.123359 2.08827e-20)
(-0.0358003 0.144795 -2.81593e-20)
(-0.0409404 0.165005 -2.83893e-20)
(-0.0452953 0.183951 2.85667e-20)
(-0.0488153 0.201589 2.8695e-20)
(-0.0514818 0.217854 -1.43938e-20)
(-0.0532992 0.232662 -2.88367e-20)
(-0.05429 0.245928 -1.44605e-20)
(-0.0544856 0.257576 2.88446e-20)
(-0.0539239 0.267549 -2.88125e-20)
(-0.052647 0.275818 2.8788e-20)
(-0.0506967 0.282379 -5.74306e-20)
(-0.0481145 0.287258 4.28998e-20)
(-0.0449414 0.290506 -2.84497e-20)
(-0.0412151 0.292197 1.42145e-20)
(-0.0369724 0.292423 -2.81689e-20)
(-0.0322496 0.291293 0)
(-0.0270803 0.288925 1.40995e-20)
(-0.0214997 0.285444 -2.76762e-20)
(-0.0155462 0.280984 2.74592e-20)
(-0.00926628 0.275678 0)
(-0.00272021 0.269661 -1.34461e-20)
(0.00404075 0.263068 1.33755e-20)
(0.0109366 0.256114 5.32627e-20)
(0.0176804 0.249052 2.97646e-20)
(-0.00125263 0.00951003 -2.39311e-20)
(-0.00558865 0.0311581 -2.59792e-20)
(-0.0121006 0.0553011 3.98564e-20)
(-0.0191954 0.0797374 6.76313e-20)
(-0.0264259 0.103431 0)
(-0.0333751 0.125969 -2.78699e-20)
(-0.039778 0.147209 2.81587e-20)
(-0.0454721 0.167116 8.50645e-20)
(-0.0503585 0.185679 -2.85661e-20)
(-0.0543815 0.202875 -2.86965e-20)
(-0.0575206 0.218654 8.62382e-20)
(-0.0597778 0.232946 2.88362e-20)
(-0.0611717 0.245678 0)
(-0.0617316 0.256782 -5.76936e-20)
(-0.0614922 0.266208 8.61799e-20)
(-0.0604932 0.273928 -2.86618e-20)
(-0.0587741 0.279944 2.86671e-20)
(-0.0563729 0.284281 2.85635e-20)
(-0.0533273 0.286992 9.98209e-23)
(-0.049674 0.28815 0)
(-0.0454465 0.287848 8.44756e-20)
(-0.0406779 0.286195 -5.57964e-20)
(-0.0354009 0.283312 2.78357e-20)
(-0.0296494 0.27933 0)
(-0.0234628 0.27439 -2.74589e-20)
(-0.0168912 0.268638 1.08641e-19)
(-0.00999733 0.262228 -8.05854e-20)
(-0.00284227 0.255316 -2.68307e-20)
(0.00446621 0.248144 2.62724e-20)
(0.0116357 0.240989 2.96442e-20)
(-0.00157303 0.0102968 0)
(-0.00652322 0.032856 1.29522e-20)
(-0.0136401 0.0575482 7.6937e-25)
(-0.0213096 0.0822756 -6.75786e-20)
(-0.0290773 0.10606 0)
(-0.0365319 0.128529 -5.55375e-20)
(-0.0434147 0.149567 0)
(-0.0495635 0.169168 -8.5007e-20)
(-0.0548789 0.187346 2.84654e-20)
(-0.0593048 0.204098 -5.71694e-20)
(-0.0628191 0.21939 -5.74523e-20)
(-0.0654208 0.233169 -2.8775e-20)
(-0.0671253 0.245369 2.87194e-20)
(-0.0679596 0.255931 2.86204e-20)
(-0.0679562 0.26481 -2.88063e-20)
(-0.0671516 0.271983 -5.71405e-20)
(-0.0655823 0.277453 5.697e-20)
(-0.0632843 0.281247 0)
(-0.0602931 0.283415 0)
(-0.0566417 0.284031 0)
(-0.0523607 0.283187 0)
(-0.0474813 0.280993 0)
(-0.0420351 0.277572 0)
(-0.0360549 0.273061 -5.47182e-20)
(-0.0295806 0.26761 -5.45386e-20)
(-0.0226645 0.261379 -2.31517e-22)
(-0.0153745 0.254544 -5.35846e-20)
(-0.00777937 0.247284 -2.68732e-22)
(-9.88366e-06 0.239873 -5.31344e-20)
(0.00762642 0.232621 1.17685e-19)
(-0.00191948 0.0110325 0)
(-0.00748128 0.0344473 1.16228e-19)
(-0.0151569 0.0596622 1.24226e-24)
(-0.0233314 0.0846714 -4.04434e-20)
(-0.0315515 0.108546 1.36824e-19)
(-0.0394185 0.130949 8.32922e-20)
(-0.0466805 0.151797 8.3998e-20)
(-0.0531797 0.171105 0)
(-0.05882 0.18891 0)
(-0.0635451 0.205229 8.57497e-20)
(-0.0673305 0.220047 5.43393e-23)
(-0.0701741 0.233321 -2.00638e-19)
(-0.0720892 0.244999 1.71892e-19)
(-0.0730997 0.255029 -5.73911e-20)
(-0.0732356 0.263372 5.69704e-20)
(-0.0725308 0.270007 5.69999e-20)
(-0.0710197 0.274938 -5.67316e-20)
(-0.0687359 0.278191 5.66932e-20)
(-0.065712 0.279818 1.12606e-19)
(-0.0619784 0.279889 -5.59631e-20)
(-0.0575634 0.278497 -1.11143e-19)
(-0.0524969 0.275751 1.10411e-19)
(-0.0468093 0.271777 -1.09635e-19)
(-0.0405329 0.266716 5.47174e-20)
(-0.0337085 0.260729 0)
(-0.0263906 0.253991 0)
(-0.0186505 0.246698 4.69981e-22)
(-0.0105649 0.239062 -2.108e-19)
(-0.00228473 0.231389 1.04352e-19)
(0.00586117 0.224036 -1.17035e-19)
(-0.00229154 0.0117388 0)
(-0.00846161 0.0359614 -1.033e-19)
(-0.0166462 0.061662 1.05472e-19)
(-0.0252576 0.0869314 0)
(-0.0338457 0.110888 -2.18664e-19)
(-0.0420278 0.133229 -2.7702e-20)
(-0.0495662 0.153893 -5.60572e-20)
(-0.0563099 0.172919 -2.81864e-20)
(-0.0621651 0.190364 0)
(-0.0670778 0.206265 -5.70415e-20)
(-0.0710242 0.220621 5.70981e-20)
(-0.0739998 0.233405 1.14573e-19)
(-0.0760155 0.244576 -1.14586e-19)
(-0.0770932 0.254088 0)
(-0.0772611 0.261909 -1.1425e-19)
(-0.0765504 0.268019 1.13556e-19)
(-0.0749932 0.272423 1.13512e-19)
(-0.0726212 0.275148 1.69051e-19)
(-0.0694645 0.276242 -1.68499e-19)
(-0.0655518 0.275774 2.23028e-19)
(-0.06091 0.273837 1.10999e-19)
(-0.055568 0.270537 -1.10409e-19)
(-0.0495564 0.266003 2.18665e-19)
(-0.0429075 0.260382 0)
(-0.0356628 0.253841 1.07318e-19)
(-0.0278797 0.246574 2.13298e-19)
(-0.0196329 0.238798 -1.05041e-19)
(-0.011005 0.230757 1.05283e-19)
(-0.00216318 0.222799 -2.59253e-22)
(0.00653413 0.215334 -1.16342e-19)
(-0.00268367 0.0123886 -1.1855e-20)
(-0.00945524 0.0373522 0)
(-0.0180995 0.0634944 -1.31813e-19)
(-0.0270761 0.0889996 2.68448e-20)
(-0.0359456 0.113033 8.19332e-20)
(-0.0443467 0.135316 2.76223e-20)
(-0.0520569 0.15581 1.11571e-19)
(-0.0589341 0.174571 0)
(-0.0648908 0.191677 5.66753e-20)
(-0.0698765 0.207179 5.67922e-20)
(-0.073867 0.221094 -5.70672e-20)
(-0.0768568 0.233409 1.71065e-19)
(-0.0788556 0.244093 0)
(-0.0798836 0.253109 0)
(-0.0799664 0.260428 1.70483e-19)
(-0.0791333 0.266034 -2.83356e-19)
(-0.0774148 0.269932 1.12698e-19)
(-0.0748407 0.272146 -1.12581e-19)
(-0.0714395 0.272724 -1.11502e-19)
(-0.0672388 0.271733 -3.33297e-19)
(-0.0622658 0.269262 -3.83065e-22)
(-0.0565495 0.265419 1.09253e-19)
(-0.050121 0.260331 -2.17444e-19)
(-0.0430147 0.25415 1.07544e-19)
(-0.0352737 0.247052 -6.70649e-22)
(-0.0269573 0.239243 -1.06418e-19)
(-0.0181443 0.230964 1.05499e-19)
(-0.0089225 0.222493 0)
(0.000530544 0.214225 1.02871e-19)
(0.00981906 0.206635 2.28163e-22)
(-0.00309239 0.0129733 -2.36552e-20)
(-0.0104545 0.0385961 2.56859e-20)
(-0.0195069 0.0651305 -1.57576e-19)
(-0.0287784 0.0908449 -8.02624e-20)
(-0.0378436 0.114945 1.08769e-19)
(-0.0463662 0.137176 -1.65372e-19)
(-0.0541418 0.157514 -5.58691e-20)
(-0.0610405 0.176031 -1.12239e-19)
(-0.0669822 0.19282 1.1291e-19)
(-0.0719206 0.207948 -2.26993e-19)
(-0.0758331 0.221447 -1.13646e-19)
(-0.0787138 0.233319 -2.78944e-22)
(-0.0805711 0.243543 5.69708e-20)
(-0.0814238 0.252089 -1.70302e-19)
(-0.0812957 0.258933 -2.26761e-19)
(-0.0802148 0.264062 9.5328e-23)
(-0.0782099 0.267479 -3.02556e-22)
(-0.0753095 0.269209 1.11682e-19)
(-0.0715417 0.269297 1.11499e-19)
(-0.0669343 0.267808 1.69123e-22)
(-0.0615157 0.264828 -1.81296e-22)
(-0.0553165 0.260462 1.08271e-19)
(-0.0483701 0.25484 1.08412e-19)
(-0.0407139 0.248115 -2.37338e-22)
(-0.0323941 0.240469 -3.19247e-19)
(-0.023473 0.23212 2.10296e-19)
(-0.0140333 0.22333 2.09015e-19)
(-0.00416676 0.21441 -2.06747e-19)
(0.00594444 0.205808 -1.02868e-19)
(0.0158601 0.198077 -1.13479e-19)
(-0.00351152 0.0134821 -2.12157e-19)
(-0.0114495 0.0396721 -2.56274e-20)
(-0.0208595 0.0665399 1.31229e-19)
(-0.0303568 0.0924307 1.07048e-19)
(-0.0395333 0.116587 -1.08767e-19)
(-0.0480808 0.138771 1.10189e-19)
(-0.0558158 0.158969 -5.56428e-20)
(-0.0626226 0.177264 1.68264e-19)
(-0.0684303 0.193761 -1.12907e-19)
(-0.0731985 0.208544 1.1337e-19)
(-0.0769066 0.221658 5.68488e-20)
(-0.0795494 0.233117 -5.69827e-20)
(-0.0811349 0.242912 -3.40401e-19)
(-0.0816804 0.25102 2.26773e-19)
(-0.0812087 0.257421 1.13201e-19)
(-0.0797468 0.262105 0)
(-0.0773224 0.265075 0)
(-0.0739635 0.266355 -7.61193e-22)
(-0.0696988 0.265987 -1.10339e-19)
(-0.0645581 0.264035 0)
(-0.0585719 0.26058 0)
(-0.051774 0.255728 -1.08653e-19)
(-0.044202 0.249605 0)
(-0.035898 0.242367 -2.12435e-19)
(-0.0269129 0.2342 0)
(-0.0173125 0.225329 -1.0501e-19)
(-0.00718475 0.216034 2.07518e-19)
(0.00337464 0.206659 -2.05266e-19)
(0.0141865 0.197704 0)
(0.0247607 0.189814 0)
(-0.00393511 0.013907 1.88556e-19)
(-0.0124303 0.0405598 0)
(-0.0221487 0.0676951 -2.61682e-20)
(-0.0318048 0.0937245 2.66661e-20)
(-0.0410109 0.117922 -1.6235e-19)
(-0.0494892 0.140061 5.29123e-23)
(-0.0570789 0.160133 -5.54625e-20)
(-0.0636806 0.17823 0)
(-0.0692347 0.194465 0)
(-0.0737075 0.208934 -5.65282e-20)
(-0.0770822 0.221697 5.65841e-20)
(-0.0793551 0.232779 -1.13383e-19)
(-0.0805338 0.24218 1.13784e-19)
(-0.0806358 0.249886 0)
(-0.0796833 0.255882 0)
(-0.077702 0.260158 0)
(-0.0747197 0.262721 1.11153e-19)
(-0.070765 0.263592 -4.63388e-22)
(-0.0658684 0.262811 1.10812e-19)
(-0.0600628 0.260439 -2.18411e-19)
(-0.0533825 0.256557 1.08682e-19)
(-0.0458663 0.251265 -5.38178e-19)
(-0.0375576 0.244691 5.35877e-22)
(-0.0285052 0.236989 2.12428e-19)
(-0.0187659 0.228345 -8.07631e-22)
(-0.00841129 0.21899 2.07752e-19)
(0.00246491 0.209215 -2.05144e-19)
(0.013762 0.199392 -2.04029e-19)
(0.025311 0.190075 6.35161e-22)
(0.0365704 0.18201 -2.21632e-19)
(-0.00435675 0.0142413 -2.34812e-20)
(-0.0133861 0.0412432 0)
(-0.0233658 0.0685726 5.2214e-20)
(-0.0331177 0.0946959 -5.32074e-20)
(-0.0422756 0.118914 4.86771e-19)
(-0.050594 0.141007 5.43166e-23)
(-0.0579364 0.160967 -5.53395e-20)
(-0.0642218 0.178888 5.5847e-20)
(-0.0694033 0.194891 -2.80421e-19)
(-0.0734557 0.209081 0)
(-0.076367 0.221529 0)
(-0.0781362 0.232272 -1.12668e-19)
(-0.078772 0.241318 1.13287e-19)
(-0.078292 0.248663 -1.12719e-19)
(-0.0767187 0.254295 1.12241e-19)
(-0.0740777 0.258208 0)
(-0.0703974 0.260408 -4.44819e-19)
(-0.0657082 0.260917 2.20578e-19)
(-0.0600438 0.259774 1.0979e-19)
(-0.053441 0.257036 3.26835e-19)
(-0.04594 0.252782 0)
(-0.0375863 0.247112 2.14879e-19)
(-0.0284308 0.240149 2.12306e-19)
(-0.0185303 0.232046 2.10349e-19)
(-0.00794978 0.222989 -1.38718e-21)
(0.00323216 0.213209 -2.05701e-19)
(0.0149137 0.203001 2.05135e-19)
(0.0269882 0.192757 0)
(0.0393033 0.183085 6.59192e-22)
(0.0512696 0.174834 4.40501e-19)
(-0.00477033 0.0144809 -1.87118e-19)
(-0.0143072 0.0417107 0)
(-0.0245035 0.0691528 -2.08039e-19)
(-0.0342924 0.095318 -2.65247e-19)
(-0.0433293 0.11953 -1.62146e-19)
(-0.051402 0.141569 5.46997e-20)
(-0.0583994 0.161426 6.07644e-23)
(-0.0642607 0.179193 -5.56563e-20)
(-0.0689533 0.194994 5.17714e-22)
(-0.0724621 0.20894 1.12512e-19)
(-0.0747815 0.221112 1.12456e-19)
(-0.0759143 0.231557 -1.12176e-19)
(-0.0758715 0.240292 1.12551e-19)
(-0.074672 0.247319 -3.36676e-19)
(-0.072339 0.252632 3.35365e-19)
(-0.0688994 0.25623 2.22405e-19)
(-0.0643831 0.258118 5.53883e-19)
(-0.0588238 0.258319 -1.10957e-19)
(-0.0522591 0.256869 -2.18021e-19)
(-0.0447315 0.253826 -1.06141e-21)
(-0.0362884 0.249266 -2.14989e-19)
(-0.0269836 0.243287 6.3859e-19)
(-0.0168768 0.23601 -4.2345e-19)
(-0.00603481 0.227585 4.17469e-19)
(0.00546773 0.218194 -2.07726e-19)
(0.0175436 0.208066 4.09965e-19)
(0.0300813 0.197494 8.00398e-22)
(0.0429655 0.18688 -4.01753e-19)
(0.0560668 0.176878 3.96839e-19)
(0.0687567 0.168443 2.16362e-19)
(-0.00516994 0.0146239 1.87117e-19)
(-0.0151843 0.0419548 0)
(-0.0255557 0.0694212 4.67521e-19)
(-0.0353277 0.0955685 1.59177e-19)
(-0.0441767 0.119739 0)
(-0.051924 0.141711 0)
(-0.0584847 0.16147 0)
(-0.0638192 0.1791 0)
(-0.0679113 0.194726 1.11966e-19)
(-0.0707573 0.208463 1.12124e-19)
(-0.07236 0.220399 -2.25073e-19)
(-0.0727276 0.230587 2.2514e-19)
(-0.0718744 0.239056 3.36545e-19)
(-0.0698217 0.245812 1.12353e-19)
(-0.066595 0.250856 1.10836e-19)
(-0.0622232 0.254188 -3.33383e-19)
(-0.0567395 0.255819 -4.41372e-19)
(-0.0501818 0.255768 -2.19639e-19)
(-0.0425931 0.254074 2.18012e-19)
(-0.0340227 0.250792 -4.31964e-19)
(-0.0245268 0.245998 2.13852e-19)
(-0.0141684 0.239788 -4.24305e-19)
(-0.00301795 0.232281 2.09211e-19)
(0.00884697 0.223624 -1.29445e-21)
(0.0213406 0.213994 -2.05655e-19)
(0.0343657 0.203612 -4.07856e-19)
(0.0478 0.192766 4.03609e-19)
(0.0615169 0.181857 0)
(0.0754131 0.171574 -6.73003e-22)
(0.0888383 0.162973 -4.29686e-19)
(-0.00555038 0.0146709 2.32964e-20)
(-0.0160094 0.041973 0)
(-0.0265176 0.0693685 -2.0752e-19)
(-0.0362244 0.0954293 5.2862e-20)
(-0.0448252 0.119515 -5.36762e-20)
(-0.0521744 0.141399 0)
(-0.0582138 0.161055 -5.50175e-20)
(-0.0629262 0.178562 5.5397e-20)
(-0.0663128 0.194037 1.11549e-19)
(-0.0683836 0.207598 -3.3539e-19)
(-0.0691513 0.219335 -1.12145e-19)
(-0.0686314 0.22931 -6.49759e-23)
(-0.0668428 0.237557 -3.27489e-22)
(-0.063811 0.244091 -2.23269e-19)
(-0.0595649 0.248916 -1.11558e-19)
(-0.0541371 0.252037 0)
(-0.0475654 0.253466 4.56102e-22)
(-0.0398932 0.253225 2.18697e-19)
(-0.0311702 0.251352 -2.16582e-19)
(-0.0214541 0.247903 0)
(-0.0108106 0.242952 0)
(0.000686513 0.236594 0)
(0.0129557 0.228947 0)
(0.0259075 0.220154 -1.26245e-21)
(0.0394442 0.210387 0)
(0.0534577 0.199859 0)
(0.0678147 0.188844 1.99353e-19)
(0.0823746 0.177735 1.9723e-19)
(0.0970613 0.167244 1.95925e-19)
(0.111227 0.15852 -7.11736e-22)
(-0.00590738 0.0146247 2.32332e-20)
(-0.0167761 0.0417673 -5.05023e-20)
(-0.0273865 0.0689908 3.09837e-19)
(-0.0369852 0.0948886 -5.26857e-20)
(-0.0452846 0.118836 5.35985e-20)
(-0.0521709 0.1406 6.06901e-23)
(-0.0576129 0.160143 1.64333e-19)
(-0.0616163 0.177531 -2.20917e-19)
(-0.0642015 0.192874 3.33455e-19)
(-0.0653937 0.206287 2.86153e-22)
(-0.0652173 0.217862 -1.11572e-19)
(-0.063697 0.227665 2.23328e-19)
(-0.0608585 0.235736 -2.22953e-19)
(-0.0567327 0.242095 2.22259e-19)
(-0.0513539 0.246753 0)
(-0.04476 0.249718 2.20043e-19)
(-0.0369947 0.251004 0)
(-0.0281085 0.250635 8.81454e-22)
(-0.0181592 0.248651 -2.15109e-19)
(-0.00721398 0.245107 -2.13161e-19)
(0.00465098 0.240078 2.11113e-19)
(0.0173506 0.233658 -2.0899e-19)
(0.0307915 0.225964 -2.06816e-19)
(0.0448719 0.217135 -4.10444e-19)
(0.0594822 0.207339 -2.02397e-19)
(0.0745033 0.196778 2.00813e-19)
(0.0897912 0.185712 -3.98017e-19)
(0.105189 0.174515 -1.97219e-19)
(0.120648 0.163908 0)
(0.135551 0.155128 -2.09802e-19)
(-0.00623776 0.0144908 0)
(-0.0174797 0.0413445 2.01159e-19)
(-0.0281611 0.0682902 -1.54894e-19)
(-0.0376142 0.0939403 -2.62569e-19)
(-0.045566 0.117686 0)
(-0.0519331 0.139289 0)
(-0.0567109 0.158697 -3.28661e-19)
(-0.0599288 0.175962 4.41173e-19)
(-0.0616273 0.191185 -3.32913e-19)
(-0.0618488 0.204473 0)
(-0.0606312 0.215917 1.11793e-19)
(-0.0580102 0.225587 -1.11835e-19)
(-0.0540206 0.233525 6.31379e-22)
(-0.0487007 0.239757 -1.11611e-19)
(-0.0420916 0.244299 -1.1009e-19)
(-0.0342386 0.247162 -7.56429e-22)
(-0.025193 0.248363 2.17766e-19)
(-0.0150135 0.24793 2.16917e-19)
(-0.00376752 0.245903 5.84455e-22)
(0.00846739 0.242338 4.25929e-19)
(0.0216037 0.23731 -4.21564e-19)
(0.0355448 0.230914 4.17531e-19)
(0.0501855 0.223264 2.06805e-19)
(0.0654119 0.214499 2.04601e-19)
(0.0811025 0.204781 1.21359e-21)
(0.0971282 0.194302 0)
(0.113335 0.183306 1.97323e-19)
(0.12955 0.172142 -5.85573e-19)
(0.145745 0.161528 1.92298e-19)
(0.161372 0.152784 2.07008e-19)
(-0.0065396 0.0142764 -1.38373e-19)
(-0.0181175 0.0407161 -4.52017e-19)
(-0.0288419 0.0672748 -3.7259e-23)
(-0.0381168 0.0925852 4.94134e-22)
(-0.0456817 0.116057 -1.59659e-19)
(-0.0514817 0.137446 0)
(-0.0555385 0.156687 -1.08843e-19)
(-0.0579054 0.173816 -6.60307e-19)
(-0.0586443 0.18892 3.32252e-19)
(-0.0578161 0.202098 -2.21854e-19)
(-0.0554743 0.213438 3.33442e-19)
(-0.0516676 0.223008 -1.11191e-19)
(-0.0464419 0.230853 2.22309e-19)
(-0.0398449 0.237004 -5.5309e-19)
(-0.0319268 0.241478 3.30679e-19)
(-0.0227417 0.244292 -4.7825e-22)
(-0.0123503 0.245466 -6.52189e-19)
(-0.000821013 0.245031 2.15482e-19)
(0.0117682 0.243027 -2.13866e-19)
(0.0253286 0.239514 0)
(0.0397611 0.234565 2.09084e-19)
(0.0549574 0.228276 0)
(0.0708007 0.220761 -2.0499e-19)
(0.0871657 0.212156 2.02973e-19)
(0.10392 0.202618 2.01161e-19)
(0.120925 0.192333 1.97724e-19)
(0.13802 0.181525 0)
(0.155015 0.170517 0)
(0.171894 0.160013 -3.84838e-19)
(0.188215 0.151413 6.12107e-19)
(-0.00681248 0.0139911 1.38493e-19)
(-0.0186891 0.0398976 2.50697e-19)
(-0.0294308 0.0659583 -2.04832e-19)
(-0.0384989 0.090831 4.18398e-19)
(-0.0456434 0.113947 5.37466e-20)
(-0.0508363 0.13506 5.39786e-20)
(-0.0541251 0.15409 6.7533e-22)
(-0.0555873 0.171058 -2.19003e-19)
(-0.0553069 0.186036 -1.10179e-19)
(-0.0533648 0.199111 5.62766e-22)
(-0.0498317 0.210364 -5.77681e-22)
(-0.0447712 0.219861 -3.32417e-19)
(-0.0382425 0.227649 -1.10368e-19)
(-0.030305 0.233757 6.52539e-22)
(-0.0210197 0.23821 2.1916e-19)
(-0.0104512 0.241026 2.17794e-19)
(0.00132882 0.242228 7.68707e-22)
(0.0142411 0.24185 -2.14389e-19)
(0.0281963 0.239935 2.12666e-19)
(0.0430938 0.236542 -2.10944e-19)
(0.058823 0.231747 -4.17201e-19)
(0.0752646 0.225645 -2.06178e-19)
(0.0922905 0.21835 4.07773e-19)
(0.109765 0.209996 0)
(0.127546 0.200736 -1.98891e-19)
(0.145487 0.190748 -3.94295e-19)
(0.163419 0.180242 -3.8964e-19)
(0.181141 0.16951 1.93331e-19)
(0.19864 0.159234 -5.72202e-19)
(0.215608 0.150897 2.01971e-19)
(-0.00705742 0.0136457 -2.29508e-19)
(-0.0191955 0.0389081 4.99372e-20)
(-0.0299306 0.0643601 2.04833e-19)
(-0.0387659 0.0886929 -1.56732e-19)
(-0.0454612 0.111364 5.32673e-20)
(-0.050014 0.132127 -1.36647e-22)
(-0.0524971 0.150892 5.43074e-19)
(-0.0530123 0.167663 2.19283e-19)
(-0.0516663 0.182496 2.20523e-19)
(-0.0485611 0.195464 3.3181e-19)
(-0.043786 0.20664 -3.32233e-19)
(-0.0374217 0.216085 2.2151e-19)
(-0.0295423 0.223842 4.41731e-19)
(-0.0202209 0.229945 2.19875e-19)
(-0.00953099 0.234417 -4.61553e-22)
(0.00245046 0.237281 -4.35334e-19)
(0.01564 0.238563 4.31814e-19)
(0.0299462 0.238299 2.25146e-22)
(0.0452679 0.236533 -2.11789e-19)
(0.0614927 0.233327 2.10074e-19)
(0.0784988 0.228757 2.08118e-19)
(0.0961562 0.222918 -2.04904e-19)
(0.114327 0.215924 -4.06404e-19)
(0.132864 0.207906 3.31207e-22)
(0.151619 0.199015 1.99547e-19)
(0.170436 0.18942 1.96571e-19)
(0.189143 0.17932 3.87331e-19)
(0.207524 0.168976 -3.82009e-19)
(0.225565 0.159039 0)
(0.243114 0.151088 1.99681e-19)
(-0.00727678 0.013252 5.24816e-22)
(-0.0196396 0.0377693 0)
(-0.0303444 0.0625047 -1.52689e-19)
(-0.0389218 0.0861931 -5.1995e-20)
(-0.0451422 0.108324 -2.11264e-19)
(-0.0490269 0.128657 0)
(-0.0506742 0.147092 -3.25397e-19)
(-0.0502103 0.16362 1.09161e-19)
(-0.0477649 0.178279 0)
(-0.0434617 0.191126 -2.20147e-19)
(-0.0374103 0.202225 0)
(-0.0297096 0.211628 -3.30604e-19)
(-0.0204504 0.219376 3.29883e-19)
(-0.00972083 0.225501 -2.196e-19)
(0.00239138 0.230028 -2.17801e-19)
(0.0157958 0.232982 0)
(0.0303961 0.234392 0)
(0.0460884 0.234293 2.12979e-19)
(0.0627594 0.232735 -4.3834e-22)
(0.0802852 0.229778 2.08141e-19)
(0.0985333 0.2255 -2.0698e-19)
(0.117363 0.219996 4.09112e-19)
(0.136628 0.213379 -2.0228e-19)
(0.156172 0.205778 0)
(0.175836 0.19734 5.92154e-19)
(0.195459 0.188228 -9.74379e-19)
(0.214865 0.178629 1.93396e-19)
(0.233829 0.168777 1.90942e-19)
(0.252321 0.159282 1.87701e-19)
(0.270362 0.151833 3.9324e-19)
(-0.00747412 0.0128223 -1.81969e-19)
(-0.0200254 0.0365053 3.96809e-19)
(-0.0306748 0.0604205 2.03717e-19)
(-0.0389684 0.0833608 4.6638e-19)
(-0.0446883 0.104855 5.79946e-19)
(-0.04788 0.12467 1.06995e-19)
(-0.0486668 0.142705 -5.39714e-19)
(-0.0471995 0.158934 0)
(-0.0436313 0.173378 -4.37666e-19)
(-0.0381079 0.186081 -2.18996e-19)
(-0.0307598 0.197093 0)
(-0.0217053 0.206457 -2.19115e-19)
(-0.0110531 0.214209 -3.87977e-22)
(0.00109238 0.220379 -6.55352e-19)
(0.0146282 0.224991 2.17795e-19)
(0.0294498 0.228072 2.15823e-19)
(0.0454475 0.229651 -4.28323e-19)
(0.0625047 0.229768 -4.24829e-19)
(0.0804959 0.228471 4.78384e-22)
(0.0992863 0.225822 -1.70269e-22)
(0.118733 0.2219 0)
(0.138686 0.2168 -2.03294e-19)
(0.158987 0.210632 -2.00002e-19)
(0.179474 0.203525 0)
(0.199978 0.195619 0)
(0.22033 0.187074 5.82103e-19)
(0.24035 0.178064 -5.73661e-19)
(0.259805 0.168798 0)
(0.278642 0.159842 5.59944e-19)
(0.297061 0.152999 -3.89749e-19)
(-0.00765395 0.012369 1.07794e-21)
(-0.0203577 0.0351412 -3.96779e-19)
(-0.0309232 0.05814 -5.06955e-20)
(-0.0389034 0.0802318 -5.18015e-19)
(-0.0440952 0.100991 -3.16261e-19)
(-0.0465687 0.120201 1.06712e-19)
(-0.0464726 0.137758 2.16153e-19)
(-0.0439822 0.153626 5.42659e-19)
(-0.0392746 0.16781 4.37666e-19)
(-0.0325176 0.180337 4.39139e-19)
(-0.0238627 0.191243 0)
(-0.0134485 0.200562 1.20513e-21)
(-0.00140195 0.208325 0)
(0.0121555 0.214555 4.36626e-19)
(0.0271053 0.219278 0)
(0.0433283 0.222518 -2.1511e-19)
(0.0607014 0.224307 2.15239e-19)
(0.0790953 0.224684 0)
(0.0983727 0.2237 0)
(0.118388 0.221416 -6.20982e-19)
(0.138987 0.217912 2.05298e-19)
(0.160011 0.213282 0)
(0.181291 0.207635 4.00934e-19)
(0.202654 0.201095 3.96539e-19)
(0.223922 0.1938 -7.81558e-19)
(0.244916 0.185901 7.72011e-19)
(0.265451 0.177563 6.88087e-22)
(0.28529 0.168971 3.75761e-19)
(0.304348 0.160638 -3.73314e-19)
(0.323002 0.154489 0)
(-0.00782136 0.0119039 4.54809e-19)
(-0.0206409 0.0337022 -4.93708e-20)
(-0.0310889 0.0556979 -4.0398e-19)
(-0.03872 0.0768476 0)
(-0.0433505 0.0967786 -4.19075e-19)
(-0.0450769 0.115296 0)
(-0.0440736 0.132299 -5.36974e-19)
(-0.0405411 0.14774 -3.25763e-19)
(-0.0346797 0.161612 -4.35345e-19)
(-0.0266795 0.173926 0)
(-0.016713 0.184704 1.09474e-19)
(-0.00493875 0.193969 1.10558e-19)
(0.00849779 0.201743 -2.18312e-19)
(0.023458 0.208046 -4.34047e-19)
(0.0398077 0.2129 -2.15639e-19)
(0.0574134 0.216329 -8.57746e-19)
(0.0761384 0.218365 4.26929e-19)
(0.0958409 0.219047 5.18819e-22)
(0.116372 0.218425 5.49174e-22)
(0.137573 0.216563 6.20706e-19)
(0.159282 0.213538 0)
(0.181325 0.209444 0)
(0.203523 0.204387 -1.37296e-21)
(0.225691 0.198487 4.08549e-22)
(0.247638 0.191877 -3.8799e-19)
(0.269175 0.184701 -3.83781e-19)
(0.290109 0.177114 1.23483e-21)
(0.310199 0.169276 -3.75746e-19)
(0.329327 0.161642 -3.7032e-19)
(0.34804 0.156257 1.02225e-21)
(-0.00798162 0.0114377 0)
(-0.0208787 0.032213 3.93357e-19)
(-0.031168 0.0531307 3.53532e-19)
(-0.0384052 0.0732546 5.14139e-20)
(-0.0424326 0.0922725 8.36974e-19)
(-0.0433751 0.110017 -1.06134e-19)
(-0.0414344 0.126391 8.57495e-19)
(-0.0368357 0.141343 4.31596e-19)
(-0.0298031 0.154852 6.52705e-19)
(-0.020548 0.166914 3.26576e-19)
(-0.00926357 0.177538 1.09169e-19)
(0.00387223 0.186736 5.46003e-19)
(0.0186957 0.194522 -1.81265e-22)
(0.0350515 0.200908 2.17232e-19)
(0.0527899 0.205914 4.31572e-19)
(0.0717632 0.209562 4.28533e-19)
(0.0918213 0.211882 0)
(0.112809 0.212912 0)
(0.134565 0.212704 0)
(0.156919 0.211319 0)
(0.179694 0.208834 4.05883e-19)
(0.202704 0.205341 0)
(0.225754 0.200942 -3.57524e-22)
(0.248644 0.195754 7.83577e-19)
(0.27117 0.189902 3.8747e-19)
(0.293127 0.183522 3.8264e-19)
(0.314315 0.176756 7.55042e-19)
(0.334493 0.169744 0)
(0.353508 0.162875 -7.36004e-19)
(0.372065 0.158303 7.59558e-19)
(-0.00813964 0.0109797 3.60703e-19)
(-0.021073 0.0306964 -3.93366e-19)
(-0.0311525 0.050475 0)
(-0.0379396 0.0695026 -4.09761e-19)
(-0.0413097 0.0875345 -1.05617e-19)
(-0.0414198 0.104434 -3.16752e-19)
(-0.0385002 0.120115 -9.62233e-19)
(-0.0328015 0.134521 -1.33617e-21)
(-0.0245706 0.147621 -3.24601e-19)
(-0.0140404 0.159398 -7.61195e-19)
(-0.0014234 0.169846 -1.08859e-19)
(0.0130837 0.178968 -4.34456e-19)
(0.0292995 0.186766 -4.33273e-19)
(0.0470523 0.193249 0)
(0.0661774 0.198429 -4.28802e-19)
(0.0865123 0.202327 -6.38613e-19)
(0.107893 0.20497 2.1165e-19)
(0.13015 0.206396 -4.17993e-19)
(0.153107 0.206652 -4.13622e-19)
(0.176579 0.2058 0)
(0.200374 0.203915 -8.10053e-19)
(0.224287 0.201086 0)
(0.248108 0.19741 -7.90636e-19)
(0.271616 0.193 -3.89619e-19)
(0.294591 0.187973 -7.70477e-19)
(0.316816 0.182455 3.80056e-19)
(0.338079 0.176575 -1.12733e-18)
(0.358143 0.17045 3.70143e-19)
(0.376825 0.164399 1.8357e-21)
(0.394971 0.160667 -3.75582e-19)
(-0.00829948 0.0105368 -3.60711e-19)
(-0.0212231 0.0291727 4.89703e-20)
(-0.0310298 0.0477666 3.50282e-19)
(-0.0372962 0.0656437 4.0977e-19)
(-0.0399395 0.0826324 -4.16697e-19)
(-0.039153 0.0986317 1.23668e-21)
(-0.0351975 0.113568 4.2703e-19)
(-0.0283495 0.127384 -8.59785e-19)
(-0.0188785 0.140039 -1.06857e-19)
(-0.00703781 0.151505 9.75853e-19)
(0.0069412 0.161764 -6.50617e-19)
(0.0228439 0.170806 1.08452e-18)
(0.0404716 0.178626 1.08135e-18)
(0.0596366 0.185224 -2.15474e-19)
(0.0801583 0.190606 4.28799e-19)
(0.101859 0.19479 6.37855e-19)
(0.124559 0.197799 2.09577e-19)
(0.148071 0.199667 1.59751e-21)
(0.172203 0.20044 2.07538e-19)
(0.196752 0.200176 2.04404e-19)
(0.221505 0.198948 -1.99603e-19)
(0.246237 0.196839 1.99505e-19)
(0.270717 0.193944 -3.92442e-19)
(0.294707 0.190368 3.89259e-19)
(0.317967 0.186222 1.85988e-21)
(0.340267 0.18162 3.77586e-19)
(0.361389 0.176677 1.87994e-21)
(0.3811 0.171489 -3.69358e-19)
(0.399193 0.166298 7.45317e-22)
(0.416636 0.163411 0)
(-0.00846378 0.0101141 0)
(-0.021325 0.0276589 0)
(-0.030782 0.0450394 -4.504e-19)
(-0.0364407 0.0617301 5.09554e-20)
(-0.0382698 0.0776379 0)
(-0.0365036 0.0927001 4.21209e-19)
(-0.0314356 0.106859 1.06362e-19)
(-0.0233692 0.120057 3.22186e-19)
(-0.0125961 0.132248 4.3169e-19)
(0.000610142 0.143392 -4.33094e-19)
(0.0159999 0.15346 4.3355e-19)
(0.0333408 0.162432 -4.33132e-19)
(0.052417 0.170293 -4.3191e-19)
(0.0730237 0.177032 0)
(0.0949636 0.182652 0)
(0.118041 0.187163 0)
(0.142057 0.190584 -4.20473e-19)
(0.166806 0.192943 6.23838e-19)
(0.192073 0.194282 -2.05894e-19)
(0.217634 0.194655 0)
(0.243253 0.194131 6.02869e-19)
(0.268684 0.192788 -1.98616e-19)
(0.293673 0.190716 3.92433e-19)
(0.317963 0.188015 -7.71476e-19)
(0.341303 0.184787 7.6448e-19)
(0.363447 0.181138 -1.31575e-21)
(0.384176 0.17717 5.86377e-22)
(0.403266 0.172956 3.67433e-19)
(0.420493 0.168655 1.88263e-22)
(0.436908 0.166605 3.70912e-19)
(-0.00863322 0.00971353 4.47534e-20)
(-0.0213709 0.0261681 -4.86236e-20)
(-0.0303855 0.0423241 9.96993e-20)
(-0.0353314 0.0578131 -6.09348e-19)
(-0.036239 0.0726241 1.03311e-19)
(-0.0333888 0.0867349 0)
(-0.0271097 0.100105 4.23224e-19)
(-0.017733 0.112679 -4.26679e-19)
(-0.00557321 0.124405 0)
(0.00907592 0.135235 5.38191e-19)
(0.025946 0.145129 -1.07879e-19)
(0.0447866 0.154055 0)
(0.0653632 0.161986 -2.14722e-19)
(0.0874523 0.168906 4.2769e-19)
(0.110836 0.174807 -2.12741e-19)
(0.135299 0.179691 2.106e-19)
(0.160618 0.183569 -4.18007e-19)
(0.186564 0.186465 6.69473e-22)
(0.212897 0.188413 7.00407e-22)
(0.239368 0.189462 -2.0104e-19)
(0.265717 0.189673 -3.99025e-19)
(0.291676 0.189122 1.36569e-21)
(0.316974 0.187892 1.64421e-21)
(0.341341 0.186079 3.85514e-19)
(0.364515 0.183782 -3.79072e-19)
(0.386247 0.181101 3.75775e-19)
(0.406314 0.178131 -7.39884e-19)
(0.424498 0.174928 -7.09043e-22)
(0.440569 0.171566 -7.20879e-19)
(0.455586 0.170365 3.68371e-19)
(-0.00880578 0.00933451 0)
(-0.0213481 0.0247091 -3.87206e-19)
(-0.0298111 0.0396473 0)
(-0.0339202 0.0539406 1.31881e-21)
(-0.0337781 0.0676625 1.03156e-19)
(-0.0297175 0.0808321 1.69163e-22)
(-0.0221055 0.0934262 -8.44963e-19)
(-0.0113033 0.105394 3.20253e-19)
(0.00235069 0.116678 0)
(0.0185414 0.127223 -5.37844e-19)
(0.0369803 0.136977 1.07527e-19)
(0.0573966 0.145897 0)
(0.0795345 0.153944 -2.13947e-19)
(0.103148 0.161092 2.1326e-19)
(0.127996 0.167321 2.11133e-19)
(0.153836 0.172625 4.20076e-19)
(0.180418 0.177005 -2.08465e-19)
(0.207484 0.180474 0)
(0.234768 0.183061 0)
(0.261995 0.184805 4.03711e-19)
(0.288881 0.185762 -3.97106e-19)
(0.315144 0.185999 3.93493e-19)
(0.340501 0.185599 3.88636e-19)
(0.364681 0.184653 3.8197e-19)
(0.387425 0.183263 -3.78091e-19)
(0.408491 0.181534 3.73602e-19)
(0.427656 0.179571 3.67458e-19)
(0.444675 0.177433 -3.63472e-19)
(0.459272 0.175186 9.89829e-22)
(0.472266 0.175037 7.31401e-19)
(-0.00897908 0.00897615 4.44702e-20)
(-0.0212415 0.0232886 3.39003e-19)
(-0.0290258 0.0370324 0)
(-0.0321548 0.0501574 4.04791e-19)
(-0.0308139 0.0628219 0)
(-0.0253947 0.0750859 0)
(-0.0163061 0.0869434 3.16563e-19)
(-0.00394155 0.0983473 -1.1353e-22)
(0.0113341 0.109237 1.06705e-19)
(0.0291821 0.119545 1.07068e-19)
(0.0492903 0.129213 -3.21407e-19)
(0.0713641 0.138182 2.14106e-19)
(0.0951222 0.146401 0)
(0.120291 0.15383 0)
(0.1466 0.160438 -4.22593e-19)
(0.173776 0.166204 0)
(0.201538 0.171119 -2.06906e-19)
(0.229597 0.175185 2.05485e-19)
(0.257659 0.17842 2.02463e-19)
(0.285426 0.180854 -7.65098e-22)
(0.312598 0.182536 -1.98323e-19)
(0.338884 0.183528 0)
(0.364006 0.183905 -3.8496e-19)
(0.387706 0.183762 3.81167e-19)
(0.409753 0.183204 0)
(0.429943 0.182354 0)
(0.44809 0.181351 0)
(0.463971 0.180327 0)
(0.477219 0.179497 -3.5628e-19)
(0.487888 0.181082 7.258e-19)
(0.0454633 0.231947 -0.0111602)
(0.0813848 0.196132 -0.0114564)
(0.120351 0.174003 -0.0115755)
(0.149585 0.164796 -0.0116531)
(0.173328 0.164975 -0.01166)
(0.189015 0.1705 -0.0116479)
(0.198683 0.178006 -0.0116059)
(0.203129 0.185636 -0.011554)
(0.203762 0.192743 -0.0114881)
(0.201649 0.199426 -0.0114149)
(0.19763 0.205905 -0.0113358)
(0.192262 0.212352 -0.0112516)
(0.185879 0.218755 -0.011165)