/*--------------------------------*- C++ -*----------------------------------*\
  =========                 |
  \\      /  F ield         | OpenFOAM: The Open Source CFD Toolbox
   \\    /   O peration     | Website:  https://openfoam.org
    \\  /    A nd           | Version:  7
     \\/     M anipulation  |
\*---------------------------------------------------------------------------*/
FoamFile
{
    version     2.0;
    format      ascii;
    class       volScalarField;
    location    "16";
    object      p;
}
// * * * * * * * * * * * * * * * * * * * * * * * * * * * * * * * * * * * * * //

dimensions      [0 2 -2 0 0 0 0];

internalField   nonuniform List<scalar> 
2000
(
-0.0028241
0.00133117
0.00382087
0.0067311
0.0105433
0.0155123
0.021546
0.0282923
0.0352955
0.0423424
-0.00096627
0.00260571
0.00465356
0.00683938
0.00963212
0.0134373
0.0183684
0.0242382
0.0306532
0.0373797
0.00074423
0.00375424
0.00543798
0.00707036
0.00904893
0.0118279
0.0156677
0.0205534
0.0262125
0.0324296
0.0023194
0.00478158
0.0061527
0.00736953
0.0087377
0.0106812
0.0135286
0.0174002
0.0221702
0.0276658
0.00378064
0.00570455
0.00679865
0.00770659
0.0086472
0.00996967
0.0119973
0.0149204
0.0187456
0.0233121
0.00515378
0.00655088
0.00739993
0.00808319
0.00874971
0.00966015
0.0110843
0.0132147
0.016142
0.019605
0.00645749
0.00734787
0.00799146
0.00852476
0.00904508
0.00973065
0.0107777
0.0123368
0.0145139
0.0167502
0.007692
0.00810861
0.00860054
0.00905967
0.009546
0.0101687
0.011052
0.0122981
0.0139517
0.0149584
0.0088236
0.00882771
0.00922975
0.00969403
0.0102502
0.0109498
0.0118584
0.0130529
0.014448
0.0143041
0.00979578
0.00946874
0.00984509
0.0103922
0.0111137
0.0120142
0.0131151
0.0144925
0.0159585
0.0153606
0.0564902
0.0736791
0.0857486
0.0938557
0.0996217
0.103743
0.106102
0.108147
0.108368
0.111631
0.0515302
0.0698814
0.0823667
0.0905791
0.0965176
0.100802
0.10335
0.105613
0.106138
0.109237
0.0463401
0.0660764
0.0789204
0.0872379
0.0933814
0.0978468
0.100587
0.102961
0.103748
0.106704
0.0411038
0.0623303
0.0753991
0.0838569
0.0902356
0.0948742
0.0977944
0.100262
0.101233
0.104061
0.0361541
0.0587768
0.0718424
0.0804892
0.0871097
0.0919018
0.094989
0.0975413
0.0986275
0.10133
0.0318246
0.0553761
0.0682148
0.0771545
0.0840099
0.0889459
0.0921923
0.0948182
0.0959702
0.0985569
0.0285766
0.0522465
0.0646503
0.0739389
0.0809727
0.0860394
0.089427
0.092104
0.093404
0.0956228
0.0263669
0.0489639
0.0610562
0.070787
0.0779632
0.0831773
0.0867074
0.0894251
0.0908251
0.0927697
0.0257358
0.0460004
0.0578017
0.0678174
0.0750648
0.0804098
0.0840458
0.0867615
0.0881918
0.0899154
0.0243032
0.042056
0.0543495
0.0646977
0.0721086
0.0776534
0.0814453
0.0841894
0.0856695
0.0872043
0.0331402
0.0382504
0.0485429
0.058358
0.0658319
0.0713823
0.0751617
0.0776663
0.0790889
0.0801389
0.0397977
0.0389294
0.0459015
0.052302
0.0577847
0.0623696
0.0659668
0.0685845
0.0702751
0.0712506
0.0419063
0.040966
0.0451529
0.0487035
0.0521465
0.0551773
0.0576662
0.0598724
0.0615266
0.062499
0.0405729
0.0417966
0.0433079
0.0448718
0.0470296
0.0491324
0.0508107
0.0522613
0.053344
0.053991
0.0377876
0.0398607
0.0402615
0.0407318
0.0417262
0.0428189
0.0439175
0.0448579
0.0454516
0.0457288
0.0334652
0.0353895
0.0354232
0.0355414
0.0360779
0.036544
0.0370766
0.037614
0.0380048
0.0381747
0.027775
0.029855
0.0302241
0.0298722
0.0296649
0.029741
0.0299537
0.0301451
0.0303358
0.0305019
0.021167
0.0227315
0.0230366
0.022883
0.02273
0.0226866
0.0227071
0.022714
0.0227576
0.0228475
0.013672
0.0148685
0.0151214
0.0149004
0.014717
0.014642
0.0145603
0.0144722
0.0144536
0.0145084
0.00346434
0.00512227
0.0055866
0.00556218
0.00573161
0.00599701
0.00601108
0.00583911
0.00568526
0.00565353
0.0260233
0.0386556
0.0413878
0.0388869
0.0347622
0.029975
0.0248964
0.0190006
0.012535
0.00170177
0.030852
0.0407356
0.0409099
0.0373297
0.0326809
0.0279421
0.0233591
0.0177959
0.0120204
0.00122917
0.0329253
0.0408162
0.0393919
0.0348423
0.0301341
0.0257641
0.0217856
0.0166122
0.0114702
0.00086928
0.0344444
0.0397421
0.0368787
0.03183
0.0274152
0.023563
0.0201741
0.0154228
0.0108577
0.000584983
0.0346741
0.0374694
0.0335133
0.0284509
0.0245828
0.0213401
0.0185137
0.0142243
0.0101938
0.000348798
0.0332485
0.0341255
0.029507
0.0248579
0.0217019
0.0191132
0.0168189
0.0130238
0.00949376
0.000118887
0.0302622
0.0298819
0.0251437
0.0212086
0.0188356
0.016906
0.0151165
0.0118353
0.00878312
-8.23317e-05
0.0261934
0.0250219
0.0206997
0.0176426
0.0160454
0.0147536
0.0134448
0.0106763
0.00809726
-7.59727e-06
0.0216875
0.0199608
0.0164132
0.014277
0.0133966
0.0127036
0.0118492
0.0095606
0.00744459
0.000329332
0.0173269
0.0151473
0.0124771
0.0112051
0.0109557
0.010807
0.0103785
0.00850493
0.00675471
0.000718056
0.0135373
0.0109348
0.00903462
0.00849895
0.00878223
0.00910808
0.00907595
0.00763917
0.00602982
0.000984985
0.0105486
0.00751524
0.00617921
0.00620997
0.00691925
0.00764391
0.00793443
0.00688432
0.00540267
0.00113767
0.00843872
0.00495282
0.00394813
0.00436318
0.00539507
0.00644747
0.00696945
0.00624216
0.00486982
0.0012093
0.00718605
0.00321777
0.00232523
0.00296445
0.0042174
0.00549493
0.00618922
0.00567269
0.00440679
0.00122739
0.00672282
0.00222254
0.00127717
0.00197481
0.00335768
0.00477787
0.00556944
0.0051954
0.00401374
0.00121312
0.00694308
0.00191606
0.000667496
0.00136041
0.0027893
0.00425946
0.00509187
0.00480105
0.00368151
0.00118089
0.00762892
0.00216649
0.000478541
0.00106794
0.00246412
0.00391418
0.00473333
0.00447691
0.00340052
0.00113921
0.00872202
0.00284912
0.000615495
0.00101864
0.00232129
0.003703
0.00447173
0.0042131
0.00316433
0.00109288
0.0101774
0.00394011
0.00101422
0.00115813
0.00229631
0.00359824
0.0042916
0.00400516
0.0029697
0.00104494
0.0112686
0.00540592
0.00182954
0.00159801
0.00243334
0.00358939
0.00416663
0.00383647
0.00280253
0.000997258
0.0114891
0.0093896
0.0052709
0.00361707
0.00336354
0.00372212
0.0039065
0.00344101
0.00241548
0.000884066
0.0142057
0.00963131
0.00632369
0.00504481
0.00448536
0.00438334
0.00398511
0.0032029
0.0021416
0.000797315
0.018412
0.0139204
0.00994931
0.0076183
0.00607869
0.00532588
0.00433937
0.00331739
0.0021711
0.000858546
0.0195403
0.015355
0.0116748
0.00928434
0.0074404
0.00621734
0.00476762
0.00359418
0.00240337
0.001091
0.0224545
0.0179202
0.0139304
0.0110789
0.00881573
0.0070145
0.00526521
0.00402691
0.00281368
0.0014261
0.0246512
0.0200151
0.015852
0.0127264
0.010037
0.00777362
0.00585071
0.00452236
0.00332075
0.00181912
0.0269329
0.0218922
0.0175686
0.0141727
0.0110343
0.00846063
0.00635491
0.00500498
0.0040738
0.00251628
0.0289949
0.0235629
0.0190748
0.0153621
0.0119268
0.00904627
0.00683714
0.0056988
0.00498733
0.00315004
0.030399
0.0254399
0.0207007
0.0164238
0.0125695
0.00951607
0.0074411
0.00637889
0.00537067
0.00306979
0.0318711
0.0258728
0.0210496
0.0167535
0.0128863
0.00991082
0.00802103
0.00670865
0.00509916
0.00248584
0.018568
0.02147
0.022649
0.0232879
0.0261281
0.0280758
0.0305114
0.0332643
0.0338991
0.0367865
0.021398
0.0242033
0.0245252
0.0251358
0.0280833
0.0298765
0.0325139
0.0353184
0.0364117
0.0389104
0.0235072
0.0256989
0.0259558
0.0269957
0.0301865
0.032038
0.0350109
0.0378105
0.0398966
0.0415981
0.0252505
0.0266669
0.0270996
0.0286464
0.032003
0.0340967
0.0373861
0.0402812
0.0430697
0.0445014
0.0268574
0.0277522
0.0283366
0.03027
0.0336805
0.0360413
0.0395888
0.0426118
0.0457316
0.0473289
0.0282819
0.028954
0.0297766
0.0320156
0.0354347
0.0380342
0.0417881
0.0449152
0.0481498
0.0500198
0.0295048
0.0300811
0.0313242
0.0338715
0.037332
0.0401771
0.044116
0.0473349
0.0506203
0.052687
0.0305656
0.0310511
0.0328973
0.0357715
0.0393425
0.0424735
0.0466044
0.0499379
0.0532983
0.0554733
0.0315057
0.0318652
0.034501
0.0376825
0.0414363
0.0448889
0.0492334
0.052722
0.0562139
0.0584641
0.0323583
0.0325155
0.0361831
0.0396014
0.0436139
0.0473952
0.051981
0.0556553
0.0593348
0.0616711
0.033167
0.0329634
0.0379905
0.0415212
0.0458945
0.0499785
0.0548443
0.0587169
0.0626304
0.0650739
0.0339691
0.0332033
0.0399361
0.0434286
0.0482844
0.0526367
0.0578157
0.0619084
0.06608
0.0686434
0.0347828
0.0333163
0.0419486
0.0453475
0.0507698
0.0553967
0.0608758
0.06527
0.0696882
0.0723758
0.0356067
0.0334744
0.043879
0.0473423
0.0533025
0.0582891
0.0640287
0.0687858
0.0734475
0.0762682
0.036427
0.0339115
0.0455374
0.0494579
0.0559401
0.0612589
0.067289
0.0724473
0.0773751
0.0803473
0.0372234
0.0347777
0.0469259
0.0517157
0.0585708
0.0642509
0.0706169
0.0762066
0.0814484
0.0846097
0.0379746
0.0360919
0.0482046
0.0540144
0.0611722
0.0672766
0.0740326
0.0801029
0.0857083
0.0890914
0.0386518
0.0377947
0.0493095
0.0562251
0.0636767
0.0702433
0.077424
0.0840343
0.0900906
0.0937645
0.0391752
0.0397413
0.0503399
0.0584111
0.0661612
0.0732453
0.0808967
0.0881008
0.0946666
0.0986884
0.0395602
0.0414214
0.0508123
0.0600874
0.0681994
0.0758
0.0839884
0.0919243
0.0992259
0.103794
0.0488837
0.0503748
0.0560438
0.0659546
0.0748777
0.0837336
0.0930674
0.102583
0.111378
0.11705
0.0611613
0.0626509
0.0693651
0.0802326
0.0900579
0.100529
0.112156
0.124523
0.135989
0.143251
0.0791359
0.0788988
0.0854126
0.0967141
0.108048
0.120594
0.135056
0.150827
0.165651
0.175006
0.0979033
0.0978636
0.103665
0.115091
0.128429
0.14398
0.162211
0.182068
0.200651
0.211992
0.117638
0.11858
0.124196
0.135987
0.151521
0.170854
0.193907
0.218845
0.241393
0.255563
0.136735
0.140006
0.147078
0.160229
0.178571
0.202323
0.230849
0.261461
0.288108
0.303783
0.152662
0.158685
0.168301
0.184272
0.206632
0.23551
0.269721
0.305811
0.336025
0.354181
0.165094
0.174331
0.187619
0.206677
0.232985
0.267049
0.30692
0.348206
0.381449
0.398977
0.170562
0.180509
0.196313
0.219028
0.249691
0.288657
0.333646
0.379815
0.416144
0.435557
0.175613
0.187167
0.203896
0.227733
0.259995
0.301167
0.349927
0.40177
0.443834
0.451362
0.0577376
0.0696394
0.0848742
0.101463
0.119286
0.136417
0.150354
0.161721
0.166772
0.170978
0.0623481
0.0756607
0.0901206
0.105914
0.122678
0.138312
0.150741
0.161142
0.165611
0.169679
0.0671131
0.0820697
0.096543
0.112088
0.127806
0.141756
0.15246
0.161342
0.16489
0.168791
0.0716288
0.0867598
0.101039
0.116429
0.131359
0.144146
0.153702
0.161407
0.164263
0.16778
0.0761556
0.0907291
0.104376
0.119339
0.133509
0.145443
0.154252
0.161191
0.163647
0.166667
0.0805364
0.0946344
0.107609
0.121928
0.135233
0.146353
0.154519
0.160878
0.163089
0.165627
0.084514
0.0983421
0.11087
0.124546
0.136969
0.147278
0.154813
0.160632
0.162638
0.16477
0.0880053
0.101652
0.113914
0.127036
0.138669
0.148245
0.155188
0.160497
0.162309
0.16411
0.0910417
0.104553
0.116618
0.129247
0.14021
0.149165
0.155594
0.160449
0.162092
0.16361
0.0936787
0.107114
0.119005
0.131173
0.141563
0.149999
0.155991
0.160457
0.161969
0.163228
0.0959726
0.109389
0.12113
0.132866
0.142758
0.150757
0.156377
0.160506
0.161926
0.16294
0.0979334
0.111361
0.123008
0.134355
0.143826
0.151457
0.156761
0.160594
0.161953
0.16274
0.099546
0.112982
0.124631
0.135645
0.144777
0.15211
0.157151
0.16072
0.162037
0.16263
0.10082
0.11426
0.126011
0.136747
0.145624
0.152719
0.157546
0.160893
0.162152
0.162599
0.101778
0.115252
0.12717
0.137687
0.146377
0.153289
0.157949
0.161108
0.162302
0.162644
0.102409
0.116005
0.128115
0.138484
0.147044
0.15382
0.158359
0.161352
0.162479
0.16276
0.102723
0.116576
0.128856
0.139161
0.147628
0.154309
0.158792
0.161622
0.162689
0.162968
0.102578
0.116935
0.129358
0.139704
0.148121
0.154777
0.159219
0.161905
0.162883
0.163269
0.102118
0.117202
0.129702
0.140157
0.148544
0.155243
0.159649
0.162227
0.163122
0.163702
0.100497
0.116844
0.129576
0.140202
0.148852
0.155585
0.160022
0.16251
0.163241
0.16424
0.0985249
0.11707
0.129977
0.141131
0.149991
0.156738
0.161325
0.1639
0.164542
0.165897
0.110425
0.125169
0.135733
0.14595
0.153768
0.159918
0.164185
0.166712
0.167567
0.168556
0.12081
0.132888
0.142099
0.151073
0.157829
0.163448
0.167405
0.169974
0.17122
0.171955
0.12774
0.137932
0.146646
0.154577
0.160957
0.16649
0.170615
0.173706
0.175866
0.17735
0.131833
0.140725
0.149004
0.156249
0.162763
0.168669
0.173593
0.177914
0.181947
0.18579
0.133719
0.141476
0.14934
0.156302
0.16337
0.170269
0.176828
0.183573
0.191672
0.201313
0.13273
0.139426
0.147172
0.154217
0.162281
0.17105
0.180416
0.191377
0.207184
0.229233
0.132091
0.138255
0.144934
0.152375
0.161937
0.173379
0.187075
0.206046
0.237378
0.284577
0.125806
0.131882
0.138859
0.148007
0.159229
0.174559
0.195383
0.227804
0.285936
0.378769
0.129304
0.134746
0.143097
0.155106
0.1714
0.1936
0.225936
0.278653
0.373599
0.52285
0.0885128
0.100225
0.111243
0.119112
0.124431
0.127935
0.128275
0.128248
0.123175
0.127136
0.0858582
0.0981829
0.108912
0.116637
0.122012
0.125753
0.126375
0.126609
0.121979
0.126384
0.0848546
0.0976936
0.10823
0.115461
0.120456
0.123925
0.124542
0.124848
0.120665
0.125353
0.0828487
0.0960708
0.106586
0.113828
0.118653
0.121968
0.122654
0.123051
0.11939
0.123971
0.0800885
0.0935488
0.104022
0.11149
0.116403
0.119742
0.120624
0.121213
0.118161
0.122484
0.0769938
0.090735
0.101205
0.108754
0.113934
0.117324
0.118452
0.119291
0.116894
0.121003
0.073576
0.0877509
0.0983533
0.105933
0.111314
0.1148
0.116172
0.117267
0.115513
0.119469
0.0697838
0.0845318
0.0954005
0.103072
0.10854
0.112202
0.113799
0.115141
0.113983
0.117788
0.0656363
0.0810707
0.0922969
0.100116
0.105645
0.109494
0.111331
0.112912
0.11229
0.11592
0.0611878
0.0774254
0.0890639
0.09704
0.102669
0.106661
0.108763
0.110581
0.110421
0.113864
0.0105319
0.00997396
0.0103802
0.0110718
0.0120349
0.013244
0.0146882
0.0164732
0.0187546
0.0210346
0.0109536
0.0102794
0.0107519
0.0116197
0.0128588
0.014415
0.0162366
0.0183318
0.0207251
0.0232625
0.0109924
0.010333
0.0108904
0.011934
0.0134393
0.0153275
0.0174969
0.0198656
0.0222395
0.0242529
0.010622
0.0101187
0.0107703
0.0119681
0.0136956
0.0158582
0.0183065
0.0208779
0.0232199
0.0249872
0.00986586
0.00966115
0.0104218
0.0117499
0.0136392
0.0159878
0.0186062
0.0212723
0.0235977
0.0252942
0.00878589
0.00902097
0.00991747
0.0113639
0.01336
0.0157898
0.0184442
0.0210765
0.0233734
0.0250338
0.00746304
0.00826484
0.00933716
0.0109032
0.012957
0.0153693
0.0179224
0.0203748
0.0225131
0.0240886
0.00597543
0.00744504
0.00873386
0.0104234
0.0124892
0.0147878
0.017108
0.0192366
0.0210287
0.0223826
0.0043871
0.00658332
0.00811782
0.00992709
0.0119581
0.0140559
0.0160311
0.017718
0.019027
0.0199909
0.00273288
0.00567209
0.00746139
0.00937945
0.0113377
0.0131744
0.0147376
0.0159214
0.0167048
0.0171689
0.00102608
0.00467826
0.00671859
0.00874277
0.0106196
0.0121839
0.0133333
0.0140297
0.0143234
0.0142883
-0.000686959
0.00362337
0.00590738
0.00804979
0.0098695
0.0111982
0.0119888
0.0122745
0.0121593
0.0117168
-0.0023653
0.00251537
0.00505259
0.00736114
0.00918991
0.0103627
0.0108884
0.0108687
0.0104415
0.00971794
-0.00394217
0.00140048
0.00423563
0.00679392
0.00872333
0.00983568
0.0101956
0.00996828
0.00931745
0.00842562
-0.00532733
0.000361648
0.00357958
0.0064904
0.00861177
0.00974723
0.0100193
0.00965282
0.008843
0.00786177
-0.00641912
-0.00049154
0.00322403
0.00658577
0.00896771
0.0101804
0.0104094
0.00993725
0.00899347
0.00794095
-0.00711677
-0.00103355
0.00329993
0.00718486
0.00986099
0.0111698
0.0113681
0.0107944
0.00969961
0.0085319
-0.00733033
-0.00113867
0.00390874
0.00835088
0.0113229
0.0127209
0.0128711
0.0121534
0.0108194
0.00950364
-0.00698851
-0.000701214
0.00510878
0.0101007
0.0133547
0.0148411
0.0149291
0.0139787
0.0122412
0.010605
-0.00604379
0.00034734
0.00690859
0.012397
0.0159105
0.0175195
0.0176315
0.0165379
0.0144023
0.0122826
-0.00445961
0.00203852
0.00926857
0.0151448
0.0188553
0.0206056
0.0208978
0.0200713
0.0184071
0.0171769
-0.00216784
0.00437791
0.012114
0.0182129
0.0219902
0.0237901
0.0241781
0.0235686
0.0223675
0.0215187
0.000781208
0.00729586
0.0153499
0.0214694
0.02516
0.0268737
0.0272188
0.0266462
0.0255676
0.0246496
0.0043396
0.0106973
0.0189061
0.0248068
0.0282462
0.029744
0.0299349
0.0292855
0.0281784
0.0270972
0.00845327
0.0145066
0.0226878
0.0281437
0.0311705
0.0323411
0.032294
0.0314972
0.0303075
0.029108
0.0130675
0.0188079
0.0264791
0.0313958
0.0338903
0.0346456
0.0343018
0.0333165
0.0320202
0.030729
0.0181279
0.0233869
0.0303328
0.0345329
0.0363934
0.036667
0.0359857
0.0347876
0.0333764
0.0320201
0.0236051
0.0281449
0.0342121
0.0375487
0.0386944
0.038437
0.0373886
0.0359604
0.0344286
0.0330333
0.0293902
0.0330633
0.038094
0.0404578
0.04083
0.0400066
0.0385689
0.0368953
0.0352326
0.0338158
0.035376
0.0380945
0.0419753
0.0432954
0.0428573
0.0414449
0.0396007
0.0376676
0.0358548
0.0344195
0.041408
0.0431805
0.0458646
0.0461094
0.0448478
0.0428373
0.0405737
0.0383518
0.0363772
0.034912
0.0476382
0.048337
0.0497641
0.0489255
0.0468519
0.0442542
0.0415761
0.0390699
0.0368999
0.0353771
0.0539752
0.0535238
0.0536903
0.051798
0.048948
0.04579
0.0427113
0.0399189
0.0375406
0.0359242
0.0603347
0.058701
0.0576453
0.0547606
0.051194
0.0475229
0.0440749
0.0410139
0.0384317
0.0366856
0.0666337
0.0638202
0.0616172
0.0578292
0.0536273
0.04951
0.0457446
0.0424573
0.0397041
0.0377979
0.0727723
0.0688183
0.0655771
0.0609986
0.0562602
0.0517799
0.0477673
0.0443225
0.0414642
0.0393704
0.0786303
0.0736153
0.0694776
0.0642413
0.059078
0.0543284
0.0501516
0.0466387
0.0437708
0.0414594
0.0840666
0.0781137
0.0732539
0.0675108
0.0620423
0.057121
0.0528648
0.0493819
0.0466271
0.0440838
0.088919
0.0821981
0.0768252
0.0707471
0.0651009
0.0601022
0.0558343
0.0524529
0.0499521
0.0472384
0.0930044
0.0857345
0.0800944
0.0738835
0.068212
0.0632474
0.0590367
0.0557818
0.0536795
0.0512546
0.0961249
0.0885685
0.0829367
0.0768292
0.0713413
0.066637
0.0627767
0.06
0.0587953
0.0588267
0.0980704
0.0905185
0.0851733
0.0793911
0.0742532
0.0699148
0.0664016
0.0638006
0.0624437
0.0623933
0.0986297
0.0914073
0.0866181
0.0813637
0.0767238
0.0728623
0.0697919
0.0674734
0.0660469
0.0658387
0.0976549
0.0910933
0.0871178
0.0825829
0.0785867
0.0753218
0.0728143
0.0709689
0.0698047
0.0696999
0.0950678
0.0894923
0.0865778
0.0829487
0.0797378
0.0771791
0.0753212
0.0740583
0.0733599
0.0735817
0.0908776
0.0865915
0.0849721
0.0824298
0.0801404
0.0783896
0.0772543
0.0766429
0.0765103
0.0771696
0.0851857
0.0824512
0.082339
0.0810531
0.0798115
0.0789612
0.0786151
0.0787109
0.0792018
0.0803367
0.0781784
0.0771963
0.0787687
0.0788877
0.0788035
0.0789308
0.0794268
0.080271
0.081423
0.0830529
0.0701123
0.0710026
0.0743886
0.0760302
0.0771893
0.0783521
0.0797261
0.0813417
0.0831757
0.0853202
0.0613183
0.0640827
0.0693485
0.0725925
0.0750537
0.0772893
0.0795607
0.0819538
0.0844741
0.0871524
0.0522217
0.056703
0.0638181
0.0686931
0.0724854
0.0758106
0.0789844
0.0821475
0.085343
0.0885676
0.0428488
0.0490166
0.0579474
0.0644495
0.0695742
0.0739859
0.0780532
0.0819674
0.0858118
0.0895801
0.0335454
0.041253
0.0518906
0.0599706
0.066402
0.0718785
0.0768171
0.0814543
0.0859111
0.0902045
0.0246297
0.033622
0.0457908
0.0553506
0.0630371
0.0695387
0.0753146
0.0806399
0.085667
0.090458
0.016393
0.0262951
0.0397723
0.0506708
0.0595359
0.0670056
0.0735736
0.0795471
0.0851009
0.0903581
0.00898132
0.0195224
0.0339217
0.0460013
0.0559445
0.0643069
0.0716105
0.0781868
0.0842195
0.0899016
0.00250103
0.0134487
0.028346
0.041412
0.0522979
0.0614575
0.0694268
0.0765541
0.083015
0.0890719
-0.0029628
0.00810834
0.0231848
0.0369584
0.0486202
0.0584646
0.0670187
0.0746405
0.0814758
0.0878032
-0.00736796
0.003584
0.0184933
0.0326777
0.0449203
0.0553306
0.0643634
0.0723956
0.0795485
0.0860115
-0.0107154
-6.22501e-05
0.014316
0.0286024
0.0412245
0.0520575
0.0614581
0.0698169
0.0772649
0.08362
-0.0130475
-0.00281276
0.0106976
0.0247687
0.0375536
0.0486583
0.0582917
0.0667926
0.0743553
0.080533
-0.0144868
-0.00471064
0.00766865
0.0212166
0.0339336
0.0451583
0.0549241
0.0634679
0.0710308
0.0773758
-0.0150595
-0.00579502
0.0052542
0.0179897
0.0304033
0.0416035
0.051452
0.0600828
0.0677496
0.0744464
-0.0148544
-0.00615299
0.00345813
0.0151312
0.0270076
0.0380342
0.0479103
0.056657
0.0644745
0.0714127
-0.0139991
-0.0059057
0.00226311
0.0126793
0.0237877
0.0344694
0.0442724
0.0530843
0.0610107
0.0681009
-0.0126339
-0.00518763
0.00162654
0.0106598
0.0207828
0.030926
0.0405177
0.0493041
0.057279
0.0644881
-0.0109029
-0.00413086
0.00147825
0.009083
0.0180374
0.0274408
0.0366624
0.0453203
0.0532835
0.0605775
-0.00894597
-0.00285699
0.00172495
0.00794027
0.0156007
0.0240741
0.0327529
0.0411633
0.0490447
0.0563757
-0.00688898
-0.00147329
0.00226009
0.00720121
0.0135198
0.0209056
0.0288626
0.0368833
0.0445939
0.0519058
-0.00482792
-6.22327e-05
0.00298142
0.00681345
0.0118247
0.0180191
0.0250846
0.0325543
0.0399819
0.0472083
)
;

boundaryField
{
    inlet
    {
        type            zeroGradient;
    }
    outlet
    {
        type            fixedValue;
        value           uniform 0;
    }
    cylinder
    {
        type            zeroGradient;
    }
    top
    {
        type            symmetryPlane;
    }
    bottom
    {
        type            symmetryPlane;
    }
    defaultFaces
    {
        type            empty;
    }
}


// ************************************************************************* //
