/*--------------------------------*- C++ -*----------------------------------*\
  =========                 |
  \\      /  F ield         | OpenFOAM: The Open Source CFD Toolbox
   \\    /   O peration     | Website:  https://openfoam.org
    \\  /    A nd           | Version:  7
     \\/     M anipulation  |
\*---------------------------------------------------------------------------*/
FoamFile
{
    version     2.0;
    format      ascii;
    class       surfaceScalarField;
    location    "64";
    object      phi;
}
// * * * * * * * * * * * * * * * * * * * * * * * * * * * * * * * * * * * * * //

dimensions      [0 3 -1 0 0 0 0];

internalField   nonuniform List<scalar> 
3880
(
-2.73025e-05
-0.000809226
0.000836529
-2.27695e-05
-0.00167018
0.00166564
4.42976e-05
-0.00200318
0.00193611
0.000196424
-0.00191815
0.00176603
0.00045257
-0.00147682
0.00122068
0.000827866
-0.000717187
0.000341891
0.00133106
0.000331846
-0.000835045
0.00196164
0.00163979
-0.00227037
0.00270732
0.00316762
-0.0039133
0.00486324
0.00354214
-0.00569806
-2.87577e-05
-0.000780469
-2.49227e-05
-0.00167401
3.92508e-05
-0.00206735
0.000184621
-0.00206352
0.000430857
-0.00172306
0.000796305
-0.00108264
0.00129504
-0.00016689
0.0019328
0.00100203
0.00270269
0.00239773
0.00398483
0.0035811
-2.45136e-05
-0.000755955
-1.07524e-05
-0.00168777
6.31063e-05
-0.00214121
0.000213949
-0.00221436
0.000459551
-0.00196866
0.00081922
-0.0014423
0.00131093
-0.000658605
0.0019465
0.000366465
0.00272586
0.00161837
0.00308066
0.00363003
-1.35019e-05
-0.000742453
2.24529e-05
-0.00172373
0.000121515
-0.00224027
0.000294089
-0.00238694
0.000553636
-0.00222821
0.000917793
-0.00180646
0.00140614
-0.00114695
0.00203541
-0.000262809
0.00281295
0.000840829
0.00216676
0.00372685
5.31522e-06
-0.000747769
7.63406e-05
-0.00179475
0.000217625
-0.00238156
0.0004312
-0.00260051
0.000724125
-0.00252113
0.00110983
-0.00219216
0.00160676
-0.00164388
0.0022345
-0.000890552
0.00300716
6.81752e-05
0.00125153
0.00392238
3.05271e-05
-0.000778296
0.000150169
-0.00191439
0.00035065
-0.00258204
0.000625257
-0.00287512
0.000973577
-0.00286945
0.00140299
-0.00262157
0.0019283
-0.0021692
0.00256926
-0.0015315
0.0033454
-0.000707964
0.000331854
0.00426508
6.23055e-05
-0.000840601
0.000241081
-0.00209317
0.000514947
-0.00285591
0.000868014
-0.00322819
0.00129222
-0.00329366
0.00178814
-0.00311749
0.00236525
-0.00274631
0.00304102
-0.00220728
0.00383802
-0.00150496
-0.000605517
0.00477539
9.8769e-05
-0.00093937
0.000343743
-0.00233814
0.000699831
-0.00321199
0.00114232
-0.00367068
0.00165617
-0.00380751
0.00223551
-0.00369682
0.00288378
-0.00339459
0.00361425
-0.00293775
0.00444998
-0.00234069
-0.00157526
0.00541972
0.000137629
-0.001077
0.000450755
-0.00265127
0.000890232
-0.00365147
0.00142321
-0.00420365
0.00202897
-0.00441328
0.00269645
-0.0043643
0.00342333
-0.00412147
0.00421664
-0.00373105
0.00509592
-0.00321997
-0.00258168
0.00610234
0.000176151
-0.00125315
0.000553271
-0.00302839
0.00106809
-0.00416629
0.00168052
-0.00481608
0.00236592
-0.00509867
0.00311048
-0.00510886
0.00390855
-0.00491954
0.00476092
-0.00458342
0.00567393
-0.00413298
0.00669105
-0.00359881
0.00570699
0.0323052
-0.03447
0.00691707
0.0583965
-0.0596066
0.00698881
0.0800463
-0.080118
0.00646439
0.0996878
-0.0991634
0.00565037
0.120302
-0.119488
0.00463564
0.143236
-0.142221
0.00345789
0.169105
-0.167928
0.00209869
0.200024
-0.198664
0.000825451
0.242351
-0.241078
0.292574
-0.291748
0.00610017
0.0297861
0.00780498
0.0566917
0.00820318
0.0796481
0.00785322
0.100038
0.00711123
0.121044
0.00607371
0.144274
0.0047731
0.170406
0.00318474
0.201612
0.00148919
0.244047
0.294063
0.00640836
0.0270078
0.00863024
0.0544698
0.00938842
0.0788899
0.00923463
0.100192
0.00857348
0.121705
0.00751622
0.145331
0.00609243
0.17183
0.00427312
0.203431
0.00215539
0.246164
0.296218
0.00662521
0.0241094
0.00935812
0.0517369
0.010511
0.077737
0.0105794
0.100123
0.0100126
0.122272
0.00894419
0.146399
0.00740167
0.173372
0.00535486
0.205478
0.00281583
0.248704
0.299034
0.00676882
0.021263
0.00995739
0.0485483
0.011538
0.0761565
0.0118595
0.0998016
0.011405
0.122727
0.0103375
0.147467
0.00868628
0.175023
0.00641752
0.207747
0.00346542
0.251656
0.302499
0.00688009
0.018648
0.0104038
0.0450247
0.0124386
0.0741216
0.0130465
0.0991937
0.0127249
0.123048
0.0116733
0.148518
0.00992742
0.176769
0.00744903
0.210225
0.00409739
0.255007
0.306597
0.00700737
0.016416
0.0106886
0.0413435
0.013187
0.0716231
0.0141179
0.0982629
0.0139582
0.123208
0.0129431
0.149534
0.0111189
0.178593
0.00844254
0.212902
0.00470828
0.258742
0.311305
0.00717822
0.0146575
0.0108213
0.0377004
0.0137608
0.0686837
0.015038
0.0969857
0.0150632
0.123183
0.0141048
0.150492
0.0122269
0.180471
0.00938033
0.215748
0.00528898
0.262833
0.316594
0.00736723
0.0133926
0.0108141
0.0342535
0.0141585
0.0653393
0.0158341
0.09531
0.0160884
0.122929
0.015206
0.151374
0.0132854
0.182392
0.0102718
0.218762
0.0058409
0.267264
0.322435
0.00756576
0.0125179
0.0107384
0.0310809
0.0143069
0.0617708
0.0163482
0.0932687
0.0168792
0.122398
0.0161234
0.15213
0.0142421
0.184273
0.0110832
0.221921
0.00639353
0.271953
0.328828
0.0183365
0.0210505
-0.0268691
0.0138085
0.0356089
0.0134554
0.0621239
0.01297
0.0937541
0.0116057
0.123762
0.00957441
0.154162
0.00698778
0.18686
0.00387461
0.225034
0.00100412
0.274824
0.329833
0.0214746
0.0277113
-0.0281355
0.0150748
0.0420088
0.0129683
0.0642304
0.012143
0.0945795
0.0106966
0.125208
0.00875006
0.156108
0.00637131
0.189238
0.00351862
0.227887
0.000894572
0.277448
0.330727
0.0234266
0.0319092
-0.0276245
0.0170693
0.0483662
0.0134139
0.0678857
0.0119401
0.0960533
0.0103453
0.126803
0.0082702
0.158183
0.00584583
0.191663
0.00309973
0.230633
0.000727405
0.27982
0.331455
0.0238539
0.034091
-0.0260358
0.0185578
0.0536623
0.0140309
0.0724126
0.0116854
0.0983988
0.00991278
0.128576
0.00799386
0.160102
0.00571737
0.193939
0.00309687
0.233253
0.000779454
0.282138
0.332234
0.0232295
0.0347376
-0.0238761
0.0194193
0.0574725
0.0150111
0.0768208
0.0121766
0.101233
0.00994695
0.130805
0.00771131
0.162338
0.00536292
0.196288
0.00285258
0.235764
0.000697698
0.284293
0.332932
0.0216415
0.0340867
-0.0209905
0.0192616
0.0598524
0.0152074
0.080875
0.0121762
0.104265
0.0100429
0.132939
0.00793818
0.164442
0.00558267
0.198643
0.00304098
0.238305
0.000834437
0.286499
0.333766
0.0193952
0.0322011
-0.0175096
0.0187858
0.0604617
0.0157979
0.0838629
0.0125952
0.107467
0.00998338
0.13555
0.00764093
0.166785
0.00531454
0.20097
0.00288302
0.240737
0.000795318
0.288587
0.334561
0.0164113
0.0293682
-0.0135785
0.0170765
0.0597966
0.0153042
0.0856351
0.0128398
0.109932
0.0105713
0.137819
0.0082461
0.16911
0.00573923
0.203476
0.00318074
0.243295
0.000983846
0.290784
0.335545
0.0141626
0.0254311
-0.0102254
0.0163388
0.0576203
0.0154913
0.0864827
0.0129418
0.112481
0.0103446
0.140416
0.00797329
0.171481
0.0055521
0.205898
0.00309479
0.245753
0.000962366
0.292916
0.336508
0.0105529
-0.00611268
0.0142482
0.0154623
0.0141735
0.0117153
0.00894313
0.00619996
0.00345376
0.00120712
0.00858407
-0.0281903
-0.00726281
0.00888389
-0.0284353
0.008506
-0.0272466
0.00778413
-0.0253139
0.00683669
-0.0229287
0.00572555
-0.0198794
0.00450234
-0.0162864
0.00327065
-0.0123468
0.00188747
-0.00884225
-0.00495981
0.0078803
-0.0288805
-0.0071901
0.00767845
-0.0282335
0.00698789
-0.0265561
0.0060555
-0.0243815
0.00495607
-0.0218292
0.00373828
-0.0186616
0.00244902
-0.0149971
0.00118614
-0.0110839
-0.000221834
-0.00743427
-0.00392358
0.00684635
-0.0290242
-0.00670267
0.00623821
-0.0276253
0.00530471
-0.0256226
0.00420053
-0.0232773
0.00297733
-0.020606
0.00167903
-0.0173633
0.000353624
-0.0136717
-0.000903407
-0.00982686
-0.00217901
-0.00615868
-0.00295979
0.00547159
-0.028714
-0.00578177
0.00455298
-0.0267067
0.0034422
-0.0245118
0.00221563
-0.0220508
0.000910455
-0.0193009
-0.000425727
-0.0160271
-0.00173812
-0.0123593
-0.0029614
-0.00860357
-0.00409461
-0.00502547
-0.00214073
0.00378963
-0.0280335
-0.00447013
0.0026488
-0.0255659
0.00142094
-0.0232839
0.000116911
-0.0207467
-0.00120991
-0.017974
-0.00253901
-0.014698
-0.00380367
-0.0110947
-0.00494143
-0.00746581
-0.0059133
-0.00405359
-0.00148608
0.00187008
-0.0270579
-0.0028457
0.000583618
-0.0242794
-0.000703787
-0.0219965
-0.00202267
-0.0194279
-0.00334557
-0.0166511
-0.00462662
-0.013417
-0.00580264
-0.00991868
-0.00681788
-0.00645057
-0.00761531
-0.00325616
-0.000997008
-0.00019303
-0.0258656
-0.000999315
-0.00155959
-0.0229129
-0.00286546
-0.0206907
-0.00417423
-0.0181191
-0.00544638
-0.015379
-0.00664138
-0.012222
-0.00769915
-0.00886091
-0.00856797
-0.00558175
-0.00918967
-0.00263446
-0.000662761
-0.00233067
-0.0245029
0.000967963
-0.00371781
-0.0215257
-0.00500714
-0.0194013
-0.00626796
-0.0168583
-0.00745923
-0.0141877
-0.00854199
-0.0111392
-0.00946295
-0.00793995
-0.0101753
-0.00486944
-0.010631
-0.00217871
-0.000464568
-0.00444143
-0.0230307
0.00296932
-0.00581536
-0.0201518
-0.00706084
-0.0181558
-0.00824769
-0.0156714
-0.00933815
-0.0130973
-0.0102937
-0.0101837
-0.0110712
-0.00716247
-0.0116298
-0.00431077
-0.0119384
-0.00187018
-0.00037902
-0.00645493
-0.0215072
0.00493135
-0.00778703
-0.0188197
-0.00897079
-0.0169721
-0.0100664
-0.0145758
-0.0110462
-0.0121174
-0.0118703
-0.00935956
-0.0125089
-0.00652391
-0.0129277
-0.00389201
-0.0131138
-0.00168399
-0.000380654
-0.00830881
-0.0199785
0.00678013
-0.00958018
-0.0175483
-0.0106924
-0.0158599
-0.0116878
-0.0135804
-0.0125569
-0.0112483
-0.0132555
-0.00866095
-0.0137692
-0.00601028
-0.0140697
-0.00359146
-0.0141618
-0.00159196
-0.000443666
-0.00996335
-0.0184816
0.00846649
-0.0111592
-0.0163525
-0.0121964
-0.0148226
-0.0130901
-0.0126867
-0.013856
-0.0104824
-0.0144429
-0.0080741
-0.0148521
-0.00560103
-0.015061
-0.00338262
-0.015088
-0.00156497
-0.000542888
-0.0113885
-0.0170452
0.00995205
-0.0124992
-0.0152418
-0.0134643
-0.0138575
-0.0142616
-0.0118894
-0.0149383
-0.00980571
-0.0154335
-0.00757895
-0.0157632
-0.00527125
-0.0159093
-0.00323661
-0.0158997
-0.00157454
-0.000654271
-0.0125698
-0.0156883
0.011213
-0.0135901
-0.0142215
-0.0144905
-0.0129571
-0.0152028
-0.0111771
-0.0158079
-0.00920053
-0.0162354
-0.00715148
-0.0165125
-0.00499418
-0.0166248
-0.00312429
-0.0166055
-0.00159386
-0.000755111
-0.0135061
-0.0144183
0.0122361
-0.014434
-0.0132936
-0.0152797
-0.0121115
-0.015923
-0.0105338
-0.016476
-0.0086475
-0.0168619
-0.00676565
-0.0171129
-0.00474315
-0.0172195
-0.00301764
-0.0172152
-0.00159822
-0.000824037
-0.0142062
-0.0132277
0.0130156
-0.0150436
-0.0124562
-0.0158443
-0.0113107
-0.0164387
-0.00993943
-0.0169586
-0.00812751
-0.0173291
-0.00639516
-0.0175795
-0.00449276
-0.0177066
-0.00289058
-0.0177397
-0.00156506
-0.000840929
-0.0146849
-0.0120921
0.0135493
-0.0154395
-0.0117017
-0.0162019
-0.0105483
-0.0167699
-0.0093714
-0.0172746
-0.00762282
-0.017655
-0.00601479
-0.0179282
-0.00421959
-0.0180996
-0.00271918
-0.0181909
-0.00147374
-0.000786795
-0.0149476
-0.0109804
0.0138359
-0.0156396
-0.0110097
-0.0163679
-0.00981997
-0.0169355
-0.00880378
-0.0174424
-0.00711593
-0.0178566
-0.00560059
-0.0181744
-0.00390183
-0.018412
-0.00248156
-0.0185807
-0.00130505
-0.000643584
-0.0149896
-0.00987387
0.0138831
-0.0156636
-0.0103357
-0.0163613
-0.00912229
-0.0169551
-0.00820991
-0.0174818
-0.00658931
-0.0179516
-0.00513077
-0.0183338
-0.00351961
-0.0186574
-0.00215795
-0.0189213
-0.00104111
-0.000393897
-0.0148783
-0.00873724
0.0137417
-0.0155895
-0.00962462
-0.0162301
-0.00848161
-0.0168556
-0.00758443
-0.0174132
-0.0060317
-0.0179526
-0.00459139
-0.0184183
-0.00305392
-0.0188469
-0.00172933
-0.0192271
-0.000660887
-2.29021e-05
-0.0653271
-0.00794339
0.0645333
-0.0676204
-0.00733134
-0.0697227
-0.00637935
-0.0718472
-0.00545985
-0.0735293
-0.0043496
-0.0748867
-0.00323407
-0.0757675
-0.00217307
-0.0762766
-0.0012202
-0.0764469
-0.000490671
-3.08365e-05
-0.0772004
-0.00723185
0.0764888
-0.0785448
-0.00598688
-0.0797455
-0.00517872
-0.081045
-0.00416035
-0.0820584
-0.00333615
-0.082884
-0.00240847
-0.0833987
-0.00165843
-0.0836866
-0.00093228
-0.0837619
-0.00041536
-3.93222e-05
-0.0902707
-0.00684835
0.0898872
-0.0909221
-0.00533548
-0.0916304
-0.0044705
-0.0923813
-0.0034094
-0.0929938
-0.00272366
-0.0934939
-0.00190835
-0.0937925
-0.00135985
-0.0939493
-0.000775453
-0.0939716
-0.000393113
-4.23043e-05
-0.106086
-0.0066747
0.105913
-0.106491
-0.00493102
-0.106919
-0.00404226
-0.107383
-0.00294548
-0.107758
-0.00234874
-0.108074
-0.00159229
-0.108255
-0.00117834
-0.108359
-0.000671549
-0.108368
-0.000384314
-3.91466e-05
-0.125651
-0.00632101
0.125297
-0.126047
-0.00453467
-0.126407
-0.00368209
-0.12678
-0.00257271
-0.127071
-0.00205733
-0.12733
-0.00133404
-0.127492
-0.00101615
-0.127611
-0.00055287
-0.127655
-0.000339664
-1.56905e-05
-0.148432
-0.0056448
0.147755
-0.149002
-0.00396461
-0.149472
-0.00321215
-0.149888
-0.00215612
-0.150216
-0.00172972
-0.150497
-0.00105315
-0.150704
-0.000808404
-0.150889
-0.00036851
-0.150999
-0.000229246
2.32539e-05
-0.171939
-0.00459582
0.17089
-0.172758
-0.00314564
-0.173439
-0.0025305
-0.173948
-0.00164699
-0.174361
-0.0013171
-0.174678
-0.000735975
-0.174946
-0.000540634
-0.175163
-0.000151565
-0.175308
-8.38275e-05
6.3686e-05
-0.192534
-0.00314778
0.191086
-0.193504
-0.00217614
-0.194293
-0.00174124
-0.194839
-0.00110167
-0.195292
-0.000863938
-0.195597
-0.000430927
-0.195855
-0.000282869
-0.196015
8.48182e-06
-0.196119
2.01809e-05
7.42497e-05
-0.206822
-0.00165916
0.205334
-0.207928
-0.00107066
-0.208832
-0.000837278
-0.209412
-0.000521677
-0.209859
-0.000416441
-0.210103
-0.000186943
-0.210277
-0.000109043
-0.210317
4.82035e-05
-0.210337
4.07532e-05
4.84048e-05
-0.214327
0.212668
-0.215398
-0.216235
-0.216757
-0.217174
-0.21736
-0.21747
-0.217421
-0.217381
-0.0151938
0.0657168
0.0140104
-0.0158682
0.0771632
-0.0163239
0.0903429
-0.0164942
0.106083
-0.0161936
0.124996
-0.0150703
0.146632
-0.0128083
0.168628
-0.00933496
0.187613
-0.00493883
0.200938
0.20773
-0.0143405
0.0664933
0.013564
-0.0149505
0.0777732
-0.0153436
0.0907361
-0.0154275
0.106167
-0.0150397
0.124609
-0.0138749
0.145467
-0.0116865
0.166439
-0.00846106
0.184388
-0.00444971
0.196926
0.20328
-0.0135714
0.0671689
0.0128957
-0.0141021
0.0783039
-0.0144188
0.0910528
-0.0144388
0.106187
-0.014006
0.124176
-0.012853
0.144314
-0.0107737
0.16436
-0.00777428
0.181388
-0.00407698
0.193229
0.199203
-0.0126949
0.0678053
0.0120585
-0.0131566
0.0787656
-0.0133888
0.0912849
-0.0133391
0.106137
-0.0128672
0.123704
-0.0117409
0.143188
-0.00979288
0.162412
-0.0070413
0.178637
-0.00368312
0.189871
0.19552
-0.0116855
0.0683978
0.011093
-0.0120889
0.079169
-0.01225
0.0914461
-0.012143
0.10603
-0.0116471
0.123208
-0.0105659
0.142107
-0.00876785
0.160614
-0.00627943
0.176148
-0.00327619
0.186867
0.192244
-0.0105679
0.0689355
0.0100302
-0.0109053
0.0795064
-0.0110019
0.0915426
-0.0108508
0.105879
-0.0103487
0.122706
-0.00933409
0.141092
-0.00770621
0.158986
-0.00549676
0.173939
-0.00286034
0.184231
0.189383
-0.00936762
0.0694087
0.00889441
-0.0096317
0.0797705
-0.00966335
0.0915743
-0.00947607
0.105692
-0.00898185
0.122212
-0.00805262
0.140163
-0.0066135
0.157547
-0.0046978
0.172023
-0.00243778
0.181971
0.186945
-0.00810429
0.0698042
0.00770885
-0.00829287
0.0799591
-0.00825961
0.091541
-0.00804169
0.105474
-0.00756565
0.121736
-0.00673592
0.139333
-0.00549937
0.15631
-0.00388815
0.170412
-0.002011
0.180094
0.184934
-0.00679817
0.0701047
0.00649763
-0.00691212
0.080073
-0.00681441
0.0914433
-0.00657166
0.105231
-0.00612152
0.121285
-0.00540146
0.138613
-0.00437617
0.155285
-0.00307512
0.169111
-0.00158337
0.178602
0.183351
-0.00547029
0.0702892
0.00528583
-0.00551437
0.0801171
-0.00534985
0.0912788
-0.00508872
0.10497
-0.00466945
0.120866
-0.00406622
0.13801
-0.00325655
0.154475
-0.0022668
0.168121
-0.00115894
0.177494
0.182192
-0.00415504
0.0703397
0.00410449
-0.00413095
0.080093
-0.00389502
0.0910429
-0.00361913
0.104694
-0.00323189
0.120479
-0.00274879
0.137527
-0.00215447
0.153881
-0.00147218
0.167439
-0.000742265
0.176764
0.18145
-0.0028865
0.0702572
0.00296907
-0.00278162
0.0799882
-0.00248238
0.0907436
-0.00218746
0.104399
-0.00183442
0.120126
-0.00146518
0.137158
-0.00108072
0.153497
-0.000700224
0.167058
-0.000337396
0.176401
0.181112
-0.00170424
0.0700564
0.00190499
-0.00149972
0.0797836
-0.00115399
0.0903979
-0.000834278
0.104079
-0.00052115
0.119813
-0.000261137
0.136898
-8.09654e-05
0.153316
1.13369e-05
0.166966
3.77881e-05
0.176375
0.18115
-0.000643521
0.0697758
0.000924088
-0.00031541
0.0794555
2.1237e-05
0.0900612
0.000434089
0.103667
0.000739524
0.119507
0.000913729
0.136723
0.000914551
0.153316
0.000736591
0.167144
0.000413979
0.176698
0.181564
0.000316644
0.0694645
-5.274e-06
0.000808518
0.0789636
0.00126138
0.0896084
0.00166112
0.103267
0.00193928
0.119229
0.00201796
0.136645
0.00184056
0.153493
0.00140333
0.167581
0.000762581
0.177338
0.182327
0.00126042
0.0690007
-0.000796705
0.00183442
0.0783896
0.00233614
0.0891067
0.00276628
0.102837
0.00302856
0.118967
0.00302728
0.136646
0.00269005
0.15383
0.00201586
0.168255
0.00108171
0.178273
0.183408
0.00206313
0.0684686
-0.00153101
0.002741
0.0777118
0.00329197
0.0885557
0.00375588
0.102373
0.00401251
0.11871
0.00394737
0.136711
0.00347005
0.154308
0.00258033
0.169145
0.00137533
0.179478
0.184784
0.00274599
0.0679202
-0.00219752
0.00352064
0.0769371
0.00411342
0.0879629
0.00460463
0.101882
0.00485683
0.118458
0.0047394
0.136829
0.00414379
0.154903
0.00306846
0.17022
0.00162721
0.180919
0.186411
0.00336529
0.0673838
-0.00282893
0.00422529
0.0760771
0.00486143
0.0873268
0.00538102
0.101362
0.0056365
0.118203
0.0054774
0.136988
0.00477414
0.155606
0.00352462
0.17147
0.00186185
0.182582
0.188273
0.00372724
0.0670946
-0.00343802
0.0046236
0.0751808
0.00530247
0.0866479
0.00584183
0.100823
0.00610352
0.117941
0.00592885
0.137162
0.00516811
0.156367
0.00381223
0.172826
0.00200338
0.18439
0.190276
-0.0481468
0.0613398
0.0539015
-0.0433788
0.0704128
-0.0400958
0.0833649
-0.0367139
0.0974408
-0.0329567
0.114184
-0.0283437
0.132549
-0.0225757
0.150599
-0.0157017
0.165952
-0.00802765
0.176716
0.182249
-0.0584662
0.0566913
0.0631148
-0.0542762
0.0662228
-0.0503545
0.0794431
-0.0459797
0.093066
-0.0411831
0.109387
-0.0352817
0.126648
-0.0280255
0.143343
-0.0195034
0.15743
-0.0100646
0.167278
0.172184
-0.0705414
0.0520679
0.0751648
-0.0662068
0.0618882
-0.0614303
0.0746666
-0.0560806
0.0877163
-0.0500297
0.103336
-0.0424997
0.119118
-0.0334868
0.13433
-0.0230984
0.147041
-0.0116991
0.155878
0.160485
-0.0851831
0.0477052
0.0895458
-0.0801764
0.0568815
-0.0745019
0.0689921
-0.068107
0.0813214
-0.0605244
0.0957536
-0.0510821
0.109676
-0.0400571
0.123305
-0.0275899
0.134574
-0.0141728
0.142461
0.146312
-0.101465
0.0425027
0.106667
-0.095659
0.0510757
-0.0888965
0.0622297
-0.0808499
0.0732748
-0.0710392
0.0859429
-0.0592331
0.0978695
-0.045896
0.109968
-0.0310812
0.119759
-0.0154642
0.126844
0.130848
-0.120751
0.0371649
0.126089
-0.113722
0.0440461
-0.105473
0.0539806
-0.0953151
0.0631171
-0.0831723
0.0738001
-0.0690944
0.0837916
-0.0533112
0.0941849
-0.0360669
0.102515
-0.0183844
0.109162
0.112464
-0.139553
0.0300531
0.146665
-0.131037
0.0355303
-0.120736
0.0436795
-0.107991
0.0503718
-0.0932355
0.059045
-0.0762695
0.0668256
-0.0573005
0.0752159
-0.037002
0.0822164
-0.0170732
0.0892328
0.0953903
-0.159809
0.022736
0.167126
-0.14983
0.0255516
-0.13766
0.0315091
-0.12308
0.0357926
-0.106383
0.0423479
-0.0871295
0.0475717
-0.0659952
0.0540815
-0.0439334
0.0601546
-0.0231181
0.0684176
0.0722722
-0.174552
0.0109082
0.18638
-0.161665
0.0126637
-0.145909
0.015754
-0.127996
0.0178792
-0.107124
0.0214762
-0.0837655
0.0242129
-0.0578954
0.0282114
-0.0302491
0.0325083
-0.00337037
0.0415388
0.0689018
-0.263146
0.274055
-0.250483
-0.234729
-0.216849
-0.195373
-0.17116
-0.142949
-0.110441
-0.0689018
0.00122391
0.0557468
-0.00306912
-0.000380567
0.0647193
-0.0015152
0.0762994
-0.00239972
0.0904303
-0.00295264
0.10722
-0.00313834
0.126275
-0.00286311
0.146389
-0.00221008
0.166473
-0.00223205
0.186402
0.271822
0.00163289
0.0575436
-0.00342973
-1.06527e-05
0.0663628
-0.00116294
0.0774517
-0.00208448
0.0913518
-0.00268521
0.107821
-0.00290053
0.12649
-0.00270181
0.146191
-0.00208651
0.165858
-0.00200817
0.186324
0.269814
0.00212276
0.0592211
-0.00380031
0.000591895
0.0678937
-0.000606156
0.0786498
-0.00152372
0.0922694
-0.00214763
0.108445
-0.00240234
0.126745
-0.00229965
0.146088
-0.00178132
0.165339
-0.00178899
0.186332
0.268025
0.00260212
0.0608004
-0.00418132
0.00113595
0.0693598
-5.38073e-05
0.0798395
-0.000905333
0.0931209
-0.00150628
0.109046
-0.00180531
0.127044
-0.00177173
0.146054
-0.0014004
0.164968
-0.00150226
0.186433
0.266523
0.0030709
0.0622935
-0.00456405
0.00168971
0.070741
0.000595063
0.0809342
-0.000272997
0.093989
-0.000832022
0.109605
-0.00116035
0.127372
-0.00118668
0.146081
-0.000964836
0.164746
-0.00116768
0.186636
0.265355
0.00355628
0.0636754
-0.00493822
0.00228376
0.0720135
0.00127589
0.081942
0.000464483
0.0948004
-0.000101053
0.11017
-0.00045827
0.12773
-0.000535634
0.146158
-0.000480963
0.164691
-0.000793047
0.186948
0.264562
0.00405918
0.064913
-0.00529675
0.00291654
0.0731562
0.00200245
0.0828561
0.00127412
0.0955287
0.000732932
0.110711
0.000335768
0.128127
0.000191958
0.146302
3.27022e-05
0.164851
-0.000377387
0.187358
0.264185
0.00457142
0.0659748
-0.00563325
0.00357608
0.0741515
0.00276576
0.0836665
0.00211795
0.0961765
0.00160766
0.111222
0.00121455
0.12852
0.000946742
0.14657
0.000693363
0.165104
7.82816e-05
0.187974
0.264263
0.00508714
0.0668271
-0.00593938
0.00425023
0.0749884
0.00355259
0.0843641
0.00299214
0.096737
0.00252317
0.111691
0.00211783
0.128925
0.00175689
0.146931
0.00134587
0.165515
0.000520326
0.188799
0.264784
0.00559491
0.0674361
-0.00620389
0.00492641
0.0756569
0.0043507
0.0849398
0.00388498
0.0972027
0.00346585
0.11211
0.003048
0.129343
0.00259742
0.147381
0.00202046
0.166092
0.000995883
0.189824
0.265779
0.00607417
0.0677709
-0.00640899
0.00558536
0.0761457
0.0051424
0.0853828
0.00477689
0.0975682
0.00441426
0.112472
0.00398973
0.129768
0.0034514
0.14792
0.00271142
0.166832
0.00148542
0.19105
0.267265
0.00651669
0.0678081
-0.00655393
0.00621926
0.0764432
0.00591774
0.0856843
0.00565874
0.0978272
0.00535907
0.112772
0.00493515
0.130191
0.00431341
0.148541
0.00341423
0.167731
0.00198391
0.19248
0.269249
0.00690132
0.0675359
-0.00662913
0.00680545
0.076539
0.00665223
0.0858375
0.00650552
0.0979739
0.00627636
0.113001
0.0058628
0.130605
0.00516668
0.149237
0.00411574
0.168782
0.002484
0.194112
0.271733
0.00721349
0.0669553
-0.00663281
0.0073277
0.0764248
0.00732744
0.0858378
0.00729674
0.0980046
0.00714662
0.113151
0.00675409
0.130998
0.00599565
0.149996
0.0048041
0.169974
0.00297781
0.195938
0.274711
0.00743816
0.0660851
-0.00656795
0.00777131
0.0760917
0.00792479
0.0856843
0.00801333
0.0979161
0.00795236
0.113212
0.00759248
0.131357
0.00678792
0.1508
0.0054705
0.171291
0.00346064
0.197948
0.278171
0.00756725
0.0649629
-0.0064451
0.00812385
0.0755351
0.00842815
0.08538
0.0086368
0.0977074
0.0086718
0.113177
0.00835678
0.131672
0.00752511
0.151632
0.00610006
0.172716
0.00392139
0.200127
0.282093
0.00760154
0.0636454
-0.00628408
0.00837891
0.0747577
0.00882937
0.0849295
0.00915825
0.0973785
0.00929656
0.113039
0.00904207
0.131927
0.00820518
0.152469
0.00669169
0.17423
0.00435963
0.202459
0.286452
0.00754881
0.0622094
-0.00611277
0.00852578
0.0737807
0.00911082
0.0843445
0.00955103
0.0969383
0.00979155
0.112799
0.00960722
0.132111
0.00878743
0.153289
0.00721736
0.1758
0.0047559
0.20492
0.291208
0.00744382
0.0607272
-0.00596166
0.00861037
0.0726142
0.00932469
0.0836302
0.00987203
0.096391
0.0102173
0.112453
0.0101132
0.132215
0.00932198
0.15408
0.00770775
0.177414
0.00512396
0.207504
0.296332
0.00717325
0.0593345
-0.00578048
0.00839347
0.071394
0.00924872
0.0827749
0.00989486
0.0957448
0.0103509
0.111997
0.0103468
0.132219
0.00964555
0.154781
0.00803837
0.179021
0.00543242
0.21011
0.301765
-0.0313884
0.0561225
0.0346004
-0.0269076
0.0669131
-0.0228726
0.0787399
-0.0187976
0.0916698
-0.0147451
0.107945
-0.0104553
0.12793
-0.00593809
0.150264
-0.00187455
0.174958
-0.000226513
0.208462
0.301538
-0.0466715
0.0519678
0.0508262
-0.0418315
0.0620731
-0.0365705
0.0734789
-0.0309624
0.0860617
-0.0252043
0.102187
-0.0188759
0.121601
-0.0120589
0.143447
-0.00566449
0.168563
-0.00219627
0.204993
0.299342
-0.063259
0.0473105
0.0679163
-0.0575026
0.0563167
-0.0510114
0.0669877
-0.0440522
0.0791025
-0.0366622
0.0947967
-0.0281435
0.113083
-0.0188644
0.134168
-0.00991859
0.159617
-0.00387295
0.198948
0.295469
-0.0815646
0.0422546
0.0866205
-0.0746536
0.0494057
-0.0671579
0.0594919
-0.0589178
0.0708624
-0.0495933
0.0854723
-0.0385646
0.102054
-0.0265831
0.122186
-0.014875
0.147909
-0.00604155
0.190114
0.289427
-0.102108
0.0359952
0.108368
-0.0945164
0.0418138
-0.0862273
0.0512029
-0.0763122
0.0609472
-0.0646429
0.073803
-0.0509591
0.0883701
-0.0360975
0.107325
-0.0211227
0.132935
-0.00882001
0.177812
0.280607
-0.126219
0.0296649
0.13255
-0.117622
0.0332164
-0.107919
0.0414994
-0.0959387
0.0489673
-0.0820074
0.0598718
-0.0659025
0.0722651
-0.0481547
0.0895771
-0.0297838
0.114564
-0.0135537
0.161582
0.267054
-0.153154
0.0213608
0.161458
-0.144127
0.0241899
-0.133229
0.0306011
-0.119897
0.0356357
-0.104512
0.0444865
-0.0863042
0.0540572
-0.0660054
0.0692783
-0.0440411
0.0925994
-0.0219968
0.139537
0.245057
-0.186082
0.0130785
0.194364
-0.176141
0.0142492
-0.164104
0.0185634
-0.150015
0.0215475
-0.133422
0.0278937
-0.114009
0.0346437
-0.0921603
0.0474296
-0.0676319
0.0680709
-0.0388459
0.110751
0.206211
-0.238172
0.00467562
0.246575
-0.229328
0.00540455
-0.218107
0.00734279
-0.205612
0.00905223
-0.190152
0.0124336
-0.172192
0.0166842
-0.149616
0.0248529
-0.119862
0.0383169
-0.074732
0.0656217
0.131479
-0.311188
0.315863
-0.305783
-0.29844
-0.289388
-0.276955
-0.26027
-0.235417
-0.197101
-0.131479
0.00265624
0.0362273
-0.00428315
0.00030079
0.0531816
-0.00161169
0.0698288
-0.00326385
0.0882727
-0.00455053
0.109654
-0.00552234
0.133522
-0.00587822
0.161814
-0.00590351
0.19439
-0.00430467
0.244976
0.311559
0.00259077
0.0374977
-0.00386119
0.000577082
0.0551953
-0.00129967
0.0717056
-0.00293857
0.0899116
-0.00424553
0.110961
-0.00521233
0.134488
-0.00562698
0.162228
-0.00566262
0.194425
-0.00417161
0.243485
0.307387
0.00268594
0.038387
-0.00357525
0.000983598
0.0568976
-0.00076436
0.0734535
-0.00231609
0.0914633
-0.0035909
0.112236
-0.00454271
0.13544
-0.00501907
0.162705
-0.00506523
0.194471
-0.00381673
0.242237
0.30357
0.00286238
0.0389276
-0.00340292
0.00145106
0.058309
-0.000168254
0.0750729
-0.00158207
0.0928771
-0.00278773
0.113442
-0.00373585
0.136388
-0.004258
0.163227
-0.00438977
0.194603
-0.00338005
0.241227
0.30019
0.00310677
0.0391365
-0.00331569
0.00200194
0.0594138
0.000589776
0.076485
-0.000767093
0.094234
-0.00189512
0.11457
-0.00283509
0.137328
-0.00341174
0.163804
-0.00365208
0.194843
-0.00288592
0.240461
0.297304
0.00343071
0.0389982
-0.00329244
0.0026538
0.0601907
0.00145585
0.077683
0.000154468
0.0955354
-0.000891364
0.115616
-0.00183293
0.13827
-0.00247998
0.164451
-0.00284633
0.19521
-0.00234501
0.23996
0.294959
0.00383076
0.0384834
-0.00331597
0.00339934
0.0606221
0.00242277
0.0786595
0.00129789
0.0966602
0.000237911
0.116676
-0.000732052
0.13924
-0.00144086
0.165159
-0.00197187
0.195741
-0.00176388
0.239752
0.293196
0.00428551
0.0375668
-0.00336889
0.00422125
0.0606864
0.00347906
0.0794017
0.00249676
0.0976425
0.00150294
0.117669
0.000497492
0.140245
-0.000277266
0.165934
-0.00104086
0.196504
-0.00114521
0.239856
0.29205
0.00476998
0.0362304
-0.00343361
0.00509842
0.0603579
0.00460584
0.0798943
0.00376855
0.0984798
0.00283019
0.118608
0.00184743
0.141228
0.000913586
0.166868
-9.7381e-05
0.197515
-0.000488699
0.240247
0.291562
0.00525535
-0.00349494
0.00600671
0.00578301
0.00509941
0.00421902
0.00322565
0.00216616
0.00101713
0.000186513
0.000212076
-0.00146523
0.000642449
-0.00345876
0.00121423
-0.00473807
0.00188137
-0.00548323
0.00261736
-0.00583466
0.00340877
-0.00590028
0.00425168
-0.00576245
0.00515189
-0.00548363
0.00613532
-0.00511641
-0.0047263
0.000238987
-0.00170421
0.000704484
-0.00392426
0.00130671
-0.00534029
0.00199436
-0.00617089
0.00273995
-0.00658025
0.00353136
-0.00669169
0.00436643
-0.00659752
0.00525018
-0.00636738
0.00619209
-0.00605832
-0.0057243
0.000256042
-0.00196026
0.000733809
-0.00440203
0.00133275
-0.00593924
0.00199809
-0.00683622
0.00270278
-0.00728494
0.00343692
-0.00742582
0.00420048
-0.00736108
0.00499836
-0.00716526
0.00583446
-0.00689442
-0.00659252
0.000260531
-0.00222079
0.000723673
-0.00486517
0.00128174
-0.0064973
0.00187918
-0.00743366
0.00249147
-0.00789723
0.00311238
-0.00804673
0.00374542
-0.00799412
0.00439797
-0.00781781
0.00507614
-0.0075726
-0.00729814
0.000250388
-0.00247117
0.000669894
-0.00528467
0.001149
-0.00697641
0.00163508
-0.00791975
0.00210868
-0.00837083
0.00256892
-0.00850697
0.0030241
-0.0084493
0.00348571
-0.00827941
0.0039645
-0.0080514
-0.00780376
0.000224371
-0.00269554
0.000571262
-0.00563157
0.000936127
-0.00734127
0.0012736
-0.00825722
0.00157177
-0.008669
0.00183642
-0.00877162
0.00208106
-0.00869393
0.00232119
-0.00851955
0.00257133
-0.00830154
-0.00807814
0.000182224
-0.00287777
0.000429683
-0.00587902
0.000650605
-0.00756219
0.000811137
-0.00841775
0.000908922
-0.00876678
0.000956822
-0.00881952
0.000972812
-0.00870993
0.000975253
-0.00852199
0.000979902
-0.00830619
-0.00809755
0.000124767
-0.00300253
0.00025
-0.00600426
0.00030474
-0.00761693
0.000270238
-0.00838325
0.000154611
-0.00865116
-2.29947e-05
-0.00864192
-0.000240676
-0.00849224
-0.000479929
-0.00828274
-0.00072571
-0.0080604
-0.0078553
5.39421e-05
-0.00305648
3.95787e-05
-0.00598989
-8.57743e-05
-0.00749158
-0.000323229
-0.00814579
-0.000654314
-0.00832007
-0.00105467
-0.00824157
-0.00150177
-0.00804514
-0.00197754
-0.00780697
-0.0024694
-0.00756854
-0.00735538
-2.81224e-05
-0.00302835
-0.000192678
-0.00582534
-0.000503449
-0.00718081
-0.000942622
-0.00770662
-0.00148246
-0.00778023
-0.00209544
-0.00762859
-0.00275927
-0.00738131
-0.00345834
-0.0071079
-0.00418328
-0.0068436
-0.00660731
-0.00010286
-0.00292549
-0.000417134