/*--------------------------------*- C++ -*----------------------------------*\
  =========                 |
  \\      /  F ield         | OpenFOAM: The Open Source CFD Toolbox
   \\    /   O peration     | Website:  https://openfoam.org
    \\  /    A nd           | Version:  7
     \\/     M anipulation  |
\*---------------------------------------------------------------------------*/
FoamFile
{
    version     2.0;
    format      ascii;
    class       volVectorField;
    location    "64";
    object      U;
}
// * * * * * * * * * * * * * * * * * * * * * * * * * * * * * * * * * * * * * //

dimensions      [0 1 -1 0 0 0 0];

internalField   nonuniform List<vector> 
2000
(
(-0.000134672 -0.00825247 -3.71352e-22)
(-2.73621e-05 -0.0167149 0)
(0.000723742 -0.0197138 0)
(0.00227414 -0.0183813 -1.88461e-21)
(0.00461558 -0.0133489 5.97313e-22)
(0.00770821 -0.0050128 1.42926e-23)
(0.011479 0.00630545 -1.0278e-21)
(0.0158024 0.0202487 0)
(0.0204571 0.036354 0)
(0.0251894 0.0540151 0)
(0.00045005 -0.00795092 0)
(0.00124388 -0.0166917 -1.45181e-21)
(0.00228899 -0.0202326 1.33886e-21)
(0.00376506 -0.0196205 2.51229e-21)
(0.00572323 -0.0154596 0)
(0.00818613 -0.00811705 2.2532e-21)
(0.0111497 0.00214202 -2.0953e-21)
(0.0145588 0.0150488 0)
(0.0182514 0.0302521 3.77453e-21)
(0.0219896 0.0472781 -7.26881e-21)
(0.00104463 -0.00761214 0)
(0.00271897 -0.0165745 1.17209e-20)
(0.00432544 -0.020576 0)
(0.0059859 -0.0206122 1.03424e-20)
(0.0077937 -0.0172806 0)
(0.0098208 -0.0109417 -9.18415e-21)
(0.0121228 -0.00182218 0)
(0.0147123 0.00989222 8.14015e-21)
(0.017498 0.023976 -7.62365e-21)
(0.0202406 0.0401149 -7.42987e-21)
(0.0016737 -0.00728391 -3.07883e-21)
(0.00445328 -0.0164155 -5.82469e-21)
(0.00691225 -0.0207609 -2.73963e-21)
(0.0090383 -0.0213171 -5.08586e-21)
(0.0109563 -0.0186977 -4.85532e-21)
(0.0127766 -0.0132838 4.52173e-21)
(0.0146038 -0.00529044 4.33538e-21)
(0.0165123 0.00516038 2.99448e-23)
(0.0184906 0.01797 7.75557e-21)
(0.0202852 0.0329991 7.4295e-21)
(0.00237796 -0.00701911 -3.07207e-21)
(0.00651459 -0.0162661 -5.99534e-21)
(0.0101253 -0.020808 -1.13309e-20)
(0.0130033 -0.0217067 5.20372e-21)
(0.0153023 -0.0196145 0)
(0.0171659 -0.014959 0)
(0.0187401 -0.00797483 -8.91732e-21)
(0.0201525 0.00124847 -8.41369e-21)
(0.0214795 0.0127245 7.9589e-21)
(0.0224542 0.0264851 2.2796e-20)
(0.00321062 -0.00685946 3.1117e-21)
(0.00897809 -0.0161715 3.08528e-21)
(0.0140239 -0.0207394 -1.69653e-20)
(0.0179201 -0.0217702 2.67151e-20)
(0.0208539 -0.0199727 -4.9629e-21)
(0.0230059 -0.0158397 0)
(0.0245617 -0.00965443 0)
(0.0256959 -0.00151103 4.24824e-20)
(0.0265786 0.00868713 -3.99413e-20)
(0.0269542 0.021117 7.56454e-21)
(0.00422968 -0.0068313 2.46288e-20)
(0.0119129 -0.0161587 0)
(0.018639 -0.0205721 2.26091e-20)
(0.0237685 -0.0215164 -2.13428e-20)
(0.0275393 -0.0197666 0)
(0.0301821 -0.0158891 9.65194e-21)
(0.0319292 -0.0102344 -2.71273e-20)
(0.0330011 -0.00293773 -3.42108e-20)
(0.0336649 0.00614084 1.60917e-20)
(0.0337241 0.0172867 1.54298e-20)
(0.0054956 -0.00694282 -4.92519e-20)
(0.0153713 -0.0162258 -6.12086e-21)
(0.0239589 -0.0203125 -1.14997e-20)
(0.0304551 -0.0209715 -2.69867e-20)
(0.0351786 -0.0190477 -1.02974e-20)
(0.0384311 -0.0151773 -9.76929e-21)
(0.0405051 -0.00978263 -7.43426e-23)
(0.0416728 -0.00306707 0)
(0.0423013 0.00510951 0)
(0.0423178 0.0151068 2.06757e-22)
(0.00706155 -0.00717637 2.46236e-20)
(0.0193772 -0.0163396 -2.44269e-20)
(0.0299185 -0.0199519 1.71073e-20)
(0.0378095 -0.0201746 3.80034e-20)
(0.0434884 -0.0179195 -1.01429e-20)
(0.0473552 -0.013877 9.68791e-21)
(0.0497779 -0.00852795 9.1671e-21)
(0.0510836 -0.00214706 0)
(0.0517291 0.005374 0)
(0.0518426 0.0144108 -2.4004e-22)
(0.00896457 -0.00748884 -3.08203e-21)
(0.0239134 -0.0164364 3.06333e-20)
(0.0363927 -0.0194665 -5.71951e-21)
(0.0455863 -0.0191727 0)
(0.0521011 -0.0165249 0)
(0.0564691 -0.0122438 1.93686e-20)
(0.0591556 -0.00683479 0)
(0.0605478 -0.000608551 -1.72266e-20)
(0.061126 0.00649638 -9.39169e-23)
(0.0611834 0.0147317 1.55159e-20)
(0.0365608 0.095519 2.87311e-22)
(0.0520462 0.168663 -2.90726e-22)
(0.055524 0.228757 -3.44034e-22)
(0.0531007 0.283936 -3.94643e-22)
(0.0460087 0.34238 -4.82133e-22)
(0.0406185 0.407616 -1.60172e-23)
(0.0276151 0.481235 2.55186e-22)
(0.0241096 0.569333 8.96359e-22)
(0.00232719 0.690331 0)
(0.00772134 0.83424 -6.56476e-22)
(0.03109 0.0883092 1.07638e-21)
(0.0470923 0.163726 -1.27844e-21)
(0.0517822 0.227079 2.3039e-21)
(0.0501851 0.284019 3.95314e-22)
(0.0436938 0.343328 8.56876e-22)
(0.0387614 0.409151 1.46534e-21)
(0.0263639 0.483288 -5.47534e-22)
(0.0230676 0.571867 -6.0068e-22)
(0.00221231 0.692601 1.18799e-21)
(0.00724413 0.835284 6.54919e-22)
(0.0266099 0.0801476 0)
(0.0424915 0.157109 -1.19727e-21)
(0.0483531 0.223991 -6.73062e-22)
(0.0475576 0.282948 0)
(0.0416234 0.343242 -2.63535e-21)
(0.0371276 0.409748 8.26077e-22)
(0.0252728 0.484492 9.33372e-22)
(0.0221438 0.573627 3.26383e-21)
(0.00214604 0.694447 -1.18415e-21)
(0.00681075 0.836124 2.37993e-21)
(0.0234866 0.0714231 0)
(0.0382634 0.148833 1.20739e-21)
(0.0452275 0.219448 0)
(0.0451946 0.280689 3.06396e-21)
(0.0397801 0.342107 -3.07979e-21)
(0.0356985 0.409369 -1.87549e-21)
(0.0243283 0.484742 -1.13183e-22)
(0.0213488 0.574431 -3.18989e-21)
(0.00213506 0.695502 -5.24771e-22)
(0.00640291 0.836578 -2.92994e-21)
(0.0222219 0.0626396 8.83964e-23)
(0.0344901 0.139043 -3.4457e-21)
(0.0423955 0.213423 1.94966e-22)
(0.043071 0.277216 -2.69117e-21)
(0.0381434 0.339963 0)
(0.0344503 0.408133 -1.79837e-21)
(0.0235067 0.484283 -1.46076e-22)
(0.0206499 0.574712 4.03509e-21)
(0.00213961 0.696311 5.35628e-22)
(0.00602404 0.83694 -5.3756e-22)
(0.0233426 0.0543623 -9.48064e-21)
(0.0313546 0.128067 5.99428e-21)
(0.0398504 0.205919 2.63323e-21)
(0.0411681 0.272497 -2.63185e-21)
(0.0367001 0.336728 -1.47707e-21)
(0.0333727 0.405828 0)
(0.0228113 0.482715 -3.61341e-21)
(0.0200744 0.573798 1.79538e-21)
(0.00219858 0.696012 1.96706e-21)
(0.00565696 0.836824 2.04318e-21)
(0.0271614 0.0471188 -1.17181e-21)
(0.0291571 0.116452 0)
(0.0375945 0.196975 0)
(0.0394596 0.266599 0)
(0.0354284 0.332676 -1.57861e-21)
(0.0324394 0.403014 3.0509e-21)
(0.0222017 0.480932 3.53079e-21)
(0.0195388 0.57298 -5.47961e-21)
(0.00222053 0.696067 9.70269e-22)
(0.00531826 0.836854 -2.98448e-21)
(0.0334778 0.0412185 7.37345e-21)
(0.0282567 0.104868 5.00035e-21)
(0.0356615 0.186731 -4.95527e-21)
(0.0379496 0.259274 5.47763e-21)
(0.0343112 0.327117 -6.81605e-21)
(0.0316538 0.39852 0)
(0.0217251 0.477262 -1.60525e-21)
(0.0191672 0.570071 7.17133e-23)
(0.0023448 0.694219 -1.76904e-21)
(0.00497882 0.836173 -1.84152e-21)
(0.0413127 0.0364302 -6.34779e-21)
(0.0289019 0.0934061 0)
(0.0340609 0.175424 -5.7115e-21)
(0.0366112 0.251617 1.04026e-20)
(0.0333657 0.322079 -3.90163e-21)
(0.0309651 0.395184 -7.27162e-22)
(0.0212509 0.475188 1.60183e-21)
(0.0186981 0.569114 6.8254e-24)
(0.00231244 0.694198 2.55899e-21)
(0.00467169 0.836081 2.68082e-21)
(0.0486874 0.0328701 -5.18438e-21)
(0.0309872 0.081957 5.05942e-21)
(0.0330413 0.160807 6.23903e-22)
(0.0353581 0.239147 0)
(0.0324347 0.311819 0)
(0.030472 0.386563 7.069e-22)
(0.0210529 0.467853 3.00533e-21)
(0.0186191 0.563046 -2.91872e-21)
(0.00256166 0.690124 -7.8186e-22)
(0.00434824 0.83477 7.57365e-22)
(0.0568551 0.0371467 0)
(0.0353453 0.0759592 0)
(0.033268 0.150796 0)
(0.0345467 0.234096 0)
(0.0311108 0.310711 0)
(0.0286434 0.387652 0)
(0.0195461 0.469924 0)
(0.0169487 0.566311 0)
(0.00195689 0.692956 0)
(0.00368523 0.835058 0)
(0.0651067 0.0647084 0)
(0.04283 0.0987184 0)
(0.0327902 0.1581 0)
(0.0323635 0.237159 0)
(0.0288576 0.315044 0)
(0.0260877 0.39389 0)
(0.017958 0.478018 0)
(0.0153541 0.576056 0)
(0.00185191 0.702053 0)
(0.00312387 0.839411 0)
(0.0676434 0.0771067 0)
(0.0505472 0.115528 0)
(0.0354272 0.167037 0)
(0.0319327 0.241126 0)
(0.0282812 0.318854 0)
(0.0248301 0.397733 0)
(0.016759 0.48213 0)
(0.0137296 0.58071 0)
(0.00144047 0.706021 0)
(0.00257788 0.839539 0)
(0.0657732 0.0844609 0)
(0.0552074 0.129884 0)
(0.0390613 0.177782 0)
(0.0315943 0.246677 0)
(0.0270949 0.32454 0)
(0.0237291 0.404907 0)
(0.0164887 0.490799 0)
(0.0132763 0.590513 0)
(0.00188852 0.715023 0)
(0.00235263 0.843856 0)
(0.0617193 0.0877564 0)
(0.0566538 0.141313 0)
(0.0427409 0.189045 0)
(0.0334288 0.252729 0)
(0.0276689 0.328497 0)
(0.0230873 0.408139 0)
(0.0156501 0.49389 0)
(0.0122243 0.593774 0)
(0.00174477 0.717588 0)
(0.0020348 0.843358 0)
(0.0556511 0.0877087 0)
(0.0549941 0.149316 0)
(0.0439239 0.199859 0)
(0.03357 0.260221 0)
(0.0276179 0.33499 0)
(0.0234504 0.41597 0)
(0.0164211 0.503071 0)
(0.0124769 0.603868 0)
(0.00246611 0.726585 0)
(0.0019826 0.847758 0)
(0.047987 0.0845956 0)
(0.0513849 0.15363 0)
(0.0452443 0.210006 0)
(0.0355323 0.268693 0)
(0.0279443 0.33966 0)
(0.0226471 0.418598 0)
(0.0156831 0.505113 0)
(0.0117765 0.605817 0)
(0.00241168 0.72801 0)
(0.00179906 0.847036 0)
(0.0389217 0.0783517 0)
(0.0450789 0.152464 0)
(0.042732 0.214589 0)
(0.0356898 0.275909 0)
(0.0293704 0.348096 0)
(0.0242578 0.4284 0)
(0.0171141 0.515841 0)
(0.0124226 0.617057 0)
(0.00329128 0.737739 0)
(0.00185142 0.852027 0)
(0.031549 0.0722136 0)
(0.0411725 0.152489 0)
(0.0427551 0.221259 0)
(0.0365574 0.28276 0)
(0.0291018 0.351556 0)
(0.0234373 0.429756 0)
(0.0165682 0.51676 0)
(0.0120267 0.617851 0)
(0.00326643 0.738358 0)
(0.00176255 0.851508 0)
(0.0208734 0.053439 0)
(0.0328677 0.136991 0)
(0.0398973 0.216507 0)
(0.0388719 0.288823 0)
(0.0329906 0.362691 0)
(0.0264819 0.442349 0)
(0.0186776 0.529654 0)
(0.0130202 0.63084 0)
(0.00430977 0.749318 0)
(0.00187463 0.857348 0)
(0.0722754 0.0279569 4.75282e-21)
(0.0749663 0.0428512 -4.6719e-21)
(0.0725219 0.0478081 4.26648e-22)
(0.0678157 0.0494225 0)
(0.0617001 0.0481192 0)
(0.0537022 0.0446491 1.43107e-22)
(0.0441926 0.0391598 -2.0011e-22)
(0.0336688 0.0313274 1.96755e-22)
(0.0245934 0.0242354 -1.74426e-23)
(0.0144498 0.00710785 1.72079e-23)
(0.076255 0.0242066 -6.09739e-21)
(0.0759514 0.0336027 0)
(0.071838 0.0352262 2.44873e-21)
(0.0662831 0.0344859 -4.93103e-21)
(0.0596177 0.0313637 2.50227e-21)
(0.0512276 0.0265688 -1.40288e-22)
(0.0414524 0.0201466 1.27245e-22)
(0.0309097 0.0117898 4.58455e-23)
(0.0213678 0.0043485 -4.02489e-23)
(0.0115135 -0.0116736 -4.32444e-23)
(0.0785604 0.0195901 6.89201e-21)
(0.0759227 0.0240235 -3.38278e-21)
(0.0707672 0.0226967 3.35023e-21)
(0.0646023 0.0197367 -1.96645e-21)
(0.0574626 0.0148146 1.53152e-21)
(0.0487058 0.00867761 0)
(0.0386841 0.00130479 -1.27535e-22)
(0.0281628 -0.00744988 -4.59856e-24)
(0.0182887 -0.0151352 8.14591e-24)
(0.00934839 -0.0294599 6.22219e-23)
(0.0796608 0.0132438 -1.06467e-21)
(0.0750337 0.0133116 0)
(0.069182 0.00953958 0)
(0.062556 0.00468198 0)
(0.0550616 -0.00180459 9.88233e-22)
(0.0460498 -0.00907876 -6.11779e-22)
(0.0358941 -0.0172258 4.14415e-23)
(0.0254485 -0.0261602 1.49177e-23)
(0.0155299 -0.0338677 1.45353e-23)
(0.0073712 -0.0461771 2.93238e-23)
(0.0794695 0.00510018 -5.9958e-22)
(0.0732319 0.00148038 -2.83726e-21)
(0.0669822 -0.00429918 -1.20395e-21)
(0.0600228 -0.0107143 1.20307e-21)
(0.0523139 -0.0184801 -3.71714e-22)
(0.0431623 -0.0266117 0)
(0.0330202 -0.0352695 -1.11391e-22)
(0.0227523 -0.0441311 3.7791e-23)
(0.0130707 -0.0515814 -1.06244e-23)
(0.00565168 -0.0617935 -4.43224e-23)
(0.0781092 -0.00459293 -7.6422e-21)
(0.0706846 -0.0111784 1.2473e-21)
(0.0642878 -0.0186205 3.12053e-22)
(0.0571132 -0.026276 1.16442e-21)
(0.0492968 -0.0350347 0)
(0.0401182 -0.0437275 0)
(0.0301201 -0.0526204 0)
(0.020152 -0.0611668 3.58343e-23)
(0.0109101 -0.0681031 0)
(0.00425291 -0.0762972 0)
(0.0757384 -0.0154781 0)
(0.0675492 -0.0243023 2.22303e-21)
(0.0612005 -0.0331472 -1.44033e-21)
(0.0539191 -0.041735 -8.40235e-22)
(0.0460884 -0.0512191 8.44541e-22)
(0.0370093 -0.0602007 1.66558e-22)
(0.0272775 -0.0690719 -2.08957e-22)
(0.0177225 -0.0770986 -1.68461e-22)
(0.00905802 -0.0833325 1.31002e-23)
(0.00315843 -0.0896964 1.48592e-23)
(0.0724836 -0.0271841 0)
(0.063966 -0.0375356 -7.83308e-22)
(0.057801 -0.0475818 -3.18804e-22)
(0.0505089 -0.0568093 0)
(0.0427834 -0.0667787 1.09495e-22)
(0.0339193 -0.075807 -4.01741e-22)
(0.0245596 -0.0844407 1.61365e-22)
(0.0155136 -0.0918017 1.24198e-24)
(0.00750894 -0.0972299 -8.04366e-24)
(0.0023249 -0.102016 -1.70706e-23)
(0.0684766 -0.0393408 9.96065e-22)
(0.0600476 -0.0505665 7.04208e-22)
(0.0541711 -0.0616428 -2.32664e-22)
(0.0469726 -0.0712383 1.23482e-22)
(0.0394599 -0.0814809 1.76018e-22)
(0.0309179 -0.0903549 1.73207e-22)
(0.0220167 -0.0985877 -3.47553e-23)
(0.0135521 -0.105204 -1.6544e-23)
(0.00623979 -0.109804 8.06996e-24)
(0.001705 -0.11329 -5.19273e-25)
(0.0638921 -0.0516101 -2.12293e-22)
(0.0558877 -0.0631385 2.14229e-22)
(0.0503905 -0.0750898 -1.59515e-22)
(0.043394 -0.0848052 -1.23294e-22)
(0.0361857 -0.0951386 7.56112e-23)
(0.0280614 -0.103706 -1.35656e-22)
(0.0196824 -0.111429 4.83246e-23)
(0.0118444 -0.117285 2.88017e-24)
(0.00521598 -0.121101 0)
(0.00125262 -0.123558 5.20335e-25)
(0.0589439 -0.0637195 2.15936e-22)
(0.051612 -0.0750574 -2.1778e-22)
(0.0465597 -0.0877347 -1.65011e-22)
(0.0398695 -0.0973547 -1.28769e-22)
(0.0330314 -0.107625 -7.88769e-23)
(0.0253998 -0.115787 1.34244e-23)
(0.0175779 -0.122939 2.64894e-23)
(0.0103817 -0.128074 3.84477e-23)
(0.00439828 -0.131189 0)
(0.000926065 -0.132865 -2.47363e-24)
(0.0538578 -0.0754697 0)
(0.0473658 -0.0861958 -7.36339e-22)
(0.0427886 -0.0994453 1.24643e-21)
(0.0364982 -0.108799 1.28958e-22)
(0.0300615 -0.118875 2.00173e-22)
(0.0229716 -0.126583 2.06666e-22)
(0.0157115 -0.133145 -4.17177e-23)
(0.00914506 -0.137636 -2.30404e-23)
(0.0037482 -0.140154 2.64011e-23)
(0.000690884 -0.14126 2.46759e-24)
(0.0488179 -0.0867301 0)
(0.0432657 -0.0964973 -8.41577e-22)
(0.0391555 -0.110145 -3.40125e-22)
(0.0333483 -0.11912 0)
(0.0273144 -0.128884 -5.48928e-22)
(0.0207922 -0.136141 2.10337e-22)
(0.0140763 -0.142118 1.22982e-22)
(0.00810756 -0.146067 1.95422e-22)
(0.00323094 -0.148092 -2.6315e-23)
(0.000520393 -0.1488 1.93553e-23)
(0.0439624 -0.0974275 0)
(0.0393948 -0.10598 8.48543e-22)
(0.0357073 -0.119812 0)
(0.0304556 -0.128367 9.89166e-22)
(0.0248048 -0.137703 -9.94304e-22)
(0.0188565 -0.144551 -2.56496e-22)
(0.0126547 -0.149963 5.96451e-23)
(0.00723907 -0.153481 -2.03957e-22)
(0.00281723 -0.155105 -3.72627e-23)
(0.000394658 -0.155555 -3.01761e-23)
(0.0393994 -0.107533 8.56877e-21)
(0.0358222 -0.114734 -3.2146e-21)
(0.0324799 -0.12847 -3.07601e-22)
(0.0278391 -0.136644 -1.32971e-21)
(0.022538 -0.14543 0)
(0.0171495 -0.151942 -2.74459e-22)
(0.0114252 -0.156811 9.45407e-23)
(0.00651068 -0.160006 3.1352e-22)
(0.00248416 -0.161307 1.24803e-23)
(0.000299426 -0.161605 -1.24623e-23)
(0.0351996 -0.117039 6.9986e-22)
(0.0326072 -0.12292 5.02375e-21)
(0.0295073 -0.136181 1.38663e-21)
(0.0255067 -0.144095 -1.38579e-21)
(0.0205179 -0.152194 -4.83449e-22)
(0.0156529 -0.15846 0)
(0.010368 -0.162807 -4.42843e-22)
(0.00589763 -0.165776 2.36582e-22)
(0.002215 -0.166812 1.17467e-22)
(0.000224876 -0.167041 2.98804e-23)
(0.0314156 -0.125919 -1.19994e-21)
(0.0298216 -0.130751 0)
(0.0268438 -0.143038 0)
(0.0234685 -0.150883 0)
(0.0187564 -0.158151 -3.79072e-22)
(0.0143532 -0.164263 8.61576e-22)
(0.00946892 -0.1681 4.56959e-22)
(0.00538148 -0.170927 -5.37881e-22)
(0.0019986 -0.17174 3.05403e-23)
(0.000164234 -0.171964 -5.97999e-23)
(0.0280589 -0.134091 -2.76046e-21)
(0.027503 -0.138479 3.74919e-21)
(0.024528 -0.149158 -3.71387e-21)
(0.0217075 -0.157171 2.40581e-21)
(0.0172521 -0.163466 -2.91868e-21)
(0.0132287 -0.169504 0)
(0.00871092 -0.172839 -2.79875e-22)
(0.00494532 -0.175589 -1.3047e-23)
(0.00182619 -0.176211 -1.02306e-22)
(0.000111761 -0.176478 -3.50712e-23)
(0.024758 -0.14134 -1.302e-21)
(0.0253197 -0.146348 0)
(0.0223781 -0.154683 -3.68386e-21)
(0.0200305 -0.163111 5.72752e-21)
(0.015885 -0.168313 -1.96947e-21)
(0.0121831 -0.174336 -2.10137e-22)
(0.00803484 -0.17717 2.79238e-22)
(0.00455295 -0.179888 3.41833e-23)
(0.00168214 -0.18034 2.11254e-22)
(6.326e-05 -0.180693 6.94192e-23)
(0.0214911 -0.147131 -5.28446e-21)
(0.0230958 -0.15458 5.16148e-21)
(0.0204153 -0.159834 4.75659e-22)
(0.0184045 -0.16886 0)
(0.0146348 -0.17289 0)
(0.0112061 -0.178924 2.16448e-22)
(0.00742966 -0.18125 5.19812e-22)
(0.00419982 -0.183955 -5.10068e-22)
(0.00156351 -0.184244 -3.85516e-23)
(3.49913e-05 -0.184718 3.7699e-23)
(0.0220398 -0.155075 0)
(0.0233323 -0.173964 0)
(0.0201291 -0.171348 0)
(0.0176764 -0.182164 0)
(0.013965 -0.183549 0)
(0.0104548 -0.189727 0)
(0.00696011 -0.190847 0)
(0.00390064 -0.193511 0)
(0.00152725 -0.193348 0)
(7.39099e-05 -0.19406 0)
(0.0179862 -0.184831 0)
(0.015354 -0.203947 0)
(0.0136085 -0.196794 0)
(0.0112287 -0.207226 0)
(0.00908663 -0.205343 0)
(0.00668444 -0.211019 0)
(0.00458067 -0.210257 0)
(0.00260215 -0.212707 0)
(0.00111635 -0.211728 0)
(0.000100439 -0.212635 0)
(0.0179103 -0.217798 0)
(0.01433 -0.236994 0)
(0.0121118 -0.226747 0)
(0.00944665 -0.237283 0)
(0.00753362 -0.232974 0)
(0.00534694 -0.238748 0)
(0.00374686 -0.236504 0)
(0.00213972 -0.239117 0)
(0.00102982 -0.237366 0)
(0.000110926 -0.238575 0)
(0.0171402 -0.257558 0)
(0.0129694 -0.277636 0)
(0.0107655 -0.26508 0)
(0.00800958 -0.276376 0)
(0.00640484 -0.27009 0)
(0.00441857 -0.276479 0)
(0.00322593 -0.272918 0)
(0.00185437 -0.276029 0)
(0.00100338 -0.27347 0)
(0.000109507 -0.275149 0)
(0.016398 -0.306991 0)
(0.0119999 -0.327692 0)
(0.00977735 -0.31407 0)
(0.00698282 -0.326246 0)
(0.00558527 -0.318679 0)
(0.0037348 -0.325916 0)
(0.00282623 -0.321336 0)
(0.00159133 -0.325144 0)
(0.000936466 -0.321859 0)
(7.57973e-05 -0.324179 0)
(0.0151536 -0.365775 0)
(0.010774 -0.385184 0)
(0.00873236 -0.372723 0)
(0.00597026 -0.384811 0)
(0.00480366 -0.377288 0)
(0.00304259 -0.384875 0)
(0.0023509 -0.379975 0)
(0.00118607 -0.384258 0)
(0.000727267 -0.380624 0)
(-1.2799e-05 -0.383494 0)
(0.0128884 -0.427798 0)
(0.00896067 -0.443506 0)
(0.00725362 -0.434606 0)
(0.00476846 -0.44491 0)
(0.00383846 -0.439068 0)
(0.00223181 -0.445812 0)
(0.00169243 -0.441624 0)
(0.000624872 -0.445603 0)
(0.000376087 -0.442308 0)
(-0.000122358 -0.445216 0)
(0.0097243 -0.482582 0)
(0.00668439 -0.493441 0)
(0.00534692 -0.4892 0)
(0.00340886 -0.496456 0)
(0.0026895 -0.493237 0)
(0.00139343 -0.498016 0)
(0.000961095 -0.495293 0)
(0.000103307 -0.49811 0)
(3.56254e-05 -0.495752 0)
(-0.00018025 -0.497962 0)
(0.00598666 -0.521457 0)
(0.00403862 -0.528081 0)
(0.00321348 -0.527769 0)
(0.00199147 -0.532075 0)
(0.00154715 -0.531265 0)
(0.000697815 -0.533904 0)
(0.000409986 -0.532675 0)
(-0.000147841 -0.534074 0)
(-0.000117878 -0.532778 0)
(-0.000155105 -0.533949 0)
(0.0020026 -0.541 0)
(0.00129639 -0.545508 0)
(0.00106061 -0.54734 0)
(0.000635866 -0.549928 0)
(0.000507803 -0.550444 0)
(0.000201626 -0.55177 0)
(0.000108724 -0.551415 0)
(-9.28615e-05 -0.551919 0)
(-6.35285e-05 -0.551288 0)
(-6.18725e-05 -0.55176 0)
(0.0209288 -0.166472 6.16672e-21)
(0.019333 -0.197261 -6.0466e-21)
(0.0201228 -0.231957 7.79638e-22)
(0.0195596 -0.273048 0)
(0.0189065 -0.322466 0)
(0.0174092 -0.379089 8.94668e-22)
(0.0148176 -0.436807 -3.836e-21)
(0.011265 -0.486527 3.78855e-21)
(0.00706032 -0.52125 1.03039e-21)
(0.00241007 -0.538599 -1.01452e-21)
(0.0209116 -0.172001 -7.25512e-21)
(0.0201946 -0.202452 0)
(0.0211703 -0.237163 5.26764e-21)
(0.0206593 -0.278319 -1.21388e-20)
(0.0200144 -0.327472 7.7777e-21)
(0.0183993 -0.383179 -8.21536e-22)
(0.0156726 -0.439335 1.8254e-21)
(0.0119582 -0.487359 3.84597e-21)
(0.00754216 -0.520767 1.08243e-21)
(0.00258474 -0.537518 1.05061e-21)
(0.0213051 -0.177716 8.48452e-21)
(0.0214816 -0.207985 -5.83135e-21)
(0.0225138 -0.242409 5.77618e-21)
(0.0220039 -0.2833 -6.42825e-21)
(0.0213074 -0.331959 4.75941e-21)
(0.019524 -0.386611 0)
(0.0166081 -0.441204 -1.82987e-21)
(0.0126732 -0.487652 9.52799e-23)
(0.00799556 -0.519932 -2.01805e-21)
(0.00272915 -0.536214 -2.06179e-21)
(0.0221257 -0.182761 -1.37328e-21)
(0.0231081 -0.2131 0)
(0.0241352 -0.247366 0)
(0.0235977 -0.288017 0)
(0.0228001 -0.336175 5.2867e-21)
(0.0208119 -0.389775 -3.53349e-21)
(0.0176621 -0.44285 -2.25147e-23)
(0.0134491 -0.487757 -2.15678e-21)
(0.00845729 -0.518909 -1.10577e-21)
(0.00286263 -0.534651 -1.18217e-21)
(0.0234519 -0.187248 1.24101e-22)
(0.0250379 -0.217511 -4.14655e-21)
(0.0259954 -0.25165 -3.1515e-21)
(0.0254084 -0.292129 3.14956e-21)
(0.0244726 -0.339846 -1.72952e-21)
(0.0222594 -0.392492 0)
(0.0188511 -0.444191 -2.01652e-21)
(0.0143226 -0.487673 4.40444e-21)
(0.00897503 -0.517738 -2.25319e-21)
(0.00301238 -0.532894 2.31494e-21)
(0.0253332 -0.191295 -1.10484e-20)
(0.0272961 -0.22127 1.2045e-21)
(0.0281056 -0.255164 -2.21781e-22)
(0.0274297 -0.295447 3.23545e-21)
(0.0263165 -0.342742 0)
(0.0238593 -0.394531 0)
(0.0201742 -0.44503 0)
(0.0153053 -0.487273 2.35874e-21)
(0.00957035 -0.516378 0)
(0.00319288 -0.530997 0)
(0.0277833 -0.194803 0)
(0.0299066 -0.224377 4.54523e-21)
(0.0304993 -0.257917 -3.07028e-21)
(0.0296808 -0.297942 -3.61916e-21)
(0.028346 -0.344798 3.63801e-21)
(0.0256185 -0.395803 2.1544e-21)
(0.0216316 -0.445263 -2.13871e-21)
(0.0163957 -0.486467 -8.42434e-21)
(0.0102429 -0.514783 5.9992e-22)
(0.00340626 -0.528965 -2.04871e-21)
(0.0308093 -0.197623 0)
(0.032877 -0.226748 -1.47848e-21)
(0.0332011 -0.259875 -8.32581e-22)
(0.0321826 -0.299614 0)
(0.0305829 -0.346024 1.0516e-21)
(0.0275543 -0.396316 -3.17651e-21)
(0.0232323 -0.444885 3.52267e-21)
(0.0175942 -0.485236 1.25463e-21)
(0.0109877 -0.512929 -1.37169e-21)
(0.00365051 -0.526782 2.71842e-21)
(0.0344222 -0.199637 1.34131e-21)
(0.0362109 -0.228302 1.60252e-21)
(0.036225 -0.260977 -3.57127e-22)
(0.0349473 -0.300437 4.73991e-22)
(0.0330451 -0.346422 1.00472e-21)
(0.0296832 -0.396096 1.67969e-21)
(0.0249882 -0.443925 -6.2982e-22)
(0.0189055 -0.483594 -6.79476e-22)
(0.0118027 -0.510814 1.37621e-21)
(0.00392442 -0.524431 7.45291e-22)
(0.0386328 -0.200746 -3.71619e-22)
(0.0399135 -0.228997 3.74967e-22)
(0.0395816 -0.261169 -4.28458e-22)
(0.0379815 -0.300385 -4.73388e-22)
(0.0357449 -0.345977 5.58753e-22)
(0.0320175 -0.395147 -1.13991e-21)
(0.0269117 -0.442397 9.6343e-22)
(0.0203392 -0.481555 3.43893e-22)
(0.0126924 -0.508439 0)
(0.0042295 -0.521902 -7.46951e-22)
(0.0434489 -0.200875 3.80898e-22)
(0.0439876 -0.228826 -3.84476e-22)
(0.0432823 -0.260419 -4.59799e-22)
(0.0412899 -0.29945 -5.1105e-22)
(0.0386922 -0.344682 -5.8279e-22)
(0.0345645 -0.393479 -3.94835e-23)
(0.0290101 -0.440315 3.39473e-22)
(0.0219006 -0.479133 1.09428e-21)
(0.0136591 -0.50581 0)
(0.00456673 -0.519192 -8.14659e-22)
(0.0488752 -0.199998 0)
(0.0484328 -0.227792 -1.76226e-21)
(0.0473357 -0.258741 3.19202e-21)
(0.0448738 -0.297637 5.11924e-22)
(0.0418969 -0.342537 1.18426e-21)
(0.0373322 -0.391083 1.93685e-21)
(0.0312955 -0.437663 -6.87572e-22)
(0.0236022 -0.476311 -7.42154e-22)
(0.014712 -0.502917 1.63971e-21)
(0.00493914 -0.516294 8.12756e-22)
(0.0549135 -0.198165 0)
(0.0532463 -0.225886 -1.73989e-21)
(0.0517485 -0.256175 -9.58718e-22)
(0.0487391 -0.294967 0)
(0.0453651 -0.339588 -3.72443e-21)
(0.0403233 -0.387996 1.24582e-21)
(0.0337674 -0.434484 1.47555e-21)
(0.0254391 -0.473123 4.75771e-21)
(0.0158459 -0.49976 -1.63439e-21)
(0.00534406 -0.513199 3.52609e-21)
(0.0615654 -0.195495 0)
(0.0584286 -0.223093 1.75476e-21)
(0.0565069 -0.252892 0)
(0.0528847 -0.291422 4.77006e-21)
(0.0491055 -0.335845 -4.79452e-21)
(0.0435512 -0.384187 -2.91203e-21)
(0.0364422 -0.430727 -6.28202e-23)
(0.0274376 -0.469515 -4.89479e-21)
(0.0170809 -0.496302 -8.15893e-22)
(0.00578571 -0.509879 -4.38585e-21)
(0.0688302 -0.192179 1.27916e-20)
(0.0639709 -0.219366 -4.8974e-21)
(0.0616231 -0.248869 5.02228e-22)
(0.0573498 -0.287003 -4.47072e-21)
(0.0531043 -0.331352 0)
(0.0470143 -0.379734 -3.03583e-21)
(0.0393077 -0.426485 -2.48495e-22)
(0.0295785 -0.465566 6.64759e-21)
(0.0183996 -0.49261 9.10336e-22)
(0.00625491 -0.50637 -9.138e-22)
(0.0765516 -0.188229 -1.216e-21)
(0.0699274 -0.214739 9.1193e-21)
(0.0670494 -0.244065 4.64968e-21)
(0.0621234 -0.281857 -4.6465e-21)
(0.0573714 -0.326101 -2.78401e-21)
(0.0507338 -0.374559 0)
(0.0424011 -0.421625 -6.78998e-21)
(0.0319076 -0.461154 3.40485e-21)
(0.0198416 -0.488606 3.63243e-21)
(0.0067697 -0.502618 3.89713e-21)
(0.0847161 -0.183607 -1.76021e-21)
(0.0762859 -0.209435 0)
(0.0727486 -0.238667 0)
(0.0671821 -0.276183 0)
(0.0618886 -0.320374 -3.20076e-21)
(0.0546667 -0.369031 5.97442e-21)
(0.045651 -0.416535 6.91594e-21)
(0.0343368 -0.456577 -1.08814e-20)
(0.0213344 -0.484451 1.94586e-21)
(0.00729307 -0.498714 -5.7881e-21)
(0.0931936 -0.178425 -2.71571e-21)
(0.0830408 -0.20336 8.94401e-21)
(0.0787202 -0.232521 -8.85861e-21)
(0.072556 -0.269626 1.12768e-20)
(0.066723 -0.313642 -1.41762e-20)
(0.0589326 -0.362438 0)
(0.0492327 -0.410476 -3.61442e-21)
(0.0370622 -0.451279 -1.47364e-22)
(0.0230342 -0.479833 -4.04283e-21)
(0.00789664 -0.494457 -4.11883e-21)
(0.101753 -0.17347 -1.87138e-21)
(0.0900559 -0.197327 0)
(0.0847817 -0.226685 -1.17773e-20)
(0.0780363 -0.26356 2.21281e-20)
(0.0716201 -0.307644 -8.55342e-21)
(0.0631999 -0.356725 -1.71318e-21)
(0.0527421 -0.405222 3.60664e-21)
(0.039675 -0.446477 -1.80528e-22)
(0.0246336 -0.475375 5.9018e-21)
(0.0084317 -0.490205 6.09526e-21)
(0.110794 -0.166257 -8.362e-21)
(0.0984156 -0.188425 8.19057e-21)
(0.0918094 -0.217806 1.25322e-21)
(0.0844129 -0.254186 0)
(0.0773715 -0.298123 0)
(0.0683564 -0.347609 1.67445e-21)
(0.0571414 -0.397199 7.64031e-21)
(0.0430762 -0.439867 -7.46945e-21)
(0.0267855 -0.46993 -2.04236e-21)
(0.00920136 -0.48525 2.00791e-21)
(0.122111 -0.167014 0)
(0.116435 -0.185367 0)
(0.106291 -0.215931 0)
(0.0973269 -0.251663 0)
(0.08872 -0.294617 0)
(0.0779501 -0.342417 0)
(0.0648165 -0.389977 0)
(0.048669 -0.430741 0)
(0.0301435 -0.459641 0)
(0.0101166 -0.474766 0)
(0.143366 -0.151863 0)
(0.147487 -0.175359 0)
(0.131687 -0.209115 0)
(0.122122 -0.244411 0)
(0.110737 -0.286476 0)
(0.0968478 -0.331808 0)
(0.0801902 -0.375927 0)
(0.0600892 -0.412974 0)
(0.0373284 -0.438436 0)
(0.013009 -0.450689 0)
(0.172876 -0.137233 0)
(0.180943 -0.162693 0)
(0.159133 -0.196218 0)
(0.149945 -0.230089 0)
(0.134687 -0.270695 0)
(0.11714 -0.312864 0)
(0.0962331 -0.353536 0)
(0.0715804 -0.387878 0)
(0.0440262 -0.412368 0)
(0.0144849 -0.42581 0)
(0.209707 -0.127042 0)
(0.219283 -0.152035 0)
(0.191485 -0.18419 0)
(0.183406 -0.216919 0)
(0.162797 -0.255842 0)
(0.141372 -0.294156 0)
(0.115447 -0.330924 0)
(0.0855359 -0.361152 0)
(0.0527804 -0.381529 0)
(0.0185716 -0.390469 0)
(0.253211 -0.113946 0)
(0.260949 -0.136747 0)
(0.227866 -0.166415 0)
(0.219808 -0.196578 0)
(0.191192 -0.23122 0)
(0.16535 -0.264012 0)
(0.132999 -0.296555 0)
(0.0974133 -0.323692 0)
(0.0590539 -0.343986 0)
(0.0185784 -0.356928 0)
(0.304398 -0.104484 0)
(0.308151 -0.124365 0)
(0.271003 -0.151965 0)
(0.260839 -0.178319 0)
(0.223089 -0.208366 0)
(0.194112 -0.23661 0)
(0.154572 -0.265597 0)
(0.112972 -0.288338 0)
(0.069036 -0.304008 0)
(0.0255049 -0.308414 0)
(0.357396 -0.0855231 0)
(0.352955 -0.101068 0)
(0.312887 -0.124097 0)
(0.29676 -0.144065 0)
(0.250172 -0.168276 0)
(0.217662 -0.19067 0)
(0.167342 -0.213812 0)
(0.119907 -0.232446 0)
(0.0696272 -0.250864 0)
(0.0178404 -0.269741 0)
(0.411788 -0.0722961 0)
(0.399338 -0.0833288 0)
(0.359905 -0.102183 0)
(0.335922 -0.116733 0)
(0.286147 -0.137234 0)
(0.248646 -0.15479 0)
(0.190593 -0.174819 0)
(0.139535 -0.192413 0)
(0.0833141 -0.209934 0)
(0.0390122 -0.208001 0)
(0.45266 -0.0392897 0)
(0.434112 -0.0444494 0)
(0.38521 -0.0557942 0)
(0.352816 -0.0627726 0)
(0.293186 -0.0751474 0)
(0.246151 -0.0833019 0)
(0.174696 -0.0948793 0)
(0.113656 -0.105013 0)
(0.0451051 -0.125759 0)
(-0.0280337 -0.175416 0)
(0.679845 -0.0199258 0)
(0.6563 -0.0231177 0)
(0.613059 -0.028014 0)
(0.576367 -0.0323638 0)
(0.520566 -0.0390549 0)
(0.46867 -0.0456771 0)
(0.396063 -0.0561436 0)
(0.320697 -0.0706793 0)
(0.220269 -0.0995212 0)
(0.155679 -0.156651 0)
(0.146602 -0.148315 8.6028e-21)
(0.170659 -0.132554 -8.47536e-21)
(0.200937 -0.11865 1.36481e-21)
(0.237467 -0.108894 0)
(0.28074 -0.0971804 0)
(0.329742 -0.0886942 2.05852e-21)
(0.381089 -0.072038 -9.82019e-21)
(0.431948 -0.0614267 9.70138e-21)
(0.479635 -0.0327266 2.7725e-21)
(0.701302 -0.0172704 -2.79909e-21)
(0.154394 -0.140362 -8.13059e-21)
(0.178193 -0.124378 0)
(0.207812 -0.111095 9.68198e-21)
(0.244426 -0.101668 -2.33586e-20)
(0.287807 -0.0905321 1.57165e-20)
(0.336661 -0.0824538 -1.90662e-21)
(0.387945 -0.0666618 4.1679e-21)
(0.438461 -0.0571074 9.37084e-21)
(0.489451 -0.0301283 2.57288e-21)
(0.709564 -0.016137 2.53556e-21)
(0.161174 -0.131568 9.41876e-21)
(0.184457 -0.115761 -9.20012e-21)
(0.213069 -0.103339 9.11309e-21)
(0.249535 -0.0944126 -1.24228e-20)
(0.2928 -0.0839214 9.01713e-21)
(0.341627 -0.0763657 0)
(0.392974 -0.0615324 -4.17803e-21)
(0.443747 -0.0531168 -7.51164e-23)
(0.497922 -0.0278081 -4.84933e-21)
(0.717156 -0.0150558 -5.07419e-21)
(0.168002 -0.122198 -1.61819e-21)
(0.19116 -0.106877 0)
(0.219233 -0.095423 0)
(0.255306 -0.0870903 0)
(0.298361 -0.0773085 1.02024e-20)
(0.347011 -0.0703899 -6.94426e-21)
(0.398255 -0.0566084 -2.61557e-22)
(0.449131 -0.0493609 -4.76745e-21)
(0.505847 -0.0257252 -2.43422e-21)
(0.724376 -0.0140555 -2.48166e-21)
(0.174291 -0.112449 1.512e-21)
(0.197497 -0.0979127 -5.1078e-21)
(0.225325 -0.0874465 -5.14981e-21)
(0.261114 -0.079757 5.14661e-21)
(0.304018 -0.0707546 -3.21233e-21)
(0.3526 -0.0645377 0)
(0.403718 -0.0518464 -4.0858e-21)
(0.454628 -0.0457423 9.11509e-21)
(0.513431 -0.0237983 -4.58781e-21)
(0.731245 -0.013128 4.96342e-21)
(0.179803 -0.102358 -1.21722e-20)
(0.202992 -0.0889 7.02486e-22)
(0.230537 -0.0794674 -7.79852e-22)
(0.266244 -0.0724663 5.04278e-21)
(0.309 -0.0643022 0)
(0.357662 -0.058853 0)
(0.40872 -0.0472516 0)
(0.459805 -0.0422421 4.36921e-21)
(0.52049 -0.0219839 0)
(0.737656 -0.0122619 0)
(0.184487 -0.0919482 0)
(0.207606 -0.0798159 6.0153e-21)
(0.234814 -0.0714774 -4.16309e-21)
(0.270442 -0.0652314 -5.7441e-21)
(0.313086 -0.0579513 5.77398e-21)
(0.361875 -0.0533293 3.71492e-21)
(0.412882 -0.0428295 -3.51091e-21)
(0.464415 -0.0388688 -1.50632e-20)
(0.52682 -0.020265 1.06738e-21)
(0.743535 -0.0114509 -3.57235e-21)
(0.188249 -0.0812532 0)
(0.211328 -0.0706498 -1.85817e-21)
(0.238232 -0.0634528 -1.10852e-21)
(0.273715 -0.0580362 0)
(0.316295 -0.0516885 1.73471e-21)
(0.365205 -0.047928 -5.00233e-21)
(0.416195 -0.0385754 5.93587e-21)
(0.468317 -0.0356262 2.27313e-21)
(0.532256 -0.0186312 -2.24949e-21)