/*--------------------------------*- C++ -*----------------------------------*\
  =========                 |
  \\      /  F ield         | OpenFOAM: The Open Source CFD Toolbox
   \\    /   O peration     | Website:  https://openfoam.org
    \\  /    A nd           | Version:  7
     \\/     M anipulation  |
\*---------------------------------------------------------------------------*/
FoamFile
{
    version     2.0;
    format      ascii;
    class       volVectorField;
    location    "17.7";
    object      U;
}
// * * * * * * * * * * * * * * * * * * * * * * * * * * * * * * * * * * * * * //

dimensions      [0 1 -1 0 0 0 0];

internalField   nonuniform List<vector> 
2000
(
(0.00417516 0.00865794 2.40507e-22)
(0.0278509 0.0646987 0)
(0.0721571 0.13673 0)
(0.119565 0.211626 4.33965e-23)
(0.161628 0.27934 3.74138e-22)
(0.193144 0.334155 3.2744e-22)
(0.212738 0.374494 -6.9145e-22)
(0.221749 0.401497 0)
(0.222367 0.417712 0)
(0.218854 0.425821 0)
(0.00315442 0.00212239 0)
(0.0196905 0.045527 3.09228e-22)
(0.053994 0.107684 -2.85087e-22)
(0.0935913 0.17756 3.78105e-23)
(0.132124 0.246116 0)
(0.164244 0.306571 1.17041e-21)
(0.187123 0.355235 -1.08833e-21)
(0.200484 0.391161 0)
(0.205183 0.415381 5.2487e-21)
(0.204837 0.430061 -1.09105e-20)
(0.00311005 -0.00308853 0)
(0.0146603 0.0288632 -2.23464e-21)
(0.0403502 0.0805443 0)
(0.0717556 0.142942 2.84788e-22)
(0.104763 0.208823 0)
(0.134924 0.271697 -2.41999e-21)
(0.158954 0.326747 0)
(0.175432 0.371239 6.8899e-21)
(0.183927 0.404379 -6.45291e-21)
(0.186872 0.427425 -8.15064e-21)
(0.00372168 -0.00708013 7.6107e-22)
(0.0120536 0.0148965 1.17938e-21)
(0.0307909 0.0562801 3.06407e-22)
(0.0545876 0.109743 1.21824e-22)
(0.0811374 0.169953 -3.75546e-22)
(0.107295 0.231606 1.04517e-21)
(0.130148 0.289887 1.27851e-21)
(0.147817 0.341088 -1.45367e-21)
(0.15905 0.382795 4.9623e-21)
(0.164575 0.415139 8.14504e-21)
(0.00468158 -0.0099588 7.52565e-22)
(0.0110844 0.00361244 4.33989e-22)
(0.0244596 0.0353797 -2.39674e-22)
(0.0418047 0.079397 3.16551e-23)
(0.0620128 0.131912 0)
(0.0831066 0.189079 0)
(0.102932 0.246909 -2.93976e-21)
(0.119718 0.301661 -3.94744e-21)
(0.13213 0.350064 3.73534e-21)
(0.138525 0.390841 1.749e-20)
(0.00569263 -0.0118257 -3.80167e-22)
(0.0109617 -0.005151 1.24957e-22)
(0.020284 0.0179082 -1.07792e-22)
(0.0324946 0.052641 1.64336e-21)
(0.0471806 0.0964567 -3.807e-22)
(0.0631744 0.146805 0)
(0.0790572 0.200824 0)
(0.0934249 0.25541 1.29137e-20)
(0.105552 0.307468 -1.64437e-20)
(0.110571 0.353781 5.20496e-21)
(0.00647237 -0.0127613 -1.80933e-21)
(0.0109669 -0.0116206 0)
(0.0171991 0.00366926 1.30757e-22)
(0.025465 0.0296331 -1.23135e-21)
(0.0357165 0.0645101 0)
(0.0472665 0.106726 1.48404e-21)
(0.0592237 0.154455 -4.42738e-21)
(0.0706111 0.205467 -8.65618e-21)
(0.0816394 0.257755 4.07415e-21)
(0.0834378 0.305039 6.51309e-21)
(0.00676562 -0.0128275 2.24822e-21)
(0.0105335 -0.0160322 -9.02552e-23)
(0.0143485 -0.00760964 -6.23233e-22)
(0.0196266 0.0102468 -2.04336e-21)
(0.0264836 0.036388 -1.24662e-21)
(0.0345013 0.0699285 -1.58492e-21)
(0.0431292 0.109817 -3.54023e-23)
(0.0518842 0.154673 0)
(0.061725 0.203955 0)
(0.0599748 0.248009 -2.27228e-21)
(0.00637503 -0.0121001 -4.3881e-22)
(0.00931145 -0.0185929 -7.53389e-22)
(0.0112343 -0.016124 6.14028e-22)
(0.0142927 -0.00560581 3.26384e-21)
(0.0186307 0.0122703 -1.04817e-21)
(0.0239772 0.0370735 1.21688e-21)
(0.0300308 0.0682435 1.61964e-21)
(0.0369337 0.105126 0)
(0.0461365 0.148257 0)
(0.0427183 0.184728 1.27286e-21)
(0.00520799 -0.0106937 -1.49343e-22)
(0.0072162 -0.0194708 1.09261e-21)
(0.00778268 -0.0219204 -3.12681e-22)
(0.00933102 -0.0177541 0)
(0.0119024 -0.00735262 0)
(0.0152653 0.00909057 3.09992e-21)
(0.0192825 0.031207 0)
(0.024637 0.0586589 -4.39361e-21)
(0.0335384 0.0914844 6.69754e-22)
(0.0352744 0.116295 3.26388e-21)
(0.195235 0.42996 7.83436e-22)
(0.152733 0.414774 -7.98635e-22)
(0.115169 0.399949 -1.08405e-21)
(0.0845409 0.387926 -1.21476e-21)
(0.0526797 0.377843 -1.35545e-21)
(0.0232231 0.371903 -5.00809e-24)
(-0.0103543 0.377812 6.89527e-22)
(-0.031776 0.416355 2.13256e-21)
(-0.0520794 0.519646 0)
(-0.00922544 0.698051 -1.47151e-21)
(0.188504 0.440847 1.80915e-21)
(0.147913 0.425837 -3.84599e-21)
(0.111578 0.409884 7.0394e-21)
(0.0820074 0.397532 1.21694e-21)
(0.050817 0.387362 2.53336e-21)
(0.0218021 0.381429 4.04028e-21)
(-0.0115468 0.386515 -1.39781e-21)
(-0.0334533 0.421608 -1.41615e-21)
(-0.0542056 0.517128 2.73391e-21)
(-0.0123105 0.687387 1.46804e-21)
(0.180101 0.449573 0)
(0.142788 0.436329 -3.1569e-21)
(0.108298 0.419794 -2.08521e-21)
(0.0798903 0.407077 0)
(0.0493817 0.396689 -7.6447e-21)
(0.0209087 0.39069 2.47294e-21)
(-0.0121441 0.394927 2.60545e-21)
(-0.0345314 0.426709 8.14779e-21)
(-0.0558526 0.514344 -2.72504e-21)
(-0.0155543 0.675734 5.69138e-21)
(0.169448 0.454417 0)
(0.136973 0.445072 3.18473e-21)
(0.105121 0.429096 0)
(0.078051 0.416232 9.22805e-21)
(0.0482987 0.40565 -9.27364e-21)
(0.0204917 0.399635 -5.15891e-21)
(-0.0121232 0.403012 -1.20768e-22)
(-0.0349174 0.431747 -8.04405e-21)
(-0.0568793 0.511527 -1.30796e-21)
(-0.0187942 0.663412 -7.02004e-21)
(0.155996 0.453834 4.69707e-21)
(0.130344 0.45259 -4.99268e-21)
(0.102155 0.438588 1.34866e-21)
(0.0764974 0.425334 -7.97253e-21)
(0.0475421 0.414381 0)
(0.0204863 0.408311 -5.01805e-21)
(-0.0115689 0.410826 -1.15217e-22)
(-0.034664 0.436601 1.04287e-20)
(-0.0572582 0.508721 1.32879e-21)
(-0.0218775 0.650374 -1.33375e-21)
(0.13982 0.444968 -1.08332e-20)
(0.12234 0.45575 1.0716e-20)
(0.0988545 0.446318 7.61594e-21)
(0.0749503 0.433434 -7.60771e-21)
(0.04702 0.422463 -4.42658e-21)
(0.0208857 0.416516 0)
(-0.0104246 0.418352 -9.88803e-21)
(-0.033616 0.441422 4.95878e-21)
(-0.0567436 0.50622 5.05137e-21)
(-0.0245342 0.637306 5.28651e-21)
(0.121192 0.428586 -9.20345e-22)
(0.113691 0.458536 0)
(0.0957439 0.454994 0)
(0.0735496 0.441814 0)
(0.0466953 0.430531 -4.58579e-21)
(0.0214673 0.424451 8.99607e-21)
(-0.00907013 0.42551 9.73939e-21)
(-0.0322228 0.445952 -1.46824e-20)
(-0.0556386 0.503701 2.52139e-21)
(-0.026652 0.623669 -7.73355e-21)
(0.101069 0.398762 3.43087e-21)
(0.102938 0.451982 1.11353e-20)
(0.0914415 0.458873 -1.10229e-20)
(0.0718451 0.447911 1.60569e-20)
(0.0465595 0.437371 -2.00301e-20)
(0.0225638 0.431638 0)
(-0.00686896 0.432335 -4.58137e-21)
(-0.0297035 0.450586 1.24126e-22)
(-0.0533026 0.502132 -4.70027e-21)
(-0.0279065 0.611195 -4.92752e-21)
(0.0809067 0.369037 -2.22338e-21)
(0.093483 0.451702 0)
(0.0876073 0.466229 -1.47702e-20)
(0.0701297 0.455787 2.86616e-20)
(0.0462185 0.445046 -1.11339e-20)
(0.0230175 0.438749 -2.13799e-21)
(-0.00562356 0.438532 4.57168e-21)
(-0.027969 0.454428 3.84962e-23)
(-0.0510636 0.499862 6.85836e-21)
(-0.0284337 0.597613 7.18209e-21)
(0.0595118 0.309442 -5.29344e-21)
(0.0793004 0.429279 5.12232e-21)
(0.0813928 0.462659 1.38691e-21)
(0.0681659 0.458831 0)
(0.0466535 0.450121 0)
(0.0253947 0.44486 2.06014e-21)
(-0.0015626 0.444882 8.54844e-21)
(-0.0233197 0.459408 -8.39029e-21)
(-0.0466563 0.499643 -2.17906e-21)
(-0.0280542 0.587846 2.12545e-21)
(0.0229512 0.276476 0)
(0.0563432 0.431023 0)
(0.0654745 0.477765 0)
(0.0594578 0.480048 0)
(0.0413086 0.469944 0)
(0.0196731 0.460259 0)
(-0.00624442 0.456159 0)
(-0.0247663 0.465127 0)
(-0.0413721 0.492469 0)
(-0.0244938 0.554212 0)
(0.00408983 0.258582 0)
(0.0318577 0.41551 0)
(0.0329943 0.465424 0)
(0.0328962 0.477757 0)
(0.0278225 0.481559 0)
(0.0209771 0.482844 0)
(0.00674504 0.484111 0)
(-0.00549799 0.492947 0)
(-0.0198337 0.511043 0)
(-0.0131702 0.545639 0)
(-0.00688354 0.254766 0)
(0.0242879 0.410245 0)
(0.024385 0.472282 0)
(0.0240072 0.488616 0)
(0.0162262 0.489056 0)
(0.00943317 0.486829 0)
(-0.000393647 0.484628 0)
(-0.00583443 0.487089 0)
(-0.0128626 0.494987 0)
(-0.00726553 0.512004 0)
(-0.0151632 0.260013 0)
(0.00634155 0.382173 0)
(0.01044 0.451616 0)
(0.017088 0.479449 0)
(0.0175219 0.490479 0)
(0.0186195 0.497293 0)
(0.014358 0.503639 0)
(0.010753 0.510907 0)
(0.00264167 0.519246 0)
(0.000246999 0.530549 0)
(-0.00482588 0.2961 0)
(0.00049344 0.384307 0)
(0.0133851 0.45999 0)
(0.0191232 0.486413 0)
(0.0137764 0.489169 0)
(0.0099451 0.487673 0)
(0.00464039 0.488915 0)
(0.00319176 0.493763 0)
(-0.00099153 0.50098 0)
(1.25107e-05 0.509608 0)
(0.0176854 0.325852 0)
(-0.0107474 0.361173 0)
(-0.00126823 0.428849 0)
(0.0180129 0.47414 0)
(0.0253681 0.495608 0)
(0.027827 0.506274 0)
(0.0225372 0.513235 0)
(0.0177751 0.520466 0)
(0.00843547 0.528594 0)
(0.00346927 0.536804 0)
(0.0663737 0.392836 0)
(0.0258597 0.409724 0)
(0.00765463 0.441814 0)
(0.00915185 0.467444 0)
(0.00952522 0.480709 0)
(0.0109026 0.488763 0)
(0.00693917 0.495446 0)
(0.00555901 0.502968 0)
(0.000423453 0.509692 0)
(0.000647386 0.515295 0)
(0.100891 0.403302 0)
(0.0598178 0.413672 0)
(0.0346426 0.43774 0)
(0.0344264 0.469358 0)
(0.0375081 0.494886 0)
(0.0403929 0.51222 0)
(0.0345593 0.52332 0)
(0.0273191 0.532795 0)
(0.0148004 0.539801 0)
(0.00540902 0.54363 0)
(0.14926 0.454146 0)
(0.120593 0.482619 0)
(0.0708638 0.475272 0)
(0.0369842 0.468103 0)
(0.0196839 0.472624 0)
(0.01714 0.487078 0)
(0.0155569 0.503169 0)
(0.0153744 0.517294 0)
(0.0101729 0.526508 0)
(0.00499799 0.529939 0)
(0.150177 0.38834 0)
(0.168349 0.481555 0)
(0.152324 0.517803 0)
(0.125402 0.522797 0)
(0.0965729 0.519137 0)
(0.0751344 0.521402 0)
(0.0565265 0.530937 0)
(0.0423116 0.543789 0)
(0.0260669 0.55532 0)
(0.0103596 0.562918 0)
(0.00695738 0.103935 4.829e-21)
(0.00801156 0.139863 -4.74887e-21)
(0.0140705 0.190267 7.90517e-22)
(0.0215467 0.238023 0)
(0.0376612 0.295397 0)
(0.0601681 0.336934 6.05461e-22)
(0.0916557 0.382423 -2.06123e-21)
(0.11172 0.374155 2.01787e-21)
(0.129515 0.377276 2.01582e-22)
(0.11634 0.28605 -1.95688e-22)
(0.0221165 0.0549222 -4.08896e-21)
(0.0257578 0.112087 0)
(0.0312976 0.181554 5.08228e-21)
(0.0384661 0.241907 -1.10824e-20)
(0.0527791 0.30193 6.4473e-21)
(0.0721431 0.340491 -5.93588e-22)
(0.0957337 0.371641 9.81116e-22)
(0.108617 0.351524 1.56646e-21)
(0.117094 0.339344 6.36258e-23)
(0.102849 0.24458 -8.14011e-23)
(0.0389412 0.0380743 5.25426e-21)
(0.0465573 0.113489 -5.82658e-21)
(0.0510515 0.192443 5.77097e-21)
(0.0555627 0.256237 -4.78765e-21)
(0.0660154 0.310559 3.55974e-21)
(0.0805367 0.339047 0)
(0.0959468 0.35345 -9.8338e-22)
(0.102064 0.321484 -7.01868e-23)
(0.102761 0.297036 -6.2175e-22)
(0.0887964 0.202669 -1.03207e-22)
(0.0618813 0.0526741 -1.11057e-21)
(0.0711662 0.138306 0)
(0.0711343 0.215935 0)
(0.0711922 0.273488 0)
(0.0762969 0.315143 2.77231e-21)
(0.084766 0.329399 -1.86737e-21)
(0.09208 0.32712 1.51543e-23)
(0.0920971 0.285077 -6.62993e-22)
(0.0869998 0.251695 -1.62008e-22)
(0.0747035 0.160966 9.2839e-23)
(0.089969 0.0906016 1.75402e-21)
(0.0958164 0.174532 -3.61528e-21)
(0.0887281 0.241478 -2.01169e-21)
(0.0829269 0.285531 2.01021e-21)
(0.0819784 0.310778 -8.91925e-22)
(0.0841445 0.309845 0)
(0.0842814 0.292894 -8.05453e-22)
(0.0793869 0.243562 1.28925e-21)
(0.0706734 0.204828 -5.96277e-22)
(0.0611162 0.120516 6.8533e-23)
(0.120347 0.137869 -7.04394e-21)
(0.116886 0.20922 1.11407e-21)
(0.101528 0.259465 3.70056e-22)
(0.0895063 0.286566 1.59012e-21)
(0.0827099 0.295019 0)
(0.0790741 0.280399 0)
(0.0733672 0.25197 0)
(0.0649732 0.198617 5.53329e-22)
(0.0546526 0.158041 0)
(0.0484744 0.0823726 0)
(0.148583 0.18129 0)
(0.132062 0.233049 2.17651e-21)
(0.108553 0.264084 -1.4765e-21)
(0.0908985 0.27419 -9.94865e-22)
(0.0790196 0.267863 9.99938e-22)
(0.0704523 0.242439 5.44434e-22)
(0.0603622 0.206202 -5.26011e-22)
(0.0499277 0.152148 -1.82886e-21)
(0.039703 0.112889 1.82583e-22)
(0.0371743 0.047469 3.05603e-23)
(0.170175 0.212132 0)
(0.140392 0.241455 -7.01369e-22)
(0.109969 0.253621 -1.36156e-22)
(0.087819 0.248922 0)
(0.0718458 0.231022 2.35933e-22)
(0.0593642 0.198157 -5.44415e-22)
(0.0463543 0.157774 7.53134e-22)
(0.0352712 0.106087 2.54216e-22)
(0.026411 0.0707242 -1.92058e-22)
(0.0275469 0.0165233 3.09833e-23)
(0.182607 0.225929 3.78417e-22)
(0.14216 0.233654 2.23813e-22)
(0.106736 0.229349 -7.70702e-23)
(0.0813529 0.213081 1.06716e-23)
(0.0622824 0.187098 1.32184e-22)
(0.0469392 0.150082 2.33245e-22)
(0.0324014 0.10893 -8.59689e-23)
(0.0219055 0.0622253 -8.91605e-23)
(0.0151354 0.0325516 1.92685e-22)
(0.0188972 -0.010057 7.77279e-24)
(0.185939 0.221966 -2.85309e-23)
(0.138498 0.211527 2.90795e-23)
(0.100168 0.194227 -1.29646e-23)
(0.0726696 0.169789 -1.0655e-23)
(0.0514143 0.13896 3.1321e-23)
(0.034256 0.100756 -9.14708e-23)
(0.0194378 0.0617606 1.25147e-22)
(0.010545 0.0220535 4.97452e-23)
(0.00620462 -0.00090493 0)
(0.0131025 -0.0323839 -7.78671e-24)
(0.18202 0.202674 -2.03374e-23)
(0.13091 0.178541 2.07122e-23)
(0.0915654 0.151842 7.2235e-23)
(0.0628434 0.122271 5.73286e-23)
(0.0402276 0.0893656 -6.58045e-24)
(0.0222747 0.0525122 -9.31389e-24)
(0.00818737 0.0180354 1.85441e-23)
(0.00157704 -0.0134069 9.40148e-23)
(-0.000164869 -0.0293994 0)
(0.00866074 -0.0511725 -1.25022e-23)
(0.17322 0.172159 0)
(0.120901 0.13857 3.44014e-22)
(0.0820017 0.105655 -6.19821e-22)
(0.0527709 0.0734496 -5.74115e-23)
(0.0295574 0.0407429 -8.5041e-23)
(0.0117396 0.00731869 1.59435e-23)
(-0.000865031 -0.0209304 -4.98205e-23)
(-0.00495147 -0.0436703 -6.23693e-23)
(-0.00417173 -0.0531429 1.09317e-22)
(0.00542635 -0.0671696 1.24696e-23)
(0.161548 0.134559 0)
(0.109749 0.0950933 4.77708e-22)
(0.0722805 0.0586289 2.01424e-22)
(0.043152 0.0257543 0)
(0.020007 -0.00492211 2.00778e-22)
(0.00298812 -0.0333607 -1.164e-22)
(-0.007452 -0.0544359 2.09832e-23)
(-0.00916688 -0.0688391 2.45246e-22)
(-0.00634562 -0.0727999 -1.0896e-22)
(0.00327062 -0.081113 5.17306e-23)
(0.148302 0.0932932 0)
(0.0985335 0.0509258 -4.81635e-22)
(0.0629649 0.0131187 0)
(0.0344327 -0.018927 -6.69611e-22)
(0.0120267 -0.0461405 6.73111e-22)
(-0.00349789 -0.0686699 2.81318e-24)
(-0.0115831 -0.0824115 -9.91827e-23)
(-0.0113543 -0.0894708 -2.26184e-22)
(-0.00720338 -0.0892771 -5.32215e-23)
(0.00191232 -0.0936882 -7.90186e-23)
(0.134182 0.0511005 -2.10049e-21)
(0.0880693 0.00817224 9.69942e-22)
(0.0544717 -0.0290951 8.84259e-23)
(0.027003 -0.059334 9.85315e-22)
(0.00593745 -0.0821061 0)
(-0.00759398 -0.0983375 3.23993e-23)
(-0.0135863 -0.105222 -1.16175e-22)
(-0.0119788 -0.106454 2.2122e-22)
(-0.00720709 -0.103531 2.3853e-23)
(0.0010815 -0.105474 -2.38469e-23)
(0.120206 0.0103584 9.59989e-22)
(0.0786753 -0.0316523 -1.90915e-21)
(0.047175 -0.0667622 -9.98694e-22)
(0.0211643 -0.0946701 9.982e-22)
(0.00173613 -0.112459 2.99411e-22)
(-0.00974723 -0.12264 0)
(-0.013916 -0.123718 -7.1682e-23)
(-0.0115465 -0.120817 3.93856e-23)
(-0.00673498 -0.116418 1.1046e-22)
(0.000579654 -0.116913 4.04253e-23)
(0.107206 -0.0271065 3.8184e-23)
(0.0705 -0.067757 0)
(0.0412724 -0.0992811 0)
(0.0168699 -0.124649 0)
(-0.000886856 -0.137364 1.38279e-22)
(-0.0102992 -0.142294 -4.37513e-22)
(-0.0130725 -0.138958 5.30218e-23)
(-0.0105096 -0.13354 -2.02361e-22)
(-0.00605606 -0.128608 3.50818e-23)
(0.00027708 -0.128313 -7.47426e-23)
(0.0955014 -0.0598473 -2.52372e-22)
(0.0638613 -0.100036 -1.82732e-21)
(0.0369038 -0.126469 1.81055e-21)
(0.0140432 -0.149402 -1.48047e-21)
(-0.00182858 -0.157401 1.76134e-21)
(-0.00967362 -0.158301 0)
(-0.0115338 -0.152017 1.51001e-23)
(-0.00921509 -0.145431 1.43478e-23)
(-0.00533471 -0.140562 -7.93376e-23)
(9.80036e-05 -0.139872 -3.15478e-23)
(0.0846484 -0.0865854 -7.96939e-23)
(0.0584064 -0.128929 0)
(0.0340681 -0.148566 1.9557e-21)
(0.012634 -0.169515 -3.12518e-21)
(-0.00153592 -0.173363 1.08911e-21)
(-0.00831473 -0.17159 7.0503e-23)
(-0.00967517 -0.163826 -1.50657e-23)
(-0.00788754 -0.157066 -4.96136e-24)
(-0.00465469 -0.152561 1.13779e-22)
(5.21655e-06 -0.151704 5.6102e-23)
(0.0757985 -0.105899 -9.70683e-23)
(0.0529569 -0.155215 9.44154e-23)
(0.0318182 -0.16629 -2.21424e-22)
(0.0117119 -0.185672 0)
(-0.000471409 -0.186123 0)
(-0.00659907 -0.183151 -7.2424e-23)
(-0.00776435 -0.175062 1.48717e-23)
(-0.00663113 -0.168785 -1.46027e-23)
(-0.00400649 -0.164747 -2.20668e-23)
(-9.71421e-06 -0.163872 2.16033e-23)
(0.0739238 -0.131321 0)
(0.0409822 -0.210322 0)
(0.0251724 -0.199962 0)
(0.00695282 -0.216981 0)
(0.00115676 -0.211045 0)
(-0.0034773 -0.208217 0)
(-0.00376232 -0.201768 0)
(-0.00391127 -0.197677 0)
(-0.00235178 -0.194592 0)
(9.88619e-05 -0.193622 0)
(0.033926 -0.239197 0)
(0.0230096 -0.277154 0)
(0.025485 -0.255953 0)
(0.00573696 -0.270542 0)
(0.00716559 -0.256778 0)
(-0.00026224 -0.260684 0)
(0.000837628 -0.253528 0)
(-0.00099281 -0.253333 0)
(-0.000133175 -0.249832 0)
(7.93804e-05 -0.249696 0)
(0.0432138 -0.282643 0)
(0.027313 -0.313174 0)
(0.021687 -0.303548 0)
(0.00811691 -0.316752 0)
(0.00901668 -0.305021 0)
(0.00182526 -0.311697 0)
(0.00450382 -0.303623 0)
(0.000229597 -0.307154 0)
(0.00147058 -0.302414 0)
(-9.69625e-05 -0.303697 0)
(0.0285778 -0.341576 0)
(0.0182264 -0.37269 0)
(0.0178753 -0.355794 0)
(0.0100025 -0.369772 0)
(0.00853375 -0.358404 0)
(0.00410483 -0.366359 0)
(0.00494342 -0.35938 0)
(0.00102934 -0.363895 0)
(0.00277368 -0.35825 0)
(-0.000583327 -0.361102 0)
(0.0260816 -0.402193 0)
(0.0188777 -0.433011 0)
(0.0160241 -0.414591 0)
(0.00941179 -0.433267 0)
(0.00804516 -0.419828 0)
(0.00498613 -0.431533 0)
(0.0046514 -0.423291 0)
(0.00213907 -0.428487 0)
(0.00248037 -0.422988 0)
(-0.000625625 -0.426325 0)
(0.0210876 -0.475299 0)
(0.0149017 -0.506887 0)
(0.0131867 -0.487428 0)
(0.00829219 -0.507661 0)
(0.00735865 -0.493564 0)
(0.00446881 -0.507706 0)
(0.00448765 -0.497041 0)
(0.00253099 -0.504887 0)
(0.00241827 -0.496781 0)
(-9.27092e-05 -0.501436 0)
(0.0160915 -0.568445 0)
(0.0118731 -0.599727 0)
(0.0101497 -0.579196 0)
(0.00677195 -0.601215 0)
(0.00620967 -0.586334 0)
(0.00442691 -0.60168 0)
(0.00431166 -0.590073 0)
(0.0029006 -0.599635 0)
(0.00212211 -0.589556 0)
(-1.51787e-05 -0.597246 0)
(0.0125577 -0.690086 0)
(0.00920051 -0.718134 0)
(0.00760096 -0.700188 0)
(0.00508658 -0.720945 0)
(0.00474183 -0.707723 0)
(0.0033021 -0.723564 0)
(0.00301687 -0.712393 0)
(0.0013944 -0.722649 0)
(0.000940178 -0.713089 0)
(-0.000225275 -0.722222 0)
(0.00686483 -0.829514 0)
(0.00470982 -0.846519 0)
(0.00374659 -0.837842 0)
(0.00236791 -0.852034 0)
(0.00232567 -0.844874 0)
(0.0013369 -0.855505 0)
(0.00091247 -0.847931 0)
(-0.000264257 -0.854787 0)
(-0.000251527 -0.84815 0)
(-0.000426673 -0.855189 0)
(0.00139217 -0.925872 0)
(0.000999837 -0.934416 0)
(0.000822462 -0.93361 0)
(0.000525445 -0.939916 0)
(0.000539194 -0.937984 0)
(0.00027026 -0.941939 0)
(-1.27512e-05 -0.938271 0)
(-0.000462408 -0.940575 0)
(-0.00037324 -0.937037 0)
(-0.000212666 -0.94009 0)
(0.0626554 -0.162596 3.42344e-21)
(0.0351608 -0.257965 -3.3916e-21)
(0.045804 -0.299246 5.49016e-22)
(0.0288655 -0.359811 0)
(0.0285226 -0.420463 0)
(0.0224797 -0.494264 7.57065e-22)
(0.0177653 -0.587083 -3.46116e-21)
(0.0133006 -0.704377 3.45292e-21)
(0.00799869 -0.836759 1.01082e-21)
(0.0023859 -0.924718 -1.00584e-21)
(0.0587486 -0.171597 -4.3428e-21)
(0.035946 -0.264439 0)
(0.0464826 -0.304366 3.87752e-21)
(0.0291272 -0.365143 -9.16659e-21)
(0.0295607 -0.425732 6.14216e-21)
(0.0230919 -0.499987 -6.82743e-22)
(0.0185336 -0.592556 1.64681e-21)
(0.0136712 -0.70871 3.5987e-21)
(0.00850413 -0.837895 1.08457e-21)
(0.00282438 -0.924379 1.09011e-21)
(0.0558041 -0.180951 5.90691e-21)
(0.036936 -0.272433 -4.4391e-21)
(0.0472091 -0.309739 4.39739e-21)
(0.0297674 -0.369885 -5.2729e-21)
(0.0307592 -0.430283 3.88026e-21)
(0.0238247 -0.504634 0)
(0.0193853 -0.596823 -1.65092e-21)
(0.0142047 -0.71204 1.46327e-22)
(0.00890268 -0.837919 -1.92082e-21)
(0.00304125 -0.92369 -2.06207e-21)
(0.0535443 -0.19035 -9.92212e-22)
(0.0381029 -0.280616 0)
(0.0481806 -0.315088 0)
(0.0308576 -0.374468 0)
(0.0321756 -0.434853 4.74772e-21)
(0.0247536 -0.508957 -3.17351e-21)
(0.020369 -0.600707 -3.4251e-23)
(0.0149065 -0.714904 -2.15422e-21)
(0.00927826 -0.837962 -1.12894e-21)
(0.00312006 -0.922413 -1.24458e-21)
(0.0519182 -0.198936 -1.60489e-22)
(0.0394467 -0.287668 -3.32505e-21)
(0.0493939 -0.319564 -2.61274e-21)
(0.0323522 -0.37838 2.61108e-21)
(0.033789 -0.43903 -1.55315e-21)
(0.0258947 -0.512839 0)
(0.021504 -0.604177 -1.93959e-21)
(0.0157441 -0.717377 4.44426e-21)
(0.00972947 -0.838139 -2.30381e-21)
(0.00319109 -0.920787 2.40188e-21)
(0.0509892 -0.20651 -9.64073e-21)
(0.0410424 -0.293423 1.02772e-21)
(0.0508525 -0.322858 -2.39862e-22)
(0.0342136 -0.381199 2.76488e-21)
(0.0355647 -0.442304 0)
(0.0272343 -0.515888 0)
(0.0227839 -0.606891 0)
(0.0166882 -0.719239 2.42866e-21)
(0.0103011 -0.838132 0)
(0.00332921 -0.918992 0)
(0.0507691 -0.212944 0)
(0.0429822 -0.298144 3.91172e-21)
(0.0526227 -0.325097 -2.63992e-21)
(0.0364562 -0.382852 -3.34431e-21)
(0.0375068 -0.444474 3.36175e-21)
(0.0287726 -0.517858 2.13901e-21)
(0.0242037 -0.608606 -2.11377e-21)
(0.0177234 -0.720296 -8.73247e-21)
(0.0109796 -0.837692 6.1613e-22)
(0.00353467 -0.917094 -2.25525e-21)
(0.0512428 -0.217962 0)
(0.0453288 -0.301957 -1.27504e-21)
(0.0547862 -0.326407 -7.46854e-22)
(0.0391154 -0.383402 0)
(0.0396561 -0.445524 1.03491e-21)
(0.0305351 -0.518684 -3.14392e-21)
(0.0257767 -0.609217 3.62333e-21)
(0.0188614 -0.720414 1.31648e-21)
(0.0117556 -0.836625 -1.49701e-21)
(0.00380143 -0.914978 2.977e-21)
(0.0524309 -0.221244 1.30545e-21)
(0.0481279 -0.304851 1.4299e-21)
(0.0574106 -0.326761 -3.03739e-22)
(0.0422144 -0.382879 4.50954e-22)
(0.0420624 -0.445456 9.85468e-22)
(0.0325526 -0.518394 1.69662e-21)
(0.0275252 -0.608748 -6.66891e-22)
(0.0201171 -0.719639 -7.34237e-22)
(0.0126092 -0.834981 1.50197e-21)
(0.00410128 -0.912631 8.41743e-22)
(0.0544084 -0.222449 -3.27443e-22)
(0.0514322 -0.306803 3.30143e-22)
(0.0605578 -0.326038 -3.93285e-22)
(0.0457571 -0.381276 -4.50408e-22)
(0.0447755 -0.44419 5.70613e-22)
(0.034855 -0.516983 -1.1651e-21)
(0.0294764 -0.607168 1.02688e-21)
(0.0215235 -0.717915 3.72185e-22)
(0.0135703 -0.832667 0)
(0.00445533 -0.909931 -8.43582e-22)
(0.0572955 -0.22121 3.33326e-22)
(0.0553123 -0.307843 -3.36222e-22)
(0.0642949 -0.324133 -4.41678e-22)
(0.049734 -0.378627 -5.03112e-22)
(0.0478381 -0.441675 -6.05791e-22)
(0.0374485 -0.514485 -5.3217e-23)
(0.0316469 -0.604525 3.71467e-22)
(0.0230822 -0.715392 1.21355e-21)
(0.0146185 -0.829878 0)
(0.00483351 -0.907004 -9.49469e-22)
(0.0612828 -0.21719 0)
(0.0598377 -0.307975 -1.62218e-21)
(0.0687051 -0.32106 3.01624e-21)
(0.0541231 -0.374944 5.04e-22)
(0.0513125 -0.437812 1.25033e-21)
(0.0403579 -0.510813 2.07327e-21)
(0.0340592 -0.600738 -7.5326e-22)
(0.0248313 -0.711857 -8.27408e-22)
(0.0158189 -0.82637 1.90565e-21)
(0.00528786 -0.903683 9.4721e-22)
(0.0667154 -0.210161 0)
(0.0650642 -0.30702 -1.46061e-21)
(0.0738854 -0.316979 -9.42349e-22)
(0.0589265 -0.370212 0)
(0.0552258 -0.4328 -3.98119e-21)
(0.0435558 -0.505994 1.33807e-21)
(0.0367174 -0.59601 1.66515e-21)
(0.0267393 -0.707592 5.43898e-21)
(0.0170941 -0.822517 -1.8995e-21)
(0.00574769 -0.900225 4.23593e-21)
(0.0742272 -0.200038 0)
(0.0710455 -0.304523 1.47323e-21)
(0.0799007 -0.312303 0)
(0.0641285 -0.364252 5.01259e-21)
(0.0596688 -0.426558 -5.03831e-21)
(0.0471165 -0.499792 -3.26464e-21)
(0.0396528 -0.590024 -9.67964e-23)
(0.0289027 -0.702076 -5.64037e-21)
(0.0185639 -0.817759 -9.34124e-22)
(0.00631449 -0.89626 -5.26662e-21)
(0.084823 -0.186991 1.06926e-20)
(0.0778096 -0.299871 -3.53124e-21)
(0.0868108 -0.307213 9.16542e-22)
(0.0698485 -0.357071 -4.60449e-21)
(0.0645897 -0.419176 0)
(0.0510002 -0.492707 -3.45393e-21)
(0.0428044 -0.583347 -3.71042e-22)
(0.0311946 -0.696199 7.74643e-21)
(0.0200448 -0.812934 1.10771e-21)
(0.00683868 -0.892298 -1.11165e-21)
(0.0995879 -0.171105 -7.37107e-22)
(0.0854921 -0.292579 7.31676e-21)
(0.0945538 -0.301259 4.85093e-21)
(0.0762054 -0.348773 -4.84755e-21)
(0.070014 -0.41046 -3.11956e-21)
(0.055316 -0.484246 0)
(0.0463286 -0.575065 -8.00326e-21)
(0.0338566 -0.688618 3.98957e-21)
(0.0218263 -0.806793 4.3851e-21)
(0.00753444 -0.887574 4.88683e-21)
(0.118778 -0.152782 -1.34312e-21)
(0.0941571 -0.282453 0)
(0.102928 -0.294726 0)
(0.0831387 -0.339996 0)
(0.0758341 -0.401238 -3.70297e-21)
(0.0598818 -0.475562 6.81056e-21)
(0.0499918 -0.566943 8.20866e-21)
(0.0365112 -0.681599 -1.31002e-20)
(0.0234851 -0.801224 2.43601e-21)
(0.00808943 -0.883158 -7.25303e-21)
(0.140717 -0.132951 -2.67391e-21)
(0.103828 -0.267924 8.39019e-21)
(0.111927 -0.286586 -8.30879e-21)
(0.0908752 -0.32977 1.25277e-20)
(0.0823377 -0.390125 -1.58556e-20)
(0.0651406 -0.464443 0)
(0.0542653 -0.555986 -4.35575e-21)
(0.03982 -0.671539 -2.39296e-22)
(0.0256821 -0.79342 -5.11931e-21)
(0.00895935 -0.877474 -5.31188e-21)
(0.161431 -0.112011 -1.39429e-21)
(0.113816 -0.252047 0)
(0.120524 -0.280214 -1.26391e-20)
(0.0988866 -0.320976 2.43702e-20)
(0.088811 -0.380905 -9.54696e-21)
(0.0702251 -0.455691 -2.02803e-21)
(0.0582884 -0.547988 4.34655e-21)
(0.0427045 -0.664552 -3.27791e-22)
(0.0274423 -0.787674 7.39367e-21)
(0.00947386 -0.872779 7.85424e-21)
(0.175442 -0.0877839 -6.6188e-21)
(0.126953 -0.22487 6.32638e-21)
(0.131206 -0.267354 1.30802e-21)
(0.108737 -0.307185 0)
(0.0970846 -0.36563 0)
(0.0770061 -0.440196 1.95654e-21)
(0.0637106 -0.532921 9.2789e-21)
(0.0470159 -0.650928 -8.98953e-21)
(0.030278 -0.777674 -2.56312e-21)
(0.0106388 -0.865773 2.50029e-21)
(0.180609 -0.0564426 0)
(0.166893 -0.210542 0)
(0.150464 -0.269189 0)
(0.131263 -0.301006 0)
(0.111888 -0.35901 0)
(0.0888623 -0.431748 0)
(0.0731311 -0.524006 0)
(0.0537097 -0.640443 0)
(0.0344068 -0.765848 0)
(0.0114117 -0.85447 0)
(0.234255 -0.0474303 0)
(0.232334 -0.183118 0)
(0.174761 -0.249274 0)
(0.170716 -0.27955 0)
(0.140388 -0.335615 0)
(0.112011 -0.414518 0)
(0.0937698 -0.508091 0)
(0.0701573 -0.622322 0)
(0.045219 -0.743021 0)
(0.0166885 -0.823846 0)
(0.293945 -0.00933543 0)
(0.282728 -0.139182 0)
(0.208949 -0.215406 0)
(0.203886 -0.253841 0)
(0.173195 -0.301574 0)
(0.141873 -0.386271 0)
(0.117595 -0.481897 0)
(0.0893533 -0.591756 0)
(0.056537 -0.71015 0)
(0.0173731 -0.793223 0)
(0.360267 0.0268355 0)
(0.339502 -0.0897725 0)
(0.262168 -0.17554 0)
(0.242051 -0.231176 0)
(0.213799 -0.275633 0)
(0.184022 -0.362044 0)
(0.151064 -0.46013 0)
(0.117612 -0.564774 0)
(0.0761385 -0.673027 0)
(0.0292279 -0.744023 0)
(0.42623 0.0582336 0)
(0.407499 -0.0380447 0)
(0.336568 -0.124199 0)
(0.298339 -0.194554 0)
(0.264823 -0.243344 0)
(0.233519 -0.324453 0)
(0.19064 -0.41766 0)
(0.146706 -0.517877 0)
(0.0917827 -0.619645 0)
(0.0282293 -0.690634 0)
(0.486065 0.0698275 0)
(0.478951 -0.0027532 0)
(0.426169 -0.079118 0)
(0.380885 -0.157762 0)
(0.338004 -0.219015 0)
(0.299242 -0.297955 0)
(0.248125 -0.383118 0)
(0.192715 -0.473697 0)
(0.123635 -0.560147 0)
(0.0465721 -0.616394 0)
(0.527269 0.0691514 0)
(0.538392 0.023721 0)
(0.511355 -0.0309308 0)
(0.471848 -0.100989 0)
(0.42133 -0.164723 0)
(0.368561 -0.238356 0)
(0.30326 -0.313324 0)
(0.229766 -0.391625 0)
(0.14306 -0.466784 0)
(0.0411153 -0.525104 0)
(0.554778 0.0341367 0)
(0.581376 0.00985088 0)
(0.577839 -0.0231376 0)
(0.559243 -0.0728505 0)
(0.514205 -0.127409 0)
(0.456694 -0.191243 0)
(0.379121 -0.255795 0)
(0.287522 -0.319222 0)
(0.184678 -0.377358 0)
(0.074727 -0.409211 0)
(0.569432 0.0177644 0)
(0.599558 0.00874332 0)
(0.59616 -0.00469003 0)
(0.592309 -0.0276789 0)
(0.549068 -0.057686 0)
(0.494648 -0.0948682 0)
(0.40475 -0.134673 0)
(0.297247 -0.175549 0)
(0.171434 -0.222238 0)
(0.0241072 -0.281659 0)
(0.790744 -0.0116234 0)
(0.798644 -0.0177224 0)
(0.784775 -0.0245667 0)
(0.769189 -0.0338736 0)
(0.724009 -0.0446028 0)
(0.665498 -0.0578238 0)
(0.571369 -0.0736502 0)
(0.455874 -0.0943138 0)
(0.309619 -0.125286 0)
(0.183211 -0.179548 0)
(0.223532 0.00843627 9.79835e-21)
(0.28805 0.0321361 -9.64076e-21)
(0.349427 0.0635471 1.96195e-21)
(0.405972 0.084505 0)
(0.455364 0.0977966 0)
(0.496047 0.0928339 3.7148e-21)
(0.521702 0.0779947 -1.77305e-20)
(0.538429 0.0370971 1.74289e-20)
(0.564142 0.0182175 4.8719e-21)
(0.792501 -0.00962502 -4.92295e-21)
(0.236806 0.0338106 -1.05927e-20)
(0.301364 0.0628049 0)
(0.36089 0.089612 1.51066e-20)
(0.413256 0.104467 -3.76996e-20)
(0.457065 0.110997 2.67343e-20)
(0.491824 0.0998699 -3.35324e-21)
(0.513903 0.080245 7.80503e-21)
(0.528807 0.0377795 1.71627e-20)
(0.560826 0.0182301 4.66579e-21)
(0.79219 -0.00876322 4.52304e-21)
(0.248645 0.059812 1.35065e-20)
(0.313506 0.0926211 -1.43835e-20)
(0.368 0.113136 1.42473e-20)
(0.414966 0.12166 -2.2417e-20)
(0.453339 0.121565 1.63054e-20)
(0.483196 0.104616 0)
(0.502481 0.0809271 -7.82451e-21)
(0.517729 0.0375947 1.06148e-22)
(0.556923 0.0179253 -8.87642e-21)
(0.791505 -0.00790943 -9.05062e-21)
(0.260075 0.0854661 -2.34012e-21)
(0.326899 0.120275 0)
(0.375676 0.133741 0)
(0.417038 0.136041 0)
(0.450063 0.129651 2.02777e-20)
(0.47534 0.107503 -1.3732e-20)
(0.491594 0.0804718 -2.70169e-22)
(0.50747 0.0367998 -9.08928e-21)
(0.553352 0.0173839 -4.56204e-21)
(0.791177 -0.00709844 -4.64345e-21)
(0.271063 0.110001 2.09501e-21)
(0.338809 0.144632 -8.88355e-21)
(0.381835 0.150948 -9.98988e-21)
(0.418298 0.147515 9.98492e-21)
(0.446608 0.135422 -6.45843e-21)
(0.467927 0.10892 0)
(0.481558 0.0793279 -8.22334e-21)
(0.498094 0.035736 1.78532e-20)
(0.550132 0.0167138 -8.99963e-21)
(0.791105 -0.00635583 9.29464e-21)
(0.281531 0.132933 -2.52033e-20)
(0.347734 0.165183 1.43276e-21)
(0.38456 0.164596 -1.86836e-21)
(0.416858 0.156083 1.04322e-20)
(0.44126 0.139055 0)
(0.459499 0.109122 0)
(0.471431 0.0777483 0)
(0.489005 0.0346009 8.99895e-21)
(0.546943 0.0159781 0)
(0.790983 -0.00569386 0)
(0.291143 0.153794 0)
(0.353581 0.181867 1.32094e-20)
(0.383844 0.174926 -9.03801e-21)
(0.412474 0.162 -1.28389e-20)
(0.433608 0.140851 1.29072e-20)
(0.449563 0.108357 8.13512e-21)
(0.460676 0.0758731 -7.97788e-21)
(0.479813 0.0334645 -3.1502e-20)
(0.543528 0.0152049 2.2598e-21)
(0.790605 -0.00511239 -7.11349e-21)
(0.299348 0.172175 0)
(0.356498 0.19484 -4.18423e-21)
(0.380428 0.182383 -2.65733e-21)
(0.405854 0.1657 0)
(0.424231 0.141222 3.90329e-21)
(0.438502 0.106921 -1.1578e-20)
(0.449391 0.0738325 1.29897e-20)
(0.470463 0.0323569 4.65927e-21)
(0.539778 0.0144134 -4.69297e-21)
(0.789908 -0.00460367 9.52143e-21)
(0.305634 0.187868 3.51816e-21)
(0.356591 0.204428 4.97171e-21)
(0.374934 0.187464 -9.79366e-22)
(0.397684 0.167661 1.62534e-21)
(0.413815 0.140597 3.59923e-21)
(0.426864 0.105108 6.05679e-21)
(0.437902 0.0717633 -2.19342e-21)
(0.461044 0.0313136 -2.31359e-21)
(0.535673 0.0136261 4.70846e-21)
(0.788929 -0.00415724 2.40107e-21)
(0.309624 0.200923 -1.09555e-21)