/*--------------------------------*- C++ -*----------------------------------*\
  =========                 |
  \\      /  F ield         | OpenFOAM: The Open Source CFD Toolbox
   \\    /   O peration     | Website:  https://openfoam.org
    \\  /    A nd           | Version:  7
     \\/     M anipulation  |
\*---------------------------------------------------------------------------*/
FoamFile
{
    version     2.0;
    format      ascii;
    class       volScalarField;
    location    "0.9";
    object      p;
}
// * * * * * * * * * * * * * * * * * * * * * * * * * * * * * * * * * * * * * //

dimensions      [0 2 -2 0 0 0 0];

internalField   nonuniform List<scalar> 
2000
(
0.582846
0.595773
0.604415
0.612401
0.61909
0.624536
0.629015
0.632787
0.636069
0.638942
0.579052
0.592799
0.60179
0.609985
0.616746
0.622151
0.626502
0.630077
0.633109
0.635668
0.574764
0.589431
0.598797
0.607234
0.614102
0.619498
0.623746
0.627138
0.629918
0.632122
0.570007
0.585669
0.595417
0.604114
0.611119
0.616539
0.620711
0.623941
0.626483
0.628306
0.564797
0.581511
0.591638
0.600605
0.607771
0.613245
0.617371
0.62047
0.622808
0.624254
0.559174
0.576981
0.587469
0.596706
0.604047
0.609599
0.61371
0.616713
0.618906
0.620019
0.553213
0.572125
0.582944
0.592435
0.599952
0.605595
0.609714
0.612658
0.614783
0.615665
0.547026
0.56702
0.578121
0.587834
0.59551
0.601238
0.605373
0.608293
0.610467
0.6113
0.540763
0.56177
0.57309
0.58297
0.590759
0.596531
0.600654
0.603582
0.606009
0.607168
0.534606
0.556507
0.56797
0.577945
0.585766
0.591478
0.595451
0.598219
0.600739
0.602433
0.644351
0.655537
0.662342
0.671351
0.675712
0.688975
0.681278
0.703633
0.689454
0.701729
0.640124
0.651799
0.658544
0.667628
0.672147
0.685461
0.678091
0.700469
0.68643
0.698704
0.635417
0.647731
0.654446
0.663647
0.668362
0.681787
0.674779
0.697246
0.68336
0.695674
0.630237
0.643327
0.650063
0.659415
0.664365
0.677945
0.671349
0.693945
0.680245
0.692643
0.624614
0.638584
0.645407
0.654937
0.660164
0.673923
0.667811
0.690542
0.677095
0.689575
0.618622
0.633504
0.640502
0.650225
0.655777
0.669711
0.664183
0.687008
0.673926
0.68644
0.612383
0.628048
0.635323
0.64526
0.651197
0.665285
0.660467
0.683312
0.670749
0.683225
0.605902
0.621869
0.629568
0.63981
0.646259
0.660526
0.656571
0.679376
0.667554
0.679887
0.599339
0.614751
0.623089
0.633749
0.640885
0.655322
0.652469
0.675078
0.664366
0.676373
0.595358
0.609809
0.618644
0.62922
0.636845
0.650607
0.649262
0.670706
0.661547
0.672854
0.599279
0.611794
0.620037
0.62807
0.635161
0.643915
0.646409
0.662153
0.656206
0.665523
0.572412
0.585567
0.595844
0.60609
0.615774
0.625414
0.630718
0.646693
0.642018
0.651654
0.539556
0.5535
0.564993
0.577347
0.589712
0.601602
0.609744
0.627231
0.624065
0.634537
0.499514
0.514627
0.527498
0.541877
0.55674
0.571104
0.582267
0.601235
0.600599
0.611901
0.451054
0.467943
0.482659
0.499177
0.516456
0.533354
0.547349
0.567603
0.569523
0.580615
0.392403
0.411424
0.428121
0.446756
0.466418
0.485961
0.502825
0.524858
0.530587
0.544358
0.323913
0.343902
0.361911
0.381964
0.403379
0.425078
0.444207
0.466735
0.473452
0.481749
0.239532
0.261823
0.280889
0.301355
0.323135
0.345774
0.366258
0.391126
0.404435
0.422235
0.153097
0.170083
0.186039
0.203046
0.221815
0.242327
0.261167
0.282037
0.285449
0.294621
0.03306
0.0535693
0.0663966
0.0778668
0.089401
0.102699
0.114863
0.133878
0.145129
0.158818
0.579683
0.55464
0.521238
0.480137
0.430908
0.371064
0.304192
0.215953
0.144129
0.00815761
0.573708
0.547574
0.513655
0.47201
0.42234
0.362091
0.295558
0.20632
0.139212
-0.00362686
0.567126
0.540278
0.506028
0.463941
0.413893
0.353407
0.287037
0.19718
0.133889
-0.0157498
0.560786
0.533584
0.4991
0.456592
0.406144
0.345442
0.278986
0.188647
0.128327
-0.0283697
0.555172
0.52764
0.492941
0.450026
0.399142
0.338221
0.271436
0.180721
0.122431
-0.0422578
0.55056
0.522582
0.487654
0.444343
0.392985
0.331819
0.264475
0.173494
0.115868
-0.0594658
0.547166
0.518569
0.483369
0.439657
0.387781
0.326318
0.258235
0.167189
0.108354
-0.0816777
0.54515
0.515745
0.480211
0.436061
0.383627
0.321793
0.252859
0.162065
0.100436
-0.102468
0.544621
0.514221
0.478283
0.43363
0.3806
0.318304
0.248454
0.158157
0.0935942
-0.101529
0.545633
0.514068
0.477657
0.432419
0.378756
0.315892
0.245077
0.155255
0.0883417
-0.0838422
0.54817
0.515316
0.478374
0.432457
0.378125
0.314577
0.242741
0.15314
0.0848638
-0.0708355
0.552122
0.518006
0.480451
0.433757
0.378724
0.314379
0.241422
0.151552
0.083351
-0.0622157
0.55736
0.522119
0.483887
0.436327
0.380567
0.315328
0.241059
0.150382
0.0817485
-0.0546691
0.563755
0.527577
0.488644
0.440154
0.383639
0.317405
0.241672
0.151389
0.0780779
-0.0479943
0.571109
0.534204
0.494574
0.445133
0.387836
0.320515
0.243241
0.152804
0.0747589
-0.0426155
0.579087
0.541647
0.501402
0.451054
0.392965
0.324515
0.245643
0.154527
0.072069
-0.0383399
0.58745
0.549781
0.509156
0.458042
0.399227
0.329685
0.249184
0.15693
0.0701742
-0.0349516
0.597058
0.559644
0.518937
0.467278
0.40785
0.33727
0.255017
0.161024
0.0694293
-0.0322082
0.609134
0.572062
0.531282
0.479281
0.419194
0.347485
0.263254
0.166886
0.0696098
-0.0295665
0.617632
0.580762
0.539524
0.487229
0.426211
0.35333
0.267521
0.169498
0.0680714
-0.0263818
0.617056
0.583783
0.542426
0.490146
0.427518
0.352817
0.265295
0.165881
0.061134
-0.0190888
0.627056
0.59449
0.553914
0.501321
0.436569
0.358091
0.265152
0.158496
0.0486253
-0.0176364
0.636601
0.606396
0.56725
0.515468
0.449715
0.367952
0.269074
0.154433
0.0413665
-0.0156875
0.647417
0.620817
0.584256
0.534228
0.468239
0.383215
0.27703
0.152327
0.0356209
-0.0139025
0.660178
0.637784
0.604965
0.557838
0.492634
0.404543
0.289488
0.152514
0.0318709
-0.0118411
0.674917
0.657116
0.628563
0.58528
0.52203
0.43154
0.306918
0.156777
0.0324404
-0.00852876
0.688975
0.673353
0.649616
0.612175
0.554448
0.466512
0.336587
0.174385
0.0433082
-0.00310128
0.690121
0.683387
0.669352
0.643713
0.599841
0.523912
0.393109
0.214334
0.0671907
0.006278
0.719198
0.715518
0.707867
0.692113
0.661546
0.597523
0.463294
0.265497
0.102241
0.0177057
0.710394
0.709234
0.704686
0.694529
0.673873
0.622538
0.498355
0.308363
0.142306
0.028415
0.658993
0.660409
0.665791
0.67155
0.679998
0.688187
0.703744
0.693348
0.72345
0.71049
0.669146
0.669262
0.674033
0.678458
0.685934
0.691877
0.707784
0.694379
0.724285
0.70999
0.674374
0.673372
0.677955
0.681749
0.68886
0.693564
0.708932
0.695328
0.723532
0.709214
0.67922
0.677117
0.681168
0.684281
0.690961
0.694685
0.709454
0.696032
0.722356
0.708462
0.683777
0.68101
0.684447
0.686833
0.692981
0.695742
0.710028
0.696486
0.721207
0.707711
0.687559
0.684414
0.687322
0.689078
0.694704
0.696564
0.710443
0.696662
0.720012
0.706885
0.690593
0.687168
0.689613
0.690843
0.695991
0.697037
0.710555
0.696554
0.718696
0.705962
0.693005
0.689375
0.691408
0.692185
0.69689
0.697196
0.710395
0.696198
0.71727
0.704952
0.694877
0.691123
0.692803
0.693184
0.697481
0.697102
0.710025
0.695637
0.715764
0.703863
0.696298
0.692478
0.693866
0.693894
0.697816
0.696795
0.709481
0.694898
0.714193
0.702691
0.697361
0.693512
0.694661
0.694363
0.697943
0.696311
0.70879
0.694003
0.712565
0.701432
0.698149
0.694282
0.695242
0.694636
0.697904
0.695683
0.707975
0.692976
0.710884
0.700083
0.69872
0.69482
0.695639
0.694742
0.697724
0.694941
0.707052
0.691834
0.709153
0.698643
0.699119
0.695149
0.695865
0.694692
0.697413
0.694106
0.70603
0.690594
0.707367
0.697111
0.699401
0.695299
0.695931
0.694498
0.696969
0.693195
0.704912
0.689269
0.705523
0.695483
0.699608
0.695307
0.695854
0.694179
0.696388
0.692223
0.703696
0.687871
0.703611
0.693758
0.699796
0.695273
0.695715
0.69381
0.695713
0.691226
0.702408
0.686417
0.701636
0.691937
0.700208
0.695492
0.695748
0.693595
0.695099
0.690302
0.701157
0.684964
0.699629
0.690057
0.700767
0.695888
0.695849
0.693481
0.694482
0.689423
0.699918
0.68354
0.697576
0.688148
0.699037
0.694464
0.694328
0.692129
0.692616
0.687987
0.697757
0.681838
0.695171
0.685996
0.688001
0.686315
0.685983
0.68489
0.684063
0.682516
0.689009
0.676183
0.688071
0.679693
0.686939
0.684408
0.682605
0.680202
0.677664
0.675721
0.681028
0.666027
0.678846
0.669192
0.688401
0.684899
0.681766
0.677924
0.673544
0.669866
0.673917
0.656022
0.668912
0.657831
0.686937
0.682602
0.678581
0.673839
0.668192
0.662863
0.666298
0.645411
0.657669
0.645172
0.685152
0.679709
0.674527
0.668675
0.661661
0.654188
0.657446
0.632946
0.644295
0.629968
0.683425
0.67706
0.670712
0.663617
0.655045
0.644677
0.647711
0.61893
0.628041
0.611304
0.681611
0.674558
0.6672
0.658896
0.648749
0.634975
0.636849
0.604978
0.606259
0.58834
0.679648
0.672364
0.664209
0.654736
0.642962
0.626355
0.624246
0.588891
0.583144
0.555624
0.678011
0.671041
0.662389
0.651871
0.638507
0.621689
0.610374
0.572104
0.558231
0.512321
0.677643
0.671568
0.663035
0.652319
0.638901
0.622595
0.601608
0.566466
0.534121
0.395777
0.688753
0.68803
0.690403
0.688962
0.688175
0.687191
0.686279
0.685323
0.685956
0.683105
0.688125
0.688664
0.691204
0.689817
0.6894
0.688663
0.688022
0.687237
0.688219
0.684641
0.68778
0.689185
0.691804
0.690677
0.690573
0.690062
0.689611
0.688874
0.689722
0.685831
0.688274
0.689729
0.692418
0.691675
0.691828
0.691527
0.691215
0.690504
0.691136
0.687242
0.689009
0.690318
0.69314
0.692813
0.693173
0.693066
0.692852
0.692159
0.692563
0.688886
0.689595
0.690886
0.693937
0.694039
0.694576
0.694648
0.694501
0.693823
0.693972
0.69066
0.689964
0.691444
0.694791
0.69532
0.696026
0.696262
0.696163
0.695522
0.695353
0.692523
0.69015
0.69204
0.695705
0.696644
0.69753
0.697912
0.697848
0.697254
0.696756
0.694477
0.690179
0.692701
0.69667
0.698
0.699089
0.6996
0.699595
0.698994
0.698214
0.696528
0.690008
0.693477
0.697665
0.699373
0.700699
0.701343
0.701364
0.700787
0.699758
0.698662
0.689748
0.694283
0.698634
0.700768
0.702342
0.703119
0.703188
0.702649
0.701397
0.700894
0.689416
0.695056
0.699584
0.702164
0.70401
0.704932
0.705069
0.704586
0.703135
0.703241
0.689007
0.695768
0.700485
0.70355
0.705686
0.706778
0.707008
0.706602
0.704982
0.705707
0.688516
0.69639
0.701302
0.704913
0.707355
0.708653
0.709004
0.708698
0.706945
0.70829
0.687948
0.696893
0.702015
0.706238
0.709004
0.710551
0.711056
0.710873
0.709023
0.710979
0.687328
0.697259
0.70262
0.707511
0.710623
0.712468
0.713162
0.713127
0.711216
0.713754
0.686676
0.697483
0.703113
0.708704
0.712196
0.714386
0.715314
0.715449
0.713505
0.716583
0.685877
0.697519
0.703437
0.709736
0.713669
0.716259
0.71748
0.717808
0.715819
0.719404
0.684602
0.697286
0.703541
0.710541
0.715012
0.718067
0.719655
0.720199
0.718132
0.72213
0.683511
0.697114
0.703887
0.71145
0.716491
0.720013
0.72203
0.722875
0.721066
0.724922
0.684794
0.697538
0.706343
0.714616
0.720846
0.725376
0.728543
0.730697
0.731828
0.733482
0.696516
0.706919
0.71437
0.72301
0.729841
0.735075
0.738959
0.741565
0.742881
0.742916
0.705385
0.715357
0.72249
0.731714
0.739306
0.745431
0.750179
0.753395
0.754814
0.75408
0.712813
0.723056
0.730724
0.740626
0.749237
0.756543
0.762475
0.766753
0.768864
0.767949
0.719646
0.731055
0.73969
0.750389
0.760258
0.769053
0.776517
0.782393
0.785812
0.784921
0.729246
0.740095
0.749871
0.762054
0.774536
0.786891
0.798086
0.805954
0.807479
0.806716
0.722922
0.735316
0.745959
0.758123
0.770485
0.782857
0.795158
0.809348
0.823343
0.832654
0.74394
0.757119
0.770261
0.785556
0.802862
0.822178
0.838333
0.854896
0.870475
0.883102
0.730872
0.744414
0.757627
0.772453
0.788978
0.808216
0.835826
0.860709
0.884541
0.944849
0.742593
0.756452
0.771002
0.787801
0.807709
0.831838
0.86207
0.902873
0.969423
1.11893
0.670244
0.680813
0.688765
0.69801
0.703356
0.718212
0.708145
0.734201
0.719192
0.732696
0.666287
0.676938
0.684666
0.694274
0.699145
0.714698
0.704227
0.73085
0.715337
0.729156
0.664804
0.676102
0.683623
0.693027
0.697529
0.712423
0.702373
0.728067
0.712479
0.726114
0.663187
0.674792
0.682193
0.691453
0.695716
0.710081
0.700416
0.725178
0.70972
0.723052
0.661284
0.67271
0.679999
0.689186
0.693316
0.707396
0.698018
0.722133
0.706852
0.719929
0.659248
0.670339
0.677519
0.686631
0.690691
0.704552
0.695445
0.719056
0.703965
0.716828
0.656986
0.667805
0.674898
0.68394
0.687986
0.701646
0.692811
0.715992
0.701102
0.713776
0.654402
0.665076
0.672098
0.681092
0.685172
0.698659
0.690098
0.712928
0.698241
0.710756
0.651455
0.662136
0.669087
0.678059
0.682205
0.695562
0.687276
0.709852
0.695354
0.707749
0.648116
0.658968
0.665845
0.674821
0.67906
0.692338
0.684337
0.706757
0.692428
0.704741
0.528789
0.551405
0.562926
0.57291
0.580661
0.58617
0.589758
0.591841
0.59289
0.59141
0.523691
0.546724
0.558177
0.568065
0.575652
0.580877
0.584044
0.585538
0.585775
0.583793
0.519537
0.542646
0.553921
0.563624
0.570971
0.575861
0.578598
0.579585
0.579285
0.577142
0.516595
0.539396
0.550391
0.559828
0.566869
0.571378
0.573673
0.574176
0.573378
0.570976
0.515146
0.537215
0.547829
0.556924
0.563597
0.567688
0.569529
0.569559
0.568267
0.565528
0.515445
0.536334
0.546468
0.555144
0.561392
0.565028
0.566401
0.565958
0.564162
0.561042
0.517703
0.536958
0.546514
0.554693
0.560455
0.5636
0.564487
0.563564
0.561258
0.557738
0.522088
0.539267
0.548138
0.555736
0.560947
0.563561
0.563942
0.562531
0.559717
0.5558
0.528687
0.543392
0.551463
0.558385
0.562975
0.565016
0.564871
0.56297
0.559663
0.555365
0.537272
0.549281
0.556491
0.562668
0.56658
0.568011
0.567324
0.564935
0.561161
0.556508
0.547184
0.556633
0.563078
0.568516
0.57173
0.572534
0.571299
0.568431
0.564221
0.55924
0.559518
0.56598
0.571455
0.576001
0.578422
0.57855
0.576752
0.573416
0.568814
0.563562
0.573785
0.577001
0.581389
0.584949
0.586518
0.585947
0.583586
0.5798
0.57486
0.569376
0.589556
0.589422
0.592653
0.595162
0.595844
0.594569
0.591659
0.587455
0.582239
0.576563
0.606463
0.603004
0.605005
0.606411
0.60619
0.604221
0.600791
0.596213
0.590799
0.584986
0.624147
0.617427
0.618154
0.618426
0.617303
0.614672
0.610767
0.605875
0.600355
0.594455
0.642192
0.632351
0.631781
0.630909
0.628906
0.625661
0.621343
0.616209
0.610674
0.604717
0.660176
0.64742
0.645554
0.643548
0.640703
0.636906
0.632254
0.626957
0.621467
0.615551
0.677686
0.662274
0.659141
0.656038
0.652406
0.648128
0.643231
0.637838
0.632396
0.62676
0.694328
0.676569
0.672231
0.668091
0.663738
0.659065
0.654043
0.648642
0.643192
0.6379
0.709785
0.690011
0.684551
0.679449
0.67445
0.669473
0.66448
0.65923
0.653635
0.651021
0.723954
0.702387
0.695866
0.68988
0.684301
0.679057
0.674094
0.669178
0.664244
0.662268
0.736381
0.713389
0.705944
0.699182
0.693093
0.687593
0.682588
0.67788
0.673421
0.671225
0.746816
0.722827
0.714625
0.707219
0.700698
0.694971
0.689896
0.685299
0.681129
0.678733
0.755133
0.730584
0.721808
0.713905
0.70705
0.701143
0.696009
0.69148
0.687482
0.684922
0.76128
0.7366
0.727446
0.719208
0.712131
0.706111
0.700951
0.696485
0.692612
0.689914
0.765271
0.740873
0.731543
0.72314
0.715967
0.709917
0.704782
0.700402
0.696654
0.693878
0.767184
0.743449
0.734145
0.725753
0.718615
0.71263
0.707586
0.703329
0.699728
0.696943
0.767151
0.74442
0.735337
0.727129
0.72016
0.71434
0.70946
0.705372
0.701946
0.699218
0.765389
0.743923
0.735238
0.727375
0.720708
0.715152
0.710509
0.706643
0.703425
0.700815
0.762233
0.742168
0.73401
0.726629
0.720379
0.715182
0.710848
0.707254
0.704285
0.70185
0.75773
0.739242
0.73175
0.724988
0.719272
0.714523
0.710569
0.707301
0.70462
0.702414
0.75213
0.735334
0.728623
0.722596
0.717511
0.71329
0.709777
0.70688
0.704519
0.70258
0.745679
0.730636
0.724787
0.719585
0.715212
0.711584
0.708563
0.706075
0.704059
0.702417
0.738593
0.725316
0.720386
0.716076
0.712478
0.709494
0.707006
0.704957
0.703308
0.701991
0.731069
0.71953
0.715552
0.71218
0.709402
0.707099
0.705173
0.703588
0.702321
0.701348
0.723283
0.71342
0.710406
0.707999
0.706068
0.70447
0.703124
0.702013
0.701125
0.700497
0.715389
0.707114
0.705057
0.703621
0.702548
0.701663
0.700901
0.700263
0.699735
0.699459
0.707514
0.700722
0.699598
0.699123
0.698903
0.698727
0.698539
0.698358
0.698206
0.698388
0.69977
0.694341
0.69411
0.694568
0.695181
0.695695
0.696055
0.696332
0.69673
0.697472
0.692209
0.688035
0.688647
0.69
0.691414
0.692583
0.693452
0.694194
0.695378
0.696483
0.684696
0.681794
0.683241
0.685457
0.687628
0.68939
0.690672
0.69158
0.692427
0.692808
0.677421
0.675731
0.677963
0.680993
0.683884
0.68622
0.687926
0.689069
0.689773
0.689909
0.670461
0.669903
0.672861
0.676655
0.680244
0.683164
0.685349
0.686863
0.687756
0.688127
0.663841
0.664339
0.667967
0.672479
0.676743
0.68026
0.682962
0.68492
0.686164
0.686957
0.657569
0.659066
0.663305
0.668486
0.673401
0.677513
0.68075
0.683183
0.684852
0.686109
0.651668
0.654096
0.65889
0.66469
0.670221
0.674914
0.678683
0.6816
0.68372
0.685426
0.646143
0.649432
0.654728
0.661093
0.667198
0.672442
0.676724
0.680114
0.68268
0.684796
0.640995
0.645067
0.650819
0.657688
0.664317
0.670074
0.674837
0.678675
0.681668
0.684146
0.636357
0.641057
0.647182
0.65448
0.661567
0.667785
0.67299
0.677245
0.680646
0.683489
0.632575
0.637594
0.643912
0.651503
0.658947
0.665554
0.67115
0.675787
0.67957
0.682761
0.62883
0.634264
0.640808
0.64867
0.656426
0.663369
0.669311
0.674296
0.678434
0.681939
0.62529
0.631158
0.637907
0.645988
0.653993
0.661214
0.667451
0.672747
0.677217
0.681022
0.622045
0.628314
0.635219
0.643455
0.651641
0.659076
0.665555
0.671125
0.675902
0.680005
0.619082
0.625715
0.632731
0.641061
0.649363
0.656948
0.663615
0.669415
0.674474
0.678874
0.616378
0.623337
0.630426
0.638798
0.647153
0.654826
0.661624
0.667605
0.672908
0.677607
0.613912
0.62116
0.628292
0.636658
0.645008
0.652707
0.659575
0.665678
0.67117
0.676159
0.611663
0.619166
0.626314
0.634631
0.642924
0.650587
0.657459
0.663614
0.669206
0.674418
0.609607
0.617334
0.624477
0.632711
0.640896
0.648462
0.655266
0.661378
0.666881
0.672047
0.607719
0.615644
0.622767
0.630889
0.638925
0.646342
0.653002
0.658954
0.664114
0.668705
0.60595
0.614062
0.621159
0.629152
0.637013
0.64425
0.650738
0.656576
0.661901
0.666087
0.604117
0.612499
0.619611
0.627485
0.635159
0.642196
0.648492
0.654167
0.659494
0.663783
0.602291
0.61098
0.618125
0.625884
0.633358
0.640173
0.646259
0.651732
0.656858
0.661126
0.600455
0.609481
0.616679
0.624335
0.631608
0.638187
0.644047
0.649301
0.654155
0.658243
0.598551
0.607957
0.615241
0.622819
0.629904
0.636247
0.641874
0.646907
0.6515
0.655408
0.596522
0.606364
0.613772
0.621309
0.628231
0.634355
0.639754
0.644567
0.648929
0.652701
0.594312
0.604655
0.612232
0.61977
0.626566
0.632495
0.637678
0.642276
0.646428
0.650078
0.591863
0.602779
0.610572
0.61816
0.624869
0.630631
0.635614
0.640002
0.64395
0.647465
0.589127
0.600684
0.608739
0.616425
0.623091
0.628718
0.633516
0.637697
0.641437
0.644785
0.586101
0.598345
0.606694
0.614518
0.621179
0.626702
0.631332
0.635308
0.638828
0.641965
)
;

boundaryField
{
    inlet
    {
        type            zeroGradient;
    }
    outlet
    {
        type            fixedValue;
        value           uniform 0;
    }
    cylinder
    {
        type            zeroGradient;
    }
    top
    {
        type            symmetryPlane;
    }
    bottom
    {
        type            symmetryPlane;
    }
    defaultFaces
    {
        type            empty;
    }
}


// ************************************************************************* //
