/*--------------------------------*- C++ -*----------------------------------*\
  =========                 |
  \\      /  F ield         | OpenFOAM: The Open Source CFD Toolbox
   \\    /   O peration     | Website:  https://openfoam.org
    \\  /    A nd           | Version:  7
     \\/     M anipulation  |
\*---------------------------------------------------------------------------*/
FoamFile
{
    version     2.0;
    format      ascii;
    class       volScalarField;
    location    "69.2";
    object      p;
}
// * * * * * * * * * * * * * * * * * * * * * * * * * * * * * * * * * * * * * //

dimensions      [0 2 -2 0 0 0 0];

internalField   nonuniform List<scalar> 
2000
(
0.012426
0.012551
0.0127807
0.0130511
0.013322
0.0135714
0.0137898
0.0139775
0.0141392
0.0142902
0.0125438
0.0126991
0.0129479
0.0132416
0.0135372
0.0138092
0.0140441
0.0142379
0.0143912
0.01451
0.0126233
0.0128235
0.0130923
0.0134093
0.0137283
0.0140214
0.0142722
0.0144737
0.0146237
0.014714
0.0126659
0.0129253
0.0132157
0.0135545
0.0138936
0.014204
0.0144676
0.0146758
0.0148256
0.0148916
0.0126778
0.0130079
0.013321
0.0136785
0.0140322
0.0143536
0.0146241
0.0148347
0.014985
0.0150305
0.012667
0.0130782
0.0134127
0.0137841
0.0141451
0.0144684
0.0147367
0.0149422
0.0150889
0.015117
0.0126448
0.0131433
0.0134966
0.0138755
0.0142344
0.0145486
0.0148033
0.0149927
0.0151278
0.0151387
0.0126255
0.013212
0.0135796
0.0139577
0.0143039
0.0145966
0.0148249
0.0149864
0.0150999
0.0150926
0.0126252
0.0132936
0.013669
0.0140369
0.0143585
0.014617
0.0148068
0.0149309
0.0150191
0.0149972
0.012661
0.0133979
0.0137729
0.0141197
0.0144044
0.0146155
0.0147545
0.0148323
0.0148913
0.0148677
0.0147405
0.016159
0.018185
0.0208127
0.0234842
0.0264288
0.0286578
0.031392
0.0320286
0.0336777
0.0148161
0.0159707
0.017646
0.0200111
0.0224643
0.0252233
0.0272986
0.0298668
0.0305748
0.0320334
0.0148512
0.0158108
0.0171242
0.0192335
0.0214825
0.0240702
0.0260074
0.0284481
0.0291634
0.0305076
0.0148336
0.0156744
0.0166227
0.0184861
0.0205416
0.0229679
0.0247865
0.0271151
0.0278132
0.0290989
0.014755
0.0155462
0.0161446
0.0177742
0.0196453
0.0219205
0.0236378
0.0258663
0.026551
0.0278039
0.0146131
0.0154004
0.0156919
0.0171005
0.0187938
0.0209244
0.0225482
0.0246819
0.0253608
0.0266032
0.0144157
0.015208
0.0152652
0.0164664
0.0179943
0.0199922
0.0215353
0.0235857
0.0242656
0.0254996
0.0141738
0.0149385
0.0148619
0.0158661
0.01723
0.0190914
0.0205552
0.0225202
0.0232095
0.0244674
0.0138874
0.0145561
0.0144617
0.0153228
0.0165596
0.0182986
0.0196959
0.0215736
0.022265
0.0235245
0.0136955
0.0141995
0.0140613
0.014728
0.0158138
0.017418
0.0187601
0.0205484
0.021293
0.0226142
0.0146113
0.0150742
0.0150543
0.0151846
0.0156748
0.016661
0.0176756
0.0189881
0.0196637
0.0206415
0.0120282
0.0125739
0.0129017
0.0132879
0.0138365
0.0146362
0.0154578
0.0164349
0.0169603
0.0175932
0.00992359
0.010533
0.0108979
0.0112479
0.0117433
0.0124461
0.013133
0.0139284
0.0143226
0.0147769
0.00774279
0.00849086
0.0090199
0.00940662
0.00983518
0.0104268
0.0109906
0.0116373
0.0119195
0.0122651
0.00557465
0.00642086
0.00715192
0.00768228
0.00811101
0.008608
0.00905954
0.0095782
0.00977682
0.0100456
0.00358444
0.00446171
0.00533101
0.0059946
0.00648588
0.00695479
0.00733316
0.00774487
0.00788083
0.00807457
0.00191964
0.0027667
0.00369474
0.00441156
0.00491799
0.00535333
0.00567637
0.00601214
0.00610876
0.00625215
0.000673949
0.00139078
0.00226861
0.00298132
0.00346651
0.00383971
0.00409248
0.0043557
0.00441117
0.00450497
-4.1055e-05
0.000476309
0.00116819
0.00172147
0.00207346
0.00232883
0.00248702
0.00267706
0.00268962
0.00275165
-0.000788389
-0.000240162
0.000274353
0.000618448
0.000782435
0.000877731
0.000909416
0.0010005
0.000958406
0.000967584
0.0138887
0.0114747
0.00936811
0.00718861
0.0050883
0.00317775
0.00160929
0.000427662
-0.000102304
-0.000879556
0.0134129
0.0110438
0.00894981
0.00680415
0.00476709
0.00292943
0.00144097
0.00032631
-0.000124481
-0.000825386
0.0128856
0.0106346
0.00856784
0.00646821
0.00449468
0.00272737
0.00131406
0.000272001
-0.000135557
-0.000717513
0.0124361
0.0103207
0.0082772
0.00622197
0.00430782
0.0026017
0.00125196
0.000269584
-0.000115962
-0.000591646
0.0120894
0.0100883
0.00806495
0.00604828
0.00418932
0.00254097
0.00124409
0.000309211
-6.91759e-05
-0.000465058
0.0118609
0.00993774
0.00792928
0.00594922
0.00413684
0.00253711
0.00128401
0.000384586
-8.48534e-07
-0.000344223
0.0117543
0.00987076
0.00787457
0.00592023
0.00414739
0.00258695
0.00136683
0.000490083
8.45231e-05
-0.00023231
0.01181
0.009884
0.00789661
0.00595756
0.00421594
0.00268504
0.00148652
0.00061962
0.00018268
-0.000131216
0.0119704
0.00997311
0.00798972
0.00605558
0.00433601
0.00282456
0.00163639
0.000767248
0.000289645
-4.12553e-05
0.0122199
0.0101302
0.00814551
0.0062066
0.00449983
0.0029981
0.00180973
0.000927576
0.000401993
3.84285e-05
0.0125351
0.0103411
0.00835131
0.00640014
0.00469791
0.0031976
0.00199984
0.00109584
0.000516919
0.000109114
0.0128974
0.0105939
0.00859682
0.00662818
0.00492268
0.00341674
0.00220148
0.00126845
0.000632423
0.000172083
0.0132941
0.0108817
0.00887504
0.0068857
0.0051688
0.00365099
0.00241085
0.00144297
0.000747249
0.000228604
0.0137132
0.0111983
0.00917845
0.00716756
0.00543125
0.00389633
0.00262495
0.00161766
0.000860652
0.000279772
0.0141445
0.0115394
0.00950064
0.00746949
0.005706
0.00414955
0.00284157
0.00179139
0.000972279
0.000326495
0.01458
0.0119025
0.00983597
0.00778761
0.00598986
0.00440804
0.00305916
0.00196344
0.00108204
0.000369541
0.0150076
0.0122827
0.0101781
0.0081173
0.00627985
0.00466946
0.00327652
0.00213335
0.00119004
0.000409616
0.01542
0.0126841
0.0105298
0.00846051
0.00657803
0.00493498
0.00349463
0.00230188
0.00129691
0.000447489
0.0158546
0.013155
0.0109226
0.00883881
0.00689989
0.00521426
0.00371928
0.00247216
0.00140423
0.000483485
0.0162076
0.0136286
0.0113076
0.00920925
0.00721812
0.00548603
0.00393814
0.00263679
0.00150895
0.000515283
0.0157613
0.0139309
0.0117516
0.00972651
0.00774832
0.00597306
0.00436726
0.00297339
0.00173348
0.00058903
0.015748
0.0139408
0.0118541
0.00994039
0.00802451
0.006292
0.00468132
0.00325302
0.00193598
0.00067708
0.0162375
0.0143806
0.0122554
0.0103463
0.0084084
0.00665311
0.00499494
0.00351478
0.00212602
0.000768933
0.0170104
0.0149804
0.0127588
0.0107968
0.00880572
0.00700486
0.00528904
0.00376011
0.00231566
0.000875033
0.0180835
0.0157807
0.013404
0.011326
0.00924431
0.00736764
0.00558365
0.00400804
0.00251874
0.000998462
0.0194044
0.0167713
0.0141947
0.0119412
0.00973753
0.00775688
0.00589666
0.00426714
0.00273154
0.00112335
0.0208426
0.0178704
0.0150747
0.0126115
0.0102699
0.00816897
0.00622815
0.00452707
0.00291792
0.0012016
0.0222189
0.0189202
0.0159125
0.0132495
0.0107832
0.00857193
0.00655216
0.00475336
0.0030315
0.00119931
0.0233079
0.0197458
0.0165693
0.013753
0.0111947
0.00890207
0.00681444
0.00491079
0.00306376
0.00113876
0.0239451
0.0201951
0.0169145
0.014019
0.0114191
0.00908824
0.00696257
0.00498975
0.00306059
0.00108425
0.0171117
0.0171585
0.017726
0.0186067
0.0198394
0.0213164
0.0229335
0.0245236
0.0258388
0.0266295
0.0174037
0.0176741
0.018374
0.0193754
0.0207285
0.0223047
0.0240047
0.0256505
0.0269958
0.0277861
0.0175093
0.0180496
0.018961
0.020164
0.0216981
0.023429
0.0252499
0.0269528
0.0282894
0.0290352
0.0176814
0.0184244
0.0195111
0.0209
0.0226017
0.0244889
0.0264505
0.0282526
0.0296331
0.0303851
0.0179254
0.0188717
0.0201114
0.0216586
0.0235013
0.0255243
0.0276184
0.0295371
0.031003
0.0318072
0.0181948
0.0193686
0.0207794
0.0224853
0.0244644
0.0266143
0.0288285
0.0308573
0.0324142
0.033282
0.0184825
0.0198907
0.0214971
0.0233749
0.0255027
0.0277875
0.0301213
0.0322514
0.0338874
0.0348079
0.0187998
0.0204368
0.0222541
0.0243121
0.0266019
0.0290348
0.0314967
0.0337276
0.0354324
0.0363917
0.0191543
0.0210109
0.0230505
0.0252895
0.0277504
0.0303412
0.0329407
0.035278
0.0370494
0.0380392
0.0195485
0.0216107
0.0238867
0.0263033
0.0289433
0.0316978
0.0344432
0.036894
0.0387352
0.0397526
0.0199853
0.0222282
0.0247601
0.0273478
0.0301775
0.0331001
0.0359994
0.0385714
0.0404874
0.0415323
0.0204617
0.0228527
0.0256633
0.0284132
0.0314464
0.0345426
0.0376058
0.0403076
0.0423052
0.0433788
0.0209613
0.0234769
0.0265792
0.0294912
0.0327409
0.0360212
0.03926
0.0421014
0.0441913
0.0452953
0.0214554
0.0241007
0.0274853
0.0305775
0.034048
0.0375296
0.040957
0.0439501
0.0461507
0.0472901
0.0218997
0.0247266
0.0283414
0.0316845
0.0353633
0.039064
0.0426943
0.0458533
0.0481737
0.0493562
0.0222666
0.0253497
0.0291674
0.0327574
0.0366623
0.0406023
0.0444555
0.0478
0.050253
0.0514901
0.0225593
0.0259332
0.0299443
0.0337805
0.0379347
0.042137
0.0462372
0.0497887
0.05239
0.0536958
0.0227417
0.0264541
0.0306421
0.0347352
0.0391511
0.0436359
0.0480098
0.0517986
0.0545754
0.0559709
0.022793
0.0269243
0.0312765
0.0356483
0.0403434
0.0451331
0.049801
0.0538469
0.0568184
0.0583263
0.0225652
0.0271911
0.0316911
0.0363318
0.0413049
0.0464271
0.0514476
0.0558301
0.0590704
0.0607421
0.0234055
0.0292057
0.0341194
0.0393159
0.0448197
0.0505136
0.0561118
0.0610668
0.0647909
0.0667892
0.0291056
0.0347099
0.0398956
0.0459134
0.052303
0.0589472
0.0654476
0.0711624
0.0754279
0.0776833
0.0353358
0.0412548
0.0470567
0.054
0.0613131
0.0689511
0.076312
0.0826815
0.0873747
0.089863
0.0419185
0.0484459
0.0551935
0.063206
0.0715541
0.0802648
0.0884419
0.0953784
0.100381
0.102942
0.0488815
0.0561904
0.0640308
0.0731775
0.0826314
0.0924366
0.101359
0.10878
0.113991
0.116704
0.056346
0.0644834
0.0735179
0.0838098
0.0943929
0.105256
0.114846
0.122652
0.127819
0.130157
0.0637462
0.0728497
0.0830037
0.0943284
0.105984
0.11775
0.127942
0.136044
0.140962
0.143243
0.0710829
0.0808343
0.0920225
0.104356
0.117088
0.129678
0.140592
0.149107
0.153503
0.153608
0.07579
0.0865055
0.0985463
0.111672
0.125244
0.138435
0.149959
0.158643
0.16205
0.164078
0.0800714
0.0910301
0.103664
0.117439
0.131809
0.145815
0.158843
0.169888
0.175288
0.15986
0.0215267
0.0269764
0.0324263
0.0385646
0.0448294
0.0519558
0.058615
0.0659276
0.069912
0.074166
0.0209738
0.0266028
0.0320297
0.0379931
0.0440193
0.050933
0.0572373
0.0643264
0.0678223
0.0719949
0.0207611
0.026657
0.0321366
0.0380288
0.0439354
0.0506276
0.0565958
0.0632429
0.0662697
0.0701442
0.0204426
0.0264601
0.0319037
0.0377627
0.0435698
0.0500825
0.0557836
0.0620687
0.0648713
0.0683814
0.0200741
0.0260982
0.031467
0.0372445
0.042951
0.0492657
0.0547399
0.0607444
0.0634845
0.0666818
0.0197028
0.0257018
0.0310234
0.0366851
0.0423112
0.0484073
0.0536917
0.0594174
0.0621564
0.0651001
0.0193254
0.025294
0.030605
0.0361779
0.0417251
0.0476107
0.0527985
0.0581943
0.0609763
0.063686
0.0189435
0.0248766
0.0301967
0.0357161
0.0411964
0.0469234
0.0520319
0.0571422
0.0599691
0.0624565
0.0185688
0.0244639
0.0298013
0.0352903
0.0407203
0.0463415
0.0513685
0.056276
0.0591212
0.0614203
0.0182158
0.0240721
0.0294341
0.0349094
0.0403059
0.0458592
0.0508147
0.0555824
0.0584224
0.0605887
0.0178989
0.0237126
0.0291084
0.0345872
0.0399678
0.0454802
0.0503864
0.0550523
0.05788
0.0599608
0.0176151
0.0233825
0.0288265
0.0343273
0.0397132
0.0452094
0.050094
0.0546852
0.0575048
0.0595298
0.0173493
0.0230729
0.0285837
0.0341266
0.0395421
0.0450504
0.0499417
0.0544845
0.0573042
0.059291
0.0170907
0.0227841
0.0283793
0.0339842
0.0394539
0.0450044
0.0499292
0.0544514
0.0572767
0.0592407
0.0168271
0.0225189
0.0282114
0.0338983
0.039448
0.0450719
0.0500568
0.0545873
0.0574223
0.0593805
0.0165378
0.0222751
0.0280726
0.0338623
0.039519
0.0452455
0.0503181
0.0548852
0.0577273
0.0597104
0.0161949
0.0220468
0.0279518
0.0338701
0.0396649
0.0455248
0.0507184
0.0553502
0.0581982
0.0602401
0.015768
0.0218163
0.0278255
0.0338974
0.0398577
0.0458779
0.0512285
0.0559549
0.0587972
0.0609711
0.015232
0.0215908
0.0277137
0.0339696
0.04013
0.0463437
0.0518869
0.0567337
0.0595685
0.0619213
0.0144389
0.0211685
0.0274267
0.0338877
0.0402684
0.0467086
0.0525102
0.0575555
0.0603915
0.0630756
0.015583
0.0224269
0.0286761
0.0353738
0.0421488
0.0489284
0.05513
0.0604636
0.0634009
0.0664132
0.0201937
0.0269756
0.0333612
0.0406277
0.0480795
0.0556261
0.0626217
0.0685205
0.0721246
0.0747472
0.0257995
0.0329268
0.0398741
0.0480143
0.0563938
0.0650194
0.0730475
0.079761
0.0840907
0.0865453
0.0318219
0.0395778
0.0474904
0.0568587
0.0665683
0.0767444
0.0862347
0.0942757
0.099777
0.102794
0.0380355
0.0466287
0.0557985
0.0666491
0.0780388
0.0902101
0.101708
0.111917
0.119552
0.124351
0.0444341
0.0539959
0.0646889
0.0771784
0.0905655
0.105133
0.119347
0.13301
0.144916
0.154091
0.0501341
0.0609521
0.0731565
0.0873101
0.102927
0.12019
0.138101
0.157159
0.176515
0.19542
0.0558744
0.0676306
0.0812828
0.0971612
0.115151
0.135469
0.158182
0.185309
0.218147
0.257554
0.0582892
0.0706682
0.0852092
0.1023
0.122476
0.146486
0.176095
0.215028
0.270024
0.346595
0.0613071
0.0752443
0.0912899
0.110495
0.134106
0.163657
0.202484
0.257509
0.344243
0.47078
0.0145359
0.0187175
0.0233096
0.028454
0.0335604
0.0394472
0.0441135
0.0496617
0.0517507
0.0536973
0.0141769
0.0183431
0.0227904
0.0276768
0.032422
0.038022
0.0422633
0.0476206
0.049422
0.0516335
0.0141123
0.0182351
0.022607
0.0273356
0.0318751
0.0371547
0.0410501
0.0460219
0.0474607
0.0503467
0.0141066
0.0180151
0.0221907
0.0267265
0.0310561
0.0360383
0.0396518
0.0442637
0.0454075
0.0485896
0.0141401
0.0177279
0.0216139
0.0259289
0.0299811
0.0346479
0.0379842
0.0423015
0.0431996
0.0462707
0.0142097
0.0174381
0.0210241
0.0250756
0.0288621
0.0331872
0.0362376
0.0402958
0.0409685
0.0437482
0.0143029
0.0171555
0.0204498
0.0241943
0.0277869
0.0317649
0.0345552
0.0383703
0.0388456
0.0413438
0.0144106
0.0168802
0.0198779
0.023326
0.0267039
0.0303799
0.0329822
0.0365427
0.0368905
0.0391814
0.0145255
0.0166177
0.0193055
0.0224734
0.0256156
0.0290113
0.031506
0.0347694
0.035117
0.0372342
0.0146389
0.0163754
0.0187392
0.0216344
0.0245375
0.0276903
0.0300672
0.0330331
0.0335197
0.035419
0.0127518
0.0135359
0.0139005
0.0142146
0.0144498
0.0146002
0.0146738
0.0146845
0.0146636
0.0145749
0.0129233
0.0137218
0.0140628
0.0143317
0.0145059
0.0145852
0.0145832
0.0145171
0.0144174
0.0142556
0.0131881
0.0139644
0.0142694
0.0144823
0.0145865
0.0145878
0.0145049
0.0143589
0.0141849
0.0139577
0.0135594
0.0142742
0.0145312
0.0146786
0.0147064
0.014626
0.0144609
0.0142356
0.0139884
0.0136949
0.0140482
0.0146604
0.0148581
0.0149322
0.0148795
0.0147167
0.0144711
0.0141698
0.0138512
0.0134899
0.0146599
0.0151298
0.0152579
0.0152524
0.0151167
0.0148728
0.0145505
0.0141783
0.0137933
0.0133757
0.0153938
0.0156851
0.0157344
0.015644
0.0154243
0.0151014
0.0147066
0.0142682
0.0138234
0.013395
0.0162422
0.0163239
0.0162859
0.0161064
0.0158024
0.0154028
0.014939
0.0144393
0.0139331
0.0133985
0.0171888
0.0170365
0.0169049
0.0166327
0.0162446
0.0157714
0.0152435
0.0146876
0.0141254
0.013533
0.0181995
0.0178046
0.0175751
0.0172089
0.0167382
0.0161953
0.0156086
0.0150022
0.0143919
0.0137614
0.0192224
0.0185969
0.0182732
0.0178154
0.0172657
0.0166576
0.0160178
0.0153671
0.0147171
0.0140592
0.0202692
0.0194037
0.0189813
0.0184316
0.017806
0.0171382
0.0164515
0.0157632
0.0150821
0.0144063
0.0212899
0.0201888
0.0196692
0.019032
0.0183366
0.017616
0.0168899
0.0161715
0.0154682
0.014784
0.0222368
0.0209164
0.0203068
0.0195903
0.0188342
0.0180699
0.0173131
0.0165733
0.0158573
0.015175
0.023068
0.0215527
0.0208648
0.0200812
0.0192764
0.0184799
0.017703
0.0169513
0.0162329
0.0155636
0.0237445
0.0220657
0.021316
0.0204817
0.0196435
0.0188285
0.0180436
0.0172909
0.0165808
0.0159362
0.0242322
0.0224273
0.0216368
0.0207727
0.0199193
0.0191016
0.0183226
0.0175806
0.016889
0.0162798
0.0245034
0.0226147
0.0218091
0.0209393
0.0200919
0.0192895
0.0185318
0.017813
0.0171472
0.0165786
0.0245389
0.0226119
0.0218203
0.0209726
0.0201546
0.0193869
0.0186666
0.0179812
0.0173395
0.0168099
0.0243286
0.0224106
0.0216643
0.020869
0.0201063
0.019395
0.0187288
0.0180854
0.0174645
0.0169766
0.0238703
0.0220092
0.0213404
0.0206293
0.0199512
0.0193252
0.0187496
0.0182115
0.0177311
0.0174413
0.0231623
0.0214101
0.0208517
0.0202554
0.0196876
0.0191672
0.0186954
0.0182657
0.0178965
0.0176749
0.022225
0.0206283
0.0202087
0.0197538
0.0193176
0.0189177
0.0185574
0.0182344
0.0179597
0.017778
0.0210856
0.0196843
0.0194266
0.0191355
0.0188498
0.0185853
0.018348
0.01814
0.0179682
0.0178546
0.0197769
0.0186038
0.0185253
0.0184164
0.0182977
0.0181829
0.0180811
0.0179984
0.0179398
0.0179175
0.0183373
0.0174167
0.0175288
0.0176157
0.0176774
0.0177247
0.0177695
0.0178214
0.017885
0.0179672
0.0168086
0.016156
0.0164633
0.0167545
0.0170067
0.017226
0.0174267
0.0176214
0.0178154
0.0180132
0.0152335
0.0148554
0.0153563
0.0158547
0.0163034
0.0167018
0.0170655
0.0174098
0.0177416
0.0180654
0.0136542
0.013547
0.0142342
0.0149374
0.0155844
0.0161659
0.0166973
0.017196
0.0176713
0.0181298
0.0121234
0.0122658
0.0131238
0.0140228
0.0148651
0.01563
0.0163313
0.0169871
0.0176094
0.0182096
0.0107143
0.0110579
0.0120581
0.0131335
0.0141614
0.0151055
0.0159753
0.0167884
0.0175586
0.0183046
0.00936236
0.0099097
0.011041
0.0122771
0.0134804
0.0145976
0.0156324
0.0166009
0.0175169
0.0184096
0.00811348
0.00885636
0.0100806
0.0114659
0.0128307
0.014111
0.0153044
0.0164236
0.0174799
0.0185134
0.006995
0.00790549
0.00920576
0.0107105
0.0122179
0.0136481
0.0149904
0.0162532
0.0174418
0.0186007
0.00601864
0.00706877
0.00842209
0.0100186
0.0116461
0.0132098
0.0146886
0.016085
0.0173969
0.0186618
0.00518986
0.0063526
0.00773358
0.00939394
0.0111174
0.0127959
0.0143969
0.0159145
0.0173353
0.0187061
0.00450974
0.00575856
0.0071431
0.00883895
0.0106327
0.0124053
0.0141133
0.0157406
0.0172578
0.0187085
0.00397514
0.00528465
0.00665109
0.00835467
0.0101918
0.0120366
0.0138351
0.0155617
0.0171653
0.0186688
0.00357956
0.00492617
0.00625572
0.00794066
0.00979402
0.0116879
0.0135601
0.0153796
0.0170746
0.0186166
0.0033145
0.00467664
0.00595338
0.00759523
0.00943749
0.0113557
0.013281
0.0151818
0.0169911
0.0186019
0.0031677
0.00452685
0.00573795
0.00731476
0.00911922
0.0110365
0.0129961
0.0149781
0.0170148
0.0190007
0.0031133
0.00446126
0.00560082
0.00709541
0.00883557
0.0107188
0.0126701
0.0146507
0.0166871
0.0186675
0.00315181
0.0044764
0.00553846
0.00693588
0.00858712
0.0104034
0.0123075
0.0142431
0.0162158
0.0181357
0.00327462
0.00456398
0.00554518
0.00683526
0.00837935
0.0101052
0.0119398
0.0138222
0.0157452
0.0176179
0.00346917
0.00471391
0.00561426
0.00679221
0.00821774
0.00983751
0.0115875
0.0134078
0.0152822
0.0171149
0.00372346
0.00491656
0.0057387
0.00680425
0.00810526
0.00960819
0.0112607
0.0130061
0.0148218
0.0166143
0.00402649
0.00516294
0.00591131
0.00686771
0.00804266
0.00942208
0.0109671
0.0126264
0.014373
0.0161206
0.00436805
0.0054444
0.00612463
0.00697782
0.00802905
0.00928227
0.0107131
0.0122777
0.0139464
0.0156427
0.00473903
0.00575282
0.006371
0.00712881
0.00806176
0.00918968
0.0105028
0.0119664
0.0135498
0.0151886
0.0051344
0.00608384
0.00664537
0.00731597
0.00813775
0.00914372
0.0103382
0.0116965
0.0131885
0.0147646
0.00555368
0.00643907
0.00694888
0.00754
0.00825804
0.00914648
0.0102226
0.0114723
0.0128674
0.0143754
0.0059726
0.00679648
0.00726148
0.00778348
0.00840874
0.00918807
0.01015
0.0112912
0.0125855
0.0140183
0.00639182
0.00715695
0.0075825
0.00804425
0.00858687
0.00926566
0.0101185
0.0111518
0.0123417
0.0136897
0.00681005
0.00751897
0.00790945
0.00831871
0.00878823
0.00937524
0.0101246
0.0110519
0.012134
0.0133864
0.00722465
0.00787963
0.00823875
0.0086025
0.00900802
0.00951229
0.0101648
0.0109888
0.0119604
0.013105
0.00763362
0.00823673
0.00856759
0.00889198
0.00924204
0.00967268
0.0102359
0.0109604
0.0118195
0.0128421
0.00803581
0.00858888
0.00889409
0.0091845
0.00948693
0.00985296
0.0103352
0.0109661
0.0117125
0.0125967
0.00843065
0.00893526
0.00921709
0.00947824
0.00974018
0.0100504
0.0104608
0.0110065
0.0116453
0.0123745
0.00881785
0.00927547
0.00953612
0.00977243
0.0100006
0.0102636
0.0106115
0.0110821
0.0116244
0.0121856
0.00919715
0.00960926
0.00985118
0.0100673
0.0102691
0.0104954
0.0107938
0.0112055
0.0116894
0.0121171
0.00956869
0.00993652
0.0101622
0.0103629
0.0105466
0.0107507
0.0110262
0.0114399
0.0120829
0.0129625
0.00993417
0.0102571
0.0104687
0.0106586
0.0108305
0.0110181
0.0112692
0.0116457
0.0122388
0.0130346
0.0102907
0.0105699
0.0107703
0.0109535
0.0111184
0.0112926
0.0115172
0.0118431
0.0123398
0.0129941
0.0106358
0.0108736
0.0110657
0.0112466
0.0114097
0.0115759
0.0117799
0.0120654
0.0124874
0.0130336
0.0109667
0.0111664
0.0113532
0.011536
0.0117026
0.011867
0.0120572
0.0123106
0.012671
0.0131309
0.0112801
0.011446
0.0116308
0.0118194
0.0119943
0.0121624
0.012345
0.0125722
0.012879
0.0132668
0.0115724
0.0117094
0.0118961
0.0120943
0.0122818
0.0124586
0.012639
0.0128465
0.0131083
0.0134348
0.0118387
0.0119545
0.0121463
0.0123577
0.0125616
0.0127516
0.0129352
0.0131294
0.0133548
0.0136285
0.0120744
0.0121788
0.0123789
0.0126066
0.0128303
0.0130372
0.0132288
0.0134157
0.0136129
0.0138408
0.0122732
0.0123792
0.0125911
0.0128385
0.0130845
0.0133115
0.013515
0.0137001
0.0138763
0.0140638
)
;

boundaryField
{
    inlet
    {
        type            zeroGradient;
    }
    outlet
    {
        type            fixedValue;
        value           uniform 0;
    }
    cylinder
    {
        type            zeroGradient;
    }
    top
    {
        type            symmetryPlane;
    }
    bottom
    {
        type            symmetryPlane;
    }
    defaultFaces
    {
        type            empty;
    }
}


// ************************************************************************* //
