/*--------------------------------*- C++ -*----------------------------------*\
  =========                 |
  \\      /  F ield         | OpenFOAM: The Open Source CFD Toolbox
   \\    /   O peration     | Website:  https://openfoam.org
    \\  /    A nd           | Version:  7
     \\/     M anipulation  |
\*---------------------------------------------------------------------------*/
FoamFile
{
    version     2.0;
    format      ascii;
    class       volScalarField;
    location    "37.6";
    object      p;
}
// * * * * * * * * * * * * * * * * * * * * * * * * * * * * * * * * * * * * * //

dimensions      [0 2 -2 0 0 0 0];

internalField   nonuniform List<scalar> 
2000
(
-0.0172734
-0.0162793
-0.0157604
-0.0154652
-0.0154943
-0.01584
-0.016426
-0.0171482
-0.0179013
-0.0185785
-0.0173895
-0.016413
-0.0158866
-0.0155707
-0.0155792
-0.0159197
-0.0165301
-0.0173173
-0.0181854
-0.019031
-0.0174952
-0.0165286
-0.0159819
-0.0156251
-0.0155863
-0.0158887
-0.0164858
-0.0172974
-0.018237
-0.0192119
-0.0175909
-0.0166196
-0.016039
-0.0156233
-0.0155148
-0.0157519
-0.0163035
-0.0171029
-0.0180734
-0.0191395
-0.0176736
-0.0166777
-0.0160506
-0.015562
-0.0153682
-0.0155211
-0.0160032
-0.016761
-0.0177269
-0.0188493
-0.0177369
-0.0166929
-0.0160081
-0.0154379
-0.0151514
-0.0152115
-0.0156113
-0.0163078
-0.0172406
-0.0183899
-0.0177702
-0.0166528
-0.0159015
-0.0152462
-0.0148686
-0.014839
-0.0151567
-0.0157852
-0.0166681
-0.0178212
-0.0177574
-0.0165424
-0.0157181
-0.0149801
-0.0145205
-0.0144142
-0.014663
-0.0152325
-0.0160664
-0.017217
-0.0176765
-0.0163446
-0.0154441
-0.0146303
-0.0141023
-0.0139352
-0.0141294
-0.0146523
-0.0154556
-0.0166469
-0.017501
-0.0160408
-0.0150649
-0.0141874
-0.0136071
-0.01339
-0.0135232
-0.0139637
-0.0146766
-0.0158781
-0.0196081
-0.0188858
-0.0154785
-0.009882
-0.00348258
0.00365385
0.0101523
0.0170483
0.0213452
0.0251331
-0.0204364
-0.0206097
-0.0179347
-0.0129088
-0.00696769
-0.000128111
0.00612864
0.0128981
0.0171785
0.020914
-0.0209848
-0.0220259
-0.0200763
-0.0156348
-0.0101402
-0.00359399
0.00244268
0.00908091
0.0133206
0.0170264
-0.0212713
-0.0231151
-0.0218764
-0.0180311
-0.0129741
-0.00672848
-0.000899183
0.00558655
0.00978581
0.0134729
-0.0213305
-0.0238729
-0.023322
-0.0200714
-0.0154418
-0.00949965
-0.00387126
0.00245269
0.00660908
0.0102766
-0.0212128
-0.0243116
-0.0244205
-0.0217578
-0.0175562
-0.0119273
-0.0065106
-0.000358502
0.0037471
0.00741214
-0.0209777
-0.0244659
-0.0251869
-0.023073
-0.0192831
-0.0139651
-0.00876786
-0.00278998
0.00124089
0.00489535
-0.0206895
-0.0243874
-0.0256743
-0.0240944
-0.0207264
-0.0157296
-0.0107658
-0.00496255
-0.00101536
0.00267121
-0.0204858
-0.0241412
-0.0258457
-0.0247096
-0.0217455
-0.0170792
-0.012368
-0.00675314
-0.00293787
0.000764662
-0.020343
-0.0238062
-0.0259702
-0.0253307
-0.0227912
-0.0184527
-0.0139634
-0.00850501
-0.00474651
-0.000942361
-0.015482
-0.0194892
-0.0228474
-0.0237392
-0.0225931
-0.019508
-0.0158105
-0.0111824
-0.00772492
-0.00430085
-0.0167485
-0.0183659
-0.020006
-0.0206525
-0.0200507
-0.018107
-0.0155692
-0.012412
-0.00971543
-0.00732764
-0.0157755
-0.0161519
-0.0166747
-0.016724
-0.0161001
-0.0147176
-0.0130709
-0.0111708
-0.00960234
-0.00813521
-0.0140067
-0.0132123
-0.012977
-0.0126376
-0.0119577
-0.0108748
-0.00975396
-0.00856956
-0.00789058
-0.00720146
-0.0118636
-0.0103107
-0.00950838
-0.00899355
-0.00839516
-0.00758446
-0.00686099
-0.00611543
-0.00577351
-0.00533908
-0.00934674
-0.0075441
-0.00654576
-0.0060002
-0.00551099
-0.00491595
-0.00445324
-0.004054
-0.00402807
-0.00372554
-0.00649814
-0.00484246
-0.00395148
-0.00356472
-0.00327334
-0.002901
-0.00261743
-0.00238353
-0.00258129
-0.00248616
-0.0038689
-0.00255754
-0.00191405
-0.00168948
-0.00157064
-0.00139411
-0.00128896
-0.00119833
-0.00148191
-0.00145915
-0.00167542
-0.000558695
-0.000408938
-0.000450371
-0.000496673
-0.000440579
-0.000417063
-0.000371415
-0.000682733
-0.000638554
-0.000169833
0.000278034
0.000362029
0.000261772
0.00015321
0.000104593
1.64985e-05
1.87003e-05
-0.000241033
-0.000174427
-0.0135143
-0.0148961
-0.0146675
-0.0137308
-0.0121358
-0.00987709
-0.00743289
-0.00460106
-0.0020623
-0.000491784
-0.0130493
-0.0145062
-0.0145254
-0.0138064
-0.0123126
-0.0100944
-0.00742763
-0.00482259
-0.00219759
-0.000603815
-0.0128622
-0.0143642
-0.0145391
-0.0139468
-0.0124911
-0.0102941
-0.00764498
-0.00487974
-0.00232991
-0.000696054
-0.0127759
-0.0142522
-0.0145593
-0.0140727
-0.0126447
-0.0104714
-0.0078074
-0.00504065
-0.0024606
-0.00077879
-0.0127003
-0.014122
-0.0145434
-0.0141589
-0.0127524
-0.0106091
-0.00793863
-0.00516752
-0.00258194
-0.000853008
-0.0125327
-0.0139218
-0.0144534
-0.0141772
-0.01279
-0.0106915
-0.00803437
-0.00527383
-0.00269278
-0.000919372
-0.0121904
-0.0135879
-0.0142453
-0.0140997
-0.0127311
-0.0107053
-0.00808531
-0.00535643
-0.00279086
-0.000981056
-0.0116249
-0.0130738
-0.0138859
-0.0139094
-0.0125529
-0.0106416
-0.00808492
-0.00541122
-0.00287128
-0.00103721
-0.0106897
-0.0124669
-0.0133645
-0.0135156
-0.012325
-0.0104967
-0.00803441
-0.00543349
-0.00294362
-0.00106015
-0.00951741
-0.0116573
-0.0126805
-0.0129961
-0.011974
-0.0102704
-0.00792964
-0.00542238
-0.00299454
-0.00105219
-0.00814708
-0.0106737
-0.0118496
-0.0123582
-0.0115156
-0.00996624
-0.00776974
-0.00537296
-0.00302019
-0.00103429
-0.00662019
-0.00955598
-0.0108981
-0.0116181
-0.0109693
-0.00959369
-0.00755972
-0.00528641
-0.00302021
-0.00100943
-0.00498104
-0.00833874
-0.00985684
-0.0107971
-0.0103563
-0.00916669
-0.00730913
-0.00516806
-0.00299647
-0.000978947
-0.00327228
-0.00705173
-0.00875653
-0.00991631
-0.00969646
-0.00869746
-0.00702484
-0.00502084
-0.0029498
-0.000944133
-0.00152961
-0.00571774
-0.00762437
-0.00899528
-0.00900619
-0.00819712
-0.0067134
-0.00484843
-0.00288204
-0.000906115
0.000214133
-0.00435532
-0.00648448
-0.00805108
-0.00829869
-0.00767545
-0.00638082
-0.00465494
-0.00279554
-0.000865667
0.0019214
-0.00298161
-0.00535556
-0.00709763
-0.0075842
-0.00714128
-0.00603251
-0.00444436
-0.00269268
-0.000823222
0.00359231
-0.00157938
-0.00423242
-0.00613868
-0.00686943
-0.00660474
-0.00567611
-0.00422225
-0.00257662
-0.000778892
0.00531559
-5.77375e-05
-0.00307368
-0.00515906
-0.00614751
-0.00606926
-0.00531872
-0.00399591
-0.0024512
-0.00073176
0.00677292
0.00145746
-0.00193293
-0.0041759
-0.00539388
-0.00549722
-0.00492655
-0.00374595
-0.0023047
-0.000678875
0.00790743
0.004028
0.000420895
-0.00195132
-0.00348719
-0.00398546
-0.00379687
-0.00299118
-0.00185609
-0.000556479
0.00980137
0.0062689
0.00294039
0.000619264
-0.0010781
-0.001904
-0.0021503
-0.00178576
-0.00107952
-0.000233388
0.0124744
0.00889687
0.0054921
0.00304222
0.00110008
-4.41955e-05
-0.000661724
-0.000648721
-0.000297302
0.000127179
0.0153349
0.0115571
0.00798874
0.00532098
0.00309616
0.00163051
0.000686658
0.000421383
0.000493956
0.000536052
0.0183906
0.01426
0.0104291
0.00746929
0.00492937
0.00314531
0.00191841
0.00144016
0.00130514
0.000998224
0.0216078
0.0170288
0.0128305
0.00949498
0.0066228
0.00453502
0.00307104
0.0024262
0.00213347
0.00149419
0.0249335
0.0197867
0.0151147
0.0113731
0.00820917
0.00584902
0.00418953
0.00337833
0.0029064
0.00190287
0.0279503
0.02192
0.0170938
0.013112
0.00970949
0.00710738
0.00526928
0.00421651
0.00340273
0.00196956
0.0305571
0.0249481
0.0194237
0.0147455
0.0109681
0.00815392
0.00613507
0.00473895
0.00344519
0.00166942
0.0328263
0.0253778
0.0196801
0.0151556
0.0115345
0.00875339
0.00664971
0.00499484
0.00336964
0.00141529
0.0109754
0.0127812
0.015291
0.0181516
0.0214026
0.0248766
0.0283822
0.0329108
0.0339146
0.0386507
0.0122009
0.0142994
0.0168941
0.0198668
0.0232668
0.0268955
0.0305802
0.0349487
0.0363873
0.0403658
0.0132312
0.0157576
0.0186469
0.0219404
0.0256321
0.0295361
0.033497
0.0374201
0.0396838
0.0418459
0.0141855
0.0169876
0.0201416
0.0237709
0.0277653
0.0319564
0.0361935
0.0400253
0.0428097
0.0440045
0.0151841
0.0182165
0.021576
0.0254712
0.029705
0.0341224
0.0385863
0.0425916
0.0456583
0.0468003
0.0162168
0.0195415
0.0231352
0.0272668
0.0316974
0.0362908
0.0409286
0.0451633
0.0484282
0.0499135
0.0172618
0.0209338
0.0248312
0.0292222
0.0338596
0.0386305
0.043427
0.0478583
0.0512981
0.0531284
0.0183289
0.0223659
0.0266191
0.0312984
0.0361765
0.0411593
0.0461384
0.050745
0.0543458
0.056391
0.0194376
0.0238376
0.0284775
0.0334542
0.0386024
0.0438303
0.0490304
0.0538241
0.0575773
0.059733
0.0206031
0.0253502
0.0304059
0.035673
0.041112
0.0466028
0.0520565
0.0570637
0.0609714
0.0631958
0.0218383
0.0268914
0.0324054
0.0379448
0.0436982
0.0494581
0.0551916
0.0604381
0.0645106
0.0668022
0.0231437
0.02843
0.0344634
0.0402496
0.0463531
0.0523853
0.0584238
0.0639317
0.0681853
0.0705552
0.0244858
0.0299353
0.0365464
0.042563
0.0490587
0.0553837
0.0617577
0.0675474
0.0720032
0.0744567
0.0258103
0.0313936
0.0386047
0.0448679
0.051788
0.0584529
0.065186
0.0712791
0.0759786
0.0785136
0.0270542
0.0328049
0.040585
0.0471612
0.0545083
0.061626
0.0687199
0.0751398
0.0800922
0.0827215
0.0281451
0.0341712
0.0424178
0.049473
0.0572323
0.0648001
0.0723008
0.0790898
0.0843214
0.0870701
0.0290135
0.0354824
0.0441851
0.0517293
0.0599179
0.0679569
0.0759287
0.0831348
0.0886775
0.0915738
0.0295533
0.0367629
0.0457589
0.0538013
0.0624497
0.0710021
0.0795074
0.0872023
0.093126
0.0962201
0.0297717
0.0380533
0.04718
0.0557672
0.0649075
0.0740225
0.0831038
0.0913359
0.0976919
0.101043
0.0293609
0.0387357
0.0480225
0.0571593
0.0667986
0.0765318
0.0863008
0.0952553
0.102245
0.105998
0.0308967
0.0425499
0.0522338
0.0623992
0.0730379
0.0840309
0.0951743
0.105582
0.113864
0.11851
0.0428271
0.0535855
0.0635065
0.0751084
0.0874059
0.100437
0.113802
0.126352
0.136367
0.141891
0.0551433
0.066287
0.0773144
0.090633
0.104794
0.120215
0.135981
0.15071
0.16239
0.168859
0.0673179
0.0794917
0.0924015
0.107833
0.12439
0.142748
0.16115
0.178214
0.191558
0.198779
0.0795446
0.0931998
0.108383
0.12624
0.145726
0.167401
0.188622
0.208194
0.223138
0.231323
0.0922969
0.107661
0.125336
0.145925
0.168762
0.193904
0.218051
0.240164
0.256397
0.264835
0.105172
0.12249
0.142712
0.166253
0.192558
0.220957
0.248068
0.272441
0.289405
0.298756
0.117957
0.13717
0.16
0.186503
0.2161
0.247404
0.277642
0.304046
0.321122
0.328634
0.127855
0.14873
0.173649
0.202438
0.234514
0.268094
0.301099
0.329259
0.346809
0.355016
0.134997
0.156855
0.183119
0.213408
0.247125
0.282512
0.31798
0.3496
0.371087
0.363496
0.0263458
0.0376178
0.0487328
0.0603434
0.0717585
0.0839843
0.0956576
0.107882
0.117098
0.123938
0.0255562
0.0371547
0.0479333
0.0592635
0.0703319
0.0822402
0.0933967
0.10526
0.113905
0.120462
0.0256047
0.0377904
0.0485565
0.0597695
0.0706292
0.0822105
0.0929458
0.104243
0.112076
0.118164
0.0251953
0.0376353
0.0484111
0.0596146
0.0703495
0.0816946
0.0921077
0.102926
0.110156
0.115816
0.0245327
0.0370439
0.0477308
0.0588491
0.0694181
0.0805091
0.0906045
0.10102
0.107852
0.113182
0.023839
0.0363777
0.0470506
0.0580309
0.0683977
0.0791869
0.0889328
0.0989536
0.105464
0.110526
0.023101
0.0356701
0.0464969
0.0573657
0.0675746
0.0780855
0.0874936
0.097153
0.103345
0.10817
0.0222942
0.0349437
0.0459846
0.0568188
0.0669546
0.0772645
0.0864075
0.0957748
0.101679
0.106287
0.0214379
0.0342457
0.0454888
0.0563402
0.0664886
0.0766686
0.0856587
0.0947719
0.100493
0.104893
0.0205661
0.0336053
0.0450542
0.0559606
0.0661531
0.0762501
0.0852304
0.0940375
0.0997559
0.103923
0.0197106
0.0330386
0.0447138
0.0557159
0.0659645
0.0760369
0.0850338
0.0936207
0.0993782
0.103336
0.0188544
0.0325144
0.0444555
0.055602
0.0659356
0.0760394
0.085057
0.0935372
0.0993162
0.103128
0.0179438
0.0319792
0.0442447
0.055593
0.0660613
0.0762556
0.0853207
0.0937835
0.0995753
0.103296
0.0169577
0.0314163
0.0440644
0.0556695
0.0663305
0.0766747
0.0858315
0.0943424
0.100159
0.103833
0.0158901
0.0308317
0.0439107
0.0558247
0.0667406
0.0772923
0.0865966
0.0952128
0.101077
0.104731
0.0147091
0.0302037
0.0437537
0.0560326
0.0672672
0.0780793
0.0875897
0.0963624
0.102306
0.105977
0.0133967
0.0295404
0.0435895
0.0562937
0.0679141
0.0790449
0.0888299
0.0978031
0.103858
0.107565
0.0118138
0.0287145
0.0433032
0.0565108
0.0685847
0.0800914
0.0902239
0.0994561
0.105682
0.109484
0.0101368
0.0279082
0.0430187
0.0567742
0.0693562
0.0812913
0.0918388
0.101371
0.107814
0.111737
0.00750116
0.0263078
0.0421116
0.0565353
0.0697105
0.0821621
0.0932593
0.103256
0.110102
0.114318
0.00620726
0.0254973
0.0422632
0.0579564
0.0724658
0.0860194
0.0983177
0.109171
0.116894
0.121489
0.0147396
0.0341047
0.0511632
0.067928
0.0837787
0.0988856
0.112957
0.12541
0.134367
0.139335
0.0263608
0.0467538
0.0646293
0.0827839
0.0999843
0.116955
0.133124
0.147557
0.157976
0.163442
0.0388186
0.060487
0.0799291
0.10005
0.119266
0.139148
0.158195
0.175435
0.188043
0.194398
0.0513498
0.0744595
0.0959364
0.118353
0.140479
0.164295
0.187158
0.20859
0.224658
0.23272
0.0637615
0.0883819
0.112343
0.137416
0.163402
0.191841
0.219684
0.246997
0.26856
0.280404
0.0753427
0.101787
0.128269
0.156365
0.186822
0.220346
0.25448
0.289353
0.319382
0.339463
0.0861822
0.114149
0.143296
0.174788
0.209952
0.248891
0.290602
0.335089
0.377945
0.41518
0.093159
0.122485
0.153812
0.188096
0.227194
0.271269
0.321211
0.377598
0.440339
0.509141
0.0970714
0.128836
0.162112
0.198891
0.241409
0.290507
0.348734
0.419581
0.510755
0.625436
-0.000756422
0.00637553
0.0152776
0.0254972
0.035911
0.0476455
0.0574793
0.0683613
0.075197
0.0771713
-0.00322059
0.00351024
0.0118033
0.0215808
0.0313821
0.0426673
0.0516909
0.0625036
0.068773
0.0716353
-0.00521073
0.00136177
0.00953096
0.0191891
0.0289621
0.0396692
0.0480617
0.0584261
0.0638239
0.0687021
-0.00734798
-0.00118615
0.00669337
0.0160662
0.0258275
0.0360947
0.044105
0.0539716
0.0587436
0.0647877
-0.00953059
-0.00398988
0.00336916
0.0122494
0.0215892
0.031598
0.0392868
0.0486755
0.0530384
0.0592388
-0.011646
-0.00679922
-3.80577e-05
0.00828228
0.0170271
0.0265316
0.0340841
0.0429117
0.046979
0.0527599
-0.0136459
-0.00953496
-0.00338165
0.00439746
0.0125839
0.0214563
0.0288892
0.0371425
0.041031
0.0462333
-0.0154845
-0.0121611
-0.00664008
0.000611176
0.00832563
0.0166204
0.0238731
0.0315935
0.03551
0.0401654
-0.0171143
-0.0146275
-0.00977979
-0.00306804
0.00421854
0.0120512
0.0190618
0.0263814
0.0304616
0.0346698
-0.0184972
-0.0168823
-0.0127444
-0.00658798
0.000266514
0.00772318
0.0144748
0.0215336
0.0257683
0.0296923
-0.0171969
-0.0156104
-0.0145664
-0.013645
-0.0130354
-0.0127833
-0.012846
-0.0131464
-0.0135932
-0.0139999
-0.0167113
-0.0150266
-0.0139338
-0.0129983
-0.0123943
-0.0121436
-0.0121812
-0.0124178
-0.0127682
-0.0131012
-0.016017
-0.0142736
-0.0131557
-0.0122413
-0.0116836
-0.0114789
-0.0115439
-0.0117842
-0.0121184
-0.0124614
-0.0150804
-0.0133308
-0.0122165
-0.0113611
-0.0108905
-0.0107741
-0.0109127
-0.0112071
-0.0115722
-0.0119471
-0.0138684
-0.012177
-0.0110982
-0.0103382
-0.00998994
-0.00999535
-0.0102415
-0.0106253
-0.0110576
-0.0114954
-0.0123543
-0.0107929
-0.00978247
-0.0091497
-0.00894981
-0.00909824
-0.00947146
-0.00996419
-0.0104863
-0.0110112
-0.0105213
-0.00916369
-0.00825411
-0.00777443
-0.00773942
-0.00804055
-0.0085476
-0.00915567
-0.00977834
-0.0104023
-0.00836445
-0.00728228
-0.00650521
-0.00619932
-0.00633819
-0.00679328
-0.00743205
-0.00815311
-0.00887749
-0.0095951
-0.00589717
-0.00515483
-0.00453947
-0.00442458
-0.00474187
-0.00534729
-0.00611062
-0.00693527
-0.00775222
-0.00857177
-0.00317224
-0.00281038
-0.00237801
-0.00246777
-0.00296347
-0.00371374
-0.00459297
-0.0055115
-0.00641187
-0.00731413
-0.000289143
-0.000298154
-6.39559e-05
-0.00036139
-0.00103379
-0.0019225
-0.00290878
-0.00391114
-0.00488299
-0.00585338
0.00279533
0.00236247
0.0023668
0.00184948
0.00100105
-1.93356e-05
-0.0011033
-0.00217849
-0.00320811
-0.00423337
0.00598211
0.00509719
0.00485233
0.00410971
0.0030894
0.00194553
0.000773715
-0.000363116
-0.00143646
-0.00250335
0.00917042
0.00782793
0.00732399
0.00635727
0.00517325
0.00391663
0.00266845
0.0014822
0.000379915
-0.000713889
0.0122629
0.0104736
0.00971029
0.00852831
0.00719392
0.00583885
0.00452825
0.00330629
0.00219088
0.00108758
0.0151609
0.0129513
0.0119405
0.0105613
0.00909596
0.00766094
0.00630471
0.00506227
0.00395048
0.00285785
0.0177686
0.0151817
0.0139489
0.0124007
0.0108305
0.00933856
0.00795665
0.00671042
0.00561811
0.00455537
0.0199987
0.0170934
0.0156786
0.0140002
0.0123582
0.010837
0.00945311
0.00822052
0.00715618
0.00613479
0.0217768
0.0186263
0.0170838
0.015325
0.0136511
0.0121323
0.0107705
0.00956031
0.00851263
0.0075421
0.0230441
0.0197341
0.0181315
0.016353
0.0146963
0.0132183
0.0119037
0.0107139
0.0096559
0.00877399
0.0237593
0.020385
0.0187994
0.0170725
0.015496
0.014123
0.01294
0.0119022
0.0110401
0.0106611
0.023894
0.0205575
0.0190718
0.0174691
0.0160307
0.0148056
0.0137804
0.0129091
0.0122158
0.0119579
0.0234411
0.0202485
0.0189451
0.0175357
0.0162871
0.0152448
0.0143958
0.0136968
0.0131511
0.0129445
0.0224189
0.019472
0.0184285
0.0172779
0.0162689
0.015447
0.0148033
0.014301
0.013929
0.0138142
0.0208668
0.0182578
0.017545
0.0167145
0.0159937
0.0154312
0.0150253
0.0147473
0.0145794
0.0146077
0.018843
0.0166504
0.0163299
0.0158755
0.0154888
0.0152237
0.0150869
0.0150593
0.0151204
0.0153294
0.0164208
0.014706
0.0148277
0.0147985
0.0147877
0.0148548
0.0150166
0.0152635
0.0155763
0.0159939
0.0136833
0.0124885
0.0130894
0.0135253
0.0139265
0.0143566
0.0148427
0.0153858
0.0159712
0.0166229
0.0107192
0.0100648
0.0111677
0.0120987
0.0129409
0.0137592
0.0145913
0.015449
0.0163254
0.0172349
0.00763634
0.00750728
0.00911633
0.01056
0.0118637
0.0130894
0.0142841
0.0154712
0.0166532
0.0178423
0.00457689
0.004906
0.00699547
0.00895164
0.0107267
0.0123712
0.0139396
0.0154659
0.0169636
0.0184502
0.00147933
0.00227128
0.00483375
0.0073003
0.0095507
0.0116198
0.0135679
0.0154384
0.0172557
0.0190521
-0.00156558
-0.000336825
0.00267212
0.0056335
0.00835414
0.0108465
0.0131741
0.015388
0.0175206
0.0196284
-0.00448288
-0.00286536
0.000546735
0.00397331
0.00714946
0.0100563
0.0127569
0.0153073
0.0177429
0.0201499
-0.0072294
-0.00527359
-0.0015157
0.00233653
0.00594443
0.00924973
0.0123108
0.0151859
0.017905
0.020584
-0.00976729
-0.00751981
-0.00350636
0.000735589
0.00474336
0.00842385
0.0118276
0.0150122
0.0179914
0.0208969
-0.0120745
-0.00959088
-0.0053909
-0.00082185
0.00354795
0.00757426
0.0112981
0.014777
0.0179994
0.0210643
-0.0141366
-0.0114778
-0.00715064
-0.00232289
0.002356
0.00669537
0.0107115
0.0144672
0.0179384
0.0210786
-0.0159454
-0.0131675
-0.00878048
-0.00376475
0.00116955
0.00578281
0.010062
0.0140694
0.0178471
0.0210403
-0.0174985
-0.0146519
-0.0102736
-0.00514367
-1.3762e-05
0.00482771
0.00933785
0.0135788
0.0175896
0.0211557
-0.0188037
-0.0159309
-0.0116253
-0.00645593
-0.00119545
0.00382404
0.0085267
0.0129678
0.0173263
0.0216846
-0.0199001
-0.0170189
-0.0128352
-0.00769758
-0.0023769
0.00275463
0.00757871
0.0121001
0.0164544
0.0207036
-0.0207704
-0.0179097
-0.0138968
-0.00886006
-0.00354973
0.00162798
0.00651416
0.0110735
0.0153941
0.019509
-0.0214192
-0.0186081
-0.0148066
-0.00993205
-0.00469473
0.000477402
0.00539418
0.00999996
0.0143593
0.0184576
-0.0218634
-0.0191253
-0.0155642
-0.0109022
-0.00579215
-0.000669204
0.00425146
0.00889517
0.0133064
0.0174299
-0.0221218
-0.0194751
-0.0161718
-0.0117619
-0.00682716
-0.00179566
0.00309738
0.00775452
0.0121984
0.016359
-0.0222139
-0.0196728
-0.0166349
-0.0125063
-0.00778841
-0.00288917
0.00194337
0.00658889
0.0110463
0.0152435
-0.0221607
-0.0197361
-0.0169619
-0.0131333
-0.00866659
-0.00393713
0.000802964
0.00541321
0.009867
0.0140936
-0.0219832
-0.0196841
-0.0171647
-0.0136446
-0.00945491
-0.00492827
-0.000311499
0.00423949
0.0086728
0.0129205
-0.0216921
-0.0195299
-0.0172542
-0.0140438
-0.0101499
-0.00585494
-0.00139121
0.00307608
0.00747203
0.0117341
-0.0212796
-0.0192687
-0.0172265
-0.0143245
-0.0107413
-0.00670488
-0.00242462
0.0019324
0.00627165
0.0105397
-0.0208352
-0.0189634
-0.0171267
-0.0145141
-0.0112412
-0.00748011
-0.00340905
0.000811397
0.00507115
0.00932801
-0.0203599
-0.0186186
-0.0169633
-0.0146203
-0.0116534
-0.00818036
-0.00434292
-0.000287181
0.00386521
0.00808103
-0.0198621
-0.0182435
-0.0167485
-0.0146544
-0.0119854
-0.00880905
-0.0052276
-0.00136553
0.00264861
0.00678733
-0.019358
-0.017853
-0.0164974
-0.0146301
-0.0122466
-0.00937088
-0.00606449
-0.00242455
0.00141837
0.00543952
-0.0188643
-0.0174615
-0.0162255
-0.0145618
-0.0124483
-0.00987237
-0.00685614
-0.00346526
0.000171065
0.00402543
-0.0183959
-0.017082
-0.0159471
-0.0144646
-0.0126036
-0.0103224
-0.00760709
-0.00448913
-0.00109544
0.00253385
-0.0179667
-0.0167264
-0.0156766
-0.0143542
-0.0127271
-0.0107326
-0.00832455
-0.00549889
-0.00238086
0.000953087
-0.0175885
-0.016406
-0.0154275
-0.0142465
-0.0128351
-0.0111167
-0.00901829
-0.00649767
-0.00367426
-0.000700777
-0.0172707
-0.0161302
-0.0152123
-0.014157
-0.0129443
-0.01149
-0.00970212
-0.00749917
-0.00495691
-0.00237507
-0.0170197
-0.015907
-0.0150421
-0.0141007
-0.0130725
-0.0118705
-0.0103936
-0.00853255
-0.00620176
-0.0037704
-0.0168411
-0.0157434
-0.0149261
-0.0140885
-0.0132323
-0.0122716
-0.0111028
-0.00962539
-0.00771656
-0.00556359
-0.0167304
-0.0156389
-0.0148664
-0.0141258
-0.0134306
-0.0126992
-0.0118248
-0.0107093
-0.00922064
-0.00741535
-0.0166814
-0.0155916
-0.0148629
-0.0142137
-0.0136687
-0.0131514
-0.0125516
-0.0117633
-0.0106495
-0.00921727
-0.0166867
-0.0155975
-0.0149119
-0.0143484
-0.013942
-0.0136224
-0.0132771
-0.0127928
-0.0120295
-0.0109691
-0.0167348
-0.0156495
-0.015006
-0.0145214
-0.0142406
-0.0141002
-0.0139881
-0.0137859
-0.0133541
-0.0126515
-0.016815
-0.0157391
-0.0151352
-0.0147201
-0.0145487
-0.0145658
-0.0146615
-0.0147149
-0.0145899
-0.0142247
-0.016916
-0.0158562
-0.0152874
-0.0149295
-0.0148474
-0.0149959
-0.0152692
-0.0155468
-0.0156982
-0.0156437
-0.0170273
-0.0159902
-0.0154501
-0.0151337
-0.0151174
-0.0153662
-0.0157825
-0.0162484
-0.0166406
-0.0168655
-0.0171449
-0.0161327
-0.0156111
-0.0153171
-0.0153388
-0.0156543
-0.0161755
-0.0167902
-0.0173838
-0.017853
)
;

boundaryField
{
    inlet
    {
        type            zeroGradient;
    }
    outlet
    {
        type            fixedValue;
        value           uniform 0;
    }
    cylinder
    {
        type            zeroGradient;
    }
    top
    {
        type            symmetryPlane;
    }
    bottom
    {
        type            symmetryPlane;
    }
    defaultFaces
    {
        type            empty;
    }
}


// ************************************************************************* //
