/*--------------------------------*- C++ -*----------------------------------*\
  =========                 |
  \\      /  F ield         | OpenFOAM: The Open Source CFD Toolbox
   \\    /   O peration     | Website:  https://openfoam.org
    \\  /    A nd           | Version:  7
     \\/     M anipulation  |
\*---------------------------------------------------------------------------*/
FoamFile
{
    version     2.0;
    format      ascii;
    class       volVectorField;
    location    "71.6";
    object      U;
}
// * * * * * * * * * * * * * * * * * * * * * * * * * * * * * * * * * * * * * //

dimensions      [0 1 -1 0 0 0 0];

internalField   nonuniform List<vector> 
2000
(
(-0.000133521 -0.00677529 -2.83747e-22)
(6.28297e-05 -0.0149355 0)
(0.000852074 -0.0188471 0)
(0.0022203 -0.0192263 -1.45561e-21)
(0.00412608 -0.0164923 4.69703e-22)
(0.00653829 -0.0109137 1.61048e-23)
(0.00942936 -0.00270143 -8.07977e-22)
(0.0127485 0.00791821 0)
(0.016388 0.0206478 0)
(0.0201553 0.0350908 0)
(0.000430415 -0.00655889 0)
(0.00150084 -0.014996 -1.11223e-21)
(0.00291814 -0.0193224 1.02569e-21)
(0.00458069 -0.0202094 1.94318e-21)
(0.00647812 -0.0180753 0)
(0.00861608 -0.0131941 1.76758e-21)
(0.0110129 -0.00576078 -1.64372e-21)
(0.0136705 0.00404685 0)
(0.016541 0.0160159 2.99138e-21)
(0.0194524 0.0298575 -5.75683e-21)
(0.00103122 -0.00638308 0)
(0.00317164 -0.0150761 8.91728e-21)
(0.00546235 -0.0197412 0)
(0.00765101 -0.0210504 7.95682e-21)
(0.00975144 -0.0194411 0)
(0.0117995 -0.0152118 -7.14917e-21)
(0.0138536 -0.008558 0)
(0.0159673 0.000380792 6.42086e-21)
(0.0181568 0.0114747 -6.01349e-21)
(0.0202598 0.0245523 -5.86607e-21)
(0.00170307 -0.00628474 -2.32749e-21)
(0.00512997 -0.015216 -4.44304e-21)
(0.00853867 -0.0201184 -2.08662e-21)
(0.0114828 -0.0217268 -3.90696e-21)
(0.0139981 -0.0205187 -3.74072e-21)
(0.0161501 -0.0168359 3.51814e-21)
(0.0180342 -0.010894 3.37629e-21)
(0.019749 -0.00281252 -7.05001e-24)
(0.0213797 0.00735149 6.08855e-21)
(0.0227718 0.0195418 5.86445e-21)
(0.00248816 -0.00629491 -2.30073e-21)
(0.00743498 -0.0154472 -4.55368e-21)
(0.0121913 -0.0204633 -8.64405e-21)
(0.0160978 -0.0222204 3.97444e-21)
(0.0192196 -0.0212542 0)
(0.0216578 -0.0179649 0)
(0.0235467 -0.0126074 -6.93564e-21)
(0.0250275 -0.00530359 -6.56114e-21)
(0.0262542 0.00394875 6.19198e-21)
(0.0270866 0.0151885 1.77669e-20)
(0.00343501 -0.00643336 2.33593e-21)
(0.0101427 -0.0157814 2.35883e-21)
(0.0164428 -0.0207752 -1.28538e-20)
(0.021474 -0.022519 2.03914e-20)
(0.0253486 -0.0216201 -3.79851e-21)
(0.0282171 -0.0185476 0)
(0.0302607 -0.0136088 0)
(0.0316652 -0.00694819 3.28458e-20)
(0.0326531 0.00147463 -3.0966e-20)
(0.0331142 0.0117686 5.86112e-21)
(0.00459338 -0.00670207 1.82988e-20)
(0.0132974 -0.0162056 0)
(0.0212841 -0.0210398 1.71643e-20)
(0.0275353 -0.0226149 -1.62795e-20)
(0.0322382 -0.0216201 0)
(0.0356133 -0.0185955 7.4e-21)
(0.0379035 -0.013907 -2.07664e-20)
(0.0393466 -0.00773689 -2.63136e-20)
(0.0402341 -2.6463e-05 1.23541e-20)
(0.0405053 0.00938284 1.18972e-20)
(0.00600742 -0.00708201 -3.65792e-20)
(0.016921 -0.0166806 -4.6253e-21)
(0.0266651 -0.0212273 -8.71117e-21)
(0.0341462 -0.0225045 -2.04996e-20)
(0.0396619 -0.0212875 -7.85014e-21)
(0.0435288 -0.0181829 -7.42665e-21)
(0.0460694 -0.0136127 2.1718e-23)
(0.0475856 -0.0078059 0)
(0.0484414 -0.000701915 0)
(0.0486467 0.00790444 1.19491e-22)
(0.0077085 -0.00753312 1.82807e-20)
(0.0210032 -0.0171406 -1.84281e-20)
(0.0324888 -0.0212934 1.29523e-20)
(0.0411128 -0.0221872 2.88657e-20)
(0.0473265 -0.0206811 -7.70562e-21)
(0.0515706 -0.017435 7.40334e-21)
(0.0542636 -0.0129162 6.98563e-21)
(0.0557808 -0.00739979 0)
(0.0565627 -0.000836638 0)
(0.0567226 0.00701917 -2.73089e-22)
(0.00970895 -0.00799763 -2.29281e-21)
(0.0254925 -0.0174997 2.3122e-20)
(0.0386076 -0.0211849 -4.3256e-21)
(0.0481909 -0.0216682 0)
(0.0548959 -0.0198804 0)
(0.0593175 -0.016514 1.46967e-20)
(0.0619855 -0.0120575 0)
(0.0633504 -0.00681554 -1.29325e-20)
(0.0639047 -0.000772886 2.62101e-24)
(0.0638756 0.00628083 1.15831e-20)
(0.0287156 0.0701477 2.23662e-22)
(0.0437694 0.138838 -2.26266e-22)
(0.0492486 0.200012 -2.62655e-22)
(0.0481847 0.255614 -3.01193e-22)
(0.0420805 0.312772 -3.71568e-22)
(0.0371624 0.375144 -1.30999e-23)
(0.0248176 0.445071 1.96259e-22)
(0.0215185 0.531566 6.99034e-22)
(0.00065382 0.655217 0)
(0.00673106 0.803484 -5.12938e-22)
(0.0257014 0.0641807 8.50932e-22)
(0.0398984 0.133812 -9.83708e-22)
(0.0461497 0.197948 1.76642e-21)
(0.045702 0.255417 3.01699e-22)
(0.0400868 0.313567 6.54398e-22)
(0.0355487 0.376594 1.12875e-21)
(0.0237495 0.44704 -4.23954e-22)
(0.0206097 0.533972 -4.68735e-22)
(0.000630366 0.657235 9.19825e-22)
(0.00628317 0.804156 5.11723e-22)
(0.0239831 0.0577184 0)
(0.0365196 0.127424 -9.31307e-22)
(0.0433949 0.194575 -5.13598e-22)
(0.043504 0.254111 0)
(0.0383293 0.313377 -2.01529e-21)
(0.0341476 0.377152 6.28177e-22)
(0.0228321 0.448189 7.12071e-22)
(0.019809 0.535596 2.52587e-21)
(0.000648573 0.658817 -9.16848e-22)
(0.00587927 0.804636 1.8459e-21)
(0.023859 0.051104 0)
(0.0337053 0.119799 9.39148e-22)
(0.0409788 0.189874 0)
(0.0415696 0.251667 2.32488e-21)
(0.0367907 0.312192 -2.33692e-21)
(0.0329409 0.376803 -1.436e-21)
(0.0220523 0.448453 -9.18301e-23)
(0.0191272 0.536314 -2.46661e-21)
(0.000710807 0.659647 -4.04435e-22)
(0.00549933 0.804726 -2.27063e-21)
(0.0256102 0.0447191 3.99733e-23)
(0.0315892 0.111183 -2.67904e-21)
(0.0388976 0.183853 1.23133e-22)
(0.0398778 0.248068 -2.03921e-21)
(0.035451 0.310032 0)
(0.0319053 0.375618 -1.37081e-21)
(0.0213865 0.448004 -1.19679e-22)
(0.0185347 0.53647 3.1028e-21)
(0.000783442 0.660207 4.122e-22)
(0.00514647 0.804761 -4.13695e-22)
(0.0293668 0.0389179 -7.30291e-21)
(0.0303684 0.10195 4.60878e-21)
(0.0371561 0.176561 1.98807e-21)
(0.0384119 0.243307 -1.98707e-21)
(0.0342961 0.306855 -1.10829e-21)
(0.0310313 0.373468 0)
(0.02084 0.446566 -2.74811e-21)
(0.0180568 0.535534 1.36852e-21)
(0.00089606 0.659712 1.50535e-21)
(0.00480203 0.804295 1.56883e-21)
(0.0349463 0.0339618 -8.8347e-22)
(0.0302615 0.0925778 0)
(0.0357756 0.168104 0)
(0.0371529 0.237424 0)
(0.0333009 0.302825 -1.18677e-21)
(0.030289 0.370742 2.29149e-21)
(0.0203688 0.444819 2.67866e-21)
(0.0176155 0.534592 -4.17383e-21)
(0.000974548 0.659535 7.41281e-22)
(0.00448583 0.804053 -2.28791e-21)
(0.0417363 0.0299362 5.56308e-21)
(0.0313869 0.0835041 3.76193e-21)
(0.0347904 0.1587 -3.72793e-21)
(0.0361046 0.230347 4.0762e-21)
(0.0324588 0.2975 -5.06906e-21)
(0.0296913 0.366583 0)
(0.0200293 0.441439 -1.204e-21)
(0.0173272 0.531744 6.08968e-23)
(0.00113128 0.657499 -1.33831e-21)
(0.00416282 0.803005 -1.40504e-21)
(0.0486258 0.0265066 -4.74729e-21)
(0.0335756 0.0745372 0)
(0.0342003 0.148357 -4.23165e-21)
(0.0352165 0.222703 7.69915e-21)
(0.0317482 0.292358 -2.88092e-21)
(0.0291629 0.363248 -5.40053e-22)
(0.0196715 0.439365 1.20142e-21)
(0.0169428 0.53068 8.6176e-24)
(0.00115017 0.65731 1.93206e-21)
(0.00387615 0.802729 2.04155e-21)
(0.0539306 0.0235372 -3.81995e-21)
(0.0362175 0.0655575 3.73102e-21)
(0.0341411 0.135688 4.63473e-22)
(0.0345169 0.211108 0)
(0.0311075 0.28263 0)
(0.0288578 0.355165 5.27353e-22)
(0.0196154 0.432448 2.25611e-21)
(0.0169368 0.524655 -2.19158e-21)
(0.00140456 0.652944 -5.93314e-22)
(0.00356017 0.800958 5.74399e-22)
(0.0573798 0.025828 0)
(0.0397716 0.0608834 0)
(0.0349196 0.127118 0)
(0.0342257 0.20614 0)
(0.0301346 0.281437 0)
(0.0271716 0.3564 0)
(0.0182265 0.434928 0)
(0.0154196 0.528343 0)
(0.000927722 0.655999 0)
(0.00294695 0.801217 0)
(0.0606678 0.0478164 0)
(0.0432972 0.081516 0)
(0.0339311 0.136738 0)
(0.0319748 0.21061 0)
(0.028299 0.285841 0)
(0.025305 0.361927 0)
(0.0171035 0.441959 0)
(0.0139967 0.536912 0)
(0.000834585 0.663664 0)
(0.00238969 0.803677 0)
(0.0594975 0.0567123 0)
(0.046106 0.0942113 0)
(0.0343793 0.145171 0)
(0.0304476 0.215803 0)
(0.0265138 0.290764 0)
(0.0231654 0.366936 0)
(0.0155964 0.447348 0)
(0.0124563 0.542605 0)
(0.000582054 0.668269 0)
(0.00191034 0.804103 0)
(0.0556116 0.0625564 0)
(0.0467041 0.104782 0)
(0.0348518 0.153153 0)
(0.0292833 0.220561 0)
(0.0252789 0.295766 0)
(0.021993 0.373126 0)
(0.0149599 0.454948 0)
(0.0116091 0.551324 0)
(0.000782651 0.675833 0)
(0.0016325 0.806469 0)
(0.050692 0.0656476 0)
(0.0455717 0.113684 0)
(0.0350307 0.161535 0)
(0.0285449 0.225473 0)
(0.0239789 0.29948 0)
(0.0203885 0.376818 0)
(0.0138605 0.458979 0)
(0.010557 0.555551 0)
(0.000653177 0.67912 0)
(0.00132058 0.806408 0)
(0.044921 0.0661324 0)
(0.0430435 0.120185 0)
(0.0341214 0.169071 0)
(0.0275479 0.230683 0)
(0.0234344 0.304399 0)
(0.0199733 0.382814 0)
(0.0137261 0.466376 0)
(0.0101621 0.564046 0)
(0.00100829 0.686311 0)
(0.00118105 0.808576 0)
(0.038599 0.0641781 0)
(0.0399733 0.124761 0)
(0.0335401 0.176785 0)
(0.0266259 0.235996 0)
(0.0220101 0.307397 0)
(0.0186301 0.385237 0)
(0.0129414 0.468951 0)
(0.00948639 0.566674 0)
(0.000948984 0.688258 0)
(0.000993516 0.80818 0)
(0.0316448 0.0593461 0)
(0.0355256 0.124986 0)
(0.0318039 0.181307 0)
(0.0263137 0.241729 0)
(0.0221638 0.313408 0)
(0.0186988 0.392045 0)
(0.0131289 0.476965 0)
(0.0093813 0.575645 0)
(0.00143485 0.695646 0)
(0.000958165 0.810449 0)
(0.0263568 0.0550162 0)
(0.0331134 0.126664 0)
(0.0313658 0.186716 0)
(0.0255813 0.245435 0)
(0.02105 0.315005 0)
(0.0177907 0.393156 0)
(0.0126337 0.478238 0)
(0.00899588 0.576852 0)
(0.00139671 0.696539 0)
(0.000862343 0.810079 0)
(0.0182479 0.0389211 0)
(0.0274743 0.116569 0)
(0.0305192 0.187143 0)
(0.0273089 0.252166 0)
(0.0226613 0.322794 0)
(0.0186732 0.401393 0)
(0.0132885 0.487484 0)
(0.00917082 0.586988 0)
(0.00203335 0.70469 0)
(0.000893549 0.812729 0)
(0.0685304 0.0157552 3.41494e-21)
(0.0676737 0.0269947 -3.35758e-21)
(0.0628005 0.0304252 2.93019e-22)
(0.0568079 0.0315529 0)
(0.0503007 0.030542 0)
(0.0430016 0.0277742 8.90886e-23)
(0.0352185 0.0233522 -1.11614e-22)
(0.0271483 0.0168248 1.09705e-22)
(0.0202751 0.010896 -1.61129e-23)
(0.0115075 -0.00359434 1.58379e-23)
(0.0707181 0.0116138 -4.48839e-21)
(0.0677078 0.018156 0)
(0.061789 0.0189997 1.6557e-21)
(0.0553431 0.018172 -3.29893e-21)
(0.0485536 0.0155803 1.64177e-21)
(0.0410279 0.0116214 -8.71978e-23)
(0.0330437 0.00632076 7.64665e-23)
(0.0249335 -0.000730033 1.74295e-23)
(0.0175771 -0.00717525 -2.82555e-23)
(0.00939733 -0.0205946 -3.14568e-23)
(0.0717928 0.00693468 5.05935e-21)
(0.0670526 0.00925299 -2.36419e-21)
(0.0605017 0.00767442 2.34144e-21)
(0.0537284 0.00493155 -1.30166e-21)
(0.046688 0.000777846 1.01937e-21)
(0.0389528 -0.00434775 0)
(0.0308004 -0.0104763 -7.66412e-23)
(0.0226795 -0.0178818 -9.07477e-25)
(0.0150178 -0.0245922 1.03932e-23)
(0.00753754 -0.0365004 4.72052e-23)
(0.0719747 0.000958791 -7.72578e-22)
(0.0657668 -0.000414456 0)
(0.058851 -0.00405085 0)
(0.0518483 -0.00846047 0)
(0.0446345 -0.0139679 6.50327e-22)
(0.0367589 -0.0200666 -4.0014e-22)
(0.0285167 -0.0268339 2.8594e-23)
(0.0204138 -0.0343677 1.28624e-23)
(0.0127032 -0.0410526 1.12969e-23)
(0.00588344 -0.0512179 2.08206e-23)
(0.0711457 -0.00640505 -5.15775e-22)
(0.0637623 -0.010894 -2.0557e-21)
(0.0567146 -0.0162324 -8.32541e-22)
(0.049592 -0.022004 8.3194e-22)
(0.0422967 -0.0285922 -2.47072e-22)
(0.0343803 -0.0353984 0)
(0.0261644 -0.0425525 -7.13493e-23)
(0.0181771 -0.0499717 2.15096e-23)
(0.0106364 -0.0563469 -5.74881e-24)
(0.0044943 -0.0647162 -3.24534e-23)
(0.0693971 -0.0149825 -5.64546e-21)
(0.0611727 -0.0219724 9.37921e-22)
(0.0541901 -0.0287123 2.39982e-22)
(0.0470325 -0.0355332 8.1432e-22)
(0.0397455 -0.0429198 0)
(0.0318831 -0.0501567 0)
(0.0238047 -0.0574385 0)
(0.0160399 -0.0645178 2.58187e-23)
(0.00883288 -0.0703558 0)
(0.00337837 -0.077014 0)
(0.0668346 -0.0245017 0)
(0.0581308 -0.0333481 1.61109e-21)
(0.0513723 -0.0412445 -1.03869e-21)
(0.0442525 -0.0488123 -5.8659e-22)
(0.0370691 -0.0567363 5.896e-22)
(0.0293541 -0.064144 1.16119e-22)
(0.02151 -0.0713214 -1.46509e-22)
(0.0140631 -0.0778832 -1.23085e-22)
(0.00730294 -0.0830381 9.69763e-24)
(0.00251014 -0.088165 9.84495e-24)
(0.0635411 -0.0346625 0)
(0.0547558 -0.0447108 -5.72784e-22)
(0.0483372 -0.0535653 -2.31217e-22)
(0.0413388 -0.0615978 0)
(0.0343451 -0.0698297 7.66159e-23)
(0.0268661 -0.0771861 -2.85121e-22)
(0.0193389 -0.084075 1.16405e-22)
(0.0122867 -0.0900053 1.78299e-24)
(0.0060381 -0.0944164 -7.10308e-24)
(0.00185249 -0.0982428 -1.11448e-23)
(0.0596449 -0.0451106 7.6143e-22)
(0.0511507 -0.0557897 5.18478e-22)
(0.0451598 -0.0654316 -1.75248e-22)
(0.0383681 -0.0736739 8.95785e-23)
(0.0316421 -0.0820225 1.253e-22)
(0.0244788 -0.0891553 1.2478e-22)
(0.0173326 -0.095629 -2.59657e-23)
(0.0107291 -0.10088 -1.29997e-23)
(0.00501383 -0.10456 7.12631e-24)
(0.0013654 -0.10733 2.61087e-26)
(0.0553109 -0.05556 -1.6046e-22)
(0.0474055 -0.0663652 1.61895e-22)
(0.0419103 -0.0766454 -1.16987e-22)
(0.0354111 -0.0848769 -8.94422e-23)
(0.0290172 -0.0931913 5.52346e-23)
(0.0222373 -0.0999823 -9.89948e-23)
(0.0155148 -0.10597 3.63366e-23)
(0.00938984 -0.110552 2.55688e-24)
(0.00419631 -0.113564 0)
(0.00101031 -0.115512 -2.61632e-26)
(0.0507249 -0.0657819 1.64574e-22)
(0.0436241 -0.076282 -1.65964e-22)
(0.0386691 -0.0870658 -1.23441e-22)
(0.0325426 -0.0951073 -9.55458e-23)
(0.0265225 -0.103274 -5.83416e-23)
(0.0201757 -0.109657 9.41014e-24)
(0.0138957 -0.115136 2.00955e-23)
(0.0082553 -0.119104 3.00456e-23)
(0.00354898 -0.12154 0)
(0.000753311 -0.122868 -2.23123e-24)
(0.0460807 -0.075616 0)
(0.0399217 -0.0854516 -5.57174e-22)
(0.0355181 -0.0966107 9.40945e-22)
(0.0298342 -0.104331 9.56862e-23)
(0.0242003 -0.112264 1.49688e-22)
(0.0183158 -0.118223 1.55396e-22)
(0.0124741 -0.123202 -3.18264e-23)
(0.00730421 -0.126638 -1.81765e-23)
(0.00303734 -0.128598 2.13933e-23)
(0.000567042 -0.129478 2.22586e-24)
(0.0415335 -0.0849703 0)
(0.0363897 -0.0938528 -6.46956e-22)
(0.0325138 -0.105251 -2.56581e-22)
(0.0273323 -0.112573 0)
(0.022073 -0.120204 -4.12415e-22)
(0.016662 -0.12576 1.58359e-22)
(0.0112379 -0.130271 9.42628e-23)
(0.00651094 -0.133269 1.52824e-22)
(0.00263137 -0.134848 -2.13235e-23)
(0.00043073 -0.135415 1.58218e-23)
(0.0371961 -0.0938099 0)
(0.03309 -0.10153 6.52316e-22)
(0.0296863 -0.113004 0)
(0.0250575 -0.119913 7.48821e-22)
(0.0201447 -0.127176 -7.52708e-22)
(0.0152037 -0.132383 -1.96255e-22)
(0.0101684 -0.136461 4.46892e-23)
(0.00584888 -0.139118 -1.5994e-22)
(0.00230653 -0.140395 -2.93185e-23)
(0.000329058 -0.140756 -2.4495e-23)
(0.0331522 -0.102142 6.73525e-21)
(0.0300717 -0.108589 -2.52262e-21)
(0.027056 -0.119923 -2.45966e-22)
(0.0230162 -0.126467 -1.01714e-21)
(0.0184132 -0.13329 0)
(0.013924 -0.138218 -2.10767e-22)
(0.00924557 -0.141898 7.09792e-23)
(0.00529386 -0.144302 2.44588e-22)
(0.0020441 -0.145342 9.91429e-24)
(0.00025121 -0.145579 -9.90337e-24)
(0.0294511 -0.10999 5.89592e-22)
(0.0273754 -0.115187 3.93311e-21)
(0.0246427 -0.126089 1.06623e-21)
(0.0212068 -0.132376 -1.06558e-21)
(0.0168761 -0.138674 -3.70417e-22)
(0.0128053 -0.143401 0)
(0.00845218 -0.146709 -3.43463e-22)
(0.00482607 -0.148939 1.83708e-22)
(0.00183077 -0.149789 9.22204e-23)
(0.000189851 -0.149963 2.34499e-23)
(0.0261242 -0.117362 -9.49541e-22)
(0.0250529 -0.121526 0)
(0.0224846 -0.131601 0)
(0.0196312 -0.13779 0)
(0.0155394 -0.143465 -2.92655e-22)
(0.0118352 -0.148069 6.62334e-22)
(0.00777666 -0.151021 3.54487e-22)
(0.00443141 -0.15314 -4.19527e-22)
(0.00165792 -0.153834 2.39833e-23)
(0.000140031 -0.153992 -4.69551e-23)
(0.0231726 -0.124211 -2.20167e-21)
(0.0231297 -0.12783 2.93005e-21)
(0.020611 -0.136573 -2.90242e-21)
(0.0182718 -0.142853 1.85758e-21)
(0.0143999 -0.147806 -2.25345e-21)
(0.0109961 -0.15235 0)
(0.00720607 -0.154955 -2.17226e-22)
(0.00409718 -0.157011 -1.0088e-23)
(0.00151891 -0.157573 -8.01177e-23)
(9.76735e-05 -0.157754 -2.72015e-23)
(0.0202914 -0.130373 -1.03212e-21)
(0.0213244 -0.134317 0)
(0.0188746 -0.141136 -2.86785e-21)
(0.0169722 -0.147694 4.44816e-21)
(0.013363 -0.151836 -1.52738e-21)
(0.0102131 -0.156367 -1.62816e-22)
(0.00669504 -0.158627 2.16731e-22)
(0.00379546 -0.160653 2.66176e-23)
(0.00140178 -0.1611 1.65244e-22)
(6.01711e-05 -0.161335 5.40061e-23)
(0.0174343 -0.135408 -4.18227e-21)
(0.0194879 -0.141185 4.08701e-21)
(0.017286 -0.145477 3.71298e-22)
(0.0157074 -0.152451 0)
(0.0124121 -0.155716 0)
(0.00947972 -0.160252 1.6766e-22)
(0.00623655 -0.16216 4.04586e-22)
(0.00352466 -0.164173 -3.97034e-22)
(0.00130637 -0.164511 -2.99968e-23)
(4.05923e-05 -0.164828 2.93465e-23)
(0.0175834 -0.142627 0)
(0.0198699 -0.157518 0)
(0.0170973 -0.155372 0)
(0.0152096 -0.163624 0)
(0.0119303 -0.164902 0)
(0.00894313 -0.169554 0)
(0.00589144 -0.170629 0)
(0.00331061 -0.172612 0)
(0.00128151 -0.172641 0)
(7.64498e-05 -0.173108 0)
(0.0156512 -0.168084 0)
(0.0139975 -0.183923 0)
(0.012073 -0.17778 0)
(0.0102063 -0.186074 0)
(0.00802841 -0.184711 0)
(0.00596849 -0.189117 0)
(0.00396426 -0.188732 0)
(0.00227173 -0.190584 0)
(0.000929579 -0.189984 0)
(9.44567e-05 -0.190591 0)
(0.0160434 -0.198102 0)
(0.0131587 -0.21482 0)
(0.0108864 -0.205834 0)
(0.00868027 -0.214531 0)
(0.00671175 -0.211085 0)
(0.00484374 -0.215672 0)
(0.0032547 -0.214059 0)
(0.00189153 -0.216063 0)
(0.000848475 -0.21484 0)
(0.000107583 -0.21568 0)
(0.0158446 -0.235608 0)
(0.0121377 -0.253598 0)
(0.00989343 -0.242499 0)
(0.00747084 -0.252085 0)
(0.00578219 -0.246895 0)
(0.00405027 -0.252083 0)
(0.00280923 -0.24935 0)
(0.00164746 -0.251784 0)
(0.000816924 -0.249898 0)
(0.000109316 -0.251112 0)
(0.0153792 -0.282423 0)
(0.0112762 -0.301011 0)
(0.00911352 -0.289061 0)
(0.00653874 -0.299483 0)
(0.00510514 -0.293188 0)
(0.00343384 -0.299132 0)
(0.00247603 -0.295535 0)
(0.00141101 -0.298559 0)
(0.000760196 -0.296076 0)
(8.00705e-05 -0.297804 0)
(0.0142731 -0.337027 0)
(0.0101524 -0.35428 0)
(0.00820372 -0.34355 0)
(0.00561238 -0.353852 0)
(0.00443921 -0.34765 0)
(0.00281075 -0.35388 0)
(0.00208616 -0.350029 0)
(0.00105999 -0.353435 0)
(0.000598607 -0.350666 0)
(4.3528e-06 -0.352825 0)
(0.0121977 -0.393221 0)
(0.00851421 -0.407083 0)
(0.00687433 -0.399591 0)
(0.00452719 -0.408332 0)
(0.00359786 -0.403599 0)
(0.00210306 -0.409123 0)
(0.00155108 -0.405864 0)
(0.000597693 -0.409017 0)
(0.000332232 -0.406507 0)
(-8.7399e-05 -0.408685 0)
(0.00924395 -0.442063 0)
(0.00637264 -0.451658 0)
(0.00511743 -0.448244 0)
(0.00327848 -0.45445 0)
(0.00258169 -0.451943 0)
(0.0013739 -0.455891 0)
(0.000952631 -0.453819 0)
(0.000175465 -0.45606 0)
(7.33815e-05 -0.454271 0)
(-0.000136593 -0.45592 0)
(0.00571588 -0.476539 0)
(0.00388694 -0.482553 0)
(0.0031097 -0.482546 0)
(0.0019522 -0.486338 0)
(0.00152124 -0.485845 0)
(0.000734983 -0.488109 0)
(0.000461035 -0.487233 0)
(-4.64524e-05 -0.488392 0)
(-5.51797e-05 -0.487417 0)
(-0.00011917 -0.488306 0)
(0.00192771 -0.493897 0)
(0.00128575 -0.498038 0)
(0.00103638 -0.499872 0)
(0.000639308 -0.502273 0)
(0.000501246 -0.502895 0)
(0.00022481 -0.50413 0)
(0.000132429 -0.503956 0)
(-4.69073e-05 -0.50443 0)
(-3.70011e-05 -0.503965 0)
(-4.75132e-05 -0.504339 0)
(0.0170213 -0.152798 4.91546e-21)
(0.0171314 -0.179544 -4.81897e-21)
(0.018221 -0.211361 6.2336e-22)
(0.0182043 -0.250055 0)
(0.0177432 -0.296624 0)
(0.0163871 -0.34895 7.23177e-22)
(0.0139819 -0.40108 -3.11024e-21)
(0.0106514 -0.44536 3.06951e-21)
(0.00666129 -0.476177 8.35857e-22)
(0.00226558 -0.4916 -8.22833e-22)
(0.0171674 -0.157877 -5.79481e-21)
(0.0180101 -0.184421 0)
(0.0192511 -0.216344 4.24077e-21)
(0.019273 -0.255081 -9.78909e-21)
(0.0187848 -0.301307 6.28718e-21)
(0.017312 -0.352672 -6.67171e-22)
(0.0147695 -0.403319 1.488e-21)
(0.0112799 -0.446043 3.14165e-21)
(0.00708503 -0.47568 8.85986e-22)
(0.00241217 -0.490517 8.59605e-22)
(0.0176777 -0.163156 6.77512e-21)
(0.0192586 -0.189589 -4.67977e-21)
(0.0205416 -0.221353 4.63546e-21)
(0.0205553 -0.259862 -5.19685e-21)
(0.0199903 -0.30555 3.84574e-21)
(0.0183575 -0.35584 0)
(0.0156316 -0.405008 -1.49163e-21)
(0.0119334 -0.446278 7.80632e-23)
(0.00749728 -0.474877 -1.65016e-21)
(0.0025425 -0.489229 -1.68607e-21)
(0.0185726 -0.16788 -1.09697e-21)
(0.0208055 -0.194384 0)
(0.0220732 -0.226066 0)
(0.0220508 -0.264359 0)
(0.0213709 -0.309506 4.28839e-21)
(0.0195486 -0.35874 -2.86764e-21)
(0.0166017 -0.406479 -1.95591e-23)
(0.0126472 -0.446337 -1.76357e-21)
(0.00792813 -0.473908 -9.05205e-22)
(0.00267089 -0.487744 -9.69188e-22)
(0.0199203 -0.172139 1.16782e-22)
(0.0226221 -0.198572 -3.31793e-21)
(0.023817 -0.230158 -2.5419e-21)
(0.0237347 -0.268267 2.54032e-21)
(0.0229113 -0.312921 -1.40147e-21)
(0.0208832 -0.361196 0)
(0.0176939 -0.40764 -1.6444e-21)
(0.0134507 -0.446203 3.60031e-21)
(0.00841201 -0.472796 -1.84266e-21)
(0.00281575 -0.486111 1.89648e-21)
(0.0217622 -0.17602 -8.82555e-21)
(0.0247299 -0.202184 9.52686e-22)
(0.0257865 -0.233554 -1.87888e-22)
(0.0256068 -0.271434 2.61175e-21)
(0.0246083 -0.315607 0)
(0.0223571 -0.363017 0)
(0.0189077 -0.40833 0)
(0.0143518 -0.445768 1.92973e-21)
(0.0089628 -0.471505 0)
(0.00298636 -0.484354 0)
(0.0241108 -0.179431 0)
(0.0271486 -0.205207 3.65599e-21)
(0.0280102 -0.236248 -2.47088e-21)
(0.027686 -0.273842 -2.93435e-21)
(0.0264766 -0.317523 2.94962e-21)
(0.0239781 -0.364143 1.75811e-21)
(0.0202447 -0.408473 -1.74433e-21)
(0.0153496 -0.444965 -6.89364e-21)
(0.00957968 -0.469996 4.90809e-22)
(0.00318409 -0.482468 -1.67998e-21)
(0.026974 -0.18224 0)
(0.0298858 -0.207562 -1.18794e-21)
(0.0305089 -0.238205 -6.71933e-22)
(0.0299902 -0.275483 0)
(0.0285354 -0.318678 8.57411e-22)
(0.0257614 -0.364584 -2.5882e-21)
(0.0217131 -0.408073 2.88051e-21)
(0.0164454 -0.443784 1.02761e-21)
(0.0102598 -0.468253 -1.12467e-21)
(0.00340813 -0.480436 2.22882e-21)
(0.0303626 -0.184341 1.06625e-21)
(0.032946 -0.209178 1.29132e-21)
(0.0332946 -0.239371 -2.85974e-22)
(0.03253 -0.276335 3.84364e-22)
(0.0307997 -0.319072 8.16851e-22)
(0.027721 -0.364362 1.37077e-21)
(0.0233237 -0.407154 -5.15466e-22)
(0.0176445 -0.442238 -5.56934e-22)
(0.0110032 -0.466274 1.12838e-21)
(0.00365848 -0.478248 6.1156e-22)
(0.0342868 -0.185646 -2.98022e-22)
(0.036335 -0.210017 3.00767e-22)
(0.0363773 -0.2397 -3.46036e-22)
(0.035312 -0.276374 -3.83868e-22)
(0.0332799 -0.318693 4.55614e-22)
(0.0298671 -0.363479 -9.30102e-22)
(0.0250866 -0.405725 7.88779e-22)
(0.0189552 -0.440337 2.81994e-22)
(0.0118144 -0.464061 0)
(0.00393681 -0.475897 -6.12925e-22)
(0.0387546 -0.186089 3.05604e-22)
(0.0400555 -0.210073 -3.08527e-22)
(0.0397663 -0.239173 -3.71858e-22)
(0.0383407 -0.275596 -4.15041e-22)
(0.0359848 -0.317537 -4.75549e-22)
(0.0322066 -0.361943 -3.32229e-23)
(0.027009 -0.403796 2.7803e-22)
(0.020383 -0.43809 8.97551e-22)
(0.012696 -0.461617 0)
(0.00424415 -0.47338 -6.69013e-22)
(0.0437708 -0.185649 0)
(0.0441077 -0.209343 -1.42283e-21)
(0.0434685 -0.237799 2.57958e-21)
(0.0416184 -0.27401 4.15743e-22)
(0.0389228 -0.315608 9.65594e-22)
(0.0347466 -0.359751 1.58422e-21)
(0.0291004 -0.401359 -5.63365e-22)
(0.0219374 -0.435486 -6.08904e-22)
(0.013655 -0.458935 1.34688e-21)
(0.00458277 -0.470692 6.67453e-22)
(0.0493368 -0.184372 0)
(0.0484911 -0.207822 -1.40332e-21)
(0.0474873 -0.235618 -7.75813e-22)
(0.0451494 -0.271636 0)
(0.0420993 -0.312942 -3.04099e-21)
(0.0374906 -0.356932 1.0165e-21)
(0.0313627 -0.398442 1.20979e-21)
(0.0236176 -0.432547 3.90599e-21)
(0.0146889 -0.456014 -1.34251e-21)
(0.00495068 -0.46782 2.89792e-21)
(0.0554483 -0.182375 0)
(0.0532083 -0.2055 1.41529e-21)
(0.0518103 -0.232773 0)
(0.0489336 -0.268464 3.88698e-21)
(0.0455205 -0.309556 -3.90692e-21)
(0.0404483 -0.353471 -2.38678e-21)
(0.0338071 -0.395018 -5.31798e-23)
(0.0254407 -0.429242 -4.01997e-21)
(0.0158129 -0.452829 -6.70084e-22)
(0.00535211 -0.464744 -3.6046e-21)
(0.0620791 -0.179761 1.02235e-20)
(0.0582601 -0.202358 -3.92385e-21)
(0.0564436 -0.229248 4.20705e-22)
(0.0530023 -0.264501 -3.63161e-21)
(0.049175 -0.305479 0)
(0.0436209 -0.349419 -2.48939e-21)
(0.036429 -0.391143 -2.07767e-22)
(0.027398 -0.425616 5.4602e-21)
(0.0170182 -0.44942 7.48488e-22)
(0.00578166 -0.461489 -7.51359e-22)
(0.0691741 -0.176522 -1.05209e-21)
(0.0636755 -0.198455 7.34207e-21)
(0.0613506 -0.225027 3.77904e-21)
(0.0573433 -0.259891 -3.77646e-21)
(0.0530685 -0.300736 -2.2751e-21)
(0.0470204 -0.344746 0)
(0.0392506 -0.386749 -5.57734e-21)
(0.0295174 -0.421601 2.79711e-21)
(0.0183283 -0.445743 2.98665e-21)
(0.00624853 -0.458024 3.20632e-21)
(0.0766619 -0.172706 -1.40998e-21)
(0.0694513 -0.193936 0)
(0.0665015 -0.22025 0)
(0.0619394 -0.254765 0)
(0.0571924 -0.295516 -2.62459e-21)
(0.0506224 -0.339698 4.89122e-21)
(0.0422293 -0.382088 5.68183e-21)
(0.0317448 -0.417392 -8.94612e-21)
(0.0196981 -0.441902 1.60098e-21)
(0.00673014 -0.454403 -4.76222e-21)
(0.0844194 -0.168425 -2.10972e-21)
(0.075582 -0.188765 7.24704e-21)
(0.0718831 -0.214861 -7.17783e-21)
(0.0668001 -0.248915 9.20809e-21)
(0.061583 -0.289478 -1.158e-20)
(0.0545029 -0.333795 0)
(0.0454826 -0.37666 -2.9707e-21)
(0.0342139 -0.412608 -1.22359e-22)
(0.0212343 -0.437683 -3.32761e-21)
(0.00727208 -0.450486 -3.3908e-21)
(0.0922554 -0.164247 -1.49864e-21)
(0.0819847 -0.183503 0)
(0.0773753 -0.209587 -9.58401e-21)
(0.0717858 -0.243324 1.80455e-20)
(0.0660639 -0.2839 -6.98418e-21)
(0.0584235 -0.328482 -1.40625e-21)
(0.048714 -0.37178 2.96427e-21)
(0.0366232 -0.408154 -1.49764e-22)
(0.0227121 -0.433549 4.85723e-21)
(0.00777146 -0.446535 5.01803e-21)
(0.100499 -0.158166 -6.74198e-21)
(0.0895815 -0.175919 6.60861e-21)
(0.0836896 -0.201813 1.02091e-21)
(0.0775132 -0.234976 0)
(0.0712576 -0.275363 0)
(0.0630915 -0.320323 1.37986e-21)
(0.052696 -0.364602 6.3153e-21)
(0.0396944 -0.4022 -6.17731e-21)
(0.0246485 -0.428587 -1.69077e-21)
(0.00845321 -0.441993 1.66243e-21)
(0.111465 -0.158751 0)
(0.106131 -0.173118 0)
(0.0969726 -0.199968 0)
(0.0893073 -0.232515 0)
(0.081575 -0.271921 0)
(0.0717943 -0.31532 0)
(0.0596478 -0.357765 0)
(0.0447602 -0.393681 0)
(0.0277045 -0.419048 0)
(0.00932485 -0.432272 0)
(0.131033 -0.144301 0)
(0.134273 -0.163797 0)
(0.1202 -0.193886 0)
(0.1118 -0.226045 0)
(0.10142 -0.264404 0)
(0.0887349 -0.305367 0)
(0.073351 -0.344636 0)
(0.0548853 -0.377246 0)
(0.0340232 -0.399585 0)
(0.0118002 -0.410292 0)
(0.157859 -0.130455 0)
(0.164345 -0.152348 0)
(0.145353 -0.182579 0)
(0.136886 -0.213383 0)
(0.122972 -0.250147 0)
(0.106898 -0.288047 0)
(0.0876337 -0.324111 0)
(0.0650798 -0.354299 0)
(0.0399865 -0.375826 0)
(0.0131972 -0.387649 0)
(0.191198 -0.120805 0)
(0.198942 -0.142802 0)
(0.174761 -0.171831 0)
(0.166657 -0.201384 0)
(0.148028 -0.236435 0)
(0.128329 -0.270819 0)
(0.104525 -0.303382 0)
(0.0772803 -0.329986 0)
(0.0475653 -0.347886 0)
(0.0166613 -0.355631 0)
(0.230447 -0.10871 0)
(0.236449 -0.128908 0)
(0.207415 -0.155526 0)
(0.19878 -0.1826 0)
(0.173277 -0.213729 0)
(0.149333 -0.243123 0)
(0.119808 -0.271868 0)
(0.0875219 -0.295871 0)
(0.0529699 -0.313956 0)
(0.0166948 -0.325698 0)
(0.276111 -0.0995481 0)
(0.278653 -0.117219 0)
(0.245665 -0.142037 0)
(0.234967 -0.165795 0)
(0.201518 -0.192851 0)
(0.174271 -0.218179 0)
(0.13851 -0.243875 0)
(0.100914 -0.264299 0)
(0.0614717 -0.27833 0)
(0.0226876 -0.281892 0)
(0.32343 -0.0817605 0)
(0.318424 -0.0955468 0)
(0.282495 -0.116185 0)
(0.26642 -0.134078 0)
(0.22495 -0.155652 0)
(0.194029 -0.175582 0)
(0.149086 -0.196158 0)
(0.106041 -0.213179 0)
(0.0612256 -0.230189 0)
(0.0152838 -0.248763 0)
(0.371004 -0.0694986 0)
(0.35931 -0.0791418 0)
(0.323553 -0.096151 0)
(0.300862 -0.109279 0)
(0.256375 -0.127848 0)
(0.221291 -0.144019 0)
(0.170041 -0.162624 0)
(0.123356 -0.179296 0)
(0.073275 -0.195865 0)
(0.0353262 -0.192903 0)
(0.409609 -0.0380752 0)
(0.393017 -0.0424427 0)
(0.34641 -0.0526752 0)
(0.316324 -0.0588929 0)
(0.26106 -0.0700641 0)
(0.217077 -0.0776304 0)
(0.1522 -0.0881652 0)
(0.0947218 -0.0977336 0)
(0.0340056 -0.117665 0)
(-0.0330792 -0.168214 0)
(0.652128 -0.0195289 0)
(0.629987 -0.022574 0)
(0.588222 -0.0272318 0)
(0.553838 -0.03145 0)
(0.500857 -0.0379114 0)
(0.452059 -0.04456 0)
(0.383512 -0.0549651 0)
(0.311412 -0.0698795 0)
(0.215657 -0.0989739 0)
(0.153642 -0.156744 0)
(0.133799 -0.142309 6.88869e-21)
(0.156121 -0.127309 -6.78576e-21)
(0.183119 -0.113977 1.11302e-21)
(0.216135 -0.104638 0)
(0.255215 -0.0936064 0)
(0.298924 -0.0853147 1.70019e-21)
(0.344975 -0.0695881 -8.12005e-21)
(0.389547 -0.059701 8.01498e-21)
(0.43637 -0.0322223 2.28758e-21)
(0.673415 -0.0170314 -2.31441e-21)
(0.141092 -0.13526 -6.40062e-21)
(0.163224 -0.120049 0)
(0.189574 -0.107223 7.94104e-21)
(0.222541 -0.0981813 -1.92044e-20)
(0.261702 -0.0876027 1.29551e-20)
(0.305296 -0.0796947 -1.582e-21)
(0.351334 -0.0647401 3.45149e-21)
(0.39573 -0.055818 7.78043e-21)
(0.446218 -0.0299179 2.12218e-21)
(0.6817 -0.0159645 2.11042e-21)
(0.147488 -0.127424 7.39724e-21)
(0.169104 -0.112399 -7.45659e-21)
(0.194787 -0.100302 7.38606e-21)
(0.227392 -0.0916822 -1.02195e-20)
(0.266466 -0.0816415 7.40954e-21)
(0.310069 -0.074227 0)
(0.356166 -0.0601241 -3.45984e-21)
(0.400952 -0.0522198 -6.9716e-23)
(0.454825 -0.0278508 -4.01067e-21)
(0.689425 -0.0149415 -4.21632e-21)
(0.153867 -0.119028 -1.2754e-21)
(0.175371 -0.10452 0)
(0.200648 -0.0932426 0)
(0.232841 -0.0851113 0)
(0.271683 -0.0757041 8.4071e-21)
(0.315189 -0.0688728 -5.72717e-21)
(0.361176 -0.0557014 -2.24842e-22)
(0.406251 -0.0488164 -3.95686e-21)
(0.46286 -0.0259904 -2.01449e-21)
(0.696829 -0.0139957 -2.05897e-21)
(0.159704 -0.110235 1.29836e-21)
(0.181325 -0.0965361 -4.04022e-21)
(0.2063 -0.0861402 -4.1958e-21)
(0.238355 -0.0785331 4.19319e-21)
(0.276948 -0.0698162 -2.64208e-21)
(0.320421 -0.0636412 0)
(0.366268 -0.0514342 -3.37114e-21)
(0.411587 -0.0455302 7.53851e-21)
(0.470497 -0.0242739 -3.79024e-21)
(0.703888 -0.0131283 4.11281e-21)
(0.164779 -0.101076 -9.52307e-21)
(0.186528 -0.0884684 4.76479e-22)
(0.211193 -0.0790309 -6.68472e-22)
(0.243194 -0.0720021 4.09989e-21)
(0.281629 -0.0640121 0)
(0.325201 -0.0585528 0)
(0.370862 -0.0473227 0)
(0.416656 -0.0423449 3.60518e-21)
(0.47759 -0.0226657 0)
(0.710505 -0.0123289 0)
(0.169026 -0.0915698 0)
(0.190926 -0.0803032 4.8128e-21)
(0.215298 -0.0718924 -3.34075e-21)
(0.247176 -0.0655205 -4.6909e-21)
(0.285518 -0.0583137 4.71529e-21)
(0.329243 -0.0535845 3.05597e-21)
(0.374715 -0.0433789 -2.88333e-21)
(0.421187 -0.0392886 -1.24151e-20)
(0.483951 -0.0211415 8.7911e-22)
(0.716599 -0.0115971 -2.94525e-21)
(0.172343 -0.0817484 0)
(0.194491 -0.072033 -1.47692e-21)
(0.218648 -0.0647023 -8.90869e-22)
(0.25035 -0.0590696 0)
(0.288623 -0.0527006 1.42419e-21)
(0.332467 -0.0487198 -4.09662e-21)
(0.377917 -0.0395798 4.88281e-21)