/*--------------------------------*- C++ -*----------------------------------*\
  =========                 |
  \\      /  F ield         | OpenFOAM: The Open Source CFD Toolbox
   \\    /   O peration     | Website:  https://openfoam.org
    \\  /    A nd           | Version:  7
     \\/     M anipulation  |
\*---------------------------------------------------------------------------*/
FoamFile
{
    version     2.0;
    format      ascii;
    class       volVectorField;
    location    "5.4";
    object      U;
}
// * * * * * * * * * * * * * * * * * * * * * * * * * * * * * * * * * * * * * //

dimensions      [0 1 -1 0 0 0 0];

internalField   nonuniform List<vector> 
18000
(
(-0.000190901 0.000291985 8.83958e-21)
(-0.00142212 0.00884904 0)
(-0.00362184 0.023562 0)
(-0.00614301 0.0416961 0)
(-0.00875215 0.061683 -2.90795e-21)
(-0.0112174 0.0825936 1.47117e-20)
(-0.0133836 0.10385 -2.9755e-21)
(-0.0151539 0.125071 2.99599e-21)
(-0.0164709 0.145992 0)
(-0.0173041 0.166407 -9.07605e-21)
(-0.0176463 0.186136 -3.03575e-21)
(-0.0175027 0.205015 0)
(-0.016889 0.22289 6.07516e-21)
(-0.0158307 0.23962 6.0867e-21)
(-0.0143568 0.25508 -1.21725e-20)
(-0.0124973 0.269166 -1.21549e-20)
(-0.0102833 0.281798 0)
(-0.00774605 0.292918 -1.81681e-20)
(-0.00491707 0.302496 6.02504e-21)
(-0.00182857 0.310526 -1.80455e-20)
(0.00148862 0.317026 5.97894e-21)
(0.00500608 0.322031 0)
(0.00869711 0.325592 -5.8994e-21)
(0.0125365 0.327772 -5.89155e-21)
(0.016499 0.328642 0)
(0.0205592 0.328274 0)
(0.0246889 0.326745 -1.15655e-20)
(0.0288723 0.324129 -1.14854e-20)
(0.0330886 0.320568 -1.14545e-20)
(0.0371253 0.316249 1.27476e-20)
(-0.000261023 0.000634032 1.2597e-20)
(-0.00191647 0.00963353 2.19088e-20)
(-0.00479513 0.024605 -2.24157e-20)
(-0.00810055 0.0428656 -2.2845e-20)
(-0.0115475 0.0628622 -5.80654e-21)
(-0.0148703 0.0836856 1.76104e-20)
(-0.017896 0.104778 -2.37372e-20)
(-0.0205153 0.12577 -2.39257e-20)
(-0.022657 0.146414 2.40708e-20)
(-0.0242838 0.166517 2.41746e-20)
(-0.025386 0.185913 -1.21295e-20)
(-0.0259628 0.204444 -2.42971e-20)
(-0.0260249 0.221963 -1.21801e-20)
(-0.0255956 0.238336 2.43138e-20)
(-0.0246998 0.253442 -2.43011e-20)
(-0.0233644 0.26718 2.42717e-20)
(-0.0216201 0.279473 -4.84738e-20)
(-0.0194974 0.290267 3.62083e-20)
(-0.0170262 0.299532 -2.40451e-20)
(-0.0142373 0.307265 1.20142e-20)
(-0.0111616 0.313483 -2.38448e-20)
(-0.00782865 0.318223 0)
(-0.00426662 0.321537 1.19477e-20)
(-0.000502486 0.323488 -2.34682e-20)
(0.00343579 0.324148 2.33233e-20)
(0.00751927 0.323595 0)
(0.0117146 0.32191 -1.14473e-20)
(0.0159979 0.319174 1.13809e-20)
(0.0203268 0.315542 4.53754e-20)
(0.024494 0.311213 2.53477e-20)
(-0.000343966 0.000973794 -2.01733e-20)
(-0.0024212 0.0104144 -2.19083e-20)
(-0.00595044 0.0256738 3.36155e-20)
(-0.00999874 0.0440726 5.70538e-20)
(-0.0142353 0.0640822 0)
(-0.0183607 0.0848158 -2.34986e-20)
(-0.022184 0.105732 2.37369e-20)
(-0.0255866 0.126484 7.17079e-20)
(-0.0284893 0.14684 -2.40705e-20)
(-0.0308487 0.166617 -2.41778e-20)
(-0.0326487 0.185659 7.26802e-20)
(-0.0338864 0.203824 2.42969e-20)
(-0.0345682 0.220969 0)
(-0.0347128 0.236965 -4.86432e-20)
(-0.0343443 0.251697 7.26909e-20)
(-0.0334876 0.265068 -2.42111e-20)
(-0.0321707 0.277004 2.41969e-20)
(-0.0304228 0.287452 2.41419e-20)
(-0.0282731 0.296386 8.37595e-23)
(-0.0257519 0.303803 0)
(-0.0228897 0.309721 7.15469e-20)
(-0.0197158 0.314177 -4.72698e-20)
(-0.0162586 0.317224 2.36024e-20)
(-0.012547 0.318928 0)
(-0.00861107 0.319364 -2.33233e-20)
(-0.00448408 0.318613 9.24272e-20)
(-0.00020403 0.316762 -6.85929e-20)
(0.00419831 0.313902 -2.28475e-20)
(0.00865785 0.310201 2.24147e-20)
(0.0129711 0.305872 2.52999e-20)
(-0.000442551 0.00138664 0)
(-0.00294644 0.0113266 1.093e-20)
(-0.00710755 0.0268669 7.28349e-25)
(-0.0118594 0.0453885 -5.70181e-20)
(-0.0168281 0.0653911 0)
(-0.0216923 0.0860157 -4.68614e-20)
(-0.0262463 0.106738 0)
(-0.0303615 0.127233 -7.16716e-20)
(-0.0339536 0.147278 2.40019e-20)
(-0.0369742 0.16671 -4.82112e-20)
(-0.0394028 0.185383 -4.84277e-20)
(-0.0412329 0.203162 -2.42674e-20)
(-0.0424692 0.219915 2.42205e-20)
(-0.0431277 0.235518 2.41603e-20)
(-0.043229 0.24986 -2.43031e-20)
(-0.0427958 0.26285 -4.83098e-20)
(-0.0418556 0.274414 4.81272e-20)
(-0.0404365 0.284504 0)
(-0.0385662 0.293092 0)
(-0.0362735 0.300178 0)
(-0.0335882 0.30578 0)
(-0.030539 0.309937 0)
(-0.0271545 0.312702 0)
(-0.0234646 0.314144 -4.65182e-20)
(-0.019501 0.314339 -4.6399e-20)
(-0.0153005 0.313376 -1.96873e-22)
(-0.0109055 0.31135 -4.56906e-20)
(-0.00635442 0.308363 -2.92061e-22)
(-0.00173406 0.304597 -4.53664e-20)
(0.00275202 0.300278 1.00473e-19)
(-0.00056114 0.00181526 0)
(-0.00349439 0.0122582 9.81514e-20)
(-0.0082545 0.0280825 7.89613e-25)
(-0.0136621 0.046724 -3.41424e-20)
(-0.0193067 0.0667141 1.15517e-19)
(-0.0248433 0.0872217 7.02829e-20)
(-0.0300553 0.107744 7.08949e-20)
(-0.0348095 0.12797 0)
(-0.0390158 0.147698 0)
(-0.0426216 0.166775 7.23211e-20)
(-0.0456045 0.185069 4.94664e-23)
(-0.0479559 0.202452 -1.69331e-19)
(-0.0496771 0.218802 1.45109e-19)
(-0.0507816 0.234002 -4.84406e-20)
(-0.0512882 0.247947 4.81541e-20)
(-0.0512187 0.260546 4.81287e-20)
(-0.0505986 0.271731 -4.80466e-20)
(-0.0494548 0.281452 4.80047e-20)
(-0.0478132 0.289686 9.54745e-20)
(-0.0457017 0.296431 -4.74243e-20)
(-0.0431486 0.301707 -9.43547e-20)
(-0.0401816 0.305552 9.38113e-20)
(-0.0368287 0.308021 -9.32289e-20)
(-0.0331201 0.309185 4.6518e-20)
(-0.0290888 0.309125 0)
(-0.0247741 0.307937 0)
(-0.020223 0.305726 3.88282e-22)
(-0.0154813 0.302607 -1.79826e-19)
(-0.0106559 0.298776 8.90997e-20)
(-0.00595593 0.294479 -1.00163e-19)
(-0.000699518 0.00227114 0)
(-0.00406419 0.0132375 -8.72367e-20)
(-0.00939439 0.0293419 8.91143e-20)
(-0.0154103 0.0480903 0)
(-0.0216672 0.0680554 -1.84662e-19)
(-0.027806 0.0884357 -2.33874e-20)
(-0.0336021 0.108747 -4.72996e-20)
(-0.0389156 0.128697 -2.37923e-20)
(-0.043655 0.1481 0)
(-0.0477663 0.166814 -4.81473e-20)
(-0.0512241 0.184719 4.8195e-20)
(-0.0540175 0.2017 9.67071e-20)
(-0.0561469 0.217642 -9.67499e-20)
(-0.0576235 0.232433 0)
(-0.0584645 0.245974 -9.65563e-20)
(-0.0586902 0.258179 9.61203e-20)
(-0.0583252 0.268978 9.60571e-20)
(-0.0573943 0.278328 1.43308e-19)
(-0.0559223 0.286203 -1.42815e-19)
(-0.0539352 0.292602 1.89381e-19)
(-0.05146 0.297545 9.43302e-20)
(-0.0485228 0.301069 -9.38106e-20)
(-0.0451504 0.303232 1.86053e-19)
(-0.0413724 0.304105 0)
(-0.037223 0.303778 9.1502e-20)
(-0.0327432 0.302351 1.81963e-19)
(-0.0279838 0.299943 -8.96867e-20)
(-0.0229978 0.296684 8.98474e-20)
(-0.0179107 0.292788 -1.68491e-22)
(-0.0129437 0.288523 -9.9708e-20)
(-0.000859233 0.00273974 -1.00191e-20)
(-0.00465736 0.01423 0)
(-0.0105222 0.0306035 -1.11376e-19)
(-0.0170939 0.049448 2.26861e-20)
(-0.0238994 0.0693777 6.92054e-20)
(-0.0305668 0.0896209 2.33357e-20)
(-0.0368665 0.109716 9.42559e-20)
(-0.0426568 0.129387 0)
(-0.0478451 0.14846 4.78625e-20)
(-0.0523763 0.166809 4.79966e-20)
(-0.0562234 0.184324 -4.82128e-20)
(-0.0593749 0.200901 1.44576e-19)
(-0.0618299 0.216432 0)
(-0.0635977 0.230815 0)
(-0.0646945 0.243953 1.44344e-19)
(-0.0651399 0.255764 -2.39958e-19)
(-0.0649566 0.266181 9.557e-20)
(-0.0641677 0.275161 -9.54432e-20)
(-0.0627964 0.282678 -9.472e-20)
(-0.0608676 0.288732 -2.83254e-19)
(-0.0584061 0.293339 -3.09896e-22)
(-0.0554361 0.296538 9.30547e-20)
(-0.0519828 0.298388 -1.8524e-19)
(-0.048075 0.298962 9.1742e-20)
(-0.0437465 0.298355 -4.64308e-22)
(-0.0390401 0.296677 -9.07953e-20)
(-0.0340101 0.29406 9.00644e-20)
(-0.0287159 0.290652 0)
(-0.0232989 0.286688 8.79749e-20)
(-0.0180006 0.282464 2.37495e-22)
(-0.00103946 0.00321167 -2.00054e-20)
(-0.00527111 0.0152195 2.17212e-20)
(-0.0116347 0.031848 -1.33271e-19)
(-0.0187081 0.0507723 -6.78816e-20)
(-0.025994 0.0706549 9.19674e-20)
(-0.0331131 0.0907546 -1.39786e-19)
(-0.039834 0.110629 -4.71831e-20)
(-0.0460141 0.130018 -9.48667e-20)
(-0.051562 0.148763 9.54376e-20)
(-0.0564226 0.166748 -1.91833e-19)
(-0.0605686 0.183876 -9.61026e-20)
(-0.0639881 0.200051 -1.59408e-22)
(-0.0666794 0.215177 4.82149e-20)
(-0.0686508 0.229156 -1.44204e-19)
(-0.0699178 0.241897 -1.92103e-19)
(-0.0704988 0.25332 -9.62473e-24)
(-0.0704148 0.263362 -2.42724e-22)
(-0.0696875 0.271979 9.4904e-20)
(-0.0683388 0.279146 9.47189e-20)
(-0.0663918 0.284858 4.2452e-23)
(-0.0638693 0.289134 -2.36279e-22)
(-0.0607932 0.292011 9.23629e-20)
(-0.0571871 0.293546 9.24147e-20)
(-0.0530785 0.293816 -1.14729e-22)
(-0.0485005 0.29292 -2.72635e-19)
(-0.0434966 0.290979 1.79761e-19)
(-0.0381243 0.28814 1.7875e-19)
(-0.0324489 0.284571 -1.76811e-19)
(-0.0266244 0.280534 -8.79737e-20)
(-0.0209214 0.276359 -9.77741e-20)
(-0.0012394 0.00367991 -1.79603e-19)
(-0.00590299 0.016187 -2.16844e-20)
(-0.0127276 0.0330498 1.11006e-19)
(-0.0202462 0.0520368 9.05297e-20)
(-0.0279431 0.0718601 -9.19664e-20)
(-0.0354347 0.0918087 9.31522e-20)
(-0.042491 0.111461 -4.70455e-20)
(-0.0489708 0.13057 1.42236e-19)
(-0.0547849 0.148989 -9.54365e-20)
(-0.05988 0.166616 9.58427e-20)
(-0.0642292 0.183363 4.80449e-20)
(-0.0678207 0.199146 -4.81982e-20)
(-0.0706526 0.213875 -2.8838e-19)
(-0.0727331 0.22746 1.92087e-19)
(-0.0740768 0.239815 9.59494e-20)
(-0.0747011 0.250863 0)
(-0.0746251 0.260542 0)
(-0.0738693 0.268808 -5.1446e-22)
(-0.0724548 0.275637 -9.40802e-20)
(-0.0704026 0.281021 0)
(-0.0677334 0.284976 0)
(-0.0644674 0.287538 -9.26691e-20)
(-0.0606264 0.288762 0)
(-0.0562361 0.288728 -1.81705e-19)
(-0.0513287 0.28754 0)
(-0.0459477 0.285327 -8.98036e-20)
(-0.0401539 0.282253 1.7766e-19)
(-0.0340175 0.27851 -1.75733e-19)
(-0.027701 0.274392 0)
(-0.0215134 0.270272 0)
(-0.00145726 0.00413539 1.59631e-19)
(-0.0065491 0.017114 0)
(-0.0137958 0.0341856 -2.21508e-20)
(-0.0217027 0.0532144 2.25723e-20)
(-0.0297398 0.0729643 -1.37436e-19)
(-0.0375233 0.0927548 3.88891e-23)
(-0.044827 0.112183 -4.69231e-20)
(-0.0515134 0.131016 0)
(-0.0574969 0.149117 0)
(-0.0627273 0.166395 -4.78489e-20)
(-0.067179 0.182773 4.78963e-20)
(-0.070841 0.198176 -9.60735e-20)
(-0.0737121 0.212522 9.62342e-20)
(-0.0758004 0.225728 0)
(-0.0771197 0.237712 0)
(-0.0776862 0.248401 0)
(-0.0775182 0.257736 9.46103e-20)
(-0.0766349 0.265671 -2.74257e-22)
(-0.075056 0.27218 9.43633e-20)
(-0.0728009 0.277254 -1.86454e-19)
(-0.0698889 0.280906 9.28454e-20)
(-0.0663386 0.283168 -4.60125e-19)
(-0.0621704 0.284094 2.59791e-22)
(-0.0574083 0.283764 1.81702e-19)
(-0.052083 0.282285 -6.11863e-22)
(-0.0462384 0.279798 1.77961e-19)
(-0.0399382 0.276479 -1.7591e-19)
(-0.0332568 0.272547 -1.74871e-19)
(-0.0263599 0.268337 4.74523e-22)
(-0.0196042 0.264274 -1.91775e-19)
(-0.00169057 0.00457022 -1.99001e-20)
(-0.00720475 0.0179836 0)
(-0.0148345 0.0352327 4.42234e-20)
(-0.0230724 0.0542786 -4.50648e-20)
(-0.0313786 0.073939 4.12133e-19)
(-0.0393727 0.0935636 4.10919e-23)
(-0.0468345 0.112768 -4.68462e-20)
(-0.0536324 0.131329 4.72806e-20)
(-0.0596858 0.149122 -2.37489e-19)
(-0.0649487 0.166064 0)
(-0.069398 0.182088 0)
(-0.0730242 0.197127 -9.5571e-20)
(-0.0758273 0.211108 9.60597e-20)
(-0.0778157 0.223954 -9.5757e-20)
(-0.0790024 0.235588 9.5351e-20)
(-0.0794027 0.245942 0)
(-0.0790341 0.254955 -3.78811e-19)
(-0.077915 0.262584 1.88164e-19)
(-0.0760639 0.268798 9.37431e-20)
(-0.0734988 0.273587 2.79255e-19)
(-0.0702381 0.27696 0)
(-0.0662995 0.278946 1.83782e-19)
(-0.0617025 0.279595 1.81789e-19)
(-0.0564698 0.278987 1.80234e-19)
(-0.0506313 0.277229 -9.58678e-22)
(-0.0442312 0.27447 -1.76566e-19)
(-0.037336 0.270901 1.75905e-19)
(-0.030024 0.266769 0)
(-0.0224582 0.262454 5.14216e-22)
(-0.0150507 0.258447 3.81852e-19)
(-0.00193667 0.00497744 -1.58747e-19)
(-0.00786485 0.0187802 0)
(-0.0158388 0.0361698 -1.76379e-19)
(-0.0243511 0.0552042 -2.24799e-19)
(-0.0328559 0.0747563 -1.37306e-19)
(-0.0409793 0.0942055 4.63318e-20)
(-0.0485095 0.113184 5.28946e-23)
(-0.0553225 0.13148 -4.71437e-20)
(-0.0613443 0.148976 3.07751e-22)
(-0.0665344 0.165598 9.5386e-20)
(-0.0708729 0.181286 9.54655e-20)
(-0.074353 0.195982 -9.53956e-20)
(-0.0769762 0.20962 9.55453e-20)
(-0.0787513 0.22213 -2.86325e-19)
(-0.0796911 0.23344 2.85404e-19)
(-0.0798101 0.243484 1.89542e-19)
(-0.0791254 0.252204 4.72329e-19)
(-0.0776547 0.259555 -9.44242e-20)
(-0.0754153 0.265505 -1.86429e-19)
(-0.072425 0.270042 -6.59708e-22)
(-0.0687014 0.273169 -1.84178e-19)
(-0.0642626 0.27491 5.47429e-19)
(-0.0591276 0.275314 -3.62953e-19)
(-0.0533191 0.274454 3.58361e-19)
(-0.0468668 0.272441 -1.78253e-19)
(-0.0398157 0.269425 3.52109e-19)
(-0.0322357 0.26561 5.86465e-22)
(-0.0242087 0.26127 -3.45024e-19)
(-0.0158889 0.256837 3.40799e-19)
(-0.00774903 0.252881 1.88032e-19)
(-0.00219261 0.00535104 1.58747e-19)
(-0.00852431 0.0194902 0)
(-0.0168043 0.0369777 3.96481e-19)
(-0.0255354 0.0559674 1.34896e-19)
(-0.0341695 0.0753886 0)
(-0.042342 0.0946505 0)
(-0.0498515 0.113401 0)
(-0.0565832 0.131437 0)
(-0.0624712 0.148649 9.48473e-20)
(-0.0674814 0.164967 9.50857e-20)
(-0.0715987 0.180341 -1.90943e-19)
(-0.0748193 0.194717 1.91134e-19)
(-0.077147 0.208037 2.86222e-19)
(-0.0785914 0.220238 9.55504e-20)
(-0.0791653 0.231253 9.46675e-20)
(-0.078883 0.241018 -2.84128e-19)
(-0.0777612 0.249477 -3.76802e-19)
(-0.0758171 0.256585 -1.87607e-19)
(-0.0730678 0.262308 1.86425e-19)
(-0.069531 0.26663 -3.69991e-19)
(-0.0652248 0.26955 1.83278e-19)
(-0.0601682 0.271089 -3.64099e-19)
(-0.0543813 0.271287 1.7979e-19)
(-0.0478877 0.270217 -8.06472e-22)
(-0.0407184 0.267983 -1.76772e-19)
(-0.0329201 0.264738 -3.50605e-19)
(-0.0245668 0.260694 3.46958e-19)
(-0.0157448 0.256147 0)
(-0.00659298 0.251588 -5.67016e-22)
(0.00235411 0.247677 -3.7406e-19)
(-0.00245543 0.00568615 1.97842e-20)
(-0.00917817 0.0201025 0)
(-0.0177268 0.0376396 -1.76042e-19)
(-0.0266232 0.0565465 4.4837e-20)
(-0.0353193 0.0758101 -4.55279e-20)
(-0.0434628 0.0948689 0)
(-0.0508639 0.113386 -4.66607e-20)
(-0.0574189 0.131167 4.69828e-20)
(-0.0630712 0.148106 9.46655e-20)
(-0.0677945 0.164139 -2.84742e-19)
(-0.0715791 0.17922 -9.52927e-20)
(-0.0744253 0.193302 -1.37873e-22)
(-0.07634 0.206334 -1.84894e-22)
(-0.0773339 0.218256 -1.90176e-19)
(-0.0774204 0.229007 -9.50795e-20)
(-0.0766139 0.238527 0)
(-0.074931 0.246761 1.68459e-22)
(-0.0723889 0.253664 1.87039e-19)
(-0.069005 0.2592 -1.85448e-19)
(-0.0647979 0.263351 0)
(-0.0597871 0.266111 0)
(-0.0539935 0.267495 0)
(-0.0474395 0.267539 0)
(-0.0401514 0.266308 -8.85504e-22)
(-0.0321631 0.263904 0)
(-0.0235239 0.260473 0)
(-0.0143133 0.25623 1.71647e-19)
(-0.00462338 0.251493 1.69745e-19)
(0.00542797 0.246808 1.68389e-19)
(0.0152489 0.242936 -6.58625e-22)
(-0.00272231 0.00597925 1.97431e-20)
(-0.00982194 0.0206084 -4.28844e-20)
(-0.0186035 0.0381415 2.63105e-19)
(-0.0276135 0.0569226 -4.47243e-20)
(-0.0363071 0.0759968 4.54793e-20)
(-0.044346 0.0948324 5.05922e-23)
(-0.0515537 0.113108 1.39496e-19)
(-0.0578387 0.130636 -1.87552e-19)
(-0.0631553 0.147312 2.83197e-19)
(-0.0674857 0.163077 1.66752e-22)
(-0.070827 0.177888 -9.49471e-20)
(-0.0731847 0.191703 1.90084e-19)
(-0.0745688 0.204475 -1.89962e-19)
(-0.0749923 0.21615 1.89586e-19)
(-0.0744695 0.226672 0)
(-0.0730157 0.235984 1.88154e-19)
(-0.0706479 0.244031 0)
(-0.0673836 0.25077 5.48037e-22)
(-0.0632415 0.256164 -1.84615e-19)
(-0.0582418 0.26019 -1.83149e-19)
(-0.0524066 0.262841 1.81572e-19)
(-0.0457597 0.264125 -1.799e-19)
(-0.0383274 0.264073 -1.78146e-19)
(-0.0301401 0.262743 -3.53526e-19)
(-0.0212362 0.260229 -1.74456e-19)
(-0.0116694 0.25667 1.72998e-19)
(-0.00152551 0.252279 -3.42796e-19)
(0.00909473 0.247384 -1.69738e-19)
(0.0200991 0.242586 0)
(0.0308502 0.238756 -1.83175e-19)
(-0.00299076 0.00622828 0)
(-0.0104518 0.0210019 1.70982e-19)
(-0.019432 0.0384729 -1.3154e-19)
(-0.0285069 0.0570799 -2.23024e-19)
(-0.0371364 0.0759272 0)
(-0.0449985 0.0945142 0)
(-0.0519311 0.112535 -2.78998e-19)
(-0.0578564 0.129807 3.74626e-19)
(-0.0627405 0.146228 -2.82851e-19)
(-0.0665752 0.161741 0)
(-0.0693653 0.176303 9.49886e-20)
(-0.0711225 0.189878 -9.51941e-20)
(-0.0718612 0.202421 3.78679e-22)
(-0.0715968 0.213882 -9.51374e-20)
(-0.0703457 0.22421 -9.42088e-20)
(-0.0681246 0.23335 -4.63663e-22)
(-0.0649515 0.241252 1.8663e-19)
(-0.0608453 0.247869 1.85946e-19)
(-0.0558266 0.253166 2.98115e-22)
(-0.0499185 0.257118 3.65963e-19)
(-0.0431463 0.259713 -3.62754e-19)
(-0.0355383 0.260955 3.59437e-19)
(-0.0271256 0.260871 1.78139e-19)
(-0.0179447 0.259511 1.7632e-19)
(-0.00804002 0.256958 9.06816e-22)
(0.00252917 0.253344 0)
(0.0136694 0.248871 1.70038e-19)
(0.0252686 0.243869 -5.04358e-19)
(0.0372627 0.238987 1.65878e-19)
(0.0489879 0.235211 1.81149e-19)
(-0.00325875 0.0064327 -1.17765e-19)
(-0.0110648 0.0212802 -3.84296e-19)
(-0.0202111 0.0386267 -1.64109e-23)
(-0.0293045 0.057006 3.4517e-22)
(-0.0378119 0.0755834 -1.35659e-19)
(-0.045429 0.0938907 0)
(-0.0520092 0.111637 -9.24951e-20)
(-0.0574896 0.128645 -5.61083e-19)
(-0.061849 0.144816 2.8237e-19)
(-0.06509 0.160088 -1.88775e-19)
(-0.0672259 0.174422 2.83975e-19)
(-0.0682757 0.187781 -9.47053e-20)
(-0.0682589 0.200123 1.89576e-19)
(-0.0671946 0.211404 -4.72472e-19)
(-0.065102 0.221573 2.82662e-19)
(-0.062 0.23058 -2.01091e-22)
(-0.0579089 0.238375 -5.59088e-19)
(-0.0528497 0.244914 1.85112e-19)
(-0.0468461 0.250161 -1.83724e-19)
(-0.0399249 0.254088 0)
(-0.0321159 0.256681 1.80182e-19)
(-0.0234527 0.257942 0)
(-0.013973 0.257892 -1.76854e-19)
(-0.00372041 0.256573 1.75115e-19)
(0.00725323 0.25406 1.73535e-19)
(0.018882 0.250472 1.70649e-19)
(0.0310641 0.245998 0)
(0.0436738 0.240957 0)
(0.0566745 0.236038 -3.31103e-19)
(0.0694031 0.232348 5.35663e-19)
(-0.00352488 0.00659339 1.17861e-19)
(-0.0116588 0.021443 2.13221e-19)
(-0.0209404 0.0385992 -1.74212e-19)
(-0.0300087 0.0566926 3.55648e-19)
(-0.0383392 0.0749513 4.55901e-20)
(-0.0456471 0.0929415 4.58759e-20)
(-0.0518027 0.110388 5.01466e-22)
(-0.0567586 0.12712 -1.863e-19)
(-0.0605071 0.143036 -9.37917e-20)
(-0.0630628 0.158075 3.65475e-22)
(-0.0644485 0.172196 -3.69755e-22)
(-0.0646911 0.185361 -2.83593e-19)
(-0.0638166 0.19753 -9.43496e-20)
(-0.0618488 0.208661 4.13048e-22)
(-0.0588106 0.218705 1.87662e-19)
(-0.0547246 0.227615 1.8674e-19)
(-0.049614 0.235343 5.03276e-22)
(-0.0435035 0.241846 -1.84303e-19)
(-0.036421 0.247087 1.83072e-19)
(-0.0283979 0.251038 -1.81591e-19)
(-0.0194699 0.253684 -3.5968e-19)
(-0.00967691 0.255022 -1.77937e-19)
(0.000935951 0.25507 3.52023e-19)
(0.0123169 0.253865 0)
(0.0244055 0.251471 -1.71787e-19)
(0.0371286 0.247996 -3.40383e-19)
(0.0503765 0.243609 -3.36065e-19)
(0.0640077 0.238613 1.66793e-19)
(0.0780105 0.233721 -4.92579e-19)
(0.0917541 0.230163 1.76965e-19)
(-0.00378842 0.00671251 -1.95478e-19)
(-0.0122328 0.0214931 4.25131e-20)
(-0.0216203 0.0383905 1.74214e-19)
(-0.0306217 0.0561357 -1.33252e-19)
(-0.0387238 0.0740219 4.52458e-20)
(-0.0456628 0.0916514 -1.20288e-22)
(-0.0513268 0.108767 4.61787e-19)
(-0.0556848 0.125201 1.86481e-19)
(-0.0587436 0.140855 1.87629e-19)
(-0.0605303 0.155662 2.82579e-19)
(-0.0610784 0.16958 -2.83105e-19)
(-0.0604238 0.182568 1.88962e-19)
(-0.0585996 0.194587 3.77457e-19)
(-0.0556358 0.205594 1.88212e-19)
(-0.0515603 0.215545 -1.99495e-22)
(-0.0464003 0.224392 -3.73215e-19)
(-0.0401838 0.232089 3.70933e-19)
(-0.0329401 0.238595 2.38588e-22)
(-0.0247026 0.243872 -1.82464e-19)
(-0.0155087 0.247894 1.80987e-19)
(-0.00540084 0.250642 1.79498e-19)
(0.0055737 0.252114 -1.7697e-19)
(0.0173616 0.252323 -3.51019e-19)
(0.0299022 0.2513 2.73976e-22)
(0.0431261 0.249103 1.72326e-19)
(0.0569528 0.245824 1.69734e-19)
(0.0712657 0.241615 3.34169e-19)
(0.0859074 0.236754 -3.29612e-19)
(0.100885 0.231965 0)
(0.115635 0.228604 1.74708e-19)
(-0.00404939 0.00679342 3.8065e-22)
(-0.0127865 0.0214354 0)
(-0.0222512 0.0380046 -1.29991e-19)
(-0.0311456 0.0553363 -4.42443e-20)
(-0.0389705 0.0727916 -1.79741e-19)
(-0.0454846 0.0900113 0)
(-0.0505951 0.106757 -2.76797e-19)
(-0.0542885 0.122867 9.28833e-20)
(-0.0565864 0.138242 0)
(-0.0575297 0.152812 -1.87642e-19)
(-0.0571632 0.16653 0)
(-0.0555324 0.179353 -2.82407e-19)
(-0.052679 0.191238 2.82026e-19)
(-0.0486401 0.202145 -1.87926e-19)
(-0.0434503 0.212028 -1.86759e-19)
(-0.0371427 0.220842 0)
(-0.0297513 0.228542 0)
(-0.0213116 0.235086 1.8341e-19)
(-0.0118637 0.240439 -1.71497e-22)
(-0.00145215 0.244574 1.79775e-19)
(0.00987307 0.247471 -1.78622e-19)
(0.0220563 0.249127 3.53429e-19)
(0.0350355 0.249553 -1.74792e-19)
(0.0487408 0.248776 0)
(0.063094 0.246845 5.11687e-19)
(0.0780076 0.243842 -8.41772e-19)
(0.0933598 0.239899 1.67065e-19)
(0.108978 0.235264 1.64677e-19)
(0.124883 0.23066 1.61719e-19)
(0.140608 0.227571 3.43644e-19)
(-0.00430859 0.00684049 -1.55191e-19)
(-0.0133206 0.0212774 3.38029e-19)
(-0.0228338 0.037449 1.73412e-19)
(-0.0315816 0.0543001 3.97011e-19)
(-0.0390819 0.071263 4.93538e-19)
(-0.0451181 0.0880194 9.1054e-20)
(-0.0496182 0.10435 -4.59409e-19)
(-0.0525865 0.120103 0)
(-0.0540606 0.135176 -3.72931e-19)
(-0.0540954 0.149497 -1.86845e-19)
(-0.0527481 0.163011 0)
(-0.0500746 0.175672 -1.87358e-19)
(-0.0461262 0.187436 -1.53083e-22)
(-0.0409482 0.198259 -5.61342e-19)
(-0.0345833 0.208095 1.86755e-19)
(-0.0270721 0.216901 1.855e-19)
(-0.0184556 0.224631 -3.68261e-19)
(-0.00877717 0.231245 -3.65855e-19)
(0.00191547 0.236708 2.10437e-22)
(0.0135694 0.240993 -1.86188e-22)
(0.0261263 0.244081 0)
(0.0395217 0.245967 -1.75755e-19)
(0.0536845 0.246661 -1.73038e-19)
(0.0685354 0.246186 0)
(0.0839881 0.244584 0)
(0.0999483 0.241929 5.02878e-19)
(0.116291 0.238333 -4.95523e-19)
(0.132833 0.23401 0)
(0.149597 0.229669 4.82223e-19)
(0.166242 0.22693 -3.40961e-19)
(-0.00456745 0.00685881 7.97768e-22)
(-0.013836 0.0210284 -3.38027e-19)
(-0.0233682 0.0367344 -4.31864e-20)
(-0.0319286 0.053038 -4.40988e-19)
(-0.0390575 0.0694456 -2.69151e-19)
(-0.0445648 0.0856822 9.08488e-20)
(-0.0484009 0.101551 1.83956e-19)
(-0.0505891 0.116907 4.6227e-19)
(-0.0511837 0.131648 3.72932e-19)
(-0.0502541 0.145699 3.74486e-19)
(-0.0478704 0.158998 0)
(-0.0441001 0.171495 8.3947e-22)
(-0.0390045 0.183141 0)
(-0.0326387 0.193891 3.74111e-19)
(-0.0250544 0.203697 0)
(-0.0163008 0.212513 -1.84995e-19)
(-0.00642765 0.220297 1.84903e-19)
(0.00451315 0.227007 0)
(0.016465 0.23261 0)
(0.0293661 0.237077 -5.3644e-19)
(0.0431491 0.240393 1.77367e-19)
(0.0577402 0.24255 0)
(0.0730591 0.243557 3.46809e-19)
(0.0890178 0.243435 3.42924e-19)
(0.105522 0.24222 -6.75852e-19)
(0.12247 0.239976 6.67234e-19)
(0.139737 0.236798 4.33218e-22)
(0.157131 0.232867 3.24188e-19)
(0.174669 0.228861 -3.21662e-19)
(0.192156 0.226544 0)
(-0.00482796 0.00685384 3.87863e-19)
(-0.0143339 0.020699 -4.2095e-20)
(-0.023853 0.0358748 -3.44248e-19)
(-0.0321833 0.0515657 0)
(-0.0388923 0.067356 -3.56936e-19)
(-0.0438197 0.0830156 0)
(-0.0469401 0.098371 -4.57444e-19)
(-0.0482971 0.113287 -2.77527e-19)
(-0.0479621 0.127663 -3.71259e-19)
(-0.0460197 0.141418 0)
(-0.0425536 0.154486 9.35709e-20)
(-0.0376432 0.16681 9.45504e-20)
(-0.0313606 0.178337 -1.86831e-19)
(-0.0237719 0.189017 -3.72287e-19)
(-0.0149385 0.198801 -1.85131e-19)
(-0.0049194 0.207643 -7.37652e-19)
(0.00622625 0.215498 3.6727e-19)
(0.018437 0.222326 2.25614e-22)
(0.0316468 0.228094 2.81145e-22)
(0.0457844 0.232774 5.36129e-19)
(0.0607731 0.23635 0)
(0.0765298 0.238816 0)
(0.0929648 0.240179 -1.13465e-21)
(0.109981 0.240456 2.95186e-22)
(0.127476 0.23968 -3.35653e-19)
(0.145343 0.237905 -3.31633e-19)
(0.163454 0.235211 1.19096e-21)
(0.181614 0.231744 -3.24173e-19)
(0.199828 0.228141 -3.18854e-19)
(0.218053 0.226306 1.15264e-21)
(-0.00509238 0.00683097 0)
(-0.0148147 0.0203004 3.35404e-19)
(-0.024285 0.0348863 3.0126e-19)
(-0.0323381 0.0499039 4.38121e-20)
(-0.0385756 0.0650181 7.12979e-19)
(-0.04287 0.0800455 -9.042e-20)
(-0.0452227 0.094838 7.30582e-19)
(-0.0456986 0.109271 3.67905e-19)
(-0.0443871 0.123246 5.56669e-19)
(-0.0413886 0.136676 2.78913e-19)
(-0.0368005 0.149492 9.3352e-20)
(-0.0307146 0.161628 4.67271e-19)
(-0.0232149 0.173029 9.08067e-23)
(-0.0143783 0.183639 1.86404e-19)
(-0.00427716 0.193407 3.70679e-19)
(0.00701927 0.202284 3.68582e-19)
(0.0194418 0.210225 0)
(0.0329191 0.21719 0)
(0.0473755 0.223146 0)
(0.0627299 0.228066 0)
(0.0788963 0.231934 3.5117e-19)
(0.095782 0.234745 0)
(0.113288 0.236504 -2.44907e-22)
(0.131307 0.237227 6.78258e-19)
(0.149729 0.236941 3.3534e-19)
(0.168438 0.235691 3.3095e-19)
(0.187305 0.233545 6.52228e-19)
(0.206131 0.230611 0)
(0.224903 0.227471 -6.34006e-19)
(0.243737 0.226166 6.62496e-19)
(-0.00536295 0.00679517 3.07861e-19)
(-0.0152782 0.0198442 -3.35412e-19)
(-0.0246581 0.0337869 0)
(-0.0323811 0.0480771 -3.49265e-19)
(-0.0380898 0.0624626 -8.98961e-20)
(-0.0416937 0.076808 -2.69961e-19)
(-0.0432233 0.0909916 -8.20131e-19)
(-0.0427663 0.104901 -1.069e-21)
(-0.0404313 0.118439 -2.77068e-19)
(-0.0363345 0.131516 -6.50039e-19)
(-0.0305874 0.144057 -9.30207e-20)
(-0.0232947 0.155992 -3.7198e-19)
(-0.0145522 0.167259 -3.71456e-19)
(-0.00444838 0.177797 0)
(0.00693335 0.187552 -3.68648e-19)
(0.0195133 0.196473 -5.4988e-19)
(0.0332119 0.204514 1.82297e-19)
(0.0479479 0.211634 -3.60806e-19)
(0.0636359 0.2178 -3.5743e-19)
(0.0801854 0.222987 0)
(0.0975005 0.227179 -7.00984e-19)
(0.115479 0.230371 0)
(0.134011 0.232568 -6.84496e-19)
(0.15298 0.233783 -3.37269e-19)
(0.172263 0.23404 -6.66724e-19)
(0.191736 0.233377 3.28494e-19)
(0.211261 0.231843 -9.74062e-19)
(0.230637 0.229513 3.19396e-19)
(0.249825 0.2269 1.56975e-21)
(0.269103 0.226164 -3.26694e-19)
(-0.0056415 0.00675064 -3.07868e-19)
(-0.0157222 0.0193412 4.17645e-20)
(-0.0249631 0.032596 2.98724e-19)
(-0.0322951 0.0461138 3.49272e-19)
(-0.0374098 0.059727 -3.55119e-19)
(-0.0402583 0.073349 9.55249e-22)
(-0.040903 0.0868857 3.64013e-19)
(-0.0394562 0.100237 -7.3336e-19)
(-0.0360461 0.113308 -9.13788e-20)
(-0.0308056 0.126009 8.33689e-19)
(-0.0238604 0.138257 -5.5667e-19)
(-0.0153279 0.149978 9.28645e-19)
(-0.00531626 0.161104 9.27395e-19)
(0.00607465 0.171571 -1.84899e-19)
(0.0187504 0.181319 3.68645e-19)
(0.0326206 0.190295 5.49312e-19)
(0.0475956 0.198451 1.80924e-19)
(0.0635844 0.205747 1.21995e-21)
(0.0804917 0.212148 1.79226e-19)
(0.0982176 0.21763 1.76751e-19)
(0.116656 0.222179 -1.72938e-19)
(0.135695 0.22579 1.72736e-19)
(0.155213 0.228468 -3.39913e-19)
(0.175081 0.230226 3.3702e-19)
(0.195161 0.231083 1.57106e-21)
(0.215313 0.231068 3.26549e-19)
(0.235389 0.230218 1.61464e-21)
(0.255176 0.228573 -3.18914e-19)
(0.274602 0.22656 4.36925e-22)
(0.294107 0.226429 0)
(-0.00592917 0.00670058 0)
(-0.0161427 0.0188015 0)
(-0.0251868 0.0313336 -3.84107e-19)
(-0.0320566 0.0440451 4.34547e-20)
(-0.036502 0.0568542 0)
(-0.0385202 0.0697236 3.59069e-19)
(-0.0382088 0.0825868 9.0727e-20)
(-0.0357059 0.0953565 2.74862e-19)
(-0.0311608 0.107942 3.68539e-19)
(-0.0247233 0.12025 -3.70088e-19)
(-0.0165332 0.132195 3.70896e-19)
(-0.00672115 0.143699 -3.71001e-19)
(0.00459273 0.154685 -3.70448e-19)
(0.017297 0.165087 0)
(0.0312864 0.174839 0)
(0.0464599 0.183887 0)
(0.062718 0.19218 -3.62655e-19)
(0.0799595 0.199676 5.3886e-19)
(0.0980795 0.206341 -1.77937e-19)
(0.116968 0.212151 0)
(0.136509 0.217093 5.2202e-19)
(0.156578 0.221162 -1.72016e-19)
(0.177042 0.224364 3.39904e-19)
(0.197755 0.226712 -6.68028e-19)
(0.218563 0.228226 6.61761e-19)
(0.239303 0.228928 -1.29835e-21)
(0.259805 0.228842 3.39142e-22)
(0.279838 0.227975 3.17238e-19)
(0.299282 0.226652 5.86717e-22)
(0.318723 0.227181 3.22569e-19)
(-0.00622594 0.00664683 3.82031e-20)
(-0.0165326 0.0182337 -4.1507e-20)
(-0.0253113 0.0300192 8.50408e-20)
(-0.0316363 0.0419035 -5.19732e-19)
(-0.0353248 0.0538914 8.81047e-20)
(-0.0364254 0.0659939 0)
(-0.0350738 0.0781723 3.61073e-19)
(-0.0314363 0.0903519 -3.64217e-19)
(-0.0256836 0.102446 0)
(-0.0179832 0.11436 4.60272e-19)
(-0.0084896 0.126006 -9.22904e-20)
(0.00265368 0.137299 0)
(0.0153142 0.148159 -1.84414e-19)
(0.0293691 0.158513 3.67585e-19)
(0.044702 0.168292 -1.82974e-19)
(0.0612013 0.177437 1.81639e-19)
(0.0787569 0.185895 -3.60756e-19)
(0.0972572 0.193624 3.78086e-22)
(0.116587 0.200587 4.42907e-22)
(0.136626 0.206759 -1.74165e-19)
(0.157245 0.212128 -3.45671e-19)
(0.17831 0.216691 1.14697e-21)
(0.19967 0.220455 1.41816e-21)
(0.221165 0.223436 3.3387e-19)
(0.242619 0.225656 -3.27968e-19)
(0.263841 0.227139 3.24961e-19)
(0.284625 0.227908 -6.39144e-19)
(0.304703 0.22794 -4.28829e-22)
(0.323891 0.227455 -6.20954e-19)
(0.342853 0.228774 3.19915e-19)
(-0.00652995 0.00658941 0)
(-0.0168814 0.0176441 -3.30509e-19)
(-0.0253139 0.0286709 0)
(-0.0309981 0.039722 1.05592e-21)
(-0.0338281 0.0508881 8.79889e-20)
(-0.0339094 0.0622274 1.59903e-22)
(-0.0314189 0.0737281 -7.20939e-19)
(-0.0265528 0.0853274 2.73382e-19)
(-0.0195047 0.0969426 0)
(-0.0104603 0.10848 -4.6001e-19)
(0.000410835 0.119846 9.20236e-20)
(0.0129516 0.130953 0)
(0.027017 0.141715 -1.83829e-19)
(0.0424721 0.152052 1.8324e-19)
(0.0591889 0.161892 1.81757e-19)
(0.0770445 0.171171 3.62221e-19)
(0.095917 0.179833 -1.79877e-19)
(0.115683 0.187832 0)
(0.136216 0.195129 0)
(0.157383 0.201698 3.49548e-19)
(0.179043 0.207525 -3.44073e-19)
(0.201047 0.212608 3.40942e-19)
(0.223232 0.216956 3.3671e-19)
(0.245422 0.22059 3.30705e-19)
(0.267422 0.223542 -3.27344e-19)
(0.289015 0.225853 3.23071e-19)
(0.309946 0.227563 3.17177e-19)
(0.329868 0.228665 -3.13732e-19)
(0.348451 0.229358 1.06588e-21)
(0.36612 0.23191 6.33524e-19)
(-0.00683949 0.00652876 3.79739e-20)
(-0.0171769 0.0170387 2.89348e-19)
(-0.0251684 0.0273069 0)
(-0.0301014 0.0375342 3.45336e-19)
(-0.0319562 0.0478959 0)
(-0.0309007 0.0584953 0)
(-0.027156 0.0693455 2.70111e-19)
(-0.0209509 0.0803953 -1.60764e-22)
(-0.0125026 0.0915658 9.11643e-20)
(-0.00201634 0.102763 9.16649e-20)
(0.0103221 0.11389 -2.75403e-19)
(0.0243411 0.124854 1.83539e-19)
(0.0398821 0.135562 0)
(0.0567969 0.145929 0)
(0.0749443 0.155878 -3.63967e-19)
(0.0941882 0.165338 0)
(0.114393 0.174248 -1.78821e-19)
(0.135422 0.182557 1.77593e-19)
(0.157135 0.190224 1.75304e-19)
(0.179383 0.197217 -5.68393e-22)
(0.202013 0.20352 -1.71813e-19)
(0.224862 0.20913 0)
(0.247756 0.214056 -3.33455e-19)
(0.270512 0.218326 3.30167e-19)
(0.292931 0.221985 0)
(0.314793 0.225102 0)
(0.33584 0.227774 0)
(0.355691 0.230104 0)
(0.373816 0.232515 -3.06569e-19)
(0.389379 0.23721 6.27247e-19)
(0.049613 0.2987 -0.00954214)
(0.0720229 0.266215 -0.00983291)
(0.1007 0.236659 -0.0099479)
(0.124706 0.216199 -0.0100129)
(0.147391 0.205273 -0.0100092)