/*--------------------------------*- C++ -*----------------------------------*\
  =========                 |
  \\      /  F ield         | OpenFOAM: The Open Source CFD Toolbox
   \\    /   O peration     | Website:  https://openfoam.org
    \\  /    A nd           | Version:  7
     \\/     M anipulation  |
\*---------------------------------------------------------------------------*/
FoamFile
{
    version     2.0;
    format      ascii;
    class       volVectorField;
    location    "2.6";
    object      U;
}
// * * * * * * * * * * * * * * * * * * * * * * * * * * * * * * * * * * * * * //

dimensions      [0 1 -1 0 0 0 0];

internalField   nonuniform List<vector> 
8000
(
(-0.000137161 0.0148931 5.72025e-22)
(0.00109153 0.0383645 4.1881e-24)
(0.00432735 0.057483 3.88153e-24)
(0.00874533 0.0733009 7.06594e-22)
(0.0141099 0.0865941 4.3381e-21)
(0.0201521 0.0979212 0)
(0.0266608 0.107691 1.5236e-21)
(0.0334669 0.116209 -1.54147e-21)
(0.0404312 0.123702 1.57005e-21)
(0.0474392 0.130348 -1.57746e-21)
(0.0543954 0.136287 6.35909e-21)
(0.0612197 0.141628 0)
(0.0678447 0.146463 0)
(0.0742136 0.150867 0)
(0.0802783 0.154901 0)
(0.0859986 0.158619 0)
(0.0913408 0.162065 0)
(0.0962783 0.165274 -3.14233e-21)
(0.100794 0.168278 3.11003e-21)
(0.104857 0.171095 0)
(-0.000682035 0.0144543 0)
(-0.000254762 0.0370216 0)
(0.00240721 0.0553203 1.07132e-20)
(0.00642789 0.0703957 0)
(0.0115347 0.0830289 5.74645e-21)
(0.0174292 0.0937776 0)
(0.0238784 0.103049 1.2106e-20)
(0.0306969 0.111143 -1.23173e-20)
(0.0377331 0.11829 1.24816e-20)
(0.0448626 0.124663 -1.2603e-20)
(0.0519818 0.1304 1.26914e-20)
(0.0590038 0.13561 -6.36125e-21)
(0.0658548 0.140384 -6.3558e-21)
(0.0724722 0.144793 -6.4054e-21)
(0.0788023 0.148899 1.27405e-20)
(0.084799 0.152753 -1.26879e-20)
(0.090423 0.156397 3.77839e-20)
(0.095642 0.159864 -2.49958e-20)
(0.100432 0.163182 -1.23982e-20)
(0.104757 0.166371 -2.7912e-20)
(-0.0011913 0.0139841 0)
(-0.00148398 0.0355939 0)
(0.000691245 0.0530241 -3.74301e-20)
(0.00439827 0.0673138 2.77776e-20)
(0.00932558 0.07925 -1.15261e-20)
(0.0151441 0.0893878 -2.36193e-20)
(0.0215985 0.0981311 -1.21058e-20)
(0.0284867 0.105778 1.23171e-20)
(0.0356448 0.112555 -1.24814e-20)
(0.0429387 0.118633 -1.25384e-20)
(0.0502573 0.12415 -1.26855e-20)
(0.0575069 0.129212 0)
(0.0646082 0.133908 -1.26848e-20)
(0.0714929 0.13831 -1.27412e-20)
(0.0781021 0.142478 1.27079e-20)
(0.0843844 0.146462 -1.26542e-20)
(0.0902947 0.150301 -1.25828e-20)
(0.0957953 0.154029 1.24967e-20)
(0.100857 0.157672 -1.23201e-20)
(0.105433 0.161246 -1.3911e-20)
(-0.00166171 0.0134762 2.25284e-21)
(-0.00258533 0.0340735 5.09554e-21)
(-0.000801959 0.0505909 1.60398e-20)
(0.00268229 0.0640583 -2.22289e-20)
(0.00751499 0.0752672 0)
(0.0133352 0.084769 1.17908e-20)
(0.0198646 0.0929628 2.4109e-20)
(0.0268844 0.100143 -1.22323e-20)
(0.0342187 0.106532 0)
(0.0417238 0.1123 5.02153e-20)
(0.0492813 0.11758 0)
(0.0567915 0.122479 0)
(0.0641697 0.127084 5.0803e-20)
(0.0713427 0.131467 -2.54213e-20)
(0.0782468 0.135687 5.06193e-20)
(0.0848252 0.139794 -2.51644e-20)
(0.0910273 0.143826 5.01036e-20)
(0.0968104 0.147817 -2.48493e-20)
(0.102142 0.151791 4.942e-20)
(0.106958 0.155767 -2.7687e-20)
(-0.00208994 0.0129342 8.91364e-21)
(-0.00354887 0.0324675 2.01629e-20)
(-0.00205623 0.0480323 -1.05776e-20)
(0.00130266 0.0606458 -5.51006e-21)
(0.00613194 0.0711029 0)
(0.0120373 0.0799491 -2.34769e-20)
(0.018717 0.0875774 0)
(0.0259356 0.0942772 -1.22666e-20)
(0.0335046 0.100266 1.23646e-20)
(0.0412716 0.10571 -2.50742e-20)
(0.049111 0.110742 0)
(0.0569177 0.115466 0)
(0.0646021 0.119969 -2.53674e-20)
(0.0720865 0.124322 -2.53505e-20)
(0.0793027 0.128585 -3.57738e-24)
(0.0861893 0.132806 0)
(0.09269 0.137028 -2.50177e-20)
(0.0987571 0.14128 4.96563e-20)
(0.104355 0.145593 -4.91462e-20)
(0.109402 0.149983 -2.75605e-20)
(-0.00247218 0.0123587 -1.34393e-20)
(-0.00436311 0.0307765 1.49774e-20)
(-0.00305292 0.0453533 -1.57625e-20)
(0.000284615 0.0570876 0)
(0.00520768 0.0667751 -1.14374e-20)
(0.0112872 0.0749531 3.51569e-20)
(0.0181973 0.0820067 0)
(0.0256857 0.0882184 -7.31811e-20)
(0.0335519 0.0938001 4.94472e-20)
(0.0416346 0.0989147 -2.49066e-20)
(0.0498017 0.103691 0)
(0.057943 0.108232 5.03876e-20)
(0.0659647 0.112624 0)
(0.0737852 0.116938 0)
(0.0813323 0.121234 7.56073e-20)
(0.0885401 0.125564 -1.00206e-19)
(0.0953468 0.129968 4.97457e-20)
(0.1017 0.134482 0)
(0.107564 0.139138 0)
(0.11283 0.143953 8.25749e-20)
(-0.00280404 0.0117495 -4.46644e-21)
(-0.00501579 0.0290031 -6.52286e-20)
(-0.00377289 0.0425615 2.11548e-20)
(-0.000346595 0.0533977 -3.28961e-20)
(0.00477283 0.0623051 1.1399e-20)
(0.0111202 0.06981 -5.82887e-20)
(0.018345 0.0762871 0)
(0.0261779 0.0820104 2.43283e-20)
(0.0344068 0.0871853 -2.46467e-20)
(0.0428617 0.0919696 -4.97194e-20)
(0.0514045 0.0964884 -2.51155e-20)
(0.0599203 0.100843 -2.52835e-20)
(0.0683118 0.105119 5.03011e-20)
(0.076494 0.109387 0)
(0.0843915 0.113708 -5.02508e-20)
(0.0919343 0.118137 9.97599e-20)
(0.0990552 0.122718 0)
(0.105698 0.127489 -4.92028e-20)
(0.111825 0.132491 4.87876e-20)
(0.1173 0.137739 5.47933e-20)
(-0.00308066 0.0111062 4.42318e-21)
(-0.00549367 0.027149 4.00601e-20)
(-0.00419605 0.0396646 1.0534e-20)
(-0.000565122 0.0495909 3.29392e-20)
(0.00485808 0.0577154 0)
(0.011571 0.06455 2.32867e-20)
(0.0191982 0.0704567 2.37374e-20)
(0.0274535 0.0756993 0)
(0.0361128 0.0804747 4.92305e-20)
(0.0449983 0.0849348 4.9719e-20)
(0.053966 0.0892003 0)
(0.0628973 0.0933701 1.74111e-22)
(0.0716916 0.0975276 -1.00593e-19)
(0.0802615 0.101745 1.00184e-19)
(0.088529 0.106086 5.00928e-20)
(0.0964206 0.110606 -1.49454e-19)
(0.103864 0.115355 1.48373e-19)
(0.110798 0.120377 1.31845e-22)
(0.117189 0.125723 -1.46132e-19)
(0.122862 0.131408 -1.37142e-23)
(-0.00329668 0.0104283 -3.51032e-20)
(-0.00578274 0.0252171 3.96911e-20)
(-0.00430158 0.0366713 0)
(-0.00034486 0.0456833 4.34865e-20)
(0.00549372 0.0530303 0)
(0.0126732 0.0592059 -2.32794e-20)
(0.0207932 0.0645568 4.74642e-20)
(0.0295505 0.0693342 -4.83227e-20)
(0.0387097 0.0737253 4.89882e-20)
(0.0480851 0.0778746 2.47244e-20)
(0.0575276 0.0818974 4.99205e-20)
(0.0669152 0.0858892 -4.99117e-20)
(0.0761449 0.0899317 4.98062e-20)
(0.0851279 0.0940974 -5.00942e-20)
(0.0937842 0.0984516 0)
(0.102038 0.103055 0)
(0.109812 0.107962 -1.6982e-22)
(0.117041 0.113225 0)
(0.123693 0.11891 4.86165e-20)
(0.129556 0.125033 -5.43823e-20)
(-0.0034462 0.00971526 3.51032e-20)
(-0.00586814 0.0232105 -7.9187e-20)
(-0.00406812 0.0335915 -5.19578e-20)
(0.000340275 0.0416929 -9.77708e-20)
(0.00670923 0.0482761 -2.24666e-20)
(0.0144589 0.0538127 0)
(0.0231636 0.0586308 -4.72148e-20)
(0.0325037 0.062967 2.41506e-20)
(0.0422326 0.0669971 -7.30857e-20)
(0.0521572 0.0708567 -1.48069e-19)
(0.0621239 0.0746546 4.95309e-20)
(0.0720075 0.0784818 -4.99307e-20)
(0.081704 0.0824175 -9.99687e-20)
(0.0911235 0.0865338 4.17546e-24)
(0.100185 0.0908982 4.97583e-20)
(0.108812 0.0955757 -4.93968e-20)
(0.116923 0.100628 -4.92338e-20)
(0.124449 0.106118 -4.8683e-20)
(0.131363 0.112133 0)
(0.137407 0.118688 -5.4226e-20)
(-0.0035227 0.0089669 -2.59442e-20)
(-0.00573422 0.0211332 -9.58586e-21)
(-0.00347394 0.0304366 3.11136e-20)
(0.00151599 0.037639 5.40585e-20)
(0.00853277 0.0434811 2.23823e-20)
(0.0169574 0.0484073 2.29383e-20)
(0.0263395 0.0527243 4.72149e-20)
(0.0363431 0.056652 0)
(0.046711 0.0603528 -4.10747e-23)
(0.0572431 0.0639518 9.82463e-20)
(0.0677815 0.0675501 0)
(0.0781991 0.0712329 -4.97553e-20)
(0.0883908 0.0750757 4.98075e-20)
(0.0982673 0.0791492 4.97578e-20)
(0.107749 0.0835227 0)
(0.116757 0.0882659 -4.91887e-20)
(0.125209 0.0934482 -9.80211e-20)
(0.133033 0.0991473 1.90969e-23)
(0.140207 0.105474 -8.71513e-23)
(0.146425 0.112446 1.65367e-22)
(-0.00351914 0.0081833 -3.4267e-20)
(-0.00536472 0.0189906 3.92941e-20)
(-0.00249726 0.0272193 0)
(0.00320719 0.0335432 0)
(0.0109907 0.0386753 2.23692e-20)
(0.0201955 0.0430286 1.72028e-22)
(0.0303468 0.0468851 -4.69359e-20)
(0.0410934 0.0504453 7.17721e-20)
(0.0521678 0.0538566 -4.83298e-20)
(0.0633634 0.0572324 0)
(0.0745186 0.0606643 9.83925e-20)
(0.0855046 0.0642301 9.87637e-20)
(0.0962165 0.0680005 1.48511e-19)
(0.106566 0.072043 0)
(0.116476 0.0764276 0)
(0.12587 0.0812282 4.91885e-20)
(0.134663 0.0865226 0)
(0.142783 0.0924051 4.8498e-20)
(0.150216 0.0990193 -9.57786e-20)
(0.156601 0.106384 1.07075e-19)
(-0.00342791 0.00736508 6.0313e-20)
(-0.00474287 0.016789 9.67573e-21)
(-0.0011165 0.0239544 0)
(0.00543752 0.0294287 0)
(0.0141067 0.033891 1.10818e-19)
(0.0241957 0.0377175 6.84126e-20)
(0.0352064 0.0411621 0)
(0.0467729 0.0444041 0)
(0.0586183 0.0475739 4.84122e-20)
(0.0705301 0.0507717 9.75915e-20)
(0.0823434 0.0540781 -2.94578e-19)
(0.0939281 0.0575624 -4.95835e-20)
(0.10518 0.0612877 -9.88812e-20)
(0.116014 0.0653172 -9.83764e-20)
(0.126355 0.0697191 9.80741e-20)
(0.136132 0.0745699 3.0063e-22)
(0.145261 0.0799558 -1.94046e-19)
(0.153672 0.0859897 0)
(0.16136 0.0928548 1.91171e-19)
(0.16791 0.100577 -1.06608e-19)
(-0.00324099 0.00651354 0)
(-0.00385166 0.0145367 9.7364e-21)
(0.00068923 0.0206587 -1.01506e-20)
(0.0082288 0.0253212 0)
(0.0179017 0.0291623 -8.85446e-20)
(0.0289764 0.0325162 -1.13985e-19)
(0.0409332 0.0356056 2.31926e-20)
(0.0533926 0.0385861 0)
(0.0660691 0.0415698 -9.59669e-20)
(0.0787452 0.0446421 -9.73454e-20)
(0.0912531 0.0478718 9.79994e-20)
(0.103462 0.0513174 -4.91735e-20)
(0.115269 0.0550332 4.90472e-20)
(0.126591 0.059075 9.83762e-20)
(0.13736 0.0635063 -9.80739e-20)
(0.14751 0.0684036 9.7599e-20)
(0.156963 0.0738586 4.12841e-22)
(0.165654 0.080004 -1.91918e-19)
(0.173591 0.0870707 -2.76892e-22)
(0.180304 0.0950977 2.12597e-19)
(-0.00295001 0.00563083 8.54589e-21)
(-0.00267416 0.0122436 -9.55583e-21)
(0.00293975 0.0173512 8.09474e-20)
(0.0116004 0.0212486 0)
(0.0223924 0.0245253 8.77248e-20)
(0.0345503 0.0274685 9.03488e-20)
(0.0475349 0.0302662 -4.65116e-20)
(0.0609549 0.0330484 4.70577e-20)
(0.0745173 0.0359077 9.59676e-20)
(0.0880003 0.0389138 4.84785e-20)
(0.101234 0.0421221 -4.85722e-20)
(0.114086 0.0455795 4.89594e-20)
(0.126457 0.0493295 1.70685e-22)
(0.138266 0.0534179 -1.46669e-19)
(0.149452 0.0578995 1.94857e-19)
(0.159957 0.0628457 -1.93592e-19)
(0.169712 0.0683491 4.31125e-22)
(0.178664 0.0745599 9.58143e-20)
(0.186841 0.0817639 1.59351e-22)
(0.193719 0.090024 -1.05951e-19)
(-0.00254636 0.00472009 7.25652e-23)
(-0.00119383 0.009922 -2.87486e-20)
(0.00565323 0.0140534 -6.08752e-20)
(0.0155687 0.017241 -2.11969e-20)
(0.0275908 0.0200179 2.13487e-20)
(0.040924 0.0226189 -9.03503e-20)
(0.0550118 0.0251944 4.57779e-20)
(0.069453 0.0278471 4.6847e-20)
(0.083949 0.0306487 -4.77933e-20)
(0.0982747 0.0336525 4.80193e-20)
(0.112259 0.0369002 0)
(0.125769 0.0404264 0)
(0.138707 0.0442625 4.87774e-20)
(0.150997 0.0484418 -4.85641e-20)
(0.162583 0.0530066 0)
(0.173417 0.058016 9.67436e-20)
(0.183443 0.0635549 1.29474e-22)
(0.192627 0.0697832 1.30486e-22)
(0.20103 0.0770442 1.8897e-19)
(0.20808 0.0854407 -5.6169e-22)
(-0.00202142 0.00378564 8.35612e-21)
(0.000605078 0.00758628 -1.91433e-20)
(0.00884564 0.0107894 4.01378e-20)
(0.0201462 0.0133309 -2.0871e-20)
(0.0335039 0.0156797 -8.73035e-20)
(0.0480969 0.0180128 -2.2515e-20)
(0.0633551 0.0204404 -6.9205e-20)
(0.0788698 0.0230359 0)
(0.0943388 0.0258495 -4.70952e-20)
(0.109535 0.0289178 -4.77962e-20)
(0.124288 0.0322689 -1.44576e-19)
(0.138465 0.0359252 -1.85959e-22)
(0.15197 0.039906 1.45451e-19)
(0.164731 0.0442312 -9.66524e-20)
(0.176697 0.0489269 -9.62494e-20)
(0.187831 0.054033 9.61465e-20)
(0.198091 0.059613 -2.86068e-19)
(0.207468 0.0658182 9.50939e-20)
(0.216078 0.073041 -9.38082e-20)
(0.22332 0.0814472 -1.04463e-19)
(-0.00136672 0.00283303 0)
(0.00273696 0.0052535 0)
(0.0125301 0.00758614 2.00706e-20)
(0.0253408 0.00955318 6.2533e-20)
(0.0401319 0.0115517 0)
(0.0560606 0.0136959 -8.90625e-20)
(0.0725465 0.0160528 9.12079e-20)
(0.089177 0.0186654 9.29093e-20)
(0.105648 0.0215616 1.4201e-19)
(0.121735 0.0247614 9.53754e-20)
(0.137266 0.0282798 4.83494e-20)
(0.152114 0.0321283 -1.44337e-19)
(0.166183 0.0363158 2.40868e-19)
(0.179406 0.0408502 -1.18523e-22)
(0.191737 0.0457414 9.62497e-20)
(0.203144 0.0510057 0)
(0.213598 0.05667 5.17222e-22)
(0.22312 0.0628458 9.4106e-20)
(0.231912 0.0699484 1.87264e-19)
(0.239398 0.0782203 0)
(-0.000574166 0.00186922 0)
(0.00521442 0.00294339 7.49779e-20)
(0.0167161 0.00447319 -1.99602e-20)
(0.0311555 0.00594502 4.10722e-20)
(0.0474686 0.00767623 -8.57883e-20)
(0.0647979 0.00971375 6.69544e-20)
(0.0825575 0.0120787 -9.121e-20)
(0.100334 0.0147825 -4.58742e-22)
(0.117826 0.0178302 0)
(0.13481 0.0212255 4.70724e-20)
(0.151121 0.0249711 1.98146e-22)
(0.166637 0.0290695 4.82624e-20)
(0.181268 0.0335225 -5.33623e-22)
(0.19495 0.0383307 -5.51485e-22)
(0.207642 0.0434946 9.55645e-20)
(0.219317 0.0490125 -9.52882e-20)
(0.229944 0.0548736 9.44308e-20)
(0.239552 0.0611338 -3.79456e-22)
(0.248433 0.0682016 0)
(0.256179 0.0763041 -6.32415e-22)
(0.000364001 0.00090236 0)
(0.00804808 0.000677962 -7.50011e-20)
(0.0214096 0.00148248 0)
(0.0375872 0.00254519 -1.03635e-19)
(0.0555 0.0040964 8.58015e-20)
(0.0742825 0.00611133 2.20018e-20)
(0.0933485 0.008563 -4.54263e-20)
(0.112288 0.01143 -4.65045e-20)
(0.130805 0.0146942 0)
(0.148682 0.0183427 -4.73549e-20)
(0.165765 0.0223669 -4.74021e-20)
(0.181938 0.0267619 -4.77302e-20)
(0.197125 0.0315255 -1.43521e-19)
(0.211273 0.0366576 -4.1263e-22)
(0.224354 0.0421606 9.49605e-20)
(0.236355 0.048035 -1.88948e-19)
(0.247256 0.0542698 9.3908e-20)
(0.257074 0.0609213 -9.30221e-20)
(0.266071 0.0683723 0)
(0.274016 0.0765377 8.20064e-22)
(0.112833 0.177033 -4.42562e-21)
(0.12164 0.184889 1.50407e-21)
(0.127707 0.192495 -1.52048e-21)
(0.130279 0.19997 1.5291e-21)
(0.13029 0.20758 0)
(0.127955 0.215334 0)
(0.12381 0.223173 -1.55427e-21)
(0.118215 0.230985 1.55313e-21)
(0.111504 0.238651 0)
(0.10393 0.246055 3.12973e-21)
(0.0956954 0.2531 -1.56608e-21)
(0.0869565 0.259703 7.86678e-22)
(0.0778348 0.265803 7.85372e-22)
(0.0684195 0.271349 -7.84679e-22)
(0.0587629 0.276306 -7.87908e-22)
(0.0488695 0.280639 0)
(0.0386884 0.284306 -3.94875e-22)
(0.0281338 0.287231 -1.18181e-21)
(0.0171477 0.289295 -1.57569e-21)
(0.00578164 0.290352 -1.58928e-21)
(0.113296 0.173244 1.32059e-20)
(0.122757 0.182104 -4.50026e-21)
(0.129451 0.190888 7.61073e-21)
(0.13248 0.199351 -1.49389e-21)
(0.13282 0.207823 -6.11691e-21)
(0.130679 0.216273 -6.17244e-21)
(0.126616 0.224665 1.23621e-20)
(0.12101 0.232904 -6.18944e-21)
(0.114218 0.240898 0)
(0.106513 0.248549 -4.67468e-21)
(0.0981103 0.255781 0)
(0.089177 0.262522 6.26095e-21)
(0.0798408 0.268726 -4.70268e-21)
(0.0701952 0.274349 1.57247e-21)
(0.0602949 0.279373 0)
(0.0501455 0.283779 0)
(0.0396972 0.287538 -3.14103e-21)
(0.0288651 0.290575 2.36207e-21)
(0.017591 0.292749 -2.35119e-21)
(0.00593348 0.293877 1.5883e-21)
(0.114458 0.169108 2.33905e-20)
(0.124375 0.178995 -1.1983e-20)
(0.131597 0.189006 0)
(0.134983 0.198504 0)
(0.135589 0.207885 -1.83469e-20)
(0.133596 0.217077 6.09029e-21)
(0.129582 0.22606 6.14277e-21)
(0.123943 0.234761 0)
(0.117055 0.243108 6.20507e-21)
(0.109206 0.25103 -3.08911e-21)
(0.100625 0.258466 0)
(0.0914868 0.265362 -9.366e-21)
(0.0819264 0.27168 3.11114e-21)
(0.0720399 0.277394 3.1229e-21)
(0.0618849 0.282495 -3.13196e-21)
(0.051468 0.286982 3.12876e-21)
(0.040741 0.290842 3.13727e-21)
(0.0296203 0.293997 0)
(0.0180478 0.296288 3.13622e-21)
(0.00608941 0.297489 0)
(0.116386 0.164661 5.80683e-21)
(0.126543 0.175584 -5.98892e-21)
(0.134181 0.186863 0)
(0.137815 0.197436 0)
(0.138612 0.207769 6.09467e-21)
(0.136712 0.217743 -6.09699e-21)
(0.132711 0.227355 0)
(0.127015 0.236549 6.18288e-21)
(0.120013 0.245277 6.19961e-21)
(0.112007 0.253491 -1.85303e-20)
(0.103236 0.26115 -6.2018e-21)
(0.0938839 0.268216 1.23907e-20)
(0.0840892 0.274664 0)
(0.073952 0.28048 -1.64795e-23)
(0.0635318 0.285669 3.89183e-24)
(0.0528367 0.290247 0)
(0.0418197 0.294215 3.1188e-21)
(0.0303996 0.297496 -1.55625e-21)
(0.0185185 0.299909 -1.55756e-21)
(0.00624953 0.301186 0)
(0.119142 0.159948 1.7497e-20)
(0.129308 0.171899 -4.1768e-20)
(0.137237 0.184478 2.39446e-20)
(0.141001 0.196158 0)
(0.141905 0.207479 0)
(0.140038 0.218272 1.21594e-20)
(0.136008 0.228548 -1.22252e-20)
(0.130226 0.238266 1.83392e-20)
(0.123091 0.247402 -6.14489e-21)
(0.114914 0.255931 -1.23164e-20)
(0.105942 0.263832 2.46232e-20)
(0.0963655 0.271084 -2.39935e-24)
(0.0863271 0.277676 1.52921e-23)
(0.0759294 0.283606 -6.18435e-21)
(0.0652339 0.288894 6.2152e-21)
(0.0542503 0.293573 -6.19186e-21)
(0.042933 0.297657 0)
(0.0312029 0.301072 -1.55066e-21)
(0.0190031 0.303611 1.54902e-21)
(0.00641382 0.304969 0)
(0.122788 0.155016 -2.30419e-20)
(0.132717 0.167972 1.1891e-20)
(0.140801 0.181872 -2.39838e-20)
(0.144564 0.194681 3.59384e-20)
(0.145485 0.207021 1.20345e-20)
(0.143583 0.218666 -6.06078e-21)
(0.139478 0.229637 1.21139e-20)
(0.133579 0.239908 0)
(0.126289 0.249477 1.21774e-20)
(0.117925 0.258344 1.2204e-20)
(0.108741 0.266506 -1.83628e-20)
(0.0989293 0.273962 1.22855e-20)
(0.0886377 0.280713 -4.77931e-24)
(0.0779701 0.28677 0)
(0.0669897 0.292169 -1.84507e-20)
(0.0557078 0.296958 6.1535e-21)
(0.0440802 0.301167 1.2303e-20)
(0.0320303 0.304723 0)
(0.0195017 0.307396 -1.23024e-20)
(0.00658235 0.308838 0)
(0.127379 0.149917 -2.2952e-20)
(0.136815 0.16384 -1.18889e-20)
(0.144905 0.179068 0)
(0.14853 0.193022 -2.39147e-20)
(0.149367 0.206403 6.07732e-23)
(0.147356 0.218928 -4.81369e-20)
(0.143125 0.230622 -5.40888e-23)
(0.137074 0.241473 1.20763e-20)
(0.129606 0.2515 -2.37922e-25)
(0.121039 0.260726 -1.21722e-20)
(0.111629 0.26917 4.36597e-23)
(0.101573 0.276846 -1.22055e-20)
(0.0910185 0.283771 2.43645e-20)
(0.080072 0.28997 -2.43982e-20)
(0.0687976 0.295491 4.10143e-23)
(0.0572081 0.300401 0)
(0.0452609 0.304744 -2.14166e-20)
(0.0328814 0.308448 -3.05834e-21)
(0.0200144 0.311261 1.22586e-20)
(0.0067551 0.312793 0)
(0.132963 0.144703 -1.48082e-22)
(0.141645 0.159544 2.34713e-20)
(0.14958 0.176095 0)
(0.152922 0.1912 1.19221e-20)
(0.153566 0.205637 -1.19713e-20)
(0.151368 0.219062 2.38758e-20)
(0.146955 0.231503 1.20197e-20)
(0.140713 0.242958 -1.20459e-20)
(0.133041 0.253468 0)
(0.124253 0.263074 -1.20899e-20)
(0.114605 0.271818 2.4213e-20)
(0.104293 0.279733 -1.20838e-20)
(0.093467 0.286848 -1.21373e-20)
(0.0822328 0.293202 1.21485e-20)
(0.0706556 0.298858 1.21574e-20)
(0.0587499 0.303899 0)
(0.0464741 0.308385 1.82469e-20)
(0.0337561 0.312246 -6.07151e-21)
(0.0205413 0.315206 0)
(0.00693204 0.316831 0)
(0.13958 0.139429 9.13285e-20)
(0.147244 0.15513 -5.8463e-20)
(0.154852 0.172981 0)
(0.157762 0.189234 1.18143e-20)
(0.158096 0.204734 -2.37952e-20)
(0.155626 0.219075 2.3733e-20)
(0.15097 0.232283 0)
(0.144498 0.244364 0)
(0.136594 0.255376 0)
(0.127567 0.265384 0)
(0.117667 0.274448 1.20147e-20)
(0.107088 0.282619 -1.19908e-20)
(0.0959805 0.28994 0)
(0.0844499 0.296463 0)
(0.0725617 0.302266 1.20192e-20)
(0.0603315 0.307449 -6.0284e-21)
(0.047719 0.312088 6.02068e-21)
(0.0346538 0.316114 -1.50491e-20)
(0.021082 0.31923 3.01205e-21)
(0.00711308 0.320954 0)
(0.147259 0.134148 4.55783e-20)
(0.153648 0.150646 -3.47244e-20)
(0.160744 0.169759 0)
(0.163067 0.187149 -1.17981e-20)
(0.162969 0.203709 0)
(0.160137 0.218974 0)
(0.155175 0.232962 0)
(0.148428 0.245688 -1.18342e-20)
(0.140264 0.257223 0)
(0.130977 0.267652 2.38156e-20)
(0.12081 0.277055 -1.17975e-20)
(0.109955 0.2855 -3.57116e-20)
(0.0985558 0.293043 1.19032e-20)
(0.0867204 0.29975 3.54358e-23)
(0.0745133 0.305713 -3.58291e-20)
(0.0619511 0.31105 1.19307e-20)
(0.0489942 0.31585 -5.97798e-21)
(0.0355738 0.320052 1.49527e-20)
(0.0216363 0.323331 -7.45094e-21)
(0.00729807 0.325159 -1.50658e-21)
(0.156016 0.128912 -1.14023e-20)
(0.160885 0.146143 4.62179e-20)
(0.16727 0.166462 -1.16377e-20)
(0.16885 0.184969 -4.6955e-20)
(0.168193 0.202577 7.02878e-20)
(0.164907 0.218767 -1.17067e-20)
(0.159572 0.233546 0)
(0.152505 0.24693 1.17913e-20)
(0.144048 0.259005 2.36023e-20)
(0.13448 0.269875 -1.1767e-20)
(0.124032 0.279635 1.18201e-20)
(0.112888 0.288371 -1.17836e-20)
(0.101189 0.296153 0)
(0.0890406 0.30306 1.18061e-20)
(0.0765072 0.309196 1.18128e-20)
(0.0636058 0.314697 0)
(0.0502977 0.31967 -1.77403e-20)
(0.0365148 0.324056 1.18402e-20)
(0.0222036 0.327507 5.94438e-21)
(0.00748676 0.329447 0)
(0.165853 0.123767 2.59021e-22)
(0.168976 0.141674 -4.59526e-20)
(0.174441 0.163125 1.16261e-20)
(0.175123 0.18272 4.66786e-20)
(0.173773 0.201354 -9.31896e-20)
(0.169937 0.218465 3.4835e-20)
(0.16416 0.234038 0)
(0.156725 0.248091 1.17459e-20)
(0.147943 0.260722 -2.33102e-20)
(0.138073 0.272048 -3.51193e-20)
(0.127328 0.282184 -1.17484e-20)
(0.115883 0.291229 5.84963e-20)
(0.103875 0.299267 -2.33657e-20)
(0.0914056 0.306388 -6.77747e-24)
(0.0785391 0.31271 -6.71669e-24)
(0.0652924 0.318387 0)
(0.0516269 0.323543 2.34431e-20)
(0.0374751 0.328124 -1.75721e-20)
(0.0227829 0.331757 8.79489e-21)
(0.00767876 0.333814 -1.477e-20)
(0.176757 0.118755 2.21505e-20)
(0.177935 0.137291 -4.63158e-20)
(0.182258 0.159785 4.60611e-20)
(0.181885 0.180431 0)
(0.179709 0.20006 4.64008e-20)
(0.175226 0.218077 -3.46249e-20)
(0.168937 0.234443 -1.15491e-20)
(0.161084 0.249172 1.15982e-20)
(0.151945 0.262371 0)
(0.141748 0.27417 3.47457e-20)
(0.13069 0.284699 -2.30655e-20)
(0.118933 0.29407 0)
(0.106607 0.30238 -2.31976e-20)
(0.0938091 0.30973 2.31385e-20)
(0.0806031 0.316252 -2.32142e-20)
(0.0670058 0.322117 1.15819e-20)
(0.0529782 0.327466 -2.32e-20)
(0.0384519 0.332253 5.81968e-21)
(0.0233726 0.336079 1.44881e-20)
(0.00787351 0.338261 1.46603e-20)
(0.188697 0.113908 -2.18995e-20)
(0.187767 0.133046 -9.1468e-20)
(0.190713 0.156475 4.57855e-20)
(0.189133 0.178126 -1.14639e-20)
(0.185994 0.198712 0)
(0.180768 0.217615 3.45352e-20)
(0.173896 0.234765 -3.42962e-20)
(0.165576 0.250173 0)
(0.156044 0.26395 0)
(0.145498 0.276236 -1.14848e-20)
(0.13411 0.287174 1.14818e-20)
(0.122029 0.296889 2.29526e-20)
(0.109375 0.305488 7.07335e-23)
(0.0962422 0.313083 -2.28863e-20)
(0.0826915 0.319818 -1.14764e-20)
(0.0687394 0.325882 2.2901e-20)
(0.054346 0.331436 1.14937e-20)
(0.0394417 0.33644 1.1459e-20)
(0.0239706 0.340469 2.8321e-21)
(0.00807024 0.342784 8.67179e-21)
(0.201628 0.109253 5.53137e-20)
(0.198465 0.128987 -7.95231e-20)
(0.199788 0.153235 4.54984e-20)
(0.196849 0.175836 1.14395e-20)
(0.192614 0.197328 -5.71018e-20)
(0.186551 0.217088 3.40718e-20)
(0.179026 0.235009 -1.13494e-20)
(0.170189 0.251096 3.4111e-20)
(0.16023 0.265458 -1.12306e-20)
(0.149309 0.278245 -5.66841e-20)
(0.137575 0.289607 3.4027e-20)
(0.125158 0.299682 -1.13132e-20)
(0.112167 0.308586 0)
(0.098693 0.316441 1.13815e-20)
(0.0847934 0.323403 -2.26314e-20)
(0.0704838 0.329678 -1.13561e-20)
(0.0557231 0.335447 3.00209e-23)
(0.0404391 0.340681 -2.27085e-20)
(0.0245737 0.344925 -8.53654e-21)
(0.00826789 0.347381 -1.43427e-20)
(0.215487 0.104817 -4.40958e-20)
(0.210009 0.125176 -5.69777e-20)
(0.209451 0.150113 4.52012e-20)
(0.205005 0.173596 4.54607e-20)
(0.199546 0.195935 2.28788e-20)
(0.192554 0.216514 -3.37254e-20)
(0.184309 0.235188 1.1295e-20)
(0.174907 0.251948 -6.75976e-20)
(0.164485 0.2669 6.72949e-20)
(0.153165 0.280196 2.24359e-20)
(0.141067 0.291997 -1.12254e-20)
(0.128301 0.302447 4.4748e-20)
(0.114966 0.311672 -2.23507e-20)
(0.101145 0.319802 2.23851e-20)
(0.0868938 0.327004 0)
(0.0722263 0.333501 -1.11769e-20)
(0.0570992 0.339497 1.12253e-20)
(0.0414366 0.344971 -1.11928e-20)
(0.0251778 0.349442 -1.12028e-20)
(0.00846505 0.35205 0)
(0.230198 0.100631 8.77532e-20)
(0.222363 0.12168 8.02849e-22)
(0.219657 0.147168 -4.48922e-20)
(0.213558 0.17145 0)
(0.206753 0.194562 -1.1246e-20)
(0.198749 0.215914 -1.11606e-20)
(0.189722 0.235313 0)
(0.179707 0.252735 5.20725e-23)
(0.168787 0.268277 -1.11337e-20)
(0.157042 0.282091 -2.21779e-20)
(0.144561 0.294343 0)
(0.131434 0.305182 -2.21243e-20)
(0.117747 0.314742 0)
(0.103576 0.32316 -2.21031e-20)
(0.0889721 0.330614 0)
(0.0739489 0.337345 3.31805e-20)
(0.0584598 0.343578 -1.1052e-20)
(0.0424241 0.349305 2.21478e-20)
(0.0257768 0.354017 1.11064e-20)
(0.00865993 0.356785 1.11672e-20)
(0.245671 0.0966327 0)
(0.235467 0.118428 0)
(0.230337 0.144337 5.0446e-20)
(0.222445 0.169336 -4.9989e-20)
(0.214187 0.193151 0)
(0.205097 0.215231 1.11096e-20)
(0.19523 0.235334 4.42841e-20)
(0.184557 0.253414 -7.70363e-20)
(0.173103 0.269551 8.78348e-20)
(0.160906 0.283896 -3.27432e-20)
(0.148024 0.296614 5.45519e-21)
(0.134524 0.307861 5.49545e-21)
(0.120478 0.317775 0)
(0.105954 0.326499 1.63698e-20)
(0.0910002 0.33422 -1.6362e-20)
(0.0756272 0.341197 -1.09575e-20)
(0.0597853 0.34768 2.18352e-20)
(0.0433872 0.353674 -2.73414e-20)
(0.0263626 0.358641 2.73186e-21)
(0.00885031 0.36158 -8.30702e-21)
(0.261724 0.092738 -4.36682e-20)
(0.249225 0.115174 -2.7775e-21)
(0.241412 0.141415 -5.0084e-20)
(0.23159 0.167058 4.95724e-20)
(0.221788 0.191528 0)
(0.21155 0.214316 2.73603e-21)
(0.200794 0.235127 4.65219e-20)
(0.189419 0.253881 2.19184e-22)
(0.177396 0.270639 -4.05674e-20)
(0.164719 0.285542 -2.16775e-20)
(0.151415 0.298757 -2.80631e-21)
(0.137529 0.310441 2.95899e-20)
(0.123117 0.320736 0)
(0.10824 0.329789 -2.7051e-21)
(0.092941 0.337798 8.07223e-21)
(0.0772286 0.345039 -1.07723e-20)
(0.0610492 0.351787 1.07579e-20)
(0.0443075 0.358064 5.39555e-21)
(0.0269249 0.363306 -5.39714e-21)
(0.00903395 0.366431 0)
(0.277959 0.0899541 5.13346e-20)
(0.26345 0.112684 -4.93555e-20)
(0.252779 0.139047 1.04386e-19)
(0.240902 0.165151 -5.1767e-20)
(0.229492 0.190171 5.19025e-20)
(0.218061 0.213593 -5.45568e-20)
(0.206372 0.235065 -3.20872e-21)
(0.194254 0.254463 0)
(0.181621 0.27182 -5.41159e-20)
(0.168433 0.287267 5.05223e-20)
(0.154682 0.300966 2.21341e-20)
(0.140394 0.313078 -2.82816e-20)
(0.12561 0.323747 2.51683e-20)
(0.11038 0.333124 -2.81783e-20)
(0.0947452 0.341416 -3.13628e-21)
(0.0787095 0.348915 -1.25198e-20)
(0.0622161 0.355926 1.2478e-20)
(0.0451598 0.362489 0)
(0.0274504 0.368013 3.11811e-21)
(0.00920881 0.371332 -3.14057e-21)
(0.311476 0.0921822 0)
(0.293361 0.114547 0)
(0.277027 0.140016 0)
(0.260933 0.166316 0)
(0.246272 0.191867 0)
(0.232392 0.216083 0)
(0.218731 0.238487 0)
(0.204988 0.258852 0)
(0.190991 0.277149 0)
(0.176629 0.293475 0)
(0.161847 0.307977 0)
(0.146627 0.320807 0)
(0.130983 0.332108 0)
(0.114947 0.342033 0)
(0.0985523 0.350805 0)
(0.081804 0.358753 0)
(0.0646404 0.366237 0)
(0.0469315 0.373327 0)
(0.0285534 0.379369 0)
(0.00959246 0.383021 0)
(0.351021 0.124336 0)
(0.330489 0.143153 0)
(0.310146 0.164778 0)
(0.290153 0.188097 0)
(0.271915 0.21165 0)
(0.254989 0.234504 0)
(0.238718 0.256039 0)
(0.222704 0.275902 0)
(0.206695 0.293965 0)
(0.190521 0.310242 0)
(0.174071 0.324816 0)
(0.157293 0.337788 0)
(0.140174 0.349263 0)
(0.122736 0.359372 0)
(0.105009 0.368342 0)
(0.0870045 0.376544 0)
(0.0686628 0.384403 0)
(0.0498272 0.392024 0)
(0.0303261 0.398655 0)
(0.0101973 0.402701 0)
(0.380681 0.149628 0)
(0.359165 0.16769 0)
(0.337558 0.187693 0)
(0.315979 0.20924 0)
(0.295805 0.231334 0)
(0.276891 0.25313 0)
(0.25871 0.274 0)
(0.240882 0.293527 0)
(0.223148 0.311497 0)
(0.205318 0.327849 0)
(0.187268 0.3426 0)
(0.16893 0.3558 0)
(0.150288 0.367512 0)
(0.131359 0.377845 0)
(0.112181 0.387024 0)
(0.0927775 0.395465 0)
(0.0730981 0.403681 0)
(0.0529789 0.411833 0)
(0.0322229 0.419087 0)
(0.0108347 0.42357 0)
(0.402935 0.172489 0)
(0.382086 0.190235 0)
(0.360812 0.209539 0)
(0.339038 0.230064 0)
(0.318101 0.251155 0)
(0.298097 0.272178 0)
(0.278658 0.292578 0)
(0.25948 0.311917 0)
(0.240338 0.32992 0)
(0.22106 0.346456 0)
(0.201532 0.361482 0)
(0.181691 0.374995 0)
(0.161523 0.387017 0)
(0.141052 0.397625 0)
(0.120324 0.40704 0)
(0.0993776 0.415721 0)
(0.078178 0.424277 0)
(0.0565733 0.432949 0)
(0.0343667 0.440828 0)
(0.0115487 0.445763 0)
(0.421886 0.194006 0)
(0.402115 0.212023 0)
(0.381672 0.231193 0)
(0.360257 0.251221 0)
(0.339166 0.271708 0)
(0.31863 0.292228 0)
(0.298398 0.312329 0)
(0.278238 0.331589 0)
(0.257973 0.349702 0)
(0.237462 0.36648 0)
(0.21661 0.381829 0)
(0.195367 0.395697 0)
(0.173727 0.408067 0)
(0.151718 0.418983 0)
(0.129392 0.428658 0)
(0.106799 0.437589 0)
(0.0839252 0.446473 0)
(0.0606453 0.455635 0)
(0.0367881 0.464109 0)
(0.0123517 0.469479 0)
(0.439946 0.214289 0)
(0.421194 0.232916 0)
(0.401569 0.252324 0)
(0.380604 0.272278 0)
(0.359564 0.292552 0)
(0.338745 0.312884 0)
(0.317967 0.332921 0)
(0.297048 0.35228 0)
(0.275852 0.370637 0)
(0.254268 0.387767 0)
(0.232221 0.403532 0)
(0.209672 0.41784 0)
(0.186622 0.430637 0)
(0.1631 0.441939 0)
(0.139162 0.451947 0)
(0.114861 0.461186 0)
(0.0902072 0.47043 0)
(0.0651098 0.48008 0)
(0.0394433 0.48912 0)
(0.0132311 0.494899 0)
(0.458386 0.233543 0)
(0.44042 0.252972 0)
(0.421432 0.272869 0)
(0.400826 0.293065 0)
(0.379837 0.313447 0)
(0.358798 0.333875 0)
(0.337564 0.354088 0)
(0.315985 0.373742 0)
(0.293956 0.392509 0)
(0.271387 0.410136 0)
(0.248216 0.426445 0)
(0.224416 0.441313 0)
(0.199989 0.454653 0)
(0.174967 0.466457 0)
(0.149402 0.476912 0)
(0.123354 0.48656 0)
(0.0968502 0.496236 0)
(0.0698432 0.506399 0)
(0.0422617 0.515991 0)
(0.0141646 0.522154 0)
(0.477769 0.25208 0)
(0.460337 0.272437 0)
(0.441787 0.293005 0)
(0.421406 0.313677 0)
(0.400402 0.334419 0)
(0.379123 0.35518 0)
(0.357443 0.375778 0)
(0.335234 0.395913 0)
(0.312404 0.415255 0)
(0.288878 0.433528 0)
(0.264605 0.450522 0)
(0.239561 0.466085 0)
(0.213752 0.480102 0)
(0.18721 0.492543 0)
(0.159987 0.503578 0)
(0.132146 0.513757 0)
(0.103738 0.523952 0)
(0.0747585 0.534667 0)
(0.0451924 0.544803 0)
(0.0151361 0.551331 0)
(0.498303 0.270153 0)
(0.481188 0.291525 0)
(0.462905 0.312906 0)
(0.442637 0.334241 0)
(0.421547 0.355545 0)
(0.399991 0.376837 0)
(0.377853 0.398006 0)
(0.355012 0.418794 0)
(0.331385 0.438874 0)
(0.306902 0.457948 0)
(0.281515 0.475777 0)
(0.255203 0.492179 0)
(0.227976 0.507019 0)
(0.199865 0.52024 0)
(0.170925 0.531996 0)
(0.14123 0.542829 0)
(0.110856 0.553634 0)
(0.0798432 0.564942 0)
(0.0482286 0.575618 0)
(0.0161435 0.582494 0)
(0.520012 0.287925 0)
(0.503058 0.310376 0)
(0.484918 0.332686 0)
(0.464689 0.354836 0)
(0.443469 0.376874 0)
(0.421612 0.398874 0)
(0.39901 0.420785 0)
(0.375539 0.442391 0)
(0.351115 0.463374 0)
(0.325667 0.483412 0)
(0.299144 0.502237 0)
(0.271527 0.51964 0)
(0.242826 0.535459 0)
(0.213077 0.549615 0)
(0.182341 0.562237 0)
(0.150709 0.57385 0)