/*--------------------------------*- C++ -*----------------------------------*\
  =========                 |
  \\      /  F ield         | OpenFOAM: The Open Source CFD Toolbox
   \\    /   O peration     | Website:  https://openfoam.org
    \\  /    A nd           | Version:  7
     \\/     M anipulation  |
\*---------------------------------------------------------------------------*/
FoamFile
{
    version     2.0;
    format      ascii;
    class       volScalarField;
    location    "9.3";
    object      p;
}
// * * * * * * * * * * * * * * * * * * * * * * * * * * * * * * * * * * * * * //

dimensions      [0 2 -2 0 0 0 0];

internalField   nonuniform List<scalar> 
32000
(
0.199721
0.200415
0.200847
0.201293
0.201705
0.202082
0.202422
0.202736
0.203049
0.203375
0.203719
0.20408
0.204468
0.204905
0.205413
0.206009
0.206706
0.207516
0.208448
0.209517
0.210738
0.212122
0.213676
0.215402
0.217296
0.219356
0.221574
0.223946
0.226464
0.229119
0.2319
0.234798
0.237797
0.240884
0.244043
0.24726
0.250521
0.253814
0.257113
0.260351
0.199961
0.200642
0.201057
0.201478
0.201861
0.202204
0.20251
0.202795
0.203079
0.203376
0.203687
0.204013
0.204363
0.204759
0.205223
0.205772
0.206419
0.207172
0.208042
0.209045
0.210193
0.211498
0.212967
0.214602
0.216401
0.218362
0.22048
0.22275
0.225164
0.227716
0.230396
0.233192
0.236093
0.239086
0.242155
0.245286
0.248466
0.251683
0.254903
0.258072
0.200204
0.200867
0.201263
0.20166
0.202013
0.202324
0.202597
0.202853
0.203111
0.203378
0.203658
0.203951
0.204266
0.204624
0.205049
0.205555
0.206154
0.206856
0.207671
0.208613
0.209695
0.210927
0.212317
0.213866
0.215575
0.217442
0.219464
0.221636
0.223951
0.226402
0.228982
0.231679
0.234483
0.237381
0.240359
0.243402
0.246499
0.249636
0.252775
0.255873
0.200443
0.201079
0.201459
0.201833
0.202159
0.202439
0.202684
0.202913
0.203145
0.203386
0.203636
0.203897
0.20418
0.204505
0.204894
0.20536
0.205917
0.206572
0.207338
0.208225
0.209247
0.210412
0.211726
0.213195
0.214819
0.216598
0.218529
0.220606
0.222825
0.22518
0.227662
0.230262
0.232969
0.235772
0.238658
0.241613
0.244624
0.24768
0.250735
0.253759
0.200686
0.201295
0.201657
0.202009
0.202307
0.202559
0.202776
0.20298
0.203187
0.203402
0.203624
0.203856
0.20411
0.204404
0.20476
0.205191
0.205708
0.206322
0.207043
0.207881
0.208846
0.209949
0.211194
0.212589
0.214134
0.21583
0.217673
0.219661
0.221787
0.224048
0.226435
0.22894
0.231553
0.234263
0.237056
0.239921
0.242846
0.245818
0.248786
0.251734
0.200931
0.201508
0.201852
0.202182
0.202455
0.20268
0.202872
0.203051
0.203234
0.203424
0.203621
0.203827
0.204054
0.204321
0.204647
0.205046
0.205529
0.206106
0.206787
0.20758
0.208494
0.209539
0.210722
0.212048
0.21352
0.215138
0.216899
0.2188
0.220838
0.223008
0.225303
0.227716
0.230236
0.232853
0.235556
0.23833
0.241167
0.244053
0.246933
0.249802
0.201181
0.201723
0.202049
0.202356
0.202605
0.202806
0.202974
0.203131
0.20329
0.203457
0.20363
0.203813
0.204016
0.204258
0.204558
0.204929
0.205382
0.205928
0.206572
0.207324
0.208191
0.209184
0.210309
0.211573
0.212978
0.214523
0.216207
0.218026
0.21998
0.222063
0.224269
0.226592
0.229022
0.231548
0.234159
0.236843
0.239591
0.242391
0.24518
0.247969
0.201438
0.201942
0.202247
0.202532
0.202758
0.202936
0.203083
0.203218
0.203355
0.2035
0.203652
0.203814
0.203996
0.204217
0.204495
0.204842
0.20527
0.205787
0.206399
0.207113
0.207939
0.208885
0.209959
0.211166
0.212509
0.213986
0.215597
0.21734
0.219213
0.221213
0.223334
0.22557
0.227911
0.230347
0.232868
0.235462
0.238122
0.240835
0.243532
0.246238
0.201701
0.202164
0.202447
0.202709
0.202914
0.203071
0.203197
0.203312
0.20343
0.203556
0.203689
0.203831
0.203995
0.204199
0.204458
0.204785
0.205192
0.205684
0.206268
0.206949
0.207738
0.208643
0.209671
0.210827
0.212112
0.213527
0.21507
0.21674
0.218538
0.220459
0.222499
0.22465
0.226905
0.229253
0.231685
0.23419
0.236761
0.239387
0.241991
0.244614
0.201971
0.20239
0.20265
0.202889
0.203073
0.20321
0.203318
0.203415
0.203515
0.203624
0.203739
0.203866
0.204015
0.204204
0.204448
0.20476
0.20515
0.205621
0.20618
0.206833
0.20759
0.208458
0.209446
0.210556
0.211789
0.213146
0.214626
0.216229
0.217955
0.219802
0.221764
0.223834
0.226005
0.228268
0.230612
0.233029
0.235513
0.23805
0.240562
0.2431
0.202249
0.202621
0.202856
0.203071
0.203235
0.203353
0.203444
0.203525
0.203611
0.203704
0.203805
0.203918
0.204055
0.204233
0.204467
0.204768
0.205144
0.205598
0.206136
0.206765
0.207494
0.208332
0.209284
0.210352
0.211539
0.212843
0.214266
0.215806
0.217466
0.219242
0.221129
0.223122
0.225213
0.227392
0.22965
0.231981
0.234377
0.236828
0.239246
0.241699
0.202536
0.202858
0.203066
0.203257
0.203399
0.2035
0.203576
0.203644
0.203717
0.203797
0.203885
0.203987
0.204116
0.204287
0.204515
0.204808
0.205174
0.205614
0.206135
0.206745
0.207452
0.208264
0.209185
0.210217
0.211362
0.212619
0.213988
0.215472
0.217069
0.218779
0.220597
0.222516
0.224529
0.226627
0.228802
0.231047
0.233358
0.235722
0.238048
0.240415
0.202832
0.203101
0.203281
0.203446
0.203567
0.203651
0.203714
0.203772
0.203834
0.203903
0.20398
0.204075
0.204198
0.204366
0.204591
0.204881
0.20524
0.20567
0.206178
0.206773
0.207462
0.208253
0.209149
0.21015
0.211258
0.212472
0.213794
0.215225
0.216766
0.218414
0.220166
0.222015
0.223954
0.225974
0.228068
0.23023
0.232456
0.234735
0.236969
0.239249
0.203137
0.20335
0.203501
0.203638
0.203738
0.203807
0.20386
0.203909
0.203961
0.204021
0.204091
0.20418
0.204302
0.204471
0.204697
0.204986
0.205341
0.205765
0.206265
0.206849
0.207526
0.208301
0.209176
0.210151
0.211227
0.212404
0.213684
0.215067
0.216556
0.218148
0.219838
0.22162
0.223488
0.225433
0.227449
0.229529
0.231674
0.233868
0.236012
0.238206
0.203451
0.203604
0.203725
0.203833
0.203913
0.203969
0.204012
0.204054
0.204099
0.204151
0.204216
0.204304
0.204428
0.204601
0.204832
0.205123
0.205478
0.2059
0.206395
0.206974
0.207643
0.208407
0.209265
0.21022
0.211269
0.212414
0.213656
0.214998
0.216439
0.217979
0.219611
0.221331
0.22313
0.225004
0.226945
0.228947
0.231011
0.233124
0.235178
0.237287
0.203773
0.203864
0.203953
0.204031
0.204091
0.204135
0.204172
0.204208
0.204248
0.204295
0.204358
0.204447
0.204577
0.204757
0.204995
0.205292
0.20565
0.206073
0.206569
0.207147
0.207813
0.20857
0.209418
0.210355
0.211383
0.2125
0.213711
0.215015
0.216415
0.217906
0.219485
0.221146
0.222882
0.224687
0.226556
0.228483
0.23047
0.232502
0.23447
0.236492
0.204101
0.204128
0.204184
0.204233
0.204273
0.204306
0.204337
0.20437
0.204407
0.204452
0.204516
0.20461
0.204748
0.204938
0.205186
0.205491
0.205856
0.206285
0.206786
0.207368
0.208035
0.20879
0.209631
0.210557
0.211568
0.212663
0.213847
0.215119
0.216481
0.217928
0.219458
0.221064
0.22274
0.224481
0.226282
0.228137
0.230049
0.232003
0.233887
0.235824
0.204435
0.204395
0.204417
0.204436
0.204458
0.204482
0.204509
0.20454
0.204575
0.204622
0.20469
0.204793
0.204941
0.205144
0.205403
0.20572
0.206095
0.206535
0.207046
0.207636
0.208309
0.209066
0.209905
0.210824
0.211822
0.212901
0.214063
0.215308
0.216636
0.218044
0.219529
0.221084
0.222705
0.224386
0.226122
0.227909
0.229749
0.231628
0.233429
0.235283
0.204773
0.204663
0.204651
0.204641
0.204646
0.204661
0.204685
0.204716
0.204753
0.204804
0.20488
0.204994
0.205156
0.205373
0.205647
0.205978
0.206368
0.206822
0.207348
0.20795
0.208634
0.209397
0.210237
0.211154
0.212145
0.213212
0.214356
0.215578
0.216877
0.218251
0.219696
0.221206
0.222775
0.2244
0.226076
0.227798
0.229569
0.231376
0.233098
0.234869
0.205113
0.204931
0.204885
0.204847
0.204835
0.204842
0.204864
0.204897
0.204939
0.204997
0.205084
0.205212
0.20539
0.205624
0.205915
0.206263
0.206672
0.207145
0.207689
0.208309
0.209006
0.209779
0.210626
0.211545
0.212533
0.213593
0.214724
0.215928
0.217204
0.218548
0.219957
0.221426
0.222949
0.224523
0.226142
0.227803
0.229508
0.231246
0.232893
0.234582
0.205451
0.205196
0.205117
0.205051
0.205023
0.205024
0.205046
0.205082
0.205131
0.2052
0.205302
0.205447
0.205643
0.205896
0.206206
0.206575
0.207006
0.207502
0.208069
0.20871
0.209425
0.210212
0.211069
0.211994
0.212985
0.214041
0.215165
0.216355
0.217612
0.218932
0.220311
0.221743
0.223225
0.224751
0.226318
0.227922
0.229566
0.231239
0.232813
0.234422
0.205785
0.205456
0.205345
0.205253
0.205211
0.205205
0.205227
0.205269
0.205328
0.205412
0.20553
0.205695
0.205912
0.206186
0.206519
0.206912
0.207368
0.207891
0.208485
0.20915
0.209887
0.210692
0.211564
0.212498
0.213495
0.214554
0.215674
0.216856
0.2181
0.2194
0.220754
0.222155
0.223599
0.225083
0.226603
0.228154
0.229741
0.231351
0.232858
0.234388
0.206113
0.20571
0.205567
0.205451
0.205395
0.205385
0.205408
0.205457
0.205528
0.205629
0.205768
0.205954
0.206195
0.206493
0.206851
0.207271
0.207756
0.208309
0.208934
0.209628
0.21039
0.211217
0.212106
0.213055
0.214062
0.215127
0.216249
0.217428
0.218663
0.21995
0.221283
0.222657
0.224069
0.225516
0.226992
0.228496
0.230029
0.231582
0.233025
0.234478
0.206431
0.205954
0.205783
0.205643
0.205575
0.20556
0.205587
0.205643
0.205729
0.20585
0.206012
0.206223
0.206489
0.206814
0.2072
0.207649
0.208167
0.208755
0.209413
0.210139
0.21093
0.211782
0.212693
0.21366
0.214681
0.215757
0.216885
0.218066
0.219298
0.220576
0.221893
0.223246
0.224631
0.226044
0.227483
0.228943
0.230428
0.231928
0.233311
0.234691
0.206738
0.206188
0.205988
0.205826
0.205748
0.205731
0.20576
0.205828
0.20593
0.206072
0.20626
0.206498
0.206793
0.207147
0.207563
0.208045
0.208598
0.209223
0.209919
0.210681
0.211503
0.212383
0.213319
0.214308
0.215348
0.216438
0.217578
0.218766
0.22
0.221272
0.222579
0.223915
0.225278
0.226664
0.228071
0.229493
0.230934
0.232384
0.233714
0.235022
0.20703
0.206407
0.206182
0.206
0.205913
0.205894
0.205928
0.206007
0.206128
0.206294
0.20651
0.206778
0.207103
0.207488
0.207937
0.208454
0.209046
0.209712
0.210447
0.211247
0.212104
0.213015
0.213979
0.214994
0.216057
0.217167
0.218323
0.219522
0.220761
0.222034
0.223335
0.224659
0.226005
0.22737
0.228749
0.230138
0.231541
0.232948
0.234229
0.235468
0.207303
0.206611
0.206361
0.206162
0.206067
0.206047
0.206087
0.20618
0.206321
0.206513
0.206758
0.207059
0.207416
0.207834
0.208318
0.208874
0.209507
0.210215
0.210993
0.211833
0.212727
0.213673
0.214669
0.215712
0.216802
0.217936
0.219112
0.220327
0.221577
0.222854
0.224153
0.225472
0.226807
0.228156
0.229514
0.230875
0.232244
0.233613
0.234851
0.236026
0.207556
0.206795
0.206523
0.206309
0.206207
0.206188
0.206236
0.206343
0.206506
0.206725
0.207002
0.207336
0.207728
0.208181
0.208703
0.2093
0.209976
0.210729
0.211552
0.212434
0.213368
0.214351
0.215381
0.216458
0.217578
0.218739
0.219939
0.221174
0.222438
0.223724
0.225028
0.226346
0.227675
0.229014
0.230356
0.231697
0.233038
0.234374
0.235576
0.236689
0.207783
0.206958
0.206666
0.206438
0.206331
0.206314
0.206372
0.206495
0.20668
0.206929
0.207239
0.207608
0.208035
0.208526
0.209087
0.209727
0.210449
0.211248
0.212117
0.213043
0.214019
0.215042
0.216111
0.217223
0.218377
0.219569
0.220797
0.222055
0.223338
0.224638
0.225951
0.227273
0.228603
0.229937
0.23127
0.232595
0.233915
0.235225
0.236398
0.237454
0.207983
0.207095
0.206786
0.206546
0.206436
0.206423
0.206491
0.206631
0.206841
0.20712
0.207463
0.207868
0.208333
0.208863
0.209467
0.210152
0.21092
0.211768
0.212684
0.213655
0.214676
0.215741
0.216851
0.218002
0.219192
0.220419
0.221677
0.222962
0.224267
0.225585
0.226912
0.228244
0.229581
0.230917
0.232246
0.233562
0.234867
0.236158
0.23731
0.238314
0.208151
0.207205
0.20688
0.206629
0.206517
0.20651
0.206591
0.20675
0.206985
0.207294
0.207672
0.208114
0.208618
0.209189
0.209837
0.210568
0.211386
0.212282
0.213246
0.214265
0.215331
0.216441
0.217594
0.218786
0.220016
0.221279
0.222571
0.223886
0.225217
0.226557
0.227902
0.22925
0.230598
0.231941
0.233274
0.234588
0.235885
0.237165
0.238304
0.239263
0.208284
0.207284
0.206944
0.206685
0.206573
0.206574
0.206668
0.206848
0.207109
0.20745
0.207863
0.208342
0.208886
0.2095
0.210193
0.210972
0.211839
0.212786
0.213798
0.214865
0.215978
0.217135
0.218333
0.219569
0.220841
0.222142
0.22347
0.224817
0.226176
0.227542
0.22891
0.230278
0.231642
0.232999
0.234342
0.235662
0.23696
0.238237
0.239374
0.240294
0.20838
0.207329
0.206977
0.206711
0.206601
0.20661
0.20672
0.206921
0.20721
0.207582
0.208031
0.208547
0.209132
0.20979
0.21053
0.211359
0.212276
0.213272
0.214334
0.215449
0.216611
0.217816
0.219061
0.220342
0.221657
0.222999
0.224364
0.225745
0.227135
0.22853
0.229924
0.231316
0.232702
0.234078
0.235437
0.236771
0.238078
0.239363
0.240508
0.241398
0.208435
0.207339
0.206976
0.206704
0.206598
0.206616
0.206742
0.206967
0.207284
0.207689
0.208172
0.208727
0.209353
0.210055
0.210843
0.211722
0.21269
0.213736
0.214848
0.216012
0.217223
0.218476
0.219769
0.221097
0.222455
0.223839
0.225242
0.226659
0.228083
0.229508
0.230932
0.232351
0.233763
0.235163
0.236545
0.2379
0.239227
0.240531
0.241698
0.242567
0.208447
0.207309
0.206937
0.206663
0.206562
0.206591
0.206734
0.206982
0.207329
0.207766
0.208285
0.208877
0.209545
0.210292
0.211128
0.212057
0.213075
0.214172
0.215332
0.216546
0.217805
0.219108
0.220449
0.221824
0.223227
0.224653
0.226095
0.227548
0.229006
0.230464
0.231919
0.233368
0.23481
0.236239
0.23765
0.239034
0.24039
0.241726
0.242933
0.243795
0.208411
0.207239
0.206861
0.206586
0.20649
0.206531
0.206693
0.206966
0.207341
0.20781
0.208364
0.208995
0.209704
0.210496
0.21138
0.212359
0.213427
0.214573
0.215782
0.217044
0.218352
0.219704
0.221093
0.222514
0.223962
0.22543
0.226912
0.228402
0.229894
0.231385
0.232872
0.234353
0.235826
0.237288
0.238732
0.240153
0.241549
0.242933
0.244199
0.245073
0.208327
0.207126
0.206744
0.206469
0.206381
0.206435
0.206616
0.206914
0.207318
0.207819
0.208407
0.209076
0.209826
0.210664
0.211595
0.212622
0.21374
0.214934
0.21619
0.2175
0.218856
0.220255
0.221692
0.223159
0.224651
0.226161
0.227682
0.229208
0.230734
0.232258
0.233776
0.235289
0.236794
0.23829
0.239771
0.241235
0.242681
0.244128
0.245481
0.246396
0.208191
0.206968
0.206584
0.206312
0.206232
0.206301
0.206502
0.206825
0.207257
0.207789
0.208411
0.209118
0.209909
0.21079
0.211768
0.212843
0.214007
0.215248
0.216551
0.217907
0.21931
0.220756
0.222238
0.223751
0.225285
0.226835
0.228394
0.229954
0.231514
0.233069
0.234618
0.23616
0.237696
0.239223
0.240742
0.24225
0.243753
0.245281
0.246761
0.247778
0.208002
0.206763
0.20638
0.206112
0.206041
0.206126
0.206348
0.206695
0.207156
0.207718
0.208373
0.209117
0.209948
0.210872
0.211895
0.213016
0.214226
0.215511
0.216859
0.21826
0.219708
0.221198
0.222725
0.224279
0.225855
0.227443
0.229037
0.230631
0.232221
0.233805
0.235381
0.23695
0.23851
0.240064
0.241614
0.243164
0.244728
0.246362
0.248062
0.249339
0.207758
0.20651
0.20613
0.205868
0.205808
0.205909
0.206152
0.206525
0.207012
0.207604
0.208291
0.20907
0.20994
0.210906
0.211972
0.213137
0.214389
0.215717
0.217108
0.218551
0.220043
0.221575
0.223143
0.224738
0.226351
0.227975
0.229602
0.231225
0.232843
0.234452
0.23605
0.237638
0.239215
0.240784
0.242349
0.243922
0.245529
0.247269
0.249234
0.250974
0.271477
0.287791
0.302326
0.314438
0.324311
0.332304
0.338748
0.34401
0.348339
0.351953
0.355006
0.357625
0.359895
0.361883
0.363658
0.365247
0.366664
0.367933
0.369079
0.370112
0.371035
0.37185
0.372561
0.373167
0.373676
0.374096
0.374422
0.374652
0.374791
0.374836
0.374791
0.374649
0.374414
0.374083
0.37366
0.373135
0.372537
0.371823
0.371185
0.370174
0.269302
0.285475
0.300212
0.312421
0.32242
0.330508
0.337028
0.342338
0.346712
0.350372
0.353463
0.356104
0.358405
0.360433
0.362235
0.363842
0.365291
0.366595
0.367768
0.368822
0.369769
0.37061
0.371342
0.371972
0.372502
0.372935
0.373275
0.373526
0.373682
0.373745
0.37371
0.373587
0.373365
0.373046
0.372633
0.372118
0.371531
0.370825
0.370197
0.369195
0.267197
0.283191
0.298121
0.310413
0.320533
0.328712
0.335309
0.340667
0.345085
0.348789
0.351916
0.354581
0.356914
0.35898
0.360809
0.362436
0.363917
0.365255
0.366455
0.367531
0.368502
0.369368
0.370121
0.370775
0.371328
0.371776
0.37213
0.372403
0.372576
0.372657
0.372634
0.372529
0.37232
0.372013
0.37161
0.371107
0.37053
0.369834
0.369215
0.368221
0.265171
0.280943
0.29605
0.308416
0.318653
0.326915
0.333584
0.339
0.343462
0.347203
0.350363
0.353061
0.355424
0.357521
0.35938
0.361036
0.362547
0.363912
0.36514
0.366242
0.367236
0.368126
0.368902
0.369577
0.37015
0.370619
0.370991
0.371281
0.371472
0.371569
0.371563
0.371472
0.371278
0.370984
0.370593
0.370103
0.369535
0.368851
0.36824
0.367254
0.263224
0.278736
0.294004
0.306429
0.316779
0.325119
0.331858
0.337333
0.341841
0.345615
0.348806
0.351542
0.353934
0.356057
0.357948
0.359639
0.361177
0.362567
0.363822
0.364952
0.36597
0.366883
0.367682
0.368379
0.368972
0.369463
0.369857
0.370162
0.37037
0.370484
0.370497
0.37042
0.370241
0.36996
0.369582
0.369106
0.368547
0.367875
0.367273
0.366292
0.261356
0.276571
0.291986
0.304453
0.31491
0.323325
0.330133
0.335665
0.340218
0.344027
0.34725
0.350021
0.352443
0.354594
0.356517
0.358241
0.359808
0.361224
0.362505
0.363663
0.364705
0.365641
0.366464
0.367182
0.367796
0.368309
0.368724
0.369046
0.369272
0.369403
0.369435
0.369372
0.369209
0.368942
0.368577
0.368115
0.367566
0.366907
0.366314
0.365339
0.259572
0.274453
0.289999
0.30249
0.313048
0.321533
0.32841
0.333997
0.338594
0.342439
0.345695
0.348499
0.350952
0.353132
0.355086
0.356842
0.358438
0.359882
0.361189
0.362373
0.36344
0.364399
0.365246
0.365987
0.366623
0.367157
0.367593
0.367933
0.368177
0.368326
0.368377
0.368329
0.368182
0.36793
0.367577
0.36713
0.366592
0.365944
0.365362
0.364394
0.257874
0.272386
0.288045
0.300542
0.311193
0.319744
0.326687
0.332328
0.33697
0.340852
0.34414
0.346976
0.349461
0.35167
0.353655
0.355443
0.357068
0.35854
0.359874
0.361085
0.362176
0.363159
0.36403
0.364794
0.365451
0.366007
0.366464
0.366823
0.367086
0.367254
0.367323
0.367291
0.36716
0.366923
0.366584
0.366151
0.365626
0.364989
0.364418
0.363457
0.256265
0.270375
0.286127
0.29861
0.309347
0.317957
0.324966
0.330659
0.335345
0.339264
0.342585
0.345454
0.347969
0.350209
0.352224
0.354044
0.355699
0.357199
0.358559
0.359797
0.360914
0.361921
0.362816
0.363602
0.364282
0.36486
0.365338
0.365716
0.365998
0.366185
0.366272
0.366257
0.366142
0.365921
0.365596
0.365178
0.364666
0.364041
0.363481
0.362527
0.254747
0.268425
0.284247
0.296698
0.30751
0.316174
0.323246
0.32899
0.333721
0.337677
0.341031
0.343932
0.346478
0.348748
0.350795
0.352646
0.35433
0.35586
0.357246
0.35851
0.359653
0.360684
0.361603
0.362413
0.363116
0.363715
0.364215
0.364613
0.364914
0.365119
0.365225
0.365226
0.365128
0.364924
0.364613
0.364211
0.363713
0.3631
0.362551
0.361604
0.253323
0.266541
0.282407
0.294806
0.305683
0.314395
0.321528
0.327321
0.332097
0.336091
0.339479
0.342411
0.344988
0.347289
0.349367
0.35125
0.352963
0.354521
0.355935
0.357225
0.358394
0.359449
0.360392
0.361225
0.361952
0.362572
0.363094
0.363513
0.363833
0.364057
0.364181
0.3642
0.364119
0.363931
0.363637
0.36325
0.362768
0.362165
0.361627
0.360689
0.251994
0.264726
0.280611
0.292938
0.303868
0.312621
0.319811
0.325654
0.330475
0.334506
0.337928
0.340892
0.3435
0.345833
0.34794
0.349855
0.351598
0.353185
0.354626
0.355942
0.357137
0.358217
0.359184
0.36004
0.36079
0.361432
0.361975
0.362416
0.362755
0.362997
0.363141
0.363177
0.363113
0.362943
0.362666
0.362294
0.361828
0.361237
0.36071
0.359781
0.250762
0.262986
0.278861
0.291095
0.302066
0.310852
0.318097
0.323987
0.328853
0.332922
0.336379
0.339375
0.342013
0.344378
0.346517
0.348463
0.350234
0.35185
0.353319
0.354662
0.355884
0.356987
0.357979
0.358858
0.359632
0.360296
0.36086
0.361322
0.361679
0.361942
0.362104
0.362159
0.362112
0.36196
0.361701
0.361344
0.360895
0.360315
0.3598
0.358879
0.24963
0.261324
0.27716
0.289279
0.300277
0.309089
0.316385
0.322322
0.327233
0.331341
0.334832
0.337861
0.34053
0.342927
0.345096
0.347073
0.348874
0.350519
0.352016
0.353385
0.354633
0.355761
0.356777
0.357679
0.358477
0.359163
0.359748
0.360231
0.360608
0.360889
0.361071
0.361144
0.361115
0.360983
0.360742
0.3604
0.359968
0.359401
0.358895
0.357983
0.248598
0.259747
0.275509
0.287493
0.298503
0.307332
0.314675
0.320658
0.325614
0.329761
0.333288
0.336349
0.339049
0.341478
0.343678
0.345686
0.347517
0.349191
0.350717
0.352112
0.353387
0.354539
0.35558
0.356505
0.357326
0.358035
0.358639
0.359143
0.35954
0.359841
0.360042
0.360134
0.360124
0.36001
0.359788
0.359462
0.359047
0.358493
0.357998
0.357094
0.247667
0.258257
0.273912
0.28574
0.296745
0.305581
0.312969
0.318994
0.323997
0.328182
0.331745
0.334839
0.337571
0.340033
0.342263
0.344302
0.346163
0.347866
0.349421
0.350843
0.352144
0.353321
0.354386
0.355336
0.356179
0.35691
0.357535
0.358059
0.358476
0.358796
0.359017
0.359128
0.359137
0.359043
0.358841
0.35853
0.358132
0.357592
0.357106
0.356211
0.246839
0.25686
0.272372
0.284021
0.295005
0.303839
0.311265
0.317333
0.322382
0.326605
0.330205
0.333332
0.336097
0.338591
0.340852
0.342922
0.344814
0.346546
0.348131
0.349579
0.350906
0.352108
0.353197
0.354171
0.355036
0.355789
0.356434
0.356979
0.357416
0.357755
0.357995
0.358127
0.358156
0.358081
0.357899
0.357605
0.357223
0.356697
0.356221
0.355334
0.246114
0.25556
0.27089
0.28234
0.293283
0.302105
0.309565
0.315672
0.320767
0.32503
0.328667
0.331828
0.334625
0.337152
0.339445
0.341546
0.343469
0.34523
0.346844
0.348319
0.349673
0.350899
0.352013
0.353011
0.353898
0.354673
0.355337
0.355903
0.35636
0.356719
0.356978
0.357131
0.357179
0.357124
0.356962
0.356687
0.356321
0.355809
0.355343
0.354465
0.245494
0.25436
0.26947
0.280699
0.291582
0.300382
0.307869
0.314013
0.319153
0.323455
0.327131
0.330327
0.333158
0.335718
0.338043
0.340174
0.342128
0.343918
0.345563
0.347064
0.348443
0.349696
0.350833
0.351855
0.352763
0.35356
0.354245
0.35483
0.355308
0.355686
0.355965
0.356139
0.356208
0.356172
0.356031
0.355774
0.355424
0.354927
0.354472
0.353602
0.244977
0.253265
0.268115
0.279102
0.289902
0.298669
0.306177
0.312355
0.317541
0.321883
0.325597
0.328829
0.331695
0.334288
0.336645
0.338807
0.340793
0.342612
0.344285
0.345814
0.347219
0.348497
0.349657
0.350703
0.351633
0.352451
0.353156
0.353761
0.354259
0.354656
0.354955
0.35515
0.35524
0.355226
0.355106
0.354868
0.354534
0.354052
0.353609
0.352748
0.244565
0.252278
0.266826
0.27755
0.288245
0.296969
0.304489
0.3107
0.315929
0.320312
0.324066
0.327335
0.330236
0.332863
0.335252
0.337445
0.339462
0.34131
0.343013
0.344569
0.345999
0.347303
0.348486
0.349556
0.350507
0.351345
0.352071
0.352695
0.353213
0.35363
0.353949
0.354166
0.354277
0.354284
0.354185
0.353967
0.353651
0.353185
0.352754
0.351901
0.244257
0.251403
0.265606
0.276048
0.286614
0.295283
0.302807
0.309046
0.314319
0.318742
0.322538
0.325844
0.328781
0.331442
0.333865
0.336089
0.338136
0.340014
0.341745
0.343328
0.344783
0.346113
0.34732
0.348412
0.349385
0.350244
0.35099
0.351632
0.35217
0.352608
0.352946
0.353185
0.353317
0.353347
0.353269
0.353072
0.352774
0.352324
0.351907
0.351063
0.244052
0.250641
0.264458
0.274598
0.285011
0.293612
0.301132
0.307393
0.312709
0.317173
0.321011
0.324357
0.327331
0.330027
0.332482
0.334738
0.336816
0.338723
0.340482
0.342093
0.343573
0.344928
0.346158
0.347272
0.348267
0.349145
0.349911
0.350572
0.35113
0.351588
0.351946
0.352208
0.352361
0.352413
0.352357
0.352182
0.351904
0.351471
0.351067
0.350234
0.243949
0.249996
0.263383
0.273203
0.283438
0.291958
0.299463
0.305742
0.311101
0.315605
0.319487
0.322872
0.325885
0.328617
0.331105
0.333394
0.335502
0.337438
0.339225
0.340863
0.342367
0.343748
0.345001
0.346137
0.347152
0.34805
0.348835
0.349515
0.350093
0.350572
0.350949
0.351233
0.351408
0.351482
0.351449
0.351297
0.351039
0.350625
0.350236
0.349413
0.243945
0.249467
0.262385
0.271866
0.281898
0.290322
0.297803
0.304093
0.309494
0.314038
0.317964
0.32139
0.324443
0.327212
0.329734
0.332055
0.334193
0.336159
0.337974
0.339639
0.341167
0.342572
0.343849
0.345005
0.346042
0.346959
0.347762
0.348461
0.349059
0.349557
0.349955
0.350261
0.350458
0.350555
0.350544
0.350416
0.350181
0.349787
0.349414
0.348602
0.244039
0.249057
0.261465
0.270589
0.280393
0.288707
0.296152
0.302447
0.307888
0.312473
0.316444
0.319911
0.323006
0.325812
0.328369
0.330723
0.332891
0.334886
0.336729
0.338421
0.339973
0.341402
0.342702
0.343878
0.344935
0.345871
0.346693
0.347411
0.348028
0.348546
0.348964
0.349291
0.34951
0.34963
0.349642
0.349538
0.349328
0.348957
0.3486
0.3478
0.244229
0.248765
0.260625
0.269374
0.278926
0.287114
0.294511
0.300805
0.306284
0.310908
0.314925
0.318437
0.321573
0.324418
0.32701
0.329397
0.331596
0.333621
0.33549
0.337209
0.338785
0.340237
0.34156
0.342755
0.343832
0.344786
0.345627
0.346363
0.347
0.347537
0.347976
0.348323
0.348565
0.348707
0.348744
0.348665
0.34848
0.348134
0.347796
0.34701
0.244511
0.248591
0.259866
0.268226
0.2775
0.285546
0.292882
0.299167
0.304681
0.309345
0.313408
0.316966
0.320146
0.32303
0.325657
0.328079
0.330308
0.332362
0.334259
0.336003
0.337604
0.339078
0.340423
0.341637
0.342734
0.343706
0.344566
0.345319
0.345975
0.346531
0.346991
0.347358
0.347621
0.347786
0.347848
0.347796
0.347638
0.347319
0.347002
0.34623
0.244883
0.248531
0.259189
0.267146
0.276117
0.284005
0.291268
0.297533
0.30308
0.307782
0.311893
0.315498
0.318724
0.321648
0.324312
0.326767
0.329027
0.331111
0.333034
0.334805
0.336429
0.337925
0.339291
0.340524
0.34164
0.34263
0.343508
0.344278
0.344954
0.345527
0.346008
0.346395
0.34668
0.346868
0.346954
0.34693
0.346801
0.346512
0.346218
0.345463
0.24534
0.248584
0.258596
0.266137
0.274781
0.282494
0.28967
0.295906
0.301481
0.306221
0.31038
0.314033
0.317306
0.320272
0.322974
0.325463
0.327755
0.329867
0.331817
0.333613
0.335261
0.336778
0.338166
0.339417
0.34055
0.341559
0.342454
0.343242
0.343936
0.344527
0.345027
0.345433
0.34574
0.34595
0.346063
0.346068
0.345969
0.345712
0.345445
0.34471
0.24588
0.248745
0.258086
0.265201
0.273497
0.281017
0.288091
0.294287
0.299886
0.304661
0.308868
0.312572
0.315893
0.318901
0.321642
0.324167
0.32649
0.328631
0.330607
0.332428
0.3341
0.335637
0.337045
0.338315
0.339466
0.340492
0.341404
0.342209
0.342922
0.34353
0.344049
0.344474
0.344801
0.345034
0.345173
0.345208
0.345141
0.34492
0.344684
0.343971
0.246497
0.249006
0.257659
0.264341
0.272268
0.279576
0.286535
0.292678
0.298295
0.303103
0.307358
0.311113
0.314484
0.317537
0.320318
0.322878
0.325233
0.327403
0.329405
0.331251
0.332946
0.334503
0.335931
0.337219
0.338386
0.33943
0.340359
0.341181
0.341911
0.342536
0.343072
0.343515
0.343863
0.344118
0.344283
0.344349
0.344317
0.344134
0.343935
0.343249
0.247187
0.249362
0.257316
0.263559
0.271099
0.278177
0.285004
0.291082
0.296709
0.301547
0.30585
0.309657
0.313079
0.316179
0.319
0.321597
0.323984
0.326183
0.328211
0.330081
0.331799
0.333376
0.334823
0.336129
0.337311
0.338373
0.339319
0.340156
0.340903
0.341545
0.342098
0.342558
0.342926
0.343203
0.343395
0.343492
0.343496
0.343356
0.343198
0.342546
0.247944
0.249802
0.257056
0.26286
0.269993
0.276823
0.283503
0.289501
0.29513
0.299994
0.304344
0.308203
0.311678
0.314826
0.31769
0.320324
0.322743
0.324971
0.327025
0.328919
0.330659
0.332256
0.333721
0.335045
0.336242
0.33732
0.338283
0.339136
0.339899
0.340556
0.341125
0.341602
0.341989
0.342288
0.342506
0.342635
0.342677
0.342583
0.342474
0.341864
0.248763
0.250317
0.256876
0.262245
0.268954
0.275516
0.282035
0.287937
0.293559
0.298444
0.302838
0.306752
0.310282
0.313479
0.316387
0.319058
0.321511
0.323767
0.325847
0.327764
0.329526
0.331143
0.332625
0.333966
0.335178
0.336272
0.337251
0.338119
0.338896
0.339569
0.340153
0.340646
0.341053
0.341373
0.341616
0.341777
0.34186
0.341815
0.341763
0.341208
0.249641
0.250899
0.256778
0.261719
0.267989
0.274263
0.280605
0.286394
0.291997
0.296898
0.301334
0.305304
0.30889
0.312138
0.315092
0.317801
0.320286
0.322571
0.324677
0.326618
0.328401
0.330037
0.331534
0.332893
0.334119
0.335229
0.336222
0.337105
0.337896
0.338584
0.339182
0.33969
0.340116
0.340458
0.340726
0.340919
0.341042
0.341052
0.341065
0.340581
0.250572
0.251539
0.256765
0.261287
0.267105
0.273069
0.279218
0.284878
0.290448
0.295358
0.299834
0.30386
0.307503
0.310804
0.313805
0.316553
0.319071
0.321385
0.323516
0.325479
0.327282
0.328937
0.33045
0.331824
0.333065
0.33419
0.335197
0.336095
0.336899
0.3376
0.338212
0.338735
0.339178
0.339541
0.339834
0.340058
0.340224
0.340292
0.340379
0.33999
0.2515
0.252193
0.256815
0.260939
0.266301
0.271937
0.277877
0.283393
0.288915
0.293829
0.29834
0.302421
0.306121
0.309475
0.312522
0.315308
0.317859
0.320201
0.322357
0.324342
0.326165
0.327837
0.329365
0.330755
0.33201
0.333149
0.334171
0.335082
0.335898
0.336613
0.337238
0.337776
0.338237
0.338619
0.338937
0.339192
0.339401
0.33953
0.339703
0.33944
0.252369
0.252791
0.256849
0.260606
0.265517
0.270816
0.276539
0.281904
0.287366
0.292276
0.296817
0.30095
0.304706
0.308114
0.311209
0.314035
0.316622
0.318995
0.321177
0.323186
0.32503
0.326722
0.328267
0.329673
0.330944
0.332098
0.333134
0.33406
0.334888
0.335616
0.336256
0.336809
0.337286
0.337689
0.338031
0.338317
0.338568
0.338762
0.339031
0.338941
0.253938
0.253815
0.257179
0.26047
0.264849
0.269743
0.275202
0.280374
0.285736
0.290621
0.295186
0.299377
0.303205
0.306688
0.309854
0.31274
0.315377
0.317793
0.320009
0.322046
0.323914
0.325625
0.327187
0.328609
0.329895
0.331061
0.33211
0.333049
0.333887
0.334627
0.335278
0.335844
0.336336
0.336758
0.337121
0.337435
0.337725
0.337983
0.338354
0.338496
0.26334
0.261205
0.26236
0.263598
0.265568
0.268339
0.272241
0.276218
0.280871
0.285505
0.290133
0.294594
0.29878
0.302628
0.306117
0.309255
0.312075
0.314618
0.316919
0.319011
0.320919
0.322658
0.324241
0.325681
0.326985
0.328164
0.329226
0.33018
0.33103
0.331788
0.332457
0.333048
0.333569
0.334028
0.334438
0.334815
0.335191
0.3356
0.336236
0.337169
0.264894
0.26145
0.262639
0.262821
0.26318
0.264199
0.266737
0.269934
0.273891
0.278216
0.282887
0.287587
0.292091
0.296258
0.30002
0.303374
0.306352
0.309006
0.311385
0.313532
0.31548
0.317249
0.318858
0.320319
0.321643
0.322841
0.323921
0.324892
0.325761
0.326535
0.327223
0.327832
0.328372
0.328853
0.329288
0.329698
0.330122
0.330623
0.331433
0.332732
0.261369
0.260025
0.260567
0.260153
0.259512
0.259346
0.260612
0.263076
0.266589
0.270803
0.275596
0.280582
0.285444
0.289959