/*--------------------------------*- C++ -*----------------------------------*\
  =========                 |
  \\      /  F ield         | OpenFOAM: The Open Source CFD Toolbox
   \\    /   O peration     | Website:  https://openfoam.org
    \\  /    A nd           | Version:  7
     \\/     M anipulation  |
\*---------------------------------------------------------------------------*/
FoamFile
{
    version     2.0;
    format      ascii;
    class       surfaceScalarField;
    location    "9.3";
    object      phi;
}
// * * * * * * * * * * * * * * * * * * * * * * * * * * * * * * * * * * * * * //

dimensions      [0 3 -1 0 0 0 0];

internalField   nonuniform List<scalar> 
63520
(
6.78774e-06
-0.000139667
0.00013288
2.60076e-05
-0.000303349
0.000284129
5.7251e-05
-0.000364536
0.000333292
0.000100344
-0.000342547
0.000299453
0.000155262
-0.000251695
0.000196777
0.00022207
-0.000102972
3.61633e-05
0.00030088
9.46401e-05
-0.00017345
0.000391828
0.000333833
-0.000424781
0.00049504
0.000608532
-0.000711744
0.000610627
0.000913693
-0.00102928
0.000738652
0.00124508
-0.00137311
0.000879115
0.00159906
-0.00173952
0.00103195
0.0019724
-0.00212523
0.00119699
0.00236223
-0.00252727
0.00137397
0.00276588
-0.00294287
0.00156253
0.00318082
-0.00336938
0.00176216
0.00360461
-0.00380425
0.00197226
0.00403487
-0.00424497
0.00219209
0.00446925
-0.00468907
0.00242077
0.00490542
-0.0051341
0.00265734
0.00534107
-0.00557764
0.00290073
0.00577391
-0.00601731
0.00314978
0.00620172
-0.00645077
0.00340326
0.00662231
-0.00687579
0.00365988
0.0070336
-0.00729022
0.00391833
0.00743362
-0.00769208
0.00417731
0.00782054
-0.00807952
0.00443551
0.00819269
-0.00845089
0.00469167
0.00854859
-0.00880474
0.00494458
0.00888694
-0.00913985
0.00519313
0.00920667
-0.00945522
0.00543629
0.00950694
-0.00975009
0.00567312
0.00978709
-0.0100239
0.00590284
0.0100467
-0.0102764
0.00612478
0.0102855
-0.0105075
0.00633841
0.0105034
-0.0107171
0.0065434
0.0107003
-0.0109053
0.00673958
0.0108758
-0.0110719
0.00692703
0.0110291
-0.0112165
0.0111577
0.00710609
-0.0113368
6.52598e-06
-0.000146194
2.50164e-05
-0.00032184
5.49539e-05
-0.000394473
9.61297e-05
-0.000383723
0.000148518
-0.000304084
0.000212199
-0.000166652
0.000287292
1.95474e-05
0.000373958
0.000247166
0.00047235
0.000510139
0.0005826
0.000803444
0.000704802
0.00112288
0.000838993
0.00146486
0.000985139
0.00182625
0.00114313
0.00220424
0.00131276
0.00259625
0.00149373
0.00299985
0.00168562
0.00341272
0.00188789
0.0038326
0.0020999
0.00425725
0.00232087
0.00468444
0.00254994
0.00511199
0.00278614
0.00553772
0.0030284
0.00595946
0.00327559
0.00637512
0.00352651
0.00678268
0.00377993
0.00718021
0.0040346
0.00756588
0.00428926
0.00793803
0.00454271
0.00829514
0.00479376
0.00863589
0.00504129
0.00895914
0.00528427
0.00926396
0.00552175
0.0095496
0.00575292
0.00981554
0.00597705
0.0100614
0.00619358
0.0102869
0.0064021
0.0104918
0.0066024
0.0106755
0.00679444
0.010837
0.0109738
0.00697842
6.26714e-06
-0.000152461
2.39931e-05
-0.000339566
5.25766e-05
-0.000423057
9.17918e-05
-0.000422938
0.000141609
-0.000353901
0.000202131
-0.000227175
0.000273498
-5.18201e-05
0.000355897
0.000164768
0.000449501
0.000416535
0.000554466
0.000698479
0.000670913
0.00100643
0.000798911
0.00133687
0.000938465
0.0016867
0.00108951
0.0020532
0.00125189
0.00243387
0.00142536
0.00282638
0.00160957
0.00322852
0.00180405
0.00363812
0.00200824
0.00405305
0.00222147
0.00447122
0.00244295
0.00489052
0.0026718
0.00530886
0.00290706
0.0057242
0.00314768
0.0061345
0.00339255
0.00653781
0.00364051
0.00693224
0.00389039
0.007316
0.00414099
0.00768742
0.00439114
0.00804499
0.00463969
0.00838734
0.00488554
0.00871329
0.00512766
0.00902184
0.00536509
0.00931217
0.00559698
0.00958364
0.0058226
0.00983577
0.00604134
0.0100682
0.00625274
0.0102804
0.0064565
0.0104717
0.00665252
0.010641
0.0107854
0.00684085
6.01779e-06
-0.000158479
2.29207e-05
-0.000356469
5.00811e-05
-0.000450217
8.72633e-05
-0.000460121
0.000134453
-0.000401091
0.000191769
-0.000284491
0.000259379
-0.000119431
0.000337495
8.66513e-05
0.00042632
0.00032771
0.00052603
0.000598769
0.000636773
0.00089569
0.000758653
0.00121499
0.000891705
0.00155365
0.0010359
0.001909
0.00119113
0.00227864
0.0013572
0.00266032
0.00153381
0.00305191
0.00172057
0.00345136
0.00191698
0.00385664
0.00212246
0.00426574
0.0023363
0.00467668
0.00255771
0.00508745
0.0027858
0.0054961
0.00301964
0.00590067
0.00325817
0.00629928
0.00350034
0.00669007
0.00374503
0.00707131
0.0039911
0.00744135
0.00423743
0.00779866
0.00448291
0.00814186
0.00472646
0.00846974
0.00496706
0.00878124
0.00520377
0.00907546
0.00543572
0.00935169
0.00566215
0.00960934
0.00588242
0.0098479
0.00609602
0.0100668
0.0063026
0.0102651
0.00650197
0.0104416
0.0105933
0.00669405
5.75051e-06
-0.000164229
2.17774e-05
-0.000372496
4.74445e-05
-0.000475885
8.25181e-05
-0.000495194
0.000127006
-0.000445578
0.000181052
-0.000338537
0.000244862
-0.000183241
0.000318668
1.28451e-05
0.000402703
0.000243675
0.000497174
0.000504298
0.000602255
0.00079061
0.000718071
0.00109917
0.000844693
0.00142702
0.000982126
0.00177157
0.0011303
0.00213047
0.00128906
0.00250156
0.00145816
0.0028828
0.00163727
0.00327224
0.00182597
0.00366794
0.00202371
0.004068
0.00222989
0.0044705
0.0024438
0.00487355
0.00266463
0.00527527
0.00289151
0.00567379
0.00312349
0.00606729
0.00335957
0.00645399
0.00359872
0.00683217
0.00383985
0.00720021
0.0040819
0.00755661
0.0043238
0.00789997
0.0045645
0.00822904
0.00480301
0.00854273
0.00503837
0.00884009
0.00526973
0.00912033
0.00549632
0.00938276
0.00571745
0.00962676
0.0059326
0.00985163
0.00614136
0.0100564
0.00634345
0.0102395
0.0103981
0.00653866
5.46808e-06
-0.000169697
2.05574e-05
-0.000387585
4.46458e-05
-0.000499973
7.75202e-05
-0.000528069
0.00011922
-0.000487278
0.00016992
-0.000389237
0.000229863
-0.000243184
0.000299314
-5.6606e-05
0.000378537
0.000164452
0.000467766
0.000415068
0.0005672
0.000691175
0.000676995
0.000989376
0.000797249
0.00130677
0.000927994
0.00164082
0.00106919
0.00198927
0.00122074
0.00235002
0.00138242
0.00272112
0.00155397
0.0031007
0.001735
0.00348691
0.00192506
0.00387793
0.00212361
0.00427195
0.00232998
0.00466717
0.00254348
0.00506178
0.00276329
0.00545399
0.00298854
0.00584204
0.00321831
0.00622422
0.00345163
0.00659885
0.00368748
0.00696436
0.00392485
0.00731924
0.00416272
0.0076621
0.00440008
0.00799168
0.00463595
0.00830686
0.00486941
0.00860664
0.00509959
0.00889015
0.00532571
0.00915664
0.00554709
0.00940538
0.00576316
0.00963556
0.00597347
0.00984605
0.00617766
0.0100353
0.0102004
0.00637541
5.15842e-06
-0.000174856
1.9243e-05
-0.000401669
4.16639e-05
-0.000522394
7.22408e-05
-0.000558646
0.000111053
-0.000526091
0.000158317
-0.000436501
0.000214318
-0.000299185
0.000279356
-0.000121644
0.000353726
9.00822e-05
0.000437696
0.000331099
0.000531492
0.000597378
0.000635294
0.000885574
0.000749225
0.00119284
0.000873347
0.0015167
0.00100765
0.00185496
0.00115207
0.0022056
0.00130642
0.00256676
0.00147049
0.00293663
0.00164395
0.00331345
0.00182639
0.00369549
0.00201732
0.00408102
0.00221618
0.00446831
0.0024223
0.00485565
0.00263497
0.00524132
0.00285337
0.00562364
0.00307666
0.00600093
0.00330392
0.00637159
0.00353421
0.00673407
0.00376657
0.00708688
0.00400003
0.00742864
0.00423361
0.0077581
0.00446637
0.0080741
0.00469741
0.0083756
0.00492587
0.00866169
0.00515097
0.00893154
0.00537202
0.00918434
0.00558841
0.00941916
0.00579967
0.00963479
0.00600537
0.00982964
0.0100007
0.00620505
4.8158e-06
-0.000179671
1.78233e-05
-0.000414677
3.84789e-05
-0.00054305
6.66497e-05
-0.000586816
0.000102467
-0.000561909
0.000146196
-0.000480229
0.000198167
-0.000351156
0.000258721
-0.000182198
0.00032819
2.06136e-05
0.000406872
0.000252417
0.000495022
0.000509228
0.000592846
0.00078775
0.000700492
0.00108519
0.000818047
0.00139915
0.000945532
0.00172747
0.00108289
0.00206824
0.00123001
0.00241964
0.00138669
0.00277995
0.00155265
0.00314749
0.00172755
0.0035206
0.00191094
0.00389763
0.00210231
0.00427694
0.00230106
0.00465689
0.00250655
0.00503584
0.00271803
0.00541216
0.0029347
0.00578426
0.00315574
0.00615056
0.00338025
0.00650955
0.00360733
0.0068598
0.00383605
0.00719992
0.00406549
0.00752866
0.00429473
0.00784485
0.0045229
0.00814743
0.00474915
0.00843544
0.00497271
0.00870798
0.00519289
0.00896416
0.00540906
0.00920299
0.0056207
0.00942315
0.00582733
0.00962301
0.00979965
0.00602839
4.43605e-06
-0.000184107
1.62875e-05
-0.000426529
3.50736e-05
-0.000561836
6.0723e-05
-0.000612466
9.34303e-05
-0.000594616
0.000133516
-0.000520315
0.000181361
-0.000399001
0.000237352
-0.00023819
0.000301859
-4.38935e-05
0.000375214
0.000179061
0.000457703
0.00042674
0.000549554
0.000695899
0.000650941
0.000983807
0.000761974
0.00128811
0.000882697
0.00160675
0.00101309
0.00193785
0.00115306
0.00227968
0.00130244
0.00263057
0.001461
0.00298893
0.00162843
0.00335317
0.00180435
0.00372172
0.00198828
0.00409301
0.00217971
0.00446547
0.00237801
0.00483753
0.00258253
0.00520764
0.00279252
0.00557426
0.00300722
0.00593586
0.00322578
0.00629099
0.00344737
0.00663821
0.00367109
0.0069762
0.00389608
0.00730368
0.00412145
0.00761948
0.00434636
0.00792253
0.00456998
0.00821182
0.00479155
0.00848641
0.00501037
0.00874534
0.00522582
0.00898755
0.00543733
0.00921163
0.00564435
0.00941598
0.00959776
0.00584624
4.01577e-06
-0.000188123
1.46271e-05
-0.00043714
3.14339e-05
-0.000578643
5.44416e-05
-0.000635474
8.39169e-05
-0.000624091
0.000120244
-0.000556642
0.000163861
-0.000442618
0.000215203
-0.000289532
0.000274682
-0.000103372
0.000342663
0.000111079
0.000419463
0.000349939
0.000505338
0.000610024
0.000600483
0.000888662
0.00070503
0.00118357
0.000819048
0.00149273
0.000942539
0.00181436
0.00107544
0.00214678
0.00121762
0.00248839
0.00136888
0.00283767
0.00152894
0.0031931
0.00169747
0.00355319
0.00187405
0.00391643
0.00205819
0.00428132
0.00224935
0.00464638
0.0024469
0.00501009
0.00265018
0.00537098
0.00285846
0.00572759
0.00307097
0.00607848
0.0032869
0.00642228
0.00350544
0.00675766
0.00372573
0.00708338
0.00394695
0.00739826
0.00416827
0.00770121
0.0043889
0.00799119
0.00460809
0.00826722
0.00482513
0.0085283
0.00503939
0.00877328
0.0052503
0.00900073
0.00545723
0.00920905
0.00939554
0.00565945
3.55216e-06
-0.000191675
1.28362e-05
-0.000446424
2.755e-05
-0.000593357
4.77911e-05
-0.000655715
7.39088e-05
-0.000650209
0.00010636
-0.000589093
0.000145642
-0.0004819
0.000192244
-0.000336135
0.000246621
-0.000157748
0.000309177
4.85234e-05
0.000380256
0.00027886
0.000460142
0.000530138
0.000549055
0.00079975
0.000647147
0.00108547
0.000754508
0.00138537
0.000871164
0.00169771
0.000997077
0.00202086
0.00113214
0.00235332
0.00127619
0.00269362
0.00142899
0.0030403
0.00159023
0.00339195
0.00175954
0.00374712
0.00193648
0.00410439
0.00212054
0.00446231
0.00231117
0.00481946
0.00250774
0.00517441
0.00270957
0.00552575
0.00291596
0.00587209
0.00312615
0.00621209
0.00333935
0.00654446
0.00355477
0.00686796
0.00377162
0.00718141
0.0039891
0.00748373
0.00420644
0.00777385
0.00442291
0.00805076
0.00463781
0.00831339
0.0048505
0.00856059
0.00506038
0.00879086
0.00526677
0.00900265
0.00919344
0.00546887
3.04431e-06
-0.00019472
1.09104e-05
-0.00045429
2.34153e-05
-0.000605861
4.07638e-05
-0.000673063
6.33969e-05
-0.000672842
9.18507e-05
-0.000617547
0.00012669
-0.00051674
0.00016846
-0.000377905
0.00021766
-0.000206949
0.000274733
-8.54952e-06
0.000340056
0.000213537
0.000413938
0.000456255
0.000496622
0.000717066
0.000588283
0.000993813
0.00068903
0.00128462
0.000798913
0.00158782
0.000917915
0.00190186
0.00104596
0.00222528
0.0011829
0.00255668
0.00132853
0.00289467
0.00148259
0.0032379
0.00164473
0.00358498
0.00181455
0.00393456
0.00199161
0.00428526
0.00217537
0.0046357
0.00236527
0.00498451
0.00256068
0.00533034
0.00276093
0.00567184
0.00296531
0.00600771
0.0031731
0.00633667
0.00338353
0.00665752
0.00359585
0.0069691
0.00380929
0.00727029
0.00402311
0.00756003
0.00423659
0.00783727
0.00444905
0.00810093
0.00465984
0.0083498
0.00486832
0.00858238
0.00507379
0.00879718
0.00899188
0.00527536
2.491e-06
-0.000197211
8.84814e-06
-0.000460647
1.9028e-05
-0.000616041
3.33573e-05
-0.000687393
5.23791e-05
-0.000691864
7.6717e-05
-0.000641885
0.000107007
-0.000547029
0.000143852
-0.00041475
0.0001878
-0.000250897
0.000239333
-6.0083e-05
0.000298861
0.000154009
0.00036672
0.000388396
0.000443176
0.000640609
0.000528426
0.000908563
0.000622601
0.00119045
0.000725767
0.00148466
0.000837932
0.0017897
0.000959039
0.00210417
0.00108897
0.00242675
0.00122754
0.0027561
0.00137452
0.00309092
0.00152961
0.0034299
0.00169243
0.00377174
0.00186257
0.00411511
0.00203956
0.00445871
0.00222285
0.00480122
0.00241188
0.00514131
0.00260602
0.0054777
0.0028046
0.00580912
0.00300693
0.00613434
0.00321231
0.00645215
0.00342
0.00676141
0.00362926
0.00706102
0.0038394
0.00734989
0.0040497
0.00762697
0.00425949
0.00789114
0.00446811
0.00814118
0.0046749
0.00837559
0.00487911
0.00859297
0.0087912
0.00507979
1.8925e-06
-0.000199103
6.64973e-06
-0.000465405
1.43896e-05
-0.000623781
2.55754e-05
-0.000698579
4.08627e-05
-0.000707151
6.09689e-05
-0.000661992
8.6605e-05
-0.000572666
0.000118436
-0.000446581
0.00015706
-0.000289521
0.000202998
-0.000106022
0.000256694
0.000100314
0.000318511
0.000326579
0.00038874
0.00057038
0.000467599
0.000829704
0.000555237
0.00110281
0.000651744
0.00138815
0.000757143
0.0016843
0.000871399
0.00198992
0.000994417
0.00230373
0.00112604
0.00262447
0.00126607
0.00295089
0.00141421
0.00328175
0.00157015
0.0036158
0.00173349
0.00395177
0.0019038
0.0042884
0.0020806
0.00462443
0.00226332
0.00495858
0.00245141
0.00528962
0.00264423
0.00561631
0.00284113
0.00593744
0.00304143
0.00625185
0.00324444
0.0065584
0.00344947
0.00685599
0.00365581
0.00714355
0.00386279
0.00741999
0.00406974
0.0076842
0.00427598
0.00793493
0.00448085
0.00817073
0.00468355
0.00839027
0.00859169
0.00488305
1.24959e-06
-0.000200353
4.31774e-06
-0.000468473
9.50569e-06
-0.000628969
1.74282e-05
-0.000706501
2.88631e-05
-0.000718587
4.46282e-05
-0.000677757
6.55134e-05
-0.000593551
9.2248e-05
-0.000473316
0.00012548
-0.000322753
0.000165773
-0.000146315
0.000213603
5.24837e-05
0.000269363
0.000270819
0.000333367
0.000506376
0.000405853
0.000757218
0.000486994
0.00102167
0.000576894
0.00129825
0.000675599
0.00158559
0.000783091
0.00188243
0.000899297
0.00218752
0.00102409
0.00249968
0.00115727
0.00281771
0.0012986
0.00314042
0.00144778
0.00346662
0.00160446
0.00379509
0.00176822
0.00412463
0.00193863
0.00445402
0.00211517
0.00478205
0.00229729
0.00510749
0.00248442
0.00542918
0.00267594
0.00574592
0.00287121
0.00605658
0.00306956
0.00636005
0.00327033
0.00665522
0.00347284
0.00694104
0.00367642
0.00721641
0.00388042
0.0074802
0.00408416
0.00773119
0.00428692
0.00796796
0.0044879
0.0081893
0.00839359
0.00468601
5.63775e-07
-0.000200917
1.85672e-06
-0.000469766
4.38574e-06
-0.000631498
8.93169e-06
-0.000711047
1.64045e-05
-0.000726059
2.77274e-05
-0.00068908
4.37732e-05
-0.000609597
6.53368e-05
-0.00049488
9.31185e-05
-0.000350535
0.000127723
-0.000180919
0.00016966
1.05464e-05
0.000219352
0.000221126
0.000277137
0.000448591
0.000343275
0.000691079
0.000417958
0.000946989
0.000501309
0.0012149
0.000593391
0.00149351
0.000694206
0.00178161
0.000803701
0.00207803
0.000921764
0.00238162
0.00104823
0.00269124
0.00118288
0.00300577
0.00132544
0.00332406
0.00147559
0.00364494
0.00163296
0.00396727
0.00179711
0.00428987
0.00196759
0.00461157
0.00214388
0.0049312
0.00232544
0.00524762
0.00251167
0.00555968
0.00270198
0.00586628
0.00289573
0.0061663
0.00309227
0.00645868
0.00329096
0.00674235
0.00349114
0.00701623
0.00369215
0.0072792
0.0038933
0.00753004
0.00409387
0.00776739
0.00429299
0.00799018
0.00819704
0.00448954
-1.63022e-07
-0.000200754
-7.26795e-07
-0.000469202
-9.57076e-07
-0.000631268
1.08022e-07
-0.000712113
3.51919e-06
-0.000729471
1.03102e-05
-0.000695871
2.14395e-05
-0.000620726
3.77692e-05
-0.000511209
6.00521e-05
-0.000372818
8.89345e-05
-0.000209801
0.000124962
-2.54809e-05
0.000168584
0.000177504
0.000220163
0.000397012
0.000279982
0.00063126
0.000348252
0.000878719
0.000425114
0.00113804
0.000510649
0.00140798
0.000604878
0.00168738
0.000707765
0.00197514
0.00081922
0.00227016
0.000939099
0.00257136
0.00106721
0.00287766
0.0012033
0.00318797
0.00134707
0.00350117
0.00149818
0.00381616
0.00165625
0.00413181
0.00182082
0.00444699
0.00199142
0.0047606
0.00216754
0.0050715
0.00234863
0.0053786
0.0025341
0.00568081
0.00272335
0.00597705
0.00291575
0.00626627
0.00311069
0.00654741
0.0033075
0.00681941
0.00350553
0.00708117
0.00370409
0.00733148
0.00390241
0.00756906
0.00409961
0.00779298
0.00800214
0.0042945
-9.27733e-07
-0.000199826
-3.42445e-06
-0.000466705
-6.5057e-06
-0.000628187
-9.0147e-06
-0.000709604
-9.75197e-06
-0.000728734
-7.56917e-06
-0.000698054
-1.41942e-06
-0.000626876
9.6272e-06
-0.000522256
2.63765e-05
-0.000389567
4.95171e-05
-0.000232942
7.96286e-05
-5.55925e-05
0.00011719
0.000139943
0.000162587
0.000351615
0.000216125
0.000577722
0.000278033
0.000816811
0.000348473
0.0010676
0.000427542
0.00132891
0.000515279
0.00159964
0.000611667
0.00187875
0.000716634
0.0021652
0.000830059
0.00245794
0.000951767
0.00275596
0.00108154
0.0030582
0.00121909
0.00336361
0.00136412
0.00367113
0.00151626
0.00397967
0.0016751
0.00428815
0.00184019
0.00459551
0.00201105
0.00490065
0.00218714
0.0052025
0.00236793
0.00550002
0.00255282
0.00579216
0.00274123
0.00607787
0.00293252
0.00635612
0.00312606
0.00662587
0.00332119
0.00688604
0.0035172
0.00713547
0.00371331
0.00737296
0.00390857
0.00759772
0.00780893
0.00410178
-1.72752e-06
-0.000198099
-6.22605e-06
-0.000462207
-1.22394e-05
-0.000622174
-1.84025e-05
-0.000703441
-2.33602e-05
-0.000723776
-2.58459e-05
-0.000695568
-2.47224e-05
-0.000628
-1.89917e-05
-0.000527987
-7.79452e-06
-0.000400764
9.59968e-06
-0.000250336
3.38045e-05
-7.97974e-05
6.53269e-05
0.00010842
0.000104578
0.000312364
0.000151883
0.000530417
0.000207493
0.000761201
0.000271586
0.0010035
0.000344278
0.00125621
0.000425624
0.0015183
0.000515627
0.00178875
0.000614235
0.00206659
0.000721343
0.00235083
0.000836802
0.0026405
0.000960412
0.00293459
0.00109192
0.0032321
0.00123105
0.003532
0.00137745
0.00383327
0.00153074
0.00413486
0.00169051
0.00443574
0.00185629
0.00473487
0.00202758
0.00503121
0.00220387
0.00532374
0.00238459
0.00561144
0.00256916
0.0058933
0.00275697
0.00616831
0.00294739
0.00643545
0.00313975
0.00669368
0.00333332
0.00694191
0.00352728
0.00717899
0.00372067
0.00740434
0.00761737
0.00391223
-2.55879e-06
-0.00019554
-9.11968e-06
-0.000455646
-1.81337e-05
-0.00061316
-2.80159e-05
-0.000693558
-3.72488e-05
-0.000714543
-4.4445e-05
-0.000688372
-4.83759e-05
-0.000624069
-4.79751e-05
-0.000528387
-4.23301e-05
-0.000406409
-3.06689e-05
-0.000261998
-1.23445e-05
-9.81218e-05
1.31778e-05
8.28978e-05
4.63332e-05
0.000279209
8.74691e-05
0.000489281
0.000136855
0.000711815
0.000194688
0.000945669
0.000261101
0.0011898
0.000336169
0.00144323
0.00041991
0.00170501
0.000512292
0.00197421
0.000613231
0.00224989
0.000722599
0.00253113
0.000840217
0.00281697
0.000965862
0.00310645
0.00109927
0.0033986
0.00124012
0.00369242
0.00138807
0.00398691
0.00154272
0.00428109
0.00170363
0.00457395
0.00187034
0.0048645
0.00204235
0.00515173
0.0022191
0.00543468
0.00240005
0.00571235
0.00258458
0.00598378
0.00277206
0.00624797
0.00296182
0.00650392
0.00315311
0.00675062
0.00334508
0.00698702
0.00353672
0.0072127
0.00742735
0.00372673
-3.41756e-06
-0.000192122
-1.20917e-05
-0.000446972
-2.41608e-05
-0.000601091
-3.78098e-05
-0.00067991
-5.13536e-05
-0.000700999
-6.32819e-05
-0.000676444
-7.22742e-05
-0.000615077
-7.71961e-05
-0.000523465
-7.70825e-05
-0.000406523
-7.11205e-05
-0.00026796
-5.86307e-05
-0.000110612
-3.90512e-05
6.33182e-05
-1.19227e-05
0.00025208
2.31232e-05
0.000454235
6.6375e-05
0.000668563
0.000118049
0.000893996
0.000178295
0.00112955
0.000247206
0.00137432
0.000324819
0.0016274
0.00041112
0.00188791
0.000506047
0.00215496
0.000609489
0.00242769
0.000721292
0.00270517
0.000841257
0.00298649
0.000969138
0.00327071
0.00110465
0.0035569
0.00124747
0.0038441
0.00139722
0.00413134
0.0015535
0.00441767
0.00171586
0.00470214
0.00188381
0.00498378
0.00205684
0.00526165
0.0022344
0.0055348
0.00241589
0.00580229
0.00260066
0.00606319
0.00278805
0.00631654
0.00297726
0.00656141
0.00316743
0.00679685
0.0033575
0.00702263
0.00723871
0.00354614
-4.29949e-06
-0.000187823
-1.51265e-05
-0.000436145
-3.02894e-05
-0.000585928
-4.77338e-05
-0.000662465
-6.56032e-05
-0.00068313
-8.22628e-05
-0.000659784
-9.63004e-05
-0.000601039
-0.000106515
-0.000513251
-0.000111888
-0.000401149
-0.000111569
-0.000268279
-0.000104846
-0.000117335
-9.1131e-05
4.96029e-05
-6.99407e-05
0.00023089
-4.08863e-05
0.000425181
-3.66037e-06
0.000631337
4.19715e-05
0.000848364
9.61783e-05
0.00107535
0.00015907
0.00131143
0.000230702
0.00155576
0.000311079
0.00180753
0.000400159
0.00206588
0.000497853
0.00232999
0.000604028
0.00259899
0.000718507
0.00287201
0.000841072
0.00314815
0.000971461
0.00342651
0.00110937
0.00370619
0.00125446
0.00398625
0.00140634
0.00426579
0.00156459
0.00454389
0.00172875
0.00481962
0.00189832
0.00509208
0.00207275
0.00536037
0.00225145
0.00562359
0.00243379
0.00588085
0.00261906
0.00613127
0.00280645
0.00637401
0.00299507
0.00660823
0.0031838
0.0068339
0.00705122
0.0033713
-5.19978e-06
-0.000182623
-1.82071e-05
-0.000423138
-3.64849e-05
-0.00056765
-5.77329e-05
-0.000641217
-7.99193e-05
-0.000660944
-0.000101285
-0.000638419
-0.000120327
-0.000581997
-0.000135778
-0.000497801
-0.00014657
-0.000390357
-0.000151812
-0.000263037
-0.000150764
-0.000118383
-0.000142811
4.16498e-05
-0.000127447
0.000215526
-0.000104264
0.000401997
-7.29356e-05
0.000600009
-3.32086e-05
0.000808637
1.51039e-05
0.00102704
7.21296e-05
0.0012544
0.000137943
0.00148995
0.000212567
0.0017329
0.000295981
0.00198247
0.000388115
0.00223786
0.000488859
0.00249825
0.000598061
0.00276281
0.000715523
0.00303069
0.000841011
0.00330103
0.000974246
0.00357295
0.00111491
0.00384559
0.00126264
0.00411806
0.00141705
0.00438948
0.00157768
0.00465899
0.00174406
0.0049257
0.00191564
0.00518878
0.00209186
0.00544737
0.00227205
0.00570066
0.00245549
0.00594783
0.00264137
0.00618813
0.00282873
0.00642087
0.00301642
0.00664621
0.00686459
0.00320306
-6.11315e-06
-0.00017651
-2.13146e-05
-0.000407937
-4.27099e-05
-0.000546255
-6.77472e-05
-0.00061618
-9.42177e-05
-0.000634473
-0.000120238
-0.000612398
-0.000144217
-0.000558018
-0.000164821
-0.000477197
-0.000180935
-0.000374243
-0.000191632
-0.000252341
-0.000196139
-0.000113875
-0.00019382
3.93307e-05
-0.000184147
0.000205853
-0.000166691
0.000384541
-0.000141107
0.000574425
-0.000107126
0.000774655
-6.45416e-05
0.000984451
-1.32081e-05
0.00120307
4.6967e-05
0.00142978
0.000116027
0.00166384
0.000193969
0.00190453
0.000280747
0.00215108
0.000376271
0.00240272
0.000480412
0.00265867
0.000592998
0.0029181
0.000713818
0.00318021
0.000842619
0.00344415
0.000979108
0.0037091
0.00112295
0.00397422
0.00127378
0.00423866
0.00143116
0.0045016
0.00159463
0.00476223
0.00176367
0.00501974
0.00193769
0.00527335
0.00211605
0.0055223
0.002298
0.00576588
0.00248269
0.00600344
0.00266914
0.00623443
0.00285614
0.00645921
0.00667847
0.00304226
-7.03376e-06
-0.000169476
-2.44288e-05
-0.000390542
-4.89244e-05
-0.000521759
-7.77129e-05
-0.000587392
-0.000108409
-0.000603778
-0.000139005
-0.000581801
-0.000167825
-0.000529199
-0.00019347
-0.000451552
-0.000214781
-0.000352932
-0.000230794
-0.000236328
-0.000240711
-0.000103959
-0.000243869
4.24893e-05
-0.000239723
0.000201707
-0.000227822
0.00037264
-0.000207806
0.000554409
-0.000179386
0.000746235
-0.00014234
0.000947405
-9.65024e-05
0.00115723
-4.17632e-05
0.00137504
2.19405e-05
0.00160014
9.46256e-05
0.00183184
0.000176266
0.00206944
0.000266796
0.00231219
0.000366107
0.00255936
0.000474053
0.00281015
0.000590447
0.00306381
0.000715062
0.00331954
0.000847632
0.00357653
0.00098785
0.003834
0.00113536
0.00409115
0.00128977
0.00434719
0.00145063
0.00460137
0.00161743
0.00485295
0.00178958
0.00510119
0.00196644
0.00534544
0.00214724
0.00558508
0.00233111
0.00581957
0.00251701
0.00604853
0.0027037
0.00627251
0.00649245
0.00288972
-7.95521e-06
-0.000161521
-2.75282e-05
-0.000370969
-5.50858e-05
-0.000494202
-8.75627e-05
-0.000554915
-0.000122397
-0.000568943
-0.000157462
-0.000546736
-0.000190996
-0.000495665
-0.000221541
-0.000421008
-0.000247893
-0.00032658
-0.000269055
-0.000215165
-0.000284202
-8.88111e-05
-0.000292652
5.09391e-05
-0.000293838
0.000202892
-0.000287293
0.000366095
-0.000272638
0.000539754
-0.000249568
0.000723165
-0.000217842
0.000915679
-0.000177279
0.00111667
-0.000127749
0.00132551
-6.91702e-05
0.00154156
-1.50705e-06
0.00176418
7.52356e-05
0.0019927
0.000161013
0.00222642
0.000255741
0.00246463
0.000359297
0.0027066
0.000471518
0.00295159
0.000592204
0.00319885
0.000721115
0.00344762
0.000857972
0.00369714
0.00100245
0.00394667
0.00115417
0.00419547
0.0013127
0.00444284
0.00147755
0.00468809
0.00164816
0.00493059
0.00182385
0.00516975
0.00200387
0.00540506
0.00218729
0.00563614
0.00237306
0.00586276
0.00255989
0.00608568
0.00630609
0.00274625
-8.87061e-06
-0.000152651
-3.05901e-05
-0.000349249
-6.11496e-05
-0.000463642
-9.72259e-05
-0.000518839
-0.000136085
-0.000530085
-0.000175481
-0.00050734
-0.000213572
-0.000457574
-0.000248841
-0.000385738
-0.000280045
-0.000295377
-0.000306156
-0.000189054
-0.000326325
-6.86424e-05
-0.000339847
6.44611e-05
-0.000346139
0.000209184
-0.000344717
0.000364673
-0.000335185
0.000530222
-0.000317221
0.000705202
-0.000290569
0.000889027
-0.000255029
0.00108113
-0.000210453
0.00128093
-0.000156743
0.00148785
-9.38414e-05
0.00170128
-2.17345e-05
0.00192059
5.95546e-05
0.00214513
0.000149964
0.00237422
0.000249394
0.00260717
0.000357706
0.00284328
0.000474728
0.00308183
0.000600247
0.0033221
0.000734008
0.00356338
0.000875715
0.00380496
0.00102502
0.00404617
0.00118151
0.00428635
0.00134472
0.00452488
0.00151409
0.00476122
0.00168896
0.00499488
0.00186855
0.00522547
0.00205193
0.00545276
0.002238
0.0056767
0.00242542
0.00589825
0.00611888
0.00261263
-9.77274e-06
-0.000142878
-3.35908e-05
-0.000325431
-6.70694e-05
-0.000430164
-0.00010663
-0.000479278
-0.000149369
-0.000487345
-0.000192928
-0.000463781
-0.000235385
-0.000415116
-0.000275173
-0.000345951
-0.000311007
-0.000259543
-0.000341832
-0.000158229
-0.000366777
-4.36975e-05
-0.000385118
8.28018e-05
-0.000396254
0.00022032
-0.000399688
0.000368107
-0.000395007
0.00052554
-0.000381873
0.000692068
-0.000360014
0.000867167
-0.000329213
0.00105033
-0.000289306
0.00124102
-0.000240175
0.00143872
-0.000181747
0.00164285
-0.000113986
0.00185283
-3.68974e-05
0.00206804
4.94795e-05
0.00228784
0.000145067
0.00251158
0.000249752
0.00273859
0.000363385
0.00296819
0.000485782
0.0031997
0.000616717
0.00343244
0.00075592
0.00366576
0.000903073
0.00389902
0.0010578
0.00413162
0.00121964
0.00436304
0.00138807
0.00459279
0.00156244
0.00482051
0.00174197
0.00504595
0.0019257
0.00526903
0.00211251
0.00548988
0.00230103
0.00570974
0.00593029
0.00248963
-1.06541e-05
-0.000132224
-3.65058e-05
-0.00029958
-7.27975e-05
-0.000393872
-0.0001157
-0.000436376
-0.000162146
-0.000440899
-0.000209666
-0.000416261
-0.000256268
-0.000368515
-0.000300331
-0.000301888
-0.000340538
-0.000219336
-0.000375807
-0.000122959
-0.000405247
-1.42581e-05
-0.000428116
0.000105671
-0.000443799
0.000236003
-0.000451784
0.000376091
-0.000451643
0.0005254
-0.000443025
0.000683449
-0.000425641
0.000849783
-0.000399259
0.00102395
-0.000363698
0.00120546
-0.000318825
0.00139385
-0.000264547
0.00158857
-0.000200813
0.00178909
-0.000127606
0.00199483
-4.49487e-05
0.00220518
4.71032e-05
0.00241953
0.000148459
0.00263724
0.000258994
0.00285766
0.000378549
0.00308015
0.000506927
0.00330407
0.000643888
0.0035288
0.000789146
0.00375376
0.000942354
0.00397842
0.00110309
0.0042023
0.00127086
0.00442503
0.00144503
0.00464634
0.00162482
0.00486615
0.0018093
0.00508455
0.00199731
0.00530188
0.00218743
0.00551961
0.00573973
0.00237798
-1.15071e-05
-0.000120717
-3.93101e-05
-0.000271777
-7.82855e-05
-0.000354897
-0.000124359
-0.000390302
-0.000174309
-0.00039095
-0.000225559
-0.000365011
-0.000276047
-0.000318027
-0.000324109
-0.000253825
-0.000368395
-0.00017505
-0.0004078
-8.35537e-05
-0.000441415
1.93562e-05
-0.000468482
0.000132738
-0.000488374
0.000255895
-0.000500565
0.000388282
-0.000504614
0.000529449
-0.000500156
0.000678992
-0.000486889
0.000836516
-0.000464565
0.00100162
-0.000432989
0.00117389
-0.00039201
0.00135287
-0.000341522
0.00153808
-0.000281456
0.00172903
-0.000211779
0.00192515
-0.000132495
0.0021259
-4.36423e-05
0.00233068
5.47087e-05
0.00253889
0.000162455
0.00274991
0.000279462
0.00296314
0.000405558
0.00317797
0.000540535
0.00339382
0.000684138
0.00361016
0.00083606
0.00382649
0.000995922
0.00404244
0.00116326
0.00425769
0.00133748
0.00447212
0.00151784
0.00468579
0.00170342
0.00489897
0.00189305
0.00511225
0.00208529
0.00532737
0.00554662
0.0022784
-1.23239e-05
-0.000108393
-4.19784e-05
-0.000242122
-8.34845e-05
-0.000313391
-0.000132533
-0.000341254
-0.000185751
-0.000337732
-0.000240465
-0.000310298
-0.000294548
-0.000263944
-0.000346296
-0.000202077
-0.00039433
-0.000127016
-0.000437524
-4.03595e-05
-0.000474953
5.6785e-05
-0.000505848
0.000163633
-0.000529568
0.000279615
-0.000545577
0.00040429
-0.000553422
0.000537294
-0.000552725
0.000678294
-0.00054317
0.000826961
-0.000524498
0.000982949
-0.000496498
0.00114589
-0.000459008
0.00131538
-0.000411904
0.00149098
-0.000355104
0.00167223
-0.000288562
0.00185861
-0.000212266
0.0020496
-0.00012624
0.00224465
-3.0536e-05
0.00244318
7.47598e-05
0.00264462
0.000189532
0.00284837
0.000313634
0.00305387
0.000446885
0.00326057
0.000589065
0.00346798
0.000739905
0.00367565
0.000899077
0.00388326
0.00106617
0.0040906
0.00124064
0.00429765
0.00142181
0.00450461
0.0016088
0.00471199
0.00180044
0.00492061
0.0019953
0.00513252
0.00535036
0.00219155
-1.30967e-05
-9.52964e-05
-4.44855e-05
-0.000210734
-8.8346e-05
-0.00026953
-0.000140145
-0.000289455
-0.000196366
-0.00028151
-0.000254245
-0.000252419
-0.000311598
-0.000206592
-0.000366682
-0.000146993