/*--------------------------------*- C++ -*----------------------------------*\
  =========                 |
  \\      /  F ield         | OpenFOAM: The Open Source CFD Toolbox
   \\    /   O peration     | Website:  https://openfoam.org
    \\  /    A nd           | Version:  7
     \\/     M anipulation  |
\*---------------------------------------------------------------------------*/
FoamFile
{
    version     2.0;
    format      ascii;
    class       volVectorField;
    location    "9.3";
    object      U;
}
// * * * * * * * * * * * * * * * * * * * * * * * * * * * * * * * * * * * * * //

dimensions      [0 1 -1 0 0 0 0];

internalField   nonuniform List<vector> 
32000
(
(0.00022065 -0.00545492 -1.73315e-22)
(0.00139826 -0.0117524 0)
(0.00370906 -0.0139415 -1.55617e-21)
(0.00677145 -0.0128002 0)
(0.0105392 -0.00889718 1.62653e-21)
(0.0149257 -0.00267164 0)
(0.0198714 0.00551778 1.68474e-21)
(0.0253279 0.0153786 -1.28194e-21)
(0.0312529 0.0266673 6.81367e-25)
(0.0376071 0.0391813 7.22008e-25)
(0.0443542 0.0527501 -4.42254e-22)
(0.0514601 0.0672261 1.78656e-21)
(0.0588917 0.0824792 0)
(0.0666138 0.0983923 -4.54212e-22)
(0.0745891 0.114856 4.56095e-22)
(0.0827784 0.131766 0)
(0.0911406 0.149024 2.31007e-21)
(0.0996325 0.166529 -4.63706e-22)
(0.108209 0.184186 0)
(0.116824 0.201899 9.41774e-22)
(0.12543 0.219573 9.44333e-22)
(0.133976 0.237113 0)
(0.142415 0.254428 0)
(0.150699 0.27143 0)
(0.158781 0.288032 0)
(0.166618 0.304155 0)
(0.174169 0.319726 0)
(0.181397 0.334677 0)
(0.188268 0.348949 -1.97892e-21)
(0.194754 0.362492 0)
(0.200832 0.375263 2.00697e-21)
(0.206484 0.38723 0)
(0.211696 0.398369 0)
(0.216461 0.408666 0)
(0.220776 0.418113 -2.06557e-21)
(0.224645 0.426708 -1.05111e-21)
(0.228075 0.43445 3.16161e-21)
(0.231087 0.441327 4.88407e-24)
(0.233699 0.447313 2.14458e-21)
(0.235797 0.452315 4.43586e-24)
(0.000329419 -0.00570842 0)
(0.00160304 -0.0124614 3.03566e-21)
(0.00388058 -0.0150786 7.76644e-22)
(0.00680054 -0.0143439 -1.58947e-24)
(0.010331 -0.010835 -8.1353e-22)
(0.0144004 -0.0049953 0)
(0.0189609 0.00281335 1.68585e-21)
(0.0239742 0.0122968 -1.71028e-21)
(0.0294066 0.0232105 0)
(0.0352272 0.0353522 -3.50395e-21)
(0.0414064 0.0485527 0)
(0.0479161 0.0626666 -5.35781e-21)
(0.054729 0.0775658 0)
(0.0618154 0.0931356 0)
(0.0691432 0.10927 1.8272e-21)
(0.0766794 0.125869 -1.83307e-21)
(0.0843883 0.142837 -1.84692e-21)
(0.0922318 0.160079 0)
(0.100171 0.177502 5.59474e-21)
(0.108164 0.195015 -1.86923e-21)
(0.116169 0.212526 3.3811e-24)
(0.124142 0.229943 -5.66699e-21)
(0.132038 0.247179 -3.79949e-21)
(0.139815 0.264147 -1.92111e-21)
(0.14743 0.280762 5.75695e-21)
(0.154842 0.296945 -5.80805e-21)
(0.162012 0.312622 5.85353e-21)
(0.168906 0.327726 -7.81086e-21)
(0.175489 0.342194 -1.95685e-21)
(0.181736 0.355975 3.47577e-23)
(0.187621 0.369022 -5.9479e-21)
(0.193125 0.381299 -4.00472e-21)
(0.198234 0.392778 8.12684e-21)
(0.202938 0.403439 -8.13236e-21)
(0.207232 0.413271 -2.03424e-21)
(0.211115 0.422263 -8.29808e-21)
(0.214593 0.43041 -1.02621e-23)
(0.217687 0.437692 2.11754e-21)
(0.220398 0.444075 -8.40713e-21)
(0.222602 0.449453 -1.1856e-20)
(0.000448919 -0.00596341 -6.95839e-22)
(0.00183523 -0.0131671 -1.51747e-21)
(0.00409128 -0.0161875 -7.01371e-21)
(0.0068808 -0.0158376 0)
(0.0101862 -0.0127027 8.14605e-22)
(0.0139513 -0.00723244 -8.28459e-22)
(0.018141 0.000208875 -1.01135e-20)
(0.0227279 0.00932517 3.41952e-21)
(0.0276859 0.0198726 -1.73325e-21)
(0.0329921 0.0316491 1.05095e-20)
(0.0386238 0.0444859 3.53946e-21)
(0.0445585 0.0582393 1.78729e-21)
(0.0507741 0.0727839 -7.19618e-21)
(0.0572465 0.0880076 0)
(0.0639486 0.103808 0)
(0.0708515 0.120088 3.67249e-21)
(0.0779248 0.136754 1.16324e-23)
(0.0851358 0.153718 -3.69848e-21)
(0.0924503 0.170891 -3.72573e-21)
(0.099832 0.188183 -7.47251e-21)
(0.107243 0.205507 1.12745e-20)
(0.114644 0.222775 1.61805e-23)
(0.121996 0.239902 -7.97657e-24)
(0.12926 0.256803 3.79927e-21)
(0.136397 0.273396 -7.69096e-21)
(0.143369 0.289603 1.53963e-20)
(0.15014 0.305349 0)
(0.156676 0.320567 3.91057e-21)
(0.162947 0.335193 3.93574e-21)
(0.168926 0.349173 7.9345e-21)
(0.174587 0.362459 3.47444e-23)
(0.179912 0.37501 0)
(0.184884 0.386795 4.06567e-21)
(0.189492 0.39779 -3.99293e-21)
(0.193729 0.407976 -4.0404e-21)
(0.197593 0.417341 1.24035e-20)
(0.201087 0.42587 -1.2316e-20)
(0.204231 0.433539 8.38256e-21)
(0.207011 0.440304 -1.24679e-20)
(0.209292 0.446049 4.6164e-21)
(0.00057802 -0.00619521 5.5675e-21)
(0.00209107 -0.0138155 -6.08419e-21)
(0.00433411 -0.0172195 1.24768e-20)
(0.00700147 -0.0172376 0)
(0.0100916 -0.0144628 4.88863e-21)
(0.0135637 -0.0093509 8.29644e-21)
(0.0173952 -0.00226722 1.68412e-21)
(0.0215693 0.00648914 1.94457e-24)
(0.0260691 0.0166747 5.19886e-21)
(0.0308785 0.0280884 -1.75268e-21)
(0.0359816 0.0405623 8.84622e-21)
(0.0413615 0.0539547 -1.07116e-20)
(0.0470014 0.0681425 1.07909e-20)
(0.0528813 0.0830161 -3.6251e-21)
(0.0589784 0.0984754 3.64017e-21)
(0.0652687 0.114427 -7.32436e-21)
(0.0717261 0.130783 -1.10489e-20)
(0.0783223 0.147455 3.69381e-21)
(0.0850273 0.16436 -3.72434e-21)
(0.0918097 0.181413 1.11973e-20)
(0.098636 0.198528 -7.50634e-21)
(0.105472 0.215623 -7.52344e-21)
(0.112281 0.232613 0)
(0.11903 0.249418 0)
(0.125682 0.265956 -7.62805e-21)
(0.132204 0.282152 -7.69495e-21)
(0.138562 0.297932 -7.70657e-21)
(0.144724 0.313226 0)
(0.150661 0.327973 0)
(0.156347 0.342115 -1.57394e-20)
(0.161758 0.355602 -8.82449e-23)
(0.166874 0.368391 7.98112e-21)
(0.171679 0.380448 -7.96105e-21)
(0.17616 0.391743 -8.10858e-21)
(0.180308 0.402255 8.11828e-21)
(0.18412 0.411964 0)
(0.187598 0.420852 8.24602e-21)
(0.190759 0.428886 -1.65499e-20)
(0.193578 0.436017 1.66098e-20)
(0.195908 0.442117 -1.86607e-20)
(0.000715569 -0.00641904 -2.77993e-21)
(0.00236721 -0.0144357 4.56458e-21)
(0.00460483 -0.0182013 -6.24134e-21)
(0.00715739 -0.018567 0)
(0.0100395 -0.0161353 -8.15009e-21)
(0.0132273 -0.0113673 -4.97934e-21)
(0.0167112 -0.00463074 6.74609e-21)
(0.0204849 0.00377437 0)
(0.0245404 0.0136045 -1.03975e-20)
(0.0288691 0.0246597 -3.50587e-21)
(0.0334613 0.0367736 -3.53698e-21)
(0.0383057 0.0498061 7.1434e-21)
(0.0433895 0.0636363 -7.19244e-21)
(0.0486974 0.0781568 3.61724e-21)
(0.0542105 0.0932708 0)
(0.0599086 0.108888 1.09896e-20)
(0.0657696 0.124923 3.6869e-21)
(0.0717691 0.141294 -7.4033e-21)
(0.0778812 0.157917 1.48465e-20)
(0.0840784 0.174713 -1.49086e-20)
(0.0903313 0.191601 1.49443e-20)
(0.0966094 0.208499 7.52345e-21)
(0.102882 0.225328 0)
(0.109117 0.242008 7.60823e-21)
(0.115283 0.258462 3.97689e-23)
(0.121348 0.274614 0)
(0.127282 0.290393 7.70661e-21)
(0.133056 0.305729 -7.76937e-21)
(0.138642 0.32056 7.73704e-21)
(0.144016 0.334828 1.56983e-20)
(0.149154 0.34848 -1.57301e-20)
(0.154036 0.361471 1.58016e-20)
(0.158647 0.373764 0)
(0.162972 0.385327 0)
(0.167002 0.396133 1.61156e-20)
(0.170731 0.406158 0)
(0.174163 0.415377 0)
(0.177312 0.423754 -1.64442e-20)
(0.18014 0.431231 1.63989e-20)
(0.18249 0.437673 9.30345e-21)
(0.000860423 -0.0066269 1.39438e-21)
(0.00266048 -0.0150107 0)
(0.00489783 -0.0191144 1.25068e-20)
(0.00733992 -0.0198087 1.59976e-21)
(0.0100197 -0.0177047 1.63437e-21)
(0.0129301 -0.0132681 9.97233e-21)
(0.0160748 -0.00686918 1.35049e-20)
(0.0194583 0.00119165 0)
(0.0230822 0.0106714 3.46784e-21)
(0.0269448 0.0213713 1.05167e-20)
(0.0310424 0.0331265 1.41551e-20)
(0.0353688 0.0457989 -3.57066e-21)
(0.0399157 0.0592696 -1.07858e-20)
(0.0446714 0.0734341 0)
(0.0496207 0.088198 1.45537e-20)
(0.0547468 0.103474 0)
(0.0600312 0.119181 2.20569e-20)
(0.0654529 0.135238 -7.37232e-21)
(0.0709895 0.151567 0)
(0.076617 0.168091 -7.45874e-21)
(0.0823099 0.184733 -2.27635e-23)
(0.0880414 0.201414 -7.46671e-21)
(0.0937841 0.218058 -7.5092e-21)
(0.0995097 0.234589 7.58766e-21)
(0.10519 0.25093 -7.56779e-21)
(0.110796 0.267009 0)
(0.116301 0.282755 -7.69765e-21)
(0.121677 0.298099 7.66825e-21)
(0.1269 0.31298 0)
(0.131945 0.327337 0)
(0.136791 0.341118 0)
(0.141418 0.354277 -1.58245e-20)
(0.145811 0.366772 1.57409e-20)
(0.149955 0.378569 0)
(0.15384 0.389636 -8.0315e-21)
(0.15746 0.399947 0)
(0.160817 0.409471 1.62937e-20)
(0.163926 0.418166 -8.01813e-21)
(0.166735 0.425967 -1.64697e-20)
(0.169078 0.432735 1.83074e-20)
(0.00101148 -0.00682044 9.77986e-21)
(0.00296716 -0.0155424 -1.37332e-20)
(0.0052076 -0.0199613 -2.34627e-20)
(0.00754232 -0.0209645 -1.2806e-20)
(0.0100231 -0.0191722 -3.26692e-21)
(0.0126609 -0.0150549 -6.64445e-21)
(0.0154733 -0.00898457 -3.03922e-20)
(0.0184758 -0.00126112 -1.02752e-20)
(0.021679 0.00787287 -1.73366e-20)
(0.0250886 0.0182201 -1.75262e-20)
(0.0287066 0.0296179 -2.47738e-20)
(0.032532 0.0419298 -1.42737e-20)
(0.03656 0.0550396 2.04174e-24)
(0.0407825 0.068845 -1.44675e-20)
(0.0451877 0.0832544 -1.45537e-20)
(0.049762 0.0981838 -2.19408e-20)
(0.0544896 0.113554 1.4683e-20)
(0.0593527 0.129288 -7.3665e-21)
(0.064332 0.145312 0)
(0.0694067 0.161551 1.48589e-20)
(0.0745545 0.17793 0)
(0.0797521 0.194376 2.99533e-20)
(0.0849752 0.210815 0)
(0.0901988 0.227172 -7.56958e-21)
(0.0953975 0.243375 7.62119e-21)
(0.100546 0.259353 -1.5158e-20)
(0.105619 0.275035 0)
(0.110592 0.290356 -1.54178e-20)
(0.115442 0.305253 1.53536e-20)
(0.120146 0.319666 0)
(0.124685 0.333543 0)
(0.12904 0.346834 0)
(0.133195 0.359497 -1.57062e-20)
(0.137135 0.371494 0)
(0.140852 0.382791 -1.60081e-20)
(0.144338 0.393357 3.20103e-20)
(0.147595 0.403157 -3.21839e-20)
(0.150639 0.412144 1.59391e-20)
(0.153402 0.420249 3.25169e-20)
(0.155713 0.427326 -1.81993e-20)
(0.00116742 -0.00699786 -1.25737e-20)
(0.00328371 -0.0160277 -1.33232e-23)
(0.00552851 -0.020737 1.25188e-20)
(0.00775667 -0.0220298 2.56228e-20)
(0.0100402 -0.0205342 -3.26917e-21)
(0.0124087 -0.0167245 -1.33121e-20)
(0.0148942 -0.0109739 1.35093e-20)
(0.0175233 -0.00358205 2.0553e-20)
(0.0203157 0.00520995 6.9342e-21)
(0.0232843 0.0152068 1.75301e-20)
(0.026437 0.0262476 1.4156e-20)
(0.0297769 0.0381984 2.14079e-20)
(0.0333033 0.0509452 4.31293e-20)
(0.0370112 0.0643884 2.17038e-20)
(0.0408916 0.0784391 0)
(0.0449337 0.093016 7.30434e-21)
(0.0491244 0.108043 7.32684e-21)
(0.0534485 0.123446 7.35668e-21)
(0.0578892 0.139153 1.48001e-20)
(0.0624288 0.155094 -7.42627e-21)
(0.067048 0.171197 0)
(0.071726 0.187391 -1.93611e-23)
(0.0764417 0.203605 -1.49962e-20)
(0.0811728 0.219767 1.50482e-20)
(0.0858969 0.235808 3.02353e-20)
(0.0905911 0.251659 3.03906e-20)
(0.095233 0.267251 3.84955e-23)
(0.0998007 0.282519 1.52799e-20)
(0.104273 0.297401 1.5345e-20)
(0.108629 0.311838 -1.54132e-20)
(0.112849 0.325777 1.54842e-20)
(0.116918 0.339167 1.55578e-20)
(0.120818 0.351965 3.13399e-20)
(0.124538 0.364129 -1.2329e-22)
(0.128066 0.375624 4.74503e-20)
(0.131397 0.386415 4.49413e-23)
(0.134531 0.396461 -1.59471e-20)
(0.137485 0.405715 -1.61257e-20)
(0.140179 0.414099 1.60985e-20)
(0.142433 0.421467 1.81398e-20)
(0.00132702 -0.00715773 1.1205e-20)
(0.0036064 -0.0164633 1.52788e-20)
(0.00585473 -0.0214384 9.41136e-21)
(0.0079753 -0.0230012 -9.60964e-21)
(0.0100616 -0.0217874 -1.63546e-20)
(0.0121627 -0.0182743 1.33093e-20)
(0.0143254 -0.0128358 0)
(0.0165875 -0.00577025 1.37137e-20)
(0.0189781 0.00268305 0)
(0.0215169 0.0123308 -2.80551e-20)
(0.0242172 0.0230146 7.08208e-21)
(0.0270867 0.0346031 -3.56852e-20)
(0.030128 0.0469847 -1.43759e-20)
(0.0333391 0.0600624 7.23645e-21)
(0.0367136 0.07375 1.04268e-23)
(0.040243 0.087969 -7.30093e-21)
(0.0439165 0.102646 -1.46799e-20)
(0.0477212 0.117709 -2.94718e-20)
(0.0516428 0.133091 0)
(0.0556658 0.148722 2.22793e-23)
(0.0597735 0.164535 -1.48603e-20)
(0.0639479 0.180462 -1.49457e-20)
(0.06817 0.196434 1.49962e-20)
(0.0724205 0.212382 -1.51036e-20)
(0.0766792 0.22824 1.50784e-20)
(0.0809261 0.243939 -3.0251e-20)
(0.0851411 0.259415 4.02022e-23)
(0.0893045 0.274603 -3.04799e-20)
(0.0933968 0.289441 -1.53451e-20)
(0.0973994 0.303872 -4.46384e-23)
(0.101295 0.317842 -1.00097e-22)
(0.105067 0.3313 -1.55579e-20)
(0.1087 0.3442 -1.56337e-20)
(0.112184 0.3565 -7.10803e-23)
(0.115508 0.368161 -1.57894e-20)
(0.118664 0.379145 -8.22122e-23)
(0.121656 0.38941 -1.60317e-20)
(0.124499 0.398903 4.77113e-20)
(0.127102 0.407544 -1.60986e-20)
(0.129277 0.415182 -1.81656e-20)
(0.00148898 -0.0072985 -1.12078e-20)
(0.00393151 -0.0168466 3.05687e-21)
(0.00618031 -0.0220622 -9.40409e-21)
(0.00819055 -0.0238755 -3.20653e-21)
(0.0100782 -0.0229291 1.3086e-20)
(0.0119124 -0.0197023 -3.33157e-21)
(0.0137553 -0.0145687 3.38178e-21)
(0.0156561 -0.00782481 -2.05739e-20)
(0.0176528 0.000292134 6.94014e-21)
(0.0197721 0.00959151 1.40296e-20)
(0.0220325 0.0199177 0)
(0.0244459 0.0311421 2.8555e-20)
(0.0270182 0.0431558 0)
(0.0297497 0.0558645 -2.8931e-20)
(0.0326366 0.0691846 -1.45433e-20)
(0.0356725 0.0830403 0)
(0.0388486 0.0973605 0)
(0.0421536 0.112077 2.94629e-20)
(0.0455756 0.127124 1.48061e-20)
(0.0491012 0.142435 -2.96663e-20)
(0.0527158 0.157947 1.48508e-20)
(0.0564033 0.173592 0)
(0.0601473 0.189306 -1.50094e-20)
(0.0639307 0.205023 3.00209e-20)
(0.0677357 0.220677 -1.50213e-20)
(0.0715445 0.236204 -1.51679e-20)
(0.0753393 0.25154 1.51156e-20)
(0.0791024 0.266622 0)
(0.0828164 0.28139 3.06088e-20)
(0.0864643 0.295786 -1.52766e-20)
(0.0900302 0.309757 -1.5476e-20)
(0.0934991 0.323252 -1.46569e-22)
(0.0968575 0.336224 6.22025e-20)
(0.100094 0.348629 -4.66977e-20)
(0.103199 0.360426 0)
(0.106166 0.371574 -1.57862e-20)
(0.108999 0.382029 -3.18055e-20)
(0.111714 0.391735 1.56737e-20)
(0.114206 0.400608 1.59092e-20)
(0.116281 0.408498 0)
(0.00165184 -0.00741862 -2.24688e-20)
(0.00425512 -0.0171746 -3.0607e-21)
(0.00649937 -0.022605 2.51376e-20)
(0.00839482 -0.0246494 -2.57021e-20)
(0.0100809 -0.0239566 0)
(0.0116478 -0.0210063 0)
(0.0131731 -0.0161711 -6.77087e-21)
(0.0147174 -0.00974525 -2.81817e-24)
(0.0163275 -0.00196304 6.94363e-21)
(0.018037 0.00698802 0)
(0.0198695 0.0169554 0)
(0.0218407 0.0278135 -7.13621e-21)
(0.0239592 0.0394562 5.54888e-24)
(0.0262282 0.051792 7.2357e-21)
(0.0286456 0.0647401 1.45433e-20)
(0.0312069 0.0782271 0)
(0.0339048 0.0921844 1.46899e-20)
(0.0367301 0.106547 -1.46944e-20)
(0.0396723 0.12125 -2.95623e-20)
(0.0427201 0.136232 2.96566e-20)
(0.0458603 0.15143 5.6156e-23)
(0.049079 0.166782 -1.48848e-20)
(0.0523616 0.182223 1.49965e-20)
(0.055693 0.197693 -2.99739e-20)
(0.0590577 0.213126 0)
(0.0624397 0.228461 1.51445e-20)
(0.0658234 0.243635 -3.02893e-20)
(0.0691931 0.258587 1.5139e-20)
(0.0725332 0.27326 -1.52637e-20)
(0.0758284 0.287596 -1.53679e-20)
(0.0790642 0.301541 -1.55642e-20)
(0.082227 0.315044 6.16891e-20)
(0.0853044 0.328058 -4.63322e-20)
(0.088286 0.340539 -3.12472e-20)
(0.0911632 0.352442 3.10684e-20)
(0.0939295 0.363726 0)
(0.0965896 0.374342 3.16475e-20)
(0.0991597 0.384236 -3.14493e-20)
(0.101524 0.393318 -1.59094e-20)
(0.103482 0.401439 0)
(0.00181416 -0.00751657 4.7788e-20)
(0.00457329 -0.0174444 2.14867e-20)
(0.00680586 -0.0230635 -2.51374e-20)
(0.00858055 -0.0253201 2.24866e-20)
(0.0100613 -0.0248673 -3.28076e-21)
(0.0113595 -0.0221844 6.66916e-21)
(0.0125686 -0.017642 0)
(0.0137607 -0.0115313 -6.86745e-21)
(0.0149912 -0.00408278 6.94746e-21)
(0.0163002 0.00451935 7.02343e-21)
(0.0177162 0.0141261 -7.08486e-21)
(0.0192586 0.0246151 -7.14509e-21)
(0.0209387 0.0358833 7.18991e-21)
(0.0227615 0.0478422 0)
(0.0247272 0.0604133 0)
(0.0268325 0.0735262 -1.46283e-20)
(0.0290717 0.0871144 1.46628e-20)
(0.0314371 0.101115 -1.47489e-20)
(0.0339196 0.115467 1.47609e-20)
(0.0365093 0.130111 1.48505e-20)
(0.0391946 0.144986 -2.97402e-20)
(0.0419631 0.160032 2.98239e-20)
(0.044802 0.175188 6.9797e-23)
(0.0476979 0.190395 -1.4956e-20)
(0.0506372 0.205591 0)
(0.0536057 0.220715 1.51268e-20)
(0.0565897 0.235708 1.00805e-22)
(0.0595753 0.25051 -1.51175e-20)
(0.0625485 0.265064 0)
(0.0654958 0.279315 3.06666e-20)
(0.0684039 0.293208 -3.05205e-20)
(0.0712606 0.306693 0)
(0.0740549 0.319723 3.10161e-20)
(0.0767773 0.332251 -3.08451e-20)
(0.0794197 0.344233 0)
(0.0819765 0.355624 0)
(0.0844533 0.366376 0)
(0.0868664 0.376432 -3.16208e-20)
(0.0890886 0.385699 3.14181e-20)
(0.090914 0.394032 3.60158e-20)
(0.00197426 -0.00759072 -2.25035e-20)
(0.00488184 -0.0176535 -2.45512e-20)
(0.00709379 -0.023435 -3.14838e-21)
(0.0087404 -0.0258847 9.65214e-21)
(0.0100107 -0.025659 -1.31221e-20)
(0.0110385 -0.0232351 1.33511e-20)
(0.0119324 -0.0189806 -1.35569e-20)
(0.0127762 -0.0131826 -2.06218e-20)
(0.0136337 -0.00606765 0)
(0.0145513 0.00218428 -7.02688e-21)
(0.0155622 0.011428 7.08834e-21)
(0.016689 0.0215448 0)
(0.0179455 0.0324346 1.43961e-20)
(0.0193387 0.044012 -1.44706e-20)
(0.0208702 0.0562014 -4.36765e-20)
(0.0225381 0.0689344 -2.31159e-23)
(0.0243378 0.0821473 2.93638e-20)
(0.0262631 0.0957798 -1.47189e-20)
(0.028306 0.109773 0)
(0.0304577 0.12407 0)
(0.0327079 0.138612 2.97429e-20)
(0.0350456 0.153342 1.49414e-20)
(0.0374593 0.168201 -1.49168e-20)
(0.0399374 0.183132 -1.50276e-20)
(0.0424676 0.198075 3.00592e-20)
(0.0450375 0.212973 -1.5025e-20)
(0.047635 0.227766 3.03201e-20)
(0.0502479 0.242398 -6.06179e-20)
(0.0528638 0.256813 6.07977e-20)
(0.0554704 0.270955 -6.09855e-20)
(0.0580561 0.284773 6.11811e-20)
(0.06061 0.298216 -6.13836e-20)
(0.063122 0.311235 3.06598e-20)
(0.0655838 0.323784 3.10427e-20)
(0.0679882 0.335818 2.89313e-22)
(0.07033 0.347291 2.9654e-22)
(0.0726157 0.358153 -3.10759e-20)
(0.0748621 0.368347 2.06529e-22)
(0.076931 0.377778 -3.12814e-20)
(0.0786105 0.386302 0)
(0.00213045 -0.00763963 2.81921e-21)
(0.00517655 -0.0177991 -3.07562e-21)
(0.00735709 -0.0237164 9.45244e-21)
(0.00886711 -0.0263409 -1.28802e-20)
(0.00992147 -0.0263297 6.56522e-21)
(0.0106763 -0.0241571 0)
(0.0112558 -0.0201863 0)
(0.011755 -0.0146995 2.74913e-20)
(0.0122461 -0.00791837 3.47955e-20)
(0.0127815 -1.83642e-05 -7.02858e-21)
(0.0133987 0.0088596 3.54779e-20)
(0.0141231 0.0186005 -7.14803e-21)
(0.0149708 0.0291078 0)
(0.0159506 0.0402989 0)
(0.0170653 0.0521012 2.91134e-20)
(0.0183143 0.0644486 0)
(0.0196939 0.0772802 1.46827e-20)
(0.0211989 0.0905378 -1.47661e-20)
(0.0228224 0.104165 0)
(0.0245565 0.118107 -2.96747e-20)
(0.0263918 0.132307 -1.48416e-20)
(0.0283185 0.146711 -4.47186e-20)
(0.0303263 0.161262 -1.49857e-20)
(0.032405 0.175904 1.49535e-20)
(0.0345436 0.190581 3.00545e-20)
(0.0367313 0.205237 0)
(0.0389572 0.219815 3.0202e-20)
(0.0412108 0.234259 6.06665e-20)
(0.0434808 0.248515 2.15959e-22)
(0.0457566 0.262529 -3.03411e-20)
(0.0480277 0.276249 -3.06657e-20)
(0.0502844 0.289626 3.05113e-20)
(0.052518 0.30261 3.0863e-20)
(0.0547209 0.315157 -6.16566e-20)
(0.0568869 0.327219 6.18514e-20)
(0.0590112 0.338748 -3.10649e-20)
(0.0611012 0.349696 3.09766e-20)
(0.0631738 0.360006 6.24465e-20)
(0.0650807 0.36958 3.12481e-20)
(0.0666036 0.378278 3.54623e-20)
(0.00228091 -0.00766191 -2.26073e-20)
(0.00545306 -0.0178788 2.1561e-20)
(0.00758976 -0.0239054 -1.89398e-20)
(0.00895365 -0.0266863 1.9351e-20)
(0.00978581 -0.0268778 3.28725e-20)
(0.010265 -0.0249495 -2.67554e-20)
(0.0105308 -0.0212588 3.39532e-20)
(0.0106895 -0.0160822 2.06512e-20)
(0.0108209 -0.00963575 -4.87319e-20)
(0.0109834 -0.0020899 1.40779e-20)
(0.0112181 0.00641911 7.11534e-21)
(0.0115535 0.0157802 1.43122e-20)
(0.0120075 0.0259004 1.44213e-20)
(0.0125902 0.0367004 -2.89977e-20)
(0.0133057 0.0481101 2.91518e-20)
(0.0141542 0.0600663 4.39384e-20)
(0.015133 0.0725103 -4.40711e-20)
(0.0162377 0.0853864 5.90066e-20)
(0.0174621 0.0986405 2.96095e-20)
(0.018799 0.112219 4.45407e-20)
(0.0202399 0.126069 1.49186e-20)
(0.0217758 0.140137 2.98337e-20)
(0.0233977 0.15437 -2.99259e-20)
(0.0250962 0.168713 0)
(0.0268617 0.183111 -9.02595e-20)
(0.0286846 0.197511 6.02634e-20)
(0.0305554 0.211858 -3.00196e-20)
(0.0324646 0.226098 -3.00829e-20)
(0.0344024 0.240177 9.9705e-23)
(0.0363591 0.254044 0)
(0.0383258 0.267646 0)
(0.0402937 0.280936 3.05823e-20)
(0.0422552 0.293865 -3.08093e-20)
(0.0442038 0.306386 3.06395e-20)
(0.0461337 0.318452 -3.09914e-20)
(0.0480408 0.330016 -3.10875e-20)
(0.0499333 0.341027 0)
(0.0518278 0.351431 -3.09915e-20)
(0.0535664 0.36113 -3.09723e-20)
(0.0549245 0.369983 -1.06522e-19)
(0.00242372 -0.00765627 2.26056e-20)
(0.00570692 -0.0178907 -2.15607e-20)
(0.0077858 -0.0239998 2.52457e-20)
(0.00899318 -0.0269192 -4.51691e-20)
(0.00959658 -0.0273022 -3.28785e-20)
(0.00979741 -0.0256117 2.67554e-20)
(0.00975053 -0.022198 -5.43498e-20)
(0.00957275 -0.0173312 -2.75305e-20)
(0.00935168 -0.0112207 3.48247e-20)
(0.00915078 -0.00403159 -6.33519e-20)
(0.00901495 0.00410496 -4.26103e-20)
(0.00897491 0.013082 -1.43326e-20)
(0.00905028 0.0228104 -4.32468e-20)
(0.00925241 0.0332141 4.34959e-20)
(0.00958629 0.0442258 -2.9152e-20)
(0.010053 0.055785 -2.92881e-20)
(0.0106505 0.0678355 0)
(0.0113748 0.0803236 -2.95145e-20)
(0.0122206 0.0931976 -4.44414e-20)
(0.0131809 0.106406 1.48336e-20)
(0.0142481 0.119898 -2.9777e-20)
(0.015414 0.133622 0)
(0.0166703 0.147526 2.99262e-20)
(0.0180086 0.161559 3.00795e-20)
(0.0194204 0.175667 -3.00221e-20)
(0.0208971 0.189799 0)
(0.0224304 0.203901 0)
(0.0240116 0.217921 0)
(0.0256322 0.231807 2.90902e-24)
(0.0272837 0.245509 0)
(0.0289581 0.258976 -6.11008e-20)
(0.0306478 0.27216 -1.27942e-22)
(0.0323461 0.285012 -6.14081e-20)
(0.0340473 0.297487 6.14535e-20)
(0.0357462 0.309536 -3.06757e-20)
(0.0374392 0.321113 3.09127e-20)
(0.0391348 0.332168 0)
(0.0408493 0.342647 6.22473e-20)
(0.0424161 0.352451 -3.09686e-20)
(0.0436034 0.361444 0)
(0.00255691 -0.00762161 2.83257e-21)
(0.00593362 -0.0178327 0)
(0.00793929 -0.0239978 -3.16257e-20)
(0.00897913 -0.0270382 3.87423e-20)
(0.00934704 -0.027602 1.97648e-20)
(0.00926703 -0.0261434 -2.68002e-20)
(0.00890869 -0.0230044 2.71857e-20)
(0.00839919 -0.0184472 -2.75742e-20)
(0.00783321 -0.0126744 0)
(0.00727909 -0.0058448 2.81672e-20)
(0.0067849 0.00191558 -2.84455e-20)
(0.00638343 0.0105043 -2.41906e-23)
(0.00609571 0.0198361 0)
(0.00593412 0.0298382 2.90493e-20)
(0.00590434 0.0404466 -1.46001e-20)
(0.00600806 0.051603 2.93689e-20)
(0.00624386 0.0632539 1.47553e-20)
(0.00660811 0.0753478 -2.95754e-20)
(0.00709573 0.087835 0)
(0.00770045 0.100666 4.46542e-20)
(0.00841501 0.113792 1.49543e-20)
(0.00923182 0.127163 0)
(0.0101434 0.14073 0)
(0.0111421 0.154443 0)
(0.0122202 0.16825 3.00877e-20)
(0.0133702 0.182102 0)
(0.0145845 0.195946 -3.03175e-20)
(0.0158555 0.209733 6.0589e-20)
(0.0171756 0.223412 -6.06128e-20)
(0.0185373 0.236933 0)
(0.0199336 0.250248 3.04923e-20)
(0.0213577 0.263307 -3.05603e-20)
(0.0228038 0.276065 3.06376e-20)
(0.0242669 0.288474 0)
(0.0257422 0.300488 0)
(0.0272264 0.312058 3.09637e-20)
(0.0287282 0.323138 -3.0775e-20)
(0.0302633 0.333674 6.2193e-20)
(0.031657 0.343568 -6.17943e-20)
(0.0326696 0.352686 0)
(0.00267842 -0.00755699 1.98797e-20)
(0.00612862 -0.0177036 6.18115e-21)
(0.00804445 -0.0238982 2.53028e-20)
(0.0089052 -0.0270426 2.58755e-20)
(0.00903095 -0.027777 -2.63482e-20)
(0.00866796 -0.0265449 2.68003e-20)
(0.00800005 -0.0236785 2.72314e-20)
(0.00716419 -0.0194312 2.75743e-20)
(0.00626163 -0.013998 0)
(0.00536505 -0.00753085 2.82141e-20)
(0.00452533 -0.000150457 2.84457e-20)
(0.003777 0.0080455 2.86718e-20)
(0.00314223 0.0169759 0)
(0.00263417 0.0265715 3.07826e-23)
(0.00225905 0.036771 2.92065e-20)
(0.00201898 0.0475192 -1.46511e-20)
(0.00191293 0.0587646 -1.46922e-20)
(0.00193751 0.0704582 4.43907e-20)
(0.00208786 0.0825521 3.94699e-23)
(0.00235804 0.094999 -1.48267e-20)
(0.00274124 0.107752 -2.98412e-20)
(0.00323035 0.120763 0)
(0.00381847 0.133984 0)
(0.00449863 0.147367 0)
(0.00526387 0.160864 0)
(0.00610734 0.174424 0)
(0.00702227 0.188 0)
(0.00800187 0.201541 3.04117e-20)
(0.00903937 0.214998 -3.02852e-20)
(0.0101282 0.228324 0)
(0.011262 0.24147 0)
(0.0124349 0.254389 3.05606e-20)
(0.0136418 0.267035 0)
(0.0148781 0.279362 3.08028e-20)
(0.0161396 0.291322 -3.06265e-20)
(0.0174225 0.302869 0)
(0.0187357 0.313956 6.19792e-20)
(0.0200942 0.324535 -6.15912e-20)
(0.0213157 0.334503 0)
(0.022152 0.343733 0)
(0.00278618 -0.00746171 -2.27164e-20)
(0.00628739 -0.0175022 -6.18846e-21)
(0.00809566 -0.0237001 6.33676e-21)
(0.0087655 -0.0269319 -2.58755e-20)
(0.00864266 -0.0278272 0)
(0.00799511 -0.0268167 0)
(0.00702026 -0.0242212 -2.04201e-20)
(0.00586423 -0.0202844 -6.90186e-21)
(0.00463425 -0.0151927 -1.39699e-20)
(0.00340681 -0.00909108 -1.41026e-20)
(0.00223514 -0.00209442 -1.42461e-20)
(0.0011552 0.00570456 1.43525e-20)
(0.000190008 0.014229 1.44669e-20)
(-0.000646733 0.023413 -1.45398e-20)
(-0.00134841 0.0331986 0)
(-0.00191267 0.0435331 0)
(-0.00234035 0.0543675 -2.95043e-20)
(-0.00263472 0.0656549 0)
(-0.00280052 0.0773494 0)
(-0.00284347 0.0894056 2.99219e-20)
(-0.00277005 0.101778 1.03648e-22)
(-0.00258692 0.114421 8.22623e-23)
(-0.00230056 0.127289 -3.01203e-20)
(-0.00191738 0.140334 3.00557e-20)
(-0.00144376 0.15351 3.02112e-20)
(-0.000885926 0.16677 -3.027e-20)
(-0.000249965 0.180065 0)
(0.000458024 0.193349 3.04481e-20)
(0.00123199 0.206573 1.87434e-22)
(0.00206607 0.21969 -3.03724e-20)
(0.00295461 0.232653 0)
(0.00389237 0.245417 0)
(0.0048747 0.257936 3.07448e-20)
(0.00589749 0.270164 -3.05753e-20)
(0.00695646 0.282055 -3.08556e-20)
(0.00804775 0.293563 3.0673e-20)
(0.00917975 0.304643 0)
(0.0103663 0.315249 0)
(0.0114186 0.32528 0)
(0.012079 0.334609 -3.52825e-20)
(0.00287808 -0.00733525 2.84823e-20)
(0.00640544 -0.0172279 -1.23956e-20)
(0.0080875 -0.0234034 6.34455e-21)
(0.0085545 -0.0267066 0)
(0.0081771 -0.0277536 3.30233e-20)
(0.00724418 -0.02696 4.85297e-25)
(0.00596594 -0.0246339 2.72801e-20)
(0.00449691 -0.0210081 -2.07264e-20)
(0.00294966 -0.0162598 2.79624e-20)
(0.00140387 -0.0105267 -1.41248e-20)
(-8.53081e-05 -0.00391735 0)
(-0.00148081 0.00348065 1.43781e-20)
(-0.00275905 0.0115947 -4.34011e-20)
(-0.00390604 0.0203626 0)
(-0.00491492 0.0297293 4.39759e-20)
(-0.00578328 0.0396451 -2.94349e-20)
(-0.00651195 0.0500633 -2.95698e-20)
(-0.00710418 0.060939 1.48237e-20)
(-0.00756467 0.0722283 0)
(-0.00789901 0.0838876 -2.98508e-20)
(-0.00811342 0.0958734 -3.00165e-20)
(-0.00821424 0.108142 -2.8195e-23)
(-0.00820755 0.120648 3.01427e-20)
(-0.00809937 0.133348 3.02476e-20)
(-0.00789559 0.146195 -6.03801e-20)
(-0.00760189 0.159144 3.02703e-20)
(-0.0072238 0.172149 0)
(-0.0067668 0.185164 -3.04366e-20)
(-0.00623635 0.198142 3.04876e-20)
(-0.00563774 0.211038 3.05372e-20)
(-0.00497607 0.223806 -3.05854e-20)
(-0.00425609 0.236401 3.06319e-20)
(-0.0034821 0.248779 0)
(-0.00265801 0.260894 3.08142e-20)
(-0.00178826 0.272702 6.18439e-20)
(-0.00087723 0.284157 -6.13562e-20)
(8.26517e-05 0.295216 6.1897e-20)
(0.0011039 0.305836 4.51909e-22)
(0.0019919 0.315919 -3.06778e-20)
(0.00247862 0.325337 7.06356e-20)
(0.00295202 -0.00717736 -1.70926e-20)
(0.00647838 -0.0168807 -3.72471e-20)
(0.00801486 -0.0230083 2.54205e-20)
(0.00826719 -0.0263674 -1.94671e-20)
(0.00762988 -0.0275573 -6.58407e-21)
(0.00641169 -0.0269763 6.72078e-21)
(0.00483471 -0.0249182 -1.36325e-20)
(0.00306098 -0.0216039 -1.38283e-20)
(0.00120769 -0.0172009 1.39965e-20)
(-0.000642892 -0.0118389 -2.82828e-20)
(-0.00243415 -0.00562004 -8.54752e-24)
(-0.00412826 0.00137333 1.43833e-20)
(-0.00570139 0.00907308 0)
(-0.00713946 0.0174206 -1.45965e-20)
(-0.00843557 0.0263642 -1.46588e-20)
(-0.00958738 0.0358566 2.94621e-20)
(-0.0105959 0.0458537 0)
(-0.0114644 0.0563126 0)
(-0.0121977 0.0671914 2.98843e-20)
(-0.0128013 0.0784482 -2.98882e-20)
(-0.0132813 0.0900412 0)
(-0.0136436 0.101928 3.01627e-20)
(-0.0138942 0.114066 -3.00157e-20)
(-0.0140386 0.126413 -6.04877e-20)
(-0.0140824 0.138923 -1.45651e-22)
(-0.0140308 0.151553 3.03291e-20)
(-0.0138888 0.164258 -6.07872e-20)
(-0.0136615 0.176994 3.0437e-20)
(-0.0133537 0.189716 -3.0488e-20)
(-0.0129704 0.20238 1.22736e-22)
(-0.0125161 0.21494 7.15504e-23)
(-0.0119954 0.227354 -3.06322e-20)
(-0.0114122 0.239577 -3.07217e-20)
(-0.0107705 0.251567 -3.07581e-20)
(-0.0100753 0.263278 3.13412e-23)
(-0.00933151 0.274667 0)
(-0.00853297 0.285693 -3.08519e-20)
(-0.00766875 0.296318 6.19504e-20)
(-0.00693831 0.306443 -9.24398e-20)
(-0.00662142 0.315942 4.82014e-22)
(0.00300589 -0.00698799 -5.71192e-21)
(0.00650195 -0.016461 4.97011e-20)
(0.00787294 -0.022516 -2.54184e-20)
(0.00789907 -0.0259158 1.94626e-20)
(0.00699732 -0.0272402 -5.29141e-20)
(0.00549506 -0.0268675 6.72686e-21)
(0.0036252 -0.0250759 -2.73278e-20)
(0.0015563 -0.0220735 0)
(-0.000590598 -0.0180172 0)
(-0.00273126 -0.0130286 -2.8326e-20)
(-0.0048081 -0.00720305 1.42934e-20)
(-0.0067829 -0.000617402 1.63828e-23)
(-0.00863183 0.00666465 1.4504e-20)
(-0.010341 0.0145883 0)
(-0.0119037 0.0231048 -4.41101e-20)
(-0.0133176 0.0321699 1.47523e-20)
(-0.0145842 0.0417416 -2.96955e-20)
(-0.015707 0.0517793 0)
(-0.0166908 0.0622427 0)
(-0.0175411 0.0730919 1.83568e-23)
(-0.0182639 0.0842867 -3.00353e-20)
(-0.0188649 0.0957864 3.02082e-20)
(-0.0193499 0.10755 -3.03122e-20)
(-0.0197241 0.119536 3.02472e-20)
(-0.0199929 0.131701 3.46823e-23)
(-0.0201609 0.144004 3.89968e-23)
(-0.0202328 0.156401 3.04518e-20)
(-0.0202132 0.168849 -3.05782e-20)
(-0.0201066 0.181304 0)
(-0.0199175 0.193725 -3.07243e-20)
(-0.0196503 0.206066 3.05779e-20)
(-0.0193092 0.218287 0)
(-0.0188981 0.230344 3.0722e-20)
(-0.0184215 0.242196 -3.1011e-20)
(-0.0178846 0.253799 3.06237e-20)
(-0.0172938 0.265111 0)
(-0.0166443 0.276094 9.2796e-20)
(-0.0159273 0.286714 -6.15559e-20)
(-0.0153461 0.296873 0)
(-0.0151935 0.306444 3.53866e-20)
(0.00303765 -0.00676734 4.58037e-20)
(0.00647214 -0.0159697 -2.48662e-20)
(0.00765738 -0.0219279 -6.36327e-21)
(0.00744625 -0.0253541 6.4997e-21)
(0.0062765 -0.0268047 2.64696e-20)
(0.00449261 -0.0266361 0)
(0.00233705 -0.0251095 2.7328e-20)
(-1.61409e-05 -0.0224188 4.1588e-20)
(-0.00244291 -0.0187104 1.4019e-20)
(-0.0048577 -0.0140968 1.41509e-20)
(-0.00720249 -0.00866665 1.42995e-20)
(-0.00943901 -0.00249113 -4.32627e-20)
(-0.0115437 0.00437056 1.45232e-20)
(-0.0135031 0.0118674 5.85582e-20)
(-0.0153108 0.0199538 1.46762e-20)
(-0.016965 0.0285882 1.47771e-20)
(-0.0184673 0.0377311 2.96958e-20)
(-0.0198217 0.0473436 0)
(-0.021033 0.0573875 0)
(-0.022107 0.0678246 6.01536e-20)
(-0.0230495 0.0786162 -1.20725e-19)
(-0.0238661 0.0897234 -2.18891e-23)
(-0.0245622 0.101107 0)
(-0.0251431 0.112726 0)
(-0.0256137 0.12454 3.04174e-20)
(-0.0259784 0.136507 0)
(-0.0262415 0.148588 0)
(-0.0264072 0.160738 -3.0749e-20)
(-0.0264797 0.172918 -6.14185e-20)
(-0.0264634 0.185085 0)
(-0.0263621 0.197197 -6.15769e-20)
(-0.0261802 0.209214 -1.23401e-19)