/*--------------------------------*- C++ -*----------------------------------*\
  =========                 |
  \\      /  F ield         | OpenFOAM: The Open Source CFD Toolbox
   \\    /   O peration     | Website:  https://openfoam.org
    \\  /    A nd           | Version:  7
     \\/     M anipulation  |
\*---------------------------------------------------------------------------*/
FoamFile
{
    version     2.0;
    format      ascii;
    class       volScalarField;
    location    "1.3";
    object      p;
}
// * * * * * * * * * * * * * * * * * * * * * * * * * * * * * * * * * * * * * //

dimensions      [0 2 -2 0 0 0 0];

internalField   nonuniform List<scalar> 
18000
(
2.5731
2.57383
2.57656
2.57959
2.58266
2.586
2.59011
2.59538
2.60189
2.60953
2.61804
2.62712
2.63645
2.64577
2.65485
2.66354
2.67175
2.67949
2.68679
2.69369
2.70026
2.70655
2.71258
2.7184
2.72403
2.72951
2.73489
2.74022
2.74553
2.75074
2.56178
2.5629
2.56568
2.56868
2.57158
2.57465
2.57844
2.58336
2.58957
2.59696
2.60529
2.61424
2.62349
2.63273
2.64174
2.65035
2.6585
2.66616
2.67337
2.68018
2.68665
2.69282
2.69873
2.70441
2.7099
2.71524
2.72046
2.72563
2.73077
2.73581
2.55038
2.55193
2.55479
2.55776
2.56049
2.5633
2.56676
2.57133
2.57721
2.58434
2.59248
2.6013
2.61044
2.61958
2.6285
2.63703
2.64509
2.65266
2.65977
2.66648
2.67283
2.67888
2.68465
2.6902
2.69554
2.70072
2.70578
2.71078
2.71574
2.72059
2.53897
2.54094
2.5439
2.54683
2.5494
2.55195
2.55508
2.5593
2.56485
2.57171
2.57965
2.58831
2.59732
2.60635
2.61516
2.62358
2.63155
2.63902
2.64602
2.6526
2.65883
2.66474
2.67037
2.67577
2.68096
2.68598
2.69088
2.6957
2.70046
2.70512
2.52759
2.52998
2.53301
2.53592
2.53832
2.54061
2.54341
2.54727
2.5525
2.5591
2.56682
2.57531
2.58417
2.59306
2.60175
2.61006
2.61791
2.62525
2.63212
2.63857
2.64466
2.65043
2.65591
2.66115
2.66618
2.67103
2.67576
2.68039
2.68496
2.68941
2.51622
2.51899
2.52212
2.52501
2.52727
2.5293
2.53176
2.53529
2.54021
2.54653
2.55403
2.56232
2.57101
2.57976
2.5883
2.59648
2.60419
2.61139
2.61811
2.62442
2.63036
2.63597
2.64129
2.64636
2.65122
2.6559
2.66044
2.66488
2.66924
2.67348
2.50488
2.50803
2.51124
2.51413
2.51624
2.51801
2.52016
2.52336
2.52798
2.53403
2.54129
2.54937
2.55788
2.56645
2.57484
2.58286
2.59041
2.59745
2.60402
2.61016
2.61593
2.62137
2.62653
2.63142
2.6361
2.6406
2.64495
2.64919
2.65333
2.65735
2.49359
2.49708
2.50038
2.50326
2.50524
2.50676
2.50861
2.51149
2.51582
2.5216
2.52862
2.53648
2.54478
2.55317
2.56138
2.56923
2.57659
2.58346
2.58984
2.5958
2.6014
2.60667
2.61164
2.61635
2.62085
2.62515
2.6293
2.63333
2.63725
2.64104
2.48233
2.48616
2.48954
2.49241
2.49425
2.49553
2.4971
2.49969
2.50373
2.50925
2.51602
2.52365
2.53174
2.53992
2.54793
2.55558
2.56275
2.56942
2.57561
2.58138
2.58679
2.59186
2.59665
2.60118
2.60547
2.60958
2.61352
2.61733
2.62102
2.62458
2.47111
2.47525
2.47871
2.48157
2.48327
2.48433
2.48563
2.48795
2.49172
2.49698
2.50351
2.5109
2.51875
2.52672
2.53451
2.54193
2.54889
2.55535
2.56133
2.5669
2.57211
2.57699
2.58158
2.58591
2.59
2.5939
2.59763
2.60121
2.60467
2.60798
2.45992
2.46434
2.46788
2.47072
2.4723
2.47315
2.4742
2.47626
2.47978
2.48479
2.49107
2.49822
2.50584
2.51356
2.52111
2.5283
2.53502
2.54126
2.54703
2.55238
2.55738
2.56205
2.56644
2.57056
2.57445
2.57813
2.58164
2.585
2.58821
2.59128
2.44874
2.45343
2.45704
2.45986
2.46131
2.46197
2.46279
2.46462
2.4679
2.47268
2.47871
2.48562
2.49299
2.50046
2.50775
2.51469
2.52116
2.52716
2.5327
2.53783
2.54261
2.54707
2.55125
2.55516
2.55884
2.56231
2.56559
2.56871
2.57168
2.57449
2.43756
2.44249
2.44616
2.44897
2.45029
2.45077
2.45139
2.45301
2.45607
2.46063
2.46643
2.47309
2.4802
2.4874
2.49443
2.5011
2.50731
2.51306
2.51836
2.52326
2.52782
2.53206
2.53602
2.53972
2.54319
2.54643
2.54948
2.55237
2.55508
2.55765
2.42636
2.43153
2.43525
2.43802
2.43923
2.43955
2.43999
2.44141
2.44429
2.44864
2.45421
2.46062
2.46746
2.47439
2.48114
2.48753
2.49348
2.49896
2.50402
2.50868
2.51301
2.51704
2.52078
2.52426
2.52751
2.53053
2.53335
2.536
2.53846
2.54077
2.41513
2.42051
2.42427
2.427
2.4281
2.42827
2.42856
2.42983
2.43253
2.43669
2.44204
2.4482
2.45477
2.46142
2.46788
2.47398
2.47965
2.48487
2.48967
2.4941
2.4982
2.502
2.50553
2.5088
2.51182
2.51462
2.51721
2.51962
2.52184
2.52389
2.40385
2.40943
2.41321
2.4159
2.41689
2.41694
2.41709
2.41824
2.4208
2.42478
2.42992
2.43583
2.44213
2.44848
2.45464
2.46045
2.46584
2.47079
2.47534
2.47953
2.4834
2.48698
2.49029
2.49334
2.49614
2.49872
2.50109
2.50326
2.50523
2.50703
2.39251
2.39827
2.40206
2.40469
2.40559
2.40552
2.40558
2.40663
2.40907
2.4129
2.41783
2.4235
2.42952
2.43558
2.44144
2.44695
2.45205
2.45673
2.46102
2.46497
2.46861
2.47197
2.47506
2.4779
2.48049
2.48285
2.48499
2.48694
2.48867
2.49022
2.38108
2.38702
2.3908
2.39337
2.39417
2.39402
2.39401
2.39499
2.39734
2.40103
2.40577
2.4112
2.41695
2.42271
2.42826
2.43347
2.43828
2.44268
2.44672
2.45043
2.45385
2.45699
2.45986
2.46248
2.46487
2.46702
2.46895
2.47068
2.47219
2.47349
2.36956
2.37566
2.37943
2.38193
2.38264
2.38242
2.38237
2.38331
2.3856
2.38917
2.39374
2.39894
2.40441
2.40987
2.41511
2.42001
2.42453
2.42867
2.43245
2.43593
2.43911
2.44203
2.44469
2.44711
2.44929
2.45125
2.45298
2.4545
2.4558
2.45687
2.35793
2.36418
2.36792
2.37035
2.37099
2.37072
2.37066
2.3716
2.37384
2.37731
2.38172
2.38669
2.3919
2.39706
2.40199
2.40659
2.41081
2.41468
2.41822
2.42145
2.42441
2.42711
2.42957
2.43178
2.43377
2.43554
2.43709
2.43843
2.43952
2.44039
2.34617
2.35257
2.35628
2.35864
2.35921
2.35892
2.35888
2.35984
2.36207
2.36546
2.36971
2.37447
2.37941
2.38427
2.3889
2.39319
2.39713
2.40073
2.40401
2.40701
2.40975
2.41223
2.41448
2.4165
2.41831
2.41991
2.42129
2.42246
2.42339
2.42407
2.33428
2.34083
2.34449
2.34678
2.3473
2.34703
2.34704
2.34805
2.35028
2.35361
2.35772
2.36227
2.36694
2.37151
2.37583
2.37982
2.38348
2.38681
2.38984
2.3926
2.39512
2.39739
2.39943
2.40127
2.40291
2.40435
2.40559
2.40663
2.40741
2.40796
2.32226
2.32895
2.33257
2.33478
2.33527
2.33503
2.33513
2.33622
2.33848
2.34177
2.34575
2.35009
2.3545
2.35878
2.36279
2.36649
2.36987
2.37292
2.3757
2.37823
2.38051
2.38257
2.38442
2.38608
2.38756
2.38887
2.38998
2.39092
2.39161
2.39207
2.31009
2.31694
2.3205
2.32264
2.32311
2.32295
2.32316
2.32436
2.32668
2.32993
2.33379
2.33793
2.34208
2.34607
2.34979
2.3532
2.35629
2.35908
2.3616
2.36389
2.36594
2.36778
2.36943
2.37092
2.37225
2.37343
2.37446
2.37532
2.37598
2.37644
2.29779
2.30479
2.30828
2.31037
2.31085
2.31078
2.31115
2.31248
2.31487
2.3181
2.32184
2.32579
2.32969
2.3334
2.33683
2.33995
2.34276
2.34528
2.34754
2.34958
2.35139
2.35301
2.35446
2.35576
2.35695
2.35802
2.35897
2.35981
2.3605
2.36105
2.28536
2.2925
2.29593
2.29797
2.29848
2.29855
2.29909
2.30059
2.30307
2.30629
2.30993
2.31368
2.31733
2.32077
2.32392
2.32676
2.32928
2.33153
2.33352
2.3353
2.33686
2.33824
2.33947
2.34059
2.34161
2.34257
2.34347
2.34432
2.3451
2.34588
2.27279
2.28007
2.28344
2.28546
2.28604
2.28626
2.28702
2.2887
2.29129
2.29451
2.29804
2.30161
2.30503
2.3082
2.31107
2.31362
2.31586
2.31783
2.31955
2.32105
2.32235
2.32347
2.32446
2.32535
2.32619
2.32701
2.32785
2.32875
2.3297
2.33086
2.26011
2.26753
2.27085
2.27285
2.27353
2.27395
2.27494
2.27683
2.27954
2.28277
2.28621
2.2896
2.29278
2.29569
2.29829
2.30056
2.30252
2.3042
2.30564
2.30685
2.30786
2.30869
2.30939
2.31002
2.31061
2.31124
2.31198
2.31292
2.31412
2.31588
2.24733
2.25488
2.25815
2.26017
2.26098
2.26163
2.26289
2.26501
2.26784
2.27109
2.27443
2.27765
2.28062
2.28327
2.2856
2.28759
2.28926
2.29065
2.29179
2.2927
2.2934
2.29391
2.29428
2.29456
2.29482
2.29512
2.2956
2.29642
2.29792
2.30075
2.23446
2.24215
2.24538
2.24744
2.24841
2.24933
2.25088
2.25324
2.25621
2.25948
2.26274
2.2658
2.26855
2.27095
2.27301
2.27472
2.27611
2.27721
2.27804
2.27863
2.27899
2.27915
2.27914
2.27901
2.2788
2.27857
2.27842
2.27848
2.27923
2.28282
2.76768
2.79619
2.82105
2.84645
2.87089
2.89456
2.91746
2.9398
2.9621
2.98429
3.00642
3.02856
3.05093
3.07363
3.09686
3.12058
3.14484
3.16983
3.19527
3.22189
3.24834
3.27711
3.30391
3.33548
3.3618
3.39683
3.42213
3.46177
3.48443
3.53314
2.75248
2.78198
2.80719
2.83308
2.85792
2.8818
2.90481
2.92726
2.94977
2.97206
2.99417
3.01637
3.03885
3.06162
3.0848
3.1085
3.13282
3.15781
3.1832
3.20983
3.23626
3.26502
3.29181
3.32338
3.34968
3.38475
3.41009
3.44979
3.47253
3.52135
2.73695
2.7675
2.79313
2.81954
2.84475
2.86884
2.89202
2.91459
2.93728
2.95965
2.98178
3.00406
3.02663
3.04946
3.07261
3.09632
3.12068
3.14568
3.17104
3.19768
3.22411
3.25287
3.27967
3.31127
3.33757
3.37273
3.39812
3.43793
3.46076
3.50971
2.72111
2.7528
2.7789
2.80585
2.83138
2.85572
2.87911
2.9018
2.92461
2.94707
2.96929
2.99164
3.01425
3.03714
3.06032
3.08406
3.10842
3.13343
3.1588
3.18546
3.2119
3.24067
3.2675
3.29915
3.32551
3.36076
3.38623
3.42617
3.44909
3.4982
2.70501
2.73789
2.76451
2.79199
2.81783
2.84245
2.86608
2.8889
2.91179
2.93435
2.9567
2.97911
3.00174
3.02469
3.04793
3.07171
3.09605
3.12109
3.14649
3.17316
3.19963
3.22843
3.25531
3.28702
3.31348
3.34884
3.37442
3.41451
3.43753
3.48681
2.68869
2.72278
2.74994
2.77797
2.80416
2.82904
2.8529
2.87588
2.89887
2.92153
2.94398
2.96646
2.98913
3.01214
3.03543
3.05925
3.0836
3.10866
3.1341
3.1608
3.18731
3.21616
3.2431
3.27491
3.30148
3.33696
3.36267
3.40293
3.42605
3.47551
2.67216
2.70749
2.73522
2.76381
2.79036
2.81551
2.83961
2.86276
2.88584
2.9086
2.93115
2.9537
2.97641
2.99949
3.02283
3.04669
3.07106
3.09615
3.12165
3.14837
3.17495
3.20386
3.23087
3.2628
3.28949
3.32514
3.35098
3.39143
3.41468
3.46432
2.65546
2.69202
2.72037
2.74953
2.77646
2.80188
2.82621
2.84954
2.87272
2.89558
2.91821
2.94084
2.96361
2.98674
3.01013
3.03405
3.05845
3.08358
3.10913
3.13589
3.16253
3.19152
3.21863
3.25069
3.27753
3.31336
3.33935
3.38002
3.40339
3.45322
2.63859
2.67641
2.70542
2.73514
2.76246
2.78816
2.81271
2.83623
2.85952
2.88246
2.90519
2.9279
2.95072
2.9739
2.99736
3.02132
3.04576
3.07093
3.09655
3.12335
3.15008
3.17917
3.20638
3.2386
3.26559
3.30162
3.32778
3.36868
3.3922
3.44221
2.62157
2.66067
2.69037
2.72067
2.74838
2.77435
2.79913
2.82284
2.84624
2.86927
2.89209
2.91487
2.93775
2.96099
2.9845
3.00852
3.033
3.05822
3.0839
3.11077
3.13757
3.16679
3.19412
3.22651
3.25367
3.28993
3.31628
3.35742
3.38111
3.43131
2.60444
2.64483
2.67525
2.70613
2.73422
2.76049
2.78549
2.80938
2.8329
2.85601
2.87892
2.90177
2.92472
2.948
2.97157
2.99565
3.02017
3.04544
3.0712
3.09813
3.12503
3.15438
3.18184
3.21442
3.24178
3.27828
3.30483
3.34624
3.37011
3.4205
2.5872
2.6289
2.66008
2.69153
2.72001
2.74657
2.77178
2.79587
2.8195
2.8427
2.86569
2.88861
2.91162
2.93495
2.95858
2.98271
3.00728
3.03261
3.05844
3.08546
3.11244
3.14195
3.16956
3.20234
3.22991
3.26667
3.29345
3.33514
3.35921
3.4098
2.56989
2.61291
2.64488
2.6769
2.70576
2.73261
2.75804
2.78231
2.80607
2.82934
2.85241
2.87539
2.89847
2.92184
2.94553
2.96972
2.99434
3.01972
3.04563
3.07274
3.09983
3.12949
3.15726
3.19026
3.21805
3.25511
3.28213
3.32412
3.3484
3.39921
2.55253
2.59688
2.62968
2.66225
2.69148
2.71862
2.74427
2.76872
2.79261
2.81595
2.83909
2.86213
2.88527
2.90868
2.93243
2.95668
2.98134
3.00678
3.03277
3.05999
3.08718
3.11701
3.14496
3.17819
3.20622
3.24358
3.27087
3.31319
3.3377
3.38874
2.53515
2.58085
2.61448
2.64761
2.67719
2.70463
2.73048
2.75512
2.77913
2.80253
2.82575
2.84884
2.87203
2.89549
2.91928
2.94358
2.9683
2.9938
3.01987
3.0472
3.0745
3.1045
3.13264
3.16611
3.1944
3.23208
3.25967
3.30233
3.3271
3.37838
2.51778
2.56482
2.59931
2.63298
2.66291
2.69063
2.71668
2.74151
2.76564
2.7891
2.81238
2.83552
2.85877
2.88226
2.9061
2.93045
2.95521
2.98078
3.00693
3.03438
3.0618
3.09197
3.12032
3.15404
3.18259
3.22062
3.24852
3.29156
3.31662
3.36815
2.50045
2.54884
2.5842
2.61838
2.64865
2.67664
2.7029
2.72791
2.75215
2.77567
2.79901
2.82218
2.84548
2.86901
2.89288
2.91728
2.94209
2.96772
2.99396
3.02152
3.04907
3.07941
3.10797
3.14195
3.17078
3.20919
3.23743
3.28088
3.30625
3.35806
2.48319
2.53292
2.56916
2.60383
2.63443
2.66269
2.68915
2.71434
2.73868
2.76225
2.78563
2.80884
2.83218
2.85574
2.87964
2.90407
2.92894
2.95464
2.98096
3.00863
3.03632
3.06683
3.09561
3.12986
3.15897
3.19778
3.22638
3.27029
3.296
3.34811
2.46606
2.5171
2.55422
2.58935
2.62026
2.64878
2.67544
2.70081
2.72523
2.74885
2.77226
2.7955
2.81888
2.84246
2.86638
2.89084
2.91576
2.94152
2.96792
2.9957
3.02354
3.05422
3.08322
3.11775
3.14716
3.18638
3.21539
3.25978
3.28588
3.33832
2.4491
2.5014
2.53939
2.57495
2.60618
2.63494
2.66179
2.68733
2.71182
2.73548
2.75892
2.78218
2.80557
2.82917
2.85311
2.8776
2.90256
2.92838
2.95486
2.98275
3.01073
3.04159
3.0708
3.10563
3.13534
3.175
3.20444
3.24936
3.27591
3.32871
2.43236
2.48585
2.5247
2.56065
2.59219
2.62119
2.64821
2.67392
2.69846
2.72216
2.74562
2.76889
2.79228
2.81588
2.83982
2.86434
2.88934
2.91521
2.94177
2.96977
2.99789
3.02892
3.05835
3.09348
3.12351
3.16362
3.19353
3.23902
3.26609
3.31928
2.41592
2.47048
2.51017
2.54648
2.57832
2.60754
2.63475
2.6606
2.68517
2.70889
2.73235
2.75562
2.77901
2.8026
2.82655
2.85107
2.87611
2.90203
2.92867
2.95676
2.98502
3.01623
3.04586
3.0813
3.11166
3.15223
3.18266
3.22877
3.25643
3.31008
2.39984
2.45533
2.49581
2.53246
2.56458
2.59401
2.62146
2.64738
2.67196
2.69569
2.71915
2.7424
2.76576
2.78934
2.81328
2.83781
2.86287
2.88884
2.91554
2.94373
2.97212
3.0035
3.03335
3.06908
3.09978
3.14083
3.17181
3.21859
3.24695
3.30112
2.38422
2.44042
2.48164
2.51861
2.55101
2.58062
2.60835
2.63429
2.65884
2.68257
2.706
2.72923
2.75256
2.77611
2.80002
2.82455
2.84963
2.87564
2.9024
2.93068
2.9592
2.99074
3.0208
3.05683
3.08787
3.1294
3.16097
3.20849
3.23766
3.29243
2.36914
2.42579
2.46768
2.50495
2.53762
2.56738
2.59535
2.62132
2.64583
2.66956
2.69294
2.71612
2.73941
2.76292
2.7868
2.8113
2.83639
2.86243
2.88925
2.91761
2.94624
2.97795
3.00821
3.04452
3.07591
3.11794
3.15014
3.19845
3.22857
3.28407
2.35473
2.41152
2.45401
2.49156
2.52447
2.55434
2.58222
2.60848
2.63295
2.65666
2.67999
2.7031
2.72633
2.74978
2.77361
2.79809
2.82317
2.84923
2.87609
2.90453
2.93327
2.96512
2.99558
3.03217
3.06391
3.10642
3.13929
3.18846
3.2197
3.27607
2.34118
2.39772
2.4407
2.47851
2.51163
2.54159
2.56933
2.59582
2.62024
2.64392
2.66716
2.69019
2.71335
2.73671
2.76047
2.78491
2.80998
2.83605
2.86293
2.89144
2.92027
2.95226
2.98291
3.01976
3.05186
3.09485
3.12842
3.17849
3.21106
3.26851
2.32851
2.38406
2.42739
2.46548
2.49884
2.52891
2.55662
2.58317
2.60752
2.63116
2.65429
2.67723
2.70029
2.72355
2.74725
2.77164
2.79668
2.82276
2.84967
2.87824
2.90716
2.93928
2.97012
3.00722
3.03968
3.08313
3.11744
3.16846
3.20262
3.26145
2.31611
2.36963
2.41326
2.45175
2.48544
2.51571
2.54365
2.57011
2.59444
2.61804
2.64108
2.66394
2.68691
2.7101
2.73374
2.75809
2.78312
2.80922
2.83617
2.86481
2.89383
2.92609
2.95713
2.99448
3.0273
3.0712
3.1063
3.15831
3.19437
3.25501
2.30406
2.35553
2.39936
2.43821
2.47212
2.50242
2.52994
2.55697
2.5815
2.6051
2.62807
2.65087
2.67377
2.6969
2.72049
2.7448
2.76982
2.79593
2.8229
2.8516
2.88071
2.91305
2.94429
2.98181
3.015
3.05925
3.09513
3.14802
3.18625
3.24923
2.27062
2.32324
2.36734
2.40661
2.44056
2.47067
2.49816
2.5245
2.54888
2.57205
2.59462
2.61692
2.6394
2.66215
2.68539
2.70941
2.73419
2.76013
2.78696
2.8156
2.84483
2.87717
2.90874
2.94646
2.98048
3.02535
3.06319
3.11809
3.16269
3.23332
2.20711
2.25988
2.30343
2.34254
2.37628
2.40624
2.43411
2.4593
2.48334
2.50647
2.52894
2.55129
2.57369
2.59647
2.61986
2.64395
2.66893
2.69508
2.72226
2.75117
2.78085
2.81368
2.8459
2.88429
2.91931
2.96537
3.00519
3.06244
3.11133
3.1852
2.14539
2.19644
2.23883
2.27725
2.31059
2.33997
2.3672
2.39251
2.41653
2.43949
2.46197
2.4843
2.50674
2.52963
2.55315
2.5774
2.60265
2.62904
2.65656
2.68583
2.71599
2.74931
2.78218
2.82119
2.85712
2.9041
2.94522
3.00367
3.05403
3.12846
2.08322
2.13206
2.17305
2.21091
2.24406
2.2733
2.29988
2.32479
2.34846
2.37133
2.39375
2.41607
2.43859
2.46158
2.4852
2.50967
2.53514
2.56181
2.58965
2.6193
2.64991
2.68368
2.71713
2.7567
2.79336
2.84092
2.88281
2.94166
2.99233
3.06656
2.02028
2.06699
2.10658
2.14367
2.17628
2.20488
2.23115
2.25575
2.27918
2.30194
2.32432
2.34668
2.36928
2.39238
2.41616
2.44085
2.46656
2.49352
2.5217
2.55172
2.58275
2.61691
2.65086
2.69085
2.72801
2.77589
2.81811
2.8769
2.92727
3.00094
1.9561
2.00079
2.03885
2.07505
2.10717
2.13532
2.16117
2.18545
2.20866
2.23126
2.25358
2.27595
2.29863
2.32184
2.34581
2.3707
2.39666
2.42392
2.45242
2.48278
2.51418
2.5487
2.58305
2.62335
2.66084
2.70886
2.75113
2.80965
2.85942
2.93242
1.89035
1.93321
1.96979
2.0051
2.03674
2.06445
2.08988
2.11383
2.1368
2.15923
2.18147
2.20383
2.22657
2.2499
2.27403
2.29913
2.32533
2.35286
2.38167
2.41233
2.44407
2.47889
2.51355
2.55408
2.59176
2.63984
2.68199
2.74014
2.78918
2.86148
1.82292
1.8641
1.89927
1.93369
1.96485
1.99213
2.01716
2.0408
2.06351
2.08575
2.10789
2.13022
2.15299
2.17643
2.2007
2.226
2.25242
2.2802
2.30928
2.34022
2.37224
2.40732
2.44223
2.48294
2.52073
2.56881
2.61075
2.66853
2.71676
2.7884
1.7537
1.79335
1.82717
1.86071
1.89141
1.9183
1.94295
1.96626
1.98871
2.01075
2.03276
2.05503
2.07781
2.10132
2.12572
2.15118
2.1778
2.2058
2.23512
2.26631
2.29858
2.33386
2.36898
2.40983
2.44768
2.49575
2.53745
2.59488
2.6423
2.71335
1.68268
1.72088
1.75343
1.7861
1.81635
1.84287
1.86715
1.89015
1.91232
1.93414
1.95599
1.97817
2.00092
2.02447
2.04896
2.07455
2.10134
2.12953
2.15906
2.19046
2.22294
2.25842
2.29371
2.33468
2.37257
2.42064
2.46207
2.51922
2.56587
2.6364
1.60983
1.64667
1.67799
1.70979
1.7396
1.76576
1.7897
1.81239
1.83428
1.85585
1.8775
1.89955
1.92223
1.94577
1.97031
1.996
2.02292
2.05127
2.08098
2.11255
2.14523
2.18086
2.21632
2.2574
2.29533
2.3434
2.3846
2.44152
2.48746
2.55756
1.53516
1.57067
1.60081
1.63173
1.66108
1.68692
1.71052
1.7329
1.75449
1.77579
1.79721
1.81908
1.84164
1.86512
1.88966
1.9154
1.94242
1.97089
2.00074
2.03247
2.06531
2.10108
2.13669
2.17787
2.21586
2.26396
2.30496
2.36171
2.40703
2.47677
1.45867
1.49289
1.52186
1.55188
1.58077
1.60628
1.62955
1.65161
1.6729
1.6939
1.71505
1.73668
1.75907
1.78243
1.80692
1.83266
1.85972
1.88827
1.91823
1.95008
1.98306
2.01896
2.05471
2.09598
2.13404
2.18219
2.22306
2.2797
2.32448
2.39393
1.3804
1.41333
1.44114
1.47022
1.4986
1.52378
1.54672
1.56846
1.58943
1.6101
1.63093
1.65228
1.67443
1.6976
1.72197
1.74765
1.77471
1.80329
1.83332
1.86525
1.89835
1.93435
1.97022
2.01159
2.04974
2.09795
2.13876
2.19532
2.23968
2.30889
1.30038
1.332
1.35865
1.38675
1.41456
1.43938
1.46198
1.48339
1.50402
1.52433
1.5448
1.56579
1.58763
1.61055
1.63471
1.66026
1.68725
1.71582
1.74586
1.77784
1.81101
1.84708
1.88308
1.92452
1.9628
2.01107
2.05188
2.1084
2.15247
2.22146
1.21869
1.24896
1.27442
1.30147
1.32864
1.35305
1.37528
1.39632
1.41659
1.43651
1.45657
1.47715
1.4986
1.52117
1.54505
1.57038
1.59723
1.6257
1.65571
1.68768
1.72088
1.757
1.79309
1.83459
1.87299
1.92133
1.96222
2.0187
2.06261
2.13139
1.13536
1.16424
1.18847
1.21439
1.24082
1.26476
1.28658
1.30723
1.3271
1.34659
1.36618
1.38628
1.40726
1.42939
1.45288
1.4779
1.5045
1.5328
1.5627
1.5946
1.62778
1.6639
1.70004
1.74157
1.7801
1.82849
1.86951
1.92597
1.96985
2.03841
1.05047
1.0779
1.10085
1.12555
1.15113
1.1745
1.19584
1.21606
1.23549
1.2545
1.27356
1.29312
1.31353
1.33512
1.35811
1.3827
1.40894
1.43697
1.46667
1.49842
1.5315
1.56754
1.60369
1.6452
1.68385
1.73226
1.77346
1.82988
1.87387
1.94216
0.9641
0.990004
1.01163
1.03502
1.0596
1.08229
1.10306
1.12277
1.14171
1.16019
1.17867
1.1976
1.21736
1.23829
1.26066
1.28467
1.31042
1.33806
1.36743
1.39893
1.43182
1.4677
1.50376
1.54519
1.58391
1.63227
1.67369
1.73004
1.77425
1.84223
0.876312
0.900622
0.920867
0.942845
0.966289
0.98816
1.00824
1.02734
1.04571
1.0636
1.08143
1.09965
1.11866
1.13882
1.16043
1.18372
1.20883
1.2359
1.2648
1.29591
1.32848
1.36407
1.39996
1.44117
1.47988
1.52811
1.56975
1.62597
1.67052
1.73813
0.78719
0.809829
0.828655
0.84913
0.871274
0.892157
0.91141
0.929773
0.947465
0.964673
0.981784
0.999215
1.01738
1.03665
1.05735
1.07976
1.10404
1.13035
1.1586
1.18913
1.22122
1.25637
1.29191
1.33276
1.37135
1.4193
1.46111
1.5171
1.56206
1.62918
0.696803
0.717704
0.735102
0.753988
0.774662
0.794365
0.81261
0.830077
0.846957
0.863377
0.879672
0.896233
0.913453
0.931713
0.951358
0.972702
0.995937
1.02128
1.04863
1.07837
1.10975
1.14424
1.17924
1.21951
1.25778
1.30525
1.34713
1.40274
1.44821
1.5147
0.605214
0.62433
0.64034
0.657565
0.676596
0.694897
0.711919
0.728292
0.744192
0.759691
0.775058
0.790652
0.806832
0.823962
0.842399
0.862487
0.884456
0.908563
0.934741
0.963391
0.993781
1.02734
1.06151
1.1009
1.13858
1.18523
1.22691
1.28181
1.32766
1.39321
0.512507
0.529818
0.544538
0.560079
0.577284
0.593926
0.60947
0.624511
0.639223
0.65363
0.667933
0.682444
0.697472
0.713351
0.730434
0.749077
0.769537
0.792113
0.816792
0.844002
0.873041
0.905286
0.938273
0.976417
1.01316
1.05861
1.09988
1.15381
1.20004
1.26427
0.418967
0.434435
0.448157
0.461976
0.477095
0.491761
0.505548
0.518955
0.532204
0.545292
0.558362
0.571646
0.585391
0.599885
0.615461
0.632474
0.651174
0.671906
0.694713
0.720058
0.747282
0.777734
0.809017
0.845351
0.880515
0.923988
0.963866
1.01562
1.06147
1.12386
0.325667
0.33892
0.351065
0.364131
0.376825
0.389104
0.400764
0.412189
0.423626
0.435081
0.446666
0.458504
0.470769
0.483708
0.497611
0.512786
0.529455
0.548018
0.568549
0.59154
0.616412
0.644502
0.673573
0.707565
0.740839
0.781946
0.820445
0.869718
0.914156
0.97247
0.235549
0.24578
0.256418
0.26881
0.278311
0.287608
0.296676
0.305731
0.31487
0.32422
0.333902
0.343917
0.354357
0.36542
0.377396
0.390466
0.404787
0.420815
0.43857
0.458594
0.480341
0.505168
0.530865
0.56123
0.590898
0.627731
0.662364
0.706474
0.748973
0.803392
0.153858
0.159672
0.166613
0.173905
0.184347
0.190469
0.196644
0.202881
0.209206
0.215882
0.223
0.230512
0.238464
0.247041
0.256499
0.26686
0.278314
0.291275
0.305746
0.322257
0.340411
0.3614
0.383415
0.409601
0.435482
0.467433
0.497376
0.534294
0.567167
0.610667
0.0848337
0.0868358
0.0901194
0.0941619
0.0980295
0.102654
0.106003
0.109366
0.112718
0.116304
0.120201
0.124456
0.129117
0.134315
0.140107
0.146567
0.153918
0.162323
0.171818
0.182979
0.195408
0.210434
0.22632
0.246212
0.266409
0.292
0.317644
0.3474
0.373459
0.39755
0.026991
0.0265431
0.0269677
0.0278086
0.0285096
0.0284888
0.0287542
0.0297739
0.0305174
0.0313163
0.0322065
0.0332417
0.0344551
0.0358872
0.0375405
0.0394726
0.0417803
0.0444823
0.0475866
0.0514383
0.0557891
0.0615187
0.0674092
0.0758698
0.0839897
0.0960647
0.108241
0.12383
0.139746
0.149426
2.22551
2.16136
2.10194
2.04073
1.97913
1.91594
1.8511
1.7845
1.71609
1.64592
1.57391
1.50015
1.42462
1.34738
1.26848
1.18799
1.10597
1.0225
0.937658
0.85152
0.764169
0.675709
0.586272
0.496096
0.40568
0.316226
0.23007
0.151814
0.0841477
0.0283427
2.20924
2.14539
2.08684
2.02607
1.965
1.90224
1.83779
1.77158
1.70353
1.63375
1.56211
1.48874
1.41362
1.33679
1.25833
1.17829
1.09674
1.01378
0.929458
0.843873
0.757096
0.669243
0.580448
0.490966
0.401319
0.312743
0.227578
0.15035
0.0834342
0.0285461
2.19306
2.13002
2.0723
2.01201
1.95147
1.88916
1.82512
1.75932
1.69166
1.62227
1.55102
1.47806
1.40334
1.32694
1.24892
1.16933
1.08826
1.00578
0.921967
0.836909
0.750672
0.663384
0.575183
0.486338
0.397395
0.309584
0.225253
0.148829
0.0825696
0.0285691
2.17687
2.11489
2.05798
1.99818
1.93814
1.87628
1.81265
1.74726
1.67997
1.61098
1.54012
1.46756
1.39326
1.31728
1.23969
1.16056
1.07996
0.997963
0.914646
0.830106
0.7444
0.657662
0.570033
0.481795
0.393518
0.306422
0.22291
0.147332
0.0817716
0.0285593
2.16088
2.10012
2.044
1.98471
1.92513
1.86372
1.80048
1.73549
1.66857
1.59997
1.52949
1.45733
1.38342
1.30786
1.2307
1.15202
1.07187
0.990354
0.907525
0.823488
0.738297
0.65209
0.565016
0.477357
0.389725
0.30331
0.220591
0.145854
0.0810249
0.0285373
2.14515
2.08569
2.03034
1.97157
1.91244
1.85145
1.7886
1.724
1.65744
1.58922
1.51911
1.44734
1.37382
1.29867
1.22193
1.14368
1.06399
0.982929
0.900577
0.817029
0.732337
0.646645
0.560112
0.473013
0.386002
0.300238
0.218303
0.144396
0.0803034
0.0284899
2.12971
2.0716
2.017
1.95877
1.90007
1.83949
1.77701
1.7128
1.6466
1.57874
1.509
1.4376
1.36447
1.28972
1.21339
1.13556
1.0563
0.975693
0.893808
0.81073
0.726523
0.64133
0.555325
0.468771
0.382354
0.297212
0.216049
0.142955
0.079603
0.0284151
2.1146
2.05785
2.00398
1.94632
1.88803
1.82785
1.76573
1.70188
1.63603
1.56854
1.49915
1.42812
1.35536
1.281
1.20506
1.12765
1.04881
0.968648
0.887214
0.804587
0.720849
0.636137
0.550644
0.464616
0.378741
0.294247
0.213821
0.14153
0.0789209
0.0283154
2.09986
2.04445
1.99129
1.93419
1.87631
1.81652
1.75475
1.69127
1.62576
1.55861
1.48957
1.4189
1.3465
1.27252
1.19697
1.11995
1.04154
0.961794
0.880793
0.798599
0.715314
0.631061
0.546057
0.460535
0.375168
0.291318
0.211615
0.140116
0.0782535
0.0281938
2.08552
2.03141
1.97893
1.92241
1.86492
1.8055
1.74407
1.68095
1.61577
1.54896
1.48027
1.40995
1.3379
1.26429
1.18911
1.11248
1.03447
0.955132
0.874546
0.792769
0.709917
0.626104
0.54156
0.45653
0.371633
0.28842
0.209433
0.138716
0.0775987
0.028053
2.07159
2.01873
1.96691
1.91096
1.85386
1.79481
1.73372
1.67093
1.60608
1.53959
1.47123
1.40126
1.32955
1.25631
1.18149
1.10523
1.02761
0.948664
0.868477
0.787101
0.704665
0.621271
0.537164
0.452617
0.368138
0.285561
0.207279
0.137332
0.076956
0.0278962
2.0581
2.00644
1.95523
1.89986
1.84315
1.78446
1.72368
1.66122
1.59669
1.53051
1.46248
1.39284
1.32146
1.24857
1.17411
1.09822
1.02097
0.942394
0.862594
0.781603
0.699565
0.616574
0.53288
0.448736
0.364768
0.28275
0.205157
0.135967
0.0763257
0.0277262
2.04506
1.99453
1.94391
1.8891
1.83277
1.77444
1.71396
1.65182
1.58759
1.52173
1.45401
1.38469
1.31364
1.24108
1.16697
1.09143
1.01454
0.936328
0.856898
0.776276
0.694629
0.612026
0.528709
0.444946
0.361474
0.279991
0.20307
0.134622
0.0757079
0.0275456
2.0325
1.98303
1.93296
1.8787
1.82275
1.76476
1.70457
1.64274
1.57881
1.51324
1.44582
1.37681
1.30608
1.23384
1.16007
1.08487
1.00833
0.930465
0.851388
0.771122
0.689855
0.607616
0.52464
0.441266
0.358252
0.277283
0.201016
0.133298
0.075103
0.0273565
2.02042
1.97194
1.92239
1.86867
1.81308
1.75542
1.69552
1.63398
1.57035
1.50504
1.43793
1.3692
1.29879
1.22686
1.15342
1.07854
1.00232
0.924804
0.84606
0.766145
0.685223
0.60333
0.520686
0.437683
0.355096
0.274623
0.198996
0.131997
0.0745114
0.027161
2.00883
1.96128
1.91221
1.859
1.80378
1.74644
1.68681
1.62556
1.5622
1.49716
1.43033
1.36188
1.29177
1.22012
1.14702
1.07243
0.99653
0.919342
0.840913
0.761331
0.680726
0.599157
0.516852
0.434191
0.352002
0.272011
0.197009
0.13072
0.0739341
0.0269613
1.99775
1.95105
1.90243
1.84971
1.79484
1.73781
1.67844
1.61747
1.55439
1.48959
1.42302
1.35485
1.28502
1.21365
1.14085
1.06656
0.990947
0.914071
0.835945
0.756668
0.676365
0.595116
0.513128
0.430788
0.348974
0.269451
0.195061
0.129471
0.0733728
0.0267592
1.98718
1.94127
1.89306
1.8408
1.78627
1.72954
1.67042
1.60971
1.5469
1.48234
1.41601
1.34812
1.27856
1.20744
1.13492
1.06091
0.985579
0.908992
0.831144
0.752173
0.672162
0.591205
0.509516
0.427481
0.346021
0.26695
0.193156
0.128253
0.0728295
0.0265566
1.97714
1.93194
1.8841
1.83226
1.77809
1.72164
1.66275
1.60229
1.53975
1.47541
1.40931
1.34167
1.27236
1.2015
1.12923
1.05548
0.980425
0.904113
0.826546
0.747853
0.668118
0.587433
0.506025
0.424281
0.343155
0.264516
0.191301
0.12707
0.0723062
0.0263551
1.96763
1.92307
1.87558
1.82412
1.77028
1.7141
1.65544
1.59523
1.53293
1.4688
1.40292
1.33553
1.26644
1.19581
1.12379
1.05031
0.975507
0.899451
0.822148
0.743715
0.664241
0.583812
0.502666
0.421198
0.340386
0.262158
0.189501
0.125925
0.0718045
0.026156
1.95867
1.91465
1.86751
1.81639
1.76285
1.70691
1.64849
1.58853
1.52645
1.46247
1.39684
1.32966
1.2608
1.19042
1.11861
1.04538
0.970823
0.895008
0.817956
0.739765
0.660535
0.580346
0.499446
0.41824
0.337721
0.25988
0.187759
0.12482
0.0713255
0.0259605
1.95028
1.90668
1.85988
1.80908
1.75583
1.70005
1.64188
1.58217
1.52023
1.45653
1.39108
1.3241
1.25545
1.18529
1.1137
1.0407
0.96637
0.890783
0.813967
0.736002
0.657
0.577038
0.496367
0.41541
0.335165
0.257686
0.186079
0.123757
0.0708706
0.0257698
1.94246
1.89917
1.85267
1.80216
1.7491
1.69363
1.63566
1.57615
1.51436
1.4509
1.38563
1.31884
1.25039
1.18044
1.10904
1.03626
0.962147
0.886774
0.810177
0.732422
0.65363
0.573883
0.493427
0.412706
0.332721
0.255581
0.184465
0.122739
0.0704415
0.0255852
1.93514
1.89217
1.84591
1.79566
1.7428
1.68758
1.6298
1.57047
1.50884
1.4456
1.38049
1.31388
1.24561
1.17585
1.10465
1.03206
0.95815
0.882974
0.80658
0.729018
0.650421
0.570876
0.490625
0.410129
0.33039
0.25357
0.182922
0.12177
0.0700401
0.0254082
1.92835
1.88566
1.83959
1.78957
1.7369
1.6819
1.62431
1.56515
1.50367
1.44061
1.37567
1.30922
1.24112
1.17153
1.10051
1.0281
0.954375
0.87938
0.80317
0.725785
0.647368
0.568015
0.487959
0.40768
0.328179
0.25166
0.181457
0.120853
0.0696688
0.0252401
1.92209
1.87964
1.83372
1.7839
1.73141
1.6766
1.61919
1.56018
1.49885
1.43595
1.37116
1.30485
1.23691
1.16749
1.09662
1.02438
0.950823
0.875992
0.799945
0.722724
0.644471
0.5653
0.485433
0.405363
0.326095
0.249861
0.180079
0.119995
0.0693298
0.0250822
1.91637
1.87411
1.82831
1.77865
1.72633
1.67168
1.61444
1.55556
1.49437
1.43162
1.36696
1.30079
1.23299
1.16371
1.09299
1.02091
0.947498
0.872811
0.79691
0.719837
0.641737
0.562736
0.483049
0.403184
0.324144
0.248184
0.178796
0.119199
0.0690246
0.0249355
1.9112
1.86906
1.82335
1.77382
1.72165
1.66715
1.61005
1.5513
1.49025
1.42762
1.36309
1.29704
1.22936
1.16022
1.08963
1.01768
0.944403
0.869845
0.794071
0.717133
0.639172
0.560328
0.480813
0.401146
0.322335
0.246636
0.177616
0.118471
0.0687544
0.0248006
1.90656
1.86448
1.81884
1.76941
1.71738
1.663
1.60604
1.5474
1.48647
1.42395
1.35953
1.29359
1.22603
1.157
1.08654
1.01471
0.941544
0.867098
0.791435
0.714618
0.636782
0.55808
0.478727
0.399253
0.320672
0.245226
0.176544
0.117814
0.0685193
0.0246784
1.90246
1.86039
1.81479
1.76542
1.71351
1.65923
1.6024
1.54386
1.48304
1.42061
1.3563
1.29045
1.22299
1.15407
1.08371
1.01199
0.938926
0.864576
0.789009
0.712298
0.634571
0.555995
0.476792
0.397505
0.319154
0.243955
0.175585
0.11723
0.0683198
0.0245695
1.89889
1.85677
1.81118
1.76186
1.71005
1.65584
1.59913
1.54067
1.47995
1.41761
1.35339
1.28762
1.22026
1.15143
1.08116
1.00953
0.93655
0.862281
0.786796
0.710175
0.632539
0.554071
0.475003