/*--------------------------------*- C++ -*----------------------------------*\
  =========                 |
  \\      /  F ield         | OpenFOAM: The Open Source CFD Toolbox
   \\    /   O peration     | Website:  https://openfoam.org
    \\  /    A nd           | Version:  7
     \\/     M anipulation  |
\*---------------------------------------------------------------------------*/
FoamFile
{
    version     2.0;
    format      ascii;
    class       surfaceScalarField;
    location    "1.3";
    object      phi;
}
// * * * * * * * * * * * * * * * * * * * * * * * * * * * * * * * * * * * * * //

dimensions      [0 3 -1 0 0 0 0];

internalField   nonuniform List<scalar> 
35640
(
-2.47216e-05
0.00310726
-0.00308254
-6.91305e-05
0.00656674
-0.00652233
-0.000104253
0.00805549
-0.00802037
-9.94603e-05
0.00809729
-0.00810208
-2.87117e-05
0.00717825
-0.007249
0.000125987
0.00568505
-0.00583975
0.00037345
0.00390539
-0.00415286
0.000713744
0.00204781
-0.0023881
0.00113953
0.000259156
-0.000684942
0.00163821
-0.0013624
0.000863726
0.00219423
-0.00275841
0.00220238
0.00279122
-0.00390262
0.00330564
0.00341372
-0.00479357
0.00417106
0.00404842
-0.0054473
0.0048126
0.00468467
-0.00589071
0.00525447
0.00531455
-0.00615597
0.00552609
0.00593271
-0.00627635
0.00565819
0.00653592
-0.00628323
0.00568001
0.00712263
-0.0062045
0.00561779
0.00769249
-0.00606377
0.00549391
0.00824594
-0.00588024
0.00532678
0.00878395
-0.00566907
0.00513106
0.00930771
-0.00544183
0.00491806
0.00981856
-0.00520707
0.00469622
0.0103178
-0.00497096
0.00447176
0.0108065
-0.00473779
0.0042491
0.0112857
-0.00451039
0.00403111
0.0117566
-0.00429034
0.00381951
0.0122195
-0.00407733
0.00361436
-0.00386417
0.0126747
0.00340905
-1.15837e-05
0.00311884
-3.00068e-05
0.00658516
-3.20771e-05
0.00805756
8.95455e-06
0.00805626
0.000116486
0.00707072
0.000306787
0.00549475
0.000587521
0.00362466
0.000957782
0.00167755
0.00140934
-0.000192403
0.00192889
-0.00188195
0.0025004
-0.00332991
0.00310737
-0.0045096
0.00373463
-0.00542082
0.00436936
-0.00608204
0.00500161
-0.00652297
0.00562429
-0.00677865
0.00623287
-0.00688493
0.00682495
-0.00687531
0.00739965
-0.0067792
0.00795719
-0.0066213
0.00849847
-0.00642152
0.00902478
-0.00619538
0.00953757
-0.00595462
0.0100383
-0.0057078
0.0105283
-0.00546096
0.0110089
-0.00521836
0.011481
-0.00498257
0.0119457
-0.00475503
0.0124035
-0.00453514
-0.00431522
0.0128546
7.63604e-07
0.00311808
8.13703e-06
0.00657779
3.93217e-05
0.00802638
0.000117099
0.00797848
0.000262277
0.00692554
0.00048938
0.00526764
0.000804582
0.00330945
0.00120574
0.00127639
0.00168358
-0.000670236
0.00222395
-0.00242232
0.00281038
-0.00391634
0.00342632
-0.00512554
0.00405691
-0.00605142
0.00469001
-0.00671514
0.00531652
-0.00714948
0.00593033
-0.00739246
0.00652787
-0.00748247
0.00710753
-0.00745497
0.00766913
-0.00734081
0.00821348
-0.00716565
0.00874191
-0.00694995
0.00925603
-0.00670949
0.00975748
-0.00645607
0.0102478
-0.00619816
0.0107286
-0.00594169
0.0112009
-0.00569065
0.0116658
-0.00544749
0.0121243
-0.0052135
0.0125769
-0.00498776
-0.00476208
0.0130237
1.22978e-05
0.00310578
4.4695e-05
0.0065454
0.000109076
0.007962
0.000224175
0.00786338
0.000407961
0.00674176
0.000672934
0.00500267
0.00102361
0.00295878
0.00145635
0.000843657
0.00196064
-0.00117453
0.00252146
-0.00298314
0.00312186
-0.00451674
0.00374537
-0.00574905
0.00437765
-0.0066837
0.00500737
-0.00734485
0.00562646
-0.00776856
0.00622985
-0.00799586
0.00681496
-0.00806758
0.00738105
-0.00802106
0.00792867
-0.00788844
0.00845917
-0.00769615
0.00897429
-0.00746507
0.00947591
-0.00721111
0.00996583
-0.00694599
0.0104457
-0.00667806
0.0109171
-0.00641305
0.0113811
-0.00615468
0.0118389
-0.00590525
0.0122912
-0.0056658
0.0127386
-0.00543522
-0.00520484
0.0131814
2.28615e-05
0.00308292
7.95445e-05
0.00648871
0.000176789
0.00786476
0.000329345
0.00771083
0.00055233
0.00651877
0.000855986
0.00469901
0.00124286
0.0025719
0.00170758
0.000378937
0.00223824
-0.00170518
0.00281882
-0.00356372
0.00343203
-0.00512995
0.00406161
-0.00637864
0.0046939
-0.00731598
0.00531853
-0.00796948
0.00592857
-0.0083786
0.00652013
-0.00858741
0.00709163
-0.00863909
0.00764323
-0.00857266
0.00817619
-0.00842139
0.00869237
-0.00821233
0.00919389
-0.00796659
0.00968285
-0.00770007
0.0101612
-0.00742433
0.0106307
-0.00714752
0.0110927
-0.0068751
0.0115486
-0.00661053
0.0119992
-0.00635589
0.0124454
-0.00611203
0.0128878
-0.0058776
-0.0056436
0.0133266
3.25574e-05
0.00305036
0.000112427
0.00640884
0.000241909
0.00773528
0.000431936
0.0075208
0.000694564
0.00625614
0.00103748
0.0043561
0.00146099
0.00214839
0.00195773
-0.000117808
0.00251426
-0.00226171
0.00311364
-0.0041631
0.00373829
-0.00575461
0.00437232
-0.00701267
0.00500288
-0.00794654
0.00562077
-0.00858736
0.00622029
-0.00897813
0.00679876
-0.00916588
0.00735568
-0.009196
0.00789207
-0.00910906
0.00840989
-0.00893921
0.00891148
-0.00871393
0.00939929
-0.0084544
0.0098756
-0.00817638
0.0103424
-0.00789118
0.0108016
-0.00760665
0.0112544
-0.00732797
0.0117022
-0.00705832
0.0121459
-0.00679951
0.012586
-0.00655223
0.0130234
-0.00631491
-0.00607831
0.0134581
4.13143e-05
0.00300905
0.000143255
0.0063069
0.000304214
0.00757432
0.000531452
0.00729356
0.000833857
0.00595374
0.00121627
0.00397369
0.00167645
0.0016882
0.00220492
-0.000646268
0.00278656
-0.00284336
0.00340354
-0.00478008
0.00403813
-0.00638919
0.00467492
-0.00764946
0.00530207
-0.00857369
0.00591164
-0.00919694
0.00649932
-0.00956581
0.00706364
-0.00973019
0.00760519
-0.00973756
0.00812587
-0.00962974
0.00862828
-0.00944162
0.00911521
-0.00920085
0.00958935
-0.00892855
0.0100531
-0.00864018
0.0105087
-0.00834672
0.0109577
-0.00805566
0.0114016
-0.00777184
0.0118414
-0.00749819
0.0122781
-0.00723622
0.0127124
-0.00698645
0.0131446
-0.00674716
-0.0065089
0.0135752
4.91591e-05
0.00295989
0.00017197
0.00618409
0.000363494
0.00738279
0.000627474
0.00702958
0.000969488
0.00561173
0.00139129
0.00355189
0.0018879
0.00119159
0.00244747
-0.00120583
0.0030532
-0.00344909
0.00368638
-0.00541326
0.00432926
-0.00703206
0.00496708
-0.00828728
0.00558917
-0.00919578
0.00618899
-0.00979676
0.00676364
-0.0101405
0.00731294
-0.0102795
0.00783855
-0.0102632
0.00834324
-0.0101344
0.00883017
-0.00992855
0.00930251
-0.0096732
0.00976319
-0.00938922
0.0102147
-0.00909172
0.0106592
-0.00879122
0.0110984
-0.0084948
0.0115335
-0.00820696
0.0119656
-0.00793031
0.0123955
-0.00766614
0.0128238
-0.00741474
0.0132509
-0.00717429
-0.00693529
0.0136773
5.61269e-05
0.00290377
0.000198587
0.00604163
0.000419641
0.00716174
0.00071968
0.00672954
0.00110087
0.00523053
0.00156169
0.00309107
0.00209415
0.000659133
0.00268391
-0.00179559
0.00331245
-0.00407763
0.00396024
-0.00606105
0.00460964
-0.00768146
0.00524674
-0.00892438
0.00586217
-0.00981121
0.00645091
-0.0103855
0.00701152
-0.0107011
0.00754511
-0.0108131
0.00805444
-0.0107725
0.00854303
-0.010623
0.00901458
-0.0104001
0.00947259
-0.0101312
0.00992014
-0.00983677
0.0103598
-0.00953137
0.0107936
-0.00922504
0.0112232
-0.00892441
0.0116498
-0.00863358
0.0120744
-0.00835488
0.0124976
-0.00808935
0.01292
-0.00783712
0.0133419
-0.00759625
-0.00735735
0.013764
6.22795e-05
0.00284149
0.000223166
0.00588075
0.000472635
0.00691227
0.000807882
0.0063943
0.0012276
0.00481081
0.00172677
0.0025919
0.00229422
9.16825e-05
0.00291297
-0.00241434
0.00356278
-0.00472743
0.0042234
-0.00672168
0.00487746
-0.00833553
0.00551207
-0.00955898
0.0061193
-0.0104184
0.00669574
-0.0109619
0.00724147
-0.0112468
0.00775889
-0.0113305
0.00825177
-0.0112654
0.00872435
-0.0110956
0.0091808
-0.0108565
0.00962486
-0.0105753
0.0100597
-0.0102716
0.0104879
-0.00995958
0.0109115
-0.00964861
0.0113319
-0.00934484
0.0117503
-0.009052
0.0121675
-0.00877209
0.0125842
-0.00850597
0.0130006
-0.00825359
0.0134173
-0.00801296
-0.00777492
0.0138349
6.7696e-05
0.00277379
0.000245821
0.00570262
0.000522546
0.00663555
0.00089203
0.00602482
0.00134942
0.00435343
0.00188604
0.00205529
0.00248733
-0.00050961
0.00313359
-0.0030606
0.00380287
-0.00539671
0.00447435
-0.00739316
0.00513111
-0.00899228
0.00576144
-0.0101893
0.00635901
-0.011016
0.00692208
-0.011525
0.00745226
-0.011777
0.00795323
-0.0118315
0.00842968
-0.0117418
0.00888652
-0.0115524
0.00932828
-0.0112983
0.0097589
-0.0110059
0.0101816
-0.0106943
0.0105989
-0.0103769
0.0110127
-0.0100624
0.0114243
-0.00975651
0.0118349
-0.00946252
0.0122449
-0.00918218
0.0126551
-0.00891611
0.0130656
-0.00866415
0.013477
-0.00842431
-0.00818785
0.0138899
7.24667e-05
0.00270132
0.000266719
0.00550837
0.000569541
0.00633273
0.000972201
0.00562216
0.00146624
0.00385939
0.00203916
0.00148237
0.00267286
-0.00114332
0.00334487
-0.00373261
0.00403158
-0.00608341
0.00471178
-0.00807336
0.00536918
-0.00964968
0.00599345
-0.0108136
0.00657999
-0.0116026
0.00712877
-0.0120738
0.00764292
-0.0122911
0.00812733
-0.0123159
0.00858756
-0.0122021
0.00902907
-0.0119939
0.0094567
-0.0117259
0.00987449
-0.0114237
0.0102857
-0.0111055
0.0106926
-0.0107838
0.0110971
-0.0104669
0.0115004
-0.0101598
0.0119034
-0.00986548
0.0123066
-0.00958535
0.0127103
-0.00931988
0.013115
-0.00906882
0.0135209
-0.00883023
-0.00859598
0.0139291
7.66921e-05
0.00262463
0.000286063
0.005299
0.00061386
0.00600493
0.00104858
0.00518744
0.0015781
0.00332988
0.00218594
0.000874523
0.00285035
-0.00180772
0.00354604
-0.0044283
0.0042479
-0.00678527
0.00493451
-0.00875997
0.00559045
-0.0103056
0.00620693
-0.0114301
0.00678117
-0.0121768
0.00731489
-0.0126075
0.00781269
-0.0127889
0.00828061
-0.0127838
0.008725
-0.0126465
0.00915173
-0.0124207
0.00956588
-0.0121401
0.00997154
-0.0118294
0.0103718
-0.0115058
0.0107691
-0.0111811
0.0111649
-0.0108627
0.0115603
-0.0105553
0.0119561
-0.0102612
0.0123526
-0.00998185
0.0127501
-0.00971741
0.0131489
-0.00946762
0.0135493
-0.00923066
-0.00899922
0.0139526
8.04802e-05
0.00254415
0.000304093
0.00507539
0.000655809
0.00565322
0.00112145
0.00472179
0.00168514
0.00276619
0.00232632
0.000233348
0.00301944
-0.00250084
0.00373649
-0.00514535
0.004451
-0.00749978
0.00514157
-0.00945054
0.00579389
-0.0109579
0.0064009
-0.0120371
0.00696169
-0.0127376
0.00747973
-0.0131256
0.00796106
-0.0132702
0.00841274
-0.0132355
0.00884176
-0.0130755
0.00925439
-0.0128333
0.00965581
-0.0125415
0.0100501
-0.0122236
0.0104403
-0.011896
0.0108284
-0.0115693
0.0112161
-0.0112504
0.0116041
-0.0109433
0.011993
-0.0106501
0.0123831
-0.0103719
0.0127746
-0.0101089
0.0131676
-0.00986063
0.0135625
-0.00962561
-0.00939753
0.0139608
8.39434e-05
0.00246021
0.000321064
0.00483827
0.000695731
0.00527855
0.00119114
0.00422638
0.00178759
0.00216975
0.00246028
-0.000439339
0.00317985
-0.00322042
0.00391567
-0.00588116
0.00464011
-0.00822423
0.00533211
-0.0101425
0.00597866
-0.0116045
0.00657459
-0.012633
0.00712093
-0.0132839
0.00762285
-0.0136275
0.00808772
-0.0137351
0.00852353
-0.0136713
0.00893782
-0.0134898
0.0093371
-0.0132326
0.00972659
-0.012931
0.0101103
-0.0126073
0.0104911
-0.0122767
0.0108709
-0.0119491
0.011251
-0.0116304
0.011632
-0.0113243
0.0120145
-0.0110326
0.0123985
-0.0107559
0.0127841
-0.0104945
0.0131714
-0.010248
0.013561
-0.0100152
-0.00979099
0.0139545
8.71944e-05
0.00237301
0.000337241
0.00458822
0.000733991
0.0048818
0.00125802
0.00370236
0.00188568
0.00154208
0.00258784
-0.0011415
0.00333135
-0.00396392
0.00408309
-0.0066329
0.0048146
-0.00895574
0.0055054
-0.0108333
0.00614408
-0.0122432
0.00672743
-0.0132164
0.00725844
-0.0138149
0.00774395
-0.014113
0.00819255
-0.0141837
0.00861301
-0.0140918
0.00901328
-0.0138901
0.00940003
-0.0136193
0.00977846
-0.0133094
0.0101524
-0.0129813
0.0105246
-0.0126489
0.0108967
-0.0123212
0.0112697
-0.0120035
0.0116444
-0.011699
0.0120208
-0.011409
0.012399
-0.0111342
0.012779
-0.0108745
0.013161
-0.0106299
0.0135453
-0.0103995
-0.0101798
0.0139341
9.03417e-05
0.00228267
0.000352886
0.00432568
0.000770948
0.00446374
0.00132243
0.00315087
0.00197965
0.00088487
0.00270903
-0.00187089
0.00347371
-0.0047286
0.00423833
-0.00739752
0.0049739
-0.00969132
0.00566088
-0.0115203
0.00628962
-0.0128719
0.00685901
-0.0137858
0.00737401
-0.0143299
0.00784298
-0.014582
0.00827562
-0.0146163
0.00868133
-0.0144975
0.00906837
-0.0142771
0.00944347
-0.0139944
0.0098117
-0.0136777
0.0101767
-0.0133463
0.010541
-0.0130132
0.0109061
-0.0126862
0.0112728
-0.0123702
0.0116415
-0.0120677
0.0120123
-0.0117798
0.0123851
-0.011507
0.0127599
-0.0112493
0.0131366
-0.0110067
0.013516
-0.0107789
-0.0105642
0.0139004
9.34865e-05
0.00218918
0.000368239
0.00405092
0.000806938
0.00402504
0.00138472
0.0025731
0.00206969
0.000199898
0.00282383
-0.00262503
0.00360669
-0.00551145
0.00438096
-0.0081718
0.00511753
-0.0104279
0.00579806
-0.0122008
0.00641492
-0.0134888
0.00696915
-0.01434
0.00746757
-0.0148284
0.00792003
-0.0150344
0.00833712
-0.0150334
0.00872878
-0.0148891
0.00910344
-0.0146518
0.00946777
-0.0143588
0.00982669
-0.0140366
0.0101836
-0.0137033
0.0105408
-0.0133703
0.0108995
-0.0130449
0.0112604
-0.0127311
0.0116237
-0.012431
0.0119893
-0.0121454
0.0123571
-0.0118748
0.0127269
-0.0116191
0.0130988
-0.0113785
0.0134735
-0.0111536
-0.0109445
0.0138538
9.67193e-05
0.00209247
0.000383517
0.00376413
0.000842257
0.0035663
0.00144514
0.00197022
0.00215594
-0.000510902
0.00293218
-0.00340127
0.00373002
-0.0063093
0.00451061
-0.00895239
0.00524507
-0.0111623
0.00591661
-0.0128724
0.00651977
-0.0140919
0.00705777
-0.014878
0.00753925
-0.0153098
0.00797533
-0.0154705
0.0083774
-0.0154355
0.00875576
-0.0152675
0.0091189
-0.0150149
0.00947335
-0.0147132
0.00982381
-0.0143871
0.0101734
-0.0140529
0.0105242
-0.0137211
0.0108772
-0.0133979
0.0112329
-0.0130868
0.0115913
-0.0127894
0.0119522
-0.0125064
0.0123154
-0.012238
0.0126807
-0.0119843
0.013048
-0.0117459
0.0134183
-0.0115239
-0.0113209
0.0137948
0.000100117
0.00199235
0.000398901
0.00346534
0.000877146
0.00308806
0.00150389
0.00134348
0.00223845
-0.00124546
0.00303393
-0.00419675
0.00384341
-0.00711878
0.00462689
-0.00973586
0.00535615
-0.0118916
0.00601627
-0.0135325
0.00660409
-0.0146797
0.00712498
-0.0153989
0.00758928
-0.0157741
0.00800925
-0.0158905
0.00839691
-0.0158232
0.00876275
-0.0156333
0.00911523
-0.0153674
0.00946067
-0.0150586
0.0098035
-0.0147299
0.0101466
-0.014396
0.0104917
-0.0140662
0.0108396
-0.0137458
0.0111906
-0.0134378
0.0115446
-0.0131434
0.0119013
-0.0128631
0.0122603
-0.012597
0.0126214
-0.0123454
0.0129845
-0.012109
0.0133507
-0.0118901
-0.0116938
0.0137235
0.000103741
0.00188861
0.000414534
0.00315455
0.000911777
0.00259082
0.00156108
0.000694172
0.00231717
-0.00200155
0.00312887
-0.00500845
0.00394652
-0.00793643
0.00472944
-0.0105188
0.0054505
-0.0126127
0.00609692
-0.0141789
0.00666793
-0.0152508
0.007171
-0.0159019
0.00761804
-0.0162212
0.00802227
-0.0162947
0.00839615
-0.0161971
0.00875028
-0.0159875
0.00909294
-0.0157101
0.0094302
-0.0153959
0.00976617
-0.0150659
0.0101035
-0.0147333
0.0104435
-0.0144062
0.010787
-0.0140893
0.0111339
-0.0137847
0.011484
-0.0134935
0.011837
-0.013216
0.0121922
-0.0129523
0.0125493
-0.0127025
0.0129085
-0.0124681
0.0132707
-0.0122523
-0.012063
0.0136399
0.000107635
0.00178097
0.000430515
0.00283167
0.000946253
0.00207508
0.00161673
2.36958e-05
0.00239199
-0.0027768
0.00321674
-0.0058332
0.00403901
-0.0087587
0.00481793
-0.0112977
0.00552792
-0.0133227
0.00615855
-0.0148095
0.00671147
-0.0158037
0.0071962
-0.0163867
0.00762602
-0.016651
0.00801494
-0.0166836
0.00837571
-0.0165578
0.00871889
-0.0163307
0.00905253
-0.0160437
0.00938237
-0.0157258
0.00971221
-0.0153957
0.0100444
-0.0150655
0.01038
-0.0147419
0.0107196
-0.0144288
0.011063
-0.0141281
0.0114098
-0.0138403
0.0117595
-0.0135657
0.0121114
-0.0133042
0.012465
-0.0130561
0.0128202
-0.0128234
0.0131783
-0.0126105
-0.0124282
0.0135436
0.000111826
0.00166915
0.000446902
0.0024966
0.000980599
0.00154138
0.00167075
-0.000666456
0.00246266
-0.0035687
0.00329718
-0.00666772
0.00412049
-0.00958202
0.00489209
-0.0120693
0.00558828
-0.0140189
0.00620122
-0.0154225
0.00673499
-0.0163375
0.007201
-0.0168527
0.00761376
-0.0170637
0.00798786
-0.0170577
0.0083362
-0.0169062
0.00866917
-0.0166636
0.00899451
-0.016369
0.00931762
-0.0160489
0.00964198
-0.0157201
0.0099696
-0.0153931
0.0103014
-0.0150737
0.0106377
-0.0147651
0.0109782
-0.0144686
0.0113223
-0.0141844
0.0116692
-0.0139126
0.0120183
-0.0136532
0.0123686
-0.0134065
0.0127201
-0.0131748
0.0130739
-0.0129643
-0.012789
0.0134346
0.000116327
0.00155282
0.000463706
0.00214922
0.00101477
0.000990325
0.00172298
-0.00137467
0.00252889
-0.00437461
0.0033698
-0.00750864
0.0041906
-0.0104028
0.00495165
-0.0128303
0.00563155
-0.0146988
0.00622513
-0.0160161
0.00673889
-0.0168512
0.00718597
-0.0172998
0.00758191
-0.0174597
0.0079417
-0.0174175
0.00827825
-0.0172427
0.00860167
-0.016987
0.00891935
-0.0166867
0.00923632
-0.0163658
0.00955574
-0.0160395
0.00987936
-0.0157167
0.0102079
-0.0154023
0.0105415
-0.0150987
0.0108797
-0.0148067
0.0112217
-0.0145264
0.0115666
-0.0142575
0.0119134
-0.0139999
0.0122609
-0.013754
0.0126087
-0.0135226
0.0129577
-0.0133133
-0.0131443
0.0133131
0.000121138
0.00143168
0.0004809
0.00178946
0.00104864
0.000422581
0.00177316
-0.00209919
0.0025903
-0.00519174
0.00343419
-0.00835254
0.00424899
-0.0112176
0.00499645
-0.0135778
0.00565777
-0.0153601
0.00623056
-0.0165888
0.00672364
-0.0173443
0.00715172
-0.0177278
0.00753113
-0.0178391
0.00787714
-0.0177635
0.00820247
-0.0175681
0.00851692
-0.0173015
0.00882746
-0.0169973
0.00913877
-0.0166771
0.0094537
-0.0163544
0.00977376
-0.0160368
0.0100996
-0.0157281
0.010431
-0.0154301
0.0107675
-0.0151433
0.0111083
-0.0148672
0.011452
-0.0146013
0.0117974
-0.0143453
0.0121429
-0.0140995
0.0124873
-0.0138669
0.0128311
-0.0136571
-0.013493
0.0131797
0.00012625
0.00130543
0.000498421
0.00141729
0.00108206
-0.000161056
0.001821
-0.00283813
0.00264648
-0.00601722
0.00348993
-0.00919598
0.00429534
-0.012023
0.00502637
-0.0143088
0.00566708
-0.0160008
0.00621788
-0.0171397
0.0066898
-0.0178162
0.0070989
-0.0181369
0.00746214
-0.0182023
0.00779485
-0.0180962
0.00810948
-0.0178827
0.00841542
-0.0176074
0.00871923
-0.0173011
0.00902522
-0.0169831
0.00933595
-0.0166652
0.00965279
-0.0163536
0.00997619
-0.0160515
0.010306
-0.01576
0.0106416
-0.0154789
0.010982
-0.0152076
0.0113258
-0.0149451
0.0116712
-0.0146907
0.012016
-0.0144443
0.012358
-0.0142089
0.0126964
-0.0139955
-0.0138331
0.0130366
0.00013164
0.00117379
0.000516173
0.00103276
0.00111479
-0.000759674
0.00186614
-0.00358947
0.002697
-0.00684808
0.0035366
-0.0100356
0.00432939
-0.0128158
0.00504139
-0.0150208
0.0056597
-0.0166191
0.00618756
-0.0176675
0.006638
-0.0182667
0.00702824
-0.0185272
0.00737568
-0.0185498
0.00769552
-0.0184161
0.00799987
-0.0181871
0.00829764
-0.0179052
0.00859496
-0.0175984
0.00889579
-0.017284
0.00920248
-0.0169719
0.00951625
-0.0166674
0.00983754
-0.0163728
0.0101662
-0.0160886
0.0105016
-0.0158143
0.0108428
-0.0155488
0.0111882
-0.0152905
0.0115356
-0.0150381
0.011882
-0.0147907
0.0122237
-0.0145506
0.0125582
-0.01433
-0.0141629
0.012888
0.00013728
0.00103651
0.000534037
0.000635999
0.00114659
-0.00137223
0.00190818
-0.00435107
0.00274139
-0.00768129
0.00357381
-0.010868
0.00435093
-0.0135929
0.00504155
-0.0157115
0.00563596
-0.0172135
0.00614012
-0.0181717
0.00656891
-0.0186955
0.0069405
-0.0188988
0.00727248
-0.0188818
0.00757983
-0.0187234
0.0078742
-0.0184814
0.00816398
-0.018195
0.00845489
-0.0178893
0.00875055
-0.0175796
0.00905315
-0.0172745
0.00936382
-0.016978
0.00968306
-0.016692
0.0100109
-0.0164164
0.0103468
-0.0161503
0.0106901
-0.015892
0.0110392
-0.0156396
0.0113916
-0.0153905
0.0117434
-0.0151426
0.0120892
-0.0148964
0.0124234
-0.0146641
-0.0144824
0.0127429
0.000143138
0.000893375
0.00055188
0.000227257
0.00117717
-0.00199752
0.00194673
-0.00512062
0.00277924
-0.00851379
0.00360123
-0.01169
0.00435987
-0.0143516
0.00502702
-0.0163786
0.00559626
-0.0177827
0.00607617
-0.0186516
0.00648327
-0.0191026
0.00683643
-0.0192519
0.00715328
-0.0191986
0.00744844
-0.0190186
0.00773299
-0.018766
0.00801483
-0.0184768
0.00829922
-0.0181737
0.00858951
-0.0178699
0.00888771
-0.0175727
0.00919498
-0.0172853
0.0095119
-0.0170089
0.00983877
-0.0167433
0.0101756
-0.0164871
0.0105221
-0.0162385
0.0108776
-0.015995
0.0112401
-0.015753
0.0116053
-0.0155078
0.0119639
-0.0152551
0.012298
-0.0149982
-0.0147969
0.0126124
0.000149184
0.000744191
0.000569562
-0.000193121
0.00120625
-0.00263421
0.00198138
-0.00589575
0.00281012
-0.00934253
0.00361861
-0.0124985
0.00435615
-0.0150891
0.00499802
-0.0170205
0.00554108
-0.0183258
0.00599637
-0.0191069
0.00638184
-0.019488
0.00671683
-0.0195869
0.00701884
-0.0195006
0.00730199
-0.0193017
0.00757678
-0.0190408
0.00785055
-0.0187506
0.00812814
-0.0184513
0.00841262
-0.0181544
0.00870588
-0.0178659
0.00900907
-0.0175885
0.00932297
-0.0173228
0.00964818
-0.0170685
0.00998529
-0.0168242
0.010335
-0.0165883
0.0106983
-0.0163583
0.0110762
-0.0161309
0.0114693
-0.0159009
0.0118753
-0.015661
0.0122777
-0.0154006
0.0125607
-0.0150799
0.0132477
-0.0150298
0.0144568
0.0135977
-0.00992745
0.00957736
0.0137877
-0.00547648
0.00528654
0.013882
-0.00246356
0.00236922
0.013906
-0.000238841
0.000214866
0.0138774
0.00174681
-0.00171818
0.0138095
0.00373221
-0.00366433
0.0137009
0.00566986
-0.00556125
0.0135598
0.00760392
-0.00746285
0.0133925
0.00942489
-0.00925764
0.0132031
0.011174
-0.0109845
0.0129938
0.0128243
-0.012615
0.0127679
0.0143862
-0.0141603
0.0125252
0.0158621
-0.0156194
0.0122698
0.0172383
-0.0169829
0.0120009
0.0185326
-0.0182637
0.0117214
0.0197334
-0.0194539
0.0114308
0.0208412
-0.0205506
0.0111324
0.0218496
-0.0215512
0.0108246
0.0227696
-0.0224618
0.0105118
0.0235771
-0.0232644
0.0101901
0.0243065
-0.0239848
0.00986599
0.0249024
-0.0245783
0.00953248
0.0254321
-0.0250986
0.00919344
0.0258656
-0.0255266
0.00884974
0.0260567
-0.025713
0.00848377
0.0266938
-0.0263279
0.00812206
0.0260129
-0.0256512
0.00772653
0.027187
-0.0267915
0.0269393
-0.0265179
0.0133735
-0.0155488
0.0136976
-0.0102515
0.013875
-0.00565389
0.0139659
-0.00255446
0.0139909
-0.000263908
0.0139645
0.0017732
0.0138984
0.00379832
0.0137924
0.00577597
0.0136538
0.00774254
0.0134883
0.00959032
0.0132996
0.0113627
0.0130903
0.0130336
0.0128642
0.0146124
0.0126208
0.0161055
0.012363
0.0174961
0.012091
0.0188046
0.0118081
0.0200163
0.0115137
0.0211356
0.0112095
0.0221538
0.0108966
0.0230826
0.0105774
0.0238963
0.010249
0.024635
0.00991769
0.0252337
0.00957685
0.025773
0.00922976
0.0262127
0.00887863
0.0264079
0.00850485
0.0270676
0.00813624
0.0263815
0.00773379
0.0275895
0.0273667
0.0134891
-0.0160141
0.0137882
-0.0105507
0.0139539
-0.00581955
0.0140419
-0.00264252
0.0140681
-0.000290051
0.0140446
0.00179673
0.0139813
0.00386154
0.0138782
0.00587907
0.0137422
0.00787854
0.0135788
0.00975373
0.0133916
0.01155
0.0131831
0.0132421
0.0129566
0.0148388
0.0127128
0.0163493
0.0124532
0.0177558
0.0121787
0.0190791
0.0118925
0.0203025
0.0115944
0.0214337
0.011285
0.0224632
0.0109671
0.0234005
0.0106418
0.0242216
0.0103069
0.0249699
0.00996848
0.0255721
0.00962066
0.0261208
0.00926566
0.0265677
0.00890746
0.0267661
0.0085261
0.027449
0.00815099
0.0267566
0.00774186
0.0279986
0.0277995
0.0135941
-0.0164268
0.0138693
-0.0108259
0.0140236
-0.00597386
0.0141098
-0.00272869
0.0141377
-0.000317927
0.0141176
0.00181685
0.0140578
0.00392133
0.013958
0.00597889
0.0138252
0.0080113
0.0136643
0.00991459
0.013479
0.0117353
0.0132716
0.0134495
0.0130454
0.015065
0.0128014
0.0165932
0.0125404
0.0180168
0.0122638
0.0193556
0.0119746
0.0205918
0.011673
0.0217352
0.011359
0.0227771
0.0110361
0.0237235
0.0107051
0.0245526
0.0103639
0.0253111
0.0100187
0.0259172
0.00966386
0.0264756
0.00930156
0.02693
0.00893625
0.0271314
0.00854775
0.0278375
0.00816659
0.0271378
0.00775077
0.0284144
0.0282374
0.013688
-0.0167882
0.0139402
-0.0110782
0.0140843
-0.00611796
0.0141695
-0.00281389
0.0141995
-0.00034791
0.0141832
0.00183314
0.0141279
0.00397661
0.0140316
0.0060752
0.0139024
0.00814048
0.0137444
0.0100726
0.0135615
0.0119183
0.0133561
0.0136549
0.0131303
0.0152908
0.0128863
0.0168372
0.0126244
0.0182788
0.0123464
0.0196336
0.0120543
0.0208839
0.0117493
0.0220403
0.0114315
0.023095
0.0111034
0.0240515
0.0107671
0.0248889
0.0104198
0.0256584
0.0100682
0.0262689
0.00970638
0.0268374
0.0093373
0.0272991
0.00896494
0.0275037
0.00856966
0.0282328
0.00818286
0.0275246
0.00776047
0.0288368
0.0286799
0.0137706
-0.0171007
0.0140006
-0.0113082
0.0141357
-0.00625304
0.0142205
-0.00289873
0.0142535
-0.000380858
0.0142415
0.00184509
0.014191
0.00402711
0.014099
0.00616725
0.0139738
0.00826567
0.0138192
0.0102271
0.0136392
0.0120983
0.0134361
0.013858
0.0132113
0.0155155
0.0129678
0.0170808
0.0127053
0.0185412
0.0124261
0.0199128
0.0121318
0.0211782
0.0118235
0.0223486
0.0115022
0.0234163
0.0111693
0.0243843
0.010828
0.0252302
0.0104748
0.0260116
0.0101169
0.0266267
0.00974843
0.0272059
0.00937279
0.0276747
0.00899365
0.0278829
0.00859188
0.0286346
0.00819974
0.0279167
0.00777115
0.0292654
0.0291266
0.0138416
-0.0173671
0.0140502
-0.0115168
0.0141777
-0.0063805
0.0142628
-0.0029839
0.0142995
-0.000417551
0.0142923
0.00185226
0.014247
0.00407242
0.0141598
0.00625444
0.0140391
0.00838641
0.0138886
0.0103776
0.0137119
0.012275
0.0135115
0.0140584
0.0132883
0.0157388
0.0130456
0.0173234
0.012783
0.0188038
0.012503
0.0201928
0.0122068
0.0214744
0.0118956
0.0226598
0.011571
0.0237409
0.0112336
0.0247217
0.0108876
0.0255763
0.0105288
0.0263704
0.0101649
0.0269906
0.00978998
0.0275808
0.009408
0.0280567
0.00902235
0.0282685
0.00861437
0.0290426
0.00821715
0.0283139
0.00778277
0.0296998
0.0295775
0.0139007
-0.0175905
0.0140889
-0.011705
0.0142103
-0.00650189
0.0142965
-0.00307013
0.0143376
-0.000458657
0.0143356
0.00185425
0.0142959
0.00411212
0.0142141
0.00633626
0.0140984
0.00850216
0.0139525
0.0105235
0.0137796
0.0124479
0.0135824
0.0142555
0.0133611
0.0159601
0.0131197
0.0175648
0.0128575
0.019066
0.0125769
0.0204734
0.0122793
0.021772
0.0119655
0.0229736
0.0116381
0.0240683
0.0112964
0.0250634
0.0109459
0.0259268
0.0105818
0.0267345
0.0102121
0.0273603
0.00983101
0.0279619
0.00944289
0.0284448
0.009051
0.0286604
0.0086371
0.0294565
0.00823503
0.028716
0.00779527
0.0301396
0.0300321
0.0139476
-0.0177741
0.0141167
-0.0118741
0.0142337
-0.00661894
0.0143218
-0.0031582
0.0143678
-0.000504689
0.0143714
0.00185068
0.0143377
0.00414582
0.0142617
0.00641225
0.0141515
0.00861239
0.0140107
0.0106643
0.013842
0.0126166
0.0136484
0.0144491
0.0134297
0.0161789
0.01319
0.0178044
0.0129285
0.0193275
0.0126479
0.020754
0.0123492
0.0220707
0.0120333
0.0232895
0.0117032
0.0243984
0.0113576
0.0254089
0.0110028
0.0262817
0.0106338
0.0271036
0.0102585
0.0277356
0.00987149
0.0283489
0.00947745
0.0288389
0.00907952
0.0290584
0.00866004
0.0298759
0.00825329
0.0291228
0.00780858
0.0305843
0.0304901
0.0139821
-0.0179213
0.0141338
-0.0120258
0.0142483
-0.00673346
0.014339
-0.00324886
0.0143903
-0.000555969
0.0143997
0.0018413
0.0143723
0.00417318
0.0143026
0.00648197
0.0141984
0.00871659
0.0140631
0.0107996
0.0138992
0.0127805
0.0137096
0.0146387
0.0134939
0.0163946
0.0132564
0.018042
0.0129962
0.0195877
0.0127158
0.0210344
0.0124164
0.0223701
0.0120988
0.0236072
0.0117663
0.0247309
0.0114173
0.0257579
0.0110584
0.0266406
0.0106847
0.0274772
0.010304
0.0281162
0.00991136
0.0287416
0.00951165
0.0292386
0.00910784
0.0294622
0.00868315
0.0303006
0.00827186
0.0295341
0.00782264
0.0310335
0.0309514
0.0140043
-0.0180356
0.0141409
-0.0121624
0.0142548
-0.00684737
0.0143487
-0.00334279
0.0144053
-0.0006126
0.0144206
0.00182601
0.0143998
0.00419398
0.0143367
0.00654507
0.014239
0.00881428
0.0141096
0.010929
0.0139511
0.0129391
0.0137659
0.0148239
0.0135538
0.0166066
0.0133188
0.0182771
0.0130602
0.0198462
0.0127807
0.021314
0.0124809
0.0226699
0.0121619
0.0239262
0.0118274
0.0250655
0.0114754
0.0261099
0.0111125
0.0270035
0.0107346
0.0278551
0.0103487
0.0285021
0.00995056
0.0291397
0.00954548
0.0296437
0.0091359
0.0298718
0.00870638
0.0307302
0.00829067
0.0299498
0.00783738
0.0314868
0.0314154
0.0140145
-0.0181211
0.0141386
-0.0122865
0.0142538
-0.00696259
0.0143516
-0.00344051
0.0144134
-0.000674438
0.0144345
0.00180489
0.0144204
0.00420809
0.0143642
0.00660128
0.0142734
0.00890507
0.0141503
0.0110521
0.0139975
0.0130919
0.0138171
0.0150043
0.0136092
0.0168145
0.0133771
0.0185092
0.0131207
0.0201026
0.0128423
0.0215923
0.0125427
0.0229695
0.0122228
0.0242461
0.0118864
0.0254019
0.0115318
0.0264645
0.0111652
0.0273702
0.0107833
0.028237
0.0103926
0.0288928
0.00998905
0.0295432
0.00957889
0.0300538
0.00916364
0.030287
0.00872967
0.0311641
0.00830965
0.0303698
0.00785271
0.0319437
0.0318816
0.0140133
-0.0181819
0.0141282
-0.0124013
0.0142466
-0.00708098
0.0143484
-0.00354237
0.0144151
-0.00074108
0.0144417
0.00177821
0.0144343
0.00421548
0.0143852
0.00665045
0.0143017
0.00898858
0.0141852
0.0111686
0.0140386
0.0132384
0.0138633
0.0151796
0.01366
0.0170178
0.0134313
0.0187379
0.0131775
0.0203564
0.0129008
0.0218691
0.0126016
0.0232687
0.0122812
0.0245664
0.0119432
0.0257398
0.0115865
0.0268212
0.0112164
0.0277403
0.0108308
0.0286226
0.0104355
0.0292881
0.0100268
0.029952
0.00961181
0.0304688
0.00919097
0.0307078
0.00875292
0.0316022
0.00832871
0.030794
0.00786853
0.0324039
0.0323497
0.0140014
-0.0182225
0.0141107
-0.0125105
0.0142339
-0.00720424
0.01434
-0.00364849
0.0144108
-0.000811904
0.0144427
0.00174636
0.0144419
0.00421625
0.0143999
0.00669249
0.0143239
0.00906457
0.0142143
0.0112782
0.0140744
0.0133784
0.0139045
0.0153495
0.0137063
0.017216
0.0134814
0.0189628
0.0132306
0.0206072
0.0129559
0.0221438
0.0126576
0.023567
0.0123371
0.0248869
0.0119979
0.026079
0.0116394
0.0271798
0.0112662
0.0281135
0.010877
0.0290118
0.0104775
0.0296875
0.0100637
0.0303658
0.00964417
0.0308884
0.00921782
0.0311342
0.00877603
0.032044
0.00834773
0.0312223
0.00788472
0.0328669
0.032819
0.0139798
-0.0182478
0.0140872
-0.0126179
0.0142167
-0.00733374
0.014327
-0.00375877
0.0144012
-0.000886172
0.0144378
0.00170981
0.0144435
0.00421055
0.0144086
0.00672735
0.0143403
0.00913286
0.0142379
0.0113806
0.0141049
0.0135114
0.0139409
0.0155135
0.0137481
0.0174088
0.0135274
0.0191834
0.0132799
0.0208547
0.0130077
0.022416
0.0127107
0.023864
0.0123905
0.025207
0.0120504
0.0264192
0.0116904
0.0275398