/*--------------------------------*- C++ -*----------------------------------*\
  =========                 |
  \\      /  F ield         | OpenFOAM: The Open Source CFD Toolbox
   \\    /   O peration     | Website:  https://openfoam.org
    \\  /    A nd           | Version:  7
     \\/     M anipulation  |
\*---------------------------------------------------------------------------*/
FoamFile
{
    version     2.0;
    format      ascii;
    class       volScalarField;
    location    "43";
    object      p;
}
// * * * * * * * * * * * * * * * * * * * * * * * * * * * * * * * * * * * * * //

dimensions      [0 2 -2 0 0 0 0];

internalField   nonuniform List<scalar> 
2000
(
0.0202804
0.0207552
0.0214965
0.0223989
0.0233549
0.0242883
0.0251457
0.0258987
0.0265426
0.0270913
0.0198857
0.0204743
0.0212379
0.0221445
0.0230858
0.0239858
0.0247887
0.0254591
0.0259825
0.0263595
0.019365
0.0200969
0.020878
0.0217769
0.0226882
0.0235395
0.0242753
0.0248574
0.0252647
0.0254808
0.0187361
0.0196304
0.0204271
0.0213065
0.0221706
0.0229533
0.0236034
0.0240831
0.0243707
0.0244336
0.0180119
0.0190927
0.0199013
0.0207491
0.0215479
0.0222393
0.0227795
0.0231347
0.0232891
0.0232023
0.0172141
0.018502
0.0193186
0.020124
0.0208393
0.0214154
0.0218178
0.0220204
0.0220186
0.0217775
0.0163696
0.0178773
0.0186987
0.0194517
0.0200664
0.0205029
0.0207388
0.0207586
0.0205713
0.020161
0.015509
0.0172396
0.0180617
0.0187528
0.0192508
0.0195252
0.0195683
0.0193782
0.0189786
0.0183809
0.0146673
0.016611
0.0174285
0.0180484
0.018415
0.0185081
0.018337
0.0179164
0.017289
0.0165045
0.0138824
0.0160158
0.0168225
0.0173627
0.0175868
0.0174851
0.0170842
0.0164138
0.015536
0.0145647
0.0282764
0.0313992
0.0359933
0.0419795
0.0480535
0.0539332
0.0584597
0.062973
0.0650742
0.0672637
0.0270515
0.0295012
0.0332929
0.0387984
0.0445871
0.0502943
0.0546489
0.0590409
0.0611011
0.0632098
0.0256479
0.0275934
0.0305625
0.0355878
0.0411242
0.0466967
0.0509365
0.055244
0.0572427
0.0593085
0.0240423
0.0256693
0.0278203
0.0323692
0.0376796
0.0431424
0.0473147
0.0515574
0.0535214
0.0555627
0.022229
0.023702
0.0250849
0.029173
0.0342811
0.03966
0.0438018
0.0480019
0.0499699
0.0519917
0.0202269
0.0216474
0.0223731
0.0260168
0.0309232
0.0362307
0.0403653
0.0445416
0.0465462
0.0485699
0.0180852
0.0194645
0.0196978
0.0229445
0.0276648
0.0329142
0.0370607
0.0412318
0.0432864
0.045311
0.0158836
0.0171362
0.0170608
0.0199162
0.0244241
0.0296149
0.0337927
0.0379741
0.0401031
0.0421612
0.0136994
0.014654
0.014522
0.0171028
0.0214044
0.0265046
0.0307071
0.0348915
0.0370901
0.0391519
0.0116251
0.0121503
0.0119217
0.0141413
0.0182024
0.0232264
0.027497
0.0317075
0.0340601
0.0361781
0.00883804
0.00918059
0.00892579
0.00996185
0.0127484
0.0169059
0.0210405
0.0250024
0.0276061
0.0294281
-0.00117518
-0.00177929
-0.00206199
-0.000683932
0.00232544
0.00653608
0.0108151
0.0147471
0.0174974
0.0192231
-0.00890144
-0.010073
-0.0109365
-0.0100265
-0.00721326
-0.00299551
0.00138874
0.00544348
0.00833908
0.0101371
-0.0143475
-0.0156391
-0.0168526
-0.0165123
-0.0143205
-0.0106024
-0.00652531
-0.00250929
0.000465063
0.00243216
-0.0171231
-0.0182312
-0.0195926
-0.0196198
-0.0181336
-0.0152163
-0.0117804
-0.00814435
-0.00539865
-0.00338794
-0.0172633
-0.0178673
-0.0197464
-0.019776
-0.0189419
-0.0167726
-0.0140909
-0.0110324
-0.0086542
-0.00685738
-0.0151676
-0.01572
-0.0168785
-0.0173592
-0.0170705
-0.0157779
-0.0138578
-0.0113841
-0.00935305
-0.00778445
-0.0114217
-0.0117847
-0.0125132
-0.0131014
-0.0132489
-0.012674
-0.0115325
-0.00981285
-0.00812103
-0.00681301
-0.00676429
-0.00704885
-0.00754776
-0.00803539
-0.00830192
-0.00814792
-0.00768102
-0.0067202
-0.00563017
-0.00466076
-0.00175907
-0.0018189
-0.00210732
-0.00248304
-0.00279512
-0.00289469
-0.00289727
-0.00255841
-0.00222579
-0.00179774
0.00737481
-0.00136727
-0.00831168
-0.0133645
-0.0160278
-0.0162737
-0.0143638
-0.0109673
-0.00654375
-0.00176341
0.0058748
-0.00233043
-0.00879612
-0.0134361
-0.0157813
-0.0159097
-0.0139724
-0.0105873
-0.00634034
-0.00174057
0.0046278
-0.00296642
-0.00905462
-0.0133878
-0.0154879
-0.0155007
-0.0135515
-0.0102639
-0.0061391
-0.00172266
0.0037037
-0.00333054
-0.00907198
-0.0131482
-0.0150686
-0.0150234
-0.0131059
-0.00996396
-0.00595782
-0.0017143
0.00315148
-0.00342791
-0.00887659
-0.0127514
-0.0145359
-0.0144764
-0.0126209
-0.0096091
-0.00577024
-0.00170684
0.00298552
-0.00324632
-0.00846063
-0.0121994
-0.0138946
-0.0138585
-0.0120913
-0.00923023
-0.00555371
-0.00169652
0.00320333
-0.00278488
-0.00781497
-0.0114744
-0.0131387
-0.0131687
-0.0115367
-0.00883936
-0.00536527
-0.00168939
0.0038207
-0.00206305
-0.00697072
-0.0105991
-0.0122777
-0.0124061
-0.0109352
-0.00842498
-0.00516802
-0.00168099
0.00480345
-0.00110755
-0.00593623
-0.00958387
-0.0113188
-0.0115766
-0.0102904
-0.00798549
-0.00494698
-0.00163815
0.00607923
5.71487e-05
-0.00473884
-0.00844867
-0.0102761
-0.0106892
-0.00960791
-0.00752135
-0.00470761
-0.00158753
0.00757016
0.00137961
-0.00341428
-0.00722064
-0.00916726
-0.00975471
-0.00889312
-0.00703282
-0.00444787
-0.00151341
0.00922312
0.00281509
-0.00199554
-0.00592346
-0.00801107
-0.00878548
-0.00815341
-0.00652323
-0.00416918
-0.00141983
0.0110021
0.00433706
-0.000509858
-0.00457607
-0.00682586
-0.00779338
-0.00739747
-0.00599828
-0.0038756
-0.00131357
0.0128709
0.00592238
0.00101724
-0.00319584
-0.00562745
-0.00678969
-0.00663284
-0.00546266
-0.00356993
-0.00119897
0.0147993
0.00755462
0.00256346
-0.00179769
-0.00442886
-0.0057849
-0.00586649
-0.00492128
-0.00325537
-0.00107976
0.016757
0.00921836
0.00410663
-0.000396022
-0.0032407
-0.00478817
-0.00510454
-0.00437899
-0.0029352
-0.00095904
0.0186975
0.0108911
0.00562556
0.000996039
-0.00207047
-0.00380692
-0.00435255
-0.00384032
-0.00261241
-0.00083898
0.0206233
0.0126023
0.00714033
0.00238812
-0.000913915
-0.00284392
-0.00361576
-0.00331071
-0.00229036
-0.000720752
0.0227047
0.014516
0.00874362
0.00382997
0.000254124
-0.00189143
-0.00289274
-0.00279312
-0.00197101
-0.000604078
0.0245051
0.0164025
0.010281
0.00522779
0.00140421
-0.000953197
-0.00216787
-0.00226924
-0.00164118
-0.000488015
0.0252418
0.0189865
0.0128999
0.0079529
0.00396144
0.00124791
-0.000389517
-0.000957888
-0.000806628
-0.000231495
0.0259752
0.0203812
0.0149192
0.0103948
0.0065759
0.00377781
0.00182819
0.000786938
0.00035401
0.000231551
0.0279147
0.0224625
0.0171326
0.0127038
0.00884083
0.00588017
0.00364952
0.0022522
0.00137266
0.00067643
0.030035
0.0245801
0.0192753
0.0148176
0.0108336
0.007679
0.00519136
0.00351294
0.00229771
0.00112667
0.0324602
0.0268035
0.0213892
0.0167921
0.0126251
0.00925588
0.0065369
0.00464229
0.00317823
0.00159604
0.0351732
0.0291782
0.023521
0.0186717
0.0142811
0.0106878
0.00776731
0.00569462
0.00402485
0.00206458
0.0380797
0.0316406
0.0256117
0.0204477
0.0158453
0.0120383
0.00893916
0.00667432
0.00476377
0.00240093
0.0407803
0.0335788
0.0274416
0.022095
0.0173197
0.0133155
0.0100382
0.00749881
0.00520806
0.0024265
0.04307
0.0361795
0.029492
0.0236007
0.0185366
0.0143522
0.0108937
0.00800981
0.00525841
0.00216079
0.0449506
0.0366747
0.0298549
0.0240749
0.0191182
0.0149409
0.0113893
0.00826934
0.00522548
0.00196351
0.029505
0.0302452
0.031938
0.0339273
0.0364634
0.0393462
0.0423674
0.0463093
0.047453
0.051083
0.0310358
0.0321413
0.0338874
0.0359538
0.0386256
0.0416397
0.0448194
0.048629
0.050111
0.0531778
0.0321614
0.0337328
0.0357534
0.0381445
0.0411207
0.04441
0.0478675
0.0513167
0.0534082
0.0551928
0.0333105
0.0351272
0.0373763
0.0401089
0.0433893
0.0469632
0.0506988
0.0540924
0.0565868
0.0577259
0.0345632
0.0365835
0.0389978
0.0419963
0.0455081
0.0493016
0.0532601
0.0568253
0.0595614
0.0607112
0.035844
0.0381391
0.0407567
0.0439917
0.0476915
0.0516562
0.0557838
0.059568
0.0624852
0.0639141
0.0371226
0.0397386
0.0426356
0.0461296
0.0500279
0.0541675
0.05845
0.0624233
0.0654992
0.0671911
0.0384149
0.0413579
0.0445884
0.0483664
0.052496
0.0568433
0.061303
0.065445
0.0686646
0.070516
0.0397396
0.0430015
0.0465982
0.0506653
0.0550536
0.0596392
0.0643101
0.068629
0.0719848
0.0739176
0.0411077
0.0446711
0.0486657
0.0530111
0.0576788
0.0625179
0.0674292
0.0719468
0.0754416
0.0774253
0.0425282
0.0463536
0.0507906
0.0553935
0.0603652
0.0654617
0.0706377
0.0753757
0.07902
0.081053
0.0440036
0.0480202
0.0529615
0.0577927
0.0631052
0.06846
0.0739254
0.0789025
0.0827114
0.0848012
0.0455049
0.0496479
0.0551476
0.0601882
0.0658816
0.0715128
0.0772957
0.0825284
0.0865202
0.0886746
0.0469821
0.0512288
0.0573022
0.0625663
0.0686677
0.0746227
0.0807439
0.0862526
0.0904502
0.0926877
0.0483761
0.0527654
0.0593738
0.0649251
0.0714251
0.0778203
0.0842805
0.0900846
0.0945028
0.0968298
0.0496205
0.0542608
0.0612994
0.067284
0.0741849
0.0810094
0.0878476
0.0939886
0.0986577
0.101088
0.0506502
0.0557034
0.0631443
0.0695946
0.0769015
0.0841672
0.0914421
0.0979662
0.102917
0.105475
0.0513706
0.0571209
0.0648079
0.071733
0.0794634
0.0872089
0.094981
0.101955
0.10725
0.10998
0.0517958
0.0585219
0.0663209
0.0737592
0.0819431
0.090217
0.0985249
0.105991
0.111677
0.114635
0.0516836
0.0593843
0.0673092
0.0752505
0.0838908
0.0927482
0.1017
0.109831
0.116084
0.119399
0.0536532
0.0634543
0.0717295
0.0806398
0.0901931
0.10021
0.110406
0.119845
0.127247
0.131347
0.064805
0.0740123
0.0826567
0.0930064
0.10415
0.116053
0.12824
0.139539
0.148399
0.153223
0.0763441
0.086078
0.0958669
0.107903
0.12082
0.134889
0.149162
0.162269
0.172458
0.178023
0.0879007
0.0987307
0.110335
0.124377
0.139483
0.156139
0.172621
0.187586
0.199029
0.205112
0.0995914
0.111923
0.125681
0.141977
0.159665
0.179147
0.197894
0.214769
0.227357
0.234135
0.111881
0.125849
0.141951
0.160703
0.18124
0.203578
0.224582
0.243309
0.25671
0.263462
0.124276
0.140092
0.158517
0.17978
0.203183
0.228107
0.251315
0.271579
0.285314
0.292621
0.136571
0.154078
0.174739
0.198441
0.224535
0.251692
0.277226
0.298876
0.31237
0.317723
0.145919
0.164833
0.187213
0.212785
0.240882
0.269748
0.297388
0.320252
0.333694
0.339777
0.15256
0.172248
0.19579
0.222632
0.252073
0.282345
0.312063
0.338107
0.355095
0.345031
0.0502724
0.0607745
0.071058
0.0818949
0.0926814
0.104382
0.115691
0.127448
0.136073
0.14254
0.0498418
0.0606479
0.0705669
0.0810939
0.0915159
0.102881
0.1137
0.125059
0.133033
0.139239
0.0501449
0.0614721
0.0713238
0.0817303
0.0919434
0.102976
0.113356
0.124098
0.131197
0.136891
0.0500787
0.0615997
0.0713846
0.0817637
0.0918313
0.102616
0.112639
0.122879
0.129377
0.134602
0.0498475
0.0613457
0.0709886
0.0812534
0.0911232
0.101637
0.111312
0.121153
0.127301
0.13219
0.0496182
0.0610423
0.0706143
0.0807065
0.09034
0.100535
0.109841
0.119301
0.12519
0.129837
0.0493652
0.0607263
0.0703699
0.0803031
0.0897397
0.0996373
0.108596
0.117695
0.12333
0.12777
0.0490747
0.0604218
0.0701721
0.0800089
0.0893255
0.0989954
0.107681
0.116465
0.121872
0.126114
0.0487702
0.0601633
0.0700036
0.0797721
0.0890646
0.098556
0.107078
0.115568
0.120844
0.124874
0.0484858
0.059975
0.0698982
0.0796419
0.0889178
0.0982902
0.106735
0.114948
0.120214
0.124
0.0482552
0.0598694
0.0698839
0.0796421
0.088904
0.0982106
0.106609
0.114623
0.1199
0.123488
0.0480636
0.0598217
0.0699528
0.0797642
0.0890371
0.0983261
0.106699
0.114599
0.119873
0.123331
0.0478631
0.0597865
0.0700787
0.0799869
0.0893137
0.0986379
0.107018
0.114874
0.120143
0.123523
0.0476325
0.0597497
0.0702497
0.0802972
0.0897263
0.099138
0.107567
0.115437
0.120713
0.12405
0.0473596
0.0597146
0.0704628
0.0806904
0.0902733
0.0998221
0.108349
0.116289
0.121591
0.124906
0.047009
0.0596673
0.070697
0.0811469
0.090935
0.100666
0.109344
0.117402
0.122755
0.126078
0.0465496
0.0596072
0.0709429
0.0816615
0.0917119
0.101677
0.110569
0.118782
0.124215
0.127564
0.045864
0.0594475
0.0711182
0.082157
0.0925232
0.102771
0.111943
0.120363
0.125924
0.129354
0.0450668
0.0593054
0.0713068
0.0827036
0.0934393
0.104016
0.113528
0.122188
0.127919
0.131454
0.0434587
0.0585804
0.0710201
0.0828415
0.094002
0.104973
0.114949
0.123999
0.130058
0.133857
0.0436711
0.059475
0.0725436
0.0851783
0.097284
0.109031
0.119942
0.12964
0.136414
0.140516
0.0543601
0.0692222
0.081882
0.0952098
0.108341
0.121384
0.133791
0.144795
0.152556
0.156876
0.0662129
0.0813136
0.09449
0.109041
0.123452
0.138246
0.152516
0.165234
0.174205
0.17888
0.0776383
0.0935553
0.108245
0.124722
0.141166
0.158624
0.175521
0.190765
0.201682
0.207137
0.0885528
0.10565
0.122502
0.141348
0.160565
0.181556
0.201959
0.220958
0.235072
0.242177
0.0990359
0.11764
0.137191
0.158683
0.18141
0.206604
0.231497
0.255873
0.27522
0.286209
0.108563
0.129176
0.151338
0.175717
0.202519
0.232175
0.262691
0.294391
0.32195
0.341579
0.117523
0.140006
0.164687
0.192194
0.223153
0.25748
0.295094
0.336163
0.376487
0.414382
0.122864
0.146874
0.173523
0.203496
0.237883
0.27713
0.322897
0.375507
0.436448
0.506931
0.126359
0.152754
0.181264
0.213563
0.251311
0.295886
0.350005
0.416969
0.507359
0.624182
0.0381862
0.0477555
0.0576866
0.0676368
0.077489
0.0876672
0.0957158
0.104487
0.109227
0.110671
0.0366927
0.0460992
0.0555401
0.0651576
0.0744663
0.08429
0.0916765
0.100333
0.104505
0.106572
0.0359065
0.0453229
0.0545765
0.0641622
0.0730606
0.0822989
0.0890742
0.0972931
0.100772
0.104492
0.034956
0.044004
0.0529843
0.0623512
0.0710318
0.0797378
0.0860373
0.0937369
0.0966865
0.101344
0.0339748
0.0423331
0.05085
0.059734
0.0681634
0.0763933
0.0822781
0.0894584
0.091972
0.0966725
0.0330498
0.0405918
0.0485585
0.056903
0.0648567
0.0727112
0.078205
0.0848364
0.0869526
0.0911916
0.0321553
0.0388211
0.04621
0.0540671
0.0615141
0.0688903
0.0741793
0.0802172
0.0820258
0.0856915
0.0312609
0.0370069
0.0437773
0.0511805
0.0582124
0.0650765
0.0702188
0.0757198
0.0774203
0.0805729
0.0303396
0.0351567
0.0412517
0.0481944
0.0548866
0.0613197
0.0662743
0.0713062
0.073183
0.0758718
0.0293578
0.0332849
0.0386507
0.0451168
0.0514966
0.0576073
0.0623437
0.0670519
0.0691024
0.0714667
0.0131984
0.0154832
0.016273
0.0167276
0.0168034
0.0165037
0.0158726
0.0149489
0.0137876
0.0124075
0.0126747
0.015054
0.0158184
0.0161833
0.0161121
0.0156247
0.0147868
0.0136561
0.0123055
0.0107846
0.0123598
0.0147662
0.0155004
0.0157765
0.0155665
0.0149102
0.0138964
0.0126034
0.0111232
0.00951274
0.0123058
0.0146657
0.0153675
0.0155584
0.0152214
0.0144183
0.0132593
0.0118396
0.0102626
0.00857628
0.0125644
0.0148014
0.0154691
0.0155783
0.0151262
0.0141978
0.0129209
0.0114029
0.00975092
0.00800052
0.01318
0.0152199
0.0158491
0.0158774
0.0153194
0.0142833
0.0129105
0.011316
0.00960507
0.00780177
0.0141855
0.0159593
0.0165402
0.016483
0.0158233
0.014692
0.0132396
0.0115846
0.00982685
0.00798745
0.0155996
0.0170452
0.0175595
0.0174053
0.0166429
0.0154229
0.013902
0.012197
0.0103972
0.00856065
0.0174191
0.018484
0.0189048
0.0186357
0.0177649
0.0164575
0.0148759
0.0131344
0.0113189
0.00943483
0.0195957
0.0202502
0.0205518
0.0201461
0.019157
0.0177642
0.0161251
0.0143529
0.0125241
0.0106271
0.0220282
0.0222883
0.0224546
0.021894
0.0207778
0.0192966
0.0176025
0.0158044
0.0139704
0.0120731
0.024769
0.0245886
0.0245678
0.0238271
0.0225727
0.0210005
0.0192535
0.0174348
0.0156043
0.0137132
0.0277145
0.0270662
0.026823
0.0258824
0.0244834
0.0228201
0.0210235
0.0191895
0.0173711
0.0154925
0.0307599
0.0296358
0.0291446
0.0279921
0.0264471
0.0246961
0.0228555
0.0210132
0.0192163
0.0173599
0.0338031
0.032209
0.0314546
0.0300872
0.0284011
0.0265703
0.0246944
0.0228527
0.0210889
0.0192691
0.0367392
0.0346952
0.0336758
0.0321012
0.030286
0.0283882
0.026489
0.0246589
0.0229418
0.021177
0.0394654
0.0370074
0.0357367
0.0339742
0.0320493
0.0301021
0.0281948
0.0263884
0.0247302
0.0230371
0.0418862
0.0390661
0.0375742
0.0356553
0.0336478
0.0316736
0.0297765
0.0280049
0.0264091
0.0247989
0.0439185
0.0408035
0.0391369
0.0371055
0.0350502
0.0330758
0.0312075
0.0294718
0.0279201
0.0264134
0.0454937
0.0421651
0.0403857
0.0382986
0.0362413
0.0343024
0.0324862
0.0307795
0.029244
0.0279033
0.0465616
0.0431111
0.041292
0.0392172
0.0372183
0.0353765
0.033693
0.0321318
0.0307664
0.0299853
0.0470881
0.0436131
0.0418334
0.039841
0.0379559
0.036251
0.0347236
0.0333249
0.032104
0.0314253
0.0470539
0.0436596
0.0419997
0.0401573
0.0384363
0.0369016
0.0355476
0.034324
0.0332488
0.0325985
0.0464676
0.0432577
0.041795
0.0401673
0.0386593
0.0373313
0.0361786
0.0351561
0.0342633
0.033705
0.0453617
0.0424317
0.041238
0.039886
0.038639
0.0375557
0.0366354
0.0358405
0.0351606
0.0347513
0.0437885
0.0412216
0.0403602
0.0393404
0.0383996
0.037598
0.0369404
0.0363977
0.0359536
0.0357265
0.0418166
0.0396798
0.0392038
0.0385657
0.0379724
0.0374861
0.037119
0.0368512
0.0366639
0.036644
0.0395252
0.0378672
0.0378171
0.0376018
0.0373914
0.0372498
0.0371973
0.037224
0.0373126
0.0375237
0.037
0.0358482
0.0362508
0.0364896
0.0366907
0.0369176
0.0371993
0.0375364
0.0379168
0.0383812
0.0343446
0.0336927
0.0345571
0.0352693
0.035902
0.0365151
0.0371456
0.0378051
0.0384891
0.0392261
0.0316934
0.0314868
0.0327942
0.0339822
0.0350564
0.0360661
0.0370543
0.0380432
0.0390378
0.0400627
0.028999
0.0292435
0.0309897
0.0326537
0.0341738
0.0355851
0.0369355
0.0382565
0.0395629
0.040886
0.0263474
0.0270211
0.0291836
0.0313114
0.0332734
0.0350848
0.036796
0.0384462
0.040058
0.0416791
0.0238099
0.0248709
0.0274118
0.0299782
0.0323691
0.034572
0.0366371
0.0386081
0.0405113
0.0424172
0.0214284
0.0228318
0.025701
0.0286713
0.0314699
0.0340497
0.0364563
0.0387356
0.0409096
0.043073
0.0192396
0.0209367
0.0240657
0.0274037
0.0305816
0.0335176
0.0362492
0.0388214
0.0412425
0.0436197
0.017266
0.0192069
0.0225279
0.026184
0.0297073
0.0329739
0.0360104
0.0388614
0.0415121
0.0440398
0.015521
0.0176496
0.0211095
0.0250218
0.028847
0.0324155
0.0357333
0.038849
0.041734
0.0443343
0.0140119
0.0162757
0.0198157
0.0239221
0.0280018
0.0318397
0.0354153
0.0387797
0.0419537
0.0446042
0.0127407
0.015092
0.0186516
0.0228877
0.0271696
0.0312382
0.0350444
0.0386337
0.0420373
0.0450791
0.0117001
0.0140981
0.0176204
0.0219204
0.0263482
0.0306054
0.0346153
0.0384209
0.0421924
0.0460369
0.0108536
0.01328
0.0167209
0.0210221
0.0255336
0.0299204
0.0340673
0.0379713
0.0417558
0.0454893
0.010216
0.0126427
0.0159582
0.0201987
0.0247308
0.0291867
0.0334124
0.0373669
0.0411257
0.0447253
0.0097821
0.0121815
0.0153342
0.0194591
0.0239558
0.0284344
0.0327101
0.0367224
0.0405236
0.0441053
0.00953623
0.0118857
0.0148486
0.0188125
0.0232258
0.0276897
0.0319943
0.0360606
0.0399217
0.0435329
0.00946103
0.011743
0.0144989
0.0182657
0.0225537
0.0269677
0.0312769
0.03538
0.039289
0.0429453
0.00953891
0.0117394
0.0142797
0.0178226
0.021949
0.0262794
0.0305679
0.0346902
0.0386345
0.0423385
0.00975134
0.0118597
0.0141834
0.0174843
0.021419
0.0256351
0.0298789
0.0340043
0.0379738
0.0417233
0.01008
0.0120869
0.0141994
0.0172488
0.020969
0.0250439
0.02922
0.0333327
0.0373185
0.0411117
0.0105166
0.0124104
0.0143186
0.0171128
0.0206013
0.0245113
0.0285978
0.0326822
0.036676
0.0405135
0.0110696
0.0128362
0.014546
0.0170834
0.0203253
0.0240477
0.0280214
0.03206
0.0360519
0.0399339
0.011661
0.0133069
0.01484
0.0171346
0.020129
0.0236499
0.0274918
0.0314672
0.0354446
0.0393644
0.0122929
0.0138204
0.0151945
0.0172611
0.02001
0.0233181
0.0270092
0.030902
0.0348475
0.0387882
0.0129614
0.0143704
0.0156009
0.0174551
0.0199635
0.0230502
0.0265723
0.0303611
0.034254
0.0381932
0.013656
0.0149459
0.016048
0.017707
0.0199839
0.0228444
0.0261807
0.029843
0.0336592
0.0375695
0.0143667
0.015537
0.0165255
0.0180082
0.0200659
0.0226992
0.0258355
0.0293483
0.0330591
0.0369033
0.0150847
0.0161358
0.017025
0.018351
0.0202045
0.0226135
0.0255384
0.0288799
0.0324535
0.0361827
0.0158017
0.016735
0.0175388
0.0187282
0.0203951
0.0225864
0.0252923
0.0284435
0.031849
0.035399
0.0165093
0.0173279
0.0180602
0.0191334
0.0206331
0.0226171
0.0251007
0.0280501
0.0312726
0.0345843
0.0171987
0.0179078
0.0185824
0.0195598
0.0209134
0.0227041
0.024964
0.0276985
0.030753
0.0338018
0.0178602
0.0184671
0.0190973
0.0199988
0.0212281
0.0228428
0.0248832
0.0273919
0.0303866
0.0335076
0.0184804
0.0189949
0.0195951
0.0204414
0.0215691
0.0230254
0.0248479
0.0270724
0.029752
0.0326413
0.0190496
0.0194841
0.0200678
0.0208782
0.0219268
0.0232455
0.0248647
0.026813
0.0291477
0.031735
0.0195562
0.0199241
0.0205044
0.0212966
0.0222894
0.0234965
0.0249407
0.0266508
0.028687
0.0309598
0.0199851
0.0203042
0.0208922
0.021682
0.0226406
0.0237631
0.0250618
0.0265645
0.0283309
0.0302982
0.0203229
0.0206121
0.0212182
0.0220176
0.0229601
0.024022
0.0252029
0.0265247
0.0280423
0.0297209
0.0205574
0.0208387
0.0214667
0.0222859
0.023226
0.0242467
0.0253345
0.0265022
0.0277958
0.0292048
0.020677
0.0209721
0.0216274
0.0224707
0.0234162
0.0244098
0.0254248
0.0264634
0.0275599
0.0287215
0.0206729
0.0210045
0.0216897
0.0225573
0.0235108
0.0244849
0.0254418
0.0263722
0.0272973
0.0282346
0.0205404
0.020932
0.0216469
0.0225352
0.0234937
0.0244497
0.0253562
0.0261936
0.0269696
0.027704
)
;

boundaryField
{
    inlet
    {
        type            zeroGradient;
    }
    outlet
    {
        type            fixedValue;
        value           uniform 0;
    }
    cylinder
    {
        type            zeroGradient;
    }
    top
    {
        type            symmetryPlane;
    }
    bottom
    {
        type            symmetryPlane;
    }
    defaultFaces
    {
        type            empty;
    }
}


// ************************************************************************* //
