/*--------------------------------*- C++ -*----------------------------------*\
  =========                 |
  \\      /  F ield         | OpenFOAM: The Open Source CFD Toolbox
   \\    /   O peration     | Website:  https://openfoam.org
    \\  /    A nd           | Version:  7
     \\/     M anipulation  |
\*---------------------------------------------------------------------------*/
FoamFile
{
    version     2.0;
    format      ascii;
    class       volVectorField;
    location    "43";
    object      U;
}
// * * * * * * * * * * * * * * * * * * * * * * * * * * * * * * * * * * * * * //

dimensions      [0 1 -1 0 0 0 0];

internalField   nonuniform List<vector> 
2000
(
(-0.00139041 0.00560393 -4.92398e-22)
(-0.00131 0.00840774 0)
(0.00194796 0.00957146 0)
(0.00757787 0.0115973 -2.59676e-21)
(0.0149552 0.0159155 8.96864e-22)
(0.02357 0.0232602 6.01936e-23)
(0.033037 0.0339448 -1.54249e-21)
(0.0430351 0.0480105 0)
(0.0532478 0.0652988 0)
(0.0632354 0.0854783 0)
(-0.00161388 0.00590457 0)
(-0.000812881 0.00730849 -1.92313e-21)
(0.00357456 0.00681573 1.77346e-21)
(0.0100267 0.00717249 3.49311e-21)
(0.0177662 0.00987249 0)
(0.0262394 0.015651 3.27301e-21)
(0.0351085 0.0248332 -3.04356e-21)
(0.0441553 0.0375142 0)
(0.0531779 0.0536453 5.7104e-21)
(0.0618157 0.073097 -1.09474e-20)
(-0.00172151 0.00589199 0)
(0.000355455 0.00577386 1.46584e-20)
(0.00653585 0.00377336 0)
(0.0144162 0.00271462 1.35134e-20)
(0.0230321 0.00407799 0)
(0.0317705 0.00853351 -1.24817e-20)
(0.0403334 0.0163607 0)
(0.0486062 0.0276636 1.16764e-20)
(0.0565264 0.0424801 -1.09354e-20)
(0.0638315 0.0608952 -1.03667e-20)
(-0.00160938 0.00549813 -3.72259e-21)
(0.0023742 0.00373711 -7.42801e-21)
(0.0110173 0.000450972 -3.40565e-21)
(0.0209196 -0.001675 -6.69702e-21)
(0.0309087 -0.00125308 -6.2955e-21)
(0.0403107 0.00225554 6.23314e-21)
(0.0488677 0.0090221 5.80971e-21)
(0.0565692 0.0190993 -2.87089e-22)
(0.0635108 0.0325627 1.05711e-20)
(0.0695675 0.0496843 1.03601e-20)
(-0.00115859 0.0046764 -3.49752e-21)
(0.00543474 0.00116554 -7.18982e-21)
(0.0171892 -0.00312068 -1.36256e-20)
(0.0296438 -0.00589466 6.37159e-21)
(0.041427 -0.00593841 0)
(0.0518251 -0.00290155 0)
(0.060638 0.00322414 -1.14596e-20)
(0.0679669 0.0123782 -1.0824e-20)
(0.074077 0.0246063 9.88498e-21)
(0.0790476 0.0402923 2.83944e-20)
(-0.000232921 0.00340366 3.46416e-21)
(0.00972876 -0.00191836 3.68226e-21)
(0.0251753 -0.00687324 -1.89551e-20)
(0.0405854 -0.00984047 3.12435e-20)
(0.0544306 -0.00984655 -5.93115e-21)
(0.0660094 -0.00677359 0)
(0.075222 -0.000811057 0)
(0.0823056 0.00782339 5.09667e-20)
(0.0877031 0.0190797 -4.82112e-20)
(0.0917843 0.0333496 9.20486e-21)
(0.00131043 0.00169755 2.47614e-20)
(0.0154279 -0.00542843 0)
(0.0350234 -0.0106884 2.58679e-20)
(0.0535947 -0.0133982 -2.48219e-20)
(0.0695385 -0.0129012 0)
(0.0822522 -0.00933968 1.10687e-20)
(0.0918066 -0.00310844 -3.04138e-20)
(0.098619 0.0054065 -3.91859e-20)
(0.103319 0.0160177 1.80342e-20)
(0.10664 0.029025 1.73687e-20)
(0.00360802 -0.000378144 -4.82028e-20)
(0.0226578 -0.00920609 -6.50877e-21)
(0.0466755 -0.0143905 -1.18871e-20)
(0.0683541 -0.016439 -2.8852e-20)
(0.0861454 -0.0150772 -1.12308e-20)
(0.0996697 -0.0107163 -1.00103e-20)
(0.10926 -0.0039352 1.19899e-21)
(0.115567 0.00473756 0)
(0.119419 0.0149708 0)
(0.121939 0.0269094 -2.77819e-22)
(0.00677586 -0.00271278 2.34419e-20)
(0.0314681 -0.0130204 -2.40773e-20)
(0.0599399 -0.0177534 1.81167e-20)
(0.0843722 -0.0188276 4.00764e-20)
(0.103461 -0.0163988 -1.05605e-20)
(0.117208 -0.0111316 1.09856e-20)
(0.12631 -0.00373964 9.72518e-21)
(0.131697 0.00516636 0)
(0.134386 0.0151534 0)
(0.135873 0.0262342 -1.35248e-21)
(0.0108946 -0.00515432 -2.69661e-21)
(0.0418011 -0.0165839 3.01366e-20)
(0.074471 -0.0205252 -5.58359e-21)
(0.100999 -0.0204455 0)
(0.120579 -0.0169458 0)
(0.133782 -0.0108973 1.93236e-20)
(0.14177 -0.00307585 0)
(0.145791 0.00590993 -1.48916e-20)
(0.147029 0.0156324 8.06755e-22)
(0.1472 0.0261707 1.24688e-20)
(0.084068 0.136399 4.57055e-22)
(0.113637 0.237251 -4.6322e-22)
(0.120263 0.325197 -5.42481e-22)
(0.111873 0.397551 -6.38081e-22)
(0.0932027 0.464115 -8.12946e-22)
(0.0769829 0.532125 -1.79068e-23)
(0.0537113 0.611027 4.25094e-22)
(0.0433598 0.706309 1.49634e-21)
(0.0146402 0.824499 0)
(0.0125632 0.957731 -1.08938e-21)
(0.0795502 0.124343 1.62971e-21)
(0.107591 0.228846 -1.95545e-21)
(0.116328 0.323324 3.51762e-21)
(0.109409 0.399894 6.3922e-22)
(0.0914677 0.468249 1.36771e-21)
(0.0755742 0.536724 2.39923e-21)
(0.0526653 0.615556 -9.17662e-22)
(0.0423344 0.710782 -9.98243e-22)
(0.0144582 0.82891 1.95276e-21)
(0.012095 0.961193 1.08678e-21)
(0.0777581 0.111892 0)
(0.102384 0.218451 -1.66748e-21)
(0.112656 0.319388 -1.00674e-21)
(0.107224 0.40069 0)
(0.0900522 0.471272 -4.17955e-21)
(0.0744831 0.540482 1.26698e-21)
(0.0518412 0.619373 1.46444e-21)
(0.0414534 0.714721 5.22274e-21)
(0.0143232 0.833104 -1.94646e-21)
(0.0116602 0.964663 3.80961e-21)
(0.0790498 0.0996326 0)
(0.0982001 0.206328 1.68166e-21)
(0.109247 0.313342 0)
(0.105252 0.39978 4.4714e-21)
(0.0889005 0.472935 -4.49436e-21)
(0.0736826 0.543034 -2.91663e-21)
(0.0512704 0.62197 -2.52158e-22)
(0.040804 0.717396 -5.00983e-21)
(0.0143217 0.836119 -8.27229e-22)
(0.0112641 0.967439 -4.68191e-21)
(0.0837322 0.0881862 -3.80312e-24)
(0.0952873 0.192911 -4.19951e-21)
(0.106106 0.305189 3.50608e-22)
(0.103412 0.397152 -3.4856e-21)
(0.0879589 0.473544 0)
(0.0731145 0.544997 -2.69462e-21)
(0.0508388 0.624248 -2.70001e-22)
(0.0402106 0.720019 6.20939e-21)
(0.0142941 0.839336 8.29214e-22)
(0.0108901 0.97049 -8.32127e-22)
(0.0918575 0.0781168 -1.09171e-20)
(0.0939637 0.178786 6.8959e-21)
(0.103274 0.295034 3.13505e-21)
(0.101647 0.392454 -3.1336e-21)
(0.087144 0.472272 -1.89494e-21)
(0.0727836 0.545217 0)
(0.050696 0.624777 -5.24577e-21)
(0.039909 0.720767 2.5704e-21)
(0.0144457 0.840762 2.9401e-21)
(0.0105523 0.972482 3.03152e-21)
(0.102927 0.0697883 -1.11617e-21)
(0.0945608 0.164609 0)
(0.10079 0.283098 0)
(0.0998939 0.386334 0)
(0.0864235 0.470619 -2.03736e-21)
(0.0725369 0.545748 3.92582e-21)
(0.0505112 0.62602 5.02311e-21)
(0.03948 0.722572 -7.81361e-21)
(0.0144414 0.843418 1.41683e-21)
(0.0102223 0.975321 -4.40521e-21)
(0.115635 0.0632626 6.94044e-21)
(0.0972579 0.15113 4.60533e-21)
(0.0988068 0.269398 -4.56481e-21)
(0.0980901 0.377018 5.86521e-21)
(0.0856746 0.465377 -7.31337e-21)
(0.0725769 0.542883 0)
(0.0508165 0.623959 -2.07619e-21)
(0.0395536 0.72096 2.02426e-22)
(0.0147545 0.842973 -2.44338e-21)
(0.00992782 0.976423 -2.55511e-21)
(0.127709 0.0581248 -5.42395e-21)
(0.101681 0.138326 0)
(0.0973365 0.255591 -4.74951e-21)
(0.0963408 0.369145 9.40103e-21)
(0.0848839 0.462944 -3.57501e-21)
(0.0722714 0.543296 -8.09533e-22)
(0.0505752 0.625403 2.07189e-21)
(0.0390875 0.723069 2.78404e-23)
(0.0146603 0.845879 3.47492e-21)
(0.00962161 0.979428 3.69323e-21)
(0.135518 0.052917 -3.46968e-21)
(0.106288 0.123535 3.38362e-21)
(0.0964074 0.234715 4.52166e-22)
(0.0942975 0.350851 0)
(0.0841137 0.450358 0)
(0.0728797 0.535136 7.70513e-22)
(0.0515761 0.61918 3.56864e-21)
(0.0397034 0.717958 -3.46679e-21)
(0.015212 0.842831 -9.97041e-22)
(0.00935827 0.979408 9.67379e-22)
(0.13097 0.0522035 0)
(0.106731 0.115775 0)
(0.094078 0.224992 0)
(0.0898674 0.347659 0)
(0.0799001 0.45455 0)
(0.0692473 0.54403 0)
(0.0489829 0.629707 0)
(0.0374176 0.729169 0)
(0.0142773 0.853557 0)
(0.00864853 0.988353 0)
(0.118461 0.0834076 0)
(0.0939514 0.146649 0)
(0.0791441 0.242019 0)
(0.0754715 0.356445 0)
(0.0698965 0.464209 0)
(0.0630623 0.557177 0)
(0.0456727 0.644202 0)
(0.0343866 0.742744 0)
(0.0129533 0.864557 0)
(0.00761557 0.994792 0)
(0.0975408 0.0995149 0)
(0.0756248 0.165755 0)
(0.0604651 0.255955 0)
(0.0560452 0.363803 0)
(0.0534347 0.471042 0)
(0.0510299 0.567945 0)
(0.0385121 0.659449 0)
(0.0297972 0.760266 0)
(0.0109328 0.881749 0)
(0.0065488 1.00868 0)
(0.0714175 0.114544 0)
(0.0521074 0.181643 0)
(0.0386082 0.267367 0)
(0.0351185 0.36898 0)
(0.0357752 0.474252 0)
(0.0379406 0.573342 0)
(0.030308 0.668107 0)
(0.0244523 0.769584 0)
(0.00859744 0.889494 0)
(0.00537115 1.01195 0)
(0.0453672 0.128505 0)
(0.0275484 0.195653 0)
(0.0143043 0.275383 0)
(0.00984718 0.368944 0)
(0.0125024 0.471239 0)
(0.019228 0.574357 0)
(0.0178554 0.676347 0)
(0.0168809 0.782768 0)
(0.00482306 0.904243 0)
(0.00390712 1.0238 0)
(0.0224545 0.141663 0)
(0.00582259 0.209782 0)
(-0.00544559 0.284642 0)
(-0.00978432 0.370117 0)
(-0.00606313 0.465358 0)
(0.00309021 0.567049 0)
(0.00623829 0.671303 0)
(0.00947246 0.781355 0)
(0.00132373 0.904179 0)
(0.00232696 1.0208 0)
(0.00466912 0.154295 0)
(-0.0130118 0.223238 0)
(-0.0261325 0.291561 0)
(-0.0318115 0.368887 0)
(-0.0276795 0.458747 0)
(-0.0163339 0.560891 0)
(-0.00794825 0.670432 0)
(0.00074334 0.786726 0)
(-0.00277377 0.912117 0)
(0.000892816 1.02764 0)
(-0.00651212 0.165588 0)
(-0.0205255 0.237941 0)
(-0.0325765 0.303955 0)
(-0.0393235 0.372588 0)
(-0.0373884 0.451755 0)
(-0.0277025 0.546343 0)
(-0.017986 0.654381 0)
(-0.00691514 0.774417 0)
(-0.00661779 0.902677 0)
(-0.000487898 1.01668 0)
(-0.0145058 0.175512 0)
(-0.0295796 0.247093 0)
(-0.0435023 0.308396 0)
(-0.0510743 0.371502 0)
(-0.0494607 0.446613 0)
(-0.0393724 0.540053 0)
(-0.0272479 0.650963 0)
(-0.0133004 0.775073 0)
(-0.00987164 0.906007 0)
(-0.00150379 1.01937 0)
(-0.0109312 0.190325 0)
(-0.0228927 0.268229 0)
(-0.0367721 0.328465 0)
(-0.0466663 0.38109 0)
(-0.0488509 0.441737 0)
(-0.0427185 0.522609 0)
(-0.0324619 0.627912 0)
(-0.0188722 0.754815 0)
(-0.0129563 0.890679 0)
(-0.00261861 1.00355 0)
(0.149927 0.0380831 8.68533e-22)
(0.132571 0.054937 -8.58664e-22)
(0.106936 0.0654239 -2.98677e-22)
(0.0778565 0.0768216 0)
(0.0499927 0.0882054 0)
(0.0257597 0.0993325 -5.35855e-22)
(0.0078737 0.109953 1.6602e-21)
(-0.00337461 0.11861 -1.63245e-21)
(-0.00997592 0.126742 -1.3176e-22)
(-0.00735291 0.136814 1.28726e-22)
(0.148376 0.0326197 -3.03173e-21)
(0.12859 0.0442783 0)
(0.103467 0.051614 -2.72806e-21)
(0.0758723 0.060825 6.88119e-21)
(0.0497107 0.0705891 -4.8825e-21)
(0.0266856 0.0805948 5.23126e-22)
(0.00951055 0.0901801 -8.82874e-22)
(-0.00120677 0.0978701 -1.19665e-21)
(-0.00754365 0.105269 1.28906e-23)
(-0.00577993 0.113361 1.79337e-23)
(0.147686 0.0259056 2.89131e-21)
(0.126132 0.0332779 1.61728e-21)
(0.101283 0.0378719 -1.60138e-21)
(0.0745229 0.0447622 3.81248e-21)
(0.0495485 0.0524344 -2.75463e-21)
(0.0276371 0.0609222 0)
(0.0110832 0.0692136 8.84915e-22)
(0.000593089 0.0760127 1.98858e-23)
(-0.00536469 0.082757 3.94912e-22)
(-0.0043797 0.0891454 1.08512e-22)
(0.146167 0.0170973 -2.75159e-22)
(0.123378 0.0204986 0)
(0.0992685 0.0227827 0)
(0.0734794 0.0277069 0)
(0.0496109 0.0333637 -2.91755e-21)
(0.0286093 0.0402995 1.94698e-21)
(0.012592 0.0472876 -8.56104e-23)
(0.00214035 0.0532315 5.36944e-22)
(-0.00344636 0.0592953 1.22705e-22)
(-0.00315901 0.0642784 -1.32522e-23)
(0.143869 0.00628497 -1.81225e-21)
(0.120372 0.00604804 -1.80398e-22)
(0.0972059 0.00619396 1.39978e-21)
(0.0724195 0.00941483 -1.39863e-21)
(0.0496551 0.0132346 9.56705e-22)
(0.0295204 0.0187599 0)
(0.0140281 0.0245324 8.30563e-22)
(0.0037587 0.0297182 -1.12807e-21)
(-0.00168668 0.0351108 4.96303e-22)
(-0.00209395 0.0389324 -1.10485e-22)
(0.140864 -0.00628389 -1.66937e-21)
(0.117162 -0.00969773 9.27175e-22)
(0.0951329 -0.0116543 5.73022e-22)
(0.0713606 -0.0099637 -1.3258e-21)
(0.049634 -0.00783138 0)
(0.0303428 -0.00352759 0)
(0.0153413 0.00116829 0)
(0.00529816 0.00569758 -5.85997e-22)
(-0.000123341 0.0104503 0)
(-0.00119838 0.0133245 0)
(0.137206 -0.020258 0)
(0.113704 -0.0262526 -8.22817e-22)
(0.092957 -0.0303673 6.7292e-22)
(0.070236 -0.0300604 1.56971e-21)
(0.0495306 -0.0295042 -1.5777e-21)
(0.0310714 -0.0262427 -7.95794e-22)
(0.0165444 -0.022492 8.67985e-22)
(0.00671299 -0.0185448 2.0448e-21)
(0.00114533 -0.0143983 -1.7472e-22)
(-0.000457209 -0.0122903 5.28436e-23)
(0.132813 -0.0352173 0)
(0.109975 -0.0430854 1.5193e-22)
(0.0906447 -0.0494777 2.03486e-22)
(0.0689899 -0.0504118 0)
(0.0493427 -0.0513517 -4.11807e-22)
(0.031705 -0.0489862 1.18054e-21)
(0.0176581 -0.0460762 -1.04231e-21)
(0.00798981 -0.0426461 -2.47726e-22)
(0.00218151 -0.0391076 1.66351e-22)
(0.000104418 -0.0376222 -1.11464e-22)
(0.127635 -0.0507229 5.19029e-22)
(0.106026 -0.0597421 -2.19517e-22)
(0.0882054 -0.0685059 -6.50809e-23)
(0.0676161 -0.0705094 -1.42665e-22)
(0.0490459 -0.0728843 -3.76463e-22)
(0.0322177 -0.0713146 -5.64897e-22)
(0.0186358 -0.0691884 1.61393e-22)
(0.00910366 -0.0662684 1.26842e-22)
(0.00306507 -0.06334 -1.66895e-22)
(0.00048684 -0.0623063 -2.67758e-23)
(0.121823 -0.0663106 -4.71337e-23)
(0.101851 -0.075846 4.75457e-23)
(0.0855707 -0.0869994 8.3595e-23)
(0.0660863 -0.0898962 1.42444e-22)
(0.0486007 -0.0936438 -1.67077e-22)
(0.0325847 -0.092819 3.47622e-22)
(0.0194438 -0.0914557 -2.30929e-22)
(0.0100347 -0.0890721 -5.68587e-23)
(0.00375599 -0.0867283 0)
(0.000704894 -0.0860235 2.68227e-23)
(0.11565 -0.081617 6.88257e-23)
(0.0974838 -0.0911171 -6.9371e-23)
(0.082739 -0.104598 4.23276e-23)
(0.0644131 -0.108225 1.03794e-22)
(0.047979 -0.11326 1.50792e-22)
(0.0327824 -0.113173 -3.08655e-24)
(0.0200497 -0.112564 -7.37089e-23)
(0.0107623 -0.110756 -1.76179e-22)
(0.00425753 -0.108956 0)
(0.00083921 -0.108467 2.43794e-23)
(0.109383 -0.0963847 0)
(0.0930429 -0.105387 -2.52706e-23)
(0.0797487 -0.121041 -5.61459e-23)
(0.0626392 -0.125284 -1.03944e-22)
(0.0471669 -0.131472 -2.36606e-22)
(0.0327971 -0.132157 -4.1573e-22)
(0.0204296 -0.132273 1.3825e-22)
(0.0112723 -0.131079 1.1088e-22)
(0.00457469 -0.129761 -1.32733e-22)
(0.000886092 -0.129405 -2.43131e-23)
(0.103186 -0.110461 0)
(0.0886321 -0.118609 -3.21374e-22)
(0.0766413 -0.13616 3.93742e-23)
(0.0608048 -0.140991 0)
(0.0461716 -0.148131 7.04238e-22)
(0.0326317 -0.149655 -2.03804e-22)
(0.0205883 -0.15043 -2.37669e-22)
(0.0115793 -0.149878 -5.92869e-22)
(0.00473546 -0.148962 1.323e-22)
(0.000865309 -0.148693 -8.28973e-23)
(0.0971617 -0.123774 0)
(0.0843195 -0.130867 3.24019e-22)
(0.0734533 -0.149871 0)
(0.0589413 -0.155389 -5.6263e-22)
(0.0450214 -0.163193 5.65571e-22)
(0.0323014 -0.165648 4.32327e-22)
(0.0205568 -0.166969 1.96277e-23)
(0.0117183 -0.167075 5.64109e-22)
(0.00478134 -0.166471 1.08791e-22)
(0.00080378 -0.166276 1.21351e-22)
(0.091388 -0.136294 7.51509e-21)
(0.0801781 -0.142352 -2.74211e-21)
(0.0702291 -0.162162 -5.982e-22)
(0.0570781 -0.1686 -4.89438e-23)
(0.043761 -0.176698 0)
(0.0318278 -0.180192 3.75683e-22)
(0.020376 -0.181906 -2.79451e-23)
(0.0117247 -0.182679 -6.86502e-22)
(0.00474935 -0.182293 -3.52381e-23)
(0.000720542 -0.182182 3.51724e-23)
(0.0859162 -0.147982 1.86323e-21)
(0.0763047 -0.153344 3.90472e-21)
(0.0670456 -0.17307 2.39935e-22)
(0.0552504 -0.180798 -2.39806e-22)
(0.0424525 -0.188755 1.71222e-22)
(0.0312386 -0.193398 0)
(0.0200897 -0.195333 6.11266e-22)
(0.0116304 -0.196771 -3.35228e-22)
(0.00467065 -0.196515 -2.36035e-22)
(0.000628346 -0.196514 -5.77345e-23)
(0.0808479 -0.15874 -1.30675e-21)
(0.0728695 -0.16418 0)
(0.0640449 -0.182682 0)
(0.0535097 -0.192156 0)
(0.0411762 -0.199524 2.0955e-22)
(0.0305702 -0.205408 -3.80134e-22)
(0.0197435 -0.207394 -5.68502e-22)
(0.0114636 -0.209492 7.56124e-22)
(0.00457074 -0.20929 -5.52001e-23)
(0.000535869 -0.209431 1.11715e-22)
(0.0761359 -0.16836 -3.66482e-21)
(0.0698973 -0.17518 2.65464e-21)
(0.0612848 -0.191128 -2.62991e-21)
(0.0518367 -0.202814 1.95145e-22)
(0.0399858 -0.209204 -1.72305e-22)
(0.0298575 -0.216376 0)
(0.0193921 -0.218273 2.09081e-22)
(0.0112607 -0.221019 -3.34019e-23)
(0.00447535 -0.220811 1.34848e-22)
(0.000448769 -0.221132 4.13949e-23)
(0.0707199 -0.176411 -1.52268e-21)
(0.066542 -0.186592 0)
(0.0583485 -0.198632 -2.03029e-21)
(0.0499108 -0.212894 2.22947e-21)
(0.0387731 -0.218035 -5.60672e-22)
(0.0290694 -0.226475 4.60693e-23)
(0.0190659 -0.228177 -2.08606e-22)
(0.0110694 -0.231543 -4.23094e-23)
(0.00441533 -0.231291 -2.42075e-22)
(0.000367976 -0.231837 -8.03693e-23)
(0.065055 -0.181992 -6.16259e-21)
(0.0626316 -0.198611 6.00149e-21)
(0.0553483 -0.205643 3.41334e-22)
(0.0476746 -0.222568 0)
(0.0374336 -0.22633 0)
(0.0281009 -0.235914 -4.75717e-23)
(0.0186337 -0.237337 -2.91763e-22)
(0.0108167 -0.241265 2.86099e-22)
(0.00434763 -0.240934 3.37429e-23)
(0.000289423 -0.241775 -3.29485e-23)
(0.0699823 -0.187552 0)
(0.0631644 -0.227187 0)
(0.0551429 -0.222019 0)
(0.0459431 -0.244854 0)
(0.0356713 -0.245603 0)
(0.0258696 -0.257623 0)
(0.0169951 -0.258289 0)
(0.00951074 -0.26337 0)
(0.00376157 -0.262606 0)
(0.000177495 -0.264127 0)
(0.0529672 -0.237028 0)
(0.0455811 -0.272285 0)
(0.0420094 -0.263355 0)
(0.0342173 -0.284318 0)
(0.0278341 -0.281897 0)
(0.0200995 -0.293923 0)
(0.0136997 -0.292674 0)
(0.00764562 -0.298252 0)
(0.00321611 -0.296339 0)
(0.000237497 -0.298449 0)
(0.0476006 -0.284326 0)
(0.0389453 -0.317681 0)
(0.0349939 -0.306026 0)
(0.0275175 -0.326564 0)
(0.02235 -0.321442 0)
(0.0158428 -0.333684 0)
(0.0110443 -0.330431 0)
(0.00614379 -0.336384 0)
(0.00278591 -0.333106 0)
(0.00020663 -0.335863 0)
(0.0411574 -0.336283 0)
(0.0326015 -0.368913 0)
(0.0290472 -0.354549 0)
(0.0221544 -0.375296 0)
(0.0181055 -0.367591 0)
(0.0125848 -0.380389 0)
(0.0090431 -0.3751 0)
(0.00502889 -0.381641 0)
(0.00249832 -0.376892 0)
(0.000176582 -0.380498 0)
(0.035227 -0.397464 0)
(0.0272455 -0.429943 0)
(0.0239632 -0.413444 0)
(0.0178329 -0.434752 0)
(0.0147014 -0.424834 0)
(0.0100508 -0.438484 0)
(0.00747317 -0.431337 0)
(0.00412873 -0.438755 0)
(0.00222116 -0.432605 0)
(0.000127057 -0.437349 0)
(0.0296286 -0.471839 0)
(0.0222977 -0.502863 0)
(0.0194688 -0.486316 0)
(0.014144 -0.507538 0)
(0.011808 -0.496724 0)
(0.00785671 -0.510884 0)
(0.00598987 -0.50267 0)
(0.0031235 -0.51091 0)
(0.00175672 -0.503899 0)
(-5.43918e-06 -0.509834 0)
(0.0229974 -0.557454 0)
(0.0174288 -0.583985 0)
(0.0150468 -0.5711 0)
(0.0108131 -0.590028 0)
(0.00891845 -0.580733 0)
(0.00567659 -0.593797 0)
(0.00420697 -0.586178 0)
(0.00181558 -0.594231 0)
(0.000950384 -0.587571 0)
(-0.000205954 -0.593956 0)
(0.0179452 -0.64219 0)
(0.0130805 -0.66177 0)
(0.010942 -0.655009 0)
(0.00735013 -0.668774 0)
(0.00597971 -0.663308 0)
(0.00333758 -0.672968 0)
(0.00230179 -0.667757 0)
(0.00039498 -0.673762 0)
(0.000111692 -0.668894 0)
(-0.000371089 -0.674037 0)
(0.0106269 -0.707274 0)
(0.00731443 -0.717487 0)
(0.00617658 -0.718034 0)
(0.00404042 -0.726014 0)
(0.00330237 -0.725344 0)
(0.00158627 -0.730346 0)
(0.000933165 -0.728245 0)
(-0.000284939 -0.730977 0)
(-0.000256472 -0.728508 0)
(-0.000324911 -0.731067 0)
(0.00244087 -0.739226 0)
(0.00179169 -0.747823 0)
(0.00167255 -0.751213 0)
(0.00128827 -0.756185 0)
(0.0010228 -0.7572 0)
(0.000521972 -0.759829 0)
(0.000223787 -0.759125 0)
(-0.000140267 -0.760195 0)
(-0.000146821 -0.758964 0)
(-0.000104148 -0.760067 0)
(0.0626094 -0.203725 9.1985e-21)
(0.0521731 -0.253313 -9.02505e-21)
(0.0486794 -0.30124 1.22417e-21)
(0.0426736 -0.354192 0)
(0.0373239 -0.415799 0)
(0.0317134 -0.488851 1.45455e-21)
(0.0255306 -0.570359 -6.31824e-21)
(0.0194371 -0.646992 6.26923e-21)
(0.0121035 -0.707454 1.72027e-21)
(0.00374147 -0.73478 -1.69742e-21)
(0.0604528 -0.210068 -1.0998e-20)
(0.0524174 -0.258798 0)
(0.0492702 -0.306361 8.33896e-21)
(0.0434499 -0.359324 -1.92599e-20)
(0.0383095 -0.420922 1.2427e-20)
(0.0326915 -0.493437 -1.31296e-21)
(0.0266519 -0.573389 2.96722e-21)
(0.0201166 -0.64833 6.2848e-21)
(0.0127556 -0.706202 1.76449e-21)
(0.00430513 -0.733492 1.75674e-21)
(0.0591706 -0.216899 1.32163e-20)
(0.053358 -0.264884 -9.32301e-21)
(0.0502399 -0.311496 9.23467e-21)
(0.0445761 -0.363909 -1.04377e-20)
(0.0395606 -0.425142 7.74448e-21)
(0.0338823 -0.496876 0)
(0.0277713 -0.575213 -2.97463e-21)
(0.0208671 -0.648839 1.74096e-22)
(0.0132664 -0.704116 -3.27503e-21)
(0.00459754 -0.732121 -3.40953e-21)
(0.058657 -0.22301 -2.16999e-21)
(0.0548263 -0.270805 0)
(0.0516148 -0.316629 0)
(0.0461019 -0.36849 0)
(0.0411197 -0.429298 8.74164e-21)
(0.0353198 -0.50018 -5.83591e-21)
(0.0289818 -0.576937 -2.70957e-23)
(0.0217182 -0.648901 -3.57619e-21)
(0.0137047 -0.702093 -1.82728e-21)
(0.00470573 -0.729987 -1.95594e-21)
(0.0589506 -0.228322 2.24721e-22)
(0.0566989 -0.275784 -6.78242e-21)
(0.0533314 -0.321012 -5.23086e-21)
(0.047974 -0.372535 5.22769e-21)
(0.0429492 -0.433036 -2.86697e-21)
(0.0369825 -0.503174 0)
(0.0303547 -0.578514 -3.35182e-21)
(0.0227016 -0.648665 7.33068e-21)
(0.0141953 -0.700176 -3.7553e-21)
(0.00478598 -0.727231 3.82813e-21)
(0.0601163 -0.232984 -1.85585e-20)
(0.0589861 -0.279713 2.02184e-21)
(0.0553872 -0.32429 -3.7401e-22)
(0.050151 -0.375572 5.4297e-21)
(0.045009 -0.435857 0)
(0.0388386 -0.505381 0)
(0.0319027 -0.579524 0)
(0.0238311 -0.648023 3.95364e-21)
(0.0148134 -0.698135 0)
(0.00492893 -0.72416 0)
(0.0621685 -0.236916 0)
(0.0617318 -0.282656 7.75032e-21)
(0.0578352 -0.326468 -5.22032e-21)
(0.0526413 -0.377487 -6.12512e-21)
(0.0473004 -0.437553 6.15708e-21)
(0.0408829 -0.506537 3.6247e-21)
(0.0336177 -0.579681 -3.60787e-21)
(0.0251027 -0.646823 -1.41456e-20)
(0.0155676 -0.695784 1.00773e-21)
(0.00515006 -0.720952 -3.44536e-21)
(0.0650957 -0.239919 0)
(0.0649582 -0.284578 -2.53594e-21)
(0.0607252 -0.327586 -1.43571e-21)
(0.0554723 -0.378315 0)
(0.0498527 -0.438125 1.77494e-21)
(0.0431373 -0.506606 -5.39078e-21)
(0.0355051 -0.578905 5.93364e-21)
(0.0265171 -0.644978 2.10506e-21)
(0.0164433 -0.693038 -2.31293e-21)
(0.00543568 -0.71762 4.569e-21)
(0.0688884 -0.241814 2.39155e-21)
(0.0686729 -0.285394 2.78793e-21)
(0.0640827 -0.327607 -6.33678e-22)
(0.0586622 -0.378068 8.19717e-22)
(0.0526959 -0.437607 1.7148e-21)
(0.0456305 -0.505648 2.855e-21)
(0.0375803 -0.577256 -1.06816e-21)
(0.0280745 -0.642511 -1.14965e-21)
(0.0174176 -0.689908 2.32058e-21)
(0.00576575 -0.714128 1.26095e-21)
(0.0735427 -0.242456 -6.60629e-22)
(0.0728827 -0.285049 6.65635e-22)
(0.06792 -0.326464 -7.45665e-22)
(0.0622171 -0.376719 -8.18721e-22)
(0.0558489 -0.435995 9.57778e-22)
(0.0483837 -0.503689 -1.94851e-21)
(0.039868 -0.574761 1.63419e-21)
(0.0297946 -0.639427 5.80349e-22)
(0.0184961 -0.686393 0)
(0.00613984 -0.710421 -1.26374e-21)
(0.0790567 -0.24172 6.84382e-22)
(0.0775925 -0.283553 -6.89904e-22)
(0.0722455 -0.324109 -8.12399e-22)
(0.0661373 -0.374252 -8.9413e-22)
(0.0593252 -0.433265 -1.0029e-21)
(0.0514087 -0.500758 -6.50516e-23)
(0.0423764 -0.571487 5.80632e-22)
(0.0316746 -0.635806 1.86117e-21)
(0.0196668 -0.682547 0)
(0.00654929 -0.706499 -1.38478e-21)
(0.0854232 -0.239565 0)
(0.0827982 -0.280957 -3.14471e-21)
(0.0770692 -0.320538 5.68195e-21)
(0.0704226 -0.370682 8.95707e-22)
(0.0631325 -0.42942 2.05849e-21)
(0.054712 -0.496823 3.32991e-21)
(0.045133 -0.567366 -1.17285e-21)
(0.0337492 -0.631573 -1.26219e-21)
(0.0209635 -0.678315 2.79243e-21)
(0.0070126 -0.702327 1.38152e-21)
(0.0926269 -0.236077 0)
(0.0884932 -0.277305 -3.15966e-21)
(0.0823941 -0.315842 -1.70481e-21)
(0.0750684 -0.366052 0)
(0.0672884 -0.424486 -6.45675e-21)
(0.0582993 -0.491948 2.17106e-21)
(0.04812 -0.562521 2.53408e-21)
(0.0359834 -0.626867 8.1233e-21)
(0.0223476 -0.673783 -2.78339e-21)
(0.00750543 -0.697941 6.01491e-21)
(0.100649 -0.231407 0)
(0.0946695 -0.272598 3.18683e-21)
(0.0882175 -0.310109 0)
(0.0800894 -0.360373 8.37567e-21)
(0.0717923 -0.418565 -8.41858e-21)
(0.0621805 -0.48602 -5.0089e-21)
(0.0513875 -0.556754 -8.66617e-23)
(0.0384499 -0.621464 -8.36301e-21)
(0.0238925 -0.668796 -1.39353e-21)
(0.0080685 -0.693238 -7.48232e-21)
(0.109466 -0.225744 2.41601e-20)
(0.101325 -0.266826 -9.18091e-21)
(0.0945069 -0.303614 7.7896e-22)
(0.0854625 -0.35371 -7.98364e-21)
(0.0766752 -0.411733 0)
(0.0663701 -0.47921 -5.23267e-21)
(0.0548572 -0.550399 -3.96893e-22)
(0.0410458 -0.615698 1.13791e-20)
(0.0255002 -0.663568 1.55597e-21)
(0.00864217 -0.688362 -1.5617e-21)
(0.119043 -0.219272 -1.79723e-21)
(0.108432 -0.260001 1.69408e-20)
(0.101262 -0.296229 8.33066e-21)
(0.0912806 -0.345807 -8.32501e-21)
(0.0819572 -0.403656 -4.88862e-21)
(0.0709311 -0.471213 0)
(0.0586677 -0.542909 -1.16696e-20)
(0.0439531 -0.609031 5.85026e-21)
(0.0273325 -0.657772 6.2179e-21)
(0.00931723 -0.68311 6.67072e-21)
(0.129298 -0.212344 -3.37723e-21)
(0.116036 -0.252172 0)
(0.108444 -0.288139 0)
(0.0974727 -0.337308 0)
(0.0875098 -0.395197 -5.5649e-21)
(0.0756905 -0.463112 1.04357e-20)
(0.0625744 -0.535497 1.18928e-20)
(0.0468662 -0.60248 -1.86698e-20)
(0.0291207 -0.651982 3.33242e-21)
(0.00993401 -0.677805 -9.90854e-21)
(0.140127 -0.204919 -5.53685e-21)
(0.124243 -0.242694 1.64335e-20)
(0.116041 -0.278881 -1.62765e-20)
(0.104168 -0.327395 1.9996e-20)
(0.0935571 -0.385026 -2.51034e-20)
(0.081004 -0.453024 0)
(0.0670689 -0.526107 -6.22991e-21)
(0.0503367 -0.594393 -2.56204e-22)
(0.0313237 -0.645283 -6.92959e-21)
(0.0107532 -0.671899 -7.05898e-21)
(0.151195 -0.198261 -3.61149e-21)
(0.132763 -0.233732 0)
(0.123553 -0.270845 -2.13291e-20)
(0.11085 -0.318975 3.9642e-20)
(0.0994868 -0.376747 -1.52356e-20)
(0.0860985 -0.445108 -2.97965e-21)
(0.0712219 -0.518815 6.21672e-21)
(0.0534054 -0.587783 -3.07289e-22)
(0.0331831 -0.639236 1.01202e-20)
(0.0113345 -0.66624 1.04468e-20)
(0.163227 -0.188121 -1.59074e-20)
(0.143204 -0.220598 1.55467e-20)
(0.132477 -0.258246 2.27915e-21)
(0.119011 -0.305529 0)
(0.106834 -0.36297 0)
(0.0926657 -0.431544 2.87778e-21)
(0.076848 -0.506568 1.29459e-20)
(0.057808 -0.577751 -1.26159e-20)
(0.0360184 -0.631381 -3.43244e-21)
(0.012425 -0.659426 3.37092e-21)
(0.174248 -0.190437 0)
(0.164668 -0.215639 0)
(0.14895 -0.255391 0)
(0.133682 -0.301349 0)
(0.119918 -0.357603 0)
(0.103867 -0.424224 0)
(0.0859166 -0.496829 0)
(0.0644533 -0.565537 0)
(0.0399626 -0.617584 0)
(0.0132586 -0.645457 0)
(0.196296 -0.170534 0)
(0.201322 -0.200489 0)
(0.176789 -0.2447 0)
(0.162507 -0.289608 0)
(0.146015 -0.345718 0)
(0.126881 -0.410235 0)
(0.105227 -0.479032 0)
(0.0792154 -0.542763 0)
(0.0495688 -0.589802 0)
(0.0175755 -0.61337 0)
(0.228828 -0.150262 0)
(0.239679 -0.180762 0)
(0.206506 -0.224854 0)
(0.195628 -0.26798 0)
(0.174621 -0.323727 0)
(0.152005 -0.385085 0)
(0.125673 -0.449931 0)
(0.0941671 -0.50992 0)
(0.0582651 -0.555074 0)
(0.0189973 -0.57985 0)
(0.271076 -0.136105 0)
(0.283657 -0.165354 0)
(0.244045 -0.208481 0)
(0.237583 -0.250558 0)
(0.209772 -0.305438 0)
(0.183957 -0.362095 0)
(0.151876 -0.422065 0)
(0.113873 -0.475777 0)
(0.0710703 -0.514516 0)
(0.025414 -0.532906 0)
(0.322443 -0.118792 0)
(0.333701 -0.146184 0)
(0.289683 -0.186215 0)
(0.285035 -0.225127 0)
(0.246897 -0.275316 0)
(0.217607 -0.324956 0)
(0.177208 -0.379365 0)
(0.131721 -0.427558 0)
(0.0806568 -0.464411 0)
(0.0253218 -0.486206 0)
(0.386671 -0.108436 0)
(0.394555 -0.133423 0)
(0.347571 -0.170093 0)
(0.340967 -0.204737 0)
(0.291824 -0.249517 0)
(0.260613 -0.292618 0)
(0.209994 -0.341207 0)
(0.156398 -0.380816 0)
(0.0967951 -0.409729 0)
(0.0358491 -0.420994 0)
(0.458044 -0.0867133 0)
(0.45804 -0.107274 0)
(0.40852 -0.137908 0)
(0.395013 -0.165924 0)
(0.335538 -0.20306 0)
(0.300769 -0.237853 0)
(0.233875 -0.277283 0)
(0.172265 -0.308707 0)
(0.101848 -0.338468 0)
(0.0279883 -0.360753 0)
(0.539447 -0.074626 0)
(0.528847 -0.0903095 0)
(0.48073 -0.115107 0)
(0.456376 -0.136367 0)
(0.392536 -0.166095 0)
(0.34961 -0.192081 0)
(0.269243 -0.222898 0)
(0.203383 -0.248563 0)
(0.123604 -0.273739 0)
(0.0538904 -0.275193 0)
(0.601615 -0.0397864 0)
(0.580828 -0.047948 0)
(0.52711 -0.0631289 0)
(0.490013 -0.0742866 0)
(0.418391 -0.0922279 0)
(0.361915 -0.105249 0)
(0.268016 -0.123813 0)
(0.192363 -0.138386 0)
(0.0921849 -0.1637 0)
(-0.00623867 -0.208832 0)
(0.790149 -0.0197491 0)
(0.764235 -0.0237438 0)
(0.718186 -0.0297698 0)
(0.675243 -0.0352415 0)
(0.610575 -0.0433251 0)
(0.546898 -0.0509027 0)
(0.457681 -0.0625508 0)
(0.366521 -0.0765162 0)
(0.244471 -0.104671 0)
(0.16535 -0.159071 0)
(0.20735 -0.167134 1.69491e-20)
(0.233267 -0.144084 -1.66817e-20)
(0.26631 -0.125562 2.61646e-21)
(0.30712 -0.112868 0)
(0.357159 -0.0979829 0)
(0.418312 -0.0891367 3.67883e-21)
(0.487315 -0.0705637 -1.70877e-20)
(0.563857 -0.0613109 1.69412e-20)
(0.628392 -0.0313931 4.80468e-21)
(0.810696 -0.0166242 -4.82441e-21)
(0.21624 -0.157238 -1.64495e-20)
(0.241581 -0.133281 0)
(0.274511 -0.115768 1.81326e-20)
(0.315372 -0.103693 -4.32563e-20)
(0.365548 -0.0897527 2.87354e-20)
(0.4265 -0.0815126 -3.36237e-21)
(0.495339 -0.0641334 7.27198e-21)
(0.571009 -0.0559601 1.60476e-20)
(0.637351 -0.0280168 4.44994e-21)
(0.817881 -0.015309 4.31859e-21)
(0.224046 -0.145834 1.92062e-20)
(0.247879 -0.122047 -1.78196e-20)
(0.279928 -0.105873 1.7652e-20)
(0.320487 -0.0945151 -2.28754e-20)
(0.37068 -0.081597 1.66855e-20)
(0.431672 -0.0740587 0)
(0.500551 -0.0579509 -7.28991e-21)
(0.576001 -0.0509642 -6.94302e-23)
(0.6445 -0.0249681 -8.35983e-21)
(0.823876 -0.0140734 -8.65321e-21)
(0.23267 -0.133575 -3.30137e-21)
(0.255675 -0.110537 0)
(0.286817 -0.0958066 0)
(0.326797 -0.0852494 0)
(0.376732 -0.073451 1.85474e-20)
(0.437493 -0.0667209 -1.25619e-20)
(0.506202 -0.0519714 -3.71842e-22)
(0.581272 -0.0462515 -8.194e-21)
(0.651437 -0.0222034 -4.21971e-21)
(0.829641 -0.0129236 -4.28488e-21)
(0.240845 -0.120895 2.73621e-21)
(0.26342 -0.0989866 -1.0419e-20)
(0.293862 -0.0856954 -9.83395e-21)
(0.333525 -0.0759826 9.82819e-21)
(0.383295 -0.0653582 -5.90288e-21)
(0.443863 -0.0595125 0)
(0.51238 -0.0461609 -7.22253e-21)
(0.586999 -0.0417255 1.58846e-20)
(0.658424 -0.0196271 -8.01661e-21)
(0.83532 -0.0118391 8.58717e-21)
(0.248118 -0.107866 -2.53049e-20)
(0.270216 -0.0874569 1.81527e-21)
(0.299798 -0.0756063 -1.25674e-21)
(0.339356 -0.0668217 9.69649e-21)
(0.389109 -0.0574071 0)
(0.449677 -0.0524986 0)
(0.518156 -0.0405451 0)
(0.592481 -0.0373661 7.68168e-21)
(0.665071 -0.0171916 0)
(0.840675 -0.0108063 0)
(0.254526 -0.0945253 0)
(0.27597 -0.0758953 1.20866e-20)
(0.304519 -0.0655017 -8.30913e-21)
(0.343934 -0.0577895 -1.08329e-20)
(0.393674 -0.0496177 1.08895e-20)
(0.454322 -0.0457066 6.70291e-21)
(0.522898 -0.0351413 -6.41499e-21)
(0.597141 -0.0331876 -2.66195e-20)
(0.670955 -0.0148927 1.88978e-21)
(0.845436 -0.00982298 -6.27131e-21)
(0.26001 -0.0809078 0)
(0.280623 -0.0642685 -3.78916e-21)
(0.30824 -0.0553477 -2.2074e-21)
(0.347416 -0.0488434 0)
(0.397012 -0.0419515 3.16658e-21)
(0.45774 -0.0391026 -9.23638e-21)
(0.526442 -0.0299276 1.06402e-20)
(0.600782 -0.0291839 3.98526e-21)
(0.675865 -0.0127279 -3.99144e-21)
(0.849483 -0.00888899 8.38642e-21)
(0.26442 -0.0670267 2.63274e-21)
(0.284101 -0.0525652 4.05054e-21)