/*--------------------------------*- C++ -*----------------------------------*\
  =========                 |
  \\      /  F ield         | OpenFOAM: The Open Source CFD Toolbox
   \\    /   O peration     | Website:  https://openfoam.org
    \\  /    A nd           | Version:  7
     \\/     M anipulation  |
\*---------------------------------------------------------------------------*/
FoamFile
{
    version     2.0;
    format      ascii;
    class       surfaceScalarField;
    location    "54.1";
    object      phi;
}
// * * * * * * * * * * * * * * * * * * * * * * * * * * * * * * * * * * * * * //

dimensions      [0 3 -1 0 0 0 0];

internalField   nonuniform List<scalar> 
3880
(
-8.3648e-05
-0.000698982
0.00078263
-0.000165034
-0.00113558
0.00121697
-0.00017414
-0.00102235
0.00103146
-6.30769e-05
-0.000516799
0.000405736
0.000203273
0.000309495
-0.000575845
0.000649005
0.00142154
-0.00186727
0.00128518
0.00279547
-0.00343164
0.00210708
0.00440393
-0.00522583
0.00309164
0.00620839
-0.00719295
0.0081524
0.00419475
-0.00925552
-9.5823e-05
-0.000603158
-0.000193887
-0.00103752
-0.000224926
-0.000991311
-0.000142436
-0.00059929
8.97846e-05
7.72749e-05
0.000500634
0.00101069
0.00110936
0.00218674
0.00192119
0.0035921
0.00292161
0.00520798
0.00700508
0.00406893
-9.88424e-05
-0.000504316
-0.00019629
-0.00094007
-0.000228153
-0.000959448
-0.000153297
-0.000674146
6.14436e-05
-0.000137466
0.00044584
0.000626294
0.00102459
0.00160798
0.00181214
0.00280456
0.00280445
0.00421566
0.00584366
0.00396587
-9.0551e-05
-0.000413765
-0.000166034
-0.000864587
-0.000171395
-0.000954088
-7.44171e-05
-0.000771124
0.00015097
-0.000362853
0.00053074
0.000246523
0.00109075
0.00104798
0.0018519
0.00204341
0.00282142
0.00324614
0.00469035
0.00397472
-6.96186e-05
-0.000344147
-9.92001e-05
-0.000835006
-4.62188e-05
-0.00100707
0.000109936
-0.000927279
0.000385118
-0.000638034
0.000797159
-0.000165518
0.00136777
0.000477364
0.00211974
0.00129145
0.00306978
0.0022961
0.00355059
0.00420954
-3.59088e-05
-0.000308238
4.83805e-06
-0.000875753
0.000149072
-0.0011513
0.000404978
-0.00118319
0.000776211
-0.00100927
0.00126946
-0.000658768
0.00189747
-0.000150647
0.00267938
0.000509543
0.00363714
0.00133834
0.00240547
0.00478226
1.05826e-05
-0.000318821
0.000142549
-0.00100772
0.000408129
-0.00141688
0.000801616
-0.00157667
0.00131443
-0.00152208
0.00194096
-0.0012853
0.00268239
-0.000892078
0.00354872
-0.000356787
0.00456122
0.000325846
0.00121754
0.00574914
6.54416e-05
-0.000384263
0.000306637
-0.00124891
0.000715943
-0.00182619
0.001275
-0.00213573
0.00196409
-0.00221117
0.00276631
-0.00208752
0.00367053
-0.0017963
0.00467463
-0.00136089
0.00579214
-0.000791665
-5.27375e-05
0.00706242
0.000127132
-0.000511394
0.000486552
-0.00160833
0.00105009
-0.00238973
0.00178638
-0.00287202
0.0026661
-0.0030909
0.00366374
-0.00308516
0.00475817
-0.00289074
0.00593358
-0.00253629
0.00718593
-0.00204402
-0.001432
0.0085652
0.000191478
-0.000702873
0.00066944
-0.0020863
0.00138298
-0.00310327
0.00228723
-0.00377626
0.00334493
-0.0041486
0.00452652
-0.00426675
0.00580887
-0.00417309
0.00717182
-0.00389923
0.00858745
-0.00345965
0.0100376
-0.00288217
0.00702135
0.0458038
-0.0486304
0.00835469
0.073059
-0.0743924
0.00826741
0.0943813
-0.094294
0.00752842
0.113927
-0.113188
0.00651955
0.134863
-0.133854
0.00535076
0.158775
-0.157606
0.00404413
0.186413
-0.185106
0.00255147
0.218795
-0.217302
0.00108885
0.260653
-0.259191
0.309032
-0.307943
0.00741952
0.0424532
0.0094199
0.0710587
0.00970801
0.0940931
0.00913219
0.114502
0.00817089
0.135824
0.0069529
0.159993
0.0054927
0.187873
0.00372668
0.220561
0.00179494
0.262585
0.310827
0.00768406
0.038735
0.0104049
0.0683378
0.0111225
0.0933756
0.0107383
0.114887
0.00983169
0.136731
0.00856569
0.161259
0.00694911
0.18949
0.00490777
0.222602
0.00250424
0.264989
0.313331
0.0078209
0.0348888
0.0112659
0.0648928
0.0124707
0.0921708
0.0123148
0.115043
0.0114758
0.13757
0.0101676
0.162567
0.00839783
0.19126
0.00608339
0.224917
0.003209
0.267863
0.31654
0.00788425
0.0312141
0.0119606
0.0608165
0.0137125
0.0904188
0.0138306
0.114924
0.0130784
0.138322
0.0117379
0.163908
0.00982456
0.193173
0.00724241
0.227499
0.00390561
0.2712
0.320446
0.00797133
0.0280251
0.0124565
0.0563313
0.0148097
0.0880657
0.0152522
0.114482
0.0146102
0.138964
0.0132502
0.165268
0.0112059
0.195217
0.00836973
0.230335
0.00458465
0.274985
0.32503
0.00819244
0.0255818
0.0127572
0.0517665
0.0157306
0.0850923
0.0165559
0.113657
0.0160602
0.13946
0.0147005
0.166628
0.0125417
0.197376
0.00946402
0.233413
0.00524592
0.279203
0.330276
0.00862561
0.0240186
0.0129068
0.0474853
0.0164427
0.0815564
0.0176879
0.112412
0.0173724
0.139775
0.0160341
0.167966
0.0137837
0.199626
0.0104954
0.236701
0.00587459
0.283824
0.336151
0.00927056
0.0233132
0.0129744
0.0437815
0.016967
0.0775637
0.0187032
0.110675
0.0186185
0.13986
0.0173194
0.169265
0.0149889
0.201957
0.0114895
0.2402
0.00648001
0.288833
0.342631
0.0101191
0.0232318
0.0130878
0.0408127
0.0171814
0.0734702
0.0193866
0.10847
0.0196197
0.139627
0.0184159
0.170469
0.0160861
0.204287
0.012401
0.243886
0.00708768
0.294147
0.349719
0.0279877
0.0344231
-0.0391789
0.0201358
0.0486646
0.0191575
0.0744484
0.0185272
0.1091
0.0163431
0.141811
0.013324
0.173488
0.00982828
0.207782
0.00591274
0.247801
0.0021427
0.297917
0.351861
0.0356049
0.0408369
-0.0420187
0.0265999
0.0576697
0.0220021
0.0790462
0.0198478
0.111255
0.0166933
0.144965
0.0129207
0.177261
0.00923575
0.211467
0.0054949
0.251542
0.00201133
0.3014
0.353873
0.0386001
0.0437812
-0.0415445
0.0314731
0.0647967
0.0252008
0.0853185
0.021575
0.114881
0.0181015
0.148439
0.0140669
0.181295
0.0099023
0.215632
0.00577101
0.255673
0.00213188
0.305039
0.356005
0.0380742
0.0445894
-0.0388824
0.0335275
0.0693433
0.0275756
0.0912704
0.0227295
0.119727
0.0182277
0.152941
0.0138178
0.185705
0.00968157
0.219768
0.00573458
0.25962
0.00219263
0.308581
0.358197
0.0352502
0.0441242
-0.034785
0.0330177
0.0715759
0.02867
0.0956181
0.0243202
0.124076
0.019872
0.157389
0.0150327
0.190544
0.0103323
0.224469
0.00603957
0.263913
0.00233806
0.312283
0.360535
0.0307492
0.0426476
-0.0292726
0.0304238
0.0719013
0.0274809
0.0985611
0.0233207
0.128236
0.0189151
0.161794
0.0144197
0.19504
0.0100314
0.228857
0.0059191
0.268025
0.00232668
0.315875
0.362862
0.0253395
0.0402653
-0.0229571
0.0268966
0.0703442
0.0263193
0.0991383
0.0237888
0.130767
0.0198458
0.165737
0.0151356
0.19975
0.010432
0.23356
0.00611296
0.272344
0.00242559
0.319563
0.365288
0.019452
0.0373258
-0.0165126
0.0216917
0.0681045
0.0219139
0.0989162
0.0203367
0.132344
0.0175999
0.168474
0.0139342
0.203416
0.00986331
0.237631
0.00588723
0.27632
0.00238502
0.323065
0.367673
0.0145207
0.0335314
-0.0107263
0.0184772
0.0641479
0.0206452
0.0967483
0.0202104
0.132779
0.0177499
0.170935
0.0141109
0.207055
0.00997027
0.241772
0.00594721
0.280343
0.00240807
0.326604
0.370081
0.00753398
-0.00464547
0.0110002
0.0141492
0.0157325
0.015194
0.0127885
0.00942807
0.00571926
0.00241294
0.0137049
-0.0410407
-0.0118431
0.0136213
-0.0419351
0.0126117
-0.0405349
0.0111919
-0.0374626
0.00961728
-0.0332103
0.0080429
-0.0276982
0.00657947
-0.0214937
0.00526722
-0.0152003
0.00408414
-0.00954319
-0.00391936
0.0127219
-0.0417686
-0.011994
0.0119938
-0.041207
0.0106761
-0.0392172
0.00910251
-0.0358891
0.00745489
-0.0315627
0.00585777
-0.0261011
0.00440065
-0.0200366
0.00311681
-0.0139165
0.00197781
-0.00840419
-0.00321121
0.0112787
-0.041658
-0.0113894
0.0101148
-0.0400431
0.0085879
-0.0376902
0.00690105
-0.0342022
0.00519923
-0.0298609
0.00358959
-0.0244914
0.00215007
-0.0185971
0.000911221
-0.0126776
-0.000183614
-0.00730935
-0.0025723
0.00940366
-0.0409425
-0.0101191
0.00795011
-0.0385896
0.00629745
-0.0360376
0.00455469
-0.0324595
0.00284248
-0.0281487
0.00125293
-0.0229019
-0.000143856
-0.0172003
-0.00132129
-0.0115002
-0.00229788
-0.00633276
-0.00197321
0.00717962
-0.0398003
-0.00832182
0.00554688
-0.0369568
0.00383345
-0.0343242
0.00208356
-0.0307096
0.000399108
-0.0264643
-0.00113185
-0.0213709
-0.0024621
-0.01587
-0.00356006
-0.0104022
-0.00443027
-0.00546255
-0.0014632
0.0047096
-0.0383633
-0.00614664
0.00298124
-0.0352285
0.00125445
-0.0325974
-0.000461
-0.0289941
-0.00207478
-0.0248505
-0.00353117
-0.0199145
-0.00477267
-0.0146285
-0.00577433
-0.00940057
-0.00653017
-0.00470671
-0.0010575
0.00209502
-0.0367259
-0.0037324
0.000324202
-0.0334577
-0.00135978
-0.0309134
-0.00301552
-0.0273384
-0.00454757
-0.0233184
-0.00590417
-0.0185579
-0.00704214
-0.0134906
-0.00793482
-0.0085079
-0.00856931
-0.00407222
-0.00076205
-0.000561558
-0.0349683
-0.00119602
-0.00230741
-0.0317118
-0.00395273
-0.0292681
-0.00553075
-0.0257603
-0.00696225
-0.0218869
-0.00820775
-0.0173124
-0.00923361
-0.0124647
-0.0100097
-0.00773185
-0.0105205
-0.00356142
-0.000575283
-0.00318557
-0.0331331
0.00135033
-0.00488713
-0.0300102
-0.00646178
-0.0276934
-0.00794432
-0.0242778
-0.00926892
-0.0205623
-0.0103989
-0.0161825
-0.0113099
-0.0115537
-0.0119674
-0.00707438
-0.012358
-0.00317072
-0.000488724
-0.00568905
-0.0312739
0.00382983
-0.00733011
-0.0283692
-0.0088246
-0.0261989
-0.0102042
-0.0228982
-0.0114221
-0.0193444
-0.0124375
-0.0151671
-0.0132364
-0.0107547
-0.0137795
-0.00653124
-0.01406
-0.00289019
-0.000487806
-0.00800835
-0.029436
0.00617049
-0.00957754
-0.0268
-0.0109907
-0.0247858
-0.0122655
-0.0216234
-0.0133824
-0.0182276
-0.0142893
-0.0142602
-0.0149841
-0.01006
-0.0154235
-0.00609183
-0.01561
-0.0027037
-0.000553021
-0.0101046
-0.027651
0.00831961
-0.0115905
-0.0253141
-0.0129243
-0.023452
-0.0140964
-0.0204513
-0.0151208
-0.0172032
-0.0159296
-0.0134514
-0.0165324
-0.0094571
-0.0168845
-0.0057398
-0.0169982
-0.00258998
-0.000661273
-0.0119444
-0.0259438
0.0102371
-0.0133381
-0.0239204
-0.0145977
-0.0221923
-0.0156729
-0.0193761
-0.0166163
-0.0162598
-0.017342
-0.0127257
-0.0178699
-0.00892918
-0.0181562
-0.00545346
-0.0182223
-0.00252395
-0.000787142
-0.0135095
-0.0243309
0.0118966
-0.014804
-0.0226259
-0.0159965
-0.0209998
-0.0169845
-0.0183882
-0.0178602
-0.0153841
-0.0185218
-0.0120642
-0.0189951
-0.00845588
-0.0192412
-0.00520734
-0.0192866
-0.00247852
-0.000904174
-0.0147947
-0.0228172
0.0132809
-0.0159851
-0.0214354
-0.0171179
-0.0198671
-0.0180324
-0.0174737
-0.0188545
-0.0145619
-0.0194741
-0.0114446
-0.0199155
-0.0080145
-0.020149
-0.00497381
-0.0202015
-0.002426
-0.000985937
-0.0158055
-0.021391
0.0143793
-0.0168912
-0.0203496
-0.0179696
-0.0187887
-0.0188283
-0.016615
-0.0196107
-0.0137795
-0.0202124
-0.0108429
-0.0206458
-0.00758112
-0.020895
-0.0047246
-0.0209818
-0.00233924
-0.00100675
-0.0165539
-0.0200216
0.0151844
-0.0175417
-0.0193618
-0.0185664
-0.017764
-0.0193906
-0.0157908
-0.0201468
-0.0130233
-0.0207554
-0.0102343
-0.021205
-0.00713149
-0.0214977
-0.00443191
-0.0216448
-0.00219216
-0.000942089
-0.0170327
-0.0186804
0.0156916
-0.0179461
-0.0184485
-0.0189186
-0.0167915
-0.0197362
-0.0149732
-0.0204822
-0.0122773
-0.021123
-0.0095936
-0.0216136
-0.00664084
-0.0219767
-0.00406878
-0.0222092
-0.00195973
-0.000768629
-0.0172248
-0.0173678
0.0159122
-0.0181232
-0.0175501
-0.0190466
-0.0158681
-0.0198873
-0.0141325
-0.0206413
-0.0115233
-0.0213379
-0.00889699
-0.0218933
-0.00608546
-0.0223519
-0.00361023
-0.0226934
-0.00161822
-0.000463883
-0.0172591
-0.0160249
0.0159162
-0.0182067
-0.0166026
-0.0190253
-0.0150495
-0.0198804
-0.0132774
-0.0206475
-0.0107561
-0.0214119
-0.00813264
-0.0220563
-0.00544102
-0.0226369
-0.00302962
-0.0231197
-0.00113549
-1.06459e-05
-0.0717245
-0.0139548
0.0696545
-0.0759376
-0.0123896
-0.0797238
-0.0112632
-0.0835933
-0.00940784
-0.0867275
-0.00762193
-0.0893066
-0.00555354
-0.0910136
-0.00373399
-0.0920193
-0.00202392
-0.0923602
-0.000794635
-2.71066e-05
-0.0875515
-0.0118971
0.0854938
-0.0903311
-0.00960994
-0.0928672
-0.00872718
-0.0954322
-0.00684282
-0.0974522
-0.00560189
-0.0990806
-0.00392517
-0.100115
-0.00269938
-0.100692
-0.0014467
-0.10085
-0.000636667
-3.94012e-05
-0.103404
-0.0102549
0.101762
-0.105132
-0.00788203
-0.106875
-0.00698497
-0.108525
-0.00519266
-0.109843
-0.00428343
-0.110872
-0.00289636
-0.111481
-0.00209012
-0.111807
-0.00112122
-0.111871
-0.000572624
-4.11284e-05
-0.121426
-0.00920253
0.120373
-0.122587
-0.00672084
-0.123752
-0.00581939
-0.1248
-0.0041452
-0.125641
-0.0034422
-0.126291
-0.00224687
-0.126666
-0.00171447
-0.126873
-0.000914818
-0.126903
-0.000542675
-3.46232e-05
-0.143104
-0.00815992
0.142061
-0.143985
-0.00583958
-0.144852
-0.00495229
-0.145584
-0.00341304
-0.146191
-0.00283551
-0.146658
-0.00177999
-0.146957
-0.00141563
-0.147151
-0.000720705
-0.147215
-0.000478407
-7.81898e-07
-0.168615
-0.0069715
0.167427
-0.169506
-0.0049487
-0.170339
-0.00411947
-0.171004
-0.00274777
-0.171566
-0.00227394
-0.171995
-0.00135019
-0.172328
-0.00108325
-0.172589
-0.000459887
-0.172751
-0.000316539
4.60072e-05
-0.195598
-0.00561698
0.194244
-0.196837
-0.00371016
-0.197901
-0.00305497
-0.198618
-0.00203163
-0.199218
-0.00167325
-0.19966
-0.000908837
-0.200059
-0.000683855
-0.200371
-0.000148364
-0.200587
-0.000100044
0.000102427
-0.220808
-0.00354786
0.218739
-0.22184
-0.00267786
-0.22272
-0.0021758
-0.223394
-0.00135748
-0.223996
-0.00107138
-0.224413
-0.000491563
-0.224777
-0.000319979
-0.225003
7.79289e-05
-0.225154
5.12449e-05
0.000118186
-0.237334
-0.00199699
0.235783
-0.238851
-0.00116056
-0.240089
-0.000937585
-0.24087
-0.000576924
-0.241459
-0.000482481
-0.24175
-0.000200543
-0.241959
-0.000111172
-0.241978
9.67878e-05
-0.241993
6.65222e-05
7.17176e-05
-0.247151
0.245154
-0.248311
-0.249249
-0.249826
-0.250308
-0.250509
-0.25062
-0.250523
-0.250457
-0.0179377
0.0711653
0.0164269
-0.0187479
0.086304
-0.0191758
0.10219
-0.0191934
0.120391
-0.0187129
0.141581
-0.0173718
0.166086
-0.0148607
0.191733
-0.0107727
0.214651
-0.0058117
0.230822
0.239342
-0.0169217
0.0720657
0.0160212
-0.0175975
0.0869799
-0.0179336
0.102526
-0.0178564
0.120314
-0.0172863
0.141011
-0.015913
0.164712
-0.0134503
0.18927
-0.00973435
0.210935
-0.00517774
0.226265
0.234164
-0.0160885
0.0728212
0.015333
-0.016629
0.0875203
-0.0168535
0.102751
-0.0167074
0.120167
-0.0160975
0.140401
-0.0147482
0.163363
-0.0123943
0.186916
-0.00896445
0.207505
-0.00472859
0.22203
0.229436
-0.0151278
0.0735121
0.0144369
-0.0155633
0.0879559
-0.0156712
0.102859
-0.0154429
0.119939
-0.0147935
0.139751
-0.0134773
0.162047
-0.0112631
0.184702
-0.00812774
0.20437
-0.00426073
0.218163
0.225175
-0.0139997
0.0741248
0.013387
-0.0143496
0.0883058
-0.0143666
0.102876
-0.0140742
0.119647
-0.0134023
0.13908
-0.0121361
0.160781
-0.0100863
0.182652
-0.00724922
0.201533
-0.00378659
0.2147
0.221388
-0.0127454
0.0746469
0.0122233
-0.0129991
0.0885595
-0.0129362
0.102813
-0.0125986
0.119309
-0.0119247
0.138406
-0.0107316
0.159588
-0.00887046
0.180791
-0.00634489
0.199007
-0.00330658
0.211662
0.218082
-0.0113997
0.0750718
0.0109748
-0.0115488
0.0887085
-0.0114058
0.10267
-0.0110312
0.118935
-0.01037
0.137744
-0.00927077
0.158488
-0.00761922
0.179139
-0.00542286
0.196811
-0.00281941
0.209058
0.215262
-0.00998498
0.0753871
0.00966975
-0.0100297
0.0887532
-0.00980693
0.102447
-0.00939937
0.118527
-0.00875991
0.137105
-0.00776927
0.157498
-0.0063425
0.177713
-0.00448961
0.194958
-0.00232666
0.206895
0.212936
-0.00852422
0.0755739
0.00833736
-0.00846843
0.0886974
-0.008167
0.102146
-0.00773084
0.118091
-0.00711936
0.136494
-0.00624741
0.156626
-0.0050546
0.17652
-0.00355263
0.193456
-0.00183214
0.205175
0.211104
-0.00704208
0.0756085
0.0070075
-0.00689338
0.0885487
-0.00651039
0.101763
-0.00605095
0.117631
-0.00547111
0.135914
-0.00472497
0.15588
-0.00377064
0.175566
-0.002621
0.192306
-0.00134102
0.203895
0.209763
-0.00557324
0.0754658
0.00571597
-0.00534015
0.0883156
-0.00486883
0.101291
-0.00438831
0.117151
-0.00384022
0.135366
-0.00322238
0.155262
-0.00250614
0.174849
-0.00170427
0.191504
-0.000858316
0.203049
0.208904
-0.00416615
0.0751496
0.00448229
-0.00383575
0.0879852
-0.0032846
0.10074
-0.00277641
0.116643
-0.00226072
0.13485
-0.00176203
0.154763
-0.00127608
0.174363
-0.000814313
0.191043
-0.000390054
0.202625
0.208514
-0.00286246
0.0746759
0.00333617
-0.00241702
0.0875398
-0.00180281
0.100126
-0.00126115
0.116101
-0.000780827
0.13437
-0.000396477
0.154379
-0.000133456
0.1741
-1.5232e-06
0.190911
4.1761e-05
0.202581
0.208556
-0.00169154
0.0740745
0.00229298
-0.00110849
0.0869567
-0.000466937
0.0994844
0.000104711
0.115529
0.000617436
0.133857
0.00092723
0.154069
0.00100163
0.174026
0.000837618
0.191075
0.000477932
0.202941
0.209034
-0.000678216
0.0733959
0.0013568
3.0328e-05
0.0862482
0.000818222
0.0986965
0.00149432
0.114853
0.00197182
0.133379
0.00218125
0.15386
0.00206285
0.174144
0.00160695
0.191531
0.000882559
0.203665
0.209916
0.000185578
0.0726965
0.000513879
0.00118142
0.0852523
0.00200459
0.0978733
0.00271514
0.114143
0.00318792
0.132907
0.00331984
0.153728
0.0030311
0.174433
0.00231061
0.192251
0.00125106
0.204725
0.211168
0.00107733
0.0718727
-0.000253606
0.00215723
0.0841724
0.00304114
0.0969894
0.0038034
0.11338
0.00428443
0.132426
0.00436037
0.153652
0.00392468
0.174869
0.00296387
0.193212
0.00159334
0.206095
0.212761
0.00178299
0.0710294
-0.000939697
0.00297673
0.0829787
0.00391103
0.0960551
0.00471746
0.112574
0.0052067
0.131936
0.00523999
0.153618
0.00468431
0.175424
0.00352101
0.194375
0.00188253
0.207734
0.214643
0.00242599
0.0702046
-0.00160115
0.00372477
0.0816799
0.00471504
0.0950648
0.00556703
0.111722
0.00607458
0.131429
0.00607597
0.153617
0.00540943
0.176091
0.00405253
0.195732
0.00215892
0.209627
0.216802
0.00275143
0.0696997
-0.00224649
0.00409111
0.0803402
0.00512988
0.0940261
0.00601166
0.11084
0.00653982
0.130901
0.00654233
0.153615
0.00582928
0.176804
0.00436611
0.197195
0.00231305
0.211681
0.219115
-0.0562185
0.0635574
0.0623607
-0.0507205
0.0748423
-0.0467185
0.0900241
-0.0424918
0.106614
-0.0379108
0.12632
-0.0324971
0.148201
-0.0258633
0.17017
-0.017987
0.189319
-0.00918784
0.202881
0.209928
-0.0675372
0.0585692
0.0725255
-0.0626552
0.0699602
-0.0579991
0.085368
-0.052775
0.101389
-0.0471926
0.120737
-0.0404388
0.141447
-0.0321844
0.161916
-0.0224568
0.179591
-0.0116302
0.192055
0.198297
-0.0806731
0.0536899
0.0855524
-0.0756784
0.0649656
-0.0701732
0.0798628
-0.0640386
0.0952548
-0.0572165
0.113915
-0.0487038
0.132934
-0.0385047
0.151717
-0.0266336
0.16772
-0.0134894
0.178911
0.184808
-0.0966345
0.0489847
0.10134
-0.0910664
0.0593974
-0.0848228
0.0736192
-0.0777466
0.0881786
-0.0693272
0.105496
-0.0587321
0.122339
-0.0462997
0.139284
-0.0320339
0.153454
-0.0165355
0.163412
0.168273
-0.114623
0.0434044
0.120203
-0.108495
0.0532693
-0.101255
0.0663792
-0.0924585
0.0793824
-0.0816165
0.0946538
-0.0684218
0.109144
-0.0533693
0.124232
-0.036305
0.13639
-0.0180911
0.145198
0.150181
-0.136601
0.0378286
0.142176
-0.129295
0.0459636
-0.120486
0.0575703
-0.109445
0.0683416
-0.0960741
0.0812828
-0.0803611
0.0934314
-0.0624601
0.106331
-0.0425078
0.116438
-0.0217866
0.124477
0.128395
-0.158651
0.0306167
0.165863
-0.149761
0.037074
-0.138721
0.0465305
-0.124928
0.0545483
-0.108668
0.0650223
-0.0896293
0.074393
-0.0678921
0.0845937
-0.0442851
0.092831
-0.0208549
0.101047
0.10754
-0.182887
0.0230058
0.190498
-0.172332
0.0265186
-0.159213
0.0334119
-0.143277
0.0386124
-0.124604
0.0463493
-0.102715
0.052504
-0.0782482
0.0601269
-0.0524724
0.0670552
-0.0276321
0.0762065
0.0799078
-0.19985
0.0110453
0.21181
-0.186473
0.0131424
-0.16972
0.0166586
-0.150303
0.0191952
-0.127292
0.0233387
-0.10121
0.0264219
-0.0720309
0.0309477
-0.0403192
0.0353435
-0.00863886
0.0445261
0.0712689
-0.280843
0.291888
-0.2677
-0.251042
-0.231847
-0.208508
-0.182086
-0.151139
-0.115795
-0.0712689
-0.000286853
0.0643886
-0.00174105
-0.00174998
0.0739886
-0.00294704
0.0867495
-0.00384359
0.102236
-0.00437544
0.120735
-0.00449347
0.142294
-0.00408532
0.165455
-0.00315735
0.18957
-0.0026939
0.211347
0.289194
0.000202993
0.0663177
-0.00213208
-0.0013867
0.0755783
-0.00265341
0.0880162
-0.00357661
0.103159
-0.00415035
0.121309
-0.00428788
0.142432
-0.00394758
0.165114
-0.00304841
0.188671
-0.00244971
0.210748
0.286745
0.000769565
0.0680989
-0.0025507
-0.000811608
0.0771594
-0.00205289
0.0892575
-0.00296341
0.10407
-0.00356157
0.121907
-0.00373135
0.142602
-0.00349199
0.164875
-0.00269003
0.187869
-0.00221341
0.210271
0.284531
0.00130272
0.0697913
-0.00299518
-0.000265952
0.0787281
-0.00138376
0.0903753
-0.00225172
0.104938
-0.00282688
0.122482
-0.00304272
0.142818
-0.00288138
0.164714
-0.00224166
0.187229
-0.00190279
0.209932
0.282628
0.00182737
0.0714227
-0.0034587
0.000330565
0.0802249
-0.000715851
0.0914217
-0.0015272
0.105749
-0.0020662
0.123021
-0.00230522
0.143057
-0.00221363
0.164622
-0.00173498
0.186751
-0.00154372
0.209741
0.281085
0.00238079
0.0729715
-0.00392962
0.0010193
0.0815864
-9.93676e-06
0.0924509
-0.000740735
0.10648
-0.00124342
0.123524
-0.00150325
0.143316
-0.00148705
0.164606
-0.00117436
0.186438
-0.00114612
0.209713
0.279939
0.00296371
0.0744076
-0.00439986
0.00174373
0.0828064
0.000843577
0.0933511
0.000118838
0.107205
-0.000335675
0.123978
-0.000625519
0.143606
-0.000675118
0.164655
-0.000561801
0.186325
-0.000708825
0.20986
0.27923
0.00356897
0.075701
-0.00486234
0.00250081
0.0838745
0.00170904
0.0941429
0.00109914
0.107815
0.000649816
0.124427
0.000335467
0.143921
0.000218917
0.164772
9.22796e-05
0.186451
-0.000226617
0.210179
0.279003
0.00418992
0.0768183
-0.0053072
0.0032796
0.0847849
0.00260294
0.0948195
0.00208967
0.108328
0.00168735
0.12483
0.00137132
0.144237
0.00111964
0.165024
0.000858879
0.186712
0.000265474
0.210772
0.279269
0.00481309
0.0777255
-0.00572031
0.00406739
0.0855306
0.00351511
0.0953718
0.00310206
0.108741
0.00275411
0.125178
0.00242304
0.144568
0.00207092
0.165376
0.00161968
0.187163
0.000765671
0.211626
0.280034
0.00541699
0.0783867
-0.00607821
0.00484327
0.0861043
0.0044245
0.0957906
0.00411746
0.109048
0.00382749
0.125468
0.00348725
0.144908
0.00303883
0.165824
0.00239269
0.187809
0.00128566
0.212733
0.28132
0.00599378
0.0787697
-0.00637672
0.00559815
0.0864999
0.00532027
0.0960685
0.00512458
0.109244
0.00489825
0.125694
0.0045574
0.145249
0.00401386
0.166368
0.00317851
0.188645
0.00181502
0.214097
0.283135
0.00651415
0.0788568
-0.00660122
0.0063056
0.0867085
0.00617541
0.0961986
0.00609446
0.109325
0.00594042
0.125848
0.00560876
0.14558
0.00497821
0.166998
0.00396348
0.189659
0.00234582
0.215714
0.285481
0.00695895
0.0786425
-0.00674465
0.0069472
0.0867202
0.00696682
0.096179
0.00700366
0.109288
0.00693232
0.125919
0.00661883
0.145894
0.0059144
0.167703
0.00473247
0.190841
0.00286895
0.217578
0.28835
0.00731311
0.0781335
-0.00680417
0.00750731
0.086526
0.00767485
0.0960115
0.00783156
0.109131
0.00785236
0.125899
0.00757024
0.146176
0.00681113
0.168462
0.00547702
0.192175
0.0033813
0.219674
0.291731
0.00756483
0.0773531
-0.00678445
0.00797128
0.0861196
0.00828067
0.0957021
0.00855613
0.108856
0.00867439
0.12578
0.00843611
0.146414
0.00764424
0.169254
0.00617719
0.193642
0.00386909
0.221982
0.2956
0.00771417
0.0763396
-0.00670066
0.0083357
0.085498
0.00877967
0.0952581
0.00917266
0.108463
0.00939598
0.125557
0.00921807
0.146592
0.0084155
0.170056
0.00683682
0.195221
0.004336
0.224483
0.299936
0.00775324
0.0751641
-0.00657771
0.00857499
0.0846763
0.00914041
0.0946927
0.00963931
0.107964
0.00996494
0.125231
0.00985684
0.1467
0.00906948
0.170844
0.00741643
0.196874
0.00475653
0.227142
0.304693
0.00776776
0.0738584
-0.00646206
0.00877923
0.0836648
0.00945283
0.0940191
0.0100479
0.107369
0.0104755
0.124804
0.0104451
0.146731
0.00968148
0.171607
0.00796175
0.198594
0.00515247
0.229952
0.309845
0.00747947
0.0727242
-0.00634526
0.00859421
0.0825501
0.00940495
0.0932084
0.0100897
0.106684
0.0106275
0.124266
0.0106989
0.146659
0.0100335
0.172273
0.00831453
0.200313
0.00546448
0.232802
0.31531
-0.0409114
0.0668941
0.0467415
-0.0344192
0.0760578
-0.0293547
0.0881439
-0.02447
0.101799
-0.0197181
0.119514
-0.0147705
0.141712
-0.00955222
0.167054
-0.00456152
0.195322
-0.00173534
0.229976
0.313574
-0.0566855
0.0608188
0.0627608
-0.0503092
0.0696815
-0.0440755
0.0819101
-0.0375401
0.095264
-0.0310396
0.113014
-0.0239878
0.13466
-0.0163679
0.159434
-0.00889373
0.187848
-0.00384649
0.224928
0.309728
-0.0738841
0.0544329
0.08027
-0.0667904
0.0625879
-0.0593586
0.0744783
-0.0515054
0.0874108
-0.0434196
0.104928
-0.0341223
0.125363
-0.023951
0.149263
-0.0137456
0.177643
-0.00578064
0.216963
0.303947
-0.0928926
0.0480213
0.0993043
-0.0848216
0.0545169
-0.0765363
0.066193
-0.0675143
0.0783888
-0.0575007
0.0949142
-0.0455895
0.113451
-0.0325646
0.136238
-0.0192645
0.164343
-0.00818003
0.205879
0.295767
-0.11426
0.0405212
0.12176
-0.106032
0.0462887
-0.0971145
0.0572759
-0.086395
0.0676693
-0.0739324
0.0824516
-0.0592352
0.0987542
-0.0431357
0.120139
-0.0261789
0.147386
-0.0111782
0.190878
0.284589
-0.140186
0.0333528
0.147355
-0.131083
0.0371848
-0.120647
0.0468408
-0.107839
0.0548612
-0.0930549
0.0676671
-0.0757449
0.0814442
-0.0563744
0.100768
-0.0354279
0.126439
-0.0161369
0.171587
0.268452
-0.169701
0.0243753
0.178678
-0.160171
0.0276551
-0.148373
0.0350422
-0.134209
0.0406975
-0.117667
0.0511255
-0.0977189
0.0614958
-0.0749837
0.0780329
-0.0498631
0.101319
-0.0243878
0.146112
0.244064
-0.204874
0.0155279
0.213722
-0.194194
0.0169753
-0.181126
0.021974
-0.165877
0.0254487
-0.147509
0.0327575
-0.125835
0.0398218
-0.101141
0.0533388
-0.0729242
0.0731015
-0.0405367
0.113725
0.203527
-0.255803
0.00606574
0.265265
-0.245743
0.00691602
-0.232961
0.00919201
-0.218631
0.0111187
-0.200748
0.0148738
-0.180108
0.0191822
-0.154265
0.0274954
-0.121318
0.0401543
-0.0739289
0.0663359
0.129599
-0.324867
0.330933
-0.317951
-0.308759
-0.29764
-0.282766
-0.263584
-0.236089
-0.195934
-0.129599
0.00277686
0.0489677
-0.00500309
-2.70838e-05
0.0655647
-0.00195614
0.082199
-0.00366237
0.101011
-0.00498337
0.123081
-0.00595975
0.148331
-0.00623213
0.178951
-0.00607786
0.213567
-0.00423087
0.263418
0.326702
0.00283754
0.0508489
-0.00471868
0.000429217
0.067973
-0.00158383
0.0842121
-0.00330079
0.102727
-0.00465246
0.124432
-0.00562738
0.149306
-0.00597734
0.179301
-0.00582906
0.213419
-0.0041102
0.261699
0.322592
0.0030986
0.0522726
-0.00452236
0.00101703
0.0700546
-0.000912201
0.0861413
-0.00256611
0.104381
-0.00390285
0.125769
-0.00487139
0.150275
-0.00529874
0.179728
-0.00517451
0.213295
-0.00376532
0.26029
0.318826
0.00342808
0.053254
-0.00440945
0.00164618
0.0718365
-0.000184036
0.0879715
-0.00170348
0.105901
-0.00298195
0.127048
-0.00396115
0.151254
-0.00444669
0.180214
-0.00443917
0.213287
-0.00331969
0.25917
0.315507
0.00380782
0.0538044
-0.00435817
0.00235283
0.0732915
0.000726885
0.0895975
-0.000767469
0.107395
-0.00197246
0.128253
-0.00295551
0.152237
-0.00350568
0.180764
-0.00364502
0.213427
-0.00280866
0.258334
0.312698
0.00425929
0.0538916
-0.00434658
0.00316946
0.0743813
0.0017524
0.0910145
0.000307633
0.10884
-0.000847693
0.129408
-0.00184407
0.153233
-0.00248201
0.181402
-0.00278257
0.213727
-0.00224581
0.257797
0.310452
0.00478596
0.0534606
-0.00435495
0.00409107
0.0750762
0.00289199
0.0922136
0.00160775
0.110124
0.000428687
0.130587
-0.000628542
0.154291
-0.0013458
0.182119
-0.00184719
0.214229
-0.00163765
0.257588
0.308815
0.00536155
0.0524615
-0.0043624
0.00509707
0.0753407
0.00413463
0.0931761
0.00297951
0.111279
0.00185286
0.131714
0.000758721
0.155385
-5.38602e-05
0.182932
-0.000851405
0.215026
-0.000985931
0.257722
0.307829
0.00595263
0.0508568
-0.00434795
0.00616257
0.0751308
0.00545955
0.0938791
0.00443549
0.112303
0.0033479
0.132801
0.00225175
0.156481
0.00123745
0.183946
0.000195266
0.216068
-0.000286609
0.258204
0.307542
0.00652134
-0.00429495
0.00725969
0.00684479
0.00596051
0.00490786
0.00378233
0.00262188
0.0013879
0.000401205
0.000255019
-0.000957892
0.000842191
-0.00267347
0.00168516
-0.00394625
0.00272453
-0.00481563
0.00391603
-0.00534009
0.00522992
-0.00558064
0.00665103
-0.0055942
0.00818277
-0.00543097
0.00986908
-0.00514597
-0.00485621
0.00031083
-0.00126872
0.00098646
-0.0033491
0.00192296
-0.00488275
0.00304491
-0.00593757
0.00430022
-0.0065954
0.00565726
-0.00693767
0.00710215
-0.0070391
0.00863713
-0.00696595
0.0102747
-0.00678354
-0.00657546
0.000356011
-0.00162473
0.00109107
-0.00408416
0.0020728
-0.00586448
0.00321005
-0.00707482
0.00444392
-0.00782927
0.00574133
-0.00823509
0.0070883
-0.00838607
0.00848304
-0.0083607
0.00992453
-0.00822503
-0.00804035
0.000386457
-0.00201119
0.00114458
-0.00484228
0.00211536
-0.00683526
0.00319511
-0.00815457
0.00432208
-0.00895624
0.00546577
-0.00937877
0.00661638
-0.00953668
0.00777536
-0.00951968
0.00894508
-0.00939474
-0.00921437
0.000398592
-0.00240978
0.00113864
-0.00558232
0.00203991
-0.00773654
0.00299252
-0.00910718
0.00393817
-0.00990189
0.00485441
-0.010295
0.00574053
-0.0104228
0.00660624
-0.0103854
0.00746329
-0.0102518
-0.0100729
0.000389677
-0.00279946
0.00106885
-0.00626149
0.00184527
-0.00851296
0.00261151
-0.00987342
0.00331968
-0.0106101
0.00396009
-0.0109354
0.00454361
-0.0110063
0.00508926
-0.010931
0.00561712
-0.0107797
-0.0106024
0.000358156
-0.00315762
0.000935335
-0.00683867
0.00153958
-0.00911721
0.00207531
-0.0104092
0.00251084
-0.0110456
0.00285143
-0.011276
0.00311901
-0.0112739
0.00333946
-0.0111515
0.00353678
-0.010977
-0.010798
0.000303932
-0.00346155
0.000742805
-0.00727754
0.00113887
-0.00951327
0.00141675
-0.010687
0.00156417
-0.011193
0.00160074
-0.0113126
0.00155659
-0.0112297
0.00146034
-0.0110552
0.00133514
-0.0108518
-0.0106589
0.000228479
-0.00369003
0.000499959
-0.00754902
0.000664633
-0.00967794
0.000673228
-0.0106956
0.000533178
-0.011053
0.000275564
-0.011055
-6.53672e-05
-0.0108888
-0.000461242
-0.0106594
-0.000893127
-0.0104199
-0.0102017
0.000134664
-0.00382469
0.000218409
-0.00763277
0.00014118
-0.00960071
-0.000117522
-0.0104369
-0.000532524
-0.010638
-0.00106527
-0.0105222
-0.00168095
-0.0102731
-0.0023552
-0.00998511
-0.00307331
-0.00970178
-0.00944518
4.52339e-05
-0.00386992
-6.2094e-05
-0.00752544
-0.000379835
-0.00928297
-0.000895488
-0.00992128
-0.00156853
-0.00996492
-0.00235598
-0.00973478
-0.00322496
-0.00940415
-0.00415529
-0.00905477
-0.0051372
-0.00871988
-0.00841189
-6.62508e-05
-0.00380367
-0.000373083
-0.00721861
-0.000922685