/*--------------------------------*- C++ -*----------------------------------*\
  =========                 |
  \\      /  F ield         | OpenFOAM: The Open Source CFD Toolbox
   \\    /   O peration     | Website:  https://openfoam.org
    \\  /    A nd           | Version:  7
     \\/     M anipulation  |
\*---------------------------------------------------------------------------*/
FoamFile
{
    version     2.0;
    format      ascii;
    class       surfaceScalarField;
    location    "25";
    object      phi;
}
// * * * * * * * * * * * * * * * * * * * * * * * * * * * * * * * * * * * * * //

dimensions      [0 3 -1 0 0 0 0];

internalField   nonuniform List<scalar> 
3880
(
0.000569583
0.00196171
-0.00253129
0.00182173
0.00714752
-0.00839966
0.00344302
0.0126651
-0.0142864
0.00513509
0.0178092
-0.0195012
0.00670807
0.022242
-0.023815
0.00809695
0.0259181
-0.0273069
0.0093222
0.0289473
-0.0301726
0.0104391
0.0314772
-0.032594
0.0114977
0.0336232
-0.0346819
0.035445
0.0125205
-0.0364678
0.000551509
0.0014102
0.00184619
0.00585284
0.0036402
0.010871
0.00565174
0.0157976
0.00765337
0.0202404
0.00951996
0.0240515
0.0112194
0.0272479
0.0127758
0.0299208
0.0142298
0.0321692
0.0340649
0.0156099
0.000509658
0.000900539
0.00178491
0.00457759
0.00366229
0.00899366
0.00590684
0.0135531
0.00828347
0.0178638
0.0106189
0.0217161
0.0128211
0.0250456
0.0148654
0.0278765
0.0167654
0.0302692
0.032282
0.0185483
0.000448246
0.000452292
0.0016469
0.00337894
0.00351139
0.00712917
0.00587389
0.0111906
0.00852559
0.0152121
0.0112732
0.0189685
0.0139745
0.0223443
0.0165472
0.0253037
0.018958
0.0278585
0.0300261
0.0212138
0.000372304
7.99882e-05
0.00144716
0.00230408
0.00320738
0.00536895
0.00555789
0.00884008
0.0083427
0.0124272
0.0113839
0.0159273
0.0145178
0.0192105
0.0176153
0.0222062
0.0205878
0.024886
0.0272146
0.0233993
0.000287685
-0.000207697
0.00120554
0.00138622
0.00278637
0.00378812
0.00499936
0.00662709
0.00775237
0.00967425
0.0109123
0.0127674
0.0143304
0.0157923
0.0178631
0.0186735
0.0213838
0.0213653
0.0237919
0.0248065
0.000200948
-0.000408645
0.000945334
0.000641834
0.00229669
0.00243676
0.00427067
0.00465312
0.00683343
0.00711148
0.00990951
0.00969129
0.0133951
0.0123068
0.017172
0.0148967
0.0211166
0.0174206
0.0197937
0.0251148
0.000119601
-0.000528246
0.000692609
6.88266e-05
0.00179528
0.0013341
0.00346834
0.00298006
0.00571911
0.00486071
0.00852453
0.00688587
0.0118375
0.00899375
0.0155967
0.0111375
0.0197271
0.0132902
0.0153867
0.0241342
5.2138e-05
-0.000580384
0.000475215
-0.00035425
0.00134371
0.000465596
0.00270325
0.00162053
0.00458013
0.00298383
0.0069854
0.00448061
0.00992047
0.00605869
0.0133887
0.00766931
0.0174076
0.0092712
0.0107777
0.0220166
8.43221e-06
-0.000588816
0.000320309
-0.000666127
0.00100267
-0.000216765
0.00208884
0.000534353
0.00360284
0.00146983
0.00556434
0.00251911
0.00799381
0.00362922
0.0109247
0.0047384
0.0144893
0.00570667
0.0190939
0.00617308
0.0120081
0.139674
-0.139161
0.0106099
0.145534
-0.144136
0.0090077
0.146221
-0.144619
0.00736496
0.145794
-0.144152
0.00576177
0.14547
-0.143866
0.00424653
0.146539
-0.145024
0.00284545
0.153164
-0.151763
0.00151641
0.17766
-0.176331
0.000465551
0.229479
-0.228428
0.293836
-0.293371
0.0150934
0.14019
0.0134873
0.14714
0.0115477
0.148161
0.00953942
0.147803
0.00759613
0.147413
0.00577343
0.148362
0.00413821
0.154799
0.00261299
0.179185
0.00115672
0.230935
0.294993
0.0181154
0.140623
0.0163665
0.148889
0.0141126
0.150415
0.0117434
0.150172
0.00945511
0.149701
0.00731768
0.150499
0.00543405
0.156683
0.00370009
0.180919
0.00184957
0.232786
0.296843
0.0210296
0.140808
0.0192116
0.150707
0.0166701
0.152956
0.0139536
0.152888
0.0113227
0.152332
0.00886576
0.152956
0.00672494
0.158824
0.00477785
0.182866
0.00253579
0.235028
0.299378
0.0237838
0.140423
0.0220083
0.152482
0.0192062
0.155758
0.016153
0.155942
0.0131778
0.155307
0.0103953
0.155739
0.00799135
0.161228
0.00582608
0.185031
0.003205
0.237649
0.302583
0.0262656
0.138964
0.0246697
0.154078
0.0216663
0.158762
0.0183195
0.159288
0.0150129
0.158614
0.0119051
0.158847
0.00923445
0.163898
0.00685146
0.187414
0.0038594
0.240641
0.306443
0.0284175
0.135661
0.0272315
0.155264
0.0240758
0.161917
0.0204359
0.162928
0.0167894
0.162261
0.0133543
0.162282
0.0104166
0.166836
0.00782072
0.19001
0.00448228
0.24398
0.310925
0.0299126
0.129883
0.029397
0.15578
0.0263071
0.165007
0.0224866
0.166749
0.0185443
0.166203
0.0147904
0.166036
0.0115771
0.170049
0.00876114
0.192826
0.00508476
0.247656
0.31601
0.0310535
0.120846
0.031525
0.155308
0.0284946
0.168038
0.024408
0.170835
0.0201417
0.170469
0.0160762
0.170101
0.0126136
0.173512
0.0096058
0.195834
0.00563669
0.251625
0.321646
0.0306794
0.10926
0.0328718
0.153116
0.0305259
0.170384
0.0264423
0.174919
0.021948
0.174963
0.0175383
0.174511
0.0137694
0.177281
0.0104803
0.199123
0.00623079
0.255875
0.327877
0.0291974
0.0979431
-0.01788
0.0301272
0.152186
0.0264022
0.174109
0.0212907
0.18003
0.0163537
0.1799
0.0121805
0.178684
0.00835117
0.18111
0.00449741
0.202977
0.00108019
0.259292
0.328957
0.0264965
0.0926211
-0.0211745
0.0290239
0.149659
0.0268483
0.176284
0.0228063
0.184072
0.0183304
0.184376
0.0139973
0.183017
0.00961413
0.185493
0.00511087
0.20748
0.00139562
0.263007
0.330353
0.023469
0.0918023
-0.0226502
0.0242287
0.148899
0.0207641
0.179749
0.0162981
0.188538
0.0124917
0.188183
0.00948718
0.186022
0.00653164
0.188449
0.0032448
0.210767
0.000655342
0.265597
0.331008
0.0184571
0.0930132
-0.019668
0.0203135
0.147042
0.0193015
0.180761
0.0159078
0.191932
0.0121181
0.191972
0.00886415
0.189276
0.00569675
0.191616
0.00251276
0.213951
0.000345698
0.267764
0.331354
0.0108382
0.0963422
-0.0141672
0.0102278
0.147653
0.00923524
0.181754
0.00777995
0.193387
0.00601923
0.193733
0.00401897
0.191276
0.00160381
0.194032
-0.000415628
0.21597
-0.00117237
0.26852
0.330182
0.00555693
0.0978417
-0.00705652
0.00675994
0.14645
0.00654176
0.181972
0.0047537
0.195175
0.00266536
0.195822
0.000479652
0.193461
-0.00168877
0.1962
-0.00294515
0.217227
-0.00208919
0.267664
0.328093
-0.0033311
0.102037
-0.000863817
-0.00368576
0.146805
-0.00180304
0.180089
-0.00128324
0.194656
-0.0028643
0.197403
-0.00570247
0.1963
-0.00869283
0.19919
-0.00963804
0.218172
-0.0061491
0.264175
0.321943
-0.00291427
0.104176
0.000775083
-0.00361613
0.147506
-0.00425146
0.180724
-0.00426698
0.194671
-0.00552665
0.198662
-0.00841439
0.199187
-0.0118247
0.202601
-0.0129271
0.219274
-0.00835569
0.259604
0.313588
-0.00952359
0.110214
0.00348591
-0.00835514
0.146338
-0.00775366
0.180123
-0.00845106
0.195369
-0.0106753
0.200887
-0.0145538
0.203066
-0.0190919
0.207139
-0.0207912
0.220974
-0.0145224
0.253335
0.299065
-0.00331888
-0.00398588
-0.00579155
-0.00582621
-0.00674215
-0.00891225
-0.0123468
-0.0162967
-0.0181806
-0.0132837
0.0163184
-0.0205623
-0.0136361
0.0188605
-0.0237167
0.0203457
-0.0241354
0.0209458
-0.0202681
0.0211219
-0.0143433
0.0214787
-0.00741338
0.0226169
-0.00200193
0.0237277
-0.000335742
0.0261835
0.00103012
-0.00568009
0.0153748
-0.0241606
-0.0117764
0.0186106
-0.0269525
0.0202217
-0.0257466
0.0206996
-0.020746
0.0206649
-0.0143085
0.0209134
-0.00766192
0.021775
-0.00286356
0.0228419
-0.00140258
0.0248767
-0.00100468
-0.00671401
0.0163517
-0.0287576
-0.0117547
0.0194762
-0.030077
0.020675
-0.0269453
0.0207261
-0.0207971
0.0203617
-0.0139441
0.0203669
-0.0076671
0.0209248
-0.00342151
0.0217576
-0.00223537
0.0231588
-0.00240588
-0.00704648
0.0180515
-0.0336296
-0.0131796
0.0205557
-0.0325812
0.0211108
-0.0275005
0.0206576
-0.0203439
0.0199445
-0.013231
0.0196545
-0.00737705
0.0198441
-0.00361111
0.0202798
-0.0026711
0.0209117
-0.00303773
-0.00673774
0.0195344
-0.0379499
-0.0152141
0.021079
-0.0341257
0.0209431
-0.0273647
0.0200499
-0.0194506
0.0190615
-0.0122427
0.0184842
-0.00679972
0.0182797
-0.00340658
0.0182161
-0.00260747
0.0180933
-0.00291499
-0.0059356
0.0200353
-0.0410646
-0.0169206
0.0205137
-0.0346042
0.0197792
-0.0266301
0.0185848
-0.0182563
0.017433
-0.0110909
0.0166209
-0.00598761
0.0160465
-0.00283219
0.0154869
-0.00204792
0.0147674
-0.0021955
-0.00483735
0.0190878
-0.0426671
-0.0174854
0.0186162
-0.0341326
0.017468
-0.0254818
0.0161352
-0.0169234
0.0149336
-0.00988929
0.0139639
-0.00501793
0.0130971
-0.00196537
0.0121565
-0.0011073
0.0110905
-0.00112958
-0.00364695
0.0165897
-0.0428238
-0.016433
0.015429
-0.032972
0.0140866
-0.0241394
0.0127629
-0.0155998
0.0116079
-0.00873431
0.010571
-0.003981
0.00953845
-0.000932848
0.00841194
1.92094e-05
0.00727376
8.60724e-06
-0.0025377
0.0127768
-0.0418516
-0.013749
0.0112276
-0.0314228
0.00988596
-0.0227977
0.0086822
-0.014396
0.00764507
-0.00769718
0.00664011
-0.00297604
0.00559309
0.000114171
0.00451358
0.00109872
0.00353515
0.000987043
-0.00162797
0.00810694
-0.0401459
-0.00981263
0.00642291
-0.0297387
0.00521337
-0.0215882
0.00419937
-0.013382
0.00332914
-0.00682694
0.00246091
-0.00210782
0.00156576
0.00100932
0.000730374
0.00193411
8.83037e-07
0.00171653
-0.00102024
0.00309068
-0.0380426
-0.00519395
0.00147306
-0.0281211
0.000418133
-0.0205332
-0.000324442
-0.0126394
-0.00101951
-0.00613188
-0.00165941
-0.00146792
-0.00227946
0.00162937
-0.00278324
0.00243789
-0.00309301
0.0020263
-0.000635975
-0.00185423
-0.035763
-0.000425386
-0.00328404
-0.0266913
-0.00413411
-0.0196832
-0.00469474
-0.0120788
-0.00512119
-0.00570542
-0.00547399
-0.00111511
-0.00573327
0.00188865
-0.00585954
0.00256416
-0.0058296
0.00199636
-0.000470353
-0.0063049
-0.0335371
0.00407898
-0.00755809
-0.0254381
-0.00822418
-0.0190171
-0.00855926
-0.0117437
-0.00873803
-0.00552665
-0.0087814
-0.00107173
-0.00868577
0.00179302
-0.00847369
0.00235208
-0.00819318
0.00171585
-0.000457675
-0.0101294
-0.0314675
0.00805981
-0.0111603
-0.0244072
-0.0116873
-0.0184901
-0.0118044
-0.0116266
-0.011753
-0.00557808
-0.0115149
-0.00130981
-0.0111248
0.00140291
-0.0106677
0.00189498
-0.0102413
0.00128949
-0.000529476
-0.013222
-0.0296172
0.0113717
-0.0140377
-0.0235915
-0.0144577
-0.0180701
-0.0143897
-0.0116946
-0.0141454
-0.00582235
-0.0136943
-0.0017609
-0.0131066
0.000815203
-0.0125175
0.00130588
-0.0120437
0.000815667
-0.000626615
-0.0155872
-0.027995
0.013965
-0.0162162
-0.0229625
-0.0165522
-0.0177341
-0.0163521
-0.0118947
-0.0159706
-0.00620388
-0.0153984
-0.00233314
-0.0147207
0.000137475
-0.014107
0.000692211
-0.0136641
0.000372814
-0.000701961
-0.017296
-0.026557
0.015858
-0.0177753
-0.0224832
-0.0180433
-0.017466
-0.0177804
-0.0121576
-0.0173249
-0.00665933
-0.0167267
-0.00293137
-0.0160613
-0.000527858
-0.0155087
0.000139568
-0.0151531
1.72323e-05
-0.000718424
-0.0184277
-0.0252417
0.0171123
-0.018815
-0.0220959
-0.0190276
-0.0172534
-0.0187803
-0.012405
-0.0183156
-0.00712403
-0.0177786
-0.00346837
-0.0172007
-0.00110569
-0.0167742
-0.000286962
-0.0165494
-0.00020751
-0.000647317
-0.019048
-0.0240241
0.0178303
-0.0194365
-0.0217074
-0.0196045
-0.0170854
-0.0194466
-0.0125629
-0.0190317
-0.0075389
-0.0186327
-0.00386739
-0.0181894
-0.00154897
-0.0179424
-0.000534015
-0.017872
-0.000277901
-0.000459468
-0.0192389
-0.0229762
0.018191
-0.0197129
-0.0212334
-0.0198071
-0.0169912
-0.0197925
-0.0125774
-0.0194897
-0.00784178
-0.0192945
-0.00406257
-0.019054
-0.00178949
-0.0190254
-0.000562634
-0.0191344
-0.000168867
-0.000124668
-0.079228
-0.0205983
0.0768502
-0.0835499
-0.0169115
-0.0860024
-0.0145387
-0.087652
-0.0109278
-0.0876451
-0.00784868
-0.0871205
-0.00458716
-0.0858718
-0.00303826
-0.085099
-0.00133539
-0.0844848
-0.000783099
-5.8091e-05
-0.0997249
-0.0180251
0.0971517
-0.102009
-0.0146277
-0.103707
-0.0128405
-0.105084
-0.00955061
-0.105655
-0.00727761
-0.105692
-0.00455055
-0.105382
-0.00334825
-0.105156
-0.0015616
-0.104936
-0.00100231
1.68687e-05
-0.119052
-0.0157225
0.116749
-0.121109
-0.0125702
-0.122902
-0.0110478
-0.124297
-0.00815559
-0.12515
-0.00642425
-0.125512
-0.00418929
-0.125706
-0.00315424
-0.125669
-0.00159808
-0.125666
-0.00100542
4.25764e-06
-0.140557
-0.0138226
0.138657
-0.142521
-0.0106066
-0.144289
-0.00927975
-0.145604
-0.0068401
-0.146527
-0.00550092
-0.147019
-0.0036976
-0.147339
-0.00283422
-0.147373
-0.00156409
-0.147386
-0.000992442
-4.75265e-05
-0.165863
-0.0117095
0.16375
-0.167558
-0.00891177
-0.169101
-0.00773632
-0.17031
-0.00563158
-0.171183
-0.00462793
-0.171702
-0.00317816
-0.172024
-0.0025124
-0.172107
-0.00148133
-0.172155
-0.000944441
-6.35617e-05
-0.195977
-0.00966828
0.193935
-0.197671
-0.00721745
-0.19917
-0.00623693
-0.200329
-0.00447255
-0.201181
-0.00377626
-0.201764
-0.00259506
-0.202157
-0.00211931
-0.202394
-0.00124426
-0.202526
-0.000812727
-4.15065e-05
-0.233431
-0.00740546
0.231168
-0.235453
-0.00519533
-0.23711
-0.00457942
-0.238282
-0.00330049
-0.239184
-0.00287424
-0.239882
-0.00189751
-0.240445
-0.0015561
-0.240897
-0.000792599
-0.24121
-0.000499648
3.73183e-05
-0.279208
-0.00464339
0.276446
-0.28063
-0.00377338
-0.282026
-0.00318298
-0.283195
-0.0021319
-0.284262
-0.00180735
-0.285089
-0.00107013
-0.285847
-0.000798267
-0.286451
-0.000188608
-0.286901
-4.98019e-05
0.000145423
-0.319219
-0.00231385
0.31689
-0.321784
-0.00120875
-0.323937
-0.00103028
-0.325302
-0.000766838
-0.326397
-0.00071215
-0.327061
-0.000405607
-0.327645
-0.000214841
-0.327958
0.000124862
-0.328169
0.000161187
0.000135949
-0.34714
0.344826
-0.348349
-0.349379
-0.350146
-0.350858
-0.351263
-0.351478
-0.351353
-0.351192
-0.0214809
0.0789467
0.0193844
-0.0225509
0.0982217
-0.0229978
0.117196
-0.0228817
0.138541
-0.0221901
0.163058
-0.0208119
0.192557
-0.0185786
0.228934
-0.013842
0.271709
-0.00828716
0.311335
0.336539
-0.0203907
0.0802645
0.0190729
-0.0212486
0.0990797
-0.0215529
0.1175
-0.0212958
0.138284
-0.0204827
0.162245
-0.019028
0.191102
-0.0166728
0.226579
-0.0125675
0.267604
-0.0072119
0.305979
0.329327
-0.0194008
0.0813307
0.0183346
-0.0200809
0.0997598
-0.0202486
0.117668
-0.0199162
0.137951
-0.0190713
0.1614
-0.0176488
0.18968
-0.0153618
0.224292
-0.0116465
0.263889
-0.00650701
0.30084
0.32282
-0.0182485
0.0822843
0.0172949
-0.0187808
0.100292
-0.0188042
0.117691
-0.0183831
0.13753
-0.0175059
0.160523
-0.0161163
0.18829
-0.0139396
0.222115
-0.0105653
0.260514
-0.00576876
0.296043
0.317051
-0.0169253
0.0831722
0.0160375
-0.0173405
0.100707
-0.0172466
0.117597
-0.016751
0.137035
-0.0158499
0.159622
-0.0144982
0.186939
-0.0124543
0.220072
-0.00938797
0.257448
-0.00506424
0.29172
0.311987
-0.0154433
0.0839998
0.0146156
-0.0157462
0.10101
-0.0155577
0.117409
-0.0150105
0.136488
-0.0141026
0.158714
-0.0128048
0.185641
-0.0109145
0.218181
-0.00816076
0.254694
-0.00438566
0.287944
0.307601
-0.0138331
0.0847649
0.013068
-0.0140241
0.101201
-0.0137505
0.117135
-0.0131651
0.135902
-0.0122633
0.157813
-0.0110368
0.184414
-0.00932128
0.216466
-0.00690511
0.252278
-0.00370244
0.284742
0.303899
-0.012128
0.0854643
0.0114286
-0.0122135
0.101287
-0.0118611
0.116783
-0.0112424
0.135283
-0.0103528
0.156923
-0.00920893
0.18327
-0.00768566
0.214943
-0.00563157
0.250224
-0.00300564
0.282116
0.300893
-0.0103616
0.0860941
0.00973179
-0.0103506
0.101276
-0.00992611
0.116358
-0.00927776
0.134635
-0.00840207
0.156047
-0.00734693
0.182215
-0.00602627
0.213622
-0.00434814
0.248546
-0.00229814
0.280066
0.298595
-0.0085693
0.0866493
0.00801402
-0.00846819
0.101175
-0.00797767
0.115868
-0.00730329
0.133961
-0.00644013
0.155184
-0.00547837
0.181253
-0.0043648
0.212508
-0.00306793
0.247249
-0.00159087
0.278589
0.297004
-0.00679466
0.0871242
0.00631978
-0.00660697
0.100987
-0.00605202
0.115313
-0.00535366
0.133262
-0.00450129
0.154332
-0.00363124
0.180383
-0.00272131
0.211598
-0.00180454
0.246332
-0.000891462
0.277676
0.296113
-0.0050617
0.0875088
0.00467707
-0.00480376
0.100729
-0.00419089
0.1147
-0.00346059
0.132532
-0.00262992
0.153501
-0.001839
0.179592
-0.00112545
0.210885
-0.000568414
0.245775
-0.000208329
0.277316
0.295904
-0.0034087
0.0877889
0.00312862
-0.00310695
0.100427
-0.00244494
0.114038
-0.00168571
0.131773
-0.000882339
0.152698
-0.000177704
0.178888
0.000384621
0.210323
0.000619672
0.24554
0.000452783
0.277482
0.296357
-0.00187365
0.0879581
0.00170447
-0.0015548
0.100109
-0.000855197
0.113338
-0.000106432
0.131024
0.000771875
0.151819
0.00147583
0.178184
0.00186453
0.209934
0.00175961
0.245645
0.00108237
0.27816
0.29744
-0.000503335
0.0880501
0.00041136
-0.000199112
0.0998043
0.000618894
0.11252
0.00150295
0.13014
0.00236174
0.150961
0.00300598
0.17754
0.00325105
0.209689
0.0028468
0.246049
0.00169008
0.279316
0.29913
0.000752114
0.0880047
-0.000706768
0.00116023
0.0993962
0.00200508
0.111676
0.00290658
0.129239
0.00377252
0.150095
0.00438276
0.176929
0.00450569
0.209566
0.00383538
0.246719
0.00223999
0.280912
0.30137
0.00187323
0.0877894
-0.00165786
0.00234521
0.0989242
0.00321331
0.110807
0.00415413
0.128298
0.00503943
0.149209
0.00564334
0.176325
0.00567717
0.209532
0.00477614
0.247621
0.00277472
0.282913
0.304144
0.00278906
0.0874397
-0.00243941
0.00332027
0.098393
0.00420338
0.109924
0.00517572
0.127325
0.00607179
0.148313
0.00667437
0.175723
0.00664204
0.209564
0.0055593
0.248703
0.00321372
0.285259
0.307358
0.00364938
0.0868923
-0.00310195
0.00426515
0.0977772
0.00514558
0.109044
0.00614647
0.126324
0.00705934
0.1474
0.00767565
0.175107
0.00759479
0.209645
0.00634335
0.249955
0.00366856
0.287934
0.311027
0.00404013
0.0864221
-0.00356989
0.00468366
0.0971337
0.00558141
0.108146
0.00659367
0.125312
0.00750741
0.146487
0.00814811
0.174466
0.00807197
0.209721
0.0067681
0.251259
0.00390296
0.290799
0.31493
-0.0671461
0.0803869
0.0731812
-0.0604829
0.0904705
-0.0540646
0.101728
-0.0480129
0.11926
-0.0416046
0.140078
-0.0349491
0.16781
-0.027649
0.202421
-0.0193323
0.242942
-0.0098875
0.281354
0.305042
-0.083879
0.0728166
0.0914493
-0.0753067
0.0818981
-0.0666202
0.0930414
-0.0592151
0.111855
-0.0517655
0.132629
-0.0439007
0.159946
-0.0351091
0.19363
-0.025013
0.232846
-0.0133331
0.269674
0.291709
-0.0996652
0.0633684
0.109113
-0.0889065
0.0711395
-0.0798016
0.0839365
-0.0721263
0.10418
-0.0634321
0.123935
-0.0536369
0.15015
-0.0429029
0.182896
-0.0302902
0.220233
-0.0154435
0.254827
0.276265
-0.116005
0.053677
0.125696
-0.104928
0.0600632
-0.0970699
0.076078
-0.0886937
0.0958038
-0.0783425
0.113583
-0.0667624
0.13857
-0.0540593
0.170193
-0.0385836
0.204757
-0.0206466
0.23689
0.255619
-0.134227
0.0439414
0.143963
-0.125138
0.0509739
-0.117765
0.068705
-0.10726
0.0852989
-0.0950957
0.101419
-0.0815357
0.12501
-0.065786
0.154443
-0.046318
0.185289
-0.0235374
0.21411
0.232082
-0.160801
0.0362313
0.168511
-0.153225
0.0433979
-0.144585
0.0600643
-0.132108
0.0728217
-0.118394
0.0877058
-0.102285
0.108901
-0.082409
0.134567
-0.0586411
0.161521
-0.031438
0.186907
0.200644
-0.194494
0.0279795
0.202746
-0.186408
0.0353124
-0.175021
0.0486776
-0.16024
0.05804
-0.143617
0.0710832
-0.123311
0.0885949
-0.0978005
0.109057
-0.0680427
0.131764
-0.0336709
0.152535
0.166973
-0.238334
0.0200314
0.246282
-0.22816
0.0251382
-0.214201
0.0347185
-0.197169
0.0410077
-0.177245
0.0511598
-0.15242
0.0637698
-0.121549
0.0781854
-0.0857711
0.0959856
-0.0456965
0.11246
0.121276
-0.276689
0.0096186
0.287102
-0.263816
0.012265
-0.246283
0.0171854
-0.225679
0.0204033
-0.200644
0.0261255
-0.169579
0.0327044
-0.131575
0.040181
-0.0858632
0.0502743
-0.0344337
0.061031
0.0868424
-0.347012
0.356631
-0.334747
-0.317562
-0.297159
-0.271033
-0.238329
-0.198148
-0.147873
-0.0868424
8.18755e-05
0.0761962
-0.00309691
-0.00229367
0.0938249
-0.00427324
0.111093
-0.00576509
0.127188
-0.00684545
0.145043
-0.00750634
0.169172
-0.00739602
0.202635
-0.00621841
0.245105
-0.00475576
0.285639
0.351875
0.000617167
0.0789338
-0.00335472
-0.0019547
0.0963967
-0.00404389
0.113182
-0.00557523
0.128719
-0.00669992
0.146168
-0.00736868
0.169841
-0.00732792
0.202594
-0.00618144
0.243958
-0.00425145
0.283709
0.347624
0.00109827
0.0812858
-0.00345032
-0.00132343
0.0988184
-0.00331655
0.115175
-0.0048186
0.130221
-0.00597742
0.147327
-0.00667773
0.170541
-0.00673555
0.202652
-0.00567485
0.242897
-0.0039018
0.281936
0.343722
0.0014272
0.0832349
-0.00337623
-0.00076142
0.101007
-0.0024954
0.116909
-0.00389817
0.131624
-0.00503212
0.148461
-0.00578973
0.171299
-0.00592488
0.202787
-0.00503609
0.242009
-0.00347919
0.280379
0.340243
0.00164577
0.0847232
-0.00313416
-0.000270206
0.102923
-0.00171323
0.118352
-0.00298015
0.132891
-0.00405383
0.149534
-0.00483394
0.172079
-0.00503968
0.202993
-0.00432852
0.241297
-0.00301922
0.27907
0.337223
0.00177458
0.0856688
-0.00272018
0.000262983
0.104435
-0.000902696
0.119518
-0.00202118
0.13401
-0.00302967
0.150543
-0.00381584
0.172865
-0.00410856
0.203286
-0.0035634
0.240752
-0.0025279
0.278035
0.334696
0.00178839
0.0860164
-0.00213597
0.000816051
0.105407
-8.52172e-05
0.120419
-0.0010138
0.134938
-0.00194225
0.151471
-0.00272386
0.173647
-0.0031078
0.20367
-0.00273733
0.240382
-0.00200078
0.277298
0.332695
0.00167462
0.0857341
-0.00139226
0.00122805
0.105854
0.000740091
0.120907
-3.21021e-05
0.13571
-0.00082067
0.15226
-0.00157522
0.174401
-0.00203326
0.204128
-0.00185697
0.240206
-0.00143916
0.27688
0.331256
0.00140378
0.0848306
-0.000500288
0.00146428
0.105793
0.00144257
0.120929
0.00100489
0.136148
0.0003252
0.152939
-0.00041738
0.175144
-0.000897463
0.204608
-0.000942032
0.24025
-0.000845217
0.276784
0.33041
0.000927414
0.0833499
0.000553274
0.00151682
0.105204
0.00200395
0.120442
0.00188884
0.136263
0.00139768
0.153431
0.000745064
0.175797
0.000274414
0.205079
-4.32876e-05
0.240568
-0.000220172
0.27696
0.33019
0.000180035
0.0814008
0.001769
0.00134432
0.104039
0.00236937
0.119417
0.0025993
0.136033
0.00236627
0.153664
0.00185577
0.176307
0.00132391
0.205611
0.000901674
0.24099
0.000374901
0.277487
0.330565
-0.000713229
0.0789851
0.00312893
0.000931909
0.102394
0.00249367
0.117855
0.00311419
0.135413
0.00320495
0.153573
0.00286341
0.176649
0.002349
0.206125
0.00180478
0.241534
0.000949819
0.278342
0.331515
-0.00189466
0.076248
0.00463177
0.000280911
0.100219
0.00233109
0.115805
0.00339689
0.134347
0.00387245
0.153097
0.00374682
0.176774
0.00330624
0.206566
0.00267417
0.242166
0.00152914
0.279487
0.333044
-0.00330478
0.0733128
0.00623999
-0.000772803
0.0976867
0.00184923
0.113183
0.00342236
0.132774
0.00431547
0.152204
0.00446506
0.176625
0.00415482
0.206876
0.00347813
0.242843
0.00208609
0.280879
0.33513
-0.00487069
0.0703009
0.00788263
-0.00188917
0.0947051
0.00105466
0.110239
0.00317896
0.130649
0.00451587
0.150867
0.00500871
0.176132
0.00490574
0.206979
0.00422647
0.243522
0.00263025
0.282475
0.33776
-0.00650022
0.0673445
0.00945662
-0.00311775
0.0913227
2.85111e-06
0.107118
0.00266025
0.127992
0.00444422
0.149083
0.0053207
0.175255
0.0054828
0.206817
0.0048536
0.244152
0.00311302
0.284216
0.340873
-0.00807306
0.0645854
0.0108321
-0.00438449
0.0876341
-0.000983145
0.103717
0.00192403
0.125085
0.00415617
0.146851
0.0054607
0.173951
0.0059391
0.206338
0.00541618
0.244674
0.00357129
0.286061
0.344445
-0.00948
0.0621935
0.0118719
-0.00563437
0.0837885
-0.00217067
0.100253
0.000895782
0.122018
0.00354967
0.144197
0.00528579
0.172215
0.0061246
0.205499
0.00579349
0.245006
0.0039411
0.287913
0.348386
-0.0105288
0.0602628
0.0124595
-0.00664735
0.079907
-0.00321495
0.0968208
-2.80442e-05
0.118831
0.00294845
0.141221
0.00509783
0.170065
0.00629182
0.204305
0.00615313
0.245144
0.00429725
0.289769
0.352683
-0.0115334
0.0594332
0.0123629
-0.00793361
0.0763073
-0.00467339
0.0935606
-0.00128506
0.115443
0.00171912
0.138217
0.00430613
0.167478
0.00594434
0.202667
0.00615284
0.244936
0.00447056
0.291451
0.357154
-0.127595
0.0530518
0.133977
-0.117467
0.0661788
-0.106078
0.0821721
-0.0917162
0.101081
-0.0760547
0.122555
-0.0595215
0.150945
-0.0422095
0.185355
-0.0251636
0.22789
-0.0104607
0.276749
0.346693
-0.14172
0.0494883
0.145283
-0.132872
0.0573314
-0.123007
0.0723066
-0.108761
0.0868353
-0.0927205
0.106514
-0.0738042
0.132029
-0.0525399
0.164091
-0.03076
0.20611
-0.0120624
0.258051
0.334631
-0.143693
0.0442642
0.148917
-0.135152
0.0487907
-0.125486
0.0626406
-0.111268
0.0726176
-0.0960555
0.0913014
-0.0766925
0.112666
-0.0548382
0.142237
-0.0317581
0.18303
-0.0117705
0.238063
0.32286
-0.141004
0.0373082
0.14796
-0.132103
0.0398889
-0.121457
0.0519946
-0.107362
0.0585226
-0.0926832
0.0766231
-0.0734836
0.0934664
-0.0525727
0.121326
-0.030159
0.160616
-0.0108113
0.218716
0.312049
-0.13779
0.0288316
0.146266
-0.128702
0.0308012
-0.117165
0.0404582
-0.103822
0.0451796
-0.0891718
0.0619725
-0.0706582
0.0749527
-0.0511781
0.101846
-0.0301362
0.139574
-0.0112808
0.19986
0.300768
-0.137232
0.0211171
0.144947
-0.128079
0.0216478
-0.116555
0.0289341
-0.104421
0.033046
-0.0898219
0.0473732
-0.0726858
0.0578165
-0.0543187
0.0834785
-0.0337678
0.119023
-0.0143877
0.18048
0.28638
-0.141524
0.0128963
0.149745
-0.13359
0.0137145
-0.123671
0.0190145
-0.113606
0.0229807
-0.100067
0.0338343
-0.0855257
0.0432755
-0.0681478
0.0661006
-0.0469274
0.097803
-0.0232109
0.156764
0.263169
-0.164615
0.00612777
0.171384
-0.157434
0.00653328
-0.148849
0.0104289
-0.13982
0.0139526
-0.127645
0.0216594
-0.114503
0.030133
-0.0965937
0.0481912
-0.0733459
0.0745552
-0.0418137
0.125231
0.221356
-0.229675
0.00136275
0.23444
-0.225183
0.0020412
-0.218775
0.00402114
-0.211181
0.00635843
-0.2
0.0104782
-0.185969
0.0161018
-0.164397
0.0266196
-0.132871
0.0430289
-0.0816675
0.0740278
0.139688
-0.322365
0.323728
-0.320324
-0.316303
-0.309945
-0.299466
-0.283365
-0.256745
-0.213716
-0.139688
-0.0150055
0.135492
0.0134899
-0.0139066
0.144184
-0.0119808
0.146991
-0.0100092
0.145989
-0.00834983
0.144607
-0.00723536
0.143832
-0.0065889
0.149098
-0.00664387
0.171439
-0.00537853
0.233175
0.31835
-0.0138856
0.136946
0.0124321
-0.012858
0.143157
-0.0110486
0.145181
-0.00925463
0.144195
-0.00779544
0.143148
-0.00680946
0.142846
-0.00629742
0.148586
-0.00640239
0.171544
-0.00494203
0.231715
0.313408
-0.0113546
0.137578
0.0107222
-0.0105446
0.142347
-0.00915035
0.143787
-0.00777345
0.142818
-0.00668373
0.142058
-0.00596159
0.142124
-0.00565833
0.148283
-0.0058058
0.171691
-0.00452601
0.230435
0.308882
-0.00862201
0.137703
0.00849758
-0.00794263
0.141667
-0.00698658
0.142831
-0.00608753
0.141919
-0.00538258
0.141353
-0.0049695
0.141711
-0.00487472
0.148188
-0.00511625
0.171933
-0.00404033
0.229359
0.304841
-0.00597931
0.137754
0.00592766
-0.00557748
0.141266
-0.00495119
0.142205
-0.00441972
0.141387
-0.00403808
0.140971
-0.00389964
0.141573
-0.0039979
0.148286
-0.00435035
0.172285
-0.00349619
0.228505
0.301345
-0.00323259
0.137877
0.00310961
-0.0031714
0.141204
-0.00289599
0.141929
-0.00271304
0.141204
-0.00263238
0.140891
-0.00275335
0.141694
-0.00304045
0.148573
-0.00351378
0.172759
-0.00290678
0.227898
0.298438
-0.000323244
0.138064
0.000136706
-0.000663385
0.141545
-0.000743854
0.14201
-0.000922281
0.141383
-0.00113672
0.141105
-0.00152643
0.142083
-0.00200495
0.149052
-0.00261218
0.173366
-0.00228201
0.227568
0.296156
0.00271653
0.138339
-0.002992
0.0021317
0.142129
0.0016398
0.142502
0.00107166
0.141951
0.000493815
0.141683
-0.000246128
0.142823
-0.000872714
0.149679
-0.0016561
0.174149
-0.00162635
0.227538
0.29453
0.00579944
0.138706
-0.00616599
0.00493408
0.142995
0.00406217
0.143374
0.00314143
0.142872
0.00222225
0.142602
0.00125449
0.143791
0.000339056
0.150594
-0.00066627
0.175155
-0.000941121
0.227813
0.293589
0.00890619
-0.00936156
0.00776527
0.00652009
0.00524009
0.00397576
0.00274266
0.00157368
0.000397458
-0.000218052
-1.01772e-05
-0.000578639
0.000250056
-0.00092636
0.000824001
-0.000790711
0.00172659
-0.000368236
0.00296516
0.000231257
0.00454437
0.000939905
0.00646518
0.0017084
0.00871042
0.00249316
0.0111871
0.00323004
0.00372403
6.3834e-06
-0.000585022
0.000276719
-0.0011967
0.000836946
-0.00135094
0.00167963
-0.00121092
0.00279225
-0.000881368
0.00416146
-0.000429302
0.00577239
9.74722e-05
0.00760403
0.000661514
0.00962295
0.00121112
0.00157056
5.08082e-05
-0.00063583
0.000399249
-0.00154514
0.0010425
-0.00199419
0.00195682
-0.00212523
0.003114
-0.00203854
0.00448808
-0.00180339
0.00605764
-0.00147208
0.00780718
-0.00108803
0.00972432
-0.000706028
-0.00045981
0.000124729
-0.000760559
0.000602458
-0.00202287
0.00140737
-0.00279911
0.00249996
-0.00321782
0.00383925
-0.00337783
0.00538909
-0.00335323
0.00712089
-0.00320388
0.00901401
-0.00298115
0.0110518
-0.00274383
-0.00258755
0.000217729
-0.000978288
0.000858495
-0.00266363
0.00187101
-0.00381163
0.00319864
-0.00454545
0.00478721
-0.0049664
0.00658978
-0.00515579
0.00856804
-0.00518214
0.0106906
-0.00510373
0.0129259
-0.0049791
-0.00487574
0.000318837
-0.00129713
0.00113235
-0.00347715
0.00235734
-0.00503661
0.00391486
-0.00610297
0.00573403
-0.00678557
0.00775499
-0.00717676
0.00992857
-0.00735572
0.0122128
-0.00738801
0.0145645
-0.00733076
-0.00723178
0.000416644
-0.00171377
0.00138687
-0.00444738
0.00278679
-0.00643652
0.00450804
-0.00782422
0.00645867
-0.0087362
0.00856469
-0.00928278
0.0107678
-0.00955879
0.0130205
-0.00964078
0.0152786
-0.00958881
-0.00943861
0.000500041
-0.00221381
0.00158658
-0.00553392
0.00308648
-0.00793642
0.00485622
-0.00959397
0.00678128
-0.0106613
0.00877601
-0.0112775
0.0107789
-0.0115617
0.0127459
-0.0116078
0.0146422
-0.0114852
-0.0112293
0.000558799
-0.00277261
0.00170083
-0.00667595
0.00319877
-0.00943436
0.00487355
-0.0112687
0.00659262
-0.0123803
0.00826685
-0.0129517
0.00984186
-0.0131367
0.011288
-0.0130539
0.0125905
-0.0127876
-0.0123879
0.000584123
-0.00335673
0.00170687
-0.00779869
0.00308897
-0.0108165
0.00452359
-0.0127034
0.00587187
-0.0137286
0.00705419
-0.0141341
0.00803558
-0.0141181
0.00881066
-0.013829
0.00939207
-0.013369
-0.0128084
0.000588637
-0.00394537
0.00162157
-0.00883163
0.00278248
-0.0119774
0.00385521
-0.0137761
0.0047126
-0.014586
0.0052993
-0.0147208
0.00560985
-0.0144286
0.00566797
-0.0138871
0.00551262
-0.0132137
-0.0124898
0.000541302
-0.00448667
0.00140361
-0.00969394
0.00225377
-0.0128275
0.00288594
-0.0144083
0.00319983
-0.0148999
0.00317299
-0.0146939
0.00283139
-0.014087
0.00222389
-0.0132796
0.00140545
-0.0123952
-0.0115097
0.00045478
-0.00494145
0.0010842
-0.0103234
0.00156682
-0.0133102
0.00172763
-0.0145691
0.00150383
-0.0146761
0.000906974
-0.0140971
-1.05926e-05
-0.0131694
-0.00118395
-0.0121063
-0.00255393
-0.0110253
-0.00998465
0.000333686
-0.00527514
0.000686645
-0.0106763
0.000778669