/*--------------------------------*- C++ -*----------------------------------*\
  =========                 |
  \\      /  F ield         | OpenFOAM: The Open Source CFD Toolbox
   \\    /   O peration     | Website:  https://openfoam.org
    \\  /    A nd           | Version:  7
     \\/     M anipulation  |
\*---------------------------------------------------------------------------*/
FoamFile
{
    version     2.0;
    format      ascii;
    class       volScalarField;
    location    "4.3";
    object      p;
}
// * * * * * * * * * * * * * * * * * * * * * * * * * * * * * * * * * * * * * //

dimensions      [0 2 -2 0 0 0 0];

internalField   nonuniform List<scalar> 
32000
(
0.658883
0.65796
0.657686
0.657509
0.657542
0.657776
0.658199
0.658783
0.659504
0.660359
0.661374
0.662564
0.663915
0.665396
0.666981
0.668658
0.670423
0.672281
0.67423
0.67626
0.678356
0.680502
0.682682
0.684888
0.687113
0.689348
0.691581
0.693799
0.695988
0.698135
0.700234
0.702279
0.704266
0.706191
0.708049
0.709838
0.71156
0.713228
0.714832
0.716238
0.658325
0.657405
0.657131
0.656955
0.656995
0.657241
0.657675
0.65826
0.658969
0.659805
0.660792
0.661945
0.663251
0.664677
0.666198
0.667799
0.66948
0.671243
0.67309
0.675012
0.676994
0.679021
0.68108
0.683161
0.685258
0.687364
0.68947
0.691565
0.693636
0.695671
0.697663
0.699607
0.701498
0.703332
0.705104
0.706813
0.70846
0.710057
0.711594
0.712949
0.657712
0.656811
0.656542
0.65637
0.65642
0.656678
0.657122
0.65771
0.658408
0.659226
0.660188
0.661304
0.66256
0.663927
0.665378
0.666901
0.668495
0.670164
0.671906
0.673715
0.675578
0.677481
0.679413
0.681365
0.68333
0.685303
0.687277
0.689244
0.691192
0.69311
0.694992
0.696831
0.698625
0.700366
0.702052
0.703681
0.705253
0.70678
0.708252
0.709554
0.657044
0.656168
0.655907
0.655745
0.655809
0.656083
0.656537
0.657128
0.657821
0.658624
0.65956
0.660637
0.661841
0.663144
0.664522
0.665965
0.667472
0.669042
0.670677
0.672369
0.674107
0.675883
0.677684
0.679501
0.681329
0.683164
0.685002
0.686835
0.688655
0.690453
0.692221
0.693954
0.695646
0.697294
0.698893
0.700442
0.701941
0.703401
0.704809
0.706057
0.656337
0.655498
0.65525
0.655102
0.655181
0.65547
0.655933
0.656524
0.657213
0.658002
0.65891
0.659946
0.661095
0.66233
0.663634
0.664995
0.66641
0.66788
0.669402
0.670973
0.672584
0.674228
0.675893
0.677571
0.679257
0.680949
0.682646
0.684342
0.686031
0.687704
0.689355
0.690977
0.692566
0.694118
0.695631
0.697102
0.698529
0.699922
0.701269
0.702464
0.655582
0.654784
0.654554
0.654425
0.654522
0.654827
0.655298
0.655892
0.656578
0.657353
0.658234
0.659228
0.660319
0.661486
0.662713
0.66399
0.665312
0.666677
0.668084
0.669531
0.671013
0.67252
0.674043
0.675576
0.677115
0.67866
0.680213
0.68177
0.683324
0.684869
0.686398
0.687906
0.68939
0.690846
0.692272
0.693664
0.69502
0.696349
0.697637
0.698779
0.654785
0.654036
0.653829
0.653725
0.653842
0.654163
0.654644
0.655241
0.655922
0.656684
0.657537
0.658487
0.65952
0.660618
0.661767
0.662957
0.664182
0.665439
0.666728
0.66805
0.669398
0.670764
0.672141
0.673522
0.67491
0.676305
0.677711
0.679125
0.680541
0.681953
0.683357
0.684748
0.686124
0.687483
0.688822
0.690136
0.691422
0.692689
0.693921
0.695012
0.653948
0.653257
0.653077
0.653002
0.65314
0.653477
0.653969
0.65457
0.655248
0.655996
0.65682
0.657725
0.6587
0.659728
0.660797
0.661897
0.663022
0.664168
0.665339
0.666533
0.667744
0.668964
0.670189
0.671417
0.672649
0.673893
0.675148
0.676415
0.677689
0.678965
0.680241
0.681512
0.682779
0.68404
0.685292
0.686528
0.687745
0.688951
0.690131
0.691172
0.653072
0.652447
0.652298
0.652254
0.652416
0.652771
0.653274
0.65388
0.654555
0.655288
0.656083
0.656944
0.657861
0.658818
0.659805
0.660813
0.661836
0.662871
0.663922
0.664985
0.666056
0.667127
0.668196
0.669267
0.670343
0.671431
0.672535
0.673652
0.67478
0.675916
0.67706
0.67821
0.679366
0.680529
0.681692
0.682851
0.684
0.685146
0.686277
0.68727
0.652159
0.651607
0.651492
0.651483
0.651671
0.652044
0.652561
0.653172
0.653843
0.65456
0.655328
0.656145
0.657004
0.65789
0.658795
0.659709
0.660629
0.661552
0.662482
0.663413
0.66434
0.665259
0.666171
0.667083
0.668001
0.668933
0.669881
0.670845
0.671825
0.672819
0.673829
0.674856
0.675901
0.676963
0.678039
0.67912
0.680201
0.681289
0.682375
0.683322
0.651211
0.650738
0.650659
0.650688
0.650905
0.6513
0.651831
0.652447
0.653113
0.653816
0.654555
0.655331
0.656133
0.656948
0.657769
0.658589
0.659405
0.660217
0.661025
0.661823
0.662603
0.663368
0.664123
0.664876
0.665636
0.666409
0.6672
0.66801
0.668839
0.669689
0.670563
0.671466
0.672399
0.673361
0.674348
0.675352
0.676365
0.677397
0.678441
0.679344
0.650231
0.649841
0.649802
0.649871
0.65012
0.65054
0.651085
0.651705
0.652367
0.653055
0.653768
0.654503
0.655249
0.655994
0.656732
0.657458
0.658171
0.658873
0.659559
0.660221
0.660854
0.661465
0.662063
0.662657
0.663258
0.663873
0.664507
0.665161
0.665838
0.666542
0.667281
0.668059
0.668879
0.66974
0.670638
0.671564
0.672511
0.673488
0.674494
0.675355
0.649221
0.648919
0.648919
0.649032
0.649318
0.649763
0.650323
0.650948
0.651606
0.652281
0.65297
0.653665
0.654357
0.655033
0.655688
0.656321
0.656934
0.657525
0.658089
0.658615
0.659103
0.659561
0.660003
0.66044
0.660883
0.66134
0.661815
0.662313
0.662838
0.663397
0.664001
0.664654
0.665362
0.666122
0.66693
0.667779
0.66866
0.669583
0.670552
0.671376
0.648185
0.647971
0.648015
0.648174
0.648498
0.648971
0.649546
0.650177
0.650832
0.651496
0.652162
0.652821
0.65346
0.654068
0.654643
0.655185
0.655699
0.656181
0.656622
0.657013
0.657357
0.657666
0.657955
0.658237
0.658524
0.658824
0.659142
0.659484
0.659857
0.660273
0.660742
0.661273
0.661869
0.662528
0.663247
0.664018
0.664833
0.665702
0.666638
0.667426
0.647125
0.647001
0.647089
0.647297
0.647662
0.648163
0.648755
0.649393
0.650048
0.650703
0.651348
0.651972
0.65256
0.653104
0.653601
0.654056
0.654473
0.654846
0.655165
0.655425
0.655628
0.655791
0.65593
0.656061
0.656195
0.656339
0.656502
0.65669
0.656915
0.65719
0.657528
0.657937
0.658422
0.658981
0.65961
0.660304
0.661053
0.661869
0.662773
0.663528
0.646046
0.646012
0.646146
0.646404
0.646811
0.647341
0.647951
0.648598
0.649254
0.649902
0.650529
0.651121
0.651662
0.652145
0.652569
0.65294
0.653261
0.653527
0.653727
0.653858
0.653925
0.653947
0.653941
0.653925
0.653909
0.653901
0.653912
0.65395
0.654031
0.654169
0.654378
0.654669
0.655044
0.655503
0.656044
0.65666
0.657343
0.658106
0.658978
0.659703
0.644952
0.645006
0.645186
0.645497
0.645945
0.646506
0.647135
0.647792
0.648452
0.649096
0.649707
0.650269
0.650768
0.651195
0.651551
0.651842
0.65207
0.652231
0.652314
0.65232
0.652257
0.652143
0.651999
0.65184
0.651679
0.651524
0.651387
0.651281
0.651223
0.651229
0.651314
0.651488
0.651756
0.652117
0.65257
0.653109
0.653727
0.654436
0.655276
0.655973
0.643844
0.643985
0.644212
0.644574
0.645066
0.645658
0.646308
0.646979
0.647645
0.648285
0.648882
0.649419
0.64988
0.650257
0.650551
0.650766
0.650905
0.650962
0.650933
0.65082
0.650632
0.65039
0.650114
0.649819
0.649518
0.649221
0.648943
0.648699
0.648508
0.648388
0.648353
0.648414
0.648577
0.648842
0.649209
0.649672
0.650225
0.650879
0.651687
0.652357
0.642727
0.642951
0.643225
0.643639
0.644174
0.644799
0.645472
0.646158
0.646832
0.647472
0.648058
0.648573
0.649002
0.649335
0.649572
0.649716
0.649768
0.649727
0.64959
0.649363
0.649059
0.648697
0.648296
0.647871
0.647435
0.647004
0.646592
0.646218
0.645901
0.645661
0.645511
0.645464
0.645526
0.645697
0.645979
0.646367
0.646855
0.647454
0.648226
0.64887
0.641604
0.641907
0.642226
0.642691
0.643269
0.643928
0.644627
0.645332
0.646016
0.646657
0.647236
0.647734
0.648136
0.648431
0.648616
0.648693
0.648663
0.648528
0.64829
0.647957
0.647544
0.647069
0.64655
0.646002
0.64544
0.644881
0.644343
0.643848
0.643413
0.643058
0.6428
0.64265
0.642614
0.642695
0.642894
0.643209
0.643632
0.644174
0.644909
0.645527
0.640478
0.640855
0.641218
0.641731
0.642352
0.643048
0.643775
0.644501
0.645198
0.645843
0.646417
0.646903
0.647283
0.647545
0.647684
0.647699
0.647594
0.647371
0.647037
0.646606
0.646091
0.645511
0.644882
0.644219
0.643538
0.64286
0.642206
0.641596
0.641051
0.64059
0.640229
0.63998
0.639852
0.639847
0.639966
0.640209
0.640568
0.641053
0.641747
0.642338
0.639352
0.639796
0.6402
0.640761
0.641426
0.642158
0.642916
0.643665
0.644377
0.64503
0.645604
0.646081
0.646444
0.646678
0.646776
0.646735
0.646559
0.646255
0.645834
0.645311
0.644703
0.644026
0.643294
0.642524
0.641733
0.640945
0.640182
0.639467
0.638819
0.638258
0.637801
0.637462
0.637246
0.637159
0.637201
0.637374
0.63767
0.638096
0.638745
0.639309
0.638228
0.638732
0.639175
0.639782
0.640489
0.641259
0.642049
0.642824
0.643556
0.644219
0.644797
0.64527
0.64562
0.64583
0.645891
0.6458
0.64556
0.645181
0.644679
0.644073
0.643379
0.642612
0.641786
0.640917
0.640025
0.639136
0.638274
0.637461
0.636718
0.636065
0.63552
0.635095
0.634798
0.634633
0.634602
0.634708
0.634941
0.635308
0.635909
0.636444
0.637106
0.637663
0.638143
0.638793
0.639542
0.64035
0.641175
0.641979
0.642732
0.643411
0.643995
0.644468
0.644808
0.644999
0.645028
0.644892
0.644594
0.644147
0.643572
0.642888
0.642116
0.641268
0.640356
0.639396
0.638412
0.63743
0.636477
0.635575
0.634744
0.634007
0.63338
0.632877
0.632505
0.632267
0.632167
0.632208
0.63238
0.632689
0.633238
0.633743
0.635986
0.636589
0.637103
0.637795
0.638584
0.639432
0.640293
0.641129
0.641907
0.642604
0.643199
0.643673
0.644007
0.644182
0.644184
0.644007
0.643658
0.64315
0.642507
0.641755
0.640911
0.639988
0.638998
0.637956
0.636888
0.635823
0.634786
0.633802
0.632892
0.632077
0.631377
0.630803
0.630361
0.630055
0.629891
0.62987
0.629984
0.630234
0.630729
0.631202
0.634868
0.635508
0.636054
0.636787
0.637616
0.638503
0.639402
0.640272
0.641079
0.641797
0.642404
0.642884
0.643214
0.643375
0.643354
0.643142
0.642746
0.642183
0.641481
0.640666
0.639757
0.638767
0.637705
0.636588
0.635445
0.634303
0.633191
0.632132
0.63115
0.630266
0.6295
0.62886
0.628355
0.627987
0.627763
0.627684
0.627742
0.627936
0.628376
0.628816
0.63375
0.63442
0.634997
0.635767
0.636636
0.637563
0.638501
0.639408
0.640246
0.640987
0.64161
0.642095
0.642424
0.642575
0.642534
0.642292
0.641855
0.641242
0.640486
0.639614
0.638646
0.637594
0.636466
0.635283
0.634071
0.632861
0.63168
0.630553
0.629506
0.628561
0.627734
0.627036
0.626473
0.626049
0.62577
0.625639
0.625645
0.625784
0.626168
0.626576
0.632631
0.633324
0.633929
0.634735
0.635643
0.63661
0.637589
0.638534
0.639405
0.640172
0.640811
0.641304
0.641633
0.641776
0.641718
0.641449
0.640975
0.640318
0.639513
0.638589
0.637567
0.636457
0.63527
0.634026
0.632752
0.63148
0.630237
0.62905
0.627945
0.626944
0.626064
0.625313
0.624699
0.624225
0.623898
0.623719
0.623678
0.623766
0.624095
0.62447
0.63151
0.632218
0.63285
0.63369
0.634636
0.635643
0.636663
0.637648
0.638554
0.639348
0.640004
0.640506
0.640836
0.640973
0.6409
0.640606
0.640099
0.639402
0.638551
0.63758
0.636508
0.635345
0.634103
0.632803
0.631473
0.630145
0.628847
0.627607
0.62645
0.6254
0.624472
0.623675
0.623016
0.622498
0.622129
0.621908
0.621825
0.621867
0.622144
0.622488
0.630384
0.631101
0.631757
0.63263
0.633614
0.634661
0.635722
0.636747
0.63769
0.63851
0.639185
0.639696
0.640026
0.640157
0.64007
0.639754
0.639215
0.638481
0.63759
0.636575
0.635455
0.634242
0.632949
0.631598
0.630218
0.628839
0.627492
0.626205
0.625003
0.623909
0.62294
0.622104
0.621406
0.620851
0.620445
0.620189
0.620069
0.62007
0.6203
0.620617
0.629249
0.62997
0.630648
0.631554
0.632575
0.633662
0.634763
0.635829
0.636807
0.637655
0.638346
0.638866
0.639197
0.639322
0.63922
0.638881
0.638314
0.637546
0.636616
0.635559
0.634394
0.633134
0.631793
0.630395
0.628969
0.627546
0.626156
0.624827
0.623586
0.622455
0.62145
0.62058
0.61985
0.619265
0.618829
0.618543
0.618392
0.61836
0.618548
0.618841
0.6281
0.62882
0.629521
0.630459
0.631517
0.632643
0.633784
0.634889
0.635901
0.636774
0.637482
0.638009
0.638341
0.638458
0.638341
0.637979
0.637383
0.636583
0.635617
0.63452
0.633312
0.632007
0.630621
0.629179
0.627712
0.626249
0.624821
0.623457
0.622183
0.62102
0.619985
0.619087
0.61833
0.61772
0.617261
0.61695
0.616776
0.616717
0.616871
0.617149
0.626933
0.627649
0.628373
0.629343
0.630438
0.631602
0.632782
0.633924
0.634967
0.635863
0.636585
0.637119
0.637448
0.637555
0.637421
0.637037
0.636412
0.63558
0.634579
0.633443
0.632194
0.630846
0.629418
0.627936
0.626431
0.624933
0.623473
0.622079
0.620777
0.619588
0.618528
0.617606
0.616828
0.616198
0.61572
0.615391
0.615199
0.615122
0.615252
0.615524
0.625742
0.626454
0.6272
0.628202
0.629333
0.630535
0.631753
0.632928
0.633999
0.634915
0.635649
0.636186
0.636511
0.636607
0.636453
0.636044
0.63539
0.634526
0.63349
0.632317
0.631028
0.629639
0.628172
0.626653
0.625114
0.623585
0.622097
0.620678
0.619352
0.618141
0.61706
0.616119
0.615324
0.614678
0.614185
0.613843
0.61364
0.613555
0.613672
0.613952
0.624523
0.62523
0.625999
0.627033
0.6282
0.62944
0.630693
0.631898
0.632991
0.633924
0.634667
0.635204
0.635522
0.635603
0.635428
0.634991
0.634307
0.63341
0.632341
0.631131
0.629803
0.628375
0.626871
0.625319
0.623749
0.622193
0.620681
0.61924
0.617895
0.616666
0.615568
0.61461
0.613799
0.613139
0.612635
0.612283
0.612075
0.61199
0.61211
0.612415
0.623269
0.623972
0.624764
0.62583
0.627035
0.628311
0.629597
0.630827
0.63194
0.632885
0.633633
0.634167
0.634474
0.634537
0.634337
0.633871
0.633155
0.632225
0.631121
0.629875
0.62851
0.627046
0.625507
0.623923
0.622326
0.620746
0.619214
0.617755
0.616394
0.615149
0.614035
0.613062
0.612235
0.611561
0.611044
0.610684
0.610475
0.610399
0.610535
0.610888
0.621976
0.622677
0.623492
0.624592
0.625834
0.627146
0.628461
0.629713
0.630839
0.631792
0.632541
0.633068
0.633361
0.633402
0.633174
0.632675
0.631925
0.630961
0.629823
0.628541
0.627141
0.625642
0.624072
0.62246
0.620838
0.619237
0.617687
0.616213
0.614838
0.613579
0.61245
0.611459
0.610615
0.609923
0.609389
0.609018
0.608807
0.608745
0.608909
0.609335
0.620636
0.621339
0.62218
0.623316
0.624596
0.625941
0.627281
0.628549
0.629686
0.630642
0.631386
0.631902
0.632176
0.632191
0.631931
0.631398
0.630613
0.629614
0.62844
0.627124
0.625689
0.624158
0.622559
0.620922
0.619279
0.617661
0.616096
0.614609
0.613221
0.611948
0.610802
0.609791
0.608924
0.608205
0.607644
0.607251
0.607031
0.606984
0.607195
0.60773
0.619245
0.619956
0.620825
0.621998
0.623316
0.624692
0.626053
0.627333
0.628475
0.629429
0.630164
0.630664
0.630915
0.6309
0.630605
0.630034
0.629212
0.628178
0.626969
0.625619
0.624151
0.622591
0.620966
0.619307
0.617647
0.616014
0.614437
0.612939
0.611539
0.61025
0.609084
0.608048
0.607149
0.606391
0.605783
0.605341
0.605081
0.605028
0.605317
0.606073
0.617803
0.618526
0.619426
0.62064
0.621994
0.623397
0.624773
0.626061
0.627203
0.628149
0.628871
0.62935
0.629574
0.629524
0.629191
0.628581
0.627721
0.62665
0.625407
0.624024
0.622526
0.620938
0.619292
0.617616
0.615941
0.614298
0.612711
0.611203
0.609791
0.608485
0.607295
0.606229
0.605287
0.604474
0.603794
0.603256
0.602872
0.602674
0.602817
0.603665
0.720592
0.728419
0.732879
0.737665
0.740785
0.743601
0.745701
0.747417
0.74874
0.749793
0.750619
0.751274
0.751771
0.752121
0.752342
0.752441
0.752445
0.752329
0.752115
0.75181
0.751415
0.750928
0.750377
0.749738
0.749012
0.748216
0.74731
0.746321
0.745238
0.744035
0.742741
0.741313
0.739783
0.738129
0.736359
0.73448
0.732517
0.730501
0.728592
0.726803
0.717266
0.725451
0.73018
0.73524
0.738534
0.741488
0.743658
0.745439
0.746799
0.747896
0.748756
0.74944
0.749951
0.750331
0.750588
0.75071
0.750724
0.750644
0.750467
0.75018
0.749803
0.749345
0.748805
0.7482
0.747494
0.746699
0.745822
0.744844
0.743771
0.742593
0.741299
0.739895
0.738368
0.736725
0.734961
0.733095
0.73114
0.729131
0.727232
0.725452
0.713815
0.722416
0.727428
0.732784
0.736262
0.73936
0.741605
0.743452
0.744853
0.745993
0.746887
0.747601
0.748129
0.748538
0.748828
0.748975
0.749001
0.748954
0.748811
0.748543
0.748185
0.747758
0.74723
0.746657
0.745973
0.745182
0.744335
0.743369
0.742308
0.741155
0.739863
0.738483
0.736963
0.735335
0.73358
0.731729
0.729786
0.727787
0.725901
0.72413
0.710233
0.719312
0.724626
0.730296
0.733971
0.73721
0.739549
0.741458
0.742907
0.744083
0.745009
0.745751
0.746309
0.746744
0.747058
0.747233
0.747284
0.747262
0.747141
0.7469
0.746568
0.746165
0.74566
0.745104
0.744444
0.743674
0.742845
0.741898
0.740852
0.739714
0.738439
0.737073
0.735568
0.733956
0.732216
0.73038
0.728454
0.726469
0.724598
0.722833
0.706525
0.716141
0.721776
0.727777
0.73166
0.735042
0.737485
0.739456
0.740958
0.742167
0.743126
0.743896
0.744488
0.744947
0.745282
0.745486
0.745566
0.745565
0.745464
0.745254
0.744948
0.744568
0.74409
0.743548
0.742913
0.74217
0.741355
0.74043
0.739402
0.738277
0.737025
0.735669
0.734185
0.73259
0.730869
0.729049
0.727143
0.725175
0.723319
0.72156
0.702698
0.712909
0.718875
0.725229
0.729329
0.732862
0.73541
0.737447
0.739002
0.740247
0.741239
0.742037
0.742661
0.743146
0.743503
0.743734
0.743843
0.743864
0.743786
0.743604
0.743325
0.742968
0.742518
0.741992
0.741383
0.740665
0.739867
0.738966
0.737956
0.736847
0.735617
0.734278
0.732814
0.731239
0.729539
0.727737
0.725852
0.7239
0.72206
0.720308
0.698757
0.709618
0.715927
0.722651
0.726979
0.730669
0.733325
0.735432
0.737041
0.738323
0.739349
0.740176
0.740832
0.741343
0.741723
0.74198
0.742115
0.742161
0.742106
0.741952
0.741699
0.741365
0.740943
0.740437
0.739852
0.739161
0.738382
0.737503
0.736515
0.735424
0.734217
0.732898
0.731455
0.729903
0.728226
0.726444
0.724581
0.722647
0.720822
0.719077
0.694708
0.706271
0.712934
0.720046
0.724608
0.728462
0.73123
0.733411
0.735075
0.736396
0.737456
0.738313
0.738999
0.739536
0.73994
0.740223
0.740385
0.740455
0.740425
0.740298
0.740072
0.739761
0.739367
0.738883
0.738322
0.737657
0.736898
0.736043
0.735078
0.734008
0.732824
0.731528
0.730109
0.728582
0.726929
0.725169
0.723328
0.721413
0.719603
0.717865
0.690562
0.702874
0.7099
0.717413
0.722219
0.726243
0.729126
0.731383
0.733104
0.734466
0.73556
0.736448
0.737163
0.737728
0.738157
0.738465
0.738653
0.738749
0.738744
0.738642
0.738443
0.738156
0.73779
0.737329
0.736792
0.736154
0.735417
0.734586
0.733645
0.732598
0.731439
0.73017
0.728777
0.727275
0.725649
0.723913
0.722095
0.720198
0.718404
0.716674
0.68633
0.699431
0.706828
0.714755
0.719811
0.724012
0.727012
0.72935
0.731129
0.732532
0.733661
0.734581
0.735326
0.735919
0.736372
0.736706
0.736921
0.737042
0.737064
0.736987
0.736814
0.736551
0.736211
0.735776
0.735262
0.734651
0.733937
0.733131
0.732216
0.731195
0.730064
0.728822
0.727458
0.725983
0.724386
0.722675
0.720879
0.719003
0.717224
0.715503
0.682027
0.695949
0.703724
0.712072
0.717386
0.721767
0.72489
0.727311
0.729149
0.730596
0.73176
0.732713
0.733487
0.734107
0.734585
0.734945
0.735187
0.735335
0.735384
0.735331
0.735185
0.734946
0.734633
0.734224
0.733733
0.733149
0.732461
0.73168
0.730793
0.729799
0.728697
0.727485
0.726152
0.724706
0.723139
0.721455
0.719682
0.717829
0.716065
0.714351
0.677672
0.692437
0.700592
0.709366
0.714943
0.719509
0.722759
0.725266
0.727165
0.728657
0.729857
0.730842
0.731646
0.732294
0.732797
0.733184
0.733454
0.733628
0.733705
0.733676
0.733557
0.733343
0.733056
0.732674
0.732206
0.73165
0.730988
0.730234
0.729376
0.728411
0.72734
0.726159
0.72486
0.723443
0.721907
0.720252
0.718503
0.716674
0.714925
0.713219
0.673283
0.688901
0.697438
0.706639
0.712484
0.717239
0.72062
0.723215
0.725178
0.726715
0.727952
0.72897
0.729803
0.730478
0.731008
0.731421
0.731721
0.731922
0.732026
0.732023
0.73193
0.731741
0.731479
0.731125
0.73068
0.730152
0.729518
0.728791
0.727965
0.727031
0.725991
0.724843
0.723579
0.722194
0.72069
0.719066
0.717343
0.715538
0.713806
0.712106
0.668884
0.685353
0.69427
0.703893
0.71001
0.714956
0.718473
0.721158
0.723186
0.724771
0.726047
0.727097
0.72796
0.728661
0.729218
0.729659
0.729988
0.730216
0.730347
0.73037
0.730304
0.730141
0.729903
0.729577
0.729157
0.728657
0.728052
0.727353
0.726559
0.725658
0.72465
0.723537
0.72231
0.720958
0.719486
0.717897
0.716201
0.71442
0.712706
0.711012
0.664497
0.681803
0.691095
0.701131
0.707523
0.712662
0.716317
0.719097
0.721192
0.722825
0.724141
0.725224
0.726117
0.726845
0.727429
0.727898
0.728256
0.728512
0.72867
0.728719
0.728678
0.728543
0.72833
0.728031
0.727635
0.727163
0.726589
0.72592
0.725158
0.72429
0.723317
0.722239
0.72105
0.719734
0.718296
0.716744
0.715078
0.713321
0.711627
0.709939
0.660147
0.67826
0.687919
0.698357
0.705023
0.710357
0.714155
0.71703
0.719195
0.72088
0.722237
0.723352
0.724275
0.72503
0.725643
0.726139
0.726525
0.726808
0.726992
0.727069
0.727054
0.726947
0.726757
0.726485
0.726116
0.725671
0.72513
0.72449
0.723761
0.722929
0.721992
0.72095
0.719799
0.718521
0.71712
0.715605
0.713971
0.712241
0.710568
0.708886
0.655861
0.674736
0.68475
0.695573
0.702513
0.708043
0.711985
0.71496
0.717197
0.718935
0.720335
0.721483
0.722435
0.723218
0.723858
0.724382
0.724796
0.725106
0.725316
0.72542
0.725432
0.725352
0.725186
0.724941
0.724599
0.724181
0.723673
0.723065
0.722367
0.721572
0.720673
0.719668
0.718556
0.717318
0.715957
0.714481
0.712882
0.711178
0.709528
0.707852
0.651662
0.671244
0.681597
0.692783
0.699995
0.705719
0.709808
0.712887
0.715199
0.716992
0.718434
0.719616
0.720598
0.721408
0.722076
0.722628
0.723068
0.723405
0.723642
0.723773
0.72381
0.723758
0.723616
0.723397
0.723085
0.722694
0.722217
0.721643
0.720978
0.72022
0.719359
0.718393
0.717321
0.716125
0.714806
0.71337
0.711809
0.710134
0.708507
0.706838
0.647576
0.667793
0.678467
0.68999
0.697469
0.703387
0.707626
0.71081
0.713201
0.715051
0.716537
0.717752
0.718763
0.719601
0.720296
0.720876
0.721343
0.721706
0.721969
0.722128
0.72219
0.722165
0.722047
0.721854
0.721573
0.721209
0.720763
0.720224
0.719591
0.718871
0.71805
0.717123
0.716092
0.714941
0.713665
0.712271
0.710751
0.709107
0.707505
0.705842
0.643624
0.664395
0.675368
0.687199
0.694938
0.701048
0.70544
0.708732
0.711203
0.713112
0.714642
0.715891
0.716932
0.717797
0.718519
0.719126
0.719619
0.720009
0.720298
0.720484
0.72057
0.720573
0.720481
0.720313
0.720062
0.719726
0.719311
0.718806
0.718208
0.717526
0.716745
0.715857
0.71487
0.713764
0.712534
0.711184
0.709707
0.708097
0.706521
0.704866
0.639827
0.661061
0.672306
0.684411
0.692404
0.698702
0.703249
0.706652
0.709207
0.711177
0.712752
0.714034
0.715104
0.715997
0.716745
0.717378
0.717898
0.718315
0.718629
0.718841
0.718953
0.718982
0.718917
0.718773
0.718552
0.718244
0.71786
0.71739
0.716827
0.716182
0.715442
0.714595
0.713652
0.712593
0.711412
0.710109
0.708678
0.707104
0.705555
0.703909
0.636202
0.6578
0.66929
0.681631
0.689869
0.696352
0.701055
0.704572
0.707212
0.709245
0.710866
0.712183
0.713282
0.714201
0.714975
0.715635
0.716181
0.716623
0.716963
0.717201
0.717338
0.717392
0.717354
0.717233
0.717042
0.716763
0.71641
0.715975
0.715448
0.714839
0.714141
0.713336
0.712439
0.711429
0.710299
0.709045
0.707663
0.706128
0.704609
0.702974
0.632763
0.65462
0.666325
0.678862
0.687336
0.693999
0.698859
0.702492
0.70522
0.707319
0.708985
0.710338
0.711467
0.712412
0.713212
0.713897
0.714469
0.714936
0.715299
0.715563
0.715725
0.715803
0.715793
0.715695
0.715533
0.715283
0.71496
0.71456
0.714068
0.713497
0.712841
0.71208
0.711229
0.71027
0.709194
0.707992
0.706662
0.705169
0.703684
0.702061
0.629521
0.651529
0.663416
0.676109
0.684805
0.691646
0.696662
0.700415
0.703231
0.705398
0.707112
0.708501
0.709659
0.71063
0.711456
0.712165
0.712762
0.713252
0.71364
0.713927
0.714116
0.714217
0.714232
0.714158
0.714023
0.713802
0.713511
0.713144
0.712689
0.712155
0.711541
0.710825
0.710022
0.709116
0.708097
0.70695
0.705675
0.70423
0.70278
0.701171
0.626484
0.648534
0.660568
0.673375
0.68228
0.689295
0.694466
0.698339
0.701247
0.703483
0.705245
0.706672
0.707859
0.708856
0.709707
0.710441
0.711062
0.711574
0.711983
0.712294
0.712509
0.712632
0.712673
0.712622
0.712514
0.712322
0.712061
0.711729
0.711309
0.710813
0.710241
0.709571
0.708817
0.707966
0.707006
0.705919
0.704702
0.70331
0.7019
0.700307
0.623653
0.645639
0.657784
0.670664
0.679765
0.686948
0.692273
0.696268
0.699268
0.701576
0.703388
0.704851
0.706068
0.707091
0.707968
0.708724
0.709367
0.7099
0.710331
0.710665
0.710904
0.711049
0.711114
0.711087
0.711005
0.710842
0.710611
0.710312
0.709928
0.709471
0.708939
0.708318
0.707614
0.70682
0.705921
0.704897
0.703743
0.70241
0.701045
0.69947
0.621031
0.642848
0.655068
0.667979
0.677262
0.684607
0.690085
0.694203
0.697298
0.699678
0.701541
0.703041
0.704287
0.705335
0.706237
0.707015
0.707679
0.708231
0.708684
0.709039
0.709302
0.709468
0.709556
0.709554
0.709496
0.709362
0.709159
0.708894
0.708546
0.708127
0.707637
0.707064
0.706412
0.705676
0.70484
0.703884
0.702797
0.70153
0.700217
0.698663
0.618614
0.640163
0.652421
0.665325
0.674775
0.682275
0.687904
0.692146
0.695338
0.697791
0.699705
0.701242
0.702517
0.703591
0.704516
0.705315
0.705998
0.706569
0.707041
0.707417
0.707701
0.707889
0.707999
0.708021
0.707987
0.707882
0.707707
0.707475
0.707162
0.706781
0.706332
0.705808
0.705209
0.704533
0.703763
0.702877
0.701864
0.70067
0.699416
0.697886
0.616399
0.637584
0.649846
0.662705
0.672308
0.679956
0.685733
0.6901
0.69339
0.695916
0.697883
0.699456
0.700761
0.701859
0.702806
0.703624
0.704325
0.704914
0.705404
0.705799
0.706103
0.706312
0.706444
0.70649
0.706478
0.706401
0.706254
0.706053
0.705775
0.705433
0.705024
0.704549
0.704005
0.703389
0.702686
0.701876
0.700943
0.69983
0.698645
0.697143
0.614379
0.635111
0.647342
0.660122
0.669861
0.677652
0.683574
0.688066
0.691456
0.694056
0.696074
0.697684
0.699018
0.700141
0.701108
0.701943
0.70266
0.703266
0.703772
0.704187
0.704509
0.704738
0.70489
0.70496
0.70497
0.70492
0.7048
0.70463
0.704385
0.704081
0.703714
0.703288
0.702798
0.702244
0.70161
0.700878
0.700033
0.69901
0.697905
0.696439
0.612549
0.632743
0.644909
0.657581
0.66744
0.675365
0.681429
0.686046
0.689535
0.69221
0.694282
0.695929
0.697292
0.698436
0.699422
0.700273
0.701003
0.701626
0.702147
0.702578
0.702918
0.703167
0.703338
0.703431
0.703462
0.703437
0.703345
0.703203
0.702992
0.702726
0.7024
0.702022
0.701586
0.701094
0.700531
0.699882
0.699132
0.69821
0.697197
0.695776
0.610902
0.630475
0.642545
0.655085
0.665045
0.673097
0.679301
0.684041
0.687631
0.690381
0.692506
0.694192
0.695582
0.696748
0.697749
0.698615
0.699357
0.699994
0.700529
0.700975
0.701331
0.701598
0.701786
0.701901
0.701954
0.701953
0.701887
0.701773
0.701595
0.701366
0.701082
0.700751
0.70037
0.69994
0.699449
0.698886
0.698237
0.697427
0.696524
0.695161
0.609431
0.628305
0.64025
0.652638
0.662683
0.670854
0.677193
0.682056
0.685747
0.688572
0.69075
0.692476
0.693892
0.695075
0.696092
0.696969
0.697721
0.69837
0.698918
0.699377
0.699747
0.700031
0.700236
0.700371
0.700445
0.700467
0.700427
0.700339
0.700195
0.700001
0.699758
0.699474
0.699146
0.698779
0.698362
0.697887
0.697348
0.696663
0.695886
0.694601
0.608131
0.626228
0.638021
0.650244
0.660357
0.668638
0.67511
0.680093
0.683885
0.686785
0.689017
0.690781
0.692221
0.693421
0.69445
0.695337
0.696097
0.696756
0.697315
0.697784
0.698167
0.698466
0.698687
0.698842
0.698936
0.698978
0.698964
0.698902
0.69879
0.69863
0.698429
0.69819
0.697915
0.69761
0.697267
0.696884
0.696459
0.695914
0.695285
0.694102
0.606998
0.624237
0.635862
0.647908
0.658074
0.666455
0.673055
0.678157
0.682049
0.685025
0.687309
0.68911
0.690572
0.691788
0.692826
0.69372
0.694486
0.695152
0.695719
0.696197
0.696592
0.696903
0.697139
0.697312
0.697427
0.697487
0.697498
0.697461
0.697381
0.697254
0.697093
0.6969
0.696675
0.696432
0.696164
0.695875
0.695569
0.695177
0.694723
0.693676
0.606029
0.622333
0.633779
0.645644
0.655845
0.664317
0.671038
0.676257
0.680246
0.683295
0.685632
0.687466
0.688949
0.690176
0.691221
0.692119
0.692889
0.69356
0.694133
0.694617
0.695022
0.695343
0.695594
0.695782
0.695917
0.695994
0.69603
0.696017
0.695966
0.695873
0.69575
0.695601
0.695426
0.695243
0.695049
0.694856
0.694674
0.69445
0.694199
0.693336
0.605224
0.620515
0.63178
0.643463
0.653681
0.662233
0.669066
0.674398
0.678482
0.681601
0.683988
0.685853
0.687352
0.688589
0.689638
0.690537
0.691308
0.69198
0.692557
0.693045
0.693457
0.693788
0.694052
0.694254
0.694406
0.694501
0.69456
0.694569
0.694547
0.694486
0.694399
0.694294
0.694168
0.694044
0.693922
0.693824
0.693768
0.693725
0.693714
0.693098
0.604595
0.618751
0.62981
0.641298
0.651512
0.660137
0.667083
0.672528
0.676709
0.6799
0.68234
0.684238
0.685754
0.687001
0.688051
0.688949
0.68972
0.690391
0.690971
0.691462
0.69188
0.692219
0.692495
0.692711
0.69288
0.692993
0.693073
0.693105
0.693111
0.693082
0.693031
0.692967
0.692889
0.692823
0.692773
0.692769
0.692841
0.692992
0.693259
0.692983
0.604096
0.616931
0.627752
0.63903
0.649224
0.657921
0.664988
0.670556
0.674845
0.678117
0.680617
0.682555
0.684096
0.685356
0.686412
0.687311
0.688085
0.688756
0.689339
0.689836
0.69026
0.69061
0.690899
0.691131
0.691317
0.691451
0.691552
0.69161
0.691643
0.691647
0.691632
0.69161
0.691581
0.69157
0.691591
0.69168
0.691881
0.692234
0.692824
0.693019
0.603702
0.615312
0.625998
0.637109
0.647255
0.655974
0.663108
0.668751
0.673112
0.676436
0.678971
0.68093
0.682481
0.683744
0.684799
0.685697
0.686472
0.687145
0.687729
0.688231
0.68866
0.68902
0.68932
0.689566
0.689766
0.689919
0.690038
0.690119
0.690177
0.69021
0.690228
0.690242
0.690257
0.690297
0.690383
0.690556
0.690876
0.691426
0.692361
0.693189
0.600528
0.610829
0.621675
0.632791
0.642954
0.651705
0.658912
0.664663
0.66913
0.672504
0.675009
0.676875
0.678304
0.679455
0.680425
0.681267
0.682008
0.682659
0.683228
0.683721
0.684144
0.684508
0.684815
0.685078
0.685296
0.68548
0.685631
0.685757
0.685864
0.685958
0.686047
0.686142
0.686259
0.686416
0.686649
0.687013
0.687606
0.688629
0.690494
0.693479
0.591365
0.601435
0.611915
0.622217
0.63162
0.639882
0.646873
0.652595
0.657158
0.660717
0.663462
0.665589
0.667277
0.668664
0.669844
0.670872
0.671781
0.672587
0.673304
0.673941
0.674505
0.675007
0.675451
0.675845
0.676195
0.676507
0.676785
0.677036
0.677267
0.677483
0.677694
0.677912
0.678155
0.678447
0.678831
0.679375
0.680211
0.681633
0.684179
0.688178
0.581109
0.591119
0.601091
0.610721
0.619579
0.627506
0.634348
0.640069
0.644743
0.648499
0.651491
0.653885
0.655835
0.657463
0.658861
0.660086
0.661175