/*--------------------------------*- C++ -*----------------------------------*\
  =========                 |
  \\      /  F ield         | OpenFOAM: The Open Source CFD Toolbox
   \\    /   O peration     | Website:  https://openfoam.org
    \\  /    A nd           | Version:  7
     \\/     M anipulation  |
\*---------------------------------------------------------------------------*/
FoamFile
{
    version     2.0;
    format      ascii;
    class       surfaceScalarField;
    location    "4.3";
    object      phi;
}
// * * * * * * * * * * * * * * * * * * * * * * * * * * * * * * * * * * * * * //

dimensions      [0 3 -1 0 0 0 0];

internalField   nonuniform List<scalar> 
63520
(
-1.3876e-05
0.000249329
-0.000235453
-4.70154e-05
0.000761323
-0.000728184
-9.46577e-05
0.00128461
-0.00123696
-0.000152868
0.00179281
-0.0017346
-0.000218381
0.00227408
-0.00220856
-0.000288411
0.00272412
-0.00265409
-0.000360532
0.00314221
-0.00307008
-0.00043264
0.00352942
-0.00345731
-0.000502901
0.00388753
-0.00381727
-0.000569749
0.0042185
-0.00415165
-0.00063185
0.0045239
-0.0044618
-0.000688065
0.00480486
-0.00474865
-0.000737448
0.00506208
-0.00501269
-0.000779214
0.00529583
-0.00525407
-0.000812708
0.00550616
-0.00547267
-0.000837391
0.00569296
-0.00566827
-0.000852823
0.00585608
-0.00584065
-0.000858646
0.00599547
-0.00598964
-0.000854572
0.00611117
-0.00611524
-0.000840369
0.00620339
-0.00621759
-0.000815861
0.00627254
-0.00629705
-0.000780914
0.00631923
-0.00635417
-0.000735426
0.00634422
-0.00638971
-0.000679323
0.00634849
-0.0064046
-0.000612558
0.00633316
-0.00639993
-0.000535116
0.00629948
-0.00637692
-0.000446998
0.00624881
-0.00633693
-0.000348231
0.0061826
-0.00628136
-0.000238878
0.00610235
-0.0062117
-0.000119045
0.00600962
-0.00612945
1.111e-05
0.00590598
-0.00603613
0.000151361
0.00579302
-0.00593327
0.000301392
0.00567235
-0.00582238
0.000460777
0.00554555
-0.00570493
0.000628948
0.0054142
-0.00558237
0.000805163
0.00527987
-0.00545609
0.000988486
0.00514408
-0.0053274
0.00117775
0.00500818
-0.00519745
0.0013715
0.00487522
-0.00506897
0.00474912
0.00156802
-0.00494563
-1.3777e-05
0.000263106
-4.65717e-05
0.000794117
-9.3652e-05
0.00133169
-0.000151216
0.00185037
-0.000216108
0.00233897
-0.000285614
0.00279363
-0.000357356
0.00321395
-0.000429268
0.00360133
-0.000499556
0.00395782
-0.000566647
0.00428559
-0.000629196
0.00458645
-0.000686061
0.00486173
-0.00073628
0.00511229
-0.00077905
0.0053386
-0.000813708
0.00554082
-0.000839707
0.00571895
-0.000856589
0.00587296
-0.000863972
0.00600285
-0.000861541
0.00610874
-0.000849044
0.00619089
-0.000826272
0.00624977
-0.000793051
0.00628601
-0.000749243
0.00630041
-0.000694732
0.00629398
-0.000629425
0.00626785
-0.000553247
0.0062233
-0.000466146
0.00616171
-0.000368103
0.00608455
-0.000259129
0.00599337
-0.000139278
0.00588977
-8.66205e-06
0.00577536
0.000132533
0.00565183
0.000284024
0.00552086
0.000445404
0.00538417
0.00061611
0.00524349
0.000795392
0.00510059
0.000982267
0.0049572
0.0011755
0.00481495
0.00137355
0.00467717
0.00454814
0.00157452
-1.35319e-05
0.000276638
-4.5647e-05
0.000826232
-9.17395e-05
0.00137778
-0.000148143
0.00190677
-0.000211811
0.00240264
-0.000280136
0.00286195
-0.000350826
0.00328464
-0.000421849
0.00367235
-0.000491439
0.00402741
-0.000558029
0.00435218
-0.000620282
0.0046487
-0.000677051
0.0049185
-0.00072736
0.0051626
-0.000770399
0.00538164
-0.00080549
0.00557591
-0.000832064
0.00574553
-0.000849648
0.00589055
-0.000857847
0.00601105
-0.000856327
0.00610722
-0.000844808
0.00617937
-0.00082305
0.00622801
-0.000790848
0.0062538
-0.000748022
0.00625759
-0.000694414
0.00624038
-0.000629885
0.00620333
-0.00055432
0.00614773
-0.00046762
0.00607501
-0.00036971
0.00598664
-0.000260549
0.00588421
-0.000140148
0.00576936
-8.57324e-06
0.00564379
0.000134027
0.00550923
0.000287405
0.00536748
0.00045118
0.00522039
0.000624803
0.00506987
0.000807521
0.00491787
0.000998331
0.00476639
0.00119593
0.00461735
0.00139869
0.00447442
0.00434227
0.00160456
-1.31297e-05
0.000289767
-4.43044e-05
0.000857407
-8.9024e-05
0.0014225
-0.000143774
0.00196152
-0.000205656
0.00246452
-0.000272174
0.00292847
-0.000341119
0.00335358
-0.000410521
0.00374175
-0.000478658
0.00409554
-0.000543977
0.0044175
-0.000605141
0.00470987
-0.000661004
0.00497436
-0.00071059
0.00521219
-0.000753071
0.00542412
-0.000787758
0.0056106
-0.000814074
0.00577184
-0.000831531
0.00590801
-0.000839714
0.00601923
-0.000838268
0.00610577
-0.000826894
0.006168
-0.000805323
0.00620644
-0.000773316
0.0062218
-0.000730659
0.00621493
-0.00067716
0.00618688
-0.000612641
0.00613881
-0.000536938
0.00607203
-0.000449908
0.00598798
-0.000351434
0.00588817
-0.000241434
0.00577422
-0.000119874
0.0056478
1.32213e-05
0.00551069
0.000157744
0.0053647
0.000313482
0.00521174
0.000480084
0.00505379
0.00065703
0.00489292
0.000843576
0.00473132
0.00103871
0.00457126
0.00124108
0.00441498
0.00144897
0.00426652
0.00413106
0.00166019
-1.26138e-05
0.000302381
-4.25425e-05
0.000887335
-8.54783e-05
0.00146543
-0.000138076
0.00201412
-0.000197586
0.00252403
-0.000261644
0.00299253
-0.000328149
0.00342009
-0.000395199
0.0038088
-0.000461101
0.00416144
-0.000524343
0.00448074
-0.000583598
0.00476912
-0.000637717
0.00502848
-0.000685719
0.00526019
-0.000726775
0.00546518
-0.000760183
0.00564401
-0.000785351
0.00579701
-0.000801777
0.00592443
-0.000809033
0.00602649
-0.000806749
0.00610349
-0.0007946
0.00615585
-0.000772293
0.00618414
-0.000739564
0.00618907
-0.000696169
0.00617154
-0.000641879
0.00613259
-0.000576482
0.00607341
-0.000499781
0.00599533
-0.000411595
0.00589979
-0.000311771
0.00578834
-0.000200188
0.00566263
-7.67753e-05
0.00552439
5.84786e-05
0.00537544
0.000205503
0.00521768
0.000364123
0.00505312
0.000534026
0.00488389
0.000714722
0.00471223
0.000905496
0.00454055
0.00110534
0.00437142
0.00131289
0.00420743
0.00152635
0.00405306
0.00391404
0.00174336
-1.19628e-05
0.000314343
-4.03776e-05
0.00091575
-8.11388e-05
0.00150619
-0.000131094
0.00206408
-0.000187672
0.00258061
-0.00024864
0.0030535
-0.000312009
0.00348345
-0.00037596
0.00387275
-0.000438848
0.00422433
-0.000499193
0.00454109
-0.000555685
0.00482561
-0.000607182
0.00507998
-0.000652705
0.00530571
-0.000691415
0.00550389
-0.000722599
0.00567519
-0.000745659
0.00582007
-0.000760079
0.00593885
-0.000765419
0.00603183
-0.000761291
0.00609936
-0.000747354
0.00614191
-0.000723294
0.00616008
-0.000688824
0.0061546
-0.000643672
0.00612639
-0.000587586
0.0060765
-0.000520325
0.00600615
-0.000441663
0.00591667
-0.000351391
0.00580952
-0.000249327
0.00568628
-0.000135323
0.00554863
-9.27904e-06
0.00539835
0.000128847
0.00523731
0.000279019
0.00506751
0.000441096
0.00489105
0.000614806
0.00471018
0.000799702
0.00452733
0.000995108
0.00434515
0.00120004
0.00416648
0.00141315
0.00399433
0.00163257
0.00383364
0.0036908
0.00185581
-1.12035e-05
0.000325547
-3.7836e-05
0.000942382
-7.60413e-05
0.0015444
-0.00012288
0.00211091
-0.000175962
0.00263369
-0.000233208
0.00311074
-0.00029275
0.003543
-0.000352853
0.00393286
-0.000411927
0.0042834
-0.000468535
0.0045977
-0.00052139
0.00487847
-0.000569359
0.00512794
-0.000611461
0.00534782
-0.000646856
0.00553928
-0.000674827
0.00570316
-0.000694761
0.00584001
-0.000706135
0.00595023
-0.000708497
0.00603419
-0.000701449
0.00609231
-0.000684632
0.0061251
-0.000657716
0.00613316
-0.000620393
0.00611727
-0.000572378
0.00607837
-0.000513397
0.00601752
-0.000443189
0.00593594
-0.000361506
0.00583499
-0.000268124
0.00571614
-0.000162842
0.005581
-4.54942e-05
0.00543128
8.40421e-05
0.00526881
0.000225829
0.00509552
0.000379856
0.00491348
0.000546016
0.00472489
0.000724079
0.00453211
0.000913645
0.00433776
0.00111409
0.0041447
0.00132449
0.00395609
0.00154349
0.00377532
0.00176924
0.0036079
0.00346095
0.00199909
-1.03464e-05
0.000335893
-3.49493e-05
0.000966985
-7.02323e-05
0.00157968
-0.000113489
0.00215417
-0.000162531
0.00268273
-0.000215438
0.00316365
-0.000270459
0.00359802
-0.000325961
0.00398836
-0.000380419
0.00433786
-0.000432439
0.00464972
-0.00048076
0.00492679
-0.000524265
0.00517145
-0.000561976
0.00538553
-0.000593052
0.00557036
-0.000616771
0.00572688
-0.000632512
0.00585575
-0.000639744
0.00595746
-0.000638009
0.00603246
-0.000626896
0.0060812
-0.000606033
0.00610423
-0.000575079
0.00610221
-0.000533719
0.00607591
-0.000481652
0.0060263
-0.000418591
0.00595446
-0.000344267
0.00586161
-0.000258422
0.00574914
-0.000160822
0.00561854
-5.12588e-05
0.00547144
7.044e-05
0.00530958
0.000204405
0.00513485
0.000350712
0.00494922
0.000509367
0.00475483
0.000680292
0.00455396
0.000863291
0.00434911
0.00105802
0.00414303
0.00126392
0.0039388
0.00148014
0.00373988
0.00170536
0.00355009
0.00193775
0.00337551
0.00322414
0.00217456
-9.4028e-06
0.000345296
-3.1747e-05
0.000989329
-6.37669e-05
0.0016117
-0.000103006
0.00219341
-0.000147484
0.00272721
-0.000195445
0.00321161
-0.00024527
0.00364784
-0.000295426
0.00403851
-0.000344463
0.0043869
-0.000391035
0.00469629
-0.000433914
0.00496967
-0.000472
0.00520954
-0.000504324
0.00541785
-0.000530045
0.00559608
-0.000548438
0.00574527
-0.000558877
0.00586619
-0.000560826
0.00595941
-0.00055382
0.00602545
-0.00053744
0.00606482
-0.000511307
0.0060781
-0.000475075
0.00606597
-0.000428422
0.00602926
-0.000371044
0.00596892
-0.000302651
0.00588607
-0.00022297
0.00578193
-0.000131745
0.00565792
-2.87447e-05
0.00551554
8.62343e-05
0.00535646
0.000213362
0.00518245
0.000352765
0.00499544
0.000504518
0.00479746
0.000668637
0.00459071
0.000845059
0.00437754
0.00103363
0.00416055
0.00123405
0.00394262
0.00144583
0.00372702
0.00166819
0.00351751
0.00189993
0.00331836
0.00213922
0.00313622
0.00298009
0.00238327
-8.38368e-06
0.00035368
-2.82653e-05
0.00100921
-5.67114e-05
0.00164015
-9.1528e-05
0.00222823
-0.000130946
0.00276663
-0.000173384
0.00325405
-0.000217354
0.00369181
-0.000261434
0.00408259
-0.000304252
0.00442971
-0.000344518
0.00473655
-0.000381043
0.00500619
-0.000412746
0.00524124
-0.00043867
0.00544378
-0.000457979
0.00561539
-0.000469946
0.00575724
-0.000473944
0.00587019
-0.000469434
0.0059549
-0.000455944
0.00601196
-0.000433054
0.00604193
-0.000400381
0.00604543
-0.000357581
0.00602317
-0.000304332
0.00597601
-0.000240332
0.00590492
-0.000165297
0.00581103
-7.89621e-05
0.0056956
1.8917e-05
0.00556004
0.000128559
0.0054059
0.000250151
0.00523486
0.000383845
0.00504876
0.000529754
0.00484953
0.000687941
0.00463928
0.000858416
0.00442023
0.00104112
0.00419483
0.00123593
0.00396574
0.00144259
0.00373596
0.00166068
0.00350892
0.00188954
0.00328866
0.00212804
0.00307985
0.00237446
0.0028898
0.00272858
0.00262597
-7.29969e-06
0.000360979
-2.4544e-05
0.00102645
-4.91415e-05
0.00166475
-7.91681e-05
0.00225825
-0.000113069
0.00280053
-0.000149436
0.00329041
-0.000186924
0.0037293
-0.00022422
0.00411989
-0.00026004
0.00446553
-0.000293156
0.00476967
-0.000322417
0.00503545
-0.000346772
0.00526559
-0.000365279
0.00546228
-0.000377109
0.00562722
-0.000381536
0.00576167
-0.000377936
0.00586659
-0.000365769
0.00594273
-0.00034456
0.00599075
-0.000313889
0.00601126
-0.000273379
0.00600492
-0.00022269
0.00597248
-0.000161508
0.00591483
-8.95419e-05
0.00583296
-6.52151e-06
0.00572801
8.78008e-05
0.00560128
0.000193647
0.00545419
0.000311211
0.00528833
0.000440653
0.00510542
0.000582097
0.00490732
0.000735626
0.004696
0.000901279
0.00447362
0.00107905
0.00424246
0.00126887
0.00400501
0.00147063
0.00376398
0.00168412
0.00352247
0.00190898
0.00328406
0.00214465
0.00305299
0.00239015
0.00283435
0.00264386
0.00263609
0.00246945
0.00290299
-6.16457e-06
0.000367144
-2.06263e-05
0.00104092
-4.11408e-05
0.00168526
-6.60551e-05
0.00228317
-9.40243e-05
0.0028285
-0.000123817
0.00332021
-0.000154231
0.00375971
-0.00018407
0.00414973
-0.00021214
0.0044936
-0.00023728
0.00479481
-0.000258387
0.00505656
-0.000274441
0.00528165
-0.000284521
0.00547236
-0.000287808
0.00563051
-0.000283583
0.00575744
-0.000271225
0.00585423
-0.000250196
0.0059217
-0.000220025
0.00596058
-0.000180295
0.00597153
-0.000130641
0.00595526
-7.07318e-05
0.00591258
-2.69461e-07
0.00584437
8.10197e-05
0.00575167
0.000173382
0.00563565
0.000277039
0.00549762
0.000392179
0.00533905
0.000518963
0.00516155
0.000657511
0.00496687
0.000807908
0.00475692
0.000970196
0.00453372
0.00114438
0.00429944
0.00133041
0.00405643
0.00152822
0.0038072
0.00173768
0.00355452
0.0019586
0.00330155
0.0021907
0.00305195
0.00243352
0.00281017
0.00268621
0.00258166
0.00294732
0.00237498
0.00220263
0.00321414
-4.99132e-06
0.000372135
-1.65592e-05
0.00105248
-3.28016e-05
0.0017015
-5.233e-05
0.00230269
-7.40043e-05
0.00285017
-9.67685e-05
0.00334297
-0.000119565
0.00378251
-0.000141316
0.00417148
-0.000160922
0.00451321
-0.000177295
0.00481118
-0.000189386
0.00506865
-0.000196211
0.00528847
-0.000196874
0.00547303
-0.000190572
0.0056242
-0.000176597
0.00574347
-0.000154335
0.00583197
-0.000123254
0.00589062
-8.28878e-05
0.00592021
-3.28333e-05
0.00592148
2.72619e-05
0.00589517
9.77097e-05
0.00584213
0.000178788
0.00576329
0.000270745
0.00565971
0.000373793
0.0055326
0.000488119
0.00538329
0.00061387
0.0052133
0.00075116
0.00502426
0.000900063
0.00481797
0.00106061
0.00459637
0.0012328
0.00436153
0.00141657
0.00411567
0.00161186
0.00386115
0.00181853
0.00360052
0.00203645
0.0033366
0.00226544
0.00307256
0.00250526
0.00281213
0.00275555
0.00255989
0.00301561
0.0023216
0.00328419
0.0021064
0.00192811
0.00355871
-3.7949e-06
0.00037593
-1.2393e-05
0.00106108
-2.42218e-05
0.00171333
-3.81451e-05
0.00231662
-5.32196e-05
0.00286525
-6.85591e-05
0.00335831
-8.325e-05
0.0037972
-9.63346e-05
0.00418456
-0.000106813
0.00452369
-0.000113674
0.00481804
-0.000115927
0.0050709
-0.000112634
0.00528518
-0.000102927
0.00546332
-8.60232e-05
0.0056073
-6.12323e-05
0.00571868
-2.79512e-05
0.00579869
1.43431e-05
0.00584833
6.61028e-05
0.00586845
0.000127716
0.00585986
0.000199513
0.00582337
0.000281784
0.00575986
0.000374778
0.0056703
0.000478706
0.00555578
0.000593746
0.00541756
0.000720034
0.00525701
0.000857671
0.00507566
0.00100672
0.00487521
0.00116719
0.0046575
0.00133905
0.0044245
0.00152225
0.00417834
0.00171666
0.00392125
0.00192216
0.00365565
0.00213857
0.00338411
0.00236572
0.00310946
0.00260341
0.00283487
0.00285144
0.00256409
0.00310953
0.0023018
0.00337713
0.002054
0.00365319
0.00183034
0.00164595
0.00393535
-2.59101e-06
0.000378521
-8.18042e-06
0.00106667
-1.55046e-05
0.00172065
-2.36621e-05
0.00232477
-3.18952e-05
0.00287348
-3.94795e-05
0.00336589
-4.56423e-05
0.00380336
-4.95462e-05
0.00418846
-5.02934e-05
0.00452444
-4.69551e-05
0.0048147
-3.86063e-05
0.00506255
-2.43569e-05
0.00527093
-3.37681e-06
0.00544234
2.50896e-05
0.00557883
6.17128e-05
0.00568205
0.000107079
0.00575332
0.000161696
0.00579371
0.000225996
0.00580415
0.000300344
0.00578551
0.000385049
0.00573867
0.000480366
0.00566454
0.00058651
0.00556415
0.000703652
0.00543864
0.000831918
0.00528929
0.000971395
0.00511753
0.00112213
0.00492493
0.0012841
0.00471323
0.00145728
0.00448432
0.00164157
0.00424022
0.00183682
0.00398308
0.00204287
0.00371521
0.0022595
0.00343902
0.00248648
0.00315713
0.0027236
0.00287235
0.00297062
0.00258785
0.00322735
0.00230737
0.00349356
0.00203559
0.00376885
0.00177871
0.00405238
0.00154681
0.00135627
0.00434206
-1.39607e-06
0.000379917
-3.97558e-06
0.00106925
-6.75643e-06
0.00172344
-9.04969e-06
0.00232707
-1.02684e-05
0.0028747
-9.83913e-06
0.00336547
-7.12445e-06
0.00380065
-1.4066e-06
0.00418275
8.10811e-06
0.00451492
2.22623e-05
0.00480055
4.19091e-05
0.00504291
6.7883e-05
0.00524496
0.000100972
0.00540925
0.000141896
0.00553791
0.000191301
0.00563265
0.000249748
0.00569487
0.000317725
0.00572573
0.000395637
0.00572624
0.000483822
0.00569733
0.000582556
0.00563993
0.000692058
0.00555504
0.0008125
0.00544371
0.000944002
0.00530714
0.00108664
0.00514666
0.00124043
0.00496373
0.00140536
0.00476
0.00158136
0.00453724
0.00176829
0.00429738
0.00196601
0.00404251
0.00217428
0.00377481
0.00239286
0.00349662
0.00262147
0.00321041
0.0028598
0.00291879
0.00310757
0.00262458
0.00336451
0.00233091
0.00363039
0.00204148
0.00390503
0.00176095
0.00418815
0.00149559
0.00447912
0.00125583
0.00105924
0.00477615
-2.26013e-07
0.000380143
1.66851e-07
0.00106886
1.91466e-06
0.00172169
5.51948e-06
0.00232346
1.14155e-05
0.0028688
2.00391e-05
0.00335684
3.18997e-05
0.00378879
4.75978e-05
0.00416705
6.78224e-05
0.0044947
9.33254e-05
0.00477505
0.000124883
0.00501135
0.000163268
0.00520657
0.000209217
0.0053633
0.000263411
0.00548372
0.00032646
0.0055696
0.000398898
0.00562243
0.000481178
0.00564345
0.000573679
0.00563374
0.000676702
0.00559431
0.000790483
0.00552615
0.000915201
0.00543032
0.00105097
0.00530794
0.00119787
0.00516025
0.00135589
0.00498863
0.00152501
0.00479462
0.00170512
0.00457989
0.00189609
0.00434627
0.0020977
0.00409577
0.00230972
0.00383048
0.00253186
0.00355267
0.00276377
0.00326471
0.0030051
0.00296909
0.00325547
0.00266843
0.0035145
0.00236554
0.00378188
0.00206354
0.00405734
0.00176602
0.0043407
0.00147759
0.00463176
0.00120452
0.00493013
0.00095747
0.000755067
0.0052343
9.01919e-07
0.000379241
4.1927e-06
0.00106557
1.04009e-05
0.00171548
1.98718e-05
0.00231399
3.2908e-05
0.00285576
4.98248e-05
0.00333992
7.10124e-05
0.0037676
9.69588e-05
0.0041411
0.000128248
0.00446341
0.000165538
0.00473776
0.000209524
0.00496736
0.000260909
0.00515519
0.000320372
0.00530384
0.000388546
0.00541554
0.000465999
0.00549215
0.000553227
0.00553521
0.000650647
0.00554603
0.000758596
0.00552579
0.000877337
0.00547557
0.00100706
0.00539643
0.00114789
0.00528949
0.00129989
0.00515594
0.00146307
0.00499707
0.00163736
0.00481434
0.00182266
0.00460932
0.00201879
0.00438375
0.00222553
0.00413953
0.0024426
0.0038787
0.00266967
0.00360341
0.00290637
0.00331598
0.00315227
0.00301881
0.00340694
0.00271442
0.0036699
0.00240546
0.00394072
0.00209473
0.00421898
0.00178528
0.00450437
0.00148063
0.00479669
0.00118527
0.00509581
0.000905402
0.00540148
0.000651795
0.000443995
0.00571256
1.9717e-06
0.000377269
8.04958e-06
0.00105949
1.85974e-05
0.00170493
3.38363e-05
0.00229875
5.39622e-05
0.00283564
7.91861e-05
0.0033147
0.00010979
0.003737
0.000146156
0.00410474
0.000188763
0.0044208
0.000238174
0.00468835
0.000294997
0.00491054
0.000359859
0.00509033
0.000433377
0.00523032
0.000516126
0.00533279
0.000608623
0.00539965
0.000711318
0.00543251
0.000824583
0.00543277
0.000948708
0.00540167
0.00108391
0.00534037
0.00123032
0.00525002
0.00138801
0.0051318
0.00155699
0.00498696
0.00173717
0.00481688
0.00192845
0.00462306
0.00213062
0.00440715
0.00234344
0.00417094
0.0025666
0.00391638
0.00279973
0.00364556
0.00304243
0.00336071
0.00329423
0.00306417
0.00355464
0.0027584
0.00382312
0.00244594
0.00409912
0.00212946
0.0043821
0.00181174
0.00467159
0.00149579
0.00496719
0.00118503
0.00526867
0.000883798
0.0055759
0.00059817
0.00588879
0.000338903
0.000126284
0.0062065
2.96869e-06
0.0003743
1.16881e-05
0.00105077
2.6404e-05
0.00169022
4.72489e-05
0.00227791
7.43382e-05
0.00280855
0.000107797
0.00328124
0.000147813
0.00369698
0.000194666
0.00405788
0.000248736
0.00436673
0.000310487
0.0046266
0.000380439
0.00484059
0.000459137
0.00501163
0.000547124
0.00514234
0.000644912
0.005235
0.000752959
0.0052916
0.00087166
0.00531381
0.00100133
0.0053031
0.00114221
0.00526078
0.00129446
0.00518812
0.00145815
0.00508632
0.00163329
0.00495666
0.00181981
0.00480044
0.00201757
0.00461912
0.00222637
0.00441426
0.00244593
0.00418758
0.00267593
0.00394094
0.00291597
0.00367634
0.00316561
0.00339593
0.00342434
0.00310198
0.00369163
0.00279688
0.00396689
0.00248314
0.0042495
0.00216333
0.00453883
0.00184013
0.00483425
0.00151632
0.00513519
0.00119484
0.00544119
0.000879042
0.00575192
0.000573063
0.00606728
0.000282812
0.00638726
1.89173e-05
-0.000197775
0.00671132
3.87914e-06
0.000370421
1.5063e-05
0.00103958
3.37281e-05
0.00167155
5.99559e-05
0.00225168
9.38088e-05
0.0027747
0.000135346
0.0032397
0.000184672
0.00364765
0.000241977
0.00400058
0.000307543
0.00430116
0.000381735
0.0045524
0.000464982
0.00475734
0.000557742
0.00491887
0.000660478
0.0050396
0.00077363
0.00512185
0.000897588
0.00516764
0.00103268
0.00517872
0.00117917
0.00515661
0.00133722
0.00510273
0.00150694
0.0050184
0.00168833
0.00490493
0.00188133
0.00476366
0.00208579
0.00459598
0.00230151
0.00440341
0.0025282
0.00418758
0.00276549
0.00395028
0.00301299
0.00369344
0.0032702
0.00341912
0.00353661
0.00312952
0.00381162
0.00282696
0.00409461
0.00251389
0.00438491
0.00219284
0.00468182
0.00186642
0.00498462
0.00153733
0.0052926
0.00120833
0.0056051
0.000882346
0.00592155
0.000562592
0.00624157
0.000253045
0.006565
-4.06206e-05
0.00689191
-0.000307992
-0.000527864
0.007222
4.69116e-06
0.000365729
1.81342e-05
0.00102614
4.04866e-05
0.0016492
7.18181e-05
0.00222035
0.000112166
0.00273435
0.000161542
0.00319033
0.000219985
0.00358921
0.000287602
0.00393296
0.000364583
0.00422418
0.000451196
0.00446579
0.000547774
0.00466076
0.000654687
0.00481195
0.00077231
0.00492198
0.000901002
0.00499316
0.00104108
0.00502757
0.0011928
0.005027
0.00135635
0.00499306
0.00153183
0.00492725
0.00171927
0.00483096
0.0019186
0.00470559
0.0021297
0.00455256
0.00235234
0.00437334
0.00258622
0.00416953
0.00283097
0.00394282
0.00308616
0.00369509
0.0033513
0.00342831
0.00362581
0.00314461
0.00390908
0.00284625
0.00420045
0.00253559
0.0044992
0.00221514
0.00480459
0.00188746
0.00511582
0.0015552
0.00543209
0.00122106
0.00575262
0.000887808
0.00607664
0.000558326
0.0064035
0.000235736
0.00673271
-7.61719e-05
0.00706408
-0.000371986
0.00739768
-0.000641593
-0.000863616
0.00773343
5.39498e-06
0.000360334
2.08677e-05
0.00101067
4.66087e-05
0.00162346
8.2715e-05
0.00218424
0.000129225
0.00268784
0.000186125
0.00313343
0.000253403
0.00352193
0.000331091
0.00385527
0.000419294
0.00413598
0.000518186
0.0043669
0.000628005
0.00455095
0.000749024
0.00469094
0.000881529
0.00478947
0.00102579
0.0048489
0.00118204
0.00487132
0.00135046
0.00485858
0.00153115
0.00481237
0.00172414
0.00473425
0.00192939
0.00462571
0.00214676
0.00448823
0.00237602
0.0043233
0.00261688
0.00413248
0.00286896
0.00391745
0.0031318
0.00367998
0.0034049
0.00342199
0.00368765
0.00314555
0.00397943
0.00285283
0.00427953
0.00254615
0.00458719
0.00222793
0.00490162
0.00190071
0.00522198
0.00156709
0.00554742
0.00122976
0.00587703
0.000891437
0.00620996
0.000554886
0.00654533
0.000222948
0.00688241
-0.000101343
0.00722062
-0.000414382
0.00755968
-0.000711038
0.00789965
-0.000981567
-0.0012046
0.00824064
5.98329e-06
0.000354351
2.32371e-05
0.000993414
5.20382e-05
0.00159466
9.25483e-05
0.00214373
0.000144834
0.00263555
0.000208875
0.00306939
0.000284624
0.00344618
0.00037205
0.00376785
0.000471177
0.00403685
0.00058209
0.00425598
0.000704931
0.0044281
0.000839877
0.00455599
0.000987117
0.00464223
0.00114683
0.00468919
0.00131915
0.00469899
0.00150419
0.00467355
0.00170195
0.00461461
0.00191239
0.00452381
0.00213538
0.00440273
0.00237069
0.00425292
0.00261803
0.00407596
0.00287701
0.0038735
0.00314717
0.00364728
0.00342799
0.00339916
0.00371884
0.00313114
0.00401907
0.00284532
0.00432795
0.00254396
0.00464469
0.00222941
0.00496845
0.00190417
0.00529835
0.00157081
0.00563347
0.00123197
0.00597287
0.000890367
0.00631556
0.000548739
0.0066606
0.000209854
0.00700703
-0.000123483
0.00735401
-0.000448323
0.00770087
-0.000761241
0.00804723
-0.0010574
0.00839315
-0.00132748
-0.00155031
0.00873886
6.45131e-06
0.000347899
2.52244e-05
0.000974641
5.67354e-05
0.00156314
0.000101246
0.00209922
0.000158875
0.00257793
0.000229618
0.00299864
0.000313403
0.0033624
0.000410149
0.0036711
0.000519807
0.00392719
0.000642378
0.00413341
0.000777908
0.00429258
0.000926477
0.00440742
0.00108817
0.00448053
0.00126308
0.00451428
0.00145125
0.00451083
0.00165267
0.00447213
0.00186729
0.00439999
0.00209496
0.00429614
0.00233547
0.00416222
0.0025885
0.00399988
0.00285369
0.00381077
0.00313057
0.00359663
0.00341858
0.00335927
0.00371711
0.00310063
0.00402547
0.00282278
0.00434291
0.00252788
0.00466861
0.00221825
0.00500171
0.00189632
0.00534127
0.00156461
0.00568632
0.00122575
0.00603587
0.000882423
0.00638887
0.000537371
0.00674426
0.00019335
0.00710098
-0.000146874
0.00745802
-0.000480523
0.00781443
-0.000804733
0.00816945
-0.00111626
0.0085226
-0.00141056
0.0088739
-0.00167878
-0.0019001
0.00922369
6.79691e-06
0.000341102
2.6821e-05
0.000954617
6.0679e-05
0.00152929
0.000108765
0.00205114
0.000171274
0.00251542
0.000248233
0.00292168
0.000339563
0.00327107
0.000445143
0.00356552
0.000564859
0.00380748
0.000698631
0.00399964
0.000846415
0.00414479
0.00100819
0.00424564
0.00118395
0.00430477
0.00137368
0.00432456
0.00157733
0.00430718
0.00179479
0.00425466
0.00202592
0.00416886
0.00227049
0.00405157
0.00252818
0.00390453
0.00279861
0.00372944
0.00308132
0.00352807
0.00337574
0.0033022
0.00368126
0.00305375
0.00399717
0.00278472
0.00432269
0.00249725
0.00465699
0.00219358
0.00499916
0.00187608
0.00534824
0.00154724
0.00570321
0.00120964
0.00606301
0.000865948
0.00642654
0.000518895
0.00679266
0.000171248
0.00716023
-0.000174219
0.0075281
-0.000514741
0.00789515
-0.000847576
0.00826036
-0.00116994
0.00862286
-0.00147876
0.00898211
-0.00176981
0.00933806
-0.00203473
-0.0022532
0.00969117
7.02068e-06
0.000334081
2.80282e-05
0.000933609
6.38672e-05
0.00149345
0.000115093
0.00199991
0.000182
0.00244851
0.000264663
0.00283902
0.000363006
0.00317273
0.00047688
0.00345165
0.000606116
0.00367824
0.000750561
0.0038552
0.000910082
0.00398527
0.00108457
0.00407116
0.0012739
0.00411543
0.00147798
0.00412048
0.00169664
0.00408852
0.0019297
0.0040216
0.00217691
0.00392166
0.00243793
0.00379055
0.00271239
0.00363007
0.0029998
0.00344204
0.0032996
0.00322826
0.00361117
0.00299063
0.00393379
0.00273113
0.00426667
0.00245185
0.00460894
0.00215498
0.00495968
0.00184284
0.00531789
0.00151787
0.00568252
0.00118262
0.00605243
0.000839725
0.00642647
0.000491904
0.00680344
0.000141928
0.0071821
-0.000207409
0.0075612
-0.000553319
0.0079395
-0.000893045
0.00831581
-0.00122388
0.008689
-0.00154314
0.00905814
-0.0018479
0.00942261
-0.00213427
0.00978231
-0.00239443
-0.00260869
0.0101378
7.12616e-06
0.000326955
2.88576e-05
0.000911878
6.63184e-05
0.00145599
0.000120252
0.00194598
0.000191072
0.00237769
0.000278912
0.00275118
0.000383716
0.00306792
0.000505315
0.00333005
0.000643493
0.00354006
0.000798031
0.00370066
0.000968714
0.00381459
0.00115534
0.00388454
0.0013577
0.00391307
0.00157558
0.0039026
0.00180873
0.00385537
0.00205687
0.00377346
0.00231964
0.00365888
0.00259664
0.00351355
0.00288737
0.00333934
0.00319128
0.00313812
0.00350773
0.00291181
0.00383599
0.00266237
0.00417526
0.00239186
0.00452466
0.00210245
0.00488324
0.0017964
0.00524996
0.00147612
0.00562374
0.0011441
0.00600339
0.000802968
0.0063877
0.000455416
0.00677538
0.000104217
0.00716513
-0.00024782
0.0075556
-0.000597875
0.00794543
-0.000943153
0.0083333
-0.00128091
0.00871792
-0.0016085
0.0090981
-0.00192331
0.00947283
-0.00222263
0.00984143
-0.00250287
0.0102038
-0.00275678
-0.00296547
0.0105605
7.12016e-06
0.000319835
2.93306e-05
0.000889667
6.80716e-05
0.00141724
0.000124298
0.00188975
0.000198557
0.00230343
0.000291057
0.00265868
0.000401767
0.00295721
0.00053051
0.00320131
0.000677037
0.00339354
0.000841065
0.00353663
0.00102231
0.00363334
0.00122047
0.00368637
0.00143526
0.00369828
0.00166636
0.0036715
0.00191344
0.00360829
0.0021761
0.0035108
0.00245391
0.00338108
0.00274636
0.0032211
0.00305287
0.00303282
0.0033728
0.0028182
0.00370541
0.0025792
0.0040499
0.00231789
0.00440536
0.0020364
0.00477082
0.00173699
0.00514522
0.001422
0.00552742
0.00109391
0.00591622
0.000755305
0.00631032
0.000408865
0.00670838
5.73548e-05
0.007109
-0.000296402
0.00751074
-0.000649558
0.00791214
-0.000999273
0.00831174
-0.00134275
0.00870811
-0.00167729
0.0090999
-0.00200029
0.00948585
-0.00230927
0.00986492
-0.00260169
0.0102364
-0.00287431
0.0106001
-0.00312048
-0.00332226
0.0109569
7.0127e-06
0.000312822
2.94793e-05
0.0008672
6.91867e-05
0.00137754
0.00012732
0.00183162
0.000204574
0.00222618
0.00030124
0.00256202
0.000417323
0.00284113
0.000552649
0.00306598
0.000706939
0.00323925
0.000879861
0.00336371
0.00107106
0.00344215
0.00128016
0.00347727
0.00150679
0.00347166
0.00175054
0.00342775
0.00201097
0.00334786
0.00228761
0.00323416
0.00257992
0.00308876
0.00288731
0.00291371
0.00320911
0.00271102
0.00354458
0.00248273
0.0038929
0.00223089
0.00425314
0.00195764
0.00462433
0.00166522
0.00500536
0.00135595
0.00539508
0.00103229
0.00579221
0.000696775
0.00619543
0.000352089
0.00660331
9.85881e-07
0.00701437
-0.000353703
0.00742707
-0.000709103
0.00783984
-0.00106233
0.00825111
-0.00141054
0.00865932
-0.00175096
0.00906294
-0.00208091
0.00946055
-0.0023979
0.00985086
-0.00269958
0.0102328
-0.00298362
0.0106056
-0.00324713
0.0109692
-0.00348408
-0.00367764
0.0113246
6.81697e-06
0.000306005
2.93453e-05
0.000844672
6.97435e-05
0.00133714
0.000129442
0.00177192
0.000209292
0.00214633
0.000309674
0.00246163
0.000430639
0.00272017
0.000572025
0.0029246
0.000733532
0.00307774
0.000914786
0.00318246
0.00111537
0.00324156
0.00133485
0.00325779
0.00157275
0.00323375
0.0018286
0.00317191
0.00210186
0.0030746
0.00239196
0.00294406
0.00269829
0.00278243
0.00302015
0.00259185
0.00335679
0.00237439
0.00370735
0.00213216
0.00407093
0.00186731
0.00444649
0.00158208
0.00483293
0.00127878
0.00522904
0.000959841
0.00563352
0.000627806
0.00604497
0.000285325
0.0064619
-6.48473e-05
0.00688276
-0.000419871
0.00730591
-0.000776851
0.00772967
-0.00113286
0.00815234
-0.00148501
0.00857223
-0.00183043
0.00898766
-0.00216639
0.00939706
-0.00249031
0.00979894
-0.00279978
0.010192
-0.00309263
0.0105751
-0.00336676
0.0109477
-0.00361965
0.0113095
-0.00384596
-0.00403006
0.011662
6.54888e-06
0.000299456
2.89794e-05
0.000822241
6.984e-05
0.00129628
0.000130818
0.00171094
0.000212923
0.00206422
0.000316634
0.00235792
0.000442055
0.00259475
0.000589042
0.00277761
0.000757285
0.0029095
0.000946374
0.00299337
0.00115584
0.00303209
0.00138519
0.00302845
0.00163388
0.00298506
0.00190134
0.00290445
0.00218697
0.00278897
0.0024901
0.00264092
0.00281002
0.00246251
0.00314594
0.00225592
0.00349701
0.00202332
0.00386227
0.0017669
0.00424069
0.00148889
0.00463113
0.00119164
0.00503234
0.000877566
0.00544298