/*--------------------------------*- C++ -*----------------------------------*\
  =========                 |
  \\      /  F ield         | OpenFOAM: The Open Source CFD Toolbox
   \\    /   O peration     | Website:  https://openfoam.org
    \\  /    A nd           | Version:  7
     \\/     M anipulation  |
\*---------------------------------------------------------------------------*/
FoamFile
{
    version     2.0;
    format      ascii;
    class       volVectorField;
    location    "4.3";
    object      U;
}
// * * * * * * * * * * * * * * * * * * * * * * * * * * * * * * * * * * * * * //

dimensions      [0 1 -1 0 0 0 0];

internalField   nonuniform List<vector> 
32000
(
(-0.000508365 0.0096806 -5.71772e-22)
(-0.00282251 0.029744 0)
(-0.00680006 0.0503499 -5.0911e-21)
(-0.0114196 0.0704252 0)
(-0.0164055 0.0894843 5.29842e-21)
(-0.0214588 0.107349 0)
(-0.0263736 0.123984 5.47524e-21)
(-0.0309997 0.139429 -4.16337e-21)
(-0.0352268 0.15375 1.68033e-24)
(-0.0389766 0.167021 2.01349e-24)
(-0.0421979 0.179301 -1.43611e-21)
(-0.0448631 0.190631 5.79947e-21)
(-0.0469607 0.201036 0)
(-0.0484882 0.210524 -1.47521e-21)
(-0.0494514 0.219093 1.48135e-21)
(-0.0498631 0.226737 0)
(-0.0497402 0.233448 7.49337e-21)
(-0.0491034 0.239222 -1.50351e-21)
(-0.0479757 0.24406 0)
(-0.046381 0.247967 3.03652e-21)
(-0.0443433 0.25096 3.03829e-21)
(-0.0418869 0.253061 0)
(-0.0390353 0.254301 0)
(-0.035811 0.254717 0)
(-0.0322364 0.254354 0)
(-0.0283337 0.253261 0)
(-0.024124 0.251492 0)
(-0.0196276 0.249103 0)
(-0.0148642 0.246156 -6.09106e-21)
(-0.00985345 0.242709 0)
(-0.0046155 0.238825 6.07076e-21)
(0.000828552 0.234567 0)
(0.00645616 0.229996 0)
(0.0122427 0.225172 0)
(0.0181602 0.220156 -6.00563e-21)
(0.0241768 0.215008 -3.00242e-21)
(0.0302562 0.209782 8.96653e-21)
(0.0363717 0.204528 -6.25033e-24)
(0.0424877 0.199361 5.93283e-21)
(0.0483611 0.19443 -8.97901e-24)
(-0.000713783 0.0102383 0)
(-0.00342369 0.0310409 9.93635e-21)
(-0.00777637 0.0521415 2.54619e-21)
(-0.0127468 0.0725416 2.71023e-25)
(-0.0180622 0.0917893 -2.64971e-21)
(-0.0234286 0.109731 0)
(-0.0286423 0.126349 5.46505e-21)
(-0.0335566 0.141699 -5.5427e-21)
(-0.0380638 0.155861 0)
(-0.0420862 0.16892 -1.13641e-20)
(-0.0455726 0.180946 0)
(-0.0484945 0.191987 -1.73847e-20)
(-0.0508392 0.202075 0)
(-0.0526028 0.211226 0)
(-0.0537898 0.219444 5.93189e-21)
(-0.054412 0.226726 -5.95106e-21)
(-0.0544852 0.233068 -5.99158e-21)
(-0.0540285 0.238469 0)
(-0.0530634 0.24293 1.80999e-20)
(-0.0516127 0.246462 -6.04336e-21)
(-0.0496996 0.24908 2.94219e-24)
(-0.047347 0.250808 -1.82117e-20)
(-0.0445774 0.251679 -1.21584e-20)
(-0.0414128 0.251731 -6.10143e-21)
(-0.037875 0.251007 1.8258e-20)
(-0.0339848 0.249558 -1.82759e-20)
(-0.0297626 0.247439 1.82867e-20)
(-0.0252285 0.244707 -2.4312e-20)
(-0.0204024 0.241422 -6.04882e-21)
(-0.0153039 0.237648 3.96787e-23)
(-0.00995316 0.233446 -1.81321e-20)
(-0.00437169 0.228884 -1.20746e-20)
(0.00141682 0.224024 2.4111e-20)
(0.00738631 0.218932 -2.40086e-20)
(0.0135074 0.213674 -5.95457e-21)
(0.0197459 0.208316 -2.38753e-20)
(0.026062 0.20292 1.30594e-23)
(0.0324254 0.197546 5.92497e-21)
(0.0387903 0.192319 -2.356e-20)
(0.0449083 0.187395 -3.40503e-20)
(-0.000934885 0.0107602 -2.28068e-21)
(-0.00404579 0.0322433 -4.96912e-21)
(-0.00875882 0.0538228 -2.28631e-20)
(-0.014057 0.0745434 0)
(-0.0196687 0.0939817 2.64557e-21)
(-0.025308 0.112006 -2.69061e-21)
(-0.0307782 0.128618 -3.27978e-20)
(-0.0359379 0.143884 1.10943e-20)
(-0.0406802 0.157898 -5.6189e-21)
(-0.0449282 0.170754 3.40637e-20)
(-0.0486337 0.182533 1.14757e-20)
(-0.0517673 0.193292 5.80071e-21)
(-0.0543146 0.203071 -2.33378e-20)
(-0.0562709 0.211892 0)
(-0.05764 0.219762 0)
(-0.0584316 0.226686 1.19145e-20)
(-0.0586601 0.232661 2.91787e-23)
(-0.0583436 0.23769 -1.19905e-20)
(-0.057503 0.241777 -1.20572e-20)
(-0.0561595 0.244932 -2.41372e-20)
(-0.0543349 0.247175 3.63144e-20)
(-0.0520514 0.248529 3.08918e-23)
(-0.0493308 0.249027 -2.48049e-24)
(-0.0461939 0.248709 1.21346e-20)
(-0.0426617 0.247619 -2.43452e-20)
(-0.0387546 0.245807 4.85758e-20)
(-0.0344925 0.243329 0)
(-0.0298952 0.240243 1.21549e-20)
(-0.0249824 0.23661 1.21396e-20)
(-0.0197736 0.232495 2.42335e-20)
(-0.0142894 0.227963 3.96015e-23)
(-0.00855218 0.223081 0)
(-0.00258642 0.217918 1.20157e-20)
(0.00358073 0.212543 -1.19188e-20)
(0.00991827 0.207028 -1.18545e-20)
(0.0163893 0.201445 3.57258e-20)
(0.0229513 0.195868 -3.54253e-20)
(0.0295706 0.190364 2.36166e-20)
(0.0361905 0.185071 -3.5125e-20)
(0.0425574 0.180155 1.34937e-20)
(-0.00117035 0.0112808 1.82292e-20)
(-0.00469204 0.0334451 -1.98334e-20)
(-0.00975678 0.0554857 4.06218e-20)
(-0.0153592 0.0765125 0)
(-0.0212357 0.0961322 1.58441e-20)
(-0.0271111 0.114236 2.68754e-20)
(-0.0327956 0.130838 5.48443e-21)
(-0.0381533 0.14602 5.40919e-24)
(-0.0430828 0.159889 1.68236e-20)
(-0.0475093 0.172546 -5.6993e-21)
(-0.051385 0.184082 2.86447e-20)
(-0.0546809 0.194563 -3.4704e-20)
(-0.0573825 0.204036 3.49893e-20)
(-0.0594842 0.212528 -1.17581e-20)
(-0.0609876 0.220055 1.18072e-20)
(-0.0619022 0.226624 -2.37496e-20)
(-0.0622416 0.232236 -3.58106e-20)
(-0.0620221 0.236895 1.19712e-20)
(-0.0612631 0.240609 -1.20396e-20)
(-0.0599853 0.24339 3.6178e-20)
(-0.0582093 0.245257 -2.41892e-20)
(-0.055956 0.246237 -2.41704e-20)
(-0.0532464 0.246362 0)
(-0.0501011 0.245672 0)
(-0.0465402 0.244212 -2.42023e-20)
(-0.0425834 0.242033 -2.42684e-20)
(-0.0382501 0.23919 -2.41702e-20)
(-0.0335601 0.235742 0)
(-0.0285331 0.231753 0)
(-0.0231889 0.227287 -4.81865e-20)
(-0.0175487 0.222413 -6.08134e-23)
(-0.0116354 0.217199 2.40377e-20)
(-0.00547431 0.211719 -2.38893e-20)
(0.000906218 0.206048 -2.38701e-20)
(0.00747341 0.200262 2.38425e-20)
(0.0141883 0.194442 0)
(0.0210058 0.18867 2.36338e-20)
(0.0278881 0.183027 -4.69237e-20)
(0.0347699 0.177662 4.67841e-20)
(0.0413893 0.172755 -5.39152e-20)
(-0.0014213 0.0117679 -9.12228e-21)
(-0.0053589 0.034566 1.48742e-20)
(-0.0107595 0.0570445 -2.03006e-20)
(-0.0166429 0.0783645 0)
(-0.0227514 0.0981612 -2.64111e-20)
(-0.0288233 0.116345 -1.61279e-20)
(-0.0346796 0.132944 2.18384e-20)
(-0.0401902 0.148052 0)
(-0.0452588 0.161785 -3.36475e-20)
(-0.0498143 0.174254 -1.13551e-20)
(-0.0538106 0.185558 -1.14549e-20)
(-0.0572195 0.195772 2.31438e-20)
(-0.0600258 0.204948 -2.32989e-20)
(-0.062223 0.213122 1.17204e-20)
(-0.0638126 0.220314 0)
(-0.0648025 0.226535 3.56279e-20)
(-0.0652051 0.23179 1.19511e-20)
(-0.0650359 0.236086 -2.39559e-20)
(-0.0643133 0.239432 4.80065e-20)
(-0.0630564 0.241844 -4.81253e-20)
(-0.0612849 0.24334 4.81589e-20)
(-0.0590193 0.243948 2.41701e-20)
(-0.0562798 0.243701 0)
(-0.0530862 0.242639 2.41983e-20)
(-0.049458 0.240808 6.69752e-23)
(-0.0454145 0.238259 0)
(-0.0409753 0.235048 2.417e-20)
(-0.0361599 0.231235 -2.41256e-20)
(-0.0309884 0.226883 2.40253e-20)
(-0.0254809 0.22206 4.80881e-20)
(-0.0196595 0.216834 -4.78965e-20)
(-0.0135476 0.21128 4.77913e-20)
(-0.00717168 0.205473 0)
(-0.000561016 0.199494 0)
(0.00625007 0.193425 4.72974e-20)
(0.0132204 0.187355 0)
(0.0203024 0.181377 0)
(0.027455 0.175585 -4.66528e-20)
(0.034605 0.170142 4.64704e-20)
(0.0414799 0.165241 2.68707e-20)
(-0.00168495 0.01223 4.5495e-21)
(-0.00604396 0.035631 0)
(-0.0117674 0.0585226 4.05147e-20)
(-0.0179069 0.0801204 5.17516e-21)
(-0.0242155 0.100086 5.27742e-21)
(-0.0304469 0.118348 3.2182e-20)
(-0.0364323 0.134948 4.35921e-20)
(-0.0420495 0.149988 0)
(-0.0472091 0.163593 1.12057e-20)
(-0.0518441 0.175883 3.39622e-20)
(-0.0559101 0.186965 4.57384e-20)
(-0.0593801 0.19692 -1.1553e-20)
(-0.0622392 0.20581 -3.48874e-20)
(-0.0644805 0.213675 0)
(-0.0661044 0.220541 4.71144e-20)
(-0.0671183 0.226422 0)
(-0.0675336 0.231328 7.13814e-20)
(-0.0673649 0.235268 -2.38607e-20)
(-0.066629 0.238254 0)
(-0.0653443 0.240302 -2.40369e-20)
(-0.06353 0.241433 -5.48254e-23)
(-0.0612057 0.241673 -2.3989e-20)
(-0.058391 0.241058 -2.40667e-20)
(-0.0551051 0.239628 2.41243e-20)
(-0.0513672 0.237427 -2.40613e-20)
(-0.0471967 0.23451 0)
(-0.042613 0.23093 -2.40695e-20)
(-0.0376362 0.22675 2.39777e-20)
(-0.0322866 0.222034 0)
(-0.0265853 0.216849 0)
(-0.0205551 0.211269 0)
(-0.0142204 0.205369 -4.76064e-20)
(-0.00760819 0.199228 4.73547e-20)
(-0.000749596 0.192932 0)
(0.0063198 0.186571 -2.35922e-20)
(0.0135573 0.180241 0)
(0.0209125 0.174046 4.6735e-20)
(0.0283416 0.168094 -2.31392e-20)
(0.0357651 0.162564 -4.63116e-20)
(0.042897 0.15767 5.32293e-20)
(-0.00196074 0.0126579 3.17841e-20)
(-0.0067443 0.0366167 -4.44768e-20)
(-0.0127748 0.0598929 -7.59204e-20)
(-0.0191465 0.0817504 -4.13306e-20)
(-0.0256232 0.101876 -1.05406e-20)
(-0.0319754 0.120215 -2.14659e-20)
(-0.0380475 0.13682 -9.80272e-20)
(-0.0437259 0.1518 -3.31138e-20)
(-0.0489279 0.165287 -5.59102e-20)
(-0.0535915 0.177411 -5.66028e-20)
(-0.0576754 0.188282 -8.00055e-20)
(-0.0611539 0.197993 -4.60949e-20)
(-0.0640125 0.206608 5.70541e-23)
(-0.066244 0.214176 -4.67715e-20)
(-0.0678487 0.220727 -4.71137e-20)
(-0.0688332 0.226279 -7.09598e-20)
(-0.0692081 0.230847 4.74353e-20)
(-0.0689867 0.234442 -2.3818e-20)
(-0.0681853 0.237077 0)
(-0.0668214 0.23877 4.78595e-20)
(-0.0649136 0.239543 0)
(-0.0624808 0.239424 9.60619e-20)
(-0.0595421 0.238448 0)
(-0.0561166 0.236654 -2.40481e-20)
(-0.0522236 0.234091 2.41151e-20)
(-0.0478823 0.230808 -4.79231e-20)
(-0.0431127 0.226864 0)
(-0.0379356 0.22232 -4.78732e-20)
(-0.032372 0.21724 4.7674e-20)
(-0.0264439 0.211696 0)
(-0.0201751 0.205761 0)
(-0.0135913 0.199513 0)
(-0.00672072 0.193035 -4.70657e-20)
(0.00040458 0.186418 0)
(0.00774746 0.179758 -4.68797e-20)
(0.0152635 0.173159 9.32919e-20)
(0.0229003 0.166738 -9.28957e-20)
(0.0306111 0.160616 4.60336e-20)
(0.0383118 0.154992 9.20488e-20)
(0.0457011 0.150099 -5.2882e-20)
(-0.00224647 0.0130476 -4.08657e-20)
(-0.00745657 0.0375157 4.80655e-23)
(-0.0137784 0.0611436 4.0468e-20)
(-0.0203572 0.0832406 8.26136e-20)
(-0.02697 0.103518 -1.05293e-20)
(-0.0334055 0.121932 -4.2829e-20)
(-0.0395219 0.138545 4.35376e-20)
(-0.0452155 0.153473 6.62387e-20)
(-0.0504111 0.166854 2.23748e-20)
(-0.0550525 0.178823 5.64815e-20)
(-0.0591017 0.189498 4.5688e-20)
(-0.0625347 0.198977 6.90838e-20)
(-0.065338 0.207333 1.39277e-19)
(-0.0675046 0.214617 7.01266e-20)
(-0.0690346 0.220866 0)
(-0.069934 0.226103 2.36383e-20)
(-0.0702128 0.230345 2.36125e-20)
(-0.0698836 0.233606 2.37274e-20)
(-0.0689617 0.235903 4.77128e-20)
(-0.0674643 0.237253 -2.39906e-20)
(-0.0654093 0.237679 0)
(-0.0628154 0.23721 -1.30219e-22)
(-0.0597013 0.235882 -4.784e-20)
(-0.0560861 0.233735 4.78193e-20)
(-0.0519894 0.230816 9.57154e-20)
(-0.0474309 0.227178 9.5559e-20)
(-0.0424316 0.222876 -4.78342e-23)
(-0.0370128 0.217974 4.75347e-20)
(-0.0311967 0.212537 4.74213e-20)
(-0.0250068 0.206638 -4.72932e-20)
(-0.0184681 0.200352 4.71518e-20)
(-0.0116075 0.19376 4.69979e-20)
(-0.00445473 0.186948 9.38979e-20)
(0.0029566 0.180009 -1.62723e-22)
(0.0105883 0.173047 1.3966e-19)
(0.0183945 0.166175 -8.23425e-23)
(0.0263205 0.159519 -4.60749e-20)
(0.0343171 0.153218 -4.61165e-20)
(0.0422977 0.147491 4.5647e-20)
(0.0499431 0.142596 5.24083e-20)
(-0.00253995 0.0133958 3.62301e-20)
(-0.0081763 0.0383182 4.93478e-20)
(-0.0147733 0.0622625 3.02709e-20)
(-0.0215346 0.0845769 -3.09669e-20)
(-0.0282522 0.104993 -5.25488e-20)
(-0.034734 0.12348 4.28217e-20)
(-0.040853 0.140105 0)
(-0.0465162 0.15499 4.40727e-20)
(-0.0516568 0.168276 0)
(-0.0562249 0.180103 -9.03204e-20)
(-0.060186 0.190597 2.28205e-20)
(-0.0635189 0.19986 -1.15015e-19)
(-0.0662111 0.207971 -4.63955e-20)
(-0.0682562 0.214988 2.32894e-20)
(-0.0696544 0.220951 3.54874e-23)
(-0.0704114 0.225888 -2.35634e-20)
(-0.0705367 0.229818 -4.73901e-20)
(-0.0700422 0.232761 -9.49911e-20)
(-0.0689427 0.234732 0)
(-0.0672552 0.235752 -1.7257e-23)
(-0.0649972 0.235845 -4.77069e-20)
(-0.062187 0.23504 -4.78357e-20)
(-0.0588435 0.233372 4.78393e-20)
(-0.0549862 0.230884 -4.79347e-20)
(-0.0506351 0.227622 4.76118e-20)
(-0.045811 0.223638 -9.52999e-20)
(-0.0405357 0.21899 -5.30376e-23)
(-0.0348319 0.213741 -9.49313e-20)
(-0.0287233 0.207959 -4.74206e-20)
(-0.0222348 0.201715 6.66519e-23)
(-0.0153931 0.195087 -1.50356e-22)
(-0.00822688 0.188159 -4.69972e-20)
(-0.000767465 0.181018 -4.68321e-20)
(0.0069502 0.173763 -2.4197e-22)
(0.0148865 0.166502 -4.64715e-20)
(0.0229941 0.159355 -2.50333e-22)
(0.0312164 0.152459 -4.58994e-20)
(0.039502 0.145971 1.37006e-19)
(0.0477637 0.140132 -4.56464e-20)
(0.0556628 0.135229 -5.23211e-20)
(-0.00283872 0.0136989 -3.6226e-20)
(-0.00889882 0.0390162 9.85629e-21)
(-0.0157547 0.0632379 -3.02843e-20)
(-0.0226747 0.0857447 -1.03026e-20)
(-0.0294666 0.106287 4.20349e-20)
(-0.0359585 0.124842 -1.06918e-20)
(-0.0420392 0.141482 1.08531e-20)
(-0.0476273 0.156331 -6.61076e-20)
(-0.0526647 0.169534 2.22923e-20)
(-0.0571083 0.181235 4.51349e-20)
(-0.0609281 0.191564 0)
(-0.0641057 0.200628 9.19109e-20)
(-0.0666303 0.208511 0)
(-0.0684965 0.215277 -9.32152e-20)
(-0.0697046 0.220971 -4.68302e-20)
(-0.0702606 0.225624 0)
(-0.0701734 0.22926 0)
(-0.0694545 0.2319 9.48008e-20)
(-0.0681188 0.233563 4.75395e-20)
(-0.0661828 0.234269 -9.51582e-20)
(-0.063664 0.234044 4.75884e-20)
(-0.0605807 0.232918 0)
(-0.0569521 0.230927 -4.76549e-20)
(-0.0527984 0.228113 9.50141e-20)
(-0.0481407 0.224523 -4.74936e-20)
(-0.0430008 0.22021 -4.74812e-20)
(-0.037402 0.215231 4.73176e-20)
(-0.0313686 0.20965 0)
(-0.024926 0.203536 9.41512e-20)
(-0.018101 0.196962 -4.69343e-20)
(-0.0109224 0.190008 -4.68509e-20)
(-0.00342083 0.182756 -7.16112e-23)
(0.00437052 0.1753 1.85819e-19)
(0.012415 0.167738 -1.38925e-19)
(0.0206717 0.160184 0)
(0.0290921 0.152766 -4.60261e-20)
(0.0376172 0.145629 -9.1458e-20)
(0.0461939 0.138948 4.52773e-20)
(0.0547365 0.132989 4.51286e-20)
(0.0628856 0.128071 0)
(-0.00314001 0.0139544 -7.2252e-20)
(-0.00961902 0.0396028 -9.84246e-21)
(-0.0167177 0.0640593 8.05344e-20)
(-0.0237732 0.0867312 -8.22674e-20)
(-0.0306099 0.107385 0)
(-0.0370775 0.126002 0)
(-0.0430804 0.142659 -2.17004e-20)
(-0.0485497 0.15748 -2.16038e-23)
(-0.0534364 0.170611 2.22672e-20)
(-0.0577049 0.1822 0)
(-0.0613303 0.19238 0)
(-0.0642974 0.201262 -2.29636e-20)
(-0.0665978 0.208936 2.84974e-23)
(-0.068227 0.21547 2.33181e-20)
(-0.0691863 0.220913 4.68295e-20)
(-0.0694817 0.225301 0)
(-0.0691219 0.228662 4.72013e-20)
(-0.0681187 0.231018 -4.72941e-20)
(-0.0664868 0.23239 -9.48014e-20)
(-0.0642431 0.2328 9.49281e-20)
(-0.0614047 0.232276 5.53848e-23)
(-0.0579902 0.230848 -4.74717e-20)
(-0.0540198 0.228552 4.75021e-20)
(-0.0495148 0.225431 -9.4906e-20)
(-0.0444973 0.221532 0)
(-0.0389907 0.216907 4.72958e-20)
(-0.0330201 0.211617 -9.43222e-20)
(-0.0266117 0.205724 4.70093e-20)
(-0.0197931 0.199299 -4.70051e-20)
(-0.0125933 0.192415 -4.67802e-20)
(-0.00504337 0.185152 -4.66806e-20)
(0.00282361 0.177597 1.85663e-19)
(0.0109724 0.169842 -1.38758e-19)
(0.0193645 0.16199 -9.2157e-20)
(0.0279574 0.154156 9.16291e-20)
(0.0367014 0.146474 0)
(0.0455353 0.1391 9.09373e-20)
(0.0544041 0.132224 -9.03675e-20)
(0.0632262 0.126138 -4.51278e-20)
(0.0716205 0.121198 0)
(-0.00344117 0.0141603 1.53408e-19)
(-0.0103319 0.040072 6.87178e-20)
(-0.0176572 0.064718 -8.05337e-20)
(-0.0248261 0.0875251 7.19878e-20)
(-0.0316799 0.108273 -1.04863e-20)
(-0.0380901 0.126945 2.13185e-20)
(-0.0439773 0.143618 0)
(-0.0492855 0.158417 -2.19853e-20)
(-0.0539754 0.171488 2.22416e-20)
(-0.0580193 0.182979 2.25147e-20)
(-0.0613979 0.193027 -2.27118e-20)
(-0.0640999 0.201746 -2.29327e-20)
(-0.0661193 0.20923 2.30768e-20)
(-0.0674537 0.215552 0)
(-0.0681052 0.220764 0)
(-0.0680801 0.224908 -4.69467e-20)
(-0.0673874 0.228013 4.70577e-20)
(-0.0660395 0.230105 -4.72317e-20)
(-0.0640515 0.231207 4.72704e-20)
(-0.06144 0.231342 4.73714e-20)
(-0.0582227 0.230539 -9.47396e-20)
(-0.054419 0.22883 9.47236e-20)
(-0.05005 0.22625 4.26087e-23)
(-0.0451384 0.222843 -4.72467e-20)
(-0.0397079 0.218657 0)
(-0.0337839 0.213745 4.71095e-20)
(-0.0273933 0.208166 4.5493e-23)
(-0.0205648 0.201984 -4.68133e-20)
(-0.0133284 0.195271 0)
(-0.00571579 0.188101 9.31099e-20)
(0.00223941 0.180556 -9.26659e-20)
(0.0105016 0.17272 0)
(0.0190329 0.16469 9.20414e-20)
(0.027793 0.156569 -9.15337e-20)
(0.0367376 0.148474 0)
(0.0458155 0.140544 0)
(0.0549635 0.132941 0)
(0.0641243 0.125871 -8.99799e-20)
(0.073223 0.119654 8.94026e-20)
(0.0818568 0.114684 1.01928e-19)
(-0.00373945 0.0143148 -7.21374e-20)
(-0.0110322 0.0404197 -7.85455e-20)
(-0.0185682 0.0652068 -1.00472e-20)
(-0.0258297 0.0881164 3.07942e-20)
(-0.0326745 0.108937 -4.18605e-20)
(-0.0389963 0.127654 4.26014e-20)
(-0.0447319 0.144342 -4.32802e-20)
(-0.0498385 0.159124 -6.5804e-20)
(-0.0542871 0.172145 0)
(-0.0580583 0.183553 -2.24873e-20)
(-0.0611388 0.193485 2.26842e-20)
(-0.063522 0.20206 0)
(-0.0652048 0.209374 4.61402e-20)
(-0.066187 0.215504 -4.63794e-20)
(-0.066472 0.220508 -1.39879e-19)
(-0.066067 0.224428 -4.44527e-23)
(-0.0649817 0.2273 9.39872e-20)
(-0.0632291 0.22915 -4.70886e-20)
(-0.060825 0.230003 0)
(-0.0577863 0.229886 0)
(-0.0541315 0.228828 9.43626e-20)
(-0.0498809 0.22686 4.72407e-20)
(-0.0450572 0.224021 -4.71632e-20)
(-0.0396847 0.220353 -4.71247e-20)
(-0.0337891 0.215904 9.4035e-20)
(-0.0273977 0.21073 -4.68902e-20)
(-0.0205402 0.204889 9.35919e-20)
(-0.0132478 0.198447 -1.86541e-19)
(-0.00555315 0.191474 1.85913e-19)
(0.0025092 0.184047 -1.85238e-19)
(0.0109026 0.176247 1.84523e-19)
(0.0195885 0.168161 -1.83774e-19)
(0.0285266 0.159885 9.1448e-20)
(0.0376739 0.151521 9.11511e-20)
(0.0469847 0.14319 1.12631e-22)
(0.0564059 0.135031 1.16876e-22)
(0.0658722 0.127215 -8.97701e-20)
(0.075324 0.119957 3.23566e-22)
(0.084695 0.113608 -8.88803e-20)
(0.0935619 0.108602 0)
(-0.00403222 0.0144173 8.99574e-21)
(-0.011715 0.0406428 -9.79715e-21)
(-0.0194461 0.0655202 3.0099e-20)
(-0.0267805 0.0884968 -4.10021e-20)
(-0.0335923 0.109368 2.08972e-20)
(-0.0397969 0.128117 0)
(-0.0453472 0.144816 0)
(-0.0502139 0.159584 8.7741e-20)
(-0.0543788 0.172563 1.10958e-19)
(-0.057831 0.183901 -2.24368e-20)
(-0.0605641 0.193734 1.13294e-19)
(-0.0625762 0.202183 -2.28486e-20)
(-0.0638681 0.209348 0)
(-0.0644419 0.215308 0)
(-0.0643031 0.220124 9.32113e-20)
(-0.0634598 0.223845 0)
(-0.0619231 0.226506 4.68001e-20)
(-0.059707 0.228137 -4.69344e-20)
(-0.056828 0.228766 0)
(-0.0533039 0.228421 -9.41202e-20)
(-0.0491543 0.227132 -4.7232e-20)
(-0.0444008 0.224932 -1.4112e-19)
(-0.0390681 0.221859 -4.70417e-20)
(-0.0331822 0.217957 4.69407e-20)
(-0.0267711 0.213275 9.35313e-20)
(-0.0198648 0.207867 0)
(-0.0124955 0.201794 9.29903e-20)
(-0.00469743 0.195122 1.85568e-19)
(0.0034938 0.187922 5.53465e-23)
(0.0120404 0.18027 -9.21502e-20)
(0.0209027 0.172249 -9.18417e-20)
(0.0300391 0.163946 9.1379e-20)
(0.0394061 0.155456 9.10596e-20)
(0.0489584 0.146884 -1.81209e-19)
(0.0586481 0.138347 1.80366e-19)
(0.0684208 0.129987 -9.0005e-20)
(0.0782084 0.121977 8.92584e-20)
(0.0879488 0.114545 1.77743e-19)
(0.0975861 0.108067 8.81673e-20)
(0.10668 0.103021 9.98334e-20)
(-0.00431697 0.0144676 -7.17873e-20)
(-0.0123758 0.0407401 6.84147e-20)
(-0.0202866 0.0656545 -6.00504e-20)
(-0.0276758 0.0886598 6.13537e-20)
(-0.0344324 0.109555 1.04316e-19)
(-0.0404933 0.128321 -8.49343e-20)
(-0.0458273 0.145024 1.07893e-19)
(-0.0504184 0.159779 6.56441e-20)
(-0.0542594 0.172724 -1.552e-19)
(-0.0573488 0.184003 4.47865e-20)
(-0.0596873 0.193753 2.25146e-20)
(-0.0612784 0.202094 4.56809e-20)
(-0.0621268 0.209129 4.59462e-20)
(-0.062238 0.214941 -9.2463e-20)
(-0.0616197 0.219593 9.2914e-20)
(-0.0602817 0.223137 1.39964e-19)
(-0.0582368 0.225611 -1.40522e-19)
(-0.0555002 0.227049 1.87666e-19)
(-0.0520896 0.227479 9.38521e-20)
(-0.0480242 0.226932 1.41128e-19)
(-0.0433248 0.225439 4.68783e-20)
(-0.0380151 0.223034 9.40406e-20)
(-0.0321214 0.219756 -9.36298e-20)
(-0.0256725 0.21565 0)
(-0.0186987 0.210764 -2.80104e-19)
(-0.0112329 0.205155 1.862e-19)
(-0.00331023 0.198883 -9.29634e-20)
(0.00503204 0.192014 -9.26415e-20)
(0.0137549 0.184621 -1.86405e-22)
(0.0228173 0.176782 0)
(0.032176 0.168577 0)
(0.0417864 0.160094 9.07266e-20)
(0.0516018 0.151429 -9.05766e-20)
(0.0615743 0.142684 9.00769e-20)
(0.0716537 0.133977 -8.97317e-20)
(0.0817839 0.125448 -8.9299e-20)
(0.0918941 0.117273 0)
(0.101919 0.109686 -8.83005e-20)
(0.111816 0.103088 -8.80552e-20)
(0.121128 0.0980004 -2.97969e-19)
(-0.00459133 0.0144662 7.17882e-20)
(-0.01301 0.0407114 -6.84295e-20)
(-0.0210856 0.0656079 8.00846e-20)
(-0.0285129 0.0886009 -1.43098e-19)
(-0.0351945 0.109491 -1.04287e-19)
(-0.0410878 0.128255 8.49338e-20)
(-0.046177 0.144953 -1.72481e-19)
(-0.0504596 0.159693 -8.75282e-20)
(-0.0539399 0.172608 1.10795e-19)
(-0.0566254 0.183838 -2.01524e-19)
(-0.0585248 0.193518 -1.35741e-19)
(-0.0596473 0.20177 -4.55614e-20)
(-0.0600025 0.208695 -1.37854e-19)
(-0.0595995 0.21438 1.38641e-19)
(-0.0584486 0.218892 -9.29126e-20)
(-0.0565621 0.222282 -9.32717e-20)
(-0.0539547 0.224595 0)
(-0.0506435 0.225865 -9.37365e-20)
(-0.0466476 0.226123 -1.40729e-19)
(-0.0419879 0.225401 4.68843e-20)
(-0.0366871 0.223732 -9.38622e-20)
(-0.030771 0.221151 0)
(-0.0242685 0.217699 9.36279e-20)
(-0.0172106 0.213419 9.32814e-20)
(-0.0096308 0.208363 -9.27162e-20)
(-0.00156499 0.202586 0)
(0.00694853 0.19615 0)
(0.0158692 0.189122 0)
(0.0251545 0.181574 -3.99109e-22)
(0.0347598 0.173585 0)
(0.0446387 0.165236 -1.8164e-19)
(0.0547428 0.156615 -2.46053e-22)
(0.0650225 0.147815 -1.79948e-19)
(0.075427 0.138939 1.7928e-19)
(0.0859039 0.130102 -8.91607e-20)
(0.0963951 0.121444 8.89988e-20)
(0.106827 0.113136 0)
(0.117132 0.105419 1.76012e-19)
(0.127278 0.0987151 -8.73455e-20)
(0.136802 0.0935905 0)
(-0.0048532 0.0144143 8.95079e-21)
(-0.0136138 0.0405584 0)
(-0.0218398 0.0653805 -9.98283e-20)
(-0.02929 0.0883176 1.22549e-19)
(-0.0358789 0.10917 6.24102e-20)
(-0.0415831 0.12791 -8.47144e-20)
(-0.0464022 0.14459 8.6186e-20)
(-0.0503466 0.15931 -8.73105e-20)
(-0.0534321 0.172197 0)
(-0.0556761 0.183386 8.95152e-20)
(-0.0570951 0.193009 -9.027e-20)
(-0.0577048 0.201186 1.19183e-22)
(-0.0575201 0.208022 0)
(-0.0565544 0.213601 9.21916e-20)
(-0.0548213 0.217994 -4.62651e-20)
(-0.0523358 0.221256 9.29757e-20)
(-0.0491153 0.223432 4.6568e-20)
(-0.0451789 0.22456 -9.33638e-20)
(-0.0405477 0.224673 0)
(-0.0352447 0.223805 1.40224e-19)
(-0.0292951 0.22199 4.66308e-20)
(-0.022727 0.219264 0)
(-0.015572 0.215669 0)
(-0.00786414 0.211249 0)
(0.000360045 0.206057 9.28755e-20)
(0.00906139 0.200148 0)
(0.0181982 0.193585 -9.20669e-20)
(0.0277265 0.186435 1.83419e-19)
(0.0376 0.178773 -1.82837e-19)
(0.0477706 0.170675 0)
(0.0581882 0.162224 9.07011e-20)
(0.0688013 0.153507 -8.9844e-20)
(0.0795569 0.144616 8.98431e-20)
(0.0904014 0.135654 0)
(0.10128 0.126732 0)
(0.112133 0.117985 8.8312e-20)
(0.122883 0.109584 -8.77732e-20)
(0.133459 0.101769 1.7483e-19)
(0.143844 0.0949811 -1.73709e-19)
(0.153572 0.0898278 0)
(-0.00510072 0.0143137 6.2484e-20)
(-0.0141838 0.0402841 1.94708e-20)
(-0.0225462 0.0649742 7.98467e-20)
(-0.0300055 0.0878096 8.14834e-20)
(-0.0364861 0.10859 -8.32225e-20)
(-0.0419827 0.12728 8.47141e-20)
(-0.0465091 0.143925 8.59656e-20)
(-0.0500889 0.158617 8.731e-20)
(-0.0527493 0.171474 0)
(-0.0545176 0.182626 8.92911e-20)
(-0.0554186 0.192202 9.02691e-20)
(-0.0554752 0.20032 9.10197e-20)
(-0.0547079 0.207083 0)
(-0.0531349 0.212577 -1.31711e-22)
(-0.0507738 0.216874 9.26206e-20)
(-0.0476431 0.220031 -4.65113e-20)
(-0.0437629 0.222097 -4.67187e-20)
(-0.0391551 0.223109 1.39997e-19)
(-0.0338433 0.223105 -5.10154e-24)
(-0.0278528 0.22212 -4.68855e-20)
(-0.0212118 0.220188 -9.33807e-20)
(-0.0139513 0.217349 0)
(-0.00610567 0.213643 0)
(0.00228775 0.209118 0)
(0.0111891 0.203825 0)
(0.0205558 0.197821 0)
(0.0303426 0.191169 0)
(0.0405019 0.183939 9.13285e-20)
(0.0509837 0.176203 -9.09485e-20)
(0.0617363 0.168038 0)
(0.0727061 0.159528 0)
(0.0838382 0.15076 8.98416e-20)
(0.0950765 0.141825 0)
(0.106364 0.132822 8.87469e-20)
(0.117645 0.123861 -8.82386e-20)
(0.128855 0.115073 0)
(0.139918 0.106622 1.74772e-19)
(0.150756 0.0987461 -1.73677e-19)
(0.161367 0.0919012 0)
(0.171289 0.0867342 0)
(-0.0053324 0.014167 -7.14214e-20)
(-0.0147174 0.039893 -1.94458e-20)
(-0.0232027 0.0643929 1.99117e-20)
(-0.0306585 0.0870787 -8.14833e-20)
(-0.0370174 0.107748 0)
(-0.0422901 0.12636 0)
(-0.0465045 0.142949 -6.44765e-20)
(-0.0496968 0.1576 -2.17744e-20)
(-0.0519054 0.170423 -4.41473e-20)
(-0.0531677 0.181541 -4.46954e-20)
(-0.0535174 0.191078 -4.5066e-20)
(-0.0529846 0.199148 4.54023e-20)
(-0.0515961 0.205853 4.56629e-20)
(-0.0493758 0.211281 -4.60733e-20)
(-0.0463456 0.215503 0)
(-0.0425281 0.218579 0)
(-0.0379468 0.220559 -9.30352e-20)
(-0.0326265 0.221483 0)
(-0.0265938 0.221389 0)
(-0.0198773 0.220316 9.29011e-20)
(-0.0125081 0.218299 -4.77484e-23)
(-0.00452044 0.215378 -1.42575e-22)
(0.00404789 0.211596 -9.26423e-20)
(0.0131563 0.206999 9.24431e-20)
(0.0227614 0.201642 9.19669e-20)
(0.0328171 0.195581 -9.16162e-20)
(0.0432743 0.18888 0)
(0.0540818 0.181609 9.0968e-20)
(0.065186 0.173841 -3.90896e-23)
(0.0765314 0.165653 -9.01448e-20)
(0.088061 0.157129 0)
(0.0997167 0.148355 0)
(0.111439 0.139421 8.87674e-20)
(0.123169 0.130426 -8.82777e-20)
(0.134847 0.121474 -8.78483e-20)
(0.146409 0.112693 8.73281e-20)
(0.157774 0.104238 0)
(0.168861 0.0963438 0)
(0.179681 0.0894748 0)
(0.189787 0.0843154 -9.54843e-20)
(-0.00554713 0.0139774 8.89852e-20)
(-0.0152123 0.0393908 -3.88204e-20)
(-0.0238076 0.0636423 1.98801e-20)
(-0.0312486 0.086129 0)
(-0.037474 0.106647 1.03619e-19)
(-0.0425093 0.125147 2.22697e-23)
(-0.0463953 0.141657 8.57636e-20)
(-0.0491804 0.156252 -6.52852e-20)
(-0.0509143 0.169032 8.81378e-20)
(-0.0516446 0.180113 -4.45385e-20)
(-0.0514139 0.189614 0)
(-0.0502601 0.197646 4.53752e-20)
(-0.048217 0.204308 -1.37069e-19)
(-0.0453142 0.209686 0)
(-0.041579 0.213854 1.38344e-19)
(-0.0370384 0.216871 -9.25077e-20)
(-0.0317198 0.218788 -9.27907e-20)
(-0.0256516 0.21965 4.64646e-20)
(-0.0188639 0.219495 0)
(-0.0113887 0.218363 -9.30254e-20)
(-0.00326068 0.216291 -9.2784e-20)
(0.00548233 0.213321 -8.23968e-23)
(0.0147991 0.209495 9.23018e-20)
(0.0246454 0.204862 9.21041e-20)
(0.0349744 0.199477 -1.83828e-19)
(0.0457361 0.193397 9.16139e-20)
(0.0568779 0.186687 0)
(0.0683445 0.179416 -9.04956e-20)
(0.0800788 0.171658 9.00503e-20)
(0.0920219 0.16349 8.95901e-20)
(0.104113 0.154996 -8.91197e-20)
(0.116292 0.146262 8.8643e-20)
(0.128495 0.137377 0)
(0.140661 0.128436 8.78901e-20)
(0.152727 0.119543 1.74658e-19)
(0.164628 0.110818 -1.73808e-19)
(0.176283 0.102409 1.72976e-19)
(0.187603 0.094541 1.7042e-22)
(0.198614 0.0876859 -8.56404e-20)
(0.20889 0.0825613 1.89805e-19)
(-0.0057442 0.0137487 -5.33898e-20)
(-0.0156672 0.0387846 -1.16206e-19)
(-0.02436 0.06273 7.93391e-20)
(-0.0317758 0.0849668 -6.0834e-20)
(-0.0378576 0.10529 -2.08339e-20)
(-0.042644 0.123643 2.10675e-20)
(-0.0461881 0.140046 -4.28744e-20)
(-0.0485497 0.154563 -4.34353e-20)
(-0.04979 0.167288 4.40356e-20)
(-0.0499664 0.178328 -8.90061e-20)
(-0.0491306 0.187794 -3.68546e-23)
(-0.0473292 0.195794 4.52856e-20)
(-0.044603 0.202423 0)
(-0.040988 0.207766 -4.58731e-20)
(-0.0365175 0.211897 -4.61403e-20)
(-0.0312233 0.214876 9.25082e-20)
(-0.0251372 0.216755 0)
(-0.0182918 0.217579 0)
(-0.0107211 0.21739 9.27487e-20)
(-0.00246102 0.216227 -9.27602e-20)
(0.00644991 0.214131 0)
(0.01597 0.211142 9.23779e-20)
(0.0260543 0.207307 -9.23922e-20)
(0.036655 0.202673 -1.83774e-19)
(0.0477214 0.197296 9.66703e-23)
(0.0591998 0.191236 9.13124e-20)
(0.0710337 0.184555 -1.81438e-19)
(0.0831642 0.177325 9.04933e-20)
(0.0955306 0.169618 -9.00479e-20)
(0.108071 0.161514 -1.97421e-22)
(0.12072 0.153095 1.53447e-22)
(0.133415 0.144446 -8.86406e-20)
(0.14609 0.135655 -8.77916e-20)
(0.158681 0.126817 -8.73009e-20)
(0.171122 0.11803 -3.86966e-22)
(0.183347 0.10941 0)
(0.195274 0.101097 -8.58432e-20)
(0.206808 0.0933037 1.71219e-19)
(0.217987 0.086504 -2.55438e-19)
(0.228417 0.0814466 -1.29987e-22)
(-0.0059233 0.0134848 -1.77463e-20)
(-0.0160814 0.0380824 1.54771e-19)
(-0.0248593 0.0616649 -7.93529e-20)
(-0.0322404 0.0836003 6.08463e-20)
(-0.0381698 0.103682 -1.65415e-19)
(-0.0426979 0.121849 2.10377e-20)
(-0.0458888 0.138114 -8.55113e-20)
(-0.047814 0.152531 0)
(-0.0485451 0.165184 0)
(-0.0481498 0.176173 -8.88405e-20)
(-0.0466893 0.185601 4.48932e-20)
(-0.0442184 0.193571 -5.26633e-23)
(-0.0407859 0.200176 4.55413e-20)
(-0.0364347 0.205497 0)
(-0.0312042 0.209607 -1.37947e-19)
(-0.0251319 0.212566 4.61507e-20)
(-0.0182544 0.214427 -9.24193e-20)
(-0.0106089 0.215238 0)
(-0.00223361 0.21504 0)
(0.0068311 0.213874 4.53754e-23)
(0.0165425 0.211783 -9.24508e-20)
(0.0268549 0.208808 9.2107e-20)
(0.0377193 0.204995 -9.18968e-20)
(0.0490843 0.200395 9.1699e-20)
(0.0608954 0.195062 6.56278e-23)
(0.073095 0.189058 7.9719e-23)
(0.0856228 0.182446 9.06222e-20)
(0.0984162 0.175297 -8.98916e-20)
(0.111411 0.167683 0)
(0.124542 0.159685 -8.90559e-20)
(0.137741 0.151383 8.8631e-20)
(0.150941 0.142863 0)
(0.164075 0.134213 8.77892e-20)
(0.177074 0.125523 -8.69368e-20)
(0.189872 0.116891 8.64278e-20)
(0.202402 0.108425 0)
(0.214578 0.100257 2.5719e-19)
(0.226303 0.0925875 -1.70276e-19)
(0.237624 0.0858871 0)
(0.248188 0.0809335 9.35369e-20)
(-0.00608453 0.0131902 1.41597e-19)
(-0.0164546 0.0372933 -7.73217e-20)
(-0.0253057 0.0604577 -1.98002e-20)
(-0.0326429 0.0820397 2.02246e-20)
(-0.0384121 0.101834 8.26362e-20)
(-0.0426737 0.119774 0)
(-0.0455026 0.135864 8.55114e-20)
(-0.0469809 0.150153 1.29902e-19)
(-0.0471909 0.162715 4.38764e-20)
(-0.0462102 0.173639 4.44283e-20)
(-0.0441095 0.183023 4.48002e-20)
(-0.0409524 0.190963 -1.35632e-19)
(-0.0367957 0.197547 4.54833e-20)
(-0.0316897 0.202855 1.82866e-19)
(-0.0256805 0.206957 4.60067e-20)
(-0.0188114 0.209913 4.60853e-20)
(-0.0111247 0.211777 9.24181e-20)
(-0.00266231 0.212596 0)
(0.00653269 0.212413 0)
(0.0164154 0.211272 1.84764e-19)
(0.0269386 0.209213 -3.68677e-19)
(0.0380522 0.206281 -4.61137e-23)
(0.0497034 0.202523 0)
(0.0618368 0.19799 0)
(0.0743941 0.192737 9.11677e-20)
(0.0873138 0.186825 0)
(0.100532 0.18032 0)
(0.113982 0.17329 -8.93414e-20)
(0.127597 0.16581 -1.78264e-19)
(0.141307 0.157959 0)
(0.155043 0.149818 -1.76263e-19)
(0.168733 0.141471 -3.50758e-19)
(0.182307 0.133005 1.74583e-19)
(0.195694 0.124508 -1.73211e-19)
(0.208827 0.116076 1.72546e-19)
(0.221636 0.107812 -1.71524e-19)
(0.234035 0.0998384 -1.70211e-19)