/*--------------------------------*- C++ -*----------------------------------*\
  =========                 |
  \\      /  F ield         | OpenFOAM: The Open Source CFD Toolbox
   \\    /   O peration     | Website:  https://openfoam.org
    \\  /    A nd           | Version:  7
     \\/     M anipulation  |
\*---------------------------------------------------------------------------*/
FoamFile
{
    version     2.0;
    format      ascii;
    class       volScalarField;
    location    "9.1";
    object      p;
}
// * * * * * * * * * * * * * * * * * * * * * * * * * * * * * * * * * * * * * //

dimensions      [0 2 -2 0 0 0 0];

internalField   nonuniform List<scalar> 
32000
(
0.21249
0.213178
0.213591
0.214013
0.214411
0.214786
0.21513
0.215444
0.215745
0.216051
0.216378
0.216739
0.217142
0.2176
0.218126
0.218734
0.219439
0.220256
0.221203
0.222295
0.223541
0.22495
0.226523
0.228263
0.230169
0.232238
0.234466
0.236845
0.239364
0.242013
0.244784
0.247664
0.25064
0.253697
0.256821
0.259996
0.26321
0.266453
0.269699
0.272881
0.212732
0.213399
0.213788
0.214181
0.214547
0.214892
0.215206
0.21549
0.215761
0.216036
0.21633
0.216654
0.21702
0.217439
0.217924
0.218487
0.219142
0.219904
0.220792
0.221818
0.222995
0.224328
0.225821
0.227474
0.229287
0.231261
0.233391
0.23567
0.238089
0.24064
0.243313
0.246096
0.248977
0.251943
0.254979
0.258072
0.261207
0.264375
0.267545
0.270661
0.212979
0.213622
0.213987
0.214349
0.214683
0.214996
0.21528
0.215534
0.215777
0.216024
0.216287
0.216577
0.216908
0.21729
0.217736
0.218258
0.218868
0.219582
0.220415
0.221383
0.222496
0.22376
0.225177
0.226748
0.228475
0.230357
0.232393
0.234576
0.236899
0.239354
0.24193
0.244618
0.247406
0.25028
0.253228
0.256235
0.25929
0.262381
0.265471
0.268519
0.21322
0.213833
0.214177
0.214512
0.214816
0.215098
0.215352
0.21558
0.215798
0.216019
0.216253
0.216512
0.216809
0.217158
0.217569
0.218053
0.218622
0.219292
0.220078
0.220993
0.222048
0.223248
0.224594
0.226088
0.227733
0.229529
0.231474
0.233566
0.235796
0.238157
0.24064
0.243234
0.245928
0.248711
0.251569
0.25449
0.257462
0.260474
0.263482
0.266458
0.213466
0.214049
0.214371
0.214679
0.214954
0.215204
0.21543
0.215634
0.215828
0.216024
0.21623
0.21646
0.216728
0.217045
0.217423
0.217873
0.218406
0.219037
0.219779
0.220647
0.221649
0.22279
0.22407
0.225492
0.227059
0.228774
0.230635
0.232639
0.23478
0.237051
0.239441
0.241943
0.244546
0.247237
0.250006
0.25284
0.255729
0.25866
0.261583
0.264485
0.213716
0.214263
0.214563
0.214846
0.215091
0.215313
0.215511
0.215692
0.215864
0.216036
0.216218
0.216422
0.216662
0.216951
0.217299
0.217719
0.218221
0.218817
0.219522
0.220347
0.221301
0.222386
0.223605
0.22496
0.226456
0.228094
0.229876
0.231797
0.233853
0.236035
0.238337
0.240749
0.243261
0.245863
0.248543
0.251289
0.254093
0.256941
0.259778
0.262603
0.21397
0.214481
0.214758
0.215015
0.215233
0.215427
0.2156
0.215758
0.215909
0.21606
0.216219
0.2164
0.216616
0.216879
0.217201
0.217594
0.218068
0.218635
0.219307
0.220095
0.221005
0.222039
0.223201
0.224494
0.225923
0.227491
0.229198
0.231041
0.233015
0.235113
0.237328
0.239653
0.242077
0.24459
0.247181
0.24984
0.252558
0.255322
0.25807
0.260817
0.214231
0.214702
0.214956
0.215188
0.21538
0.215548
0.215697
0.215833
0.215964
0.216095
0.216235
0.216395
0.21659
0.216831
0.21713
0.2175
0.217951
0.218493
0.219137
0.219891
0.22076
0.221748
0.222859
0.224095
0.225463
0.226966
0.228603
0.230371
0.232267
0.234284
0.236416
0.238656
0.240994
0.24342
0.245924
0.248496
0.251128
0.253807
0.256464
0.25913
0.214496
0.214925
0.215157
0.215364
0.215532
0.215676
0.215802
0.215917
0.216029
0.216142
0.216265
0.216408
0.216584
0.216806
0.217086
0.217437
0.217869
0.218391
0.21901
0.219735
0.220569
0.221515
0.222579
0.223764
0.225077
0.226518
0.22809
0.229789
0.231611
0.233551
0.235604
0.237761
0.240015
0.242356
0.244773
0.247258
0.249804
0.252397
0.254964
0.257547
0.214766
0.215151
0.21536
0.215543
0.215688
0.21581
0.215915
0.216011
0.216105
0.216203
0.216311
0.216439
0.2166
0.216807
0.217072
0.217408
0.217825
0.21833
0.218929
0.219628
0.22043
0.22134
0.222362
0.223502
0.224764
0.22615
0.227661
0.229295
0.231047
0.232914
0.23489
0.236969
0.239141
0.241398
0.24373
0.246129
0.248589
0.251096
0.253571
0.256071
0.215041
0.215379
0.215565
0.215726
0.21585
0.215951
0.216036
0.216114
0.216192
0.216276
0.216372
0.216489
0.216639
0.216834
0.217087
0.217413
0.217818
0.21831
0.218893
0.219571
0.220346
0.221224
0.22221
0.223308
0.224525
0.225861
0.227316
0.228889
0.230576
0.232374
0.234278
0.23628
0.238373
0.240549
0.242797
0.245111
0.247486
0.249907
0.25229
0.254706
0.215321
0.21561
0.215773
0.215911
0.216016
0.216098
0.216165
0.216227
0.216291
0.216364
0.21645
0.216559
0.2167
0.216887
0.217133
0.217452
0.21785
0.218333
0.218903
0.219562
0.220316
0.221167
0.222121
0.223184
0.22436
0.225651
0.227055
0.228572
0.230198
0.231931
0.233765
0.235695
0.237712
0.239808
0.241975
0.244206
0.246495
0.248831
0.251122
0.253452
0.215607
0.215844
0.215983
0.2161
0.216185
0.21625
0.216302
0.216349
0.216402
0.216465
0.216545
0.216647
0.216784
0.216967
0.217211
0.217526
0.217921
0.218397
0.218957
0.219603
0.220339
0.221168
0.222096
0.223129
0.22427
0.22552
0.226878
0.228342
0.229912
0.231584
0.233354
0.235214
0.237158
0.239178
0.241265
0.243413
0.245619
0.247869
0.25007
0.252314
0.215898
0.216081
0.216196
0.216291
0.216359
0.216408
0.216445
0.216481
0.216524
0.21658
0.216655
0.216755
0.216891
0.217074
0.217319
0.217636
0.218029
0.218502
0.219056
0.219692
0.220415
0.221227
0.222135
0.223143
0.224254
0.225468
0.226784
0.228201
0.229718
0.231334
0.233043
0.234838
0.236712
0.238658
0.240667
0.242735
0.244858
0.247025
0.249135
0.251293
0.216194
0.21632
0.216411
0.216485
0.216536
0.21657
0.216596
0.216622
0.216657
0.216709
0.216782
0.216882
0.21702
0.217208
0.217459
0.217779
0.218175
0.218647
0.219198
0.21983
0.220544
0.221345
0.222237
0.223225
0.22431
0.225493
0.226771
0.228146
0.229617
0.23118
0.232832
0.234566
0.236373
0.238247
0.240182
0.242171
0.244214
0.246298
0.248319
0.250392
0.216496
0.216563
0.216628
0.21668
0.216715
0.216737
0.216753
0.216771
0.216802
0.21685
0.216923
0.217027
0.217172
0.217369
0.217628
0.217956
0.218357
0.218832
0.219384
0.220014
0.220725
0.221519
0.222401
0.223374
0.224438
0.225594
0.22684
0.228178
0.229606
0.231122
0.232721
0.234397
0.236141
0.237947
0.239809
0.241722
0.243687
0.24569
0.247625
0.249612
0.216804
0.216808
0.216848
0.216877
0.216896
0.216907
0.216916
0.216929
0.216956
0.217005
0.217081
0.217192
0.217347
0.217556
0.217827
0.218165
0.218574
0.219056
0.219612
0.220246
0.220957
0.22175
0.222626
0.223589
0.224637
0.225771
0.22699
0.228294
0.229685
0.231158
0.232709
0.234329
0.236014
0.237755
0.239548
0.241388
0.243277
0.245202
0.247052
0.248954
0.217115
0.217055
0.217068
0.217074
0.217079
0.21708
0.217083
0.217093
0.21712
0.217171
0.217253
0.217374
0.217543
0.217767
0.218053
0.218406
0.218826
0.219318
0.219883
0.220523
0.221241
0.222036
0.222911
0.223868
0.224904
0.226021
0.227217
0.228494
0.229852
0.231286
0.232792
0.234362
0.235991
0.237671
0.239399
0.241169
0.242985
0.244834
0.246602
0.248419
0.21743
0.217303
0.217288
0.217271
0.217261
0.217255
0.217254
0.217265
0.217294
0.21735
0.217441
0.217575
0.21776
0.218002
0.218307
0.218675
0.219111
0.219616
0.220194
0.220846
0.221573
0.222376
0.223254
0.224209
0.225239
0.226343
0.227522
0.228776
0.230104
0.231504
0.23297
0.234494
0.23607
0.237694
0.239359
0.241064
0.24281
0.244585
0.246273
0.248006
0.217745
0.217551
0.217508
0.217467
0.217443
0.217431
0.217429
0.217441
0.217475
0.217539
0.217642
0.217792
0.217997
0.21826
0.218585
0.218974
0.219428
0.219951
0.220546
0.221213
0.221954
0.222767
0.223652
0.22461
0.225637
0.226734
0.2279
0.229136
0.230441
0.23181
0.23324
0.234722
0.236251
0.237821
0.239429
0.241071
0.24275
0.244455
0.246067
0.247716
0.218061
0.217796
0.217724
0.21766
0.217623
0.217606
0.217605
0.217622
0.217663
0.217738
0.217856
0.218025
0.218251
0.218538
0.218887
0.219298
0.219775
0.220319
0.220935
0.221621
0.222379
0.223207
0.224104
0.225068
0.226097
0.227191
0.228349
0.229572
0.230857
0.232201
0.233599
0.235044
0.23653
0.238052
0.239606
0.241189
0.242805
0.244443
0.245981
0.247549
0.218372
0.218037
0.217935
0.217848
0.2178
0.217779
0.21778
0.217805
0.217856
0.217945
0.21808
0.218271
0.218522
0.218834
0.219209
0.219646
0.220149
0.220719
0.221358
0.222068
0.222846
0.223693
0.224604
0.22558
0.226616
0.227711
0.228866
0.23008
0.23135
0.232674
0.234045
0.235457
0.236904
0.238382
0.239887
0.241416
0.242972
0.244546
0.246015
0.247503
0.218677
0.21827
0.21814
0.21803
0.217971
0.217948
0.217955
0.217988
0.218053
0.218157
0.218313
0.218528
0.218805
0.219146
0.219549
0.220016
0.220547
0.221146
0.221813
0.222549
0.223352
0.224221
0.225151
0.226141
0.227188
0.22829
0.229446
0.230655
0.231916
0.233224
0.234573
0.235957
0.237371
0.23881
0.24027
0.241748
0.243249
0.244763
0.246167
0.247576
0.218972
0.218492
0.218334
0.218204
0.218135
0.218112
0.218125
0.21817
0.21825
0.218373
0.218552
0.218793
0.2191
0.219471
0.219905
0.220404
0.220967
0.221598
0.222296
0.223061
0.223893
0.224787
0.22574
0.226749
0.22781
0.228922
0.230084
0.231294
0.23255
0.233846
0.235179
0.23654
0.237925
0.23933
0.24075
0.242183
0.243633
0.245091
0.246434
0.247767
0.219254
0.218702
0.218517
0.218367
0.21829
0.218269
0.21829
0.218348
0.218445
0.21859
0.218794
0.219065
0.219402
0.219805
0.220274
0.220807
0.221405
0.22207
0.222803
0.223601
0.224464
0.225387
0.226367
0.227398
0.228478
0.229604
0.230776
0.231991
0.233246
0.234536
0.235857
0.2372
0.238562
0.239937
0.241323
0.242715
0.244119
0.245525
0.246813
0.248072
0.219518
0.218897
0.218686
0.218517
0.218434
0.218416
0.218447
0.21852
0.218637
0.218806
0.219038
0.219339
0.219709
0.220147
0.220651
0.221221
0.221857
0.22256
0.223329
0.224164
0.225061
0.226016
0.227025
0.228083
0.229185
0.230329
0.231515
0.232739
0.233998
0.235288
0.2366
0.237931
0.239274
0.240625
0.241982
0.243339
0.244702
0.246062
0.2473
0.248489
0.219764
0.219073
0.218839
0.218653
0.218565
0.218551
0.218593
0.218684
0.218823
0.219018
0.21928
0.219613
0.220018
0.220492
0.221034
0.221644
0.22232
0.223062
0.223871
0.224744
0.225678
0.226669
0.227711
0.228797
0.229925
0.231092
0.232295
0.233533
0.234801
0.236093
0.237403
0.238725
0.240055
0.241388
0.242721
0.244049
0.245376
0.246697
0.247891
0.249012
0.219986
0.219229
0.218972
0.218771
0.218681
0.218672
0.218726
0.218835
0.218999
0.219223
0.219516
0.219884
0.220325
0.220838
0.221419
0.22207
0.222788
0.223573
0.224424
0.225338
0.226311
0.22734
0.228417
0.229536
0.230693
0.231885
0.23311
0.234365
0.235645
0.236944
0.238256
0.239575
0.240897
0.242218
0.243533
0.244838
0.246136
0.247422
0.248579
0.249638
0.220183
0.219362
0.219084
0.218871
0.218778
0.218776
0.218844
0.218973
0.219162
0.219417
0.219745
0.220148
0.220627
0.221179
0.221802
0.222495
0.223257
0.224087
0.224981
0.225938
0.226954
0.228023
0.229137
0.230291
0.23148
0.232701
0.233951
0.235227
0.236523
0.237833
0.239152
0.240472
0.241792
0.243106
0.244409
0.245697
0.246972
0.248231
0.249359
0.25036
0.220349
0.219468
0.219172
0.218949
0.218856
0.218862
0.218944
0.219095
0.219311
0.219598
0.219961
0.220402
0.22092
0.221512
0.222178
0.222916
0.223723
0.224598
0.225538
0.22654
0.227599
0.22871
0.229865
0.231056
0.232279
0.233532
0.234811
0.236111
0.237426
0.238752
0.24008
0.241408
0.24273
0.244043
0.245341
0.246619
0.247878
0.249117
0.250224
0.251172
0.220483
0.219545
0.219234
0.219003
0.218912
0.218926
0.219024
0.219196
0.219441
0.219762
0.220162
0.220641
0.221199
0.221833
0.222543
0.223326
0.22418
0.225103
0.226089
0.227137
0.228242
0.229396
0.230592
0.231822
0.233083
0.23437
0.23568
0.237007
0.238345
0.239689
0.241032
0.242371
0.243701
0.245018
0.246317
0.247591
0.248842
0.25007
0.251164
0.252066
0.220581
0.21959
0.219266
0.21903
0.218942
0.218966
0.219081
0.219276
0.21955
0.219905
0.220342
0.220861
0.22146
0.222137
0.222891
0.223721
0.224623
0.225593
0.226628
0.227723
0.228874
0.230073
0.231311
0.232583
0.233882
0.235206
0.236549
0.237905
0.239269
0.240635
0.241997
0.24335
0.244693
0.24602
0.247326
0.248604
0.249854
0.251079
0.252171
0.253034
0.220638
0.2196
0.219267
0.219027
0.218945
0.21898
0.219111
0.219331
0.219634
0.220024
0.220499
0.221058
0.221698
0.222419
0.223219
0.224096
0.225047
0.226065
0.227148
0.228291
0.229489
0.230733
0.232016
0.233329
0.234669
0.236031
0.237409
0.238796
0.240188
0.241577
0.242961
0.244334
0.245693
0.247035
0.248354
0.249643
0.250902
0.252133
0.253235
0.254068
0.220653
0.219573
0.219233
0.218992
0.218916
0.218964
0.219114
0.219357
0.219691
0.220115
0.220629
0.221228
0.22191
0.222674
0.22352
0.224446
0.225445
0.226513
0.227645
0.228836
0.230081
0.231371
0.232697
0.234054
0.235435
0.236835
0.238248
0.239668
0.241089
0.242505
0.243912
0.245307
0.246687
0.248048
0.249386
0.250694
0.251969
0.253219
0.254343
0.255158
0.220622
0.219505
0.219161
0.218922
0.218855
0.218916
0.219086
0.219354
0.219718
0.220177
0.220728
0.221367
0.222091
0.222899
0.223792
0.224765
0.225813
0.22693
0.228111
0.22935
0.230642
0.231978
0.233349
0.234748
0.23617
0.237609
0.239058
0.24051
0.241961
0.243405
0.244838
0.246257
0.24766
0.249043
0.250405
0.251737
0.253039
0.254319
0.255482
0.256293
0.220543
0.219396
0.21905
0.218814
0.218757
0.218834
0.219024
0.219318
0.219712
0.220205
0.220794
0.221472
0.222238
0.22309
0.224029
0.22505
0.226147
0.227312
0.22854
0.229828
0.231166
0.232547
0.233961
0.235403
0.236866
0.238342
0.239826
0.241311
0.242792
0.244264
0.245723
0.247167
0.248594
0.250003
0.251391
0.252754
0.254091
0.255415
0.256637
0.257464
0.220413
0.219242
0.218896
0.218667
0.218622
0.218716
0.218927
0.219247
0.219671
0.220198
0.220823
0.22154
0.222347
0.223243
0.224227
0.225295
0.226439
0.227652
0.228928
0.230262
0.231645
0.23307
0.234528
0.236011
0.237512
0.239026
0.240544
0.24206
0.243569
0.245068
0.246553
0.248022
0.249473
0.250906
0.252323
0.253719
0.255098
0.25648
0.257787
0.258661
0.22023
0.219042
0.2187
0.218479
0.218448
0.21856
0.218792
0.219138
0.219592
0.220153
0.220813
0.221568
0.222415
0.223354
0.224383
0.225496
0.226686
0.227945
0.229267
0.230646
0.232073
0.23354
0.235039
0.236562
0.238101
0.239649
0.241199
0.242745
0.244281
0.245805
0.247313
0.248804
0.250276
0.251731
0.253173
0.254604
0.256029
0.257481
0.258909
0.259894
0.219993
0.218794
0.218458
0.218247
0.218232
0.218362
0.218618
0.218989
0.219473
0.220066
0.220762
0.221554
0.222439
0.223419
0.224491
0.225648
0.226883
0.228186
0.229552
0.230973
0.232442
0.23395
0.235488
0.237048
0.238622
0.240202
0.241782
0.243354
0.244915
0.246461
0.247988
0.249496
0.250983
0.252454
0.253914
0.255372
0.256841
0.258383
0.260019
0.261282
0.219701
0.218498
0.218169
0.217972
0.217972
0.218123
0.218401
0.218799
0.219312
0.219937
0.220666
0.221493
0.222417
0.223436
0.224549
0.225748
0.227024
0.228369
0.229776
0.231238
0.232746
0.234292
0.235866
0.237461
0.239067
0.240677
0.242282
0.243878
0.245459
0.247022
0.248563
0.25008
0.251573
0.253046
0.254506
0.255966
0.257455
0.259071
0.26093
0.262635
0.283821
0.299771
0.313931
0.325685
0.335209
0.342928
0.349112
0.354136
0.358259
0.361715
0.364642
0.367142
0.369316
0.371248
0.37296
0.37449
0.375867
0.377113
0.378226
0.379221
0.380109
0.380898
0.381587
0.38218
0.382672
0.383063
0.383362
0.383569
0.383679
0.383693
0.383608
0.383432
0.383159
0.382786
0.382316
0.381745
0.381097
0.380332
0.379653
0.378602
0.281709
0.297508
0.311848
0.323695
0.333343
0.341139
0.34739
0.352475
0.356645
0.360131
0.363085
0.365625
0.367832
0.369785
0.371525
0.373094
0.374501
0.375768
0.376906
0.377931
0.378846
0.37966
0.380372
0.380981
0.381492
0.381905
0.382224
0.382444
0.382569
0.382596
0.382528
0.382362
0.382102
0.381744
0.381285
0.380724
0.380085
0.379331
0.378659
0.377614
0.279665
0.295275
0.309786
0.321714
0.331481
0.339352
0.345668
0.350813
0.35503
0.358546
0.361526
0.364106
0.366348
0.368321
0.37009
0.371696
0.373132
0.374422
0.375586
0.376639
0.377584
0.378419
0.379154
0.379782
0.380312
0.380747
0.381085
0.381319
0.38146
0.381502
0.381451
0.381297
0.381049
0.380705
0.380257
0.379709
0.379079
0.378337
0.377673
0.376636
0.277688
0.293073
0.307752
0.319743
0.329622
0.337566
0.343949
0.349147
0.353408
0.356961
0.359973
0.362583
0.364857
0.366861
0.368659
0.370293
0.371758
0.373077
0.374269
0.375348
0.376318
0.377177
0.377934
0.378584
0.379134
0.379588
0.379944
0.380195
0.380353
0.380411
0.380376
0.380237
0.380003
0.379671
0.379235
0.378698
0.37808
0.377349
0.376696
0.375668
0.275785
0.29091
0.305743
0.317781
0.327765
0.335782
0.342232
0.347479
0.351783
0.355375
0.358421
0.361058
0.363364
0.3654
0.367229
0.368888
0.370382
0.371732
0.372954
0.374058
0.375052
0.375934
0.376714
0.377388
0.377957
0.37843
0.378803
0.379074
0.379248
0.379325
0.379305
0.379183
0.378963
0.378641
0.378218
0.377694
0.377088
0.376368
0.375726
0.374709
0.273959
0.288789
0.303761
0.315831
0.325914
0.333998
0.340515
0.34581
0.350157
0.353788
0.356868
0.359534
0.36187
0.363939
0.365798
0.367484
0.369008
0.370388
0.371639
0.372768
0.373788
0.374693
0.375495
0.376193
0.376782
0.377274
0.377665
0.377955
0.378147
0.378242
0.378237
0.378132
0.377927
0.377618
0.377207
0.376696
0.376104
0.375395
0.374764
0.373757
0.272214
0.286714
0.301808
0.313893
0.324068
0.332217
0.338798
0.344142
0.348531
0.352199
0.355313
0.358009
0.360375
0.362477
0.364366
0.36608
0.367635
0.369044
0.370325
0.37148
0.372524
0.373454
0.374278
0.374999
0.37561
0.376121
0.376531
0.37684
0.377049
0.377162
0.377175
0.377085
0.376896
0.3766
0.376203
0.375704
0.375126
0.37443
0.373809
0.372812
0.270552
0.28469
0.299885
0.31197
0.322228
0.330437
0.33708
0.342473
0.346904
0.35061
0.353757
0.356484
0.358881
0.361015
0.362935
0.364678
0.366263
0.367702
0.369011
0.370193
0.371262
0.372218
0.373063
0.373807
0.374439
0.37497
0.375399
0.375728
0.375956
0.376086
0.376116
0.376043
0.37587
0.375588
0.375205
0.37472
0.374156
0.373472
0.372861
0.371874
0.268974
0.282721
0.297995
0.310061
0.320396
0.328659
0.335363
0.340804
0.345278
0.349021
0.352201
0.354959
0.357387
0.359553
0.361505
0.363277
0.364893
0.36636
0.367699
0.368907
0.370001
0.370983
0.371851
0.372617
0.373271
0.373822
0.374271
0.374619
0.374866
0.375014
0.375062
0.375006
0.374848
0.374582
0.374214
0.373743
0.373193
0.372522
0.371921
0.370942
0.267484
0.280811
0.296141
0.308171
0.318572
0.326883
0.333646
0.339135
0.343651
0.347431
0.350645
0.353435
0.355894
0.358092
0.360076
0.361878
0.363524
0.36502
0.366387
0.367623
0.368742
0.36975
0.370641
0.37143
0.372106
0.372677
0.373147
0.373514
0.37378
0.373947
0.374012
0.373973
0.373831
0.373582
0.37323
0.372773
0.372237
0.371578
0.370989
0.370018
0.266083
0.278965
0.294326
0.306299
0.316757
0.32511
0.33193
0.337466
0.342025
0.345842
0.34909
0.351912
0.354403
0.356632
0.358649
0.36048
0.362157
0.363683
0.365077
0.366341
0.367486
0.368519
0.369433
0.370245
0.370944
0.371536
0.372025
0.372412
0.372698
0.372883
0.372966
0.372944
0.372819
0.372587
0.372251
0.37181
0.371289
0.370643
0.370064
0.369101
0.264773
0.277186
0.29255
0.304449
0.314952
0.323341
0.330214
0.335796
0.340398
0.344253
0.347535
0.350389
0.352913
0.355174
0.357223
0.359085
0.360792
0.362347
0.36377
0.365061
0.366231
0.36729
0.368228
0.369063
0.369784
0.370397
0.370908
0.371314
0.371619
0.371823
0.371924
0.37192
0.371812
0.371598
0.371279
0.370854
0.370347
0.369714
0.369147
0.36819
0.263555
0.275478
0.290818
0.302621
0.313157
0.321574
0.328499
0.334127
0.338772
0.342664
0.345981
0.348868
0.351424
0.353718
0.355799
0.357693
0.35943
0.361015
0.362465
0.363785
0.364979
0.366064
0.367026
0.367883
0.368628
0.369261
0.369793
0.37022
0.370544
0.370767
0.370886
0.370901
0.37081
0.370614
0.370312
0.369904
0.369413
0.368792
0.368236
0.367287
0.262432
0.273848
0.289131
0.300819
0.311373
0.319812
0.326784
0.332457
0.337146
0.341075
0.344429
0.347349
0.349938
0.352265
0.354379
0.356303
0.358071
0.359685
0.361163
0.362511
0.363731
0.36484
0.365827
0.366706
0.367474
0.368128
0.368681
0.369129
0.369472
0.369714
0.369851
0.369886
0.369813
0.369635
0.369352
0.368961
0.368485
0.367878
0.367333
0.366391
0.261403
0.272297
0.287492
0.299045
0.309601
0.318054
0.325069
0.330787
0.335519
0.339487
0.342877
0.345832
0.348455
0.350814
0.35296
0.354916
0.356715
0.358359
0.359865
0.36124
0.362485
0.36362
0.36463
0.365532
0.366323
0.366999
0.367572
0.36804
0.368403
0.368664
0.36882
0.368875
0.36882
0.368662
0.368398
0.368024
0.367564
0.36697
0.366436
0.365502
0.260472
0.270832
0.285902
0.297299
0.307842
0.3163
0.323355
0.329117
0.333893
0.3379
0.341327
0.344317
0.346973
0.349366
0.351545
0.353532
0.355362
0.357036
0.35857
0.359973
0.361244
0.362403
0.363438
0.36436
0.365175
0.365873
0.366466
0.366955
0.367338
0.367617
0.367793
0.367869
0.367833
0.367694
0.367449
0.367094
0.366649
0.366069
0.365547
0.364621
0.259637
0.269456
0.284365
0.295586
0.306098
0.314553
0.321642
0.327446
0.332266
0.336314
0.339778
0.342805
0.345495
0.347921
0.350132
0.352152
0.354012
0.355716
0.35728
0.35871
0.360007
0.361189
0.362249
0.363193
0.36403
0.36475
0.365364
0.365873
0.366276
0.366575
0.36677
0.366866
0.36685
0.366732
0.366507
0.366169
0.365742
0.365176
0.364665
0.363746
0.258901
0.268172
0.282883
0.293908
0.304369
0.312811
0.31993
0.325774
0.33064
0.334729
0.338231
0.341295
0.34402
0.346479
0.348723
0.350775
0.352667
0.354402
0.355994
0.357451
0.358774
0.359979
0.361065
0.36203
0.362889
0.363632
0.364265
0.364794
0.365218
0.365536
0.365751
0.365868
0.365872
0.365774
0.365569
0.365251
0.36484
0.364289
0.363789
0.362879
0.258264
0.266986
0.281458
0.292266
0.302656
0.311077
0.31822
0.324102
0.329013
0.333144
0.336686
0.339788
0.342547
0.345041
0.347318
0.349404
0.351327
0.353092
0.354712
0.356196
0.357546
0.358775
0.359885
0.360872
0.361752
0.362517
0.36317
0.363718
0.364163
0.364501
0.364736
0.364874
0.364898
0.364822
0.364637
0.364338
0.363945
0.363409
0.36292
0.362019
0.257725
0.265899
0.280092
0.290663
0.300963
0.30935
0.316511
0.322428
0.327386
0.331559
0.335143
0.338283
0.341078
0.343607
0.345918
0.348037
0.349991
0.351787
0.353436
0.354947
0.356324
0.357575
0.358709
0.359719
0.360619
0.361406
0.362079
0.362647
0.363112
0.363469
0.363724
0.363883
0.363929
0.363874
0.36371
0.363431
0.363056
0.362536
0.362059
0.361167
0.257285
0.264916
0.27879
0.289102
0.299289
0.307631
0.314804
0.320754
0.325759
0.329974
0.3336
0.33678
0.339612
0.342177
0.344522
0.346675
0.348661
0.350488
0.352166
0.353703
0.355107
0.356381
0.357538
0.358571
0.359491
0.360299
0.360992
0.361579
0.362064
0.362441
0.362716
0.362897
0.362965
0.36293
0.362788
0.36253
0.362174
0.36167
0.361205
0.360322
0.256943
0.264039
0.277553
0.287586
0.297638
0.305923
0.3131
0.31908
0.324132
0.328389
0.332059
0.335279
0.33815
0.340751
0.343132
0.345318
0.347337
0.349195
0.350901
0.352465
0.353895
0.355192
0.356372
0.357428
0.358367
0.359196
0.359909
0.360515
0.36102
0.361417
0.361713
0.361914
0.362004
0.361991
0.361871
0.361635
0.361298
0.360812
0.360358
0.359486
0.2567
0.263271
0.276383
0.286119
0.296011
0.304227
0.311398
0.317405
0.322503
0.326804
0.330519
0.333781
0.336691
0.339331
0.341747
0.343968
0.346018
0.347907
0.349642
0.351233
0.352688
0.354009
0.355211
0.35629
0.357248
0.358097
0.35883
0.359455
0.359979
0.360396
0.360713
0.360935
0.361048
0.361057
0.360959
0.360745
0.360428
0.359961
0.35952
0.358658
0.256553
0.262615
0.275284
0.284702
0.29441
0.302544
0.309701
0.31573
0.320875
0.325219
0.32898
0.332286
0.335236
0.337915
0.340368
0.342623
0.344705
0.346626
0.348389
0.350006
0.351487
0.352831
0.354054
0.355156
0.356133
0.357002
0.357755
0.358397
0.358941
0.359379
0.359716
0.35996
0.360095
0.360126
0.360052
0.359861
0.359565
0.359117
0.358691
0.357838
0.256502
0.262071
0.274258
0.283339
0.292839
0.300876
0.308009
0.314055
0.319246
0.323633
0.327441
0.330793
0.333786
0.336505
0.338994
0.341284
0.343399
0.34535
0.347142
0.348785
0.35029
0.351658
0.352903
0.354027
0.355022
0.355911
0.356683
0.357343
0.357907
0.358365
0.358722
0.358987
0.359145
0.359199
0.359148
0.358981
0.358707
0.35828
0.357871
0.357028
0.256545
0.26164
0.273308
0.282033
0.2913
0.299225
0.306324
0.312382
0.317617
0.322046
0.325904
0.329303
0.33234
0.3351
0.337627
0.339952
0.3421
0.344082
0.345901
0.34757
0.3491
0.350491
0.351756
0.352902
0.353916
0.354823
0.355615
0.356293
0.356876
0.357353
0.357732
0.358016
0.358197
0.358275
0.358248
0.358106
0.357856
0.357451
0.357059
0.356229
0.256681
0.261322
0.272435
0.280785
0.289796
0.297594
0.304647
0.310709
0.315986
0.320457
0.324366
0.327815
0.330898
0.333701
0.336266
0.338628
0.340807
0.34282
0.344666
0.346361
0.347914
0.349329
0.350615
0.351781
0.352815
0.353739
0.35455
0.355246
0.355847
0.356345
0.356743
0.357048
0.357252
0.357353
0.357351
0.357236
0.357011
0.35663
0.356258
0.35544
0.256906
0.261117
0.271641
0.279599
0.28833
0.295985
0.302979
0.309037
0.314355
0.318867
0.322829
0.326328
0.32946
0.332308
0.334912
0.337311
0.339523
0.341565
0.343438
0.345159
0.346735
0.348172
0.349478
0.350664
0.351718
0.352659
0.353489
0.354202
0.354822
0.355338
0.355757
0.356082
0.356309
0.356434
0.356457
0.356369
0.356171
0.355816
0.355467
0.354663
0.257217
0.26102
0.270927
0.278478
0.286906
0.294401
0.301322
0.307369
0.312723
0.317276
0.321291
0.324844
0.328026
0.33092
0.333565
0.336001
0.338245
0.340317
0.342216
0.343962
0.345562
0.347021
0.348347
0.349552
0.350625
0.351582
0.35243
0.353161
0.353798
0.354334
0.354772
0.355118
0.355367
0.355517
0.355566
0.355505
0.355337
0.355011
0.354687
0.3539
0.257612
0.26103
0.270294
0.277425
0.285527
0.292845
0.299678
0.305706
0.311091
0.315683
0.319753
0.323362
0.326596
0.329538
0.332226
0.334699
0.336975
0.339076
0.341002
0.342772
0.344395
0.345876
0.347221
0.348444
0.349536
0.350509
0.351375
0.352123
0.352777
0.353331
0.353789
0.354155
0.354427
0.3546
0.354676
0.354644
0.354508
0.354215
0.353919
0.353151
0.258086
0.261141
0.269742
0.276442
0.284198
0.291321
0.298051
0.304048
0.30946
0.314089
0.318214
0.321881
0.32517
0.328162
0.330893
0.333404
0.335713
0.337842
0.339796
0.341589
0.343234
0.344736
0.346101
0.347341
0.348451
0.349439
0.350322
0.351088
0.351758
0.35233
0.352807
0.353193
0.353487
0.353685
0.353788
0.353786
0.353684
0.353426
0.353162
0.352418
0.258636
0.261349
0.269272
0.275533
0.282922
0.289832
0.296444
0.302399
0.307832
0.312495
0.316676
0.320402
0.323748
0.326792
0.329568
0.332117
0.334459
0.336617
0.338596
0.340413
0.34208
0.343602
0.344986
0.346242
0.34737
0.348374
0.349272
0.350056
0.350741
0.351331
0.351827
0.352232
0.352548
0.35277
0.3529
0.35293
0.352864
0.352645
0.352418
0.351702
0.259255
0.261644
0.268882
0.274699
0.281705
0.288382
0.29486
0.300761
0.306206
0.3109
0.315136
0.318925
0.32233
0.325427
0.32825
0.330837
0.333214
0.335399
0.337404
0.339245
0.340932
0.342474
0.343876
0.345148
0.346293
0.347313
0.348226
0.349026
0.349727
0.350334
0.350848
0.351272
0.351609
0.351856
0.352013
0.352074
0.352046
0.351872
0.351688
0.351006
0.25994
0.262018
0.268573
0.273944
0.28055
0.286975
0.293302
0.299138
0.304583
0.309305
0.313597
0.317449
0.320916
0.324069
0.326939
0.329566
0.331976
0.33419
0.33622
0.338084
0.339792
0.341352
0.342772
0.344059
0.34522
0.346256
0.347183
0.348
0.348715
0.349339
0.34987
0.350313
0.35067
0.35094
0.351125
0.351219
0.351231
0.351105
0.350971
0.350334
0.260684
0.262461
0.268343
0.27327
0.279462
0.285617
0.291774
0.297532
0.302965
0.307711
0.312057
0.315974
0.319505
0.322716
0.325635
0.328302
0.330747
0.332989
0.335044
0.33693
0.338658
0.340237
0.341674
0.342976
0.344152
0.345203
0.346143
0.346976
0.347706
0.348346
0.348894
0.349354
0.349731
0.350024
0.350235
0.350363
0.350417
0.350343
0.350268
0.349687
0.261485
0.262965
0.268194
0.272683
0.278446
0.284312
0.29028
0.295947
0.301354
0.306118
0.310518
0.3145
0.318098
0.321368
0.324338
0.327047
0.329526
0.331796
0.333876
0.335785
0.337532
0.339129
0.340582
0.341899
0.343089
0.344154
0.345108
0.345956
0.3467
0.347355
0.347919
0.348395
0.348792
0.349107
0.349345
0.349506
0.349602
0.349586
0.349578
0.349072
0.262338
0.263522
0.268128
0.272187
0.277509
0.283065
0.288825
0.294388
0.299753
0.30453
0.308981
0.31303
0.316696
0.320028
0.32305
0.325801
0.328315
0.330613
0.332718
0.334648
0.336413
0.338027
0.339496
0.340828
0.342031
0.343111
0.344077
0.344939
0.345698
0.346366
0.346944
0.347437
0.347851
0.348187
0.348452
0.348646
0.348787
0.348832
0.348902
0.348493
0.263187
0.264092
0.268124
0.271773
0.276648
0.281878
0.28741
0.292862
0.298166
0.302951
0.307447
0.311562
0.315297
0.318689
0.321764
0.324558
0.327106
0.329432
0.331561
0.333512
0.335296
0.336927
0.338411
0.339756
0.340973
0.342066
0.343045
0.343921
0.344693
0.345374
0.345967
0.346474
0.346906
0.347263
0.347553
0.347781
0.347966
0.348076
0.348236
0.347959
0.263986
0.264608
0.268107
0.271375
0.275809
0.280705
0.285996
0.291334
0.296559
0.301343
0.305879
0.310055
0.313859
0.317315
0.320445
0.323284
0.32587
0.328227
0.330383
0.332358
0.334162
0.335811
0.337311
0.338672
0.339903
0.341011
0.342004
0.342893
0.343679
0.344373
0.34498
0.345503
0.345952
0.346329
0.346645
0.346905
0.347135
0.347314
0.347575
0.347479
0.265493
0.265523
0.268366
0.271161
0.275075
0.279573
0.28457
0.289751
0.294853
0.299615
0.304187
0.308438
0.312333
0.315877
0.319086
0.321992
0.32463
0.32703
0.32922
0.331222
0.333049
0.334715
0.336232
0.337607
0.338851
0.339972
0.340977
0.341877
0.342675
0.34338
0.343999
0.344535
0.344998
0.345394
0.345732
0.346022
0.346293
0.346539
0.346907
0.347053
0.274516
0.272294
0.272939
0.273675
0.275237
0.277705
0.281147
0.285231
0.289637
0.294231
0.298964
0.303577
0.307907
0.311866
0.315422
0.318588
0.321405
0.32392
0.326181
0.328226
0.330081
0.331766
0.333296
0.334683
0.335937
0.337069
0.338085
0.338995
0.339807
0.340527
0.341164
0.341724
0.342216
0.342649
0.343036
0.343393
0.343755
0.344159
0.344807
0.345775
0.274258
0.271818
0.272144
0.271849
0.271947
0.272975
0.275244
0.27811
0.282032
0.286544
0.291458
0.29641
0.301128
0.305447
0.309298
0.312685
0.315658
0.318281
0.320614
0.322708
0.324598
0.32631
0.327862
0.329269
0.330541
0.33169
0.332725
0.333653
0.334483
0.335221
0.335876
0.336455
0.336967
0.337423
0.337837
0.33823
0.338642
0.339145
0.339978
0.341329
0.269725
0.268649
0.26869
0.268045
0.267287
0.267222
0.268349
0.270724
0.27429
0.278816
0.283967
0.289292
0.29442
0.299113
0.303266
0.306877
0.310003
0.312723