/*--------------------------------*- C++ -*----------------------------------*\
  =========                 |
  \\      /  F ield         | OpenFOAM: The Open Source CFD Toolbox
   \\    /   O peration     | Website:  https://openfoam.org
    \\  /    A nd           | Version:  7
     \\/     M anipulation  |
\*---------------------------------------------------------------------------*/
FoamFile
{
    version     2.0;
    format      ascii;
    class       volVectorField;
    location    "9.1";
    object      U;
}
// * * * * * * * * * * * * * * * * * * * * * * * * * * * * * * * * * * * * * //

dimensions      [0 1 -1 0 0 0 0];

internalField   nonuniform List<vector> 
32000
(
(0.000221147 -0.00527537 -1.84396e-22)
(0.00139246 -0.0112433 0)
(0.00368014 -0.0131204 -1.65481e-21)
(0.00669712 -0.011692 0)
(0.0103947 -0.0075294 1.72888e-21)
(0.0146846 -0.0010748 0)
(0.0195065 0.00731247 1.79043e-21)
(0.024813 0.0173362 -1.36226e-21)
(0.0305623 0.0287535 6.47149e-25)
(0.0367167 0.0413603 6.82589e-25)
(0.0432409 0.0549849 -4.69778e-22)
(0.0501016 0.0694794 1.89732e-21)
(0.0572653 0.0847134 0)
(0.0646977 0.100569 -4.82339e-22)
(0.0723631 0.116937 4.84339e-22)
(0.0802243 0.133713 0)
(0.0882421 0.150799 2.45237e-21)
(0.0963753 0.168097 -4.92225e-22)
(0.104581 0.185512 0)
(0.112815 0.20295 9.99109e-22)
(0.121032 0.220319 1.00175e-21)
(0.129185 0.237528 0)
(0.13723 0.254488 0)
(0.145122 0.271114 0)
(0.152819 0.287325 0)
(0.160279 0.303045 0)
(0.167465 0.318205 0)
(0.174342 0.332741 0)
(0.18088 0.3466 -2.09211e-21)
(0.187054 0.359733 0)
(0.192842 0.372103 2.119e-21)
(0.198227 0.38368 0)
(0.203198 0.394443 0)
(0.207748 0.40438 0)
(0.211876 0.413485 -2.17437e-21)
(0.215583 0.421757 -1.10481e-21)
(0.218879 0.429195 3.32133e-21)
(0.221786 0.435788 4.89974e-24)
(0.224316 0.441509 2.24871e-21)
(0.226357 0.446271 4.4589e-24)
(0.000325925 -0.00552862 0)
(0.00158464 -0.011947 3.22854e-21)
(0.0038295 -0.0142429 8.26028e-22)
(0.00669569 -0.01321 -1.50067e-24)
(0.0101489 -0.00942798 -8.64696e-22)
(0.0141162 -0.00334486 0)
(0.0185496 0.00467686 1.79131e-21)
(0.0234118 0.0143389 -1.81712e-21)
(0.0286701 0.0253983 0)
(0.0342941 0.0376507 -3.72195e-21)
(0.0402558 0.0509252 0)
(0.0465279 0.0650759 -5.68977e-21)
(0.0530823 0.0799745 0)
(0.0598903 0.0955058 0)
(0.0669216 0.111563 1.9402e-21)
(0.0741438 0.128047 -1.94644e-21)
(0.0815228 0.144862 -1.96073e-21)
(0.0890232 0.161914 0)
(0.0966071 0.179112 5.93762e-21)
(0.104235 0.196365 -1.98362e-21)
(0.111866 0.213584 3.50043e-24)
(0.11946 0.230681 -6.01138e-21)
(0.126976 0.24757 -4.02926e-21)
(0.134372 0.264168 -2.03595e-21)
(0.14161 0.280395 6.10081e-21)
(0.148652 0.296174 -6.15134e-21)
(0.155462 0.311437 6.19578e-21)
(0.162007 0.32612 -8.26584e-21)
(0.168258 0.340164 -2.07046e-21)
(0.17419 0.353522 3.44589e-23)
(0.179779 0.366152 -6.28475e-21)
(0.18501 0.378021 -4.22784e-21)
(0.189868 0.389103 8.56991e-21)
(0.194345 0.399382 -8.57258e-21)
(0.198438 0.408846 -2.14382e-21)
(0.202145 0.41749 -8.7302e-21)
(0.205475 0.425306 -1.03022e-23)
(0.208446 0.432276 2.22327e-21)
(0.211058 0.438366 -8.82727e-21)
(0.21319 0.443479 -1.24599e-20)
(0.000441196 -0.00578381 -7.40133e-22)
(0.00180372 -0.0126474 -1.61394e-21)
(0.00401688 -0.0153379 -7.45694e-21)
(0.00674288 -0.014678 0)
(0.00996319 -0.0112575 8.65664e-22)
(0.01362 -0.00553008 -8.80387e-22)
(0.0176778 0.00213884 -1.07464e-20)
(0.0221107 0.0114498 3.63343e-21)
(0.0268947 0.0221583 -1.84118e-21)
(0.0320065 0.0340615 1.11633e-20)
(0.0374247 0.0469896 3.75901e-21)
(0.043128 0.0607978 1.89795e-21)
(0.0490937 0.0753599 -7.64144e-21)
(0.0552976 0.0905636 0)
(0.0617141 0.106305 0)
(0.0683161 0.122488 3.89924e-21)
(0.0750739 0.139021 1.18293e-23)
(0.0819564 0.155812 -3.92632e-21)
(0.0889309 0.172776 -3.95423e-21)
(0.0959625 0.189824 -7.93037e-21)
(0.103015 0.206871 1.1963e-20)
(0.110052 0.223831 1.64405e-23)
(0.117036 0.240622 -8.23213e-24)
(0.123932 0.257161 4.02881e-21)
(0.130703 0.27337 -8.14986e-21)
(0.137314 0.289175 1.63124e-20)
(0.143731 0.304506 0)
(0.149924 0.319298 4.13819e-21)
(0.155865 0.333494 4.16253e-21)
(0.161528 0.347041 8.3863e-21)
(0.166891 0.359896 3.44467e-23)
(0.171938 0.372022 0)
(0.176652 0.383392 4.28776e-21)
(0.181025 0.393983 -4.21421e-21)
(0.185051 0.40378 -4.26023e-21)
(0.188727 0.412771 1.30529e-20)
(0.192059 0.420944 -1.29624e-20)
(0.195064 0.428273 8.80715e-21)
(0.19773 0.434719 -1.31016e-20)
(0.199924 0.440173 4.86063e-21)
(0.000566364 -0.00601519 5.92223e-21)
(0.00204584 -0.0132887 -6.46989e-21)
(0.00423501 -0.0163545 1.32644e-20)
(0.00682862 -0.0160513 0)
(0.00982414 -0.0129791 5.19445e-21)
(0.0131804 -0.00759667 8.81494e-21)
(0.0168748 -0.000272726 1.78999e-21)
(0.0208914 0.00869312 1.88236e-24)
(0.0252154 0.0190549 5.52232e-21)
(0.0298313 0.0306108 -1.86186e-21)
(0.0347239 0.0431921 9.39428e-21)
(0.0398774 0.0566561 -1.13742e-20)
(0.0452739 0.0708786 1.14586e-20)
(0.050894 0.0857495 -3.84938e-21)
(0.0567162 0.101168 3.86538e-21)
(0.0627173 0.117042 -7.77707e-21)
(0.0688721 0.133281 -1.17306e-20)
(0.0751537 0.149799 3.92152e-21)
(0.0815333 0.166513 -3.95296e-21)
(0.0879805 0.183337 1.18838e-20)
(0.0944634 0.20019 -7.96513e-21)
(0.10095 0.21699 -7.98306e-21)
(0.107406 0.233656 0)
(0.113799 0.250108 0)
(0.120097 0.26627 -8.0876e-21)
(0.126269 0.282068 -8.15323e-21)
(0.132281 0.297434 -8.16439e-21)
(0.138107 0.312301 0)
(0.143718 0.326612 0)
(0.149091 0.340314 -1.66458e-20)
(0.154205 0.35336 -8.81511e-23)
(0.15904 0.365711 8.42882e-21)
(0.163583 0.377335 -8.40683e-21)
(0.167823 0.388208 -8.5505e-21)
(0.171752 0.398309 8.5563e-21)
(0.175366 0.407622 0)
(0.178671 0.416128 8.67645e-21)
(0.181682 0.423798 -1.74041e-20)
(0.184373 0.430583 1.74553e-20)
(0.186602 0.436367 -1.96374e-20)
(0.000699666 -0.00623739 -2.95737e-21)
(0.00230772 -0.0139011 4.85375e-21)
(0.00447969 -0.0173199 -6.6351e-21)
(0.0069472 -0.017354 0)
(0.00972516 -0.0146133 -8.65981e-21)
(0.0127887 -0.00956251 -5.29045e-21)
(0.0161288 -0.00257305 7.16741e-21)
(0.0197406 0.00605479 0)
(0.023618 0.0160752 -1.10443e-20)
(0.0277528 0.0272873 -3.72335e-21)
(0.0321362 0.0395238 -3.75626e-21)
(0.0367578 0.0526435 7.58505e-21)
(0.0416041 0.0665248 -7.63715e-21)
(0.0466596 0.0810598 3.84091e-21)
(0.0519068 0.0961507 0)
(0.0573266 0.111707 1.16687e-20)
(0.0628969 0.127644 3.91427e-21)
(0.0685947 0.143877 -7.85917e-21)
(0.0743953 0.160326 1.57599e-20)
(0.0802719 0.176912 -1.58242e-20)
(0.0861963 0.193553 1.58614e-20)
(0.0921396 0.210171 7.98307e-21)
(0.0980726 0.226687 0)
(0.103966 0.243026 8.06881e-21)
(0.109791 0.259112 3.99506e-23)
(0.115517 0.274874 0)
(0.121116 0.290242 8.16442e-21)
(0.126562 0.305152 -8.22656e-21)
(0.131829 0.319545 8.19233e-21)
(0.136895 0.333367 1.66056e-20)
(0.141737 0.346569 -1.66336e-20)
(0.14634 0.359111 1.67e-20)
(0.150687 0.370959 0)
(0.154767 0.382082 0)
(0.158572 0.392459 1.69961e-20)
(0.162098 0.402066 0)
(0.165347 0.410881 0)
(0.168337 0.418869 -1.73016e-20)
(0.171025 0.425975 1.72493e-20)
(0.173264 0.432077 9.79332e-21)
(0.000840133 -0.00644313 1.4831e-21)
(0.00258576 -0.0144669 0)
(0.00474536 -0.0182154 1.3294e-20)
(0.00709091 -0.0185677 1.69979e-21)
(0.0096557 -0.0161441 1.73606e-21)
(0.0124327 -0.0114135 1.05931e-20)
(0.0154266 -0.00474976 1.43456e-20)
(0.0186431 0.00354626 0)
(0.0220855 0.0132293 3.6831e-21)
(0.0257529 0.0240996 1.11681e-20)
(0.0296425 0.0359917 1.50305e-20)
(0.0337487 0.0487663 -3.7913e-21)
(0.0380626 0.0623037 -1.14521e-20)
(0.0425723 0.0764985 0)
(0.0472639 0.0912559 1.54534e-20)
(0.0521213 0.106489 0)
(0.0571259 0.122114 2.34189e-20)
(0.062258 0.138051 -7.82732e-21)
(0.0674962 0.154224 0)
(0.0728171 0.170554 -7.91725e-21)
(0.0781958 0.186965 -2.33974e-23)
(0.083607 0.203381 -7.9263e-21)
(0.0890248 0.219727 -7.96904e-21)
(0.094423 0.235928 8.04859e-21)
(0.0997754 0.251912 -8.02752e-21)
(0.105055 0.267608 0)
(0.110237 0.282949 -8.15662e-21)
(0.115295 0.297871 8.12547e-21)
(0.120207 0.312313 0)
(0.12495 0.326222 0)
(0.129506 0.339549 0)
(0.133857 0.352249 -1.67252e-20)
(0.137987 0.364287 1.66368e-20)
(0.141885 0.375631 0)
(0.145543 0.386252 -8.4724e-21)
(0.148954 0.396127 0)
(0.152123 0.405225 1.71608e-20)
(0.155065 0.413509 -8.45036e-21)
(0.157725 0.420917 -1.73203e-20)
(0.159948 0.427322 1.92948e-20)
(0.000986588 -0.00663402 1.04012e-20)
(0.00287672 -0.0149884 -1.46011e-20)
(0.00502667 -0.0190429 -2.49384e-20)
(0.00725258 -0.0196949 -1.36066e-20)
(0.00960743 -0.0175731 -3.47039e-21)
(0.0121022 -0.0131511 -7.05848e-21)
(0.014756 -0.00680479 -3.22829e-20)
(0.0175858 0.00116507 -1.09136e-20)
(0.0206036 0.0105145 -1.84125e-20)
(0.023816 0.0210449 -1.86121e-20)
(0.027226 0.0325927 -2.63052e-20)
(0.0308329 0.0450209 -1.5155e-20)
(0.0346315 0.0582119 2.5529e-24)
(0.0386134 0.0720629 -1.53613e-20)
(0.042768 0.0864817 -1.54534e-20)
(0.0470821 0.101384 -2.32966e-20)
(0.05154 0.116689 1.55901e-20)
(0.0561247 0.132321 -7.82134e-21)
(0.0608179 0.148205 0)
(0.0655992 0.164267 1.57751e-20)
(0.0704467 0.180433 0)
(0.0753381 0.196629 3.17942e-20)
(0.0802507 0.212784 0)
(0.0851612 0.228825 -8.03083e-21)
(0.090046 0.244682 8.08172e-21)
(0.0948813 0.260287 -1.6077e-20)
(0.0996434 0.275573 0)
(0.10431 0.290476 -1.63349e-20)
(0.108859 0.304937 1.62669e-20)
(0.11327 0.318902 0)
(0.117526 0.332321 0)
(0.121609 0.345148 0)
(0.125504 0.357345 -1.66049e-20)
(0.129201 0.368878 0)
(0.13269 0.379715 -1.68927e-20)
(0.135966 0.389828 3.37672e-20)
(0.139031 0.399184 -3.3926e-20)
(0.141902 0.407739 1.68063e-20)
(0.14451 0.415428 3.4227e-20)
(0.146694 0.42212 -1.9191e-20)
(0.00113765 -0.00680785 -1.33726e-20)
(0.00317677 -0.015462 -1.34272e-23)
(0.00531804 -0.0197985 1.33058e-20)
(0.00742484 -0.0207307 2.7224e-20)
(0.009571 -0.0188961 -3.47252e-21)
(0.0117867 -0.0147721 -1.41387e-20)
(0.0141054 -0.00873546 1.43492e-20)
(0.0165557 -0.0010865 2.18295e-20)
(0.0191584 0.00793204 7.36471e-21)
(0.0219273 0.0181236 1.86149e-20)
(0.0248712 0.0293269 1.50309e-20)
(0.0279938 0.0414071 2.27294e-20)
(0.0312935 0.0542489 4.57921e-20)
(0.0347653 0.067752 2.30445e-20)
(0.0384013 0.0818272 0)
(0.0421909 0.0963925 7.75584e-21)
(0.046121 0.111371 7.77968e-21)
(0.050177 0.126688 7.8113e-21)
(0.0543433 0.142273 1.57136e-20)
(0.0586018 0.158053 -7.88321e-21)
(0.0629337 0.173959 0)
(0.0673194 0.189919 -1.87591e-23)
(0.0717389 0.205864 -1.59185e-20)
(0.0761713 0.221725 1.59707e-20)
(0.0805957 0.237433 3.20786e-20)
(0.0849907 0.252922 3.22332e-20)
(0.0893351 0.268126 3.99402e-23)
(0.0936082 0.282983 1.61981e-20)
(0.0977904 0.297435 1.62611e-20)
(0.101863 0.311426 -1.63264e-20)
(0.10581 0.324906 1.63939e-20)
(0.109613 0.33783 1.64633e-20)
(0.11326 0.350155 3.31392e-20)
(0.11674 0.361846 -1.21714e-22)
(0.120043 0.37287 5.01144e-20)
(0.123164 0.383193 4.53372e-23)
(0.126105 0.39278 -1.68221e-20)
(0.128883 0.401583 -1.69903e-20)
(0.131418 0.409533 1.69577e-20)
(0.133541 0.416495 1.91356e-20)
(0.00129205 -0.00696349 1.19153e-20)
(0.00348225 -0.015885 1.6243e-20)
(0.00561372 -0.0204784 1.00013e-20)
(0.00760022 -0.021672 -1.02103e-20)
(0.00953754 -0.0201104 -1.73716e-20)
(0.0114758 -0.016274 1.4136e-20)
(0.0134635 -0.01054 0)
(0.0155406 -0.00320765 1.45635e-20)
(0.0177367 0.00548228 0)
(0.020073 0.0153356 -2.97899e-20)
(0.0225635 0.0261936 7.51922e-21)
(0.0252161 0.0379235 -3.78872e-20)
(0.0280329 0.0504129 -1.52633e-20)
(0.0310117 0.0635642 7.68302e-21)
(0.0341472 0.0772907 1.12196e-23)
(0.037431 0.091513 -7.75197e-21)
(0.0408521 0.106157 -1.55869e-20)
(0.0443985 0.121151 -3.12926e-20)
(0.0480562 0.136426 0)
(0.0518099 0.151914 2.41809e-23)
(0.0556429 0.167546 -1.57783e-20)
(0.0595382 0.183255 -1.5867e-20)
(0.0634781 0.198974 1.59186e-20)
(0.0674441 0.214635 -1.60268e-20)
(0.0714175 0.230174 1.6001e-20)
(0.0753793 0.245524 -3.20925e-20)
(0.0793105 0.260622 4.17086e-23)
(0.0831924 0.275408 -3.23159e-20)
(0.0870072 0.289823 -1.62612e-20)
(0.0907381 0.303812 -4.58111e-23)
(0.0943691 0.317325 -9.97612e-23)
(0.0978852 0.330315 -1.64634e-20)
(0.101273 0.342739 -1.65343e-20)
(0.104523 0.35456 -6.91215e-23)
(0.107625 0.365741 -1.66783e-20)
(0.110575 0.376246 -7.99535e-23)
(0.113375 0.386038 -1.69069e-20)
(0.116042 0.395065 5.03204e-20)
(0.118483 0.403253 -1.69578e-20)
(0.120525 0.410469 -1.91625e-20)
(0.00144848 -0.00709937 -1.19178e-20)
(0.00378949 -0.0162543 3.25007e-21)
(0.00590793 -0.0210797 -9.99483e-21)
(0.00777125 -0.0225156 -3.40709e-21)
(0.00949831 -0.0212131 1.38993e-20)
(0.0111599 -0.0176547 -3.53807e-21)
(0.0128195 -0.012217 3.59139e-21)
(0.0145288 -0.00519759 -2.18482e-20)
(0.0163264 0.00316543 7.3697e-21)
(0.0182403 0.0126805 1.48967e-20)
(0.0202896 0.0231915 0)
(0.0224862 0.0345687 3.03163e-20)
(0.0248355 0.0467023 0)
(0.0273381 0.0594974 -3.07167e-20)
(0.0299908 0.0728699 -1.54412e-20)
(0.0327873 0.0867431 0)
(0.0357185 0.101045 0)
(0.0387742 0.115708 3.12839e-20)
(0.0419422 0.130664 1.57219e-20)
(0.0452094 0.145848 -3.15015e-20)
(0.0485611 0.161195 1.57696e-20)
(0.0519826 0.176639 0)
(0.055458 0.192116 -1.59338e-20)
(0.0589709 0.207561 3.18684e-20)
(0.0625048 0.222911 -1.59433e-20)
(0.0660428 0.238102 -1.60913e-20)
(0.0695678 0.253072 1.60359e-20)
(0.0730632 0.267763 0)
(0.0765129 0.282115 3.24462e-20)
(0.0799017 0.296076 -1.61912e-20)
(0.0832148 0.309594 -1.63883e-20)
(0.0864383 0.322623 -1.46895e-22)
(0.0895602 0.335118 6.5816e-20)
(0.0925706 0.34704 -4.93909e-20)
(0.0954613 0.35835 0)
(0.0982267 0.369011 -1.66706e-20)
(0.100871 0.378981 -3.35605e-20)
(0.103411 0.388208 1.65479e-20)
(0.105742 0.396614 1.67733e-20)
(0.107684 0.404066 0)
(0.00160546 -0.00721391 -2.38889e-20)
(0.00409452 -0.0165675 -3.25385e-21)
(0.00619481 -0.0215992 2.67115e-20)
(0.00793067 -0.0232585 -2.7303e-20)
(0.00944483 -0.0222017 0)
(0.0108294 -0.0189123 0)
(0.0121633 -0.0137652 -7.18983e-21)
(0.01351 -0.00705572 -2.6362e-24)
(0.0149165 0.000981249 7.37292e-21)
(0.0164176 0.0101573 0)
(0.0180375 0.0203194 0)
(0.0197918 0.0313409 -7.57628e-21)
(0.0216889 0.0431148 6.05981e-24)
(0.0237317 0.0555491 7.6824e-21)
(0.0259192 0.0685624 1.54412e-20)
(0.0282468 0.0820805 0)
(0.0307069 0.0960342 1.55979e-20)
(0.033291 0.110357 -1.56021e-20)
(0.0359886 0.124986 -3.1392e-20)
(0.0387882 0.139856 3.14932e-20)
(0.041677 0.154906 5.92281e-23)
(0.0446419 0.170072 -1.58064e-20)
(0.047669 0.185293 1.59215e-20)
(0.0507437 0.200506 -3.18208e-20)
(0.0538514 0.21565 0)
(0.0569769 0.230663 1.6069e-20)
(0.0601052 0.245485 -3.21341e-20)
(0.0632214 0.260057 1.6059e-20)
(0.0663111 0.274324 -1.61824e-20)
(0.0693605 0.288232 -1.62852e-20)
(0.0723561 0.30173 -1.64789e-20)
(0.0752853 0.314771 6.53269e-20)
(0.0781371 0.32731 -4.90461e-20)
(0.0809023 0.339306 -3.3046e-20)
(0.0835732 0.35072 3.28569e-20)
(0.0861447 0.36151 0)
(0.0886221 0.371633 3.34068e-20)
(0.0910212 0.381037 -3.31977e-20)
(0.0932265 0.38964 -1.67735e-20)
(0.095054 0.397309 0)
(0.00176147 -0.00730567 5.08039e-20)
(0.00439344 -0.0168216 2.28356e-20)
(0.00646858 -0.0220337 -2.67113e-20)
(0.00807121 -0.0238978 2.38877e-20)
(0.00936884 -0.023074 -3.48347e-21)
(0.0104755 -0.0200452 7.08242e-21)
(0.0114856 -0.0151837 0)
(0.0124741 -0.0087818 -7.29156e-21)
(0.0134968 -0.00107062 7.37651e-21)
(0.0145948 0.00776515 7.4564e-21)
(0.0157969 0.0175759 -7.52162e-21)
(0.0171222 0.0282382 -7.58552e-21)
(0.0185821 0.0396483 7.63312e-21)
(0.0201816 0.051717 0)
(0.0219213 0.0643656 0)
(0.0237982 0.0775225 -1.55318e-20)
(0.0258062 0.0911208 1.55684e-20)
(0.027938 0.105097 -1.56619e-20)
(0.0301846 0.119389 1.56746e-20)
(0.0325359 0.133936 1.57713e-20)
(0.0349806 0.148678 -3.1584e-20)
(0.0375072 0.163555 3.16714e-20)
(0.0401032 0.178507 7.20923e-23)
(0.0427559 0.193474 -1.58798e-20)
(0.0454521 0.208395 0)
(0.0481784 0.223213 1.60524e-20)
(0.0509213 0.237867 1.03208e-22)
(0.0536679 0.252302 -1.60388e-20)
(0.0564052 0.266461 0)
(0.0591207 0.280294 3.2504e-20)
(0.0618022 0.293748 -3.23491e-20)
(0.0644384 0.306776 0)
(0.0670191 0.319334 3.2829e-20)
(0.0695362 0.331379 -3.26481e-20)
(0.0719826 0.342869 0)
(0.0743533 0.353764 0)
(0.0766547 0.364017 0)
(0.0789026 0.373575 -3.33688e-20)
(0.0809705 0.382355 3.31549e-20)
(0.0826692 0.390225 3.80258e-20)
(0.00191487 -0.00737314 -2.39224e-20)
(0.0046821 -0.0170141 -2.60931e-20)
(0.0067233 -0.0223806 -3.34466e-21)
(0.00818581 -0.0244311 1.02523e-20)
(0.00926252 -0.0238279 -1.39358e-20)
(0.0100898 -0.0210519 1.41773e-20)
(0.0107777 -0.0164718 -1.43946e-20)
(0.0114126 -0.0103758 -2.18935e-20)
(0.0120586 -0.00299065 0)
(0.0127628 0.00550301 -7.45977e-21)
(0.0135586 0.0149594 7.52502e-21)
(0.0144685 0.0252587 0)
(0.0155061 0.0363005 1.52836e-20)
(0.0166785 0.0479986 -1.53627e-20)
(0.0179879 0.0602769 -4.63707e-20)
(0.0194324 0.0730664 -2.53217e-23)
(0.0210072 0.0863026 3.11784e-20)
(0.0227061 0.0999242 -1.56291e-20)
(0.0245214 0.113872 0)
(0.0264441 0.128087 0)
(0.0284642 0.142512 3.15897e-20)
(0.0305712 0.157088 1.58673e-20)
(0.0327544 0.171759 -1.58412e-20)
(0.0350023 0.186465 -1.59546e-20)
(0.0373031 0.20115 3.19107e-20)
(0.0396448 0.215756 -1.59491e-20)
(0.0420157 0.230225 3.21721e-20)
(0.0444043 0.244503 -6.43121e-20)
(0.046799 0.258536 6.44846e-20)
(0.0491885 0.272271 -6.46625e-20)
(0.051562 0.285659 6.48456e-20)
(0.0539091 0.298652 -6.5033e-20)
(0.0562209 0.311205 3.24755e-20)
(0.0584899 0.323275 3.28482e-20)
(0.0607098 0.334819 2.87907e-22)
(0.062876 0.345794 2.94234e-22)
(0.0649955 0.356154 -3.28459e-20)
(0.0670841 0.365846 2.02811e-22)
(0.0690051 0.374782 -3.30217e-20)
(0.0705636 0.382837 0)
(0.00206395 -0.00741497 2.9963e-21)
(0.00495636 -0.0171427 -3.26783e-21)
(0.00695314 -0.0226372 1.00417e-20)
(0.00826751 -0.024856 -1.36807e-20)
(0.0091183 -0.0244616 6.97254e-21)
(0.00966457 -0.0219313 0)
(0.0100317 -0.017629 0)
(0.0103174 -0.0118378 2.91872e-20)
(0.0105939 -0.00477964 3.69377e-20)
(0.010914 0.00336961 -7.4614e-21)
(0.0113153 0.0124683 3.76618e-20)
(0.0118232 0.0224005 -7.58819e-21)
(0.0124536 0.0330693 0)
(0.0132154 0.0443915 0)
(0.0141119 0.0562939 3.0909e-20)
(0.0151423 0.0687097 0)
(0.016303 0.0815771 1.55892e-20)
(0.0175887 0.094837 -1.56812e-20)
(0.0189926 0.108432 0)
(0.0205066 0.122307 -3.15177e-20)
(0.0221217 0.136405 -1.57632e-20)
(0.0238288 0.150671 -4.74948e-20)
(0.0256181 0.165049 -1.59133e-20)
(0.0274793 0.179483 1.58791e-20)
(0.0294019 0.193918 3.19091e-20)
(0.0313752 0.208297 0)
(0.0333891 0.222565 3.2055e-20)
(0.0354331 0.23667 6.43688e-20)
(0.037497 0.250557 2.19655e-22)
(0.0395708 0.264176 -3.21805e-20)
(0.0416446 0.277477 -3.25015e-20)
(0.0437093 0.290414 3.23378e-20)
(0.0457569 0.30294 3.26818e-20)
(0.0477807 0.315012 -6.52737e-20)
(0.0497749 0.326587 6.54461e-20)
(0.0517354 0.33762 -3.28483e-20)
(0.0536699 0.348065 3.27495e-20)
(0.0555939 0.357871 6.59596e-20)
(0.057361 0.366947 3.29903e-20)
(0.0587703 0.375171 3.74877e-20)
(0.00220689 -0.00742984 -2.40209e-20)
(0.00521191 -0.0172051 2.29064e-20)
(0.00715227 -0.0228014 -2.0117e-20)
(0.00830961 -0.0251708 2.05517e-20)
(0.00892907 -0.024974 3.49073e-20)
(0.00919246 -0.0226828 -2.84078e-20)
(0.00924051 -0.0186553 3.60463e-20)
(0.00918173 -0.0131684 2.19218e-20)
(0.00909613 -0.00643845 -5.17304e-20)
(0.00904209 0.0013637 1.4943e-20)
(0.0090609 0.0101011 7.55203e-21)
(0.00918061 0.0196618 1.51936e-20)
(0.00941922 0.0299526 1.53095e-20)
(0.00978692 0.0408936 -3.07842e-20)
(0.0102881 0.0524142 3.09487e-20)
(0.010923 0.0644502 4.66501e-20)
(0.0116889 0.0769422 -4.67937e-20)
(0.0125811 0.0898334 6.266e-20)
(0.0135937 0.103069 3.14464e-20)
(0.0147192 0.116595 4.73072e-20)
(0.0159497 0.130357 1.58457e-20)
(0.0172768 0.144303 3.16857e-20)
(0.0186917 0.158378 -3.17813e-20)
(0.0201852 0.172528 0)
(0.0217479 0.1867 -9.58291e-20)
(0.0233703 0.200839 6.3974e-20)
(0.0250433 0.214892 -3.18677e-20)
(0.0267578 0.228806 -3.19292e-20)
(0.0285047 0.242531 1.02685e-22)
(0.030275 0.256016 0)
(0.0320598 0.269212 0)
(0.033851 0.282072 3.24133e-20)
(0.0356415 0.294551 -3.26306e-20)
(0.0374255 0.306605 3.24507e-20)
(0.0391976 0.31819 -3.27906e-20)
(0.0409541 0.329261 -3.2874e-20)
(0.042703 0.339773 0)
(0.0444594 0.349673 -3.27526e-20)
(0.0460679 0.358873 -3.2719e-20)
(0.0473212 0.36725 -1.12598e-19)
(0.00234182 -0.00741663 2.40195e-20)
(0.00544441 -0.0171995 -2.29055e-20)
(0.00731489 -0.0228713 2.68163e-20)
(0.00830559 -0.025374 -4.79696e-20)
(0.00868812 -0.025364 -3.49133e-20)
(0.00866689 -0.023306 2.84078e-20)
(0.00839773 -0.0195508 -5.76989e-20)
(0.00799962 -0.0143682 -2.92252e-20)
(0.00755994 -0.00796813 3.6966e-20)
(0.0071421 -0.000516059 -6.72453e-20)
(0.00679084 0.00785612 -4.52314e-20)
(0.00653662 0.0170409 -1.52142e-20)
(0.00639907 0.0269488 -4.59101e-20)
(0.00638958 0.0375031 4.61752e-20)
(0.00651344 0.0486361 -3.09489e-20)
(0.00677163 0.0602862 -3.10951e-20)
(0.00716213 0.0723963 0)
(0.00768094 0.0849119 -3.1342e-20)
(0.00832255 0.0977805 -4.71991e-20)
(0.00908026 0.11095 1.57545e-20)
(0.00994666 0.124368 -3.16273e-20)
(0.0109142 0.137985 0)
(0.0119749 0.151747 3.17815e-20)
(0.0131205 0.165602 3.19394e-20)
(0.0143424 0.179499 -3.18791e-20)
(0.0156323 0.193386 0)
(0.016982 0.20721 0)
(0.0183835 0.22092 0)
(0.0198287 0.234467 4.76553e-24)
(0.0213094 0.247801 0)
(0.0228177 0.260874 -6.47814e-20)
(0.0243466 0.273639 -1.27864e-22)
(0.0258896 0.286052 -6.50561e-20)
(0.0274416 0.298069 6.508e-20)
(0.0289976 0.309646 -3.24785e-20)
(0.030554 0.320736 3.27014e-20)
(0.0321191 0.331296 0)
(0.0337075 0.341275 6.5766e-20)
(0.0351552 0.350582 -3.2716e-20)
(0.0362478 0.359099 0)
(0.00246681 -0.00737436 3.00885e-21)
(0.00564949 -0.0171243 0)
(0.00743535 -0.0228456 -3.35852e-20)
(0.00824924 -0.0254647 4.11419e-20)
(0.00838917 -0.0256313 2.09849e-20)
(0.00808189 -0.0238011 -2.84524e-20)
(0.00749791 -0.020316 2.88601e-20)
(0.0067662 -0.015438 -2.92676e-20)
(0.005981 -0.00936989 0)
(0.00521035 -0.00227102 2.98975e-20)
(0.00450208 0.00573202 -3.01924e-20)
(0.00388868 0.0145363 -2.42924e-23)
(0.00339114 0.0240563 0)
(0.0030218 0.0342185 3.08373e-20)
(0.00278669 0.0449581 -1.54988e-20)
(0.00268736 0.0562163 3.11815e-20)
(0.00272229 0.0679382 1.56676e-20)
(0.002888 0.0800717 -3.14063e-20)
(0.00317938 0.0925663 0)
(0.00359013 0.105372 4.74271e-20)
(0.00411342 0.118438 1.58828e-20)
(0.00474233 0.131717 0)
(0.00546963 0.145156 0)
(0.00628767 0.158707 0)
(0.00718872 0.172319 3.19463e-20)
(0.00816538 0.185941 0)
(0.00921044 0.199523 -3.21777e-20)
(0.0103167 0.213016 6.42996e-20)
(0.0114769 0.226371 -6.43135e-20)
(0.0126836 0.239538 0)
(0.0139299 0.252472 3.23325e-20)
(0.0152094 0.265127 -3.23952e-20)
(0.0165166 0.277457 3.24621e-20)
(0.0178465 0.289419 0)
(0.0191946 0.300969 0)
(0.0205572 0.312062 3.27536e-20)
(0.0219426 0.322653 -3.25539e-20)
(0.0233646 0.332695 6.57132e-20)
(0.0246513 0.342096 -6.5292e-20)
(0.0255806 0.350743 0)
(0.00257986 -0.00730221 2.11105e-20)
(0.00582273 -0.0169784 6.56427e-21)
(0.00750809 -0.0227233 2.68705e-20)
(0.00813462 -0.0254422 2.74738e-20)
(0.00802645 -0.0257758 -2.79755e-20)
(0.00743217 -0.0241685 2.84524e-20)
(0.00653644 -0.0209519 2.89047e-20)
(0.0054776 -0.016379 2.92677e-20)
(0.00435623 -0.010645 0)
(0.00324453 -0.00390257 2.99435e-20)
(0.00219301 0.00372739 3.01925e-20)
(0.00123584 0.0121467 3.04341e-20)
(0.000395071 0.0212739 0)
(-0.000316227 0.0310387 3.16553e-23)
(-0.000891467 0.0413795 3.10056e-20)
(-0.00132871 0.0522399 -1.5554e-20)
(-0.00162911 0.0635677 -1.55995e-20)
(-0.0017958 0.0753128 4.71393e-20)
(-0.00183363 0.0874266 4.32219e-23)
(-0.00174856 0.099861 -1.57478e-20)
(-0.001547 0.112568 -3.16944e-20)
(-0.00123534 0.1255 0)
(-0.000820261 0.138609 0)
(-0.000308786 0.151846 0)
(0.000292097 0.165163 0)
(0.000975757 0.17851 0)
(0.00173576 0.191838 0)
(0.00256561 0.205101 3.22708e-20)
(0.00345871 0.218249 -3.21367e-20)
(0.00440853 0.231237 0)
(0.00540879 0.244017 0)
(0.00645378 0.256545 3.23955e-20)
(0.00753842 0.268777 0)
(0.00865818 0.280668 3.26192e-20)
(0.0098086 0.292176 -3.24325e-20)
(0.0109859 0.303256 0)
(0.0121977 0.313863 6.55321e-20)
(0.0134568 0.323955 -6.51218e-20)
(0.0145847 0.333439 0)
(0.01535 0.342203 0)
(0.00267892 -0.00719958 -2.41229e-20)
(0.00595975 -0.0167609 -6.57064e-21)
(0.00752774 -0.022504 6.7281e-21)
(0.00795619 -0.0253068 -2.74738e-20)
(0.00759475 -0.0257982 0)
(0.00671317 -0.0244091 0)
(0.00550958 -0.0214596 -2.16755e-20)
(0.00413099 -0.0171926 -7.32532e-21)
(0.00268371 -0.011795 -1.48256e-20)
(0.0012436 -0.0054121 -1.49676e-20)
(-0.00013657 0.00184095 -1.512e-20)
(-0.00142134 0.00987101 1.52329e-20)
(-0.00258786 0.0186006 1.53545e-20)
(-0.00362258 0.0279631 -1.5435e-20)
(-0.00451854 0.0378997 0)
(-0.00527354 0.048357 0)
(-0.00588856 0.059285 -3.13266e-20)
(-0.00636654 0.0706357 0)
(-0.00671214 0.0823625 0)
(-0.00693109 0.0944193 3.17759e-20)
(-0.00702944 0.10676 1.09581e-22)
(-0.00701322 0.119339 8.56776e-23)
(-0.00688863 0.132109 -3.1984e-20)
(-0.00666215 0.145023 3.19154e-20)
(-0.00634013 0.158034 3.2075e-20)
(-0.00592853 0.171096 -3.21334e-20)
(-0.00543318 0.18416 0)
(-0.00485995 0.197181 3.23088e-20)
(-0.00421479 0.210111 1.91303e-22)
(-0.00350359 0.222906 -3.2221e-20)
(-0.002732 0.235519 0)
(-0.00190525 0.247906 0)
(-0.00102806 0.260025 3.25731e-20)
(-0.000104776 0.271831 -3.23935e-20)
(0.000860056 0.283282 -3.26608e-20)
(0.00186214 0.294334 3.24675e-20)
(0.00290848 0.304946 0)
(0.00401037 0.315075 0)
(0.00498323 0.324631 0)
(0.00558584 0.333504 -3.73123e-20)
(0.00276198 -0.0070661 3.02341e-20)
(0.00605623 -0.0164717 -1.3159e-20)
(0.00748918 -0.0221878 6.73535e-21)
(0.00770881 -0.0250589 0)
(0.00708945 -0.0256994 3.50544e-20)
(0.00592112 -0.0245244 -2.39677e-25)
(0.00441452 -0.0218408 2.89513e-20)
(0.00272458 -0.0178805 -2.19954e-20)
(0.000962708 -0.0128213 2.96734e-20)
(-0.00079217 -0.00680098 -1.49889e-20)
(-0.00248547 7.1592e-05 0)
(-0.00408079 0.00770836 1.526e-20)
(-0.00555478 0.016036 -4.60654e-20)
(-0.00689366 0.0249916 0)
(-0.00809026 0.0345193 4.6682e-20)
(-0.00914227 0.0445685 -3.12468e-20)
(-0.0100507 0.0550913 -3.13949e-20)
(-0.0108183 0.0660421 1.57395e-20)
(-0.0114498 0.0773762 0)
(-0.0119506 0.0890491 -3.17011e-20)
(-0.0123267 0.101017 -3.18756e-20)
(-0.0125836 0.113235 -3.04502e-23)
(-0.0127273 0.125658 3.20056e-20)
(-0.0127637 0.138241 3.21143e-20)
(-0.0126986 0.150939 -6.41057e-20)
(-0.0125375 0.163706 3.21338e-20)
(-0.0122857 0.176496 0)
(-0.0119484 0.189264 -3.22973e-20)
(-0.0115311 0.201965 3.23446e-20)
(-0.0110391 0.214554 3.23894e-20)
(-0.0104776 0.226987 -3.24314e-20)
(-0.00985148 0.239221 3.24705e-20)
(-0.00916524 0.251213 0)
(-0.00842321 0.262921 3.26322e-20)
(-0.00763025 0.274302 6.54544e-20)
(-0.00679141 0.285315 -6.49461e-20)
(-0.00590085 0.295918 6.5451e-20)
(-0.00494886 0.306075 4.42837e-22)
(-0.00412515 0.315695 -3.24306e-20)
(-0.00368226 0.324668 7.46918e-20)
(0.00282698 -0.00690166 -1.8144e-20)
(0.00610799 -0.016111 -3.95323e-20)
(0.00738758 -0.0217754 2.69808e-20)
(0.00738782 -0.0247 -2.06626e-20)
(0.00650657 -0.0254813 -6.99116e-21)
(0.00505299 -0.0245162 7.13352e-21)
(0.00324938 -0.0220973 -1.44692e-20)
(0.00125767 -0.0184444 -1.46746e-20)
(-0.000806357 -0.0137256 1.48516e-20)
(-0.00286126 -0.00807052 -3.00112e-20)
(-0.00485115 -0.0015816 -9.95837e-24)
(-0.00673902 0.0056583 1.52634e-20)
(-0.00850133 0.0135802 0)
(-0.0101243 0.0221247 -1.54935e-20)
(-0.0116007 0.0312393 -1.55615e-20)
(-0.0129283 0.0408758 3.12772e-20)
(-0.0141082 0.0509888 0)
(-0.0151434 0.0615347 0)
(-0.0160383 0.0724707 3.17327e-20)
(-0.0167985 0.0837542 -3.17368e-20)
(-0.0174295 0.0953426 0)
(-0.0179368 0.107193 3.20264e-20)
(-0.018326 0.119263 -3.18729e-20)
(-0.0186027 0.131508 -6.4218e-20)
(-0.0187722 0.143884 -1.51055e-22)
(-0.0188394 0.156347 3.21938e-20)
(-0.0188092 0.168853 -6.45132e-20)
(-0.0186865 0.181359 3.22977e-20)
(-0.0184761 0.193819 -3.2345e-20)
(-0.0181831 0.206192 1.24533e-22)
(-0.017812 0.218433 7.24621e-23)
(-0.0173677 0.230502 -3.24708e-20)
(-0.0168547 0.242355 -3.25514e-20)
(-0.0162773 0.253953 -3.25771e-20)
(-0.0156411 0.265252 3.11399e-23)
(-0.014952 0.276214 0)
(-0.0142059 0.286799 -3.26302e-20)
(-0.0133949 0.296974 6.54716e-20)
(-0.0127128 0.30665 -9.76858e-20)
(-0.0124249 0.315718 4.63184e-22)
(0.00287192 -0.00670637 -6.0613e-21)
(0.00611101 -0.0156794 5.27443e-20)
(0.00721846 -0.0212683 -2.69788e-20)
(0.00698912 -0.0242318 2.06585e-20)
(0.00584285 -0.0251458 -5.61598e-20)
(0.00410666 -0.0243869 7.1393e-21)
(0.00201324 -0.0222315 -2.89982e-20)
(-0.000269397 -0.0188865 0)
(-0.0026219 -0.0145096 0)
(-0.0049609 -0.00922194 -3.00531e-20)
(-0.00722972 -0.00311934 1.51667e-20)
(-0.00939115 0.00372072 1.59769e-23)
(-0.0114217 0.0112336 1.53915e-20)
(-0.0133077 0.0193637 0)
(-0.0150423 0.0280615 -4.68204e-20)
(-0.0166234 0.0372814 1.56595e-20)
(-0.0180523 0.0469806 -3.15248e-20)
(-0.0193322 0.0571172 0)
(-0.0204676 0.0676504 0)
(-0.0214639 0.0785395 2.10956e-23)
(-0.0223267 0.0897434 -3.18901e-20)
(-0.0230612 0.101221 3.20701e-20)
(-0.0236728 0.112931 -3.21795e-20)
(-0.0241666 0.12483 3.21105e-20)
(-0.0245477 0.136877 3.69249e-23)
(-0.0248206 0.149028 4.11154e-23)
(-0.0249897 0.161242 3.23163e-20)
(-0.0250594 0.173476 -3.24408e-20)
(-0.0250344 0.185686 0)
(-0.0249191 0.197831 -3.25787e-20)
(-0.0247181 0.20987 3.24235e-20)
(-0.0244359 0.221762 0)
(-0.0240772 0.233465 3.25518e-20)
(-0.0236467 0.244941 -3.28278e-20)
(-0.0231508 0.256148 3.24319e-20)
(-0.0225968 0.267048 0)
(-0.0219824 0.277607 9.81249e-20)
(-0.0213017 0.287792 -6.50843e-20)
(-0.0207521 0.297519 0)
(-0.020613 0.306675 3.74088e-20)
(0.00289488 -0.00648059 4.85911e-20)
(0.00606149 -0.0151784 -2.63866e-20)
(0.00697777 -0.0206683 -6.75265e-21)
(0.00650916 -0.0236569 6.89744e-21)
(0.00509576 -0.0246959 2.80919e-20)
(0.00308082 -0.0241392 0)
(0.000706139 -0.0222459 2.89984e-20)
(-0.00185522 -0.019209 4.41228e-20)
(-0.0044812 -0.0151749 1.48737e-20)
(-0.00708714 -0.0102564 1.5014e-20)
(-0.00961606 -0.0045421 1.5171e-20)
(-0.0120309 0.00189584 -4.59061e-20)
(-0.0143086 0.00899726 1.54106e-20)
(-0.0164358 0.0167102 6.21442e-20)
(-0.0184061 0.0249884 1.55772e-20)
(-0.0202178 0.0337888 1.5685e-20)
(-0.0218725 0.0430707 3.15252e-20)
(-0.0233737 0.0527946 0)
(-0.0247259 0.0629212 0)
(-0.0259347 0.0734115 6.38628e-20)
(-0.0270054 0.0842262 -1.28158e-19)
(-0.0279434 0.0953257 -2.46273e-23)
(-0.0287536 0.10667 0)
(-0.0294411 0.118217 0)
(-0.0300105 0.129928 3.22847e-20)
(-0.0304658 0.14176 0)
(-0.0308112 0.153674 0)
(-0.0310509 0.165626 -3.26121e-20)
(-0.031189 0.177577 -6.51357e-20)
(-0.0312297 0.189486 0)
(-0.0311775 0.201312 -6.52697e-20)