/*--------------------------------*- C++ -*----------------------------------*\
  =========                 |
  \\      /  F ield         | OpenFOAM: The Open Source CFD Toolbox
   \\    /   O peration     | Website:  https://openfoam.org
    \\  /    A nd           | Version:  7
     \\/     M anipulation  |
\*---------------------------------------------------------------------------*/
FoamFile
{
    version     2.0;
    format      ascii;
    class       volScalarField;
    location    "0.325";
    object      p;
}
// * * * * * * * * * * * * * * * * * * * * * * * * * * * * * * * * * * * * * //

dimensions      [0 2 -2 0 0 0 0];

internalField   nonuniform List<scalar> 
400
(
4.74998e-06
-0.00589864
-0.0130488
-0.0184936
-0.020516
-0.0183238
-0.0118535
-0.00155153
0.0117857
0.0271165
0.0432319
0.0588301
0.0726027
0.0833451
0.0900958
0.092309
0.0900647
0.0842921
0.0768998
0.0710271
0.00582971
-0.000241806
-0.00577567
-0.0094884
-0.0105365
-0.00836948
-0.00291394
0.00551521
0.0163231
0.0287072
0.0417189
0.0543295
0.0655078
0.074315
0.0800172
0.0822133
0.0809844
0.0769894
0.0712589
0.0652428
0.0133968
0.00496428
-0.00100916
-0.00442567
-0.00527841
-0.00327037
0.00159472
0.0090175
0.0184886
0.0293318
0.0407435
0.0518434
0.0617383
0.0696032
0.0747724
0.0768428
0.0758042
0.0720606
0.0658349
0.0574378
0.0202074
0.00859499
0.00120421
-0.00267722
-0.00373647
-0.00190102
0.00271524
0.00976771
0.0187625
0.0290759
0.0399715
0.0506321
0.0602094
0.0678911
0.0729777
0.0749748
0.073734
0.0694384
0.0616652
0.0499998
0.0245939
0.00964784
0.000571714
-0.00398698
-0.00530914
-0.00351586
0.00116534
0.00832312
0.0174478
0.0279318
0.0390644
0.0500458
0.0600212
0.0681345
0.0735942
0.0757636
0.0743283
0.0692687
0.0596152
0.0444112
0.025299
0.0070001
-0.00381746
-0.00905039
-0.0105142
-0.00850416
-0.00336217
0.00442145
0.0143019
0.0256637
0.0377942
0.0498791
0.0610193
0.0702702
0.0766991
0.0794781
0.0780907
0.07231
0.0606584
0.0417337
0.0212471
-0.000436644
-0.0129458
-0.0186943
-0.0200261
-0.0174133
-0.0113193
-0.00232375
0.00898238
0.0219636
0.035892
0.0499212
0.0630831
0.0743107
0.0824832
0.0865254
0.0856633
0.0794191
0.0657709
0.0428792
0.0113346
-0.0138161
-0.027879
-0.0338277
-0.0345915
-0.0308499
-0.0232076
-0.0123438
0.00110152
0.0164753
0.0330379
0.0499122
0.0660545
0.0802534
0.0911579
0.0973786
0.0977997
0.0915997
0.0760799
0.0488781
-0.00572787
-0.0344873
-0.0498623
-0.0555066
-0.0550672
-0.0494981
-0.0395805
-0.0261052
-0.00975447
0.00881961
0.0288907
0.0495752
0.0697698
0.0881166
0.103
0.11264
0.115462
0.110141
0.0930525
0.0611115
-0.0315554
-0.064119
-0.0803917
-0.0849451
-0.0823835
-0.0740512
-0.060959
-0.0440208
-0.0239419
-0.00133387
0.0231412
0.0486475
0.0740708
0.0979342
0.118344
0.133053
0.139876
0.136745
0.118693
0.0815476
-0.0682792
-0.104866
-0.121294
-0.123503
-0.117463
-0.105088
-0.0876871
-0.0663017
-0.04162
-0.0141453
0.0156084
0.0469465
0.0788363
0.109758
0.137569
0.159501
0.172584
0.17367
0.155803
0.11306
-0.118891
-0.159634
-0.174829
-0.172639
-0.161079
-0.14288
-0.11972
-0.0927462
-0.0625535
-0.0294297
0.00638445
0.0444758
0.0840441
0.123673
0.161082
0.19299
0.215489
0.223921
0.208351
0.159938
-0.187943
-0.23252
-0.243807
-0.233799
-0.213612
-0.187098
-0.156328
-0.122466
-0.0858689
-0.0464474
-0.00399406
0.0415523
0.0898437
0.139811
0.189273
0.234589
0.270861
0.291447
0.282031
0.228819
-0.283062
-0.329539
-0.33164
-0.308109
-0.274625
-0.236386
-0.195723
-0.153577
-0.10981
-0.0637159
-0.0144087
0.0388904
0.0965741
0.15828
0.222349
0.285201
0.341166
0.38128
0.385112
0.330527
-0.418185
-0.459745
-0.44207
-0.395625
-0.34207
-0.287707
-0.234592
-0.182908
-0.131586
-0.0789554
-0.0231773
0.0375187
0.104599
0.178878
0.259881
0.344932
0.428407
0.49931
0.52962
0.483718
-0.619423
-0.636579
-0.57833
-0.49408
-0.411225
-0.335652
-0.267775
-0.205967
-0.147522
-0.0893546
-0.028384
0.038406
0.113878
0.200551
0.30005
0.412063
0.532935
0.651425
0.732445
0.720597
-0.935596
-0.878177
-0.741679
-0.598053
-0.474387
-0.372623
-0.288841
-0.217736
-0.153923
-0.0924264
-0.0286742
0.041754
0.123337
0.220803
0.339003
0.482245
0.652267
0.841651
1.01496
1.09628
-1.48059
-1.20196
-0.920997
-0.692543
-0.517673
-0.387698
-0.290191
-0.213422
-0.148159
-0.0872068
-0.0245255
0.0455613
0.129103
0.2333
0.367364
0.543124
0.772632
1.06029
1.39819
1.73407
-2.57157
-1.60192
-1.04347
-0.714825
-0.497795
-0.353383
-0.255526
-0.18428
-0.126593
-0.0737809
-0.0192071
0.0430672
0.119765
0.219654
0.356006
0.549824
0.829814
1.23507
1.88111
2.95926
-4.4451
-2.01726
-0.969793
-0.564335
-0.357041
-0.23903
-0.169353
-0.123293
-0.0871813
-0.0533664
-0.0166747
0.027516
0.0843005
0.161196
0.27158
0.441364
0.718806
1.2215
2.38403
4.92939
)
;

boundaryField
{
    movingWall
    {
        type            zeroGradient;
    }
    fixedWalls
    {
        type            zeroGradient;
    }
    frontAndBack
    {
        type            empty;
    }
}


// ************************************************************************* //
