/*--------------------------------*- C++ -*----------------------------------*\
  =========                 |
  \\      /  F ield         | OpenFOAM: The Open Source CFD Toolbox
   \\    /   O peration     | Website:  https://openfoam.org
    \\  /    A nd           | Version:  7
     \\/     M anipulation  |
\*---------------------------------------------------------------------------*/
FoamFile
{
    version     2.0;
    format      ascii;
    class       surfaceScalarField;
    location    "100";
    object      phi;
}
// * * * * * * * * * * * * * * * * * * * * * * * * * * * * * * * * * * * * * //

dimensions      [0 3 -1 0 0 0 0];

internalField   nonuniform List<scalar> 
3880
(
-1.32e-05
-0.0004593
0.0004725
-1.08701e-05
-0.00110217
0.00109984
1.42019e-05
-0.00148787
0.0014628
6.52032e-05
-0.00165981
0.00160881
0.000145308
-0.0016469
0.00156679
0.000258595
-0.00146882
0.00135553
0.000409896
-0.00113924
0.000987944
0.000603535
-0.000668641
0.000475002
0.000841688
-6.62163e-05
-0.000171937
0.000659112
0.00112246
-0.000939881
-2.85555e-06
-0.000456444
1.99893e-05
-0.00112502
7.17614e-05
-0.00153965
0.000152986
-0.00174103
0.000264942
-0.00175885
0.000410498
-0.00161437
0.000593768
-0.00132251
0.000818972
-0.000893846
0.00108892
-0.000336168
0.000345037
0.001403
1.04931e-05
-0.000466937
5.94943e-05
-0.00117402
0.00014521
-0.00162536
0.000265047
-0.00186087
0.00041812
-0.00191193
0.000605741
-0.00180199
0.000831004
-0.00154778
0.00109772
-0.00116056
0.00140908
-0.000647527
-1.14822e-05
0.0017656
2.63446e-05
-0.000493282
0.000105987
-0.00125366
0.000231329
-0.0017507
0.000396413
-0.00202595
0.000598095
-0.00211361
0.000836064
-0.00203996
0.00111228
-0.001824
0.00142995
-0.00147823
0.00179218
-0.00100975
-0.000420155
0.00220085
4.40463e-05
-0.000537328
0.000157156
-0.00136677
0.000325519
-0.00191907
0.000539699
-0.00224013
0.000794366
-0.00236828
0.00108775
-0.00233334
0.00142083
-0.00215708
0.00179624
-0.00185364
0.00221685
-0.00143036
-0.000888005
0.0026847
6.26615e-05
-0.00059999
0.000210072
-0.00151418
0.00042193
-0.00213093
0.00068532
-0.00250352
0.000992908
-0.00267586
0.00134175
-0.00268218
0.00173224
-0.00254758
0.00216679
-0.00228819
0.00264803
-0.0019116
-0.00141736
0.00317739
8.11282e-05
-0.000681118
0.00026136
-0.00169441
0.000513795
-0.00238336
0.000822101
-0.00281183
0.00117712
-0.00303088
0.00157504
-0.0030801
0.00201613
-0.00298867
0.0025033
-0.00277536
0.00303963
-0.00244793
-0.00200294
0.00362521
9.83075e-05
-0.000779425
0.000307414
-0.00190352
0.000593922
-0.00266987
0.00093821
-0.00315612
0.00132942
-0.0034221
0.00176303
-0.0035137
0.00223948
-0.00346513
0.00276304
-0.00329892
0.00333906
-0.00302395
-0.0026306
0.00396672
0.000113047
-0.000892472
0.000344633
-0.0021351
0.000655265
-0.0029805
0.00102229
-0.00352314
0.00143328
-0.00383308
0.00188288
-0.0039633
0.00237149
-0.00395374
0.00290486
-0.00383228
0.00349316
-0.00361225
-0.00327951
0.00414206
0.000124236
-0.00101671
0.000369662
-0.00238053
0.000691488
-0.00330233
0.00106458
-0.00389623
0.00147524
-0.00424374
0.00191723
-0.00440529
0.00239003
-0.00442654
0.00289888
-0.00434113
0.00345831
-0.00417168
0.0041086
-0.0039298
0.00200303
0.00924286
-0.0101234
0.00316424
0.0250968
-0.026258
0.00381412
0.0434382
-0.0440881
0.00385028
0.0609965
-0.0610327
0.00346047
0.0779725
-0.0775827
0.00278384
0.0957348
-0.0950582
0.00193134
0.116775
-0.115923
0.000945796
0.147728
-0.146743
0.000190025
0.195542
-0.194786
0.252046
-0.251856
0.00229136
0.00835449
0.00362436
0.0237638
0.00452563
0.0425369
0.00474695
0.0607752
0.00445137
0.0782681
0.00379499
0.0963912
0.00290751
0.117663
0.00182881
0.148807
0.000749897
0.196621
0.252796
0.00261605
0.00750405
0.00406621
0.0223136
0.00521301
0.0413901
0.00563261
0.0603556
0.00544184
0.0784588
0.00481007
0.097023
0.00388551
0.118587
0.00270411
0.149988
0.00132126
0.198004
0.254117
0.00297775
0.00672715
0.00448131
0.0208101
0.00585636
0.0400151
0.00648629
0.0597257
0.00641372
0.0785314
0.0058126
0.0976241
0.00485298
0.119547
0.00356908
0.151272
0.00188606
0.199687
0.256003
0.00337148
0.00604037
0.00486504
0.0193165
0.00643836
0.0384418
0.0072877
0.0588763
0.00734884
0.0784703
0.00678729
0.0981856
0.00579822
0.120536
0.00441428
0.152656
0.00243841
0.201663
0.258442
0.00378143
0.00543633
0.00521446
0.0178835
0.00694559
0.0367106
0.00801814
0.0578038
0.00822996
0.0782585
0.00772026
0.0986953
0.00670919
0.121547
0.00522923
0.154136
0.00297104
0.203921
0.261413
0.00417731
0.00488422
0.00552336
0.0165374
0.00736875
0.0348652
0.00866141
0.0565111
0.00904142
0.0778784
0.00859881
0.099138
0.00757619
0.12257
0.00600821
0.155704
0.00348406
0.206445
0.264897
0.00451013
0.00434082
0.00577518
0.0152724
0.007699
0.0329414
0.00920401
0.0550061
0.00976801
0.0773144
0.00940731
0.0994987
0.0083833
0.123594
0.00673603
0.157351
0.00396419
0.209217
0.268861
0.00471442
0.00376845
0.00594083
0.014046
0.00792231
0.0309599
0.00963297
0.0532955
0.0104048
0.0765426
0.0101498
0.0997537
0.00914144
0.124602
0.00742543
0.159067
0.00442392
0.212218
0.273285
0.00477486
0.00310219
0.0060578
0.012763
0.00807524
0.0289425
0.00994558
0.0514251
0.0109102
0.075578
0.0107715
0.0998923
0.009808
0.125566
0.00802078
0.160855
0.00485711
0.215382
0.278142
0.0159849
0.00642845
-0.0193112
0.0122856
0.0164624
0.0101512
0.0310769
0.00917419
0.0524021
0.00807147
0.0766807
0.00642335
0.10154
0.00410879
0.12788
0.00136157
0.163602
-0.000582865
0.217326
0.277559
0.0168144
0.00873531
-0.0191212
0.0133
0.0199768
0.0104579
0.0339189
0.00896803
0.053892
0.00776879
0.0778799
0.00614336
0.103166
0.0038584
0.130165
0.00123416
0.166226
-0.000574354
0.219135
0.276985
0.0164891
0.00977527
-0.0175291
0.0138582
0.0226078
0.0109539
0.0368231
0.00897214
0.0558738
0.00749229
0.0793598
0.00581804
0.10484
0.00359778
0.132386
0.00109029
0.168734
-0.000584348
0.22081
0.2764
0.015338
0.0100141
-0.0155769
0.0135908
0.024355
0.0111128
0.0393011
0.00900929
0.0579773
0.00732592
0.0810432
0.0055799
0.106586
0.00340854
0.134557
0.00103931
0.171103
-0.000528296
0.222377
0.275872
0.0138598
0.0096865
-0.0135322
0.0128268
0.0253881
0.010867
0.041261
0.00890417
0.0599401
0.00718665
0.0827607
0.00540348
0.108369
0.00324975
0.136711
0.000950575
0.173402
-0.000533553
0.223861
0.275339
0.0122114
0.00889029
-0.0114152
0.0117801
0.0258194
0.0103157
0.0427253
0.00857966
0.0616761
0.00695165
0.0843887
0.00523489
0.110086
0.00316456
0.138781
0.000977064
0.175589
-0.000441626
0.22528
0.274897
0.0104999
0.00768027
-0.00928986
0.0106329
0.0256863
0.00968325
0.043675
0.00822218
0.0631372
0.00669269
0.0859182
0.00503164
0.111747
0.00303116
0.140781
0.000912304
0.177708
-0.000440315
0.226633
0.274457
0.00875174
0.00607797
-0.00714943
0.00936083
0.0250773
0.00886889
0.0441669
0.00775043
0.0642557
0.00641534
0.0872533
0.00487542
0.113287
0.00297652
0.14268
0.000977582
0.179707
-0.000322734
0.227933
0.274134
0.00733823
0.00391091
-0.00517117
0.00845215
0.0239633
0.00837404
0.044245
0.00747065
0.0651591
0.00620608
0.0885178
0.00471014
0.114783
0.00286485
0.144526
0.000919419
0.181653
-0.00032968
0.229182
0.273804
0.0051847
-0.00292232
0.00696152
0.00760862
0.00719632
0.00616149
0.00471934
0.00294577
0.00103604
-0.000171598
0.00391991
-0.0194694
-0.00376166
0.00351545
-0.0187168
0.0028427
-0.0168563
0.00209937
-0.0148335
0.00133488
-0.0127677
0.00056944
-0.0106497
-0.000188839
-0.00853158
-0.000915575
-0.0064227
-0.00167969
-0.00440706
-0.00228987
0.00314299
-0.0193343
-0.00327815
0.00254373
-0.0181175
0.00177685
-0.0160894
0.000981144
-0.0140378
0.00018255
-0.0119692
-0.000600947
-0.00986621
-0.00136883
-0.00776369
-0.00209843
-0.00569309
-0.00283055
-0.00367495
-0.00172566
0.00225747
-0.0189483
-0.00264346
0.00149014
-0.0173502
0.000649566
-0.0152489
-0.000186903
-0.0132014
-0.00100181
-0.0111543
-0.00179014
-0.00907788
-0.00254567
-0.00700817
-0.00325174
-0.00498702
-0.00391544
-0.00301124
-0.00124578
0.00126207
-0.0183558
-0.00185456
0.000371793
-0.0164599
-0.000516063
-0.014361
-0.00137492
-0.0123425
-0.00219443
-0.0103348
-0.00296813
-0.00830417
-0.00369163
-0.00628467
-0.0043497
-0.00432894
-0.00492641
-0.00243453
-0.000859384
0.000170256
-0.017596
-0.000930108
-0.000798266
-0.0154914
-0.0017087
-0.0134506
-0.00256926
-0.0114819
-0.00337144
-0.00953257
-0.00411165
-0.00756397
-0.00478466
-0.00561166
-0.00537524
-0.00373837
-0.00585469
-0.00195507
-0.000566702
-0.00098805
-0.0167108
0.000102947
-0.00199595
-0.0144835
-0.00290389
-0.0125426
-0.00374372
-0.0106421
-0.00450978
-0.00876651
-0.00519937
-0.00687437
-0.00580674
-0.00500429
-0.00631658
-0.00322853
-0.00669642
-0.00157523
-0.000362162
-0.00217442
-0.0157181
0.00118171
-0.00318767
-0.0134702
-0.00407143
-0.0116589
-0.00487207
-0.00984147
-0.00558645
-0.00805213
-0.00621222
-0.0062486
-0.0067439
-0.00447262
-0.00716685
-0.00280557
-0.00745131
-0.00129077
-0.000236196
-0.00334777
-0.0146628
0.00229242
-0.00433967
-0.0124783
-0.00518266
-0.0108159
-0.00592981
-0.00909432
-0.00658155
-0.00740039
-0.00713532
-0.00569483
-0.00758705
-0.00402088
-0.00792373
-0.0024689
-0.00812207
-0.00109243
-0.000176784
-0.00447037
-0.0135787
0.00338633
-0.00542158
-0.0115271
-0.00621247
-0.010025
-0.00689671
-0.00841008
-0.00747996
-0.00681714
-0.00795891
-0.00521588
-0.00833208
-0.00364771
-0.00858874
-0.00221224
-0.00871366
-0.0009675
-0.000170692
-0.00551075
-0.0124954
0.0044274
-0.00640852
-0.0106293
-0.00714121
-0.00929231
-0.00775804
-0.00779325
-0.00827205
-0.00630313
-0.00867846
-0.00480947
-0.00897931
-0.00334687
-0.00916645
-0.0020251
-0.0092326
-0.000901349
-0.00020433
-0.00644508
-0.0114358
0.00538547
-0.00728205
-0.00979236
-0.00795544
-0.00861893
-0.00850501
-0.00724367
-0.00895361
-0.00585454
-0.00929415
-0.00446893
-0.00953271
-0.0031083
-0.00966361
-0.0018942
-0.0096864
-0.000878561
-0.000264284
-0.00726103
-0.0104166
0.00624181
-0.00803268
-0.00902071
-0.00864931
-0.0080023
-0.00913545
-0.00675753
-0.0095258
-0.00546419
-0.00981028
-0.00418445
-0.00999898
-0.0029196
-0.0100883
-0.00180486
-0.010083
-0.000883839
-0.000337588
-0.00795064
-0.00944828
0.00698235
-0.00865563
-0.00831572
-0.00922124
-0.00743669
-0.0096511
-0.00632767
-0.00999298
-0.00512231
-0.0102336
-0.00394383
-0.0103863
-0.0027669
-0.0104493
-0.00174187
-0.0104307
-0.000902438
-0.000411839
-0.00851317
-0.00853494
0.00759983
-0.00915238
-0.00767652
-0.0096746
-0.00691446
-0.0100578
-0.00594446
-0.0103625
-0.00481766
-0.0105727
-0.0037336
-0.0107038
-0.00263582
-0.0107554
-0.00169026
-0.0107374
-0.000920433
-0.00047521
-0.00895258
-0.00767335
0.00809099
-0.0095288
-0.0071003
-0.0100159
-0.00642734
-0.0103639
-0.00559644
-0.0106432
-0.00453843
-0.010837
-0.00353975
-0.0109607
-0.00251216
-0.0110153
-0.00163564
-0.011011
-0.000924767
-0.000516389
-0.00927556
-0.0068523
0.00845451
-0.00979415
-0.00658171
-0.0102537
-0.00596779
-0.0105792
-0.00527089
-0.0108448
-0.00427291
-0.0110361
-0.00334837
-0.0111661
-0.00238223
-0.0112373
-0.0015644
-0.0112589
-0.000903164
-0.000524469
-0.00948919
-0.00605235
0.00868924
-0.0099597
-0.0061112
-0.0103972
-0.0055303
-0.0107137
-0.00495443
-0.0109768
-0.00400981
-0.0111791
-0.00314601
-0.0113284
-0.00223299
-0.0114291
-0.00146367
-0.0114883
-0.000843957
-0.000488826
-0.00959464
-0.00525205
0.00879434
-0.0100341
-0.00567174
-0.0104538
-0.00511055
-0.0107754
-0.00463286
-0.0110475
-0.00373778
-0.0112738
-0.00291964
-0.011455
-0.00205187
-0.0115975
-0.0013211
-0.0117057
-0.000735806
-0.000398963
-0.00958867
-0.00443976
0.00877637
-0.0100256
-0.00523476
-0.0104317
-0.00470453
-0.0107723
-0.00429219
-0.0110647
-0.00344546
-0.0113275
-0.00265676
-0.0115526
-0.00182678
-0.0117489
-0.0011248
-0.0119172
-0.000567546
-0.000244318
-0.00950789
-0.00360421
0.00867235
-0.0099684
-0.00477425
-0.010353
-0.00431993
-0.0107151
-0.00393007
-0.0110367
-0.00312388
-0.0113456
-0.00234781
-0.0116268
-0.00154567
-0.0118887
-0.000862871
-0.0121293
-0.00032694
-1.45908e-05
-0.043342
-0.00361776
0.0433555
-0.0442177
-0.00389852
-0.0452248
-0.0033128
-0.046237
-0.0029179
-0.0470922
-0.00226869
-0.0477552
-0.00168476
-0.0482082
-0.00109267
-0.048463
-0.00060807
-0.0485601
-0.000229864
-1.70807e-05
-0.0518275
-0.00381766
0.0520275
-0.0523513
-0.00337474
-0.0528878
-0.0027763
-0.0534997
-0.002306
-0.0540162
-0.00175217
-0.054419
-0.00128199
-0.0546889
-0.000822765
-0.0548317
-0.00046532
-0.05488
-0.000181555
-2.02757e-05
-0.0624141
-0.004069
0.0626654
-0.0626219
-0.00316696
-0.0628568
-0.00254138
-0.0631993
-0.00196347
-0.0634755
-0.00147601
-0.0637138
-0.00104368
-0.0638609
-0.000675696
-0.0639408
-0.000385407
-0.0639598
-0.000162537
-2.22292e-05
-0.0752977
-0.00421841
0.0754471
-0.0754025
-0.00306215
-0.075506
-0.00243791
-0.0757115
-0.00175798
-0.075859
-0.00132845
-0.0760089
-0.000893789
-0.0760892
-0.000595389
-0.0761418
-0.000332806
-0.0761491
-0.000155303
-2.06245e-05
-0.0902729
-0.0041452
0.0901997
-0.0904288
-0.00290623
-0.0905478
-0.00231888
-0.0907208
-0.00158497
-0.0908347
-0.00121463
-0.0909577
-0.000770724
-0.0910205
-0.000532609
-0.0910752
-0.000278149
-0.0910895
-0.000140984
-1.12198e-05
-0.106321
-0.0037805
0.105956
-0.106617
-0.00260975
-0.106849
-0.00208716
-0.107058
-0.00137566
-0.107206
-0.00106665
-0.107339
-0.000638247
-0.107419
-0.000452915
-0.10749
-0.000206573
-0.107522
-0.000109344
3.99981e-06
-0.121755
-0.00311892
0.121094
-0.122227
-0.00213805
-0.122605
-0.00170953
-0.122879
-0.00110135
-0.123088
-0.000857736
-0.12324
-0.000486027
-0.123347
-0.000345906
-0.123427
-0.0001267
-0.123471
-6.57009e-05
1.81376e-05
-0.134756
-0.00221452
0.133852
-0.135384
-0.00151007
-0.135888
-0.00120548
-0.136224
-0.000765911
-0.136485
-0.00059615
-0.136649
-0.000322307
-0.13677
-0.000225396
-0.136836
-5.97951e-05
-0.136875
-2.67681e-05
2.28069e-05
-0.143963
-0.00114773
0.142897
-0.144696
-0.000777436
-0.145281
-0.000620768
-0.145656
-0.000390802
-0.145948
-0.00030438
-0.146111
-0.000159144
-0.146227
-0.000109233
-0.146267
-1.9394e-05
-0.146288
-6.45133e-06
1.56157e-05
-0.148692
0.147544
-0.149469
-0.15009
-0.150481
-0.150785
-0.150944
-0.151053
-0.151073
-0.151079
-0.00987028
0.0443579
0.00886789
-0.0106391
0.0527962
-0.0112505
0.0632769
-0.0115693
0.0757659
-0.0113958
0.0900262
-0.0105251
0.105086
-0.00884531
0.119414
-0.00639619
0.131403
-0.0033593
0.13986
0.144185
-0.00939111
0.0451545
0.0085945
-0.0101033
0.0535084
-0.0106417
0.0638153
-0.0108791
0.0760033
-0.0106425
0.0897896
-0.00976059
0.104204
-0.00815108
0.117804
-0.0058648
0.129117
-0.00306984
0.137065
0.141115
-0.00891685
0.0458934
0.00817797
-0.00956031
0.0541519
-0.0100197
0.0642747
-0.0101835
0.0761671
-0.0099013
0.0895073
-0.00902978
0.103332
-0.00750612
0.116281
-0.00538277
0.126993
-0.00281181
0.134494
0.138303
-0.00835308
0.0466009
0.00764558
-0.00893215
0.0547309
-0.00931227
0.0646548
-0.00940711
0.076262
-0.00908933
0.0891895
-0.0082419
0.102485
-0.00681926
0.114858
-0.00487362
0.125048
-0.00254046
0.132161
0.135763
-0.00768813
0.0472689
0.00702009
-0.00820492
0.0552477
-0.00851345
0.0649633
-0.00855123
0.0762997
-0.00821329
0.0888516
-0.0074065
0.101678
-0.0060999
0.113551
-0.00434443
0.123292
-0.00225948
0.130076
0.133503
-0.00693937
0.0478892
0.00631909
-0.00738928
0.0556976
-0.00763029
0.0652043
-0.00762143
0.0762909
-0.00727814
0.0885083
-0.00652842
0.100928
-0.00535277
0.112376
-0.00379923
0.121738
-0.00197121
0.128248
0.131532
-0.00612256
0.0484547
0.00555709
-0.0065029
0.056078
-0.00667906
0.0653805
-0.00663169
0.0762435
-0.00629504
0.0881717
-0.00561597
0.100249
-0.00458372
0.111343
-0.0032419
0.120397
-0.00167768
0.126683
0.129854
-0.00525113
0.0489569
0.00474893
-0.00556214
0.056389
-0.00567701
0.0654954
-0.0055985
0.076165
-0.00527829
0.0878514
-0.00468031
0.0996512
-0.00380057
0.110464
-0.00267728
0.119273
-0.00138121
0.125387
0.128473
-0.00434033
0.0493868
0.00391046
-0.00458375
0.0566324
-0.00464113
0.0655527
-0.00453818
0.0760621
-0.00424228
0.0875555
-0.00373312
0.099142
-0.00301184
0.109742
-0.0021108
0.118372
-0.00108442
0.124361
0.127389
-0.00340686
0.0497352
0.00305837
-0.00358593
0.0568115
-0.00358869
0.0655555
-0.00346686
0.0759402
-0.00320094
0.0872896
-0.00278567
0.0987267
-0.00222584
0.109183
-0.00154793
0.117694
-0.00079001
0.123603
0.126599
-0.00247548
0.0499974
0.00221332
-0.00259108
0.0569271
-0.00254098
0.0655054
-0.00240397
0.0758032
-0.00217086
0.0870565
-0.00185146
0.0984073
-0.00145264
0.108784
-0.000995428
0.117237
-0.000501299
0.123109
0.126097
-0.00156282
0.0501755
0.00138471
-0.0016116
0.0569759
-0.00151389
0.0654077
-0.00136262
0.0756519
-0.00116326
0.0868571
-0.000938336
0.0981824
-0.00069791
0.108543
-0.000457002
0.116996
-0.000220449
0.122872
0.125877
-0.000697763
0.050284
0.000589286
-0.000670845
0.0569489
-0.000536144
0.065273
-0.000370826
0.0754866
-0.000207892
0.0866942
-7.61313e-05
0.0980506
8.24988e-06
0.108459
5.14888e-05
0.116953
4.40338e-05
0.12288
0.125921
9.09881e-05
0.0503597
-0.000166686
0.000213381
0.0568266
0.000389044
0.0650973
0.000578257
0.0752974
0.000717893
0.0865546
0.000769952
0.0979986
0.0007145
0.108514
0.000551449
0.117116
0.000303729
0.123127
0.126225
0.000885623
0.0503424
-0.000868371
0.00105738
0.0566548
0.00127281
0.0648819
0.00147416
0.0750961
0.00158627
0.0864425
0.00155859
0.0980263
0.0013667
0.108706
0.00101714
0.117466
0.000545527
0.123599
0.12677
0.00159207
0.0502706
-0.00152023
0.00182576
0.0564211
0.00207689
0.0646308
0.00229385
0.0748791
0.00238424
0.0863521
0.0022862
0.0981243
0.00197014
0.109022
0.00144798
0.117988
0.000768726
0.124278
0.127539
0.00222562
0.0501657
-0.00212074
0.00251714
0.0561296
0.00280003
0.0643479
0.00303283
0.0746463
0.00310698
0.0862779
0.00294846
0.0982828
0.00252141
0.109449
0.00184183
0.118667
0.000972118
0.125148
0.128511
0.00279158
0.0500518
-0.00267771
0.00313012
0.0557911
0.00343927
0.0640387
0.00368508
0.0744005
0.00374601
0.086217
0.0035356
0.0984932
0.00301095
0.109974
0.00219134
0.119487
0.00115155
0.126188
0.129662
0.00329619
0.0499573
-0.00320162
0.00366589
0.0554213
0.00400063
0.063704
0.00426053
0.0741406
0.0043146
0.0861629
0.00406212
0.0987457
0.00345168
0.110585
0.00250567
0.120433
0.00131167
0.127382
0.130974
0.00368816
0.0499452
-0.00367607
0.00405384
0.0550557
0.00441296
0.0633449
0.00468035
0.0738732
0.00472838
0.0861149
0.0044464
0.0990277
0.00377459
0.111256
0.00273574
0.121472
0.00142647
0.128691
0.132401
-0.0314916
0.0463908
0.035046
-0.0287877
0.0523518
-0.0269446
0.0615017
-0.0249379
0.0718665
-0.022458
0.083635
-0.019261
0.0958307
-0.0152762
0.107272
-0.0105998
0.116795
-0.0054262
0.123518
0.126974
-0.038969
0.0431814
0.0421784
-0.0363629
0.0497457
-0.0339386
0.0590773
-0.0311404
0.0690684
-0.0278167
0.0803112
-0.0236752
0.0916893
-0.0186673
0.102264
-0.0129054
0.111034
-0.00661078
0.117223
0.120364
-0.0472595
0.0400989
0.050342
-0.0445408
0.047027
-0.0415115
0.0560481
-0.0378988
0.0654556
-0.0335788
0.0759913
-0.0282944
0.0864048
-0.0221059
0.0960752
-0.0151624
0.10409
-0.00768735
0.109748
0.112676
-0.0571211
0.0371557
0.0600643
-0.0539385
0.0438444
-0.0501432
0.0522528
-0.0456092
0.0609216
-0.0401582
0.0705403
-0.0335868
0.0798334
-0.0260639
0.0885523
-0.0177884
0.0958145
-0.00903647
0.100996
0.10364
-0.0681444
0.033655
0.0716452
-0.0641571
0.0398571
-0.059346
0.0474417
-0.0535604
0.055136
-0.0466307
0.0636107
-0.0384915
0.0716942
-0.02945
0.0795108
-0.0197648
0.0861293
-0.00979798
0.0910291
0.0938418
-0.0806156
0.0301509
0.0841197
-0.0756017
0.0348432
-0.0696293
0.0414693
-0.0624558
0.0479624
-0.0539962
0.0551511
-0.0443289
0.0620269
-0.033738
0.0689198
-0.022537
0.0749283
-0.0113535
0.0798456
0.0824884
-0.0925694
0.0248591
0.0978612
-0.0864132
0.028687
-0.0790586
0.0341147
-0.070044
0.0389479
-0.0596585
0.0447656
-0.0479598
0.0503282
-0.0353229
0.056283
-0.0222421
0.0618475
-0.00980878
0.0674123
0.0726796
-0.105045
0.0197445
0.110159
-0.0979175
0.0215598
-0.0893936
0.0255908
-0.0792284
0.0287827
-0.0677977
0.0333349
-0.0549867
0.0375172
-0.0412591
0.0425553
-0.0270364
0.0476248
-0.0143022
0.0546781
0.0583774
-0.119956
0.00963929
0.130062
-0.109331
0.0109345
-0.0969195
0.0131793
-0.0830778
0.0149409
-0.067339
0.0175961
-0.0499744
0.0201525
-0.0309482
0.0235292
-0.0112133
0.0278898
0.00671892
0.0367459
0.0650963
-0.230065
0.239704
-0.21913
-0.205951
-0.19101
-0.173414
-0.153261
-0.129732
-0.101842
-0.0650963
0.00217833
0.0362468
-0.00337914
0.001073
0.0432838
0.000170016
0.051245
-0.000432594
0.0606669
-0.000779627
0.0719922
-0.000923673
0.0842638
-0.0007214
0.097659
-0.000541024
0.109979
-0.00151523
0.131036
0.238189
0.00246908
0.0373877
-0.00361001
0.0013909
0.0443619
0.000529721
0.0521061
-0.000132093
0.0613287
-0.000504257
0.0723644
-0.00068147
0.084441
-0.000540285
0.0975178
-0.000428157
0.109867
-0.00132559
0.131933
0.236863
0.00281589
0.0384231
-0.00385134
0.0017819
0.0453959
0.000941737
0.0529463
0.000288379
0.0619821
-0.000121463
0.0727742
-0.000339744
0.0846592
-0.000242665
0.0974207
-0.000245386
0.109869
-0.00113066
0.132819
0.235732
0.00316439
0.0393517
-0.00409294
0.00218367
0.0463766
0.00137504
0.0537549
0.000741625
0.0626155
0.000321802
0.073194
3.56935e-05
0.0849454
0.000110643
0.0973458
-3.00723e-05
0.11001
-0.000881747
0.13367
0.234851
0.00350604
0.0401677
-0.00432209
0.00259629
0.0472864
0.001829
0.0545222
0.00122142
0.0632231
0.000806416
0.073609
0.000530784
0.085221
0.000493829
0.0973827
0.000309317
0.110195
-0.000587785
0.134567
0.234263
0.00385039
0.0408476
-0.00453022
0.00303195
0.0481048
0.00231506
0.0552391
0.00174001
0.0637981
0.00133126
0.0740178
0.00104365
0.0855086
0.000930065
0.0974963
0.000671319
0.110453
-0.000255305
0.135494
0.234008
0.0041974
0.0413624
-0.00471223
0.0034888
0.0488134
0.00283234
0.0558956
0.00229624
0.0643342
0.00189703
0.074417
0.00159546
0.0858102
0.00140875
0.097683
0.00106856
0.110794
0.000105442
0.136457
0.234113
0.00454262
0.0416838
-0.00486403
0.00395895
0.0493971
0.00337307
0.0564814
0.00288242
0.0648249
0.00249749
0.0748019
0.00218262
0.086125
0.00192508
0.0979406
0.00150047
0.111218
0.000474243
0.137483
0.234587
0.00487757
0.0417874
-0.00498115
0.004433
0.0498417
0.00392789
0.0569865
0.00348923
0.0652635
0.00312466
0.0751665
0.00279712
0.0864526
0.00247252
0.0982652
0.00196253
0.111728
0.000875411
0.13857
0.235463
0.00519193
0.0416544
-0.0050589
0.00490026
0.0501334
0.00448673
0.0574001
0.00410651
0.0656437
0.00376901
0.075504
0.00343002
0.0867916
0.0030429
0.0986523
0.00244847
0.112323
0.00129629
0.139723
0.236759
0.00547106
0.0412743
-0.00509096
0.00534561
0.0502588
0.00503571
0.05771
0.00471966
0.0659598
0.00441533
0.0758083
0.00406889
0.087138
0.0036249
0.0990963
0.00294919
0.112998
0.00172854
0.140943
0.238487
0.00570907
0.0406466
-0.0050814
0.00576323
0.0502046
0.00556728
0.0579059
0.00532181
0.0662053
0.0050566
0.0760735
0.0047083
0.0874863
0.00421345
0.0995911
0.00346067
0.113751
0.00216923
0.142235
0.240657
0.00589221
0.0397841
-0.00502968
0.00613701
0.0499598
0.00606388
0.0579791
0.00589602
0.0663731
0.00567635
0.0762932
0.00533385
0.0878288
0.00479605
0.100129
0.00397292
0.114574
0.0026113
0.143596
0.243268
0.00601247
0.0387132
-0.0049416
0.00645428
0.049518
0.00651168
0.0579217
0.00642847
0.0664563
0.0062612
0.0764605
0.00593345
0.0881565
0.00536235
0.1007
0.00447778
0.115459
0.00304863
0.145025
0.246317
0.00606563
0.0374743
-0.00482668
0.00670452
0.0488791
0.00689811
0.0577281
0.00690606
0.0664484
0.00679833
0.0765682
0.00649517
0.0884597
0.00590216
0.101293
0.00496723
0.116394
0.00347501
0.146518
0.249792
0.00605309
0.0361186
-0.0046974
0.00688018
0.0480521
0.00721265
0.0573956
0.00731696
0.0663441
0.00727599
0.0766092
0.00700748
0.0887282
0.00640551
0.101895
0.00543365
0.117366
0.00388298
0.148068
0.253675
0.00598322
0.0347008
-0.00456548
0.00697763
0.0470577
0.00744754
0.0569257
0.0076514
0.0661402
0.00768402
0.0765766
0.00746043
0.0889518
0.00686409
0.102491
0.00587095
0.118359
0.00426715
0.149672
0.257942
0.00586583
0.0332668
-0.00443179
0.00699614
0.0459273
0.00759837
0.0563235
0.00790202
0.0658366
0.00801204
0.0764665
0.00784238
0.0891214
0.00726622
0.103068
0.0062701
0.119355
0.00461624
0.151326
0.262558
0.00568656
0.0318372
-0.00425697
0.00692337
0.0446905
0.00766033
0.0555865
0.00806803
0.0654289
0.00826194
0.0762726
0.00815771
0.0892257
0.00761674
0.103608
0.00663583
0.120336
0.00493346
0.153028
0.267491
0.00543601
0.03032
-0.00391884
0.00673123
0.0433953
0.00759185
0.0547259
0.00809456
0.0649262
0.00837431
0.0759929
0.0083425
0.0892575
0.00786183
0.104089
0.00691324
0.121284
0.00521858
0.154723
0.27271
-0.0125714
0.0308975
0.0119939
-0.0115093
0.0423332
-0.0095115
0.0527281
-0.00697093
0.0623856
-0.00422009
0.073242
-0.00125575
0.0862931
0.00170745
0.101126
0.00378475
0.119207
0.00245373
0.156054
0.275164
-0.0241101
0.0303173
0.0246903
-0.0222055
0.0404286
-0.0190564
0.049579
-0.0152457
0.0585749
-0.0110905
0.0690868
-0.00654594
0.0817486
-0.00193111
0.0965111
0.00141839
0.115858
0.00128783
0.156185
0.276452
-0.0369176
0.0288263
0.0384086
-0.0339081
0.0374191
-0.0294428
0.0451138
-0.0243033
0.0534354
-0.0186901
0.0634737
-0.0124806
0.0755391
-0.00612988
0.0901604
-0.00117545
0.110903
0.000270716
0.154738
0.276722
-0.0508384
0.0263972
0.0532675
-0.0464509
0.0330316
-0.0407893
0.0394522
-0.0344298
0.0470758
-0.0272797
0.0563236
-0.0192721
0.0675315
-0.0110516
0.0819398
-0.00423158
0.104083
-0.00119501
0.151702
0.275527
-0.0659057
0.0226141
0.0696887
-0.0602519
0.0273779
-0.0537415
0.0329418
-0.0461644
0.0394987
-0.0374134
0.0475726
-0.0276104
0.0577285
-0.0175195
0.0718489
-0.008781
0.0953448
-0.00344742
0.146368
0.27208
-0.0825839
0.018161
0.087037
-0.0761117
0.0209056
-0.068797
0.0256271
-0.0599435
0.0306452
-0.0497663
0.0373954
-0.0383454
0.0463076
-0.0266261
0.0601295
-0.0158893
0.084608
-0.00762656
0.138106
0.264453
-0.102553
0.0122661
0.108448
-0.0956301
0.0139829
-0.087729
0.017726
-0.0782244
0.0211405
-0.0675289
0.0267
-0.0554314
0.0342101
-0.0426924
0.0473905
-0.0298029
0.0717185
-0.0167472
0.12505
0.247706
-0.133565
0.00599991
0.139831
-0.126243
0.00666059
-0.117732
0.00921519
-0.107896
0.0113043
-0.0967988
0.0156029
-0.084393
0.0218044
-0.070821
0.0338185
-0.0556822
0.0565797
-0.0352743
0.104642
0.212432
-0.193583
0.00103256
0.19855
-0.18839
0.00146773
-0.181754
0.00257971
-0.174374
0.00392426
-0.165311
0.00653936
-0.154367
0.0108606
-0.139562
0.0190132
-0.117106
0.0341238
-0.0767381
0.0642744
0.135694
-0.278477
0.279509
-0.277009
-0.274429
-0.270505
-0.263966
-0.253105
-0.234092
-0.199968
-0.135694
0.00177637
0.0126603
-0.00244273
0.000502936
0.0259637
-0.000897796
0.0398093
-0.00218991
0.0545596
-0.0032402
0.070739
-0.00414495
0.0879418
-0.0048968
0.1092
-0.00552005
0.140455
-0.00488564
0.197916
0.274624
0.00149906
0.0130376
-0.00187636
0.000486628
0.0269761
-0.000768687
0.0410646
-0.00199352
0.0557844
-0.00302316
0.0717687
-0.00391606
0.0888347
-0.00464371
0.109927
-0.00530627
0.141117
-0.00436963
0.196979
0.270254
0.00129831
0.013213
-0.00147375
0.000537397
0.0277371
-0.00054537
0.0421474
-0.00165839
0.0568974
-0.00263118
0.0727415
-0.0034927
0.0896962
-0.00423029
0.110665
-0.0048451
0.141732
-0.00399722
0.196131
0.266257
0.00117901
0.0132182
-0.00118419
0.000654483
0.0282616
-0.000252797
0.0430547
-0.00124296
0.0578876
-0.00214412
0.0736426
-0.00297712
0.0905292
-0.00371655
0.111404
-0.0043128
0.142328
-0.00358031
0.195399
0.262676
0.00113074
0.0130638
-0.000976364
0.000843842
0.0285485
0.000123913
0.0437746
-0.000746517
0.058758
-0.00157567
0.0744718
-0.00237859
0.0913321
-0.00312092
0.112147
-0.00371553
0.142923
-0.00312299
0.194806
0.259553
0.00114787
0.0127531
-0.000837194
0.00110577
0.0285906
0.000597146
0.0442832
-0.000169858
0.059525
-0.000917714
0.0752196
-0.00169505
0.0921094
-0.00244294
0.112895
-0.00305446
0.143534
-0.00263076
0.194382
0.256923
0.0012252
0.0122896
-0.000761664
0.00143375
0.028382
0.0011394
0.0445776
0.000526613
0.0601378
-0.00017048
0.0759167
-0.000932237
0.0928712
-0.00168199
0.113644
-0.00233473
0.144187
-0.00210908
0.194157
0.254814
0.00135612
0.0116824
-0.000748959
0.00181808
0.0279201
0.00174625
0.0446494
0.00128884
0.0605952
0.0006559
0.0765497
-0.000117428
0.0936445
-0.000840372
0.114367
-0.00156795
0.144915
-0.00156262
0.194151
0.253251
0.00153348
0.0109504
-0.000801422
0.00224569
0.0272079
0.00240555
0.0444896
0.002105
0.0608958
0.00154791
0.0771068
0.000828719
0.0943637
8.88297e-05
0.115107
-0.000770734
0.145774
-0.000993597
0.194374
0.252257
0.00175089
-0.000923935
0.00270074
0.00310224
0.00296534
0.00248942
0.00179493
0.000979163
1.06448e-05
-0.000401365
0.000131377
-0.00114808
0.000379972
-0.00262913
0.000697202
-0.00361956
0.00105663
-0.00425567
0.00144425
-0.00463136
0.00185362
-0.00481466
0.00228336
-0.00485628
0.0027364
-0.00479416
0.00322189
-0.00465718
-0.00446956
0.000131067
-0.00127915
0.000370074
-0.00286813
0.000666272
-0.00391575
0.000992959
-0.00458235
0.00133682
-0.00497522
0.00169253
-0.00517037
0.00205975
-0.0052235
0.00244171
-0.00517612
0.00284475
-0.00506022
-0.00490297
0.000124352
-0.0014035
0.000340759
-0.00308454
0.000598722
-0.00417372
0.000872913
-0.00485654
0.00115198
-0.00525428
0.00143277
-0.00545117
0.00171706
-0.00550779
0.00200955
-0.0054686
0.00231641
-0.00536708
-0.00523002
0.000110745
-0.00151425
0.000291353
-0.00326515
0.000494415
-0.00437678
0.000697738
-0.00505987
0.000893054
-0.0054496
0.00108007
-0.00563818
0.00126296
-0.00569068
0.00144818
-0.00565383
0.00164302
-0.00556192
-0.00544156
9.01097e-05
-0.00160436
0.000222273
-0.00339731
0.00035531
-0.00450982
0.000471952
-0.00517651
0.000567966
-0.00554561
0.000646278
-0.00571649
0.000713472
-0.00575788
0.000777487
-0.00571784
0.000845897
-0.00563033
-0.00552577
6.26912e-05
-0.00166705
0.000135035
-0.00346965
0.000185346
-0.00456013
0.000202955
-0.00519412
0.000188387
-0.00553104
0.000147889
-0.005676
9.02077e-05
-0.0057002
2.49917e-05
-0.00565263
-3.87207e-05
-0.00556662
-0.00546155
2.91725e-05
-0.00169622
3.21637e-05
-0.00347264
-9.85761e-06
-0.00451811
-9.96288e-05
-0.00510435
-0.000231441
-0.00539923
-0.000395849
-0.00551159
-0.000582381
-0.00551366
-0.000781335
-0.00545367
-0.000984876
-0.00536308
-0.00526471
-9.90921e-06
-0.00168631
-8.29284e-05
-0.00339963
-0.00022341
-0.00437763
-0.000424736
-0.00490302
-0.000675897
-0.00514807
-0.000964664
-0.00522282