/*--------------------------------*- C++ -*----------------------------------*\
  =========                 |
  \\      /  F ield         | OpenFOAM: The Open Source CFD Toolbox
   \\    /   O peration     | Website:  https://openfoam.org
    \\  /    A nd           | Version:  7
     \\/     M anipulation  |
\*---------------------------------------------------------------------------*/
FoamFile
{
    version     2.0;
    format      ascii;
    class       volScalarField;
    location    "9";
    object      p;
}
// * * * * * * * * * * * * * * * * * * * * * * * * * * * * * * * * * * * * * //

dimensions      [0 2 -2 0 0 0 0];

internalField   nonuniform List<scalar> 
2000
(
0.13271
0.13689
0.139957
0.143349
0.146835
0.150305
0.153704
0.156985
0.160111
0.163092
0.131293
0.135723
0.138905
0.14234
0.14579
0.149153
0.15239
0.15546
0.158313
0.161059
0.129882
0.134603
0.137938
0.141453
0.144899
0.148183
0.151279
0.154154
0.156742
0.159226
0.1285
0.133539
0.137057
0.140684
0.144158
0.147391
0.150373
0.153075
0.155414
0.157605
0.127112
0.132505
0.136238
0.140012
0.143546
0.146762
0.149658
0.152219
0.15434
0.156212
0.125667
0.131468
0.135452
0.139407
0.143035
0.146265
0.149112
0.151574
0.15353
0.155076
0.124112
0.130395
0.134667
0.138835
0.142586
0.145861
0.148691
0.151103
0.152975
0.154227
0.122395
0.129253
0.133846
0.138252
0.142148
0.14549
0.148333
0.150749
0.152672
0.153761
0.120466
0.12801
0.132951
0.137612
0.14166
0.145075
0.14795
0.150448
0.152704
0.154045
0.118291
0.126638
0.131946
0.136859
0.141038
0.144485
0.147333
0.14987
0.152535
0.154612
0.169686
0.178391
0.184027
0.188987
0.192553
0.195428
0.197579
0.199177
0.200244
0.200882
0.167845
0.175777
0.181353
0.186182
0.189719
0.192581
0.194725
0.196306
0.197354
0.197976
0.166049
0.173276
0.178723
0.183404
0.186903
0.189747
0.191888
0.19346
0.194493
0.195108
0.164277
0.170905
0.176151
0.180668
0.184117
0.186939
0.189077
0.190644
0.191668
0.192279
0.162496
0.16867
0.173646
0.177987
0.181374
0.184168
0.186301
0.187865
0.188881
0.189488
0.16068
0.16657
0.171218
0.175373
0.178684
0.181441
0.183566
0.185126
0.186135
0.186735
0.158809
0.164583
0.168871
0.172832
0.176054
0.178766
0.180878
0.182429
0.183429
0.184015
0.156779
0.162591
0.166555
0.170333
0.173469
0.176133
0.178229
0.179772
0.180761
0.181327
0.154543
0.160402
0.164151
0.167802
0.170884
0.173518
0.175607
0.177145
0.178127
0.178667
0.153863
0.158754
0.16209
0.165547
0.168536
0.171095
0.173129
0.174618
0.175554
0.176041
0.163485
0.160902
0.161245
0.162994
0.16488
0.166642
0.168085
0.169096
0.169677
0.169935
0.149989
0.150506
0.151891
0.153962
0.155812
0.157359
0.158571
0.159406
0.159884
0.16009
0.133178
0.136934
0.139997
0.143066
0.145472
0.147238
0.148494
0.149315
0.149774
0.149973
0.114797
0.121256
0.126169
0.130534
0.133857
0.136169
0.137703
0.138651
0.139167
0.139382
0.0950312
0.103483
0.110223
0.116014
0.120462
0.123547
0.125526
0.126685
0.127279
0.127523
0.0743272
0.0840018
0.0921906
0.0992674
0.104865
0.108887
0.111546
0.113153
0.114012
0.114359
0.0540504
0.0639164
0.0728945
0.0807538
0.0870792
0.091691
0.0947315
0.0965233
0.0974421
0.0978348
0.0333491
0.0429332
0.0518966
0.0599941
0.066775
0.0719863
0.0756444
0.0779562
0.0792274
0.0797253
0.0162724
0.0238206
0.0315491
0.0382688
0.0437367
0.0478217
0.0505761
0.0522237
0.0530845
0.0535064
-0.00658495
0.00182348
0.00830973
0.0137754
0.0183559
0.0219765
0.0245533
0.0261631
0.0269921
0.0272217
0.149036
0.137171
0.122535
0.105008
0.0862831
0.0663343
0.0477746
0.0266989
0.0148878
-0.0148837
0.148206
0.134207
0.119083
0.100959
0.0820726
0.062242
0.0443229
0.0234512
0.0137929
-0.0181773
0.146895
0.130582
0.114949
0.0964654
0.0775984
0.0580658
0.0407774
0.0203721
0.0123516
-0.0210904
0.14429
0.1265
0.11058
0.0919992
0.0733046
0.0541812
0.0375066
0.0176595
0.0108915
-0.0239759
0.140844
0.122298
0.106164
0.0876291
0.0691894
0.0505459
0.0344708
0.0152857
0.00939747
-0.0272327
0.136791
0.1181
0.101783
0.0833951
0.0652718
0.0471614
0.0316745
0.0132813
0.00794306
-0.0301807
0.132333
0.113975
0.0975232
0.0793574
0.0615966
0.0440559
0.0291497
0.0116807
0.00682062
-0.0289983
0.127749
0.109997
0.0934728
0.0755743
0.0582029
0.0412493
0.0269152
0.0104698
0.0060764
-0.0239595
0.123344
0.106245
0.0897092
0.0720963
0.0551205
0.0387524
0.0249729
0.00959066
0.00550214
-0.0192431
0.119399
0.102805
0.0862963
0.0689645
0.0523718
0.03657
0.0233196
0.00896868
0.00470181
-0.0150555
0.116136
0.0997648
0.0832838
0.0662103
0.0499715
0.0347032
0.0219575
0.00860257
0.00413775
-0.0116315
0.113703
0.0972125
0.0807099
0.0638546
0.0479273
0.0331484
0.0208816
0.0084338
0.00381647
-0.00881737
0.112168
0.0952283
0.0786051
0.0619126
0.0462439
0.0318987
0.0200423
0.00843742
0.00368975
-0.00649695
0.111533
0.093879
0.0769903
0.0603915
0.0449211
0.0309503
0.0194541
0.00856193
0.00371099
-0.00460214
0.111738
0.0931941
0.0758636
0.0592877
0.0439533
0.0302891
0.0191004
0.00880232
0.0038523
-0.00307228
0.112658
0.093128
0.0751854
0.0585745
0.0433158
0.0298945
0.018957
0.00915081
0.00409223
-0.00184717
0.114146
0.0936537
0.0749486
0.058197
0.0429711
0.0297335
0.0189954
0.0095903
0.00441201
-0.000869556
0.11621
0.095143
0.0753423
0.0582535
0.0429454
0.0298034
0.0192034
0.0101122
0.00480157
-8.45289e-05
0.119089
0.0979206
0.0767873
0.0590542
0.043464
0.0302529
0.0196594
0.0107591
0.00526749
0.000556545
0.120336
0.100279
0.0785527
0.060389
0.044592
0.0312315
0.0204684
0.0115942
0.00579756
0.00106316
0.115558
0.101015
0.0807888
0.063184
0.0477757
0.0343682
0.0230859
0.0139399
0.00714139
0.00193528
0.108841
0.0930261
0.074212
0.0581669
0.0445859
0.0330457
0.0232632
0.0150728
0.00834597
0.00259839
0.105705
0.0894444
0.0723306
0.0578244
0.0452054
0.034288
0.0248164
0.0166326
0.00951442
0.00306608
0.105517
0.0890978
0.0728737
0.0592504
0.0470894
0.0363639
0.0268185
0.0183221
0.0106433
0.00346951
0.108001
0.091359
0.0753063
0.0618056
0.049581
0.0387006
0.0288683
0.0199474
0.0116904
0.00383369
0.112392
0.0952435
0.0789389
0.0650999
0.0524896
0.0412145
0.0309397
0.0215131
0.0126697
0.0041699
0.117845
0.0999391
0.0831568
0.0687387
0.0555844
0.0437859
0.0329833
0.023009
0.0135845
0.00448083
0.123482
0.104731
0.0873996
0.0723078
0.0585611
0.0462019
0.0348623
0.0243582
0.014399
0.00475691
0.128253
0.108769
0.0909564
0.0752551
0.0609931
0.0481471
0.0363551
0.0254178
0.0150338
0.00497209
0.131024
0.1111
0.0930145
0.0769441
0.0623835
0.0492494
0.0371961
0.0260101
0.0153853
0.00508888
0.14586
0.139362
0.132167
0.127768
0.126929
0.129167
0.13335
0.138271
0.142652
0.145285
0.151776
0.144989
0.137868
0.133638
0.132913
0.135224
0.139436
0.144373
0.148769
0.151465
0.155765
0.14752
0.140218
0.136775
0.137005
0.140123
0.144888
0.150182
0.154791
0.157629
0.16057
0.151182
0.143507
0.14045
0.141297
0.145039
0.150302
0.155965
0.16082
0.163812
0.165804
0.155708
0.147903
0.145104
0.146296
0.150415
0.156009
0.161942
0.166981
0.170087
0.171252
0.160554
0.152776
0.150256
0.151731
0.156141
0.161986
0.168121
0.173293
0.176468
0.175835
0.165639
0.157962
0.155693
0.157415
0.162079
0.168144
0.174451
0.179726
0.182939
0.181643
0.171046
0.163466
0.1614
0.16331
0.168182
0.174435
0.180892
0.186251
0.189479
0.187311
0.176679
0.169256
0.167358
0.169402
0.174429
0.180836
0.187418
0.192847
0.196071
0.192825
0.182438
0.175254
0.173509
0.17565
0.180788
0.187316
0.194002
0.19949
0.202696
0.198205
0.18825
0.181373
0.179785
0.181998
0.187213
0.193838
0.200613
0.206152
0.209334
0.20338
0.194021
0.187523
0.186107
0.188383
0.193653
0.200356
0.20721
0.212801
0.215958
0.208268
0.199652
0.19361
0.192394
0.194739
0.200052
0.206823
0.213754
0.219402
0.222541
0.212792
0.205041
0.199539
0.198561
0.200995
0.206353
0.213192
0.220202
0.225917
0.229049
0.216898
0.210097
0.205215
0.204522
0.20708
0.212497
0.219411
0.226509
0.232304
0.235449
0.220555
0.214752
0.210561
0.210198
0.212923
0.218424
0.225431
0.232632
0.238524
0.241703
0.223745
0.218949
0.215499
0.215512
0.218452
0.224075
0.231203
0.238527
0.244533
0.247772
0.226442
0.222611
0.219906
0.220318
0.22353
0.229341
0.236647
0.244138
0.250287
0.253616
0.228663
0.225766
0.223745
0.224518
0.228021
0.234084
0.241656
0.249392
0.255737
0.259198
0.230707
0.229029
0.227857
0.229031
0.232752
0.238925
0.246605
0.254456
0.260913
0.264481
0.235322
0.23828
0.241062
0.244696
0.249451
0.255306
0.261805
0.26815
0.273278
0.276134
0.241306
0.245983
0.250983
0.256702
0.263119
0.269947
0.276651
0.282572
0.28702
0.289394
0.247653
0.25312
0.259277
0.26597
0.273018
0.280043
0.286495
0.291796
0.295498
0.297371
0.253119
0.259324
0.266232
0.273452
0.280669
0.287429
0.29319
0.297488
0.300125
0.301286
0.257128
0.264077
0.271535
0.279099
0.286366
0.292808
0.29786
0.301113
0.302556
0.302798
0.259805
0.267601
0.27554
0.283417
0.290771
0.297003
0.301485
0.303767
0.303875
0.302741
0.261652
0.270435
0.278801
0.287035
0.294587
0.300795
0.304914
0.306319
0.304826
0.301105
0.263619
0.273219
0.28191
0.290555
0.298385
0.304702
0.308594
0.309136
0.305438
0.295909
0.266816
0.276742
0.285747
0.294913
0.303079
0.309504
0.313099
0.312982
0.307998
0.288831
0.274127
0.284214
0.294511
0.305515
0.315932
0.32534
0.333792
0.340149
0.327233
0.241455
0.234004
0.237506
0.243288
0.248617
0.252875
0.256236
0.259119
0.261976
0.264459
0.270213
0.232908
0.236721
0.242467
0.247553
0.251613
0.254859
0.257673
0.260628
0.262904
0.268215
0.231539
0.236417
0.242208
0.246957
0.25065
0.253519
0.255949
0.258702
0.260779
0.265677
0.230091
0.2359
0.241667
0.246138
0.249523
0.252062
0.254164
0.256682
0.258561
0.263047
0.228702
0.235227
0.240877
0.245128
0.248232
0.250504
0.252361
0.254684
0.256398
0.260524
0.2274
0.234475
0.239996
0.24403
0.246864
0.248888
0.250531
0.252683
0.254267
0.258099
0.2262
0.233627
0.239078
0.242877
0.245455
0.247239
0.248684
0.250673
0.25215
0.255735
0.225131
0.232691
0.238115
0.241686
0.244022
0.245576
0.246836
0.248664
0.250062
0.253429
0.224176
0.231673
0.237128
0.240477
0.242587
0.24392
0.245005
0.246679
0.248012
0.251188
0.223327
0.230588
0.236144
0.239277
0.241174
0.242291
0.243206
0.244739
0.24602
0.249015
0.222568
0.229457
0.235187
0.23811
0.239806
0.24071
0.241456
0.242853
0.244092
0.246934
0.221867
0.228302
0.234274
0.237001
0.238504
0.239194
0.239766
0.241029
0.242234
0.244963
0.221172
0.227146
0.233415
0.235968
0.23729
0.23776
0.238149
0.239276
0.240459
0.243111
0.220413
0.226013
0.232613
0.235031
0.236179
0.236424
0.236616
0.237602
0.238779
0.24139
0.219505
0.224921
0.231865
0.234201
0.235186
0.235197
0.235173
0.236009
0.2372
0.239818
0.218348
0.223888
0.231161
0.233488
0.23432
0.234093
0.233831
0.234503
0.235731
0.238415
0.216857
0.222931
0.230501
0.232901
0.233595
0.233119
0.232591
0.233083
0.23438
0.237207
0.214888
0.222026
0.229881
0.232452
0.233014
0.232258
0.231407
0.231697
0.233129
0.236223
0.211927
0.220928
0.229171
0.232069
0.23254
0.231485
0.230241
0.230279
0.231925
0.235489
0.207937
0.219435
0.228123
0.231522
0.232136
0.231064
0.229678
0.22952
0.231195
0.23508
0.20327
0.21713
0.225833
0.230249
0.232011
0.232412
0.232616
0.233533
0.234958
0.236634
0.210585
0.221005
0.22753
0.230595
0.231341
0.231035
0.23095
0.231996
0.234034
0.235742
0.215762
0.224198
0.229088
0.230934
0.230786
0.230003
0.229945
0.231454
0.234263
0.23647
0.219083
0.226126
0.229806
0.230681
0.229954
0.229246
0.230156
0.233467
0.238435
0.241701
0.221597
0.227507
0.229965
0.229788
0.228528
0.228285
0.231245
0.238275
0.247863
0.253676
0.223727
0.22865
0.229798
0.228417
0.226833
0.227621
0.234281
0.247969
0.266173
0.277542
0.22594
0.23015
0.230207
0.227778
0.22587
0.229387
0.24224
0.266703
0.299523
0.322457
0.228873
0.233157
0.233205
0.231142
0.231019
0.238693
0.260699
0.30135
0.358288
0.40802
0.232746
0.238274
0.239849
0.239786
0.242903
0.255923
0.290524
0.352749
0.44665
0.554114
0.236612
0.244087
0.248381
0.252064
0.261962
0.288118
0.33701
0.427469
0.58274
0.803662
0.193145
0.203713
0.208965
0.213465
0.21706
0.220118
0.222832
0.225494
0.228098
0.230665
0.188535
0.20085
0.206207
0.211154
0.214999
0.218241
0.221017
0.223556
0.225772
0.227872
0.185832
0.199011
0.20423
0.2093
0.213078
0.216235
0.218879
0.221229
0.223183
0.224915
0.183637
0.197021
0.202151
0.207301
0.211002
0.214065
0.21657
0.218736
0.220478
0.221917
0.181515
0.194672
0.199797
0.205036
0.208701
0.211714
0.214121
0.216136
0.217696
0.218899
0.179497
0.192114
0.19729
0.202587
0.20623
0.209211
0.211542
0.213436
0.214848
0.215867
0.177496
0.18944
0.194702
0.200014
0.203636
0.206588
0.208858
0.210655
0.211951
0.212832
0.175502
0.186675
0.192071
0.197342
0.200947
0.203874
0.206096
0.207818
0.209025
0.209807
0.173524
0.183864
0.189418
0.194598
0.198187
0.201094
0.203282
0.204947
0.20609
0.206802
0.17158
0.181094
0.186724
0.191801
0.195383
0.198272
0.200437
0.202062
0.203159
0.203825
0.115845
0.125118
0.130801
0.135948
0.140211
0.143588
0.146195
0.148182
0.149345
0.148445
0.113105
0.123436
0.129498
0.134859
0.139171
0.142437
0.144779
0.14629
0.146591
0.145001
0.110146
0.121623
0.128046
0.133589
0.137917
0.141057
0.143159
0.144324
0.144223
0.142652
0.107047
0.119713
0.126462
0.132142
0.136446
0.139436
0.1413
0.142164
0.141809
0.140327
0.103908
0.117755
0.124776
0.130539
0.134773
0.137585
0.139206
0.1398
0.139269
0.13788
0.100857
0.115816
0.123042
0.128824
0.132941
0.135546
0.136921
0.137268
0.136599
0.135267
0.0980452
0.113986
0.121332
0.127066
0.131018
0.133393
0.134515
0.134625
0.133823
0.132483
0.0956517
0.112377
0.119745
0.125361
0.129106
0.131228
0.132093
0.131965
0.131011
0.129589
0.0938659
0.111119
0.118403
0.123831
0.127331
0.129185
0.129785
0.129413
0.12828
0.126702
0.0928059
0.110314
0.117417
0.1226
0.125829
0.127408
0.127741
0.12712
0.125774
0.123979
0.09244
0.109971
0.116845
0.12176
0.124718
0.126031
0.126106
0.125234
0.123648
0.121596
0.0933607
0.110489
0.117007
0.121585
0.12424
0.125271
0.125074
0.123933
0.122072
0.119736
0.0956467
0.111943
0.117999
0.122189
0.124517
0.125254
0.124773
0.123341
0.121171
0.11854
0.0993802
0.114429
0.119938
0.123696
0.125676
0.126102
0.125314
0.12356
0.12104
0.11811
0.104653
0.118053
0.122938
0.12622
0.127821
0.127907
0.126775
0.124653
0.121733
0.118492
0.111509
0.122889
0.127076
0.129836
0.131018
0.130724
0.129203
0.126654
0.12327
0.11968
0.119929
0.128962
0.132386
0.134572
0.135292
0.134573
0.132613
0.129577
0.125643
0.12161
0.129829
0.136246
0.138848
0.140411
0.140624
0.139439
0.136994
0.133397
0.12876
0.124087
0.141053
0.144657
0.146388
0.147284
0.146962
0.1453
0.142362
0.138123
0.132495
0.126766
0.153372
0.154047
0.154874
0.155072
0.154215
0.152141
0.148856
0.144191
0.1378
0.130994
0.166546
0.164244
0.164134
0.163597
0.162206
0.159809
0.156456
0.15209
0.146841
0.143578
0.180488
0.175094
0.173961
0.172621
0.170641
0.167869
0.164347
0.160098
0.155461
0.152702
0.194654
0.186238
0.18406
0.181874
0.179254
0.176032
0.172223
0.167869
0.163294
0.160042
0.208615
0.197372
0.194159
0.19111
0.187818
0.184104
0.179944
0.175375
0.170645
0.166876
0.222006
0.208206
0.203997
0.200098
0.196137
0.191921
0.187395
0.182575
0.177634
0.173423
0.234484
0.218464
0.213329
0.208628
0.204036
0.19935
0.194484
0.18944
0.184335
0.179793
0.245746
0.227891
0.221936
0.216519
0.21137
0.206279
0.201133
0.195924
0.190726
0.185892
0.25554
0.236275
0.229631
0.223616
0.218015
0.212616
0.207282
0.201996
0.196796
0.19189
0.263671
0.243442
0.236269
0.229799
0.223873
0.218282
0.212868
0.207605
0.202499
0.197623
0.269968
0.249249
0.241735
0.234976
0.228871
0.223214
0.217836
0.212703
0.207802
0.203074
0.2743
0.253591
0.245956
0.239094
0.232966
0.227375
0.222147
0.217247
0.212658
0.2082
0.276938
0.256551
0.248941
0.24213
0.23612
0.230721
0.225754
0.221184
0.217
0.212925
0.277864
0.258122
0.250697
0.244095
0.238342
0.233253
0.228645
0.224489
0.220786
0.217183
0.277142
0.258355
0.251274
0.245029
0.239658
0.234983
0.230821
0.227145
0.223979
0.220919
0.274912
0.257347
0.250748
0.24499
0.240111
0.23594
0.232295
0.229151
0.226557
0.224091
0.271346
0.255222
0.249221
0.244059
0.239764
0.236169
0.233097
0.230522
0.228518
0.226673
0.266637
0.252122
0.24681
0.24233
0.238692
0.235728
0.233269
0.231286
0.229873
0.228658
0.26099
0.248198
0.243643
0.239909
0.236979
0.234685
0.232865
0.231487
0.230652
0.230048
0.254617
0.243612
0.239855
0.236906
0.234716
0.233115
0.231949
0.231179
0.230894
0.230851
0.247732
0.238523
0.235579
0.233432
0.231996
0.231096
0.230587
0.230425
0.230657
0.231131
0.240514
0.233074
0.230935
0.229587
0.2289
0.228695
0.228836
0.229279
0.230023
0.231084
0.233007
0.227351
0.226024
0.225466
0.225515
0.225984
0.226744
0.227766
0.229075
0.230527
0.225475
0.221526
0.220976
0.221171
0.22192
0.223026
0.22436
0.225897
0.227675
0.229405
0.218097
0.21572
0.215891
0.216786
0.218189
0.21989
0.221754
0.223755
0.225932
0.227921
0.210994
0.210025
0.21085
0.212385
0.214388
0.216637
0.218993
0.221419
0.223955
0.226212
0.204239
0.204527
0.205921
0.208028
0.210573
0.213323
0.216132
0.21895
0.221811
0.224354
0.197922
0.199266
0.201156
0.203763
0.206789
0.20999
0.213214
0.216392
0.219551
0.222408
0.192077
0.194281
0.19659
0.199625
0.20307
0.206672
0.21027
0.213781
0.217203
0.220295
0.18672
0.189589
0.192243
0.195637
0.19944
0.203393
0.207326
0.211139
0.214804
0.21816
0.181945
0.185243
0.18815
0.191824
0.19592
0.200171
0.204398
0.208481
0.21236
0.215986
0.177984
0.181385
0.184398
0.188245
0.192552
0.197034
0.201504
0.205816
0.209872
0.213754
0.174232
0.177705
0.180819
0.184809
0.189287
0.193961
0.198635
0.203143
0.207338
0.211452
0.170781
0.174265
0.177446
0.181534
0.186138
0.190958
0.195795
0.20046
0.204756
0.209066
0.167662
0.171081
0.174284
0.178425
0.183108
0.18803
0.192986
0.197767
0.202119
0.206577
0.164833
0.168126
0.171317
0.175472
0.180194
0.185176
0.19021
0.195068
0.199425
0.203964
0.162247
0.165374
0.168525
0.172665
0.177393
0.1824
0.187474
0.19237
0.196682
0.201215
0.159861
0.162797
0.165892
0.169993
0.174702
0.179707
0.184794
0.189699
0.193922
0.198342
0.157634
0.160375
0.163403
0.167449
0.17212
0.177105
0.182187
0.187091
0.191198
0.195366
0.15553
0.158085
0.161042
0.165025
0.169648
0.174603
0.179671
0.184561
0.188511
0.192174
0.153519
0.155912
0.158799
0.162715
0.167289
0.172226
0.177302
0.18223
0.186236
0.189501
0.15156
0.15383
0.15665
0.160497
0.165026
0.169977
0.175165
0.180542
0.186405
0.192761
0.149519
0.151778
0.154564
0.158347
0.162805
0.167698
0.172832
0.178149
0.184052
0.189915
0.147468
0.149789
0.152554
0.156265
0.160617
0.165379
0.170348
0.175419
0.180875
0.186099
0.145431
0.147873
0.150624
0.154259
0.158485
0.163085
0.167866
0.172705
0.177746
0.182771
0.143409
0.146027
0.148777
0.152339
0.156435
0.160861
0.165442
0.170084
0.174914
0.179357
0.141411
0.144256
0.147022
0.150519
0.154486
0.158733
0.163104
0.167519
0.172042
0.176026
0.139455
0.142567
0.145366
0.148811
0.152655
0.156727
0.160891
0.165075
0.169311
0.173051
0.137556
0.140964
0.143816
0.147226
0.150959
0.154865
0.158827
0.162784
0.166743
0.1703
0.135732
0.139448
0.142374
0.145769
0.149409
0.153159
0.156928
0.160658
0.16434
0.167719
0.134061
0.138056
0.141064
0.144459
0.14802
0.151627
0.15521
0.158716
0.162122
0.165312
)
;

boundaryField
{
    inlet
    {
        type            zeroGradient;
    }
    outlet
    {
        type            fixedValue;
        value           uniform 0;
    }
    cylinder
    {
        type            zeroGradient;
    }
    top
    {
        type            symmetryPlane;
    }
    bottom
    {
        type            symmetryPlane;
    }
    defaultFaces
    {
        type            empty;
    }
}


// ************************************************************************* //
