/*--------------------------------*- C++ -*----------------------------------*\
  =========                 |
  \\      /  F ield         | OpenFOAM: The Open Source CFD Toolbox
   \\    /   O peration     | Website:  https://openfoam.org
    \\  /    A nd           | Version:  7
     \\/     M anipulation  |
\*---------------------------------------------------------------------------*/
FoamFile
{
    version     2.0;
    format      ascii;
    class       surfaceScalarField;
    location    "53";
    object      phi;
}
// * * * * * * * * * * * * * * * * * * * * * * * * * * * * * * * * * * * * * //

dimensions      [0 3 -1 0 0 0 0];

internalField   nonuniform List<scalar> 
3880
(
-9.48621e-05
-0.00061271
0.000707572
-0.000191334
-0.000936233
0.00103271
-0.000213473
-0.000749286
0.000771424
-0.000110433
-0.000200039
9.69992e-05
0.000154555
0.000647849
-0.000912837
0.000606999
0.00176584
-0.00221828
0.0012591
0.00313517
-0.00378727
0.00210696
0.0047332
-0.00558106
0.00312748
0.00652619
-0.00754671
0.00846263
0.00427477
-0.00960992
-0.000106315
-0.000506395
-0.000217503
-0.000825046
-0.00025909
-0.000707698
-0.000182436
-0.000276694
4.9635e-05
0.000415778
0.000466888
0.00134858
0.00108965
0.00251241
0.00192436
0.0038985
0.00295727
0.00549327
0.00727426
0.00414564
-0.000107738
-0.000398657
-0.000214671
-0.000718113
-0.000252281
-0.000670088
-0.000178218
-0.000350757
4.07658e-05
0.000196794
0.000434463
0.000954888
0.00102811
0.00191876
0.00183725
0.00308936
0.00285928
0.00447124
0.00607507
0.00405846
-9.70158e-05
-0.000301641
-0.000176689
-0.00063844
-0.000180598
-0.00066618
-7.61645e-05
-0.00045519
0.000161689
-4.10592e-05
0.000558133
0.000558444
0.00113841
0.00133849
0.0019239
0.00230386
0.00292337
0.00347178
0.00488505
0.00411339
-7.29568e-05
-0.000228685
-9.99703e-05
-0.000611426
-3.61225e-05
-0.000730027
0.000138709
-0.000630022
0.000438787
-0.000341137
0.000879809
0.000117422
0.00148182
0.000736484
0.00226683
0.00151885
0.00325245
0.00248616
0.00370465
0.00443285
-3.56037e-05
-0.000193081
1.5468e-05
-0.000662498
0.000181674
-0.000896233
0.000469971
-0.00091832
0.000881727
-0.000752893
0.0014207
-0.000421556
0.00209685
6.03394e-05
0.00292701
0.000688688
0.00393276
0.00148041
0.00250888
0.00512852
1.47852e-05
-0.000207866
0.000165621
-0.000813334
0.000465085
-0.0011957
0.000905804
-0.00135904
0.00147638
-0.00132347
0.00216777
-0.00111295
0.0029774
-0.000749283
0.00391169
-0.000245612
0.0049896
0.000402499
0.00125585
0.00624263
7.37093e-05
-0.000281575
0.000342307
-0.00108193
0.000797452
-0.00165084
0.00141827
-0.00197986
0.00218173
-0.00208693
0.00306713
-0.00199834
0.00405914
-0.0017413
0.00515113
-0.0013376
0.00635222
-0.000798589
-9.41812e-05
0.00770225
0.000139356
-0.000420931
0.00053447
-0.00147705
0.00115491
-0.00227128
0.00196568
-0.00279063
0.00293342
-0.00305467
0.00402856
-0.00309348
0.00522576
-0.0029385
0.00650449
-0.00261633
0.00785513
-0.00214923
-0.00156215
0.0093231
0.000207537
-0.000628469
0.000728814
-0.00199832
0.00150865
-0.00305112
0.00249696
-0.00377894
0.00365148
-0.00420919
0.00493825
-0.00438025
0.00633047
-0.00433071
0.00780459
-0.00409046
0.00932813
-0.00367277
0.0108673
-0.0031013
0.00724581
0.0469346
-0.0499056
0.00866872
0.0745004
-0.0759233
0.0085785
0.0961176
-0.0960274
0.00779301
0.11581
-0.115025
0.00672924
0.136798
-0.135734
0.00551188
0.160755
-0.159537
0.00416391
0.188533
-0.187185
0.00263737
0.2211
-0.219573
0.00113532
0.262964
-0.261462
0.311188
-0.310053
0.00764007
0.0434402
0.00976308
0.0723774
0.0100621
0.0958186
0.00943871
0.116434
0.00841561
0.137821
0.00714134
0.162029
0.00563341
0.19004
0.00382657
0.222906
0.0018482
0.264943
0.313037
0.00789846
0.0396002
0.0107725
0.0695034
0.011519
0.0950721
0.0110889
0.116864
0.0101136
0.138796
0.00878312
0.163359
0.00711174
0.191712
0.00502203
0.224996
0.00256447
0.2674
0.315601
0.00803655
0.035677
0.0116516
0.0658884
0.0129079
0.0938158
0.0127109
0.117061
0.011797
0.13971
0.0104155
0.164741
0.00858329
0.193544
0.00621227
0.227367
0.00327637
0.270336
0.318877
0.00812066
0.0319892
0.0123574
0.0616516
0.014187
0.0919862
0.0142729
0.116975
0.0134404
0.140543
0.0120175
0.166164
0.0100334
0.195528
0.00738644
0.230014
0.00398066
0.273742
0.322858
0.00825733
0.0288604
0.0128607
0.0570482
0.0153169
0.08953
0.0157399
0.116552
0.0150142
0.141269
0.0135628
0.167615
0.0114387
0.197652
0.0085293
0.232923
0.00466733
0.277604
0.327525
0.00855947
0.0265436
0.0131718
0.0524359
0.0162653
0.0864365
0.0170875
0.11573
0.0165074
0.141849
0.0150469
0.169076
0.0127989
0.1999
0.00963989
0.236082
0.00533698
0.281907
0.332862
0.00909942
0.0251464
0.0133431
0.0481922
0.016999
0.0827805
0.0182589
0.11447
0.0178622
0.142246
0.0164154
0.170522
0.0140654
0.20225
0.0106865
0.239461
0.0059734
0.28662
0.338836
0.0098615
0.024608
0.0134553
0.0445985
0.0175432
0.0786926
0.0193131
0.1127
0.0191512
0.142408
0.0177356
0.171938
0.0152964
0.204689
0.0116977
0.24306
0.00658798
0.29173
0.345424
0.010812
0.0246633
0.0136279
0.0417826
0.0177739
0.0745465
0.02003
0.110444
0.0202
0.142238
0.0188747
0.173263
0.0164228
0.207141
0.0126272
0.246856
0.0072048
0.297152
0.352629
0.0310402
0.035699
-0.042076
0.0226912
0.0501316
0.0212744
0.0759634
0.0203654
0.111353
0.0178048
0.144798
0.0144019
0.176666
0.0105902
0.210953
0.00641317
0.251033
0.00240189
0.301163
0.35503
0.0385317
0.0417344
-0.0445671
0.0295444
0.0591188
0.0245793
0.0809286
0.022057
0.113875
0.0184612
0.148394
0.0141584
0.180969
0.0100261
0.215085
0.00597803
0.255081
0.0022541
0.304887
0.357285
0.0409842
0.0444167
-0.0436665
0.0341225
0.0659806
0.0277609
0.0872902
0.0237844
0.117851
0.0198963
0.152282
0.0154328
0.185432
0.0108411
0.219677
0.00635695
0.259565
0.00242493
0.308819
0.359709
0.039808
0.0450924
-0.0404837
0.0356049
0.0701837
0.0298614
0.0930337
0.0248742
0.122839
0.0199707
0.157186
0.0150624
0.190341
0.0105019
0.224238
0.00624446
0.263822
0.00245546
0.312608
0.362165
0.036291
0.044601
-0.0357996
0.0343286
0.0721461
0.0302512
0.097111
0.0259556
0.127134
0.0213753
0.161766
0.0162336
0.195482
0.0111454
0.229326
0.00651352
0.268454
0.00255978
0.316562
0.364725
0.0311635
0.0431519
-0.0297144
0.031059
0.0722506
0.0284263
0.0997437
0.0243987
0.131162
0.019897
0.166268
0.015221
0.200158
0.0106169
0.23393
0.00627812
0.272793
0.00249677
0.320343
0.367221
0.0251629
0.0409121
-0.022923
0.0267493
0.0706642
0.0263939
0.100099
0.0241574
0.133399
0.0203753
0.17005
0.0156326
0.204901
0.0108138
0.238749
0.00635978
0.277247
0.00254696
0.324156
0.369768
0.0188509
0.0382232
-0.016162
0.0209617
0.0685534
0.0212342
0.0998266
0.0198454
0.134787
0.0173576
0.172537
0.0138942
0.208364
0.00990747
0.242735
0.0059274
0.281227
0.00240073
0.327683
0.372169
0.0134665
0.0348383
-0.0100816
0.0171199
0.0649001
0.019317
0.0976294
0.0191878
0.134917
0.0170664
0.174659
0.0137297
0.211701
0.00981681
0.246648
0.00589982
0.285144
0.00238906
0.331194
0.374558
0.00608316
-0.00389648
0.00892085
0.0118604
0.0137204
0.0136912
0.0117819
0.00882853
0.00540629
0.00227889
0.0144166
-0.0437777
-0.0127149
0.0141372
-0.0442877
0.012969
-0.0424982
0.011428
-0.0389427
0.00978038
-0.034152
0.00818609
-0.0281201
0.00675669
-0.0214936
0.00551925
-0.0149246
0.00447547
-0.00903785
-0.00334294
0.0133303
-0.0443204
-0.0127876
0.0124262
-0.0433836
0.0109739
-0.0410459
0.0093012
-0.03727
0.00760092
-0.0324517
0.00600183
-0.0265211
0.0045914
-0.0200832
0.00338829
-0.0137215
0.00238561
-0.00803516
-0.00278506
0.0117813
-0.0440311
-0.0120706
0.0104692
-0.0420716
0.0088301
-0.0394068
0.0070634
-0.0355033
0.00532623
-0.0307145
0.00372909
-0.0249239
0.00234527
-0.0186994
0.00119185
-0.0125681
0.000239008
-0.00708232
-0.00225744
0.00980427
-0.0431571
-0.0106783
0.00822859
-0.0404959
0.00648433
-0.0376625
0.00468037
-0.0336994
0.00294892
-0.0289831
0.00138384
-0.0233588
5.10434e-05
-0.0173666
-0.00104131
-0.0114757
-0.0019092
-0.00621443
-0.00176121
0.00748622
-0.0418795
-0.00876378
0.00575378
-0.0387634
0.00396692
-0.0358757
0.00217282
-0.0319053
0.000485048
-0.0272953
-0.0010145
-0.0218593
-0.0022799
-0.0161012
-0.00329467
-0.0104609
-0.00407448
-0.00543462
-0.0013303
0.0049308
-0.0403286
-0.00648173
0.00312138
-0.036954
0.00133748
-0.0340918
-0.000407911
-0.0301599
-0.00201781
-0.0256854
-0.00343356
-0.0204435
-0.00461096
-0.0149238
-0.00553674
-0.00953516
-0.00622156
-0.00474981
-0.000982348
0.00223804
-0.0385946
-0.003972
0.000403704
-0.0351197
-0.00132679
-0.0323613
-0.00300217
-0.0284845
-0.00451961
-0.0241679
-0.00583277
-0.0191304
-0.00691063
-0.0138459
-0.00773816
-0.00870763
-0.00832028
-0.00416768
-0.000726301
-0.000486659
-0.0367573
-0.00135069
-0.00228875
-0.0333176
-0.00396757
-0.0306825
-0.00555474
-0.0268973
-0.00696667
-0.022756
-0.00816946
-0.0179276
-0.00914209
-0.0128733
-0.00986571
-0.00798402
-0.010341
-0.00369238
-0.000564506
-0.00317645
-0.0348541
0.00127322
-0.00492283
-0.0315712
-0.00652169
-0.0290836
-0.0080067
-0.0254123
-0.0093097
-0.021453
-0.0104005
-0.0168368
-0.0112672
-0.0120065
-0.0118855
-0.00736574
-0.0122549
-0.00332305
-0.000492605
-0.00573781
-0.0329373
0.00382101
-0.00741564
-0.0298934
-0.00892792
-0.0275713
-0.010306
-0.0240342
-0.0115031
-0.0202559
-0.012485
-0.0158549
-0.0132497
-0.0112419
-0.0137661
-0.00684935
-0.0140361
-0.003053
-0.000499686
-0.00810871
-0.0310515
0.0062229
-0.00970912
-0.028293
-0.0111361
-0.0261443
-0.0124077
-0.0227627
-0.0135068
-0.0191568
-0.0143871
-0.0149746
-0.0150577
-0.0105713
-0.0154811
-0.00642593
-0.0156648
-0.00286932
-0.000569158
-0.0102522
-0.0292261
0.00842677
-0.011765
-0.0267801
-0.0131108
-0.0247986
-0.0142795
-0.0215939
-0.0152906
-0.0181458
-0.0160801
-0.0141851
-0.016668
-0.00998334
-0.0170126
-0.00608134
-0.0171283
-0.00275356
-0.000679908
-0.0121348
-0.0274845
0.0103932
-0.0135524
-0.0253625
-0.0148236
-0.0235274
-0.0158966
-0.0205208
-0.0168318
-0.0172106
-0.0175453
-0.0134716
-0.018066
-0.00946259
-0.0183513
-0.00579608
-0.018422
-0.00268283
-0.000807614
-0.0137388
-0.0258419
0.0120961
-0.0150549
-0.0240464
-0.0162595
-0.0223227
-0.0172474
-0.0195329
-0.0181199
-0.0163382
-0.0187757
-0.0128158
-0.019248
-0.00899031
-0.0194975
-0.00554652
-0.0195489
-0.00263145
-0.000926195
-0.0150589
-0.0243015
0.0135186
-0.0162691
-0.0228362
-0.0174151
-0.0211767
-0.018332
-0.018616
-0.0191553
-0.0155149
-0.0197748
-0.0121963
-0.0202198
-0.00854533
-0.0204599
-0.00530641
-0.0205188
-0.00257249
-0.00100907
-0.016101
-0.0228503
0.0146497
-0.0172049
-0.0217322
-0.0182976
-0.020084
-0.0191613
-0.0177523
-0.0199483
-0.0147279
-0.0205547
-0.0115899
-0.020995
-0.00810499
-0.0212531
-0.00504835
-0.0213466
-0.00247899
-0.0010301
-0.0168768
-0.0214553
0.0154818
-0.0178816
-0.0207274
-0.018921
-0.0190446
-0.0197529
-0.0169204
-0.0205162
-0.0139647
-0.0211334
-0.0109727
-0.0215925
-0.0076459
-0.021896
-0.0047449
-0.0220503
-0.00232467
-0.000964127
-0.0173771
-0.0200883
0.0160101
-0.0183073
-0.0197972
-0.0192944
-0.0180575
-0.0201227
-0.0160921
-0.0208778
-0.0132096
-0.0215308
-0.0103197
-0.0220329
-0.00714372
-0.0224087
-0.00436915
-0.0226494
-0.002084
-0.000787111
-0.0175825
-0.0187533
0.0162476
-0.0185
-0.0188797
-0.0194381
-0.0171194
-0.0202927
-0.0152375
-0.0210576
-0.0124447
-0.0217695
-0.00960779
-0.0223385
-0.00657476
-0.0228118
-0.00389583
-0.0231632
-0.00173256
-0.000475815
-0.0176279
-0.0173936
0.0162681
-0.0185973
-0.0179103
-0.0194268
-0.01629
-0.0202973
-0.0143669
-0.0210765
-0.0116655
-0.0218592
-0.00882507
-0.0225204
-0.00591364
-0.0231192
-0.00329703
-0.0236156
-0.00123615
-1.26292e-05
-0.0724922
-0.0151367
0.0702354
-0.0769688
-0.0134337
-0.0809885
-0.0122703
-0.0850954
-0.01026
-0.0884337
-0.00832718
-0.0911883
-0.00607053
-0.0930203
-0.00408164
-0.0941053
-0.00221202
-0.094476
-0.000865378
-2.85042e-05
-0.0888185
-0.0128746
0.0865564
-0.0918019
-0.0104503
-0.0945458
-0.00952637
-0.0973125
-0.00749331
-0.0995059
-0.00613376
-0.101277
-0.00429973
-0.102408
-0.00295006
-0.103041
-0.00157955
-0.103218
-0.000687767
-4.05308e-05
-0.105019
-0.0110271
0.103172
-0.106945
-0.00852432
-0.108877
-0.00759488
-0.1107
-0.00566991
-0.112159
-0.00467459
-0.113293
-0.00316557
-0.113971
-0.00227191
-0.114336
-0.00121524
-0.114413
-0.000610851
-4.18786e-05
-0.123362
-0.00980699
0.122142
-0.124688
-0.00719828
-0.126008
-0.00627503
-0.127189
-0.00448901
-0.128135
-0.00372826
-0.128862
-0.00243865
-0.129285
-0.00184849
-0.129518
-0.000982726
-0.129556
-0.00057303
-3.51465e-05
-0.145352
-0.00861731
0.144162
-0.146355
-0.00619477
-0.14734
-0.00529029
-0.148168
-0.00366118
-0.148851
-0.00304489
-0.149373
-0.00191675
-0.149706
-0.00151615
-0.149919
-0.00076956
-0.149988
-0.00050378
-3.17474e-07
-0.171236
-0.00731016
0.169929
-0.172213
-0.00521766
-0.173139
-0.00436421
-0.173874
-0.00292589
-0.174494
-0.00242523
-0.174964
-0.00144625
-0.175324
-0.00115629
-0.175602
-0.000492022
-0.175771
-0.000334043
4.80789e-05
-0.198678
-0.00586506
0.197232
-0.200021
-0.00387451
-0.201175
-0.00321027
-0.201947
-0.00215343
-0.202593
-0.00177983
-0.203066
-0.000972336
-0.203493
-0.000730072
-0.203823
-0.000161605
-0.20405
-0.000106891
0.000107146
-0.224588
-0.00369051
0.222413
-0.225642
-0.0028202
-0.22655
-0.00230234
-0.227265
-0.0014389
-0.227906
-0.00113828
-0.228354
-0.000524628
-0.228742
-0.000342124
-0.228983
7.92828e-05
-0.229142
5.241e-05
0.000123983
-0.241384
-0.00207814
0.239772
-0.243009
-0.00119485
-0.244337
-0.000975209
-0.24517
-0.000605053
-0.2458
-0.000508671
-0.246109
-0.000215379
-0.246332
-0.000119358
-0.246352
9.93684e-05
-0.246368
6.88409e-05
7.45458e-05
-0.25159
0.249512
-0.252785
-0.25376
-0.254365
-0.254874
-0.255089
-0.255208
-0.255109
-0.25504
-0.01837
0.0717855
0.0168199
-0.0191907
0.0873771
-0.0196106
0.103591
-0.0196023
0.122133
-0.0190895
0.143649
-0.0177086
0.168548
-0.0151671
0.194691
-0.0109498
0.218196
-0.00594565
0.234767
0.243566
-0.0173303
0.0726963
0.0164195
-0.0180087
0.0880555
-0.0183322
0.103915
-0.0182269
0.122028
-0.0176238
0.143046
-0.0162134
0.167137
-0.0137113
0.192189
-0.00991425
0.214399
-0.00528822
0.230141
0.238278
-0.0164884
0.0734573
0.0157274
-0.0170249
0.088592
-0.0172321
0.104122
-0.0170566
0.121853
-0.0164141
0.142404
-0.0150302
0.165753
-0.0126337
0.189792
-0.00913772
0.210903
-0.00482561
0.225829
0.233452
-0.0155167
0.0741524
0.0148216
-0.0159443
0.0890196
-0.0160301
0.104208
-0.0157702
0.121593
-0.015088
0.141722
-0.0137382
0.164403
-0.0114813
0.187535
-0.00828903
0.207711
-0.00434586
0.221886
0.229106
-0.0143738
0.0747673
0.0137589
-0.0147129
0.0893587
-0.0147046
0.104199
-0.0143792
0.121267
-0.0136742
0.141017
-0.0123748
0.163104
-0.0102842
0.185445
-0.00739485
0.204822
-0.00386231
0.218354
0.225244
-0.0131023
0.0752893
0.0125803
-0.0133418
0.0895982
-0.0132513
0.104109
-0.0128799
0.120896
-0.0121733
0.14031
-0.0109476
0.161878
-0.00904811
0.183545
-0.0064736
0.202247
-0.00337383
0.215254
0.22187
-0.0117379
0.0757115
0.0113156
-0.0118694
0.0897297
-0.0116965
0.103936
-0.0112879
0.120487
-0.0105944
0.139617
-0.00946329
0.160747
-0.00777604
0.181858
-0.00553464
0.200006
-0.00287802
0.212597
0.218992
-0.0103033
0.0760215
0.00999328
-0.0103274
0.0897539
-0.0100728
0.103681
-0.00963072
0.120045
-0.00895927
0.138945
-0.00793772
0.159726
-0.00647786
0.180398
-0.0045847
0.198112
-0.0023763
0.210389
0.216616
-0.00882188
0.0762003
0.00864311
-0.00874312
0.0896751
-0.00840795
0.103346
-0.00793673
0.119574
-0.00729342
0.138302
-0.00639153
0.158824
-0.00516819
0.179175
-0.00363114
0.196575
-0.00187263
0.20863
0.214743
-0.00731855
0.0762234
0.00729549
-0.00714525
0.0895018
-0.00672666
0.102928
-0.00623161
0.119079
-0.00561991
0.13769
-0.00484487
0.158049
-0.00386251
0.178192
-0.00268304
0.195396
-0.00137242
0.20732
0.213371
-0.00582758
0.0760642
0.00598677
-0.00557007
0.0892443
-0.00506094
0.102418
-0.00454424
0.118562
-0.00396417
0.13711
-0.00331848
0.157403
-0.00257653
0.17745
-0.00174996
0.194569
-0.000880761
0.20645
0.21249
-0.00439948
0.0757266
0.00473705
-0.00404579
0.0888906
-0.00345463
0.101827
-0.00290882
0.118017
-0.00236167
0.136563
-0.00183528
0.156877
-0.00132577
0.176941
-0.000844428
0.194088
-0.000403697
0.20601
0.212086
-0.00307626
0.0752262
0.00357672
-0.00260949
0.0884238
-0.00195283
0.101171
-0.00137171
0.117436
-0.000860092
0.136051
-0.000447821
0.156464
-0.000163034
0.176656
-1.46837e-05
0.19394
3.48722e-05
0.20596
0.212121
-0.00188686
0.0745911
0.00252186
-0.00128444
0.0878214
-0.000596207
0.100482
-1.33823e-05
0.116853
0.000550506
0.135487
0.000892025
0.156123
0.000987817
0.17656
0.000835726
0.194092
0.000479592
0.206316
0.212601
-0.000855239
0.0738687
0.00157764
-0.000114389
0.0870806
0.000687227
0.0996808
0.00141294
0.116127
0.00192626
0.134974
0.00216581
0.155883
0.00206692
0.176659
0.00161902
0.19454
0.000891653
0.207044
0.213493
-3.75022e-05
0.0731732
0.000733027
0.00102356
0.0860195
0.0018923
0.0988121
0.00264885
0.11537
0.00315845
0.134464
0.00332106
0.155721
0.00305066
0.17693
0.00233482
0.195255
0.0012667
0.208112
0.214759
0.000891019
0.0723443
-6.21319e-05
0.00201453
0.084896
0.00294131
0.0978853
0.00374974
0.114562
0.00426925
0.133945
0.00437706
0.155613
0.00395916
0.177348
0.00299994
0.196215
0.00161557
0.209496
0.216375
0.00161053
0.0714768
-0.000743019
0.00284419
0.0836623
0.00381957
0.0969099
0.0046721
0.113709
0.00520137
0.133416
0.00526764
0.155547
0.00472988
0.177885
0.00356615
0.197378
0.00190973
0.211153
0.218285
0.0022646
0.0706257
-0.00141344
0.0036029
0.082324
0.00463324
0.0958796
0.00553137
0.112811
0.00608061
0.132866
0.00611618
0.155511
0.00546752
0.178534
0.00410781
0.198738
0.00219183
0.213069
0.220476
0.00259085
0.0701031
-0.00206827
0.00397127
0.0809436
0.00504852
0.0948023
0.00597527
0.111885
0.0065459
0.132296
0.00658417
0.155473
0.00589058
0.179228
0.00442476
0.200204
0.00234769
0.215146
0.222824
-0.0573886
0.0638781
0.0636136
-0.0517652
0.0753201
-0.0476621
0.0906993
-0.0433154
0.107538
-0.0386155
0.127596
-0.033083
0.14994
-0.0263243
0.172469
-0.0183064
0.192186
-0.00935074
0.20619
0.213473
-0.0687502
0.0588334
0.073795
-0.0637626
0.0703325
-0.0590088
0.0859455
-0.0536677
0.102197
-0.0479792
0.121907
-0.0411121
0.143073
-0.0327277
0.164085
-0.0228439
0.182302
-0.0118362
0.195182
0.201637
-0.0819384
0.0538877
0.0868841
-0.0768471
0.0652412
-0.0712496
0.080348
-0.0650154
0.0959626
-0.0581012
0.114993
-0.0494715
0.134444
-0.0391307
0.153744
-0.0270791
0.170251
-0.0137166
0.18182
0.187921
-0.0979798
0.0491138
0.102754
-0.0923367
0.0595981
-0.0860241
0.0740355
-0.0788714
0.0888098
-0.0703663
0.106488
-0.0596475
0.123725
-0.0470585
0.141155
-0.0325813
0.155773
-0.0168285
0.166067
0.171092
-0.116109
0.04347
0.121752
-0.10994
0.0534297
-0.102648
0.0667427
-0.0937806
0.0799428
-0.0828436
0.0955511
-0.069508
0.110389
-0.0542704
0.125917
-0.0369459
0.138449
-0.0184159
0.147537
0.152676
-0.138359
0.0378629
0.143967
-0.131029
0.0460988
-0.122168
0.0578825
-0.111056
0.0688302
-0.0975757
0.0820711
-0.0816994
0.0945128
-0.0635699
0.107788
-0.0433014
0.11818
-0.0222158
0.126451
0.13046
-0.160789
0.0306384
0.168013
-0.151876
0.0371857
-0.140777
0.0467833
-0.126902
0.0549556
-0.1105
0.0656687
-0.0912474
0.0752606
-0.0691993
0.0857396
-0.0451981
0.0941791
-0.0213342
0.102587
0.109126
-0.185538
0.0230013
0.193176
-0.174939
0.0265864
-0.161742
0.0335867
-0.145687
0.0389002
-0.126813
0.0467943
-0.10464
0.0530879
-0.0797848
0.0608844
-0.0535602
0.0679545
-0.0282082
0.0772355
0.080918
-0.20288
0.0110446
0.214836
-0.189471
0.0131777
-0.172629
0.0167446
-0.153064
0.0193357
-0.129824
0.0235538
-0.10343
0.0266945
-0.0738499
0.0313038
-0.0416222
0.0357268
-0.00932291
0.0449362
0.0715951
-0.283068
0.294113
-0.269891
-0.253146
-0.23381
-0.210256
-0.183562
-0.152258
-0.116531
-0.0715951
-0.000449379
0.0656175
-0.00155455
-0.00192691
0.0752725
-0.00312167
0.0880789
-0.00401389
0.103646
-0.00454094
0.12228
-0.0046526
0.144078
-0.00423112
0.167592
-0.00327296
0.192217
-0.00275334
0.214317
0.29136
-9.41268e-07
0.0675764
-0.00195801
-0.00156777
0.0768393
-0.00283409
0.0893452
-0.0037519
0.104564
-0.00432059
0.122848
-0.00445066
0.144208
-0.00409634
0.167238
-0.00316589
0.191287
-0.00250645
0.213657
0.288853
0.000603667
0.0693639
-0.00239111
-0.000979125
0.0784221
-0.00222625
0.0905923
-0.00313075
0.105468
-0.00372505
0.123443
-0.00388673
0.14437
-0.00363399
0.166985
-0.00280061
0.190454
-0.00226767
0.213124
0.286586
0.00114855
0.0710657
-0.00285036
-0.000413287
0.0799839
-0.0015435
0.0917225
-0.00240573
0.106331
-0.00297809
0.124015
-0.00318657
0.144578
-0.00301319
0.166811
-0.00234346
0.189784
-0.00195384
0.212735
0.284632
0.00168303
0.0727116
-0.00332893
0.000161438
0.0815055
-0.000864869
0.0927489
-0.0016696
0.107135
-0.00220644
0.124552
-0.00243773
0.14481
-0.00233534
0.166709
-0.0018277
0.189276
-0.00159164
0.212499
0.28304
0.00224821
0.0742787
-0.00381528
0.000876084
0.0828777
-0.000132098
0.093757
-0.000871021
0.107874
-0.0013733
0.125054
-0.00162421
0.145061
-0.00159946
0.166684
-0.00125757
0.188934
-0.00119116
0.212432
0.281849
0.00284348
0.0757366
-0.00430144
0.00161446
0.0841067
0.00071299
0.0946585
-1.78302e-05
0.108605
-0.000454947
0.125491
-0.000733244
0.145339
-0.000778102
0.166729
-0.00063439
0.188791
-0.000751012
0.212549
0.281098
0.00346171
0.0770553
-0.00478041
0.00238532
0.0851831
0.00159326
0.0954506
0.000988992
0.109209
0.000544295
0.125936
0.000232996
0.14565
0.000137388
0.166825
7.75145e-06
0.18892
-0.00026614
0.212823
0.280832
0.00409632
0.0782013
-0.00524233
0.0031784
0.086101
0.0025009
0.0961281
0.00199439
0.109716
0.00159612
0.126334
0.00128742
0.145959
0.00104558
0.167067
0.000801412
0.189164
0.000234302
0.21339
0.281066
0.00473392
0.0791403
-0.00567287
0.00398066
0.0868543
0.00342775
0.096681
0.00302124
0.110122
0.0026778
0.126678
0.00235344
0.146283
0.00201023
0.16741
0.00157231
0.189602
0.000737233
0.214225
0.281803
0.00535303
0.0798353
-0.00604802
0.00477101
0.0874363
0.00435194
0.0971
0.00405106
0.110423
0.00376612
0.126962
0.00343212
0.146617
0.00299174
0.16785
0.00235531
0.190239
0.00126085
0.215319
0.283064
0.00594569
0.0802529
-0.00636334
0.00554037
0.0878416
0.00526257
0.0973778
0.00507271
0.110613
0.00485172
0.127183
0.00451711
0.146952
0.00398017
0.168387
0.00315128
0.191068
0.00179405
0.216677
0.284858
0.00648125
0.0803755
-0.00660385
0.00626193
0.0880609
0.00613218
0.0975076
0.00605686
0.110688
0.00590847
0.127332
0.00558315
0.147277
0.00495776
0.169012
0.00394631
0.192079
0.00232881
0.218294
0.287187
0.00694084
0.0801968
-0.00676214
0.00691713
0.0880846
0.00693724
0.0974875
0.00697965
0.110646
0.00691447
0.127397
0.00660718
0.147585
0.00590673
0.169713
0.00472497
0.193261
0.00285571
0.220163
0.290043
0.00730926
0.0797225
-0.00683489
0.00749031
0.0879036
0.00765808
0.0973197
0.00782028
0.110484
0.00784759
0.12737
0.00757181
0.14786
0.00681594
0.170469
0.00547897
0.194598
0.00337179
0.222271
0.293414
0.00757435
0.0789743
-0.00682623
0.00796654
0.0875114
0.00827548
0.0970108
0.00855624
0.110203
0.00868129
0.127245
0.00844942
0.148092
0.00766036
0.171258
0.00618772
0.19607
0.00386299
0.224595
0.297277
0.00773651
0.0779887
-0.00675085
0.00834314
0.0869048
0.00878553
0.0965684
0.00918349
0.109805
0.00941392
0.127014
0.0092426
0.148263
0.00844242
0.172058
0.0068557
0.197657
0.00433344
0.227118
0.301611
0.00778525
0.0768365
-0.00663313
0.00859215
0.0860979
0.00915468
0.0960058
0.00965806
0.109302
0.00999099
0.126681
0.00988972
0.148365
0.00910478
0.172843
0.00744201
0.19932
0.00475684
0.229803
0.306368
0.00781436
0.0755432
-0.00652102
0.00881042
0.0851018
0.00947829
0.095338
0.0100765
0.108703
0.0105111
0.126247
0.0104875
0.148388
0.00972584
0.173605
0.00799419
0.201052
0.00515581
0.232641
0.311524
0.00752164
0.0744303
-0.00640871
0.00862801
0.0839954
0.00943245
0.0945335
0.0101195
0.108016
0.0106645
0.125702
0.0107431
0.14831
0.0100811
0.174267
0.00834992
0.202783
0.00546856
0.235522
0.316992
-0.0420938
0.0682904
0.0482337
-0.0353407
0.0772424
-0.0301244
0.0893172
-0.0251214
0.103013
-0.0202744
0.120855
-0.0152482
0.143284
-0.0099583
0.168977
-0.00487325
0.197698
-0.00191224
0.232561
0.31508
-0.0579336
0.0619841
0.0642399
-0.0513562
0.070665
-0.0449817
0.0829427
-0.0383108
0.0963426
-0.0317048
0.114249
-0.024564
0.136143
-0.0168583
0.161271
-0.00927458
0.190114
-0.00404679
0.227334
0.311033
-0.0752141
0.0554005
0.0817976
-0.0679429
0.0633938
-0.0603637
0.0753635
-0.0523777
0.0883566
-0.0441945
0.106065
-0.0348041
0.126752
-0.0245353
0.151002
-0.014193
0.179772
-0.00601513
0.219156
0.305018
-0.0942976
0.048803
0.100895
-0.0860508
0.055147
-0.0776413
0.066954
-0.0685122
0.0792275
-0.0584087
0.0959619
-0.0463951
0.114739
-0.0332573
0.137864
-0.0197832
0.166298
-0.00843911
0.207812
0.296579
-0.115715
0.0411328
0.123385
-0.107369
0.0468016
-0.0983714
0.0579562
-0.0875468
0.0684029
-0.0749906
0.0834057
-0.0601851
0.0999334
-0.0439565
0.121636
-0.0267821
0.149123
-0.0114647
0.192494
0.285114
-0.141778
0.0338355
0.149075
-0.132603
0.0376268
-0.12209
0.0474433
-0.10918
0.0554926
-0.0943146
0.0685406
-0.0768828
0.0825015
-0.057346
0.102099
-0.0361083
0.127885
-0.0164553
0.172841
0.268659
-0.171552
0.0247533
0.180634
-0.161972
0.0280466
-0.150072
0.0355437
-0.135826
0.0412459
-0.119184
0.0518992
-0.0990486
0.0623661
-0.0760565
0.0791069
-0.0505714
0.1024
-0.0246897
0.14696
0.243969
-0.207032
0.0158299
0.215956
-0.196274
0.0172886
-0.183093
0.0223628
-0.167742
0.0258944
-0.149189
0.033346
-0.127259
0.0404365
-0.102233
0.0540809
-0.0735766
0.0737438
-0.0407549
0.114138
0.203214
-0.257918
0.00624092
0.267507
-0.247724
0.00709458
-0.234771
0.00940984
-0.220246
0.0113693
-0.202076
0.0151768
-0.181127
0.0194875
-0.154886
0.0278392
-0.121534
0.040392
-0.0738425
0.0664464
0.129372
-0.326587
0.332828
-0.319493
-0.310083
-0.298714
-0.283537
-0.264049
-0.23621
-0.195818
-0.129372
0.00281013
0.050514
-0.00509049
-3.14725e-05
0.0670815
-0.00196788
0.083734
-0.00368026
0.102608
-0.00500806
0.124713
-0.00598946
0.150056
-0.0062582
0.180903
-0.00609036
0.215788
-0.00421954
0.265636
0.328609
0.00289158
0.0524482
-0.0048258
0.000449806
0.0695233
-0.00158025
0.0857641
-0.00330768
0.104335
-0.00466863
0.126074
-0.00565017
0.151038
-0.006
0.181253
-0.00583861
0.215626
-0.00409866
0.263896
0.32451
0.00318039
0.0539105
-0.00464261
0.00106798
0.0716357
-0.000883787
0.0877158
-0.00255239
0.106004
-0.00390212
0.127423
-0.00488006
0.152016
-0.00531044
0.181683
-0.00517538
0.215491
-0.00375389
0.262474
0.320756
0.00353611
0.0549124
-0.00453805
0.00172722
0.0734446
-0.000135989
0.0895791
-0.00166694
0.107535
-0.00296144
0.128718
-0.00395368
0.153008
-0.0044451
0.182175
-0.00443112
0.215477
-0.00330655
0.26135
0.31745
0.00394018
0.0554633
-0.00449104
0.00246414
0.0749206
0.00081601
0.0912272
-0.000709651
0.10906
-0.0019319
0.12994
-0.00293151
0.154008
-0.00348997
0.182733
-0.00362844
0.215616
-0.00279252
0.260514
0.314657
0.00441526
0.0555275
-0.00447945
0.00331275
0.0760231
0.00187117
0.0926688
0.000404533
0.110527
-0.000786631
0.131131
-0.0018028
0.155024
-0.0024511
0.183381
-0.00275737
0.215922
-0.00222588
0.259982
0.312431
0.00496311
0.0550476
-0.00448329
0.00426821
0.076718
0.00304442
0.0938926
0.00172924
0.111842
0.000519422
0.132341
-0.000570455
0.156114
-0.00130075
0.184112
-0.00181278
0.216434
-0.00161315
0.259783
0.310818
0.00555807
0.0539714
-0.0044818
0.00530919
0.0769669
0.00432386
0.0948779
0.00313298
0.113033
0.00196996
0.133504
0.000847146
0.157237
1.41021e-05
0.184945
-0.000807586
0.217256
-0.00095596
0.259931
0.309862
0.00616463
0.0522615
-0.00445472
0.00640992
0.0767216
0.00568792
0.0955999
0.00462391
0.114097
0.00349456
0.134633
0.00236175
0.158369
0.00131723
0.185989
0.000261112
0.218312
-0.000249246
0.260442
0.309613
0.00674314
-0.00438732
0.00754145
0.00711396
0.00618609
0.0050851
0.00391715
0.00272186
0.00146073
0.00044014
0.000274766
-0.000903235
0.000911943
-0.0026355
0.00182829
-0.00396747
0.00295722
-0.00490787
0.00424817
-0.00550014
0.0056666
-0.00579868
0.0071942
-0.00585831
0.00883288
-0.00572913
0.0106265
-0.0054664
-0.00518966
0.000334069
-0.0012373
0.001065
-0.00336644
0.00207901
-0.00498148
0.00329134
-0.00612019
0.00464243
-0.00685123
0.00609554
-0.0072518
0.00763398
-0.00739675
0.00925908
-0.00735424
0.010984
-0.00719129
-0.00699333
0.000382378
-0.00161968
0.00117638
-0.00416043
0.0022365
-0.0060416
0.00346029
-0.00734398
0.00478074
-0.00817169
0.00615998
-0.00863104
0.00758193
-0.0088187
0.00904463
-0.00881694
0.0105482
-0.00869481
-0.00851574
0.000415429
-0.00203511
0.00123417
-0.00497917
0.00228087
-0.0070883
0.00343923
-0.00850234
0.00463961
-0.00937207
0.00584785
-0.00983928
0.00705347
-0.0100243
0.00825896
-0.0100224
0.00946863
-0.00990449
-0.00972543
0.000429445
-0.00246456
0.00122962
-0.00577934
0.00220124
-0.00805992
0.00322143
-0.00952253
0.00422524
-0.0103759
0.0051884
-0.0108024
0.00611114
-0.0109471
0.00700542
-0.0109167
0.00788545
-0.0107845
-0.0106038
0.000421479
-0.00288604
0.00115809
-0.00651595
0.00199672
-0.00889856
0.00281775
-0.0103436
0.00356864
-0.0111268
0.00423989
-0.0114737
0.00484479
-0.011552
0.00540523
-0.0114772
0.00594379
-0.0113231
-0.0111417
0.000389811
-0.00327585
0.00101971
-0.00714585
0.00167629
-0.00955513
0.00225353
-0.0109208
0.00271746
-0.0115907
0.00307535
-0.0118316
0.00335242
-0.011829
0.00357746
-0.0117022
0.0037765
-0.0115221
-0.0113372
0.00033426
-0.00361011
0.000819457
-0.00763104
0.00125708
-0.00999275
0.00156373
-0.0112275
0.00172711
-0.0117541
0.00177009
-0.0118746
0.0017263
-0.0117852
0.00162691
-0.0116028
0.00149641
-0.0113916
-0.0111915
0.000256321
-0.00386643
0.000566502
-0.00794122
0.000761824
-0.0101881
0.000787661
-0.0112533
0.000653154
-0.0116196
0.000393361
-0.0116148
4.5802e-05
-0.0114377
-0.000359456
-0.0111975
-0.000802589
-0.0109485
-0.0107209
0.000158973
-0.0040254
0.000273027
-0.00805528
0.000216028
-0.0101311
-3.56923e-05
-0.0110016
-0.000453521
-0.0112017
-0.000995269
-0.011073
-0.00162336
-0.0108096
-0.00231206
-0.0105088
-0.00304643
-0.0102141
-0.00994627
6.61683e-05
-0.00409157
-1.85282e-05
-0.00797058
-0.000326105
-0.0098235
-0.000843434
-0.0104842
-0.00152657
-0.0105186
-0.00232879
-0.0102708
-0.0032151
-0.00992327
-0.0041645
-0.00955944
-0.00516712
-0.0092115
-0.00889049
-4.99738e-05
-0.00404159
-0.000343116
-0.00767744
-0.000890797
-0.00927582
-0.0016519
-0.00972314