/*--------------------------------*- C++ -*----------------------------------*\
  =========                 |
  \\      /  F ield         | OpenFOAM: The Open Source CFD Toolbox
   \\    /   O peration     | Website:  https://openfoam.org
    \\  /    A nd           | Version:  7
     \\/     M anipulation  |
\*---------------------------------------------------------------------------*/
FoamFile
{
    version     2.0;
    format      ascii;
    class       volVectorField;
    location    "53";
    object      U;
}
// * * * * * * * * * * * * * * * * * * * * * * * * * * * * * * * * * * * * * //

dimensions      [0 1 -1 0 0 0 0];

internalField   nonuniform List<vector> 
2000
(
(-0.00094821 -0.00667773 -8.31619e-22)
(-0.0026116 -0.0100051 0)
(-0.00355588 -0.00780671 0)
(-0.00283525 -0.00165859 -4.10954e-21)
(-0.000481384 0.00773708 1.2866e-21)
(0.00338811 0.0200399 2.56406e-23)
(0.00858146 0.0349942 -2.21969e-21)
(0.0148201 0.0522821 0)
(0.0216716 0.0714453 0)
(0.0286786 0.0918237 0)
(-0.000687326 -0.00572987 0)
(-0.00230848 -0.00915546 -3.19947e-21)
(-0.00356323 -0.00777643 2.95059e-21)
(-0.00344821 -0.00283757 5.47496e-21)
(-0.00195955 0.00508487 0)
(0.00083975 0.0157424 4.85294e-21)
(0.00483692 0.0289897 -4.51281e-21)
(0.00984759 0.0446522 0)
(0.0155132 0.0624465 8.18413e-21)
(0.0213698 0.0819353 -1.579e-20)
(-0.000495804 -0.00470272 0)
(-0.00181186 -0.00819673 2.58284e-20)
(-0.00292938 -0.00757322 0)
(-0.00296089 -0.00376736 2.24275e-20)
(-0.00191295 0.00274027 0)
(0.000170718 0.0117528 -1.97227e-20)
(0.00323073 0.0231979 0)
(0.00716587 0.0370264 1.75389e-20)
(0.0117125 0.0531449 -1.64259e-20)
(0.0163707 0.0713913 -1.60954e-20)
(-0.000340264 -0.00369529 -6.81326e-21)
(-0.00102166 -0.00725128 -1.2843e-20)
(-0.00148748 -0.00726319 -6.00478e-21)
(-0.00113708 -0.00441946 -1.10767e-20)
(-2.58463e-05 0.000860317 -1.04844e-20)
(0.00178828 0.00838594 9.72596e-21)
(0.00427009 0.0181068 9.2954e-21)
(0.0073815 0.030057 1.20961e-23)
(0.0109728 0.0443225 1.66751e-20)
(0.0144922 0.0610379 1.60953e-20)
(-0.000159757 -0.00281444 -6.8208e-21)
(0.000189613 -0.00644809 -1.31e-20)
(0.000932811 -0.0069242 -2.45231e-20)
(0.00223359 -0.00478786 1.12827e-20)
(0.00396269 -0.000430638 0)
(0.00602317 0.00592192 0)
(0.00837645 0.0141877 -1.90798e-20)
(0.0110217 0.0244225 -1.80258e-20)
(0.0139371 0.0368492 1.70826e-20)
(0.0165484 0.0518717 4.93799e-20)
(0.000131753 -0.00215827 6.84614e-21)
(0.00196685 -0.00590377 6.64929e-21)
(0.00448558 -0.00663619 -3.66918e-20)
(0.00730168 -0.0048967 5.73863e-20)
(0.0102017 -0.00107521 -1.0654e-20)
(0.0130404 0.00453871 0)
(0.0157605 0.0117879 0)
(0.0183719 0.0206822 9.07413e-20)
(0.0209831 0.0315097 -8.56803e-20)
(0.0230899 0.0448634 1.63926e-20)
(0.000641384 -0.00180453 5.42202e-20)
(0.00445914 -0.00570122 0)
(0.00928793 -0.00646699 4.89265e-20)
(0.0141249 -0.00479614 -4.58524e-20)
(0.0186799 -0.00109782 0)
(0.0227646 0.00426231 2.05109e-20)
(0.0263048 0.0110287 -5.7546e-20)
(0.0293073 0.0191103 -7.29203e-20)
(0.0319941 0.0287714 3.43004e-20)
(0.034075 0.0406873 3.31872e-20)
(0.00148596 -0.00178953 -1.08133e-19)
(0.00780838 -0.00587635 -1.31967e-20)
(0.0154015 -0.00645581 -2.45379e-20)
(0.0226475 -0.00454555 -5.74728e-20)
(0.0291976 -0.000595938 -2.18242e-20)
(0.0348416 0.00495344 -2.05277e-20)
(0.0395041 0.0117543 4.01929e-23)
(0.0431912 0.0195914 0)
(0.0462117 0.0286223 0)
(0.0486481 0.0394951 9.1023e-23)
(0.00277475 -0.00210472 5.39137e-20)
(0.0121254 -0.00640449 -5.22786e-20)
(0.0228177 -0.00659447 3.67059e-20)
(0.0326886 -0.00419474 8.0705e-20)
(0.0413677 0.00028133 -2.14558e-20)
(0.0486601 0.00633182 2.06353e-20)
(0.0545171 0.0135493 1.93761e-20)
(0.0589484 0.021629 0)
(0.0622874 0.030607 0)
(0.0651014 0.0410025 -3.50745e-22)
(0.00460355 -0.00269962 -6.67077e-21)
(0.0174681 -0.00718958 6.54625e-20)
(0.0314359 -0.00682083 -1.21499e-20)
(0.0439344 -0.00377086 0)
(0.0546324 0.00135863 0)
(0.0634151 0.00801546 4.06097e-20)
(0.0703249 0.015781 0)
(0.0754294 0.0243604 -3.59461e-20)
(0.0789879 0.0337929 -2.84428e-22)
(0.0816657 0.0444265 3.23354e-20)
(0.046246 0.138493 6.29852e-22)
(0.0660355 0.214955 -6.37486e-22)
(0.0690335 0.27437 -7.35327e-22)
(0.0649394 0.329533 -8.11187e-22)
(0.0554915 0.389072 -9.30216e-22)
(0.0485036 0.457321 -1.96019e-23)
(0.033846 0.536444 4.8614e-22)
(0.0294387 0.629276 1.62276e-21)
(0.00593512 0.748845 0)
(0.00953754 0.886982 -1.16051e-21)
(0.0365914 0.128353 2.3451e-21)
(0.0594002 0.208779 -2.77772e-21)
(0.0649834 0.272762 4.98532e-21)
(0.0621304 0.330111 8.12593e-22)
(0.0533292 0.390544 1.72092e-21)
(0.0467505 0.45927 2.81867e-21)
(0.0326376 0.538831 -1.01828e-21)
(0.0284085 0.632128 -1.0846e-21)
(0.00579516 0.751654 2.15768e-21)
(0.00905431 0.888792 1.15775e-21)
(0.0281554 0.116877 0)
(0.0529728 0.200264 -2.65284e-21)
(0.0613011 0.269468 -1.45414e-21)
(0.0597342 0.329468 0)
(0.0515209 0.390977 -5.24537e-21)
(0.0453012 0.460282 1.68453e-21)
(0.0316404 0.540383 1.82507e-21)
(0.0275336 0.634281 6.0557e-21)
(0.00573121 0.754106 -2.15071e-21)
(0.00862201 0.890447 4.30215e-21)
(0.021818 0.104762 0)
(0.046789 0.189386 2.67536e-21)
(0.0579632 0.264382 0)
(0.0577243 0.327533 6.38493e-21)
(0.0500557 0.390326 -6.41779e-21)
(0.0441467 0.460264 -3.64753e-21)
(0.0308524 0.540879 -1.46514e-22)
(0.0268243 0.635375 -5.94273e-21)
(0.00574383 0.755673 -9.85159e-22)
(0.00821508 0.891668 -5.30996e-21)
(0.0187938 0.0929011 4.03856e-22)
(0.0410334 0.17637 -7.64207e-21)
(0.0549425 0.257404 3.19355e-22)
(0.0560639 0.324261 -5.8692e-21)
(0.0489147 0.388695 0)
(0.0432553 0.459469 -3.54265e-21)
(0.0302371 0.540781 -1.75763e-22)
(0.0262476 0.636102 7.63217e-21)
(0.00580387 0.757126 9.91379e-22)
(0.00785217 0.892871 -9.94915e-22)
(0.0203192 0.082267 -2.08043e-20)
(0.0361417 0.161835 1.33308e-20)
(0.0522206 0.248472 5.80563e-21)
(0.0547272 0.319514 -5.80249e-21)
(0.0480939 0.385849 -3.12752e-21)
(0.0426444 0.457457 0)
(0.0298217 0.53935 -7.07105e-21)
(0.025825 0.635397 3.51378e-21)
(0.00593204 0.7573 3.72805e-21)
(0.00749684 0.893504 3.80276e-21)
(0.0270947 0.0737458 -2.58286e-21)
(0.0328746 0.146794 0)
(0.049801 0.237598 0)
(0.0536702 0.313463 0)
(0.0475632 0.382364 -3.25116e-21)
(0.0422475 0.455228 6.3688e-21)
(0.0295352 0.538056 6.9504e-21)
(0.0254876 0.635131 -1.06053e-20)
(0.00606606 0.758058 1.8309e-21)
(0.00719381 0.894405 -5.57954e-21)
(0.0387951 0.0678122 1.60008e-20)
(0.0322423 0.132518 1.13101e-20)
(0.0478181 0.224892 -1.12085e-20)
(0.0528993 0.305405 1.19853e-20)
(0.0473264 0.376879 -1.48853e-20)
(0.0421606 0.450844 0)
(0.0294739 0.534328 -3.25127e-21)
(0.025323 0.632294 1.04176e-22)
(0.00629392 0.756637 -3.41867e-21)
(0.00687453 0.894454 -3.48322e-21)
(0.0539163 0.0639928 -1.36674e-20)
(0.0352162 0.119578 0)
(0.0464101 0.211303 -1.2975e-20)
(0.0523893 0.297467 2.32826e-20)
(0.0473273 0.372663 -8.68109e-21)
(0.0421563 0.448462 -1.53366e-21)
(0.0294494 0.533055 3.24441e-21)
(0.0251515 0.632061 1.78763e-23)
(0.00644346 0.757375 4.99138e-21)
(0.00662836 0.895285 5.09484e-21)
(0.0698088 0.0620694 -1.14303e-20)
(0.0425975 0.10737 1.11784e-20)
(0.0464186 0.193277 1.4281e-21)
(0.0520817 0.282868 0)
(0.0476302 0.361745 0)
(0.0426969 0.43958 1.47968e-21)
(0.0297927 0.525365 6.03208e-21)
(0.0252817 0.625958 -5.85592e-21)
(0.00680196 0.753747 -1.50125e-21)
(0.00632777 0.894699 1.45524e-21)
(0.093598 0.0740064 0)
(0.0616825 0.10783 0)
(0.0520545 0.182208 0)
(0.0543271 0.277525 0)
(0.0485586 0.36285 0)
(0.0427523 0.443816 0)
(0.0300117 0.530181 0)
(0.0248764 0.631029 0)
(0.00692879 0.758245 0)
(0.00589764 0.897342 0)
(0.107915 0.100618 0)
(0.0848691 0.13888 0)
(0.064472 0.195247 0)
(0.0593738 0.281911 0)
(0.0516759 0.369453 0)
(0.0428515 0.452333 0)
(0.0288711 0.540219 0)
(0.0230383 0.643098 0)
(0.00665143 0.769916 0)
(0.00530381 0.904653 0)
(0.109291 0.110293 0)
(0.0967518 0.159879 0)
(0.0759818 0.212763 0)
(0.0646598 0.292131 0)
(0.0555093 0.37982 0)
(0.0464266 0.463548 0)
(0.0318626 0.55006 0)
(0.0240225 0.651413 0)
(0.0075332 0.777363 0)
(0.00512628 0.908982 0)
(0.102953 0.11373 0)
(0.0981487 0.173269 0)
(0.0825501 0.22889 0)
(0.069177 0.30482 0)
(0.0569062 0.39181 0)
(0.0453909 0.476084 0)
(0.0309277 0.563338 0)
(0.0231688 0.664972 0)
(0.00786787 0.789708 0)
(0.00487662 0.917077 0)
(0.0922194 0.113631 0)
(0.0921984 0.180785 0)
(0.0823915 0.241061 0)
(0.0713762 0.316369 0)
(0.0606088 0.404073 0)
(0.049043 0.488783 0)
(0.0333256 0.574129 0)
(0.0238715 0.673612 0)
(0.00853227 0.796629 0)
(0.00479442 0.921032 0)
(0.0777835 0.111491 0)
(0.0812325 0.184048 0)
(0.0768513 0.250859 0)
(0.067781 0.328239 0)
(0.0565453 0.416135 0)
(0.0456215 0.502273 0)
(0.0317236 0.588929 0)
(0.0227561 0.688622 0)
(0.00848617 0.810263 0)
(0.0044695 0.93048 0)
(0.0614368 0.106903 0)
(0.0672102 0.181512 0)
(0.0685291 0.253662 0)
(0.0657402 0.33593 0)
(0.0578209 0.427133 0)
(0.0468799 0.513707 0)
(0.0324598 0.598547 0)
(0.022915 0.69602 0)
(0.00880616 0.815846 0)
(0.00439153 0.933811 0)
(0.0449363 0.101397 0)
(0.0516467 0.178151 0)
(0.0543943 0.254966 0)
(0.0532848 0.340732 0)
(0.048378 0.434969 0)
(0.0410765 0.525766 0)
(0.0295407 0.613499 0)
(0.0211201 0.711974 0)
(0.00842121 0.830461 0)
(0.00401545 0.94415 0)
(0.0297682 0.0924897 0)
(0.0392232 0.169605 0)
(0.0473153 0.252093 0)
(0.0507446 0.344446 0)
(0.0474374 0.441942 0)
(0.040399 0.532687 0)
(0.0292913 0.619216 0)
(0.0209492 0.716144 0)
(0.00845111 0.833536 0)
(0.00393851 0.945921 0)
(0.0124129 0.0830669 0)
(0.0184947 0.157743 0)
(0.0265249 0.240574 0)
(0.0337846 0.337946 0)
(0.0361979 0.443586 0)
(0.033739 0.54235 0)
(0.0259085 0.633696 0)
(0.0190888 0.732592 0)
(0.00811208 0.84875 0)
(0.00357819 0.956678 0)
(0.113612 0.0594459 9.3977e-21)
(0.118762 0.0704944 -9.25081e-21)
(0.115137 0.0721823 7.96674e-22)
(0.106038 0.0708915 0)
(0.0931105 0.0674786 0)
(0.0765772 0.063483 1.78802e-22)
(0.0583353 0.0583077 -3.91993e-23)
(0.0403673 0.0526703 3.85818e-23)
(0.0244571 0.0453054 -5.62434e-23)
(0.00912201 0.0371325 5.5423e-23)
(0.118416 0.0530108 -1.22439e-20)
(0.118022 0.0583462 0)
(0.112196 0.0566139 4.40685e-21)
(0.102227 0.0532547 -8.60878e-21)
(0.0891586 0.0483451 4.10011e-21)
(0.0728922 0.0434305 -1.75852e-22)
(0.0551543 0.0378144 7.18376e-23)
(0.0376766 0.0320562 -1.70641e-22)
(0.0221764 0.0252231 -7.96812e-23)
(0.00790372 0.0173956 -4.18961e-23)
(0.120462 0.0453605 1.37e-20)
(0.116778 0.0459521 -6.43027e-21)
(0.109822 0.0414484 6.36797e-21)
(0.0992131 0.0361683 -3.23101e-21)
(0.0859114 0.0296663 2.55966e-21)
(0.0697113 0.0236466 0)
(0.052283 0.0173379 -7.20013e-23)
(0.0351983 0.0113176 -1.51832e-24)
(0.0200734 0.00487634 1.21831e-22)
(0.00665531 -0.00255403 9.80638e-23)
(0.120739 0.0357079 -2.09179e-21)
(0.114555 0.0322729 0)
(0.106907 0.0255381 0)
(0.0959192 0.0186885 0)
(0.0826044 0.0108182 1.42316e-21)
(0.0666287 0.00385617 -8.53593e-22)
(0.049589 -0.00310983 6.57094e-23)
(0.0329208 -0.00939001 1.38259e-22)
(0.0181631 -0.0155876 5.12469e-23)
(0.00559873 -0.0225201 3.36539e-23)
(0.119404 0.0243026 -1.28131e-21)
(0.111446 0.0175601 -5.4905e-21)
(0.103449 0.00895029 -2.12458e-21)
(0.0922591 0.000813896 2.12293e-21)
(0.0790685 -0.00822174 -5.62657e-22)
(0.063439 -0.0159388 0)
(0.0468831 -0.0234619 -5.64462e-23)
(0.0307191 -0.0299531 -1.60172e-22)
(0.0164144 -0.0359945 8.7933e-23)
(0.00467292 -0.0423301 -8.56898e-23)
(0.116772 0.0115496 -1.46736e-20)
(0.107667 0.00220019 2.47876e-21)
(0.0995832 -0.00805291 6.88698e-22)
(0.0883441 -0.0172411 2.04084e-21)
(0.0753934 -0.0272819 0)
(0.0601845 -0.0355973 0)
(0.0441655 -0.0435819 0)
(0.0285687 -0.0502297 -5.03906e-23)
(0.0147852 -0.0561385 0)
(0.00385475 -0.0618032 0)
(0.113079 -0.00215248 0)
(0.103347 -0.0134434 4.09619e-21)
(0.0953957 -0.0251914 -2.64076e-21)
(0.0842182 -0.0352209 -1.35033e-21)
(0.0716154 -0.0461357 1.35722e-21)
(0.0568908 -0.0549265 1.7061e-22)
(0.0414526 -0.0632932 -2.39071e-22)
(0.0264647 -0.0700402 9.87587e-23)
(0.0132569 -0.0757915 -1.35598e-23)
(0.00314013 -0.0807362 3.61346e-23)
(0.108508 -0.0164499 0)
(0.0986024 -0.0290537 -1.45627e-21)
(0.0909237 -0.0421931 -5.66227e-22)
(0.0799134 -0.0528645 0)
(0.0677508 -0.0645486 1.35261e-22)
(0.0535736 -0.0737172 -5.5018e-22)
(0.0387485 -0.0823913 1.00914e-22)
(0.0244075 -0.0891764 -5.0658e-23)
(0.0118256 -0.0947137 2.81953e-23)
(0.00253086 -0.0989115 -5.4209e-23)
(0.10318 -0.0310451 1.86186e-21)
(0.0935165 -0.0443506 1.27232e-21)
(0.0861908 -0.0588038 -4.36346e-22)
(0.0754666 -0.0699409 2.0648e-22)
(0.0638183 -0.082292 2.67404e-22)
(0.0502434 -0.091757 2.2151e-22)
(0.0360595 -0.100658 -3.20714e-23)
(0.0224053 -0.107416 -2.86379e-24)
(0.0104942 -0.112666 -2.82874e-23)
(0.00201956 -0.116119 -7.65607e-24)
(0.0972239 -0.045645 -3.89836e-22)
(0.0881384 -0.0591129 3.93528e-22)
(0.0812579 -0.0748024 -2.81962e-22)
(0.0709207 -0.0862464 -2.06159e-22)
(0.0598378 -0.0991551 1.09788e-22)
(0.0469187 -0.108847 -1.88162e-22)
(0.0334013 -0.117881 4.24061e-23)
(0.0204747 -0.124545 -7.55067e-24)
(0.00926943 -0.129435 0)
(0.00159661 -0.132178 7.67074e-24)
(0.0908899 -0.0599976 3.93303e-22)
(0.0826002 -0.0731788 -3.96732e-22)
(0.0762297 -0.0900072 -2.89626e-22)
(0.0663663 -0.10162 -2.15837e-22)
(0.0558645 -0.114957 -1.1642e-22)
(0.0436429 -0.124817 2.59841e-23)
(0.0308054 -0.133873 3.2843e-23)
(0.0186387 -0.140385 3.02503e-23)
(0.00815857 -0.14485 0)
(0.00125193 -0.146954 2.04277e-24)
(0.0844622 -0.0739368 0)
(0.0770894 -0.0864426 -1.30957e-21)
(0.0712431 -0.104271 2.20353e-21)
(0.0619222 -0.115946 2.16149e-22)
(0.0519757 -0.129552 3.15488e-22)
(0.0404736 -0.139538 2.91032e-22)
(0.0283121 -0.148491 -4.6656e-23)
(0.0169216 -0.154811 -1.62758e-23)
(0.00716665 -0.158809 1.20673e-23)
(0.000974642 -0.16037 -2.03756e-24)
(0.0781315 -0.0873548 0)
(0.0717313 -0.0988612 -1.50388e-21)
(0.066379 -0.117484 -5.9548e-22)
(0.057664 -0.129164 0)
(0.0482263 -0.142841 -8.46773e-22)
(0.0374546 -0.152934 3.3491e-22)
(0.0259573 -0.161655 1.66565e-22)
(0.0153424 -0.167769 2.08473e-22)
(0.00629512 -0.171279 -1.20279e-23)
(0.000753725 -0.172413 1.17158e-23)
(0.0720178 -0.100178 0)
(0.0666011 -0.110466 1.51629e-21)
(0.0616766 -0.129579 0)
(0.0536304 -0.141279 1.62992e-21)
(0.0446516 -0.154787 -1.63842e-21)
(0.0346126 -0.164995 -3.59896e-22)
(0.0237677 -0.173356 1.10021e-22)
(0.0139115 -0.179277 -2.25113e-22)
(0.00554152 -0.1823 -3.9083e-23)
(0.000578578 -0.183127 -2.04954e-23)
(0.0662198 -0.112357 1.52884e-20)
(0.0617731 -0.121366 -5.74463e-21)
(0.0571802 -0.140535 -5.97979e-22)
(0.0498551 -0.152357 -2.28754e-21)
(0.0412881 -0.16542 0)
(0.0319669 -0.175775 -3.95935e-22)
(0.0217627 -0.183661 1.63957e-22)
(0.0126311 -0.189423 3.83988e-22)
(0.00489989 -0.191973 1.23299e-23)
(0.000439169 -0.19261 -1.23041e-23)
(0.0608054 -0.123839 1.2814e-21)
(0.0573258 -0.13174 8.91299e-21)
(0.0529516 -0.150378 2.38697e-21)
(0.0463716 -0.162511 -2.3856e-21)
(0.0381781 -0.174832 -7.88066e-22)
(0.029533 -0.185382 0)
(0.019956 -0.192694 -6.16136e-22)
(0.0114975 -0.198345 3.26924e-22)
(0.00436208 -0.200446 1.42243e-22)
(0.000326366 -0.200999 3.5402e-23)
(0.0558622 -0.134535 -2.12624e-21)
(0.0533861 -0.141828 0)
(0.0491017 -0.15918 0)
(0.0432303 -0.171883 0)
(0.0353785 -0.18317 -5.90714e-22)
(0.0273294 -0.193957 1.37739e-21)
(0.0183586 -0.200622 6.45399e-22)
(0.0105047 -0.206211 -7.28272e-22)
(0.00391938 -0.207896 3.72827e-23)
(0.000232035 -0.208454 -7.1911e-23)
(0.0514128 -0.144288 -4.9412e-21)
(0.0499971 -0.151884 6.57826e-21)
(0.0456768 -0.167052 -6.51657e-21)
(0.0404172 -0.180615 4.03301e-21)
(0.0329053 -0.190613 -4.87893e-21)
(0.0253476 -0.201663 0)
(0.0169639 -0.207631 -4.17504e-22)
(0.00963897 -0.213203 -2.63829e-23)
(0.00356066 -0.214508 -1.35527e-22)
(0.000147546 -0.215149 -4.74405e-23)
(0.0467446 -0.152766 -2.30741e-21)
(0.046514 -0.162124 0)
(0.0422803 -0.17416 -6.37097e-21)
(0.0375839 -0.188848 9.78047e-21)
(0.0305479 -0.197378 -3.33251e-21)
(0.0234415 -0.208679 -3.34727e-22)
(0.0156874 -0.213921 4.16556e-22)
(0.00885152 -0.219503 4.84627e-23)
(0.00326043 -0.220467 2.89182e-22)
(6.53991e-05 -0.221258 9.41974e-23)
(0.0420531 -0.159236 -9.38825e-21)
(0.0428464 -0.172733 9.15967e-21)
(0.0390933 -0.180804 8.329e-22)
(0.0347787 -0.196762 0)
(0.0283277 -0.203741 0)
(0.0216224 -0.21523 3.4534e-22)
(0.0145155 -0.219719 7.80781e-22)
(0.00813012 -0.225299 -7.65779e-22)
(0.00300123 -0.225947 -5.44795e-23)
(1.03789e-05 -0.226953 5.32182e-23)
(0.0452452 -0.167701 0)
(0.0434263 -0.197574 0)
(0.0391462 -0.195854 0)
(0.0335301 -0.214954 0)
(0.0268802 -0.218542 0)
(0.0197635 -0.230403 0)
(0.0131201 -0.233053 0)
(0.0071266 -0.238502 0)
(0.00270117 -0.238327 0)
(5.14263e-05 -0.239815 0)
(0.0331557 -0.209218 0)
(0.0276805 -0.237541 0)
(0.0258098 -0.231056 0)
(0.0208937 -0.248108 0)
(0.0172904 -0.247425 0)
(0.0124429 -0.257528 0)
(0.00855615 -0.25723 0)
(0.00465174 -0.261819 0)
(0.00194558 -0.260282 0)
(0.000109667 -0.26203 0)
(0.0304194 -0.250821 0)
(0.0239784 -0.277973 0)
(0.0214055 -0.267613 0)
(0.0163062 -0.283899 0)
(0.0133343 -0.279735 0)
(0.00918642 -0.289251 0)
(0.00647007 -0.286596 0)
(0.0034877 -0.291038 0)
(0.00164763 -0.288321 0)
(0.000115659 -0.290489 0)
(0.0263041 -0.29781 0)
(0.0197102 -0.324562 0)
(0.0174429 -0.31098 0)
(0.0126745 -0.32726 0)
(0.0105291 -0.320143 0)
(0.00700216 -0.329853 0)
(0.00520236 -0.325196 0)
(0.00279844 -0.330044 0)
(0.0015273 -0.326166 0)
(0.000105983 -0.328971 0)
(0.0229996 -0.353832 0)
(0.0168621 -0.380362 0)
(0.0145121 -0.364878 0)
(0.0102129 -0.381536 0)
(0.00854089 -0.372389 0)
(0.00552134 -0.382753 0)
(0.00432087 -0.376565 0)
(0.00227075 -0.382155 0)
(0.00139564 -0.377265 0)
(5.88711e-05 -0.380935 0)
(0.0200244 -0.420736 0)
(0.0143203 -0.445487 0)
(0.0121022 -0.430627 0)
(0.00824232 -0.446905 0)
(0.00692879 -0.437387 0)
(0.00428317 -0.448007 0)
(0.00345142 -0.441227 0)
(0.00162416 -0.447388 0)
(0.00107481 -0.442014 0)
(-6.36273e-05 -0.446448 0)
(0.0162537 -0.493851 0)
(0.0114723 -0.514088 0)
(0.0095734 -0.503088 0)
(0.00637338 -0.517062 0)
(0.00527242 -0.509368 0)
(0.00302933 -0.518813 0)
(0.00235478 -0.512865 0)
(0.000786246 -0.518632 0)
(0.000522582 -0.513754 0)
(-0.000213043 -0.518272 0)
(0.0122466 -0.560853 0)
(0.0085758 -0.575277 0)
(0.00696746 -0.569699 0)
(0.00442137 -0.579565 0)
(0.00354247 -0.575094 0)
(0.00173769 -0.581776 0)
(0.00120854 -0.577806 0)
(-2.54435e-05 -0.581893 0)
(-5.90403e-06 -0.578413 0)
(-0.000299364 -0.581848 0)
(0.00740281 -0.609844 0)
(0.00497812 -0.617864 0)
(0.00405127 -0.617461 0)
(0.00247713 -0.623053 0)
(0.0019752 -0.622004 0)
(0.000787307 -0.62542 0)
(0.000447343 -0.623674 0)
(-0.000349482 -0.625515 0)
(-0.000208897 -0.623692 0)
(-0.00024966 -0.625381 0)
(0.00221009 -0.633971 0)
(0.00137609 -0.639875 0)
(0.00122107 -0.6421 0)
(0.000769971 -0.645389 0)
(0.000637438 -0.645877 0)
(0.000237858 -0.647523 0)
(0.000108524 -0.646895 0)
(-0.000160385 -0.647533 0)
(-0.000101908 -0.646623 0)
(-8.89892e-05 -0.647311 0)
(0.0412201 -0.180245 1.09331e-20)
(0.0332006 -0.222538 -1.0729e-20)
(0.0320297 -0.265605 1.34929e-21)
(0.0282081 -0.314226 0)
(0.0254122 -0.37067 0)
(0.0223116 -0.435855 1.45284e-21)
(0.0184797 -0.504647 -6.10699e-21)
(0.0138464 -0.565512 6.04177e-21)
(0.00866344 -0.609778 1.61288e-21)
(0.00295195 -0.630921 -1.589e-21)
(0.0402245 -0.186696 -1.2994e-20)
(0.0337059 -0.22829 0)
(0.0328419 -0.271063 8.92848e-21)
(0.0291187 -0.319711 -2.03646e-20)
(0.0265019 -0.37596 1.28638e-20)
(0.02333 -0.440353 -1.32225e-21)
(0.0194604 -0.507511 2.87694e-21)
(0.0145864 -0.566608 5.98429e-21)
(0.00923053 -0.609 1.648e-21)
(0.00325785 -0.629778 1.61648e-21)
(0.0397121 -0.193408 1.52307e-20)
(0.0347827 -0.234752 -1.00957e-20)
(0.0340257 -0.276864 1e-20)
(0.0303622 -0.325002 -1.0614e-20)
(0.0278417 -0.38071 7.88148e-21)
(0.0245305 -0.444072 0)
(0.0205072 -0.509525 -2.88406e-21)
(0.0153788 -0.567049 1.35654e-22)
(0.0097389 -0.607728 -3.10915e-21)
(0.00344802 -0.628418 -3.17606e-21)
(0.0397114 -0.199051 -2.45781e-21)
(0.0362736 -0.240534 0)
(0.0355529 -0.282276 0)
(0.0319528 -0.329992 0)
(0.0294508 -0.385194 8.54383e-21)
(0.0259457 -0.447526 -5.69464e-21)
(0.0216796 -0.511326 -1.96933e-23)
(0.0162551 -0.567188 -3.32734e-21)
(0.0102381 -0.606366 -1.69741e-21)
(0.00357221 -0.626613 -1.7999e-21)
(0.0403591 -0.203963 -1.5023e-23)
(0.0381301 -0.245296 -7.37791e-21)
(0.0373647 -0.286757 -5.29335e-21)
(0.0338339 -0.334235 5.29009e-21)
(0.0312885 -0.389075 -2.81112e-21)
(0.0275592 -0.450515 0)
(0.0230108 -0.512841 -3.16239e-21)
(0.0172473 -0.567075 6.80478e-21)
(0.0107996 -0.604939 -3.47272e-21)
(0.00370335 -0.624474 3.53868e-21)
(0.0417269 -0.208384 -1.98617e-20)
(0.0403969 -0.249223 2.31966e-21)
(0.0394789 -0.29026 -2.32614e-22)
(0.035984 -0.337523 5.41881e-21)
(0.033329 -0.39206 0)
(0.0293507 -0.452731 0)
(0.0245023 -0.513798 0)
(0.0183665 -0.566594 3.63175e-21)
(0.0114596 -0.603334 0)
(0.00388007 -0.62214 0)
(0.0438203 -0.212173 0)
(0.0431059 -0.252371 7.84163e-21)
(0.0419461 -0.292863 -5.27219e-21)
(0.0384236 -0.339852 -5.8963e-21)
(0.0355839 -0.39407 5.92703e-21)
(0.0313238 -0.454042 3.37634e-21)
(0.0261509 -0.514036 -3.3673e-21)
(0.0196105 -0.565638 -1.29633e-20)
(0.0122191 -0.601453 9.24515e-22)
(0.00410724 -0.619668 -3.10596e-21)
(0.0466361 -0.215117 0)
(0.0462584 -0.254633 -2.57524e-21)
(0.0448006 -0.294543 -1.40265e-21)
(0.0411777 -0.341237 0)
(0.0380806 -0.39512 1.65794e-21)
(0.0335001 -0.454446 -5.02851e-21)
(0.0279647 -0.513527 5.45447e-21)
(0.0209805 -0.564165 1.91817e-21)
(0.0130695 -0.599252 -2.0837e-21)
(0.004378 -0.617044 4.12581e-21)
(0.0501809 -0.217068 2.47507e-21)
(0.0498507 -0.255901 2.73722e-21)
(0.048058 -0.295221 -6.41825e-22)
(0.044258 -0.341649 7.74447e-22)
(0.0408421 -0.395214 1.61017e-21)
(0.0359021 -0.453982 2.63587e-21)
(0.0299573 -0.51231 -9.7086e-22)
(0.0224805 -0.562193 -1.03593e-21)
(0.0140032 -0.596735 2.09058e-21)
(0.00468557 -0.61424 1.12478e-21)
(0.0544615 -0.217923 -6.56645e-22)
(0.0538842 -0.256131 6.62133e-22)
(0.0517298 -0.294827 -7.19394e-22)
(0.0476676 -0.341046 -7.73485e-22)
(0.0438824 -0.394332 8.81273e-22)
(0.0385466 -0.452653 -1.79109e-21)
(0.0321457 -0.510402 1.48138e-21)
(0.024124 -0.559733 5.22427e-22)
(0.0150256 -0.593904 0)
(0.00503099 -0.611234 -1.12727e-21)
(0.0594793 -0.217588 6.719e-22)
(0.0583598 -0.255333 -6.77806e-22)
(0.0558277 -0.293324 -7.6657e-22)
(0.0514078 -0.339412 -8.29058e-22)
(0.0472129 -0.39246 -9.15638e-22)
(0.041442 -0.450476 -5.10973e-23)
(0.0345373 -0.507836 5.21589e-22)
(0.0259132 -0.556817 1.6611e-21)
(0.0161348 -0.590779 0)
(0.00541317 -0.608024 -1.22225e-21)
(0.0652289 -0.216029 0)
(0.0632719 -0.25353 -2.98321e-21)
(0.0603645 -0.290722 5.36172e-21)
(0.0554758 -0.336763 8.30499e-22)
(0.0508418 -0.389591 1.86822e-21)
(0.0445985 -0.447425 3.00187e-21)
(0.0371496 -0.504572 -1.05248e-21)
(0.0278695 -0.553409 -1.12413e-21)
(0.0173487 -0.587336 2.46025e-21)
(0.0058394 -0.604595 1.21938e-21)
(0.071701 -0.213308 0)
(0.06861 -0.25074 -2.98986e-21)
(0.0653441 -0.287085 -1.59282e-21)
(0.0598765 -0.333103 0)
(0.0547823 -0.385774 -5.82906e-21)
(0.0480157 -0.443557 1.95717e-21)
(0.0399747 -0.500688 2.25119e-21)
(0.0299756 -0.549582 7.17481e-21)
(0.0186497 -0.5836 -2.45228e-21)
(0.00630095 -0.60095 5.25907e-21)
(0.0788834 -0.209557 0)
(0.0743652 -0.246939 3.01549e-21)
(0.0707637 -0.282541 0)
(0.0646018 -0.328539 7.57275e-21)
(0.0590329 -0.380985 -7.61156e-21)
(0.0517149 -0.438802 -4.45054e-21)
(0.043042 -0.496072 -7.17431e-23)
(0.0322789 -0.545218 -7.36171e-21)
(0.0200786 -0.579487 -1.22776e-21)
(0.0068119 -0.597035 -6.54121e-21)
(0.0867647 -0.204941 2.31421e-20)
(0.0805213 -0.242175 -8.77516e-21)
(0.076581 -0.277164 6.0006e-22)
(0.0697039 -0.323024 -7.26071e-21)
(0.0636246 -0.375269 0)
(0.05567 -0.4333 -4.62478e-21)
(0.0463146 -0.490913 -3.18339e-22)
(0.0347277 -0.540488 9.9884e-21)
(0.0215884 -0.575128 1.35366e-21)
(0.00734656 -0.592924 -1.35873e-21)
(0.0952975 -0.199796 -1.34256e-21)
(0.0871022 -0.236237 1.58691e-20)
(0.0828074 -0.270883 7.53124e-21)
(0.0751793 -0.31645 -7.52617e-21)
(0.0685496 -0.368633 -4.33663e-21)
(0.0599344 -0.426849 0)
(0.0498736 -0.484904 -1.02063e-20)
(0.0374217 -0.535113 5.11682e-21)
(0.0232654 -0.570352 5.40798e-21)
(0.00794884 -0.588507 5.76172e-21)
(0.104475 -0.194144 -3.1649e-21)
(0.094179 -0.229246 0)
(0.0893327 -0.264011 0)
(0.0809821 -0.309274 0)
(0.0737412 -0.361582 -4.87831e-21)
(0.0644167 -0.420132 9.1993e-21)
(0.0535696 -0.478781 1.03797e-20)
(0.0401802 -0.52967 -1.62263e-20)
(0.0249584 -0.565474 2.8767e-21)
(0.00853677 -0.583966 -8.55701e-21)
(0.113992 -0.187846 -5.46451e-21)
(0.10175 -0.221352 1.49424e-20)
(0.0961723 -0.256218 -1.48e-20)
(0.0871875 -0.300935 1.76957e-20)
(0.0793397 -0.353143 -2.21854e-20)
(0.0693489 -0.411886 0)
(0.0577226 -0.471233 -5.41097e-21)
(0.0433562 -0.523164 -2.02526e-22)
(0.026951 -0.559946 -5.95899e-21)
(0.00925487 -0.578956 -6.05502e-21)
(0.123615 -0.18188 -3.37164e-21)
(0.109584 -0.213823 0)
(0.103049 -0.249097 -1.90005e-20)
(0.0934479 -0.293559 3.51094e-20)
(0.0849199 -0.345993 -1.34406e-20)
(0.0741798 -0.405139 -2.59522e-21)
(0.0616768 -0.465068 5.39943e-21)
(0.0462891 -0.517557 -2.42048e-22)
(0.0287383 -0.554767 8.71527e-21)
(0.00983632 -0.574045 8.96016e-21)
(0.133827 -0.173295 -1.46798e-20)
(0.11898 -0.202786 1.43574e-20)
(0.111096 -0.238149 2.04554e-21)
(0.100879 -0.281932 0)
(0.091638 -0.334234 0)
(0.0801991 -0.393854 2.51989e-21)
(0.0668127 -0.455133 1.12435e-20)
(0.0502746 -0.509459 -1.09782e-20)
(0.0312766 -0.548254 -2.96481e-21)
(0.0107716 -0.568215 2.91381e-21)
(0.14509 -0.174574 0)
(0.139061 -0.198794 0)
(0.126906 -0.23559 0)
(0.115142 -0.278522 0)
(0.10433 -0.329868 0)
(0.0910219 -0.387703 0)
(0.0755273 -0.446757 0)
(0.0566405 -0.49888 0)
(0.0350768 -0.536311 0)
(0.0117093 -0.556067 0)
(0.168362 -0.158401 0)
(0.17387 -0.187301 0)
(0.154448 -0.227317 0)
(0.142809 -0.269449 0)
(0.129192 -0.320023 0)
(0.112657 -0.375357 0)
(0.093381 -0.430638 0)
(0.0700702 -0.478377 0)
(0.0436641 -0.511658 0)
(0.0153383 -0.527922 0)
(0.200424 -0.14221 0)
(0.211008 -0.172141 0)
(0.184062 -0.211634 0)
(0.174233 -0.252047 0)
(0.156301 -0.301295 0)
(0.135986 -0.353227 0)
(0.112062 -0.404671 0)
(0.0835691 -0.44919 0)
(0.0515046 -0.481155 0)
(0.0168591 -0.498653 0)
(0.241181 -0.130961 0)
(0.253367 -0.159589 0)
(0.219948 -0.197818 0)
(0.212872 -0.237012 0)
(0.188657 -0.284578 0)
(0.164533 -0.33197 0)
(0.135022 -0.378818 0)
(0.10048 -0.418168 0)
(0.0623086 -0.445032 0)
(0.0220844 -0.457255 0)
(0.289846 -0.116392 0)
(0.30026 -0.142636 0)
(0.261666 -0.178225 0)
(0.255481 -0.214329 0)
(0.22172 -0.25698 0)
(0.193432 -0.297817 0)
(0.156408 -0.339667 0)
(0.115222 -0.374839 0)
(0.0701058 -0.40097 0)
(0.0220041 -0.416991 0)
(0.348598 -0.107073 0)
(0.354843 -0.130372 0)
(0.312504 -0.163144 0)
(0.304024 -0.194575 0)
(0.259803 -0.231737 0)
(0.228954 -0.266925 0)
(0.183132 -0.304099 0)
(0.134871 -0.333037 0)
(0.0829214 -0.353205 0)
(0.0306742 -0.359998 0)
(0.41084 -0.0870576 0)
(0.408533 -0.105654 0)
(0.363349 -0.132998 0)
(0.348064 -0.157345 0)
(0.294103 -0.187754 0)
(0.259773 -0.215865 0)
(0.200394 -0.245591 0)
(0.145534 -0.268708 0)
(0.0851911 -0.290994 0)
(0.0226304 -0.310928 0)
(0.477695 -0.0740557 0)
(0.465656 -0.0877201 0)
(0.421492 -0.109847 0)
(0.396594 -0.127727 0)
(0.339009 -0.152594 0)
(0.298131 -0.173682 0)
(0.228428 -0.19781 0)
(0.169952 -0.21812 0)
(0.1023 -0.238351 0)
(0.0459748 -0.237781 0)
(0.526261 -0.0398588 0)
(0.506054 -0.0466367 0)
(0.454422 -0.0599899 0)
(0.419058 -0.0689382 0)
(0.352856 -0.083899 0)
(0.300714 -0.0938937 0)
(0.217797 -0.108223 0)
(0.150012 -0.119818 0)
(0.0666644 -0.142379 0)
(-0.0180467 -0.189951 0)
(0.73147 -0.0200801 0)
(0.706408 -0.0236589 0)
(0.661407 -0.029089 0)
(0.621197 -0.0339157 0)
(0.560725 -0.0411895 0)
(0.50302 -0.0480517 0)
(0.422577 -0.0588582 0)
(0.340334 -0.0728285 0)
(0.230342 -0.101265 0)
(0.159916 -0.157222 0)
(0.173184 -0.15364 1.55816e-20)
(0.199592 -0.135841 -1.53479e-20)
(0.232792 -0.120558 2.31276e-21)
(0.272946 -0.110229 0)
(0.320945 -0.0974926 0)
(0.377076 -0.0893177 3.1703e-21)
(0.437203 -0.0719625 -1.4666e-20)
(0.499855 -0.0617379 1.4512e-20)
(0.553067 -0.0322538 4.08141e-21)
(0.752597 -0.0171705 -4.10796e-21)
(0.181692 -0.144811 -1.56995e-20)
(0.2072 -0.12645 0)
(0.240329 -0.111911 1.59943e-20)
(0.280523 -0.102035 -3.79802e-20)
(0.328644 -0.0900255 2.50855e-20)
(0.384578 -0.0823067 -2.91558e-21)
(0.444569 -0.0659515 6.28665e-21)
(0.506631 -0.0568255 1.3836e-20)
(0.562506 -0.0292209 3.78529e-21)
(0.760463 -0.0159345 3.69622e-21)
(0.189093 -0.134882 1.82971e-20)
(0.213358 -0.116598 -1.59361e-20)
(0.245783 -0.103139 1.57855e-20)
(0.285672 -0.0938036 -1.9949e-20)
(0.333706 -0.0826101 1.45635e-20)
(0.389589 -0.0754592 0)
(0.449633 -0.0602025 -6.30205e-21)
(0.511728 -0.0522867 -7.31544e-23)
(0.570397 -0.0265166 -7.16419e-21)
(0.767443 -0.014768 -7.41494e-21)
(0.196661 -0.124274 -3.09655e-21)
(0.220605 -0.106488 0)
(0.252258 -0.0942129 0)
(0.291735 -0.0854888 0)
(0.339518 -0.0751978 1.60777e-20)
(0.395145 -0.0687305 -1.08833e-20)
(0.455069 -0.0546714 -3.17053e-22)
(0.517016 -0.0480283 -7.05213e-21)
(0.57786 -0.0240919 -3.60592e-21)
(0.774059 -0.0136884 -3.65875e-21)
(0.203689 -0.113285 1.98408e-21)
(0.227713 -0.0963201 -9.62546e-21)
(0.258629 -0.0852309 -8.64588e-21)
(0.297967 -0.0771906 8.64059e-21)
(0.345626 -0.0678438 -5.12247e-21)
(0.401075 -0.0621362 0)
(0.460875 -0.0493166 -6.22624e-21)
(0.52257 -0.0439401 1.36432e-20)
(0.58513 -0.0218458 -6.87207e-21)
(0.780384 -0.0126803 7.33502e-21)
(0.20992 -0.101978 -2.37451e-20)
(0.233861 -0.0861312 1.93448e-21)
(0.264059 -0.0762402 -9.91912e-22)
(0.303329 -0.0690021 8.52548e-21)
(0.350995 -0.060622 0)
(0.406452 -0.0557326 0)
(0.46625 -0.044148 0)
(0.527833 -0.0399935 6.60597e-21)
(0.591956 -0.0197255 0)
(0.786281 -0.0117246 0)
(0.215335 -0.090356 0)
(0.238924 -0.0759038 1.08184e-20)
(0.268523 -0.0672282 -7.41345e-21)
(0.307663 -0.0609065 -9.42556e-21)
(0.355233 -0.0535479 9.47464e-21)
(0.410808 -0.0495319 5.78154e-21)
(0.470696 -0.0391783 -5.53692e-21)
(0.532365 -0.0362007 -2.28807e-20)
(0.59804 -0.0177211 1.62556e-21)
(0.791608 -0.0108195 -5.35644e-21)
(0.219849 -0.0784367 0)
(0.242953 -0.065619 -3.41488e-21)
(0.272037 -0.058205 -1.94871e-21)
(0.311025 -0.0528551 0)
(0.358395 -0.0465696 2.73524e-21)
(0.414126 -0.0435134 -7.98165e-21)
(0.474068 -0.0343835 9.1561e-21)
(0.536106 -0.0325572 3.42358e-21)
(0.603201 -0.0158268 -3.41204e-21)
(0.796292 -0.00996022 7.16404e-21)