/*--------------------------------*- C++ -*----------------------------------*\
  =========                 |
  \\      /  F ield         | OpenFOAM: The Open Source CFD Toolbox
   \\    /   O peration     | Website:  https://openfoam.org
    \\  /    A nd           | Version:  7
     \\/     M anipulation  |
\*---------------------------------------------------------------------------*/
FoamFile
{
    version     2.0;
    format      ascii;
    class       volVectorField;
    location    "5.3";
    object      U;
}
// * * * * * * * * * * * * * * * * * * * * * * * * * * * * * * * * * * * * * //

dimensions      [0 1 -1 0 0 0 0];

internalField   nonuniform List<vector> 
32000
(
(-0.000164266 0.00201173 -4.60514e-22)
(-0.00109163 0.0098783 0)
(-0.00276248 0.0208655 -4.10579e-21)
(-0.00473858 0.0337091 0)
(-0.00687839 0.0476285 4.27245e-21)
(-0.00903096 0.0621389 0)
(-0.011089 0.0769197 4.4129e-21)
(-0.0129725 0.0917571 -3.35511e-21)
(-0.0146212 0.106507 1.04028e-24)
(-0.0159915 0.121072 1.33131e-24)
(-0.0170559 0.135378 -1.15606e-21)
(-0.0178017 0.149364 4.66858e-21)
(-0.0182254 0.162976 0)
(-0.0183281 0.176163 -1.18712e-21)
(-0.0181148 0.188873 1.19206e-21)
(-0.0175948 0.201055 0)
(-0.0167802 0.21266 6.03476e-21)
(-0.0156853 0.223641 -1.21063e-21)
(-0.0143259 0.233955 0)
(-0.0127184 0.243565 2.4487e-21)
(-0.0108787 0.252437 2.454e-21)
(-0.00882329 0.260547 0)
(-0.00656781 0.267877 0)
(-0.00412771 0.274416 0)
(-0.00151848 0.28016 0)
(0.00124458 0.285113 0)
(0.00414677 0.289285 0)
(0.00717424 0.292693 0)
(0.0103139 0.295357 -4.95388e-21)
(0.0135532 0.297301 0)
(0.0168797 0.298556 4.9487e-21)
(0.0202813 0.29915 0)
(0.0237462 0.299119 0)
(0.0272625 0.298494 0)
(0.0308174 0.29731 -4.91791e-21)
(0.0343971 0.295601 -2.46191e-21)
(0.0379869 0.293399 7.35764e-21)
(0.0415815 0.290733 -1.36054e-24)
(0.0451661 0.287686 4.88009e-21)
(0.0485768 0.284367 -3.61039e-24)
(-0.000229973 0.00224882 0)
(-0.00140017 0.0104436 8.01731e-21)
(-0.00342036 0.0216488 2.05278e-21)
(-0.00579659 0.0346302 3.67791e-25)
(-0.00836953 0.0486179 -2.13588e-21)
(-0.0109736 0.063137 0)
(-0.0134909 0.0778749 4.40965e-21)
(-0.0158354 0.0926278 -4.47105e-21)
(-0.0179434 0.107257 0)
(-0.0197682 0.121674 -9.15689e-21)
(-0.0212799 0.135807 0)
(-0.0224632 0.149603 -1.40006e-20)
(-0.0233126 0.163011 0)
(-0.0238272 0.175984 0)
(-0.0240105 0.188474 4.77751e-21)
(-0.0238709 0.200433 -4.79294e-21)
(-0.0234191 0.211814 -4.82554e-21)
(-0.0226678 0.22257 0)
(-0.0216317 0.232662 1.46021e-20)
(-0.0203262 0.242052 -4.87488e-21)
(-0.0187669 0.250709 6.52549e-24)
(-0.0169692 0.258609 -1.47193e-20)
(-0.0149482 0.265734 -9.83807e-21)
(-0.0127194 0.272075 -4.94117e-21)
(-0.0102979 0.277627 1.47963e-20)
(-0.0076984 0.282397 -1.48308e-20)
(-0.00493539 0.286392 1.485e-20)
(-0.00202289 0.289631 -1.97608e-20)
(0.00102549 0.292133 -4.92968e-21)
(0.00419673 0.293925 3.27283e-23)
(0.00747835 0.295035 -1.47791e-20)
(0.0108576 0.295496 -9.85288e-21)
(0.0143215 0.295339 1.97177e-20)
(0.0178565 0.2946 -1.96445e-20)
(0.0214487 0.293315 -4.88328e-21)
(0.0250822 0.29152 -1.95871e-20)
(0.0287397 0.289249 2.68472e-24)
(0.0324136 0.286535 4.87436e-21)
(0.0360782 0.283465 -1.93754e-20)
(0.039574 0.280154 -2.80811e-20)
(-0.000301783 0.00248471 -1.84029e-21)
(-0.00171514 0.0109979 -4.00851e-21)
(-0.00407701 0.0224296 -1.84616e-20)
(-0.00684102 0.035555 0)
(-0.00982758 0.0496148 2.13492e-21)
(-0.0128586 0.0641453 -2.17125e-21)
(-0.0158092 0.0788432 -2.64597e-20)
(-0.0185887 0.0935117 8.94431e-21)
(-0.0211284 0.108021 -4.5295e-21)
(-0.0233783 0.122286 2.74601e-20)
(-0.0253082 0.136245 9.24804e-21)
(-0.0269008 0.149847 4.67077e-21)
(-0.0281482 0.163047 -1.88117e-20)
(-0.0290481 0.175802 0)
(-0.0296029 0.188066 0)
(-0.0298189 0.199795 9.60629e-21)
(-0.0297054 0.210944 2.72385e-23)
(-0.0292746 0.221468 -9.67132e-21)
(-0.0285403 0.23133 -9.7278e-21)
(-0.027517 0.240492 -1.9506e-20)
(-0.026219 0.248926 2.93668e-20)
(-0.0246614 0.256607 2.36412e-23)
(-0.022859 0.26352 -1.18811e-23)
(-0.0208265 0.269654 9.82879e-21)
(-0.0185786 0.275007 -1.97469e-20)
(-0.01613 0.279583 3.94435e-20)
(-0.013495 0.283393 0)
(-0.0106875 0.286453 9.88499e-21)
(-0.00772102 0.288785 9.8834e-21)
(-0.00460871 0.290415 1.97621e-20)
(-0.00136358 0.291371 3.27002e-23)
(0.00200092 0.291687 0)
(0.00547084 0.291397 9.84495e-21)
(0.00903174 0.290536 -9.75518e-21)
(0.0126679 0.289144 -9.7305e-21)
(0.0163614 0.287256 2.9323e-20)
(0.0200926 0.284913 -2.90988e-20)
(0.0238513 0.28215 1.94248e-20)
(0.0276008 0.27906 -2.89019e-20)
(0.0311848 0.27576 1.11328e-20)
(-0.000381111 0.00275002 1.47235e-20)
(-0.002044 0.0116144 -1.60264e-20)
(-0.00474407 0.0232778 3.28143e-20)
(-0.00788237 0.0365459 0)
(-0.0112641 0.0506739 1.28014e-20)
(-0.0147002 0.0652102 2.17047e-20)
(-0.0180581 0.079861 4.41514e-21)
(-0.0212426 0.0944383 3.165e-24)
(-0.0241832 0.108822 1.35774e-20)
(-0.0268281 0.12293 -4.5842e-21)
(-0.029145 0.136707 2.31062e-20)
(-0.0311151 0.150109 -2.79906e-20)
(-0.0327297 0.163094 2.8207e-20)
(-0.0339846 0.175623 -9.48343e-21)
(-0.0348806 0.187654 9.52298e-21)
(-0.0354233 0.199147 -1.91718e-20)
(-0.0356213 0.210056 -2.89173e-20)
(-0.0354853 0.220342 9.66511e-21)
(-0.035028 0.229966 -9.73159e-21)
(-0.0342633 0.238895 2.92388e-20)
(-0.0332048 0.247098 -1.95626e-20)
(-0.0318667 0.254554 -1.95867e-20)
(-0.0302634 0.261247 0)
(-0.0284094 0.267168 0)
(-0.026319 0.272313 -1.96686e-20)
(-0.0240062 0.276689 -1.97173e-20)
(-0.0214849 0.280305 -1.96833e-20)
(-0.018769 0.283179 0)
(-0.0158721 0.285333 0)
(-0.0128073 0.286791 -3.93633e-20)
(-0.00958782 0.287586 -7.00468e-23)
(-0.00622766 0.287748 1.96542e-20)
(-0.00274145 0.287316 -1.95542e-20)
(0.00085529 0.286326 -1.95765e-20)
(0.00454508 0.284818 1.95366e-20)
(0.00830793 0.282834 0)
(0.0121222 0.280415 1.94196e-20)
(0.015974 0.277602 -3.86153e-20)
(0.019817 0.274492 3.85044e-20)
(0.0234964 0.271207 -4.45805e-20)
(-0.000469993 0.00301951 -7.36404e-21)
(-0.00238619 0.0122361 1.20183e-20)
(-0.00541591 0.0241345 -1.64045e-20)
(-0.00891493 0.0375456 0)
(-0.0126714 0.0517405 -2.13369e-20)
(-0.0164872 0.0662812 -1.30236e-20)
(-0.0202248 0.0808843 1.76328e-20)
(-0.023785 0.0953702 0)
(-0.0270952 0.109625 -2.71553e-20)
(-0.0301027 0.123575 -9.15735e-21)
(-0.0327742 0.13717 -9.23745e-21)
(-0.03509 0.150369 1.86692e-20)
(-0.0370395 0.163136 -1.8803e-20)
(-0.0386176 0.175437 9.45935e-21)
(-0.0398244 0.187233 0)
(-0.0406643 0.198484 2.87673e-20)
(-0.0411446 0.209151 9.64875e-21)
(-0.0412754 0.219194 -1.93727e-20)
(-0.0410687 0.228576 3.88352e-20)
(-0.0405372 0.237266 -3.89593e-20)
(-0.0396938 0.245235 3.90217e-20)
(-0.0385524 0.252461 1.95866e-20)
(-0.037127 0.258929 0)
(-0.0354312 0.264631 1.96686e-20)
(-0.0334789 0.269564 5.1282e-23)
(-0.0312838 0.273733 0)
(-0.0288593 0.27715 1.96833e-20)
(-0.0262192 0.279831 -1.9691e-20)
(-0.0233767 0.281798 1.96092e-20)
(-0.0203447 0.283078 3.93074e-20)
(-0.0171369 0.283701 -3.91923e-20)
(-0.0137674 0.283703 3.91239e-20)
(-0.0102515 0.28312 0)
(-0.00660574 0.281992 0)
(-0.00284911 0.280362 3.88452e-20)
(0.000996128 0.278275 0)
(0.00490603 0.275778 0)
(0.00886337 0.272914 -3.84295e-20)
(0.0128123 0.269786 3.82666e-20)
(0.016598 0.26652 2.22485e-20)
(-0.000568172 0.00330074 3.67947e-21)
(-0.00274336 0.0128826 0)
(-0.00609592 0.0250174 3.27873e-20)
(-0.00994016 0.0385698 4.18541e-21)
(-0.0140508 0.0528287 4.26603e-21)
(-0.0182218 0.0673701 2.60283e-20)
(-0.0223107 0.0819226 3.52447e-20)
(-0.0262155 0.0963144 0)
(-0.0298633 0.110439 9.05146e-21)
(-0.0332005 0.124228 2.74436e-20)
(-0.0361928 0.137638 3.69533e-20)
(-0.0388199 0.150632 -9.33094e-21)
(-0.0410706 0.163179 -2.81962e-20)
(-0.0429387 0.175248 0)
(-0.0444231 0.186805 3.80943e-20)
(-0.0455277 0.197813 0)
(-0.0462593 0.208234 5.7766e-20)
(-0.0466268 0.21803 -1.9306e-20)
(-0.0466412 0.227168 0)
(-0.0463146 0.235616 -1.9491e-20)
(-0.0456595 0.243347 -4.0117e-23)
(-0.0446892 0.25034 -1.94963e-20)
(-0.0434169 0.25658 -1.95505e-20)
(-0.0418559 0.262059 1.96362e-20)
(-0.0400195 0.266775 -1.95849e-20)
(-0.0379207 0.270733 0)
(-0.0355728 0.273945 -1.96526e-20)
(-0.032989 0.276427 1.95777e-20)
(-0.0301821 0.278202 0)
(-0.0271652 0.279296 0)
(-0.0239516 0.279742 0)
(-0.0205557 0.279574 -3.90588e-20)
(-0.0169931 0.278833 3.88525e-20)
(-0.0132816 0.27756 0)
(-0.00944162 0.275802 -1.93858e-20)
(-0.0054973 0.273606 0)
(-0.00147525 0.271025 3.84865e-20)
(0.00260381 0.268109 -1.90561e-20)
(0.00667526 0.264965 -3.81821e-20)
(0.010582 0.261724 4.41438e-20)
(-0.00067679 0.00358722 2.57432e-20)
(-0.00311609 0.0135374 -3.60231e-20)
(-0.00678262 0.0259084 -6.14633e-20)
(-0.0109566 0.0395988 -3.34662e-20)
(-0.0153996 0.0539176 -8.52861e-21)
(-0.0198989 0.0684571 -1.7354e-20)
(-0.0243096 0.082957 -7.92856e-20)
(-0.0285278 0.0972531 -2.67897e-20)
(-0.0324796 0.111246 -4.52136e-20)
(-0.0361117 0.124875 -4.57377e-20)
(-0.0393898 0.138098 -6.4665e-20)
(-0.0422931 0.150887 -3.72749e-20)
(-0.0448094 0.163214 1.171e-23)
(-0.0469319 0.175051 -3.78411e-20)
(-0.0486594 0.186368 -3.8094e-20)
(-0.0499948 0.19713 -5.74576e-20)
(-0.0509442 0.207304 3.84586e-20)
(-0.0515157 0.216853 -1.92941e-20)
(-0.0517196 0.225746 0)
(-0.0515674 0.23395 3.88698e-20)
(-0.0510712 0.241442 0)
(-0.0502434 0.2482 7.81101e-20)
(-0.0490968 0.25421 0)
(-0.0476442 0.259465 -1.96034e-20)
(-0.0458981 0.263962 1.9648e-20)
(-0.0438713 0.267707 -3.91067e-20)
(-0.0415764 0.270711 0)
(-0.0390262 0.27299 -3.91867e-20)
(-0.0362331 0.274568 3.90238e-20)
(-0.0332098 0.275471 0)
(-0.0299696 0.275732 0)
(-0.0265268 0.275389 0)
(-0.0228974 0.274482 -3.87062e-20)
(-0.0190999 0.273057 0)
(-0.0151564 0.271162 -3.85937e-20)
(-0.0110929 0.268853 7.68251e-20)
(-0.00693868 0.266184 -7.65413e-20)
(-0.00271808 0.263214 3.79457e-20)
(0.00149628 0.260054 7.59158e-20)
(0.00554237 0.256844 -4.39345e-20)
(-0.00079574 0.003876 -3.30983e-20)
(-0.00350458 0.0141958 1.25322e-23)
(-0.00747584 0.0267992 3.27745e-20)
(-0.0119623 0.040623 6.69189e-20)
(-0.0167147 0.0549983 -8.52558e-21)
(-0.0215153 0.0695326 -3.46843e-20)
(-0.0262173 0.0839773 3.5228e-20)
(-0.0307156 0.0981769 5.35868e-20)
(-0.0349368 0.112039 1.80879e-20)
(-0.0388283 0.125506 4.57056e-20)
(-0.0423557 0.138544 3.6943e-20)
(-0.0454979 0.151128 5.58883e-20)
(-0.0482426 0.163235 1.12705e-19)
(-0.0505829 0.174841 5.67692e-20)
(-0.0525167 0.185919 0)
(-0.0540467 0.196437 1.91256e-20)
(-0.0551783 0.206364 1.91847e-20)
(-0.055919 0.215667 1.92685e-20)
(-0.0562784 0.224314 3.87439e-20)
(-0.0562675 0.232276 -1.94349e-20)
(-0.0558978 0.239529 0)
(-0.0551812 0.246053 -4.74081e-23)
(-0.0541299 0.251833 -3.90279e-20)
(-0.0527561 0.256863 3.90529e-20)
(-0.0510717 0.261141 7.819e-20)
(-0.0490891 0.264672 7.81962e-20)
(-0.0468203 0.267466 1.31464e-23)
(-0.0442776 0.26954 3.89835e-20)
(-0.0414729 0.270918 3.89278e-20)
(-0.0384184 0.271626 -3.88577e-20)
(-0.0351272 0.271698 3.87737e-20)
(-0.0316135 0.271173 3.86765e-20)
(-0.0278936 0.270094 7.72728e-20)
(-0.0239869 0.268509 -1.20388e-22)
(-0.0199164 0.266473 1.15092e-19)
(-0.0157102 0.264043 -3.83975e-23)
(-0.0114005 0.261282 -3.80156e-20)
(-0.0070151 0.258254 -3.80319e-20)
(-0.00263387 0.255081 3.76823e-20)
(0.00157345 0.251907 4.36401e-20)
(-0.000924905 0.00416444 2.93977e-20)
(-0.00390812 0.0148498 4.0006e-20)
(-0.00817431 0.0276805 2.4557e-20)
(-0.0129556 0.0416322 -2.50913e-20)
(-0.0179938 0.0560588 -4.25996e-20)
(-0.0230675 0.0705844 3.46807e-20)
(-0.0280291 0.0849722 0)
(-0.0327739 0.0990747 3.5704e-20)
(-0.0372288 0.112805 0)
(-0.0413426 0.126113 -7.3124e-20)
(-0.0450811 0.138968 1.84776e-20)
(-0.0484238 0.15135 -9.31331e-20)
(-0.0513584 0.163239 -3.75616e-20)
(-0.0538775 0.174616 1.89158e-20)
(-0.0559792 0.185457 3.92766e-23)
(-0.0576656 0.195733 -1.9109e-20)
(-0.0589417 0.205416 -3.84462e-20)
(-0.0598144 0.214474 -7.71724e-20)
(-0.0602928 0.222878 0)
(-0.0603874 0.2306 3.31341e-23)
(-0.0601092 0.237616 -3.88479e-20)
(-0.0594695 0.243908 -3.89836e-20)
(-0.0584799 0.249461 3.90276e-20)
(-0.0571519 0.254268 -3.91366e-20)
(-0.0554974 0.258328 3.89889e-20)
(-0.0535277 0.261645 -7.80077e-20)
(-0.0512546 0.26423 8.04587e-24)
(-0.0486897 0.266099 -7.78667e-20)
(-0.0458444 0.267275 -3.89276e-20)
(-0.0427303 0.267786 8.7274e-24)
(-0.0393603 0.267666 -1.09828e-22)
(-0.0357485 0.266955 -3.86763e-20)
(-0.0319113 0.265698 -3.85665e-20)
(-0.0278685 0.263948 -1.49842e-22)
(-0.0236444 0.261763 -3.83122e-20)
(-0.019269 0.259205 -1.66002e-22)
(-0.0147773 0.256347 -3.7915e-20)
(-0.0102009 0.253259 1.13127e-19)
(-0.00562558 0.250072 -3.76821e-20)
(-0.00123219 0.246941 -4.36244e-20)
(-0.00106388 0.00444942 -2.93937e-20)
(-0.00432568 0.0154928 8.00064e-21)
(-0.00887643 0.0285428 -2.45633e-20)
(-0.0139344 0.0426148 -8.35919e-21)
(-0.0192341 0.0570872 3.40779e-20)
(-0.0245521 0.0716007 -8.66776e-21)
(-0.0297413 0.0859297 8.79847e-21)
(-0.0346977 0.0999346 -5.35605e-20)
(-0.0393498 0.113535 1.80651e-20)
(-0.0436475 0.126686 3.65568e-20)
(-0.0475581 0.13936 0)
(-0.0510614 0.151543 7.44958e-20)
(-0.0541455 0.163218 0)
(-0.0568031 0.17437 -7.56138e-20)
(-0.0590323 0.184977 -3.80307e-20)
(-0.0608349 0.195016 0)
(-0.0622155 0.204458 0)
(-0.0631806 0.213276 7.71209e-20)
(-0.0637389 0.221441 3.87294e-20)
(-0.0639007 0.228927 -7.75637e-20)
(-0.0636761 0.23571 3.88096e-20)
(-0.0630759 0.241774 0)
(-0.0621112 0.247104 -3.89929e-20)
(-0.0607931 0.251692 7.78523e-20)
(-0.0591328 0.255538 -3.89044e-20)
(-0.0571415 0.258645 -3.89784e-20)
(-0.0548301 0.261022 3.88442e-20)
(-0.0522097 0.262687 0)
(-0.0492911 0.263662 7.75284e-20)
(-0.0460856 0.263976 -3.86399e-20)
(-0.0426056 0.263662 -3.86291e-20)
(-0.0388649 0.262763 -8.22291e-23)
(-0.0348802 0.261325 1.5338e-19)
(-0.0306717 0.259404 -1.14656e-19)
(-0.0262646 0.257064 0)
(-0.0216906 0.254373 -3.80025e-20)
(-0.0169878 0.251411 -7.55713e-20)
(-0.0121916 0.24826 3.74262e-20)
(-0.00739226 0.245059 3.7303e-20)
(-0.00278539 0.241977 0)
(-0.00121192 0.00472807 -5.87385e-20)
(-0.00475573 0.0161178 -7.99656e-21)
(-0.00958042 0.0293766 6.54305e-20)
(-0.0148965 0.0435601 -6.68163e-20)
(-0.020433 0.0580719 0)
(-0.0259662 0.072569 0)
(-0.0313503 0.086837 -1.7602e-20)
(-0.036483 0.100745 -1.49258e-23)
(-0.0412946 0.114217 1.80592e-20)
(-0.0457373 0.127213 0)
(-0.0497796 0.139711 0)
(-0.0534024 0.151699 -1.86088e-20)
(-0.0565942 0.163166 3.18411e-23)
(-0.0593483 0.174097 1.89201e-20)
(-0.0616627 0.184477 3.80304e-20)
(-0.0635394 0.194282 0)
(-0.0649824 0.20349 3.84328e-20)
(-0.0659981 0.212073 -3.84628e-20)
(-0.0665949 0.220005 -7.73057e-20)
(-0.0667827 0.227261 7.74922e-20)
(-0.066571 0.233818 8.94367e-23)
(-0.0659699 0.239659 -3.8818e-20)
(-0.0649901 0.244772 3.89329e-20)
(-0.0636426 0.249147 -7.77754e-20)
(-0.0619379 0.252784 0)
(-0.0598866 0.255685 3.88934e-20)
(-0.0574993 0.25786 -7.76047e-20)
(-0.0547865 0.259326 3.86971e-20)
(-0.0517585 0.260103 -3.87147e-20)
(-0.0484262 0.260221 -3.86062e-20)
(-0.0448015 0.259715 -3.85733e-20)
(-0.0408983 0.258626 1.53361e-19)
(-0.036733 0.257005 -1.14629e-19)
(-0.0323263 0.254911 -7.61974e-20)
(-0.0277041 0.25241 7.57612e-20)
(-0.0228998 0.24958 0)
(-0.0179546 0.246509 7.52076e-20)
(-0.0129076 0.243289 -7.47367e-20)
(-0.0078524 0.240074 -3.73027e-20)
(-0.00300269 0.237046 0)
(-0.00136826 0.00499767 1.2477e-19)
(-0.00519653 0.0167182 5.58933e-20)
(-0.0102841 0.0301729 -6.543e-20)
(-0.0158394 0.0444576 5.84656e-20)
(-0.0215879 0.059001 -8.51369e-21)
(-0.027307 0.0734768 1.73134e-20)
(-0.0328529 0.0876817 0)
(-0.0381261 0.101492 -1.78448e-20)
(-0.0430593 0.114838 1.80529e-20)
(-0.047607 0.127684 1.82762e-20)
(-0.0517398 0.14001 -1.84362e-20)
(-0.0554398 0.151809 -1.86276e-20)
(-0.0586963 0.163073 1.87446e-20)
(-0.0615034 0.173791 0)
(-0.0638593 0.183949 0)
(-0.0657658 0.19353 -3.82402e-20)
(-0.0672271 0.20251 3.83307e-20)
(-0.0682494 0.210866 -3.85493e-20)
(-0.068841 0.218572 3.8581e-20)
(-0.0690111 0.225604 3.87515e-20)
(-0.0687686 0.231943 -7.75469e-20)
(-0.0681234 0.23757 7.76271e-20)
(-0.0670858 0.242473 8.1437e-23)
(-0.0656663 0.246643 -3.87891e-20)
(-0.063875 0.250078 0)
(-0.0617221 0.252782 3.88077e-20)
(-0.0592179 0.254762 7.63155e-23)
(-0.0563723 0.256034 -3.86026e-20)
(-0.0531954 0.256619 0)
(-0.0496975 0.256546 7.6966e-20)
(-0.0458904 0.255851 -7.65993e-20)
(-0.0417877 0.254575 0)
(-0.0374061 0.252771 7.61852e-20)
(-0.0327662 0.250501 -7.57653e-20)
(-0.0278947 0.247837 0)
(-0.0228266 0.244863 0)
(-0.0176061 0.241676 0)
(-0.0122762 0.238382 -7.44605e-20)
(-0.00693176 0.235152 7.3983e-20)
(-0.00180865 0.232183 8.54675e-20)
(-0.00153191 0.00525546 -5.86991e-20)
(-0.00564602 0.0172878 -6.3885e-20)
(-0.0109851 0.030923 -8.17114e-21)
(-0.0167608 0.0452968 2.50384e-20)
(-0.0226965 0.0598629 -3.40272e-20)
(-0.0285721 0.0743118 3.46199e-20)
(-0.0342468 0.0884511 -3.51641e-20)
(-0.0396244 0.102164 -5.34818e-20)
(-0.0446407 0.115387 0)
(-0.0492531 0.128085 -1.82703e-20)
(-0.0534344 0.140246 1.84302e-20)
(-0.0571683 0.151863 0)
(-0.0604455 0.16293 3.75381e-20)
(-0.0632606 0.173443 -3.77327e-20)
(-0.0656126 0.183389 -1.13987e-19)
(-0.0675033 0.192752 -7.18222e-23)
(-0.0689369 0.201513 7.66939e-20)
(-0.0699197 0.209651 -3.84443e-20)
(-0.0704601 0.21714 0)
(-0.0705663 0.223959 0)
(-0.0702471 0.230088 7.742e-20)
(-0.0695118 0.235511 3.88015e-20)
(-0.0683706 0.240213 -3.87379e-20)
(-0.0668335 0.244188 -3.88008e-20)
(-0.0649105 0.247432 7.74699e-20)
(-0.0626113 0.249947 -3.86524e-20)
(-0.0599459 0.251741 7.73099e-20)
(-0.056924 0.252829 -1.54158e-19)
(-0.0535554 0.253231 1.53768e-19)
(-0.0498501 0.252975 -1.53319e-19)
(-0.0458199 0.252096 1.52815e-19)
(-0.0414783 0.250639 -1.52262e-19)
(-0.0368421 0.248656 7.57814e-20)
(-0.0319321 0.246211 7.55577e-20)
(-0.0267754 0.243382 8.82622e-23)
(-0.0214084 0.24026 8.19962e-23)
(-0.0158788 0.236952 -7.43939e-20)
(-0.0102331 0.233579 2.22982e-22)
(-0.00456586 0.23033 -7.36012e-20)
(0.000861609 0.227423 0)
(-0.0017018 0.00549904 7.33001e-21)
(-0.00610201 0.0178208 -7.97689e-21)
(-0.0116809 0.0316189 2.45007e-20)
(-0.0176583 0.046068 -3.33658e-20)
(-0.0237565 0.0606466 1.70022e-20)
(-0.0297594 0.075062 0)
(-0.03553 0.0891324 0)
(-0.040976 0.102748 7.13037e-20)
(-0.0460367 0.115849 9.0236e-20)
(-0.0506731 0.128406 -1.82416e-20)
(-0.0548604 0.140406 9.218e-20)
(-0.0585844 0.151848 -1.8587e-20)
(-0.0618371 0.162728 0)
(-0.0646145 0.173044 0)
(-0.0669158 0.182786 7.59616e-20)
(-0.0687434 0.191942 0)
(-0.0701019 0.200495 3.8265e-20)
(-0.0709975 0.208424 -3.84655e-20)
(-0.0714384 0.215707 0)
(-0.0714325 0.222324 -7.72382e-20)
(-0.0709882 0.228255 -3.86967e-20)
(-0.0701145 0.233484 -1.1606e-19)
(-0.0688214 0.237998 -3.87505e-20)
(-0.0671187 0.241789 3.86674e-20)
(-0.065016 0.244853 7.72515e-20)
(-0.062523 0.247191 0)
(-0.0596493 0.248811 7.69716e-20)
(-0.0564048 0.249726 1.53712e-19)
(-0.0527989 0.249956 1.02133e-22)
(-0.0488418 0.249528 -7.63716e-20)
(-0.0445453 0.248477 -7.61945e-20)
(-0.0399231 0.246846 7.58109e-20)
(-0.034992 0.244689 7.55764e-20)
(-0.0297733 0.242074 -1.50395e-19)
(-0.0242943 0.239082 1.49678e-19)
(-0.0185929 0.235811 -7.46342e-20)
(-0.0127199 0.232377 7.40404e-20)
(-0.00672572 0.228919 1.47328e-19)
(-0.000702581 0.225648 7.30509e-20)
(0.0050598 0.222806 8.39808e-20)
(-0.00187675 0.00572613 -5.85692e-20)
(-0.00656218 0.0183121 5.57883e-20)
(-0.012369 0.0322532 -4.89439e-20)
(-0.0185294 0.0467617 4.99916e-20)
(-0.0247658 0.0613413 8.49501e-20)
(-0.0308673 0.0757156 -6.915e-20)
(-0.0367012 0.0897131 8.78167e-20)
(-0.0421797 0.103231 5.34347e-20)
(-0.0472465 0.116212 -1.26273e-19)
(-0.0518661 0.128631 3.64747e-20)
(-0.0560167 0.140478 1.83903e-20)
(-0.0596864 0.151752 3.72164e-20)
(-0.0628691 0.162454 3.74938e-20)
(-0.0655618 0.172582 -7.54528e-20)
(-0.0677648 0.182132 7.58918e-20)
(-0.0694811 0.191092 1.14442e-19)
(-0.0707155 0.199448 -1.14891e-19)
(-0.0714746 0.20718 1.53715e-19)
(-0.0717662 0.214269 7.70258e-20)
(-0.0715982 0.220695 1.1587e-19)
(-0.0709785 0.22644 3.86343e-20)
(-0.0699161 0.231489 7.73789e-20)
(-0.0684207 0.235828 -7.72644e-20)
(-0.066502 0.239448 0)
(-0.0641695 0.242346 -2.31585e-19)
(-0.0614328 0.244522 1.54091e-19)
(-0.0583016 0.245982 -7.68756e-20)
(-0.0547857 0.246739 -7.66902e-20)
(-0.0508948 0.246811 -6.71907e-23)
(-0.0466395 0.246225 0)
(-0.0420316 0.245014 0)
(-0.0370854 0.243221 7.54394e-20)
(-0.0318179 0.240902 -7.52709e-20)
(-0.0262507 0.238125 7.48559e-20)
(-0.0204118 0.234974 -7.45343e-20)
(-0.0143402 0.231555 -7.41422e-20)
(-0.00809019 0.227994 0)
(-0.00171581 0.224445 -7.32689e-20)
(0.004695 0.221147 -7.30191e-20)
(0.0108216 0.218371 -2.50969e-19)
(-0.00205553 0.00593477 5.85752e-20)
(-0.00702413 0.018757 -5.57853e-20)
(-0.013047 0.0328191 6.52686e-20)
(-0.019372 0.0473696 -1.16623e-19)
(-0.0257229 0.061937 -8.49394e-20)
(-0.0318947 0.0762613 6.91497e-20)
(-0.0377597 0.0901808 -1.40451e-19)
(-0.0432356 0.103599 -7.1241e-20)
(-0.0482702 0.116462 9.01906e-20)
(-0.0528324 0.128747 -1.64129e-19)
(-0.0569037 0.140446 -1.10574e-19)
(-0.0604747 0.151561 -3.71862e-20)
(-0.0635412 0.162094 -1.12437e-19)
(-0.066102 0.172047 1.13141e-19)
(-0.0681585 0.181415 -7.58913e-20)
(-0.0697142 0.190191 -7.6265e-20)
(-0.0707748 0.198362 0)
(-0.0713469 0.20591 -7.68301e-20)
(-0.0714383 0.212818 -1.15552e-19)
(-0.0710567 0.219067 3.85323e-20)
(-0.07021 0.224641 -7.72464e-20)
(-0.0689071 0.229523 0)
(-0.0671574 0.233702 7.72635e-20)
(-0.0649708 0.237167 7.7186e-20)
(-0.0623567 0.239914 -7.6839e-20)
(-0.0593249 0.241944 0)
(-0.0558853 0.243261 0)
(-0.0520479 0.243876 0)
(-0.0478229 0.243808 -2.18845e-22)
(-0.0432214 0.24308 0)
(-0.038256 0.241726 -1.51162e-19)
(-0.0329414 0.239788 -1.62251e-22)
(-0.0272953 0.237321 -1.49766e-19)
(-0.0213397 0.234394 1.49143e-19)
(-0.0151034 0.231094 -7.41631e-20)
(-0.0086264 0.227531 7.3944e-20)
(-0.00196668 0.223843 0)
(0.00481786 0.220199 1.46023e-19)
(0.0116457 0.21687 -7.24562e-20)
(0.0181637 0.21416 0)
(-0.00223687 0.0061233 7.31224e-21)
(-0.00748547 0.0191517 0)
(-0.0137122 0.0333107 -8.14703e-20)
(-0.0201839 0.0478839 9.99222e-20)
(-0.0266262 0.0624243 5.09021e-20)
(-0.0328407 0.0766882 -6.90703e-20)
(-0.0387057 0.0905234 7.02069e-20)
(-0.0441443 0.103839 -7.11696e-20)
(-0.0491093 0.116585 0)
(-0.0535741 0.128739 7.29356e-20)
(-0.0575237 0.140297 -7.3643e-20)
(-0.0609516 0.151261 3.07115e-23)
(-0.0638561 0.161635 0)
(-0.0662376 0.171423 7.53855e-20)
(-0.0680989 0.180622 -3.78692e-20)
(-0.0694446 0.189227 7.62429e-20)
(-0.0702809 0.197225 3.82597e-20)
(-0.0706149 0.204604 -7.67195e-20)
(-0.0704544 0.211345 0)
(-0.069807 0.217432 1.15564e-19)
(-0.0686809 0.22285 3.85404e-20)
(-0.0670847 0.227581 0)
(-0.065028 0.231615 0)
(-0.0625207 0.234942 0)
(-0.0595725 0.237556 7.69574e-20)
(-0.0561933 0.239457 0)
(-0.0523936 0.240649 -7.6542e-20)
(-0.0481839 0.241142 1.52549e-19)
(-0.0435752 0.240953 -1.52096e-19)
(-0.0385793 0.240104 0)
(-0.0332099 0.238627 7.55037e-20)
(-0.0274825 0.236564 -7.48898e-20)
(-0.0214158 0.233967 7.47992e-20)
(-0.0150325 0.230907 0)
(-0.00836212 0.227471 0)
(-0.00144612 0.223775 7.34333e-20)
(0.00565407 0.219963 -7.29855e-20)
(0.0128762 0.216224 1.45091e-19)
(0.0201474 0.21286 -1.4416e-19)
(0.0270813 0.210213 0)
(-0.00241952 0.00629043 5.11153e-20)
(-0.00794387 0.0194929 1.59119e-20)
(-0.0143625 0.0337229 6.51707e-20)
(-0.0209634 0.0482976 6.65244e-20)
(-0.0274746 0.0627949 -6.7873e-20)
(-0.0337052 0.0769863 6.90702e-20)
(-0.0395399 0.0907294 7.01264e-20)
(-0.0449074 0.103938 7.11694e-20)
(-0.0497663 0.116567 0)
(-0.0540943 0.128594 7.28681e-20)
(-0.0578806 0.140016 7.36426e-20)
(-0.0611218 0.150837 7.43012e-20)
(-0.0638185 0.161062 0)
(-0.0659737 0.170695 -3.53011e-23)
(-0.0675915 0.179738 7.5817e-20)
(-0.0686777 0.188184 -3.80722e-20)
(-0.0692394 0.196025 -3.82479e-20)
(-0.0692841 0.203248 1.15091e-19)
(-0.0688198 0.209838 5.25389e-23)
(-0.0678544 0.215779 -3.85374e-20)
(-0.0663961 0.221056 -7.70712e-20)
(-0.0644538 0.225654 0)
(-0.0620373 0.22956 0)
(-0.0591565 0.232766 0)
(-0.0558216 0.235265 0)
(-0.0520431 0.237057 0)
(-0.047832 0.238144 0)
(-0.0431996 0.238536 7.60908e-20)
(-0.038158 0.238248 -7.57745e-20)
(-0.0327204 0.237301 0)
(-0.0269014 0.235725 0)
(-0.0207179 0.233559 7.48885e-20)
(-0.0141898 0.230856 0)
(-0.00734096 0.227684 7.39546e-20)
(-0.000201906 0.224132 -7.35312e-20)
(0.00718454 0.220317 0)
(0.0147533 0.21639 1.45267e-19)
(0.0224374 0.212557 -1.44357e-19)
(0.0301741 0.209156 0)
(0.0375451 0.206571 0)
(-0.0026023 0.00643525 -5.84158e-20)
(-0.00839713 0.0197782 -1.58919e-20)
(-0.0149958 0.0340516 1.62727e-20)
(-0.0217087 0.0486052 -6.65244e-20)
(-0.0282673 0.0630411 0)
(-0.0344884 0.0771465 0)
(-0.0402634 0.090788 -5.25911e-20)
(-0.0455275 0.103885 -1.77683e-20)
(-0.0502448 0.116394 -3.60353e-20)
(-0.0543979 0.128296 -3.6467e-20)
(-0.0579802 0.139586 -3.68229e-20)
(-0.0609917 0.150271 3.70979e-20)
(-0.0634361 0.160356 3.73686e-20)
(-0.0653185 0.169847 -3.77122e-20)
(-0.0666451 0.178745 0)
(-0.067423 0.187047 0)
(-0.0676601 0.194745 -7.64318e-20)
(-0.0673649 0.201828 0)
(-0.0665455 0.208282 0)
(-0.0652102 0.214093 7.68612e-20)
(-0.0633678 0.219246 7.67823e-23)
(-0.0610273 0.223727 -1.32853e-23)
(-0.0581988 0.227524 -7.68903e-20)
(-0.0548928 0.230628 7.67253e-20)
(-0.0511198 0.233032 7.65248e-20)
(-0.0468913 0.234736 -7.63175e-20)
(-0.0422189 0.23574 0)
(-0.0371151 0.236054 7.58855e-20)
(-0.0315935 0.23569 3.79166e-24)
(-0.0256686 0.23467 -7.52356e-20)
(-0.0193566 0.23302 0)
(-0.0126759 0.230779 0)
(-0.00564818 0.227996 7.40705e-20)
(0.00170126 0.224738 -7.3662e-20)
(0.00934071 0.221092 -7.32023e-20)
(0.0172258 0.217178 7.2769e-20)
(0.0252877 0.213151 0)
(0.0334543 0.209231 0)
(0.0416741 0.205792 0)
(0.0494994 0.203268 -8.06973e-20)
(-0.0027841 0.00655731 7.28749e-20)
(-0.00884323 0.0200059 -3.17588e-20)
(-0.0156102 0.0342938 1.62579e-20)
(-0.0224187 0.0488019 0)
(-0.0290039 0.0631567 8.46697e-20)
(-0.035191 0.0771604 1.41841e-23)
(-0.0408784 0.0906891 7.00527e-20)
(-0.0460078 0.103667 -5.33121e-20)
(-0.0505493 0.116053 7.19849e-20)
(-0.0544906 0.12783 -3.63809e-20)
(-0.0578295 0.138993 0)
(-0.0605699 0.149548 3.7135e-20)
(-0.0627185 0.159502 -1.12179e-19)
(-0.0642831 0.168861 0)
(-0.065272 0.177627 1.13583e-19)
(-0.0656938 0.185798 -7.59952e-20)
(-0.0655578 0.193367 -7.63546e-20)
(-0.064873 0.200325 3.82624e-20)
(-0.0636484 0.206659 0)
(-0.061893 0.212357 -7.68578e-20)
(-0.0596157 0.217404 -7.68814e-20)
(-0.0568265 0.221786 -7.96286e-23)
(-0.0535359 0.225493 7.66957e-20)
(-0.0497547 0.228514 7.66393e-20)
(-0.0454945 0.230844 -1.52963e-19)
(-0.0407675 0.232479 7.63163e-20)
(-0.0355866 0.233424 0)
(-0.0299657 0.233683 -7.5596e-20)
(-0.0239199 0.233269 7.5262e-20)
(-0.0174654 0.232201 7.48984e-20)
(-0.0106205 0.230506 -7.4509e-20)
(-0.00340546 0.228218 7.40971e-20)
(0.00415634 0.225385 0)
(0.0120376 0.22207 7.3341e-20)
(0.0202051 0.21836 1.456e-19)
(0.0286129 0.214372 -1.44905e-19)
(0.0371882 0.210265 1.4387e-19)
(0.0458531 0.206269 -6.34124e-23)
(0.0545687 0.202797 -7.11806e-20)
(0.0628612 0.200333 1.60457e-19)
(-0.00296398 0.00665653 -4.37339e-20)
(-0.00928036 0.0201754 -9.51405e-20)
(-0.016204 0.0344474 6.49375e-20)
(-0.0230923 0.0488843 -4.97643e-20)
(-0.0296844 0.0631364 -1.69864e-20)
(-0.0358139 0.0770212 1.72195e-20)
(-0.0413869 0.0904239 -3.50103e-20)
(-0.0463519 0.103274 -3.54908e-20)
(-0.050685 0.115532 3.59947e-20)
(-0.0543794 0.127182 -7.27715e-20)
(-0.0574373 0.13822 -5.47194e-23)
(-0.0598668 0.148651 3.70596e-20)
(-0.0616779 0.158481 0)
(-0.0628812 0.167718 -3.76536e-20)
(-0.0634875 0.176363 -3.78861e-20)
(-0.0635074 0.184416 7.60481e-20)
(-0.0629514 0.191871 0)
(-0.0618295 0.198719 0)
(-0.0601517 0.20495 7.66962e-20)
(-0.0579276 0.210551 -7.67061e-20)
(-0.0551674 0.215509 0)
(-0.0518814 0.219811 7.67468e-20)
(-0.048081 0.223446 -7.66635e-20)
(-0.0437779 0.226404 -1.52994e-19)
(-0.0389845 0.22868 -7.29923e-24)
(-0.0337142 0.23027 7.6152e-20)
(-0.0279814 0.231177 -1.51542e-19)
(-0.0218018 0.231406 7.55946e-20)
(-0.015192 0.230968 -7.52606e-20)
(-0.00817053 0.22988 -1.30765e-22)
(-0.000757578 0.228168 9.7762e-23)
(0.00702424 0.225863 -7.40955e-20)
(0.0151494 0.223012 -7.33988e-20)
(0.0235885 0.219674 -7.29348e-20)
(0.0323065 0.215931 -2.94462e-22)
(0.0412557 0.211899 0)
(0.0503597 0.207737 -7.14687e-20)
(0.0595339 0.203683 1.42217e-19)
(0.0687522 0.200185 -2.12111e-19)
(0.0775202 0.197785 -2.30149e-22)
(-0.00314109 0.0067332 -1.45504e-20)
(-0.00970696 0.0202864 1.2676e-19)
(-0.0167759 0.0345117 -6.49413e-20)
(-0.0237286 0.0488502 4.9771e-20)
(-0.0303087 0.0629764 -1.35296e-19)
(-0.0363584 0.076723 1.72056e-20)
(-0.0417917 0.0899844 -6.99341e-20)
(-0.0465641 0.102695 0)
(-0.0506579 0.114819 0)
(-0.0540719 0.126339 -7.27041e-20)
(-0.0568132 0.137251 3.67644e-20)
(-0.0588939 0.147562 -2.10337e-23)
(-0.0603279 0.157275 3.73281e-20)
(-0.0611289 0.166398 0)
(-0.0613101 0.174934 -1.13451e-19)
(-0.0608844 0.18288 3.79635e-20)
(-0.0598639 0.190234 -7.62247e-20)
(-0.0582599 0.196988 0)
(-0.0560835 0.203131 0)
(-0.0533457 0.208652 6.35716e-23)
(-0.0500573 0.213539 -7.66508e-20)
(-0.04623 0.217778 7.65819e-20)
(-0.0418759 0.22136 -7.65351e-20)
(-0.037008 0.224275 7.63707e-20)
(-0.0316397 0.226518 5.98156e-23)
(-0.025786 0.228085 6.863e-23)
(-0.0194631 0.228977 7.57255e-20)
(-0.0126883 0.2292 -7.52293e-20)
(-0.00548046 0.228763 0)
(0.00213978 0.227684 -7.45424e-20)
(0.0101498 0.225984 7.4187e-20)
(0.0185245 0.223695 0)
(0.027236 0.220858 7.33971e-20)
(0.0362527 0.21753 -7.25897e-20)
(0.0455375 0.21379 7.22341e-20)
(0.0550408 0.209747 0)
(0.0646828 0.20556 2.14024e-19)
(0.0743716 0.201472 -1.41664e-19)
(0.0840936 0.197962 0)
(0.0933405 0.195633 7.90696e-20)
(-0.00331479 0.00678793 1.16202e-19)
(-0.0101217 0.0203398 -6.33472e-20)
(-0.0173248 0.0344866 -1.6215e-20)
(-0.0243272 0.0486984 1.65626e-20)
(-0.0308772 0.0626741 6.76129e-20)
(-0.0368259 0.0762614 0)
(-0.0420955 0.0893645 6.99343e-20)
(-0.0466486 0.101923 1.06308e-19)
(-0.0504742 0.113903 3.5899e-20)
(-0.0535764 0.125287 3.63359e-20)
(-0.0559675 0.136074 3.66864e-20)
(-0.0576641 0.146265 -1.11187e-19)
(-0.0586839 0.155866 3.73066e-20)
(-0.059044 0.164882 1.50292e-19)
(-0.0587604 0.173317 3.77915e-20)
(-0.0578484 0.18117 3.79399e-20)
(-0.0563221 0.188436 7.62241e-20)
(-0.0541942 0.195109 0)
(-0.0514775 0.201179 0)
(-0.0481841 0.206636 1.53233e-19)
(-0.0443265 0.211468 -3.06264e-19)
(-0.0399174 0.215663 -6.20583e-23)
(-0.0349705 0.21921 0)
(-0.0294997 0.222102 0)
(-0.0235202 0.224331 7.61075e-20)