/*--------------------------------*- C++ -*----------------------------------*\
  =========                 |
  \\      /  F ield         | OpenFOAM: The Open Source CFD Toolbox
   \\    /   O peration     | Website:  https://openfoam.org
    \\  /    A nd           | Version:  7
     \\/     M anipulation  |
\*---------------------------------------------------------------------------*/
FoamFile
{
    version     2.0;
    format      ascii;
    class       volScalarField;
    location    "72.2";
    object      p;
}
// * * * * * * * * * * * * * * * * * * * * * * * * * * * * * * * * * * * * * //

dimensions      [0 2 -2 0 0 0 0];

internalField   nonuniform List<scalar> 
2000
(
0.0115346
0.0116567
0.0118803
0.0121482
0.0124209
0.0126758
0.0129012
0.0130948
0.013259
0.0134013
0.0116207
0.0117798
0.0120227
0.0123133
0.0126096
0.0128862
0.0131283
0.01333
0.0134909
0.0136082
0.0116701
0.0118806
0.0121434
0.0124558
0.0127733
0.0130689
0.0133256
0.0135352
0.0136956
0.0137905
0.0116873
0.0119595
0.0122442
0.0125764
0.012911
0.0132206
0.0134872
0.0137017
0.0138622
0.0139369
0.0116772
0.0120224
0.0123288
0.0126771
0.0130227
0.0133388
0.013608
0.0138212
0.0139794
0.0140351
0.0116492
0.0120757
0.012402
0.0127611
0.0131097
0.0134229
0.0136847
0.0138876
0.014037
0.0140737
0.0116153
0.0121268
0.0124696
0.0128328
0.0131752
0.0134742
0.0137168
0.0138978
0.0140285
0.014043
0.0115896
0.0121842
0.0125386
0.0128978
0.0132234
0.0134964
0.0137075
0.0138548
0.0139563
0.0139445
0.0115879
0.012257
0.0126164
0.0129623
0.0132602
0.0134954
0.0136639
0.0137688
0.0138369
0.0138
0.0116264
0.0123548
0.0127108
0.0130334
0.0132924
0.0134785
0.0135941
0.0136499
0.0136837
0.0136349
0.0137653
0.0150176
0.0167679
0.0191383
0.0215801
0.0243092
0.02635
0.0289165
0.0294242
0.0310054
0.0138375
0.0148758
0.0162908
0.0184085
0.0206401
0.0231908
0.0250872
0.0274931
0.0280803
0.0294666
0.0138622
0.0147513
0.0158265
0.0176994
0.019734
0.0221202
0.0238864
0.0261695
0.0267721
0.0280432
0.0138282
0.014635
0.0153772
0.0170159
0.0188643
0.021096
0.0227504
0.024926
0.0255177
0.0267322
0.0137292
0.0145087
0.014945
0.0163621
0.018034
0.0201216
0.0216804
0.0237605
0.0243439
0.025529
0.0135647
0.0143479
0.0145306
0.0157397
0.0172434
0.0191938
0.0206647
0.0226543
0.0232359
0.0244133
0.0133444
0.0141293
0.0141322
0.0151489
0.0164984
0.0183235
0.0197191
0.0216298
0.0222168
0.0233891
0.0130808
0.0138296
0.013744
0.0145852
0.0157851
0.0174819
0.0188034
0.0206319
0.0212316
0.0224307
0.0127728
0.0134212
0.0133419
0.0140652
0.0151553
0.0167395
0.0180009
0.0197472
0.020354
0.0215587
0.0125485
0.0130495
0.0129426
0.0135009
0.014455
0.015913
0.0171231
0.0187818
0.0194438
0.0207148
0.0133211
0.0137972
0.0138483
0.0139742
0.0143899
0.015262
0.0161629
0.0173691
0.0179685
0.0189072
0.0107957
0.0113012
0.0116397
0.0120342
0.0125662
0.0133206
0.0140791
0.0149871
0.015455
0.0160609
0.0087869
0.00931971
0.00966184
0.0100123
0.010498
0.011184
0.0118501
0.0126158
0.0129775
0.0134152
0.00675002
0.00738228
0.00785477
0.00822793
0.00865225
0.00923527
0.00979315
0.0104354
0.0107105
0.0110532
0.00477597
0.00547716
0.00610505
0.00659012
0.00701442
0.00751248
0.00796808
0.00849198
0.00869732
0.00897472
0.00300836
0.00372571
0.00445522
0.00504281
0.00551273
0.00597891
0.0063668
0.00679083
0.00693883
0.00714694
0.00156009
0.00224877
0.00301571
0.00363266
0.00410522
0.0045355
0.00487031
0.00521976
0.00532836
0.00548485
0.000494301
0.00108091
0.00180892
0.00240678
0.00284099
0.00320602
0.00347325
0.00375206
0.00381944
0.00392301
-0.000100403
0.000327241
0.000906242
0.00136577
0.00167256
0.00192031
0.00208897
0.00229073
0.00231511
0.00238397
-0.000768945
-0.000248422
0.000198585
0.00048368
0.000620796
0.000716133
0.000758378
0.000856357
0.000824158
0.000836492
0.0126377
0.0103368
0.00834468
0.00632113
0.00440892
0.00270532
0.00133059
0.000308331
-0.00014748
-0.000875642
0.0121851
0.00994798
0.0079763
0.00599311
0.00414377
0.00250698
0.00120095
0.000234002
-0.000165478
-0.000804274
0.0117023
0.00958608
0.00764401
0.0057097
0.00392146
0.00234933
0.00110654
0.000200972
-0.000167918
-0.000684386
0.0113046
0.0093179
0.00740042
0.00551176
0.00377725
0.00226028
0.00107099
0.00021234
-0.00014088
-0.00055819
0.0110098
0.00912808
0.00723055
0.00538137
0.00369688
0.00222815
0.00108277
0.00026046
-8.90708e-05
-0.000435
0.0108306
0.00901645
0.00713375
0.00531729
0.00367472
0.00224658
0.00113592
0.000339638
-1.82498e-05
-0.000318783
0.0107766
0.00897986
0.00711032
0.00531652
0.00370823
0.00231188
0.00122591
0.000444629
6.70989e-05
-0.000212625
0.0108431
0.00901651
0.00715623
0.00537496
0.00379252
0.00241869
0.00134724
0.000569929
0.000162931
-0.000117848
0.0110112
0.00912173
0.00726558
0.00548683
0.00392137
0.00256077
0.00149391
0.000710254
0.0002656
-3.42068e-05
0.0112623
0.00928771
0.00743024
0.00564486
0.00408767
0.00273153
0.00166003
0.000860885
0.000372068
3.94138e-05
0.0115727
0.00950125
0.0076385
0.00583955
0.00428295
0.00292393
0.00183982
0.0010177
0.000479929
0.000104387
0.0119245
0.00975135
0.007881
0.00606373
0.00450056
0.0031325
0.00202879
0.00117766
0.000587532
0.000162022
0.0123059
0.0100319
0.00815147
0.00631303
0.00473596
0.00335344
0.00222381
0.00133874
0.000693908
0.000213581
0.0127058
0.0103375
0.00844329
0.00658305
0.00498488
0.00358339
0.00242239
0.00149955
0.000798535
0.000260131
0.013115
0.0106643
0.00875088
0.00687015
0.00524399
0.00381974
0.00262279
0.00165919
0.000901218
0.000302549
0.013526
0.0110104
0.00906929
0.00717103
0.00551062
0.00406033
0.00282375
0.00181713
0.00100198
0.000341564
0.013928
0.0113713
0.00939293
0.00748163
0.00578227
0.00430321
0.00302434
0.00197305
0.00110097
0.000377839
0.0143142
0.0117511
0.00972479
0.00780402
0.00606104
0.00454964
0.00322558
0.00212771
0.00119885
0.000412085
0.0147192
0.0121953
0.0100944
0.00815824
0.00636129
0.00480858
0.00343286
0.00228407
0.00129711
0.000444595
0.0150466
0.0126393
0.0104559
0.00850414
0.0066578
0.00506046
0.00363484
0.00243525
0.00139284
0.000473273
0.0146146
0.0129108
0.0108739
0.00898997
0.00715587
0.00551455
0.00403201
0.00274427
0.0015977
0.000540284
0.0146017
0.0129233
0.0109723
0.00919299
0.00741529
0.00581163
0.00432207
0.00300029
0.00178136
0.000618924
0.0150432
0.0133237
0.0113404
0.00956865
0.00777152
0.00614681
0.00461236
0.0032411
0.0019546
0.000701465
0.0157619
0.0138798
0.0118078
0.00998875
0.0081422
0.00647514
0.00488596
0.00346767
0.0021277
0.000796842
0.0167681
0.0146278
0.0124116
0.010485
0.00855405
0.00681619
0.00516191
0.00369769
0.00231329
0.000907794
0.0180106
0.0155571
0.0131549
0.011064
0.00901907
0.00718335
0.00545582
0.00393852
0.00250781
0.00101996
0.019362
0.0165884
0.0139826
0.0116955
0.00952147
0.00757209
0.00576694
0.00418034
0.00267914
0.00109123
0.0206493
0.0175741
0.0147723
0.012297
0.010005
0.00795034
0.00606976
0.0043917
0.00278661
0.00109249
0.0216701
0.0183477
0.0153886
0.0127696
0.010391
0.00825882
0.0063145
0.00454084
0.00282344
0.00104319
0.0222555
0.018769
0.0157164
0.0130223
0.0106023
0.00843242
0.00645242
0.00461619
0.00282501
0.000997449
0.0159025
0.0159367
0.0164554
0.017278
0.0184289
0.0198128
0.0213273
0.0228088
0.0240321
0.0247542
0.0161744
0.0164169
0.0170603
0.0179976
0.0192603
0.0207362
0.0223268
0.0238604
0.0251112
0.0258386
0.0162685
0.0167629
0.0176021
0.018726
0.0201564
0.0217765
0.023479
0.0250676
0.0263139
0.0270103
0.0164255
0.01711
0.0181119
0.0194065
0.0209918
0.0227574
0.0245907
0.0262728
0.0275625
0.0282699
0.0166495
0.017525
0.0186701
0.0201114
0.0218279
0.0237202
0.0256768
0.0274674
0.0288365
0.0295924
0.0168969
0.0179851
0.0192908
0.0208802
0.022725
0.0247365
0.0268055
0.0286982
0.0301505
0.0309629
0.0171615
0.0184682
0.019957
0.021707
0.0236918
0.0258303
0.0280114
0.0299985
0.031523
0.032382
0.0174539
0.0189739
0.0206596
0.0225778
0.0247147
0.0269923
0.0292932
0.0313744
0.0329624
0.0338561
0.0177809
0.0195058
0.0213991
0.0234861
0.0257835
0.0282088
0.0306382
0.0328185
0.0344685
0.0353898
0.0181451
0.0200619
0.0221758
0.0244288
0.0268939
0.0294722
0.0320374
0.0343234
0.0360385
0.036985
0.018549
0.0206346
0.0229868
0.0254003
0.0280427
0.0307785
0.0334869
0.0358853
0.0376703
0.0386418
0.0189899
0.0212146
0.0238252
0.0263915
0.0292239
0.0321222
0.0349832
0.0375022
0.0393635
0.0403608
0.0194527
0.0217952
0.0246758
0.0273946
0.0304288
0.0334994
0.036524
0.0391726
0.0411199
0.0421451
0.0199109
0.0223763
0.0255178
0.0284055
0.0316455
0.0349041
0.0381046
0.0408946
0.0429433
0.0440029
0.0203227
0.0229603
0.0263136
0.0294358
0.0328698
0.0363327
0.0397223
0.042667
0.0448262
0.045927
0.0206656
0.0235408
0.0270822
0.0304342
0.034079
0.0377649
0.0413624
0.0444798
0.0467623
0.047914
0.0209395
0.0240848
0.0278057
0.0313859
0.0352631
0.0391936
0.0430212
0.0463315
0.0487524
0.0499677
0.0211105
0.0245727
0.028457
0.0322753
0.0363964
0.04059
0.0446726
0.0482036
0.0507875
0.0520861
0.021157
0.0250123
0.0290484
0.0331252
0.0375071
0.0419851
0.0463417
0.0501119
0.0528766
0.0542791
0.0209471
0.0252698
0.0294427
0.0337671
0.038408
0.0431954
0.0478799
0.0519618
0.0549746
0.0565281
0.0217416
0.0271821
0.0317629
0.0366073
0.0417387
0.0470467
0.0522556
0.0568558
0.0603068
0.0621565
0.0271022
0.0323461
0.0371793
0.0427873
0.0487417
0.0549275
0.0609635
0.0662552
0.0701955
0.0722767
0.0329617
0.0384795
0.0438761
0.0503398
0.0571483
0.0642488
0.0710718
0.0769578
0.0812837
0.0835745
0.0391288
0.0452125
0.051488
0.0589416
0.0667034
0.0747834
0.0823473
0.0887414
0.0933389
0.0956869
0.0456483
0.0524563
0.0597484
0.0682541
0.0770323
0.0861078
0.0943438
0.101165
0.105939
0.108419
0.0526361
0.0602102
0.0686103
0.0781793
0.0879953
0.0980351
0.106874
0.114026
0.118735
0.120844
0.0595421
0.0680185
0.0774556
0.0879793
0.0987776
0.109645
0.119027
0.126433
0.130885
0.132939
0.0664008
0.0754676
0.0858689
0.0973333
0.109127
0.120763
0.130809
0.138592
0.142519
0.142443
0.070696
0.0807015
0.0919117
0.104121
0.116694
0.128891
0.139474
0.147389
0.150231
0.152325
0.0748075
0.0850361
0.096811
0.109637
0.12299
0.135984
0.148046
0.158266
0.163046
0.147399
0.0199822
0.0250942
0.0302811
0.0360176
0.0418945
0.0485754
0.0547591
0.0616259
0.0652025
0.0692832
0.0194516
0.0247493
0.0298914
0.0354811
0.0411375
0.0476174
0.0534607
0.0601245
0.0632422
0.0672536
0.0192371
0.0247963
0.0299652
0.0355001
0.0410388
0.0473017
0.0528282
0.0590791
0.0617788
0.0655127
0.018926
0.0246039
0.0297295
0.0352424
0.0406804
0.0467639
0.052044
0.057951
0.060464
0.0638428
0.018568
0.0242557
0.0293143
0.0347402
0.0400946
0.0459813
0.0510587
0.0566913
0.0591644
0.0622282
0.0182058
0.0238721
0.028891
0.0342062
0.0394756
0.0451626
0.0500786
0.0554291
0.0579231
0.0607242
0.0178366
0.0234742
0.0284847
0.0337189
0.0389075
0.0444026
0.0492355
0.0542534
0.0568217
0.0593763
0.0174624
0.0230641
0.028083
0.0332687
0.0383942
0.0437416
0.0484999
0.0532462
0.0558673
0.0581982
0.017094
0.0226552
0.0276906
0.0328484
0.0379288
0.0431764
0.047855
0.0524156
0.0550505
0.0572022
0.0167451
0.0222628
0.0273221
0.032468
0.0375188
0.0427026
0.0473108
0.0517435
0.0543692
0.0563971
0.0164291
0.0218976
0.0269903
0.0321409
0.037178
0.0423237
0.0468835
0.0512203
0.0538333
0.0557808
0.0161436
0.0215578
0.0266975
0.0318706
0.0369137
0.0420446
0.046583
0.0508472
0.0534524
0.0553464
0.0158744
0.0212358
0.0264404
0.0316548
0.0367269
0.0418689
0.0464129
0.0506286
0.0532327
0.0550896
0.0156116
0.0209329
0.0262187
0.0314929
0.0366174
0.0417983
0.0463732
0.050566
0.0531724
0.0550074
0.0153428
0.0206523
0.0260309
0.0313836
0.0365846
0.0418335
0.0464641
0.0506611
0.053271
0.0551024
0.0150485
0.0203925
0.0258701
0.0313213
0.0366239
0.0419683
0.0466804
0.0509083
0.0535155
0.0553754
0.0147028
0.0201479
0.0257261
0.0312998
0.036733
0.0422019
0.0470265
0.0513128
0.0539115
0.0558375
0.014279
0.0199033
0.025578
0.0312983
0.0368878
0.0425067
0.0474769
0.0518513
0.0544213
0.056491
0.0137454
0.0196604
0.0254419
0.0313384
0.0371167
0.0429172
0.0480664
0.0525576
0.0550891
0.0573561
0.0129868
0.0192384
0.0251479
0.0312417
0.0372288
0.0432414
0.048629
0.0533105
0.0557944
0.0584167
0.0141361
0.0204665
0.0263279
0.032628
0.0389804
0.0453068
0.0510529
0.0560287
0.0585133
0.0615056
0.0182796
0.0246246
0.030651
0.0374884
0.044473
0.0515095
0.0579805
0.0634336
0.0666511
0.0692025
0.0234584
0.0301473
0.0367003
0.0443496
0.0521959
0.060228
0.0676514
0.0738338
0.0777915
0.0801205
0.0291064
0.0363863
0.043819
0.0526039
0.0616841
0.0711478
0.0799313
0.0873409
0.0924298
0.0952968
0.0349632
0.0430155
0.0515984
0.061762
0.072402
0.0837176
0.0943843
0.103834
0.110966
0.115628
0.0410094
0.0499402
0.0599277
0.0716218
0.0841192
0.0976782
0.110916
0.123674
0.134987
0.144064
0.0463222
0.0564263
0.0678248
0.0810709
0.095657
0.111779
0.128546
0.146534
0.165216
0.184121
0.0517202
0.0626852
0.0754363
0.0902963
0.107128
0.126192
0.147581
0.173525
0.205744
0.245326
0.0538664
0.0653805
0.0789314
0.0949063
0.113824
0.13649
0.164707
0.202462
0.256952
0.334125
0.0568017
0.0698264
0.0848741
0.102968
0.125349
0.153605
0.191141
0.245158
0.331609
0.459035
0.0132932
0.0170598
0.0213035
0.0260958
0.0308745
0.0364159
0.0407399
0.0459575
0.0478034
0.0497257
0.0129863
0.0167408
0.0208449
0.0253982
0.0298338
0.0350969
0.0390171
0.0440517
0.0456358
0.0477971
0.0129477
0.01665
0.020672
0.0250767
0.0293187
0.0342752
0.0378714
0.042541
0.0437925
0.04657
0.0129753
0.0164696
0.0202974
0.0245131
0.0285528
0.0332246
0.036558
0.0408893
0.041865
0.0449045
0.0130431
0.0162372
0.0197869
0.0237864
0.0275593
0.03193
0.0350039
0.0390605
0.0398035
0.042728
0.0131442
0.0160056
0.0192671
0.0230125
0.0265298
0.0305765
0.0333821
0.0371988
0.0377286
0.0403755
0.0132662
0.0157823
0.0187613
0.0222114
0.0255421
0.0292592
0.0318211
0.0354124
0.0357571
0.0381412
0.013399
0.0155671
0.018258
0.0214221
0.0245458
0.0279753
0.0303608
0.0337147
0.0339402
0.0361341
0.0135333
0.0153647
0.0177548
0.0206475
0.0235435
0.0267047
0.0289918
0.032065
0.03229
0.0343255
0.0136591
0.0151803
0.0172565
0.0198853
0.0225505
0.0254791
0.0276579
0.0304478
0.030803
0.0326355
0.011723
0.0124883
0.0128312
0.0131196
0.0133288
0.0134547
0.0135061
0.0134973
0.0134607
0.0133636
0.011902
0.0126711
0.0129883
0.0132313
0.0133806
0.0134376
0.0134164
0.0133345
0.0132235
0.0130564
0.0121746
0.0129115
0.0131914
0.0133791
0.0134609
0.0134435
0.0133457
0.0131884
0.0130068
0.012776
0.0125522
0.013219
0.0134503
0.0135743
0.0135832
0.0134886
0.0133135
0.0130819
0.0128312
0.0125376
0.0130439
0.0136018
0.0137742
0.0138275
0.0137597
0.0135876
0.013337
0.0130342
0.0127162
0.0123594
0.0136534
0.0140655
0.0141693
0.014146
0.0139997
0.0137512
0.0134286
0.0130587
0.0126769
0.0122621
0.014378
0.0146112
0.014638
0.0145332
0.0143074
0.0139847
0.0135941
0.013162
0.0127205
0.012256
0.015209
0.0152349
0.0151772
0.014987
0.0146815
0.014287
0.0138327
0.0133449
0.0128499
0.0123254
0.0161293
0.0159257
0.015778
0.0154995
0.0151144
0.0146513
0.0141378
0.0135991
0.0130552
0.012486
0.017103
0.0166662
0.0164239
0.016056
0.0155931
0.0150647
0.0144971
0.0139126
0.0133259
0.012723
0.0180816
0.0174241
0.0170919
0.0166371
0.0160999
0.0155109
0.0148944
0.0142694
0.013647
0.0130194
0.0190756
0.0181899
0.0177641
0.0172229
0.0166147
0.0159703
0.0153106
0.0146516
0.0140012
0.0133576
0.0200368
0.018929
0.0184121
0.017789
0.0171161
0.0164231
0.0157275
0.0150414
0.0143714
0.0137209
0.0209205
0.0196077
0.0190072
0.018311
0.0175824
0.0168497
0.0161266
0.0154216
0.014741
0.0140933
0.0216876
0.0201943
0.0195224
0.0187654
0.017993
0.0172318
0.0164914
0.0157767
0.015095
0.0144606
0.0223024
0.0206597
0.0199327
0.0191312
0.01833
0.0175535
0.0168074
0.0160933
0.0154208
0.0148106
0.0227338
0.0209782
0.0202169
0.019391
0.0185788
0.0178024
0.0170639
0.0163614
0.0157073
0.0151314
0.0229574
0.0211296
0.0203587
0.019532
0.018729
0.0179698
0.0172536
0.0165747
0.0159459
0.0154088
0.0229567
0.0211002
0.0203474
0.0195464
0.018775
0.0180516
0.017373
0.0167272
0.0161219
0.0156214
0.022724
0.0208832
0.0201782
0.0194314
0.0187164
0.0180494
0.0174245
0.0168204
0.0162359
0.0157738
0.0222583
0.0204785
0.0198513
0.0191886
0.0185573
0.0179741
0.017437
0.0169344
0.0164854
0.0162144
0.021559
0.0198891
0.0193702
0.0188201
0.0182966
0.0178158
0.0173787
0.0169799
0.0166372
0.0164319
0.0206467
0.0191302
0.0187455
0.0183324
0.0179363
0.0175716
0.0172413
0.0169443
0.0166914
0.0165242
0.0195481
0.0182219
0.0179921
0.0177365
0.0174848
0.0172499
0.017037
0.0168491
0.0166937
0.0165907
0.0182947
0.0171888
0.0171292
0.0170473
0.0169551
0.0168628
0.0167787
0.0167094
0.0166608
0.0166437
0.0169229
0.0160595
0.0161795
0.0162831
0.0163623
0.0164239
0.0164787
0.0165366
0.0166029
0.0166841
0.0154723
0.0148651
0.015168
0.0154641
0.0157232
0.0159475
0.0161495
0.016342
0.016531
0.0167208
0.0139828
0.0136372
0.0141205
0.0146107
0.0150547
0.0154478
0.0158035
0.0161366
0.0164551
0.0167632
0.012494
0.0124061
0.0130618
0.0137429
0.0143726
0.0149377
0.0154511
0.0159294
0.0163825
0.016817
0.0110557
0.0112042
0.0120172
0.0128797
0.0136915
0.0144283
0.0151011
0.0157269
0.0163179
0.0168852
0.00973771
0.0100757
0.0110176
0.0120426
0.0130265
0.0139304
0.0147609
0.0155343
0.0162638
0.0169678
0.00847391
0.0090092
0.0100654
0.0112384
0.0123842
0.0134488
0.0144335
0.0153525
0.0162186
0.01706
0.00731025
0.0080296
0.00917294
0.0104788
0.0117727
0.0129881
0.0141206
0.0151805
0.0161782
0.0171514
0.00627217
0.00714967
0.00836175
0.0097744
0.0111972
0.0125506
0.0138214
0.0150155
0.0161372
0.0172283
0.00536994
0.0063798
0.00763811
0.0091314
0.0106619
0.0121373
0.0135343
0.0148529
0.0160896
0.0172835
0.00460815
0.00572497
0.00700604
0.00855362
0.0101688
0.0117479
0.0132576
0.014689
0.0160277
0.0173193
0.00398738
0.00518609
0.00646793
0.00804339
0.00971876
0.0113819
0.012989
0.0145222
0.0159511
0.0173173
0.0035043
0.00476083
0.00602382
0.00760154
0.00931179
0.0110378
0.0127267
0.0143514
0.0158609
0.017277
0.00315241
0.00444434
0.00567163
0.00722746
0.00894713
0.010714
0.0124685
0.0141782
0.0157726
0.0172246
0.00292334
0.00423013
0.00540752
0.0069193
0.00862304
0.0104073
0.0122077
0.0139915
0.0156919
0.0172067
0.00280522
0.00410913
0.0052253
0.00667331
0.00833654
0.0101147
0.0119432
0.0138019
0.0157191
0.017594
0.00277333
0.00406632
0.00511639
0.0064855
0.00808402
0.00982486
0.011641
0.0134955
0.0154118
0.0172808
0.00282794
0.00409819
0.00507713
0.0063543
0.00786578
0.00953857
0.0113051
0.0131132
0.0149668
0.0167765
0.00296066
0.0041967
0.00510179
0.0062784
0.00768662
0.00926965
0.0109654
0.0127184
0.0145213
0.0162836
0.00315948
0.00435215
0.00518366
0.00625609
0.00755133
0.00903051
0.0106411
0.0123299
0.0140821
0.0158031
0.0034129
0.00455534
0.00531589
0.00628462
0.00746226
0.00882821
0.0103418
0.0119541
0.0136453
0.0153239
0.00371047
0.00479773
0.00549148
0.00636014
0.00741971
0.00866707
0.0100746
0.0115999
0.0132197
0.0148507
0.00404249
0.00507116
0.00570326
0.00647785
0.00742243
0.0085496
0.00984553
0.0112756
0.0128153
0.014392
0.00440037
0.00536804
0.00594398
0.00663205
0.0074675
0.00847629
0.00965806
0.0109873
0.0124397
0.0139555
0.00477926
0.00568431
0.00620891
0.00681823
0.00755179
0.00844626
0.00951378
0.0107387
0.0120978
0.0135475
0.00517832
0.00602136
0.00649906
0.0070369
0.00767604
0.00846119
0.00941567
0.0105338
0.0117947
0.0131723
0.00557572
0.006359
0.00679582
0.00727165
0.00782685
0.00851128
0.00935761
0.0103697
0.0115291
0.0128278
0.00597204
0.00669815
0.00709874
0.00752057
0.00800144
0.00859377
0.00933749
0.0102452
0.0113002
0.012511
0.00636618
0.00703751
0.00740564
0.00778043
0.0081959
0.00870479
0.00935213
0.0101581
0.0111063
0.0122192
0.00675587
0.00737456
0.00771337
0.00804729
0.00840576
0.00883999
0.00939795
0.0101057
0.0109457
0.0119496
0.00713952
0.00770744
0.00801953
0.00831795
0.00862719
0.00899548
0.0094717
0.0100859
0.0108169
0.0116993
0.00751634
0.00803509
0.0083226
0.00859017
0.00885723
0.00916807
0.00957087
0.0100979
0.0107212
0.0114679
0.00788607
0.00835693
0.00862179
0.00886258
0.00909384
0.0093554
0.00969366
0.0101422
0.0106636
0.0112606
0.00824864
0.00867278
0.00891693
0.00913488
0.00933642
0.00955671
0.0098394
0.0102191
0.0106493
0.0110836
0.00860387
0.00898255
0.00920829
0.00940774
0.00958663
0.00977607
0.0100167
0.010345
0.0107223
0.0110286
0.00895186
0.00928618
0.00949603
0.00968168
0.00984603
0.0100191
0.010245
0.0105851
0.0111279
0.0118937
0.00929417
0.00958351
0.00977974
0.00995613
0.0101121
0.0102744
0.0104843
0.0107982
0.0113032
0.011994
0.0096275
0.00987332
0.0100588
0.0102301
0.0103824
0.0105369
0.0107285
0.0110032
0.0114258
0.0119875
0.00994883
0.010154
0.0103318
0.0105024
0.010656
0.0108078
0.0109866
0.0112311
0.0115914
0.0120576
0.0102549
0.0104235
0.010597
0.010771
0.0109309
0.0110857
0.0112579
0.0114794
0.0117891
0.012181
0.0105423
0.0106791
0.0108519
0.0110334
0.0112041
0.011367
0.0115377
0.0117415
0.0120083
0.0123393
0.0108068
0.0109179
0.0110941
0.0112866
0.0114722
0.0116474
0.0118216
0.0120134
0.0122453
0.0125258
0.0110431
0.011138
0.0113205
0.0115276
0.0117315
0.0119229
0.0121051
0.0122905
0.0124954
0.0127336
0.0112474
0.0113367
0.0115285
0.0117532
0.0119782
0.0121889
0.0123829
0.0125671
0.0127525
0.0129544
0.0114139
0.0115109
0.0117159
0.0119608
0.0122088
0.012441
0.0126498
0.0128371
0.0130093
0.0131797
)
;

boundaryField
{
    inlet
    {
        type            zeroGradient;
    }
    outlet
    {
        type            fixedValue;
        value           uniform 0;
    }
    cylinder
    {
        type            zeroGradient;
    }
    top
    {
        type            symmetryPlane;
    }
    bottom
    {
        type            symmetryPlane;
    }
    defaultFaces
    {
        type            empty;
    }
}


// ************************************************************************* //
