/*--------------------------------*- C++ -*----------------------------------*\
  =========                 |
  \\      /  F ield         | OpenFOAM: The Open Source CFD Toolbox
   \\    /   O peration     | Website:  https://openfoam.org
    \\  /    A nd           | Version:  7
     \\/     M anipulation  |
\*---------------------------------------------------------------------------*/
FoamFile
{
    version     2.0;
    format      ascii;
    class       volScalarField;
    location    "6";
    object      p;
}
// * * * * * * * * * * * * * * * * * * * * * * * * * * * * * * * * * * * * * //

dimensions      [0 2 -2 0 0 0 0];

internalField   nonuniform List<scalar> 
18000
(
0.672994
0.673207
0.673376
0.673553
0.673752
0.674007
0.674381
0.674942
0.675734
0.676785
0.678112
0.679726
0.68164
0.683858
0.686368
0.689148
0.692172
0.695416
0.698853
0.702453
0.706179
0.709992
0.713857
0.71774
0.721615
0.725456
0.729241
0.732956
0.736572
0.739995
0.672288
0.672422
0.672561
0.672713
0.672894
0.673132
0.67349
0.674028
0.674789
0.675803
0.677083
0.678637
0.680475
0.682599
0.684999
0.687655
0.690544
0.693641
0.696918
0.700345
0.703889
0.707513
0.711183
0.714867
0.71854
0.722177
0.72576
0.729276
0.732692
0.735941
0.671573
0.67163
0.671738
0.671866
0.672034
0.672263
0.672614
0.673139
0.673877
0.674859
0.676098
0.677598
0.679365
0.6814
0.683693
0.686227
0.688981
0.691928
0.695042
0.698293
0.701649
0.705077
0.708544
0.71202
0.715481
0.718905
0.722275
0.725578
0.728781
0.731842
0.67083
0.67081
0.670896
0.671007
0.671169
0.671399
0.671751
0.672272
0.672997
0.673954
0.675158
0.676609
0.67831
0.680259
0.682447
0.684861
0.687479
0.690276
0.693223
0.696293
0.699456
0.702681
0.705938
0.709198
0.712439
0.71564
0.718785
0.721862
0.724837
0.727694
0.67008
0.66999
0.670053
0.67015
0.67031
0.670546
0.670905
0.671428
0.672147
0.673086
0.674259
0.675665
0.677302
0.679169
0.681256
0.683552
0.686036
0.68868
0.691457
0.694342
0.697307
0.700323
0.703362
0.706399
0.709411
0.712379
0.715288
0.718129
0.720864
0.7235
0.669313
0.669152
0.669197
0.669284
0.669447
0.669696
0.670067
0.670599
0.671319
0.672248
0.673396
0.67476
0.676337
0.678125
0.680117
0.682298
0.684647
0.687136
0.68974
0.692437
0.6952
0.698002
0.700818
0.703624
0.706399
0.709123
0.711786
0.714378
0.716862
0.719264
0.668531
0.668303
0.668332
0.668414
0.668583
0.668848
0.669239
0.669787
0.670514
0.671438
0.672563
0.673889
0.67541
0.677124
0.679024
0.681093
0.683306
0.685639
0.688069
0.690574
0.693132
0.695716
0.698304
0.700873
0.703403
0.705876
0.708282
0.710615
0.712838
0.714993
0.667729
0.667441
0.667455
0.667535
0.667714
0.667999
0.668414
0.668985
0.669726
0.670648
0.671756
0.673046
0.674516
0.676162
0.677974
0.679931
0.682008
0.684184
0.686438
0.688752
0.691102
0.693465
0.695821
0.698148
0.700426
0.70264
0.704782
0.706846
0.708801
0.710695
0.666901
0.666561
0.666564
0.666643
0.666835
0.667145
0.66759
0.668188
0.668947
0.669872
0.670967
0.672227
0.673651
0.675233
0.676958
0.678804
0.680747
0.682767
0.684846
0.686966
0.689106
0.691247
0.693368
0.695449
0.697471
0.69942
0.701291
0.703081
0.704761
0.706382
0.666046
0.665661
0.665653
0.665734
0.665943
0.666281
0.666761
0.66739
0.668171
0.669104
0.67019
0.671426
0.672809
0.67433
0.67597
0.677707
0.679517
0.681383
0.683286
0.685213
0.687145
0.689062
0.690947
0.692778
0.694541
0.696222
0.697818
0.69933
0.700731
0.702069
0.665159
0.664735
0.66472
0.664806
0.665035
0.665405
0.665922
0.666586
0.667392
0.668338
0.66942
0.670637
0.671983
0.673446
0.675004
0.676634
0.678315
0.680027
0.681758
0.683492
0.685215
0.686909
0.688556
0.690137
0.691639
0.693052
0.694372
0.695603
0.696724
0.697771
0.664236
0.663781
0.663761
0.663855
0.664107
0.664511
0.665069
0.665771
0.666606
0.667567
0.668651
0.669853
0.671166
0.672574
0.674053
0.67558
0.677134
0.678696
0.680255
0.681799
0.683315
0.684787
0.686197
0.687529
0.688771
0.689916
0.69096
0.69191
0.692754
0.693506
0.663274
0.662795
0.662773
0.662878
0.663155
0.663597
0.664197
0.664939
0.665806
0.666787
0.667875
0.669067
0.670351
0.671707
0.673111
0.674539
0.675968
0.677384
0.678775
0.680132
0.681444
0.682695
0.683869
0.684954
0.685939
0.686818
0.687589
0.688263
0.688835
0.689292
0.662269
0.661772
0.661751
0.66187
0.662176
0.662657
0.663301
0.664085
0.664986
0.665989
0.667086
0.668271
0.669529
0.670838
0.672171
0.673502
0.674811
0.676083
0.677311
0.678486
0.679597
0.680632
0.681574
0.682414
0.683146
0.683764
0.684267
0.68467
0.68498
0.685147
0.661218
0.660709
0.660693
0.660829
0.661165
0.661687
0.662376
0.663204
0.664141
0.665168
0.666277
0.667458
0.668694
0.669959
0.671224
0.672462
0.673655
0.67479
0.675859
0.676857
0.677773
0.678595
0.67931
0.679911
0.680394
0.680757
0.681
0.681142
0.681202
0.681089
0.660119
0.659603
0.659594
0.659749
0.660118
0.660683
0.661418
0.66229
0.663264
0.664318
0.665441
0.666621
0.667839
0.669063
0.670263
0.671413
0.672494
0.673497
0.674414
0.675241
0.675968
0.676582
0.677075
0.677442
0.677683
0.677801
0.677793
0.677685
0.677512
0.677133
0.65897
0.658451
0.658452
0.658629
0.659032
0.65964
0.660422
0.661339
0.662351
0.663433
0.664573
0.665755
0.666956
0.668142
0.669281
0.670346
0.671321
0.672198
0.67297
0.673632
0.674175
0.674588
0.674865
0.675006
0.675015
0.674896
0.674651
0.674306
0.673917
0.673293
0.657771
0.657252
0.657265
0.657466
0.657904
0.658555
0.659383
0.660345
0.661395
0.662508
0.663667
0.664854
0.66604
0.66719
0.66827
0.669255
0.67013
0.670886
0.67152
0.672023
0.672389
0.672607
0.672676
0.6726
0.672386
0.672043
0.671574
0.671009
0.670421
0.669578
0.656519
0.656003
0.65603
0.656257
0.656732
0.657425
0.658299
0.659304
0.660394
0.661539
0.662719
0.663912
0.665085
0.666201
0.667225
0.668133
0.668912
0.669555
0.670056
0.670408
0.670603
0.670634
0.670504
0.67022
0.669795
0.669242
0.668564
0.667794
0.667026
0.665991
0.655213
0.654702
0.654745
0.655001
0.655512
0.656248
0.657165
0.658213
0.659343
0.660522
0.661725
0.662925
0.664085
0.665166
0.666136
0.666972
0.667661
0.668195
0.668569
0.668776
0.668807
0.668659
0.668339
0.667859
0.667237
0.666487
0.665616
0.664659
0.66373
0.662531
0.65385
0.653345
0.653407
0.653693
0.654243
0.65502
0.65598
0.65707
0.65824
0.659452
0.660678
0.661885
0.663032
0.66408
0.664998
0.665764
0.666366
0.666797
0.66705
0.667116
0.66699
0.666672
0.666173
0.665509
0.664702
0.663769
0.662723
0.661598
0.660525
0.659194
0.652429
0.65193
0.652012
0.652331
0.652919
0.653738
0.65474
0.655871
0.65708
0.658326
0.659575
0.660787
0.66192
0.662935
0.663802
0.6645
0.665019
0.665349
0.665484
0.665416
0.665139
0.664659
0.66399
0.663154
0.662175
0.661076
0.659872
0.658596
0.657398
0.655966
0.650946
0.650455
0.650559
0.650912
0.65154
0.6524
0.653444
0.654614
0.655861
0.657139
0.658408
0.659623
0.660741
0.661722
0.662538
0.66317
0.663607
0.663839
0.663859
0.663659
0.663238
0.662603
0.661773
0.660775
0.659636
0.658385
0.657039
0.655634
0.654331
0.65283
0.649399
0.648917
0.649044
0.649431
0.6501
0.651002
0.652086
0.653296
0.654578
0.655887
0.657173
0.658388
0.659487
0.660433
0.661198
0.661764
0.662118
0.662252
0.662158
0.66183
0.661268
0.660483
0.659499
0.658347
0.657058
0.655667
0.654195
0.65268
0.651294
0.649759
0.647787
0.647313
0.647464
0.647888
0.648597
0.649541
0.650665
0.651912
0.653229
0.654565
0.655864
0.657075
0.658152
0.659059
0.659771
0.660269
0.660539
0.660574
0.660366
0.659909
0.659207
0.658276
0.657141
0.65584
0.654408
0.652884
0.651298
0.649692
0.648247
0.64672
0.646105
0.645642
0.645819
0.64628
0.647029
0.648014
0.649176
0.65046
0.65181
0.653168
0.654474
0.655675
0.656726
0.657591
0.658246
0.658672
0.658857
0.65879
0.658465
0.657878
0.657035
0.655956
0.65467
0.653219
0.651644
0.649989
0.648296
0.646612
0.645133
0.643664
0.644351
0.643901
0.644105
0.644604
0.645395
0.646419
0.647619
0.648937
0.650315
0.65169
0.652998
0.654183
0.655201
0.656019
0.656612
0.656962
0.657055
0.656882
0.656436
0.655715
0.654728
0.653496
0.652055
0.650448
0.648723
0.64693
0.645122
0.643362
0.641865
0.640513
0.64252
0.642087
0.642321
0.64286
0.643692
0.644754
0.645989
0.647339
0.648741
0.650126
0.651428
0.652589
0.653568
0.654332
0.654857
0.655124
0.655119
0.654834
0.654261
0.6534
0.652263
0.650872
0.649266
0.647491
0.645597
0.643643
0.641696
0.639845
0.638338
0.637171
0.640609
0.640198
0.640466
0.641047
0.641919
0.643018
0.644284
0.645661
0.64708
0.648469
0.649756
0.650886
0.651817
0.652518
0.652966
0.653142
0.653032
0.652627
0.65192
0.650914
0.649619
0.648061
0.646279
0.644316
0.642223
0.640061
0.637909
0.635894
0.634365
0.633504
0.638616
0.638235
0.63854
0.639164
0.640075
0.641207
0.642502
0.6439
0.645329
0.646712
0.647976
0.649064
0.649938
0.650567
0.650929
0.651004
0.650779
0.650246
0.649398
0.648239
0.646782
0.64505
0.64308
0.640911
0.638582
0.636136
0.633628
0.631173
0.629156
0.628065
0.750924
0.765306
0.77468
0.78247
0.787509
0.791429
0.793959
0.795601
0.796454
0.796685
0.796376
0.795614
0.794457
0.792959
0.791192
0.789174
0.786942
0.784566
0.782031
0.779353
0.776567
0.773654
0.770662
0.767595
0.764478
0.761346
0.758247
0.755274
0.752711
0.750811
0.74659
0.760765
0.770255
0.778275
0.783527
0.787619
0.790302
0.79208
0.793026
0.793334
0.793096
0.792403
0.791308
0.789887
0.788158
0.78619
0.784024
0.781681
0.77919
0.776566
0.773804
0.77094
0.767971
0.764931
0.761837
0.75872
0.755636
0.752672
0.750099
0.7482
0.742145
0.756128
0.765735
0.774009
0.779498
0.783786
0.786633
0.788554
0.789598
0.789986
0.78982
0.789193
0.788161
0.786815
0.785126
0.78321
0.781111
0.778804
0.776358
0.773789
0.771055
0.76824
0.765299
0.762291
0.759223
0.756125
0.753058
0.750106
0.747524
0.745625
0.737565
0.751393
0.761124
0.769669
0.775418
0.779935
0.782956
0.785016
0.786168
0.786645
0.78655
0.78599
0.785021
0.783731
0.782102
0.780243
0.778196
0.775939
0.773539
0.771014
0.768325
0.765548
0.762648
0.759674
0.756637
0.753564
0.750515
0.747573
0.744988
0.743082
0.732854
0.746553
0.756412
0.765256
0.77129
0.776065
0.779273
0.781474
0.782738
0.783308
0.783287
0.782791
0.781886
0.780646
0.779085
0.777283
0.775282
0.773083
0.77073
0.768245
0.76561
0.762868
0.760015
0.757079
0.754077
0.751036
0.748006
0.745074
0.742489
0.740573
0.728018
0.741606
0.751589
0.760771
0.767118
0.772172
0.775583
0.777933
0.779313
0.779974
0.78003
0.779597
0.778755
0.777568
0.776071
0.774327
0.772374
0.770232
0.767929
0.765488
0.762905
0.760206
0.757399
0.754506
0.75154
0.748535
0.745529
0.74261
0.740027
0.738098
0.723055
0.736549
0.746652
0.756209
0.762902
0.768256
0.771887
0.774394
0.775894
0.776646
0.776779
0.776408
0.77563
0.774498
0.773061
0.771376
0.769474
0.767387
0.765137
0.762743
0.760212
0.757559
0.7548
0.751954
0.749029
0.746063
0.743083
0.74018
0.737601
0.735658
0.717968
0.731382
0.741599
0.75157
0.75864
0.764318
0.768185
0.770858
0.772482
0.773325
0.773535
0.773227
0.772512
0.771436
0.770058
0.768432
0.766582
0.76455
0.762354
0.760009
0.757531
0.754929
0.75222
0.749423
0.746543
0.743619
0.740669
0.737784
0.73521
0.733255
0.712764
0.726109
0.736432
0.74685
0.75433
0.760359
0.764478
0.767326
0.769076
0.770011
0.7703
0.770055
0.769402
0.768383
0.767063
0.765497
0.763701
0.761723
0.75958
0.757287
0.754862
0.752314
0.749659
0.746915
0.744081
0.741201
0.738288
0.735423
0.732855
0.730887
0.707452
0.720736
0.731154
0.742051
0.749972
0.756377
0.760766
0.763798
0.765679
0.766708
0.767074
0.766893
0.766302
0.76534
0.764078
0.76257
0.760829
0.758905
0.756816
0.754577
0.752207
0.749714
0.747116
0.744428
0.741644
0.738811
0.735937
0.733098
0.730536
0.728556
0.70205
0.715273
0.725772
0.737171
0.745567
0.752374
0.757051
0.760277
0.762292
0.763416
0.763859
0.763743
0.763212
0.762308
0.761103
0.759653
0.757967
0.756098
0.754063
0.751879
0.749566
0.747131
0.74459
0.741961
0.739232
0.736448
0.733618
0.730807
0.728254
0.726261
0.696579
0.709736
0.720297
0.732216
0.741116
0.748349
0.753332
0.756762
0.758916
0.760139
0.760658
0.760605
0.760134
0.759288
0.758139
0.756746
0.755115
0.753301
0.75132
0.749191
0.746938
0.744562
0.742082
0.739513
0.736843
0.734111
0.73133
0.728551
0.72601
0.724004
0.691064
0.704144
0.714742
0.727189
0.73662
0.744302
0.749612
0.753255
0.755553
0.756876
0.757472
0.757482
0.757069
0.756281
0.755188
0.75385
0.752274
0.750514
0.748588
0.746516
0.744324
0.742008
0.739591
0.737085
0.734477
0.731803
0.729074
0.726331
0.723804
0.721787
0.685535
0.698522
0.709128
0.722098
0.732084
0.740235
0.74589
0.749757
0.752205
0.75363
0.754301
0.754374
0.754019
0.753288
0.75225
0.750965
0.749444
0.747737
0.745868
0.743853
0.741723
0.739468
0.737117
0.734678
0.732135
0.729521
0.726849
0.724148
0.721638
0.719609
0.680025
0.6929
0.703477
0.716953
0.727511
0.736149
0.742167
0.746269
0.748872
0.750399
0.751147
0.751282
0.750984
0.75031
0.749326
0.748092
0.746625
0.744972
0.743159
0.741202
0.739136
0.736944
0.734659
0.732289
0.729815
0.727265
0.724655
0.722
0.719513
0.717474
0.674571
0.68731
0.697819
0.711769
0.722907
0.732047
0.738445
0.742791
0.745555
0.747185
0.74801
0.748207
0.747965
0.747347
0.746416
0.745231
0.743817
0.742217
0.740462
0.738562
0.736561
0.734434
0.732217
0.729917
0.727516
0.725035
0.722492
0.719889
0.717429
0.715382
0.66921
0.68179
0.692183
0.706562
0.71828
0.727931
0.734723
0.739325
0.742256
0.74399
0.744891
0.74515
0.744964
0.7444
0.74352
0.742382
0.741021
0.739474
0.737777
0.735935
0.733997
0.731937
0.729788
0.727561
0.725236
0.722829
0.720358
0.717815
0.715389
0.713335
0.663981
0.676376
0.686604
0.701353
0.713639
0.723808
0.731005
0.735872
0.738974
0.740815
0.741793
0.742114
0.741981
0.741468
0.740637
0.739547
0.738236
0.736742
0.735102
0.733318
0.731444
0.729452
0.727372
0.725219
0.722973
0.720644
0.718252
0.715778
0.713394
0.711337
0.658923
0.671107
0.681118
0.696165
0.708996
0.719683
0.727292
0.732434
0.735713
0.737663
0.738716
0.739098
0.739017
0.738552
0.737769
0.736725
0.735464
0.734021
0.732437
0.730712
0.7289
0.726978
0.724968
0.722889
0.720726
0.718481
0.716173
0.713778
0.711446
0.709391
0.654071
0.666021
0.67576
0.691021
0.704365
0.71556
0.723588
0.729011
0.732472
0.734535
0.735664
0.736106
0.736073
0.735654
0.734915
0.733917
0.732704
0.73131
0.729782
0.728116
0.726365
0.724512
0.722573
0.720569
0.718492
0.716336
0.714122
0.711816
0.709548
0.707501
0.649458
0.661151
0.670567
0.685947
0.69976
0.711447
0.719894
0.725604
0.729252
0.731431
0.732635
0.733136
0.73315
0.732772
0.732077
0.731122
0.729955
0.728611
0.727136
0.72553
0.723839
0.722053
0.720185
0.718259
0.71627
0.71421
0.712097
0.709892
0.707703
0.705674
0.645114
0.656527
0.665571
0.680967
0.695198
0.707351
0.716213
0.722214
0.726054
0.728352
0.729631
0.73019
0.730247
0.72991
0.729255
0.728341
0.727219
0.725922
0.7245
0.722952
0.721319
0.719601
0.717804
0.715957
0.714058
0.712099
0.710096
0.708007
0.705914
0.703914
0.641063
0.652171
0.660802
0.676108
0.690694
0.703283
0.712549
0.718843
0.722879
0.725298
0.726653
0.727268
0.727366
0.727066
0.72645
0.725574
0.724494
0.723245
0.721872
0.720381
0.718806
0.717153
0.715428
0.71366
0.711854
0.710002
0.708117
0.706158
0.704184
0.70223
0.637327
0.6481
0.656282
0.671395
0.686265
0.699252
0.708907
0.715493
0.719727
0.72227
0.723701
0.724372
0.724509
0.724243
0.723663
0.722822
0.721782
0.720579
0.719254
0.717817
0.716297
0.71471
0.713055
0.711367
0.709656
0.707915
0.706157
0.704346
0.702515
0.700631
0.633922
0.644326
0.652029
0.666853
0.681929
0.695268
0.705293
0.712168
0.716601
0.719269
0.720777
0.721502
0.721675
0.721441
0.720893
0.720085
0.719084
0.717924
0.716644
0.715259
0.713793
0.712269
0.710684
0.709077
0.70746
0.705834
0.704213
0.702566
0.70091
0.699129
0.630869
0.640852
0.648056
0.662502
0.677708
0.691347
0.701715
0.708874
0.713504
0.716299
0.717884
0.71866
0.718868
0.718661
0.718142
0.717365
0.716399
0.71528
0.714042
0.712706
0.711292
0.709829
0.708314
0.706787
0.705265
0.703757
0.70228
0.700815
0.699367
0.697739
0.62819
0.637676
0.644367
0.658364
0.673624
0.687502
0.698183
0.705614
0.710438
0.713362
0.715023
0.715848
0.716086
0.715904
0.71541
0.714661
0.713728
0.712645
0.711447
0.710158
0.708795
0.707389
0.705942
0.704496
0.703067
0.701677
0.700351
0.699086
0.697888
0.696481
0.625932
0.634795
0.640967
0.65443
0.669646
0.683689
0.694648
0.702348
0.707371
0.710431
0.712174
0.713046
0.713315
0.713156
0.712685
0.711963
0.71106
0.710012
0.708851
0.707606
0.706292
0.704943
0.703563
0.702195
0.70086
0.699588
0.698417
0.697368
0.696465
0.695378
0.624116
0.632147
0.637791
0.650611
0.665652
0.67978
0.690995
0.698974
0.704217
0.707435
0.709275
0.710206
0.710511
0.71038
0.709935
0.709242
0.70837
0.707357
0.706235
0.705034
0.70377
0.702478
0.701165
0.699874
0.698631
0.697478
0.696464
0.695646
0.695086
0.694466
0.622855
0.629594
0.634754
0.647014
0.661899
0.676081
0.687497
0.695708
0.701139
0.704492
0.706414
0.707393
0.707729
0.707622
0.707198
0.706531
0.705686
0.704705
0.703618
0.702457
0.70124
0.700001
0.698751
0.697533
0.696376
0.695334
0.694472
0.693887
0.693711
0.69376
0.619288
0.621349
0.625266
0.63718
0.652614
0.667397
0.679357
0.687997
0.693686
0.697138
0.699038
0.699935
0.700185
0.700013
0.69955
0.698875
0.698042
0.697091
0.696053
0.69496
0.693835
0.692708
0.691603
0.690557
0.689614
0.688847
0.688371
0.688412
0.689371
0.691927
0.599305
0.604487
0.611545
0.624052
0.638465
0.651816
0.662738
0.670877
0.676495
0.680124
0.682309
0.683507
0.684045
0.684138
0.68392
0.683481
0.682878
0.682157
0.681353
0.680497
0.679615
0.678737
0.677894
0.677128
0.676493
0.676086
0.676057
0.676697
0.678528
0.682241
0.579219
0.588503
0.598263
0.610585
0.623505
0.635366
0.645308
0.653014
0.6586
0.662431
0.664927
0.666466
0.667334
0.667736
0.667808
0.667643
0.667304
0.666839
0.666286
0.665678
0.665043
0.664413
0.663819
0.663309
0.66294
0.662811
0.663074
0.664015
0.666173
0.67025
0.560159
0.571894
0.582967
0.594818
0.606675
0.617624
0.626998
0.634493
0.640149
0.644227
0.64705
0.648935
0.650143
0.650871
0.651254
0.651386
0.651331
0.65114
0.650852
0.650499
0.650112
0.649723
0.649365
0.649083
0.648934
0.649013
0.649462
0.65055
0.652795
0.656967
0.541239
0.554074
0.565728
0.577321
0.588601
0.598999
0.608004
0.615375
0.621137
0.625478
0.628646
0.630905
0.632485
0.633571
0.634295
0.63475
0.635004
0.635106
0.635095
0.635005
0.634866
0.63471
0.63457
0.634487
0.634516
0.634745
0.635302
0.636445
0.638651
0.642756
0.521968
0.53529
0.547246
0.558719
0.569635
0.579638
0.58837
0.595665
0.601546
0.606148
0.609665
0.612311
0.614284
0.615753
0.616842
0.617644
0.618225
0.618634
0.618912
0.619091
0.619201
0.619272
0.619335
0.61943
0.619605
0.619943
0.620559
0.621698
0.623796
0.627754
0.502279
0.515817
0.527896
0.539255
0.549897
0.559616
0.568167
0.575439
0.58145
0.586306
0.590158
0.593183
0.595551
0.597408
0.598871
0.600028
0.600945
0.601669
0.60224
0.602691
0.603049
0.603342
0.603599
0.603857
0.60416
0.604583
0.605231
0.606333
0.608288
0.612042
0.482146
0.495747
0.507823
0.519055
0.529499
0.539031
0.547481
0.55477
0.560919
0.566016
0.570185
0.57357
0.576317
0.578554
0.580387
0.581898
0.583148
0.584186
0.58505
0.585771
0.586374
0.586885
0.587331
0.587745
0.588168
0.588668
0.589339
0.590392
0.592186
0.595698
0.461543
0.475117
0.487124
0.498239
0.508545
0.517962
0.526362
0.533695
0.539987
0.545312
0.549776
0.553499
0.556605
0.559206
0.561396
0.563251
0.564827
0.566172
0.567322
0.568307
0.569149
0.569874
0.570504
0.571071
0.571611
0.572187
0.572881
0.573888
0.575518
0.578752
0.440469
0.453965
0.465876
0.476888
0.487098
0.496444
0.50483
0.512225
0.51866
0.524202
0.528942
0.53298
0.536423
0.539368
0.541899
0.544083
0.545973
0.547615
0.549041
0.55028
0.551354
0.552286
0.553097
0.553817
0.554476
0.555132
0.555853
0.55682
0.5583
0.561259
0.418929
0.432319
0.444125
0.455048
0.465188
0.474496
0.482892
0.490361
0.496939
0.502687
0.507684
0.512016
0.515773
0.519042
0.521893
0.52439
0.52658
0.528505
0.530195
0.531677
0.532972
0.534103
0.535088
0.535955
0.536731
0.537468
0.538226
0.539165
0.540509
0.543175
0.396931
0.410198
0.421898
0.432741
0.442833
0.452123
0.460548
0.468101
0.47482
0.480764
0.486
0.490604
0.494654
0.498223
0.501376
0.504167
0.506641
0.508833
0.510773
0.512487
0.513995
0.515317
0.516471
0.517481
0.518371
0.519187
0.519981
0.5209
0.522137
0.524558
0.37448
0.387613
0.399208
0.409983
0.420041
0.429332
0.437798
0.445441
0.452299
0.458427
0.463886
0.468741
0.47306
0.476908
0.48034
0.483407
0.486145
0.488589
0.490765
0.492696
0.494402
0.495902
0.497213
0.498359
0.49936
0.500259
0.501096
0.501998
0.503125
0.505273
0.351579
0.36457
0.376066
0.386783
0.39682
0.406124
0.41464
0.422375
0.429368
0.435669
0.441333
0.446419
0.450985
0.455088
0.458778
0.462097
0.465081
0.467759
0.470155
0.472292
0.474187
0.475856
0.477315
0.478583
0.47968
0.480643
0.481515
0.482414
0.483481
0.485417
0.328233
0.341073
0.352477
0.363147
0.373174
0.3825
0.39107
0.398897
0.406018
0.41248
0.418333
0.423629
0.428418
0.432752
0.436674
0.440223
0.443431
0.446323
0.448921
0.451243
0.453306
0.455129
0.456726
0.458117
0.459316
0.460352
0.461254
0.46212
0.463078
0.464763
0.304445
0.317125
0.328449
0.339083
0.349108
0.358459
0.367085
0.375
0.382242
0.388852
0.394874
0.400356
0.405344
0.409882
0.414011
0.417764
0.421173
0.424259
0.427041
0.429536
0.431757
0.433717
0.435428
0.436908
0.438175
0.439262
0.4402
0.441079
0.442004
0.443484
0.280224
0.292734
0.303991
0.3146
0.324626
0.334002
0.342681
0.350679
0.358031
0.364772
0.370944
0.376589
0.381748
0.386463
0.390769
0.394699
0.398279
0.401531
0.404469
0.407112
0.409472
0.411562
0.413395
0.414978
0.416317
0.417433
0.418352
0.419164
0.419983
0.421228
0.255589
0.267911
0.27912
0.289712
0.299738
0.309133
0.317858
0.325929
0.333378
0.340233
0.346531
0.352311
0.357612
0.362472
0.366922
0.370998
0.374723
0.378117
0.381193
0.383961
0.386428
0.388605
0.390506
0.392151
0.393552
0.394731
0.395697
0.396513
0.397275
0.398293
0.230584
0.242689
0.253864
0.264441
0.274454
0.283857
0.292616
0.300748
0.308277
0.315226
0.321625
0.327511
0.332921
0.337889
0.342448
0.34663
0.35046
0.353957
0.357137
0.360013
0.36259
0.364871
0.366853
0.368539
0.369934
0.371069
0.371969
0.372705
0.373379
0.374149
0.205307
0.217142
0.228275
0.23882
0.248795
0.258183
0.26696
0.275137
0.282727
0.289744
0.296212
0.302167
0.307645
0.312681
0.31731
0.321564
0.325467
0.329035
0.332276
0.335196
0.337808
0.340125
0.34216
0.343916
0.345384
0.346564
0.347459
0.348131
0.348697
0.349228
0.179938
0.191406
0.202443
0.212901
0.222788
0.232125
0.240899
0.2491
0.256727
0.263782
0.270286
0.276272
0.281776
0.286834
0.29148
0.295748
0.299672
0.303275
0.306567
0.309548
0.312209
0.31454
0.316545
0.318241
0.319645
0.320771
0.321613
0.322204
0.322644
0.32285
0.154787
0.165712
0.176511
0.186766
0.196478
0.205712
0.214447
0.222645
0.230276
0.23733
0.243822
0.249787
0.255265
0.260293
0.26491
0.269147
0.273033
0.276589
0.27983
0.282773
0.285428
0.287797
0.289861
0.291601
0.293004
0.294078
0.29483
0.295304
0.295608
0.295548
0.130295
0.140404
0.150696
0.160542
0.169943
0.178988
0.187634
0.195789
0.203388
0.210403
0.216844
0.22274
0.228129
0.233053
0.237563
0.241708
0.245529
0.249043
0.25224
0.25511
0.257652
0.259884
0.261829
0.26349
0.264848
0.265877
0.266541
0.266849
0.266907
0.266406
0.106974
0.115913
0.125304
0.134432
0.143316
0.152042
0.160511
0.168552
0.176049
0.182956
0.189275
0.195034
0.20027
0.205026
0.209353
0.2133
0.216922
0.220259
0.223335
0.226149
0.228679
0.230894
0.23278
0.234343
0.235598
0.236547
0.237144
0.237338
0.237179
0.236297
0.0852938
0.0926901
0.100717
0.108743
0.116827
0.125038
0.133192
0.141024
0.148354
0.155099
0.161234
0.166773
0.171756
0.176251
0.180335
0.184067
0.187477
0.190573
0.193368
0.195893
0.198175
0.200216
0.201991
0.203461
0.204604
0.205416
0.205857
0.205838
0.205332
0.20387
0.0655918
0.0711465
0.0773884
0.083911
0.0908536
0.0982513
0.105826
0.113224
0.120211
0.126667
0.132524
0.137755
0.142383
0.146481
0.150152
0.153499
0.156598
0.159476
0.162113
0.164478
0.166555
0.168365
0.169932
0.171253
0.172301
0.173052
0.173445
0.173292
0.17241
0.170397
0.0479905
0.0516094
0.0558108
0.0604774
0.0659446
0.0722107
0.0788889
0.0855834
0.0920326
0.0980444
0.103475
0.108263
0.112435
0.116071
0.119257
0.122076
0.124616
0.126959
0.129142
0.131154
0.132955
0.134515
0.13583
0.136899
0.137711
0.138277
0.138576
0.138341
0.137094
0.134383
0.0323612
0.0342116
0.03642
0.0390082
0.0426801
0.047334
0.0525232
0.057975
0.0634944
0.0688012
0.0736032
0.0777424
0.0812366
0.0842145
0.0868211
0.0891627
0.0912946
0.0932282
0.0949617
0.0965116
0.097904
0.0991495
0.100233
0.101117
0.101754
0.102147
0.102351
0.102135
0.100697
0.0975466
0.0182562
0.0187244
0.0191992
0.0199501
0.0222005
0.0251517
0.0284187
0.0320756
0.0360806
0.0401551
0.0439444
0.0471738
0.0497339
0.0517042
0.0532935
0.0547202
0.0561007
0.0574217
0.0586102
0.0596263
0.060493
0.061256
0.0619346
0.062507
0.0629147
0.063113
0.0631691
0.0630363
0.0617783
0.0584922
0.00548152
0.00443602
0.000650819
-0.000173729
0.00222314
0.00399873
0.00534544
0.00694505
0.00894317
0.0111634
0.0133547
0.0152898
0.016826
0.0179488
0.0187565
0.0193885
0.0199573
0.0205077
0.0210236
0.0214744
0.0218528
0.0221737
0.0224494
0.0226804
0.0228453
0.0228889
0.0228123
0.0227826
0.0224548
0.0201831
0.600972
0.584553
0.566472
0.548054
0.529339
0.510057
0.490316
0.470153
0.449552
0.428518
0.407058
0.38517
0.362862
0.340139
0.317011
0.2935
0.269627
0.245457
0.22106
0.196569
0.172179
0.148169
0.124926
0.10285
0.0823216
0.0636154
0.0468436
0.0318987
0.018325
0.00581231
0.599094
0.581219
0.56271
0.544015
0.525212
0.50593
0.486225
0.466116
0.445578
0.424611
0.403225
0.381415
0.359189
0.336552
0.313515
0.290102
0.266333
0.242279
0.218015
0.193685
0.169494
0.145733
0.122803
0.101091
0.0809624
0.0626615
0.046265
0.031629
0.0182705
0.00587972
0.596421
0.577575
0.558848
0.540008
0.521159
0.501887
0.482215
0.46215
0.44167
0.420767
0.399452
0.377719
0.355575
0.333026
0.31008
0.286766
0.263103
0.239168
0.21504
0.190869
0.166874
0.14335
0.120702
0.0993102
0.0795349
0.0616085
0.0455857
0.03128
0.0181589
0.00591624
0.593325
0.573887
0.554989
0.536035
0.517144
0.497889
0.478253
0.458234
0.437809
0.416969
0.395722
0.374062
0.351998
0.329536
0.306679
0.283461
0.259902
0.236084
0.21209
0.18808
0.164285
0.141007
0.118654
0.0975985
0.078188
0.0606342
0.044966
0.0309635
0.0180551
0.00593861
0.589914
0.570147
0.551132
0.532106
0.513185
0.493948
0.47435
0.454377
0.434004
0.413222
0.392041
0.370452
0.348465
0.326085
0.303315
0.280191
0.256735
0.233033
0.209175
0.185327
0.161736
0.138709
0.116658
0.0959482
0.0769107
0.059732
0.0444081
0.0306858
0.0179656
0.00595094
0.586253
0.566365
0.54729
0.528224
0.509283
0.490069
0.470507
0.450578
0.430256
0.409529
0.38841
0.366891
0.344976
0.322675
0.299991
0.276959
0.253604
0.230017
0.206295
0.182612
0.15923
0.136461
0.114719
0.0943608
0.075699
0.0588924
0.0439017
0.0304388
0.0178868
0.00595419
0.582403
0.562549
0.543467
0.524393
0.505439
0.486251
0.466726
0.446837
0.426564
0.405892
0.384833
0.363378
0.341534
0.319308
0.296707
0.273764
0.25051
0.227036
0.203452
0.179938
0.15677
0.134266
0.112841
0.0928405
0.0745553
0.0581154
0.043444
0.0302196
0.0178178
0.00595024
0.578418
0.558711
0.539666
0.520613
0.501657
0.482495
0.463006
0.443157
0.422931
0.402311
0.381309
0.359915
0.338138
0.315986
0.293464
0.270609
0.247453
0.224093
0.200648
0.177307
0.154357
0.132126
0.111026
0.0913897
0.0734811
0.0574011
0.0430341
0.0300274
0.0177578
0.0059417
0.574346
0.554863
0.535893
0.516885
0.497938
0.478801
0.459348
0.439539
0.419358
0.398788
0.37784
0.356505
0.334793
0.312712
0.290265
0.267494
0.244437
0.22119
0.197885
0.17472
0.151995
0.130044
0.109276
0.0900085
0.0724756
0.0567476
0.0426692
0.0298604
0.0177058
0.0059305
0.570231
0.55102
0.532154
0.513209
0.494283
0.475171
0.455753
0.435984
0.415846
0.395324
0.374427
0.35315
0.3315
0.309485
0.287112
0.264422
0.241462
0.218329
0.195165
0.172179
0.149684
0.12802
0.107591
0.0886951
0.0715361
0.0561514
0.0423454
0.0297158
0.0176603
0.0059155
0.566105
0.547193
0.528454
0.509586
0.490691
0.471606
0.452222
0.432491
0.412395
0.391918
0.371071
0.34985
0.32826
0.306309
0.284005
0.261396
0.238531
0.215511
0.192489
0.169686
0.147426
0.126056
0.10597
0.0874479
0.07066
0.0556087
0.0420589
0.0295906
0.0176201
0.00589926
0.561998
0.543393
0.524798
0.506019
0.487163
0.468108
0.448757
0.429061
0.409005
0.388573
0.367775
0.346607
0.325074
0.303184
0.280948
0.258417
0.235646
0.212739
0.18986
0.167244
0.145225
0.124154
0.104415
0.0862669
0.0698455
0.0551165
0.0418062
0.0294826
0.0175845
0.00588296
0.557931
0.539631
0.521193
0.502509
0.483701
0.464676
0.445357
0.425695
0.405677
0.385289
0.364537
0.343421
0.321942
0.300111
0.277943
0.255488
0.232808
0.210014
0.187282
0.164858
0.143084
0.122317
0.102929
0.0851532
0.0690917
0.0546724
0.041585
0.0293896
0.0175531
0.00586744
0.553923
0.535917
0.517643
0.49906
0.480305
0.461312
0.442025
0.422395
0.402413
0.382067
0.36136
0.340292
0.318865
0.297092
0.274989
0.25261
0.230021
0.20734
0.184759
0.162531
0.141009
0.12055
0.101514
0.0841085
0.0683981
0.0542744
0.0413928
0.0293101
0.0175253
0.00585328
0.549987
0.532261
0.514154
0.495675
0.476979
0.458018
0.438762
0.419163
0.399215
0.378909
0.358243
0.337221
0.315846
0.294128
0.27209
0.249784
0.227285
0.204719
0.182292
0.160266
0.139001
0.118856
0.100172
0.0831329
0.0677639
0.0539202
0.0412269
0.0292422
0.0175007
0.00584083
0.546135
0.528673
0.510734
0.492357
0.473723
0.454795
0.435569
0.416
0.396085
0.375816
0.355189
0.334211
0.312884
0.291221
0.269245
0.24701
0.224601
0.202153
0.179883
0.158064
0.137061
0.117234
0.0989035
0.0822257
0.0671863
0.0536066
0.0410844
0.0291842
0.0174789
0.0058303
0.542376
0.525161
0.507386
0.489109
0.470539
0.451645
0.432449
0.412909
0.393025
0.37279
0.3522
0.331262
0.309983
0.288371
0.266455
0.24429
0.221971
0.199642
0.177533
0.155925
0.13519
0.115685
0.0977075
0.0813845
0.0666624
0.0533301
0.0409624
0.0291344
0.0174603
0.00582185
0.538719
0.521731
0.504115
0.485935
0.467429
0.448571
0.429403
0.40989
0.390035
0.369832
0.349276
0.328378
0.307142
0.285579
0.26372
0.241624
0.219397
0.197187
0.175242
0.15385
0.133388
0.114209
0.0965828
0.0806066
0.066189
0.0530872
0.0408583
0.0290918
0.0174465
0.00581558
0.535169
0.51839
0.500926
0.482837
0.464396
0.445571
0.426432
0.406945
0.387116
0.366943
0.346421
0.325558
0.304364
0.282847
0.261043
0.239016
0.216879
0.194792
0.173012
0.15184
0.131656
0.112804
0.0955264
0.0798914
0.0657632
0.0528751
0.0407698
0.0290554
0.0174405