/*--------------------------------*- C++ -*----------------------------------*\
  =========                 |
  \\      /  F ield         | OpenFOAM: The Open Source CFD Toolbox
   \\    /   O peration     | Website:  https://openfoam.org
    \\  /    A nd           | Version:  7
     \\/     M anipulation  |
\*---------------------------------------------------------------------------*/
FoamFile
{
    version     2.0;
    format      ascii;
    class       surfaceScalarField;
    location    "6";
    object      phi;
}
// * * * * * * * * * * * * * * * * * * * * * * * * * * * * * * * * * * * * * //

dimensions      [0 3 -1 0 0 0 0];

internalField   nonuniform List<scalar> 
35640
(
1.81214e-06
-0.000122292
0.00012048
4.49893e-06
-6.0501e-05
5.78143e-05
7.52313e-06
0.000245947
-0.000248971
1.17726e-05
0.000709084
-0.000713334
1.86777e-05
0.0012732
-0.0012801
2.98168e-05
0.00190201
-0.00191315
4.66758e-05
0.00257083
-0.00258769
7.05191e-05
0.00326216
-0.003286
0.000102371
0.00396336
-0.00399521
0.000143
0.00466476
-0.00470539
0.000192915
0.00535846
-0.00540838
0.000252373
0.00603762
-0.00609708
0.000321455
0.00669611
-0.00676519
0.000400077
0.00732838
-0.007407
0.000488015
0.00792939
-0.00801733
0.000584946
0.00849465
-0.00859158
0.000690467
0.0090203
-0.00912582
0.000804112
0.00950312
-0.00961677
0.000925373
0.00994061
-0.0100619
0.00105372
0.010331
-0.0104593
0.00118863
0.0106732
-0.0108081
0.0013296
0.0109668
-0.0111077
0.00147615
0.0112119
-0.0113585
0.00162786
0.0114092
-0.0115609
0.00178434
0.0115597
-0.0117162
0.00194522
0.0116646
-0.0118254
0.00211012
0.0117251
-0.01189
0.00227854
0.0117425
-0.0119109
0.00244958
0.0117198
-0.0118909
0.0116609
0.00262186
-0.0118332
-2.7936e-07
-0.000122013
-2.11551e-06
-5.86653e-05
-5.31638e-06
0.000249148
-8.4955e-06
0.000712264
-9.90629e-06
0.00127461
-7.79288e-06
0.0018999
-4.92603e-07
0.00256353
1.34169e-05
0.00324825
3.50878e-05
0.00394169
6.53821e-05
0.00463447
0.000104896
0.00531895
0.000153984
0.00598854
0.000212804
0.00663729
0.000281351
0.00725983
0.000359486
0.00785126
0.000446943
0.00840719
0.000543371
0.00892387
0.000648357
0.00939814
0.000761447
0.00982752
0.000882157
0.0102103
0.00100998
0.0105454
0.00114443
0.0108323
0.001285
0.0110713
0.00143124
0.011263
0.00158271
0.0114082
0.00173894
0.0115083
0.00189937
0.0115647
0.00206331
0.0115786
0.00222965
0.0115535
0.0114939
0.00239674
-2.27293e-06
-0.00011974
-8.40001e-06
-5.25378e-05
-1.74694e-05
0.000258217
-2.76394e-05
0.000722434
-3.68415e-05
0.00128381
-4.31009e-05
0.00190616
-4.45894e-05
0.00256502
-3.97894e-05
0.00324345
-2.7451e-05
0.00392935
-6.60612e-06
0.00461362
2.34343e-05
0.00528891
6.31066e-05
0.00594886
0.000112642
0.00658776
0.000172098
0.00720038
0.000241378
0.00778198
0.000320277
0.0083283
0.000408514
0.00883564
0.000505722
0.00930093
0.000611474
0.00972177
0.000725302
0.0100964
0.000846728
0.0104239
0.000975264
0.0107038
0.00111041
0.0109362
0.00125168
0.0111217
0.00139852
0.0112614
0.00155037
0.0113565
0.00170653
0.0114085
0.00186607
0.0114191
0.00202767
0.0113919
0.0113321
0.00218943
-4.13711e-06
-0.000115603
-1.44026e-05
-4.22724e-05
-2.90357e-05
0.00027285
-4.57004e-05
0.000739098
-6.20368e-05
0.00130015
-7.59056e-05
0.00192003
-8.53479e-05
0.00257446
-8.87245e-05
0.00324683
-8.47082e-05
0.00392534
-7.22558e-05
0.00460117
-5.05941e-05
0.00526725
-1.92145e-05
0.00591748
2.21595e-05
0.00654638
7.36437e-05
0.00714889
0.000135203
0.00772042
0.000206677
0.00825682
0.000287814
0.0087545
0.00037828
0.00921046
0.000477679
0.00962237
0.000585577
0.00998855
0.000701508
0.010308
0.000824984
0.0105803
0.000955496
0.0108057
0.0010925
0.0109847
0.00123539
0.0111185
0.00138348
0.0112084
0.00153589
0.0112561
0.00169151
0.0112634
0.00184879
0.0112346
0.0111753
0.00200557
-5.92735e-06
-0.000109676
-2.00363e-05
-2.81632e-05
-3.97666e-05
0.00029258
-6.2331e-05
0.000761663
-8.50925e-05
0.00132291
-0.000105714
0.00194065
-0.000122152
0.0025909
-0.000132678
0.00325735
-0.000135885
0.00392854
-0.00013066
0.00459595
-0.000116178
0.00525276
-9.18726e-05
0.00589318
-5.74002e-05
0.00651191
-1.26077e-05
0.0071041
4.24997e-05
0.00766531
0.000107799
0.00819152
0.000183072
0.00867923
0.000268013
0.00912552
0.000362247
0.00952813
0.00046536
0.00988544
0.000576903
0.0101965
0.000696391
0.0104608
0.000823303
0.0106788
0.000957057
0.010851
0.00109699
0.0109786
0.00124229
0.0110631
0.00139194
0.0111064
0.00154462
0.0111108
0.00169857
0.0110807
0.0110225
0.00185137
-7.56827e-06
-0.000102108
-2.5221e-05
-1.05105e-05
-4.95797e-05
0.000316939
-7.73866e-05
0.00078947
-0.000105758
0.00135128
-0.000132214
0.00196711
-0.000154615
0.0026133
-0.000171158
0.0032739
-0.000180381
0.00393777
-0.000181122
0.00459669
-0.0001725
0.00524414
-0.000153897
0.00587458
-0.000124935
0.00648295
-8.54286e-05
0.00706459
-3.53492e-05
0.00761523
2.52087e-05
0.00813096
9.6041e-05
0.00860839
0.000176857
0.0090447
0.000267311
0.00943768
0.000367006
0.00978574
0.000475506
0.010088
0.000592336
0.010344
0.00071697
0.0105541
0.000848806
0.0107191
0.000987125
0.0108402
0.00113103
0.0109192
0.00127936
0.0109581
0.00143062
0.0109595
0.00158282
0.0109285
0.0108721
0.00173328
-9.07807e-06
-9.30296e-05
-2.99157e-05
1.03274e-05
-5.83393e-05
0.000345363
-9.06636e-05
0.000821795
-0.000123776
0.0013844
-0.000155047
0.00199838
-0.000182275
0.00264053
-0.000203612
0.00329523
-0.000217543
0.0039517
-0.000222861
0.00460201
-0.000218652
0.00523993
-0.000204263
0.00586019
-0.000179282
0.00645796
-0.000143497
0.00702881
-9.68591e-05
0.00756859
-3.94486e-05
0.00807355
2.85425e-05
0.0085404
0.000106839
0.00896641
0.000195111
0.00934941
0.000292981
0.00968787
0.000400031
0.00998091
0.000515803
0.0102282
0.000639783
0.0104302
0.000771366
0.0105875
0.000909808
0.0107018
0.00105414
0.0107749
0.0012031
0.0108091
0.00135503
0.0108076
0.00150772
0.0107758
0.0107216
0.00165821
-1.04343e-05
-8.25951e-05
-3.40607e-05
3.39539e-05
-6.59545e-05
0.000377257
-0.000102013
0.000857854
-0.000138911
0.0014213
-0.00017391
0.00203338
-0.000204754
0.00267137
-0.000229557
0.00332004
-0.000246773
0.00396891
-0.000255172
0.0046104
-0.000253808
0.00523857
-0.000242005
0.00584838
-0.000219328
0.00643529
-0.000185548
0.00699503
-0.000140599
0.00752364
-8.4557e-05
0.00801751
-1.76092e-05
0.00847346
5.99816e-05
0.00888881
0.000147898
0.00926149
0.000245784
0.00958999
0.000353244
0.00987344
0.00046985
0.0101116
0.000595117
0.0103049
0.000728467
0.0104542
0.000869153
0.0105611
0.00101619
0.0106278
0.00116825
0.0106571
0.00132353
0.0106523
0.00147963
0.0106197
0.010568
0.00163324
-1.16283e-05
-7.09666e-05
-3.76238e-05
5.99496e-05
-7.23503e-05
0.000411984
-0.000111314
0.000896818
-0.000150999
0.00146098
-0.000188572
0.00207095
-0.000221736
0.00270454
-0.000248589
0.00334689
-0.000267572
0.0039879
-0.000277438
0.00462027
-0.000277228
0.00523836
-0.000266248
0.0058374
-0.000244052
0.00641309
-0.000210396
0.00696137
-0.000165208
0.00747845
-0.000108566
0.00796087
-4.06522e-05
0.00840554
3.82757e-05
0.00880989
0.000127911
0.00917185
0.000227917
0.00948998
0.000337932
0.00976343
0.000457567
0.00999199
0.000586393
0.0101761
0.000723883
0.0103167
0.000869338
0.0104157
0.0010218
0.0104754
0.00117991
0.010499
0.00134181
0.0104904
0.00150488
0.0104566
0.0104074
0.00166544
-1.2651e-05
-5.83155e-05
-4.05792e-05
8.78784e-05
-7.74821e-05
0.000448887
-0.000118497
0.000937833
-0.000159928
0.00150241
-0.000198869
0.00210989
-0.000232996
0.00273867
-0.000260406
0.0033743
-0.000279544
0.00400704
-0.00028916
0.00462989
-0.000288291
0.00523749
-0.00027624
0.00582535
-0.000252551
0.0063894
-0.000216973
0.00692579
-0.000169436
0.00743092
-0.000110021
0.00790145
-3.89142e-05
0.00833443
4.36323e-05
0.00872734
0.000137322
0.00907816
0.000241835
0.00938547
0.000356849
0.00964841
0.000482032
0.0098668
0.000617024
0.0100411
0.000761382
0.0101724
0.000914505
0.0102625
0.00107551
0.0103144
0.00124311
0.0103314
0.00141538
0.0103181
0.00158957
0.0102824
0.0102354
0.00176155
-1.34961e-05
-4.48193e-05
-4.2919e-05
0.000117302
-8.1336e-05
0.000487304
-0.000123533
0.00098003
-0.000165651
0.00154453
-0.000204721
0.00214896
-0.000238406
0.00277235
-0.000264818
0.00340071
-0.000282419
0.00402464
-0.000289973
0.00463744
-0.000286524
0.00523404
-0.000271378
0.00581021
-0.000244074
0.0063621
-0.000204364
0.00688608
-0.000152185
0.00737874
-8.76221e-05
0.00783689
-1.08622e-05
0.00825767
7.78377e-05
0.00863864
0.000178187
0.00897781
0.000289888
0.00927376
0.000412658
0.00952564
0.000546229
0.00973323
0.000690329
0.00989697
0.000844629
0.010018
0.00100867
0.0100985
0.0011817
0.0101413
0.00136256
0.0101505
0.00154938
0.0101313
0.00173928
0.0100925
0.010047
0.00192769
-1.41645e-05
-3.06546e-05
-4.46508e-05
0.000147788
-8.39273e-05
0.000526581
-0.000126446
0.00102255
-0.00016819
0.00158627
-0.000206136
0.00218691
-0.000237946
0.00280416
-0.000261761
0.00342453
-0.000276074
0.00403895
-0.000279674
0.00464104
-0.000271624
0.00522599
-0.00025124
0.00578982
-0.000218065
0.00632892
-0.000171856
0.00683988
-0.00011256
0.00731944
-4.02665e-05
0.0077646
4.48299e-05
0.00817258
0.000142468
0.008541
0.000252359
0.00886792
0.000374226
0.0091519
0.000507825
0.00939205
0.000652952
0.0095881
0.000809428
0.00974049
0.000977062
0.00985042
0.00115556
0.00992
0.0013444
0.00995248
0.00154259
0.00995234
0.00174839
0.00992548
0.00195889
0.009882
0.00983682
0.00216907
-1.46623e-05
-1.59921e-05
-4.57995e-05
0.000178926
-8.53046e-05
0.000566086
-0.000127308
0.00106455
-0.000167636
0.0016266
-0.000203215
0.00222249
-0.000231714
0.00283266
-0.000251313
0.00344413
-0.000260546
0.00404818
-0.000258241
0.00463874
-0.00024349
0.00521124
-0.000215625
0.00576196
-0.000174199
0.0062875
-0.000118982
0.00678466
-4.99266e-05
0.00725039
3.28699e-05
0.0076818
0.000129204
0.00807624
0.000238807
0.0084314
0.000361393
0.00874534
0.000496695
0.00901659
0.000644498
0.00924424
0.000804659
0.00942794
0.000977091
0.00956806
0.00116174
0.00966576
0.00135851
0.00972323
0.00156712
0.00974387
0.00178686
0.0097326
0.0020162
0.00969614
0.00225228
0.00964592
0.00959941
0.0024897
-1.5002e-05
-9.89768e-07
-4.64067e-05
0.000210331
-8.55483e-05
0.000605227
-0.000126242
0.00110525
-0.000164154
0.00166451
-0.000196155
0.00225449
-0.00021993
0.00285644
-0.000233698
0.0034579
-0.000236048
0.00405053
-0.000225855
0.00462854
-0.000202249
0.00518763
-0.000164586
0.00572429
-0.000112436
0.00623535
-4.55817e-05
0.0067178
3.60174e-05
0.00716879
0.000132255
0.00758556
0.00024292
0.00796558
0.000367735
0.00830658
0.000506408
0.00860666
0.000658676
0.00886433
0.000824342
0.00907858
0.0010033
0.00924898
0.00119554
0.00937582
0.00140114
0.00946017
0.00162019
0.00950418
0.00185267
0.00951138
0.00209821
0.00948707
0.00235558
0.00943877
0.00262212
0.00937937
0.00932944
0.00289209
-1.52012e-05
1.42118e-05
-4.65288e-05
0.000241658
-8.47684e-05
0.000643467
-0.000123419
0.0011439
-0.000157974
0.00169907
-0.000185247
0.00228176
-0.000202932
0.00287412
-0.000209294
0.00346426
-0.000202976
0.00404422
-0.000182914
0.00460848
-0.000148281
0.005153
-9.84655e-05
0.00567448
-3.3058e-05
0.00616994
4.81449e-05
0.0066366
0.000145176
0.00707176
0.00025792
0.00747282
0.000386157
0.00783734
0.0005296
0.00816314
0.000687948
0.00844832
0.000860926
0.00869135
0.00104834
0.00889116
0.00125009
0.00904723
0.00146622
0.00915969
0.00169689
0.0092295
0.00194235
0.00925872
0.00220286
0.00925088
0.00247836
0.00921157
0.00276806
0.00914907
0.0030696
0.00907784
0.00902199
0.00337706
-1.52824e-05
2.94945e-05
-4.62356e-05
0.000272612
-8.31001e-05
0.000680331
-0.00011905
0.00117985
-0.000149391
0.00172941
-0.000170869
0.00230324
-0.00018118
0.00288443
-0.000178627
0.00346171
-0.000161917
0.00402751
-0.000130047
0.00457661
-8.22402e-05
0.00510519
-1.79179e-05
0.00561016
6.32879e-05
0.00608873
0.00016158
0.00653831
0.000276977
0.00695636
0.000409359
0.00734043
0.000558495
0.00768821
0.000724085
0.00799755
0.00090581
0.00826659
0.00110337
0.00849378
0.00131656
0.00867798
0.00154524
0.00881854
0.00178947
0.00891546
0.00204944
0.00896953
0.00232551
0.00898265
0.00261814
0.00895825
0.00292762
0.00890208
0.00325359
0.00882309
0.00359414
0.00873728
0.00867273
0.0039434
-1.52713e-05
4.47659e-05
-4.56068e-05
0.000302947
-8.06977e-05
0.000715422
-0.000113378
0.00121253
-0.00013875
0.00175478
-0.000153475
0.00231797
-0.000155236
0.00288619
-0.00014237
0.00344884
-0.000113643
0.00399878
-6.81152e-05
0.00453108
-5.06455e-06
0.00504214
7.60409e-05
0.00552905
0.000175553
0.00598922
0.000293642
0.00642022
0.00043032
0.00681968
0.000585458
0.0071853
0.000758813
0.00751485
0.000950073
0.00780629
0.00115889
0.00805777
0.00138493
0.00826774
0.00162793
0.00843498
0.00188772
0.00855876
0.00216426
0.00863891
0.00245775
0.00867605
0.00276856
0.00867183
0.00309726
0.00862954
0.00344444
0.0085549
0.00381018
0.00845736
0.00419311
0.00835435
0.0082782
0.00458765
-1.51961e-05
5.99621e-05
-4.47282e-05
0.00033248
-7.77281e-05
0.000748422
-0.00010667
0.00124147
-0.000126434
0.00177455
-0.000133577
0.00232511
-0.000125751
0.00287837
-0.000101317
0.00342441
-5.90903e-05
0.00395655
1.80553e-06
0.00447019
8.20378e-05
0.00496191
0.000182093
0.00542899
0.000302284
0.00586903
0.000442761
0.00627974
0.000603521
0.00665892
0.000784423
0.0070044
0.000985211
0.00731406
0.00120555
0.00758595
0.00144506
0.00781827
0.00170335
0.00800945
0.00198007
0.00815826
0.00227497
0.00826387
0.0025879
0.00832598
0.00291894
0.008345
0.00326841
0.00832237
0.00363688
0.00826107
0.0040251
0.00816668
0.00443355
0.00804891
0.00486148
0.00792642
0.00783586
0.00530382
-1.50855e-05
7.50477e-05
-4.36868e-05
0.000361081
-7.43612e-05
0.000779096
-9.92011e-05
0.00126631
-0.000112846
0.00178819
-0.000111724
0.00232399
-9.34372e-05
0.00286008
-5.63538e-05
0.00338733
6.67977e-07
0.00389953
7.84527e-05
0.0043924
0.00017761
0.00486275
0.000298578
0.00530803
0.000441629
0.00572598
0.000606883
0.00611449
0.000794317
0.00647149
0.00100377
0.00679494
0.00123497
0.00708286
0.00148755
0.00733338
0.00176107
0.00754474
0.00205508
0.00771544
0.00236912
0.00784421
0.0027028
0.00793018
0.00305583
0.00797295
0.00342809
0.00797275
0.00381972
0.00793074
0.0042312
0.0078496
0.00466329
0.00773459
0.00511677
0.00759543
0.0055915
0.00745169
0.00734421
0.00608315
-1.49667e-05
9.00145e-05
-4.25656e-05
0.00038868
-7.07595e-05
0.00080729
-9.12386e-05
0.00128679
-9.83824e-05
0.00179534
-8.84673e-05
0.00231407
-5.90269e-05
0.00283064
-8.41749e-06
0.00333672
6.44743e-05
0.00382664
0.000160429
0.00429645
0.000280003
0.00474318
0.000423581
0.00516445
0.000591392
0.00555817
0.000783519
0.00592236
0.000999908
0.0062551
0.00124037
0.00655448
0.0015046
0.00681864
0.00179217
0.0070458
0.00210261
0.00723431
0.00243534
0.00738271
0.00278979
0.00748976
0.00316539
0.00755459
0.00356163
0.00757671
0.00397815
0.00755622
0.00441484
0.00749405
0.00487192
0.00739252
0.00535005
0.00725645
0.00585016
0.00709532
0.00637265
0.0069292
0.00680278
0.00691409
-1.48638e-05
0.000104878
-4.14368e-05
0.000415253
-6.70665e-05
0.00083292
-8.30223e-05
0.00130274
-8.34082e-05
0.00179572
-6.43298e-05
0.00229499
-2.32295e-05
0.00278954
4.15624e-05
0.00327192
0.000131151
0.00373705
0.000246281
0.00418132
0.00038746
0.004602
0.00055502
0.00499689
0.000749139
0.00536405
0.000969853
0.00570165
0.00121707
0.00600789
0.00149054
0.006281
0.00178993
0.00651925
0.00211475
0.00672098
0.00246441
0.00688465
0.00283824
0.00700887
0.0032355
0.0070925
0.00365542
0.00713467
0.00409722
0.0071349
0.00456026
0.00709318
0.00504406
0.00701025
0.0055485
0.00688808
0.00607401
0.00673094
0.0066215
0.00654783
0.00719181
0.00635889
0.00621208
0.00778251
-1.47954e-05
0.000119674
-4.03561e-05
0.000440813
-6.33946e-05
0.000855958
-7.47464e-05
0.00131409
-6.82294e-05
0.00178921
-3.97623e-05
0.00226653
1.33185e-05
0.00273646
9.27319e-05
0.00319251
0.000199584
0.0036302
0.000334597
0.0040463
0.000498238
0.00443836
0.00069078
0.00480435
0.000912347
0.00514248
0.00116292
0.00545108
0.00144234
0.00572847
0.00175031
0.00597302
0.00208641
0.00618315
0.00245008
0.00635732
0.0028406
0.00649412
0.00325717
0.00659231
0.00369885
0.00665082
0.00416463
0.0066689
0.00465345
0.00664608
0.00516429
0.00658234
0.00569629
0.00647826
0.00624889
0.00633548
0.00682214
0.00615769
0.00741681
0.00595316
0.00803407
0.00574163
0.00557362
0.00867252
-1.4773e-05
0.000134447
-3.93571e-05
0.000465397
-5.98144e-05
0.000876415
-6.65405e-05
0.00132082
-5.30623e-05
0.00177573
-1.51007e-05
0.00222857
5.01219e-05
0.00267124
0.000144389
0.00309824
0.000268824
0.00350576
0.000424137
0.00389099
0.000610754
0.00425174
0.000828895
0.0045862
0.00107862
0.00489276
0.00135984
0.00516986
0.00167232
0.00541599
0.00201569
0.00562965
0.00238943
0.00580941
0.00279287
0.00595389
0.00322516
0.00606183
0.00368531
0.00613215
0.00417219
0.00616395
0.0046845
0.00615658
0.00522087
0.00610971
0.00577988
0.00602333
0.00636018
0.00589795
0.00696074
0.00573492
0.00758111
0.00553732
0.00822176
0.0053125
0.00888407
0.00507932
0.00488995
0.00956775
-1.47994e-05
0.000149246
-3.84463e-05
0.000489044
-5.63446e-05
0.000894313
-5.84513e-05
0.00132293
-3.80063e-05
0.00175528
9.4673e-06
0.00218109
8.68744e-05
0.00259383
0.000196065
0.00298905
0.000338193
0.00336363
0.000513961
0.00371522
0.00072376
0.00404194
0.000967755
0.00434221
0.00124593
0.00461458
0.00155812
0.00485767
0.00190401
0.0050701
0.00228312
0.00525054
0.00269482
0.00539771
0.00313829
0.00551041
0.00361255
0.00558757
0.00411641
0.00562829
0.0046485
0.00563186
0.00520724
0.00559784
0.00579089
0.00552605
0.00639761
0.00541661
0.00702555
0.00527002
0.00767304
0.00508743
0.00833902
0.00487134
0.00902351
0.00462801
0.00972793
0.00437489
0.00416472
0.0104532
-1.48674e-05
0.000164113
-3.75997e-05
0.000511776
-5.29438e-05
0.000909657
-5.0429e-05
0.00132041
-2.30188e-05
0.00172787
3.39549e-05
0.00212412
0.000123519
0.00250427
0.000247599
0.00286497
0.000407382
0.00320385
0.000603569
0.00351903
0.000836517
0.00380899
0.00110633
0.0040724
0.00141292
0.00430799
0.00175602
0.00451456
0.00213522
0.0046909
0.00254993
0.00483583
0.00299938
0.00494826
0.00348262
0.00502718
0.00399848
0.00507171
0.00454558
0.00508118
0.00512231
0.00505513
0.0057268
0.00499336
0.00635694
0.00489591
0.00701044
0.00476311
0.00768484
0.00459562
0.00837778
0.00439448
0.00908736
0.00416176
0.00981283
0.00390255
0.0105554
0.00363236
0.00340299
0.0113171
-1.49585e-05
0.000179072
-3.67603e-05
0.000533578
-4.95058e-05
0.000922402
-4.23171e-05
0.00131322
-7.90089e-06
0.00169346
5.85869e-05
0.00205763
0.000160289
0.00240257
0.000299201
0.00272606
0.000476549
0.0030265
0.000693026
0.00330255
0.000948953
0.00355306
0.00124437
0.00377698
0.00157912
0.00397325
0.00195283
0.00414085
0.00236496
0.00427876
0.00281481
0.00438598
0.00330147
0.00446161
0.00382382
0.00450482
0.00438055
0.00451498
0.00497008
0.00449166
0.00559055
0.00443466
0.00623984
0.00434407
0.00691549
0.00422026
0.00761471
0.00406389
0.00833442
0.0038759
0.00907139
0.00365751
0.00982258
0.00341057
0.0105859
0.00313918
0.0113617
0.00285656
0.00261166
0.0121531
-1.50438e-05
0.000194116
-3.58382e-05
0.000554373
-4.58589e-05
0.000932423
-3.38504e-05
0.00130122
7.7101e-06
0.0016519
8.38222e-05
0.00198152
0.00019773
0.00228866
0.000351494
0.0025723
0.000546369
0.00283163
0.000783041
0.00306588
0.00106179
0.00327432
0.00138259
0.00345617
0.00174519
0.00361065
0.00214912
0.00373692
0.00259372
0.00383416
0.00307815
0.00390156
0.00360135
0.00393841
0.00416207
0.0039441
0.00475881
0.00391824
0.00538984
0.00386063
0.00605312
0.00377138
0.00674628
0.00365091
0.00746656
0.00349998
0.00821073
0.00331972
0.00897507
0.00311156
0.00975532
0.00287727
0.0105469
0.00261899
0.0113457
0.00234041
0.0121495
0.00205269
0.00180018
0.012961
-1.50848e-05
0.0002092
-3.47129e-05
0.000574001
-4.17697e-05
0.00093948
-2.46595e-05
0.00128411
2.4337e-05
0.0016029
0.000110348
0.00189551
0.000236702
0.00216231
0.000405513
0.00240349
0.000618056
0.00261908
0.000875
0.00280894
0.00117658
0.00297274
0.0015227
0.00311005
0.001913
0.00322034
0.00234691
0.00330301
0.00282364
0.00335743
0.0033422
0.003383
0.0039014
0.00337921
0.00449984
0.00334567
0.00513587
0.0032822
0.00580761
0.00318888
0.00651288
0.0030661
0.00724916
0.00291463
0.00801348
0.00273566
0.00880233
0.00253087
0.00961141
0.00230248
0.0104354
0.00205325
0.0112679
0.00178654
0.0121014
0.00150691
0.0129291
0.00122493
0.000980184
0.0137491
-1.50345e-05
0.000224235
-3.32379e-05
0.000592204
-3.69512e-05
0.000943193
-1.42843e-05
0.00126144
4.26416e-05
0.00154597
0.000139054
0.0017991
0.000278351
0.00202301
0.000462681
0.00221916
0.000693324
0.00238844
0.000970922
0.00253134
0.00129565
0.00264801
0.00166735
0.00273836
0.00208554
0.00280215
0.00254952
0.00283903
0.00305837
0.00284858
0.00361095
0.00283042
0.00420591
0.00278425
0.00484169
0.00270989
0.00551651
0.00260738
0.00622837
0.00247703
0.00697498
0.0023195
0.00775373
0.00213587
0.00856165
0.00192774
0.0093952
0.00169733
0.01025
0.00144769
0.0111202
0.00118301
0.0119977
0.000909038
0.0128705
0.000634095
0.0137213
0.000374143
0.000162295
0.0145392
-1.48398e-05
0.000239074
-3.12458e-05
0.00060861
-3.10746e-05
0.000943022
-2.19533e-06
0.00123256
6.33968e-05
0.00148038
0.000170997
0.0016915
0.00032405
0.00186996
0.000524723
0.00201848
0.000774284
0.00213888
0.00107333
0.00223229
0.00142198
0.00229936
0.00181996
0.00234039
0.00226667
0.00235544
0.00276128
0.00234442
0.00330268
0.00230717
0.00388957
0.00224353
0.00452042
0.0021534
0.00519349
0.00203682
0.00590683
0.00189404
0.00665827
0.00172559
0.00744543
0.00153234
0.00826571
0.0013156
0.00911625
0.0010772
0.00999392
0.000819661
0.0108952
0.000546457
0.0118157
0.000262491
0.0127495
-2.48165e-05
0.013686
-0.000302353
0.0145959
-0.000535774
0.0153834
-0.000625237
0.00318611
0.062652
-0.0632162
0.00382685
0.0580438
-0.0586846
0.00446165
0.0525903
-0.0532251
0.0050996
0.0479719
-0.0486099
0.00568278
0.0447342
-0.0453174
0.0061658
0.0428183
-0.0433013
0.00651783
0.0419253
-0.0422774
0.00673094
0.0416859
-0.041899
0.00681711
0.0418241
-0.0419103
0.00679824
0.042181
-0.0421621
0.0066983
0.0426894
-0.0425894
0.00653761
0.0433149
-0.0431542
0.00633101
0.0440339
-0.0438273
0.00608915
0.0448137
-0.0445719
0.00581977
0.045621
-0.0453516
0.00552848
0.0464302
-0.0461389
0.00521997
0.0472201
-0.0469116
0.00489838
0.0479755
-0.0476539
0.00456677
0.0486902
-0.0483586
0.00422754
0.0493586
-0.0490194
0.00388291
0.049974
-0.0496294
0.00353426
0.0505382
-0.0501896
0.00318276
0.0510472
-0.0506957
0.00282919
0.0514996
-0.051146
0.00247389
0.0518953
-0.05154
0.00211699
0.0522323
-0.0518754
0.00175827
0.0525158
-0.0521571
0.00139867
0.0527637
-0.0524041
0.00104067
0.0529874
-0.0526294
0.0531466
-0.0527943
0.00300457
0.0620441
0.00370666
0.0573417
0.00440309
0.0518938
0.00510383
0.0472712
0.00574261
0.0440954
0.00627041
0.0422905
0.00665542
0.0415403
0.00689073
0.0414505
0.00698988
0.041725
0.00697715
0.0421937
0.00687821
0.0427883
0.00671548
0.0434777
0.00650441
0.044245
0.00625691
0.0450612
0.00598033
0.0458976
0.00568099
0.0467296
0.00536379
0.0475373
0.00503256
0.0483067
0.00469058
0.0490322
0.00434089
0.0497083
0.00398486
0.05033
0.00362482
0.0508983
0.00326159
0.0514104
0.002896
0.0518652
0.00252882
0.0522625
0.00215987
0.0526012
0.00178936
0.0528863
0.00141842
0.0531346
0.00104928
0.0533566
0.05351
0.00283141
0.0614022
0.00358967
0.0565835
0.00434541
0.0511381
0.00510779
0.0465088
0.00580196
0.0434013
0.0063747
0.0417178
0.00679295
0.0411221
0.00705074
0.0411928
0.0071631
0.0416126
0.00715673
0.0422001
0.00705897
0.0428861
0.00689427
0.0436424
0.0066788
0.0444605
0.00642571
0.0453143
0.00614211
0.0461812
0.00583485
0.0470368
0.00550905
0.0478631
0.00516831
0.0486475
0.00481607
0.0493844
0.0044559
0.0500684
0.00408854
0.0506974
0.00371706
0.0512698
0.00334207
0.0517854
0.0029644
0.0522429
0.00258525
0.0526417
0.00220416
0.0529823
0.00182171
0.0532688
0.00143923
0.0535171
0.00105863
0.0537372
0.0538847
0.00267195
0.0607358
0.00348013
0.0557753
0.0042917
0.0503265
0.00511348
0.045687
0.00586198
0.0426527
0.00647924
0.0411005
0.00693063
0.0406707
0.00721096
0.0409124
0.00733674
0.0414868
0.00733684
0.0422
0.00724041
0.0429825
0.00707365
0.0438091
0.00685408
0.0446801
0.00659531
0.0455731
0.00630493
0.0464715
0.00598991
0.0473518
0.00565551
0.0481975
0.00530544
0.0489976
0.00494315
0.0497467
0.00457233
0.0504393
0.00419394
0.0510758
0.00381088
0.0516528
0.00342414
0.0521722
0.0030344
0.0526326
0.00264309
0.053033
0.00224983
0.0533756
0.00185528
0.0536633
0.00146101
0.0539114
0.00106876
0.0541294
0.0542713
0.00253226
0.0600549
0.00338276
0.0549248
0.00424549
0.0494638
0.0051232
0.0448093
0.00592395
0.041852
0.00658461
0.0404399
0.00706872
0.0401866
0.00737142
0.0406097
0.00751062
0.0413476
0.0075172
0.0421934
0.00742229
0.0430774
0.00725354
0.0439779
0.00703
0.0449036
0.00676548
0.0458376
0.00646854
0.0467685
0.00614595
0.0476744
0.00580299
0.0485405
0.00544374
0.0493568
0.00507161
0.0501188
0.00469009
0.0508208
0.00430083
0.051465
0.00390619
0.0520475
0.00350763
0.0525707
0.0031059
0.0530343
0.00270227
0.0534366
0.00229683
0.053781
0.00189008
0.0540701
0.00148374
0.0543177
0.00107963
0.0545335
0.0546701
0.00241922
0.059369
0.00330296
0.0540411
0.00421059
0.0485562
0.00513937
0.0438805
0.00598931
0.0410021
0.00669153
0.0397376
0.00720741
0.0396707
0.0075321
0.040285
0.00768465
0.0411951
0.00769769
0.0421804
0.0076044
0.0431707
0.00743373
0.0441485
0.00720628
0.045131
0.00693617
0.0461077
0.00663274
0.0470719
0.00630271
0.0480044
0.00595138
0.0488918
0.00558305
0.0497251
0.00520121
0.0505007
0.00480914
0.0512129
0.004409
0.0518652
0.00400289
0.0524536
0.00359249
0.0529811
0.00317876
0.053448
0.00276278
0.0538526
0.00234509
0.0541987
0.00192603
0.0544891
0.00150743
0.0547363
0.00109119
0.0549498
0.0550815
0.00234023
0.0586869
0.00324655
0.0531348
0.00419122
0.0476115
0.00516467
0.0429071
0.00605956
0.0401072
0.00680073
0.0389965
0.00734698
0.0391244
0.00769299
0.039939
0.00785869
0.0410294
0.00787815
0.0421609
0.00778651
0.0432624
0.00761401
0.044321
0.00738269
0.0453624
0.00710716
0.0463833
0.00679731
0.0473818
0.00646
0.0483417
0.00610047
0.0492514
0.00572321
0.0501024
0.00533176
0.0508921
0.00492931
0.0516153
0.00451832
0.0522762
0.00410083
0.052871
0.00367863
0.0534034
0.00325288
0.0538738
0.00282454
0.054281
0.00239452
0.0546287
0.00196305
0.0549206
0.00153203
0.0551673
0.00110341
0.0553784
0.0555058
0.00230302
0.0580172
0.00321975
0.052218
0.00419188
0.0466394
0.00520198
0.041897
0.00613635
0.0391728
0.00691303
0.0382198
0.00748774
0.0385497
0.00785411
0.0395727
0.00803261
0.0408509
0.00805839
0.0421351
0.00796844
0.0433523
0.00779417
0.0444953
0.00755905
0.0455975
0.00727824
0.0466641
0.00696208
0.0476979
0.00661763
0.0486862
0.00625008
0.0496189
0.00586402
0.0504885
0.00546309
0.051293
0.00505042
0.052028
0.00462866
0.0526979
0.00419988
0.0532998
0.00376592
0.0538373
0.00332815
0.0543116
0.00288746
0.0547216
0.00244504
0.0550712
0.0020011
0.0553645
0.00155749
0.0556109
0.00111624
0.0558196
0.0559434
0.0023154
0.0573672
0.003229
0.0513044
0.0042173
0.0456511
0.00525441
0.0408599
0.00622149
0.0382057
0.00702934
0.037412
0.00763003
0.037949
0.00801552
0.0391872
0.00820629
0.0406601
0.00823824
0.0421032
0.00814996
0.0434406
0.00797401
0.0446712
0.00773516
0.0458363
0.0074492
0.04695
0.00712686
0.0480203
0.0067754
0.0490377
0.00640001
0.0499943
0.00600531
0.0508832
0.00559503
0.0517033
0.00517231
0.0524507
0.00473986
0.0531304
0.00429988
0.0537398
0.00385422
0.054283
0.00340446
0.0547613
0.00295144
0.0551747
0.00249656
0.055526
0.00204009
0.055821
0.00158376
0.0560673
0.00112965
0.0562738
0.0563944
0.00238501
0.0567437
0.00328085
0.0504086
0.0042724
0.0446595
0.00532527
0.039807
0.00631692
0.0372141
0.00715066
0.0365782
0.00777425
0.0373254
0.00817727
0.0387842
0.00837961
0.0404577
0.00841752
0.0420653
0.00833086
0.0435273
0.00815331
0.0448488
0.00791082
0.0460788
0.00761983
0.047241
0.00729145
0.0483486
0.00693313
0.049396
0.00655006
0.0503774
0.00614692
0.0512863
0.00572742
0.0521228
0.00529479
0.0528834
0.00485178
0.0535734
0.00440069
0.0541909
0.00394342
0.0547402
0.00348169
0.0552231
0.00301637
0.05564
0.00254898
0.0559934
0.00207993
0.0562901
0.00161078
0.0565364
0.00114359
0.0567409
0.0568592
0.00251888
0.0561526
0.0033817
0.0495458
0.00436211
0.0436791
0.00541798
0.0387511
0.00642471
0.0362073
0.0072781
0.0357248
0.00792087
0.0366826
0.00833946
0.0383656
0.00855248
0.0402447
0.00859605
0.0420217
0.00851095
0.0436124
0.00833186
0.0450279
0.00808582
0.0463249
0.00778993
0.0475369
0.00745565
0.0486829
0.00709064
0.049761
0.00670006
0.050768
0.00628865
0.0516977
0.0058601
0.0525513
0.0054177
0.0533258
0.00496428
0.0540268
0.00450217
0.054653
0.00403337
0.055209
0.00355972
0.0556967
0.00308215
0.0561176
0.00260223
0.0564733
0.00212054
0.0567718
0.00163849
0.0570185
0.00115803
0.0572214
0.057338
0.00272314
0.0555985
0.00353754
0.0487314
0.00449127
0.0427254
0.00553606
0.0377063
0.00654708
0.0351963
0.00741284
0.0348591
0.0080704
0.0360251
0.00850222
0.0379337
0.00872481
0.0400221
0.00877364
0.0419729
0.00869
0.043696
0.00850945
0.0452084
0.00825996
0.0465743
0.00795931
0.0478376
0.00761929
0.0490229
0.00724775
0.0501325
0.00684984
0.0511659
0.00643033
0.0521172
0.00599291
0.0529888
0.00554089
0.0537778
0.0050772
0.0544905
0.00460418
0.055126
0.00412395
0.0556893
0.00363842
0.0561822
0.00314865
0.0566073
0.0026562
0.0569658
0.00216184
0.0572661
0.0016668
0.0575135
0.00117294
0.0577153
0.057831
0.0030026
0.0550856
0.00375366
0.0479803
0.00466442
0.0418146
0.00568293
0.0366878
0.00668629
0.034193
0.00755616
0.0339892
0.00822343
0.0353578
0.00866569
0.0374915
0.00889652
0.0397913
0.00895012
0.0419193
0.0088678
0.0437783
0.00868584
0.0453904
0.00843302
0.0468272
0.00812776
0.0481428
0.00778217
0.0493685
0.00740426
0.0505104
0.00699923
0.0515709
0.00657179
0.0525447
0.0061257
0.0534348
0.00566421
0.0542393
0.00519041
0.0549643
0.00470659
0.0556099
0.00421504
0.0561808
0.00371769
0.0566796
0.00321576
0.0571093
0.0027108
0.0574707
0.00220375
0.0577732
0.00169565
0.0580216
0.00118827
0.0582226
0.0583383
0.00336046
0.0546172
0.00403426
0.0473065
0.00488556
0.0409633
0.00586184
0.0357115
0.00684459
0.0332102
0.00770938
0.0331244
0.00838059
0.0346866
0.00883005
0.037042
0.00906755
0.0395538
0.00912529
0.0418615
0.00904415
0.0438595
0.00886083