/*--------------------------------*- C++ -*----------------------------------*\
  =========                 |
  \\      /  F ield         | OpenFOAM: The Open Source CFD Toolbox
   \\    /   O peration     | Website:  https://openfoam.org
    \\  /    A nd           | Version:  7
     \\/     M anipulation  |
\*---------------------------------------------------------------------------*/
FoamFile
{
    version     2.0;
    format      ascii;
    class       volVectorField;
    location    "6";
    object      U;
}
// * * * * * * * * * * * * * * * * * * * * * * * * * * * * * * * * * * * * * //

dimensions      [0 1 -1 0 0 0 0];

internalField   nonuniform List<vector> 
18000
(
(0.000127988 -0.00366809 7.70887e-21)
(0.000243186 -0.00182719 0)
(0.00027568 0.00736668 0)
(0.000257872 0.0212769 0)
(0.000287774 0.0382411 -2.53789e-21)
(0.000461985 0.0571738 1.28395e-20)
(0.000853575 0.0773326 -2.59592e-21)
(0.00150744 0.0981906 2.61379e-21)
(0.00244853 0.119364 0)
(0.00368739 0.14056 -7.91399e-21)
(0.0052199 0.161536 -2.64655e-21)
(0.00703383 0.182083 0)
(0.0091099 0.202016 5.29475e-21)
(0.0114212 0.221164 5.30415e-21)
(0.0139394 0.239374 -1.06087e-20)
(0.0166369 0.256509 -1.05952e-20)
(0.0194861 0.272452 0)
(0.0224608 0.287104 -1.5848e-20)
(0.0255358 0.300391 5.25614e-21)
(0.0286864 0.312256 -1.57586e-20)
(0.0318904 0.322669 5.22202e-21)
(0.0351285 0.331617 0)
(0.0383847 0.339104 -5.16162e-21)
(0.0416457 0.345149 -5.15802e-21)
(0.0448997 0.349782 0)
(0.0481376 0.353039 0)
(0.051351 0.35496 -1.01612e-20)
(0.0545409 0.355579 -1.0101e-20)
(0.0576955 0.354978 -1.00876e-20)
(0.0606497 0.353265 1.11645e-20)
(0.000172414 -0.00366389 1.09903e-20)
(2.27851e-05 -0.00180017 1.91219e-20)
(-0.000538708 0.00738339 -1.95676e-20)
(-0.00131118 0.0212478 -1.99439e-20)
(-0.00213392 0.0381194 -5.06821e-21)
(-0.00286441 0.0569129 1.53722e-20)
(-0.00340202 0.0768934 -2.07144e-20)
(-0.00368221 0.0975385 -2.08738e-20)
(-0.00366251 0.118474 2.0995e-20)
(-0.00332235 0.139417 2.10811e-20)
(-0.00266074 0.160134 -1.05741e-20)
(-0.00168236 0.180422 -2.11791e-20)
(-0.000400282 0.2001 -1.06149e-20)
(0.00116267 0.219002 2.11919e-20)
(0.00298322 0.236978 -2.11844e-20)
(0.00503768 0.253894 2.11571e-20)
(0.00730031 0.269634 -4.22759e-20)
(0.00974617 0.284102 3.15808e-20)
(0.012352 0.297223 -2.09892e-20)
(0.0150948 0.308942 1.04909e-20)
(0.0179521 0.319226 -2.08419e-20)
(0.020903 0.328062 0)
(0.0239296 0.335453 1.04624e-20)
(0.027016 0.341417 -2.05518e-20)
(0.0301471 0.345983 2.04575e-20)
(0.03331 0.349186 0)
(0.0364907 0.351066 -1.00639e-20)
(0.0396832 0.351663 1.00029e-20)
(0.0428534 0.351068 3.99447e-20)
(0.0458415 0.349403 2.22271e-20)
(0.000216856 -0.00364127 -1.75971e-20)
(-0.000190646 -0.00172737 -1.91215e-20)
(-0.00133006 0.00748969 2.93458e-20)
(-0.00283401 0.0213275 4.98155e-20)
(-0.00448173 0.0381107 0)
(-0.00608248 0.0567608 -2.05105e-20)
(-0.00750727 0.0765478 2.07142e-20)
(-0.00867557 0.0969638 6.25663e-20)
(-0.00953187 0.117645 -2.09948e-20)
(-0.0100458 0.138313 -2.10831e-20)
(-0.0102083 0.158744 6.33695e-20)
(-0.0100199 0.178746 2.1179e-20)
(-0.00948805 0.19814 0)
(-0.0086302 0.216767 -4.24004e-20)
(-0.0074673 0.234479 6.33699e-20)
(-0.00601999 0.251147 -2.11193e-20)
(-0.00431076 0.266656 2.11024e-20)
(-0.00236254 0.280911 2.10714e-20)
(-0.000197642 0.293838 7.54753e-23)
(0.00216114 0.305382 0)
(0.00469109 0.315512 6.25604e-20)
(0.00737103 0.324212 -4.13404e-20)
(0.0101812 0.331486 2.0664e-20)
(0.0131029 0.337351 0)
(0.0161181 0.341834 -2.04575e-20)
(0.0192084 0.344972 8.11954e-20)
(0.0223553 0.346807 -6.02885e-20)
(0.0255459 0.347383 -2.01e-20)
(0.0287228 0.346802 1.97545e-20)
(0.0317324 0.3452 2.22262e-20)
(0.000256659 -0.00353197 0)
(-0.00041043 -0.00148801 9.54387e-21)
(-0.00212075 0.00777397 1.42813e-24)
(-0.00433465 0.0215805 -4.97875e-20)
(-0.00677058 0.0382607 0)
(-0.00919937 0.056748 -4.09153e-20)
(-0.0114661 0.0763209 0)
(-0.0134722 0.0964837 -6.25361e-20)
(-0.0151517 0.116882 2.09416e-20)
(-0.0164662 0.137249 -4.20529e-20)
(-0.0174001 0.157369 -4.2226e-20)
(-0.0179487 0.177056 -2.11582e-20)
(-0.0181164 0.19614 2.11172e-20)
(-0.0179164 0.214464 2.107e-20)
(-0.0173655 0.231887 -2.11883e-20)
(-0.0164815 0.24828 -4.2158e-20)
(-0.0152854 0.263531 4.19844e-20)
(-0.0137989 0.277548 0)
(-0.012043 0.290257 0)
(-0.0100394 0.301604 0)
(-0.00781098 0.311556 0)
(-0.0053797 0.3201 0)
(-0.00276705 0.327239 0)
(5.60897e-06 0.332988 -4.0803e-20)
(0.00291707 0.337376 -4.07452e-20)
(0.00594426 0.340442 -1.8297e-22)
(0.00906341 0.342231 -4.02316e-20)
(0.0122542 0.342792 -3.34507e-22)
(0.015437 0.342238 -4.00424e-20)
(0.018462 0.340717 8.81951e-20)
(0.00028652 -0.00338166 0)
(-0.000642383 -0.00116818 8.57356e-20)
(-0.00290551 0.00816066 1.16586e-24)
(-0.00580041 0.0219425 -2.98208e-20)
(-0.00898912 0.0385154 1.00898e-19)
(-0.0122011 0.0568281 6.13646e-20)
(-0.0152583 0.0761728 6.18968e-20)
(-0.0180487 0.096065 0)
(-0.0204957 0.116162 0)
(-0.0225534 0.136209 6.30834e-20)
(-0.0242016 0.155998 4.02781e-23)
(-0.0254322 0.175348 -1.47687e-19)
(-0.026245 0.194099 1.26562e-19)
(-0.0266495 0.212098 -4.22412e-20)
(-0.02666 0.229208 4.20163e-20)
(-0.0262923 0.245305 4.19727e-20)
(-0.0255656 0.260277 -4.19679e-20)
(-0.0244999 0.274034 4.19352e-20)
(-0.0231149 0.286504 8.34781e-20)
(-0.0214322 0.297633 -4.14545e-20)
(-0.0194744 0.307391 -8.25945e-20)
(-0.017264 0.315762 8.2188e-20)
(-0.014824 0.322749 -8.17508e-20)
(-0.0121782 0.32837 4.0803e-20)
(-0.00935125 0.332654 0)
(-0.0063702 0.335642 0)
(-0.00326443 0.337385 3.53697e-22)
(-6.19149e-05 0.337939 -1.5838e-19)
(0.00313692 0.337425 7.85787e-20)
(0.00618314 0.336007 -8.81159e-20)
(0.000304053 -0.00317679 0)
(-0.000890552 -0.000738812 -7.62025e-20)
(-0.00369179 0.00867346 7.7871e-20)
(-0.00723868 0.0224275 0)
(-0.0111373 0.0388825 -1.61314e-19)
(-0.0150833 0.0570069 -2.04239e-20)
(-0.0188775 0.076106 -4.12924e-20)
(-0.0223933 0.0957098 -2.07722e-20)
(-0.0255465 0.115488 0)
(-0.0282865 0.135195 -4.20084e-20)
(-0.0305881 0.15463 4.20498e-20)
(-0.0324391 0.173625 8.43516e-20)
(-0.033837 0.192022 -8.43888e-20)
(-0.0347885 0.209677 0)
(-0.0353052 0.226456 -8.42442e-20)
(-0.0354012 0.242237 8.39301e-20)
(-0.0350942 0.256911 8.38679e-20)
(-0.0344028 0.270391 1.2526e-19)
(-0.0333455 0.282604 -1.2483e-19)
(-0.0319433 0.293501 1.65762e-19)
(-0.030219 0.303048 8.26364e-20)
(-0.0281955 0.311231 -8.21879e-20)
(-0.0258967 0.318055 1.63207e-19)
(-0.0233484 0.323537 0)
(-0.0205785 0.327711 8.04482e-20)
(-0.0176186 0.330619 1.60143e-19)
(-0.0145028 0.332318 -7.89928e-20)
(-0.0112668 0.332872 7.91652e-20)
(-0.00803031 0.332412 -8.79289e-23)
(-0.00494558 0.331119 -8.77656e-20)
(0.000305576 -0.00292683 -8.75349e-21)
(-0.0011608 -0.000223082 0)
(-0.00448025 0.00928381 -9.7326e-20)
(-0.00864493 0.0230091 1.98262e-20)
(-0.0132095 0.0393371 6.04622e-20)
(-0.0178362 0.0572587 2.03881e-20)
(-0.0223076 0.0760985 8.23329e-20)
(-0.0264861 0.0953996 0)
(-0.0302812 0.114843 4.17789e-20)
(-0.0336374 0.134193 4.19017e-20)
(-0.0365257 0.15326 -4.20748e-20)
(-0.0389318 0.171883 1.26184e-19)
(-0.0408507 0.189911 0)
(-0.0422865 0.207206 0)
(-0.043249 0.223638 1.26056e-19)
(-0.0437513 0.239088 -2.09578e-19)
(-0.0438096 0.253451 8.35392e-20)
(-0.0434404 0.26664 -8.34233e-20)
(-0.0426617 0.278585 -8.29034e-20)
(-0.0414943 0.289236 -2.48048e-19)
(-0.0399604 0.298561 -2.7506e-22)
(-0.038083 0.306547 8.16503e-20)
(-0.0358868 0.313198 -1.62621e-19)
(-0.0333993 0.318535 8.06501e-20)
(-0.030651 0.322591 -3.40805e-22)
(-0.0276775 0.325418 -7.99045e-20)
(-0.0245182 0.327076 7.93377e-20)
(-0.021216 0.32764 0)
(-0.0179076 0.327251 7.76993e-20)
(-0.0147541 0.326106 3.02804e-22)
(0.000289093 -0.00263719 -1.74858e-20)
(-0.00145557 0.000369659 1.89897e-20)
(-0.00527267 0.0099807 -1.16524e-19)
(-0.0100186 0.0236716 -5.93517e-20)
(-0.0151999 0.0398619 8.03937e-20)
(-0.0204497 0.057569 -1.22157e-19)
(-0.0255353 0.0761361 -4.12044e-20)
(-0.0303095 0.0951203 -8.28711e-20)
(-0.0346768 0.114216 8.33534e-20)
(-0.0385785 0.133197 -1.6749e-19)
(-0.041983 0.151883 -8.39166e-20)
(-0.0448738 0.170121 -1.03768e-22)
(-0.0472441 0.187768 4.21014e-20)
(-0.0490965 0.204692 -1.25951e-19)
(-0.0504398 0.220766 -1.67818e-19)
(-0.0512858 0.235874 -5.56455e-23)
(-0.0516487 0.249916 -2.07234e-22)
(-0.0515441 0.262806 8.3069e-20)
(-0.0509893 0.274474 8.29031e-20)
(-0.0500045 0.284872 -3.08665e-23)
(-0.0486114 0.293968 -2.79574e-22)
(-0.0468325 0.301749 8.11155e-20)
(-0.0446928 0.30822 8.11649e-20)
(-0.0422213 0.313406 -2.63447e-23)
(-0.0394504 0.317342 -2.39976e-19)
(-0.036419 0.320085 1.58403e-19)
(-0.0331717 0.321706 1.57731e-19)
(-0.0297585 0.322288 -1.56021e-19)
(-0.0263306 0.321985 -7.7699e-20)
(-0.023064 0.321013 -8.65058e-20)
(0.000252536 -0.00231191 -1.57086e-19)
(-0.0017776 0.00102691 -1.89643e-20)
(-0.00606979 0.0107464 9.70671e-20)
(-0.0113573 0.0243968 7.9151e-20)
(-0.0171032 0.0404386 -8.03931e-20)
(-0.0229151 0.0579183 8.14118e-20)
(-0.0285476 0.0762005 -4.1108e-20)
(-0.0338461 0.094857 1.24262e-19)
(-0.0387117 0.113594 -8.33529e-20)
(-0.0430837 0.132196 8.36958e-20)
(-0.0469286 0.150493 4.19436e-20)
(-0.0502286 0.168338 -4.20795e-20)
(-0.0529761 0.185597 -2.5197e-19)
(-0.0551727 0.202141 1.67807e-19)
(-0.0568262 0.21785 8.38445e-20)
(-0.0579472 0.232611 0)
(-0.0585485 0.246327 0)
(-0.0586447 0.258912 -3.80049e-22)
(-0.0582528 0.2703 -8.25502e-20)
(-0.0573918 0.280441 0)
(-0.0560825 0.289303 0)
(-0.0543471 0.296876 -8.13869e-20)
(-0.0522105 0.303166 0)
(-0.0497017 0.308196 -1.60054e-19)
(-0.0468547 0.31201 0)
(-0.043711 0.314669 -7.91731e-20)
(-0.0403205 0.316254 1.56919e-19)
(-0.0367394 0.316862 -1.55218e-19)
(-0.0331306 0.316659 0)
(-0.0296926 0.315885 0)
(0.000194622 -0.00195744 1.39621e-19)
(-0.0021283 0.00173525 0)
(-0.00687151 0.011564 -1.93776e-20)
(-0.0126587 0.0251651 1.97462e-20)
(-0.0189143 0.0410462 -1.20229e-19)
(-0.0252238 0.0582866 2.48871e-23)
(-0.0313323 0.0762732 -4.10236e-20)
(-0.03708 0.094593 0)
(-0.0423657 0.112964 0)
(-0.0471282 0.131181 -4.18092e-20)
(-0.0513331 0.149083 4.18505e-20)
(-0.0549621 0.166531 -8.39627e-20)
(-0.0580074 0.183397 8.40082e-20)
(-0.0604704 0.199559 0)
(-0.0623577 0.2149 0)
(-0.063679 0.229314 0)
(-0.0644463 0.242702 8.2893e-20)
(-0.0646735 0.254984 -1.67035e-22)
(-0.0643763 0.266092 8.27272e-20)
(-0.0635731 0.275976 -1.63771e-19)
(-0.0622834 0.284607 8.16256e-20)
(-0.0605287 0.291972 -4.0485e-19)
(-0.0583331 0.298078 5.79795e-23)
(-0.0557254 0.302953 1.60053e-19)
(-0.0527395 0.306643 -5.22231e-22)
(-0.0494195 0.309217 1.57068e-19)
(-0.0458199 0.310767 -1.55557e-19)
(-0.0420027 0.311404 -1.5474e-19)
(-0.0381389 0.311314 2.84232e-22)
(-0.0344581 0.310762 -1.70215e-19)
(0.00011468 -0.00157987 -1.74181e-20)
(-0.00250822 0.00248136 0)
(-0.00767741 0.012416 3.87007e-20)
(-0.0139204 0.0259563 -3.9437e-20)
(-0.0206283 0.0416636 3.60559e-19)
(-0.0273685 0.0586528 2.70027e-23)
(-0.0338789 0.076334 -4.09706e-20)
(-0.0399969 0.0943099 4.13357e-20)
(-0.0456207 0.11231 -2.07652e-19)
(-0.0506897 0.13014 0)
(-0.0551697 0.147645 0)
(-0.0590428 0.164696 -8.35963e-20)
(-0.0623015 0.18117 8.39709e-20)
(-0.0649473 0.19695 -8.37972e-20)
(-0.0669863 0.211927 8.34419e-20)
(-0.0684272 0.225995 0)
(-0.0692816 0.239061 -3.32026e-19)
(-0.0695627 0.251044 1.65135e-19)
(-0.0692852 0.261877 8.23427e-20)
(-0.068466 0.271512 2.45453e-19)
(-0.0671239 0.279916 0)
(-0.065279 0.287078 1.61744e-19)
(-0.0629543 0.293004 1.60166e-19)
(-0.0601769 0.297725 1.58952e-19)
(-0.0569809 0.301292 -6.5845e-22)
(-0.0534115 0.30378 -1.56187e-19)
(-0.0495273 0.305293 1.55556e-19)
(-0.0453959 0.30596 0)
(-0.0411919 0.305992 3.2396e-22)
(-0.0371853 0.305685 3.39412e-19)
(1.23314e-05 -0.00118527 -1.3905e-19)
(-0.00291724 0.00325168 0)
(-0.00848643 0.0132844 -1.54454e-19)
(-0.0151402 0.0267501 -1.96806e-19)
(-0.022241 0.0422691 -1.20135e-19)
(-0.0293425 0.0589947 4.05355e-20)
(-0.0361783 0.0763615 3.87375e-23)
(-0.0425847 0.093988 -4.12382e-20)
(-0.0484612 0.111615 1.97604e-22)
(-0.0537489 0.129057 8.34255e-20)
(-0.0584148 0.146168 8.35473e-20)
(-0.0624423 0.162824 -8.35647e-20)
(-0.0658251 0.178911 8.35988e-20)
(-0.0685648 0.194317 -2.5076e-19)
(-0.0706673 0.208936 2.50053e-19)
(-0.072141 0.222667 1.66221e-19)
(-0.072997 0.23542 4.14401e-19)
(-0.0732477 0.247114 -8.27118e-20)
(-0.0729071 0.257683 -1.63935e-19)
(-0.0719908 0.267078 -4.0201e-22)
(-0.0705161 0.275266 -1.62287e-19)
(-0.0685018 0.282235 4.82715e-19)
(-0.0659692 0.28799 -3.20123e-19)
(-0.0629437 0.292562 3.16611e-19)
(-0.059458 0.296008 -1.57535e-19)
(-0.0555579 0.298409 3.11666e-19)
(-0.0513058 0.299882 4.82352e-22)
(-0.0467739 0.300576 -3.05871e-19)
(-0.0421361 0.300735 3.02362e-19)
(-0.037712 0.300692 1.67702e-19)
(-0.000112354 -0.000779604 1.3905e-19)
(-0.00335481 0.00403323 0)
(-0.00929738 0.0141518 3.47261e-19)
(-0.0163157 0.027526 1.18094e-19)
(-0.023749 0.0428405 0)
(-0.031141 0.0592895 0)
(-0.0382234 0.076333 0)
(-0.0448341 0.0936057 0)
(-0.0508749 0.11086 8.29506e-20)
(-0.05629 0.127917 8.31987e-20)
(-0.0610489 0.144638 -1.67054e-19)
(-0.065137 0.160908 1.6726e-19)
(-0.0685495 0.176616 2.50718e-19)
(-0.0712889 0.191658 8.36762e-20)
(-0.0733611 0.20593 8.31581e-20)
(-0.0747746 0.219338 -2.49176e-19)
(-0.0755401 0.231791 -3.3087e-19)
(-0.0756694 0.243211 -1.64811e-19)
(-0.0751754 0.253533 1.63933e-19)
(-0.0740728 0.262705 -3.25868e-19)
(-0.0723774 0.270693 1.61511e-19)
(-0.0701067 0.277483 -3.21375e-19)
(-0.0672796 0.28308 1.58967e-19)
(-0.0639195 0.287515 -3.50954e-22)
(-0.0600575 0.290845 -1.56446e-19)
(-0.055739 0.293161 -3.10693e-19)
(-0.0510298 0.29459 3.0759e-19)
(-0.0460057 0.295306 0)
(-0.0408357 0.29559 -3.78625e-22)
(-0.0358967 0.295824 -3.3416e-19)
(-0.000259012 -0.000368614 1.73423e-20)
(-0.00381996 0.00481347 0)
(-0.010109 0.015001 -1.5422e-19)
(-0.0174453 0.028264 3.92741e-20)
(-0.0251496 0.0433558 -3.98794e-20)
(-0.0327602 0.0595139 0)
(-0.0400093 0.0762248 -4.08489e-20)
(-0.0467381 0.0931399 4.11309e-20)
(-0.0528527 0.110021 8.28713e-20)
(-0.0583014 0.126698 -2.49316e-19)
(-0.0630571 0.143039 -8.34531e-20)
(-0.0671081 0.158933 -1.52564e-22)
(-0.0704518 0.174276 -1.00253e-22)
(-0.0730919 0.188967 -1.6675e-19)
(-0.075035 0.20291 -8.33855e-20)
(-0.0762896 0.216011 0)
(-0.0768661 0.228183 -1.3321e-23)
(-0.076776 0.23935 1.64483e-19)
(-0.0760315 0.249444 -1.6325e-19)
(-0.0746462 0.258415 0)
(-0.0726346 0.266225 0)
(-0.0700127 0.272858 0)
(-0.0667975 0.278316 0)
(-0.06301 0.282629 -5.81421e-22)
(-0.0586794 0.285856 0)
(-0.0538501 0.288092 0)
(-0.0485906 0.289475 1.52539e-19)
(-0.0429808 0.290203 1.50945e-19)
(-0.0371789 0.290607 1.49754e-19)
(-0.031626 0.291127 -4.6971e-22)
(-0.000427074 4.24344e-05 1.73148e-20)
(-0.00431152 0.0055808 -3.75944e-20)
(-0.0109199 0.0158162 2.30658e-19)
(-0.0185273 0.028945 -3.91993e-20)
(-0.0264412 0.0437933 3.98434e-20)
(-0.0341981 0.0596444 3.69098e-23)
(-0.0415332 0.0760129 1.22207e-19)
(-0.048293 0.0925664 -1.6429e-19)
(-0.0543894 0.109077 2.48066e-19)
(-0.059776 0.12538 9.83377e-23)
(-0.0644298 0.141351 -8.32432e-20)
(-0.0683432 0.156883 1.66653e-19)
(-0.0715162 0.171876 -1.66636e-19)
(-0.073954 0.186235 1.66419e-19)
(-0.0756645 0.199868 0)
(-0.0766564 0.212684 1.65447e-19)
(-0.0769402 0.224598 0)
(-0.0765271 0.235536 3.14382e-22)
(-0.0754288 0.245429 -1.62872e-19)
(-0.073658 0.254226 -1.61774e-19)
(-0.0712284 0.261886 1.60577e-19)
(-0.0681545 0.268389 -1.5929e-19)
(-0.0644517 0.273735 -1.57922e-19)
(-0.060139 0.27795 -3.13536e-19)
(-0.0552436 0.281092 -1.54978e-19)
(-0.0498087 0.283258 1.5378e-19)
(-0.0439052 0.284597 -3.04679e-19)
(-0.0376172 0.28533 -1.50941e-19)
(-0.0310872 0.285843 0)
(-0.0248232 0.286649 -1.64452e-19)
(-0.000615851 0.00044891 0)
(-0.00482819 0.00632485 1.49997e-19)
(-0.0117289 0.0165829 -1.15323e-19)
(-0.019561 0.0295512 -1.9556e-19)
(-0.027623 0.0441324 0)
(-0.035454 0.0596584 0)
(-0.0427944 0.0756727 -2.44426e-19)
(-0.049498 0.0918596 3.28234e-19)
(-0.0554836 0.108001 -2.4784e-19)
(-0.0607112 0.123938 0)
(-0.0651632 0.13955 8.32043e-20)
(-0.0688365 0.154735 -8.34522e-20)
(-0.0717345 0.169397 2.16663e-22)
(-0.0738644 0.183446 -8.34528e-20)
(-0.0752354 0.196791 -8.29014e-20)
(-0.0758573 0.209347 -2.60509e-22)
(-0.0757407 0.221031 1.64435e-19)
(-0.0748965 0.231768 1.63857e-19)
(-0.0733365 0.241491 7.50705e-23)
(-0.0710731 0.250145 3.23249e-19)
(-0.0681192 0.257688 -3.21006e-19)
(-0.0644884 0.264095 3.18264e-19)
(-0.0601949 0.269362 1.57918e-19)
(-0.0552564 0.273511 1.56478e-19)
(-0.0496987 0.276595 6.13843e-22)
(-0.0435637 0.278711 0)
(-0.0369248 0.280014 1.51438e-19)
(-0.0298707 0.280748 -4.49323e-19)
(-0.0225238 0.281357 1.47822e-19)
(-0.0154573 0.282445 1.63004e-19)
(-0.000824634 0.000846906 -1.03411e-19)
(-0.00536868 0.0070366 -3.37196e-19)
(-0.0125352 0.0172881 -5.11756e-24)
(-0.0205457 0.0300663 2.53754e-22)
(-0.0286951 0.0443539 -1.18975e-19)
(-0.0365285 0.0595339 0)
(-0.0437943 0.0751801 -8.11118e-20)
(-0.0503549 0.0909937 -4.91821e-19)
(-0.0561377 0.106766 2.47492e-19)
(-0.0611098 0.122343 -1.65565e-19)
(-0.0652598 0.13761 2.49153e-19)
(-0.06859 0.152465 -8.30905e-20)
(-0.0711077 0.166816 1.66416e-19)
(-0.0728226 0.180577 -4.15254e-19)
(-0.0737458 0.193661 2.48528e-19)
(-0.0738882 0.205985 -1.18979e-23)
(-0.0732611 0.217468 -4.92744e-19)
(-0.0718759 0.228036 1.63474e-19)
(-0.0697443 0.237622 -1.6225e-19)
(-0.0668789 0.246169 0)
(-0.0632926 0.253633 1.59719e-19)
(-0.0589986 0.259984 0)
(-0.0540108 0.265212 -1.57156e-19)
(-0.0483467 0.269333 1.55611e-19)
(-0.0420312 0.272396 1.54356e-19)
(-0.0351052 0.274492 1.52098e-19)
(-0.0276449 0.275777 0)
(-0.0197452 0.276513 0)
(-0.0115042 0.277209 -2.95247e-19)
(-0.0035532 0.278568 4.83333e-19)
(-0.00105278 0.00123327 1.03488e-19)
(-0.00593176 0.00770845 1.87146e-19)
(-0.0133376 0.0179205 -1.52915e-19)
(-0.0214809 0.0304758 3.1203e-19)
(-0.0296578 0.0444404 3.99284e-20)
(-0.0374232 0.0592506 4.02258e-20)
(-0.0445355 0.0745121 3.71462e-22)
(-0.050868 0.0899434 -1.63447e-19)
(-0.0563572 0.105345 -8.23028e-20)
(-0.0609786 0.120569 2.36495e-22)
(-0.0647278 0.135501 -2.31657e-22)
(-0.0676129 0.150042 -2.49111e-19)
(-0.0696457 0.164104 -8.29936e-20)
(-0.0708391 0.177601 2.41304e-22)
(-0.0712064 0.19045 1.6527e-19)
(-0.0707604 0.202571 1.64642e-19)
(-0.0695134 0.213884 2.94764e-22)
(-0.0674774 0.224317 -1.62897e-19)
(-0.0646651 0.233803 1.62051e-19)
(-0.0610897 0.242282 -1.6074e-19)
(-0.0567646 0.249707 -3.19006e-19)
(-0.0517037 0.256044 -1.58116e-19)
(-0.0459216 0.261279 3.1299e-19)
(-0.0394364 0.265419 0)
(-0.0322735 0.268505 -1.53151e-19)
(-0.0244736 0.270621 -3.03548e-19)
(-0.0161156 0.271919 -2.99975e-19)
(-0.0073025 0.27267 1.48778e-19)
(0.00189448 0.273446 -4.39801e-19)
(0.0107993 0.275066 1.59973e-19)
(-0.00129976 0.00160562 -1.71772e-19)
(-0.00651629 0.00833432 3.7343e-20)
(-0.0141353 0.018471 1.52916e-19)
(-0.0223662 0.0307677 -1.16929e-19)
(-0.0305115 0.0443769 3.96757e-20)
(-0.0381397 0.0587907 -9.54584e-23)
(-0.0450218 0.0736477 4.05114e-19)
(-0.051043 0.0886846 1.63566e-19)
(-0.0561503 0.103711 1.64599e-19)
(-0.0603285 0.118585 2.48005e-19)
(-0.0635808 0.133191 -2.4854e-19)
(-0.0659214 0.147435 1.65985e-19)
(-0.0673675 0.161226 3.31931e-19)
(-0.0679356 0.174483 1.65723e-19)
(-0.067642 0.187125 -1.75801e-23)
(-0.0665014 0.199072 -3.29028e-19)
(-0.0645281 0.210248 3.27614e-19)
(-0.0617355 0.22058 2.40275e-22)
(-0.0581378 0.230002 -1.61676e-19)
(-0.0537493 0.238451 1.60368e-19)
(-0.0485851 0.24588 1.59287e-19)
(-0.0426605 0.252249 -1.57407e-19)
(-0.0359919 0.257539 -3.1245e-19)
(-0.0285996 0.26175 8.15567e-23)
(-0.0205107 0.264911 1.53486e-19)
(-0.0117663 0.267096 1.51449e-19)
(-0.00244841 0.268449 2.98573e-19)
(0.00733048 0.269241 -2.94631e-19)
(0.0175263 0.270099 0)
(0.0274383 0.271971 1.58201e-19)
(-0.00156525 0.00196231 2.79545e-22)
(-0.0071212 0.00890975 0)
(-0.0149271 0.0189327 -1.14193e-19)
(-0.0232006 0.0309326 -3.88513e-20)
(-0.0312562 0.0441516 -1.57801e-19)
(-0.0386793 0.0581396 0)
(-0.0452564 0.0725694 -2.42891e-19)
(-0.0508859 0.0871966 8.15181e-20)
(-0.0555263 0.101841 0)
(-0.0591725 0.116363 -1.6482e-19)
(-0.0618358 0.130652 0)
(-0.0635374 0.144609 -2.48372e-19)
(-0.0642996 0.158148 2.48175e-19)
(-0.0641437 0.171187 -1.65459e-19)
(-0.0630893 0.183646 -1.64726e-19)
(-0.0611541 0.195448 0)
(-0.0583547 0.206517 0)
(-0.0547068 0.216782 1.62444e-19)
(-0.0502268 0.226175 7.01198e-23)
(-0.0449314 0.234634 1.59846e-19)
(-0.0388379 0.242108 -1.58641e-19)
(-0.0319643 0.248555 3.14536e-19)
(-0.0243301 0.253949 -1.55643e-19)
(-0.0159593 0.258283 0)
(-0.0068814 0.261574 4.56903e-19)
(0.00286059 0.263886 -7.52193e-19)
(0.0131821 0.265345 1.49226e-19)
(0.0239599 0.266215 1.47229e-19)
(0.0351756 0.26717 1.4471e-19)
(0.0461284 0.269292 3.11765e-19)
(-0.00184913 0.00230246 -1.36541e-19)
(-0.00774547 0.00943185 2.97101e-19)
(-0.0157116 0.0193009 1.52321e-19)
(-0.0239824 0.0309644 3.48729e-19)
(-0.0318904 0.0437566 4.33386e-19)
(-0.039042 0.057287 7.99401e-20)
(-0.0452414 0.0712639 -4.03387e-19)
(-0.0504019 0.0854628 0)
(-0.0544944 0.0997136 -3.27587e-19)
(-0.0575243 0.113881 -1.64271e-19)
(-0.059512 0.127853 0)
(-0.0604856 0.141533 -1.64955e-19)
(-0.0604736 0.154834 -1.33335e-24)
(-0.0595022 0.167673 -4.94761e-19)
(-0.0575952 0.179972 1.64724e-19)
(-0.0547739 0.191654 1.63987e-19)
(-0.0510582 0.202645 -3.25673e-19)
(-0.0464669 0.212873 -3.24089e-19)
(-0.0410195 0.22227 -3.85917e-23)
(-0.0347362 0.230775 -2.06533e-22)
(-0.0276374 0.238333 0)
(-0.0197452 0.244901 -1.5664e-19)
(-0.0110837 0.250446 -1.5453e-19)
(-0.00168136 0.254954 0)
(0.008428 0.258433 0)
(0.0191992 0.260931 4.49729e-19)
(0.0305453 0.262555 -4.4344e-19)
(0.0423325 0.263551 0)
(0.0545646 0.264626 4.31736e-19)
(0.0665688 0.267003 -3.09663e-19)
(-0.00215151 0.0026258 5.95606e-22)
(-0.00838795 0.00989924 -2.97118e-19)
(-0.0164864 0.0195734 -3.79583e-20)
(-0.0247083 0.03086 -3.87373e-19)
(-0.0324106 0.0431879 -2.36353e-19)
(-0.0392251 0.0562277 7.97872e-20)
(-0.0449759 0.0697239 1.61495e-19)
(-0.0495931 0.083473 4.06089e-19)
(-0.0530607 0.0973153 3.27589e-19)
(-0.0553954 0.111119 3.29092e-19)
(-0.056627 0.124773 0)
(-0.056791 0.13818 5.65005e-22)
(-0.0559224 0.151252 0)
(-0.054053 0.163907 3.2983e-19)
(-0.0512116 0.176064 0)
(-0.0474239 0.187647 -1.63663e-19)
(-0.0427137 0.198583 1.63344e-19)
(-0.0371041 0.2088 0)
(-0.0306188 0.218231 0)
(-0.023282 0.226813 -4.77158e-19)
(-0.0151193 0.23449 1.57799e-19)
(-0.00615769 0.241218 0)
(0.00357291 0.246958 3.09352e-19)
(0.0140382 0.251689 3.06256e-19)
(0.0251988 0.25541 -6.04351e-19)
(0.0370063 0.258152 5.97065e-19)
(0.0493728 0.260002 3.66902e-22)
(0.0621548 0.261178 2.90406e-19)
(0.0753738 0.262404 -2.8801e-19)
(0.0884126 0.265046 0)
(-0.00247259 0.00293256 3.41241e-19)
(-0.00904711 0.0103117 -3.70287e-20)
(-0.0172479 0.0197501 -3.02661e-19)
(-0.0253729 0.0306201 0)
(-0.0328106 0.0424467 -3.13657e-19)
(-0.039222 0.0549624 0)
(-0.0444548 0.0679493 -4.01936e-19)
(-0.0484567 0.0812252 -2.43802e-19)
(-0.0512263 0.0946414 -3.26375e-19)
(-0.052792 0.10807 0)
(-0.0531933 0.1214 8.23682e-20)
(-0.0524737 0.134534 8.3211e-20)
(-0.050675 0.147382 -1.64609e-19)
(-0.0478352 0.15986 -3.28619e-19)
(-0.0439889 0.171889 -1.63561e-19)
(-0.0391667 0.18339 -6.52708e-19)
(-0.0333976 0.19429 3.25031e-19)
(-0.0267096 0.204518 -3.07627e-23)
(-0.0191316 0.214006 2.15424e-23)
(-0.0106933 0.222692 4.76783e-19)
(-0.00142607 0.230519 0)
(0.00863653 0.237439 0)
(0.0194575 0.243413 -7.47562e-22)
(0.0309954 0.248411 3.17245e-22)
(0.0432042 0.252422 -3.00431e-19)
(0.0560312 0.255464 -2.97014e-19)
(0.0693879 0.257601 9.37172e-22)
(0.0831237 0.259015 -2.90393e-19)
(0.0972731 0.260428 -2.85647e-19)
(0.1113 0.263346 1.06377e-21)
(-0.00281262 0.00322315 0)
(-0.00972076 0.01067 2.95058e-19)
(-0.0179909 0.0198332 2.64866e-19)
(-0.0259681 0.0302486 3.85192e-20)
(-0.0330799 0.041539 6.26616e-19)
(-0.0390215 0.0534989 -7.94607e-20)
(-0.0436668 0.0659486 6.42033e-19)
(-0.046983 0.0787276 3.23409e-19)
(-0.0489843 0.0916987 4.89408e-19)
(-0.0497115 0.104738 2.45448e-19)
(-0.049214 0.117735 8.2214e-20)
(-0.0475439 0.130592 4.11733e-19)
(-0.0447502 0.143216 2.55034e-22)
(-0.0408776 0.155523 1.64587e-19)
(-0.035967 0.16743 3.27607e-19)
(-0.0300549 0.17886 3.26189e-19)
(-0.0231759 0.189739 0)
(-0.0153641 0.199994 0)
(-0.00665421 0.209558 0)
(0.00291749 0.218369 0)
(0.0133128 0.22637 3.1319e-19)
(0.0244905 0.233512 0)
(0.0364052 0.239753 -2.81764e-22)
(0.049007 0.245058 6.06692e-19)
(0.0622414 0.249407 3.00131e-19)
(0.07605 0.252803 2.96393e-19)
(0.0903435 0.255286 5.84517e-19)
(0.104967 0.256997 0)
(0.119962 0.258636 -5.68269e-19)
(0.134896 0.261836 6.02291e-19)
(-0.00317166 0.00349797 2.71089e-19)
(-0.0104057 0.0109753 -2.95064e-19)
(-0.018708 0.0198266 0)
(-0.0264823 0.0297531 -3.07138e-19)
(-0.0332035 0.0404762 -7.89455e-20)
(-0.038606 0.0518522 -2.3734e-19)
(-0.0425928 0.0637396 -7.20959e-19)
(-0.0451528 0.0760002 -8.61894e-22)
(-0.0463169 0.0885079 -2.43771e-19)
(-0.0461388 0.101143 -5.72041e-19)
(-0.0446783 0.113797 -8.18935e-20)
(-0.0419963 0.12637 -3.27964e-19)
(-0.0381497 0.138769 -3.27851e-19)
(-0.0331903 0.150906 0)
(-0.0271658 0.162696 -3.26189e-19)
(-0.020119 0.174063 -4.87295e-19)
(-0.0120912 0.184929 1.61595e-19)
(-0.00312251 0.195223 -3.20629e-19)
(0.00674534 0.204878 -3.18092e-19)
(0.0174691 0.213832 0)
(0.0290028 0.222028 -6.2536e-19)
(0.0412966 0.229417 0)
(0.0542959 0.235954 -6.12144e-19)
(0.0679404 0.241603 -3.02008e-19)
(0.0821655 0.246335 -5.97198e-19)
(0.0969034 0.25014 2.94454e-19)
(0.112062 0.253033 -8.7321e-19)
(0.127482 0.255106 2.86409e-19)
(0.143208 0.257015 1.34629e-21)
(0.158933 0.2605 -2.96872e-19)
(-0.00354941 0.0037572 -2.71095e-19)
(-0.0110972 0.0112293 3.67481e-20)
(-0.0193888 0.0197359 2.62828e-19)
(-0.0268998 0.0291446 3.07145e-19)
(-0.0331607 0.039275 -3.12225e-19)
(-0.0379506 0.0500449 7.61457e-22)
(-0.0412049 0.0613504 3.20038e-19)
(-0.0429361 0.0730755 -6.44999e-19)
(-0.043193 0.0851054 -8.05297e-20)
(-0.0420431 0.097325 7.33939e-19)
(-0.039557 0.109627 -4.90592e-19)
(-0.0358049 0.121911 8.18864e-19)
(-0.0308518 0.134082 8.1882e-19)
(-0.0247571 0.146049 -1.63333e-19)
(-0.0175755 0.157726 3.26187e-19)
(-0.00935703 0.169034 4.86887e-19)
(-0.000149291 0.179896 1.60797e-19)
(0.0100005 0.190239 8.97327e-22)
(0.0210437 0.199997 1.59343e-19)
(0.0329297 0.209109 1.57456e-19)
(0.0456043 0.217518 -1.54638e-19)
(0.0590088 0.225177 1.54285e-19)
(0.0730781 0.232041 -3.04181e-19)
(0.0877402 0.238072 3.01723e-19)
(0.102917 0.243236 1.29707e-21)
(0.118527 0.247511 2.92802e-19)
(0.13447 0.250886 1.3796e-21)
(0.150576 0.253405 -2.86006e-19)
(0.166885 0.255646 3.56099e-22)
(0.183231 0.259422 0)
(-0.00394499 0.00400071 0)
(-0.0117891 0.0114338 0)
(-0.02002 0.0195679 -3.37952e-19)
(-0.0272002 0.0284365 3.82319e-20)
(-0.0329248 0.037957 0)
(-0.0370226 0.0481069 3.15751e-19)
(-0.039465 0.0588194 7.98081e-20)
(-0.0402904 0.0699996 2.41779e-19)
(-0.0395665 0.081544 3.24318e-19)
(-0.0373756 0.0933423 -3.25876e-19)
(-0.0337998 0.105289 3.26841e-19)
(-0.0289187 0.117283 -3.27244e-19)
(-0.022806 0.129227 -3.27115e-19)
(-0.0155291 0.141028 0)
(-0.0071499 0.152598 0)
(0.00227455 0.163855 0)
(0.0126896 0.174721 -3.21986e-19)
(0.0240411 0.185125 4.79298e-19)
(0.0362736 0.195 -1.58376e-19)
(0.0493291 0.204284 0)
(0.0631455 0.212926 4.66233e-19)
(0.0776548 0.220877 -1.53721e-19)
(0.0927812 0.228098 3.04173e-19)
(0.10844 0.23455 -5.98587e-19)
(0.124535 0.240199 5.93059e-19)
(0.140966 0.245015 -1.09728e-21)
(0.15761 0.248969 3.03519e-22)
(0.174279 0.252046 2.84542e-19)
(0.190986 0.254721 6.2264e-22)
(0.20772 0.258817 2.93042e-19)
(-0.00435667 0.00422772 3.36454e-20)
(-0.0124727 0.0115901 -3.65553e-20)
(-0.0205847 0.01933 7.48338e-20)
(-0.0273583 0.027645 -4.57319e-19)
(-0.0324623 0.0365482 7.75127e-20)
(-0.0357808 0.0460749 0)
(-0.0373246 0.056194 3.17694e-19)
(-0.0371601 0.0668309 -3.20555e-19)
(-0.0353754 0.0778927 0)
(-0.0320687 0.0892743 4.05579e-19)
(-0.0273337 0.100872 -8.13406e-20)
(-0.0212605 0.112584 0)
(-0.0139316 0.12431 -1.63055e-19)
(-0.00542249 0.135955 3.2523e-19)
(0.00419723 0.14743 -1.61999e-19)
(0.0148634 0.15865 1.6128e-19)
(0.0265145 0.169537 -3.2056e-19)
(0.0390894 0.180017 1.04157e-22)
(0.0525261 0.190024 1.72688e-22)
(0.0667597 0.1995 -1.55611e-19)
(0.0817205 0.208394 -3.0905e-19)
(0.0973322 0.216662 7.03952e-22)
(0.113509 0.224267 1.07087e-21)
(0.130151 0.23118 2.99143e-19)
(0.147145 0.237372 -2.9412e-19)
(0.16436 0.242815 2.91423e-19)
(0.181637 0.247471 -5.73305e-19)
(0.198738 0.25128 -3.66495e-22)
(0.21561 0.254584 -5.56739e-19)
(0.23238 0.259144 2.9043e-19)
(-0.00478132 0.00443648 0)
(-0.0131364 0.0116984 -2.91044e-19)
(-0.0210618 0.0190299 0)
(-0.0273435 0.0267874 8.77442e-22)
(-0.0317331 0.0350777 7.74172e-20)
(-0.0341757 0.0439911 1.44183e-22)
(-0.0347248 0.0535303 -6.3438e-19)
(-0.0334773 0.0636392 2.4061e-19)
(-0.0305429 0.0742353 0)
(-0.0260364 0.0852184 -4.05376e-19)
(-0.0200646 0.0964866 8.11333e-20)
(-0.0127282 0.107936 0)
(-0.00411907 0.119466 -1.62612e-19)
(0.0056788 0.130979 1.62092e-19)
(0.016588 0.142382 1.6107e-19)
(0.028537 0.153589 3.21549e-19)
(0.0414571 0.16452 -1.59799e-19)
(0.0552807 0.1751 0)
(0.0699391 0.185264 0)
(0.085361 0.194954 3.12017e-19)
(0.10147 0.204121 -3.07751e-19)
(0.118184 0.212726 3.04951e-19)
(0.135407 0.220741 3.01555e-19)
(0.15303 0.228145 2.9651e-19)
(0.170921 0.234927 -2.93496e-19)
(0.188919 0.24108 2.89791e-19)
(0.206807 0.246593 2.84491e-19)
(0.224241 0.251408 -2.814e-19)
(0.240973 0.25582 1.05525e-21)
(0.257009 0.261442 5.74382e-19)
(-0.00521607 0.00462608 3.34536e-20)
(-0.0137677 0.0117601 2.54783e-19)
(-0.0214274 0.0186764 0)
(-0.027121 0.0258832 3.03924e-19)
(-0.0306917 0.0335782 0)
(-0.032151 0.0419028 0)
(-0.0315985 0.0508909 2.37692e-19)
(-0.0291635 0.0605037 -1.75259e-22)
(-0.0249793 0.0706677 8.02874e-20)
(-0.0191783 0.0812876 8.08434e-20)
(-0.0118813 0.0922622 -2.43051e-19)
(-0.00320034 0.103487 1.62033e-19)
(0.00676253 0.114858 0)
(0.0179144 0.126276 0)
(0.0301694 0.137645 -3.22701e-19)
(0.0434482 0.148875 0)
(0.0576747 0.159886 -1.59173e-19)
(0.0727742 0.170599 1.5808e-19)
(0.0886715 0.18095 1.56482e-19)
(0.105289 0.190879 -3.12844e-22)
(0.122545 0.200341 -1.5356e-19)
(0.14035 0.209298 0)
(0.158607 0.21773 -2.98864e-19)
(0.177204 0.225629 2.95917e-19)
(0.196006 0.233006 0)
(0.214847 0.2399 0)
(0.233489 0.246373 0)
(0.251522 0.252515 0)