/*--------------------------------*- C++ -*----------------------------------*\
  =========                 |
  \\      /  F ield         | OpenFOAM: The Open Source CFD Toolbox
   \\    /   O peration     | Website:  https://openfoam.org
    \\  /    A nd           | Version:  7
     \\/     M anipulation  |
\*---------------------------------------------------------------------------*/
FoamFile
{
    version     2.0;
    format      ascii;
    class       surfaceScalarField;
    location    "71";
    object      phi;
}
// * * * * * * * * * * * * * * * * * * * * * * * * * * * * * * * * * * * * * //

dimensions      [0 3 -1 0 0 0 0];

internalField   nonuniform List<scalar> 
3880
(
-2.24341e-05
-0.000676341
0.000698775
-1.3224e-05
-0.00151349
0.00150428
4.83766e-05
-0.00193001
0.00186841
0.000176145
-0.00199685
0.00186908
0.000382537
-0.00175667
0.00155028
0.000679422
-0.0012371
0.00094021
0.00107622
-0.000458813
6.20192e-05
0.00157675
0.000557557
-0.00105809
0.00217622
0.00178626
-0.00238573
0.00319311
0.00285792
-0.0038748
-1.60267e-05
-0.000660314
7.02224e-06
-0.00153654
8.44776e-05
-0.00200747
0.00022681
-0.00213918
0.000445098
-0.00197496
0.000751944
-0.00154394
0.00115942
-0.000866293
0.00167544
4.15391e-05
0.00229962
0.00116209
0.00247423
0.00301849
-3.8926e-06
-0.000656421
4.26025e-05
-0.00158303
0.000148193
-0.00211306
0.000317944
-0.00230893
0.00055978
-0.00221679
0.00088526
-0.00186942
0.0013077
-0.00128873
0.00183847
-0.000489227
0.00248204
0.000518516
0.00172641
0.00322986
1.36644e-05
-0.000670086
9.41067e-05
-0.00166347
0.00024072
-0.00225967
0.000452114
-0.00252032
0.000731559
-0.00249624
0.00108788
-0.00222574
0.00153397
-0.00173482
0.00208335
-0.00103861
0.00274519
-0.000143326
0.000954419
0.00351719
3.66022e-05
-0.000706688
0.000160626
-0.0017875
0.000360575
-0.00245962
0.000627707
-0.00278745
0.000959722
-0.00282825
0.00136145
-0.00262747
0.00184382
-0.00221718
0.002421
-0.0016158
0.00310598
-0.000828306
0.000157219
0.00390318
6.43059e-05
-0.000770994
0.000239709
-0.0019629
0.000502969
-0.00272288
0.000837573
-0.00312206
0.00123535
-0.00322603
0.00169654
-0.00308867
0.00222908
-0.00274972
0.00284647
-0.0022332
0.00356415
-0.00154598
-0.000671638
0.00439301
9.54478e-05
-0.000866442
0.000327194
-0.00219465
0.000659617
-0.00305531
0.00106848
-0.00353092
0.00154002
-0.00369756
0.00207
-0.00361865
0.00266299
-0.00334271
0.00333101
-0.00290122
0.0040908
-0.00230577
-0.00153889
0.00495806
0.000128283
-0.000994725
0.00041743
-0.00248379
0.000819104
-0.00345698
0.00130171
-0.00401353
0.00184655
-0.00424241
0.00244552
-0.00421761
0.00309993
-0.00399713
0.00381996
-0.00362124
0.00462315
-0.00310897
-0.00244444
0.0055287
0.000160722
-0.00115545
0.000503666
-0.00282674
0.000967795
-0.00392111
0.00151478
-0.00456051
0.00212193
-0.00484957
0.00277815
-0.00487383
0.0034818
-0.00470078
0.00424036
-0.0043798
0.00507149
-0.0039401
-0.00337563
0.00600268
0.000190457
-0.0013459
0.000578563
-0.00321484
0.00109107
-0.00443361
0.00168387
-0.00515331
0.00233164
-0.00549734
0.00302172
-0.00556391
0.00375048
-0.00542954
0.00452166
-0.00515098
0.00534778
-0.00476621
0.00627534
-0.00430318
0.0047355
0.0241851
-0.0260627
0.00606474
0.0486504
-0.0499796
0.00632107
0.0706362
-0.0708925
0.00593217
0.0904532
-0.0900643
0.0052081
0.110686
-0.109962
0.00425928
0.132713
-0.131765
0.00314271
0.157387
-0.15627
0.00185366
0.187772
-0.186483
0.000683967
0.230926
-0.229756
0.282551
-0.281867
0.00510741
0.0220962
0.00685466
0.0469031
0.00742642
0.0700645
0.00721785
0.0906618
0.00657111
0.111333
0.0056071
0.133677
0.00438254
0.158611
0.00289196
0.189263
0.00132527
0.232493
0.283877
0.00543625
0.0198898
0.00759098
0.0447484
0.00850325
0.0691522
0.00849533
0.0906697
0.0079352
0.111893
0.00695889
0.134654
0.0056263
0.159944
0.00393076
0.190958
0.00196958
0.234454
0.285846
0.00572538
0.0176816
0.00824461
0.0422292
0.00952066
0.0678761
0.00973694
0.0904534
0.00927725
0.112352
0.00829688
0.135634
0.00686033
0.161381
0.00496228
0.192856
0.00260742
0.236809
0.288454
0.00599119
0.0155936
0.00879124
0.0394291
0.0104489
0.0662185
0.0109157
0.0899866
0.0105744
0.112694
0.00960198
0.136607
0.00807029
0.162912
0.00597467
0.194952
0.00323391
0.23955
0.291688
0.00625547
0.0137312
0.00921649
0.0364681
0.0112608
0.0641742
0.0120053
0.0892421
0.0118034
0.112896
0.0108537
0.137556
0.00923953
0.164526
0.00695642
0.197235
0.00384213
0.242664
0.29553
0.00653194
0.0121573
0.00951843
0.0334816
0.0119339
0.0617588
0.0129829
0.088193
0.012948
0.112931
0.012041
0.138463
0.01036
0.166207
0.00790074
0.199694
0.00442983
0.246135
0.29996
0.00680601
0.01088
0.00969993
0.0305877
0.0124506
0.0590081
0.0138212
0.0868224
0.0139751
0.112777
0.0131303
0.139308
0.0114036
0.167934
0.00879056
0.202307
0.00498636
0.249939
0.304946
0.00701424
0.0098684
0.00975571
0.0278462
0.0128003
0.0559636
0.0145305
0.0850922
0.0149161
0.112391
0.0141553
0.140069
0.0123969
0.169693
0.00963607
0.205068
0.00551659
0.254058
0.310462
0.00711478
0.00902896
0.00974098
0.02522
0.0129508
0.0527537
0.0149985
0.0830446
0.0156459
0.111744
0.0150123
0.140702
0.0132918
0.171413
0.0103979
0.207962
0.00604022
0.258416
0.316503
0.0191779
0.015637
-0.025786
0.0148591
0.0295388
0.0137064
0.0539065
0.0127611
0.0839898
0.0111753
0.11333
0.00906612
0.142812
0.00647442
0.174005
0.00340327
0.211033
0.000695131
0.261124
0.317198
0.0205644
0.0207954
-0.0257229
0.015298
0.0348052
0.0130289
0.0561756
0.0119408
0.0850779
0.010452
0.114818
0.00845732
0.144806
0.00597814
0.176484
0.00308589
0.213925
0.000587871
0.263622
0.317786
0.0209263
0.0241002
-0.0242311
0.0159772
0.0397543
0.0128501
0.0593027
0.0112784
0.0866497
0.0096857
0.116411
0.00772541
0.146767
0.00539021
0.178819
0.00270359
0.216612
0.000458153
0.265868
0.318244
0.0202602
0.0259581
-0.0221181
0.0161755
0.043839
0.012747
0.0627312
0.0108352
0.0885615
0.00922843
0.118018
0.00737361
0.148621
0.00512204
0.181071
0.00257422
0.21916
0.000450499
0.267991
0.318694
0.0190542
0.0266787
-0.0197748
0.0159335
0.0469596
0.0126488
0.0660159
0.0104794
0.0907308
0.00869604
0.119801
0.00683623
0.150481
0.0047093
0.183198
0.00232841
0.221541
0.000369678
0.26995
0.319064
0.0174226
0.0263572
-0.0171011
0.0152565
0.0491258
0.0122638
0.0690086
0.0101916
0.0928031
0.00855597
0.121437
0.00675578
0.152281
0.00463788
0.185315
0.00232239
0.223856
0.000419192
0.271853
0.319483
0.0155636
0.0250017
-0.0142082
0.0145469
0.0501426
0.0119917
0.0715638
0.00975575
0.0950391
0.0080391
0.123153
0.00633153
0.153989
0.00436244
0.187285
0.00216707
0.226051
0.000376701
0.273644
0.31986
0.013338
0.0228007
-0.0111369
0.0133231
0.0501575
0.0115808
0.073306
0.00975606
0.0968638
0.00814984
0.12476
0.00641705
0.155722
0.00440605
0.189296
0.00224743
0.22821
0.000472148
0.275419
0.320332
0.0117763
0.0196224
-0.00859799
0.0127775
0.0491563
0.011381
0.0747026
0.0094031
0.0988416
0.00775408
0.126409
0.00613672
0.157339
0.00423541
0.191197
0.00215898
0.230286
0.000448745
0.277129
0.320781
0.00899704
-0.00508874
0.0115762
0.0116345
0.0101021
0.00830094
0.00644162
0.00445949
0.00229752
0.000597503
0.00698847
-0.0264588
-0.00631565
0.00691425
-0.0256486
0.00639384
-0.0237107
0.00568185
-0.0214061
0.00484879
-0.0189417
0.00391881
-0.0161711
0.00290632
-0.0131957
0.00187483
-0.0101054
0.000661671
-0.00738483
-0.00410804
0.00616218
-0.0266662
-0.00595482
0.00572301
-0.0252095
0.00497612
-0.0229638
0.00410349
-0.0205334
0.00314514
-0.0179834
0.00211982
-0.0151458
0.0010415
-0.0121174
-8.56141e-06
-0.00905538
-0.00121865
-0.00617474
-0.00318819
0.00508529
-0.0264709
-0.0052806
0.00434204
-0.0244662
0.0034161
-0.0220379
0.00241133
-0.0195287
0.00135363
-0.0169256
0.000260602
-0.0140528
-0.000846698
-0.0110101
-0.00192392
-0.00797816
-0.00301993
-0.00507873
-0.00236687
0.00375028
-0.0259406
-0.00428055
0.00277473
-0.0234907
0.00171814
-0.0209813
0.000619215
-0.0184297
-0.000499833
-0.0158066
-0.0016208
-0.0129318
-0.0027197
-0.00991121
-0.00375709
-0.00694077
-0.00473058
-0.00410525
-0.00168013
0.00217967
-0.0251326
-0.00298763
0.00104097
-0.022352
-0.000101747
-0.0198386
-0.00124367
-0.0172878
-0.00238203
-0.0146682
-0.00349302
-0.0118208
-0.004543
-0.00886123
-0.00549773
-0.00598604
-0.00632434
-0.00327864
-0.00114069
0.000431925
-0.0241023
-0.00146223
-0.000807596
-0.0211124
-0.00198035
-0.0186658
-0.00313806
-0.0161301
-0.00425564
-0.0135507
-0.00531508
-0.0107614
-0.00628124
-0.00789506
-0.00712131
-0.00514598
-0.00778899
-0.00261096
-0.00074686
-0.00142296
-0.0229081
0.000228694
-0.00270939
-0.019826
-0.00388075
-0.0174945
-0.00501008
-0.0150008
-0.00607208
-0.0124887
-0.00704814
-0.00978535
-0.00790457
-0.00703864
-0.00861067
-0.00443987
-0.00912016
-0.00210147
-0.000486825
-0.00331242
-0.0215753
0.00197966
-0.00459781
-0.0185406
-0.00573611
-0.0163562
-0.0068076
-0.0139293
-0.00778788
-0.0115084
-0.00865847
-0.00891476
-0.00939043
-0.00630667
-0.00995647
-0.00387383
-0.0103192
-0.00173875
-0.000342405
-0.0051584
-0.0201684
0.00375153
-0.00640958
-0.0172894
-0.00749222
-0.0152735
-0.00848431
-0.0129372
-0.00936658
-0.0106261
-0.0101203
-0.008161
-0.0107245
-0.00570248
-0.0111562
-0.00344216
-0.0113914
-0.00150357
-0.000292089
-0.00689677
-0.0187359
0.00546422
-0.00809077
-0.0160954
-0.00910355
-0.0142608
-0.0100032
-0.0120375
-0.0107811
-0.00984818
-0.0114172
-0.00752498
-0.0119005
-0.00521912
-0.0122127
-0.00312993
-0.0123443
-0.00137205
-0.000313228
-0.00847571
-0.0173178
0.00705759
-0.0095987
-0.0149725
-0.0105357
-0.0133237
-0.0113381
-0.0112351
-0.0120147
-0.00917158
-0.0125412
-0.00699852
-0.0129187
-0.00484157
-0.0131327
-0.00291599
-0.0131865
-0.00131825
-0.000383388
-0.00986453
-0.0159447
0.00849149
-0.0109067
-0.0139303
-0.0117685
-0.0124619
-0.0124759
-0.0105277
-0.0130611
-0.00858637
-0.013493
-0.00656667
-0.0137849
-0.00454962
-0.013925
-0.00277586
-0.013927
-0.0013163
-0.000481025
-0.0110414
-0.0146392
0.00973585
-0.0119982
-0.0129735
-0.0127911
-0.0116691
-0.0134122
-0.00990661
-0.0139212
-0.0080773
-0.0142784
-0.00620956
-0.0145079
-0.00432008
-0.0145999
-0.00268389
-0.0145748
-0.00134141
-0.000585736
-0.0119985
-0.0134144
0.0107738
-0.0128695
-0.0121026
-0.0136037
-0.0109349
-0.0141518
-0.00935842
-0.0146028
-0.0076263
-0.0149078
-0.00590459
-0.015099
-0.00412888
-0.0151681
-0.00261479
-0.0151389
-0.00137057
-0.000678309
-0.0127393
-0.012273
0.0115979
-0.0135263
-0.0113156
-0.0142139
-0.0102472
-0.0147063
-0.00886601
-0.0151181
-0.0072145
-0.0153945
-0.00562822
-0.0155708
-0.00395262
-0.0156409
-0.00254466
-0.0156288
-0.0013827
-0.00074062
-0.013275
-0.0112047
0.0122067
-0.0139828
-0.0106078
-0.0146352
-0.00959482
-0.0150915
-0.00840976
-0.0154822
-0.00682382
-0.0157531
-0.00535727
-0.0159364
-0.00376937
-0.0160296
-0.00245138
-0.0160538
-0.00135851
-0.000755514
-0.0136211
-0.0101848
0.0126012
-0.0142591
-0.00996974
-0.0148841
-0.00896987
-0.0153254
-0.00796851
-0.0157113
-0.00643783
-0.0159987
-0.00506992
-0.016209
-0.00355907
-0.0163457
-0.00231472
-0.0164239
-0.00128029
-0.000706666
-0.0137846
-0.00918274
0.0127826
-0.0143722
-0.00938217
-0.0149747
-0.00836741
-0.015424
-0.00751921
-0.0158211
-0.00604071
-0.0161453
-0.00474566
-0.0164013
-0.0033031
-0.0166
-0.00211605
-0.0167489
-0.00113141
-0.000578415
-0.0137626
-0.00817966
0.0127595
-0.0143393
-0.0088055
-0.014923
-0.00778364
-0.0154034
-0.00703878
-0.0158272
-0.0056169
-0.0162071
-0.00436583
-0.0165258
-0.0029844
-0.0168035
-0.00183833
-0.0170387
-0.000896197
-0.000355537
-0.0136103
-0.00714874
0.0125794
-0.0142219
-0.00819396
-0.014767
-0.00723851
-0.0152837
-0.00652206
-0.0157452
-0.00515537
-0.0161936
-0.00391752
-0.0165919
-0.00258603
-0.0169653
-0.00146492
-0.0173048
-0.000556703
-2.44399e-05
-0.0600666
-0.00673072
0.0596486
-0.0617688
-0.00649172
-0.0634321
-0.00557524
-0.0651014
-0.00485278
-0.066448
-0.00380871
-0.0675187
-0.00284687
-0.0682252
-0.00187951
-0.0686288
-0.00106135
-0.068769
-0.000416482
-3.05991e-05
-0.0704463
-0.00640341
0.070119
-0.0714525
-0.00548547
-0.0723914
-0.00463639
-0.0734376
-0.00380662
-0.0742756
-0.00297062
-0.07495
-0.00217255
-0.0753812
-0.00144823
-0.0756161
-0.000826457
-0.0756831
-0.000349549
-3.81898e-05
-0.0825708
-0.00629006
0.0824575
-0.0830741
-0.00498222
-0.0836173
-0.00409314
-0.0842458
-0.00317817
-0.0847544
-0.00246206
-0.0851754
-0.00175153
-0.0854287
-0.0011949
-0.0855608
-0.000694345
-0.0855833
-0.000327112
-4.20145e-05
-0.097652
-0.0062412
0.0976031
-0.0979867
-0.00464746
-0.0983168
-0.00376304
-0.0987254
-0.00276966
-0.0990373
-0.00215016
-0.0993141
-0.00147469
-0.0994676
-0.00104136
-0.0995587
-0.000603231
-0.0995679
-0.000317926
-3.98814e-05
-0.116258
-0.00596752
0.115984
-0.116616
-0.00428982
-0.116915
-0.00346353
-0.117257
-0.00242735
-0.117503
-0.00190413
-0.117736
-0.00124167
-0.117871
-0.000906667
-0.117977
-0.000497346
-0.118014
-0.000281263
-1.97068e-05
-0.137513
-0.00535266
0.136898
-0.13804
-0.00376214
-0.138464
-0.00304019
-0.138846
-0.00204475
-0.139131
-0.00161902
-0.139384
-0.000989342
-0.139556
-0.000734213
-0.139714
-0.000339371
-0.1398
-0.000194907
1.46222e-05
-0.158981
-0.00435937
0.157988
-0.159732
-0.00301103
-0.160347
-0.00242527
-0.16081
-0.00158128
-0.161177
-0.00125263
-0.161458
-0.000707816
-0.161681
-0.000511347
-0.161861
-0.000159488
-0.161974
-8.23675e-05
4.80957e-05
-0.17743
-0.00304611
0.176117
-0.178361
-0.00208037
-0.179117
-0.00166915
-0.179634
-0.00106456
-0.180051
-0.00083591
-0.180325
-0.000432966
-0.180546
-0.000290388
-0.180681
-2.50822e-05
-0.180762
-1.38396e-06
5.7238e-05
-0.190347
-0.00157412
0.188875
-0.19138
-0.00104767
-0.192215
-0.000834154
-0.192756
-0.000523188
-0.193181
-0.000411096
-0.193416
-0.000197685
-0.193584
-0.000122556
-0.193629
1.99809e-05
-0.193653
2.23969e-05
3.76509e-05
-0.196943
0.195369
-0.197991
-0.198825
-0.199348
-0.199759
-0.199957
-0.200079
-0.200059
-0.200037
-0.0138434
0.0607123
0.0127797
-0.0144953
0.0707709
-0.0149915
0.0829537
-0.0152276
0.0978392
-0.0149839
0.115741
-0.0139294
0.135843
-0.0118028
0.155861
-0.00858457
0.172899
-0.00452583
0.184816
0.190843
-0.0130853
0.0614456
0.012352
-0.0136916
0.0713772
-0.014127
0.0833891
-0.0142763
0.0979885
-0.0139475
0.115412
-0.0128572
0.134753
-0.0108047
0.153809
-0.00780763
0.169902
-0.00409677
0.181105
0.186746
-0.0123873
0.0621031
0.0117298
-0.012929
0.0719189
-0.013292
0.0837521
-0.0133725
0.098069
-0.0129944
0.115034
-0.0119123
0.133671
-0.00996261
0.151859
-0.00717414
0.167113
-0.00375567
0.177687
0.182991
-0.0115895
0.0627356
0.010957
-0.0120724
0.0724018
-0.0123558
0.0840355
-0.012365
0.0980782
-0.011945
0.114614
-0.0108866
0.132612
-0.0090598
0.150032
-0.00650057
0.164554
-0.00339527
0.174581
0.179595
-0.0106706
0.0633377
0.0100685
-0.0111014
0.0728326
-0.0113151
0.0842491
-0.0112645
0.0980276
-0.010818
0.114167
-0.00980187
0.131596
-0.0081159
0.148346
-0.00580091
0.162239
-0.00302236
0.171803
0.176573
-0.00965143
0.0638985
0.00909064
-0.0100227
0.0732039
-0.0101714
0.0843978
-0.010073
0.0979292
-0.00961723
0.113711
-0.00866368
0.130643
-0.00713761
0.14682
-0.00508174
0.160183
-0.00264075
0.169362
0.173932
-0.00855404
0.0644081
0.00804439
-0.00885887
0.0735087
-0.00894271
0.0844817
-0.00880435
0.0977908
-0.00835311
0.11326
-0.00747983
0.129769
-0.00613072
0.145471
-0.00434732
0.1584
-0.00225277
0.167267
0.171679
-0.00739572
0.064854
0.00694985
-0.00763188
0.0737449
-0.00765176
0.0845015
-0.00747979
0.0976189
-0.00704367
0.112824
-0.00626408
0.12899
-0.00510456
0.144311
-0.0036032
0.156898
-0.00186097
0.165525
0.169818
-0.0061949
0.0652207
0.00582817
-0.00636309
0.0739131
-0.00632045
0.0844589
-0.00612125
0.0974197
-0.00570854
0.112411
-0.00503239
0.128314
-0.00407053
0.14335
-0.00285628
0.155684
-0.00146859
0.164137
0.16835
-0.00497082
0.0654901
0.00470148
-0.00507531
0.0740176
-0.00496972
0.0843533
-0.00474969
0.0971996
-0.00436617
0.112028
-0.00380018
0.127748
-0.0030401
0.142589
-0.00211397
0.154758
-0.00107929
0.163103
0.167271
-0.00375574
0.0656483
0.00359748
-0.00379713
0.0740589
-0.0036265
0.0841827
-0.00338973
0.0969629
-0.0030375
0.111676
-0.0025847
0.127295
-0.00202633
0.142031
-0.0013847
0.154116
-0.00069728
0.162415
0.166573
-0.00257769
0.0656968
0.00252921
-0.00254677
0.074028
-0.00231812
0.083954
-0.00206286
0.0967076
-0.00174332
0.111356
-0.00139956
0.126951
-0.00103807
0.14167
-0.000675849
0.153754
-0.000326109
0.162066
0.166247
-0.00147299
0.0656506
0.00151918
-0.00135432
0.0739094
-0.00108241
0.0836821
-0.000805222
0.0964304
-0.000522646
0.111073
-0.000283848
0.126712
-0.000112794
0.141499
-1.90882e-05
0.153661
1.62383e-05
0.16203
0.166263
-0.00047584
0.0655499
0.00057658
-0.000249827
0.0736833
1.78487e-05
0.0834144
0.000373286
0.096075
0.000644523
0.110802
0.000798809
0.126558
0.000799279
0.141498
0.000643602
0.153816
0.000362452
0.162311
0.166626
0.000463448
0.0653833
-0.000296835
0.000807595
0.0733392
0.00117121
0.0830508
0.00151475
0.0957314
0.00175719
0.11056
0.00181913
0.126496
0.00165156
0.141666
0.00125532
0.154212
0.000681376
0.162885
0.167307
0.00135622
0.0651165
-0.00108942
0.00177397
0.0729215
0.00217792
0.0826469
0.00254577
0.0953636
0.00277006
0.110336
0.00275378
0.126512
0.0024349
0.141985
0.00181821
0.154829
0.000973938
0.16373
0.168281
0.0021329
0.0647979
-0.00181437
0.00263431
0.07242
0.00307673
0.0822044
0.00347032
0.09497
0.00368486
0.110121
0.00360455
0.126593
0.00315226
0.142437
0.00233512
0.155646
0.00124198
0.164823
0.169523
0.0028075
0.0644704
-0.00247995
0.00338452
0.071843
0.00385802
0.0817309
0.00427112
0.0945569
0.00447716
0.109915
0.00434327
0.126727
0.00377671
0.143003
0.00278524
0.156638
0.00147369
0.166134
0.170997
0.0034196
0.0641625
-0.00311175
0.00405878
0.0712038
0.0045633
0.0812264
0.00499622
0.094124
0.00520095
0.10971
0.00502411
0.126903
0.00435468
0.143673
0.00320131
0.157791
0.00168671
0.167649
0.172684
0.00381783
0.064062
-0.00371732
0.00447597
0.0705457
0.00501112
0.0806913
0.00545418
0.0936809
0.00565859
0.109506
0.00546038
0.127102
0.00473076
0.144402
0.00347347
0.159048
0.00182095
0.169301
0.174504
-0.0442073
0.0586545
0.0496148
-0.039833
0.0661714
-0.0369224
0.0777807
-0.0339315
0.0906901
-0.030521
0.106095
-0.0262499
0.12283
-0.0208886
0.139041
-0.0145171
0.152677
-0.00742296
0.162207
0.167082
-0.053683
0.0541659
0.0581716
-0.0498342
0.0623226
-0.0463199
0.0742664
-0.0423816
0.0867518
-0.0379708
0.101684
-0.0324939
0.117354
-0.0257647
0.132312
-0.0178961
0.144808
-0.0092141
0.153525
0.157867
-0.0647025
0.0497668
0.0691016
-0.0607471
0.0583671
-0.0564535
0.0699728
-0.0515743
0.0818726
-0.0459685
0.0960786
-0.038989
0.110374
-0.0306566
0.123979
-0.0211126
0.135264
-0.0106948
0.143108
0.147173
-0.0780644
0.0456139
0.0822173
-0.0734939
0.0537966
-0.0683025
0.0647815
-0.0623896
0.0759597
-0.0553564
0.0890455
-0.0466298
0.101647
-0.0364682
0.113818
-0.0250582
0.123854
-0.0128371
0.130886
0.134336
-0.09292
0.0407209
0.097813
-0.0875216
0.0483982
-0.0812366
0.0584965
-0.0737772
0.0685002
-0.0647131
0.0799814
-0.0538288
0.0907631
-0.0415733
0.101562
-0.0280918
0.110373
-0.0139659
0.116761
0.12037
-0.110332
0.0357392
0.115313
-0.103742
0.0418089
-0.096052
0.0508062
-0.0866531
0.0591012
-0.0754465
0.0687749
-0.0624798
0.0777964
-0.0480404
0.0871231
-0.032411
0.0947434
-0.016481
0.100831
0.103889
-0.127141
0.0289402
0.13394
-0.119169
0.0338369
-0.10959
0.0412274
-0.0977756
0.0472865
-0.0841363
0.0551355
-0.0685479
0.0622079
-0.0512872
0.0698623
-0.0329324
0.0763886
-0.0150321
0.0829303
0.0888565
-0.145166
0.0220724
0.152034
-0.135855
0.0245254
-0.124573
0.0299458
-0.111111
0.0338243
-0.0957918
0.0398164
-0.0782525
0.0446686
-0.0591301
0.0507399
-0.0392186
0.0564771
-0.0206474
0.0643592
0.068209
-0.159321
0.0106226
0.170771
-0.146996
0.0121997
-0.132101
0.0150509
-0.115294
0.0170173
-0.0958288
0.0203513
-0.0741446
0.0229844
-0.0501872
0.0267824
-0.0247828
0.0310727
-0.000468432
0.0400448
0.0677406
-0.253244
0.263867
-0.241044
-0.225994
-0.208976
-0.188625
-0.165641
-0.138858
-0.107785
-0.0677406
0.0017046
0.0513388
-0.00342862
0.000110985
0.0597652
-0.000930531
0.0701431
-0.00175243
0.0830392
-0.00227069
0.0983313
-0.00246192
0.115505
-0.00223247
0.133711
-0.00171784
0.15152
-0.00200658
0.17106
0.26186
0.00210529
0.0530336
-0.00380012
0.000603314
0.0612672
-0.000552496
0.071299
-0.00141511
0.0839018
-0.00198346
0.0988996
-0.00220809
0.115729
-0.00206078
0.133563
-0.00158905
0.151048
-0.00179164
0.171263
0.260069
0.00259103
0.05462
-0.00417743
0.00114144
0.0627168
-3.79662e-05
0.0724784
-0.00088163
0.0847455
-0.00147461
0.0994926
-0.00174212
0.115997
-0.00168412
0.133505
-0.00131352
0.150677
-0.00157928
0.171528
0.258489
0.00307042
0.0561079
-0.00455829
0.00167509
0.0641122
0.000559905
0.0735935
-0.000312159
0.0856175
-0.000880858
0.100061
-0.00119463
0.116311
-0.0012009
0.133512
-0.000971099
0.150447
-0.00130349
0.171861
0.257186
0.00353883
0.0575011
-0.00493207
0.00221728
0.0654337
0.00116348
0.0746473
0.00031269
0.0864683
-0.000254878
0.100629
-0.000602515
0.116658
-0.000659875
0.133569
-0.000577949
0.150365
-0.000980404
0.172263
0.256205
0.00401773
0.0587714
-0.00528797
0.00279411
0.0666573
0.00180904
0.0756324
0.00102315
0.0872542
0.00045274
0.101199
2.23067e-05
0.117089
-3.98607e-05
0.133631
-0.000146292
0.150472
-0.000616947
0.172734
0.255588
0.00450673
0.0598829
-0.00561829
0.00340426
0.0677598
0.0024985
0.0765382
0.00177247
0.0879802
0.00122362
0.101748
0.000817383
0.117495
0.000599519
0.133849
0.000392444
0.150679
-0.000211423
0.173338
0.255377
0.00499746
0.0608015
-0.00591606
0.00403621
0.068721
0.00322082
0.0773536
0.00256135
0.0886397
0.00203684
0.102273
0.00161645
0.117915
0.00130439
0.134161
0.000971232
0.151012
0.000209969
0.174099
0.255587
0.00548385
0.0614906
-0.00617297
0.00467788
0.069527
0.00396341
0.078068
0.00337886
0.0892243
0.00288534
0.102766
0.00244974
0.118351
0.00204971
0.134561
0.0015734
0.151488
0.000644161
0.175028
0.256231
0.00595395
0.0619154
-0.00637874
0.00531655
0.0701644
0.00471401
0.0786706
0.00421211
0.0897262
0.00375908
0.103219
0.00330946
0.1188
0.00282258
0.135048
0.00219997
0.152111
0.00110426
0.176124
0.257335
0.00638769
0.0620461
-0.00651832
0.00593341
0.0706187
0.00545564
0.0791483
0.00504262
0.0901392
0.00463785
0.103624
0.00417876
0.11926
0.00360922
0.135617
0.00284199
0.152878
0.00157741
0.177389
0.258913
0.00677673
0.0618621
-0.0065928
0.00652069
0.0708747
0.00617915
0.0794899
0.00586202
0.0904563
0.0055125
0.103973
0.00505047
0.119722
0.00440398
0.136264
0.00349524
0.153787
0.00205953
0.178824
0.260972
0.00710105
0.0613569
-0.00659581
0.00705727
0.0709185
0.00686137
0.0796858
0.00664736
0.0906703
0.00636077
0.10426
0.00590531
0.120177
0.00519062
0.136979
0.00414771
0.15483
0.00254318
0.180429
0.263515
0.00734798
0.0605382
-0.00652932
0.00752808
0.0707384
0.0074849
0.0797289
0.00737986
0.0907754
0.00716454
0.104475
0.00672669
0.120615
0.00595505
0.13775
0.00478894
0.155996
0.00302114
0.182197
0.266537
0.0075068
0.059432
-0.0064006
0.00791943
0.0703258
0.00803338
0.079615
0.00804179
0.090767
0.00790725
0.10461
0.00749889
0.121023
0.00668498
0.138564
0.00540997
0.157271
0.00348803
0.184119
0.270025
0.0075703
0.0580858
-0.0062241
0.00821975
0.0696763
0.0084912
0.0793436
0.00861649
0.0906417
0.0085713
0.104655
0.00820389
0.121391
0.0073649
0.139403
0.0059985
0.158637
0.00393403
0.186183
0.273959
0.0075414
0.0565667
-0.00602228
0.00842214
0.0687956
0.00884904
0.0789166
0.00909357
0.0903971
0.00914533
0.104603
0.00883377
0.121702
0.00799016
0.140247
0.00655133
0.160076
0.00435684
0.188378
0.278316
0.00743298
0.0549562
-0.00582249
0.00852124
0.0677073
0.0090947
0.0783432
0.0094534
0.0900384
0.00960319
0.104454
0.00935761
0.121948
0.00852955
0.141075
0.00704667
0.161559
0.00473971
0.190684
0.283055
0.0072694
0.0533271
-0.00564029
0.00854322
0.0664335
0.00926199
0.0776244
0.00973415
0.0895663
0.00998609
0.104202
0.00981752
0.122116
0.00901789
0.141875
0.00750719
0.16307
0.0050927
0.193099
0.288148
0.00698125
0.0517392
-0.00539335
0.00830872
0.065106
0.00917716
0.076756
0.00975734
0.0889861
0.0101187
0.10384
0.010045
0.12219
0.00932598
0.142594
0.00782668
0.164569
0.00539816
0.195528
0.293546
-0.0259069
0.049801
0.0278452
-0.0223622
0.0615614
-0.0187778
0.0731715
-0.0150886
0.0852969
-0.0114374
0.100189
-0.00759983
0.118353
-0.0036085
0.138602
-0.000269891
0.161231
0.000599642
0.194658
0.294146
-0.0406166
0.046686
0.0437315
-0.0365146
0.0574594
-0.031695
0.0683519
-0.0265219
0.0801239
-0.021196
0.094863
-0.0153849
0.112541
-0.00919992
0.132417
-0.00360266
0.155633
-0.00115656
0.192212
0.292989
-0.0565911
0.0429579
0.0603192
-0.0514988
0.0523671
-0.0454177
0.0622707
-0.0388879
0.0735941
-0.0319262
0.0879014
-0.0239903
0.104606
-0.0154345
0.123861
-0.00748013
0.147679
-0.00272504
0.187457
0.290264
-0.074182
0.0386277
0.0785122
-0.0678357
0.0460208
-0.0607019
0.055137
-0.0528869
0.0657792
-0.0440356
0.07905
-0.0336948
0.0942647
-0.0225631
0.11273
-0.0120286
0.137144
-0.00471362
0.180142
0.285551
-0.0938263
0.0330336
0.0994205
-0.0865803
0.0387748
-0.0786447
0.0472013
-0.069222
0.0563565
-0.0581351
0.0679631
-0.0452638
0.0813935
-0.0314133
0.0988793
-0.0178935
0.123625
-0.00736818
0.169616
0.278182
-0.116508
0.0271628
0.122378
-0.108293
0.0305603
-0.0990657
0.037974
-0.0876697
0.0449605
-0.0744376
0.054731
-0.0592941
0.06625
-0.0428236
0.0824088
-0.0262147
0.107016
-0.0119756
0.155377
0.266207
-0.141832
0.0193449
0.14965
-0.133174
0.0219025
-0.122877
0.0276767
-0.110218
0.032302
-0.0957352
0.040248
-0.0787707
0.0492855
-0.0602119
0.06385
-0.0403771
0.087181
-0.0205839
0.135584
0.245623
-0.173743
0.0114846
0.181603
-0.16434
0.0124996
-0.153038
0.016375
-0.139826
0.0190896
-0.124444
0.0248661
-0.106571
0.0314123
-0.086575
0.0438543
-0.0644069
0.0650129
-0.0378457
0.109023
0.207777
-0.227125
0.0038085
0.234801
-0.219082
0.00445679
-0.208896
0.00618897
-0.197591
0.00778434
-0.183668
0.0109432
-0.167426
0.0151699
-0.146854
0.0232823
-0.119031
0.0371898
-0.0752122
0.0652044
0.132565
-0.302785
0.306593
-0.298328
-0.292139
-0.284355
-0.273411
-0.258241
-0.234959
-0.197769
-0.132565
0.00251941
0.0291272
-0.00380141
0.000460415
0.0457905
-0.00137975
0.0621594
-0.00297748
0.08011
-0.00423797
0.100681
-0.00520985
0.12335
-0.00563387
0.150074
-0.00578862
0.181758
-0.0043579
0.233371
0.302235
0.00237093
0.0300468
-0.00329058
0.000639386
0.0475221
-0.00111135
0.0639101
-0.00267976
0.0816784
-0.0039504
0.101952
-0.00491349
0.124313
-0.00538284
0.150543
-0.00555133
0.181926
-0.00420571
0.232025
0.29803
0.00236305
0.0306217
-0.00293796
0.000940203
0.0489449
-0.000658341
0.0655086
-0.0021274
0.0831474
-0.00335587
0.10318
-0.00429804
0.125255
-0.00481889
0.151064
-0.00498702
0.182094
-0.0038431
0.230881
0.294186
0.00244176
0.0308901
-0.00271014
0.00131009
0.0500766
-0.000141052
0.0669598
-0.0014706
0.084477
-0.00262539
0.104335
-0.00355579
0.126186
-0.0041144
0.151622
-0.00434663
0.182327
-0.00341162
0.229946
0.290775
0.00259545
0.0308698
-0.00257516
0.00176604
0.050906
0.000529284
0.0681965
-0.00072868
0.0857349
-0.00180448
0.105411
-0.00272041
0.127102
-0.0033249
0.152227
-0.00364258
0.182644
-0.00292686
0.22923
0.287848
0.00283246
0.0305505
-0.00251308
0.00231917
0.0514193
0.00130168
0.069214
0.000111723
0.0869249
-0.000874452
0.106397
-0.00178597
0.128013
-0.00244769
0.152889
-0.00287094
0.183068
-0.00239796
0.228757
0.28545
0.00314427
0.0299157
-0.0025095
0.00296184
0.0516017
0.00217123
0.0700046
0.00116085
0.0879353
0.000172163
0.107386
-0.000756431
0.128942
-0.00146855
0.153601
-0.00203286
0.183632
-0.00183131
0.228556
0.283619
0.00351287
0.0289544
-0.00255162
0.00367883
0.0514358
0.0031264
0.0705571
0.00226364
0.088798
0.0013431
0.108306
0.000383444
0.129902
-0.000376801
0.154361
-0.00114046
0.184396
-0.0012305
0.228646
0.282388
0.00391726
0.0276653
-0.00262813
0.00445105
0.050902
0.00414962
0.0708585
0.00343722
0.0895104
0.00257687
0.109166
0.0016481
0.13083
0.000750767
0.155258
-0.000225846
0.185372
-0.000596171
0.229016
0.281792
0.00433369
-0.00273111
0.00525605
0.00522201
0.00466815
0.00387269
0.0029384
0.00192643
0.000815658
7.53721e-05
0.000215855
-0.00156176
0.000635418
-0.00363441
0.0011746
-0.00497279
0.00178524
-0.00576395
0.00244133
-0.00615343
0.00313098
-0.00625356
0.00385138
-0.00614995
0.00460727
-0.00590687
0.00541563
-0.00557457
-0.00520321
0.000231024
-0.00179278
0.000662809
-0.00406619
0.0012022
-0.00551218
0.00179839
-0.00636014
0.00242615
-0.0067812
0.00307594
-0.00690334
0.00374743
-0.00682143
0.00444597
-0.00660542
0.00518028
-0.00630887
-0.00597776
0.00023609
-0.00202887
0.000658125
-0.00448823
0.00116712
-0.00602118
0.00171211
-0.00690513
0.00227058
-0.00733967
0.00283676
-0.00746953
0.00341394
-0.00739861
0.00400958
-0.00720105
0.00463105
-0.00693035
-0.0066273
0.000229165
-0.00225804
0.000617253
-0.00487632
0.00106391
-0.00646784
0.00152109
-0.0073623
0.00197104
-0.00778962
0.00241302
-0.00791151
0.00285473
-0.00784033
0.00330696
-0.00765328
0.0037798
-0.00740318
-0.00712806
0.000208987
-0.00246702
0.000538337
-0.00520567
0.000891963
-0.00682146
0.0012282
-0.00769854
0.00153604
-0.00809746
0.00182064
-0.00819611
0.00209437
-0.00811406
0.00237145
-0.00793036
0.00266521
-0.00769694
-0.00745047
0.000175055
-0.00264208
0.000422009
-0.00545262
0.000655501
-0.00705495
0.000843779
-0.00788681
0.000984127
-0.0082378
0.0010879
-0.00829989
0.00117163
-0.00819779
0.00125194
-0.00801067
0.00134316
-0.00778816
-0.00756954
0.000127736
-0.00276982
0.000271372
-0.00559626
0.000363073
-0.00714665
0.000384102
-0.00790784
0.000340924
-0.00819463
0.000250682
-0.00820965
0.000132988
-0.00808009
6.20468e-06
-0.00788389
-0.000114673
-0.00766728
-0.00745552
6.83444e-05
-0.00283816
9.17189e-05
-0.00561963
2.65977e-05
-0.00708153
-0.000130604
-0.00775064
-0.000364142
-0.00796109
-0.000652087
-0.0079217
-0.000973146
-0.00775903
-0.00130998
-0.00754706
-0.00165013
-0.00732712
-0.00712599
-2.33803e-06
-0.00283582
-0.000109826
-0.00551214
-0.000339766
-0.00685159
-0.000678171
-0.00741224
-0.00110071
-0.00753855
-0.00158214
-0.00744027
-0.00210112
-0.00724006
-0.00264192
-0.00700626
-0.00319389
-0.00677515
-0.00656836
-7.86008e-05
-0.00275722
-0.000325038
-0.00526571
-0.000720975
-0.00645566
-0.00123639
-0.00689682
-0.00183971
-0.00693523
-0.00250393
-0.00677605
-0.00320886
-0.00653513