/*--------------------------------*- C++ -*----------------------------------*\
  =========                 |
  \\      /  F ield         | OpenFOAM: The Open Source CFD Toolbox
   \\    /   O peration     | Website:  https://openfoam.org
    \\  /    A nd           | Version:  7
     \\/     M anipulation  |
\*---------------------------------------------------------------------------*/
FoamFile
{
    version     2.0;
    format      ascii;
    class       volVectorField;
    location    "71";
    object      U;
}
// * * * * * * * * * * * * * * * * * * * * * * * * * * * * * * * * * * * * * //

dimensions      [0 1 -1 0 0 0 0];

internalField   nonuniform List<vector> 
2000
(
(-0.000131201 -0.00688076 -2.87677e-22)
(6.81079e-05 -0.0150892 0)
(0.000868047 -0.0189679 0)
(0.00226075 -0.0192567 -1.47538e-21)
(0.00420592 -0.0163862 4.75646e-22)
(0.00667228 -0.0106326 1.60384e-23)
(0.0096299 -0.00221333 -8.18182e-22)
(0.0130239 0.00863707 0)
(0.016739 0.0216108 0)
(0.0205786 0.0362959 0)
(0.000435969 -0.00666133 0)
(0.00150148 -0.0151496 -1.12773e-21)
(0.00291136 -0.0194524 1.03999e-21)
(0.00457666 -0.020263 1.96942e-21)
(0.00648993 -0.0180099 0)
(0.00865842 -0.0129732 1.79022e-21)
(0.0110997 -0.00535163 -1.66477e-21)
(0.0138136 0.0046713 0)
(0.0167448 0.0168728 3.02744e-21)
(0.0197167 0.0309524 -5.82631e-21)
(0.00103878 -0.00647767 0)
(0.00316694 -0.0152227 9.0456e-21)
(0.00543371 -0.0198724 0)
(0.00760506 -0.0211192 8.06765e-21)
(0.00969908 -0.0194101 0)
(0.0117547 -0.0150479 -7.24456e-21)
(0.0138312 -0.00822987 0)
(0.0159798 0.000901457 6.50073e-21)
(0.0182114 0.0122094 -6.08829e-21)
(0.0203599 0.0255145 -5.93784e-21)
(0.00171083 -0.00636766 -2.36188e-21)
(0.00511906 -0.0153487 -4.50608e-21)
(0.0084906 -0.0202426 -2.11668e-21)
(0.0114005 -0.0218017 -3.96148e-21)
(0.01389 -0.0205128 -3.79274e-21)
(0.0160284 -0.016721 3.56512e-21)
(0.017913 -0.0106423 3.42132e-21)
(0.0196419 -0.0023968 -4.88997e-24)
(0.0212952 0.00795689 6.16624e-21)
(0.0227136 0.0203571 5.9363e-21)
(0.00249453 -0.00636366 -2.33611e-21)
(0.00741775 -0.0155606 -4.62026e-21)
(0.0121278 -0.0205729 -8.76915e-21)
(0.015988 -0.0222917 4.0316e-21)
(0.0190694 -0.0212613 0)
(0.0214771 -0.0178854 0)
(0.0233476 -0.0124185 -7.02875e-21)
(0.0248228 -0.00498069 -6.6479e-21)
(0.0260531 0.00443134 6.27442e-21)
(0.0268918 0.0158564 1.79983e-20)
(0.00343855 -0.00648642 2.37168e-21)
(0.0101201 -0.015872 2.39265e-21)
(0.0163701 -0.020864 -1.30451e-20)
(0.021349 -0.0225768 2.06877e-20)
(0.0251749 -0.0216266 -3.85313e-21)
(0.0280022 -0.0184857 0)
(0.0300141 -0.0134614 0)
(0.0313975 -0.00669565 3.32986e-20)
(0.0323733 0.00185567 -3.13851e-20)
(0.0328235 0.0123063 5.93967e-21)
(0.00459324 -0.00673943 1.8591e-20)
(0.0132717 -0.0162723 0)
(0.0212102 -0.0211035 1.74176e-20)
(0.02741 -0.0226508 -1.65167e-20)
(0.0320634 -0.021612 0)
(0.0353941 -0.018531 7.5065e-21)
(0.0376467 -0.0137746 -2.10675e-20)
(0.03906 -0.00752285 -2.66853e-20)
(0.0399257 0.00028791 1.25299e-20)
(0.0401762 0.0098246 1.20611e-20)
(0.00600371 -0.00710517 -3.71646e-20)
(0.0168962 -0.0167243 -4.69499e-21)
(0.0266003 -0.0212636 -8.84197e-21)
(0.0340376 -0.022512 -2.0805e-20)
(0.0395104 -0.0212525 -7.96602e-21)
(0.0433374 -0.0180962 -7.53819e-21)
(0.0458424 -0.0134672 1.6597e-23)
(0.0473277 -0.00759382 0)
(0.0481595 -0.000410522 0)
(0.048344 0.00829786 1.25541e-22)
(0.00770263 -0.00754477 1.8574e-20)
(0.0209851 -0.017164 -1.87083e-20)
(0.0324446 -0.0213024 1.31465e-20)
(0.0410388 -0.0221623 2.92967e-20)
(0.0472223 -0.0206098 -7.82095e-21)
(0.0514377 -0.0173101 7.51131e-21)
(0.0541038 -0.012733 7.08909e-21)
(0.0555957 -0.00715479 0)
(0.056357 -0.000522655 0)
(0.0565029 0.00741821 -2.72751e-22)
(0.00970374 -0.00800122 -2.32941e-21)
(0.0254886 -0.0175067 2.34732e-20)
(0.0385966 -0.0211684 -4.39104e-21)
(0.0481685 -0.0216095 0)
(0.0548605 -0.0197678 0)
(0.059269 -0.0163406 1.49192e-20)
(0.0619237 -0.0118196 0)
(0.0632741 -0.00651126 -1.31368e-20)
(0.0638145 -0.000397485 -1.35958e-24)
(0.063777 0.00673572 1.17696e-20)
(0.0293428 0.0718601 2.26649e-22)
(0.0444613 0.141012 -2.29292e-22)
(0.0497758 0.202185 -2.66689e-22)
(0.048592 0.257791 -3.06041e-22)
(0.0423993 0.315071 -3.77628e-22)
(0.0374369 0.377673 -1.33008e-23)
(0.0250355 0.447871 1.99527e-22)
(0.0217178 0.53445 7.10313e-22)
(0.000779163 0.657872 0)
(0.00680919 0.805812 -5.21281e-22)
(0.0261645 0.0657974 8.61297e-22)
(0.0405202 0.135993 -9.97806e-22)
(0.046636 0.200155 1.79239e-21)
(0.0460811 0.25762 3.06555e-22)
(0.0403839 0.315881 6.65107e-22)
(0.0358063 0.379132 1.14717e-21)
(0.0239543 0.449848 -4.30912e-22)
(0.0207992 0.536868 -4.76283e-22)
(0.000748923 0.65991 9.3516e-22)
(0.00635889 0.806512 5.20046e-22)
(0.0242599 0.059208 0)
(0.0370595 0.129584 -9.43339e-22)
(0.0438373 0.196808 -5.21344e-22)
(0.0438546 0.256337 0)
(0.038605 0.315702 -2.04827e-21)
(0.0343888 0.379696 6.3848e-22)
(0.0230243 0.451004 7.24035e-22)
(0.0199894 0.538503 2.56715e-21)
(0.000760724 0.661514 -9.32133e-22)
(0.00595249 0.80702 1.87636e-21)
(0.0239336 0.052439 0)
(0.0341471 0.121906 9.51283e-22)
(0.0413738 0.192124 0)
(0.041891 0.253912 2.36234e-21)
(0.0370452 0.314526 -2.37458e-21)
(0.0331663 0.379348 -1.45975e-21)
(0.0222326 0.451269 -9.34217e-23)
(0.0192993 0.53923 -2.50682e-21)
(0.000817476 0.66236 -4.11106e-22)
(0.00557023 0.807137 -2.30817e-21)
(0.025484 0.0458813 4.11924e-23)
(0.0319125 0.113198 -2.71325e-21)
(0.0392409 0.186106 1.27751e-22)
(0.0401688 0.250327 -2.07013e-21)
(0.0356844 0.31237 0)
(0.0321153 0.378161 -1.39362e-21)
(0.0215552 0.450822 -1.21638e-22)
(0.0186986 0.539397 3.15406e-21)
(0.00088478 0.662941 4.19108e-22)
(0.00521514 0.807197 -4.20628e-22)
(0.0290684 0.0399037 -7.40188e-21)
(0.0305525 0.10383 4.67084e-21)
(0.037442 0.178801 2.01807e-21)
(0.0386711 0.245574 -2.01705e-21)
(0.0345084 0.309193 -1.12659e-21)
(0.0312262 0.376003 0)
(0.0209977 0.449377 -2.79437e-21)
(0.0182134 0.538465 1.39123e-21)
(0.000993387 0.662461 1.53067e-21)
(0.00486879 0.806756 1.59511e-21)
(0.034535 0.0347846 -8.96489e-22)
(0.030293 0.0942881 0)
(0.0359964 0.170307 0)
(0.037378 0.239693 0)
(0.0334921 0.305163 -1.20669e-21)
(0.0304692 0.373273 2.32965e-21)
(0.0205155 0.44763 2.72395e-21)
(0.0177643 0.537535 -4.24396e-21)
(0.00106711 0.662303 7.53845e-22)
(0.00455058 0.806536 -2.32637e-21)
(0.0412921 0.0306246 5.64628e-21)
(0.0312708 0.0850265 3.81641e-21)
(0.0349382 0.160839 -3.78193e-21)
(0.0362935 0.232601 4.14258e-21)
(0.0326284 0.299824 -5.15206e-21)
(0.0298569 0.369091 0)
(0.0201659 0.444231 -1.22475e-21)
(0.0174701 0.534684 6.1718e-23)
(0.00122152 0.66028 -1.36148e-21)
(0.0042261 0.805514 -1.42875e-21)
(0.0482296 0.0270966 -4.82138e-21)
(0.0333437 0.0758703 0)
(0.034268 0.150417 -4.29736e-21)
(0.035368 0.224957 7.82263e-21)
(0.0318977 0.294693 -2.92811e-21)
(0.0293142 0.365759 -5.49308e-22)
(0.0197969 0.442162 1.22212e-21)
(0.0170772 0.533634 8.47506e-24)
(0.00123545 0.660109 1.96551e-21)
(0.00393746 0.805255 2.07617e-21)
(0.0536367 0.0240754 -3.88094e-21)
(0.0359273 0.066698 3.79029e-21)
(0.0341307 0.137595 4.70378e-22)
(0.0346223 0.213294 0)
(0.0312326 0.284923 0)
(0.0289954 0.357635 5.36201e-22)
(0.0197324 0.435212 2.29455e-21)
(0.0170675 0.527604 -2.2289e-21)
(0.00148996 0.65576 -6.03339e-22)
(0.00362065 0.803514 5.84131e-22)
(0.0572889 0.0264446 0)
(0.0394615 0.0618776 0)
(0.0348369 0.128914 0)
(0.0342709 0.208333 0)
(0.0302115 0.283753 0)
(0.0272731 0.358876 0)
(0.0183118 0.437685 0)
(0.015525 0.531285 0)
(0.000998191 0.658818 0)
(0.00300244 0.803789 0)
(0.0608145 0.048842 0)
(0.0431021 0.0826201 0)
(0.0337909 0.138347 0)
(0.0319697 0.212691 0)
(0.0283237 0.288137 0)
(0.0253644 0.364433 0)
(0.017171 0.444755 0)
(0.014097 0.539901 0)
(0.000903138 0.666557 0)
(0.00244279 0.806362 0)
(0.0598604 0.0580159 0)
(0.046142 0.09556 0)
(0.0342782 0.146754 0)
(0.0304492 0.217787 0)
(0.0265559 0.292985 0)
(0.0232176 0.369377 0)
(0.0156353 0.450089 0)
(0.0125274 0.54555 0)
(0.000633294 0.671139 0)
(0.00195757 0.806786 0)
(0.0561121 0.0640313 0)
(0.0469826 0.106385 0)
(0.0348716 0.154835 0)
(0.0292875 0.222522 0)
(0.0253153 0.297976 0)
(0.0220671 0.37558 0)
(0.0150317 0.45771 0)
(0.0117001 0.554306 0)
(0.000841613 0.678773 0)
(0.00167939 0.809257 0)
(0.0512739 0.0672131 0)
(0.0460466 0.11551 0)
(0.0352357 0.163373 0)
(0.0286463 0.227457 0)
(0.0240565 0.301671 0)
(0.0204565 0.379228 0)
(0.0139159 0.461683 0)
(0.0106367 0.558478 0)
(0.000706672 0.682025 0)
(0.00136503 0.809183 0)
(0.0455229 0.0677206 0)
(0.0436368 0.122182 0)
(0.0344724 0.171091 0)
(0.0277155 0.232724 0)
(0.0235709 0.306622 0)
(0.0201086 0.385278 0)
(0.0138359 0.469136 0)
(0.0102734 0.56703 0)
(0.00107867 0.689295 0)
(0.0012284 0.811462 0)
(0.0391614 0.0657253 0)
(0.0406161 0.126856 0)
(0.0340583 0.17904 0)
(0.0269232 0.2382 0)
(0.0221805 0.309655 0)
(0.018756 0.387671 0)
(0.0130411 0.471664 0)
(0.00959313 0.569614 0)
(0.00101889 0.691212 0)
(0.00104073 0.81105 0)
(0.0321069 0.060793 0)
(0.0361231 0.127045 0)
(0.0323714 0.183635 0)
(0.0267155 0.244046 0)
(0.0224518 0.315792 0)
(0.0189237 0.394606 0)
(0.0132953 0.47978 0)
(0.00952347 0.578672 0)
(0.00152272 0.698703 0)
(0.00100831 0.81345 0)
(0.0267459 0.0563534 0)
(0.0336809 0.128721 0)
(0.032011 0.189233 0)
(0.0260588 0.247933 0)
(0.0213482 0.317432 0)
(0.018007 0.395697 0)
(0.0127962 0.481023 0)
(0.00913722 0.579853 0)
(0.00148442 0.699581 0)
(0.000912254 0.813074 0)
(0.0185015 0.0400351 0)
(0.0279467 0.118316 0)
(0.0311721 0.18952 0)
(0.0279405 0.254814 0)
(0.0231335 0.325475 0)
(0.0190088 0.404144 0)
(0.0135211 0.490414 0)
(0.00934918 0.590103 0)
(0.00213952 0.707858 0)
(0.00094589 0.81588 0)
(0.0687109 0.0164557 3.47869e-21)
(0.0680286 0.0279866 -3.42023e-21)
(0.0632904 0.0315656 2.99409e-22)
(0.0573793 0.0327742 0)
(0.0509151 0.0317865 0)
(0.0435994 0.0289984 9.17616e-23)
(0.0357427 0.0245163 -1.15903e-22)
(0.0275406 0.0178792 1.13922e-22)
(0.0205956 0.011866 -1.60131e-23)
(0.0117377 -0.00285552 1.57402e-23)
(0.0710032 0.0123517 -4.56544e-21)
(0.0681312 0.0191306 0)
(0.0623139 0.0200695 1.69375e-21)
(0.0559246 0.0192866 -3.37749e-21)
(0.0491594 0.0166903 1.68342e-21)
(0.0416018 0.0126918 -8.98218e-23)
(0.0335349 0.00732103 7.89625e-23)
(0.0252984 0.000154204 1.85472e-23)
(0.0178469 -0.00636857 -2.81658e-23)
(0.00958593 -0.0200168 -3.20356e-23)
(0.0721543 0.00768738 5.14724e-21)
(0.0675236 0.0101877 -2.41264e-21)
(0.061051 0.00866255 2.38943e-21)
(0.0543142 0.00593499 -1.3337e-21)
(0.0472831 0.00175092 1.044e-21)
(0.0395027 -0.00343381 0)
(0.0312579 -0.0096475 -7.91429e-23)
(0.0230194 -0.01717 -9.64197e-25)
(0.0152351 -0.0239566 9.73407e-24)
(0.00768748 -0.0360848 4.77051e-23)
(0.0723973 0.00169548 -7.86593e-22)
(0.0662708 0.000450745 0)
(0.0594133 -0.00316497 0)
(0.05243 -0.00758317 0)
(0.0452115 -0.0131436 6.66557e-22)
(0.0372818 -0.019318 -4.103e-22)
(0.0289396 -0.0261833 2.92804e-23)
(0.0207177 -0.0338347 1.32791e-23)
(0.0128846 -0.0405972 1.13483e-23)
(0.00600177 -0.0509596 2.12228e-23)
(0.0716135 -0.00571496 -5.20119e-22)
(0.0642853 -0.0101253 -2.09308e-21)
(0.0572762 -0.0154696 -8.50239e-22)
(0.050165 -0.0212698 8.49625e-22)
(0.0428493 -0.0279307 -2.53064e-22)
(0.0348713 -0.0348258 0)
(0.0265512 -0.0420872 -7.32218e-23)
(0.0184451 -0.0496227 2.21199e-23)
(0.0107858 -0.0560762 -6.00499e-24)
(0.00458512 -0.0646116 -3.29123e-23)
(0.0698956 -0.0143651 -5.74158e-21)
(0.0617042 -0.0213211 9.52867e-22)
(0.0547427 -0.0280911 2.43425e-22)
(0.0475893 -0.034958 8.31006e-22)
(0.0402697 -0.0424328 0)
(0.0323381 -0.0497688 0)
(0.0241545 -0.0571636 0)
(0.0162736 -0.0643553 2.61599e-23)
(0.00895396 -0.0702693 0)
(0.00344574 -0.0770611 0)
(0.067354 -0.0239804 0)
(0.0586605 -0.032831 1.64045e-21)
(0.051912 -0.0407786 -1.05793e-21)
(0.044783 -0.0484076 -5.98657e-22)
(0.0375605 -0.0564327 6.01728e-22)
(0.029771 -0.0639462 1.18447e-22)
(0.0218231 -0.0712387 -1.49432e-22)
(0.0142647 -0.0779061 -1.24896e-22)
(0.00740006 -0.0831313 9.835e-24)
(0.00255894 -0.0883614 1.00372e-23)
(0.0640677 -0.0342652 0)
(0.0552734 -0.0443387 -5.82913e-22)
(0.0488564 -0.0532641 -2.35441e-22)
(0.041838 -0.0613704 0)
(0.0348004 -0.0697139 7.81465e-23)
(0.0272444 -0.0771794 -2.90615e-22)
(0.0196166 -0.084182 1.18422e-22)
(0.0124592 -0.0902088 1.69004e-24)
(0.00611556 -0.0946822 -7.19378e-24)
(0.00188733 -0.0985851 -1.13544e-23)
(0.0601635 -0.0448493 7.73078e-22)
(0.0516484 -0.0555693 5.27491e-22)
(0.0456519 -0.0653004 -1.78058e-22)
(0.0388321 -0.0736262 9.12084e-23)
(0.0320592 -0.082094 1.27717e-22)
(0.0248189 -0.0893359 1.27052e-22)
(0.017577 -0.0959188 -2.63721e-23)
(0.010876 -0.101256 -1.31537e-23)
(0.00507562 -0.104988 7.21731e-24)
(0.00139001 -0.107814 1.38557e-26)
(0.0558114 -0.0554419 -1.6302e-22)
(0.0478768 -0.0662992 1.64479e-22)
(0.0423705 -0.0766848 -1.19053e-22)
(0.0358371 -0.0850062 -9.10695e-23)
(0.0293953 -0.0934444 5.62084e-23)
(0.0225406 -0.100342 -1.00736e-22)
(0.0157287 -0.106432 3.68902e-23)
(0.00951471 -0.111089 2.56262e-24)
(0.00424589 -0.114144 0)
(0.00102762 -0.116129 -1.38846e-26)
(0.0511997 -0.0658109 1.67143e-22)
(0.0440639 -0.0763687 -1.68555e-22)
(0.0390939 -0.0872722 -1.25501e-22)
(0.0329294 -0.0954064 -9.71724e-23)
(0.026862 -0.103698 -5.9333e-23)
(0.0204444 -0.110183 9.60421e-24)
(0.0140822 -0.115756 2.04044e-23)
(0.00836173 -0.119788 3.04433e-23)
(0.00358923 -0.122258 0)
(0.000765504 -0.123611 -2.25372e-24)
(0.0465244 -0.0757923 0)
(0.0403271 -0.0856858 -5.66138e-22)
(0.0359061 -0.0969765 9.56216e-22)
(0.0301823 -0.104789 9.73152e-23)
(0.0245031 -0.112846 1.52178e-22)
(0.018553 -0.1189 1.57893e-22)
(0.0126366 -0.123965 -3.23004e-23)
(0.00739549 -0.127455 -1.84072e-23)
(0.00307053 -0.129441 2.16667e-23)
(0.000575703 -0.130336 2.24829e-24)
(0.0419431 -0.0852903 0)
(0.0367597 -0.094226 -6.56903e-22)
(0.0328649 -0.105765 -2.60769e-22)
(0.0276435 -0.113176 0)
(0.0223416 -0.120928 -4.1916e-22)
(0.0168711 -0.126572 1.60948e-22)
(0.0113798 -0.131159 9.56921e-23)
(0.00658989 -0.134204 1.54934e-22)
(0.00265925 -0.135801 -2.1596e-23)
(0.000436956 -0.136378 1.60305e-23)
(0.0375707 -0.094267 0)
(0.0334251 -0.102032 6.62345e-22)
(0.0300015 -0.113653 0)
(0.0253345 -0.120646 7.60911e-22)
(0.020382 -0.128024 -7.6486e-22)
(0.0153882 -0.133312 -1.99262e-22)
(0.0102926 -0.137457 4.54526e-23)
(0.00591788 -0.140155 -1.62139e-22)
(0.00233038 -0.141446 -2.9719e-23)
(0.000333588 -0.141812 -2.48204e-23)
(0.0334926 -0.102727 6.83278e-21)
(0.0303738 -0.109208 -2.55927e-21)
(0.0273374 -0.120692 -2.49314e-22)
(0.0232623 -0.127315 -1.03318e-21)
(0.0186223 -0.134245 0)
(0.0140873 -0.139248 -2.13989e-22)
(0.00935489 -0.142986 7.21653e-23)
(0.00535481 -0.145427 2.48081e-22)
(0.0020649 -0.146476 1.00526e-23)
(0.000254533 -0.146716 -1.00412e-23)
(0.0297598 -0.110692 5.96435e-22)
(0.0276473 -0.115913 3.99097e-21)
(0.0248929 -0.126961 1.08286e-21)
(0.0214256 -0.133324 -1.0822e-21)
(0.0170604 -0.139718 -3.76253e-22)
(0.0129502 -0.144518 0)
(0.00854896 -0.147875 -3.48576e-22)
(0.00488046 -0.150138 1.8642e-22)
(0.00184924 -0.150994 9.35368e-23)
(0.000192285 -0.15117 2.38018e-23)
(0.0264049 -0.118167 -9.63211e-22)
(0.0252987 -0.122349 0)
(0.0227069 -0.132561 0)
(0.0198266 -0.138826 0)
(0.0157022 -0.144583 -2.97158e-22)
(0.0119643 -0.149258 6.72662e-22)
(0.00786301 -0.15225 3.59785e-22)
(0.00448043 -0.154401 -4.25686e-22)
(0.00167466 -0.155098 2.43349e-23)
(0.000141769 -0.155259 -4.76509e-23)
(0.0234296 -0.125105 -2.23262e-21)
(0.0233542 -0.128744 2.97383e-21)
(0.0208093 -0.137605 -2.94579e-21)
(0.0184473 -0.143965 1.8864e-21)
(0.0145446 -0.148984 -2.28842e-21)
(0.0111118 -0.153599 0)
(0.00728385 -0.156236 -2.20517e-22)
(0.00414175 -0.158324 -1.0261e-23)
(0.0015344 -0.158886 -8.13059e-23)
(9.88002e-05 -0.159071 -2.76294e-23)
(0.020525 -0.131339 -1.04697e-21)
(0.0215297 -0.135319 0)
(0.0190509 -0.142225 -2.91152e-21)
(0.0171293 -0.148874 4.51633e-21)
(0.0134916 -0.153064 -1.55089e-21)
(0.0103165 -0.157667 -1.65325e-22)
(0.00676532 -0.15995 2.20015e-22)
(0.00383604 -0.16201 2.70032e-23)
(0.00141632 -0.162453 1.67696e-22)
(6.06693e-05 -0.162694 5.48401e-23)
(0.0176446 -0.136421 -4.24302e-21)
(0.0196733 -0.142272 4.14622e-21)
(0.0174423 -0.146613 3.7692e-22)
(0.0158465 -0.153691 0)
(0.0125262 -0.156985 0)
(0.00957147 -0.161595 1.70246e-22)
(0.00630021 -0.163517 4.10722e-22)
(0.0035616 -0.165565 -4.03054e-22)
(0.00132014 -0.165897 -3.04588e-23)
(4.05929e-05 -0.166222 2.97976e-23)
(0.0178181 -0.143677 0)
(0.0200515 -0.158797 0)
(0.0172505 -0.156597 0)
(0.0153404 -0.164992 0)
(0.0120384 -0.166256 0)
(0.00902699 -0.17099 0)
(0.00595136 -0.172056 0)
(0.0033447 -0.174076 0)
(0.00129568 -0.174091 0)
(7.65561e-05 -0.174571 0)
(0.0157786 -0.169372 0)
(0.0140779 -0.185396 0)
(0.0121618 -0.179163 0)
(0.0102708 -0.187583 0)
(0.00809388 -0.18617 0)
(0.00601521 -0.190653 0)
(0.00400353 -0.190236 0)
(0.00229362 -0.192125 0)
(0.00094169 -0.191498 0)
(9.51438e-05 -0.192124 0)
(0.0161582 -0.199542 0)
(0.0132397 -0.216404 0)
(0.0109651 -0.20732 0)
(0.00873583 -0.216132 0)
(0.0067669 -0.212619 0)
(0.00488043 -0.217283 0)
(0.00328804 -0.215624 0)
(0.00190953 -0.217668 0)
(0.000860758 -0.216409 0)
(0.000108178 -0.217272 0)
(0.0159376 -0.237178 0)
(0.0122071 -0.255303 0)
(0.0099575 -0.244096 0)
(0.00751707 -0.253796 0)
(0.0058275 -0.248526 0)
(0.00408053 -0.253796 0)
(0.00283863 -0.251005 0)
(0.00166377 -0.253485 0)
(0.000829725 -0.251553 0)
(0.00010987 -0.252798 0)
(0.0154617 -0.284181 0)
(0.0113402 -0.302918 0)
(0.00916752 -0.290845 0)
(0.00657926 -0.30139 0)
(0.0051424 -0.295004 0)
(0.00346006 -0.301039 0)
(0.00250147 -0.297373 0)
(0.00142588 -0.300452 0)
(0.000772253 -0.297914 0)
(8.04194e-05 -0.299681 0)
(0.0143482 -0.3391 0)
(0.0102083 -0.356508 0)
(0.00824957 -0.345654 0)
(0.00564574 -0.356083 0)
(0.00446912 -0.349788 0)
(0.00283155 -0.356114 0)
(0.00210593 -0.35219 0)
(0.00107079 -0.355657 0)
(0.000607317 -0.352829 0)
(3.77202e-06 -0.355037 0)
(0.0122592 -0.395721 0)
(0.00855668 -0.409715 0)
(0.0069094 -0.402126 0)
(0.00455079 -0.410978 0)
(0.00361893 -0.406168 0)
(0.00211567 -0.411777 0)
(0.00156236 -0.408455 0)
(0.000601153 -0.411665 0)
(0.000335301 -0.409102 0)
(-8.93934e-05 -0.411329 0)
(0.00928732 -0.444986 0)
(0.00640168 -0.45467 0)
(0.00514 -0.451201 0)
(0.00329246 -0.457481 0)
(0.00259289 -0.454928 0)
(0.00137821 -0.458934 0)
(0.000954779 -0.456819 0)
(0.000171571 -0.459099 0)
(7.05588e-05 -0.457272 0)
(-0.000139285 -0.458958 0)
(0.00574043 -0.479766 0)
(0.00390161 -0.485826 0)
(0.00312041 -0.485802 0)
(0.00195805 -0.489632 0)
(0.00152537 -0.48912 0)
(0.000734346 -0.49141 0)
(0.000458656 -0.490511 0)
(-5.27571e-05 -0.491687 0)
(-5.9541e-05 -0.490691 0)
(-0.00012143 -0.491599 0)
(0.00193519 -0.497273 0)
(0.00128869 -0.501442 0)
(0.00103896 -0.50328 0)
(0.00064027 -0.505696 0)
(0.000502282 -0.506314 0)
(0.000223816 -0.507557 0)
(0.000131149 -0.507371 0)
(-4.97361e-05 -0.507847 0)
(-3.85301e-05 -0.507372 0)
(-4.84735e-05 -0.507752 0)
(0.0172271 -0.153939 4.98689e-21)
(0.0172586 -0.180902 -4.88898e-21)
(0.0183441 -0.21287 6.32566e-22)
(0.0183062 -0.251707 0)
(0.0178383 -0.298481 0)
(0.0164738 -0.351126 7.3383e-22)
(0.0140544 -0.403662 -3.15604e-21)
(0.0107047 -0.448326 3.11487e-21)
(0.00669478 -0.479413 8.48299e-22)
(0.00227742 -0.494967 -8.35091e-22)
(0.0173655 -0.159047 -5.87708e-21)
(0.0181393 -0.185797 0)
(0.0193777 -0.217868 4.30216e-21)
(0.0193789 -0.256752 -9.9307e-21)
(0.0188856 -0.303188 6.37809e-21)
(0.0174041 -0.354875 -6.76771e-22)
(0.0148472 -0.405922 1.50935e-21)
(0.011338 -0.449018 3.18667e-21)
(0.00712258 -0.478916 8.98739e-22)
(0.00242581 -0.493882 8.71957e-22)
(0.0178722 -0.164354 6.87168e-21)
(0.0193935 -0.190985 -4.74758e-21)
(0.020674 -0.222891 4.70264e-21)
(0.0206673 -0.261547 -5.2723e-21)
(0.020098 -0.307449 3.90163e-21)
(0.0184557 -0.358062 0)
(0.0157147 -0.407623 -1.51303e-21)
(0.0119961 -0.449256 7.92473e-23)
(0.00753787 -0.47811 -1.67383e-21)
(0.00255719 -0.49259 -1.7103e-21)
(0.0187671 -0.1691 -1.11269e-21)
(0.0209489 -0.195801 0)
(0.0222137 -0.22762 0)
(0.0221709 -0.26606 0)
(0.0214871 -0.311425 4.35072e-21)
(0.019654 -0.360982 -2.90928e-21)
(0.016691 -0.409105 -1.98086e-23)
(0.0127145 -0.449317 -1.7889e-21)
(0.00797118 -0.477135 -9.18184e-22)
(0.00268612 -0.491098 -9.83054e-22)
(0.0201185 -0.173374 1.18903e-22)
(0.0227764 -0.200003 -3.36568e-21)
(0.0239676 -0.231727 -2.57898e-21)
(0.0238649 -0.269983 2.57737e-21)
(0.0230374 -0.314859 -1.42189e-21)
(0.020997 -0.363456 0)
(0.0177902 -0.410279 -1.66812e-21)
(0.013523 -0.449186 3.65212e-21)
(0.00845776 -0.476017 -1.86917e-21)
(0.00283152 -0.489455 1.92364e-21)
(0.0219682 -0.177268 -8.953e-21)
(0.0248973 -0.203626 9.66184e-22)
(0.0259486 -0.235132 -1.90729e-22)
(0.0257486 -0.273163 2.64985e-21)
(0.0247452 -0.317562 0)
(0.0224801 -0.365293 0)
(0.019012 -0.410978 0)
(0.0144301 -0.448752 1.95747e-21)
(0.00901195 -0.47472 0)
(0.00300299 -0.487687 0)
(0.0243289 -0.180687 0)
(0.0273318 -0.206656 3.70923e-21)
(0.0281859 -0.237832 -2.50688e-21)
(0.0278407 -0.275579 -2.9771e-21)
(0.0266253 -0.319489 2.99259e-21)
(0.0241112 -0.366429 1.78347e-21)
(0.0203577 -0.411127 -1.7695e-21)
(0.0154346 -0.447947 -6.9927e-21)
(0.00963294 -0.473204 4.97864e-22)
(0.00320194 -0.48579 -1.70408e-21)
(0.0272085 -0.183498 0)
(0.0300874 -0.209014 -1.20522e-21)
(0.0307002 -0.239791 -6.81765e-22)
(0.0301595 -0.277224 0)
(0.028697 -0.320649 8.69795e-22)
(0.0259057 -0.366875 -2.62567e-21)
(0.0218357 -0.410727 2.92193e-21)
(0.0165378 -0.446761 1.04236e-21)
(0.0103177 -0.471451 -1.14081e-21)
(0.00342747 -0.483746 2.26081e-21)
(0.0306177 -0.185595 1.08182e-21)
(0.0331688 -0.210628 1.31019e-21)
(0.0335039 -0.240955 -2.90127e-22)
(0.0327158 -0.278075 3.89978e-22)
(0.0309756 -0.321044 8.28731e-22)
(0.0278776 -0.366653 1.39056e-21)
(0.0234568 -0.409804 -5.22875e-22)
(0.0177451 -0.445207 -5.64926e-22)
(0.0110664 -0.469461 1.14457e-21)
(0.00367954 -0.481545 6.20335e-22)
(0.0345669 -0.18689 -3.02369e-22)
(0.0365816 -0.21146 3.0515e-22)
(0.0366068 -0.241277 -3.51103e-22)
(0.0355159 -0.278109 -3.89475e-22)
(0.0334716 -0.320661 4.62213e-22)
(0.0300373 -0.365765 -9.43551e-22)
(0.0252313 -0.408367 8.00113e-22)
(0.0190647 -0.443295 2.86037e-22)
(0.0118832 -0.467235 0)
(0.00395981 -0.47918 -6.2172e-22)
(0.039064 -0.187314 3.10068e-22)
(0.0403287 -0.211503 -3.13031e-22)
(0.0400187 -0.240738 -3.77311e-22)
(0.0385647 -0.277322 -4.21102e-22)
(0.0361938 -0.319496 -4.82433e-22)
(0.0323918 -0.364219 -3.36756e-23)
(0.0271665 -0.406426 2.82027e-22)
(0.0205021 -0.441034 9.10429e-22)
(0.0127709 -0.464777 0)
(0.00426932 -0.476648 -6.78611e-22)
(0.044114 -0.186848 0)
(0.0444102 -0.210756 -1.44368e-21)
(0.0437464 -0.239346 2.6174e-21)
(0.0418641 -0.275722 4.21815e-22)
(0.0391508 -0.317552 9.79619e-22)
(0.0349482 -0.362012 1.60706e-21)
(0.0292717 -0.403973 -5.71458e-22)
(0.0220672 -0.438413 -6.17639e-22)
(0.0137367 -0.462078 1.36619e-21)
(0.00461038 -0.473944 6.77029e-22)
(0.0497182 -0.185537 0)
(0.0488255 -0.209212 -1.42384e-21)
(0.0477934 -0.237142 -7.872e-22)
(0.0454188 -0.273329 0)
(0.042348 -0.314867 -3.08504e-21)
(0.0377099 -0.359173 1.03126e-21)
(0.0315492 -0.401036 1.22716e-21)
(0.0237586 -0.435455 3.96201e-21)
(0.0147778 -0.459139 -1.36175e-21)
(0.00498097 -0.471055 2.93948e-21)
(0.0558724 -0.183499 0)
(0.0535772 -0.206862 1.43599e-21)
(0.0521475 -0.234271 0)
(0.0492286 -0.270133 3.94356e-21)
(0.0457917 -0.311456 -3.96379e-21)
(0.040687 -0.355688 -2.42111e-21)
(0.0340101 -0.397588 -5.38874e-23)
(0.0255943 -0.432127 -4.0776e-21)
(0.0159097 -0.455933 -6.79689e-22)
(0.00538531 -0.46796 -3.6563e-21)
(0.0625508 -0.180839 1.0374e-20)
(0.0586659 -0.203684 -3.98108e-21)
(0.056815 -0.230716 4.26828e-22)
(0.0533253 -0.266142 -3.68476e-21)
(0.0494705 -0.30735 0)
(0.0438804 -0.351607 -2.52518e-21)
(0.0366495 -0.393686 -2.10663e-22)
(0.0275649 -0.428478 5.5385e-21)
(0.0171232 -0.452503 7.59221e-22)
(0.00581776 -0.464686 -7.62131e-22)
(0.0696972 -0.17755 -1.06618e-21)
(0.0641215 -0.199738 7.44928e-21)
(0.0617588 -0.226459 3.83434e-21)
(0.0576966 -0.261497 -3.83172e-21)
(0.0533904 -0.302573 -2.30812e-21)
(0.0473026 -0.346898 0)
(0.0394904 -0.389258 -5.65737e-21)
(0.0296993 -0.424434 2.83721e-21)
(0.0184427 -0.448801 3.02947e-21)
(0.00628804 -0.461199 3.25228e-21)
(0.0772397 -0.173679 -1.43054e-21)
(0.0699404 -0.195171 0)
(0.0669488 -0.221644 0)
(0.0623252 -0.256336 0)
(0.057542 -0.297318 -2.66241e-21)
(0.0509282 -0.341815 4.96193e-21)
(0.0424887 -0.384566 5.76335e-21)
(0.0319414 -0.420197 -9.07437e-21)
(0.0198215 -0.444936 1.62393e-21)
(0.00677271 -0.457556 -4.83048e-21)
(0.0850549 -0.169337 -2.14211e-21)
(0.0761176 -0.189943 7.35291e-21)
(0.0723726 -0.216208 -7.28268e-21)
(0.0672218 -0.25044 9.342e-21)
(0.0619638 -0.291233 -1.17482e-20)
(0.0548359 -0.335865 0)
(0.0457653 -0.379094 -3.01332e-21)
(0.0344288 -0.415376 -1.24099e-22)
(0.0213694 -0.440688 -3.3753e-21)
(0.00731899 -0.453614 -3.43939e-21)
(0.0929487 -0.165107 -1.52049e-21)
(0.0825662 -0.184633 0)
(0.0779057 -0.2109 -9.72405e-21)
(0.0722422 -0.24482 1.83085e-20)
(0.0664741 -0.285626 -7.08579e-21)
(0.0587813 -0.330523 -1.42647e-21)
(0.0490167 -0.374186 3.0068e-21)
(0.0368528 -0.410896 -1.51913e-22)
(0.022856 -0.436529 4.92683e-21)
(0.00782105 -0.44964 5.08993e-21)
(0.101258 -0.158943 -6.83876e-21)
(0.0902208 -0.176961 6.70322e-21)
(0.0842714 -0.203055 1.03562e-21)
(0.0780149 -0.236405 0)
(0.0717068 -0.277022 0)
(0.0634838 -0.322296 1.39931e-21)
(0.0530284 -0.366947 6.40364e-21)
(0.0399477 -0.404895 -6.2635e-21)
(0.0248079 -0.431532 -1.71435e-21)
(0.00850896 -0.445068 1.68561e-21)
(0.112258 -0.159548 0)
(0.106879 -0.174149 0)
(0.0976446 -0.201217 0)
(0.089891 -0.233948 0)
(0.0820985 -0.27358 0)
(0.0722502 -0.317282 0)
(0.0600319 -0.360082 0)
(0.0450511 -0.396331 0)
(0.0278856 -0.421937 0)
(0.00938411 -0.43529 0)
(0.131912 -0.145023 0)
(0.135235 -0.164766 0)
(0.121034 -0.195081 0)
(0.112552 -0.227425 0)
(0.1021 -0.266021 0)
(0.0893312 -0.307283 0)
(0.0738539 -0.346885 0)
(0.0552678 -0.379796 0)
(0.0342652 -0.402345 0)
(0.0118883 -0.413155 0)
(0.158982 -0.131099 0)
(0.165558 -0.153222 0)
(0.146361 -0.183657 0)
(0.137836 -0.214642 0)
(0.123826 -0.251656 0)
(0.107647 -0.289845 0)
(0.0882619 -0.326224 0)
(0.0655544 -0.356692 0)
(0.040281 -0.378417 0)
(0.0132915 -0.390349 0)
(0.192566 -0.121397 0)
(0.20044 -0.143586 0)
(0.175985 -0.172808 0)
(0.167873 -0.202554 0)
(0.149103 -0.237861 0)
(0.129278 -0.27251 0)
(0.105317 -0.305356 0)
(0.0778782 -0.332202 0)
(0.0479419 -0.350267 0)
(0.0167988 -0.35809 0)
(0.232134 -0.109213 0)
(0.238254 -0.129575 0)
(0.208905 -0.156383 0)
(0.200306 -0.183654 0)
(0.174578 -0.215015 0)
(0.150491 -0.244635 0)
(0.12076 -0.273634 0)
(0.0882342 -0.297845 0)
(0.0534071 -0.316076 0)
(0.0168301 -0.327898 0)
(0.278203 -0.10001 0)
(0.280822 -0.117814 0)
(0.247508 -0.142814 0)
(0.236847 -0.166739 0)
(0.203079 -0.193989 0)
(0.175698 -0.219508 0)
(0.139664 -0.245422 0)
(0.101776 -0.265997 0)
(0.0620112 -0.280136 0)
(0.0228888 -0.283756 0)
(0.325936 -0.0821135 0)
(0.320953 -0.0960038 0)
(0.284699 -0.116804 0)
(0.268616 -0.134827 0)
(0.226762 -0.156574 0)
(0.195721 -0.176665 0)
(0.150392 -0.197411 0)
(0.107027 -0.214535 0)
(0.0618196 -0.23164 0)
(0.015461 -0.250232 0)
(0.373999 -0.0697473 0)
(0.362226 -0.0794751 0)
(0.326182 -0.096613 0)
(0.303388 -0.109825 0)
(0.258506 -0.128525 0)
(0.223244 -0.144784 0)
(0.171505 -0.16348 0)
(0.124499 -0.180208 0)
(0.0739795 -0.196826 0)
(0.035586 -0.19397 0)
(0.412718 -0.0381841 0)
(0.395963 -0.0425993 0)
(0.349176 -0.0529104 0)
(0.318919 -0.0591705 0)
(0.26333 -0.070426 0)
(0.219132 -0.0780252 0)
(0.153784 -0.0886292 0)
(0.0960626 -0.098236 0)
(0.0347616 -0.118218 0)
(-0.0327543 -0.168721 0)
(0.65407 -0.0195628 0)
(0.631819 -0.0226158 0)
(0.589941 -0.0272896 0)
(0.55539 -0.0315139 0)
(0.502206 -0.0379913 0)
(0.453195 -0.0446348 0)
(0.384364 -0.0550436 0)
(0.312045 -0.0699307 0)
(0.215961 -0.0990089 0)
(0.153776 -0.156715 0)
(0.134765 -0.142929 6.98764e-21)
(0.157214 -0.127867 -6.8833e-21)
(0.184448 -0.114471 1.12825e-21)
(0.217723 -0.105079 0)
(0.257126 -0.0939903 0)
(0.301222 -0.0856626 1.72356e-21)
(0.347656 -0.0698465 -8.23301e-21)
(0.392676 -0.0598709 8.12697e-21)
(0.439503 -0.0322793 2.3201e-21)
(0.675378 -0.0170546 -2.34694e-21)
(0.142097 -0.135812 -6.49505e-21)
(0.164367 -0.12054 0)
(0.19093 -0.107656 8.04893e-21)
(0.224173 -0.0985664 -1.94644e-20)
(0.263662 -0.0879404 1.31299e-20)
(0.307639 -0.0799968 -1.6032e-21)
(0.35406 -0.0649603 3.49872e-21)
(0.398891 -0.0559557 7.88641e-21)
(0.449354 -0.0299533 2.1525e-21)
(0.683666 -0.0159831 2.13884e-21)
(0.148525 -0.127902 7.507e-21)
(0.170274 -0.11282 -7.55947e-21)
(0.196151 -0.100671 7.48797e-21)
(0.229051 -0.0920112 -1.03586e-20)
(0.268449 -0.0819325 7.5108e-21)
(0.31243 -0.0744833 0)
(0.358915 -0.0603076 -3.50719e-21)
(0.404126 -0.0523285 -7.02957e-23)
(0.457956 -0.0278675 -4.06682e-21)
(0.691387 -0.0149561 -4.27376e-21)
(0.154941 -0.119429 -1.29427e-21)
(0.176572 -0.104865 0)
(0.202036 -0.0935466 0)
(0.234537 -0.085385 0)
(0.273699 -0.0759441 8.52123e-21)
(0.317574 -0.0690832 -5.80502e-21)
(0.363953 -0.05585 -2.2746e-22)
(0.40944 -0.0488987 -4.01051e-21)
(0.465988 -0.0259902 -2.04245e-21)
(0.698782 -0.0140066 -2.08704e-21)
(0.160814 -0.11056 1.31459e-21)
(0.182555 -0.0968037 -4.09955e-21)
(0.207723 -0.0863779 -4.25379e-21)
(0.240082 -0.0787514 4.25115e-21)
(0.278999 -0.0700044 -2.67785e-21)
(0.322835 -0.0638052 0)
(0.36908 -0.0515488 -3.41798e-21)
(0.414796 -0.0455875 7.64256e-21)
(0.473624 -0.0242575 -3.84297e-21)
(0.705831 -0.0131352 4.16939e-21)
(0.165922 -0.101325 -9.66603e-21)
(0.187781 -0.0886599 4.86197e-22)
(0.212645 -0.0792022 -6.76876e-22)
(0.24495 -0.0721634 4.15678e-21)
(0.283704 -0.0641476 0)
(0.327655 -0.0586724 0)
(0.373709 -0.0474048 0)
(0.419874 -0.0423772 3.65532e-21)
(0.480719 -0.0226326 0)
(0.712436 -0.0123314 0)
(0.170202 -0.0917435 0)
(0.192196 -0.0804194 4.88193e-21)
(0.216767 -0.0719977 -3.38839e-21)
(0.248952 -0.0656244 -4.75565e-21)
(0.287613 -0.0584 4.78037e-21)
(0.331733 -0.0536614 3.09841e-21)
(0.377581 -0.043424 -2.92347e-21)
(0.424407 -0.0392977 -1.25889e-20)
(0.487082 -0.0210944 8.91484e-22)
(0.718518 -0.0115944 -2.9866e-21)
(0.173551 -0.0818483 0)
(0.195772 -0.0720747 -1.49848e-21)
(0.220127 -0.0647419 -9.0359e-22)
(0.252136 -0.0591158 0)
(0.290731 -0.0527387 1.44381e-21)
(0.334972 -0.048754 -4.15339e-21)
(0.380798 -0.0395868 4.9515e-21)