/*--------------------------------*- C++ -*----------------------------------*\
  =========                 |
  \\      /  F ield         | OpenFOAM: The Open Source CFD Toolbox
   \\    /   O peration     | Website:  https://openfoam.org
    \\  /    A nd           | Version:  7
     \\/     M anipulation  |
\*---------------------------------------------------------------------------*/
FoamFile
{
    version     2.0;
    format      ascii;
    class       surfaceScalarField;
    location    "0.5";
    object      phi;
}
// * * * * * * * * * * * * * * * * * * * * * * * * * * * * * * * * * * * * * //

dimensions      [0 3 -1 0 0 0 0];

internalField   nonuniform List<scalar> 
63520
(
-5.28128e-06
0.00121455
-0.00120927
3.1003e-05
0.00108404
-0.00112032
0.000134707
-0.000506564
0.000402861
0.000314521
-0.00269262
0.00251281
0.000568333
-0.00491682
0.00466301
0.000885509
-0.00688858
0.0065714
0.00125299
-0.00848223
0.00811474
0.00165659
-0.00968206
0.00927846
0.00208398
-0.0105244
0.010097
0.00252493
-0.0110687
0.0106277
0.00297198
-0.0113781
0.010931
0.00341958
-0.0115104
0.0110628
0.00386432
-0.0115145
0.0110697
0.00430406
-0.0114283
0.0109885
0.00473749
-0.0112817
0.0108483
0.00516422
-0.0110965
0.0106698
0.00558412
-0.0108886
0.0104687
0.00599739
-0.0106688
0.0102556
0.00640424
-0.0104451
0.0100382
0.00680509
-0.0102225
0.00982166
0.00720041
-0.0100046
0.00960923
0.00759061
-0.00979322
0.00940302
0.00797599
-0.00958995
0.00920457
0.00835698
-0.00939528
0.00901429
0.00873391
-0.00920961
0.00883268
0.00910716
-0.00903282
0.00865956
0.00947684
-0.00886448
0.0084948
0.00984328
-0.00870459
0.00833815
0.0102067
-0.00855253
0.00818909
0.0105673
-0.00840805
0.00804743
0.0109253
-0.00827058
0.00791258
0.0112808
-0.00813967
0.00778421
0.011634
-0.00801515
0.00766196
0.011985
-0.00789629
0.00754525
0.0123339
-0.00778277
0.00743392
0.0126808
-0.00767445
0.00732754
0.013026
-0.00757081
0.00722566
0.0133693
-0.00747136
0.00712798
0.0137107
-0.00737471
0.00703331
-0.0072757
0.0140498
0.00693659
-1.24908e-06
0.00121581
4.18382e-05
0.00104095
0.000153984
-0.000618708
0.000342963
-0.0028816
0.000605866
-0.00517972
0.00093073
-0.00721344
0.00130405
-0.00885555
0.00171159
-0.0100896
0.00214076
-0.0109536
0.00258149
-0.0115094
0.0030267
-0.0118233
0.00347125
-0.011955
0.00391189
-0.0119551
0.0043468
-0.0118632
0.00477502
-0.01171
0.00519632
-0.0115178
0.00561069
-0.0113029
0.00601837
-0.0110765
0.00641982
-0.0108465
0.00681546
-0.0106181
0.00720577
-0.0103949
0.00759115
-0.0101786
0.00797201
-0.00997082
0.0083488
-0.00977207
0.00872174
-0.00958256
0.00909116
-0.00940224
0.0094573
-0.00923062
0.00982043
-0.00906772
0.0101808
-0.0089129
0.0105384
-0.00876567
0.0108936
-0.00862576
0.0112465
-0.00849259
0.0115971
-0.00836576
0.0119457
-0.00824484
0.0122924
-0.00812945
0.0126372
-0.00801923
0.0129802
-0.00791387
0.0133214
-0.00781258
0.013661
-0.00771429
-0.00761303
0.0139983
2.20816e-06
0.0012136
5.23051e-05
0.000990855
0.000173776
-0.000740175
0.000372546
-0.00308037
0.000644799
-0.00545198
0.000977586
-0.00754622
0.00135684
-0.0092348
0.00176787
-0.0105006
0.00219839
-0.0113841
0.00263856
-0.0119496
0.00308148
-0.0122662
0.00352243
-0.0123959
0.00395849
-0.0123912
0.00438824
-0.0122929
0.00481093
-0.0121326
0.00522644
-0.0119333
0.00563496
-0.0117114
0.00603686
-0.0114784
0.00643269
-0.0112424
0.00682289
-0.0110083
0.00720797
-0.01078
0.00758845
-0.0105591
0.00796466
-0.010347
0.00833703
-0.0101444
0.00870579
-0.00995132
0.0090713
-0.00976775
0.00943386
-0.00959318
0.0097935
-0.00942736
0.0101505
-0.00926996
0.0105052
-0.00912027
0.0108574
-0.008978
0.0112075
-0.00884267
0.0115555
-0.00871377
0.0119016
-0.00859091
0.0122457
-0.00847361
0.0125882
-0.00836166
0.0129289
-0.00825467
0.0132682
-0.0081518
0.0136056
-0.00805176
-0.00794824
0.0139408
5.8251e-06
0.00120778
6.34391e-05
0.00093324
0.000194452
-0.000871187
0.000403517
-0.00328944
0.000685203
-0.00573366
0.00102582
-0.00788684
0.00141067
-0.00961966
0.00182496
-0.0109149
0.0022564
-0.0118156
0.00269546
-0.0123886
0.00313558
-0.0127063
0.00357254
-0.0128329
0.00400368
-0.0128223
0.00442786
-0.0127171
0.00484461
-0.0125494
0.00525403
-0.0123427
0.00565647
-0.0121139
0.0060524
-0.0118744
0.00644239
-0.0116324
0.00682701
-0.0113929
0.00720673
-0.0111597
0.00758214
-0.0109345
0.00795352
-0.0107184
0.00832135
-0.0105123
0.0086859
-0.0103159
0.00904734
-0.0101292
0.00940607
-0.00995192
0.00976219
-0.00978348
0.0101158
-0.00962357
0.0104671
-0.00947162
0.0108164
-0.00932723
0.0111636
-0.00918986
0.0115088
-0.00905896
0.0118521
-0.00893424
0.0121938
-0.00881531
0.0125339
-0.00870177
0.0128722
-0.00859302
0.0132092
-0.00848872
0.0135444
-0.00838703
-0.00828142
0.0138776
9.3426e-06
0.00119844
7.47528e-05
0.000867826
0.000215663
-0.0010121
0.000435421
-0.0035092
0.000726504
-0.00602474
0.00107497
-0.0082353
0.00146515
-0.0100098
0.00188216
-0.0113319
0.00231402
-0.0122474
0.00275163
-0.0128262
0.00318857
-0.0131433
0.00362104
-0.0132653
0.00404684
-0.0132481
0.00446515
-0.0131354
0.00487572
-0.01296
0.00527876
-0.0127458
0.00567482
-0.0125099
0.00606458
-0.0122641
0.00644859
-0.0120164
0.00682747
-0.0117718
0.00720169
-0.0115339
0.00757192
-0.0113047
0.00793841
-0.0110849
0.00830148
-0.0108754
0.00866165
-0.010676
0.00901903
-0.0104866
0.00937377
-0.0103067
0.00972612
-0.0101358
0.0100763
-0.00997371
0.0104243
-0.00981969
0.0107703
-0.00967321
0.0111144
-0.00953393
0.0114568
-0.00940134
0.0117974
-0.00927488
0.0121364
-0.0091543
0.0124738
-0.00903921
0.0128099
-0.0089291
0.0131444
-0.00882324
0.0134773
-0.0087199
-0.00861213
0.013808
1.27748e-05
0.00118566
8.63348e-05
0.000794267
0.000237542
-0.0011633
0.000468062
-0.00373972
0.00076859
-0.00632527
0.00112446
-0.00859117
0.00151964
-0.010405
0.00193916
-0.0117515
0.00237103
-0.0126793
0.00280656
-0.0132618
0.00323983
-0.0135765
0.00366751
-0.013693
0.00408768
-0.0136683
0.00449971
-0.0135474
0.00490373
-0.013364
0.00530024
-0.0131423
0.00568979
-0.0128995
0.0060731
-0.0126474
0.00645091
-0.0123942
0.006824
-0.0121449
0.00719265
-0.0119025
0.0075574
-0.0116694
0.0079189
-0.0114464
0.00827732
-0.0112338
0.00863288
-0.0110316
0.0089859
-0.0108396
0.00933667
-0.0106574
0.00968528
-0.0104845
0.0100317
-0.0103201
0.0103762
-0.0101642
0.010719
-0.010016
0.01106
-0.00987493
0.0113993
-0.00974059
0.011737
-0.00961266
0.0120734
-0.00949068
0.0124083
-0.00937405
0.0127417
-0.00926253
0.0130737
-0.00915522
0.0134041
-0.00905037
-0.00894044
0.0137325
1.63145e-05
0.00116935
9.82489e-05
0.000712328
0.000259844
-0.00132489
0.000500942
-0.00398082
0.00081095
-0.00663528
0.0011742
-0.00895442
0.00157396
-0.0108048
0.00199537
-0.0121729
0.00242681
-0.0131107
0.00286001
-0.013695
0.00328921
-0.0140057
0.00371151
-0.0141153
0.00412563
-0.0140824
0.00453125
-0.0139531
0.00492851
-0.0137612
0.00531808
-0.0135319
0.00570088
-0.0132823
0.0060778
-0.0130244
0.0064493
-0.0127657
0.00681617
-0.0125118
0.00717916
-0.0122655
0.00753859
-0.0120289
0.00789484
-0.0118026
0.00824827
-0.0115872
0.00859929
-0.0113826
0.00894804
-0.0111883
0.0092945
-0.0110039
0.00963903
-0.010829
0.00998189
-0.010663
0.0103229
-0.0105052
0.0106621
-0.0103552
0.0109999
-0.0102127
0.0113362
-0.0100769
0.0116711
-0.00994755
0.0120045
-0.00982409
0.0123367
-0.0097062
0.0126675
-0.00959337
0.012997
-0.00948472
0.0133249
-0.00937826
-0.00926621
0.0136507
1.99874e-05
0.00114936
0.000110281
0.000622036
0.000282424
-0.00149704
0.000534257
-0.00423265
0.000853483
-0.0069545
0.00122352
-0.00932445
0.00162759
-0.0112089
0.00205079
-0.0125961
0.00248128
-0.0135412
0.00291134
-0.014125
0.00333611
-0.0144305
0.00375297
-0.0145322
0.00416064
-0.0144901
0.00455922
-0.0143516
0.00494949
-0.0141515
0.00533225
-0.0139146
0.00570806
-0.0136581
0.00607808
-0.0133944
0.00644328
-0.0131309
0.00680412
-0.0128726
0.00716111
-0.0126225
0.00751484
-0.0123826
0.00786593
-0.0121537
0.00821451
-0.0119358
0.0085606
-0.0117287
0.00890469
-0.0115324
0.00924708
-0.0113463
0.00958762
-0.0111695
0.0099264
-0.0110018
0.0102637
-0.0108425
0.0105996
-0.0106911
0.0109341
-0.0105472
0.0112672
-0.01041
0.011599
-0.0102794
0.0119297
-0.0101547
0.0122591
-0.0100356
0.0125872
-0.00992152
0.0129141
-0.00981157
0.0132394
-0.00970358
-0.00958939
0.0135626
2.37082e-05
0.00112566
0.000122522
0.000523219
0.000305233
-0.00167975
0.000567438
-0.00449485
0.000895782
-0.00728285
0.00127267
-0.00970135
0.00168053
-0.0116167
0.00210463
-0.0130202
0.00253383
-0.0139704
0.00296073
-0.0145519
0.0033805
-0.0148503
0.00379107
-0.0149427
0.00419211
-0.0148911
0.00458386
-0.0147434
0.0049667
-0.0145344
0.00534195
-0.0142899
0.00571089
-0.014027
0.00607425
-0.0137577
0.00643269
-0.0134893
0.00678705
-0.013227
0.00713823
-0.0129737
0.00748648
-0.0127309
0.00783194
-0.0124992
0.00817521
-0.012279
0.00851665
-0.0120701
0.00885621
-0.011872
0.00919399
-0.0116841
0.00953028
-0.0115058
0.00986521
-0.0113367
0.0101988
-0.0111761
0.0105311
-0.0110234
0.0108622
-0.0108782
0.0111921
-0.01074
0.0115209
-0.0106082
0.0118486
-0.0104824
0.0121752
-0.0103622
0.0125006
-0.010247
0.0128248
-0.0101358
0.0131475
-0.0100262
-0.00990986
0.0134679
2.75943e-05
0.00109806
0.000134757
0.000416059
0.000327965
-0.00187296
0.000600735
-0.00476762
0.000937898
-0.00762001
0.00132095
-0.0100844
0.00173227
-0.012028
0.00215722
-0.0134451
0.00258451
-0.0143977
0.00300726
-0.0149747
0.00342176
-0.0152648
0.00382619
-0.0153472
0.00422006
-0.015285
0.00460416
-0.0151275
0.00497967
-0.0149099
0.0053477
-0.0146579
0.00570928
-0.0143886
0.0060654
-0.0141138
0.00641725
-0.0138412
0.00676542
-0.0135751
0.00711032
-0.0133186
0.00745262
-0.0130732
0.00779271
-0.0128393
0.0081308
-0.0126171
0.0084671
-0.0124064
0.00880183
-0.0122067
0.00913515
-0.0120174
0.00946718
-0.0118378
0.00979799
-0.0116675
0.0101277
-0.0115058
0.0104563
-0.0113521
0.010784
-0.0112059
0.0111106
-0.0110667
0.0114363
-0.0109339
0.0117611
-0.0108072
0.0120849
-0.010686
0.0124076
-0.0105697
0.0127291
-0.0104572
0.013049
-0.0103462
-0.0102276
0.0133668
3.1412e-05
0.00106665
0.000147127
0.000300342
0.000350847
-0.00207668
0.000633716
-0.00505049
0.000979378
-0.00796567
0.00136856
-0.0104736
0.00178286
-0.0124423
0.00220776
-0.01387
0.00263277
-0.0148227
0.00305133
-0.0153932
0.00345992
-0.0156734
0.00385739
-0.0157446
0.00424399
-0.0156716
0.00462058
-0.0155041
0.00498834
-0.0152776
0.0053486
-0.0150182
0.00570288
-0.0147429
0.00605202
-0.014463
0.00639688
-0.014186
0.00673842
-0.0139167
0.0070772
-0.0136574
0.0074136
-0.0134096
0.00774797
-0.0131736
0.00808062
-0.0129498
0.0084118
-0.0127376
0.00874165
-0.0125366
0.00907029
-0.012346
0.00939787
-0.0121654
0.0097245
-0.0119941
0.0100502
-0.0118315
0.0103751
-0.011677
0.0106992
-0.01153
0.0110226
-0.01139
0.0113452
-0.0112565
0.0116669
-0.011129
0.0119878
-0.0110069
0.0123078
-0.0108896
0.0126266
-0.0107761
0.012944
-0.0106636
-0.0105428
0.0132591
3.53535e-05
0.0010313
0.000159443
0.000176252
0.000373503
-0.00229074
0.000666524
-0.00534352
0.0010204
-0.00831955
0.00141499
-0.0108682
0.00183178
-0.0128591
0.00225638
-0.0142946
0.00267855
-0.0152449
0.00309217
-0.0158069
0.00349456
-0.0160758
0.00388498
-0.016135
0.00426385
-0.0160505
0.0046324
-0.0158726
0.00499236
-0.0156376
0.00534498
-0.0153708
0.00569161
-0.0150895
0.00603343
-0.0148048
0.00637139
-0.014524
0.0067063
-0.0142516
0.00703868
-0.0139898
0.00736897
-0.0137398
0.00769755
-0.0135022
0.0080247
-0.0132769
0.00835058
-0.0130635
0.00867535
-0.0128613
0.0089992
-0.0126699
0.00932224
-0.0124885
0.00964455
-0.0123164
0.00996619
-0.0121531
0.0102872
-0.011998
0.0106077
-0.0118505
0.0109277
-0.01171
0.0112471
-0.0115759
0.0115658
-0.0114477
0.0118838
-0.0113249
0.0122011
-0.0112069
0.0125173
-0.0110923
0.0128321
-0.0109783
-0.0108551
0.0131444
3.92735e-05
0.00099202
0.000171791
4.37362e-05
0.000396077
-0.00251503
0.000698893
-0.00564633
0.00106059
-0.00868124
0.00146028
-0.0112679
0.00187907
-0.0132779
0.00230264
-0.0147182
0.00272141
-0.0156637
0.0031298
-0.0162153
0.00352558
-0.0164715
0.00390841
-0.0165179
0.00427933
-0.0164214
0.00463978
-0.0162331
0.00499165
-0.0159895
0.00533637
-0.0157155
0.00567527
-0.0154284
0.00600973
-0.0151393
0.00634067
-0.0148549
0.00666876
-0.0145797
0.00699461
-0.0143156
0.0073187
-0.0140639
0.00764136
-0.0138249
0.00796281
-0.0135984
0.00828323
-0.0133839
0.00860281
-0.0131809
0.00892172
-0.0129888
0.00924004
-0.0128068
0.00955787
-0.0126343
0.0098753
-0.0124706
0.0101924
-0.0123151
0.0105092
-0.0121673
0.0108256
-0.0120264
0.0111417
-0.011892
0.0114574
-0.0117634
0.0117727
-0.0116402
0.0120873
-0.0115215
0.0124009
-0.0114059
0.012713
-0.0112904
-0.0111647
0.0130226
4.31994e-05
0.000948824
0.000184079
-9.71449e-05
0.000418414
-0.00274936
0.000730774
-0.00595869
0.00109989
-0.00905036
0.00150412
-0.0116721
0.00192438
-0.0136982
0.00234642
-0.0151402
0.00276126
-0.0160785
0.0031639
-0.0166179
0.00355264
-0.0168603
0.0039276
-0.0168928
0.00429031
-0.0167841
0.00464248
-0.0165853
0.00498603
-0.016333
0.00532267
-0.0160521
0.00565382
-0.0157596
0.00598078
-0.0154662
0.00630452
-0.0151787
0.00662571
-0.0149009
0.00694493
-0.0146349
0.00726267
-0.0143817
0.00757923
-0.0141414
0.00789481
-0.013914
0.00820962
-0.0136987
0.00852385
-0.0134951
0.00883764
-0.0133026
0.00915108
-0.0131202
0.00946429
-0.0129475
0.00977736
-0.0127836
0.0100903
-0.0126281
0.0104033
-0.0124802
0.0107161
-0.0123393
0.0110289
-0.0122048
0.0113416
-0.0120761
0.011654
-0.0119526
0.0119659
-0.0118334
0.0122771
-0.0117171
0.0125867
-0.0116
-0.0114718
0.0128937
4.71314e-05
0.000901688
0.000196306
-0.000246316
0.000440468
-0.00299353
0.000762034
-0.00628026
0.00113816
-0.00942649
0.00154636
-0.0120803
0.0019675
-0.0141193
0.00238748
-0.0155602
0.0027979
-0.0164889
0.00319429
-0.0170143
0.00357557
-0.0172416
0.0039424
-0.0172597
0.00429663
-0.0171383
0.0046403
-0.0169289
0.0049754
-0.0166681
0.00530385
-0.0163806
0.00562713
-0.0160829
0.00594647
-0.0157856
0.00626288
-0.0154951
0.00657705
-0.015215
0.00688954
-0.0149473
0.00720077
-0.0146929
0.00751105
-0.0144517
0.00782061
-0.0142235
0.00812964
-0.0140078
0.00843832
-0.0138038
0.0087468
-0.013611
0.00905519
-0.0134286
0.0093636
-0.0132559
0.00967212
-0.0130922
0.00998082
-0.0129368
0.0102897
-0.0127891
0.0105989
-0.0126484
0.0109083
-0.0125142
0.0112179
-0.0123856
0.0115274
-0.0122622
0.0118368
-0.0121428
0.0121456
-0.0120258
0.012453
-0.0119074
-0.0117766
0.0127577
5.10363e-05
0.000850653
0.000208415
-0.000403696
0.000462184
-0.0032473
0.000792579
-0.00661065
0.00117524
-0.00980915
0.00158684
-0.0124919
0.00200826
-0.0145408
0.00242562
-0.0159776
0.00283106
-0.0168944
0.00322078
-0.017404
0.00359424
-0.017615
0.00395266
-0.0176181
0.00429817
-0.0174839
0.00463312
-0.0172639
0.00495968
-0.0169947
0.00527983
-0.0167007
0.00559511
-0.0163981
0.00590674
-0.0160972
0.00621571
-0.015804
0.00652275
-0.0155221
0.00682836
-0.015253
0.00713293
-0.0149975
0.00743677
-0.0147556
0.00774011
-0.0145269
0.00804318
-0.0143108
0.00834613
-0.0141068
0.00864908
-0.013914
0.00895219
-0.0137317
0.00925556
-0.0135593
0.00955932
-0.0133959
0.00986355
-0.013241
0.0101683
-0.0130938
0.0104736
-0.0129537
0.0107795
-0.01282
0.0110859
-0.012692
0.0113927
-0.012569
0.0116996
-0.0124497
0.0120061
-0.0123324
0.0123114
-0.0122127
-0.0120793
0.0126141
5.49035e-05
0.000795747
0.000220357
-0.000569147
0.000483479
-0.00351042
0.000822294
-0.00694947
0.00121101
-0.0101979
0.00162543
-0.0129063
0.00204648
-0.0149618
0.00246066
-0.0163917
0.00286059
-0.0172943
0.00324321
-0.0177866
0.00360852
-0.0179803
0.00395824
-0.0179678
0.00429483
-0.0178204
0.0046209
-0.01759
0.00493879
-0.0173126
0.00525054
-0.0170125
0.00555773
-0.0167053
0.00586155
-0.016401
0.00616299
-0.0161055
0.00646276
-0.0158218
0.00676135
-0.0155515
0.0070591
-0.0152952
0.00735633
-0.0150528
0.00765329
-0.0148238
0.00795018
-0.0146077
0.00824715
-0.0144038
0.00854434
-0.0142112
0.00884191
-0.0140293
0.00914
-0.0138574
0.00943876
-0.0136947
0.00973826
-0.0135405
0.0100386
-0.0133942
0.0103398
-0.013255
0.010642
-0.0131222
0.0109452
-0.0129952
0.0112491
-0.0128729
0.0115536
-0.0127542
0.011858
-0.0126368
0.0121614
-0.012516
-0.01238
0.0124621
5.87318e-05
0.000737015
0.000232098
-0.000742515
0.000504291
-0.00378261
0.000851073
-0.00729626
0.00124531
-0.0105921
0.00166199
-0.013323
0.00208203
-0.0153818
0.00249246
-0.0168022
0.00288634
-0.0176882
0.00326145
-0.0181617
0.00361828
-0.0183372
0.00395905
-0.0183086
0.00428654
-0.0181479
0.0046036
-0.017907
0.00491271
-0.0176217
0.00521595
-0.0173157
0.00551494
-0.0170043
0.00581089
-0.016697
0.0061047
-0.0163993
0.00639708
-0.0161142
0.00668849
-0.015843
0.00697928
-0.015586
0.00726973
-0.0153432
0.0075601
-0.0151142
0.00785058
-0.0148982
0.00814132
-0.0146945
0.00843248
-0.0145024
0.00872424
-0.0143211
0.00901677
-0.0141499
0.00931019
-0.0139881
0.00960466
-0.013835
0.00990029
-0.0136898
0.0101972
-0.0135519
0.0104955
-0.0134206
0.0107952
-0.0132949
0.0110962
-0.0131739
0.0113982
-0.0130562
0.0117005
-0.0129391
0.012002
-0.0128176
-0.0126789
0.0123009
6.25077e-05
0.000674508
0.000243595
-0.000923601
0.00052456
-0.00406358
0.000878841
-0.00765054
0.00127801
-0.0109913
0.00169638
-0.0137414
0.00211476
-0.0158002
0.00252084
-0.0172083
0.00290821
-0.0180755
0.00327538
-0.0185289
0.00362343
-0.0186852
0.003955
-0.0186401
0.00427323
-0.0184662
0.00458119
-0.018215
0.00488144
-0.0179219
0.00517607
-0.0176104
0.00546678
-0.017295
0.00575476
-0.016985
0.00604086
-0.0166854
0.00632572
-0.0163991
0.00660981
-0.016127
0.00689348
-0.0158697
0.00717698
-0.0156267
0.00746055
-0.0153978
0.00774437
-0.015182
0.00802862
-0.0149787
0.00831347
-0.0147872
0.00859911
-0.0146067
0.00888571
-0.0144365
0.00917343
-0.0142758
0.00946248
-0.014124
0.00975303
-0.0139804
0.0100453
-0.0138441
0.0103393
-0.0137146
0.0106352
-0.0135908
0.010933
-0.0134717
0.0112324
-0.0133556
0.0115326
-0.0132393
0.0118324
-0.0131174
-0.0129761
0.0121296
6.62205e-05
0.000608286
0.000254804
-0.00111218
0.000544205
-0.00435298
0.000905523
-0.00801186
0.001309
-0.0113948
0.00172844
-0.0141608
0.00214455
-0.0162163
0.00254569
-0.0176094
0.00292609
-0.0184559
0.00328491
-0.0188877
0.00362388
-0.0190242
0.00394606
-0.0189623
0.00425489
-0.018775
0.00455364
-0.0185137
0.00484495
-0.0182132
0.00513093
-0.0178963
0.00541328
-0.0175774
0.00569319
-0.0172649
0.00597147
-0.0169637
0.00624871
-0.0166763
0.00652536
-0.0164037
0.00680175
-0.0161461
0.00707812
-0.0159031
0.00735467
-0.0156743
0.00763159
-0.0154589
0.00790907
-0.0152562
0.00818729
-0.0150654
0.00846644
-0.0148858
0.00874671
-0.0147168
0.00902831
-0.0145574
0.00931148
-0.0144072
0.00959646
-0.0142654
0.0098835
-0.0141312
0.0101728
-0.0140039
0.0104645
-0.0138826
0.0107588
-0.0137659
0.0110553
-0.0136521
0.0113533
-0.0135373
0.0116513
-0.0134154
-0.0132717
0.0119469
6.98614e-05
0.000538425
0.000265692
-0.00130802
0.000563149
-0.00465044
0.000931029
-0.00837974
0.00133819
-0.0118019
0.00175805
-0.0145807
0.00217128
-0.0166295
0.0025669
-0.018005
0.00293988
-0.0188289
0.00328998
-0.0192378
0.0036196
-0.0193538
0.00393222
-0.0192749
0.00423153
-0.0190743
0.00452096
-0.0188032
0.00480327
-0.0184955
0.00508057
-0.0181736
0.0053545
-0.0178513
0.00562626
-0.0175366
0.00589662
-0.017234
0.00616614
-0.0169458
0.00643522
-0.0166728
0.00670417
-0.016415
0.00697321
-0.0161721
0.00724253
-0.0159436
0.00751231
-0.0157287
0.00778273
-0.0155266
0.00805398
-0.0153367
0.00832624
-0.0151581
0.00859974
-0.0149903
0.00887473
-0.0148324
0.00915149
-0.014684
0.00943032
-0.0145442
0.00971152
-0.0144124
0.00999543
-0.0142878
0.0102824
-0.0141695
0.0105724
-0.014056
0.0108655
-0.0139452
0.0111609
-0.0138327
0.0114568
-0.0137113
-0.0135655
0.0117506
7.34178e-05
0.000465007
0.000276236
-0.00151083
0.000581324
-0.00495553
0.000955268
-0.00875369
0.00136548
-0.0122121
0.0017851
-0.0150003
0.00219485
-0.0170393
0.00258438
-0.0183945
0.00294948
-0.019194
0.00329054
-0.0195789
0.00361055
-0.0196738
0.00391346
-0.0195778
0.00420316
-0.019364
0.0044832
-0.0190832
0.00475645
-0.0187688
0.00502503
-0.0184422
0.00529049
-0.0181168
0.00555403
-0.0178002
0.00581639
-0.0174964
0.00607809
-0.0172075
0.00633948
-0.0169342
0.00660083
-0.0166764
0.00686237
-0.0164337
0.00712425
-0.0162055
0.00738664
-0.0159911
0.0076497
-0.0157897
0.00791363
-0.0156006
0.0081786
-0.0154231
0.00844486
-0.0152565
0.0087127
-0.0151003
0.00898243
-0.0149537
0.00925439
-0.0148161
0.00952898
-0.014687
0.00980666
-0.0145655
0.0100879
-0.0144507
0.0103729
-0.014341
0.0106617
-0.014234
0.0109535
-0.0141245
0.0112467
-0.0140045
-0.013857
0.0115382
7.68713e-05
0.000388136
0.000286413
-0.00172037
0.000598681
-0.0052678
0.000978151
-0.00913316
0.00139079
-0.0126248
0.00180948
-0.015419
0.00221518
-0.017445
0.00259806
-0.0187774
0.00295485
-0.0195508
0.00328656
-0.0199106
0.00359674
-0.019984
0.00388979
-0.0198709
0.00416982
-0.019644
0.00444043
-0.0193538
0.00470457
-0.0190329
0.00496438
-0.018702
0.00522135
-0.0183738
0.00547661
-0.0180554
0.0057309
-0.0177507
0.00598468
-0.0174613
0.00623826
-0.0171877
0.00649189
-0.01693
0.00674575
-0.0166875
0.00699999
-0.0164598
0.00725475
-0.0162459
0.00751017
-0.0160451
0.00776642
-0.0158569
0.00802369
-0.0156804
0.00828223
-0.0155151
0.00854232
-0.0153604
0.0088043
-0.0152157
0.00906856
-0.0150804
0.0093356
-0.014954
0.00960598
-0.0148359
0.00988026
-0.014725
0.0101589
-0.0146197
0.0104421
-0.0145171
0.0107292
-0.0144116
0.0110184
-0.0142937
-0.0141451
0.0113065
8.02037e-05
0.000307932
0.000296205
-0.00193637
0.000615186
-0.00558678
0.000999607
-0.00951758
0.00141405
-0.0130392
0.00183112
-0.0158361
0.00223216
-0.0178461
0.00260788
-0.0191531
0.00295594
-0.0198989
0.00327802
-0.0202327
0.00357819
-0.0202842
0.00386124
-0.0201539
0.00413154
-0.0199143
0.00439271
-0.019615
0.00464771
-0.0192879
0.00489871
-0.018953
0.00514717
-0.0186222
0.00539412
-0.0183024
0.00564028
-0.0179969
0.00588605
-0.0177071
0.00613173
-0.0174334
0.00637751
-0.0171758
0.00662356
-0.0169336
0.00686998
-0.0167062
0.00711688
-0.0164927
0.00736438
-0.0162926
0.00761261
-0.0161051
0.00786177
-0.0159295
0.00811207
-0.0157654
0.00836377
-0.0156121
0.00861724
-0.0154691
0.00887289
-0.0153361
0.00913129
-0.0152124
0.00939308
-0.0150977
0.00965897
-0.0149908
0.0099296
-0.0148903
0.0102053
-0.0147929
0.0104858
-0.0146921
0.0107693
-0.0145772
-0.0144282
0.0110524
8.34057e-05
0.000224526
0.000305597
-0.00215856
0.000630818
-0.005912
0.00101959
-0.00990635
0.0014352
-0.0134548
0.00184995
-0.0162508
0.00224573
-0.0182418
0.00261381
-0.0195212
0.00295271
-0.0202378
0.00326493
-0.0205449
0.00355493
-0.0205742
0.00382787
-0.0204269
0.00408837
-0.0201748
0.0043401
-0.0198667
0.00458597
-0.0195338
0.00482814
-0.0191952
0.00506805
-0.0188621
0.00530668
-0.018541
0.00554466
-0.0182348
0.00578237
-0.0179448
0.00602006
-0.0176711
0.00625791
-0.0174136
0.00649601
-0.0171717
0.00673445
-0.0169446
0.00697329
-0.0167316
0.00721262
-0.0165319
0.00745253
-0.016345
0.00769318
-0.0161702
0.00793474
-0.0160069
0.00817745
-0.0158548
0.00842163
-0.0157133
0.00866771
-0.0155821
0.00891628
-0.015461
0.00916802
-0.0153494
0.00942374
-0.0152466
0.00968426
-0.0151509
0.00995025
-0.0150589
0.0102216
-0.0149634
0.0104968
-0.0148524
-0.0147041
0.0107727
8.64794e-05
0.000138046
0.000314578
-0.00238666
0.000645572
-0.006243
0.00103806
-0.0102988
0.0014542
-0.013871
0.00186596
-0.0166626
0.00225585
-0.0186317
0.00261581
-0.0198812
0.00294519
-0.0205672
0.00324727
-0.020847
0.00352698
-0.0208539
0.00378974
-0.0206896
0.0040404
-0.0204255
0.00428268
-0.020109
0.00451942
-0.0197705
0.00475276
-0.0194285
0.00498414
-0.0190935
0.00521443
-0.0187713
0.00544419
-0.0184646
0.00567379
-0.0181744
0.00590344
-0.0179008
0.00613328
-0.0176435
0.00636335
-0.0174018
0.00659369
-0.0171749
0.00682432
-0.0169622
0.00705528
-0.0167629
0.00728662
-0.0165764
0.00751843
-0.016402
0.00775082
-0.0162393
0.00798396
-0.0160879
0.00821813
-0.0159475
0.0084537
-0.0158177
0.0086912
-0.0156985
0.00893131
-0.0155895
0.00917488
-0.0154901
0.00942289
-0.0153989
0.00967627
-0.0153122
0.00993532
-0.0152225
0.010199
-0.0151161
-0.0149699
0.0104648
8.94361e-05
4.8609e-05
0.000323147
-0.00262037
0.000659452
-0.0065793
0.00105502
-0.0106944
0.00147102
-0.014287
0.00187909
-0.0170706
0.00226246
-0.0190151
0.00261387
-0.0202326
0.00293337
-0.0208867
0.00322506
-0.0211386
0.00349439
-0.0211232
0.00374693
-0.0209422
0.00398772
-0.0206663
0.00422054
-0.0203418
0.00444818
-0.0199982
0.00467272
-0.0196531
0.00489554
-0.0193163
0.00511748
-0.0189932
0.00533902
-0.0186861
0.00556049
-0.0183958
0.00578208
-0.0181224
0.00600386
-0.0178652
0.00622584
-0.0176238
0.00644801
-0.0173971
0.00667033
-0.0171845
0.0068928
-0.0169854
0.0071154
-0.0167989
0.00733812
-0.0166247
0.00756101
-0.0164622
0.00778414
-0.016311
0.00800766
-0.016171
0.00823185
-0.0160419
0.00845711
-0.0159237
0.00868404
-0.0158164
0.00891343
-0.0157195
0.00914635
-0.0156318
0.00938398
-0.0155499
0.00962714
-0.0154657
0.00987564
-0.0153646
-0.0152222
0.010128
9.22914e-05
-4.3683e-05
0.000331307
-0.00285939
0.000672463
-0.00692046
0.00107046
-0.0110924
0.00148561
-0.0147021
0.00188935
-0.0174744
0.00226557
-0.0193913
0.00260796
-0.020575
0.00291729
-0.021196
0.00319837
-0.0214197
0.00345719
-0.021382
0.00369952
-0.0211845
0.00393042
-0.0208972
0.00415378
-0.0205652
0.00437235
-0.0202167
0.00458811
-0.0198688
0.0048024
-0.0195306
0.00501599
-0.0192068
0.00522931
-0.0188995
0.00544265
-0.0186092
0.00565617
-0.0183359
0.00586989
-0.018079
0.00608377
-0.0178376
0.00629775
-0.0176111
0.00651175
-0.0173985
0.00672567
-0.0171993
0.00693944
-0.0170127
0.00715296
-0.0168382
0.00736616
-0.0166754
0.00757897
-0.0165239
0.00779141
-0.0163834
0.00800356
-0.0162541
0.00821564
-0.0161358
0.00842804
-0.0160288
0.0086414
-0.0159329
0.00885676
-0.0158471
0.00907551
-0.0157686
0.00929907
-0.0156892
0.00952847
-0.015594
-0.0154577
0.00976395
9.50602e-05
-0.000138744
0.000339061
-0.00310338
0.000684604
-0.00726601
0.00108437
-0.0114922
0.00149796
-0.0151157
0.00189671
-0.0178731
0.00226517
-0.0197598
0.00259809
-0.0209079
0.00289698
-0.0214949
0.00316726
-0.02169
0.00341547
-0.0216303
0.00364757
-0.0214166
0.00386861
-0.0211182
0.00408252
-0.0207791
0.00429205
-0.0204263
0.00449908
-0.0200759
0.00470485
-0.0197364
0.0049101
-0.0194121
0.00511522
-0.0191046
0.00532046
-0.0188144
0.00552593
-0.0185413
0.00573161
-0.0182846
0.00593742
-0.0180434
0.00614325
-0.0178169
0.00634896
-0.0176042
0.00655439
-0.0174047
0.00675937
-0.0172177
0.00696371
-0.0170426
0.00716719
-0.0168789
0.00736962
-0.0167263
0.0075708
-0.0165846
0.00777059
-0.0164538
0.00796893
-0.0163342
0.0081659
-0.0162258
0.00836187
-0.0161289
0.00855769
-0.016043
0.00875485
-0.0159658
0.0089555
-0.0158899
0.00916227
-0.0158008
-0.0156733
0.00937792
9.77526e-05
-0.000236496
0.000346413
-0.00335204
0.000695866
-0.00761546
0.00109676
-0.0118931
0.00150804
-0.015527
0.00190114
-0.0182662
0.00226129
-0.0201199
0.00258427
-0.0212309
0.00287245
-0.0217831
0.00313179
-0.0219493
0.00336931
-0.0218678
0.00359115
-0.0216385
0.00380237
-0.0213294
0.00400686
-0.0209836
0.00420739
-0.0206268
0.00440572
-0.0202742
0.00460302
-0.0199337
0.00479995
-0.019609
0.00499691
-0.0193015
0.00519409
-0.0190116
0.00539155
-0.0187388
0.00558925
-0.0184823
0.00578706
-0.0182413
0.00598483
-0.0180147
0.00618237
-0.0178018
0.00637944
-0.0176018
0.0065758
-0.0174141
0.00677115
-0.0172379
0.00696513
-0.0170729
0.00715738
-0.0169185
0.00734748
-0.0167747
0.00753503
-0.0166414
0.00771961
-0.0165187
0.00790092
-0.0164071
0.00807892
-0.0163069
0.0082541
-0.0162181
0.00842796
-0.0161396
0.00860336
-0.0160653
0.00878493
-0.0159823
-0.0158671
0.00897867
0.00010037
-0.000336866
0.000353361
-0.00360503
0.000706226
-0.00796833
0.00110759
-0.0122944
0.00151582
-0.0159352
0.00190263
-0.018653
0.00225392
-0.0204712
0.00256653
-0.0215435
0.00284376
-0.0220603
0.00309206
-0.0221976
0.00331879
-0.0220945
0.00353037
-0.0218501
0.00373179
-0.0215309
0.00392693
-0.0211787
0.00411848
-0.0208183
0.00430816
-0.0204639
0.00449702
-0.0201226
0.00468568
-0.0197977
0.00487452
-0.0194904
0.0050637
-0.0192008
0.00525322
-0.0189283
0.00544301
-0.0186721
0.00563294
-0.0184312
0.0058228
-0.0182045
0.00601235
-0.0179913
0.00620132
-0.0177908
0.00638936
-0.0176021
0.00657607
-0.0174246
0.006761
-0.0172578
0.00694357
-0.0171011
0.00712317
-0.0169543
0.0072991
-0.0168173
0.00747058
-0.0166902
0.00763686
-0.0165734
0.00779736
-0.0164674
0.00795212
-0.0163729
0.00810242
-0.0162899
0.00825181
-0.0162147
0.00840708
-0.0161376
-0.0160381
0.00857808
0.000102903
-0.00043977
0.000359896
-0.00386202
0.000715648
-0.00832408
0.00111685
-0.0126956
0.00152127
-0.0163396
0.00190114
-0.0190329
0.0022431
-0.0208132
0.00254494
-0.0218453
0.00281096
-0.0223263
0.00304812
-0.0224348
0.00326403
-0.0223104
0.00346532
-0.0220513
0.00365699
-0.0217225
0.00384282
-0.0213645
0.00402545
-0.021001
0.00420651
-0.0206449
0.00438696
-0.020303
0.00456742
-0.0199781
0.0047482
-0.0196712
0.00492943
-0.019382
0.0051111
-0.01911
0.00529311
-0.0188541
0.0054753
-0.0186134
0.00565745
-0.0183867
0.00583928
-0.0181732
0.00602046
-0.017972
0.0062006
-0.0177822
0.00637922
-0.0176032
0.00655574
-0.0174343
0.00672945
-0.0172748
0.00689953
-0.0171244
0.00706501
-0.0169828
0.00722476
-0.01685
0.00737757
-0.0167262
0.0075223
-0.0166121
0.00765839
-0.016509
0.0077867
-0.0164183
0.00791123
-0.0163392
0.0080408
-0.0162672
-0.0161867
0.00818939
0.000105337
-0.000545107
0.000366007
-0.00412269
0.000724097
-0.00868217
0.00112449
-0.013096
0.0015244
-0.0167396
0.00189666
-0.0194052
0.00222881
-0.0211453
0.00251954
-0.0221361
0.00277412
-0.0225809
0.00300005
-0.0226607
0.00320514
-0.0225155
0.00339613
-0.0222423
0.00357809
-0.0219045
0.00375466
-0.0215411
0.00392841
-0.0211747
0.00410087
-0.0208174
0.00427298
-0.0204751
0.00444528
-0.0201504
0.00461807
-0.0198439
0.00479144
-0.0195554
0.00496536
-0.0192839
0.00513972
-0.0190285
0.00531435
-0.018788
0.00548902
-0.0185614
0.00566343
-0.0183476
0.00583724
-0.0181458
0.00601001
-0.017955
0.0061812
-0.0177744
0.00635016
-0.0176033
0.00651607
-0.0174407
0.00667798
-0.0172863
0.00683468
-0.0171395
0.00698477
-0.0170001
0.00712661
-0.016868
0.00725853
-0.016744
0.00737926
-0.0166297
0.007489
-0.016528
0.00759171
-0.0164419
0.00769773
-0.0163732