/*--------------------------------*- C++ -*----------------------------------*\
  =========                 |
  \\      /  F ield         | OpenFOAM: The Open Source CFD Toolbox
   \\    /   O peration     | Website:  https://openfoam.org
    \\  /    A nd           | Version:  7
     \\/     M anipulation  |
\*---------------------------------------------------------------------------*/
FoamFile
{
    version     2.0;
    format      ascii;
    class       volVectorField;
    location    "0.5";
    object      U;
}
// * * * * * * * * * * * * * * * * * * * * * * * * * * * * * * * * * * * * * //

dimensions      [0 1 -1 0 0 0 0];

internalField   nonuniform List<vector> 
32000
(
(-0.00273805 0.0485033 -3.74129e-21)
(-0.00143952 0.0441998 0)
(0.00638842 -0.01799 -3.31529e-20)
(0.0196984 -0.103782 0)
(0.0378641 -0.191131 3.46852e-20)
(0.0602069 -0.268533 0)
(0.0853707 -0.331068 3.60159e-20)
(0.111782 -0.378112 -2.74183e-20)
(0.138262 -0.4111 3.02018e-23)
(0.164044 -0.432371 3.11621e-23)
(0.188657 -0.444403 -9.52657e-21)
(0.211808 -0.449473 3.85032e-20)
(0.233381 -0.449492 0)
(0.253378 -0.445955 -9.8236e-21)
(0.271864 -0.440036 9.86415e-21)
(0.288913 -0.432594 0)
(0.304617 -0.424257 4.98487e-20)
(0.319104 -0.415459 -1.00084e-20)
(0.332496 -0.406501 0)
(0.344893 -0.397591 2.01671e-20)
(0.35638 -0.388866 2.01282e-20)
(0.367051 -0.380409 0)
(0.376992 -0.372271 0)
(0.386257 -0.364473 0)
(0.394909 -0.357038 0)
(0.403005 -0.34996 0)
(0.410597 -0.343218 0)
(0.417734 -0.336811 0)
(0.42444 -0.330721 -4.00711e-20)
(0.43076 -0.324937 0)
(0.436719 -0.319425 3.9871e-20)
(0.442345 -0.314181 0)
(0.447667 -0.309196 0)
(0.452702 -0.304429 0)
(0.457479 -0.299882 -3.93624e-20)
(0.462011 -0.295546 -1.96693e-20)
(0.466305 -0.291388 5.87386e-20)
(0.470389 -0.287405 -3.09449e-23)
(0.47433 -0.283537 3.88762e-20)
(0.477706 -0.279587 -3.32015e-23)
(-0.00353001 0.0485498 0)
(-0.00159299 0.0425174 6.45686e-20)
(0.00820824 -0.0222173 1.65899e-20)
(0.0240153 -0.110772 -4.36194e-23)
(0.0446713 -0.200644 -1.74026e-20)
(0.0691702 -0.280079 0)
(0.0960065 -0.344049 3.57215e-20)
(0.123604 -0.391957 -3.63066e-20)
(0.150815 -0.425318 0)
(0.176931 -0.446577 -7.49905e-20)
(0.201578 -0.45834 0)
(0.224541 -0.462958 -1.15211e-19)
(0.245774 -0.462426 0)
(0.265327 -0.458288 0)
(0.283302 -0.451762 3.94154e-20)
(0.29982 -0.443725 -3.95416e-20)
(0.31499 -0.434817 -3.98533e-20)
(0.328951 -0.425475 0)
(0.341833 -0.416011 1.2007e-19)
(0.353746 -0.406635 -4.01048e-20)
(0.364784 -0.397478 -2.90697e-23)
(0.375029 -0.388614 -1.20568e-19)
(0.384575 -0.380106 -8.03927e-20)
(0.393481 -0.37197 -4.0308e-20)
(0.401801 -0.364213 1.20545e-19)
(0.40959 -0.356832 -1.20511e-19)
(0.416898 -0.349813 1.20492e-19)
(0.423773 -0.343151 -1.6009e-19)
(0.430241 -0.336815 -3.97756e-20)
(0.436339 -0.330797 2.34423e-22)
(0.442095 -0.325077 -1.19144e-19)
(0.447528 -0.319627 -7.92778e-20)
(0.452676 -0.314446 1.58164e-19)
(0.45755 -0.309506 -1.57464e-19)
(0.462166 -0.304786 -3.90583e-20)
(0.466563 -0.300281 -1.56503e-19)
(0.470723 -0.295977 6.7069e-23)
(0.474681 -0.291844 3.885e-20)
(0.478496 -0.287825 -1.54461e-19)
(0.481733 -0.283727 -2.026e-19)
(-0.00436299 0.0484779 -1.48125e-20)
(-0.00173809 0.0406826 -3.23338e-20)
(0.0102114 -0.0265974 -1.47963e-19)
(0.0287067 -0.117871 0)
(0.0519834 -0.210242 1.72591e-20)
(0.0787367 -0.291618 -1.7552e-20)
(0.107336 -0.35693 -2.14605e-19)
(0.136125 -0.4056 7.29011e-20)
(0.16405 -0.439242 -3.69841e-20)
(0.19048 -0.460414 2.24252e-19)
(0.215129 -0.471843 7.57491e-20)
(0.237859 -0.475973 3.84905e-20)
(0.258704 -0.474866 -1.54267e-19)
(0.277772 -0.470123 0)
(0.295206 -0.462989 0)
(0.311155 -0.454366 7.89923e-20)
(0.325759 -0.444905 1.90251e-22)
(0.339169 -0.435043 -7.94893e-20)
(0.351521 -0.425099 -7.99693e-20)
(0.362929 -0.415273 -1.59719e-19)
(0.373497 -0.405707 2.40192e-19)
(0.383305 -0.396466 2.28978e-22)
(0.392443 -0.387607 6.26777e-23)
(0.400973 -0.379149 8.01563e-20)
(0.408948 -0.371095 -1.60619e-19)
(0.416423 -0.363437 3.20227e-19)
(0.423437 -0.356154 0)
(0.430044 -0.349248 8.00124e-20)
(0.436264 -0.342687 7.98458e-20)
(0.442125 -0.336446 1.59244e-19)
(0.447673 -0.330526 2.33864e-22)
(0.452912 -0.324891 0)
(0.457867 -0.31952 7.88281e-20)
(0.462577 -0.314409 -7.82227e-20)
(0.467044 -0.30953 -7.77985e-20)
(0.471275 -0.304867 2.34254e-19)
(0.475295 -0.300421 -2.32372e-19)
(0.479135 -0.296139 1.54896e-19)
(0.482824 -0.29199 -2.30464e-19)
(0.485898 -0.287732 8.03787e-20)
(-0.0051718 0.0481924 1.17944e-19)
(-0.00175063 0.0385118 -1.28051e-19)
(0.0125016 -0.0313634 2.62399e-19)
(0.033801 -0.125272 0)
(0.0598376 -0.220056 1.02608e-19)
(0.0889339 -0.303205 1.74707e-19)
(0.119301 -0.369727 3.62935e-20)
(0.149302 -0.41903 1.17104e-22)
(0.177935 -0.452848 1.10079e-19)
(0.204642 -0.473854 -3.79331e-20)
(0.229244 -0.484892 1.88272e-19)
(0.251703 -0.488491 -2.28625e-19)
(0.272123 -0.486784 2.31129e-19)
(0.290667 -0.481431 -7.77165e-20)
(0.307518 -0.473697 7.8038e-20)
(0.322867 -0.464501 -1.56905e-19)
(0.336878 -0.454498 -2.36734e-19)
(0.349714 -0.444142 7.91942e-20)
(0.361517 -0.433744 -7.96158e-20)
(0.372405 -0.423498 2.39343e-19)
(0.382487 -0.413542 -1.59973e-19)
(0.391845 -0.40395 -1.59535e-19)
(0.400561 -0.394765 0)
(0.408704 -0.386008 0)
(0.416325 -0.377671 -1.59486e-19)
(0.423481 -0.369758 -1.5993e-19)
(0.430194 -0.362235 -1.59097e-19)
(0.436515 -0.355093 0)
(0.442487 -0.348325 0)
(0.448113 -0.341886 -3.16649e-19)
(0.453428 -0.335765 -3.27226e-22)
(0.458471 -0.329955 1.57818e-19)
(0.463245 -0.324419 -1.56834e-19)
(0.467767 -0.319138 -1.56633e-19)
(0.472069 -0.314105 1.56373e-19)
(0.476154 -0.309307 0)
(0.480032 -0.304708 1.55027e-19)
(0.48373 -0.3003 -3.08006e-19)
(0.487287 -0.29601 3.07021e-19)
(0.490204 -0.291619 -3.21825e-19)
(-0.00596873 0.04782 -5.91487e-20)
(-0.0016638 0.0360976 9.60505e-20)
(0.0150413 -0.0363879 -1.30919e-19)
(0.0393047 -0.132928 0)
(0.068199 -0.229957 -1.71204e-19)
(0.0997122 -0.3148 -1.04942e-19)
(0.131892 -0.382394 1.42275e-19)
(0.163094 -0.432206 0)
(0.192398 -0.466096 -2.20159e-19)
(0.219353 -0.486852 -7.46764e-20)
(0.243877 -0.497441 -7.53274e-20)
(0.266025 -0.500482 1.52485e-19)
(0.285972 -0.49816 -1.53364e-19)
(0.303952 -0.492192 7.71956e-20)
(0.320194 -0.483867 0)
(0.334918 -0.474113 2.35302e-19)
(0.348309 -0.463592 7.90771e-20)
(0.360543 -0.452759 -1.58153e-19)
(0.371781 -0.441929 3.16911e-19)
(0.382139 -0.431294 -3.17641e-19)
(0.391721 -0.420978 3.17683e-19)
(0.400616 -0.411058 1.59534e-19)
(0.408904 -0.401571 0)
(0.416655 -0.39254 1.59437e-19)
(0.42391 -0.383941 4.66086e-22)
(0.430729 -0.375781 0)
(0.437147 -0.368049 1.59097e-19)
(0.443179 -0.360696 -1.58663e-19)
(0.448878 -0.353715 1.58003e-19)
(0.454273 -0.347097 3.16022e-19)
(0.459365 -0.340805 -3.14685e-19)
(0.464182 -0.334818 3.13896e-19)
(0.468768 -0.329122 0)
(0.473124 -0.323693 0)
(0.477247 -0.318515 3.10517e-19)
(0.481171 -0.313576 0)
(0.484905 -0.308848 0)
(0.488469 -0.304315 -3.06526e-19)
(0.49189 -0.299893 3.05219e-19)
(0.494625 -0.295368 1.60679e-19)
(-0.00674202 0.0472699 2.92919e-20)
(-0.00143511 0.033357 0)
(0.0178687 -0.041722 2.59556e-19)
(0.0452277 -0.14082 3.3329e-20)
(0.0770848 -0.24 3.41878e-20)
(0.111053 -0.326389 2.07773e-19)
(0.145053 -0.394907 2.82124e-19)
(0.177458 -0.445102 0)
(0.207422 -0.478961 7.30684e-20)
(0.23458 -0.499396 2.21338e-19)
(0.258968 -0.50947 2.98786e-19)
(0.280764 -0.511912 -7.57865e-20)
(0.30021 -0.508969 -2.28664e-19)
(0.317589 -0.502394 0)
(0.333184 -0.493481 3.0957e-19)
(0.347256 -0.483182 0)
(0.360012 -0.472174 4.69829e-19)
(0.371631 -0.460897 -1.5718e-19)
(0.382279 -0.449652 0)
(0.39209 -0.438646 -1.58382e-19)
(0.401169 -0.428005 -4.73328e-22)
(0.409595 -0.417793 -1.5784e-19)
(0.417438 -0.40802 -1.58521e-19)
(0.42479 -0.398726 1.58817e-19)
(0.431688 -0.389906 -1.58401e-19)
(0.438154 -0.381523 0)
(0.44425 -0.373573 -1.5832e-19)
(0.450015 -0.366035 1.57716e-19)
(0.455444 -0.358874 0)
(0.460569 -0.352077 0)
(0.465438 -0.345624 0)
(0.470058 -0.339482 -3.1277e-19)
(0.474438 -0.333633 3.11118e-19)
(0.478601 -0.328063 0)
(0.482562 -0.322754 -1.54934e-19)
(0.486329 -0.31768 0)
(0.489909 -0.312836 3.07115e-19)
(0.493328 -0.308176 -1.52101e-19)
(0.496611 -0.303635 -3.0453e-19)
(0.49917 -0.298976 3.19132e-19)
(-0.00746879 0.0465543 2.03595e-19)
(-0.00103709 0.0303324 -2.84372e-19)
(0.0210022 -0.0473763 -4.85547e-19)
(0.0515591 -0.148958 -2.64415e-19)
(0.0864502 -0.25014 -6.78519e-20)
(0.12294 -0.337927 -1.38849e-19)
(0.158787 -0.407244 -6.33274e-19)
(0.192364 -0.457692 -2.13886e-19)
(0.222936 -0.491402 -3.62399e-19)
(0.250271 -0.511438 -3.68904e-19)
(0.274499 -0.520959 -5.21925e-19)
(0.295886 -0.522779 -3.00814e-19)
(0.314772 -0.519193 1.22783e-21)
(0.331523 -0.512 -3.06193e-19)
(0.346459 -0.502525 -3.09567e-19)
(0.359848 -0.491714 -4.65722e-19)
(0.371933 -0.480226 3.11025e-19)
(0.38293 -0.468525 -1.56563e-19)
(0.392992 -0.456912 0)
(0.402237 -0.445576 3.14567e-19)
(0.410782 -0.434615 0)
(0.418743 -0.424125 6.31993e-19)
(0.426162 -0.414117 0)
(0.433083 -0.404583 -1.58188e-19)
(0.439599 -0.395542 1.58724e-19)
(0.445745 -0.386969 -3.15205e-19)
(0.45152 -0.378829 0)
(0.456971 -0.371108 -3.14777e-19)
(0.462136 -0.363787 3.13468e-19)
(0.467022 -0.356834 0)
(0.471646 -0.350225 0)
(0.476044 -0.343941 0)
(0.480234 -0.337955 -3.09444e-19)
(0.484215 -0.332251 0)
(0.487997 -0.326815 -3.08191e-19)
(0.491598 -0.321625 6.13363e-19)
(0.495028 -0.316663 -6.10876e-19)
(0.49831 -0.311886 3.02828e-19)
(0.501449 -0.307222 6.05665e-19)
(0.503821 -0.302441 -3.17943e-19)
(-0.008148 0.0457101 -2.61781e-19)
(-0.0004602 0.0269819 1.1468e-21)
(0.0244349 -0.053334 2.58389e-19)
(0.0583226 -0.157302 5.27623e-19)
(0.0963342 -0.260372 -6.75481e-20)
(0.135345 -0.349417 -2.74841e-19)
(0.173027 -0.419357 2.80656e-19)
(0.207787 -0.469926 4.28024e-19)
(0.238944 -0.503408 1.45253e-19)
(0.266387 -0.522973 3.65842e-19)
(0.290385 -0.531872 2.97546e-19)
(0.31134 -0.533043 4.50035e-19)
(0.329652 -0.528826 9.09188e-19)
(0.345721 -0.521026 4.58587e-19)
(0.359944 -0.510983 0)
(0.37265 -0.499673 1.55189e-19)
(0.384072 -0.487753 1.54067e-19)
(0.394407 -0.475664 1.55317e-19)
(0.403847 -0.463694 3.13207e-19)
(0.412549 -0.452054 -1.58058e-19)
(0.420579 -0.440826 0)
(0.428025 -0.430072 -1.26875e-21)
(0.434998 -0.419836 -3.14208e-19)
(0.441536 -0.410106 3.14145e-19)
(0.447662 -0.400867 6.29148e-19)
(0.453439 -0.392109 6.28113e-19)
(0.458904 -0.383805 -3.50232e-22)
(0.464069 -0.375925 3.12507e-19)
(0.468947 -0.368452 3.11805e-19)
(0.473569 -0.361358 -3.11002e-19)
(0.477969 -0.354611 3.10108e-19)
(0.482156 -0.34819 3.09135e-19)
(0.486138 -0.342079 6.17537e-19)
(0.489928 -0.33626 -9.89941e-22)
(0.493538 -0.330707 9.18866e-19)
(0.49698 -0.325404 -3.93625e-22)
(0.500258 -0.320328 -3.03355e-19)
(0.503395 -0.315443 -3.03459e-19)
(0.506389 -0.310663 3.00721e-19)
(0.508571 -0.305765 3.16305e-19)
(-0.00877848 0.0446932 2.30608e-19)
(0.000305888 0.0233625 3.14284e-19)
(0.0282116 -0.0595645 1.91824e-19)
(0.0655016 -0.165862 -1.97448e-19)
(0.106681 -0.270687 -3.34915e-19)
(0.148281 -0.360804 2.74613e-19)
(0.18781 -0.431227 0)
(0.223678 -0.481811 2.83053e-19)
(0.255355 -0.514936 0)
(0.282896 -0.533943 -5.84058e-19)
(0.306639 -0.542207 1.48103e-19)
(0.327075 -0.542712 -7.47084e-19)
(0.344749 -0.537833 -3.02444e-19)
(0.360148 -0.529437 1.51121e-19)
(0.373657 -0.518868 4.25348e-22)
(0.385617 -0.507081 -1.53926e-19)
(0.396333 -0.494732 -3.10396e-19)
(0.406041 -0.482293 -6.21969e-19)
(0.41487 -0.470018 0)
(0.422968 -0.458086 -3.05609e-22)
(0.430476 -0.446612 -3.12837e-19)
(0.437457 -0.435638 -3.14101e-19)
(0.443964 -0.425194 3.14208e-19)
(0.45007 -0.415283 -3.15099e-19)
(0.455827 -0.405876 3.12629e-19)
(0.461262 -0.396952 -6.26202e-19)
(0.466392 -0.388497 -3.59149e-22)
(0.471246 -0.380484 -6.24055e-19)
(0.475853 -0.372876 -3.11805e-19)
(0.480228 -0.365644 3.77831e-22)
(0.484388 -0.358772 -9.64383e-22)
(0.488351 -0.352239 -3.09136e-19)
(0.492133 -0.346018 -3.08093e-19)
(0.495739 -0.340086 -1.3856e-21)
(0.499175 -0.334425 -3.05828e-19)
(0.502452 -0.329019 -1.40706e-21)
(0.505579 -0.32384 -3.02543e-19)
(0.508574 -0.318849 9.02738e-19)
(0.511423 -0.313957 -3.00722e-19)
(0.513406 -0.308948 -3.16606e-19)
(-0.00932863 0.0435263 -2.30515e-19)
(0.0012932 0.0194425 6.25593e-20)
(0.0323024 -0.0661064 -1.92109e-19)
(0.0731135 -0.174608 -6.52853e-20)
(0.117548 -0.281019 2.67895e-19)
(0.161717 -0.372079 -6.82979e-20)
(0.203048 -0.442852 6.93243e-20)
(0.240037 -0.493295 -4.24521e-19)
(0.272207 -0.52596 1.43114e-19)
(0.299734 -0.54436 2.914e-19)
(0.323145 -0.551938 0)
(0.343073 -0.551743 5.95361e-19)
(0.360092 -0.546216 0)
(0.37473 -0.537243 -6.06102e-19)
(0.387488 -0.526156 -3.04554e-19)
(0.398749 -0.513921 0)
(0.408753 -0.501188 0)
(0.417755 -0.488418 6.19419e-19)
(0.425974 -0.475866 3.11005e-19)
(0.433521 -0.463677 -6.22751e-19)
(0.440483 -0.451975 3.11548e-19)
(0.446954 -0.440819 0)
(0.453015 -0.430202 -3.12563e-19)
(0.458713 -0.420115 6.23062e-19)
(0.46408 -0.410555 -3.11669e-19)
(0.469151 -0.401502 -3.11893e-19)
(0.473954 -0.392921 3.10818e-19)
(0.478513 -0.384776 0)
(0.482843 -0.377043 6.19182e-19)
(0.486957 -0.369701 -3.0869e-19)
(0.490878 -0.362726 -3.08354e-19)
(0.494625 -0.356089 -5.64966e-22)
(0.498207 -0.349764 1.22369e-18)
(0.501626 -0.343732 -9.14848e-19)
(0.504888 -0.337976 0)
(0.508006 -0.332473 -3.0321e-19)
(0.510983 -0.327197 -6.03024e-19)
(0.513836 -0.322107 2.9862e-19)
(0.516537 -0.317107 2.97826e-19)
(0.518322 -0.31199 0)
(-0.00982195 0.0422145 -4.56922e-19)
(0.00249528 0.0152331 -6.22626e-20)
(0.0367749 -0.0729051 5.07246e-19)
(0.0811724 -0.183508 -5.19084e-19)
(0.128873 -0.291388 0)
(0.175647 -0.383225 0)
(0.218783 -0.454158 -1.38492e-19)
(0.256808 -0.504344 -5.16138e-22)
(0.289389 -0.53649 1.42478e-19)
(0.316895 -0.554206 0)
(0.339941 -0.56103 0)
(0.359256 -0.560131 -1.48588e-19)
(0.375564 -0.553981 4.90843e-22)
(0.389477 -0.544436 1.51765e-19)
(0.401467 -0.532832 3.04552e-19)
(0.41195 -0.52019 0)
(0.421243 -0.507134 3.07581e-19)
(0.429584 -0.494047 -3.08352e-19)
(0.437168 -0.481216 -6.18729e-19)
(0.444123 -0.468823 6.2015e-19)
(0.45055 -0.456947 6.37544e-22)
(0.456534 -0.445611 -3.1054e-19)
(0.46214 -0.434829 3.11242e-19)
(0.467412 -0.424609 -6.22103e-19)
(0.472388 -0.414931 0)
(0.477104 -0.405757 3.10544e-19)
(0.481581 -0.397056 -6.19515e-19)
(0.485837 -0.388802 3.08859e-19)
(0.489887 -0.380971 -3.09107e-19)
(0.493744 -0.373535 -3.07877e-19)
(0.497428 -0.366466 -3.0751e-19)
(0.500957 -0.359737 1.22276e-18)
(0.504339 -0.353322 -9.14016e-19)
(0.507575 -0.347203 -6.07522e-19)
(0.510667 -0.34136 6.04047e-19)
(0.513625 -0.33577 0)
(0.516455 -0.330405 6.00103e-19)
(0.519168 -0.325219 -5.96349e-19)
(0.521725 -0.320115 -2.97827e-19)
(0.523311 -0.314893 0)
(-0.0102178 0.0407321 9.68323e-19)
(0.00394338 0.0107713 4.31777e-19)
(0.041594 -0.0799543 -5.07241e-19)
(0.0896799 -0.192578 4.54238e-19)
(0.14071 -0.301751 -6.65396e-20)
(0.19006 -0.39418 1.34869e-19)
(0.234939 -0.465149 0)
(0.273971 -0.514967 -1.40211e-19)
(0.30692 -0.546462 1.41839e-19)
(0.334308 -0.563418 1.44397e-19)
(0.356926 -0.569508 -1.45656e-19)
(0.37562 -0.567903 -1.47822e-19)
(0.391184 -0.561084 1.48746e-19)
(0.404305 -0.55098 0)
(0.415511 -0.538941 0)
(0.425228 -0.525912 -3.04815e-19)
(0.433799 -0.512519 3.0553e-19)
(0.441462 -0.499164 -3.0747e-19)
(0.448406 -0.486118 3.07718e-19)
(0.454774 -0.473539 3.09089e-19)
(0.460667 -0.461492 -6.1849e-19)
(0.466158 -0.450009 6.19045e-19)
(0.471304 -0.439105 5.88998e-22)
(0.476151 -0.428774 -3.09239e-19)
(0.480739 -0.418988 0)
(0.485098 -0.40971 3.09177e-19)
(0.489247 -0.400913 5.55132e-22)
(0.4932 -0.392572 -3.07489e-19)
(0.49697 -0.384659 0)
(0.500569 -0.377143 6.1295e-19)
(0.504018 -0.369995 -6.1003e-19)
(0.507331 -0.363187 0)
(0.510515 -0.356696 6.0691e-19)
(0.513567 -0.350504 -6.03566e-19)
(0.516491 -0.344586 0)
(0.519296 -0.338915 0)
(0.521982 -0.333467 0)
(0.52456 -0.328191 -5.94468e-19)
(0.526972 -0.322989 5.90659e-19)
(0.528356 -0.317666 6.24948e-19)
(-0.0105278 0.0391109 -4.54612e-19)
(0.00565087 0.00602705 -4.93737e-19)
(0.0468081 -0.0872507 -6.30089e-20)
(0.098643 -0.201752 1.93419e-19)
(0.153016 -0.312072 -2.63515e-19)
(0.204948 -0.404959 2.68938e-19)
(0.251529 -0.475797 -2.7396e-19)
(0.291485 -0.525097 -4.16893e-19)
(0.324731 -0.555873 0)
(0.351949 -0.57203 -1.43761e-19)
(0.37408 -0.577328 1.45014e-19)
(0.392103 -0.574999 0)
(0.406895 -0.567556 2.97192e-19)
(0.419198 -0.556921 -2.98725e-19)
(0.4296 -0.54445 -9.03114e-19)
(0.438541 -0.531061 -7.98295e-22)
(0.446379 -0.517376 6.092e-19)
(0.453362 -0.503792 -3.05447e-19)
(0.45967 -0.490556 0)
(0.46545 -0.477813 0)
(0.470804 -0.465627 6.14502e-19)
(0.475801 -0.454029 3.08484e-19)
(0.480488 -0.443026 -3.07977e-19)
(0.484912 -0.432604 -3.08451e-19)
(0.489111 -0.422728 6.15836e-19)
(0.493114 -0.413367 -3.07253e-19)
(0.496934 -0.404497 6.14552e-19)
(0.500581 -0.396089 -1.22549e-18)
(0.504071 -0.388111 1.22253e-18)
(0.507416 -0.38053 -1.21917e-18)
(0.510632 -0.373317 1.21543e-18)
(0.513731 -0.366447 -1.21135e-18)
(0.516715 -0.359897 6.02982e-19)
(0.519587 -0.353643 6.01679e-19)
(0.522349 -0.347656 1.01887e-21)
(0.525005 -0.341913 1.02414e-21)
(0.527552 -0.336391 -5.931e-19)
(0.529995 -0.331035 2.04057e-21)
(0.532265 -0.325739 -5.87644e-19)
(0.533447 -0.320315 0)
(-0.0107358 0.037341 5.64072e-20)
(0.00762499 0.00104459 -6.12222e-20)
(0.0524146 -0.0947593 1.88093e-19)
(0.108076 -0.211037 -2.56528e-19)
(0.165802 -0.322334 1.3089e-19)
(0.220279 -0.415498 0)
(0.268514 -0.486069 0)
(0.309328 -0.534739 5.55934e-19)
(0.342796 -0.564705 7.03185e-19)
(0.369772 -0.580004 -1.42548e-19)
(0.391359 -0.584488 7.22282e-19)
(0.408664 -0.581432 -1.46007e-19)
(0.422657 -0.573384 0)
(0.434122 -0.562246 0)
(0.443701 -0.549367 6.01368e-19)
(0.451859 -0.535651 0)
(0.45896 -0.521708 3.01616e-19)
(0.465259 -0.507926 -3.03528e-19)
(0.470933 -0.494532 0)
(0.476126 -0.481655 -6.10887e-19)
(0.480942 -0.469359 -3.07624e-19)
(0.485442 -0.457673 -9.18865e-19)
(0.489671 -0.446594 -3.07189e-19)
(0.493673 -0.436099 3.06528e-19)
(0.497486 -0.426154 6.11693e-19)
(0.501131 -0.416734 0)
(0.504619 -0.407814 6.09807e-19)
(0.507962 -0.399357 1.21896e-18)
(0.511176 -0.391328 1.02963e-21)
(0.514268 -0.383696 -6.06222e-19)
(0.51725 -0.376437 -6.05328e-19)
(0.520133 -0.369524 6.02282e-19)
(0.522924 -0.362928 6.01038e-19)
(0.525622 -0.35662 -1.19643e-18)
(0.528227 -0.350576 1.19153e-18)
(0.530737 -0.344776 -5.94742e-19)
(0.533145 -0.339194 5.90091e-19)
(0.535461 -0.333763 1.17571e-18)
(0.537598 -0.328367 5.83503e-19)
(0.538583 -0.322838 6.17568e-19)
(-0.0108309 0.0354233 -4.4779e-19)
(0.00988984 -0.00418041 4.2571e-19)
(0.0584259 -0.102462 -3.72676e-19)
(0.117975 -0.220393 3.81287e-19)
(0.179063 -0.332508 6.50931e-19)
(0.236043 -0.425781 -5.31499e-19)
(0.285863 -0.495933 6.77447e-19)
(0.327458 -0.543858 4.13047e-19)
(0.361076 -0.572942 -9.81068e-19)
(0.387742 -0.587335 2.83122e-19)
(0.408728 -0.590984 1.41155e-19)
(0.425268 -0.587203 2.91787e-19)
(0.438426 -0.578565 2.93352e-19)
(0.44904 -0.566953 -5.91904e-19)
(0.457786 -0.553697 5.96128e-19)
(0.465155 -0.539691 9.0057e-19)
(0.471513 -0.525525 -9.06867e-19)
(0.477126 -0.511574 1.21265e-18)
(0.48217 -0.49805 6.06839e-19)
(0.486781 -0.48507 9.15969e-19)
(0.491058 -0.472694 3.04181e-19)
(0.495061 -0.460945 6.12326e-19)
(0.498834 -0.449809 -6.097e-19)
(0.502418 -0.439261 0)
(0.505844 -0.429272 -1.83142e-18)
(0.509129 -0.419818 1.21895e-18)
(0.512285 -0.410865 -6.08792e-19)
(0.515327 -0.402372 -6.07505e-19)
(0.518266 -0.394308 -9.47757e-22)
(0.521104 -0.386648 0)
(0.523852 -0.379364 0)
(0.526524 -0.372421 5.98338e-19)
(0.529126 -0.365789 -5.98049e-19)
(0.531654 -0.359443 5.94755e-19)
(0.534104 -0.353361 -5.93213e-19)
(0.536471 -0.347521 -5.90622e-19)
(0.53875 -0.341885 0)
(0.54095 -0.336378 -5.84284e-19)
(0.542962 -0.330882 -5.82592e-19)
(0.543755 -0.32525 -1.85195e-18)
(-0.0108098 0.033371 4.47949e-19)
(0.0124553 -0.00963256 -4.25747e-19)
(0.0648555 -0.110344 4.97431e-19)
(0.128345 -0.229795 -8.88499e-19)
(0.192787 -0.342564 -6.50291e-19)
(0.252222 -0.435782 5.31495e-19)
(0.303553 -0.505369 -1.08041e-18)
(0.345838 -0.552433 -5.50798e-19)
(0.379525 -0.580561 6.99332e-19)
(0.405818 -0.594009 -1.2737e-18)
(0.426151 -0.596813 -8.6207e-19)
(0.441881 -0.592315 -2.89251e-19)
(0.454171 -0.583102 -8.80267e-19)
(0.463916 -0.571043 8.86722e-19)
(0.471824 -0.557446 -5.96129e-19)
(0.478401 -0.543186 -5.99687e-19)
(0.484018 -0.528833 0)
(0.488944 -0.514742 -6.04996e-19)
(0.49336 -0.501117 -9.09909e-19)
(0.497392 -0.488066 3.03105e-19)
(0.501132 -0.475638 -6.09107e-19)
(0.504641 -0.463846 0)
(0.507961 -0.452673 6.09703e-19)
(0.511128 -0.442098 6.08581e-19)
(0.514166 -0.43209 -6.04175e-19)
(0.517091 -0.422619 0)
(0.519918 -0.413647 0)
(0.522659 -0.405137 0)
(0.525321 -0.397062 -2.91332e-21)
(0.527903 -0.389394 0)
(0.53042 -0.382099 -1.1969e-18)
(0.532886 -0.37514 -1.93836e-21)
(0.535301 -0.36849 -1.1881e-18)
(0.537661 -0.362126 1.18439e-18)
(0.53996 -0.356024 -5.89248e-19)
(0.542193 -0.350153 5.88634e-19)
(0.544355 -0.344471 0)
(0.546449 -0.338894 1.16527e-18)
(0.548342 -0.333305 -5.78339e-19)
(0.548945 -0.327576 0)
(-0.0106642 0.0311865 5.5558e-20)
(0.0153318 -0.015293 0)
(0.0717098 -0.118376 -6.16034e-19)
(0.139185 -0.239217 7.5935e-19)
(0.206965 -0.352472 3.86613e-19)
(0.268794 -0.445466 -5.26373e-19)
(0.321558 -0.514354 5.38921e-19)
(0.364441 -0.56045 -5.4566e-19)
(0.398106 -0.587547 0)
(0.423956 -0.600017 5.64933e-19)
(0.443584 -0.60197 -5.69626e-19)
(0.458471 -0.596772 2.5872e-21)
(0.469865 -0.587004 0)
(0.478724 -0.574525 5.86666e-19)
(0.485784 -0.560622 -2.9436e-19)
(0.49157 -0.546146 5.95164e-19)
(0.49645 -0.531638 2.9836e-19)
(0.500693 -0.51744 -5.9964e-19)
(0.504482 -0.503745 0)
(0.507939 -0.490651 9.05139e-19)
(0.511147 -0.478193 3.01428e-19)
(0.514166 -0.466379 0)
(0.517035 -0.455195 0)
(0.519783 -0.444615 0)
(0.522434 -0.434607 6.06096e-19)
(0.525002 -0.425136 0)
(0.527501 -0.416165 -6.03155e-19)
(0.529939 -0.407661 1.20264e-18)
(0.532321 -0.399595 -1.2005e-18)
(0.53465 -0.391934 0)
(0.536939 -0.384643 5.97487e-19)
(0.539199 -0.377686 -5.9233e-19)
(0.541428 -0.37104 5.93073e-19)
(0.543623 -0.364679 0)
(0.545778 -0.358572 0)
(0.547887 -0.352683 5.84392e-19)
(0.549941 -0.346967 -5.80832e-19)
(0.551938 -0.341336 1.15775e-18)
(0.553719 -0.335664 -1.15033e-18)
(0.554134 -0.329841 0)
(-0.0103857 0.0288741 3.85916e-19)
(0.0185333 -0.0211473 1.20265e-19)
(0.0789963 -0.126535 4.92476e-19)
(0.150492 -0.248628 5.01557e-19)
(0.221586 -0.362202 -5.15589e-19)
(0.285736 -0.454806 5.26371e-19)
(0.339846 -0.522861 5.33784e-19)
(0.383236 -0.567893 5.45659e-19)
(0.416788 -0.593892 0)
(0.442119 -0.605355 5.59793e-19)
(0.460987 -0.606454 5.69625e-19)
(0.474998 -0.600571 5.76093e-19)
(0.485478 -0.590276 0)
(0.493437 -0.57741 -2.62389e-21)
(0.499642 -0.563235 5.90853e-19)
(0.504638 -0.548576 -2.97479e-19)
(0.508788 -0.533948 -3.00278e-19)
(0.512353 -0.519676 8.99121e-19)
(0.515518 -0.505941 6.39516e-22)
(0.518404 -0.492827 -3.03131e-19)
(0.521087 -0.480362 -6.03642e-19)
(0.52362 -0.468551 0)
(0.526037 -0.457378 0)
(0.52837 -0.446815 0)
(0.530635 -0.436825 0)
(0.532847 -0.427372 0)
(0.535016 -0.418423 0)
(0.537149 -0.409944 5.98852e-19)
(0.539252 -0.401904 -5.96363e-19)
(0.541328 -0.394267 0)
(0.543387 -0.386999 0)
(0.545441 -0.380068 5.92336e-19)
(0.547485 -0.373447 0)
(0.549518 -0.367107 5.8644e-19)
(0.551536 -0.361013 -5.83086e-19)
(0.553528 -0.355127 0)
(0.555482 -0.349399 1.15694e-18)
(0.557389 -0.343729 -1.1497e-18)
(0.559067 -0.337982 0)
(0.559297 -0.332065 0)
(-0.00996918 0.0264428 -4.4104e-19)
(0.0220696 -0.0271776 -1.19411e-19)
(0.0867224 -0.134799 1.22269e-19)
(0.162264 -0.257997 -5.01556e-19)
(0.236639 -0.371725 0)
(0.303027 -0.463776 0)
(0.35838 -0.530861 -4.00382e-19)
(0.402186 -0.574741 -1.35169e-19)
(0.435536 -0.599588 -2.75851e-19)
(0.460275 -0.610023 -2.81153e-19)
(0.478329 -0.610266 -2.83433e-19)
(0.491429 -0.603715 2.85542e-19)
(0.500979 -0.592924 2.87155e-19)
(0.508031 -0.579709 -2.93155e-19)
(0.513379 -0.565297 0)
(0.517583 -0.550487 0)
(0.521009 -0.535773 -5.94619e-19)
(0.523904 -0.52146 0)
(0.526452 -0.507711 0)
(0.528773 -0.494601 5.96502e-19)
(0.530936 -0.482153 1.1023e-21)
(0.532985 -0.470368 -8.60665e-22)
(0.534955 -0.459227 -6.0043e-19)
(0.536873 -0.448698 5.99141e-19)
(0.538754 -0.438744 5.97555e-19)
(0.54061 -0.42933 -5.96621e-19)
(0.542448 -0.420422 0)
(0.544275 -0.411986 5.95896e-19)
(0.546097 -0.403988 8.27832e-22)
(0.547917 -0.396394 -5.91591e-19)
(0.549745 -0.389172 0)
(0.55159 -0.382289 0)
(0.553449 -0.375715 5.8578e-19)
(0.555323 -0.369418 -5.82553e-19)
(0.557207 -0.363359 -5.80699e-19)
(0.559088 -0.357501 5.77265e-19)
(0.560949 -0.351784 0)
(0.562776 -0.346092 0)
(0.564361 -0.340277 0)
(0.564406 -0.334267 -6.04706e-19)
(-0.00940891 0.0239004 5.45724e-19)
(0.0259478 -0.0333629 -2.37832e-19)
(0.094892 -0.143139 1.21645e-19)
(0.174495 -0.267296 0)
(0.252107 -0.38101 6.35537e-19)
(0.320648 -0.472351 5.26571e-22)
(0.377132 -0.538333 5.29212e-19)
(0.421251 -0.580977 -4.04745e-19)
(0.454311 -0.604625 5.47936e-19)
(0.478389 -0.614019 -2.77353e-19)
(0.495579 -0.61341 0)
(0.507733 -0.606211 2.85321e-19)
(0.516336 -0.594958 -8.6366e-19)
(0.522481 -0.581431 0)
(0.526973 -0.566818 8.75445e-19)
(0.530388 -0.55189 -5.85622e-19)
(0.533095 -0.537123 -5.90569e-19)
(0.53533 -0.522798 2.96103e-19)
(0.537269 -0.509063 0)
(0.539031 -0.495981 -5.97312e-19)
(0.540678 -0.483573 -5.97262e-19)
(0.54225 -0.471835 -1.92044e-21)
(0.543775 -0.460745 5.95718e-19)
(0.54528 -0.450268 5.97235e-19)
(0.546778 -0.440368 -1.19324e-18)
(0.548277 -0.431011 5.96627e-19)
(0.549783 -0.422161 0)
(0.551302 -0.413785 -5.9104e-19)
(0.55284 -0.405848 5.89359e-19)
(0.554401 -0.398318 5.87469e-19)
(0.555992 -0.391164 -5.85387e-19)
(0.557624 -0.38435 5.83131e-19)
(0.559296 -0.377845 0)
(0.56101 -0.371613 5.80122e-19)
(0.56276 -0.365617 1.15373e-18)
(0.564532 -0.359814 -1.14816e-18)
(0.566305 -0.354134 1.14393e-18)
(0.568061 -0.348441 1.38769e-21)
(0.569559 -0.342572 -5.66763e-19)
(0.569418 -0.33648 1.20785e-18)
(-0.00869839 0.0212543 -3.27767e-19)
(0.0301752 -0.0396818 -7.08432e-19)
(0.103507 -0.151528 4.82487e-19)
(0.187178 -0.276492 -3.70343e-19)
(0.267972 -0.390024 -1.2947e-19)
(0.338575 -0.480506 1.2909e-19)
(0.396074 -0.54526 -2.644e-19)
(0.440395 -0.586587 -2.67764e-19)
(0.473076 -0.608997 2.73306e-19)
(0.496426 -0.617337 -5.53359e-19)
(0.512708 -0.615893 -1.15936e-21)
(0.523887 -0.608071 2.82957e-19)
(0.531525 -0.596387 0)
(0.53676 -0.582585 -2.8917e-19)
(0.540406 -0.567808 -2.92558e-19)
(0.543038 -0.552798 5.86398e-19)
(0.545031 -0.538009 0)
(0.546615 -0.523701 0)
(0.547955 -0.510004 5.92531e-19)
(0.549165 -0.496975 -5.92605e-19)
(0.550302 -0.484628 0)
(0.551401 -0.472957 5.94809e-19)
(0.552485 -0.461936 -5.94796e-19)
(0.553579 -0.451529 -1.18785e-18)
(0.554696 -0.4417 -8.47678e-22)
(0.555837 -0.432416 5.93718e-19)
(0.55701 -0.42364 -1.18019e-18)
(0.558217 -0.41534 5.91048e-19)
(0.559467 -0.407483 -5.89366e-19)
(0.560761 -0.400038 -1.17189e-21)
(0.56211 -0.392971 1.88161e-21)
(0.563523 -0.386246 -5.83139e-19)
(0.565002 -0.379832 -5.77582e-19)
(0.56655 -0.373693 -5.75013e-19)
(0.568162 -0.367791 -3.21802e-21)
(0.569822 -0.362075 0)
(0.571509 -0.356464 -5.66699e-19)
(0.573197 -0.350798 1.13151e-18)
(0.574612 -0.344899 -1.68837e-18)
(0.574273 -0.338744 1.11465e-21)
(-0.00783189 0.0185133 -1.08257e-19)
(0.0347582 -0.0461129 9.41209e-19)
(0.112569 -0.159937 -4.82552e-19)
(0.200307 -0.285556 3.70584e-19)
(0.284212 -0.398736 -1.00886e-18)
(0.356779 -0.488211 1.28451e-19)
(0.415175 -0.551623 -5.2358e-19)
(0.459585 -0.591561 0)
(0.491796 -0.612698 0)
(0.514348 -0.619979 -5.49575e-19)
(0.529683 -0.617718 2.79589e-19)
(0.539864 -0.609307 -1.22527e-21)
(0.546524 -0.597226 2.84514e-19)
(0.550847 -0.583183 0)
(0.553655 -0.56828 -8.67532e-19)
(0.555516 -0.553223 2.9081e-19)
(0.556802 -0.538442 -5.83906e-19)
(0.557745 -0.524177 0)
(0.558496 -0.510544 0)
(0.559162 -0.49759 1.90416e-21)
(0.559797 -0.485325 -5.90667e-19)
(0.560427 -0.473739 5.90128e-19)
(0.561075 -0.462803 -5.91916e-19)
(0.561762 -0.452483 5.90645e-19)
(0.562496 -0.44274 1.84556e-21)
(0.563279 -0.433543 1.85899e-21)
(0.564116 -0.424857 5.8957e-19)
(0.565008 -0.416649 -5.85095e-19)
(0.565963 -0.408888 0)
(0.566983 -0.401544 -5.83237e-19)
(0.56808 -0.394583 5.8046e-19)
(0.569266 -0.387968 0)
(0.570542 -0.381671 5.77591e-19)
(0.571913 -0.375655 -5.72413e-19)
(0.573376 -0.36988 5.68529e-19)
(0.574917 -0.364291 0)
(0.576511 -0.358788 1.69741e-18)
(0.578129 -0.353187 -1.12363e-18)
(0.579452 -0.347291 0)
(0.578892 -0.341105 6.00685e-19)
(-0.00680477 0.0156876 8.59197e-19)
(0.0397013 -0.0526335 -4.69382e-19)
(0.122076 -0.168338 -1.19855e-19)
(0.213873 -0.294459 1.22419e-19)
(0.300809 -0.407116 5.0291e-19)
(0.37523 -0.49544 0)
(0.434403 -0.557405 5.23582e-19)
(0.478788 -0.595889 7.94313e-19)
(0.51044 -0.615726 2.69529e-19)
(0.532127 -0.621948 2.74826e-19)
(0.546472 -0.618893 2.7715e-19)
(0.555641 -0.609927 -8.44654e-19)
(0.561316 -0.597488 2.83224e-19)
(0.564725 -0.583239 1.14194e-18)
(0.566704 -0.568247 2.89101e-19)
(0.567806 -0.553176 2.89489e-19)
(0.568398 -0.538432 5.83912e-19)
(0.568708 -0.524236 0)
(0.568881 -0.510691 0)
(0.569013 -0.497834 1.17728e-18)
(0.569152 -0.485669 -2.35087e-18)
(0.56932 -0.474184 -1.88406e-21)
(0.569536 -0.463349 0)
(0.569817 -0.453129 0)
(0.57017 -0.443487 5.88921e-19)
(0.570595 -0.434391 0)
(0.571092 -0.425807 0)
(0.571664 -0.417705 -5.7912e-19)
(0.572316 -0.410056 -1.16066e-18)
(0.573054 -0.402829 0)
(0.573889 -0.39599 -1.15227e-18)
(0.574834 -0.389508 -2.29877e-18)
(0.575892 -0.383353 1.14515e-18)
(0.577068 -0.377492 -1.13724e-18)
(0.578364 -0.371881 1.13551e-18)
(0.579769 -0.366458 -1.1288e-18)
(0.581255 -0.361109 -1.12015e-18)
(0.582787 -0.35562 0)
(0.583999 -0.349772 0)
(0.583183 -0.343598 0)
(-0.00561289 0.0127878 -8.59201e-19)
(0.0450085 -0.0592211 0)
(0.132025 -0.176698 0)
(0.227868 -0.303167 0)
(0.317746 -0.415136 0)
(0.3939 -0.50217 0)
(0.453723 -0.56259 2.60496e-19)
(0.497968 -0.599562 -1.3247e-18)
(0.528976 -0.618082 -8.03596e-19)
(0.549735 -0.623253 -2.72258e-19)
(0.56305 -0.619428 0)
(0.57119 -0.609944 1.11617e-18)
(0.575882 -0.597186 2.82911e-19)
(0.57838 -0.58277 -2.56308e-18)
(0.579537 -0.567722 0)
(0.579895 -0.55267 -1.15161e-18)
(0.579806 -0.537991 0)
(0.579494 -0.52389 1.16156e-18)