/*--------------------------------*- C++ -*----------------------------------*\
  =========                 |
  \\      /  F ield         | OpenFOAM: The Open Source CFD Toolbox
   \\    /   O peration     | Website:  https://openfoam.org
    \\  /    A nd           | Version:  7
     \\/     M anipulation  |
\*---------------------------------------------------------------------------*/
FoamFile
{
    version     2.0;
    format      ascii;
    class       surfaceScalarField;
    location    "86.4";
    object      phi;
}
// * * * * * * * * * * * * * * * * * * * * * * * * * * * * * * * * * * * * * //

dimensions      [0 3 -1 0 0 0 0];

internalField   nonuniform List<scalar> 
3880
(
-1.92772e-05
-0.000498608
0.000517885
-1.81711e-05
-0.00120183
0.00120073
1.50497e-05
-0.00161449
0.00158127
8.63131e-05
-0.0017778
0.00170654
0.000201344
-0.00171954
0.00160451
0.000366905
-0.00145879
0.00129323
0.000590287
-0.00100925
0.000785871
0.000877341
-0.000382453
9.53991e-05
0.00122986
0.00040967
-0.000762185
0.00135342
0.00164268
-0.00176624
-7.87547e-06
-0.000490733
1.63583e-05
-0.00122607
7.8957e-05
-0.00167709
0.000182269
-0.00188111
0.000329491
-0.00186676
0.000526005
-0.0016553
0.000778748
-0.001262
0.00109429
-0.00069799
0.00147612
2.7837e-05
0.000907995
0.00192154
7.98219e-06
-0.000498715
6.30156e-05
-0.0012811
0.000165069
-0.00177914
0.000311912
-0.00202796
0.000503538
-0.00205839
0.000743151
-0.00189492
0.00103657
-0.00155542
0.00139046
-0.00105188
0.00180985
-0.000391555
0.000423222
0.00229462
2.74092e-05
-0.000526124
0.000120262
-0.00137395
0.000270526
-0.00192941
0.000471046
-0.00222848
0.000718255
-0.0023056
0.00101275
-0.00218941
0.0013587
-0.00190137
0.0017623
-0.00145548
0.00222946
-0.00085872
-0.000110039
0.00276273
4.99652e-05
-0.000576089
0.000185629
-0.00150962
0.000390405
-0.00213418
0.000651919
-0.00248999
0.000962988
-0.00261667
0.00132155
-0.00254797
0.00172999
-0.00230981
0.00219364
-0.00191913
0.00271875
-0.00138382
-0.000701148
0.00330986
7.4508e-05
-0.000650597
0.000255632
-0.00169074
0.000517736
-0.00239629
0.000843195
-0.00281545
0.00122141
-0.00299489
0.00164796
-0.00297452
0.00212364
-0.00278549
0.00265307
-0.00244856
0.00324246
-0.00197322
-0.00135589
0.0038972
9.96971e-05
-0.000750294
0.000325971
-0.00191701
0.00064385
-0.00271417
0.00103056
-0.00320216
0.00147242
-0.00343674
0.00196307
-0.00346517
0.00250227
-0.00332469
0.00309444
-0.00304073
0.00374616
-0.00262494
-0.00207219
0.00446246
0.000124025
-0.000874319
0.000391807
-0.0021848
0.000759
-0.00308136
0.00119789
-0.00364104
0.00169207
-0.00393093
0.0022337
-0.0040068
0.00282194
-0.00391292
0.0034618
-0.00368059
0.00416176
-0.0033249
-0.00283697
0.00492654
0.000145899
-0.00102022
0.000448093
-0.00248699
0.000853166
-0.00348643
0.00132886
-0.00411674
0.00185648
-0.00445855
0.00242697
-0.00457729
0.00303897
-0.00452492
0.00369821
-0.00433983
0.00441705
-0.00404374
-0.00362701
0.0052071
0.000163729
-0.00118395
0.00048992
-0.00281318
0.0009169
-0.00391341
0.00140863
-0.00460846
0.0019448
-0.00499472
0.00251559
-0.00514808
0.00311887
-0.0051282
0.00375951
-0.00498047
0.00445278
-0.00473701
0.00524192
-0.00441616
0.00290642
0.0137177
-0.0149814
0.00427606
0.0331914
-0.0345611
0.0048678
0.0538283
-0.05442
0.00477715
0.0728901
-0.0727995
0.00426047
0.0915829
-0.0910662
0.00346347
0.111306
-0.110509
0.00248305
0.133692
-0.132711
0.00134803
0.163851
-0.162716
0.000401096
0.209291
-0.208344
0.263694
-0.263292
0.00322405
0.0124152
0.00485066
0.0315648
0.00573159
0.0529474
0.00583297
0.0727887
0.00540828
0.0920076
0.00461748
0.112096
0.00356836
0.134741
0.00229354
0.165125
0.000995673
0.210589
0.264689
0.00356529
0.0111445
0.00539286
0.0297372
0.0065686
0.0517716
0.00687857
0.0724788
0.00655634
0.0923298
0.0057756
0.112877
0.00465724
0.135859
0.00323527
0.166547
0.00159633
0.212227
0.266286
0.00393651
0.00997074
0.00588851
0.0277852
0.00735446
0.0503057
0.00788991
0.0719433
0.00768432
0.0925354
0.00692042
0.113641
0.00573656
0.137043
0.00416791
0.168116
0.00219027
0.214205
0.268476
0.00434147
0.00893913
0.00632999
0.0257967
0.00806697
0.0485687
0.00884365
0.0711666
0.00877191
0.0926071
0.00803602
0.114377
0.00679332
0.138286
0.00508147
0.169828
0.00277223
0.216514
0.271248
0.00477355
0.00806278
0.00671523
0.023855
0.00868773
0.0465962
0.00971789
0.0701365
0.0097995
0.0925255
0.00910556
0.115071
0.00781368
0.139578
0.00596506
0.171677
0.00333496
0.219144
0.274583
0.00520828
0.00731695
0.00704292
0.0220204
0.00920339
0.0444357
0.0104932
0.0688466
0.0107501
0.0922687
0.0101161
0.115705
0.00878851
0.140905
0.00681288
0.173652
0.00387775
0.22208
0.278461
0.00559469
0.0066488
0.00730375
0.0203113
0.00960381
0.0421357
0.0111527
0.0672978
0.011603
0.0918183
0.0110456
0.116262
0.00969692
0.142254
0.00760852
0.175741
0.00438817
0.2253
0.282849
0.00585272
0.00600318
0.00746963
0.0186944
0.00987427
0.039731
0.0116875
0.0654845
0.0123645
0.0911413
0.0119093
0.116717
0.0105567
0.143606
0.0083645
0.177933
0.00487561
0.228789
0.287724
0.0059444
0.00530071
0.0075771
0.0170617
0.0100354
0.0372727
0.0120589
0.063461
0.0129596
0.0902407
0.0126298
0.117047
0.0113202
0.144916
0.00902958
0.180223
0.00534527
0.232473
0.29307
0.0187497
0.00965827
-0.0231073
0.014475
0.0213364
0.0123549
0.0393928
0.0112201
0.0645959
0.00980241
0.0916583
0.00787749
0.118972
0.00537614
0.147417
0.00241224
0.183187
6.38322e-05
0.234822
0.293134
0.0195655
0.0127048
-0.022612
0.0153442
0.0255577
0.0123967
0.0423403
0.0108499
0.0661427
0.00939375
0.0931145
0.00749463
0.120871
0.00503063
0.149881
0.00220163
0.186016
1.20504e-05
0.237011
0.293146
0.0191211
0.014306
-0.0207223
0.0157949
0.0288839
0.0126207
0.0455145
0.0105895
0.0681739
0.00892585
0.0947781
0.00703882
0.122758
0.00468073
0.152239
0.00198964
0.188707
-4.59967e-05
0.239047
0.2931
0.0177787
0.0149437
-0.0184164
0.0154082
0.0312543
0.0125847
0.048338
0.0104016
0.070357
0.00858376
0.0965959
0.00667818
0.124664
0.00440027
0.154517
0.00187576
0.191232
-2.0923e-05
0.240943
0.293079
0.0160665
0.0148939
-0.0160168
0.014491
0.0328299
0.0121657
0.0506633
0.0100853
0.0724375
0.00825803
0.0984232
0.00635912
0.126563
0.00414209
0.156734
0.00172737
0.193647
-5.71642e-05
0.242728
0.293022
0.0141586
0.0142552
-0.0135198
0.013266
0.0337224
0.0114318
0.0524974
0.0095987
0.0742706
0.00790301
0.100119
0.00609401
0.128372
0.00396989
0.158859
0.00168452
0.195932
-3.33918e-07
0.244413
0.293021
0.0122098
0.0130659
-0.0110205
0.0119822
0.03395
0.0106504
0.0538292
0.00905423
0.0758668
0.00749084
0.101682
0.0057896
0.130073
0.00376977
0.160878
0.00157327
0.198129
-2.83013e-05
0.246014
0.292993
0.0102202
0.0113719
-0.00852625
0.0105456
0.0336246
0.00972985
0.0546449
0.00849306
0.0771036
0.0071274
0.103048
0.00555822
0.131642
0.00364481
0.162792
0.00157829
0.200195
4.8042e-05
0.247545
0.293041
0.00868704
0.00899458
-0.00630973
0.00961944
0.0326923
0.00915712
0.0551073
0.00808208
0.0781787
0.0068122
0.104318
0.00533288
0.133122
0.00349778
0.164627
0.00150022
0.202193
3.35178e-05
0.249011
0.293074
0.00629584
-0.00353858
0.00815323
0.00850177
0.00782604
0.00671835
0.00527472
0.00352129
0.00155885
0.000153012
0.00512455
-0.0232991
-0.0049327
0.00469171
-0.0221791
0.00396159
-0.0199921
0.00315206
-0.0176068
0.00231862
-0.0151833
0.00147946
-0.0126806
0.000638825
-0.0101799
-0.000171033
-0.00771639
-0.0010857
-0.00539506
-0.00280371
0.00422793
-0.0231359
-0.00439112
0.00355528
-0.0215065
0.00270267
-0.0191395
0.00181779
-0.0167219
0.000929911
-0.0142955
5.07305e-05
-0.0118015
-0.000817884
-0.00931125
-0.00165699
-0.00687728
-0.00253141
-0.00452063
-0.00212968
0.00318151
-0.0226778
-0.00363969
0.00230883
-0.0206338
0.00136098
-0.0181917
0.000415127
-0.0157761
-0.00050917
-0.0133712
-0.00140746
-0.0109032
-0.00227778
-0.00844093
-0.00310502
-0.00605004
-0.00390752
-0.00371813
-0.00154731
0.00198313
-0.0219813
-0.00267957
0.000966401
-0.0196171
-4.84145e-05
-0.0171769
-0.00102601
-0.0147985
-0.00196688
-0.0124303
-0.00286186
-0.0100082
-0.00370714
-0.00759565
-0.00448923
-0.00526795
-0.00519426
-0.00301311
-0.00107261
0.000649702
-0.0210916
-0.00153945
-0.000456134
-0.0185112
-0.00149633
-0.0161367
-0.00248721
-0.0138076
-0.00341688
-0.0115006
-0.00428211
-0.00914296
-0.00507675
-0.00680102
-0.00578613
-0.00455857
-0.00637765
-0.00242159
-0.000709182
-0.00077139
-0.0200606
-0.000259631
-0.00192478
-0.0173578
-0.0029644
-0.0150971
-0.00393543
-0.0128366
-0.00482833
-0.0106077
-0.00563986
-0.00833143
-0.0063621
-0.00607878
-0.00697901
-0.00394167
-0.00745115
-0.00194944
-0.000452362
-0.0022385
-0.0189104
0.00108839
-0.00339532
-0.016201
-0.0044076
-0.0140848
-0.00533523
-0.011909
-0.00617019
-0.00977275
-0.00690913
-0.00759249
-0.00754382
-0.00544409
-0.00805779
-0.00342769
-0.00841366
-0.00159358
-0.000291635
-0.00369218
-0.0176888
0.00247054
-0.00482223
-0.015071
-0.00578722
-0.0131198
-0.00665308
-0.0110431
-0.00741503
-0.00901081
-0.00806919
-0.00693832
-0.00860893
-0.00490436
-0.0090186
-0.00301802
-0.00926832
-0.00134385
-0.00021284
-0.00508365
-0.0164355
0.00383039
-0.00616474
-0.0139899
-0.00706897
-0.0122156
-0.00786087
-0.0102512
-0.00854157
-0.00833011
-0.00910603
-0.00637386
-0.00955102
-0.00445937
-0.00986279
-0.00270625
-0.0100214
-0.00118524
-0.000199953
-0.00637132
-0.0151851
0.00512092
-0.00738936
-0.0129718
-0.00822572
-0.0113792
-0.00893781
-0.0095391
-0.0095358
-0.00773213
-0.0100125
-0.00589718
-0.0103696
-0.00410227
-0.0105957
-0.00248011
-0.0106811
-0.00109987
-0.000236355
-0.00752358
-0.013965
0.00630341
-0.00847125
-0.0120242
-0.0092388
-0.0106116
-0.00987101
-0.00890689
-0.0103909
-0.00721226
-0.0107876
-0.00550044
-0.0110688
-0.00382104
-0.0112255
-0.00232346
-0.0112566
-0.00106874
-0.000305608
-0.00852418
-0.0127948
0.00735404
-0.00939725
-0.0111511
-0.0100995
-0.00990943
-0.0106564
-0.00834994
-0.0111071
-0.00676154
-0.0114359
-0.00517165
-0.0116565
-0.00360048
-0.0117617
-0.00221826
-0.0117575
-0.00107295
-0.000391855
-0.00936283
-0.0116877
0.0082557
-0.0101607
-0.0103533
-0.0108048
-0.00926528
-0.0112953
-0.00785952
-0.0116891
-0.00636772
-0.011965
-0.0048957
-0.012142
-0.0034235
-0.0122145
-0.00214573
-0.0121931
-0.00109433
-0.000479981
-0.0100387
-0.0106493
0.0090003
-0.010763
-0.00962894
-0.0113587
-0.0086696
-0.0117944
-0.00742386
-0.0121452
-0.00601688
-0.012385
-0.00465588
-0.0125361
-0.00327245
-0.0125944
-0.00208742
-0.0125729
-0.00111584
-0.000555646
-0.0105575
-0.0096771
0.00958535
-0.0112118
-0.00897473
-0.0117692
-0.00811212
-0.0121641
-0.00702902
-0.0124863
-0.0056946
-0.0127073
-0.00443493
-0.0128497
-0.00313004
-0.0129114
-0.00202574
-0.0129056
-0.00112166
-0.00060521
-0.0109293
-0.0087592
0.0100114
-0.0115189
-0.00838507
-0.0120474
-0.00758369
-0.0124167
-0.00665965
-0.0127243
-0.00538699
-0.0129434
-0.00421585
-0.0130936
-0.00297983
-0.0131751
-0.00194422
-0.0131998
-0.00109705
-0.000615626
-0.011165
-0.00787351
0.0102793
-0.0116997
-0.00785038
-0.0122054
-0.007078
-0.0125654
-0.00629969
-0.0128713
-0.00508105
-0.0131047
-0.0039825
-0.0132781
-0.00280645
-0.0133948
-0.0018275
-0.0134636
-0.00102822
-0.000574321
-0.0112685
-0.00699507
0.0103901
-0.0117659
-0.00735303
-0.0122533
-0.00659059
-0.0126209
-0.00593205
-0.012938
-0.00476395
-0.0132011
-0.00371945
-0.0134123
-0.00259528
-0.0135787
-0.00166109
-0.0137049
-0.000901975
-0.000469034
-0.0112365
-0.00611024
0.0103517
-0.0117289
-0.00686067
-0.012202
-0.00611752
-0.0125941
-0.0055399
-0.012935
-0.004423
-0.0132422
-0.00341225
-0.013505
-0.00233257
-0.0137347
-0.00143133
-0.0139311
-0.000705575
-0.000287618
-0.0111149
-0.00520087
0.0102056
-0.0116341
-0.00634147
-0.01208
-0.00567164
-0.012499
-0.00512096
-0.0128731
-0.00404884
-0.013235
-0.0030504
-0.013563
-0.00200458
-0.0138696
-0.00112471
-0.0141503
-0.00042485
-1.86213e-05
-0.049572
-0.00502177
0.0493929
-0.0507923
-0.00512118
-0.0521001
-0.0043638
-0.0534007
-0.00382036
-0.0544826
-0.00296696
-0.0553252
-0.00220774
-0.055896
-0.00143377
-0.0562177
-0.000803002
-0.0563378
-0.000304815
-2.29189e-05
-0.0586751
-0.00499402
0.0586473
-0.0594347
-0.00436157
-0.0601742
-0.00362433
-0.0609939
-0.00300063
-0.0616687
-0.00229216
-0.0621975
-0.00167893
-0.0625461
-0.00108516
-0.062731
-0.000618125
-0.0627911
-0.000244727
-2.82925e-05
-0.0699229
-0.00507895
0.0700079
-0.0702891
-0.00399544
-0.0706736
-0.00323981
-0.0711609
-0.00251332
-0.0715476
-0.00190547
-0.0718736
-0.00135291
-0.0720709
-0.000887873
-0.0721764
-0.000512639
-0.0721984
-0.000222694
-3.13035e-05
-0.0838531
-0.0051291
0.0839033
-0.0840762
-0.00377238
-0.0842859
-0.00303002
-0.084593
-0.00220625
-0.0848151
-0.00168341
-0.085026
-0.00114194
-0.0851387
-0.000775219
-0.0852104
-0.000440906
-0.0852189
-0.000214217
-2.91482e-05
-0.100482
-0.00496019
0.100313
-0.100734
-0.00352043
-0.100936
-0.00282826
-0.101188
-0.00195382
-0.10136
-0.00151204
-0.101533
-0.000968879
-0.101624
-0.00068356
-0.101702
-0.000363419
-0.101724
-0.000191999
-1.50011e-05
-0.118737
-0.00448027
0.118257
-0.119136
-0.0031215
-0.119453
-0.00251083
-0.119738
-0.00166938
-0.119943
-0.00130644
-0.120126
-0.000786656
-0.120241
-0.00056847
-0.120345
-0.000258883
-0.120395
-0.000141879
7.72751e-06
-0.136577
-0.00367023
0.135767
-0.137168
-0.00253022
-0.137647
-0.00203219
-0.138
-0.00131658
-0.138273
-0.00103321
-0.138476
-0.000583792
-0.138626
-0.000418815
-0.138741
-0.000143573
-0.138808
-7.51941e-05
2.88861e-05
-0.151663
-0.00259118
0.150584
-0.152423
-0.00177034
-0.153038
-0.00141767
-0.153451
-0.000903114
-0.153778
-0.000706695
-0.153985
-0.000376052
-0.154144
-0.000260475
-0.154234
-5.30615e-05
-0.154288
-2.11159e-05
3.49779e-05
-0.162283
-0.0013382
0.16103
-0.163149
-0.000904813
-0.163843
-0.000723816
-0.16429
-0.000455896
-0.16464
-0.000356503
-0.164835
-0.000181366
-0.164974
-0.00012117
-0.165019
-8.68246e-06
-0.16504
3.06775e-07
2.34529e-05
-0.167696
0.166358
-0.168601
-0.169325
-0.169781
-0.170137
-0.170319
-0.17044
-0.170449
-0.170448
-0.0113865
0.0503957
0.0103837
-0.0121128
0.0593737
-0.0127033
0.0705983
-0.0130177
0.0842177
-0.0128338
0.100129
-0.0118918
0.117315
-0.0100271
0.133902
-0.00726677
0.147824
-0.00382069
0.157584
0.162537
-0.0108044
0.0511536
0.0100465
-0.0114818
0.060051
-0.0120029
0.0711194
-0.0122313
0.0844461
-0.0119736
0.0998717
-0.0110105
0.116352
-0.00921872
0.132111
-0.0066435
0.145249
-0.00347987
0.154421
0.159058
-0.0102505
0.0518538
0.00955035
-0.0108629
0.0606634
-0.0113057
0.0715621
-0.0114586
0.0845991
-0.0111506
0.0995636
-0.0101953
0.115397
-0.0084959
0.130411
-0.00610167
0.142854
-0.00318942
0.151508
0.155868
-0.00960395
0.0525299
0.00892783
-0.0101555
0.061215
-0.0105168
0.0719234
-0.0105963
0.0846786
-0.0102471
0.0992144
-0.00931438
0.114464
-0.00772436
0.128821
-0.00552812
0.140658
-0.0028834
0.148864
0.152985
-0.00884889
0.0531733
0.00820552
-0.00934216
0.0617082
-0.00963006
0.0722113
-0.00964809
0.0846966
-0.00927371
0.0988401
-0.0083812
0.113571
-0.00691695
0.127357
-0.0049323
0.138673
-0.00256659
0.146498
0.150418
-0.00800427
0.0537737
0.0074038
-0.00843261
0.0621366
-0.00865089
0.0724296
-0.00861841
0.0846641
-0.00823479
0.0984564
-0.0074008
0.112737
-0.00607903
0.126035
-0.00431901
0.136913
-0.00224188
0.144421
0.148176
-0.00708794
0.0543226
0.00653906
-0.00744654
0.0624952
-0.00759669
0.0725797
-0.0075217
0.0845892
-0.00714174
0.0980765
-0.00638155
0.111977
-0.00521657
0.12487
-0.00369232
0.135389
-0.00191144
0.14264
0.146265
-0.00611452
0.0548094
0.00562776
-0.00640239
0.0627831
-0.00648693
0.0726643
-0.00637651
0.0844787
-0.00601051
0.0977105
-0.00533584
0.111303
-0.00433815
0.123873
-0.00305745
0.134109
-0.00157776
0.14116
0.144687
-0.00510032
0.0552223
0.00468742
-0.00531861
0.0630013
-0.00534054
0.0726862
-0.00520137
0.0843396
-0.00485761
0.0973667
-0.00427706
0.110722
-0.00345346
0.123049
-0.00242045
0.133075
-0.00124375
0.139984
0.143443
-0.00406287
0.0555487
0.00373647
-0.00421518
0.0631537
-0.00417641
0.0726474
-0.00401431
0.0841775
-0.00369876
0.0970512
-0.00321806
0.110241
-0.00257207
0.122403
-0.00178751
0.132291
-0.000912518
0.139109
0.142531
-0.00303028
0.0557811
0.0027979
-0.00311688
0.0632403
-0.00301809
0.0725486
-0.0028369
0.0839963
-0.00255234
0.0967666
-0.00217384
0.109863
-0.00170531
0.121934
-0.00116599
0.131752
-0.000587778
0.13853
0.141943
-0.0020228
0.0559217
0.00188217
-0.00203842
0.0632559
-0.00188557
0.0723958
-0.00168544
0.0837961
-0.00143278
0.0965139
-0.00115437
0.109584
-0.00085968
0.12164
-0.000561324
0.131453
-0.000271961
0.138241
0.141671
-0.00107156
0.0559852
0.00100809
-0.00100561
0.0631899
-0.000810556
0.0722007
-0.000590732
0.0835763
-0.000372634
0.0962958
-0.000191639
0.109403
-6.54337e-05
0.121514
-1.25395e-06
0.131389
2.22966e-05
0.138218
0.141693
-0.000211147
0.0560155
0.000180801
-5.281e-05
0.0630316
0.00018417
0.0719638
0.000445081
0.0833154
0.000645705
0.0960952
0.000744558
0.109305
0.000717897
0.12154
0.000566826
0.13154
0.000315682
0.138469
0.142009
0.000637113
0.0559637
-0.000585341
0.000878529
0.0627902
0.00116291
0.0716794
0.00143481
0.0830435
0.00160882
0.0959212
0.00162328
0.10929
0.00144772
0.121716
0.00108837
0.131899
0.000587052
0.13897
0.142596
0.00141165
0.0558465
-0.00129441
0.00171846
0.0624834
0.00204235
0.0713555
0.00233511
0.0827507
0.00249013
0.0957662
0.00243146
0.109349
0.00212085
0.122026
0.00156993
0.13245
0.000836767
0.139703
0.143433
0.00209853
0.0556956
-0.00194764
0.00247106
0.0621108
0.00282997
0.0709966
0.00314414
0.0824366
0.00328663
0.0956237
0.00316636
0.109469
0.00273565
0.122457
0.00201051
0.133176
0.00106448
0.140649
0.144497
0.0027071
0.0555425
-0.00255403
0.00313483
0.0616831
0.00352187
0.0706095
0.00385298
0.0821055
0.00398533
0.0954914
0.00381274
0.109642
0.00327743
0.122992
0.00239858
0.134054
0.00126377
0.141784
0.145761
0.00325394
0.0554188
-0.00313023
0.00372027
0.0612168
0.00413464
0.0701952
0.00448333
0.0817568
0.00461248
0.0953622
0.00439798
0.109856
0.00377008
0.12362
0.00275099
0.135073
0.00144341
0.143092
0.147205
0.00365777
0.0554327
-0.00367159
0.00412115
0.0607534
0.00456049
0.0697558
0.00491745
0.0813998
0.00504368
0.095236
0.00480309
0.110097
0.00411386
0.12431
0.00299717
0.13619
0.00156563
0.144523
0.14877
-0.0366943
0.0510597
0.0410673
-0.0333044
0.0573635
-0.0310617
0.0675132
-0.0286923
0.0790304
-0.0258466
0.0923902
-0.0222001
0.10645
-0.0176316
0.119741
-0.0122408
0.130799
-0.00626341
0.138546
0.142507
-0.0449237
0.0472558
0.0487275
-0.0418192
0.054259
-0.0390052
0.0646992
-0.0357833
0.0758085
-0.0320286
0.0886355
-0.02733
0.101752
-0.0215997
0.114011
-0.0149602
0.12416
-0.00767792
0.131263
0.134829
-0.054221
0.0436516
0.0578253
-0.0510531
0.051091
-0.0475892
0.0612353
-0.0435058
0.0717251
-0.0386675
0.0837972
-0.0326787
0.095763
-0.0255988
0.106931
-0.0175859
0.116147
-0.00891276
0.12259
0.125916
-0.065414
0.0401977
0.0688678
-0.0617556
0.0474327
-0.0574733
0.056953
-0.0524101
0.0666619
-0.0463176
0.0777047
-0.0388605
0.0883059
-0.0302538
0.098324
-0.0207058
0.106599
-0.0105561
0.112441
0.11536
-0.0779208
0.0361944
0.081924
-0.0734464
0.0429583
-0.0680924
0.051599
-0.0616538
0.0602233
-0.0538718
0.0699227
-0.0446164
0.0790505
-0.0342698
0.0879774
-0.0230657
0.0953949
-0.0114496
0.100824
0.10391
-0.0922894
0.0321816
0.0963022
-0.0866955
0.0373643
-0.0800651
0.0449687
-0.072026
0.0521842
-0.062471
0.0603678
-0.051468
0.0680474
-0.039344
0.0758534
-0.0264006
0.0824515
-0.0133597
0.0877836
0.0905507
-0.105974
0.0263053
0.111851
-0.099171
0.030561
-0.0909658
0.0367635
-0.080862
0.0420804
-0.069186
0.0486918
-0.0559499
0.0548113
-0.0415064
0.06141
-0.0263737
0.0673188
-0.0118054
0.0732152
0.0787453
-0.120498
0.0205452
0.126258
-0.112554
0.0226176
-0.102976
0.0271853
-0.0915351
0.0306395
-0.0785856
0.0357422
-0.0639386
0.0401643
-0.0481227
0.0455941
-0.0316989
0.0508949
-0.0167177
0.0582341
0.0620276
-0.134719
0.00999105
0.145273
-0.123485
0.0113831
-0.110156
0.0138569
-0.0952075
0.0156907
-0.0780635
0.0185982
-0.0590738
0.0211746
-0.0381761
0.0246963
-0.0162998
0.0290186
0.00401211
0.0379222
0.0660397
-0.238381
0.248372
-0.226997
-0.213141
-0.19745
-0.178852
-0.157677
-0.132981
-0.103962
-0.0660397
0.00194571
0.0425173
-0.00339572
0.000649647
0.0500236
-0.000336346
0.0588113
-0.0010075
0.069539
-0.00141551
0.0823321
-0.00156249
0.0964492
-0.00133728
0.111625
-0.00100152
0.125922
-0.00169962
0.145971
0.246672
0.00229335
0.0439263
-0.00370236
0.00102679
0.0512901
5.37568e-07
0.0598376
-0.000682331
0.0702219
-0.00113128
0.082781
-0.0013096
0.0966275
-0.0011626
0.111478
-0.000877759
0.125637
-0.00149959
0.146593
0.245172
0.0027121
0.0452351
-0.00402089
0.0014844
0.0525178
0.000511654
0.0608103
-0.000233033
0.0709666
-0.000694493
0.0832425
-0.000914096
0.0968471
-0.000833222
0.111397
-0.000655685
0.12546
-0.00129836
0.147236
0.243874
0.00313357
0.0464449
-0.00434342
0.00195101
0.0537004
0.00101059
0.0617508
0.000269689
0.0717075
-0.000199831
0.083712
-0.000462242
0.0971096
-0.000426355
0.111362
-0.00038131
0.125414
-0.00104001
0.147895
0.242834
0.00354916
0.0475527
-0.00465694
0.00243021
0.0548193
0.00153163
0.0626493
0.000828075
0.072411
0.000349386
0.0841907
8.21802e-06
0.0974507
4.26846e-05
0.111327
-7.23392e-05
0.125529
-0.000736077
0.148558
0.242098
0.00397247
0.0485311
-0.00495085
0.00293923
0.0558526
0.00209067
0.0634979
0.00142376
0.0730779
0.000955317
0.0846591
0.000634521
0.0977715
0.000529796
0.111432
0.000352469
0.125707
-0.000391426
0.149302
0.241707
0.00440261
0.0493463
-0.00521781
0.00347626
0.0567789
0.00268731
0.0642868
0.00206242
0.0737028
0.00160494
0.0851166
0.00126915
0.0981073
0.00107981
0.111621
0.000809028
0.125978
5.38702e-06
0.150106
0.241712
0.00483398
0.0499636
-0.00545129
0.00403183
0.0575811
0.00331267
0.065006
0.00273635
0.0742791
0.00229336
0.0855596
0.00194118
0.0984595
0.0016722
0.11189
0.00129484
0.126355
0.000374077
0.151027
0.242086
0.00525812
0.0503494
-0.00564392
0.00459524
0.058244
0.00395614
0.0656451
0.00343486
0.0748004
0.00301261
0.0859818
0.00264476
0.0988273
0.00229776
0.112237
0.00181078
0.126842
0.000788795
0.152049
0.242875
0.00566247
0.0504744
-0.00578745
0.00515451
0.0587519
0.00460658
0.066193
0.00414671
0.0752603
0.00375264
0.0863759
0.00336972
0.0992103
0.00294819
0.112659
0.00235148
0.127439
0.0012246
0.153176
0.244099
0.0060291
0.0503164
-0.00587109
0.00569242
0.0590886
0.00524858
0.0666369
0.00485574
0.0756531
0.00449616
0.0867355
0.00410182
0.0996046
0.00361125
0.113149
0.00290713
0.128143
0.00167201
0.154411
0.245771
0.00635006
0.0498635
-0.00589717
0.0062016
0.0592371
0.00587395
0.0669645
0.00555443
0.0759726
0.00523526
0.0870546
0.0048352
0.100005
0.00428142
0.113703
0.00347346
0.128951
0.00212796
0.155756
0.247899
0.00660784
0.0491183
-0.00586262
0.00666387
0.059181
0.0064627
0.0671657
0.00622346
0.0762119
0.00595125
0.0873269
0.00555361
0.100402
0.00494458
0.114312
0.00403973
0.129856
0.00258535
0.157211
0.250485
0.00679123
0.0480993
-0.00577226
0.00706449
0.0589078
0.00699923
0.067231
0.00684711
0.076364
0.00662897
0.087545
0.00624332
0.100788
0.00558904
0.114966
0.00459711
0.130847
0.0030377
0.15877
0.253522
0.00689251
0.046843
-0.0056362
0.00739085
0.0584094
0.00746922
0.0671526
0.00741042
0.0764228
0.00725405
0.0877014
0.00689081
0.101151
0.0062036
0.115654
0.00513711
0.131914
0.00347904
0.160428
0.257001
0.00690967
0.0454035
-0.00547019
0.00763333
0.0576858
0.00786007
0.0669258
0.00789976
0.0763831
0.00781313
0.087788
0.00748256
0.101482
0.0067766
0.11636
0.00565076
0.13304
0.00390105
0.162178
0.260902
0.00684944
0.0438477
-0.00529366
0.00778637
0.0567488
0.00816181
0.0665504
0.00830436
0.0762406
0.00829454
0.0877978
0.0080085
0.101768
0.00730021
0.117068
0.00613252
0.134208
0.00429944
0.164011
0.265202
0.00672738
0.0422419
-0.00512157
0.00784818
0.055628
0.00836827
0.0660303
0.00861362
0.0759952
0.00868373
0.0877277
0.00845167
0.102
0.00775709
0.117762
0.00656946
0.135395
0.00466083
0.165919
0.269863
0.00654502
0.0406313
-0.00493444
0.00781713
0.0543559
0.00848609
0.0653614
0.00883826
0.075643
0.00899421
0.0875718
0.00882772
0.102166
0.00816086
0.118429
0.00697218
0.136584
0.00499128
0.1679
0.274854
0.00627073
0.0389724
-0.00461179
0.0076113
0.0530153
0.00842411
0.0645485
0.00887931
0.0751878
0.00912698
0.0873241
0.00903726
0.102256
0.00843313
0.119033
0.00726684
0.13775
0.00528488
0.169882
0.280139
-0.0174505
0.0388365
0.0175864
-0.0155222
0.0510871
-0.0128922
0.0619186
-0.00991394
0.0722095
-0.0068488
0.084259
-0.00357544
0.0989827
-0.000190374
0.115648
0.00231615
0.135244
0.0017812
0.170417
0.28192
-0.030548
0.0373697
0.0320148
-0.0277601
0.0482992
-0.0238703
0.0580288
-0.0194772
0.0678164
-0.0148619
0.0796437
-0.00985184
0.0939726
-0.00468164
0.110478
-0.000509461
0.131071
0.000472392
0.169435
0.282393
-0.0448379
0.0350653
0.0471423
-0.0409226
0.0443839
-0.0356576
0.0527638
-0.0298834
0.0620422
-0.0237056
0.0734659
-0.0168251
0.0870921
-0.00960941
0.103262
-0.00344821
0.12491
-0.00083259
0.16682
0.28156
-0.0603836
0.0318799
0.0635691
-0.0550636
0.0390639
-0.048625
0.0463251
-0.0415877
0.055005
-0.0337101
0.0655883
-0.0247631
0.0781451
-0.0153692
0.0938686
-0.00709785
0.116639
-0.00247895
0.162201
0.279081
-0.0774231
0.0273092
0.0819938
-0.0709052
0.0325459
-0.0636492
0.0390691
-0.0552293
0.0465851
-0.045464
0.055823
-0.0343979
0.0670789
-0.0227778
0.0822484
-0.0121438
0.106005
-0.0048678
0.154925
0.274213
-0.0966295
0.0221705
0.101768
-0.0892412
0.0251576
-0.0809999
0.0308278
-0.070967
0.0365522
-0.0594304
0.0442864
-0.0464395
0.054088
-0.0328191
0.068628
-0.0197673
0.092953
-0.00921576
0.144373
0.264997
-0.118713
0.0153363
0.125548
-0.110871
0.0173149
-0.101841
0.0217979
-0.0908782
0.0255897
-0.0785124
0.0319206
-0.0643541
0.0399298
-0.0492336
0.0535075
-0.033649
0.0773684
-0.0181353
0.12886
0.246862
-0.149492
0.00831177
0.156516
-0.141207
0.00903
-0.131471
0.0120617
-0.120177
0.0142962
-0.107337
0.0190801
-0.0927479
0.0253411
-0.0766662
0.0374258
-0.0588889
0.0595912
-0.0361792
0.10615
0.210683
-0.206321
0.00213699
0.212496
-0.199911
0.00261936
-0.191811
0.00396175
-0.182879
0.00536456
-0.171959
0.00816006
-0.159029
0.0124117
-0.142122
0.0205187
-0.117732
0.0352012
-0.0761505
0.0645681
0.134532
-0.287338
0.289475
-0.284718
-0.280757
-0.275392
-0.267232
-0.25482
-0.234302
-0.1991
-0.134532
0.00216774
0.0184274
-0.00300879
0.000611115
0.0335714
-0.000987584
0.048741
-0.00241643
0.0649979
-0.00357578
0.0831532
-0.00453275
0.102725
-0.00513821
0.126153
-0.00558629
0.156964
-0.00457193
0.211482
0.284903
0.00190989
0.0189346
-0.0024171
0.000653263
0.0348281
-0.000803481
0.0501977
-0.00217772
0.0663721
-0.00332943
0.0843049
-0.0042734
0.103669
-0.00489427
0.126774
-0.00536003
0.15743
-0.00427818
0.2104
0.280625
0.00175312
0.0191768
-0.00199526
0.000784618
0.0357966
-0.0004961
0.0514784
-0.00175814
0.0676342
-0.00285633
0.0854031
-0.00377089
0.104584
-0.0044196
0.127423
-0.0048583
0.157869
-0.00391059
0.209452
0.276714
0.00167884
0.0191941
-0.00169622
0.000984715
0.0364907
-0.000122646
0.0525858
-0.00124932
0.0687609
-0.00227193
0.0864257
-0.00316205
0.105474
-0.00382857
0.128089
-0.00428421
0.158324
-0.00348984
0.208658
0.273224
0.0016817
0.0189994
-0.00148699
0.00126378
0.0369086
0.000371362
0.0534782
-0.000656035
0.0697883
-0.00160069
0.0873703
-0.00246499
0.106338
-0.00315343
0.128778
-0.00364558
0.158816
-0.00302279
0.208035
0.270201
0.00175796
0.0185931
-0.00135161
0.00162503
0.0370415
0.000955028
0.0541482
5.45005e-06
0.0707378
-0.000829803
0.0882056
-0.00167639
0.107185
-0.00239235
0.129494
-0.00294148
0.159366
-0.00251655
0.20761
0.267685
0.00189997
0.0179752
-0.00128208
0.00206173
0.0368798
0.00162285
0.0545871
0.000866765
0.0714939
4.19215e-05
0.0890304
-0.000801613
0.108028
-0.00154024
0.130232
-0.00217562
0.160001
-0.00197733
0.207412
0.265708
0.00209725
0.0171525
-0.0012746
0.00256247
0.0364145
0.00236373
0.0547858
0.00176448
0.0720932
0.00100979
0.0897851
0.000144779
0.108893
-0.000595106
0.130972
-0.00135974
0.160766
-0.00140969
0.207462
0.264298
0.0023381
0.0161434
-0.00132899
0.00311181
0.0356408
0.00316298
0.0547347
0.00272532
0.0725308
0.00204525
0.0904652
0.00123196
0.109707
0.000405246
0.131799
-0.000514336
0.161685
-0.0008157
0.207763
0.263482
0.00261117
-0.00144917
0.00369094
0.00400557
0.00373695
0.00313595
0.00233396
0.00142143
0.00039095
-0.000189737
0.000176641
-0.00136059
0.000513372
-0.00314991
0.000941934
-0.00434198
0.00142403
-0.00509056
0.00193914
-0.00550983
0.00247795
-0.00568689
0.00303839
-0.00568864
0.00362411
-0.00556619
0.00424624
-0.00535914
-0.00510262
0.000180205
-0.00154079
0.000510826
-0.00348053
0.000919037
-0.00475019
0.00136568
-0.0055372
0.00183133
-0.00597548
0.00230863
-0.00616419
0.0027975
-0.00617751
0.00330239
-0.00607107
0.00383078
-0.00588754
-0.00566296
0.00017533
-0.00171612
0.000482427
-0.00378763
0.00084701
-0.00511477
0.00123127
-0.00592146
0.00161859
-0.0063628
0.00200491
-0.00655051
0.00239326
-0.00656587
0.00279036
-0.00646817
0.00320385
-0.00630103
-0.0060988
0.000161158
-0.00187728
0.000426792
-0.00405326
0.000725018
-0.005413
0.00102188
-0.00621832
0.00130514
-0.00664606
0.00157494
-0.00682031
0.00183793
-0.00682886
0.00210349
-0.00673372
0.00238123
-0.00657877
-0.00639714
0.000137319
-0.0020146
0.000344125
-0.00426007
0.000555345
-0.00562422
0.000743458
-0.00640644
0.00090196
-0.00680457
0.00103569
-0.00695404
0.00115478
-0.00694795
0.00127098
-0.00684992
0.00139535
-0.00670314
-0.00654124
0.00010399
-0.00211859
0.000236239
-0.00439232
0.000343189
-0.00573117
0.000406168
-0.00646942
0.000425363
-0.00682376
0.000410311
-0.00693898
0.000374132
-0.00691177
0.000330257
-0.00680604
0.000290285
-0.00666316
-0.00651059
6.19253e-05
-0.00218052
0.000106439
-0.00443683
9.61916e-05
-0.00572092
2.32956e-05
-0.00639652
-0.00010489
-0.00669558
-0.000274533
-0.00676934
-0.000470392
-0.00671591
-0.000678632
-0.0065978
-0.000888053
-0.00645374
-0.00631026
1.23801e-05
-0.0021929
-4.06043e-05
-0.00438385
-0.000176223
-0.0055853
-0.000389959
-0.00618278
-0.000667425
-0.00641811
-0.000991301
-0.00644546
-0.00134528
-0.00636194
-0.00171599
-0.00622709
-0.00209335
-0.00607638
-0.00593307
-4.31086e-05
-0.00214979
-0.0001996
-0.00422736
-0.000463642
-0.00532126
-0.000817747
-0.00582868
-0.00124093
-0.00599493
-0.00171333
-0.00597306
-0.00221856
-0.00585671