/*--------------------------------*- C++ -*----------------------------------*\
  =========                 |
  \\      /  F ield         | OpenFOAM: The Open Source CFD Toolbox
   \\    /   O peration     | Website:  https://openfoam.org
    \\  /    A nd           | Version:  7
     \\/     M anipulation  |
\*---------------------------------------------------------------------------*/
FoamFile
{
    version     2.0;
    format      ascii;
    class       volVectorField;
    location    "68.3";
    object      U;
}
// * * * * * * * * * * * * * * * * * * * * * * * * * * * * * * * * * * * * * //

dimensions      [0 1 -1 0 0 0 0];

internalField   nonuniform List<vector> 
2000
(
(-0.000122229 -0.00738899 -3.10021e-22)
(7.82398e-05 -0.0157843 0)
(0.000908414 -0.0194526 0)
(0.00239917 -0.0192517 -1.58633e-21)
(0.00451752 -0.0156787 5.08714e-22)
(0.00723158 -0.00904822 1.55369e-23)
(0.010498 0.000387846 -8.75042e-22)
(0.0142392 0.0123529 0)
(0.018304 0.026484 0)
(0.0224772 0.0422984 0)
(0.000457451 -0.00715115 0)
(0.00147501 -0.0158366 -1.21518e-21)
(0.00281669 -0.0199702 1.12064e-21)
(0.00446723 -0.02036 2.11658e-21)
(0.00643394 -0.0174914 0)
(0.00873351 -0.0116732 1.91615e-21)
(0.0113783 -0.00312672 -1.78187e-21)
(0.0143517 0.00793558 0)
(0.0175633 0.0212457 3.22838e-21)
(0.020817 0.0364406 -6.21378e-21)
(0.00106516 -0.00692462 0)
(0.00309817 -0.0158647 9.76953e-21)
(0.00520524 -0.0203832 0)
(0.00725526 -0.021281 8.68763e-21)
(0.00928934 -0.0190524 0)
(0.0113613 -0.0140212 -7.77464e-21)
(0.0135326 -0.00639561 0)
(0.0158444 0.0036671 6.94458e-21)
(0.0182751 0.0159994 -6.50397e-21)
(0.020636 0.030374 -6.33851e-21)
(0.00173224 -0.00675143 -2.55603e-21)
(0.00500086 -0.0159101 -4.86212e-21)
(0.00813631 -0.0207073 -2.28582e-21)
(0.0108339 -0.021985 -4.26721e-21)
(0.0131643 -0.0202732 -4.08302e-21)
(0.0152147 -0.0159325 3.82642e-21)
(0.017089 -0.00918052 3.67125e-21)
(0.0188814 -0.000138433 6.66011e-24)
(0.0206442 0.0111216 6.59774e-21)
(0.0221888 0.024511 6.33735e-21)
(0.00250138 -0.00666967 -2.53594e-21)
(0.00724645 -0.0160135 -4.9945e-21)
(0.0116642 -0.0209545 -9.4694e-21)
(0.0152457 -0.0224494 4.35164e-21)
(0.0180928 -0.0210836 0)
(0.0203288 -0.0172737 0)
(0.0220987 -0.0112705 -7.54541e-21)
(0.0235443 -0.00318483 -7.12955e-21)
(0.0247948 0.00699039 6.7331e-21)
(0.0256667 0.0192921 1.92926e-20)
(0.00342146 -0.00670586 2.5732e-21)
(0.00989726 -0.0161996 2.58193e-21)
(0.0158249 -0.0211322 -1.4118e-20)
(0.0204901 -0.0226625 2.23417e-20)
(0.0240392 -0.0214452 -4.15768e-21)
(0.0266423 -0.0179658 0)
(0.0284903 -0.0125276 0)
(0.0297711 -0.0052579 3.58145e-20)
(0.0306927 0.00390529 -3.3718e-20)
(0.0310954 0.0150978 6.37922e-21)
(0.00454565 -0.00687189 2.02397e-20)
(0.0130058 -0.016469 0)
(0.0206229 -0.0212379 1.88376e-20)
(0.0265097 -0.0226236 -1.7841e-20)
(0.0308821 -0.0213594 0)
(0.0339752 -0.0180045 8.09795e-21)
(0.0360376 -0.0129248 -2.27396e-20)
(0.0373084 -0.00628725 -2.87517e-20)
(0.0380753 0.00199753 1.35079e-20)
(0.0382325 0.0121373 1.29769e-20)
(0.00592405 -0.00715834 -4.0468e-20)
(0.0166047 -0.0167958 -5.08578e-21)
(0.0260208 -0.0212551 -9.5733e-21)
(0.0331827 -0.0223408 -2.25086e-20)
(0.0384097 -0.0208681 -8.61018e-21)
(0.0420264 -0.017465 -8.15729e-21)
(0.0443561 -0.0125605 -1.21521e-23)
(0.0456983 -0.00637643 0)
(0.0464244 0.00117817 0)
(0.0465179 0.0103684 1.55567e-22)
(0.00759585 -0.00753293 2.02287e-20)
(0.0206954 -0.017126 -2.02793e-20)
(0.0319321 -0.0211533 1.4234e-20)
(0.0403219 -0.021829 3.16994e-20)
(0.0463298 -0.0200478 -8.46296e-21)
(0.050398 -0.0164925 8.11135e-21)
(0.0529399 -0.0116425 7.66374e-21)
(0.0543235 -0.00577595 0)
(0.055002 0.00117978 0)
(0.0550964 0.0095233 -2.66481e-22)
(0.0095822 -0.00794293 -2.53574e-21)
(0.0252383 -0.0173817 2.54413e-20)
(0.0382159 -0.0208902 -4.75707e-21)
(0.047681 -0.0211098 0)
(0.0542928 -0.019003 0)
(0.0586427 -0.0152847 1.61549e-20)
(0.0612517 -0.0104576 0)
(0.0625576 -0.00483285 -1.42744e-20)
(0.0630566 0.00162224 -2.59306e-23)
(0.0630036 0.00913903 1.28107e-20)
(0.0321961 0.0801842 2.43187e-22)
(0.0475301 0.151218 -2.46045e-22)
(0.0521016 0.212206 -2.88591e-22)
(0.0503984 0.267742 -3.31895e-22)
(0.0438274 0.325523 -4.09252e-22)
(0.0386781 0.38915 -1.42707e-23)
(0.026028 0.460603 2.16508e-22)
(0.0226272 0.54764 7.68221e-22)
(0.00135642 0.670062 0)
(0.00715992 0.81649 -5.63836e-22)
(0.028215 0.0736863 9.19089e-22)
(0.0432402 0.146233 -1.07541e-21)
(0.0487529 0.210324 1.93482e-21)
(0.047745 0.267683 3.32456e-22)
(0.0417047 0.326395 7.21815e-22)
(0.0369651 0.390645 1.24337e-21)
(0.0248844 0.462615 -4.66847e-22)
(0.021663 0.550105 -5.15023e-22)
(0.00129468 0.672189 1.01391e-21)
(0.00669897 0.817318 5.625e-22)
(0.0253994 0.0665087 0)
(0.0393786 0.139747 -1.01104e-21)
(0.0457321 0.207091 -5.63773e-22)
(0.0453749 0.266494 0)
(0.0398199 0.326262 -2.22255e-21)
(0.0354682 0.391229 6.93408e-22)
(0.0238946 0.463796 7.86889e-22)
(0.0208104 0.551793 2.78102e-21)
(0.00127685 0.673886 -1.01063e-21)
(0.00628162 0.817952 2.03297e-21)
(0.024079 0.0590146 0)
(0.0359928 0.13184 1.01956e-21)
(0.0430314 0.202476 0)
(0.0432652 0.264146 2.56431e-21)
(0.0381554 0.325112 -2.57758e-21)
(0.0341687 0.390878 -1.58452e-21)
(0.0230457 0.464063 -1.00843e-22)
(0.0200809 0.552554 -2.71571e-21)
(0.00130819 0.674812 -4.45804e-22)
(0.00588915 0.818195 -2.50133e-21)
(0.0246295 0.051637 5.06166e-23)
(0.0331935 0.122718 -2.90697e-21)
(0.0406434 0.19647 1.50888e-22)
(0.0413927 0.260617 -2.24159e-21)
(0.0366905 0.32297 0)
(0.0330429 0.389681 -1.51412e-21)
(0.0223132 0.463619 -1.30813e-22)
(0.0194421 0.552772 3.42159e-21)
(0.00135087 0.675483 4.54914e-22)
(0.0055242 0.81837 -4.5656e-22)
(0.0273417 0.0448148 -7.95956e-21)
(0.0311728 0.112738 5.0226e-21)
(0.0385661 0.189101 2.18601e-21)
(0.0397392 0.255889 -2.18489e-21)
(0.0354113 0.319781 -1.22632e-21)
(0.032081 0.387475 0)
(0.021703 0.462136 -3.03874e-21)
(0.0189227 0.551852 1.51145e-21)
(0.0014409 0.675071 1.66302e-21)
(0.00516953 0.818049 1.73191e-21)
(0.0322212 0.038912 -9.70413e-22)
(0.0301871 0.102413 0)
(0.0368112 0.180443 0)
(0.0382822 0.250011 0)
(0.0342932 0.31575 -1.31421e-21)
(0.0312535 0.38472 2.53657e-21)
(0.0211693 0.460385 2.96381e-21)
(0.0184376 0.550975 -4.61381e-21)
(0.00149279 0.675 8.19532e-22)
(0.00484236 0.817927 -2.52691e-21)
(0.0387969 0.0341027 6.11521e-21)
(0.0304572 0.0922756 4.12918e-21)
(0.0354117 0.170685 -4.09191e-21)
(0.0370259 0.242841 4.51204e-21)
(0.0333256 0.310335 -5.6135e-21)
(0.0305712 0.380426 0)
(0.0207711 0.45689 -1.336e-21)
(0.0181153 0.548104 6.54768e-23)
(0.00163658 0.673039 -1.48368e-21)
(0.00451177 0.817025 -1.5533e-21)
(0.0459818 0.0300982 -5.23848e-21)
(0.0319756 0.0822381 0)
(0.0343711 0.159918 -4.6741e-21)
(0.035927 0.235197 8.52168e-21)
(0.0325012 0.305245 -3.19392e-21)
(0.0299631 0.3771 -5.99915e-22)
(0.0203527 0.454832 1.33314e-21)
(0.0176853 0.547107 7.79894e-24)
(0.00162816 0.672937 2.14255e-21)
(0.00421438 0.816837 2.25825e-21)
(0.05195 0.0268388 -4.2304e-21)
(0.0343014 0.0721759 4.13017e-21)
(0.0338748 0.146403 5.10551e-22)
(0.0349686 0.223226 0)
(0.031721 0.295286 0)
(0.0295755 0.368785 5.84673e-22)
(0.0202436 0.447735 2.50155e-21)
(0.0176563 0.541055 -2.42982e-21)
(0.00188358 0.66868 -6.56502e-22)
(0.00389471 0.815243 6.35729e-22)
(0.0568127 0.0296796 0)
(0.0378639 0.0667412 0)
(0.0342948 0.137215 0)
(0.0343668 0.218267 0)
(0.0305108 0.294172 0)
(0.0277285 0.370003 0)
(0.0187102 0.450114 0)
(0.0160113 0.544657 0)
(0.00132484 0.671712 0)
(0.00325352 0.815562 0)
(0.0617027 0.0540247 0)
(0.0423416 0.0880516 0)
(0.0331402 0.145774 0)
(0.03192 0.222107 0)
(0.0284012 0.298488 0)
(0.0255958 0.375748 0)
(0.0174607 0.457446 0)
(0.0145599 0.553552 0)
(0.00123279 0.679848 0)
(0.00268915 0.818707 0)
(0.0619063 0.0644973 0)
(0.0467203 0.102245 0)
(0.034018 0.154139 0)
(0.0305728 0.22673 0)
(0.026852 0.302935 0)
(0.0235423 0.380313 0)
(0.0158605 0.462434 0)
(0.0128709 0.558944 0)
(0.000880424 0.684273 0)
(0.002176 0.819073 0)
(0.0588679 0.0712274 0)
(0.0488524 0.114332 0)
(0.0353873 0.162864 0)
(0.0295215 0.231488 0)
(0.0255923 0.307972 0)
(0.0224787 0.386673 0)
(0.0154309 0.470239 0)
(0.012173 0.567932 0)
(0.00114878 0.692296 0)
(0.00190412 0.822107 0)
(0.0544113 0.0747068 0)
(0.0488806 0.124469 0)
(0.0367909 0.172253 0)
(0.0295162 0.23663 0)
(0.0247054 0.311628 0)
(0.0209453 0.390114 0)
(0.0142696 0.473914 0)
(0.0110632 0.571811 0)
(0.000993559 0.695339 0)
(0.00158187 0.821923 0)
(0.0487004 0.0751967 0)
(0.0469733 0.131857 0)
(0.0367776 0.180963 0)
(0.0289366 0.242356 0)
(0.0244779 0.316864 0)
(0.020936 0.396546 0)
(0.0144944 0.481745 0)
(0.0108891 0.580727 0)
(0.00146803 0.70307 0)
(0.00146741 0.824812 0)
(0.042062 0.0729074 0)
(0.0440493 0.13679 0)
(0.0371569 0.189989 0)
(0.0289323 0.248784 0)
(0.0233879 0.320226 0)
(0.0195878 0.398864 0)
(0.0136562 0.484057 0)
(0.0101845 0.583089 0)
(0.00140468 0.704824 0)
(0.00127986 0.824303 0)
(0.0344431 0.0674737 0)
(0.0391821 0.136658 0)
(0.03554 0.194801 0)
(0.0291395 0.255173 0)
(0.024224 0.327064 0)
(0.0202893 0.406574 0)
(0.0142868 0.492819 0)
(0.0103227 0.592688 0)
(0.00201309 0.712914 0)
(0.00126738 0.827432 0)
(0.0285237 0.0624207 0)
(0.0364453 0.138109 0)
(0.0354847 0.201188 0)
(0.0289249 0.260086 0)
(0.0232353 0.329089 0)
(0.0193361 0.407622 0)
(0.0137581 0.493916 0)
(0.00992908 0.593735 0)
(0.00197484 0.71371 0)
(0.00117164 0.827016 0)
(0.0193869 0.0452272 0)
(0.0301198 0.126083 0)
(0.034419 0.200355 0)
(0.0313982 0.26737 0)
(0.025895 0.338396 0)
(0.0209997 0.417287 0)
(0.0148878 0.504208 0)
(0.0103601 0.604679 0)
(0.0027397 0.722714 0)
(0.00122396 0.830683 0)
(0.0695962 0.020073 3.83734e-21)
(0.069917 0.0329688 -3.77261e-21)
(0.065919 0.0371966 3.35644e-22)
(0.0604545 0.0387107 0)
(0.0541955 0.0377608 0)
(0.0467525 0.0348086 1.07251e-22)
(0.0384677 0.02999 -1.43499e-22)
(0.0295811 0.0228764 1.4106e-22)
(0.0220262 0.0165482 -1.64474e-23)
(0.0133633 0.000579134 1.62293e-23)
(0.0724416 0.0161413 -4.99606e-21)
(0.0703583 0.0240236 0)
(0.0650965 0.0253514 1.90966e-21)
(0.0590278 0.0247129 -3.82379e-21)
(0.0523762 0.0220442 1.92052e-21)
(0.044615 0.017809 -1.05032e-22)
(0.0360822 0.0120607 9.40976e-23)
(0.0271503 0.00441619 2.89715e-23)
(0.0191022 -0.00235462 -3.2391e-23)
(0.0105686 -0.0173205 -3.86127e-23)
(0.0739897 0.0115408 5.63883e-21)
(0.0699815 0.0148904 -2.68753e-21)
(0.063936 0.0135567 2.66167e-21)
(0.0574283 0.0108447 -1.51608e-21)
(0.0504351 0.00648607 1.18408e-21)
(0.042382 0.000985034 0)
(0.0336328 -0.0056614 -9.43125e-23)
(0.0246985 -0.0136803 -2.32959e-24)
(0.0163187 -0.0207318 7.8461e-24)
(0.00853867 -0.0340722 5.60577e-23)
(0.0745449 0.00546503 -8.65162e-22)
(0.0688858 0.00482938 0)
(0.0623471 0.0012508 0)
(0.0555133 -0.00325415 0)
(0.0482558 -0.00907684 7.60384e-22)
(0.0400304 -0.0156383 -4.69303e-22)
(0.0311438 -0.0229916 3.2755e-23)
(0.0222481 -0.0311555 1.30515e-23)
(0.0138019 -0.0382254 1.26554e-23)
(0.00670594 -0.0496233 2.55731e-23)
(0.0739879 -0.00217741 -5.42801e-22)
(0.0669914 -0.00618941 -2.30322e-21)
(0.0602157 -0.0116231 -9.51029e-22)
(0.053176 -0.017592 9.5034e-22)
(0.0457578 -0.0246006 -2.87437e-22)
(0.0374677 -0.0319421 0)
(0.0285807 -0.0397305 -8.4993e-23)
(0.0198201 -0.0477876 2.8083e-23)
(0.0115557 -0.0545809 -8.12958e-24)
(0.00512385 -0.0639688 -3.86324e-23)
(0.072411 -0.0111875 -6.27969e-21)
(0.0644465 -0.0179236 1.03562e-21)
(0.0576499 -0.0248903 2.62438e-22)
(0.0504977 -0.032 9.26005e-22)
(0.0430353 -0.0399007 0)
(0.0347507 -0.047729 0)
(0.0260039 -0.0556785 0)
(0.0174914 -0.0633883 2.93736e-23)
(0.0095946 -0.0696531 0)
(0.00384541 -0.0771272 0)
(0.0699476 -0.0212597 0)
(0.0613909 -0.0300457 1.80578e-21)
(0.0547463 -0.0382835 -1.16652e-21)
(0.0475648 -0.046224 -6.67797e-22)
(0.0401614 -0.0547441 6.71221e-22)
(0.0319908 -0.0627844 1.3261e-22)
(0.0234916 -0.0706465 -1.66853e-22)
(0.0153311 -0.0778149 -1.38903e-22)
(0.0079285 -0.0833811 1.11028e-23)
(0.00285147 -0.0891412 1.2356e-23)
(0.0666886 -0.0320783 0)
(0.0579471 -0.0422166 -6.3972e-22)
(0.0515811 -0.0515195 -2.59255e-22)
(0.0444662 -0.0599991 0)
(0.037219 -0.0688957 8.72385e-23)
(0.029268 -0.07691 -3.22732e-22)
(0.0211079 -0.0844833 1.31322e-22)
(0.0133844 -0.0909816 1.75983e-24)
(0.00654859 -0.0957693 -7.69903e-24)
(0.00209865 -0.100071 -1.39959e-23)
(0.0627573 -0.0432603 8.37052e-22)
(0.0542256 -0.0541438 5.77935e-22)
(0.0482375 -0.0643341 -1.93586e-22)
(0.0412846 -0.0730845 1.0045e-22)
(0.0342834 -0.082151 1.41613e-22)
(0.0266465 -0.0899504 1.40438e-22)
(0.0188987 -0.0970918 -2.88567e-23)
(0.0116733 -0.102861 -1.42076e-23)
(0.00542947 -0.10687 7.72421e-24)
(0.001541 -0.109986 -2.63077e-25)
(0.0583304 -0.0544971 -1.77152e-22)
(0.0503228 -0.0655855 1.78745e-22)
(0.0447918 -0.0765063 -1.30645e-22)
(0.0380971 -0.0852899 -1.00297e-22)
(0.0314184 -0.0943585 6.18166e-23)
(0.0241765 -0.101809 -1.10844e-22)
(0.0168917 -0.108434 4.02896e-23)
(0.0101991 -0.113479 2.69523e-24)
(0.0045355 -0.116768 0)
(0.00113491 -0.118956 2.63622e-25)
(0.0536046 -0.0655365 1.81226e-22)
(0.0463529 -0.0763644 -1.82759e-22)
(0.0413331 -0.0878718 -1.36917e-22)
(0.034988 -0.0964901 -1.06289e-22)
(0.0286838 -0.105429 -6.49983e-23)
(0.021898 -0.112452 1.06876e-23)
(0.0151001 -0.118526 2.21963e-23)
(0.0089488 -0.1229 3.2865e-23)
(0.00382764 -0.125561 0)
(0.000841761 -0.127051 -2.26373e-24)
(0.0487868 -0.0761961 0)
(0.0424437 -0.0863721 -6.15425e-22)
(0.0379545 -0.0983257 1.0403e-21)
(0.0320394 -0.106629 1.06445e-22)
(0.0261304 -0.115335 1.66147e-22)
(0.019838 -0.121903 1.72142e-22)
(0.013525 -0.127429 -3.50891e-23)
(0.00790042 -0.131217 -1.98203e-23)
(0.00326864 -0.133355 2.31913e-23)
(0.000630172 -0.13434 2.25825e-24)
(0.0440456 -0.0863634 0)
(0.0386975 -0.0955706 -7.10853e-22)
(0.0347213 -0.107819 -2.83821e-22)
(0.0293064 -0.115714 0)
(0.0237857 -0.124103 -4.5703e-22)
(0.0180037 -0.130233 1.75375e-22)
(0.0121547 -0.135237 1.03776e-22)
(0.00702651 -0.138542 1.67137e-22)
(0.00282579 -0.140258 -2.31156e-23)
(0.00047619 -0.140891 1.69324e-23)
(0.0395055 -0.0959853 0)
(0.0351852 -0.103993 7.1674e-22)
(0.0316704 -0.116354 0)
(0.026815 -0.123816 8.27695e-22)
(0.021657 -0.131805 -8.31992e-22)
(0.0163852 -0.13755 -2.16186e-22)
(0.0109694 -0.142067 4.95797e-23)
(0.00629811 -0.144994 -1.74772e-22)
(0.00247226 -0.146374 -3.20283e-23)
(0.000362108 -0.146776 -2.63427e-23)
(0.0352614 -0.105054 7.34958e-21)
(0.0319638 -0.111739 -2.75396e-21)
(0.0288275 -0.123973 -2.66625e-22)
(0.0245757 -0.131048 -1.12043e-21)
(0.0197439 -0.138548 0)
(0.0149651 -0.143985 -2.3194e-22)
(0.00994771 -0.148048 7.86857e-23)
(0.00568859 -0.150696 2.67786e-22)
(0.00218747 -0.151809 1.07929e-23)
(0.000275384 -0.152073 -1.07796e-23)
(0.0313716 -0.11358 6.29446e-22)
(0.0290807 -0.118968 4.29842e-21)
(0.0262173 -0.130751 1.17272e-21)
(0.0225896 -0.137555 -1.17201e-21)
(0.0180453 -0.144465 -4.08057e-22)
(0.0137244 -0.149679 0)
(0.00907052 -0.153314 -3.76875e-22)
(0.00517589 -0.15577 2.01487e-22)
(0.00195677 -0.156669 1.00821e-22)
(0.000207469 -0.156865 2.56202e-23)
(0.0278756 -0.121561 -1.03472e-21)
(0.0265946 -0.12589 0)
(0.0238828 -0.136787 0)
(0.0208605 -0.143495 0)
(0.0165683 -0.1497 -3.21672e-22)
(0.0126494 -0.154778 7.28921e-22)
(0.00832489 -0.158002 3.88988e-22)
(0.00474412 -0.160338 -4.59617e-22)
(0.00177061 -0.16106 2.62276e-23)
(0.000152541 -0.161242 -5.13213e-23)
(0.0247781 -0.128938 -2.39294e-21)
(0.0245357 -0.132742 3.20599e-21)
(0.0218566 -0.142197 -3.17577e-21)
(0.0193702 -0.14902 2.04147e-21)
(0.01531 -0.154406 -2.47668e-21)
(0.0117204 -0.159421 0)
(0.00769626 -0.162243 -2.38421e-22)
(0.00437899 -0.164514 -1.1124e-23)
(0.00162164 -0.165085 -8.7732e-23)
(0.000105774 -0.165296 -2.98882e-23)
(0.0217511 -0.135528 -1.12435e-21)
(0.0226064 -0.139755 0)
(0.0199803 -0.147117 -3.14346e-21)
(0.0179491 -0.154271 4.87977e-21)
(0.0141669 -0.158738 -1.6765e-21)
(0.0108549 -0.163743 -1.78831e-22)
(0.00713442 -0.166165 2.37878e-22)
(0.00404969 -0.16841 2.91562e-23)
(0.00149669 -0.168846 1.8099e-22)
(6.38615e-05 -0.169122 5.92794e-23)
(0.0187512 -0.140854 -4.55933e-21)
(0.0206426 -0.147142 4.45453e-21)
(0.0182654 -0.15175 4.06637e-22)
(0.016567 -0.159395 0)
(0.0131202 -0.162871 0)
(0.0100445 -0.16789 1.84169e-22)
(0.00663101 -0.169904 4.43832e-22)
(0.00375377 -0.172139 -4.35536e-22)
(0.00139474 -0.172449 -3.29339e-23)
(4.07583e-05 -0.17282 3.22143e-23)
(0.0190386 -0.148322 0)
(0.0209839 -0.164633 0)
(0.0180476 -0.162209 0)
(0.0160048 -0.171349 0)
(0.0125908 -0.17258 0)
(0.00945001 -0.177746 0)
(0.00625602 -0.178793 0)
(0.00351773 -0.181006 0)
(0.00136927 -0.180954 0)
(7.69158e-05 -0.181507 0)
(0.0164127 -0.175279 0)
(0.0144473 -0.192267 0)
(0.0125856 -0.185632 0)
(0.0105623 -0.194695 0)
(0.00840273 -0.193059 0)
(0.0062312 -0.197925 0)
(0.00419191 -0.197365 0)
(0.00239753 -0.199436 0)
(0.00100105 -0.198685 0)
(9.79546e-05 -0.199403 0)
(0.0166988 -0.206277 0)
(0.0135951 -0.223874 0)
(0.0113269 -0.214331 0)
(0.00897615 -0.223711 0)
(0.00702092 -0.219884 0)
(0.00504347 -0.224922 0)
(0.00344495 -0.223047 0)
(0.00199178 -0.225284 0)
(0.000919807 -0.223853 0)
(0.000110155 -0.224832 0)
(0.0163451 -0.244576 0)
(0.0124925 -0.263352 0)
(0.0102371 -0.251635 0)
(0.00770687 -0.261884 0)
(0.00603058 -0.256238 0)
(0.00420984 -0.261897 0)
(0.00297529 -0.25883 0)
(0.00173607 -0.26153 0)
(0.000890912 -0.259378 0)
(0.000111244 -0.260771 0)
(0.0158093 -0.292446 0)
(0.0116029 -0.311879 0)
(0.00939575 -0.29923 0)
(0.00674474 -0.310357 0)
(0.00530568 -0.30354 0)
(0.00357075 -0.310003 0)
(0.00261837 -0.306011 0)
(0.0014909 -0.309349 0)
(0.000829833 -0.306547 0)
(8.06986e-05 -0.308506 0)
(0.0146623 -0.348807 0)
(0.0104384 -0.366938 0)
(0.00844032 -0.355497 0)
(0.00578212 -0.366523 0)
(0.00459752 -0.359786 0)
(0.00291903 -0.366564 0)
(0.00219567 -0.362293 0)
(0.00111742 -0.366052 0)
(0.000648818 -0.362939 0)
(-1.65753e-07 -0.365379 0)
(0.0125143 -0.407416 0)
(0.00872792 -0.422029 0)
(0.00705234 -0.41397 0)
(0.00464542 -0.423342 0)
(0.00370701 -0.418167 0)
(0.00216691 -0.424181 0)
(0.00161172 -0.420553 0)
(0.000613488 -0.424037 0)
(0.000348788 -0.421215 0)
(-9.95791e-05 -0.423681 0)
(0.00946442 -0.45867 0)
(0.0065188 -0.468776 0)
(0.00522907 -0.465039 0)
(0.00334655 -0.471669 0)
(0.00263618 -0.468887 0)
(0.00139208 -0.473167 0)
(0.000961134 -0.470841 0)
(0.000151007 -0.47331 0)
(5.79831e-05 -0.471297 0)
(-0.000152719 -0.473166 0)
(0.00583956 -0.494905 0)
(0.00395913 -0.501175 0)
(0.00316019 -0.50106 0)
(0.00197755 -0.505061 0)
(0.00153893 -0.504452 0)
(0.000726813 -0.506869 0)
(0.000444659 -0.505856 0)
(-8.40125e-05 -0.507111 0)
(-7.99864e-05 -0.50601 0)
(-0.000132726 -0.507011 0)
(0.00196487 -0.513129 0)
(0.00129703 -0.517421 0)
(0.00104758 -0.519268 0)
(0.000641245 -0.521753 0)
(0.000505776 -0.522341 0)
(0.000217194 -0.523617 0)
(0.000124035 -0.523374 0)
(-6.46703e-05 -0.523861 0)
(-4.73324e-05 -0.523331 0)
(-5.30564e-05 -0.523744 0)
(0.0182959 -0.159016 5.3524e-21)
(0.0178759 -0.187142 -5.24738e-21)
(0.0189135 -0.219927 6.7909e-22)
(0.0187471 -0.25948 0)
(0.0182411 -0.307197 0)
(0.0168395 -0.361314 7.86579e-22)
(0.0143595 -0.415745 -3.38148e-21)
(0.0109272 -0.462225 3.33818e-21)
(0.00683607 -0.4946 9.09248e-22)
(0.00232887 -0.510785 -8.95141e-22)
(0.0183917 -0.164266 -6.29993e-21)
(0.0187602 -0.192132 0)
(0.0199594 -0.224998 4.61047e-21)
(0.0198356 -0.26461 -1.06398e-20)
(0.0193134 -0.312019 6.83123e-21)
(0.0177932 -0.36519 -7.24277e-22)
(0.0151755 -0.418102 1.61424e-21)
(0.0115825 -0.462965 3.40708e-21)
(0.00728316 -0.494105 9.6086e-22)
(0.00248618 -0.509696 9.32186e-22)
(0.0188738 -0.16971 7.36734e-21)
(0.0200357 -0.197426 -5.09004e-21)
(0.021279 -0.230092 5.04188e-21)
(0.0211492 -0.26947 -5.64765e-21)
(0.0205571 -0.316363 4.17983e-21)
(0.0188724 -0.368467 0)
(0.016068 -0.419863 -1.61819e-21)
(0.0122615 -0.463219 8.48864e-23)
(0.00771265 -0.493285 -1.78946e-21)
(0.00262237 -0.508393 -1.82858e-21)
(0.0197595 -0.174561 -1.19312e-21)
(0.0216263 -0.202342 0)
(0.022854 -0.234899 0)
(0.0226893 -0.274058 0)
(0.021985 -0.320429 4.65856e-21)
(0.0201039 -0.371476 -3.11482e-21)
(0.0170726 -0.421403 -2.0925e-23)
(0.0130011 -0.463294 -1.91254e-21)
(0.00815713 -0.492289 -9.81453e-22)
(0.00275351 -0.50687 -1.05048e-21)
(0.0211189 -0.178912 1.26237e-22)
(0.0234995 -0.206619 -3.60869e-21)
(0.0246518 -0.239073 -2.76382e-21)
(0.0244287 -0.278054 2.7621e-21)
(0.0235805 -0.323954 -1.52283e-21)
(0.0214852 -0.37404 0)
(0.0182044 -0.422635 -1.78436e-21)
(0.0138336 -0.463176 3.905e-21)
(0.00865591 -0.491149 -1.99847e-21)
(0.00290109 -0.505184 2.05589e-21)
(0.0229965 -0.182861 -9.60269e-21)
(0.0256778 -0.210292 1.03684e-21)
(0.0266845 -0.242522 -2.03477e-22)
(0.0263648 -0.28129 2.83945e-21)
(0.0253383 -0.326731 0)
(0.023011 -0.375951 0)
(0.0194629 -0.423383 0)
(0.0147684 -0.462751 2.09267e-21)
(0.00922569 -0.489826 0)
(0.00307627 -0.503368 0)
(0.0254054 -0.186314 0)
(0.0281826 -0.213353 3.97595e-21)
(0.0289827 -0.245248 -2.68706e-21)
(0.0285166 -0.283741 -3.1881e-21)
(0.027273 -0.328709 3.2047e-21)
(0.024689 -0.377137 1.9075e-21)
(0.0208491 -0.42356 -1.89273e-21)
(0.0158042 -0.461943 -7.47535e-21)
(0.00986579 -0.488278 5.3225e-22)
(0.00328067 -0.50142 -1.82112e-21)
(0.0283532 -0.189133 0)
(0.0310216 -0.215721 -1.29198e-21)
(0.0315685 -0.247213 -7.30605e-22)
(0.0309031 -0.285401 0)
(0.0294049 -0.329897 9.30445e-22)
(0.0265351 -0.377608 -2.80921e-21)
(0.0223717 -0.423166 3.12395e-21)
(0.0169422 -0.460736 1.11413e-21)
(0.0105726 -0.486486 -1.21918e-21)
(0.00351308 -0.499324 2.41613e-21)
(0.031851 -0.191206 1.1615e-21)
(0.0341995 -0.217321 1.40422e-21)
(0.0344549 -0.248363 -3.11106e-22)
(0.0335357 -0.286249 4.17635e-22)
(0.0317501 -0.330296 8.87082e-22)
(0.0285643 -0.377387 1.48732e-21)
(0.0240418 -0.422228 -5.58947e-22)
(0.0181874 -0.459148 -6.03749e-22)
(0.0113454 -0.484447 1.2232e-21)
(0.00377313 -0.497066 6.62881e-22)
(0.0359092 -0.192442 -3.24239e-22)
(0.0377218 -0.218114 3.27201e-22)
(0.0376522 -0.248649 -3.76226e-22)
(0.036421 -0.286258 -4.171e-22)
(0.0343197 -0.329894 4.94478e-22)
(0.0307875 -0.376477 -1.00927e-21)
(0.0258704 -0.420756 8.55264e-22)
(0.0195486 -0.457187 3.05672e-22)
(0.0121887 -0.482164 0)
(0.00406245 -0.494639 -6.64359e-22)
(0.040536 -0.19277 3.32485e-22)
(0.0415914 -0.218091 -3.35644e-22)
(0.0411706 -0.248046 -4.04244e-22)
(0.0395638 -0.285425 -4.50871e-22)
(0.0371229 -0.328686 -5.16051e-22)
(0.0332119 -0.374887 -3.57983e-23)
(0.0278649 -0.418762 3.0145e-22)
(0.021031 -0.454864 9.72904e-22)
(0.0131051 -0.479642 0)
(0.00438213 -0.49204 -7.25075e-22)
(0.0457365 -0.192168 0)
(0.0458084 -0.217253 -1.54698e-21)
(0.0450178 -0.246565 2.80442e-21)
(0.0429661 -0.283754 4.51638e-22)
(0.0401688 -0.326674 1.04811e-21)
(0.0358449 -0.372612 1.71824e-21)
(0.0300356 -0.416237 -6.10775e-22)
(0.0226457 -0.452168 -6.59994e-22)
(0.0141025 -0.47687 1.45961e-21)
(0.00473472 -0.489262 7.23383e-22)
(0.0515118 -0.190682 0)
(0.0503718 -0.215592 -1.52577e-21)
(0.0491981 -0.244247 -8.4334e-22)
(0.0466328 -0.28127 0)
(0.0434631 -0.323898 -3.29979e-21)
(0.0386897 -0.369683 1.10323e-21)
(0.0323838 -0.413211 1.31145e-21)
(0.0243899 -0.449124 4.2333e-21)
(0.0151771 -0.473849 -1.45488e-21)
(0.0051181 -0.486296 3.14041e-21)
(0.0578586 -0.188434 0)
(0.0552837 -0.213096 1.53879e-21)
(0.0536994 -0.241241 0)
(0.0505639 -0.277959 4.2199e-21)
(0.0470127 -0.320371 -4.24154e-21)
(0.0417575 -0.366082 -2.58765e-21)
(0.0349222 -0.40965 -5.72039e-23)
(0.0262847 -0.445695 -4.35655e-21)
(0.0163463 -0.470549 -7.26173e-22)
(0.00553612 -0.483117 -3.90619e-21)
(0.0647543 -0.185545 1.11338e-20)
(0.0605438 -0.209738 -4.26888e-21)
(0.0585284 -0.23753 4.55241e-22)
(0.0547926 -0.273829 -3.9452e-21)
(0.0508064 -0.31613 0)
(0.0450483 -0.361868 -2.69871e-21)
(0.0376435 -0.405624 -2.24352e-22)
(0.0283175 -0.441935 5.9173e-21)
(0.0175983 -0.46702 8.11062e-22)
(0.00598203 -0.479755 -8.14163e-22)
(0.0721329 -0.18201 -1.12773e-21)
(0.0661861 -0.205571 7.98353e-21)
(0.0636462 -0.233093 4.10497e-21)
(0.0593077 -0.269018 -4.10217e-21)
(0.0548512 -0.311188 -2.46863e-21)
(0.0485776 -0.356994 0)
(0.0405755 -0.40104 -6.04434e-21)
(0.0305226 -0.437758 3.03113e-21)
(0.0189623 -0.463207 3.23624e-21)
(0.00646828 -0.476169 3.47403e-21)
(0.0799235 -0.17787 -1.53406e-21)
(0.0722058 -0.20076 0)
(0.069021 -0.228087 0)
(0.0640903 -0.263685 0)
(0.0591345 -0.305768 -2.84555e-21)
(0.0523142 -0.351751 5.30498e-21)
(0.0436651 -0.396203 6.15745e-21)
(0.0328333 -0.433396 -9.69375e-21)
(0.020383 -0.459234 1.73466e-21)
(0.00696713 -0.472429 -5.15981e-21)
(0.0879987 -0.173228 -2.31206e-21)
(0.078599 -0.195245 7.87384e-21)
(0.0746441 -0.222415 -7.79863e-21)
(0.0691576 -0.257567 9.99317e-21)
(0.0637041 -0.299458 -1.25663e-20)
(0.0563506 -0.345573 0)
(0.0470518 -0.390521 -3.21915e-21)
(0.0354069 -0.428402 -1.32371e-22)
(0.0219859 -0.45485 -3.60521e-21)
(0.00753389 -0.468371 -3.6736e-21)
(0.0961526 -0.16874 -1.63056e-21)
(0.0852599 -0.189693 0)
(0.08037 -0.216937 -1.04078e-20)
(0.0743431 -0.251801 1.95889e-20)
(0.0683536 -0.293717 -7.57975e-21)
(0.0604123 -0.340099 -1.52427e-21)
(0.050397 -0.385486 3.2122e-21)
(0.0379 -0.423804 -1.62149e-22)
(0.023514 -0.450581 5.2624e-21)
(0.0080483 -0.464293 5.4365e-21)
(0.104752 -0.162186 -7.32259e-21)
(0.0931811 -0.18159 7.1759e-21)
(0.0869781 -0.20874 1.10759e-21)
(0.0803321 -0.243059 0)
(0.073772 -0.284793 0)
(0.0652779 -0.331556 1.49325e-21)
(0.054549 -0.377967 6.82923e-21)
(0.0411061 -0.417583 -6.67863e-21)
(0.0255384 -0.44542 -1.82778e-21)
(0.00876542 -0.45958 1.79707e-21)
(0.115888 -0.162866 0)
(0.110341 -0.178713 0)
(0.100769 -0.206921 0)
(0.0925921 -0.240607 0)
(0.0845143 -0.281346 0)
(0.0743458 -0.326486 0)
(0.0617965 -0.370972 0)
(0.0463875 -0.408811 0)
(0.0287188 -0.435568 0)
(0.00965637 -0.449541 0)
(0.136089 -0.14805 0)
(0.139696 -0.169069 0)
(0.124919 -0.200537 0)
(0.116045 -0.233828 0)
(0.105259 -0.273589 0)
(0.0920909 -0.316272 0)
(0.0761825 -0.357463 0)
(0.0570398 -0.391822 0)
(0.0353889 -0.415381 0)
(0.0122987 -0.426691 0)
(0.164131 -0.133806 0)
(0.171209 -0.157092 0)
(0.151052 -0.188564 0)
(0.142264 -0.220479 0)
(0.127802 -0.258713 0)
(0.111129 -0.298288 0)
(0.0911852 -0.33617 0)
(0.0677639 -0.367987 0)
(0.0416538 -0.39067 0)
(0.0137301 -0.403129 0)
(0.19891 -0.123896 0)
(0.207407 -0.147062 0)
(0.18169 -0.177256 0)
(0.173558 -0.20798 0)
(0.154121 -0.244528 0)
(0.133707 -0.280449 0)
(0.109022 -0.31466 0)
(0.080676 -0.342676 0)
(0.0497066 -0.361537 0)
(0.0174439 -0.369741 0)
(0.239974 -0.111337 0)
(0.246667 -0.132534 0)
(0.215877 -0.160295 0)
(0.207452 -0.188541 0)
(0.180669 -0.221029 0)
(0.155921 -0.251739 0)
(0.125225 -0.281963 0)
(0.0915781 -0.307181 0)
(0.0554622 -0.326123 0)
(0.0174661 -0.338332 0)
(0.287952 -0.101973 0)
(0.290948 -0.120471 0)
(0.256144 -0.146365 0)
(0.245652 -0.171114 0)
(0.210404 -0.199315 0)
(0.182408 -0.225764 0)
(0.14509 -0.252736 0)
(0.105839 -0.274049 0)
(0.0645559 -0.288713 0)
(0.0238368 -0.292605 0)
(0.337617 -0.0836125 0)
(0.332777 -0.0980486 0)
(0.29504 -0.119634 0)
(0.278926 -0.138306 0)
(0.235292 -0.160894 0)
(0.203693 -0.181776 0)
(0.156544 -0.203344 0)
(0.111686 -0.220977 0)
(0.0646363 -0.238535 0)
(0.0163113 -0.257216 0)
(0.387983 -0.0708274 0)
(0.375883 -0.0809889 0)
(0.338532 -0.0987409 0)
(0.315268 -0.112387 0)
(0.268553 -0.131714 0)
(0.232459 -0.148409 0)
(0.178418 -0.167552 0)
(0.129918 -0.184562 0)
(0.0773323 -0.201456 0)
(0.0368202 -0.199018 0)
(0.42734 -0.038658 0)
(0.409859 -0.0433177 0)
(0.362251 -0.0540014 0)
(0.331192 -0.0604862 0)
(0.274092 -0.07214 0)
(0.228871 -0.0799122 0)
(0.161299 -0.0908497 0)
(0.102403 -0.100641 0)
(0.0384183 -0.120879 0)
(-0.0311289 -0.171121 0)
(0.663327 -0.0197129 0)
(0.64057 -0.0228083 0)
(0.598171 -0.0275594 0)
(0.562834 -0.0318185 0)
(0.508692 -0.0383717 0)
(0.458657 -0.0449977 0)
(0.388475 -0.0554252 0)
(0.31509 -0.0701839 0)
(0.217451 -0.0991788 0)
(0.154434 -0.156633 0)
(0.139168 -0.145435 7.49283e-21)
(0.16222 -0.130102 -7.38135e-21)
(0.190559 -0.116462 1.20351e-21)
(0.225077 -0.10689 0)
(0.265969 -0.0955487 0)
(0.311899 -0.0870838 1.83637e-21)
(0.360121 -0.070889 -8.77582e-21)
(0.407255 -0.0605817 8.66526e-21)
(0.454222 -0.0325098 2.47605e-21)
(0.684717 -0.0171526 -2.50284e-21)
(0.146675 -0.137998 -6.98674e-21)
(0.169557 -0.122454 0)
(0.197186 -0.109364 8.57795e-21)
(0.231722 -0.100117 -2.07363e-20)
(0.272722 -0.0892791 1.39832e-20)
(0.318524 -0.0812006 -1.70541e-21)
(0.366712 -0.0658181 3.72611e-21)
(0.413602 -0.0565159 8.39498e-21)
(0.464077 -0.0300829 2.29757e-21)
(0.693011 -0.0160591 2.27517e-21)
(0.153241 -0.129746 8.0801e-21)
(0.175582 -0.114393 -8.07698e-21)
(0.202456 -0.102081 8.00058e-21)
(0.236703 -0.0933011 -1.10381e-20)
(0.277606 -0.0830493 8.0056e-21)
(0.323401 -0.075468 0)
(0.37165 -0.0609863 -3.73515e-21)
(0.41888 -0.0527538 -7.26831e-23)
(0.472648 -0.02791 -4.3358e-21)
(0.700701 -0.015013 -4.54911e-21)
(0.159819 -0.12092 -1.39226e-21)
(0.182024 -0.10608 0)
(0.208455 -0.0946519 0)
(0.242315 -0.0864145 0)
(0.282994 -0.076829 9.07888e-21)
(0.328655 -0.0698468 -6.18413e-21)
(0.376796 -0.0563539 -2.39839e-22)
(0.424244 -0.0492035 -4.26858e-21)
(0.480654 -0.0259558 -2.17664e-21)
(0.708046 -0.0140457 -2.22193e-21)
(0.16585 -0.111702 1.38874e-21)
(0.188142 -0.0976656 -4.40641e-21)
(0.214299 -0.0871701 -4.54109e-21)
(0.247996 -0.0795191 4.53827e-21)
(0.288437 -0.0706576 -2.85391e-21)
(0.33406 -0.0643448 0)
(0.382064 -0.0518801 -3.64397e-21)
(0.429674 -0.0457785 8.14343e-21)
(0.488283 -0.0241496 -4.09659e-21)
(0.715042 -0.013155 4.44108e-21)
(0.17111 -0.102123 -1.04148e-20)
(0.193471 -0.0891777 5.43673e-22)
(0.219339 -0.0796864 -7.14878e-22)
(0.252998 -0.0726625 4.43943e-21)
(0.293236 -0.0645707 0)
(0.338988 -0.0589992 0)
(0.386853 -0.0475673 0)
(0.434806 -0.0424607 3.89663e-21)
(0.495377 -0.0224519 0)
(0.721588 -0.0123297 0)
(0.175537 -0.0922072 0)
(0.197963 -0.0806003 5.23326e-21)
(0.223528 -0.0721806 -3.62955e-21)
(0.257088 -0.0658521 -5.07667e-21)
(0.297221 -0.0585863 5.10307e-21)
(0.343128 -0.0537926 3.30459e-21)
(0.390864 -0.0434201 -3.11879e-21)
(0.439374 -0.0392712 -1.34246e-20)
(0.501744 -0.020845 9.50884e-22)
(0.727607 -0.0115674 -3.18569e-21)
(0.179035 -0.0819868 0)
(0.201593 -0.0719256 -1.60898e-21)
(0.226917 -0.0646265 -9.6774e-22)
(0.260308 -0.0590741 0)
(0.300394 -0.0526871 1.54053e-21)
(0.346416 -0.0486976 -4.43375e-21)
(0.394147 -0.0394233 5.28178e-21)
(0.443232 -0.0362058 2.02706e-21)