/*--------------------------------*- C++ -*----------------------------------*\
  =========                 |
  \\      /  F ield         | OpenFOAM: The Open Source CFD Toolbox
   \\    /   O peration     | Website:  https://openfoam.org
    \\  /    A nd           | Version:  7
     \\/     M anipulation  |
\*---------------------------------------------------------------------------*/
FoamFile
{
    version     2.0;
    format      ascii;
    class       volScalarField;
    location    "80.7";
    object      p;
}
// * * * * * * * * * * * * * * * * * * * * * * * * * * * * * * * * * * * * * //

dimensions      [0 2 -2 0 0 0 0];

internalField   nonuniform List<scalar> 
2000
(
0.00993641
0.0100384
0.010231
0.0104688
0.0107182
0.0109589
0.0111774
0.0113683
0.011531
0.0116579
0.00997326
0.0101194
0.0103312
0.0105894
0.0108594
0.0111193
0.0113541
0.0115564
0.0117244
0.0118408
0.00997944
0.0101818
0.0104132
0.0106903
0.0109775
0.0112526
0.0114997
0.0117104
0.0118833
0.0119893
0.00996019
0.0102274
0.0104792
0.0107725
0.0110721
0.0113563
0.0116095
0.0118231
0.0119973
0.0120918
0.00992219
0.0102619
0.0105329
0.0108383
0.0111439
0.0114293
0.01168
0.0118883
0.0120574
0.0121374
0.00987512
0.0102912
0.010579
0.010891
0.0111949
0.011472
0.0117099
0.0119027
0.0120571
0.0121172
0.00983054
0.0103223
0.0106228
0.0109349
0.0112283
0.0114867
0.0117007
0.0118666
0.0119951
0.0120276
0.00980137
0.0103627
0.0106705
0.0109751
0.0112487
0.0114782
0.0116575
0.0117857
0.0118776
0.0118751
0.00980131
0.0104205
0.0107288
0.0110176
0.0112623
0.0114534
0.011589
0.0116723
0.0117233
0.0116827
0.00984417
0.0105039
0.0108048
0.0110693
0.0112764
0.0114208
0.011506
0.0115408
0.0115535
0.0114884
0.0118728
0.0128411
0.0140357
0.0158527
0.0177765
0.0200049
0.0216044
0.0237678
0.0239763
0.0253926
0.0119504
0.0128
0.0137132
0.015304
0.0170384
0.0191073
0.0205864
0.022602
0.0229052
0.0241326
0.0119751
0.012755
0.0133986
0.0147707
0.0163267
0.0182478
0.0196169
0.0215213
0.0218585
0.0229697
0.0119383
0.0126908
0.0130916
0.0142554
0.0156427
0.0174255
0.0186987
0.0205077
0.0208491
0.0219034
0.0118359
0.0125889
0.0127907
0.0137591
0.014988
0.016642
0.0178325
0.0195567
0.0199015
0.0209301
0.0116696
0.0124313
0.0124914
0.0132814
0.0143632
0.0158954
0.0170098
0.018653
0.0190045
0.0200299
0.0114497
0.012207
0.0121862
0.0128203
0.0137707
0.0151919
0.0162415
0.0178142
0.0181807
0.0192085
0.0111875
0.0119039
0.0118638
0.0123729
0.013203
0.0145119
0.0154971
0.0169933
0.017379
0.0184404
0.0108784
0.0115057
0.011496
0.0119398
0.0126928
0.013909
0.0148462
0.0162703
0.0166736
0.0177508
0.0106336
0.0111591
0.0111425
0.0114815
0.0121285
0.0132355
0.0141256
0.0154629
0.0159239
0.0170794
0.0111924
0.01171
0.0119087
0.0120354
0.0122754
0.012871
0.0134945
0.0144377
0.0148408
0.0156899
0.00890362
0.00938693
0.00977652
0.0101677
0.0106107
0.011205
0.0117777
0.0125045
0.0128193
0.0133534
0.00711849
0.00757619
0.00793924
0.00829027
0.00870769
0.00928474
0.00983496
0.0104831
0.0107406
0.011124
0.0053427
0.00583118
0.00626979
0.00664457
0.00702851
0.00753429
0.00801788
0.00858789
0.00880092
0.00910732
0.00368047
0.00416966
0.00468347
0.00513556
0.00554465
0.00600205
0.00641492
0.00689596
0.00707006
0.00732828
0.00224333
0.00270584
0.00325043
0.00375563
0.00420556
0.00465271
0.00502515
0.00543058
0.00556878
0.00577188
0.00109888
0.00151846
0.00205314
0.00255496
0.0030003
0.00342253
0.00375932
0.00410565
0.00421666
0.00437592
0.000277744
0.000628947
0.00111782
0.00157666
0.00197271
0.00233719
0.00262161
0.00290807
0.00298401
0.00309055
-0.000156745
8.62272e-05
0.00047497
0.00082083
0.00109816
0.00135126
0.00154062
0.00175069
0.00178694
0.00185572
-0.000688563
-0.000289556
3.51971e-05
0.00024963
0.000378843
0.000490795
0.000554078
0.000656052
0.000635856
0.000644763
0.0105501
0.00856096
0.00683221
0.00510029
0.00350181
0.00211653
0.00101818
0.000206592
-0.000151418
-0.000732439
0.010152
0.00824245
0.00654176
0.00485774
0.00332159
0.00199568
0.000951636
0.00018002
-0.000147494
-0.00065183
0.0097543
0.00795626
0.00628558
0.00465145
0.0031734
0.00190199
0.000908795
0.000180548
-0.00012859
-0.000540041
0.0094423
0.00775513
0.00610988
0.00452006
0.00309066
0.00186496
0.000909746
0.000213667
-8.94607e-05
-0.00043011
0.00922296
0.00762137
0.00599656
0.00444666
0.00305878
0.00187081
0.000946008
0.000273328
-3.37772e-05
-0.000326465
0.00910147
0.00755313
0.00594414
0.00442484
0.00307162
0.00191388
0.00101179
0.000354414
3.45028e-05
-0.000230501
0.0090853
0.00754534
0.00595013
0.00445228
0.00312597
0.00199069
0.00110318
0.000452663
0.000111991
-0.000143839
0.00916208
0.00759558
0.00601021
0.00452442
0.00321725
0.00209663
0.00121579
0.000563902
0.000195625
-6.70675e-05
0.00931768
0.00769861
0.00611859
0.00463584
0.00334018
0.00222672
0.00134507
0.000684248
0.00028277
2.95978e-07
0.00953632
0.00784743
0.00626812
0.00478052
0.00348911
0.00237595
0.00148668
0.000810342
0.000371323
5.92984e-05
0.00979859
0.00803134
0.00644928
0.00495105
0.00365765
0.0025392
0.00163652
0.000939335
0.000459674
0.000111099
0.0100903
0.00824184
0.00665478
0.00514207
0.003841
0.00271263
0.00179152
0.00106922
0.000546798
0.000156785
0.0104028
0.00847468
0.00688003
0.0053506
0.00403611
0.00289378
0.00194971
0.00119881
0.000632192
0.000197423
0.0107275
0.00872603
0.00712027
0.00557368
0.00424022
0.00308055
0.00210961
0.00132735
0.000715664
0.000233917
0.0110575
0.00899358
0.00737152
0.0058089
0.00445119
0.00327133
0.00227022
0.00145443
0.000797235
0.000267009
0.0113871
0.00927603
0.00763034
0.00605402
0.00466737
0.00346483
0.00243088
0.00157986
0.00087705
0.000297311
0.0117076
0.0095701
0.00789261
0.0063061
0.0048871
0.00365979
0.00259108
0.00170356
0.000955334
0.000325373
0.0120133
0.00987981
0.00816141
0.00656727
0.00511244
0.00385755
0.00275187
0.00182632
0.00103269
0.000351771
0.0123322
0.0102432
0.00846158
0.00685421
0.00535535
0.00406569
0.00291791
0.00195076
0.00111043
0.000376722
0.0125813
0.0106016
0.00875415
0.00713285
0.0055948
0.00426801
0.00307972
0.00207104
0.00118593
0.0003985
0.0121461
0.0107715
0.00907747
0.00751636
0.00599468
0.00463102
0.00339559
0.0023144
0.00134578
0.000450515
0.0121003
0.0107469
0.0091205
0.00765119
0.00617881
0.00485007
0.00361214
0.00250597
0.00148165
0.000506766
0.0124128
0.0110333
0.00938844
0.00793412
0.00645089
0.00510932
0.003837
0.00269132
0.00161285
0.000567319
0.012985
0.0114651
0.00975012
0.00826204
0.00674128
0.00536853
0.00405259
0.00286814
0.0017446
0.000637441
0.0138163
0.0120705
0.0102375
0.008662
0.00707362
0.00564463
0.00427464
0.00304988
0.00188639
0.00071907
0.0148533
0.0128361
0.01085
0.00913768
0.00745604
0.00594629
0.00451359
0.00324131
0.00203535
0.000801788
0.0159793
0.0136888
0.0115361
0.00966003
0.00787209
0.00626693
0.00476718
0.00343449
0.00216904
0.000856786
0.0170436
0.0145046
0.0121929
0.0101591
0.00827204
0.00657657
0.00501236
0.00360517
0.00225892
0.000864231
0.0178843
0.0151441
0.0127049
0.0105503
0.00858932
0.00682625
0.00520912
0.00372854
0.00229937
0.000836836
0.0183541
0.0154926
0.0129811
0.0107624
0.00876407
0.00696653
0.00532027
0.00379278
0.0023089
0.000808452
0.0132723
0.0132518
0.0136349
0.0142966
0.0152371
0.0163808
0.0176322
0.0188463
0.0198389
0.0204093
0.013486
0.0136387
0.0141295
0.0148909
0.0159241
0.0171434
0.018456
0.0197134
0.020731
0.0213134
0.0135421
0.0138996
0.0145514
0.0154668
0.0166391
0.017979
0.0193849
0.0206923
0.0217165
0.0222894
0.0136546
0.0141685
0.0149532
0.0160067
0.0173065
0.0187679
0.0202829
0.0216705
0.0227368
0.0233278
0.0138227
0.0144963
0.0154013
0.0165755
0.0179847
0.0195525
0.0211705
0.0226481
0.02378
0.0244111
0.0140088
0.0148592
0.0159001
0.0171991
0.0187176
0.020387
0.0220996
0.0236614
0.0248593
0.0255332
0.0142091
0.0152398
0.0164343
0.0178688
0.019507
0.0212851
0.0230927
0.024733
0.0259884
0.0266973
0.0144329
0.0156391
0.0169981
0.0185739
0.0203415
0.0222375
0.0241462
0.0258654
0.0271727
0.0279085
0.0146856
0.0160605
0.0175925
0.0193106
0.0212136
0.0232342
0.0252505
0.0270525
0.0284113
0.0291696
0.014969
0.0165021
0.0182174
0.0200765
0.0221206
0.0242699
0.0263994
0.0282893
0.0297023
0.0304815
0.0152854
0.0169582
0.0188699
0.0208671
0.0230594
0.0253417
0.0275903
0.0295735
0.0310445
0.0318444
0.0156324
0.0174218
0.0195441
0.0216751
0.0240247
0.0264451
0.0288203
0.0309036
0.0324377
0.0332591
0.0159983
0.0178882
0.0202283
0.0224935
0.0250095
0.0275759
0.0300871
0.0322783
0.0338834
0.034728
0.0163626
0.0183576
0.0209065
0.0233173
0.0260041
0.0287288
0.0313866
0.0336954
0.0353851
0.0362578
0.0166879
0.0188314
0.021557
0.0241496
0.0270048
0.0299002
0.0327163
0.0351539
0.0369356
0.0378425
0.0169645
0.0193001
0.0221817
0.0249598
0.0279941
0.0310753
0.034065
0.0366463
0.0385303
0.0394798
0.017186
0.0197403
0.0227673
0.025735
0.0289628
0.0322473
0.035429
0.0381708
0.0401697
0.0411724
0.0173239
0.020139
0.023297
0.0264619
0.0298921
0.0333956
0.0367893
0.0397138
0.0418475
0.0429191
0.017355
0.0204958
0.0237757
0.0271536
0.0308021
0.0345432
0.0381654
0.0412879
0.0435704
0.0447273
0.0171871
0.0207198
0.0241086
0.0276866
0.0315504
0.0355482
0.0394415
0.0428191
0.0453031
0.0465821
0.0178934
0.0223896
0.026152
0.0301577
0.0344149
0.0388186
0.0431181
0.0468943
0.0497152
0.0512232
0.0223506
0.0266782
0.0306685
0.0353139
0.0402552
0.0453751
0.0503364
0.0546554
0.0578534
0.0595382
0.0272328
0.0317695
0.0362208
0.0415746
0.0472216
0.0530836
0.0586728
0.0634571
0.0669511
0.0687959
0.0323691
0.0373809
0.0425625
0.048734
0.0551556
0.0617952
0.0679649
0.073134
0.0768205
0.0786918
0.0378034
0.0434268
0.0494542
0.0564941
0.0637354
0.0711557
0.0778438
0.0833222
0.0871178
0.0890746
0.043642
0.0499045
0.0568491
0.0647707
0.0728507
0.0810339
0.0881887
0.0938908
0.0975788
0.0991654
0.0493862
0.056407
0.0642036
0.0729113
0.0817818
0.0906309
0.0982123
0.104079
0.107501
0.109003
0.0551188
0.0626187
0.0712248
0.0807253
0.0904151
0.0999197
0.108045
0.114224
0.117148
0.116515
0.0584709
0.0668451
0.0761618
0.0863044
0.0966375
0.106618
0.115124
0.121366
0.123196
0.124867
0.0622194
0.0707653
0.0805834
0.0912733
0.102343
0.113089
0.123004
0.131391
0.134818
0.118546
0.0164793
0.0207556
0.025129
0.0298979
0.0347897
0.0403876
0.0454343
0.0512313
0.0538906
0.0575917
0.0160243
0.0204813
0.0247974
0.0294643
0.0341704
0.0395985
0.0443364
0.0499725
0.0522535
0.0559024
0.0158281
0.0205106
0.0248204
0.0294562
0.034049
0.0392809
0.0437504
0.0490351
0.0510312
0.0544335
0.0155639
0.0203447
0.0246199
0.029211
0.0337233
0.0387843
0.043056
0.0480291
0.0499404
0.052995
0.0152646
0.0200516
0.0242772
0.0287746
0.0332284
0.0381055
0.0422255
0.0469294
0.048868
0.0515903
0.0149611
0.0197252
0.0239182
0.0283277
0.0327003
0.0373956
0.0414179
0.045832
0.0478454
0.0502783
0.014651
0.0193815
0.0235649
0.0279152
0.0322096
0.0367453
0.0406891
0.0448294
0.0469146
0.0490968
0.014336
0.0190227
0.0232109
0.0275241
0.0317595
0.036173
0.0400381
0.0439655
0.0460901
0.0480537
0.0140245
0.0186596
0.022861
0.0271517
0.0313455
0.0356725
0.0394642
0.0432354
0.0453677
0.0471691
0.0137274
0.0183041
0.0225269
0.0268085
0.0309747
0.0352428
0.038975
0.0426271
0.0447523
0.0464467
0.0134543
0.0179653
0.0222189
0.0265062
0.0306589
0.0348895
0.0385805
0.042138
0.0442547
0.0458793
0.0132029
0.017643
0.02194
0.0262481
0.0304046
0.0346178
0.0382879
0.0417711
0.0438827
0.0454586
0.0129619
0.0173328
0.0216885
0.0260332
0.0302132
0.0344306
0.038101
0.0415304
0.0436403
0.0451815
0.012722
0.0170372
0.0214646
0.0258616
0.0300854
0.0343298
0.0380208
0.041417
0.0435257
0.0450468
0.0124715
0.0167596
0.0212669
0.0257327
0.0300209
0.0343159
0.0380481
0.0414322
0.0435383
0.0450589
0.0121933
0.0164994
0.0210901
0.0256426
0.0300164
0.0343855
0.0381797
0.0415727
0.0436669
0.04522
0.0118667
0.0162513
0.0209256
0.0255858
0.0300692
0.0345366
0.0384179
0.0418425
0.0439159
0.0455436
0.0114724
0.0160047
0.020759
0.0255484
0.0301637
0.0347513
0.0387459
0.0422255
0.0442502
0.0460328
0.0109683
0.0157459
0.0205951
0.0255415
0.0303172
0.0350533
0.03919
0.0427509
0.0447152
0.046712
0.0103131
0.0153531
0.0203164
0.0254393
0.0303939
0.0353027
0.0396261
0.0433215
0.0451883
0.0475612
0.0114139
0.0165106
0.0213697
0.0266333
0.0318842
0.0370404
0.0416253
0.0455289
0.0473315
0.0500846
0.0145062
0.0197753
0.0248618
0.0305894
0.0363622
0.0420841
0.047242
0.0515566
0.0538309
0.0562378
0.0186613
0.024266
0.029806
0.036194
0.0426585
0.0491653
0.0550714
0.0599482
0.062925
0.0649771
0.023392
0.0294902
0.035708
0.0429932
0.0504412
0.05808
0.0650793
0.0709459
0.0750123
0.0775126
0.0283429
0.0350558
0.0421571
0.0505454
0.0592463
0.0683774
0.0769426
0.0845324
0.0904721
0.0947967
0.0334818
0.0408431
0.0490368
0.0586709
0.0688802
0.0798712
0.0906446
0.101189
0.111082
0.119929
0.0378071
0.0460998
0.0554361
0.0663418
0.0782918
0.0915139
0.105386
0.120737
0.137795
0.156723
0.0423457
0.0513133
0.0617564
0.0739971
0.0878635
0.103751
0.121841
0.144803
0.175473
0.215563
0.0438269
0.0531514
0.0641705
0.0772865
0.0929869
0.112249
0.136979
0.171801
0.225053
0.303795
0.0465463
0.0572706
0.0697831
0.0850528
0.104311
0.129297
0.1636
0.215113
0.300908
0.430624
0.0109963
0.0138272
0.0172352
0.0211959
0.0251735
0.0298462
0.0333073
0.0376927
0.0389522
0.0408041
0.0107874
0.0136188
0.0169075
0.020676
0.0243621
0.0287859
0.0319022
0.0361295
0.0371922
0.0392201
0.0107854
0.0135595
0.0167603
0.0204024
0.0239249
0.0280817
0.0309342
0.0348569
0.0356581
0.0381603
0.0108602
0.0134575
0.0164794
0.0199479
0.0232898
0.0271986
0.0298409
0.0334856
0.0340579
0.0367393
0.0109751
0.0133351
0.0161147
0.0193854
0.0224929
0.0261421
0.0285734
0.0319958
0.032369
0.034926
0.0111186
0.0132206
0.0157492
0.0187943
0.0216775
0.0250521
0.0272635
0.0304939
0.0306864
0.0329983
0.0112794
0.0131178
0.0153962
0.0181803
0.0208995
0.0239929
0.0260045
0.0290541
0.0290939
0.0311845
0.0114463
0.013027
0.0150485
0.017578
0.0201136
0.0229586
0.0248257
0.0276812
0.0276251
0.0295603
0.0116083
0.0129504
0.0147044
0.0169905
0.019322
0.0219318
0.0237253
0.0263422
0.0262873
0.0280951
0.0117544
0.012889
0.0143661
0.0164151
0.0185393
0.0209446
0.0226559
0.0250238
0.0250812
0.0267221
0.0099446
0.0106222
0.0109068
0.0111382
0.0112995
0.01139
0.0114179
0.0113963
0.0113565
0.0112677
0.010123
0.010787
0.0110443
0.0112335
0.0113418
0.0113724
0.0113375
0.0112525
0.0111481
0.0109969
0.0103867
0.0110047
0.0112248
0.0113641
0.0114141
0.0113813
0.0112814
0.0111322
0.0109659
0.0107562
0.0107434
0.0112824
0.0114561
0.0115391
0.0115268
0.0114292
0.0112647
0.011053
0.0108271
0.0105622
0.011198
0.0116257
0.0117445
0.0117656
0.0116885
0.0115263
0.011299
0.0110279
0.0107448
0.0104273
0.011751
0.0120373
0.0120936
0.0120482
0.0119048
0.0116788
0.0113916
0.0110649
0.0107281
0.0103644
0.0123972
0.012516
0.0125032
0.0123874
0.0121769
0.0118887
0.011545
0.0111671
0.0107809
0.0103662
0.0131256
0.0130561
0.0129689
0.0127793
0.0125013
0.0121532
0.0117564
0.0113319
0.0109004
0.0104411
0.01392
0.0136472
0.0134802
0.0132153
0.0128702
0.0124646
0.0120187
0.0115518
0.0110798
0.0105858
0.0147485
0.0142708
0.0140226
0.0136819
0.0132714
0.0128114
0.0123204
0.0118156
0.0113087
0.0107885
0.0155679
0.0148996
0.0145753
0.014162
0.0136895
0.0131792
0.0126479
0.0121101
0.0115744
0.0110352
0.0163878
0.0155259
0.0151236
0.0146388
0.014108
0.0135521
0.0129856
0.0124203
0.0118625
0.0113117
0.0171681
0.0161205
0.0156437
0.0150925
0.0145092
0.013914
0.0133187
0.0127321
0.0121593
0.0116045
0.0178721
0.0166559
0.0161127
0.0155034
0.014876
0.0142497
0.013633
0.013032
0.0124518
0.0119012
0.0184692
0.0171074
0.016509
0.0158532
0.0151925
0.0145448
0.0139156
0.0133081
0.0127283
0.0121905
0.0189319
0.0174524
0.0168136
0.0161258
0.0154449
0.0147873
0.0141556
0.0135502
0.0129788
0.0124629
0.0192368
0.0176715
0.0170105
0.0163082
0.0156224
0.0149681
0.014345
0.0137509
0.0131956
0.0127094
0.0193665
0.0177502
0.0170878
0.016391
0.0157177
0.0150812
0.0144792
0.013906
0.0133718
0.0129183
0.0193097
0.0176791
0.0170382
0.016369
0.0157271
0.015124
0.0145557
0.0140114
0.0134957
0.0130704
0.0190623
0.0174544
0.0168591
0.016241
0.0156511
0.0150989
0.0145782
0.0140706
0.0135712
0.0131722
0.0186255
0.0170774
0.0165514
0.0160087
0.0154933
0.0150148
0.0145708
0.014152
0.0137742
0.0135451
0.017999
0.0165516
0.016119
0.0156744
0.0152527
0.0148629
0.0145049
0.0141755
0.0138914
0.0137209
0.017202
0.0158906
0.0155714
0.0152436
0.014931
0.0146404
0.0143732
0.01413
0.0139225
0.0137837
0.0162572
0.0151119
0.0149213
0.0147257
0.0145352
0.0143543
0.0141859
0.0140342
0.0139078
0.0138219
0.0151912
0.0142362
0.0141851
0.0141336
0.0140763
0.0140147
0.0139539
0.0139007
0.0138626
0.0138469
0.0140342
0.0132873
0.0133817
0.0134824
0.0135669
0.013633
0.0136874
0.0137394
0.0137956
0.0138603
0.0128185
0.0122908
0.0125321
0.012789
0.013021
0.0132212
0.0133971
0.0135599
0.0137167
0.0138704
0.0115768
0.0112728
0.0116575
0.0120704
0.0124528
0.0127912
0.0130933
0.0133716
0.0136343
0.013885
0.0103414
0.0102575
0.0107784
0.0113434
0.0118755
0.0123538
0.0127849
0.0131821
0.0135549
0.0139093
0.00915334
0.00927244
0.00991595
0.0106239
0.0113014
0.0119185
0.0124795
0.0129973
0.0134827
0.0139459
0.00807129
0.0083559
0.00909624
0.00993054
0.0107437
0.0114948
0.0121836
0.0128217
0.01342
0.013995
0.00703982
0.00749234
0.00831856
0.00926813
0.0102076
0.0110865
0.0118998
0.0126563
0.0133659
0.0140529
0.00609295
0.00670148
0.00759858
0.00864647
0.00970026
0.0106981
0.0116299
0.0125008
0.0133175
0.0141117
0.00525274
0.00599776
0.00694834
0.00807501
0.00922635
0.0103317
0.0113737
0.0123531
0.013271
0.0141604
0.00452764
0.00538833
0.00637377
0.0075585
0.00878974
0.00998871
0.0111304
0.0122096
0.0132203
0.0141984
0.00392096
0.00487613
0.00587842
0.00710028
0.0083923
0.00966934
0.0108989
0.0120684
0.0131618
0.0142181
0.00343275
0.0044612
0.00546384
0.00670219
0.00803494
0.00937331
0.0106778
0.011928
0.0130939
0.0142101
0.00305985
0.00414106
0.00512945
0.00636458
0.00771774
0.00909991
0.0104659
0.0117881
0.0130186
0.0141746
0.00279648
0.00391119
0.00487282
0.00608648
0.00743997
0.00884798
0.0102619
0.0116505
0.0129489
0.0141317
0.00263531
0.0037657
0.00469012
0.0058658
0.00719995
0.00861496
0.010061
0.0115073
0.0128916
0.0141234
0.00256604
0.00369651
0.00457539
0.00569861
0.00699464
0.00839809
0.00986267
0.0113717
0.0129497
0.014513
0.00256749
0.00369053
0.00452069
0.00558074
0.00682021
0.00818672
0.0096349
0.0111368
0.0127134
0.0142679
0.00263977
0.0037447
0.00452251
0.00551015
0.0066761
0.00798067
0.00938042
0.0108368
0.0123549
0.0138509
0.00277562
0.00385207
0.0045755
0.00548494
0.00656559
0.0077912
0.00912475
0.0105272
0.011995
0.0134435
0.00296474
0.0040043
0.00467356
0.00550289
0.00649186
0.00762814
0.008884
0.0102243
0.0116407
0.0130466
0.00319733
0.00419361
0.00481058
0.00556098
0.006456
0.00749671
0.00866584
0.00993375
0.0112894
0.012651
0.00346446
0.00441278
0.00498046
0.00565539
0.00645744
0.00739974
0.00847586
0.00966284
0.0109487
0.012261
0.00375793
0.00465501
0.00517702
0.00578159
0.00649429
0.00733846
0.00831824
0.00941823
0.0106267
0.0118834
0.0040705
0.00491404
0.00539415
0.00593445
0.0065634
0.00731232
0.0081951
0.00920424
0.0103293
0.0115245
0.00439791
0.00518654
0.00562798
0.00611
0.00666163
0.00731982
0.00810692
0.00902329
0.0100604
0.0111889
0.00473889
0.00547343
0.00587926
0.00630855
0.00678922
0.00736177
0.00805555
0.00887831
0.00982365
0.0108801
0.00507651
0.00575855
0.00613273
0.00651616
0.00693427
0.0074289
0.00803462
0.00876579
0.00961751
0.0105959
0.00541123
0.00604277
0.00638826
0.00673153
0.00709455
0.00751871
0.008042
0.00868428
0.00944117
0.0103342
0.00574227
0.00632519
0.00664429
0.00695216
0.00726682
0.00762775
0.00807462
0.00863145
0.00929303
0.010093
0.0060682
0.006604
0.00689848
0.00717501
0.00744745
0.00775224
0.00812908
0.00860468
0.00917127
0.00986986
0.00638819
0.00687804
0.00714925
0.00739782
0.00763352
0.00788896
0.00820247
0.00860182
0.00907456
0.00966276
0.00670217
0.00714679
0.00739581
0.00761926
0.00782303
0.00803554
0.00829268
0.00862194
0.0090037
0.0094717
0.00701045
0.00741023
0.00763806
0.00783892
0.0080151
0.00819072
0.00839865
0.00866552
0.00896243
0.00930004
0.00731339
0.00766857
0.00787648
0.00805751
0.00821062
0.00835562
0.00852164
0.00873388
0.00895338
0.00914592
0.00761099
0.007922
0.00811189
0.00827672
0.00841288
0.00853702
0.00867502
0.00885188
0.00903192
0.00911198
0.00790323
0.00817062
0.00834481
0.00849774
0.00862451
0.00874196
0.00887978
0.00908607
0.00944002
0.00998151
0.00819132
0.00841436
0.00857504
0.00872021
0.00884314
0.00895841
0.00909403
0.00929387
0.00963272
0.0101174
0.00847127
0.00865166
0.00880167
0.00894301
0.00906606
0.0091816
0.00931246
0.0094932
0.00977705
0.0101597
0.00873941
0.00888055
0.00902319
0.00916471
0.00929233
0.00941233
0.00954238
0.00971036
0.00995496
0.010268
0.00899222
0.00909837
0.00923753
0.00938322
0.00951974
0.00964863
0.00978226
0.00994224
0.0101566
0.0104189
0.00922483
0.00930281
0.00944228
0.00959589
0.00974513
0.00988676
0.0100277
0.0101835
0.010374
0.0105974
0.00943267
0.00949165
0.00963429
0.0097997
0.009965
0.0101227
0.0102745
0.0104304
0.0106039
0.0107976
0.00961177
0.00966179
0.00981141
0.00999146
0.0101757
0.0103522
0.0105181
0.0106783
0.0108415
0.0110124
0.00975854
0.00981116
0.00997117
0.0101684
0.0103734
0.0105707
0.0107532
0.0109214
0.0110802
0.0112334
0.00986863
0.00993762
0.0101116
0.0103281
0.0105551
0.0107741
0.0109746
0.0111535
0.0113127
0.0114516
)
;

boundaryField
{
    inlet
    {
        type            zeroGradient;
    }
    outlet
    {
        type            fixedValue;
        value           uniform 0;
    }
    cylinder
    {
        type            zeroGradient;
    }
    top
    {
        type            symmetryPlane;
    }
    bottom
    {
        type            symmetryPlane;
    }
    defaultFaces
    {
        type            empty;
    }
}


// ************************************************************************* //
