/*--------------------------------*- C++ -*----------------------------------*\
  =========                 |
  \\      /  F ield         | OpenFOAM: The Open Source CFD Toolbox
   \\    /   O peration     | Website:  https://openfoam.org
    \\  /    A nd           | Version:  7
     \\/     M anipulation  |
\*---------------------------------------------------------------------------*/
FoamFile
{
    version     2.0;
    format      ascii;
    class       volScalarField;
    location    "4.8";
    object      p;
}
// * * * * * * * * * * * * * * * * * * * * * * * * * * * * * * * * * * * * * //

dimensions      [0 2 -2 0 0 0 0];

internalField   nonuniform List<scalar> 
18000
(
0.890911
0.89019
0.890123
0.89023
0.890593
0.891187
0.89203
0.89316
0.894601
0.896354
0.898406
0.900734
0.903326
0.906164
0.90922
0.91246
0.915845
0.919341
0.922912
0.926529
0.930157
0.933765
0.937327
0.940822
0.944234
0.947551
0.950764
0.953879
0.956886
0.959648
0.889401
0.888656
0.888602
0.888729
0.889109
0.889709
0.890546
0.89165
0.893043
0.89473
0.896692
0.898903
0.90135
0.904017
0.906879
0.909905
0.913064
0.916321
0.919643
0.923002
0.926369
0.929717
0.933023
0.936268
0.939437
0.942519
0.945508
0.948409
0.951212
0.953803
0.887808
0.887059
0.88702
0.88717
0.88757
0.888183
0.889022
0.89011
0.891462
0.893081
0.89495
0.897043
0.899341
0.901832
0.904493
0.907298
0.910219
0.913226
0.916286
0.919375
0.922469
0.925546
0.928584
0.931568
0.934484
0.937324
0.940081
0.94276
0.94535
0.947761
0.886118
0.885378
0.885367
0.885547
0.885975
0.886609
0.887457
0.888534
0.88985
0.891402
0.893176
0.895147
0.897295
0.899605
0.902058
0.904635
0.907309
0.910054
0.91284
0.915647
0.918457
0.921249
0.924008
0.926721
0.929376
0.931965
0.934483
0.936933
0.939303
0.941523
0.884367
0.883654
0.883671
0.883884
0.884341
0.884996
0.885855
0.886924
0.888203
0.889689
0.891367
0.893212
0.895205
0.89733
0.899571
0.901913
0.904332
0.906804
0.909305
0.911819
0.914331
0.916828
0.919298
0.92173
0.924115
0.926445
0.928716
0.930933
0.93308
0.935103
0.88255
0.881871
0.881917
0.882165
0.882653
0.883336
0.884208
0.88527
0.886514
0.887935
0.889516
0.891234
0.893068
0.895005
0.897032
0.899133
0.90129
0.903478
0.905683
0.907893
0.910099
0.91229
0.91446
0.916602
0.918709
0.920772
0.922791
0.92477
0.926694
0.928514
0.880674
0.88004
0.880118
0.880403
0.880924
0.881635
0.882522
0.883577
0.884788
0.886143
0.887626
0.889213
0.890886
0.892633
0.894443
0.8963
0.898185
0.900082
0.901983
0.90388
0.905768
0.907645
0.909506
0.91135
0.913169
0.914959
0.91672
0.918459
0.920163
0.921779
0.878741
0.878164
0.878274
0.878596
0.879151
0.879891
0.880795
0.881846
0.883023
0.884311
0.885694
0.887149
0.888661
0.890218
0.891809
0.893416
0.895024
0.896623
0.898212
0.899788
0.901353
0.902906
0.904452
0.905988
0.907513
0.909025
0.910526
0.912026
0.913513
0.914926
0.876751
0.876242
0.876385
0.876744
0.877334
0.878104
0.879026
0.880073
0.881218
0.88244
0.883722
0.885046
0.886397
0.887764
0.889133
0.890487
0.891814
0.893112
0.894384
0.895634
0.896869
0.898095
0.899318
0.900542
0.901767
0.902997
0.904237
0.905499
0.906776
0.907988
0.874708
0.874276
0.874451
0.874848
0.875473
0.876275
0.877216
0.87826
0.879372
0.880529
0.881712
0.882907
0.884099
0.885277
0.886423
0.887522
0.888568
0.889563
0.890516
0.891437
0.89234
0.893235
0.894133
0.89504
0.895963
0.89691
0.897889
0.898917
0.899992
0.90101
0.872614
0.872267
0.872475
0.87291
0.873571
0.874404
0.875365
0.876407
0.877488
0.878581
0.879669
0.880737
0.881773
0.882762
0.883686
0.884532
0.885299
0.885992
0.886627
0.887221
0.887792
0.888356
0.888928
0.889518
0.890139
0.890804
0.891525
0.892322
0.893204
0.894036
0.870474
0.870217
0.870458
0.870932
0.871629
0.872493
0.873475
0.874516
0.875568
0.8766
0.877595
0.878541
0.879424
0.880228
0.880934
0.881531
0.882023
0.88242
0.882741
0.883012
0.883255
0.883493
0.883741
0.884017
0.884339
0.884726
0.885193
0.885764
0.886462
0.88712
0.868291
0.868127
0.868403
0.868915
0.869648
0.870546
0.871549
0.87259
0.873614
0.874588
0.875495
0.876324
0.877059
0.877683
0.878176
0.878532
0.878756
0.878864
0.878881
0.878837
0.878762
0.87868
0.878612
0.878581
0.878611
0.878726
0.878943
0.879293
0.879817
0.880315
0.866067
0.865998
0.86631
0.866861
0.867631
0.868563
0.869587
0.87063
0.87163
0.87255
0.873374
0.87409
0.874684
0.875135
0.875425
0.875548
0.875514
0.875343
0.875068
0.874724
0.874343
0.873953
0.87358
0.873253
0.873
0.872852
0.872828
0.872965
0.873322
0.873673
0.863808
0.863833
0.864181
0.864771
0.86558
0.866546
0.867593
0.868639
0.869617
0.870488
0.871235
0.871846
0.872306
0.872592
0.872688
0.87259
0.87231
0.871877
0.871326
0.870696
0.870025
0.869344
0.868682
0.868072
0.86755
0.86715
0.866896
0.866827
0.867024
0.867243
0.861518
0.861631
0.862016
0.862647
0.863495
0.864496
0.865567
0.866618
0.867578
0.868405
0.869082
0.869597
0.869931
0.870062
0.869974
0.869667
0.869158
0.868479
0.86767
0.866776
0.865834
0.864879
0.863945
0.86307
0.862296
0.861659
0.861188
0.860924
0.860966
0.861065
0.859199
0.859396
0.859817
0.860489
0.861378
0.862414
0.863509
0.864568
0.865513
0.866303
0.866918
0.867344
0.867562
0.867548
0.867289
0.866789
0.866067
0.865161
0.864115
0.862976
0.861783
0.860575
0.85939
0.85827
0.857262
0.856406
0.855734
0.855285
0.855178
0.855167
0.856855
0.857127
0.857585
0.8583
0.85923
0.860302
0.861421
0.862489
0.863425
0.864183
0.864744
0.865092
0.865202
0.865054
0.864638
0.863958
0.863042
0.861929
0.860667
0.859304
0.857882
0.856442
0.855027
0.853683
0.852461
0.851406
0.850549
0.84993
0.849677
0.849565
0.854489
0.854827
0.855322
0.85608
0.857051
0.858158
0.859303
0.860381
0.861311
0.862046
0.862562
0.862838
0.862851
0.86258
0.862018
0.861176
0.860082
0.858782
0.857325
0.855759
0.854129
0.852478
0.850853
0.849308
0.847894
0.846659
0.845636
0.844859
0.844465
0.844261
0.8521
0.852493
0.853025
0.853828
0.854842
0.855984
0.857153
0.858244
0.859173
0.859891
0.860368
0.860582
0.860506
0.860122
0.859427
0.858435
0.857182
0.855714
0.85408
0.85233
0.850511
0.848669
0.846857
0.845131
0.843546
0.842151
0.840979
0.840061
0.839533
0.839244
0.849688
0.850125
0.850695
0.851543
0.852599
0.853777
0.85497
0.856075
0.857007
0.857713
0.858158
0.858316
0.858158
0.85767
0.856853
0.855727
0.854328
0.852707
0.850913
0.848997
0.847006
0.844992
0.843011
0.841125
0.839389
0.837853
0.836551
0.835509
0.834858
0.834496
0.84725
0.847721
0.848328
0.849223
0.850322
0.851535
0.852754
0.853874
0.85481
0.855508
0.855925
0.85603
0.855797
0.855212
0.854282
0.853032
0.851502
0.84974
0.8478
0.845731
0.843584
0.841414
0.839282
0.837253
0.835384
0.833726
0.832313
0.831165
0.830407
0.829987
0.844784
0.845279
0.845923
0.846864
0.848006
0.849254
0.850498
0.851634
0.852577
0.853267
0.853658
0.853713
0.853407
0.852732
0.851697
0.850331
0.848677
0.846785
0.844708
0.842498
0.840207
0.837895
0.835627
0.83347
0.831485
0.829722
0.828216
0.826986
0.826141
0.825686
0.842286
0.842798
0.843477
0.844463
0.845647
0.84693
0.848199
0.84935
0.850299
0.850981
0.851345
0.85135
0.850973
0.850209
0.849074
0.847598
0.845826
0.84381
0.841604
0.83926
0.836835
0.834391
0.831998
0.829727
0.827639
0.825788
0.824208
0.822917
0.822013
0.821552
0.839753
0.840273
0.840986
0.842015
0.84324
0.844556
0.845849
0.847015
0.847967
0.848638
0.848971
0.848923
0.848474
0.847623
0.846389
0.844806
0.84292
0.840783
0.838452
0.835981
0.833428
0.83086
0.82835
0.825973
0.823794
0.821866
0.820229
0.818899
0.817965
0.817536
0.837178
0.837702
0.838446
0.839517
0.840781
0.842128
0.843442
0.844618
0.845571
0.846226
0.846522
0.846416
0.845891
0.844951
0.843618
0.841927
0.839927
0.837672
0.835219
0.832624
0.829947
0.82726
0.824638
0.822161
0.819896
0.817899
0.816215
0.814864
0.813928
0.813575
0.834553
0.835077
0.835853
0.836963
0.838264
0.839638
0.840969
0.842153
0.843101
0.843732
0.843982
0.843811
0.843204
0.842171
0.840735
0.838936
0.836822
0.834449
0.831875
0.829159
0.826362
0.823557
0.820825
0.818247
0.815894
0.813827
0.812094
0.810731
0.809815
0.80958
0.83187
0.832395
0.833202
0.834351
0.835686
0.837082
0.838425
0.839609
0.840543
0.841141
0.841336
0.84109
0.840395
0.839263
0.837721
0.83581
0.833581
0.831091
0.828398
0.825562
0.822647
0.819726
0.816882
0.814196
0.811742
0.809584
0.807784
0.806397
0.805521
0.805447
0.829119
0.829649
0.830489
0.831676
0.83304
0.834453
0.8358
0.836977
0.837887
0.83844
0.838568
0.838239
0.837447
0.836209
0.834556
0.83253
0.830185
0.827578
0.824769
0.821817
0.818787
0.815751
0.812791
0.809985
0.807403
0.805107
0.803171
0.801688
0.800856
0.801053
0.826295
0.826837
0.827712
0.828935
0.830323
0.831746
0.83309
0.834249
0.835122
0.835617
0.835668
0.835245
0.834348
0.832997
0.831227
0.829084
0.826623
0.823902
0.820981
0.817919
0.81478
0.811634
0.808557
0.805617
0.802871
0.800365
0.798144
0.796284
0.795034
0.79515
0.96802
0.981018
0.988797
0.995881
1.0001
1.00306
1.00454
1.005
1.0046
1.00353
1.00189
0.999752
0.997201
0.994331
0.991195
0.987829
0.984306
0.98068
0.976949
0.973136
0.96926
0.965328
0.961375
0.957442
0.95352
0.949702
0.945974
0.942534
0.939553
0.937509
0.961889
0.975252
0.983453
0.990974
0.995499
0.998654
1.00027
1.00085
1.00055
0.999553
0.997969
0.995912
0.993438
0.990644
0.987557
0.984264
0.98081
0.977231
0.973561
0.969812
0.965975
0.962101
0.958186
0.954281
0.950389
0.946579
0.942853
0.939406
0.936393
0.934342
0.955509
0.969332
0.978004
0.986002
0.990858
0.994218
0.995981
0.996686
0.996487
0.995568
0.994047
0.992069
0.989672
0.986951
0.983917
0.9807
0.977318
0.97379
0.970182
0.966498
0.962705
0.95889
0.955019
0.951149
0.947292
0.943495
0.939777
0.936328
0.933286
0.931228
0.948863
0.963259
0.97246
0.980968
0.986169
0.989763
0.991689
0.992516
0.992414
0.991579
0.990134
0.988226
0.985901
0.983246
0.980287
0.97714
0.973823
0.970363
0.966811
0.963187
0.959452
0.95569
0.951872
0.948046
0.944227
0.940453
0.936748
0.933295
0.930234
0.928161
0.941963
0.957035
0.966816
0.975875
0.981443
0.98529
0.987388
0.988338
0.988334
0.987589
0.986224
0.984382
0.982129
0.979538
0.976662
0.973582
0.97033
0.966942
0.963449
0.959881
0.956216
0.952506
0.948746
0.944972
0.941191
0.937452
0.933762
0.930308
0.927236
0.925143
0.934828
0.950662
0.961069
0.970727
0.97669
0.980802
0.98308
0.984157
0.984253
0.983596
0.982312
0.980539
0.978358
0.975835
0.973036
0.970026
0.96684
0.963524
0.960095
0.956588
0.952991
0.94934
0.945639
0.941924
0.938187
0.934488
0.930817
0.927368
0.924286
0.922173
0.927471
0.94415
0.955224
0.965528
0.971911
0.9763
0.978766
0.979973
0.980173
0.979603
0.9784
0.976697
0.974589
0.972136
0.969411
0.966473
0.963355
0.96011
0.95675
0.953306
0.949778
0.946192
0.942554
0.9389
0.935214
0.931559
0.927914
0.924473
0.921386
0.919253
0.919917
0.937512
0.949291
0.96028
0.967109
0.971787
0.974449
0.97579
0.976095
0.975611
0.97449
0.972858
0.970823
0.968441
0.96579
0.962926
0.959878
0.956704
0.953413
0.950036
0.946577
0.943061
0.939491
0.935902
0.932272
0.928667
0.925053
0.921624
0.918533
0.916383
0.912195
0.930763
0.943281
0.954986
0.962286
0.967265
0.970128
0.971607
0.972019
0.971622
0.970583
0.969024
0.967062
0.964752
0.962174
0.959386
0.956409
0.953305
0.950085
0.946777
0.943389
0.939947
0.93645
0.93293
0.929361
0.925808
0.922233
0.918822
0.91573
0.913563
0.904347
0.923927
0.937206
0.949653
0.957444
0.962735
0.965806
0.967427
0.967946
0.967639
0.966681
0.965196
0.963308
0.961071
0.958566
0.955853
0.952948
0.949914
0.946765
0.94353
0.940216
0.93685
0.93343
0.929984
0.926481
0.922984
0.919454
0.916066
0.912975
0.910792
0.89642
0.917029
0.931083
0.944287
0.952586
0.9582
0.961485
0.963252
0.96388
0.963665
0.962786
0.961377
0.959562
0.957398
0.954967
0.952328
0.949495
0.946533
0.943455
0.940294
0.937058
0.93377
0.93043
0.927062
0.92363
0.920195
0.916715
0.913357
0.910269
0.908072
0.888471
0.910098
0.924931
0.938894
0.947715
0.953662
0.957168
0.959084
0.959824
0.959701
0.958903
0.957568
0.955826
0.953736
0.951377
0.948812
0.946052
0.943161
0.940156
0.937069
0.933914
0.930707
0.927451
0.924164
0.920809
0.917441
0.914018
0.910695
0.907614
0.905402
0.880562
0.903168
0.918769
0.933482
0.942837
0.949122
0.952856
0.954926
0.955779
0.95575
0.955032
0.953771
0.952103
0.950085
0.947799
0.945306
0.942617
0.939799
0.936867
0.933857
0.930785
0.927661
0.924491
0.921289
0.918017
0.914722
0.911363
0.90808
0.90501
0.902784
0.872759
0.896274
0.91262
0.928059
0.937954
0.944583
0.948553
0.950779
0.951748
0.951813
0.951175
0.949988
0.948392
0.946449
0.944233
0.94181
0.939194
0.936446
0.933589
0.930658
0.927671
0.924631
0.921551
0.918439
0.915253
0.912038
0.908749
0.905513
0.902459
0.90022
0.865129
0.889451
0.906508
0.922636
0.93307
0.940046
0.944259
0.946645
0.947733
0.94789
0.947333
0.946219
0.944696
0.942827
0.940681
0.938326
0.93578
0.933104
0.930323
0.927471
0.924571
0.921617
0.91863
0.915611
0.912518
0.909389
0.906176
0.902995
0.899962
0.897711
0.857736
0.882737
0.900454
0.917222
0.928189
0.935514
0.939976
0.942527
0.943735
0.943983
0.943507
0.942466
0.941015
0.93922
0.937143
0.934853
0.932378
0.929773
0.92707
0.924297
0.921484
0.91862
0.915726
0.912805
0.909808
0.906771
0.903643
0.900526
0.897522
0.895259
0.850637
0.876166
0.894482
0.911829
0.923315
0.930992
0.935707
0.938426
0.939757
0.940095
0.939699
0.938731
0.937352
0.935628
0.933618
0.931392
0.928987
0.926454
0.923828
0.921135
0.91841
0.915637
0.912837
0.910016
0.907122
0.904185
0.90115
0.898107
0.895139
0.892868
0.843879
0.869774
0.888613
0.90647
0.918453
0.926483
0.931455
0.934347
0.935802
0.93623
0.935913
0.935017
0.933707
0.932051
0.930106
0.927944
0.925607
0.923145
0.920597
0.917984
0.915346
0.912667
0.909962
0.907244
0.904457
0.901627
0.898695
0.895738
0.892817
0.89054
0.837498
0.863591
0.882867
0.901156
0.913609
0.92199
0.927222
0.930292
0.931872
0.932391
0.93215
0.931326
0.930081
0.92849
0.926608
0.924509
0.922239
0.919847
0.917376
0.914844
0.912291
0.909708
0.9071
0.904484
0.901811
0.899096
0.896278
0.893421
0.890559
0.888281
0.831514
0.857643
0.877262
0.895899
0.908791
0.917518
0.923013
0.926263
0.927969
0.92858
0.928413
0.927659
0.926477
0.924946
0.923125
0.921088
0.918883
0.91656
0.914164
0.911714
0.909246
0.906757
0.904246
0.901737
0.899181
0.89659
0.893898
0.891155
0.888369
0.886096
0.825939
0.851952
0.871816
0.890709
0.904005
0.913071
0.918831
0.922262
0.924097
0.9248
0.924705
0.924018
0.922894
0.92142
0.919658
0.91768
0.915539
0.913284
0.910961
0.908593
0.906208
0.903812
0.9014
0.898999
0.896565
0.894107
0.891554
0.888943
0.886251
0.883993
0.820773
0.846534
0.866541
0.885598
0.899259
0.908652
0.914676
0.918291
0.920257
0.921051
0.921026
0.920403
0.919334
0.917914
0.916208
0.914286
0.912206
0.910018
0.907767
0.905479
0.903176
0.900872
0.898559
0.896268
0.89396
0.891644
0.889243
0.886784
0.88421
0.881979
0.816014
0.841399
0.861448
0.880577
0.894561
0.904269
0.910555
0.914354
0.916451
0.917336
0.917377
0.916816
0.915798
0.914428
0.912776
0.910906
0.908885
0.906763
0.904581
0.902371
0.900148
0.897935
0.895721
0.893541
0.891364
0.889198
0.886963
0.884678
0.88225
0.880065
0.81166
0.836556
0.856542
0.875661
0.88992
0.89993
0.906471
0.910457
0.912683
0.913657
0.913762
0.913258
0.912289
0.910964
0.909362
0.907541
0.905576
0.903519
0.901403
0.899267
0.897123
0.894999
0.892884
0.890817
0.888773
0.886764
0.884709
0.882623
0.880374
0.878261
0.807711
0.832008
0.85183
0.87086
0.885348
0.895643
0.902431
0.906603
0.908956
0.910017
0.910184
0.909733
0.908808
0.907523
0.905967
0.904192
0.902281
0.900284
0.898232
0.896166
0.894099
0.892063
0.890046
0.888092
0.886183
0.884338
0.882477
0.880616
0.878586
0.876585
0.804173
0.827756
0.847319
0.866192
0.880863
0.891418
0.898445
0.902799
0.905275
0.906421
0.906647
0.906244
0.905357
0.904108
0.902592
0.90086
0.899
0.897059
0.895067
0.893069
0.891076
0.889124
0.887204
0.885363
0.88359
0.881913
0.88026
0.878652
0.876888
0.875056
0.801059
0.823793
0.843012
0.861673
0.876481
0.887267
0.89452
0.899051
0.901647
0.902874
0.903156
0.902793
0.901939
0.900719
0.899239
0.897547
0.895733
0.893843
0.891908
0.889975
0.888053
0.886182
0.884356
0.882629
0.88099
0.879484
0.87805
0.876722
0.87528
0.873699
0.798404
0.820077
0.838842
0.857228
0.872131
0.883129
0.890607
0.89532
0.898037
0.89935
0.899685
0.899358
0.898532
0.897339
0.89589
0.894237
0.892465
0.890624
0.888742
0.886871
0.885018
0.883226
0.881495
0.879878
0.878374
0.877039
0.875832
0.874812
0.873755
0.872548
0.796153
0.816453
0.834644
0.85269
0.867654
0.878866
0.886585
0.891501
0.894358
0.89577
0.896168
0.89588
0.895085
0.893924
0.892507
0.890893
0.889164
0.887372
0.885546
0.883736
0.881952
0.880241
0.878604
0.877097
0.875725
0.874562
0.873589
0.872899
0.872297
0.871649
0.794201
0.813056
0.830784
0.848521
0.863467
0.874799
0.882681
0.887749
0.890719
0.89221
0.892661
0.892409
0.891643
0.890511
0.889123
0.887549
0.885861
0.884114
0.88234
0.880587
0.87887
0.877234
0.875687
0.874282
0.873037
0.872037
0.871291
0.870942
0.870858
0.871018
0.786345
0.803498
0.82107
0.838768
0.853736
0.865141
0.873127
0.878279
0.881267
0.882726
0.883128
0.882829
0.882039
0.880909
0.879535
0.878003
0.876369
0.874696
0.873017
0.871381
0.869811
0.868348
0.867014
0.865863
0.864933
0.864342
0.864188
0.864772
0.866237
0.869426
0.767135
0.78474
0.802102
0.81833
0.831927
0.842597
0.850434
0.855795
0.859184
0.861105
0.861972
0.862101
0.861711
0.860958
0.859948
0.858771
0.857491
0.856167
0.854841
0.853559
0.852349
0.851253
0.850303
0.849563
0.849091
0.849038
0.849554
0.851014
0.853634
0.858234
0.74651
0.76454
0.78124
0.796189
0.808821
0.819065
0.826888
0.832501
0.8363
0.838697
0.840047
0.84064
0.840693
0.840363
0.839764
0.838986
0.838096
0.837154
0.836205
0.835293
0.83445
0.83372
0.833138
0.832772
0.832685
0.833032
0.833958
0.835827
0.838917
0.844128
0.724683
0.742579
0.758588
0.772755
0.784879
0.794927
0.802813
0.808686
0.81287
0.815711
0.817523
0.818576
0.819076
0.819183
0.81901
0.818648
0.818165
0.817623
0.817062
0.81653
0.816055
0.815684
0.81545
0.815419
0.815647
0.816281
0.817446
0.819498
0.822757
0.828262
0.70195
0.719493
0.734953
0.748611
0.760393
0.770294
0.778244
0.784358
0.788905
0.792179
0.794455
0.795976
0.796939
0.797498
0.797765
0.797832
0.797768
0.797632
0.797465
0.797312
0.797201
0.797176
0.797264
0.797526
0.79801
0.798849
0.800148
0.802257
0.805507
0.811076
0.678381
0.695567
0.710576
0.723838
0.735347
0.745132
0.753146
0.759484
0.764373
0.768065
0.770797
0.772789
0.774221
0.77524
0.775955
0.776458
0.776815
0.777085
0.777308
0.777527
0.777768
0.778069
0.778452
0.778973
0.77967
0.780663
0.782036
0.784134
0.787281
0.792772
0.654021
0.670876
0.685496
0.698436
0.70974
0.719453
0.727545
0.7341
0.739313
0.743403
0.746575
0.749026
0.750921
0.752398
0.75356
0.754497
0.755271
0.755941
0.756545
0.757122
0.757697
0.758302
0.758957
0.759709
0.760588
0.761703
0.763124
0.765182
0.768183
0.773513
0.628894
0.645447
0.659737
0.672425
0.683587
0.69327
0.701458
0.708227
0.71375
0.718219
0.721813
0.724708
0.727054
0.728978
0.730579
0.73194
0.733121
0.734179
0.735149
0.73607
0.736959
0.737849
0.738753
0.739714
0.740757
0.74198
0.743439
0.745454
0.748298
0.753415
0.603025
0.61931
0.633325
0.645821
0.656892
0.666581
0.674879
0.681862
0.687684
0.692514
0.696512
0.699833
0.702614
0.704972
0.706999
0.708772
0.710347
0.711779
0.7131
0.714346
0.715533
0.716689
0.717825
0.71898
0.720173
0.721497
0.722993
0.724968
0.727656
0.732531
0.576441
0.592491
0.606281
0.618631
0.629649
0.639372
0.647794
0.654988
0.661097
0.666273
0.670657
0.674386
0.677585
0.680363
0.6828
0.684971
0.686928
0.68872
0.690377
0.691932
0.693399
0.694806
0.69616
0.697498
0.698835
0.700255
0.70179
0.703731
0.706269
0.71089
0.549169
0.565009
0.578613
0.590855
0.60185
0.611626
0.620182
0.627588
0.633974
0.639481
0.644233
0.648352
0.651951
0.655129
0.657962
0.660515
0.662839
0.664977
0.666956
0.668806
0.670541
0.672185
0.673745
0.675255
0.676724
0.678233
0.679804
0.681712
0.68411
0.68846
0.521227
0.536878
0.550328
0.562488
0.573482
0.58333
0.592029
0.599645
0.606299
0.612122
0.617224
0.621714
0.625694
0.629254
0.632464
0.635385
0.638059
0.640528
0.642815
0.644947
0.646939
0.648811
0.650569
0.652243
0.653842
0.655438
0.657045
0.658919
0.661178
0.665267
0.492637
0.50811
0.521429
0.533527
0.544539
0.554472
0.56332
0.571144
0.578057
0.584181
0.589615
0.594455
0.598796
0.602718
0.606286
0.609557
0.612564
0.615348
0.617928
0.62033
0.622565
0.624652
0.626594
0.62842
0.630134
0.631807
0.633446
0.635289
0.637417
0.6412
0.463408
0.478712
0.491917
0.50397
0.515013
0.52504
0.53404
0.542068
0.549231
0.555641
0.561388
0.56656
0.571239
0.575502
0.579407
0.583004
0.586327
0.589409
0.592268
0.594926
0.597393
0.599687
0.601811
0.603787
0.605617
0.607362
0.609024
0.610824
0.612826
0.616362
0.433561
0.448692
0.461795
0.473815
0.484897
0.495023
0.504176
0.512404
0.519806
0.526486
0.532527
0.538009
0.543003
0.547583
0.5518
0.555702
0.559319
0.562679
0.565798
0.568693
0.571374
0.573855
0.576137
0.578244
0.580176
0.581992
0.583687
0.585457
0.587321
0.590495
0.403103
0.418055
0.431065
0.44306
0.454187
0.464414
0.473717
0.482138
0.489766
0.496699
0.503014
0.508781
0.514066
0.518935
0.523438
0.527619
0.531505
0.535121
0.538481
0.541601
0.544487
0.547152
0.549593
0.551825
0.553842
0.555694
0.557382
0.559107
0.560895
0.563854
0.372045
0.386803
0.399727
0.411706
0.422879
0.433205
0.442652
0.451257
0.459097
0.466264
0.472829
0.478856
0.484403
0.489532
0.494291
0.498721
0.502846
0.50669
0.510262
0.513577
0.516635
0.51945
0.522024
0.524374
0.526496
0.52843
0.530151
0.531813
0.5334
0.535944
0.340398
0.35494
0.367787
0.379757
0.390976
0.401392
0.410973
0.41975
0.427787
0.435166
0.441956
0.448213
0.45399
0.459346
0.464324
0.468969
0.473302
0.477348
0.481114
0.484613
0.48784
0.490799
0.49348
0.495893
0.498033
0.499951
0.501651
0.503304
0.504908
0.507255
0.30818
0.322473
0.335256
0.347224
0.35848
0.368973
0.378675
0.387609
0.395824
0.403393
0.410379
0.416832
0.422802
0.428344
0.433503
0.438322
0.442821
0.447023
0.450933
0.454562
0.457912
0.460993
0.463802
0.466341
0.468582
0.470539
0.472182
0.47366
0.474997
0.476937
0.275433
0.289431
0.302161
0.314126
0.325401
0.335951
0.345756
0.35483
0.363203
0.370934
0.378081
0.38469
0.39081
0.396493
0.401786
0.406735
0.411365
0.415699
0.419737
0.423481
0.426918
0.430045
0.432858
0.435376
0.43761
0.439597
0.441308
0.442844
0.444181
0.445829
0.242263
0.255891
0.268559
0.280499
0.291758
0.302331
0.312215
0.321409
0.329917
0.337779
0.345047
0.351771
0.357994
0.363766
0.369136
0.374149
0.378836
0.383223
0.387319
0.391136
0.394672
0.397918
0.400839
0.403406
0.405585
0.407404
0.408879
0.410168
0.411316
0.412615
0.208916
0.222032
0.234565
0.24641
0.257582
0.268128
0.278059
0.287348
0.295963
0.303918
0.311262
0.318046
0.324313
0.330113
0.335503
0.340534
0.345243
0.349649
0.353745
0.357527
0.360992
0.364157
0.367035
0.369636
0.371931
0.373891
0.375438
0.376645
0.377565
0.378437
0.175856
0.188208
0.200395
0.211976
0.222936
0.233373
0.243304
0.252656
0.261344
0.269355
0.276732
0.283525
0.289768
0.295514
0.300824
0.305763
0.310389
0.314742
0.318838
0.322664
0.326176
0.329323
0.33207
0.334436
0.336462
0.338198
0.339595
0.340675
0.341432
0.341798
0.143815
0.155004
0.166433
0.177422
0.187951
0.198149
0.208
0.217357
0.226062
0.234067
0.24141
0.248138
0.254286
0.259911
0.26508
0.269862
0.274306
0.27845
0.282317
0.285933
0.289308
0.292437
0.295274
0.297756
0.299817
0.301447
0.302616
0.30338
0.303799
0.303712
0.113695
0.123216
0.133285
0.143173
0.152911
0.162638
0.172265
0.181531
0.190192
0.198144
0.205397
0.211977
0.21791
0.223268
0.228152
0.232675
0.236919
0.240922
0.244656
0.248071
0.251127
0.253848
0.25629
0.258493
0.26043
0.262035
0.263166
0.263719
0.263659
0.262743
0.0863545
0.0937217
0.101762
0.109927
0.118373
0.127237
0.136319
0.145246
0.153688
0.161467
0.168534
0.174881
0.18052
0.185514
0.189964
0.193996
0.197738
0.201298
0.204725
0.208003
0.211043
0.213741
0.216035
0.217944
0.219531
0.220859
0.221843
0.222252
0.221836
0.220263
0.0623344
0.0672789
0.0727906
0.078649
0.0852713
0.0927712
0.100831
0.109035
0.117003
0.124436
0.131155
0.137087
0.142249
0.146751
0.15073
0.154296
0.157527
0.160484
0.163229
0.165828
0.1683
0.17061
0.172681
0.174434
0.175826
0.176888
0.17759
0.177674
0.176653
0.1741
0.0415904
0.0442102
0.0471592
0.050396
0.0547625
0.0602399
0.0664456
0.0731392
0.0800468
0.086764
0.0929023
0.0982186
0.10266
0.10635
0.109498
0.112317
0.11497
0.117532
0.119975
0.12221
0.124165
0.125849
0.12733
0.12866
0.129805
0.130721
0.13136
0.131406
0.129999
0.126679
0.0234332
0.0241639
0.0248952
0.0258214
0.0283445
0.0316488
0.0354231
0.0398189
0.0447636
0.0499015
0.054812
0.0591498
0.0627047
0.0654334
0.067453
0.0690206
0.0704548
0.0719902
0.0736648
0.0753399
0.0768187
0.0779918
0.0788929
0.0796316
0.0802587
0.0807539
0.0811227
0.081221
0.0799518
0.076248
0.00713652
0.00611133
0.00204183
0.00114022
0.00363428
0.00542916
0.00682262
0.00857718
0.0108399
0.0134297
0.0160971
0.0186009
0.0207455
0.0224216
0.0236171
0.02443
0.0250307
0.0255854
0.0261951
0.0268652
0.0275217
0.0280827
0.0285157
0.0288457
0.0290908
0.0292183
0.0292238
0.0292607
0.0288833
0.0261918
0.770227
0.752383
0.731765
0.709711
0.686916
0.663298
0.638932
0.613848
0.588054
0.561575
0.534442
0.506662
0.478262
0.449252
0.419658
0.389499
0.358794
0.327591
0.295941
0.263954
0.231784
0.199712
0.168191
0.137834
0.109372
0.0834838
0.0606272
0.0408064
0.0233544
0.00749837
0.766547
0.747598
0.726664
0.704506
0.681752
0.658202
0.633908
0.608904
0.583193
0.556799
0.529757
0.502071
0.473769
0.444863
0.415376
0.385334
0.354752
0.323685
0.292187
0.260378
0.228418
0.196606
0.165418
0.135473
0.107494
0.0821251
0.0597755
0.0403911
0.0232455
0.00756588
0.762416
0.742813
0.721665
0.699439
0.676718
0.653231
0.629005
0.604071
0.57844
0.552132
0.525177
0.497585
0.469382
0.440582
0.411204
0.38128
0.350823
0.319894
0.28855
0.256918
0.22517
0.193614
0.162741
0.133169
0.105611
0.080698
0.0588218
0.0398852
0.0230745
0.00759297
0.75802
0.738027
0.716721
0.69445
0.671759
0.648332
0.624173
0.599307
0.573752
0.547524
0.520653
0.49315
0.465042
0.436346
0.407075
0.377265
0.346932
0.316139
0.284946
0.253487
0.221951
0.190653
0.160101
0.130917
0.103802
0.0793601
0.0579479
0.0394269
0.0229174
0.00760367
0.753445
0.733258
0.711857
0.689565
0.666899
0.643524
0.619427
0.594628
0.569143
0.542987
0.516194
0.488777
0.46076
0.432164
0.402996
0.373298
0.343085
0.312426
0.281382
0.250096
0.218772
0.187736
0.157511
0.128721
0.10206
0.0780981
0.0571496
0.0390223
0.0227824
0.00760397
0.748758
0.728511
0.707073
0.684779
0.662134
0.638809
0.614769
0.59003
0.56461
0.538521
0.511803
0.484468
0.456536
0.428034
0.398969
0.369379
0.339284
0.308754
0.277859
0.246746
0.215635
0.184866
0.154975
0.126588
0.100385
0.0769064
0.0564156
0.0386608
0.0226653
0.0075931
0.744008
0.723791
0.702367
0.680092
0.657465
0.634188
0.6102
0.585515
0.560154
0.534131
0.507482
0.480223
0.452373
0.42396
0.394993
0.365509
0.335529
0.305126
0.274379
0.243439
0.212545
0.182047
0.152498
0.124524
0.0987834
0.0757875
0.0557443
0.038339
0.0225646
0.00757322
0.739236
0.719105
0.697738
0.675502
0.652894
0.629658
0.605718
0.581084
0.555779
0.529817
0.503233
0.476045
0.448273
0.419946
0.391072
0.361688
0.331821
0.301543
0.270943
0.240178
0.209502
0.179283
0.150086
0.122532
0.0972587
0.0747425
0.0551352
0.0380562
0.0224795
0.00757276
0.734475
0.714465
0.693184
0.671008
0.648421
0.62522
0.601324
0.576737
0.551485
0.525581
0.499058
0.471936
0.444239
0.415992
0.387208
0.35792
0.328163
0.298008
0.267552
0.236962
0.206509
0.176575
0.147738
0.120613
0.09581
0.0737702
0.0545849
0.0378101
0.0224071
0.00754392
0.729749
0.709883
0.688709
0.666606
0.644046
0.620874
0.597019
0.572477
0.547274
0.521422
0.494957
0.467899
0.440274
0.412103
0.383402
0.354206
0.324556
0.294522
0.264208
0.233793
0.203565
0.173923
0.145454
0.118764
0.0944343
0.0728668
0.0540889
0.0375969
0.0223452
0.00751357
0.725078
0.70537
0.684317
0.662296
0.639767
0.616623
0.592805
0.568303
0.543146
0.517343
0.490932
0.463935
0.436378
0.408279
0.379656
0.35055
0.321002
0.291086
0.260912
0.230672
0.200672
0.171327
0.143232
0.116982
0.093129
0.0720285
0.0536429
0.0374127
0.0222919
0.00748359
0.720477
0.700933
0.68001
0.658077
0.635584
0.612466
0.588681
0.564216
0.5391
0.513343
0.486985
0.460046
0.432552
0.40452
0.375974
0.346954
0.317505
0.287703
0.257668
0.227603
0.197833
0.168789
0.141074
0.115268
0.0918934
0.0712526
0.0532433
0.0372543
0.0222461
0.00745439
0.715961
0.69658
0.675791
0.65395
0.631499
0.608405
0.584649
0.560215
0.535138
0.509425
0.483115
0.456232
0.428796
0.40083
0.372356
0.343419
0.314065
0.284375
0.254479
0.224591
0.195055
0.166316
0.138985
0.113627
0.0907275
0.0705382
0.0528877
0.0371194
0.0222074
0.00742728
0.711541
0.692319
0.671666
0.649918
0.627512
0.60444
0.580711
0.556304
0.531261
0.505589
0.479325
0.452491
0.425112
0.397208
0.368805
0.339948
0.310684
0.281105
0.251348
0.221641
0.192341
0.163913
0.136969
0.11206
0.0896329
0.0698834
0.0525735
0.0370057
0.0221756
0.00740299
0.707227
0.68816
0.66764
0.645984
0.623625
0.600574
0.576868
0.552486
0.527473
0.501838
0.475614
0.448827
0.4215
0.393657
0.365321
0.336541
0.307365
0.277893
0.248277
0.218753
0.189694
0.161581
0.135029
0.110571
0.0886092
0.0692864
0.0522979
0.0369105
0.0221608
0.00738223
0.703031
0.68411
0.663719
0.642151
0.61984
0.596809
0.573124
0.548763
0.523776
0.498174
0.471985
0.445241
0.417964
0.390177
0.361905
0.333197
0.304108
0.274743
0.245268
0.215928
0.187115
0.159323
0.133165
0.109158
0.0876547
0.068744
0.0520575
0.0368306
0.0221412
0.00736431
0.69896
0.680177
0.659907
0.638421
0.616159
0.593146
0.569479
0.545138
0.520172
0.494598
0.468441
0.441735
0.414504
0.386769
0.358557
0.329917
0.300913
0.271653
0.242318
0.213164
0.184601
0.157135
0.131376
0.10782
0.0867662
0.0682529
0.0518488
0.0367634
0.0221197
0.00734934
0.695023
0.676366
0.65621
0.634798
0.612584
0.589589
0.565937
0.541611
0.516663
0.491113
0.464983
0.438311
0.411122
0.383435
0.355278
0.326703
0.297781
0.268623
0.239428
0.210461
0.182151
0.155018
0.129659
0.106552
0.0859421
0.0678095
0.0516686
0.036707
0.0221
0.00733749
0.691228
0.672684
0.652632
0.631286
0.609116
0.586138
0.562498
0.538184
0.51325
0.487719
0.461614
0.434972
0.40782
0.380175
0.35207
0.323556
0.294713
0.265657
0.2366
0.207821
0.179768
0.152972
0.128016
0.105355
0.0851791
0.0674113
0.0515143
0.0366598
0.0220821
0.00732872
0.687582
0.669137
0.649178
0.627888
0.605759