/*--------------------------------*- C++ -*----------------------------------*\
  =========                 |
  \\      /  F ield         | OpenFOAM: The Open Source CFD Toolbox
   \\    /   O peration     | Website:  https://openfoam.org
    \\  /    A nd           | Version:  7
     \\/     M anipulation  |
\*---------------------------------------------------------------------------*/
FoamFile
{
    version     2.0;
    format      ascii;
    class       volVectorField;
    location    "4.8";
    object      U;
}
// * * * * * * * * * * * * * * * * * * * * * * * * * * * * * * * * * * * * * //

dimensions      [0 1 -1 0 0 0 0];

internalField   nonuniform List<vector> 
18000
(
(-0.000615334 0.00641695 1.02013e-20)
(-0.00344654 0.0242973 0)
(-0.00818468 0.0459843 0)
(-0.0134671 0.0689478 0)
(-0.0189085 0.0919633 -3.35536e-21)
(-0.024126 0.114448 1.69749e-20)
(-0.0288737 0.136124 -3.43476e-21)
(-0.0330007 0.156849 3.45844e-21)
(-0.0364185 0.176528 0)
(-0.0390809 0.195072 -1.04797e-20)
(-0.0409757 0.212383 -3.50618e-21)
(-0.0421099 0.228352 0)
(-0.0425049 0.242874 7.01474e-21)
(-0.0421945 0.255854 7.02981e-21)
(-0.0412174 0.267217 -1.40511e-20)
(-0.0396151 0.276916 -1.40261e-20)
(-0.0374303 0.284933 0)
(-0.034705 0.291276 -2.09454e-20)
(-0.0314812 0.295983 6.94599e-21)
(-0.0277997 0.299114 -2.0778e-20)
(-0.0236989 0.300752 6.884e-21)
(-0.019215 0.300991 0)
(-0.0143824 0.299939 -6.77836e-21)
(-0.00923496 0.297709 -6.7678e-21)
(-0.0038093 0.294416 0)
(0.00185334 0.290176 0)
(0.00770418 0.285103 -1.32442e-20)
(0.0137048 0.279303 -1.31421e-20)
(0.0198097 0.272965 -1.30945e-20)
(0.0257466 0.266319 1.4607e-20)
(-0.000840349 0.00715598 1.45273e-20)
(-0.00425338 0.0259333 2.52634e-20)
(-0.00968807 0.0481529 -2.58465e-20)
(-0.0156967 0.0714035 -2.63425e-20)
(-0.0218666 0.0945071 -6.6981e-21)
(-0.027802 0.116922 2.03101e-20)
(-0.0332538 0.138406 -2.73868e-20)
(-0.0380666 0.158838 -2.761e-20)
(-0.0421424 0.178149 2.77825e-20)
(-0.0454318 0.196271 2.79075e-20)
(-0.0479222 0.213122 -1.40006e-20)
(-0.0496149 0.228605 -2.80492e-20)
(-0.0505272 0.242624 -1.40655e-20)
(-0.0506918 0.255092 2.80605e-20)
(-0.0501437 0.265941 -2.80321e-20)
(-0.0489208 0.275127 2.80072e-20)
(-0.0470647 0.282636 -5.58819e-20)
(-0.0446159 0.288479 4.17429e-20)
(-0.0416134 0.292695 -2.76875e-20)
(-0.0380948 0.295345 1.38336e-20)
(-0.0340964 0.296511 -2.74189e-20)
(-0.0296531 0.296291 0)
(-0.0247982 0.294793 1.37247e-20)
(-0.0195651 0.292134 -2.69429e-20)
(-0.0139914 0.288435 2.6736e-20)
(-0.00812066 0.283823 0)
(-0.00200701 0.278423 -1.30949e-20)
(0.00430161 0.272359 1.30253e-20)
(0.0107359 0.265838 5.18737e-20)
(0.0170205 0.259109 2.89975e-20)
(-0.0010919 0.00784887 -2.32716e-20)
(-0.00508733 0.0274721 -2.52629e-20)
(-0.0111746 0.0502343 3.87585e-20)
(-0.017846 0.0737787 6.57731e-20)
(-0.0246713 0.0969785 0)
(-0.031245 0.119331 -2.71054e-20)
(-0.0373136 0.140623 2.73862e-20)
(-0.0427214 0.160765 8.2732e-20)
(-0.0473682 0.179711 -2.7782e-20)
(-0.0512012 0.197411 -2.79096e-20)
(-0.0542028 0.213797 8.38815e-20)
(-0.0563736 0.22879 2.80487e-20)
(-0.0577274 0.242301 0)
(-0.058292 0.254252 -5.61274e-20)
(-0.0581018 0.264581 8.3846e-20)
(-0.0571927 0.273249 -2.78918e-20)
(-0.0556028 0.280243 2.78941e-20)
(-0.0533703 0.285576 2.77984e-20)
(-0.0505317 0.289289 9.70117e-23)
(-0.0471224 0.291442 0)
(-0.0431763 0.292118 8.22311e-20)
(-0.0387254 0.291415 -5.43155e-20)
(-0.0338011 0.289444 2.70985e-20)
(-0.0284369 0.286326 0)
(-0.0226704 0.28219 -2.67358e-20)
(-0.0165486 0.277173 1.05797e-19)
(-0.0101299 0.271416 -7.84792e-20)
(-0.00347023 0.265063 -2.61301e-20)
(0.00333517 0.258345 2.55903e-20)
(0.0100062 0.251532 2.88872e-20)
(-0.00136942 0.00857911 0)
(-0.00595217 0.0290666 1.25958e-20)
(-0.0126587 0.0523402 1.22308e-24)
(-0.0199335 0.0761543 -6.57221e-20)
(-0.0273333 0.0994308 0)
(-0.0344561 0.121709 -5.40181e-20)
(-0.0410492 0.142803 0)
(-0.0469568 0.16265 -8.2678e-20)
(-0.0520786 0.181224 2.76861e-20)
(-0.0563599 0.198496 -5.56084e-20)
(-0.0597805 0.214416 -5.58834e-20)
(-0.0623381 0.228915 -2.79934e-20)
(-0.0640448 0.241918 2.79393e-20)
(-0.0649264 0.253352 2.78479e-20)
(-0.0650136 0.26316 -2.80275e-20)
(-0.0643395 0.271308 -5.56122e-20)
(-0.0629409 0.277785 5.54401e-20)
(-0.0608537 0.282605 0)
(-0.0581113 0.285808 0)
(-0.054746 0.287455 0)
(-0.0507892 0.287627 0)
(-0.0462705 0.286423 0)
(-0.0412198 0.283956 0)
(-0.0356696 0.280353 -5.32845e-20)
(-0.0296579 0.27575 -5.31117e-20)
(-0.0232339 0.270296 -2.24741e-22)
(-0.0164602 0.264153 -5.21924e-20)
(-0.00940113 0.257486 -2.66443e-22)
(-0.00217573 0.250554 -5.17564e-20)
(0.00492459 0.243655 1.14697e-19)
(-0.00167492 0.0092759 0)
(-0.00684545 0.030575 1.13039e-19)
(-0.014122 0.0543387 1.65978e-24)
(-0.0219323 0.0784121 -3.93356e-20)
(-0.0298281 0.101765 1.33083e-19)
(-0.03741 0.123972 8.10141e-20)
(-0.0444306 0.144875 8.17049e-20)
(-0.0507397 0.164433 0)
(-0.056237 0.182645 0)
(-0.0608661 0.199499 8.34104e-20)
(-0.0646067 0.214961 5.50492e-23)
(-0.0674551 0.228974 -1.95203e-19)
(-0.0694203 0.241474 1.67248e-19)
(-0.0705253 0.252398 -5.58414e-20)
(-0.070799 0.261693 5.54439e-20)
(-0.0702726 0.269328 5.54648e-20)
(-0.0689803 0.275293 -5.52275e-20)
(-0.0669553 0.279602 5.5188e-20)
(-0.0642283 0.282295 1.09634e-19)
(-0.0608294 0.283432 -5.44823e-20)
(-0.0567874 0.283093 -1.08224e-19)
(-0.0521297 0.281377 1.07518e-19)
(-0.0468845 0.278398 -1.0677e-19)
(-0.0410837 0.274287 5.32838e-20)
(-0.0347656 0.269191 0)
(-0.0279811 0.263273 0)
(-0.0207968 0.256714 4.54452e-22)
(-0.0132845 0.249706 -2.05333e-19)
(-0.00558453 0.24254 1.0165e-19)
(0.00199327 0.235553 -1.14094e-19)
(-0.00200417 0.00995001 0)
(-0.00775945 0.0320278 -1.00466e-19)
(-0.0155625 0.0562517 1.02587e-19)
(-0.023843 0.0805626 0)
(-0.0321503 0.103982 -2.12693e-19)
(-0.0400988 0.126119 -2.69461e-20)
(-0.0474502 0.146835 -5.4525e-20)
(-0.0540572 0.166114 -2.74176e-20)
(-0.059824 0.183973 0)
(-0.0646961 0.200418 -5.54925e-20)
(-0.0686517 0.21543 5.55475e-20)
(-0.0716851 0.228969 1.11471e-19)
(-0.0738045 0.240979 -1.11494e-19)
(-0.0750307 0.251404 0)
(-0.0753902 0.260197 -1.11187e-19)
(-0.074912 0.26733 1.10537e-19)
(-0.0736282 0.272793 1.10491e-19)
(-0.0715698 0.276601 1.64588e-19)
(-0.0687651 0.278791 -1.64045e-19)
(-0.0652419 0.279422 2.1718e-19)
(-0.0610272 0.278573 1.08097e-19)
(-0.0561469 0.27634 -1.07517e-19)
(-0.0506282 0.27284 2.12966e-19)
(-0.0445024 0.268209 0)
(-0.0378087 0.262602 1.04539e-19)
(-0.0305993 0.256196 2.07779e-19)
(-0.0229444 0.249193 -1.02332e-19)
(-0.0149221 0.241817 1.02556e-19)
(-0.00669035 0.234395 -2.49941e-22)
(0.00141399 0.227312 -1.13444e-19)
(-0.00235538 0.0105821 -1.15312e-20)
(-0.00869033 0.0333794 0)
(-0.01697 0.058024 -1.2821e-19)
(-0.0256514 0.0825529 2.61119e-20)
(-0.0342882 0.106032 7.9697e-20)
(-0.0425095 0.128099 2.68697e-20)
(-0.0500892 0.14864 1.08537e-19)
(-0.0568885 0.167653 0)
(-0.0628167 0.185174 5.51371e-20)
(-0.0678209 0.201227 5.52587e-20)
(-0.0718792 0.215808 -5.55273e-20)
(-0.0749861 0.22889 1.6646e-19)
(-0.0771483 0.240427 0)
(-0.0783841 0.250371 0)
(-0.0787185 0.258681 1.65955e-19)
(-0.078179 0.265329 -2.75839e-19)
(-0.0767953 0.270308 1.09729e-19)
(-0.074596 0.27363 -1.0961e-19)
(-0.071608 0.275333 -1.08586e-19)
(-0.067858 0.27547 -3.24593e-19)
(-0.0633715 0.27412 -3.6943e-22)
(-0.0581737 0.271377 1.06423e-19)
(-0.0522919 0.267359 -2.11809e-19)
(-0.0457578 0.262205 1.0477e-19)
(-0.0386116 0.256077 -6.38862e-22)
(-0.0309073 0.249168 -1.03666e-19)
(-0.0227182 0.2417 1.02774e-19)
(-0.014128 0.233931 0)
(-0.00530705 0.22623 1.00219e-19)
(0.00337228 0.219041 2.19546e-22)
(-0.00272389 0.0111601 -2.30116e-20)
(-0.0096292 0.0346087 2.49865e-20)
(-0.0183365 0.0596305 -1.5329e-19)
(-0.0273503 0.0843502 -7.80815e-20)
(-0.0362321 0.10788 1.05813e-19)
(-0.0446313 0.129882 -1.6088e-19)
(-0.052337 0.150258 -5.43487e-20)
(-0.0592201 0.169021 -1.09199e-19)
(-0.0651968 0.186224 1.09856e-19)
(-0.0702177 0.201906 -2.20858e-19)
(-0.074262 0.216078 -1.10589e-19)
(-0.077324 0.228725 -2.60297e-22)
(-0.0794096 0.239812 5.54517e-20)
(-0.0805356 0.249299 -1.65775e-19)
(-0.0807256 0.257149 -2.20755e-19)
(-0.0800055 0.263337 7.90989e-23)
(-0.0784026 0.267855 -2.92369e-22)
(-0.0759443 0.270716 1.08767e-19)
(-0.0726567 0.271953 1.08584e-19)
(-0.0685659 0.271619 1.51641e-22)
(-0.0636976 0.269786 -1.84959e-22)
(-0.0580773 0.266551 1.05489e-19)
(-0.0517332 0.26203 1.05611e-19)
(-0.0446993 0.256362 -2.21526e-22)
(-0.0370172 0.249718 -3.11041e-19)
(-0.0287432 0.242301 2.04905e-19)
(-0.0199542 0.234356 2.03647e-19)
(-0.0107382 0.226173 -2.01437e-19)
(-0.00127229 0.218169 -1.00217e-19)
(0.00802809 0.21086 -1.10707e-19)
(-0.00310518 0.0116756 -2.06419e-19)
(-0.0105679 0.0356929 -2.4932e-20)
(-0.0196533 0.0610394 1.27662e-19)
(-0.0289314 0.0859209 1.04138e-19)
(-0.0379753 0.10949 -1.05812e-19)
(-0.0464578 0.131429 1.07197e-19)
(-0.0541862 0.151652 -5.41366e-20)
(-0.0610431 0.170186 1.63707e-19)
(-0.0669529 0.187094 -1.09854e-19)
(-0.0718715 0.20243 1.10311e-19)
(-0.07578 0.216219 5.5314e-20)
(-0.0786734 0.228458 -5.54567e-20)
(-0.080557 0.239124 -3.31365e-19)
(-0.0814469 0.248183 2.20754e-19)
(-0.0813654 0.255601 1.10211e-19)
(-0.0803368 0.261358 0)
(-0.0783869 0.265446 0)
(-0.0755423 0.267876 -7.2168e-22)
(-0.0718296 0.268678 -1.07502e-19)
(-0.0672751 0.267903 0)
(-0.0619055 0.26562 0)
(-0.0557487 0.261923 -1.05856e-19)
(-0.0488359 0.256925 0)
(-0.0412037 0.250769 -2.0702e-19)
(-0.032897 0.243628 0)
(-0.0239751 0.235714 -1.02322e-19)
(-0.0145192 0.227291 2.02209e-19)
(-0.0046212 0.218681 -2.00015e-19)
(0.005542 0.210354 0)
(0.0155055 0.202911 0)
(-0.00349381 0.0121193 1.83458e-19)
(-0.0114969 0.0366122 0)
(-0.020912 0.0622242 -2.546e-20)
(-0.0303881 0.0872324 2.59444e-20)
(-0.0395132 0.110826 -1.57962e-19)
(-0.0479862 0.132703 5.30984e-23)
(-0.0556345 0.152786 -5.39632e-20)
(-0.0623545 0.171109 0)
(-0.0680808 0.187748 0)
(-0.0727759 0.202767 -5.50134e-20)
(-0.0764235 0.216204 5.50678e-20)
(-0.07902 0.228068 -1.10372e-19)
(-0.0805716 0.238344 1.10735e-19)
(-0.0810938 0.247007 0)
(-0.0806077 0.254029 0)
(-0.0791363 0.25939 0)
(-0.0767051 0.263085 1.08276e-19)
(-0.0733408 0.265121 -4.34561e-22)
(-0.0690706 0.265527 1.07946e-19)
(-0.0639227 0.264351 -2.12824e-19)
(-0.0579265 0.261659 1.05906e-19)
(-0.0511137 0.257541 -5.24472e-19)
(-0.04352 0.25211 5.01037e-22)
(-0.0351868 0.245506 2.07014e-19)
(-0.0261634 0.237904 -7.72294e-22)
(-0.0165135 0.229523 2.02474e-19)
(-0.00632394 0.220638 -1.99932e-19)
(0.00430905 0.211601 -1.98811e-19)
(0.0152163 0.202938 6.23928e-22)
(0.0258801 0.195344 -2.16333e-19)
(-0.00388383 0.012484 -2.28506e-20)
(-0.0124065 0.0373501 0)
(-0.0221044 0.063161 5.08057e-20)
(-0.0317153 0.0882545 -5.17723e-20)
(-0.040844 0.111853 4.73629e-19)
(-0.0492173 0.133665 5.46699e-23)
(-0.0566847 0.153619 -5.38478e-20)
(-0.0631584 0.171754 5.43476e-20)
(-0.0685845 0.18815 -2.7291e-19)
(-0.0729336 0.202883 0)
(-0.0761935 0.216001 0)
(-0.0783632 0.227524 -1.09685e-19)
(-0.0794499 0.237448 1.10295e-19)
(-0.0794692 0.245753 -1.09773e-19)
(-0.0784416 0.252417 1.09307e-19)
(-0.0763898 0.257422 0)
(-0.0733395 0.260764 -4.33333e-19)
(-0.0693184 0.262451 2.14924e-19)
(-0.0643555 0.262507 1.06985e-19)
(-0.0584819 0.260978 3.18505e-19)
(-0.0517313 0.257929 0)
(-0.0441411 0.253445 2.09416e-19)
(-0.0357531 0.247636 2.06931e-19)
(-0.0266149 0.24064 2.0503e-19)
(-0.0167825 0.232632 -1.32647e-21)
(-0.00632557 0.223831 -2.00508e-19)
(0.00466189 0.214521 1.99924e-19)
(0.0160783 0.205076 0)
(0.0277692 0.196076 6.51214e-22)
(0.0391648 0.188318 4.30068e-19)
(-0.0042695 0.0127648 -1.82127e-19)
(-0.0132872 0.0378937 0)
(-0.0232233 0.0638293 -2.02462e-19)
(-0.0329094 0.0889601 -2.58119e-19)
(-0.0419683 0.112538 -1.57772e-19)
(-0.0501558 0.134279 5.32297e-20)
(-0.0573449 0.154112 6.22518e-23)
(-0.0634654 0.172076 -5.41637e-20)
(-0.0684766 0.188257 4.82459e-22)
(-0.0723583 0.202736 1.0952e-19)
(-0.075104 0.215572 1.09491e-19)
(-0.0767163 0.226792 -1.09251e-19)
(-0.0772047 0.236402 1.09589e-19)
(-0.0765854 0.24439 -3.27921e-19)
(-0.0748791 0.250738 3.26678e-19)
(-0.0721089 0.255433 2.16685e-19)
(-0.0683017 0.258469 5.39671e-19)
(-0.0634874 0.259855 -1.08083e-19)
(-0.0576977 0.259614 -2.12488e-19)
(-0.050968 0.257789 -1.00306e-21)
(-0.043338 0.254442 -2.09564e-19)
(-0.0348518 0.249656 6.22509e-19)
(-0.0255592 0.243537 -4.12766e-19)
(-0.0155162 0.236221 4.06984e-19)
(-0.00478663 0.227879 -2.02489e-19)
(0.00655168 0.218727 3.99635e-19)
(0.018396 0.209049 7.61716e-22)
(0.0306374 0.199234 -3.91553e-19)
(0.0431422 0.189914 3.86725e-19)
(0.0552958 0.18199 2.11269e-19)
(-0.00464529 0.0129588 1.82126e-19)
(-0.0141301 0.0382343 0)
(-0.0242626 0.0642134 4.5501e-19)
(-0.0339689 0.0893258 1.54897e-19)
(-0.0428895 0.112851 0)
(-0.0508105 0.134507 0)
(-0.0576289 0.154222 0)
(-0.0632936 0.172033 0)
(-0.0677784 0.188024 1.0897e-19)
(-0.0710743 0.202282 1.09144e-19)
(-0.0731821 0.214871 -2.19114e-19)
(-0.0741089 0.225828 2.19212e-19)
(-0.0738676 0.235167 3.27782e-19)
(-0.0724763 0.242881 1.09434e-19)
(-0.0699568 0.248959 1.08016e-19)
(-0.0663338 0.25339 -3.24809e-19)
(-0.0616364 0.256171 -4.30105e-19)
(-0.0558973 0.257309 -2.14042e-19)
(-0.0491527 0.256829 2.1248e-19)
(-0.0414437 0.25477 -4.21069e-19)
(-0.0328169 0.251192 2.0847e-19)
(-0.0233251 0.246177 -4.13659e-19)
(-0.013027 0.239827 2.03985e-19)
(-0.00198834 0.232274 -1.24099e-21)
(0.00971676 0.223683 -2.00507e-19)
(0.0220014 0.214265 -3.97599e-19)
(0.0347525 0.204299 3.93442e-19)
(0.0478512 0.194178 0)
(0.0611889 0.184575 -6.72003e-22)
(0.0741204 0.176497 -4.1965e-19)
(-0.00500618 0.0130654 2.2679e-20)
(-0.0149275 0.0383675 0)
(-0.0252176 0.0643021 -2.01978e-19)
(-0.0348938 0.089333 5.14481e-20)
(-0.0436138 0.112764 -5.22406e-20)
(-0.0511936 0.134316 0)
(-0.0575551 0.15391 -5.35517e-20)
(-0.0626673 0.171578 5.39212e-20)
(-0.0665202 0.187402 1.08595e-19)
(-0.0691173 0.201469 -3.26529e-19)
(-0.0704683 0.213848 -1.09203e-19)
(-0.0705865 0.224582 -8.18809e-23)
(-0.0694895 0.233692 -3.05409e-22)
(-0.0671986 0.241178 -2.17507e-19)
(-0.063738 0.247033 -1.08691e-19)
(-0.0591351 0.251251 0)
(-0.0534225 0.25383 4.17444e-22)
(-0.046637 0.254778 2.13155e-19)
(-0.0388206 0.254118 -2.11119e-19)
(-0.0300214 0.251892 0)
(-0.0202942 0.248156 0)
(-0.00970131 0.242989 0)
(0.00168813 0.236492 0)
(0.0137974 0.228794 -1.21134e-21)
(0.0265413 0.220052 0)
(0.0398225 0.210469 0)
(0.0535171 0.200312 1.94345e-19)
(0.0674931 0.18997 1.92243e-19)
(0.0816693 0.180146 1.90911e-19)
(0.0953914 0.171946 -7.19278e-22)
(-0.00534797 0.0130861 2.26199e-20)
(-0.0156731 0.0382935 -4.91624e-20)
(-0.0260853 0.0640896 3.01612e-19)
(-0.0356863 0.088968 -5.12837e-20)
(-0.0441495 0.112256 5.2169e-20)
(-0.0513208 0.133674 6.13609e-23)
(-0.0571464 0.153137 1.59973e-19)
(-0.061617 0.170667 -2.15068e-19)
(-0.0647402 0.186341 3.24656e-19)
(-0.0665331 0.200244 2.65932e-22)
(-0.067016 0.212447 -1.08666e-19)
(-0.0662107 0.222998 2.17524e-19)
(-0.0641407 0.231921 -2.172e-19)
(-0.0608317 0.239224 2.16564e-19)
(-0.0563123 0.244906 0)
(-0.0506139 0.248962 2.1447e-19)
(-0.043774 0.251392 0)
(-0.0358351 0.252209 8.34168e-22)
(-0.0268459 0.251434 -2.09733e-19)
(-0.0168627 0.249108 -2.07854e-19)
(-0.00595021 0.245288 2.05872e-19)
(0.0058192 0.240051 -2.03812e-19)
(0.0183653 0.233497 -2.01694e-19)
(0.0315997 0.225748 -4.00252e-19)
(0.0454253 0.216958 -1.97367e-19)
(0.0597342 0.207318 1.95785e-19)
(0.0743914 0.197082 -3.88035e-19)
(0.0892495 0.186623 -1.92233e-19)
(0.104254 0.176661 0)
(0.118771 0.168396 -2.04922e-19)
(-0.0056675 0.0130249 0)
(-0.0163623 0.0380168 1.95855e-19)
(-0.0268641 0.0635757 -1.50785e-19)
(-0.0363499 0.0882229 -2.55601e-19)
(-0.0445067 0.111309 0)
(-0.0512096 0.132555 0)
(-0.0564293 0.151866 -3.19942e-19)
(-0.0601783 0.169256 4.29502e-19)
(-0.0624831 0.184791 -3.24146e-19)
(-0.0633763 0.198552 0)
(-0.0628905 0.210609 1.08854e-19)
(-0.0610575 0.221012 -1.08932e-19)
(-0.0579087 0.229791 5.91432e-22)
(-0.0534761 0.236956 -1.08743e-19)
(-0.047794 0.242511 -1.07313e-19)
(-0.0408999 0.246456 -7.14053e-22)
(-0.0328375 0.248795 2.123e-19)
(-0.0236562 0.249538 2.11473e-19)
(-0.0134132 0.248713 5.4821e-22)
(-0.00217431 0.246357 4.15327e-19)
(0.00998575 0.242527 -4.11115e-19)
(0.0229835 0.237302 4.07192e-19)
(0.0367273 0.230777 2.01684e-19)
(0.0511168 0.223074 1.99529e-19)
(0.0660434 0.21434 1.1738e-21)
(0.0813885 0.204756 0)
(0.0970071 0.194558 1.92356e-19)
(0.112735 0.184098 -5.70757e-19)
(0.128542 0.174098 1.87488e-19)
(0.143845 0.16585 2.02245e-19)
(-0.00596272 0.0128877 -1.34751e-19)
(-0.0169924 0.0375464 -4.40113e-19)
(-0.0275544 0.0627659 -3.17624e-23)
(-0.0368895 0.087096 4.69498e-22)
(-0.0446968 0.109912 -1.55429e-19)
(-0.0508792 0.130937 0)
(-0.0554316 0.150067 -1.05967e-19)
(-0.0583893 0.167304 -6.42903e-19)
(-0.0597983 0.182702 3.23512e-19)
(-0.0597083 0.196336 -2.1606e-19)
(-0.0581658 0.208272 3.24787e-19)
(-0.0552146 0.218561 -1.08308e-19)
(-0.0508959 0.227232 2.16596e-19)
(-0.0452498 0.234302 -5.39015e-19)
(-0.0383182 0.239777 3.22292e-19)
(-0.0301466 0.243661 -4.42681e-22)
(-0.0207864 0.245961 -6.35836e-19)
(-0.0102956 0.246691 2.10119e-19)
(0.00125927 0.245876 -2.08543e-19)
(0.0138018 0.243558 0)
(0.0272466 0.239793 2.03932e-19)
(0.0414988 0.234658 0)
(0.0564554 0.22825 -1.99932e-19)
(0.0720047 0.220687 1.97965e-19)
(0.0880266 0.212109 1.96172e-19)
(0.104393 0.20269 1.92802e-19)
(0.120951 0.192648 0)
(0.137519 0.182306 0)
(0.154083 0.172381 -3.74983e-19)
(0.170151 0.164251 5.97892e-19)
(-0.0062329 0.0126823 1.34867e-19)
(-0.0175624 0.0368951 2.44109e-19)
(-0.0281575 0.0616708 -1.99441e-19)
(-0.0373104 0.0855921 4.07337e-19)
(-0.0447308 0.108062 5.23108e-20)
(-0.0503481 0.128807 5.25552e-20)
(-0.0541814 0.147715 6.5246e-22)
(-0.0562887 0.164776 -2.1326e-19)
(-0.0567368 0.180031 -1.07305e-19)
(-0.0555935 0.193545 5.3147e-22)
(-0.052921 0.205378 -5.44412e-22)
(-0.0487769 0.215577 -3.23879e-19)
(-0.043214 0.224174 -1.07568e-19)
(-0.0362826 0.231187 6.17288e-22)
(-0.0280343 0.236626 2.13642e-19)
(-0.018524 0.240497 2.12339e-19)
(-0.0078126 0.24281 7.32143e-22)
(0.00403202 0.243581 -2.09069e-19)
(0.0169326 0.242838 2.07412e-19)
(0.030802 0.240623 -2.05733e-19)
(0.0455435 0.236994 -4.06937e-19)
(0.0610512 0.232026 -2.01108e-19)
(0.077211 0.225816 3.97751e-19)
(0.0939005 0.21848 0)
(0.110989 0.210155 -1.93971e-19)
(0.128341 0.201003 -3.84482e-19)
(0.145795 0.191229 -3.79838e-19)
(0.163156 0.181125 1.88487e-19)
(0.180418 0.171389 -5.57567e-19)
(0.197211 0.163491 1.97301e-19)
(-0.00647862 0.012418 -2.23522e-19)
(-0.0180732 0.0360792 4.86316e-20)
(-0.028676 0.0603064 1.99442e-19)
(-0.037618 0.0837226 -1.52594e-19)
(-0.0446184 0.105763 5.18523e-20)
(-0.0496329 0.126159 -1.37297e-22)
(-0.0527038 0.144795 5.28777e-19)
(-0.0539126 0.161646 2.13525e-19)
(-0.0533471 0.176741 2.14755e-19)
(-0.0510947 0.190132 3.23182e-19)
(-0.0472348 0.201871 -3.23628e-19)
(-0.0418401 0.212 2.15816e-19)
(-0.034977 0.22055 4.30492e-19)
(-0.0267081 0.227539 2.14333e-19)
(-0.0170963 0.23298 -4.27768e-22)
(-0.00620754 0.236882 -4.24425e-19)
(0.00588622 0.239256 4.2107e-19)
(0.019106 0.240121 2.23517e-22)
(0.0333634 0.239508 -2.06573e-19)
(0.0485597 0.237458 2.049e-19)
(0.0645873 0.23403 2.03005e-19)
(0.0813296 0.229302 -1.99885e-19)
(0.0986621 0.223368 -3.96414e-19)
(0.116452 0.216341 3.41063e-22)
(0.134561 0.208356 1.94618e-19)
(0.152843 0.199568 1.91681e-19)
(0.171135 0.190165 3.77587e-19)
(0.189228 0.18041 -3.72399e-19)
(0.207113 0.170974 0)
(0.224573 0.163427 1.94989e-19)
(-0.00670178 0.0121052 5.02923e-22)
(-0.0185271 0.0351178 0)
(-0.0291126 0.0586937 -1.4869e-19)
(-0.0378161 0.081506 -5.0629e-20)
(-0.044367 0.103027 -2.05705e-19)
(-0.0487458 0.122999 0)
(-0.051019 0.141303 -3.16848e-19)
(-0.0512909 0.157901 1.06299e-19)
(-0.0496713 0.172808 0)
(-0.046268 0.186063 -2.14443e-19)
(-0.0411788 0.197707 0)
(-0.0344929 0.207776 -3.22164e-19)
(-0.026292 0.216298 3.21502e-19)
(-0.0166524 0.223291 -2.14054e-19)
(-0.00565021 0.228768 -2.12346e-19)
(0.00663621 0.232739 0)
(0.0201229 0.235218 0)
(0.034719 0.236227 2.07727e-19)
(0.0503242 0.235796 -4.07911e-22)
(0.0668287 0.23397 2.03057e-19)
(0.084114 0.230807 -2.0191e-19)
(0.102053 0.226386 3.99092e-19)
(0.120513 0.220799 -1.97326e-19)
(0.13935 0.21416 0)
(0.158418 0.206596 5.77492e-19)
(0.177565 0.198258 -9.50154e-19)
(0.196623 0.189321 1.88588e-19)
(0.215373 0.180018 1.86119e-19)
(0.233796 0.170985 1.82917e-19)
(0.251841 0.163904 3.83874e-19)
(-0.00690541 0.011755 -1.77246e-19)
(-0.0189277 0.0340323 3.86453e-19)
(-0.02947 0.0568578 1.98377e-19)
(-0.0379069 0.0789677 4.54143e-19)
(-0.0439794 0.0998767 5.64703e-19)
(-0.0476931 0.119344 1.04187e-19)
(-0.0491385 0.137247 -5.25567e-19)
(-0.0484434 0.15354 0)
(-0.0457396 0.168222 -4.26288e-19)
(-0.041156 0.181318 -2.13347e-19)
(-0.0348098 0.192858 0)
(-0.0268078 0.20287 -2.13544e-19)
(-0.0172479 0.211376 -3.53109e-22)
(-0.00622182 0.218393 -6.38854e-19)
(0.00618016 0.223933 2.1234e-19)
(0.0198662 0.228007 2.10464e-19)
(0.0347396 0.230631 -4.177e-19)
(0.0506971 0.231828 -4.14356e-19)
(0.0676267 0.23163 4.47295e-22)
(0.0854075 0.230082 -1.68357e-22)
(0.103911 0.227244 0)
(0.123 0.223193 -1.98324e-19)
(0.142531 0.218023 -1.95111e-19)
(0.162354 0.211843 0)
(0.182313 0.204778 0)
(0.20225 0.196971 5.67606e-19)
(0.221993 0.188586 -5.59347e-19)
(0.241315 0.179829 0)
(0.260177 0.171293 5.45629e-19)
(0.278701 0.164783 -3.80539e-19)
(-0.00709354 0.0113788 1.03965e-21)
(-0.0192793 0.0328455 -3.86428e-19)
(-0.0297497 0.0548277 -4.93715e-20)
(-0.037889 0.0761391 -5.04426e-19)
(-0.0434525 0.0963441 -3.0795e-19)
(-0.046472 0.115222 1.03916e-19)
(-0.0470626 0.132653 2.10483e-19)
(-0.0453755 0.14858 5.28502e-19)
(-0.041565 0.162993 4.26287e-19)
(-0.0357813 0.175899 4.27787e-19)
(-0.0281615 0.187317 0)
(-0.0188307 0.197266 1.14958e-21)
(-0.00790383 0.205762 0)
(0.00451133 0.212817 4.2565e-19)
(0.0183095 0.218442 0)
(0.0333848 0.222649 -2.09779e-19)
(0.0496276 0.225454 2.09885e-19)
(0.0669221 0.22688 0)
(0.0851448 0.226961 0)
(0.104164 0.225744 -6.05838e-19)
(0.123841 0.223288 2.0029e-19)
(0.144029 0.21967 0)
(0.164575 0.214983 3.91156e-19)
(0.185319 0.209332 3.868e-19)
(0.206096 0.202838 -7.62285e-19)
(0.226741 0.195639 7.5285e-19)
(0.247076 0.187887 6.29584e-22)
(0.266871 0.179763 3.66289e-19)
(0.286054 0.171809 -3.63805e-19)
(0.304928 0.165958 0)
(-0.00727083 0.0109877 4.42997e-19)
(-0.019586 0.0315806 -4.80866e-20)
(-0.0299514 0.0526351 -3.93432e-19)
(-0.0377565 0.0730578 0)
(-0.0427761 0.0924697 -4.081e-19)
(-0.0450695 0.110675 0)
(-0.0447773 0.127559 -5.22945e-19)
(-0.0420747 0.14306 -3.17271e-19)
(-0.0371384 0.157153 -4.24061e-19)
(-0.0301399 0.169834 0)
(-0.0212364 0.181107 1.06683e-19)
(-0.0105714 0.190981 1.07757e-19)
(0.00172276 0.199466 -2.12786e-19)
(0.0155221 0.206569 -4.23173e-19)
(0.030706 0.212298 -2.10257e-19)
(0.0471546 0.216664 -8.36484e-19)
(0.0647451 0.219682 4.1636e-19)
(0.0833496 0.221378 4.82077e-22)
(0.102833 0.221784 5.16859e-22)
(0.123053 0.220948 6.05566e-19)
(0.143859 0.218931 0)
(0.165096 0.215807 0)
(0.186599 0.211667 -1.35052e-21)
(0.208197 0.206614 3.72524e-22)
(0.229715 0.200764 -3.78446e-19)
(0.250976 0.194246 -3.74235e-19)
(0.271797 0.187203 1.23277e-21)
(0.291943 0.179792 -3.66274e-19)
(0.31131 0.172497 -3.60855e-19)
(0.33037 0.167378 1.03794e-21)
(-0.00744215 0.0105919 0)
(-0.0198511 0.0302605 3.8311e-19)
(-0.0300716 0.0503131 3.44302e-19)
(-0.0374981 0.0697661 5.00708e-20)
(-0.0419312 0.0883031 8.15065e-19)
(-0.0434599 0.105758 -1.0336e-19)
(-0.0422521 0.122024 8.3509e-19)
(-0.038507 0.137037 4.20355e-19)
(-0.0324242 0.150761 6.35794e-19)
(-0.024196 0.163178 3.1819e-19)
(-0.0139992 0.174281 1.0639e-19)
(-0.00199562 0.184068 5.32176e-19)
(0.0116653 0.192539 -1.41906e-22)
(0.0268434 0.199697 2.11802e-19)
(0.043403 0.205547 4.2082e-19)
(0.0612103 0.210096 4.17915e-19)
(0.0801295 0.213361 0)
(0.10002 0.215365 0)
(0.120736 0.216143 0)
(0.142123 0.21574 0)
(0.164018 0.214217 3.96035e-19)
(0.186254 0.211648 0)
(0.208654 0.20812 -3.22668e-22)
(0.231033 0.203733 7.64442e-19)
(0.253202 0.198596 3.77976e-19)
(0.27497 0.192832 3.73203e-19)
(0.296148 0.18657 7.36219e-19)
(0.316497 0.179946 0)
(0.335878 0.173378 -7.1729e-19)
(0.354923 0.169044 7.41253e-19)
(-0.00761211 0.0102001 3.5134e-19)
(-0.0200765 0.0289062 -3.83119e-19)
(-0.0301031 0.047896 0)
(-0.0370961 0.0663101 -3.99056e-19)
(-0.0408891 0.0839014 -1.02848e-19)
(-0.0416043 0.100536 -3.08474e-19)
(-0.0394386 0.116123 -9.37124e-19)
(-0.0346158 0.130592 -1.30428e-21)
(-0.0273581 0.143902 -3.16217e-19)
(-0.0178786 0.156021 -7.41626e-19)
(-0.00637261 0.16693 -1.06072e-19)
(0.00698004 0.176616 -4.23467e-19)
(0.0220133 0.185073 -4.22385e-19)
(0.0385713 0.192297 0)
(0.0565034 0.198286 -4.18152e-19)
(0.0756621 0.203046 -6.22853e-19)
(0.0958984 0.206592 2.06433e-19)
(0.117059 0.208946 -4.07783e-19)
(0.138984 0.210142 -4.03562e-19)
(0.161507 0.210224 0)
(0.184451 0.209252 -7.90416e-19)
(0.207633 0.207297 0)
(0.23086 0.204444 -7.71381e-19)
(0.253931 0.200788 -3.80085e-19)
(0.27664 0.196432 -7.51566e-19)
(0.298782 0.191487 3.70633e-19)
(0.320157 0.186074 -1.09931e-18)
(0.340523 0.180303 3.60862e-19)
(0.359707 0.17452 1.76601e-21)
(0.378493 0.171006 -3.66383e-19)
(-0.00778457 0.00981922 -3.51348e-19)
(-0.0202615 0.027537 4.76938e-20)
(-0.0300343 0.0454173 3.41143e-19)
(-0.0365255 0.0627386 3.99064e-19)
(-0.039611 0.0793279 -4.05801e-19)
(-0.0394497 0.0950888 1.19952e-21)
(-0.0362698 0.109944 4.15888e-19)
(-0.0303205 0.123827 -8.3744e-19)
(-0.0218467 0.136686 -1.04116e-19)
(-0.0110812 0.14848 9.50803e-19)
(0.00176238 0.159179 -6.34079e-19)
(0.0164871 0.168761 1.05709e-18)
(0.0329107 0.177209 1.05421e-18)
(0.0508618 0.184512 -2.10079e-19)
(0.070175 0.190664 4.18148e-19)
(0.0906884 0.195668 6.22123e-19)
(0.112239 0.199533 2.04461e-19)
(0.134658 0.202281 1.53878e-21)
(0.157772 0.203943 2.02478e-19)
(0.181397 0.204562 1.99444e-19)
(0.20534 0.204195 -1.94786e-19)
(0.2294 0.202911 1.94675e-19)
(0.253363 0.20079 -3.82916e-19)
(0.277011 0.197922 3.7976e-19)
(0.300119 0.194404 1.80183e-21)
(0.322465 0.190339 3.68281e-19)
(0.343837 0.185831 1.81634e-21)
(0.363996 0.18097 -3.60145e-19)
(0.382736 0.176022 6.7656e-22)
(0.400972 0.173343 0)
(-0.00796212 0.00945415 0)
(-0.0204023 0.0261694 0)
(-0.0298482 0.0429093 -4.38649e-19)
(-0.0357543 0.0591011 4.96254e-20)
(-0.038048 0.0746504 0)
(-0.0369299 0.0895003 4.10204e-19)
(-0.0326617 0.103591 1.03594e-19)
(-0.0255192 0.116858 3.1382e-19)
(-0.0157696 0.129246 4.20539e-19)
(-0.00366553 0.140703 -4.21988e-19)
(0.0105618 0.151189 4.22519e-19)
(0.0266988 0.160672 -4.22191e-19)
(0.0445469 0.169126 -4.21071e-19)
(0.063919 0.176533 0)
(0.0846342 0.18288 0)
(0.106515 0.188164 0)
(0.129381 0.192392 -4.10168e-19)
(0.153047 0.19558 6.08644e-19)
(0.177321 0.197757 -2.0089e-19)
(0.202 0.198961 0)
(0.22687 0.199247 5.88291e-19)
(0.251709 0.19868 -1.93814e-19)
(0.276284 0.197336 3.82907e-19)
(0.300355 0.1953 -7.52663e-19)
(0.323679 0.192664 7.45781e-19)
(0.34602 0.189521 -1.30858e-21)
(0.367154 0.185964 5.31624e-22)
(0.386846 0.18206 3.58283e-19)
(0.404863 0.177988 2.5199e-22)
(0.422215 0.176151 3.61864e-19)
(-0.00814551 0.00910733 4.35887e-20)
(-0.0204915 0.0248163 -4.73582e-20)
(-0.0295228 0.0404018 9.70965e-20)
(-0.034743 0.0554466 -5.93434e-19)
(-0.0361419 0.0699386 1.00612e-19)
(-0.033967 0.0838618 0)
(-0.0285158 0.0971757 4.12195e-19)
(-0.020092 0.10982 -4.15607e-19)
(-0.00898567 0.121734 0)
(0.00453071 0.132859 5.24432e-19)
(0.0202083 0.143145 -1.05129e-19)
(0.0378164 0.15255 0)
(0.0571397 0.161039 -2.0936e-19)
(0.0779735 0.168584 4.17045e-19)
(0.100119 0.175166 -2.07462e-19)
(0.123381 0.180775 2.05438e-19)
(0.147559 0.185411 -4.0779e-19)
(0.172447 0.189085 6.29477e-22)
(0.19783 0.191819 6.6648e-22)
(0.223483 0.193649 -1.962e-19)
(0.249171 0.194623 -3.8939e-19)
(0.274648 0.194802 1.35455e-21)
(0.299662 0.194259 1.6166e-21)
(0.323957 0.193076 3.76126e-19)
(0.347277 0.191341 -3.69772e-19)
(0.369371 0.189144 3.66524e-19)
(0.390008 0.186571 -7.21558e-19)
(0.408946 0.183671 -6.49576e-22)
(0.42594 0.180539 -7.02756e-19)
(0.442013 0.17957 3.59333e-19)
(-0.00833293 0.00877838 0)
(-0.0205169 0.0234866 -3.77108e-19)
(-0.0290297 0.0379203 0)
(-0.0334455 0.0518213 1.2856e-21)
(-0.0338268 0.0652612 1.00461e-19)
(-0.0304737 0.0782659 1.68412e-22)
(-0.0237227 0.0908145 -8.22938e-19)
(-0.0139073 0.102851 3.11947e-19)
(-0.0013411 0.114312 0)
(0.0136827 0.125131 -5.24097e-19)
(0.0308963 0.135249 1.04788e-19)
(0.0500506 0.144614 0)
(0.0709109 0.153181 -2.08613e-19)
(0.0932529 0.16091 2.07943e-19)
(0.116857 0.167774 2.05912e-19)
(0.141504 0.173754 4.09768e-19)
(0.16697 0.178843 -2.03365e-19)
(0.193025 0.183042 0)
(0.219427 0.186368 0)
(0.245929 0.188847 3.93971e-19)
(0.272271 0.190524 -3.87525e-19)
(0.29819 0.191454 3.84e-19)
(0.323421 0.191706 3.79217e-19)
(0.347698 0.191362 3.72653e-19)
(0.370764 0.190511 -3.68868e-19)
(0.392366 0.189252 3.64412e-19)
(0.412261 0.18768 3.58335e-19)
(0.430176 0.185851 -3.54447e-19)
(0.445809 0.18385 9.75952e-22)
(0.459931 0.183972 7.13244e-19)
(-0.00852241 0.00846694 4.33118e-20)
(-0.0204643 0.0221874 3.30161e-19)
(-0.0283374 0.0354885 0)
(-0.0318112 0.048269 3.94217e-19)
(-0.0310321 0.0606855 0)
(-0.0263584 0.0728045 0)
(-0.0181693 0.0846242 3.0831e-19)
(-0.00683042 0.0960934 -1.26089e-22)
(0.00731908 0.107145 1.03948e-19)
(0.0239632 0.117706 1.04344e-19)
(0.0428127 0.127708 -3.13273e-19)
(0.063597 0.137087 2.08701e-19)
(0.0860584 0.145785 0)
(0.109948 0.153753 0)
(0.135022 0.160951 -4.12166e-19)
(0.161031 0.167348 0)
(0.187726 0.172927 -2.0188e-19)
(0.214847 0.177679 2.00493e-19)
(0.242126 0.181612 1.9758e-19)
(0.269291 0.184743 -7.41548e-22)
(0.296065 0.18711 -1.93546e-19)
(0.322172 0.188762 0)
(0.347344 0.189766 -3.75612e-19)
(0.371324 0.190202 3.71911e-19)
(0.393873 0.190168 0)
(0.414766 0.189779 0)
(0.433793 0.189168 0)
(0.450695 0.188466 0)
(0.46507 0.187917 -3.4733e-19)
(0.476855 0.189809 7.07626e-19)
(0.0442934 0.242332 -0.0108711)
(0.078269 0.206317 -0.0111545)
(0.116172 0.182527 -0.0112585)
(0.14513 0.171376 -0.0113145)
(0.169152 0.169877 -0.0112944)
(0.185326 0.174161 -0.0112506)
(0.195547 0.180846 -0.0111697)
(0.200483 0.187962 -0.011075)
(0.201512 0.19473 -0.0109662)
(0.199695 0.201151 -0.0108474)
(0.195885 0.207412 -0.0107189)
(0.190668 0.21367 -0.0105837)
(0.184397 0.219908 -0.0104462)