/*--------------------------------*- C++ -*----------------------------------*\
  =========                 |
  \\      /  F ield         | OpenFOAM: The Open Source CFD Toolbox
   \\    /   O peration     | Website:  https://openfoam.org
    \\  /    A nd           | Version:  7
     \\/     M anipulation  |
\*---------------------------------------------------------------------------*/
FoamFile
{
    version     2.0;
    format      ascii;
    class       volVectorField;
    location    "56";
    object      U;
}
// * * * * * * * * * * * * * * * * * * * * * * * * * * * * * * * * * * * * * //

dimensions      [0 1 -1 0 0 0 0];

internalField   nonuniform List<vector> 
2000
(
(-0.000544515 -0.00837879 -6.68391e-22)
(-0.00146348 -0.0143607 0)
(-0.00175432 -0.0141162 0)
(-0.000711101 -0.00932296 -3.31609e-21)
(0.00167462 -0.000816135 1.03489e-21)
(0.00532011 0.0109393 1.77372e-23)
(0.0100648 0.0255797 -1.78429e-21)
(0.0156637 0.0426907 0)
(0.0217313 0.0617248 0)
(0.0278828 0.0819475 0)
(-0.000114616 -0.0076834 0)
(-0.000801185 -0.0138084 -2.58142e-21)
(-0.00130981 -0.0142852 2.3806e-21)
(-0.000818552 -0.010552 4.41632e-21)
(0.000745524 -0.00334469 0)
(0.00337077 0.00695649 3.90772e-21)
(0.00697993 0.020095 -3.63385e-21)
(0.0114153 0.0357924 0)
(0.0163524 0.0536561 6.55362e-21)
(0.0214047 0.0731325 -1.26407e-20)
(0.00026395 -0.00688152 0)
(2.51595e-05 -0.0130872 2.08939e-20)
(-0.000340774 -0.0142196 0)
(-3.60563e-05 -0.0114898 1.81561e-20)
(0.00103908 -0.00555893 0)
(0.00291621 0.00324527 -1.59448e-20)
(0.00558278 0.0147475 0)
(0.00896377 0.0287975 1.40998e-20)
(0.0128146 0.0451809 -1.3205e-20)
(0.01672 0.0635749 -1.29241e-20)
(0.000614508 -0.00605148 -5.51536e-21)
(0.00109369 -0.0122918 -1.03792e-20)
(0.00128948 -0.0139626 -4.86373e-21)
(0.00183351 -0.0120936 -8.95943e-21)
(0.00281945 -0.00730089 -8.49482e-21)
(0.00429517 9.98452e-05 7.85924e-21)
(0.00628933 0.0099734 7.5184e-21)
(0.00879773 0.022268 4.7781e-23)
(0.0116741 0.0369518 1.34419e-20)
(0.0144529 0.0539637 1.29252e-20)
(0.000984297 -0.00528242 -5.5329e-21)
(0.00250737 -0.0115271 -1.06333e-20)
(0.00372378 -0.0135699 -1.99361e-20)
(0.00497173 -0.0123387 9.16175e-21)
(0.00631602 -0.008435 0)
(0.00779937 -0.00220124 0)
(0.00946953 0.00621563 -1.54567e-20)
(0.0113716 0.0168207 -1.45894e-20)
(0.0134779 0.0297329 1.38346e-20)
(0.0152789 0.0451519 3.98698e-20)
(0.0014429 -0.00465971 5.56766e-21)
(0.00438507 -0.0108925 5.41124e-21)
(0.00709266 -0.0131036 -2.99248e-20)
(0.00951269 -0.0122298 4.6767e-20)
(0.011672 -0.00888086 -8.67426e-21)
(0.0135963 -0.00345494 0)
(0.0153434 0.00384678 0)
(0.0169851 0.0130159 7.37712e-20)
(0.018615 0.0242736 -6.95031e-20)
(0.0197458 0.0380336 1.32626e-20)
(0.00207891 -0.00425432 4.42567e-20)
(0.00684937 -0.0104639 0)
(0.0114946 -0.0126239 3.98606e-20)
(0.0155131 -0.0118035 -3.73767e-20)
(0.0189015 -0.00863569 0)
(0.021673 -0.00358876 1.67542e-20)
(0.0238853 0.00305078 -4.70711e-20)
(0.0256315 0.0111977 -5.94574e-20)
(0.0271276 0.0211067 2.79925e-20)
(0.0280108 0.0333211 2.6984e-20)
(0.0029901 -0.00410443 -8.83795e-20)
(0.0100154 -0.0102836 -1.0789e-20)
(0.0169776 -0.012177 -2.01202e-20)
(0.0229296 -0.0111202 -4.70912e-20)
(0.0278558 -0.00778199 -1.7885e-20)
(0.0317741 -0.00269917 -1.68996e-20)
(0.0347549 0.00375184 -1.03424e-22)
(0.0369047 0.0113782 0)
(0.0385537 0.0203769 0)
(0.0396075 0.0313264 1.99042e-22)
(0.00426825 -0.00421106 4.41237e-20)
(0.0139699 -0.0103468 -4.2907e-20)
(0.023526 -0.0117793 3.00395e-20)
(0.0316073 -0.01025 6.62011e-20)
(0.0382206 -0.00647275 -1.7624e-20)
(0.0434185 -0.00103663 1.68606e-20)
(0.0473038 0.00561948 1.59031e-20)
(0.0499941 0.0132073 0)
(0.0518857 0.0218285 0)
(0.0532899 0.0319734 -2.31689e-22)
(0.00599307 -0.00453889 -5.48316e-21)
(0.0187529 -0.0105914 5.3747e-20)
(0.0310436 -0.0114094 -9.98982e-21)
(0.0412756 -0.00925859 0)
(0.0495313 -0.00490787 0)
(0.0559489 0.00102172 3.34889e-20)
(0.0607101 0.00807784 0)
(0.0639734 0.0159606 -2.98562e-20)
(0.0660853 0.0247449 -2.8844e-22)
(0.0675291 0.0346954 2.69571e-20)
(0.0432986 0.128107 5.03973e-22)
(0.0603545 0.202899 -5.10049e-22)
(0.0628752 0.261135 -5.94335e-22)
(0.059329 0.315689 -6.62449e-22)
(0.0510258 0.374922 -7.71785e-22)
(0.0449322 0.442684 -1.92218e-23)
(0.0311613 0.520554 4.0536e-22)
(0.0273242 0.611913 1.37111e-21)
(0.00455932 0.731515 0)
(0.00890989 0.870939 -9.88212e-22)
(0.0346535 0.119105 1.87623e-21)
(0.0540806 0.197481 -2.23446e-21)
(0.0586532 0.259611 4.01704e-21)
(0.0562288 0.316039 6.63591e-22)
(0.0486068 0.376095 1.41566e-21)
(0.0429954 0.444367 2.34382e-21)
(0.0298351 0.522722 -8.54124e-22)
(0.0262206 0.61459 -9.17256e-22)
(0.00438765 0.734095 1.82559e-21)
(0.00841767 0.872462 9.85864e-22)
(0.0269312 0.108738 0)
(0.0480497 0.189963 -2.12371e-21)
(0.0547718 0.256518 -1.17366e-21)
(0.0534873 0.31519 0)
(0.0464929 0.376212 -4.32692e-21)
(0.0413277 0.44509 1.38241e-21)
(0.0287003 0.524034 1.51569e-21)
(0.02526 0.616526 5.09444e-21)
(0.00428189 0.736285 -1.81969e-21)
(0.00797345 0.873799 3.64892e-21)
(0.0207321 0.0975447 0)
(0.0422613 0.180294 2.14172e-21)
(0.0512156 0.251776 0)
(0.0510814 0.313094 5.21587e-21)
(0.0446707 0.375242 -5.24274e-21)
(0.0399147 0.444783 -3.03279e-21)
(0.0277463 0.524314 -1.36077e-22)
(0.0244502 0.617436 -4.99771e-21)
(0.00424564 0.737624 -8.26921e-22)
(0.00755484 0.874728 -4.5011e-21)
(0.016971 0.0862637 2.95674e-22)
(0.036809 0.168589 -6.13667e-21)
(0.0479659 0.245311 2.89506e-22)
(0.0489817 0.309718 -4.74843e-21)
(0.0431219 0.373268 0)
(0.0387313 0.443647 -2.94063e-21)
(0.026949 0.523936 -1.70003e-22)
(0.0237621 0.617906 6.40056e-21)
(0.00424552 0.738788 8.37097e-22)
(0.00717468 0.875585 -8.40093e-22)
(0.0167237 0.0757493 -1.68079e-20)
(0.0319605 0.155261 1.07316e-20)
(0.0450072 0.237077 4.69489e-21)
(0.0471668 0.304968 -4.69233e-21)
(0.0418388 0.370123 -2.55797e-21)
(0.0377765 0.441333 0)
(0.0263129 0.522297 -5.89296e-21)
(0.0232135 0.617031 2.92826e-21)
(0.00430978 0.738741 3.1319e-21)
(0.006804 0.875932 3.21278e-21)
(0.0208161 0.066844 -2.10377e-21)
(0.0282311 0.141089 0)
(0.0423292 0.227072 0)
(0.0456021 0.298978 0)
(0.0408011 0.366266 -2.68165e-21)
(0.0370158 0.438674 5.23149e-21)
(0.0258018 0.520637 5.78894e-21)
(0.0227391 0.616446 -8.87378e-21)
(0.00436456 0.73917 1.54259e-21)
(0.00647683 0.876448 -4.70969e-21)
(0.0293283 0.060085 1.30919e-20)
(0.0263798 0.127138 9.13625e-21)
(0.0399978 0.215358 -9.054e-21)
(0.0442895 0.291212 9.76252e-21)
(0.0399961 0.360607 -1.21332e-20)
(0.0364759 0.434028 0)
(0.0254528 0.516745 -2.69878e-21)
(0.0224265 0.613477 8.92153e-23)
(0.00451809 0.737548 -2.87043e-21)
(0.00613942 0.876232 -2.93955e-21)
(0.0412548 0.0552093 -1.12537e-20)
(0.0272674 0.113922 0)
(0.0380781 0.202617 -1.05087e-20)
(0.0432197 0.283426 1.89174e-20)
(0.0394304 0.355947 -7.06683e-21)
(0.0360711 0.431058 -1.26394e-21)
(0.0251705 0.514945 2.69307e-21)
(0.0220876 0.612825 1.09283e-23)
(0.00456612 0.737904 4.18233e-21)
(0.00586078 0.876611 4.29585e-21)
(0.0543117 0.0524375 -9.41562e-21)
(0.0316954 0.10119 9.19717e-21)
(0.0371244 0.185666 1.15658e-21)
(0.04226 0.269683 0)
(0.0390039 0.345182 0)
(0.0359694 0.422052 1.22253e-21)
(0.0251375 0.507207 5.03663e-21)
(0.0220607 0.606643 -4.88976e-21)
(0.00484983 0.734101 -1.26636e-21)
(0.00554114 0.875811 1.22735e-21)
(0.0744797 0.0627429 0)
(0.0445394 0.0983933 0)
(0.0396066 0.174318 0)
(0.042898 0.26442 0)
(0.0388101 0.345119 0)
(0.0352747 0.424461 0)
(0.0246357 0.510188 0)
(0.0210925 0.61046 0)
(0.00464269 0.737537 0)
(0.00500703 0.877101 0)
(0.090086 0.0922153 0)
(0.0650417 0.127522 0)
(0.0472978 0.183718 0)
(0.0449627 0.267163 0)
(0.0394143 0.350259 0)
(0.0337013 0.431878 0)
(0.0230229 0.519559 0)
(0.0192699 0.621601 0)
(0.00441596 0.748402 0)
(0.00441807 0.88377 0)
(0.0942796 0.103979 0)
(0.0791666 0.149154 0)
(0.058057 0.198711 0)
(0.0490275 0.273934 0)
(0.0426436 0.356766 0)
(0.0361991 0.43857 0)
(0.0246699 0.525687 0)
(0.0193814 0.627467 0)
(0.00488353 0.753401 0)
(0.00414076 0.885353 0)
(0.0912066 0.10884 0)
(0.0845187 0.164596 0)
(0.0667398 0.215025 0)
(0.0532369 0.284818 0)
(0.0433517 0.366576 0)
(0.0354476 0.449249 0)
(0.024323 0.537173 0)
(0.0188265 0.639795 0)
(0.00528337 0.765225 0)
(0.00388497 0.892926 0)
(0.0841304 0.109401 0)
(0.0831219 0.174138 0)
(0.0710422 0.228418 0)
(0.0585338 0.295152 0)
(0.0483362 0.375425 0)
(0.0388741 0.45732 0)
(0.0263866 0.543675 0)
(0.0195479 0.644802 0)
(0.00606734 0.768977 0)
(0.00384189 0.893942 0)
(0.0734263 0.107378 0)
(0.0764331 0.179239 0)
(0.0696928 0.240176 0)
(0.0581237 0.307419 0)
(0.0472231 0.387104 0)
(0.0379233 0.470119 0)
(0.0261468 0.557534 0)
(0.019233 0.659187 0)
(0.0065792 0.782135 0)
(0.00372058 0.902725 0)
(0.0604122 0.102593 0)
(0.066708 0.178343 0)
(0.0667408 0.245669 0)
(0.0608217 0.316525 0)
(0.0511823 0.396562 0)
(0.0407558 0.478136 0)
(0.0278804 0.563329 0)
(0.0198034 0.663127 0)
(0.00706848 0.784991 0)
(0.0036784 0.903603 0)
(0.0463973 0.0960057 0)
(0.0543944 0.174602 0)
(0.0569557 0.247407 0)
(0.0540344 0.322896 0)
(0.0473653 0.40686 0)
(0.0390438 0.492263 0)
(0.0276595 0.579576 0)
(0.0197614 0.679723 0)
(0.00768698 0.799836 0)
(0.00363121 0.913982 0)
(0.0338436 0.0868426 0)
(0.0455248 0.167461 0)
(0.0538405 0.247143 0)
(0.0549639 0.328289 0)
(0.0492095 0.413476 0)
(0.040379 0.497574 0)
(0.0284467 0.583163 0)
(0.0199714 0.681893 0)
(0.00791667 0.801408 0)
(0.0036173 0.914492 0)
(0.0183475 0.0712733 0)
(0.028951 0.150217 0)
(0.0394006 0.234275 0)
(0.0455796 0.325163 0)
(0.044832 0.420629 0)
(0.039172 0.512449 0)
(0.0289177 0.601522 0)
(0.0203907 0.7006 0)
(0.00871464 0.817807 0)
(0.00362797 0.926093 0)
(0.094544 0.0510862 8.16586e-21)
(0.101298 0.0650513 -8.03007e-21)
(0.0998949 0.0682653 7.27693e-22)
(0.0939028 0.0678074 0)
(0.0846756 0.0645854 0)
(0.0719137 0.0600826 2.18945e-22)
(0.0569128 0.0539905 -2.45731e-22)
(0.0412042 0.046693 2.41785e-22)
(0.0272895 0.0384527 -3.1069e-23)
(0.0130997 0.0247069 3.06343e-23)
(0.100131 0.0460479 -1.0437e-20)
(0.101828 0.0539413 0)
(0.0980863 0.0535183 4.13863e-21)
(0.0910104 0.0508038 -8.26441e-21)
(0.081314 0.0459521 4.12077e-21)
(0.0684473 0.0403537 -2.15192e-22)
(0.0535965 0.0336 1.68435e-22)
(0.0381496 0.0260063 5.9935e-24)
(0.0242731 0.0180607 -6.78193e-23)
(0.0110853 0.00507679 -4.92289e-23)
(0.103017 0.0397632 1.17483e-20)
(0.101371 0.0424809 -5.78002e-21)
(0.0963234 0.0390727 5.72421e-21)
(0.088486 0.034272 -3.23522e-21)
(0.078351 0.0277342 2.53125e-21)
(0.0652901 0.0209116 0)
(0.0504835 0.013325 -1.68819e-22)
(0.0352518 0.0053819 -6.73697e-24)
(0.0214102 -0.00237739 4.77547e-23)
(0.00888312 -0.0143199 8.24345e-23)
(0.104152 0.0313977 -1.81246e-21)
(0.0998901 0.0297006 0)
(0.0939937 0.0239061 0)
(0.0856251 0.0173785 0)
(0.0752364 0.0093844 1.5613e-21)
(0.0621302 0.00151548 -9.59062e-22)
(0.0474651 -0.00681326 6.52955e-23)
(0.0325041 -0.0150186 5.57717e-23)
(0.018815 -0.0226549 3.0049e-23)
(0.00725553 -0.0332882 3.70263e-23)
(0.103636 0.021107 -9.73475e-22)
(0.0974291 0.0157862 -4.80426e-21)
(0.0910373 0.00803263 -2.00265e-21)
(0.0823106 8.95286e-05 2.00114e-21)
(0.0717995 -0.00912763 -5.94703e-22)
(0.0588016 -0.0178229 0)
(0.0443853 -0.0267298 -1.43594e-22)
(0.0298012 -0.0350659 -5.38546e-24)
(0.0164685 -0.04253 1.58789e-23)
(0.00578707 -0.0517302 -6.77454e-23)
(0.101749 0.00929051 -1.27731e-20)
(0.0942089 0.00112301 2.09734e-21)
(0.0875962 -0.0083006 5.46229e-22)
(0.0786628 -0.0173942 1.92289e-21)
(0.0681527 -0.0276383 0)
(0.0553506 -0.0369543 0)
(0.0412765 -0.0462667 0)
(0.0271583 -0.054601 2.2572e-23)
(0.0143405 -0.0617829 0)
(0.00451965 -0.069534 0)
(0.0987336 -0.00362134 0)
(0.090369 -0.0139091 3.68513e-21)
(0.0837905 -0.0248141 -2.38821e-21)
(0.0747464 -0.0348204 -1.34566e-21)
(0.0643573 -0.0459123 1.35254e-21)
(0.0518168 -0.0556702 2.34988e-22)
(0.0381832 -0.0652364 -3.01578e-22)
(0.0246125 -0.0734376 -1.45825e-22)
(0.0124254 -0.080215 8.78676e-24)
(0.0034826 -0.0865689 2.62933e-23)
(0.0947851 -0.0172354 0)
(0.0860679 -0.028983 -1.29788e-21)
(0.0796561 -0.0412322 -5.19505e-22)
(0.0706049 -0.051915 0)
(0.0604409 -0.0637053 1.61784e-22)
(0.0482605 -0.0737515 -6.06651e-22)
(0.0351397 -0.0834294 2.02854e-22)
(0.0221936 -0.0913788 -1.54631e-23)
(0.010723 -0.0976429 3.1689e-24)
(0.00265683 -0.102702 -3.47438e-23)
(0.0900422 -0.0312336 1.61079e-21)
(0.0814147 -0.0438037 1.1468e-21)
(0.0752172 -0.0572873 -3.80588e-22)
(0.0662943 -0.0684405 1.96616e-22)
(0.0564537 -0.0807823 2.73985e-22)
(0.0447229 -0.0909802 2.54271e-22)
(0.0321778 -0.100637 -4.59063e-23)
(0.0199263 -0.108236 -1.71026e-23)
(0.00922895 -0.113906 -3.17926e-24)
(0.00201166 -0.117811 -3.30798e-24)
(0.084653 -0.0452956 -3.42651e-22)
(0.0764532 -0.0581364 3.45883e-22)
(0.0705676 -0.072751 -2.57745e-22)
(0.0618811 -0.0841823 -1.96312e-22)
(0.052441 -0.0969292 1.14339e-22)
(0.0412439 -0.107161 -2.02404e-22)
(0.0293293 -0.11667 6.28263e-23)
(0.0178311 -0.123848 6.21287e-26)
(0.00793397 -0.128881 0)
(0.00151618 -0.131797 3.31447e-24)
(0.0788568 -0.0591619 3.45141e-22)
(0.071318 -0.0718048 -3.48155e-22)
(0.0658182 -0.0874342 -2.62379e-22)
(0.0574669 -0.0989691 -2.02305e-22)
(0.0484742 -0.111969 -1.18915e-22)
(0.0378801 -0.122138 2.29677e-23)
(0.0266319 -0.131385 3.71966e-23)
(0.0159244 -0.138102 4.72107e-23)
(0.00682486 -0.142487 0)
(0.00114078 -0.144591 -1.42343e-24)
(0.072918 -0.072653 0)
(0.0661872 -0.0846902 -1.16896e-21)
(0.0611036 -0.101187 1.97612e-21)
(0.0531739 -0.112681 2.02599e-22)
(0.0446387 -0.125768 3.05774e-22)
(0.0346935 -0.135809 3.03323e-22)
(0.0241225 -0.144688 -5.67337e-23)
(0.0142164 -0.150939 -2.74445e-23)
(0.00588528 -0.154698 2.79193e-23)
(0.000858743 -0.156168 1.41986e-24)
(0.0670316 -0.0856493 0)
(0.0611901 -0.096737 -1.32337e-21)
(0.0565125 -0.113902 -5.36897e-22)
(0.0490847 -0.12526 0)
(0.0409924 -0.13825 -8.29655e-22)
(0.0317246 -0.148129 3.20708e-22)
(0.0218246 -0.156549 1.75441e-22)
(0.012707 -0.162365 2.56244e-22)
(0.00509681 -0.16554 -2.78282e-23)
(0.000647378 -0.166543 2.15637e-23)
(0.0613322 -0.0980717 0)
(0.0564127 -0.107963 1.3343e-21)
(0.0520947 -0.125518 0)
(0.0452444 -0.136714 1.52063e-21)
(0.0375682 -0.149399 -1.52855e-21)
(0.0289913 -0.159122 -3.70446e-22)
(0.0197472 -0.167007 9.59236e-23)
(0.0113865 -0.172444 -2.68957e-22)
(0.00444034 -0.175089 -4.82121e-23)
(0.000488063 -0.175775 -3.44415e-23)
(0.0559301 -0.109871 1.32229e-20)
(0.0519352 -0.118462 -4.97063e-21)
(0.0478984 -0.136023 -4.8756e-22)
(0.0416876 -0.147116 -2.06032e-21)
(0.0343946 -0.159265 0)
(0.0265007 -0.168872 -3.98258e-22)
(0.0178913 -0.176159 1.48714e-22)
(0.0102397 -0.181291 4.26862e-22)
(0.00389758 -0.18346 1.56811e-23)
(0.000365868 -0.18396 -1.56512e-23)
(0.0509013 -0.121003 1.03313e-21)
(0.0478349 -0.128399 7.74954e-21)
(0.04398 -0.145449 2.13878e-21)
(0.0384427 -0.156588 -2.13753e-21)
(0.0315007 -0.167956 -7.31587e-22)
(0.0242539 -0.177505 0)
(0.0162536 -0.184146 -6.28712e-22)
(0.00924883 -0.189053 3.34892e-22)
(0.00345234 -0.190799 1.57916e-22)
(0.000269245 -0.19122 3.9797e-23)
(0.0463234 -0.131391 -1.83009e-21)
(0.0442209 -0.138002 0)
(0.0404321 -0.153873 0)
(0.0355475 -0.165283 0)
(0.0289268 -0.175624 -5.60434e-22)
(0.0222551 -0.185179 1.29067e-21)
(0.0148309 -0.19114 6.51343e-22)
(0.00839823 -0.195899 -7.5228e-22)
(0.00309156 -0.197269 4.09949e-23)
(0.00018933 -0.197697 -7.99399e-23)
(0.0422231 -0.140903 -4.20708e-21)
(0.041141 -0.147525 5.75179e-21)
(0.0373032 -0.161403 -5.69776e-21)
(0.0329902 -0.173356 3.65329e-21)
(0.0266828 -0.18245 -4.4268e-21)
(0.0204883 -0.192063 0)
(0.0136086 -0.197323 -4.05174e-22)
(0.00766884 -0.201997 -2.08558e-23)
(0.00280274 -0.203035 -1.40982e-22)
(0.000117796 -0.203539 -4.88844e-23)
(0.0380294 -0.149237 -1.98109e-21)
(0.0380808 -0.1572 0)
(0.0342844 -0.168198 -5.62445e-21)
(0.0304822 -0.180957 8.71514e-21)
(0.0245885 -0.188642 -2.9883e-21)
(0.0188187 -0.198334 -3.11467e-22)
(0.0125044 -0.202881 4.04253e-22)
(0.007011 -0.207514 4.87479e-23)
(0.00256183 -0.208258 2.94683e-22)
(4.80652e-05 -0.208897 9.67013e-23)
(0.0338402 -0.15572 -8.05524e-21)
(0.0349051 -0.16723 7.86226e-21)
(0.0314887 -0.174523 7.28356e-22)
(0.0280325 -0.188265 0)
(0.0226445 -0.194452 0)
(0.0172458 -0.204204 3.21125e-22)
(0.0115034 -0.208022 7.51017e-22)
(0.00641366 -0.212621 -7.36731e-22)
(0.0023567 -0.213091 -5.43841e-23)
(5.05888e-06 -0.213918 5.31436e-23)
(0.035906 -0.164386 0)
(0.0352194 -0.190705 0)
(0.0313164 -0.188709 0)
(0.0268822 -0.205049 0)
(0.0214395 -0.207918 0)
(0.0157903 -0.217837 0)
(0.0104833 -0.2199 0)
(0.00571773 -0.224344 0)
(0.00219099 -0.224095 0)
(5.51243e-05 -0.225321 0)
(0.0266596 -0.202276 0)
(0.0219768 -0.227687 0)
(0.0202575 -0.220773 0)
(0.0162856 -0.23559 0)
(0.0134392 -0.234308 0)
(0.00965892 -0.242813 0)
(0.0066689 -0.242191 0)
(0.00365242 -0.245974 0)
(0.00156113 -0.244548 0)
(0.000101124 -0.246016 0)
(0.0248741 -0.241286 0)
(0.0194112 -0.265725 0)
(0.0170898 -0.255065 0)
(0.0129264 -0.269324 0)
(0.0105584 -0.264828 0)
(0.00725896 -0.272975 0)
(0.00516553 -0.270277 0)
(0.00281772 -0.27404 0)
(0.00137875 -0.271573 0)
(0.000111248 -0.273425 0)
(0.0220216 -0.285885 0)
(0.0163302 -0.31024 0)
(0.014202 -0.296645 0)
(0.0102463 -0.311139 0)
(0.00850388 -0.304008 0)
(0.00564851 -0.312519 0)
(0.00426028 -0.308056 0)
(0.00232233 -0.312289 0)
(0.00131576 -0.308784 0)
(0.000103353 -0.311226 0)
(0.0198101 -0.33968 0)
(0.014385 -0.364104 0)
(0.012142 -0.348915 0)
(0.00848781 -0.363982 0)
(0.00706133 -0.355103 0)
(0.00456294 -0.364373 0)
(0.00361513 -0.358572 0)
(0.00192696 -0.363565 0)
(0.00122074 -0.359149 0)
(5.93481e-05 -0.362389 0)
(0.0176487 -0.403991 0)
(0.0125196 -0.426844 0)
(0.0103906 -0.412503 0)
(0.00701618 -0.427318 0)
(0.0058476 -0.418253 0)
(0.0036054 -0.427839 0)
(0.00292615 -0.421565 0)
(0.00139181 -0.427115 0)
(0.000941111 -0.422265 0)
(-5.19536e-05 -0.426199 0)
(0.014635 -0.473638 0)
(0.0101773 -0.49225 0)
(0.00838507 -0.481721 0)
(0.00548562 -0.494405 0)
(0.00452482 -0.487168 0)
(0.0025687 -0.4957 0)
(0.00201326 -0.490244 0)
(0.000668652 -0.495431 0)
(0.00045557 -0.491033 0)
(-0.000185846 -0.495031 0)
(0.0110047 -0.536689 0)
(0.00760265 -0.549736 0)
(0.00610961 -0.544456 0)
(0.00384882 -0.55339 0)
(0.00306471 -0.549193 0)
(0.00149555 -0.555236 0)
(0.00103708 -0.551587 0)
(-2.49508e-05 -0.55527 0)
(-8.87596e-06 -0.552114 0)
(-0.000261035 -0.555154 0)
(0.00669784 -0.582202 0)
(0.00448752 -0.589741 0)
(0.00358989 -0.589159 0)
(0.00218975 -0.594297 0)
(0.00171336 -0.593147 0)
(0.000685455 -0.596312 0)
(0.000381696 -0.594643 0)
(-0.00030788 -0.596353 0)
(-0.000189498 -0.594661 0)
(-0.000220683 -0.596185 0)
(0.00212187 -0.604861 0)
(0.00131429 -0.610151 0)
(0.00113236 -0.61212 0)
(0.000678231 -0.615085 0)
(0.000561295 -0.615495 0)
(0.000195507 -0.616988 0)
(9.55955e-05 -0.616405 0)
(-0.000149667 -0.616981 0)
(-9.10026e-05 -0.616142 0)
(-8.24738e-05 -0.616751 0)
(0.0331083 -0.176701 9.29616e-21)
(0.02724 -0.21547 -9.12072e-21)
(0.0267678 -0.256016 1.1523e-21)
(0.0241817 -0.302154 0)
(0.022328 -0.356254 0)
(0.0199851 -0.418698 1.2611e-21)
(0.0167574 -0.483959 -5.32708e-21)
(0.0126384 -0.541294 5.267e-21)
(0.00792983 -0.582148 1.41513e-21)
(0.00271511 -0.602138 -1.39383e-21)
(0.0325323 -0.18292 -1.10085e-20)
(0.0278973 -0.221122 0)
(0.0276938 -0.261462 7.66116e-21)
(0.0251889 -0.307637 -1.75222e-20)
(0.0234532 -0.361526 1.11089e-20)
(0.0210181 -0.423137 -1.15085e-21)
(0.0176971 -0.486774 2.51774e-21)
(0.0133828 -0.542306 5.25419e-21)
(0.00848191 -0.581561 1.45819e-21)
(0.00296315 -0.601051 1.42285e-21)
(0.0324041 -0.189354 1.28819e-20)
(0.0290768 -0.227342 -8.6093e-21)
(0.0289718 -0.267136 8.52773e-21)
(0.0265017 -0.312885 -9.16435e-21)
(0.0248072 -0.366254 6.79881e-21)
(0.0222158 -0.426832 0)
(0.0187192 -0.488807 -2.52396e-21)
(0.0141603 -0.542686 1.2295e-22)
(0.00897904 -0.580535 -2.73983e-21)
(0.00313572 -0.599737 -2.79659e-21)
(0.0327517 -0.194832 -2.07899e-21)
(0.0306473 -0.232947 0)
(0.0305762 -0.272444 0)
(0.0281305 -0.317839 0)
(0.0264075 -0.370713 7.41705e-21)
(0.0236098 -0.430254 -4.94784e-21)
(0.0198715 -0.490617 -2.18914e-23)
(0.0150096 -0.542831 -2.92813e-21)
(0.00946896 -0.579348 -1.49574e-21)
(0.0032678 -0.598043 -1.58979e-21)
(0.0336952 -0.19962 3.42832e-23)
(0.0325668 -0.237624 -6.23991e-21)
(0.0324529 -0.2769 -4.54346e-21)
(0.0300259 -0.322091 4.54067e-21)
(0.0282208 -0.374586 -2.4361e-21)
(0.0251888 -0.433211 0)
(0.021176 -0.492128 -2.76905e-21)
(0.0159695 -0.542768 5.98489e-21)
(0.0100192 -0.578041 -3.05613e-21)
(0.00341158 -0.596063 3.122e-21)
(0.0353001 -0.203922 -1.67372e-20)
(0.034875 -0.24152 1.92135e-21)
(0.034617 -0.280446 -2.33012e-22)
(0.0321712 -0.325441 4.65231e-21)
(0.0302273 -0.377601 0)
(0.0269375 -0.435424 0)
(0.0226312 -0.493093 0)
(0.0170528 -0.542361 3.19607e-21)
(0.0106629 -0.576545 0)
(0.00359528 -0.593907 0)
(0.0375752 -0.207609 0)
(0.0376013 -0.244675 6.67238e-21)
(0.037113 -0.283136 -4.49241e-21)
(0.0345873 -0.327877 -5.10039e-21)
(0.0324396 -0.379685 5.12697e-21)
(0.0288613 -0.436776 2.95476e-21)
(0.0242351 -0.493373 -2.94229e-21)
(0.0182571 -0.541497 -1.14087e-20)
(0.0114004 -0.574788 8.1328e-22)
(0.00382276 -0.591614 -2.74587e-21)
(0.0405221 -0.210486 0)
(0.0407485 -0.246984 -2.18497e-21)
(0.0399716 -0.284943 -1.20071e-21)
(0.037298 -0.329406 0)
(0.0348835 -0.380849 1.44811e-21)
(0.0309805 -0.437269 -4.38577e-21)
(0.0259972 -0.492949 4.79029e-21)
(0.0195825 -0.540142 1.69153e-21)
(0.0122235 -0.572734 -1.8408e-21)
(0.00408912 -0.589169 3.64634e-21)
(0.04415 -0.212421 2.06757e-21)
(0.0443147 -0.248349 2.33332e-21)
(0.0432078 -0.285791 -5.39208e-22)
(0.0403158 -0.33 6.68594e-22)
(0.0375803 -0.381096 1.399e-21)
(0.0333159 -0.436935 2.30467e-21)
(0.027931 -0.491858 -8.53493e-22)
(0.0210331 -0.538316 -9.13883e-22)
(0.0131262 -0.570382 1.84688e-21)
(0.00438985 -0.586547 9.95558e-22)
(0.0484681 -0.21331 -5.54261e-22)
(0.0483026 -0.248724 5.59027e-22)
(0.0468325 -0.285612 -6.16138e-22)
(0.0436453 -0.329621 -6.67758e-22)
(0.0405439 -0.380406 7.69111e-22)
(0.0358825 -0.435779 -1.56506e-21)
(0.0300522 -0.490114 1.30329e-21)
(0.0226213 -0.536031 4.61446e-22)
(0.0141134 -0.567732 0)
(0.00472605 -0.583729 -9.97769e-22)
(0.0534804 -0.21307 5.67134e-22)
(0.0527138 -0.248113 -5.72247e-22)
(0.0508579 -0.284372 -6.57412e-22)
(0.0472897 -0.328256 -7.1676e-22)
(0.0437853 -0.378766 -7.99881e-22)
(0.0386886 -0.433813 -4.75193e-23)
(0.032368 -0.487744 4.58809e-22)
(0.0243505 -0.533313 1.46698e-21)
(0.0151855 -0.564799 0)
(0.00509759 -0.580712 -1.08364e-21)
(0.0591852 -0.211668 0)
(0.0575443 -0.24653 -2.54659e-21)
(0.0552951 -0.28208 4.58731e-21)
(0.051248 -0.325913 7.18e-22)
(0.0473145 -0.376171 1.6296e-21)
(0.0417436 -0.431018 2.63296e-21)
(0.0348942 -0.484716 -9.26979e-22)
(0.0262391 -0.530133 -9.93431e-22)
(0.0163565 -0.561564 2.1811e-21)
(0.00550979 -0.577484 1.0811e-21)
(0.0655761 -0.209167 0)
(0.062786 -0.243981 -2.54015e-21)
(0.0601499 -0.278791 -1.36701e-21)
(0.0555258 -0.322608 0)
(0.0511412 -0.372672 -5.09674e-21)
(0.0450485 -0.427445 1.70914e-21)
(0.037625 -0.481097 1.98423e-21)
(0.0282745 -0.526545 6.34833e-21)
(0.0176147 -0.558044 -2.17403e-21)
(0.00595637 -0.574045 4.67081e-21)
(0.0726443 -0.205689 0)
(0.0684337 -0.240448 2.5619e-21)
(0.0654127 -0.274655 0)
(0.0601193 -0.318368 6.58841e-21)
(0.0552715 -0.368267 -6.62217e-21)
(0.0486212 -0.423035 -3.92022e-21)
(0.040588 -0.476796 -7.06432e-23)
(0.0304961 -0.522453 -6.51896e-21)
(0.0189904 -0.554174 -1.08708e-21)
(0.00644812 -0.57035 -5.80956e-21)
(0.0803723 -0.201444 1.9383e-20)
(0.0744698 -0.235914 -7.36358e-21)
(0.0710742 -0.269698 5.74363e-22)
(0.0650692 -0.313187 -6.27038e-21)
(0.0597088 -0.363007 0)
(0.0524511 -0.417911 -4.07739e-21)
(0.0437548 -0.471969 -2.98527e-22)
(0.0328641 -0.518005 8.84743e-21)
(0.0204486 -0.550056 1.20332e-21)
(0.00696556 -0.566457 -1.20785e-21)
(0.0887273 -0.196568 -1.31448e-21)
(0.0809397 -0.230313 1.34264e-20)
(0.0771028 -0.26386 6.50806e-21)
(0.0703722 -0.307087 -6.50365e-21)
(0.06446 -0.356849 -3.79443e-21)
(0.0565767 -0.411908 0)
(0.0471904 -0.466366 -9.03769e-21)
(0.0354598 -0.512975 4.53097e-21)
(0.0220598 -0.545555 4.8048e-21)
(0.00754287 -0.562277 5.13115e-21)
(0.0975962 -0.191104 -2.6515e-21)
(0.0878661 -0.223851 0)
(0.0834333 -0.257417 0)
(0.0759933 -0.300411 0)
(0.0694781 -0.35024 -4.29859e-21)
(0.0609205 -0.405605 8.07919e-21)
(0.0507718 -0.460606 9.19553e-21)
(0.0381343 -0.507841 -1.44066e-20)
(0.0237006 -0.540931 2.56187e-21)
(0.00811436 -0.55796 -7.62059e-21)
(0.106828 -0.185022 -4.46014e-21)
(0.095246 -0.216483 1.27858e-20)
(0.0900724 -0.250094 -1.2664e-20)
(0.0819944 -0.292636 1.54412e-20)
(0.0748792 -0.342356 -1.93761e-20)
(0.0656783 -0.397917 0)
(0.0547709 -0.453567 -4.79695e-21)
(0.0411876 -0.501755 -1.84651e-22)
(0.025611 -0.535718 -5.31182e-21)
(0.00879909 -0.55321 -5.40226e-21)
(0.116156 -0.179277 -2.82334e-21)
(0.102883 -0.209353 0)
(0.0967653 -0.243333 -1.64299e-20)
(0.0880685 -0.285676 3.05227e-20)
(0.0802898 -0.335595 -1.17207e-20)
(0.0703698 -0.391532 -2.291e-21)
(0.0586144 -0.447723 4.78669e-21)
(0.0440421 -0.496431 -2.23256e-22)
(0.0273519 -0.530789 7.76341e-21)
(0.00937061 -0.548527 7.99427e-21)
(0.126011 -0.171033 -1.23793e-20)
(0.112018 -0.198856 1.2112e-20)
(0.104574 -0.232933 1.76187e-21)
(0.0952372 -0.274712 0)
(0.0867545 -0.324535 0)
(0.076157 -0.380953 2.22857e-21)
(0.0635474 -0.438426 1.00209e-20)
(0.047865 -0.488839 -9.78869e-21)
(0.0297806 -0.524638 -2.65539e-21)
(0.0102572 -0.542988 2.61004e-21)
(0.137235 -0.172109 0)
(0.131629 -0.195176 0)
(0.120149 -0.230589 0)
(0.109251 -0.271626 0)
(0.0991793 -0.320512 0)
(0.0867254 -0.375186 0)
(0.0720353 -0.430483 0)
(0.0540584 -0.478775 0)
(0.0334793 -0.513259 0)
(0.0111998 -0.531404 0)
(0.160534 -0.15641 0)
(0.165637 -0.184284 0)
(0.14739 -0.222776 0)
(0.136336 -0.263151 0)
(0.123447 -0.311237 0)
(0.107751 -0.363436 0)
(0.0893032 -0.415046 0)
(0.0669905 -0.459154 0)
(0.0417054 -0.489691 0)
(0.0146251 -0.504538 0)
(0.192089 -0.140833 0)
(0.202089 -0.169975 0)
(0.176708 -0.207956 0)
(0.166998 -0.246709 0)
(0.149891 -0.293407 0)
(0.130379 -0.342276 0)
(0.107346 -0.390163 0)
(0.0799842 -0.431214 0)
(0.0492532 -0.46055 0)
(0.0161478 -0.476635 0)
(0.232075 -0.130002 0)
(0.243677 -0.15802 0)
(0.211882 -0.194665 0)
(0.204429 -0.232224 0)
(0.181257 -0.277198 0)
(0.157831 -0.321723 0)
(0.129319 -0.365217 0)
(0.0960888 -0.401429 0)
(0.0594913 -0.425981 0)
(0.0210465 -0.437038 0)
(0.279605 -0.11595 0)
(0.289401 -0.141553 0)
(0.252303 -0.1756 0)
(0.245486 -0.210185 0)
(0.213131 -0.250381 0)
(0.185394 -0.288655 0)
(0.149647 -0.327392 0)
(0.110019 -0.359778 0)
(0.0668481 -0.38383 0)
(0.0209901 -0.398775 0)
(0.336506 -0.106647 0)
(0.342076 -0.129218 0)
(0.301068 -0.160621 0)
(0.291987 -0.190695 0)
(0.249466 -0.225628 0)
(0.218972 -0.258604 0)
(0.174867 -0.293019 0)
(0.128447 -0.319773 0)
(0.0788286 -0.33832 0)
(0.0291525 -0.344266 0)
(0.396166 -0.0869556 0)
(0.393172 -0.104836 0)
(0.349281 -0.13101 0)
(0.333596 -0.154123 0)
(0.281554 -0.182584 0)
(0.247576 -0.208877 0)
(0.190711 -0.236351 0)
(0.137944 -0.257868 0)
(0.0805621 -0.278766 0)
(0.0211927 -0.298313 0)
(0.459287 -0.073766 0)
(0.446977 -0.0867463 0)
(0.404028 -0.107972 0)
(0.379198 -0.124863 0)
(0.323685 -0.148358 0)
(0.283616 -0.168273 0)
(0.217215 -0.190952 0)
(0.160857 -0.210279 0)
(0.0966043 -0.22956 0)
(0.0438791 -0.228584 0)
(0.505106 -0.039807 0)
(0.485205 -0.0461428 0)
(0.434234 -0.0589241 0)
(0.399562 -0.0672655 0)
(0.335116 -0.0814134 0)
(0.284372 -0.0907621 0)
(0.204746 -0.104148 0)
(0.138986 -0.115218 0)
(0.0601249 -0.137194 0)
(-0.0210707 -0.185417 0)
(0.716076 -0.0201045 0)
(0.691351 -0.0235694 0)
(0.646754 -0.028829 0)
(0.607465 -0.0334951 0)
(0.548291 -0.040567 0)
(0.492288 -0.0473182 0)
(0.414209 -0.0579809 0)
(0.334128 -0.0720846 0)
(0.227117 -0.100626 0)
(0.1586 -0.156964 0)
(0.164367 -0.151702 1.3034e-20)
(0.190314 -0.134741 -1.28406e-20)
(0.223177 -0.119928 1.96928e-21)
(0.262698 -0.109917 0)
(0.309715 -0.0975585 0)
(0.364123 -0.0893525 2.7799e-21)
(0.421783 -0.072225 -1.29966e-20)
(0.480888 -0.0617976 1.28539e-20)
(0.531968 -0.0324673 3.63674e-21)
(0.737348 -0.0172631 -3.66337e-21)
(0.172793 -0.14308 -1.29341e-20)
(0.197794 -0.125661 0)
(0.230566 -0.111571 1.37207e-20)
(0.270118 -0.101966 -3.27369e-20)
(0.317247 -0.0902876 2.17453e-20)
(0.371463 -0.0825231 -2.56153e-21)
(0.429004 -0.0663583 5.55215e-21)
(0.487593 -0.0570304 1.23064e-20)
(0.54153 -0.0295462 3.37515e-21)
(0.745362 -0.0160542 3.30156e-21)
(0.180001 -0.133442 1.50528e-20)
(0.204026 -0.116133 -1.34954e-20)
(0.236039 -0.103071 1.33678e-20)
(0.275294 -0.0939695 -1.72646e-20)
(0.32231 -0.0830626 1.25818e-20)
(0.376466 -0.0758544 0)
(0.434059 -0.0607526 -5.56572e-21)
(0.492751 -0.0526286 -7.48757e-23)
(0.549604 -0.0269425 -6.37519e-21)
(0.752556 -0.0149105 -6.61911e-21)
(0.18733 -0.123171 -2.55648e-21)
(0.211243 -0.106356 0)
(0.242365 -0.0944131 0)
(0.281307 -0.0858898 0)
(0.328065 -0.0758395 1.40013e-20)
(0.381976 -0.0693032 -9.49366e-21)
(0.439452 -0.0553645 -3.01323e-22)
(0.498072 -0.0484973 -6.2688e-21)
(0.557205 -0.0246079 -3.20563e-21)
(0.759373 -0.0138526 -3.2566e-21)
(0.194129 -0.112557 1.81942e-21)
(0.218223 -0.0965035 -7.97981e-21)
(0.248575 -0.0856871 -7.38726e-21)
(0.287417 -0.0778474 7.3827e-21)
(0.334054 -0.0686747 -4.44488e-21)
(0.387809 -0.0628859 0)
(0.445156 -0.0501514 -5.48335e-21)
(0.503612 -0.0445277 1.20856e-20)
(0.564563 -0.0224455 -6.08721e-21)
(0.76587 -0.012867 6.52479e-21)
(0.200149 -0.101629 -1.95252e-20)
(0.224161 -0.0866298 1.47926e-21)
(0.25399 -0.0769557 -9.23528e-22)
(0.292708 -0.0698974 7.27243e-21)
(0.339302 -0.0616395 0)
(0.393088 -0.0566532 0)
(0.45042 -0.0451225 0)
(0.508846 -0.0406934 5.83321e-21)
(0.571449 -0.0204033 0)
(0.771924 -0.0119368 0)
(0.20536 -0.0903908 0)
(0.22907 -0.0767261 9.07807e-21)
(0.258445 -0.0682213 -6.23649e-21)
(0.296993 -0.0620207 -8.11327e-21)
(0.343488 -0.0547393 8.1555e-21)
(0.397399 -0.0506189 5.0587e-21)
(0.454773 -0.0402863 -4.82543e-21)
(0.513393 -0.0370042 -2.01773e-20)
(0.577598 -0.0184713 1.43242e-21)
(0.777419 -0.0110585 -4.7445e-21)
(0.209669 -0.0788717 0)
(0.233011 -0.066771 -2.85004e-21)
(0.261944 -0.0594734 -1.64547e-21)
(0.300308 -0.0541907 0)
(0.346675 -0.0479402 2.38343e-21)
(0.40071 -0.0447462 -6.9312e-21)
(0.458112 -0.0356252 8.0363e-21)
(0.517155 -0.0334623 3.02711e-21)
(0.58284 -0.0166412 -3.01196e-21)