# Probe 0 (1 0 0.5)
# Probe 1 (2 0 0.5)
# Probe 2 (3 0 0.5)
# Probe 3 (1 0.5 0.5)
# Probe 4 (2 0.5 0.5)
# Probe 5 (3 0.5 0.5)
# Probe 6 (1 -0.5 0.5)
# Probe 7 (2 -0.5 0.5)
# Probe 8 (3 -0.5 0.5)
# Probe 9 (1 -1.5 0.5)
# Probe 10 (2 -1.5 0.5)
# Probe 11 (3 -1.5 0.5)
# Probe 12 (1 1.5 0.5)
# Probe 13 (2 1.5 0.5)
# Probe 14 (3 1.5 0.5)
#       Probe             0             1             2             3             4             5             6             7             8             9            10            11            12            13            14
#        Time
         0.03             (0.541089 -0.367618 -4.16627e-19)             (0.721002 -0.416175 0.583049)             (0.780333 -0.368776 0.471919)             (0.737789 -0.495398 0)             (0.760307 -0.480163 0.512108)             (0.808098 -0.41871 0.41681)             (0.5444 -0.176901 0)             (0.704688 -0.323735 0.581152)             (0.77553 -0.300941 0.46736)             (0.562114 -0.176681 -1.21807e-17)             (0.626318 -0.265335 0.91556)             (0.727867 -0.258291 0.749056)             (0.636148 -0.393856 4.58357e-18)             (0.784085 -0.446855 0.626379)             (0.82612 -0.401873 0.515394)
         0.06             (0.441226 -0.425888 7.30126e-20)             (0.665946 -0.2989 -0.134498)             (0.760872 -0.264903 -0.122681)             (0.604412 -0.51685 0)             (0.699722 -0.359442 -0.126382)             (0.788906 -0.294503 -0.114543)             (0.447605 -0.222476 0)             (0.670285 -0.240275 -0.130038)             (0.747447 -0.228203 -0.117331)             (0.532492 -0.174239 2.34885e-18)             (0.701682 -0.1979 -0.17845)             (0.721801 -0.188463 -0.190414)             (0.594746 -0.426504 -9.43996e-19)             (0.787062 -0.362553 -0.170529)             (0.850713 -0.30573 -0.148057)
         0.09             (0.465985 -0.504915 -9.17259e-20)             (0.683007 -0.432984 0.160578)             (0.747318 -0.388664 0.148545)             (0.663044 -0.59861 0)             (0.721299 -0.479025 0.145484)             (0.77369 -0.415197 0.133422)             (0.464867 -0.289014 0)             (0.675812 -0.368793 0.163077)             (0.732734 -0.354193 0.149938)             (0.614858 -0.227974 -2.80863e-18)             (0.703326 -0.296337 0.275564)             (0.700854 -0.301628 0.256685)             (0.700607 -0.50315 1.04594e-18)             (0.801201 -0.487606 0.194327)             (0.826704 -0.430416 0.171406)
         0.12             (0.454892 -0.448671 8.16103e-20)             (0.667869 -0.306084 -0.140902)             (0.749303 -0.266539 -0.133631)             (0.630408 -0.530293 0)             (0.704625 -0.348372 -0.127027)             (0.774584 -0.288924 -0.120919)             (0.465889 -0.235396 0)             (0.662206 -0.252786 -0.144904)             (0.73753 -0.238292 -0.133886)             (0.540631 -0.180989 2.4854e-18)             (0.679611 -0.190808 -0.251006)             (0.731198 -0.190663 -0.222243)             (0.688332 -0.43707 -8.85709e-19)             (0.779263 -0.375386 -0.167317)             (0.830675 -0.318294 -0.159503)
         0.15             (0.44798 -0.474544 -4.3342e-20)             (0.647095 -0.376235 0.0697818)             (0.697261 -0.323648 0.0432557)             (0.644024 -0.559934 0)             (0.688594 -0.414122 0.0619838)             (0.725074 -0.348749 0.0361973)             (0.452076 -0.256355 0)             (0.630799 -0.314285 0.0700552)             (0.68027 -0.286714 0.0391895)             (0.581499 -0.202446 -1.40158e-18)             (0.634283 -0.248533 0.115151)             (0.648144 -0.244132 0.0533293)             (0.730328 -0.462676 4.82713e-19)             (0.764999 -0.431266 0.080788)             (0.777229 -0.366478 0.0390366)
         0.18             (0.437583 -0.454618 3.94863e-20)             (0.633653 -0.317362 -0.069381)             (0.686211 -0.269398 -0.0693469)             (0.625649 -0.531409 0)             (0.673992 -0.351623 -0.0625802)             (0.71166 -0.287738 -0.0639566)             (0.448675 -0.237523 0)             (0.620033 -0.265846 -0.0709305)             (0.669239 -0.241869 -0.0694077)             (0.548921 -0.186294 1.21395e-18)             (0.634624 -0.207714 -0.117349)             (0.651842 -0.202399 -0.113395)             (0.714009 -0.431789 -4.27069e-19)             (0.754874 -0.375274 -0.0811014)             (0.772714 -0.308412 -0.0825694)
         0.21             (0.42528 -0.445214 4.26451e-21)             (0.608704 -0.320781 -0.0128502)             (0.643434 -0.266364 -0.0325581)             (0.618833 -0.521277 0)             (0.650992 -0.351735 -0.0126964)             (0.670707 -0.283035 -0.0319863)             (0.43404 -0.228634 0)             (0.589445 -0.267402 -0.0146352)             (0.623688 -0.237336 -0.0361833)             (0.543366 -0.182538 6.43653e-20)             (0.593193 -0.214741 -0.0271179)             (0.592996 -0.206233 -0.0689306)             (0.720784 -0.419755 -4.39392e-20)             (0.733229 -0.367718 -0.0171031)             (0.73171 -0.2936 -0.0473581)
         0.24             (0.40857 -0.424549 2.90641e-20)             (0.581829 -0.286232 -0.0557116)             (0.60542 -0.230537 -0.0700136)             (0.59937 -0.494733 0)             (0.624176 -0.313742 -0.0513327)             (0.632318 -0.24311 -0.0661289)             (0.419756 -0.211187 0)             (0.561013 -0.238243 -0.0579544)             (0.583178 -0.205123 -0.0728405)             (0.52093 -0.170847 8.56126e-19)             (0.565176 -0.195529 -0.097424)             (0.549203 -0.181851 -0.128711)             (0.70744 -0.390306 -3.20362e-19)             (0.710667 -0.326508 -0.0674769)             (0.695333 -0.247567 -0.0935408)
         0.27             (0.39291 -0.405973 1.83155e-20)             (0.554813 -0.269158 -0.037059)             (0.565788 -0.210243 -0.0533278)             (0.584796 -0.472962 0)             (0.598052 -0.292709 -0.0342226)             (0.592241 -0.220868 -0.0509008)             (0.403688 -0.195881 0)             (0.530386 -0.223485 -0.0394927)             (0.54164 -0.18553 -0.0565537)             (0.507144 -0.161295 5.16342e-19)             (0.526465 -0.185921 -0.0699506)             (0.502005 -0.166099 -0.103163)             (0.703663 -0.367119 -1.93361e-19)             (0.687445 -0.300782 -0.0445544)             (0.651443 -0.218735 -0.0773112)
          0.3             (0.375157 -0.379146 2.86333e-20)             (0.526711 -0.236643 -0.0555868)             (0.530587 -0.176687 -0.0694354)             (0.564893 -0.441717 0)             (0.570142 -0.256944 -0.0513579)             (0.556434 -0.184887 -0.0654584)             (0.386809 -0.1739 0)             (0.500227 -0.195174 -0.0580947)             (0.505711 -0.154402 -0.0717492)             (0.484873 -0.146523 8.38132e-19)             (0.490332 -0.164688 -0.100468)             (0.466259 -0.13975 -0.124312)             (0.690675 -0.334742 -3.18565e-19)             (0.66154 -0.260934 -0.0684214)             (0.613582 -0.177627 -0.0960398)
         0.33             (0.36084 -0.363458 1.55042e-20)             (0.505032 -0.223674 -0.0313339)             (0.50409 -0.163616 -0.0418855)             (0.552255 -0.423196 0)             (0.548583 -0.24095 -0.0291118)             (0.528774 -0.170284 -0.0400678)             (0.372188 -0.161215 0)             (0.476776 -0.185003 -0.033022)             (0.47976 -0.143276 -0.0431348)             (0.476373 -0.13866 4.41597e-19)             (0.461894 -0.155822 -0.0583784)             (0.443383 -0.129252 -0.0729467)             (0.685155 -0.314905 -1.68463e-19)             (0.640221 -0.241616 -0.0395039)             (0.583403 -0.159869 -0.0619552)
         0.36             (0.345348 -0.337064 2.88661e-20)             (0.483002 -0.191801 -0.0544835)             (0.481344 -0.132617 -0.0631336)             (0.534233 -0.392971 0)             (0.525966 -0.20665 -0.0503194)             (0.505789 -0.137054 -0.0590535)             (0.35769 -0.138989 0)             (0.454311 -0.157124 -0.0563752)             (0.457451 -0.115235 -0.0643587)             (0.455456 -0.123054 8.41108e-19)             (0.435607 -0.132755 -0.0965228)             (0.423347 -0.104769 -0.108252)             (0.670132 -0.284361 -3.2281e-19)             (0.616559 -0.204859 -0.0685275)             (0.560977 -0.124366 -0.0840064)
         0.39             (0.33311 -0.325245 1.11661e-20)             (0.467273 -0.1854 -0.0226399)             (0.464143 -0.126878 -0.0295262)             (0.524519 -0.379568 0)             (0.510016 -0.198424 -0.0212275)             (0.487999 -0.130136 -0.0282629)             (0.345413 -0.128753 0)             (0.438089 -0.152371 -0.023576)             (0.440947 -0.111151 -0.030105)             (0.451472 -0.116762 3.12874e-19)             (0.417918 -0.127345 -0.0408826)             (0.409022 -0.100564 -0.0496275)             (0.665385 -0.269751 -1.25577e-19)             (0.599588 -0.194094 -0.0301706)             (0.543388 -0.11561 -0.0427608)
         0.42             (0.320097 -0.301121 2.7936e-20)             (0.450445 -0.155035 -0.0516747)             (0.448576 -0.0977209 -0.0573536)             (0.508559 -0.352187 0)             (0.492357 -0.166493 -0.0476383)             (0.47271 -0.0987774 -0.0532035)             (0.333794 -0.107783 0)             (0.421707 -0.12551 -0.0531466)             (0.425475 -0.0846503 -0.0583858)             (0.43164 -0.10157 8.15707e-19)             (0.400204 -0.104983 -0.0898829)             (0.394417 -0.0775702 -0.0983403)             (0.649853 -0.242125 -3.14344e-19)             (0.58054 -0.160624 -0.0651644)             (0.530171 -0.0827282 -0.073404)
         0.45             (0.309985 -0.292677 7.4431e-21)             (0.438912 -0.153497 -0.0152887)             (0.435657 -0.0964794 -0.0205374)             (0.5017 -0.343151 0)             (0.480791 -0.163898 -0.0144983)             (0.459632 -0.0965545 -0.0197416)             (0.323549 -0.0997851 0)             (0.409975 -0.124746 -0.0157836)             (0.412674 -0.0844462 -0.0210289)             (0.430633 -0.0968244 2.01767e-19)             (0.388823 -0.103142 -0.0267509)             (0.382212 -0.0772033 -0.0348141)             (0.646626 -0.23186 -8.73885e-20)             (0.568676 -0.155874 -0.0211619)             (0.51802 -0.0786206 -0.0297019)
         0.48             (0.298881 -0.270747 2.67335e-20)             (0.425553 -0.124487 -0.048746)             (0.423793 -0.0684845 -0.0529039)             (0.487572 -0.318518 0)             (0.466741 -0.133744 -0.0448354)             (0.448201 -0.0664363 -0.0488325)             (0.314193 -0.0802171 0)             (0.397267 -0.0987535 -0.0500201)             (0.400566 -0.0587989 -0.0538573)             (0.411591 -0.0823847 7.8252e-19)             (0.375784 -0.0818489 -0.0841029)             (0.370487 -0.0550853 -0.0910674)             (0.631594 -0.206883 -3.01706e-19)             (0.553873 -0.124778 -0.0610169)             (0.508802 -0.0471214 -0.0663684)
         0.51             (0.290367 -0.264877 4.57753e-21)             (0.416681 -0.126414 -0.00974567)             (0.412966 -0.0701389 -0.0142368)             (0.482967 -0.312746 0)             (0.458102 -0.134894 -0.00939856)             (0.437325 -0.0673732 -0.0138671)             (0.305456 -0.073996 0)             (0.38813 -0.100779 -0.00999358)             (0.389619 -0.0610906 -0.0146467)             (0.41273 -0.0789731 1.16447e-19)             (0.367423 -0.0826219 -0.0165965)             (0.359489 -0.057109 -0.024295)             (0.629823 -0.199854 -5.73067e-20)             (0.545846 -0.123948 -0.0140192)             (0.498687 -0.0460143 -0.0213363)
         0.54             (0.280627 -0.244855 2.54336e-20)             (0.405607 -0.0988039 -0.0459586)             (0.403363 -0.0431865 -0.0491867)             (0.47039 -0.290446 0)             (0.446496 -0.106252 -0.0421802)             (0.428135 -0.0385473 -0.0452751)             (0.297727 -0.0557263 0)             (0.377739 -0.0757791 -0.0471168)             (0.379721 -0.0362957 -0.0501007)             (0.394496 -0.0654262 7.46294e-19)             (0.356893 -0.062361 -0.0790849)             (0.349868 -0.0358151 -0.0848331)             (0.615618 -0.177107 -2.87567e-19)             (0.53407 -0.0946775 -0.05704)             (0.491498 -0.0159057 -0.0611369)
         0.57             (0.273268 -0.240991 2.32891e-21)             (0.398469 -0.103182 -0.00548679)             (0.393826 -0.0469862 -0.00953345)             (0.467479 -0.287183 0)             (0.439782 -0.110042 -0.00548108)             (0.418591 -0.0418142 -0.00951905)             (0.290147 -0.0509873 0)             (0.370223 -0.0798668 -0.00558552)             (0.369987 -0.0405104 -0.00985622)             (0.397288 -0.0632275 4.96223e-20)             (0.350112 -0.065087 -0.00900845)             (0.339788 -0.0395898 -0.0162965)             (0.615065 -0.172546 -3.33176e-20)             (0.528555 -0.0965607 -0.00851334)             (0.482457 -0.0171576 -0.0153262)
          0.6             (0.264509 -0.222517 2.4238e-20)             (0.388996 -0.0767149 -0.0435077)             (0.385858 -0.0212066 -0.0460707)             (0.456137 -0.266836 0)             (0.429863 -0.0826594 -0.0398639)             (0.410935 -0.0142835 -0.0423436)             (0.283663 -0.0338868 0)             (0.361409 -0.0558229 -0.0445797)             (0.361806 -0.0167084 -0.0469036)             (0.379812 -0.0505323 7.12564e-19)             (0.341247 -0.0457054 -0.0747908)             (0.331994 -0.0191396 -0.0793771)             (0.601712 -0.151651 -2.74227e-19)             (0.518749 -0.0687935 -0.0536584)             (0.476566 0.0114898 -0.0570072)
         0.63             (0.25796 -0.219988 6.89643e-22)             (0.383042 -0.0827419 -0.00240552)             (0.377275 -0.0264281 -0.00613286)             (0.454453 -0.265348 0)             (0.424446 -0.0881764 -0.0026434)             (0.402392 -0.0190996 -0.00636144)             (0.276988 -0.0301896 0)             (0.354998 -0.0612885 -0.00239682)             (0.352998 -0.0222022 -0.0063871)             (0.383818 -0.0491857 1.19941e-21)             (0.33541 -0.0496519 -0.00359384)             (0.322608 -0.023962 -0.0105004)             (0.602163 -0.148843 -1.56059e-20)             (0.51479 -0.072479 -0.00455096)             (0.46825 0.00849433 -0.0110341)
         0.66             (0.249959 -0.202927 2.29739e-20)             (0.374797 -0.0575444 -0.0410265)             (0.370592 -0.00202045 -0.0430657)             (0.444202 -0.246804 0)             (0.415816 -0.0621881 -0.0375458)             (0.395924 0.00695099 -0.0395441)             (0.271497 -0.0142429 0)             (0.347425 -0.0384059 -0.0420171)             (0.346179 0.000365059 -0.0437979)             (0.367233 -0.0373993 6.75994e-19)             (0.32782 -0.0312772 -0.0704709)             (0.316322 -0.00456235 -0.0740797)             (0.589664 -0.129657 -2.59904e-19)             (0.506356 -0.0462663 -0.0503921)             (0.463381 0.0355076 -0.0531409)
         0.69             (0.243988 -0.20144 -5.34305e-22)             (0.369705 -0.0646817 -0.000111657)             (0.362922 -0.00835317 -0.00350518)             (0.443444 -0.246731 0)             (0.411318 -0.0689415 -0.000533913)             (0.388345 0.000724976 -0.00390224)             (0.265534 -0.0114596 0)             (0.341825 -0.0449016 -2.39439e-05)             (0.337991 -0.0060655 -0.00381733)             (0.372091 -0.0368292 -3.5327e-20)             (0.322685 -0.0361932 0.000461062)             (0.307569 -0.0104418 -0.00605991)             (0.590881 -0.128215 -2.23983e-21)             (0.503395 -0.0512527 -0.00164018)             (0.455707 0.0312907 -0.00776712)
         0.72             (0.236545 -0.185392 2.18899e-20)             (0.36241 -0.0406475 -0.0389346)             (0.357227 0.0149812 -0.0405739)             (0.43409 -0.229608 0)             (0.403655 -0.0441292 -0.0355945)             (0.382963 0.025518 -0.0371764)             (0.260815 0.00357403 0)             (0.335194 -0.0229467 -0.0398672)             (0.332286 0.01551 -0.041204)             (0.356287 -0.0257675 6.45076e-19)             (0.316074 -0.0185626 -0.0668832)             (0.302549 0.00821067 -0.0696508)             (0.579179 -0.11039 -2.4753e-19)             (0.495926 -0.026326 -0.0476759)             (0.45167 0.0568671 -0.049907)
         0.75             (0.231016 -0.184612 -1.54497e-21)             (0.35803 -0.048686 0.00176373)             (0.350496 0.00787283 -0.00130394)             (0.434083 -0.230646 0)             (0.399889 -0.051872 0.00118546)             (0.376039 0.0181826 -0.00194982)             (0.25548 0.00565487 0)             (0.330288 -0.030278 0.00192053)             (0.325449 0.00860594 -0.00141417)             (0.361913 -0.0257821 -6.49241e-20)             (0.311556 -0.0241623 0.00377135)             (0.294365 0.00167044 -0.00237971)             (0.581035 -0.110032 8.79362e-21)             (0.493689 -0.0323604 0.000705142)             (0.444636 0.0514847 -0.00501802)
         0.78             (0.224129 -0.169775 2.05683e-20)             (0.351674 -0.0262196 -0.0364466)             (0.345944 0.0296532 -0.0376407)             (0.425689 -0.215161 0)             (0.393162 -0.0286656 -0.033304)             (0.371619 0.041267 -0.0345081)             (0.251468 0.0195236 0)             (0.324615 -0.00974059 -0.0372902)             (0.32056 0.0288256 -0.0383088)             (0.347132 -0.0156661 6.06159e-19)             (0.306026 -0.00771315 -0.0624934)             (0.290535 0.0191802 -0.0644744)             (0.570138 -0.0937427 -2.32679e-19)             (0.487115 -0.00910259 -0.0445834)             (0.441432 0.0752042 -0.0462808)
         0.81             (0.218824 -0.169077 -1.78244e-21)             (0.347706 -0.0342717 0.00228764)             (0.339539 0.0225281 -0.000604055)             (0.426002 -0.216633 0)             (0.389843 -0.0363774 0.00168764)             (0.365133 0.0339543 -0.00126231)             (0.246576 0.0213461 0)             (0.320084 -0.0170085 0.0024591)             (0.313895 0.022017 -0.000754144)             (0.352766 -0.0158647 -7.25783e-20)             (0.301683 -0.0133905 0.0046823)             (0.28264 0.0126801 -0.00127)             (0.572305 -0.0938061 1.17795e-20)             (0.485213 -0.0152072 0.00142535)             (0.434874 0.0696991 -0.00395456)
         0.84             (0.21219 -0.154773 1.95961e-20)             (0.341816 -0.0128195 -0.0346546)             (0.335336 0.0432959 -0.0357201)             (0.418247 -0.202129 0)             (0.38361 -0.014254 -0.0316428)             (0.361058 0.0559871 -0.0327297)             (0.243009 0.0345918 0)             (0.31481 0.00270444 -0.0354636)             (0.309694 0.0413623 -0.0362517)             (0.338722 -0.00628516 5.78202e-19)             (0.296613 0.0023877 -0.0594852)             (0.279162 0.02945 -0.0612939)             (0.562186 -0.0784736 -2.21436e-19)             (0.47912 0.00691112 -0.0423144)             (0.43196 0.0921854 -0.0438426)
         0.87             (0.207249 -0.154842 -2.78151e-21)             (0.338619 -0.0218184 0.00413858)             (0.32969 0.0349117 0.00154814)             (0.419252 -0.204752 0)             (0.380942 -0.0230999 0.00336668)             (0.355353 0.0474605 0.000736113)             (0.238663 0.0354949 0)             (0.31127 -0.00585125 0.00439717)             (0.303807 0.0333525 0.00150019)             (0.345277 -0.00719499 -1.02122e-19)             (0.292972 -0.00414489 0.00801467)             (0.272447 0.0220908 0.00291465)             (0.56485 -0.0796197 2.27311e-20)             (0.477865 -0.000419195 0.00369056)             (0.426053 0.0852884 -0.00124789)
          0.9             (0.201128 -0.141741 1.82559e-20)             (0.333685 -0.00202929 -0.032138)             (0.326694 0.0539027 -0.032719)             (0.412413 -0.191914 0)             (0.375662 -0.00271707 -0.0293376)             (0.352439 0.0676807 -0.029954)             (0.235772 0.0475501 0)             (0.306881 0.0124715 -0.0328433)             (0.300938 0.0509033 -0.0331053)             (0.332315 0.00139301 5.38628e-19)             (0.289286 0.0104594 -0.0549227)             (0.27074 0.0374345 -0.0555562)             (0.555431 -0.0658381 -2.06577e-19)             (0.472653 0.0199093 -0.0392656)             (0.424165 0.105781 -0.0400971)
         0.93             (0.196225 -0.140864 -2.01266e-21)             (0.330543 -0.00986674 0.00293458)             (0.320921 0.0469251 0.00028457)             (0.413225 -0.193944 0)             (0.373029 -0.0102381 0.00228474)             (0.34679 0.0605096 -0.000357525)             (0.231865 0.0491627 0)             (0.303073 0.00570994 0.00313523)             (0.294836 0.0445071 0.000165803)             (0.337814 0.000866261 -7.99486e-20)             (0.285455 0.00484829 0.00574121)             (0.263564 0.031294 0.000337015)             (0.558006 -0.066442 1.50341e-20)             (0.471177 0.0138516 0.00225102)             (0.418425 0.100172 -0.00248393)
         0.96             (0.19008 -0.128043 1.7205e-20)             (0.325681 0.00871308 -0.0303208)             (0.317599 0.0648407 -0.0310879)             (0.406807 -0.181898 0)             (0.367894 0.00877772 -0.0276705)             (0.343571 0.0794699 -0.028488)             (0.229044 0.0606954 0)             (0.298904 0.0228551 -0.0309958)             (0.291511 0.0611542 -0.0315317)             (0.325754 0.00903747 5.07333e-19)             (0.281414 0.0186515 -0.051969)             (0.261061 0.0458326 -0.0531905)             (0.54941 -0.0534158 -1.9463e-19)             (0.46617 0.0329785 -0.0370099)             (0.416156 0.119466 -0.0381764)
         0.99             (0.185565 -0.127999 -2.98354e-21)             (0.323292 -0.0003799 0.00472494)             (0.312884 0.0566405 0.00253553)             (0.408302 -0.185135 0)             (0.366053 -4.55664e-05 0.00394605)             (0.338808 0.0710469 0.00171899)             (0.225709 0.0613497 0)             (0.295981 0.0149879 0.00500914)             (0.286609 0.0533732 0.00253605)             (0.332212 0.00775032 -1.06865e-19)             (0.27888 0.0122649 0.00905313)             (0.255403 0.0388214 0.00464818)             (0.552418 -0.0551719 2.5656e-20)             (0.465455 0.0256881 0.00448776)             (0.411176 0.112358 0.000263431)
         1.02             (0.179871 -0.115872 1.62904e-20)             (0.319305 0.0171613 -0.0285698)             (0.310817 0.0734579 -0.0288455)             (0.402597 -0.174177 0)             (0.361761 0.0179256 -0.0260542)             (0.336798 0.0889085 -0.0263797)             (0.223449 0.072116 0)             (0.292614 0.0312323 -0.0291864)             (0.284685 0.0688805 -0.0291564)             (0.320827 0.0153107 4.80646e-19)             (0.27588 0.0253617 -0.0488378)             (0.254556 0.0525202 -0.0489018)             (0.544319 -0.0432284 -1.8441e-19)             (0.461182 0.0436437 -0.0348534)             (0.410025 0.130281 -0.035221)
         1.05             (0.175209 -0.114652 -2.08269e-21)             (0.316639 0.00948568 0.003219)             (0.305807 0.0667301 0.000900066)             (0.403698 -0.176535 0)             (0.3596 0.0103932 0.00257581)             (0.331894 0.0819388 0.000257274)             (0.220212 0.0734879 0)             (0.289411 0.0247056 0.00344944)             (0.279383 0.0627005 0.000807441)             (0.32631 0.0145604 -8.24631e-20)             (0.272619 0.0199607 0.00633939)             (0.248127 0.0466133 0.00146624)             (0.547081 -0.044187 1.63401e-20)             (0.460079 0.0377223 0.00267101)             (0.404983 0.124671 -0.00152462)
         1.08             (0.169421 -0.10293 1.52002e-20)             (0.312615 0.0256506 -0.0267074)             (0.303265 0.0822642 -0.0272106)             (0.398318 -0.166439 0)             (0.35536 0.0270467 -0.0243702)             (0.329386 0.0983822 -0.0249238)             (0.218026 0.0835955 0)             (0.285952 0.0397041 -0.0272929)             (0.276886 0.0771112 -0.027556)             (0.315881 0.0215697 4.48302e-19)             (0.269555 0.0320274 -0.045676)             (0.246526 0.059249 -0.0463544)             (0.539715 -0.0330359 -1.72221e-19)             (0.455869 0.0543539 -0.0326216)             (0.403257 0.141292 -0.0334549)
         1.11             (0.165138 -0.102556 -2.96511e-21)             (0.310685 0.017039 0.00479133)             (0.299362 0.0744009 0.00295583)             (0.400019 -0.169935 0)             (0.353943 0.0185558 0.00403475)             (0.325437 0.0902774 0.00216481)             (0.215345 0.0839901 0)             (0.283644 0.0320963 0.00509425)             (0.272822 0.0696486 0.0029952)             (0.322132 0.020114 -1.05273e-19)             (0.267578 0.0259433 0.00922229)             (0.241716 0.0525666 0.00542976)             (0.542772 -0.0350791 2.57782e-20)             (0.455534 0.0472901 0.00466879)             (0.399051 0.134282 0.00104808)
         1.14             (0.159749 -0.0910569 1.46785e-20)             (0.307337 0.032733 -0.0256736)             (0.297905 0.0894409 -0.0257474)             (0.395116 -0.160379 0)             (0.350344 0.0346698 -0.0233977)             (0.324033 0.106199 -0.0235198)             (0.213633 0.0937039 0)             (0.280901 0.0466729 -0.0262192)             (0.271507 0.0835682 -0.0260117)             (0.31202 0.0268529 4.33459e-19)             (0.265166 0.0377973 -0.043889)             (0.241421 0.0649346 -0.0436263)             (0.535768 -0.0245649 -1.66223e-19)             (0.451922 0.0632779 -0.0312864)             (0.398371 0.150137 -0.031362)
         1.17             (0.155321 -0.0894431 -2.08513e-21)             (0.305064 0.0253816 0.00331009)             (0.293532 0.0829876 0.00128224)             (0.396392 -0.162839 0)             (0.348556 0.0274387 0.00267648)             (0.319752 0.0994472 0.000652156)             (0.210997 0.0948724 0)             (0.278158 0.0404063 0.00356507)             (0.26686 0.0776602 0.00122588)             (0.317401 0.025979 -8.19e-20)             (0.262366 0.0326335 0.00655704)             (0.235675 0.0593361 0.00217338)             (0.538598 -0.0257244 1.66303e-20)             (0.451096 0.057525 0.0028414)             (0.393919 0.144597 -0.000883305)
          1.2             (0.149857 -0.0785514 1.35151e-20)             (0.301694 0.0394861 -0.023686)             (0.291625 0.0965104 -0.0239699)             (0.391782 -0.154246 0)             (0.344983 0.0419407 -0.0216157)             (0.317839 0.113759 -0.0219554)             (0.209353 0.103774 0)             (0.275357 0.0535234 -0.0241768)             (0.265036 0.0901796 -0.0242332)             (0.308371 0.0320239 3.98464e-19)             (0.260055 0.043223 -0.0403921)             (0.234789 0.0703328 -0.0406345)             (0.532247 -0.0160947 -1.5343e-19)             (0.447565 0.0720402 -0.0289526)             (0.39265 0.158991 -0.0295067)
         1.23             (0.145799 -0.077774 -2.81756e-21)             (0.300146 0.0313481 0.0046171)             (0.288348 0.0890614 0.00306004)             (0.393537 -0.157721 0)             (0.343903 0.0338991 0.00389663)             (0.314524 0.10607 0.00230914)             (0.207248 0.10401 0)             (0.273486 0.0463362 0.00492524)             (0.261623 0.0831219 0.00312701)             (0.314329 0.0304786 -9.99753e-20)             (0.258525 0.0374662 0.00895406)             (0.23069 0.0640003 0.00568762)             (0.535271 -0.0182445 2.44825e-20)             (0.44746 0.0653186 0.00452453)             (0.389069 0.152237 0.00140861)
         1.26             (0.140666 -0.0666985 1.33531e-20)             (0.297264 0.0454991 -0.0233026)             (0.287293 0.102655 -0.0232624)             (0.389175 -0.149161 0)             (0.340843 0.0484209 -0.0212226)             (0.313505 0.120417 -0.0212235)             (0.20598 0.112887 0)             (0.271178 0.0595818 -0.0237907)             (0.260722 0.0957587 -0.0234951)             (0.305281 0.0365675 3.9466e-19)             (0.256527 0.0483026 -0.0398511)             (0.230739 0.0752803 -0.0393957)             (0.529182 -0.00884931 -1.5129e-19)             (0.444353 0.0796923 -0.0283769)             (0.388692 0.166419 -0.0282688)
         1.29             (0.136458 -0.0648181 -2.16125e-21)             (0.295372 0.0382936 0.00350016)             (0.283504 0.0962945 0.00173274)             (0.390516 -0.151706 0)             (0.339422 0.0413013 0.00286305)             (0.309792 0.113738 0.00110395)             (0.20387 0.113802 0)             (0.268868 0.053445 0.00377667)             (0.256691 0.0899467 0.0017181)             (0.310619 0.0355434 -8.29887e-20)             (0.254212 0.0432739 0.00693126)             (0.225683 0.0698635 0.00303849)             (0.532056 -0.0102491 1.7596e-20)             (0.443801 0.0739605 0.00312055)             (0.384774 0.160806 -0.000180162)
         1.32             (0.131357 -0.0546699 1.2059e-20)             (0.292606 0.0505964 -0.0210722)             (0.282228 0.108066 -0.0211316)             (0.386498 -0.144303 0)             (0.336505 0.0539433 -0.0192309)             (0.308478 0.126193 -0.0193546)             (0.202722 0.121633 0)             (0.266684 0.0649305 -0.0214755)             (0.255548 0.10079 -0.0213091)             (0.30281 0.0407417 3.55432e-19)             (0.252633 0.0525752 -0.0357924)             (0.225558 0.0794146 -0.0355529)             (0.526555 -0.00193354 -1.37286e-19)             (0.440894 0.0866304 -0.0257899)             (0.383985 0.173259 -0.0260386)