/*--------------------------------*- C++ -*----------------------------------*\
  =========                 |
  \\      /  F ield         | OpenFOAM: The Open Source CFD Toolbox
   \\    /   O peration     | Website:  https://openfoam.org
    \\  /    A nd           | Version:  7
     \\/     M anipulation  |
\*---------------------------------------------------------------------------*/
FoamFile
{
    version     2.0;
    format      ascii;
    class       volVectorField;
    location    "2.5";
    object      U;
}
// * * * * * * * * * * * * * * * * * * * * * * * * * * * * * * * * * * * * * //

dimensions      [0 1 -1 0 0 0 0];

internalField   nonuniform List<vector> 
18000
(
(-0.00186883 0.0546085 2.01646e-20)
(-0.00770757 0.132021 0)
(-0.016751 0.188256 0)
(-0.0264678 0.226054 0)
(-0.0359128 0.249098 -6.65689e-21)
(-0.0441443 0.260797 3.36523e-20)
(-0.0505214 0.263864 -6.81563e-21)
(-0.0546474 0.260311 6.86259e-21)
(-0.056317 0.25162 0)
(-0.0554657 0.238909 -2.074e-20)
(-0.0521386 0.223079 -6.94811e-21)
(-0.0464587 0.20491 0)
(-0.038609 0.185118 1.38407e-20)
(-0.0288131 0.164369 1.38987e-20)
(-0.0173264 0.143282 -2.77064e-20)
(-0.0044285 0.122427 -2.7634e-20)
(0.00959325 0.102304 0)
(0.0244522 0.0833367 -4.12075e-20)
(0.0398671 0.0658639 1.36717e-20)
(0.0555715 0.0501356 -4.08054e-20)
(0.071322 0.0363136 1.35233e-20)
(0.0869007 0.0244778 0)
(0.102122 0.0146349 -1.32733e-20)
(0.116834 0.00672978 -1.32539e-20)
(0.130918 0.000660885 0)
(0.144287 -0.00370885 0)
(0.156877 -0.00652945 -2.58367e-20)
(0.168659 -0.00794887 -2.56125e-20)
(0.179676 -0.00799442 -2.5481e-20)
(0.189705 -0.00637774 2.72984e-20)
(-0.00306682 0.0557523 2.86059e-20)
(-0.00993938 0.134652 4.98644e-20)
(-0.0189271 0.19185 -5.10491e-20)
(-0.0280872 0.23012 -5.20621e-20)
(-0.0366738 0.253139 -1.32596e-20)
(-0.0438957 0.264364 4.01205e-20)
(-0.0491984 0.266581 -5.41584e-20)
(-0.0522269 0.261885 -5.45823e-20)
(-0.0527963 0.251835 5.4893e-20)
(-0.0508591 0.237621 5.51472e-20)
(-0.0464688 0.220204 -2.75704e-20)
(-0.0397557 0.200423 -5.52859e-20)
(-0.030914 0.179037 -2.77803e-20)
(-0.0201786 0.156758 5.52152e-20)
(-0.00781651 0.134244 -5.50669e-20)
(0.00588167 0.112097 5.51506e-20)
(0.0206174 0.0908471 -1.0977e-19)
(0.0360925 0.0709372 8.20557e-20)
(0.0520177 0.0527195 -5.42923e-20)
(0.0681239 0.0364491 2.71623e-20)
(0.0841654 0.0222845 -5.36995e-20)
(0.0999251 0.0102966 0)
(0.115222 0.000477167 2.68847e-20)
(0.129911 -0.00724843 -5.27081e-20)
(0.143883 -0.0130042 5.22235e-20)
(0.157063 -0.0169486 0)
(0.169394 -0.019258 -2.55367e-20)
(0.180864 -0.020098 2.54086e-20)
(0.19153 -0.0195084 1.01037e-19)
(0.201189 -0.0171917 5.40433e-20)
(-0.0043001 0.0565287 -4.58998e-20)
(-0.0122275 0.136509 -4.98631e-20)
(-0.0211222 0.194574 7.6532e-20)
(-0.0296361 0.233327 1.29807e-19)
(-0.0372383 0.256393 0)
(-0.043294 0.267244 -5.36043e-20)
(-0.0473412 0.268718 5.41561e-20)
(-0.0490832 0.262987 1.63283e-19)
(-0.0483666 0.251682 -5.48904e-20)
(-0.0451593 0.236061 -5.51023e-20)
(-0.0395295 0.217153 1.65162e-19)
(-0.0316229 0.195845 5.52831e-20)
(-0.021645 0.172949 0)
(-0.0098455 0.149221 -1.10338e-19)
(0.00349505 0.125358 1.64574e-19)
(0.0180719 0.101996 -5.45547e-20)
(0.0335728 0.079692 5.47651e-20)
(0.0496921 0.0589105 5.44626e-20)
(0.0661342 0.0400163 2.36312e-22)
(0.0826235 0.0232683 0)
(0.098916 0.00882119 1.60927e-19)
(0.1148 -0.00326358 -1.06256e-19)
(0.1301 -0.0130108 5.30027e-20)
(0.144684 -0.0205151 0)
(0.158454 -0.0259236 -5.22213e-20)
(0.171347 -0.0294187 2.06417e-19)
(0.183325 -0.0312011 -1.53084e-19)
(0.194387 -0.0314561 -5.09247e-20)
(0.204602 -0.0302434 4.98737e-20)
(0.213798 -0.0272604 5.36803e-20)
(-0.00556068 0.0569872 0)
(-0.0145647 0.137756 2.47904e-20)
(-0.0233349 0.196535 1.93513e-23)
(-0.0311361 0.235724 -1.29579e-19)
(-0.0376371 0.258872 0)
(-0.042379 0.269427 -1.06354e-19)
(-0.0450077 0.270256 0)
(-0.0452873 0.263594 -1.62952e-19)
(-0.0431022 0.251142 5.45084e-20)
(-0.0384472 0.234225 -1.09194e-19)
(-0.0314107 0.213928 -1.09927e-19)
(-0.0221551 0.191198 -5.49086e-20)
(-0.0109019 0.166893 5.48011e-20)
(0.00208104 0.141813 5.44126e-20)
(0.0164956 0.116696 -5.50055e-20)
(0.0320234 0.092211 -1.08483e-19)
(0.04834 0.0689421 1.08442e-19)
(0.0651277 0.0473747 0)
(0.0820844 0.0278833 0)
(0.0989337 0.0107306 0)
(0.115435 -0.00393083 0)
(0.131384 -0.0160528 0)
(0.146615 -0.025677 0)
(0.161008 -0.0329189 -1.03988e-19)
(0.174485 -0.0379493 -1.03637e-19)
(0.186998 -0.0409754 -4.33668e-22)
(0.198525 -0.0422204 -1.01745e-19)
(0.209083 -0.0418948 -4.33979e-22)
(0.218756 -0.0400769 -1.00742e-19)
(0.227403 -0.0364668 2.12952e-19)
(-0.00681536 0.0570661 0)
(-0.0169038 0.138256 2.21733e-19)
(-0.0255415 0.197585 2.03576e-23)
(-0.0325787 0.237187 -7.73316e-20)
(-0.0378884 0.260464 2.61493e-19)
(-0.0411957 0.270813 1.59434e-19)
(-0.0422575 0.271114 1.60379e-19)
(-0.0409121 0.263645 0)
(-0.0370924 0.250171 0)
(-0.0308242 0.232081 1.63678e-19)
(-0.0222211 0.21052 4.98525e-23)
(-0.0114688 0.186487 -3.81617e-19)
(0.00119042 0.16089 3.26674e-19)
(0.0154687 0.134574 -1.09228e-19)
(0.0310491 0.108315 1.07947e-19)
(0.0475964 0.0828148 1.08402e-19)
(0.0647712 0.0586848 -1.0744e-19)
(0.0822453 0.0364282 1.07629e-19)
(0.0997118 0.016431 2.13592e-19)
(0.116895 -0.00104135 -1.0625e-19)
(0.133559 -0.0158426 -2.10929e-19)
(0.149509 -0.0279375 2.09606e-19)
(0.164596 -0.0373865 -2.08196e-19)
(0.178715 -0.0443259 1.03983e-19)
(0.191808 -0.04895 0)
(0.203847 -0.0514915 0)
(0.214833 -0.0521963 8.40783e-22)
(0.224797 -0.0512987 -4.00478e-19)
(0.233842 -0.0488991 1.98249e-19)
(0.241861 -0.0447094 -2.11489e-19)
(-0.00805087 0.0568275 0)
(-0.0192233 0.13808 -1.97039e-19)
(-0.0277273 0.197778 2.0093e-19)
(-0.033974 0.237731 0)
(-0.0380246 0.261158 -4.17405e-19)
(-0.0397905 0.271375 -5.28661e-20)
(-0.0391571 0.271252 -1.07201e-19)
(-0.0360428 0.263097 -5.37578e-20)
(-0.0304333 0.248731 0)
(-0.0223972 0.229602 -1.08461e-19)
(-0.0120807 0.20691 1.08566e-19)
(0.000304803 0.181707 2.17796e-19)
(0.0144929 0.154951 -2.17628e-19)
(0.030171 0.127529 0)
(0.0469999 0.100255 -2.16724e-19)
(0.0646261 0.0738637 2.14808e-19)
(0.082695 0.0489906 2.15237e-19)
(0.100868 0.0261562 3.20024e-19)
(0.118834 0.00575656 -3.19459e-19)
(0.13632 -0.0119423 4.22668e-19)
(0.153097 -0.0268026 2.10576e-19)
(0.168985 -0.0388028 -2.09595e-19)
(0.18385 -0.0480223 4.15098e-19)
(0.197612 -0.0546197 0)
(0.210234 -0.0588134 2.03866e-19)
(0.221712 -0.060859 4.05332e-19)
(0.232069 -0.0610269 -1.99692e-19)
(0.241358 -0.0595728 2.00034e-19)
(0.249698 -0.0566223 -4.2317e-22)
(0.257018 -0.0519058 -2.10092e-19)
(-0.00924561 0.0562642 -2.25137e-20)
(-0.0214948 0.137217 0)
(-0.0298784 0.197082 -2.51079e-19)
(-0.0353192 0.237306 5.11066e-20)
(-0.0380632 0.260897 1.56295e-19)
(-0.0382093 0.271051 5.26173e-20)
(-0.0357725 0.270605 2.12187e-19)
(-0.0307611 0.261892 0)
(-0.0232266 0.246773 1.07621e-19)
(-0.0132862 0.226746 1.07452e-19)
(-0.00112228 0.203068 -1.08106e-19)
(0.0130216 0.176842 3.23658e-19)
(0.0288488 0.149074 0)
(0.0460193 0.120691 0)
(0.0641703 0.0925438 3.21859e-19)
(0.0829271 0.0653989 -5.35357e-19)
(0.101918 0.0399139 2.12725e-19)
(0.120795 0.0166255 -2.13031e-19)
(0.139245 -0.00406305 -2.10722e-19)
(0.156998 -0.0218874 -6.30939e-19)
(0.173836 -0.0367193 -9.33159e-22)
(0.189595 -0.0485536 2.07032e-19)
(0.204165 -0.0574888 -4.12535e-19)
(0.217489 -0.0637061 2.04153e-19)
(0.229556 -0.0674481 -1.258e-21)
(0.240391 -0.0689925 -2.02228e-19)
(0.250042 -0.0686324 2.00537e-19)
(0.258581 -0.0666443 0)
(0.26615 -0.0631792 1.95774e-19)
(0.272713 -0.0579938 3.37738e-22)
(-0.0103858 0.0554021 -4.48336e-20)
(-0.0236937 0.135689 4.87742e-20)
(-0.0319767 0.19551 -2.99142e-19)
(-0.0366165 0.235909 -1.52391e-19)
(-0.0380283 0.259651 2.06606e-19)
(-0.0364954 0.269796 -3.14131e-19)
(-0.0321691 0.269128 -1.0633e-19)
(-0.0251561 0.259979 -2.12802e-19)
(-0.0155805 0.244243 2.13802e-19)
(-0.003615 0.223467 -4.29736e-19)
(0.0105142 0.198958 -2.14609e-19)
(0.0265256 0.171867 -1.05908e-21)
(0.0440892 0.143244 1.07449e-19)
(0.0628342 0.114056 -3.20866e-19)
(0.0823697 0.0851917 -4.27417e-19)
(0.102298 0.057443 3.88063e-22)
(0.122231 0.0314893 -8.37251e-22)
(0.141811 0.00788155 2.10519e-19)
(0.160723 -0.0129726 2.1071e-19)
(0.178702 -0.0308139 3.48236e-22)
(0.195545 -0.0455254 -5.72832e-22)
(0.21111 -0.0571189 2.04836e-19)
(0.225311 -0.0657142 2.05623e-19)
(0.23812 -0.0715157 -3.72876e-22)
(0.249556 -0.0747877 -6.065e-19)
(0.259672 -0.0758308 3.99817e-19)
(0.268547 -0.0749572 3.97744e-19)
(0.276275 -0.0724637 -3.93431e-19)
(0.283017 -0.0685256 -1.95767e-19)
(0.288779 -0.0629332 -2.0546e-19)
(-0.0114575 0.0542668 -4.01012e-19)
(-0.0257973 0.133533 -4.85739e-20)
(-0.0340073 0.193081 2.48984e-19)
(-0.0378646 0.233533 2.03285e-19)
(-0.0379382 0.257399 -2.06601e-19)
(-0.0346903 0.267574 2.0926e-19)
(-0.0284114 0.266769 -1.05442e-19)
(-0.0193134 0.257301 3.18961e-19)
(-0.00760086 0.241088 -2.13793e-19)
(0.00649087 0.219715 2.14372e-19)
(0.022686 0.194533 1.07541e-19)
(0.0406594 0.166742 -1.07539e-19)
(0.0600426 0.137431 -6.40085e-19)
(0.0804304 0.107608 4.26841e-19)
(0.101401 0.0781914 2.13109e-19)
(0.122532 0.0499998 0)
(0.143417 0.0237321 0)
(0.163689 -5.05427e-05 -2.07958e-21)
(0.183034 -0.0209394 -2.07856e-19)
(0.201194 -0.0386827 0)
(0.217985 -0.0531772 0)
(0.233288 -0.0644533 -2.05747e-19)
(0.247048 -0.072653 0)
(0.259269 -0.0780044 -4.03252e-19)
(0.270003 -0.0807929 0)
(0.279336 -0.0813388 -1.9971e-19)
(0.287375 -0.0799716 3.95225e-19)
(0.294241 -0.0770065 -3.9094e-19)
(0.300115 -0.072642 0)
(0.305042 -0.0667072 0)
(-0.0124503 0.0528889 3.56368e-19)
(-0.0277853 0.130792 0)
(-0.0359543 0.189827 -4.95456e-20)
(-0.0390597 0.230194 5.04869e-20)
(-0.0378071 0.254132 -3.07201e-19)
(-0.0328292 0.264355 4.96663e-23)
(-0.0245568 0.263484 -1.04992e-19)
(-0.0133125 0.253807 0)
(0.000612259 0.237251 0)
(0.0169125 0.215432 -1.06459e-19)
(0.0352559 0.189742 1.06561e-19)
(0.0552696 0.16142 -2.13001e-19)
(0.0765414 0.131598 2.14687e-19)
(0.0986266 0.101314 0)
(0.12107 0.0715199 0)
(0.143422 0.0430564 0)
(0.165258 0.0166387 2.08287e-19)
(0.186203 -0.00716587 -1.18501e-21)
(0.205943 -0.0279517 2.09056e-19)
(0.224233 -0.045477 -4.11644e-19)
(0.24091 -0.0596545 2.05458e-19)
(0.255883 -0.0705358 -1.01837e-18)
(0.269132 -0.078286 6.92051e-22)
(0.280697 -0.0831553 4.03235e-19)
(0.290666 -0.0854499 -1.69944e-21)
(0.29916 -0.085507 3.95203e-19)
(0.306317 -0.0836717 -3.91072e-19)
(0.312283 -0.0802734 -3.89222e-19)
(0.317258 -0.0755327 8.72171e-22)
(0.321333 -0.069321 -4.03057e-19)
(-0.0133566 0.0513022 -4.42634e-20)
(-0.0296401 0.127517 0)
(-0.0378011 0.185794 9.86929e-20)
(-0.0401938 0.225915 -1.00568e-19)
(-0.037642 0.249851 9.20507e-19)
(-0.030938 0.260121 4.75278e-23)
(-0.0206514 0.25924 -1.04572e-19)
(-0.00722035 0.249451 1.05284e-19)
(0.00897115 0.232679 -5.27944e-19)
(0.0275431 0.210562 0)
(0.048101 0.184527 0)
(0.0702168 0.155849 -2.10978e-19)
(0.09343 0.125693 2.12608e-19)
(0.117253 0.0951316 -2.11071e-19)
(0.141193 0.0651419 2.10169e-19)
(0.164772 0.0365857 0)
(0.187547 0.0101893 -8.34009e-19)
(0.209133 -0.0134782 4.13802e-19)
(0.22922 -0.0340176 2.0663e-19)
(0.247582 -0.0512006 6.15895e-19)
(0.264078 -0.0649598 0)
(0.278653 -0.0753695 4.06488e-19)
(0.291323 -0.0826181 4.01972e-19)
(0.30217 -0.0869768 3.99003e-19)
(0.311319 -0.088771 -2.46063e-21)
(0.318928 -0.0883526 -3.91946e-19)
(0.325167 -0.0860789 3.91059e-19)
(0.330209 -0.08229 0)
(0.33427 -0.0772256 9.14101e-22)
(0.337488 -0.0708022 8.02669e-19)
(-0.0141722 0.049543 -3.51901e-19)
(-0.0313475 0.123769 0)
(-0.0395307 0.181037 -3.92174e-19)
(-0.0412542 0.220737 -5.00399e-19)
(-0.0374406 0.244573 -3.06467e-19)
(-0.0290295 0.254867 1.03192e-19)
(-0.0167265 0.254012 6.64485e-24)
(-0.00108685 0.244194 -1.04881e-19)
(0.0174081 0.227324 1.72187e-21)
(0.0382975 0.205052 2.11041e-19)
(0.0611183 0.178833 2.10213e-19)
(0.0853824 0.14997 -2.09043e-19)
(0.110575 0.119663 2.1055e-19)
(0.136161 0.0890105 -6.28825e-19)
(0.161607 0.0590134 6.26389e-19)
(0.186404 0.0305495 4.15536e-19)
(0.210089 0.00435134 1.03698e-18)
(0.232271 -0.0190148 -2.08402e-19)
(0.252648 -0.0391608 -4.09254e-19)
(0.271013 -0.0558764 -2.34632e-21)
(0.287257 -0.0691163 -4.0601e-19)
(0.301362 -0.0789793 1.20731e-18)
(0.313389 -0.085677 -8.02428e-19)
(0.32346 -0.0895008 7.92416e-19)
(0.331744 -0.0907926 -3.9517e-19)
(0.338434 -0.0899166 7.81417e-19)
(0.343733 -0.0872384 1.59296e-21)
(0.347838 -0.083105 -7.67719e-19)
(0.350985 -0.0777717 7.59067e-19)
(0.353357 -0.0712002 3.96092e-19)
(-0.0148954 0.0476484 3.519e-19)
(-0.032896 0.119612 0)
(-0.0411247 0.175622 8.80696e-19)
(-0.042222 0.21471 3.00349e-19)
(-0.0371897 0.23833 0)
(-0.0271012 0.248603 0)
(-0.0127932 0.24779 0)
(0.00506126 0.238009 0)
(0.0258805 0.221146 2.10705e-19)
(0.0491177 0.198854 2.10278e-19)
(0.0742351 0.172605 -4.21438e-19)
(0.100678 0.14373 4.20987e-19)
(0.127873 0.113453 6.27687e-19)
(0.155231 0.0828993 2.09924e-19)
(0.182176 0.0530868 2.06137e-19)
(0.208163 0.0249042 -6.22635e-19)
(0.232713 -0.000915131 -8.24981e-19)
(0.25543 -0.0238134 -4.11482e-19)
(0.276024 -0.0434183 4.09236e-19)
(0.294315 -0.0595415 -8.13004e-19)
(0.310229 -0.0721634 4.02661e-19)
(0.323792 -0.0814084 -8.0256e-19)
(0.335111 -0.0875107 3.96399e-19)
(0.344356 -0.0907804 -1.48916e-21)
(0.351737 -0.0915731 -3.91067e-19)
(0.357485 -0.0902622 -7.78104e-19)
(0.361834 -0.0872171 7.70603e-19)
(0.365006 -0.0827879 0)
(0.367253 -0.077241 -9.4135e-22)
(0.368802 -0.0705835 -7.89051e-19)
(-0.0155278 0.0456555 4.37178e-20)
(-0.0342771 0.115115 0)
(-0.0425638 0.169622 -3.90613e-19)
(-0.0430715 0.207899 9.94955e-20)
(-0.0368632 0.231168 -1.01024e-19)
(-0.0251323 0.241353 0)
(-0.00883977 0.240579 -1.0335e-19)
(0.0112249 0.230885 1.04059e-19)
(0.0343769 0.21412 2.0886e-19)
(0.0599791 0.191931 -6.2725e-19)
(0.0874133 0.165802 -2.09287e-19)
(0.116052 0.137081 1.22228e-22)
(0.145255 0.107016 -9.1977e-22)
(0.174377 0.0767511 -4.15835e-19)
(0.202792 0.0473166 -2.08138e-19)
(0.229923 0.0196061 0)
(0.255272 -0.00565261 7.53568e-22)
(0.278445 -0.0279162 4.09272e-19)
(0.299169 -0.0468337 -4.05458e-19)
(0.317296 -0.0622431 0)
(0.332795 -0.0741536 0)
(0.345741 -0.0827153 0)
(0.356293 -0.088184 0)
(0.364667 -0.0908866 -2.36443e-21)
(0.371117 -0.0911893 0)
(0.375911 -0.0894706 0)
(0.379313 -0.0860996 3.81224e-19)
(0.381569 -0.0814248 3.77721e-19)
(0.382941 -0.0757202 3.75641e-19)
(0.383702 -0.0690362 -1.00648e-21)
(-0.0160731 0.0436002 4.35419e-20)
(-0.0354846 0.110347 -9.48262e-20)
(-0.0438267 0.163116 5.81706e-19)
(-0.0437696 0.200378 -9.89866e-20)
(-0.0364216 0.223147 1.00726e-19)
(-0.0230818 0.23316 4.74293e-23)
(-0.00482823 0.232404 3.08123e-19)
(0.017436 0.222827 -4.13778e-19)
(0.0429213 0.206237 6.23436e-19)
(0.0708958 0.184264 8.53075e-22)
(0.100655 0.158393 -2.07518e-19)
(0.131491 0.12999 4.15456e-19)
(0.162691 0.100316 -4.14349e-19)
(0.193547 0.0705287 4.12892e-19)
(0.223382 0.0416658 0)
(0.251586 0.014618 4.09256e-19)
(0.277645 -0.00989968 0)
(0.301173 -0.0313649 2.1188e-21)
(0.321922 -0.0494539 -4.02568e-19)
(0.339783 -0.0640353 -4.00067e-19)
(0.354777 -0.0751486 3.97435e-19)
(0.36703 -0.0829699 -3.94668e-19)
(0.376756 -0.0877755 -3.91762e-19)
(0.384221 -0.0899056 -7.79767e-19)
(0.389722 -0.0897335 -3.85535e-19)
(0.393563 -0.0876383 3.83751e-19)
(0.396034 -0.083985 -7.60886e-19)
(0.397402 -0.0791159 -3.77713e-19)
(0.397939 -0.0733088 0)
(0.397959 -0.0666546 -3.88841e-19)
(-0.0165368 0.0415159 0)
(-0.036514 0.105375 3.76838e-19)
(-0.04489 0.156188 -2.90783e-19)
(-0.0442754 0.192231 -4.9253e-19)
(-0.0358109 0.214343 0)
(-0.020888 0.224085 0)
(-0.000693233 0.223305 -6.16186e-19)
(0.0237594 0.213862 8.26064e-19)
(0.0515749 0.197508 -6.21823e-19)
(0.0819217 0.175851 0)
(0.114003 0.150372 2.08577e-19)
(0.147022 0.122443 -2.0806e-19)
(0.180189 0.0933347 1.82021e-21)
(0.212725 0.0642121 -2.07845e-19)
(0.243903 0.0361119 -2.04143e-19)
(0.27308 0.00991393 -1.97894e-21)
(0.299734 -0.0136875 4.05127e-19)
(0.323493 -0.0341976 4.04922e-19)
(0.344144 -0.0513256 7.04521e-22)
(0.361627 -0.0649749 7.98652e-19)
(0.376017 -0.0752166 -7.94142e-19)
(0.387501 -0.0822518 7.87779e-19)
(0.396348 -0.0863745 3.91751e-19)
(0.402876 -0.0879349 3.88706e-19)
(0.407421 -0.0873094 2.33851e-21)
(0.410319 -0.0848731 0)
(0.411887 -0.080983 3.77878e-19)
(0.412408 -0.0759713 -1.12243e-18)
(0.412161 -0.0701153 3.68265e-19)
(0.411494 -0.0635437 3.85237e-19)
(-0.0169261 0.0394328 -2.58507e-19)
(-0.0373614 0.100266 -8.46286e-19)
(-0.0457274 0.148922 -1.32816e-22)
(-0.0445401 0.183548 1.38658e-21)
(-0.034963 0.204841 -2.99067e-19)
(-0.018468 0.214202 0)
(0.00365763 0.213347 -2.03624e-19)
(0.0302924 0.204039 -1.23414e-18)
(0.0604345 0.18797 6.20352e-19)
(0.0931486 0.166718 -4.12808e-19)
(0.127537 0.141754 6.19312e-19)
(0.162709 0.114449 -2.06514e-19)
(0.197786 0.0860775 4.12501e-19)
(0.231921 0.0578022 -1.02515e-18)
(0.264332 0.0306505 6.13359e-19)
(0.294351 0.00548272 -8.22177e-22)
(0.321456 -0.0170357 -1.21219e-18)
(0.3453 -0.0364451 4.02098e-19)
(0.365715 -0.0524932 -3.99083e-19)
(0.382695 -0.0651209 0)
(0.396381 -0.0744305 3.93045e-19)
(0.407022 -0.0806467 0)
(0.414945 -0.0840777 -3.88698e-19)
(0.420514 -0.0850802 3.84882e-19)
(0.424106 -0.0840287 3.83179e-19)
(0.426085 -0.0812907 3.77499e-19)
(0.426789 -0.0772103 0)
(0.426513 -0.072107 0)
(0.425541 -0.0662537 -7.38894e-19)
(0.424251 -0.0598135 1.14519e-18)
(-0.0172482 0.0373771 2.58775e-19)
(-0.0380233 0.0950785 4.6894e-19)
(-0.0463099 0.141401 -3.8304e-19)
(-0.0445073 0.174425 7.83313e-19)
(-0.0337964 0.194739 1.01106e-19)
(-0.0157198 0.203605 1.00893e-19)
(0.00834172 0.202612 1.5382e-21)
(0.0371616 0.193429 -4.08191e-19)
(0.0696297 0.177684 -2.0479e-19)
(0.104701 0.156917 1.64536e-21)
(0.141369 0.132584 -1.68766e-21)
(0.178641 0.106047 -6.15597e-19)
(0.215546 0.0785765 -2.03909e-19)
(0.251163 0.0513243 1.82272e-21)
(0.284664 0.0252987 4.05443e-19)
(0.315361 0.00133048 4.0338e-19)
(0.342744 -0.019952 1.95801e-21)
(0.366504 -0.0381312 -3.98785e-19)
(0.386527 -0.0529976 3.97605e-19)
(0.402875 -0.0645315 -3.9439e-19)
(0.415755 -0.0728653 -7.83935e-19)
(0.425484 -0.0782442 -3.89438e-19)
(0.432444 -0.080987 7.70743e-19)
(0.437045 -0.0814523 0)
(0.439699 -0.0800082 -3.7856e-19)
(0.440795 -0.0770102 -7.5266e-19)
(0.440684 -0.0727867 -7.46143e-19)
(0.43967 -0.067641 3.69987e-19)
(0.438039 -0.0618388 -1.09842e-18)
(0.436193 -0.0555746 3.79422e-19)
(-0.0175106 0.0353703 -4.28004e-19)
(-0.0384948 0.0898674 9.32098e-20)
(-0.0466051 0.133704 3.83044e-19)
(-0.0441137 0.164958 -2.93304e-19)
(-0.0322183 0.184141 9.99083e-20)
(-0.0125248 0.192398 -1.02124e-22)
(0.0134971 0.191203 1.01403e-18)
(0.0445173 0.182128 4.09025e-19)
(0.0793141 0.166736 4.10557e-19)
(0.116726 0.146528 6.16168e-19)
(0.155631 0.122935 -6.16176e-19)
(0.194924 0.0973045 4.10171e-19)
(0.23354 0.0708913 8.1677e-19)
(0.270486 0.0448284 4.06234e-19)
(0.304894 0.0200939 -9.11521e-22)
(0.336071 -0.00252094 -8.05772e-19)
(0.363533 -0.0224328 8.01487e-19)
(0.387019 -0.0392725 1.16697e-21)
(0.406486 -0.0528772 -3.95531e-19)
(0.422068 -0.0632657 3.92333e-19)
(0.434046 -0.0705984 3.90891e-19)
(0.442802 -0.0751374 -3.85844e-19)
(0.448772 -0.0772076 -7.6916e-19)
(0.452409 -0.0771647 -5.80206e-22)
(0.454152 -0.0753661 3.7941e-19)
(0.454408 -0.0721513 3.75162e-19)
(0.45354 -0.0678306 7.41395e-19)
(0.451855 -0.0626886 -7.31009e-19)
(0.449636 -0.0569816 0)
(0.447304 -0.0509327 3.77037e-19)
(-0.0177195 0.0334282 1.34367e-21)
(-0.0387696 0.0846784 0)
(-0.046577 0.125907 -2.84783e-19)
(-0.0432902 0.155243 -9.70829e-20)
(-0.0301269 0.173158 -3.94348e-19)
(-0.00875264 0.180699 0)
(0.0192761 0.179236 -6.06827e-19)
(0.0525251 0.170251 2.03366e-19)
(0.0896557 0.15524 0)
(0.129383 0.13566 -4.07829e-19)
(0.170458 0.112909 0)
(0.211662 0.0883148 -6.10359e-19)
(0.251834 0.0631066 6.08616e-19)
(0.289916 0.0383863 -4.05481e-19)
(0.325012 0.0150911 -4.01737e-19)
(0.356438 -0.00603649 0)
(0.383754 -0.0244662 0)
(0.406766 -0.0398821 3.96006e-19)
(0.425507 -0.0521691 4.43554e-22)
(0.440193 -0.061383 3.90033e-19)
(0.451181 -0.067709 -3.8745e-19)
(0.458916 -0.071421 7.70881e-19)
(0.463883 -0.0728459 -3.814e-19)
(0.466571 -0.0723309 0)
(0.467441 -0.0702192 1.12701e-18)
(0.466914 -0.066831 -1.8573e-18)
(0.465353 -0.0624561 3.68903e-19)
(0.463068 -0.057359 3.65713e-19)
(0.460333 -0.0517855 3.59671e-19)
(0.457584 -0.0459846 7.46514e-19)
(-0.0178797 0.0315615 -3.38181e-19)
(-0.0388386 0.0795489 7.39004e-19)
(-0.0461869 0.118076 3.80064e-19)
(-0.0419638 0.145373 8.69561e-19)
(-0.0274151 0.161901 1.08164e-18)
(-0.00426661 0.168632 1.99362e-19)
(0.0258376 0.166844 -1.00457e-18)
(0.0613552 0.157933 0)
(0.100824 0.14333 -8.11304e-19)
(0.142825 0.124442 -4.04455e-19)
(0.185979 0.102633 0)
(0.228947 0.0791962 -4.03204e-19)
(0.270478 0.055328 -1.08578e-21)
(0.309461 0.032087 -1.20671e-18)
(0.344988 0.0103583 4.01729e-19)
(0.376406 -0.00917311 3.98698e-19)
(0.403336 -0.0260365 -7.90574e-19)
(0.425665 -0.0399718 -7.87747e-19)
(0.443513 -0.0509114 -3.82912e-22)
(0.457183 -0.0589452 -1.23267e-21)
(0.467106 -0.0642781 0)
(0.473787 -0.0671914 -3.82869e-19)
(0.477753 -0.0680081 -3.77565e-19)
(0.479523 -0.0670629 0)
(0.479572 -0.0646808 0)
(0.478324 -0.0611606 1.10973e-18)
(0.476142 -0.05677 -1.09372e-18)
(0.473329 -0.0517527 0)
(0.470152 -0.0463437 1.07225e-18)
(0.467055 -0.0408157 -7.40809e-19)
(-0.0179938 0.0297753 2.77939e-21)
(-0.0386898 0.0745075 -7.38874e-19)
(-0.0453931 0.11027 -9.43871e-20)
(-0.0400591 0.135434 -9.65655e-19)
(-0.0239746 0.150481 -5.89737e-19)
(0.00106986 0.156326 1.98572e-19)
(0.0333375 0.154166 4.02547e-19)
(0.0711708 0.145321 1.00689e-18)
(0.112974 0.131156 8.11302e-19)
(0.157187 0.113025 8.12275e-19)
(0.202294 0.0922501 0)
(0.246839 0.0700838 3.52595e-21)
(0.28949 0.0476757 0)
(0.329099 0.0260299 8.03727e-19)
(0.36477 0.00596958 0)
(0.395904 -0.0118854 -3.96801e-19)
(0.4222 -0.0271283 3.98195e-19)
(0.44364 -0.039556 0)
(0.460439 -0.0491458 0)
(0.472988 -0.056017 -1.15755e-18)
(0.48179 -0.060389 3.83337e-19)
(0.487402 -0.0625448 0)
(0.490388 -0.0627985 7.54226e-19)
(0.491283 -0.0614686 7.5024e-19)
(0.490572 -0.0588583 -1.48248e-18)
(0.488674 -0.0552435 1.46849e-18)
(0.485946 -0.0508695 2.61533e-21)
(0.482679 -0.0459596 7.17489e-19)
(0.479131 -0.040738 -7.14668e-19)
(0.475754 -0.0355003 0)
(-0.0180615 0.0280699 8.45189e-19)
(-0.0383077 0.0695738 -9.1746e-20)
(-0.0441523 0.102539 -7.51084e-19)
(-0.0375015 0.125507 0)
(-0.0197002 0.139005 -7.79348e-19)
(0.00738621 0.143909 0)
(0.0419194 0.141348 -9.96395e-19)
(0.0821159 0.132571 -6.0421e-19)
(0.126236 0.118878 -8.0451e-19)
(0.172571 0.10157 0)
(0.219466 0.0819173 2.01445e-19)
(0.265357 0.0611217 2.04245e-19)
(0.308846 0.0402754 -4.01192e-19)
(0.348773 0.0203166 -7.96458e-19)
(0.384281 0.00199764 -3.95354e-19)
(0.414843 -0.0141323 -1.57782e-18)
(0.440259 -0.0277325 7.86849e-19)
(0.460616 -0.0386556 -1.77585e-22)
(0.476229 -0.0469194 -2.62293e-22)
(0.487575 -0.0526671 1.15516e-18)
(0.495222 -0.0561265 0)
(0.499771 -0.0575768 0)
(0.501813 -0.0573188 -1.81869e-21)
(0.501893 -0.0556504 2.5614e-21)
(0.500492 -0.0528514 -7.34533e-19)
(0.498022 -0.0491741 -7.3001e-19)
(0.494824 -0.0448411 1.99761e-21)
(0.491175 -0.0400571 -7.17492e-19)
(0.487322 -0.0350375 -7.07943e-19)
(0.483728 -0.0301 2.16158e-21)
(-0.01808 0.0264409 0)
(-0.0376739 0.0647592 7.3009e-19)
(-0.0424202 0.0949215 6.57328e-19)
(-0.0342192 0.115663 9.55493e-20)
(-0.0144948 0.127572 1.55551e-18)
(0.0147977 0.131506 -1.96953e-19)
(0.051705 0.128534 1.59037e-18)
(0.0943046 0.119841 7.98528e-19)
(0.140702 0.106663 1.20586e-18)
(0.189034 0.0902427 6.00749e-19)
(0.23751 0.0717931 2.0055e-19)
(0.284472 0.0524545 1.00255e-18)
(0.328481 0.03325 -5.51252e-22)
(0.368395 0.0150424 3.98896e-19)
(0.403417 -0.00149348 7.92405e-19)
(0.433123 -0.0158825 7.8793e-19)
(0.457426 -0.0278497 0)
(0.476527 -0.0372999 0)
(0.490842 -0.0442858 0)
(0.500928 -0.0489679 0)
(0.50741 -0.0515765 7.56668e-19)
(0.510925 -0.0523815 0)
(0.512077 -0.051666 -2.47161e-21)
(0.511412 -0.0497044 1.47593e-18)
(0.509401 -0.0467518 7.32028e-19)
(0.506439 -0.0430362 7.24949e-19)
(0.502848 -0.0387592 1.43598e-18)
(0.498886 -0.0341089 0)
(0.494788 -0.0292958 -1.40433e-18)
(0.491033 -0.024662 1.45618e-18)
(-0.0180434 0.0248801 6.68088e-19)
(-0.0367665 0.0600674 -7.30106e-19)
(-0.0401528 0.0874492 0)
(-0.030146 0.105962 -7.60258e-19)
(-0.00827372 0.116275 -1.96969e-19)
(0.023399 0.119234 -5.86742e-19)
(0.0627865 0.115863 -1.7814e-18)
(0.107812 0.107284 -3.31093e-21)
(0.156416 0.0946724 -5.97502e-19)
(0.206578 0.0792046 -1.40019e-18)
(0.256385 0.0620303 -2.00004e-19)
(0.304106 0.0442178 -7.95494e-19)
(0.348291 0.026711 -7.92637e-19)
(0.387842 0.0102894 0)
(0.422061 -0.00445382 -7.84959e-19)
(0.450639 -0.0171184 -1.17149e-18)
(0.473619 -0.0274925 3.88724e-19)
(0.491319 -0.0355279 -7.7015e-19)
(0.504254 -0.041305 -7.6455e-19)
(0.513051 -0.0449951 0)
(0.518385 -0.046825 -1.50916e-18)
(0.520914 -0.0470502 0)
(0.521247 -0.0459323 -1.48561e-18)
(0.51992 -0.0437201 -7.35012e-19)
(0.517386 -0.0406427 -1.45561e-18)
(0.514016 -0.0369044 7.20897e-19)
(0.510107 -0.0326868 -2.14013e-18)
(0.505896 -0.0281646 7.0384e-19)
(0.501602 -0.0235498 4.50201e-21)
(0.49773 -0.019212 -7.23026e-19)
(-0.0179428 0.0233766 -6.68102e-19)
(-0.0355612 0.0554955 9.07574e-20)
(-0.0373077 0.0801433 6.48916e-19)
(-0.0252236 0.0964565 7.60273e-19)
(-0.000968353 0.105195 -7.72907e-19)
(0.0332592 0.107203 3.41936e-21)
(0.0752201 0.103466 7.90056e-19)
(0.122667 0.0950471 -1.5861e-18)
(0.173369 0.0830574 -1.95097e-19)
(0.225153 0.0686058 1.79198e-18)
(0.276001 0.0527682 -1.19117e-18)
(0.324137 0.0365315 1.98446e-18)
(0.368133 0.0207522 1.97668e-18)
(0.406974 0.00612131 -3.93868e-19)
(0.44008 -0.00685117 7.8496e-19)
(0.467285 -0.0178383 1.16958e-18)
(0.488763 -0.0266866 3.84757e-19)
(0.504952 -0.0333875 3.93625e-21)
(0.516457 -0.0380423 3.83226e-19)
(0.523968 -0.0408261 3.78251e-19)
(0.528194 -0.0419566 -3.71063e-19)
(0.529805 -0.0416705 3.7188e-19)
(0.529403 -0.0402045 -7.35019e-19)
(0.527507 -0.0377802 7.32571e-19)
(0.524543 -0.0345998 4.53765e-21)
(0.520852 -0.0308442 7.13844e-19)
(0.516703 -0.0266765 4.58656e-21)
(0.512303 -0.0222615 -7.01382e-19)
(0.507852 -0.0178206 2.42092e-21)
(0.503897 -0.0137536 0)
(-0.0177667 0.0219171 0)
(-0.0340316 0.051036 0)
(-0.0338451 0.073018 -8.34382e-19)
(-0.0194035 0.0871881 9.43518e-20)
(0.00747101 0.0944025 0)
(0.0444181 0.0955099 7.79399e-19)
(0.0890232 0.0914599 1.96113e-19)
(0.138854 0.0832607 5.93816e-19)
(0.191502 0.0719555 7.93807e-19)
(0.244657 0.0585794 -7.94516e-19)
(0.296219 0.0441264 7.93733e-19)
(0.344403 0.029494 -7.91778e-19)
(0.387841 0.0154453 -7.88914e-19)
(0.425633 0.00258042 0)
(0.457346 -0.00867292 0)
(0.482964 -0.0180569 0)
(0.5028 -0.0254697 -7.71585e-19)
(0.517404 -0.0309347 1.14835e-18)
(0.527464 -0.0345668 -3.79265e-19)
(0.533719 -0.0365385 0)
(0.5369 -0.0370531 1.12142e-18)
(0.537679 -0.0363253 -3.69758e-19)
(0.53664 -0.034564 7.3503e-19)
(0.534276 -0.0319621 -1.44956e-18)
(0.530981 -0.0286933 1.43967e-18)
(0.527059 -0.0249151 -2.15027e-21)
(0.522745 -0.0207714 2.4548e-21)
(0.518211 -0.0164217 6.96768e-19)
(0.513636 -0.0121096 -4.24316e-22)
(0.509618 -0.00825845 7.14373e-19)
(-0.0175011 0.0204876 8.2685e-20)
(-0.03215 0.0466781 -8.98343e-20)
(-0.0297292 0.0660816 1.84385e-19)
(-0.0126488 0.0781905 -1.12643e-18)
(0.0170733 0.0839579 1.91017e-19)
(0.056885 0.084239 0)
(0.104173 0.0799497 7.79329e-19)
(0.156307 0.0720407 -7.83882e-19)
(0.210708 0.061485 0)
(0.264942 0.0492367 9.83999e-19)
(0.316864 0.0362009 -1.97211e-19)
(0.364718 0.0231791 0)
(0.407237 0.0108377 -3.91364e-19)
(0.443666 -0.000313616 7.79741e-19)
(0.473737 -0.00992586 -3.87965e-19)
(0.497594 -0.017804 3.8532e-19)
(0.515689 -0.0238898 -7.65798e-19)
(0.528674 -0.0282311 9.10506e-23)
(0.537305 -0.0309487 4.03624e-23)
(0.542361 -0.0322073 -3.72077e-19)
(0.544579 -0.032192 -7.41957e-19)
(0.544623 -0.0310922 -5.54829e-23)
(0.543053 -0.0290877 2.21493e-21)
(0.540331 -0.0263401 7.23598e-19)
(0.536812 -0.0229931 -7.14225e-19)
(0.532759 -0.0191758 7.09317e-19)
(0.52836 -0.0150089 -1.39924e-18)
(0.523738 -0.0106503 -2.49332e-21)
(0.519044 -0.00636984 -1.36815e-18)
(0.514919 -0.0026449 7.10324e-19)
(-0.0171298 0.0190737 0)
(-0.0298875 0.0424092 -7.14474e-19)
(-0.0249282 0.0593379 0)
(-0.00493392 0.0694901 3.41047e-21)
(0.027847 0.0739116 1.90298e-19)
(0.0706393 0.0734627 8.86435e-24)
(0.12061 0.0690232 -1.55508e-18)
(0.174923 0.0614838 5.88291e-19)
(0.230837 0.051742 0)
(0.285827 0.0406648 -9.83048e-19)
(0.337735 0.0290618 1.96253e-19)
(0.384884 0.0176345 0)
(0.426141 0.00695215 -3.89456e-19)
(0.460925 -0.00256275 3.88209e-19)
(0.489148 -0.0106341 3.84079e-19)
(0.511117 -0.0171217 7.67032e-19)
(0.527412 -0.0220025 -3.81045e-19)
(0.538778 -0.0253407 0)
(0.546027 -0.0272568 0)
(0.549959 -0.0279032 7.46279e-19)
(0.551312 -0.0274443 -7.37618e-19)
(0.550727 -0.0260428 7.30943e-19)
(0.54874 -0.0238486 7.26149e-19)
(0.545776 -0.020991 7.16722e-19)
(0.542155 -0.0175794 -7.0947e-19)
(0.538097 -0.0137052 7.04501e-19)
(0.533727 -0.00945168 6.94857e-19)
(0.52907 -0.00494687 -6.87335e-19)
(0.524135 -0.00041849 1.98498e-21)
(0.519434 0.00353951 1.41348e-18)
(-0.0166387 0.0176656 8.19629e-20)
(-0.0272183 0.0382201 6.25631e-19)
(-0.0194176 0.0527905 0)
(0.00375294 0.0611091 7.4719e-19)
(0.039779 0.0643064 0)
(0.0856315 0.0632415 0)
(0.138239 0.0587534 5.82378e-19)
(0.19456 0.0516682 2.52013e-22)
(0.251709 0.0428018 1.95316e-19)
(0.307103 0.0329275 1.95132e-19)
(0.358621 0.022755 -5.85184e-19)
(0.4047 0.0128844 3.89628e-19)
(0.444383 0.00379049 0)
(0.477282 -0.00418628 0)
(0.503496 -0.0108345 -7.69825e-19)
(0.523492 -0.0160598 0)
(0.537971 -0.0198659 -3.78872e-19)
(0.547753 -0.0223257 3.76286e-19)
(0.55369 -0.0235543 3.73108e-19)
(0.55659 -0.023689 -1.42898e-22)
(0.55718 -0.022872 -3.66772e-19)
(0.556075 -0.0212399 0)
(0.553781 -0.0189143 -7.19288e-19)
(0.550692 -0.0159936 7.1223e-19)
(0.547102 -0.0125516 0)
(0.54321 -0.00863558 0)
(0.53912 -0.00426084 0)
(0.534816 0.0005633 0)
(0.530015 0.00570651 -6.75282e-19)
(0.525354 0.01145 1.40412e-18)
(0.218002 0.00600236 -0.0208265)
(0.243208 0.026343 -0.0214197)
(0.260905 0.0506774 -0.0215626)
(0.269182 0.0725785 -0.0216706)
(0.27314 0.090507 -0.0217174)
(0.273551 0.104277 -0.0217336)
(0.271716 0.115358 -0.0217192)
(0.268266 0.125223 -0.0216853)