/*--------------------------------*- C++ -*----------------------------------*\
  =========                 |
  \\      /  F ield         | OpenFOAM: The Open Source CFD Toolbox
   \\    /   O peration     | Website:  https://openfoam.org
    \\  /    A nd           | Version:  7
     \\/     M anipulation  |
\*---------------------------------------------------------------------------*/
FoamFile
{
    version     2.0;
    format      ascii;
    class       volScalarField;
    location    "7.2";
    object      p;
}
// * * * * * * * * * * * * * * * * * * * * * * * * * * * * * * * * * * * * * //

dimensions      [0 2 -2 0 0 0 0];

internalField   nonuniform List<scalar> 
18000
(
0.522914
0.523727
0.524188
0.524611
0.52494
0.525205
0.525469
0.525793
0.526229
0.526819
0.5276
0.528607
0.529877
0.531435
0.533293
0.53545
0.537901
0.540637
0.543647
0.546912
0.550408
0.554101
0.557959
0.561947
0.566033
0.570186
0.574375
0.578574
0.582741
0.586807
0.522417
0.523161
0.52358
0.523957
0.524242
0.524464
0.524686
0.524966
0.525355
0.525894
0.526618
0.527561
0.528756
0.530227
0.531987
0.534036
0.536371
0.538984
0.541861
0.544985
0.548332
0.551872
0.555574
0.559403
0.56333
0.567323
0.571356
0.5754
0.579406
0.583332
0.521937
0.522606
0.522977
0.523307
0.523551
0.523736
0.523922
0.524167
0.524516
0.525011
0.525688
0.526576
0.527706
0.5291
0.53077
0.53272
0.534947
0.537442
0.540192
0.543179
0.54638
0.549768
0.553312
0.55698
0.560744
0.564575
0.568445
0.572326
0.576165
0.57994
0.521457
0.522041
0.52237
0.522657
0.522866
0.523022
0.523181
0.523398
0.523716
0.524177
0.524815
0.525658
0.526732
0.528058
0.529647
0.531506
0.533632
0.536016
0.538643
0.541496
0.544553
0.547789
0.551175
0.554681
0.558279
0.561942
0.565644
0.569355
0.573017
0.576633
0.520994
0.52149
0.521776
0.522021
0.522198
0.52233
0.522468
0.522664
0.522959
0.523394
0.524002
0.524808
0.525834
0.527099
0.528617
0.530393
0.532426
0.534704
0.537213
0.539936
0.542852
0.545937
0.549165
0.552508
0.555937
0.559428
0.562954
0.566487
0.569964
0.573411
0.52054
0.520942
0.521185
0.521392
0.521542
0.521655
0.521778
0.521961
0.522243
0.522662
0.523248
0.524023
0.525009
0.526224
0.52768
0.529384
0.53133
0.533508
0.535902
0.538498
0.541276
0.544213
0.547284
0.550461
0.55372
0.557032
0.560377
0.563724
0.567007
0.570275
0.520097
0.520402
0.520604
0.520776
0.520901
0.521
0.521115
0.521292
0.52157
0.52198
0.522552
0.523305
0.524259
0.525432
0.526837
0.528476
0.530342
0.532424
0.534709
0.537183
0.539826
0.542617
0.545531
0.548543
0.551627
0.554758
0.557914
0.561068
0.56415
0.567228
0.519663
0.51987
0.520031
0.520169
0.520273
0.520362
0.520476
0.520656
0.520937
0.521347
0.521912
0.52265
0.523582
0.524724
0.526086
0.527667
0.529459
0.531451
0.533633
0.535989
0.538501
0.541148
0.543907
0.546753
0.549661
0.552606
0.555569
0.558523
0.561396
0.564276
0.519235
0.519342
0.519463
0.519569
0.519655
0.51974
0.519859
0.52005
0.520342
0.520759
0.521325
0.522057
0.522976
0.524095
0.525422
0.526952
0.528677
0.530587
0.53267
0.534913
0.537298
0.539805
0.54241
0.545091
0.547821
0.550578
0.553342
0.556091
0.558751
0.561422
0.518808
0.518818
0.518898
0.518973
0.519046
0.519131
0.519263
0.519471
0.519781
0.520213
0.520787
0.521522
0.522437
0.523542
0.524841
0.526327
0.527992
0.529826
0.531817
0.533952
0.536215
0.538585
0.54104
0.543556
0.546108
0.548674
0.551238
0.553777
0.556219
0.558672
0.518381
0.518292
0.518333
0.51838
0.518442
0.518533
0.518683
0.518915
0.51925
0.519703
0.520295
0.521042
0.521961
0.52306
0.524338
0.525788
0.5274
0.529165
0.531069
0.533102
0.535248
0.537486
0.539794
0.542147
0.544521
0.546897
0.549258
0.551585
0.553805
0.556034
0.517947
0.517761
0.517764
0.517786
0.517841
0.517944
0.518117
0.518379
0.518744
0.519227
0.519843
0.520609
0.52154
0.522641
0.523906
0.525327
0.526895
0.528596
0.530421
0.532358
0.534392
0.536503
0.538667
0.54086
0.54306
0.545245
0.547404
0.549517
0.551516
0.553512
0.517501
0.517219
0.517188
0.517186
0.51724
0.517358
0.51756
0.517857
0.518259
0.518777
0.519425
0.520219
0.521169
0.522278
0.523538
0.524938
0.526467
0.528113
0.529865
0.531713
0.533642
0.535631
0.537656
0.539693
0.541721
0.54372
0.545677
0.547577
0.549354
0.551115
0.517038
0.516663
0.516599
0.516578
0.516633
0.516772
0.517007
0.517345
0.517789
0.518348
0.519034
0.519862
0.52084
0.521964
0.523226
0.524612
0.526109
0.527706
0.529392
0.531159
0.532989
0.534862
0.536754
0.538641
0.540501
0.542317
0.544076
0.545766
0.547326
0.548849
0.516552
0.516087
0.515992
0.515955
0.516017
0.51618
0.516453
0.516835
0.517327
0.517932
0.518662
0.519531
0.520543
0.52169
0.52296
0.524338
0.525809
0.527365
0.528994
0.530686
0.532425
0.534189
0.535953
0.537695
0.539394
0.541033
0.542599
0.544085
0.545434
0.54672
0.516037
0.515485
0.515363
0.515313
0.515385
0.515577
0.515891
0.516322
0.516864
0.517521
0.518302
0.519218
0.520269
0.521444
0.522728
0.524104
0.525558
0.527078
0.528657
0.530283
0.531937
0.533599
0.535242
0.536846
0.538392
0.539861
0.541243
0.542532
0.54368
0.544731
0.515487
0.514852
0.514706
0.514647
0.514733
0.514957
0.515315
0.515798
0.516395
0.517108
0.517945
0.518913
0.520008
0.521217
0.52252
0.5239
0.525342
0.526835
0.528371
0.529937
0.531514
0.533079
0.534609
0.536083
0.537483
0.538792
0.539999
0.541102
0.54206
0.542883
0.514897
0.514183
0.514016
0.513953
0.514056
0.514314
0.514718
0.515255
0.515911
0.516684
0.517582
0.518607
0.519751
0.520997
0.522323
0.523712
0.525149
0.526622
0.528121
0.529634
0.531139
0.532615
0.534037
0.535389
0.536653
0.537813
0.538857
0.539786
0.540568
0.541173
0.514261
0.513473
0.513289
0.513225
0.513348
0.513642
0.514094
0.514687
0.515404
0.516243
0.517205
0.518291
0.519487
0.520772
0.522126
0.523529
0.524965
0.526423
0.527893
0.529357
0.530796
0.532188
0.53351
0.534748
0.535886
0.536909
0.537802
0.53857
0.539193
0.539593
0.513573
0.512716
0.512519
0.512458
0.512603
0.512935
0.513436
0.514086
0.514868
0.515775
0.516805
0.517954
0.519204
0.520532
0.521916
0.523336
0.524776
0.526224
0.527668
0.529089
0.530466
0.531779
0.533008
0.53414
0.535161
0.536057
0.536814
0.537437
0.537918
0.538132
0.512825
0.511906
0.5117
0.511646
0.511817
0.512187
0.512739
0.513447
0.514295
0.515272
0.516373
0.517586
0.518891
0.520263
0.521679
0.523118
0.524566
0.526008
0.527428
0.528809
0.530128
0.531367
0.532508
0.533541
0.534455
0.535235
0.535868
0.536362
0.536722
0.536771
0.512012
0.511038
0.510826
0.510784
0.510983
0.511394
0.511995
0.512764
0.513678
0.514727
0.515899
0.517177
0.518537
0.519953
0.521402
0.522863
0.524319
0.525756
0.527155
0.528497
0.529761
0.530928
0.531986
0.532926
0.533739
0.534413
0.534936
0.535317
0.535577
0.535488
0.511129
0.510106
0.509893
0.509867
0.510096
0.510548
0.511201
0.512028
0.51301
0.514131
0.515373
0.516715
0.518129
0.519589
0.521071
0.522553
0.524018
0.52545
0.526828
0.528132
0.529341
0.530438
0.531415
0.532266
0.532983
0.533559
0.533982
0.534267
0.534449
0.534252
0.510169
0.509106
0.508896
0.508888
0.50915
0.509645
0.510349
0.511236
0.512285
0.513476
0.514787
0.51619
0.517656
0.519159
0.520672
0.522175
0.523648
0.525072
0.526427
0.527691
0.528844
0.529872
0.530768
0.531529
0.532153
0.532635
0.532968
0.533171
0.533298
0.533029
0.509128
0.508034
0.50783
0.507844
0.50814
0.508679
0.509434
0.51038
0.511495
0.512755
0.514131
0.515593
0.517109
0.518651
0.520193
0.521713
0.52319
0.524604
0.525932
0.527153
0.528247
0.529201
0.530013
0.530683
0.531212
0.531601
0.531848
0.53198
0.532072
0.531772
0.508002
0.506885
0.506692
0.50673
0.507062
0.507645
0.508451
0.509456
0.510636
0.511961
0.513399
0.514915
0.516476
0.518053
0.519621
0.521153
0.52263
0.524028
0.525325
0.526497
0.527525
0.528401
0.529123
0.529694
0.530121
0.530412
0.530571
0.530636
0.530711
0.530427
0.506786
0.505656
0.505478
0.505544
0.505913
0.50654
0.507397
0.508459
0.509701
0.511088
0.512582
0.514146
0.515747
0.517355
0.518942
0.520482
0.521952
0.523327
0.524585
0.525701
0.526657
0.527445
0.528067
0.528528
0.52884
0.529017
0.529074
0.529065
0.529129
0.528916
0.505476
0.504344
0.504185
0.504283
0.50469
0.505361
0.506267
0.507385
0.508685
0.510129
0.511673
0.51328
0.514915
0.516546
0.518145
0.519685
0.52114
0.522485
0.523695
0.524745
0.525619
0.526308
0.526815
0.527149
0.527325
0.527361
0.527288
0.527177
0.527221
0.527148
0.50407
0.502947
0.502812
0.502944
0.503391
0.504105
0.50506
0.50623
0.507583
0.509077
0.510666
0.512308
0.513969
0.515616
0.517218
0.518749
0.52018
0.521485
0.522636
0.52361
0.524388
0.524965
0.525341
0.525525
0.525532
0.525385
0.525124
0.524853
0.524857
0.525067
0.502565
0.501465
0.501359
0.501529
0.502016
0.502771
0.503771
0.50499
0.506392
0.507929
0.509554
0.511223
0.512901
0.514553
0.516149
0.51766
0.519055
0.520308
0.52139
0.522276
0.522947
0.523396
0.523622
0.523628
0.523423
0.523018
0.522445
0.521811
0.521418
0.521506
0.60035
0.618247
0.631302
0.641192
0.647902
0.652906
0.656448
0.659068
0.660912
0.662201
0.663046
0.663481
0.663574
0.663395
0.662952
0.662268
0.661388
0.660317
0.659079
0.657668
0.65608
0.654355
0.652466
0.650473
0.648355
0.646157
0.643912
0.641665
0.639678
0.638035
0.596782
0.614379
0.627538
0.637492
0.644311
0.649442
0.653086
0.655798
0.657748
0.659128
0.660027
0.660542
0.660718
0.660593
0.660197
0.659566
0.658725
0.6577
0.656489
0.655111
0.65356
0.651848
0.649994
0.648003
0.645908
0.643712
0.641478
0.639233
0.637238
0.635597
0.593244
0.610499
0.623738
0.633753
0.640689
0.645954
0.649708
0.652523
0.654582
0.656055
0.657011
0.657605
0.657864
0.657791
0.657445
0.656869
0.656068
0.65509
0.653909
0.652564
0.651051
0.649354
0.647538
0.645552
0.643483
0.641292
0.639072
0.636833
0.63483
0.633191
0.589739
0.606606
0.619893
0.629981
0.637041
0.642438
0.646313
0.649246
0.651409
0.652976
0.654011
0.654678
0.655004
0.654991
0.654701
0.654178
0.653422
0.652485
0.651341
0.650029
0.648548
0.646879
0.64509
0.643129
0.641079
0.638906
0.636695
0.634463
0.632455
0.630813
0.586259
0.602703
0.616008
0.626175
0.633362
0.638896
0.642905
0.645966
0.648232
0.649895
0.651022
0.651758
0.652145
0.652195
0.651965
0.651492
0.650785
0.649885
0.648783
0.647503
0.646054
0.64442
0.642655
0.640729
0.638696
0.636549
0.634346
0.632122
0.630113
0.628465
0.582798
0.598796
0.612085
0.622329
0.62965
0.635333
0.639486
0.642681
0.645056
0.646818
0.648037
0.648842
0.649293
0.649405
0.649234
0.648812
0.648153
0.647294
0.646234
0.644989
0.643574
0.641976
0.640237
0.638347
0.636335
0.634215
0.632026
0.629811
0.627803
0.626147
0.579356
0.594888
0.608121
0.618442
0.625901
0.631747
0.636055
0.639392
0.641884
0.643746
0.645056
0.645933
0.646449
0.646623
0.646508
0.64614
0.645528
0.644711
0.643694
0.642486
0.641106
0.639545
0.637837
0.635982
0.633997
0.631905
0.629734
0.62753
0.625523
0.623861
0.575934
0.590982
0.604115
0.614513
0.622116
0.628138
0.632612
0.6361
0.638717
0.64068
0.642083
0.643032
0.643615
0.64385
0.643791
0.643476
0.642912
0.642138
0.641164
0.639994
0.638651
0.63713
0.635456
0.633637
0.631681
0.62962
0.62747
0.625278
0.623275
0.621607
0.572533
0.587081
0.600069
0.61054
0.618291
0.624503
0.629157
0.632806
0.635553
0.637622
0.639117
0.64014
0.64079
0.641087
0.641083
0.640821
0.640307
0.639576
0.638644
0.637516
0.636211
0.634729
0.633092
0.631312
0.629388
0.627358
0.625233
0.623056
0.621058
0.619384
0.569157
0.583191
0.595983
0.606522
0.614424
0.620841
0.625689
0.629508
0.632394
0.634572
0.636162
0.63726
0.637975
0.638334
0.638386
0.638177
0.637711
0.637025
0.636135
0.635049
0.633784
0.632344
0.630745
0.629006
0.627117
0.62512
0.623024
0.620865
0.618873
0.617193
0.56581
0.579318
0.591859
0.602457
0.610513
0.617149
0.622207
0.626209
0.62924
0.631533
0.633217
0.634392
0.635173
0.635593
0.635701
0.635543
0.635126
0.634485
0.633638
0.632594
0.631371
0.629973
0.628416
0.626719
0.624868
0.622907
0.620843
0.618704
0.616719
0.615033
0.5625
0.575468
0.5877
0.598346
0.606556
0.613427
0.618711
0.622907
0.626093
0.628506
0.630285
0.631537
0.632385
0.632865
0.633027
0.632922
0.632552
0.631957
0.631152
0.630151
0.628972
0.627618
0.626104
0.62445
0.622641
0.620717
0.618688
0.616573
0.614597
0.612905
0.559235
0.57165
0.583511
0.594187
0.602551
0.60967
0.615198
0.619604
0.622954
0.625491
0.627368
0.628698
0.62961
0.63015
0.630368
0.630312
0.62999
0.629439
0.628677
0.62772
0.626587
0.625277
0.623808
0.6222
0.620436
0.618552
0.616562
0.614473
0.612509
0.610812
0.556024
0.567872
0.5793
0.589982
0.598498
0.605877
0.611669
0.616298
0.619823
0.622489
0.624465
0.625874
0.626852
0.627451
0.627722
0.627714
0.62744
0.626934
0.626216
0.625302
0.624216
0.622951
0.621529
0.619969
0.618252
0.61641
0.614463
0.612405
0.610455
0.608753
0.552878
0.564146
0.575077
0.585733
0.594394
0.602045
0.60812
0.612988
0.6167
0.619501
0.621578
0.623066
0.624109
0.624768
0.625091
0.62513
0.624902
0.62444
0.623767
0.622897
0.621858
0.620639
0.619266
0.617755
0.616088
0.614293
0.612391
0.610368
0.608435
0.606729
0.549809
0.560484
0.570853
0.581443
0.590242
0.598174
0.604552
0.609676
0.613585
0.616527
0.618709
0.620276
0.621384
0.622101
0.622475
0.62256
0.622377
0.621958
0.62133
0.620504
0.619514
0.618342
0.617018
0.615558
0.613945
0.612198
0.610345
0.608363
0.606452
0.604743
0.546828
0.556898
0.566643
0.577119
0.586043
0.594263
0.600963
0.60636
0.610479
0.613568
0.615856
0.617504
0.618677
0.619451
0.619875
0.620003
0.619864
0.619489
0.618906
0.618124
0.617182
0.616059
0.614784
0.613377
0.611819
0.610125
0.608326
0.606389
0.604506
0.602796
0.543948
0.553404
0.562461
0.572769
0.5818
0.590315
0.597353
0.603041
0.607383
0.610625
0.613023
0.614753
0.61599
0.616817
0.61729
0.617461
0.617365
0.617033
0.616495
0.615755
0.614861
0.613788
0.612564
0.611209
0.60971
0.608072
0.606331
0.604448
0.602599
0.600889
0.54118
0.550017
0.558328
0.568407
0.57752
0.58633
0.593722
0.599719
0.604296
0.607699
0.61021
0.612022
0.613322
0.614202
0.614721
0.614934
0.61488
0.614589
0.614095
0.613399
0.612551
0.611529
0.610356
0.609055
0.607616
0.606039
0.604361
0.602538
0.600731
0.599027
0.538537
0.546753
0.554262
0.564045
0.573211
0.582313
0.590071
0.596394
0.601219
0.604792
0.607418
0.609314
0.610675
0.611604
0.612169
0.612423
0.612409
0.612158
0.611707
0.611055
0.610252
0.609281
0.608159
0.606912
0.605536
0.604024
0.602415
0.600661
0.598906
0.597212
0.536029
0.543628
0.550286
0.559699
0.568886
0.578267
0.586403
0.593065
0.598151
0.601903
0.604648
0.606627
0.608049
0.609026
0.609633
0.609927
0.609952
0.609739
0.60933
0.608723
0.607963
0.607042
0.605972
0.60478
0.603468
0.602026
0.600491
0.598816
0.597125
0.595449
0.533666
0.540655
0.546422
0.55539
0.564557
0.574201
0.582719
0.589733
0.595093
0.599032
0.6019
0.603964
0.605444
0.606468
0.607116
0.607447
0.607509
0.607334
0.606965
0.606401
0.605684
0.604812
0.603794
0.602658
0.601412
0.600043
0.59859
0.597004
0.595391
0.593743
0.531458
0.537847
0.542692
0.551137
0.560241
0.570123
0.579022
0.586398
0.592045
0.596179
0.599174
0.601324
0.602861
0.60393
0.604616
0.604983
0.60508
0.604941
0.604611
0.604089
0.603414
0.60259
0.601623
0.600545
0.599365
0.598074
0.596708
0.595222
0.593706
0.592099
0.529416
0.535215
0.539118
0.546965
0.555955
0.566046
0.57532
0.583064
0.589006
0.593344
0.59647
0.598707
0.600302
0.601414
0.602136
0.602535
0.602666
0.602562
0.602268
0.601786
0.601151
0.600374
0.599459
0.598438
0.597326
0.596116
0.594843
0.593471
0.59207
0.590526
0.527551
0.532767
0.535719
0.5429
0.551721
0.561983
0.571617
0.579733
0.585979
0.590527
0.59379
0.596116
0.597767
0.598919
0.599675
0.600104
0.600267
0.600196
0.599936
0.599492
0.598896
0.598165
0.5973
0.596336
0.595292
0.594166
0.592993
0.591746
0.590486
0.589032
0.525878
0.530507
0.532511
0.538964
0.547562
0.55795
0.567925
0.576411
0.582965
0.587732
0.591134
0.59355
0.595257
0.596446
0.597234
0.59769
0.597883
0.597843
0.597615
0.597207
0.596648
0.59596
0.595145
0.594239
0.593262
0.592221
0.591154
0.590046
0.588953
0.58763
0.524415
0.528436
0.529508
0.535184
0.543504
0.553967
0.564256
0.573104
0.579968
0.584959
0.588506
0.591011
0.592772
0.593997
0.594813
0.595295
0.595514
0.595503
0.595303
0.594929
0.594406
0.59376
0.592992
0.592144
0.591233
0.590278
0.58932
0.588364
0.587471
0.586335
0.523182
0.526554
0.526727
0.531587
0.539575
0.550045
0.560607
0.569796
0.576967
0.58219
0.585887
0.588484
0.5903
0.59156
0.592403
0.592909
0.593153
0.593168
0.592995
0.592654
0.592164
0.591558
0.590838
0.590045
0.589201
0.58833
0.587486
0.586692
0.586033
0.585168
0.522171
0.524808
0.524143
0.528156
0.535735
0.546117
0.556883
0.566394
0.573877
0.579351
0.583216
0.585919
0.5878
0.589101
0.589975
0.590508
0.590777
0.59082
0.590675
0.590365
0.589911
0.589345
0.588672
0.587934
0.587155
0.586369
0.585638
0.585017
0.584629
0.584154
0.521744
0.523118
0.521614
0.524746
0.531855
0.542119
0.553093
0.562946
0.570769
0.576513
0.580561
0.583377
0.585324
0.586667
0.587567
0.588125
0.588416
0.588482
0.588361
0.58808
0.587657
0.587127
0.586499
0.58581
0.585092
0.584386
0.583764
0.583316
0.583229
0.58331
0.523324
0.518423
0.513521
0.513986
0.520093
0.530715
0.542891
0.554071
0.562975
0.569447
0.57389
0.576858
0.578825
0.58013
0.580983
0.581508
0.581778
0.581841
0.581731
0.581478
0.581103
0.580637
0.580099
0.579524
0.57895
0.578436
0.578086
0.578096
0.578893
0.581062
0.502314
0.499753
0.496383
0.498051
0.505048
0.516071
0.528443
0.539781
0.548866
0.555532
0.560167
0.563311
0.565432
0.56687
0.567841
0.568476
0.568857
0.569034
0.569045
0.568921
0.568685
0.568366
0.56799
0.567593
0.567222
0.566953
0.566914
0.567362
0.568844
0.571964
0.479225
0.48064
0.480799
0.484876
0.492838
0.503645
0.515378
0.526154
0.534924
0.541504
0.546197
0.549464
0.551725
0.553301
0.554401
0.555161
0.555664
0.555966
0.556105
0.556114
0.556016
0.555841
0.555617
0.555381
0.555184
0.555103
0.555271
0.555939
0.557654
0.561008
0.458362
0.463424
0.466953
0.472822
0.481185
0.491443
0.502312
0.512361
0.520713
0.527157
0.531893
0.535284
0.537692
0.539415
0.540657
0.541555
0.542193
0.542631
0.542906
0.543051
0.543093
0.543058
0.542977
0.542885
0.542833
0.542894
0.543195
0.543965
0.545711
0.549057
0.439529
0.447249
0.453251
0.460307
0.468886
0.478685
0.488779
0.498121
0.506039
0.512333
0.517118
0.520661
0.523258
0.52517
0.526594
0.527663
0.528465
0.529058
0.529483
0.529773
0.529954
0.530054
0.530103
0.530135
0.530198
0.53036
0.530737
0.531538
0.533212
0.536425
0.421703
0.431037
0.438674
0.446632
0.455464
0.464958
0.474432
0.483169
0.490706
0.496876
0.501734
0.505463
0.508294
0.510447
0.5121
0.513382
0.51438
0.515155
0.515748
0.516192
0.516517
0.516749
0.516917
0.517055
0.517207
0.517438
0.517851
0.518638
0.520198
0.523229
0.404291
0.41453
0.423229
0.431863
0.440888
0.450141
0.459144
0.467432
0.474693
0.480793
0.485751
0.489688
0.492781
0.495208
0.497125
0.498653
0.499877
0.500856
0.501635
0.502247
0.502722
0.503086
0.503368
0.503601
0.503826
0.504104
0.504527
0.505274
0.506703
0.509532
0.387012
0.39776
0.407115
0.416174
0.425282
0.434336
0.44301
0.450998
0.458084
0.464165
0.469239
0.473391
0.476751
0.479464
0.481662
0.483455
0.484924
0.486126
0.487107
0.4879
0.488533
0.489033
0.489429
0.489752
0.490043
0.490357
0.49078
0.491476
0.492768
0.495389
0.369696
0.380713
0.390432
0.399719
0.408844
0.417748
0.426204
0.433996
0.440978
0.44707
0.452266
0.456625
0.460244
0.463238
0.46572
0.467784
0.469505
0.470941
0.472134
0.473117
0.473916
0.47456
0.475074
0.47549
0.475846
0.476195
0.476615
0.477257
0.478409
0.480798
0.352225
0.363356
0.373249
0.382649
0.391765
0.400559
0.408862
0.416524
0.423444
0.429565
0.434881
0.439432
0.443292
0.446553
0.449308
0.451638
0.453613
0.455285
0.456694
0.457872
0.458844
0.459637
0.460276
0.460791
0.461217
0.461604
0.462024
0.462617
0.463637
0.465795
0.334528
0.345674
0.355633
0.365078
0.374172
0.382879
0.391069
0.398641
0.405527
0.411687
0.417116
0.421841
0.425921
0.429428
0.432439
0.435025
0.437246
0.439149
0.440771
0.442143
0.443289
0.444235
0.445004
0.445625
0.446129
0.446563
0.446991
0.447538
0.448429
0.450338
0.316562
0.327664
0.337623
0.347072
0.356134
0.364768
0.372874
0.380384
0.387255
0.393459
0.398992
0.403874
0.408151
0.411881
0.415129
0.417952
0.420404
0.422527
0.424356
0.425918
0.427237
0.428337
0.429238
0.429966
0.430551
0.431037
0.431484
0.432004
0.432794
0.434468
0.2983
0.309317
0.31924
0.328666
0.337692
0.346266
0.35431
0.361778
0.368646
0.374895
0.380522
0.385543
0.389995
0.393925
0.397386
0.400427
0.403092
0.40542
0.407442
0.409184
0.41067
0.411919
0.412952
0.413793
0.414467
0.415012
0.41548
0.415971
0.416662
0.418105
0.279717
0.290626
0.300492
0.309884
0.318872
0.327399
0.335395
0.342835
0.349708
0.356001
0.361712
0.366855
0.37146
0.375566
0.379215
0.38245
0.38531
0.387826
0.390028
0.391938
0.393579
0.394967
0.396123
0.397068
0.397827
0.398437
0.398944
0.399435
0.400063
0.401294
0.260798
0.271583
0.281389
0.290743
0.299696
0.308183
0.316143
0.323564
0.330444
0.336778
0.342562
0.34781
0.352547
0.356803
0.360617
0.364022
0.367053
0.369737
0.372099
0.374162
0.375946
0.377468
0.378745
0.379794
0.380635
0.381298
0.381825
0.382298
0.382862
0.383891
0.241539
0.252187
0.26194
0.271259
0.280179
0.288631
0.296561
0.303967
0.310856
0.317223
0.323069
0.328404
0.333249
0.337632
0.341583
0.345134
0.348313
0.351144
0.353649
0.355846
0.357752
0.359385
0.360763
0.361904
0.362828
0.363561
0.364135
0.364617
0.365138
0.365983
0.221947
0.232449
0.242162
0.251451
0.260336
0.268754
0.276656
0.284049
0.290942
0.297334
0.303227
0.308629
0.31356
0.318044
0.322107
0.325775
0.329074
0.332027
0.334652
0.336969
0.338991
0.34073
0.3422
0.343413
0.344387
0.34515
0.345734
0.3462
0.346674
0.347329
0.202058
0.212395
0.222082
0.231341
0.240183
0.248561
0.256434
0.26381
0.2707
0.277106
0.283029
0.288477
0.293468
0.298024
0.302169
0.305927
0.30932
0.312368
0.315086
0.317489
0.319592
0.321411
0.322961
0.324253
0.325298
0.326111
0.326719
0.327175
0.327605
0.32809
0.181946
0.192085
0.201743
0.210961
0.219742
0.228065
0.235902
0.243254
0.250132
0.256537
0.262471
0.267941
0.272965
0.277563
0.281756
0.28557
0.289026
0.292143
0.294938
0.297419
0.299593
0.301468
0.303055
0.304372
0.305433
0.306256
0.306858
0.307282
0.307649
0.307925
0.161749
0.171624
0.181217
0.190354
0.199039
0.207285
0.215071
0.222389
0.229239
0.235623
0.241541
0.247003
0.252025
0.25663
0.26084
0.264676
0.268157
0.2713
0.274121
0.276634
0.278852
0.280783
0.282429
0.283793
0.284883
0.285712
0.286301
0.286689
0.286996
0.287092
0.141683
0.151176
0.160606
0.169584
0.178112
0.186242
0.193956
0.201221
0.208025
0.214365
0.220241
0.225665
0.230652
0.235224
0.239406
0.243224
0.246701
0.249854
0.252687
0.255205
0.257414
0.259327
0.260956
0.26231
0.263392
0.264203
0.264747
0.265055
0.26525
0.265088
0.122041
0.130964
0.140051
0.148735
0.157015
0.164973
0.172579
0.179765
0.186492
0.192751
0.198544
0.203885
0.208793
0.21329
0.217399
0.221145
0.224553
0.227646
0.230443
0.232952
0.235171
0.237095
0.238724
0.240065
0.241126
0.241913
0.242422
0.242665
0.242752
0.242361
0.103151
0.111254
0.119734
0.127926
0.135829
0.143531
0.150975
0.158043
0.164662
0.170809
0.176485
0.181702
0.186478
0.190844
0.194833
0.198476
0.201792
0.204792
0.207485
0.209884
0.212007
0.213858
0.215434
0.216727
0.217732
0.218449
0.218869
0.218987
0.218896
0.218163
0.0853115
0.0923175
0.0998682
0.107319
0.114675
0.122003
0.129195
0.136072
0.142515
0.148485
0.153982
0.159016
0.163603
0.16777
0.171557
0.175006
0.178155
0.181028
0.18363
0.185957
0.188005
0.189777
0.191278
0.192511
0.19347
0.194148
0.194513
0.194522
0.194226
0.193171
0.068731
0.0743872
0.080691
0.0871297
0.0937283
0.100523
0.107347
0.113951
0.120158
0.125901
0.131162
0.135944
0.140271
0.144183
0.147726
0.150931
0.153822
0.156433
0.158794
0.16092
0.16281
0.164447
0.165821
0.166928
0.167768
0.168347
0.168625
0.168501
0.16793
0.166401
0.0535055
0.0576524
0.0624598
0.0676262
0.073231
0.0792733
0.0855169
0.0916548
0.0974778
0.102883
0.107818
0.112259
0.11622
0.119761
0.122955
0.125859
0.128504
0.1309
0.133051
0.134969
0.136666
0.138146
0.139399
0.140405
0.141153
0.141651
0.141874
0.14166
0.140809
0.138856
0.0396176
0.0422552
0.0454384
0.0491098
0.0535153
0.0586154
0.0640789
0.0695687
0.074859
0.0798012
0.0842955
0.0882949
0.0918073
0.0948801
0.0975806
0.0999859
0.102166
0.104159
0.105968
0.107586
0.109007
0.110234
0.111265
0.112086
0.112677
0.113052
0.113208
0.112933
0.111787
0.109292
0.02695
0.0282492
0.0298649
0.0318737
0.0348512
0.0386744
0.0429502
0.0474267
0.0519149
0.0561913
0.0600635
0.0634481
0.066368
0.0688994
0.0711214
0.0730946
0.07486
0.0764447
0.07787
0.0791505
0.0802874
0.0812718
0.0820932
0.0827363
0.0831777
0.0834278
0.0835436
0.0833327
0.0820659
0.0792595
0.0152411
0.0154877
0.0157016
0.0162558
0.0181577
0.020673
0.0234576
0.0265466
0.0298614
0.0331429
0.0361158
0.0386153
0.0406261
0.0422555
0.0436512
0.0449138
0.046069
0.0471059
0.0480219
0.048834
0.0495571
0.0501885
0.0507151
0.0511216
0.0513791
0.0514684
0.0514694
0.0513628
0.0503118
0.0474785
0.00452466
0.00346468
6.85452e-05
-0.000703855
0.00141172
0.0030127
0.00427047
0.00575637
0.00755142
0.00945633
0.0112375
0.012732
0.0138852
0.0147445
0.0154095
0.0159676
0.016465
0.0169104
0.0173025
0.017647
0.0179517
0.0182169
0.0184373
0.0186099
0.0187211
0.0187243
0.0186287
0.0186064
0.018371
0.0164664
0.504355
0.484616
0.46474
0.446036
0.428481
0.411278
0.394153
0.377016
0.359782
0.342385
0.324782
0.306933
0.288818
0.270419
0.251734
0.232777
0.213569
0.19418
0.174693
0.15525
0.136047
0.117328
0.0993743
0.0824186
0.0666411
0.0521263
0.0388538
0.0266981
0.0153876
0.00483119
0.502455
0.481172
0.461353
0.442588
0.42499
0.407787
0.390699
0.373623
0.356456
0.339129
0.321598
0.303823
0.285783
0.267462
0.248857
0.229987
0.210871
0.191587
0.172224
0.152933
0.133924
0.115441
0.0977658
0.0811153
0.0656545
0.0514469
0.0384501
0.0265167
0.0153634
0.00489706
0.499975
0.477301
0.457677
0.439007
0.421463
0.404317
0.387288
0.370273
0.35317
0.33591
0.318449
0.300745
0.28278
0.264537
0.246014
0.227232
0.208209
0.189032
0.169793
0.150651
0.131823
0.113554
0.096124
0.0797433
0.0645726
0.0506644
0.0379546
0.0262651
0.0152868
0.00493826
0.496899
0.473369
0.453996
0.435451
0.41796
0.400878
0.383911
0.36696
0.349923
0.332729
0.315335
0.297701
0.27981
0.261645
0.243201
0.224504
0.205575
0.186505
0.167392
0.148402
0.129763
0.111719
0.0945464
0.0784442
0.0635641
0.0499445
0.0375022
0.0260356
0.0152145
0.00496658
0.493408
0.469445
0.450315
0.431916
0.414486
0.397473
0.380574
0.363689
0.346717
0.329587
0.31226
0.294695
0.276876
0.258785
0.24042
0.221807
0.202971
0.184007
0.165023
0.14619
0.127745
0.109932
0.093024
0.0772075
0.0626214
0.049286
0.037097
0.0258334
0.0151514
0.00498487
0.48957
0.465533
0.446635
0.428402
0.411041
0.394107
0.377279
0.36046
0.343553
0.326487
0.309225
0.291728
0.273978
0.255961
0.237672
0.219143
0.200399
0.181542
0.162688
0.144016
0.125771
0.108196
0.0915568
0.0760296
0.0617368
0.048679
0.0367301
0.0256521
0.0150944
0.00499439
0.485441
0.461633
0.442962
0.424914
0.407632
0.39078
0.374027
0.357274
0.340432
0.323429
0.306232
0.2888
0.271119
0.253172
0.234959
0.216511
0.19786
0.17911
0.16039
0.141884
0.123844
0.106513
0.0901481
0.0749131
0.0609111
0.048122
0.0363991
0.0254896
0.0150431
0.00499677
0.481088
0.457747
0.4393
0.421454
0.404262
0.387495
0.370818
0.354133
0.337355
0.320416
0.303282
0.285914
0.268298
0.250421
0.232281
0.213914
0.195355
0.176715
0.158131
0.139796
0.121967
0.104885
0.0888005
0.0738597
0.0601451
0.047615
0.0361033
0.0253454
0.0149972
0.00499386
0.476577
0.453877
0.435657
0.418024
0.400934
0.384253
0.367654
0.351037
0.334323
0.317448
0.300375
0.28307
0.265519
0.247709
0.229641
0.211352
0.192886
0.174358
0.155914
0.137754
0.120142
0.103315
0.0875151
0.0728692
0.0594376
0.0471563
0.0358407
0.0252188
0.0149563
0.00499395
0.471967
0.450023
0.432039
0.414625
0.397649
0.381055
0.364536
0.347989
0.331339
0.314526
0.297514
0.28027
0.262783
0.245039
0.227039
0.208829
0.190456
0.17204
0.153739
0.13576
0.11837
0.101805
0.0862917
0.0719401
0.0587862
0.0467429
0.0356083
0.0251077
0.0149196
0.00498484
0.467314
0.446189
0.428454
0.411259
0.394409
0.377904
0.361464
0.344987
0.328402
0.31165
0.294699
0.277516
0.26009
0.24241
0.224478
0.206345
0.188066
0.169765
0.151609
0.133815
0.116653
0.100353
0.08513
0.0710706
0.0581876
0.0463713
0.0354031
0.0250102
0.0148865
0.00497439
0.462663
0.442378
0.424905
0.40793
0.391214
0.374801
0.358441
0.342034
0.325513
0.308822
0.291931
0.274809
0.257443
0.239824
0.22196
0.203903
0.185718
0.167534
0.149528
0.131924
0.114995
0.0989636
0.0840302
0.0702595
0.0576394
0.0460383
0.0352222
0.0249245
0.0148567
0.00496354
0.458052
0.438596
0.421399
0.40464
0.388066
0.371747
0.355468
0.339129
0.322672
0.306043
0.28921
0.272147
0.25484
0.237282
0.219485
0.201505
0.183415
0.16535
0.147497
0.130089
0.113397
0.0976373
0.082993
0.0695061
0.0571395
0.0457413
0.0350635
0.0248492
0.01483
0.00495277
0.453512
0.434851
0.417939
0.401394
0.384967
0.368743
0.352544
0.336275
0.31988
0.303313
0.286538
0.269533
0.252283
0.234785
0.217055
0.199152
0.181157
0.163214
0.14552
0.128313
0.111862
0.0963767
0.0820194
0.0688103
0.0566864
0.0454778
0.0349248
0.0247832
0.0148062
0.00494263
0.449066
0.431151
0.41453
0.398195
0.381919
0.365791
0.349673
0.333472
0.317141
0.300633
0.283916
0.266967
0.249773
0.232335
0.214671
0.196845
0.178947
0.16113
0.1436
0.126599
0.110394
0.0951832
0.0811099
0.0681712
0.0562781
0.0452454
0.034804
0.0247253
0.0147851
0.00493337
0.44473
0.427504
0.411178
0.395047
0.378923
0.362893
0.346855
0.330724
0.314454
0.298006
0.281343
0.26445
0.247312
0.229932
0.212335
0.194586
0.176787
0.159098
0.141737
0.124947
0.108992
0.0940571
0.0802637
0.0675874
0.0559121
0.0450412
0.034699
0.0246742
0.0147662
0.00492516
0.440516
0.423918
0.407886
0.391952
0.375981
0.36005
0.344092
0.32803
0.311821
0.295431
0.278823
0.261983
0.2449
0.227578
0.210046
0.192374
0.174677
0.15712
0.139933
0.123359
0.107657
0.092998
0.0794796
0.0670561
0.0555855
0.0448621
0.0346076
0.024629
0.0147494
0.00491806
0.43643
0.420399
0.404657
0.388914
0.373095
0.357264
0.341386
0.325392
0.309244
0.29291
0.276356
0.259568
0.24254
0.225273
0.207807
0.190212
0.172618
0.155198
0.138189
0.121836
0.106388
0.0920049
0.0787554
0.0665744
0.0552948
0.0447054
0.0345279
0.0245888
0.0147346
0.00491213
0.432477
0.416956
0.401495
0.385937
0.370266
0.354536
0.338737
0.322811
0.306723
0.290444
0.273943
0.257207
0.240231
0.223019
0.205617
0.188102
0.170613
0.153334
0.136507
0.120377