/*--------------------------------*- C++ -*----------------------------------*\
  =========                 |
  \\      /  F ield         | OpenFOAM: The Open Source CFD Toolbox
   \\    /   O peration     | Website:  https://openfoam.org
    \\  /    A nd           | Version:  7
     \\/     M anipulation  |
\*---------------------------------------------------------------------------*/
FoamFile
{
    version     2.0;
    format      ascii;
    class       volScalarField;
    location    "9.1";
    object      p;
}
// * * * * * * * * * * * * * * * * * * * * * * * * * * * * * * * * * * * * * //

dimensions      [0 2 -2 0 0 0 0];

internalField   nonuniform List<scalar> 
18000
(
0.352007
0.353064
0.353791
0.354533
0.355188
0.355747
0.35622
0.356632
0.357021
0.357425
0.357888
0.358454
0.359168
0.360073
0.361203
0.362589
0.364259
0.366233
0.368523
0.371133
0.374056
0.377279
0.380786
0.384555
0.388557
0.392763
0.397134
0.401637
0.406225
0.410831
0.3516
0.352612
0.353295
0.353984
0.354583
0.355085
0.355497
0.355846
0.356171
0.356509
0.356899
0.357383
0.358006
0.358806
0.35982
0.361079
0.362609
0.364432
0.366559
0.368996
0.371737
0.374774
0.378092
0.381672
0.385491
0.389518
0.39372
0.398062
0.402492
0.406957
0.35121
0.352168
0.352799
0.35343
0.353971
0.354416
0.354769
0.355059
0.355325
0.355602
0.355927
0.356339
0.35688
0.357588
0.358499
0.359643
0.361048
0.362732
0.364709
0.366984
0.369555
0.372414
0.375552
0.378951
0.38259
0.386441
0.390472
0.394651
0.398916
0.403235
0.350822
0.351716
0.352295
0.352869
0.353352
0.353741
0.354041
0.354278
0.35449
0.354713
0.354979
0.355328
0.355798
0.356425
0.357245
0.358288
0.359579
0.361138
0.362976
0.365102
0.367513
0.370206
0.373171
0.376396
0.37986
0.383537
0.387399
0.391412
0.395509
0.399674
0.350448
0.351272
0.351797
0.352312
0.352737
0.353071
0.353319
0.353508
0.353673
0.353846
0.354061
0.354354
0.354761
0.355319
0.356061
0.357015
0.358205
0.35965
0.361362
0.36335
0.365615
0.368152
0.370955
0.374014
0.377309
0.380816
0.384508
0.388354
0.39228
0.396289
0.350086
0.350833
0.351301
0.351756
0.352125
0.352405
0.352606
0.352752
0.352874
0.353004
0.353174
0.353419
0.353775
0.354275
0.35495
0.355828
0.356928
0.358271
0.35987
0.361733
0.363862
0.366255
0.368908
0.371809
0.374941
0.378282
0.381808
0.385488
0.38924
0.393089
0.349742
0.350404
0.350814
0.351207
0.35152
0.35175
0.351908
0.352015
0.3521
0.352191
0.352323
0.352529
0.352843
0.353296
0.353916
0.354728
0.355751
0.357004
0.358503
0.360254
0.36226
0.364521
0.367032
0.369785
0.372762
0.375943
0.379305
0.38282
0.3864
0.390087
0.349416
0.349987
0.350337
0.350666
0.350924
0.351107
0.351226
0.351299
0.351351
0.351411
0.351512
0.351688
0.351971
0.352387
0.352962
0.353718
0.354676
0.355853
0.357263
0.358914
0.36081
0.362951
0.365333
0.367946
0.370776
0.373802
0.377006
0.38036
0.383768
0.387291
0.34911
0.349582
0.34987
0.350136
0.35034
0.35048
0.350564
0.350607
0.350632
0.350667
0.350746
0.350902
0.351162
0.351551
0.352091
0.352802
0.353706
0.35482
0.356155
0.357718
0.359516
0.361549
0.363811
0.366295
0.368985
0.371865
0.374916
0.378112
0.38135
0.384709
0.348822
0.349188
0.349413
0.349617
0.34977
0.34987
0.349923
0.349941
0.349944
0.349962
0.350028
0.350172
0.350419
0.350789
0.351304
0.351983
0.352846
0.353907
0.355179
0.356669
0.358381
0.360316
0.362469
0.364833
0.367395
0.370135
0.37304
0.376082
0.379152
0.382348
0.34855
0.348804
0.348966
0.349108
0.349214
0.349278
0.349304
0.349301
0.349291
0.3493
0.349361
0.349502
0.349744
0.350106
0.350606
0.351263
0.352096
0.353117
0.354338
0.355766
0.357405
0.359254
0.361309
0.363564
0.366005
0.368615
0.371379
0.374272
0.377178
0.380211
0.348292
0.348426
0.348526
0.34861
0.348671
0.348703
0.348706
0.34869
0.348672
0.348681
0.348746
0.348892
0.349138
0.349501
0.349997
0.350643
0.351456
0.35245
0.353633
0.355011
0.356588
0.358363
0.360332
0.362489
0.364819
0.367306
0.369935
0.372684
0.375432
0.378304
0.348043
0.348053
0.348092
0.34812
0.348139
0.348144
0.348129
0.348105
0.348087
0.348104
0.348181
0.348341
0.348601
0.348975
0.349476
0.350122
0.350927
0.351904
0.353061
0.354403
0.35593
0.357643
0.359538
0.361607
0.363835
0.366207
0.36871
0.371321
0.373916
0.376629
0.3478
0.34768
0.347659
0.347634
0.347616
0.347597
0.347571
0.347544
0.347535
0.347567
0.347665
0.347848
0.348131
0.348525
0.349043
0.349698
0.350506
0.351479
0.352622
0.353939
0.35543
0.357092
0.358924
0.360915
0.363052
0.365317
0.367701
0.370182
0.372631
0.375188
0.347556
0.347303
0.347224
0.34715
0.347099
0.347061
0.347028
0.347006
0.347012
0.347067
0.347195
0.347411
0.347726
0.348149
0.348692
0.349368
0.35019
0.35117
0.352312
0.353617
0.355082
0.356707
0.358485
0.36041
0.362464
0.364633
0.366907
0.369266
0.371577
0.373982
0.347307
0.346918
0.346783
0.346664
0.346584
0.346531
0.346496
0.346486
0.346514
0.346601
0.346767
0.347024
0.34738
0.347842
0.34842
0.349126
0.349974
0.350972
0.352125
0.353429
0.354882
0.356479
0.358217
0.360084
0.362067
0.36415
0.366323
0.368568
0.37075
0.373008
0.347046
0.346519
0.346332
0.346171
0.346067
0.346003
0.345972
0.345979
0.346037
0.346164
0.346376
0.346682
0.347088
0.347597
0.34822
0.348967
0.349851
0.35088
0.352055
0.353369
0.35482
0.356402
0.358109
0.359931
0.361853
0.36386
0.365943
0.368084
0.370146
0.372262
0.346766
0.346102
0.345866
0.345666
0.345542
0.345473
0.345451
0.345481
0.345576
0.345751
0.346016
0.346379
0.346842
0.347408
0.348084
0.348882
0.349813
0.350884
0.352091
0.353427
0.354886
0.356463
0.358151
0.359939
0.361811
0.363753
0.365757
0.367804
0.369757
0.371738
0.346459
0.34566
0.345378
0.345144
0.345004
0.344934
0.344926
0.344986
0.345125
0.345354
0.34568
0.346107
0.346634
0.347264
0.348003
0.348862
0.349851
0.350973
0.352222
0.353589
0.355068
0.356652
0.358332
0.360096
0.36193
0.363819
0.365753
0.367717
0.369575
0.371427
0.346117
0.345185
0.344861
0.344598
0.344446
0.34438
0.344392
0.344488
0.344677
0.344966
0.345359
0.345855
0.346454
0.347155
0.347966
0.348895
0.349951
0.351133
0.352434
0.353843
0.355351
0.356952
0.358634
0.360386
0.362194
0.364042
0.36592
0.367813
0.369587
0.371321
0.345731
0.344671
0.34431
0.344021
0.343862
0.343804
0.343841
0.343979
0.344223
0.344578
0.345043
0.345614
0.34629
0.34707
0.34796
0.348968
0.3501
0.35135
0.352711
0.35417
0.355718
0.357345
0.359041
0.360793
0.362586
0.364405
0.366239
0.368075
0.369782
0.371407
0.345293
0.344111
0.343716
0.343405
0.343243
0.343199
0.343266
0.34345
0.343755
0.34418
0.344721
0.345373
0.346132
0.346996
0.347973
0.349067
0.350281
0.351608
0.353036
0.354553
0.356149
0.357813
0.359532
0.361294
0.363086
0.364888
0.366692
0.368486
0.370142
0.371673
0.344794
0.343497
0.343072
0.342744
0.342582
0.342556
0.342658
0.342894
0.343263
0.343762
0.344383
0.345119
0.345965
0.34692
0.347988
0.349176
0.350478
0.351887
0.353389
0.354972
0.356623
0.358331
0.360083
0.361867
0.363668
0.365468
0.367256
0.369024
0.370649
0.372101
0.344224
0.342822
0.342371
0.34203
0.341873
0.341868
0.342009
0.3423
0.342736
0.343312
0.344016
0.34484
0.345777
0.346826
0.347992
0.349277
0.350673
0.352168
0.35375
0.355404
0.357117
0.358877
0.36067
0.362485
0.364307
0.366117
0.367904
0.369665
0.371281
0.372673
0.343575
0.342078
0.341606
0.341257
0.341109
0.34113
0.341312
0.34166
0.342165
0.342819
0.343609
0.344523
0.345553
0.3467
0.347967
0.349353
0.350846
0.352432
0.354096
0.355825
0.357605
0.359422
0.361264
0.363118
0.36497
0.366803
0.368606
0.370379
0.372012
0.373368
0.342838
0.341259
0.340771
0.340419
0.340284
0.340333
0.34056
0.340965
0.34154
0.342274
0.34315
0.344156
0.345281
0.346528
0.347898
0.349386
0.350977
0.352656
0.354406
0.356213
0.358062
0.35994
0.361834
0.363732
0.365623
0.36749
0.369324
0.371132
0.372812
0.374162
0.342008
0.34036
0.339861
0.33951
0.339392
0.339473
0.339745
0.340208
0.340853
0.341665
0.342629
0.343725
0.344947
0.346294
0.347768
0.349358
0.351047
0.352819
0.354655
0.35654
0.35846
0.360399
0.362347
0.364293
0.366226
0.368135
0.370013
0.371878
0.37364
0.375029
0.341078
0.339377
0.338872
0.338528
0.33843
0.338544
0.338863
0.339383
0.340095
0.340985
0.342033
0.34322
0.344537
0.345984
0.34756
0.34925
0.351036
0.352898
0.354819
0.356782
0.35877
0.36077
0.362769
0.36476
0.366736
0.368687
0.370616
0.372555
0.374444
0.375944
0.340044
0.338307
0.337801
0.337467
0.337393
0.337543
0.337907
0.338482
0.339259
0.340225
0.341355
0.342629
0.34404
0.345585
0.347259
0.349046
0.350924
0.352874
0.354875
0.356911
0.358964
0.361019
0.363065
0.365094
0.367102
0.369089
0.371066
0.373094
0.375188
0.376965
0.338905
0.337149
0.336646
0.336326
0.336278
0.336465
0.336874
0.337501
0.338341
0.339377
0.340585
0.341944
0.343444
0.345082
0.346849
0.348726
0.350691
0.352722
0.354799
0.356902
0.359013
0.361115
0.363197
0.36525
0.367271
0.369265
0.371258
0.373353
0.37565
0.377854
0.426471
0.449281
0.467774
0.481857
0.492187
0.499784
0.505288
0.509282
0.512129
0.51413
0.515466
0.516307
0.51676
0.516896
0.516768
0.516441
0.515944
0.515275
0.514449
0.513484
0.512373
0.511128
0.509761
0.508264
0.506666
0.504957
0.503202
0.501394
0.499756
0.498265
0.422669
0.445305
0.464106
0.478388
0.4889
0.496623
0.502227
0.506303
0.509226
0.511301
0.512718
0.513624
0.514133
0.514326
0.514271
0.514006
0.513556
0.512938
0.512166
0.511236
0.510167
0.508955
0.507614
0.506152
0.504566
0.502881
0.501127
0.499325
0.497682
0.496185
0.418995
0.441367
0.460452
0.474912
0.485603
0.49345
0.499156
0.503319
0.506321
0.50847
0.509968
0.51094
0.511508
0.51176
0.511779
0.511577
0.511174
0.510609
0.50989
0.508996
0.50797
0.506794
0.50548
0.504053
0.502482
0.500824
0.499073
0.497279
0.495634
0.494133
0.415454
0.437474
0.456822
0.47143
0.482292
0.490267
0.496079
0.500335
0.50342
0.505641
0.50721
0.508253
0.508888
0.509208
0.50929
0.509148
0.508802
0.508289
0.507617
0.506769
0.505783
0.504645
0.503363
0.501962
0.500417
0.498776
0.497043
0.495259
0.493615
0.492111
0.412053
0.433636
0.453221
0.467949
0.478975
0.487077
0.492999
0.497349
0.500519
0.502813
0.504451
0.505566
0.506273
0.506664
0.506804
0.506722
0.506437
0.505977
0.50535
0.504553
0.503606
0.502508
0.501261
0.499885
0.498369
0.496746
0.495034
0.493261
0.491621
0.490116
0.408802
0.429862
0.449654
0.464477
0.47566
0.483886
0.489917
0.494361
0.497617
0.499986
0.501695
0.502883
0.50366
0.504121
0.504325
0.504304
0.504079
0.503673
0.503093
0.502346
0.50144
0.500382
0.499172
0.497824
0.49634
0.494736
0.493047
0.491287
0.489651
0.488147
0.405709
0.426162
0.446127
0.461016
0.472351
0.480695
0.486834
0.491373
0.494714
0.497161
0.498941
0.500203
0.501052
0.501583
0.501853
0.501893
0.501727
0.501377
0.500846
0.500147
0.499286
0.498269
0.497096
0.49578
0.494327
0.492747
0.491081
0.489338
0.487707
0.486202
0.402779
0.422548
0.442647
0.457571
0.469048
0.477507
0.483752
0.488386
0.491814
0.494339
0.496193
0.497528
0.49845
0.499051
0.499387
0.49949
0.499384
0.499089
0.498608
0.497958
0.497143
0.496167
0.495033
0.49375
0.492332
0.49078
0.489137
0.487411
0.485787
0.484282
0.400015
0.41903
0.439219
0.454147
0.465755
0.474322
0.480672
0.485403
0.488916
0.491522
0.49345
0.49486
0.495855
0.496526
0.496929
0.497095
0.497048
0.496809
0.496382
0.49578
0.49501
0.494077
0.492984
0.491737
0.490354
0.488833
0.487216
0.485508
0.483893
0.482388
0.397424
0.415619
0.43585
0.450747
0.462473
0.471141
0.477596
0.482424
0.486024
0.488712
0.490714
0.4922
0.493267
0.494009
0.49448
0.49471
0.494723
0.494539
0.494165
0.493612
0.492888
0.491999
0.490948
0.48974
0.488394
0.486907
0.485317
0.483629
0.482023
0.48052
0.395009
0.412329
0.432547
0.447377
0.459204
0.467967
0.474524
0.479451
0.483138
0.485909
0.487986
0.489547
0.490689
0.4915
0.492039
0.492334
0.492407
0.492279
0.491959
0.491454
0.490777
0.489933
0.488926
0.487759
0.486452
0.485001
0.48344
0.481775
0.480179
0.478678
0.392773
0.40917
0.429315
0.44404
0.455951
0.4648
0.471459
0.476485
0.48026
0.483114
0.485268
0.486904
0.488119
0.489001
0.489608
0.489967
0.490101
0.490028
0.489762
0.489307
0.488678
0.48788
0.486918
0.485794
0.484527
0.483115
0.481586
0.479946
0.478362
0.476863
0.39072
0.406155
0.42616
0.440741
0.452715
0.461641
0.4684
0.473527
0.47739
0.480328
0.48256
0.484271
0.485561
0.486513
0.487188
0.487612
0.487805
0.487788
0.487574
0.487171
0.486591
0.48584
0.484925
0.483845
0.482621
0.481249
0.479755
0.478142
0.476571
0.475075
0.388852
0.403294
0.42309
0.437485
0.449498
0.458492
0.465348
0.470579
0.474531
0.477553
0.479864
0.48165
0.483014
0.484037
0.48478
0.485268
0.48552
0.485558
0.485398
0.485046
0.484515
0.483813
0.482944
0.481911
0.480733
0.479403
0.477946
0.476363
0.474808
0.473315
0.387171
0.400601
0.420109
0.434277
0.446304
0.455354
0.462305
0.467639
0.471682
0.474788
0.477181
0.479042
0.480481
0.481575
0.482384
0.482935
0.483246
0.483339
0.483233
0.482933
0.482451
0.481798
0.480978
0.479993
0.478861
0.477577
0.476158
0.474609
0.473073
0.471583
0.385677
0.398086
0.417226
0.431126
0.443133
0.452229
0.45927
0.46471
0.468845
0.472037
0.474512
0.476448
0.477962
0.479127
0.480002
0.480616
0.480984
0.481132
0.481079
0.480832
0.480399
0.479795
0.479024
0.478089
0.477005
0.475769
0.474393
0.47288
0.471366
0.469881
0.384369
0.395761
0.414448
0.428036
0.43999
0.449118
0.456244
0.461792
0.466018
0.469297
0.471856
0.473869
0.475459
0.476694
0.477634
0.478309
0.478735
0.478937
0.478938
0.478742
0.478358
0.477805
0.477084
0.476199
0.475165
0.473979
0.472649
0.471177
0.46969
0.46821
0.383249
0.393637
0.411783
0.425015
0.436879
0.446024
0.453228
0.458884
0.463203
0.466572
0.469215
0.471306
0.472971
0.474277
0.475281
0.476016
0.476499
0.476755
0.476809
0.476665
0.47633
0.475826
0.475156
0.474322
0.473339
0.472207
0.470927
0.4695
0.468046
0.466572
0.382313
0.391724
0.409241
0.422071
0.433804
0.442947
0.450223
0.455987
0.4604
0.463859
0.466588
0.46876
0.4705
0.471877
0.472943
0.473737
0.474276
0.474587
0.474691
0.4746
0.474314
0.473858
0.473239
0.472458
0.471528
0.470451
0.469227
0.46785
0.466433
0.464969
0.381561
0.390031
0.406831
0.41921
0.430769
0.43989
0.44723
0.453102
0.457608
0.461161
0.463978
0.466232
0.468046
0.469492
0.470621
0.471472
0.472067
0.472433
0.472587
0.472545
0.472308
0.471902
0.471332
0.470605
0.469729
0.46871
0.467547
0.466227
0.464853
0.463402
0.38099
0.388566
0.404561
0.416441
0.42778
0.436858
0.44425
0.450229
0.454827
0.458477
0.461385
0.463722
0.465611
0.467126
0.468315
0.469224
0.469874
0.470292
0.470495
0.470503
0.470314
0.469956
0.469436
0.468762
0.467942
0.466985
0.465887
0.46463
0.463308
0.461875
0.380596
0.387334
0.402441
0.413772
0.424844
0.433854
0.441284
0.447369
0.452059
0.455808
0.458809
0.461232
0.463195
0.464777
0.466027
0.466992
0.467695
0.468165
0.468416
0.468471
0.468331
0.46802
0.467549
0.466929
0.466166
0.465273
0.464246
0.463059
0.461799
0.460391
0.380377
0.386339
0.400477
0.411212
0.421965
0.430883
0.438334
0.444521
0.449302
0.453154
0.456252
0.458761
0.460798
0.462448
0.463758
0.464777
0.465532
0.466052
0.466349
0.466451
0.466358
0.466093
0.465671
0.465104
0.4644
0.463573
0.462621
0.461514
0.460327
0.458955
0.380327
0.385579
0.398675
0.408771
0.419152
0.427946
0.435403
0.441685
0.446558
0.450517
0.453714
0.456311
0.458422
0.460138
0.461507
0.46258
0.463386
0.463952
0.464296
0.464442
0.464394
0.464174
0.463801
0.463287
0.462643
0.461884
0.461012
0.459994
0.458894
0.457573
0.380442
0.385052
0.397044
0.406459
0.416413
0.425051
0.432495
0.438864
0.443827
0.447895
0.451194
0.45388
0.456067
0.457848
0.459275
0.4604
0.461254
0.461867
0.462256
0.462443
0.462439
0.462263
0.461939
0.461476
0.460893
0.460203
0.459415
0.458497
0.457502
0.456252
0.380722
0.384751
0.395588
0.404285
0.41376
0.422202
0.429616
0.436059
0.441111
0.44529
0.448693
0.451469
0.453733
0.455579
0.457063
0.458238
0.459139
0.459795
0.460227
0.460454
0.460493
0.46036
0.460082
0.459671
0.459148
0.458529
0.457829
0.45702
0.456151
0.455002
0.381167
0.384664
0.394315
0.402263
0.411203
0.419409
0.426776
0.433275
0.438411
0.442702
0.446212
0.44908
0.451422
0.453331
0.45487
0.456093
0.457041
0.457738
0.458209
0.458474
0.458555
0.458464
0.458232
0.457871
0.457408
0.456859
0.456249
0.45556
0.45484
0.453835
0.381739
0.384761
0.393225
0.400402
0.408752
0.41668
0.423981
0.430512
0.435729
0.44013
0.443749
0.446711
0.449128
0.451099
0.452692
0.453963
0.454954
0.45569
0.4562
0.456501
0.456622
0.456571
0.456383
0.456072
0.455667
0.455189
0.45467
0.454108
0.453565
0.452767
0.382342
0.384937
0.392256
0.398675
0.406388
0.413994
0.421212
0.427744
0.433032
0.437541
0.441269
0.444326
0.446823
0.448858
0.450508
0.451827
0.452861
0.453636
0.454184
0.454523
0.454683
0.454673
0.454529
0.454267
0.453919
0.453509
0.453082
0.452656
0.452318
0.451818
0.383644
0.385434
0.391497
0.397091
0.404097
0.411316
0.418415
0.424895
0.430244
0.434868
0.438727
0.441903
0.444499
0.446613
0.448328
0.4497
0.450779
0.451594
0.452178
0.452553
0.452748
0.452777
0.452673
0.452457
0.452161
0.451815
0.451474
0.451184
0.451074
0.451002
0.393259
0.391954
0.393643
0.395424
0.399016
0.404109
0.410173
0.416281
0.421878
0.427026
0.43145
0.435095
0.43804
0.440396
0.442276
0.443766
0.444932
0.445818
0.446466
0.446903
0.447162
0.447269
0.44725
0.447135
0.44696
0.44677
0.446642
0.446707
0.447266
0.448813
0.389311
0.388422
0.388299
0.387483
0.38824
0.391475
0.396011
0.401874
0.408027
0.413947
0.4191
0.423321
0.426672
0.429305
0.431376
0.433006
0.434284
0.435271
0.436014
0.436549
0.436909
0.437122
0.437218
0.437231
0.437202
0.437189
0.437291
0.437684
0.438755
0.441023
0.378181
0.379556
0.379332
0.377234
0.376052
0.37728
0.381192
0.38717
0.394079
0.400893
0.406855
0.411694
0.415464
0.418364
0.4206
0.422338
0.423695
0.424749
0.425558
0.426161
0.426595
0.42689
0.427076
0.427188
0.42727
0.42738
0.427619
0.42816
0.42939
0.431815
0.362709
0.36591
0.366043
0.364037
0.362011
0.362253
0.365738
0.372073
0.37985
0.387646
0.394488
0.399999
0.404225
0.407407
0.40981
0.411648
0.413072
0.41418
0.41504
0.415698
0.416192
0.416554
0.416813
0.417003
0.417165
0.417355
0.417668
0.418258
0.419487
0.421882
0.344934
0.349394
0.350386
0.34929
0.347567
0.347732
0.351298
0.358038
0.366467
0.374982
0.382481
0.388512
0.393104
0.396518
0.399058
0.400975
0.402448
0.403595
0.404491
0.40519
0.405729
0.40614
0.406452
0.406695
0.406908
0.407142
0.40748
0.408062
0.40921
0.411472
0.326933
0.332334
0.33443
0.334707
0.334163
0.335066
0.339031
0.345977
0.354574
0.363283
0.37101
0.377272
0.382061
0.385619
0.388253
0.390228
0.391739
0.392914
0.393837
0.394565
0.395135
0.395579
0.395925
0.396199
0.396438
0.396685
0.397016
0.397557
0.39859
0.400678
0.309865
0.316039
0.3193
0.321071
0.322102
0.324159
0.328631
0.335552
0.34388
0.352316
0.359885
0.366112
0.370944
0.374573
0.377273
0.379301
0.38085
0.382056
0.383005
0.383758
0.384352
0.384819
0.385185
0.385475
0.385721
0.385963
0.386268
0.386748
0.387657
0.389556
0.293929
0.300717
0.305042
0.308186
0.310761
0.314013
0.318984
0.325766
0.333625
0.341557
0.348756
0.354792
0.359575
0.363237
0.366001
0.368092
0.369697
0.370949
0.371936
0.372718
0.373338
0.373824
0.374204
0.374501
0.374743
0.37497
0.37524
0.375656
0.376443
0.378152
0.278884
0.286106
0.291297
0.295561
0.299414
0.303682
0.309087
0.315732
0.323122
0.330524
0.337306
0.343104
0.34781
0.351499
0.354339
0.35652
0.358208
0.35953
0.360574
0.361401
0.362054
0.362565
0.362959
0.363261
0.363497
0.363705
0.363937
0.364287
0.364956
0.366476
0.264427
0.271916
0.277745
0.282847
0.287642
0.292676
0.298424
0.304971
0.31198
0.318928
0.32534
0.330921
0.335559
0.339288
0.342226
0.344524
0.346325
0.347745
0.348871
0.349763
0.350465
0.35101
0.351424
0.351734
0.351967
0.352157
0.352355
0.352644
0.353205
0.354537
0.25031
0.257935
0.264197
0.269882
0.275327
0.280895
0.286889
0.293361
0.30008
0.306674
0.312794
0.318203
0.322796
0.32658
0.329632
0.332069
0.334008
0.335553
0.336785
0.337764
0.338534
0.339128
0.339575
0.339902
0.340136
0.340311
0.340474
0.340703
0.341163
0.342314
0.236345
0.244014
0.250554
0.256629
0.262507
0.268425
0.27457
0.28097
0.287467
0.293793
0.29969
0.30497
0.30954
0.313387
0.316561
0.319147
0.321239
0.322928
0.324287
0.325373
0.326228
0.326887
0.32738
0.327734
0.327979
0.328148
0.328286
0.328465
0.328835
0.329809
0.2224
0.230051
0.236761
0.243094
0.249251
0.255384
0.261604
0.267929
0.274248
0.280368
0.286093
0.291275
0.295833
0.299744
0.303036
0.305769
0.308019
0.309861
0.311359
0.312566
0.313522
0.314262
0.314816
0.315209
0.315473
0.31564
0.315755
0.315886
0.316173
0.316974
0.208375
0.215973
0.222788
0.229287
0.235616
0.24187
0.248115
0.254361
0.260531
0.266484
0.272072
0.277175
0.281723
0.285689
0.289086
0.291957
0.294358
0.29635
0.29799
0.299324
0.300391
0.301222
0.301847
0.302294
0.302591
0.302772
0.302878
0.302974
0.303191
0.303827
0.194201
0.201727
0.20861
0.215212
0.221642
0.227956
0.234194
0.24036
0.246401
0.252214
0.257683
0.262716
0.267251
0.271259
0.274743
0.277732
0.280268
0.282402
0.284179
0.285642
0.286824
0.287753
0.288457
0.288962
0.289296
0.289493
0.289593
0.289656
0.289811
0.290282
0.179833
0.187279
0.19421
0.200878
0.207359
0.213694
0.219903
0.225989
0.231915
0.237605
0.242969
0.247934
0.252447
0.256479
0.260028
0.263112
0.265763
0.268019
0.26992
0.271501
0.272793
0.273822
0.274612
0.275188
0.275574
0.275801
0.275909
0.275953
0.276059
0.276378
0.165258
0.172618
0.179591
0.186296
0.192793
0.199118
0.205285
0.211292
0.217113
0.22269
0.227956
0.232851
0.23733
0.241368
0.244959
0.248112
0.250853
0.253212
0.255222
0.25691
0.258302
0.259421
0.260288
0.260927
0.26136
0.261617
0.261731
0.261756
0.261817
0.261975
0.150508
0.157767
0.164771
0.171485
0.177963
0.184254
0.190368
0.196298
0.20202
0.20749
0.212658
0.217477
0.221908
0.225931
0.229538
0.232733
0.235535
0.237968
0.24006
0.241835
0.243317
0.244523
0.245472
0.24618
0.246668
0.246962
0.247094
0.247113
0.247141
0.247158
0.135668
0.142788
0.149787
0.156471
0.162895
0.169129
0.175179
0.18103
0.186655
0.19202
0.197087
0.201821
0.206191
0.210178
0.213774
0.216983
0.21982
0.222305
0.224457
0.226295
0.227837
0.229103
0.230108
0.230867
0.231397
0.231717
0.231857
0.231859
0.231847
0.231699
0.120878
0.127782
0.134702
0.141295
0.14762
0.153769
0.159742
0.165507
0.171031
0.176285
0.181242
0.185875
0.190162
0.194088
0.197644
0.200834
0.20367
0.206171
0.208356
0.21024
0.211836
0.213158
0.214217
0.215026
0.215599
0.215953
0.216108
0.216103
0.216055
0.215762
0.106321
0.112886
0.119602
0.126013
0.132181
0.138208
0.144082
0.149748
0.155163
0.160299
0.165135
0.169654
0.173838
0.177676
0.181165
0.184309
0.187119
0.189605
0.191782
0.193667
0.195273
0.196612
0.197692
0.198523
0.199113
0.199477
0.199626
0.199592
0.199485
0.199001
0.0921884
0.0982529
0.104594
0.110701
0.116635
0.12249
0.128231
0.133774
0.139058
0.144053
0.148744
0.15312
0.157171
0.160888
0.16427
0.167327
0.17007
0.172514
0.17467
0.176549
0.178159
0.179507
0.180602
0.181452
0.182064
0.182443
0.182594
0.182534
0.18236
0.181703
0.0786504
0.0840304
0.0897967
0.0954559
0.101058
0.106674
0.112235
0.117623
0.122753
0.127589
0.132116
0.136325
0.140212
0.143776
0.147023
0.149957
0.152588
0.15493
0.157
0.158811
0.160371
0.161682
0.16275
0.163578
0.164173
0.164537
0.164665
0.164552
0.164268
0.163357
0.065815
0.0703415
0.0753388
0.0803959
0.0855525
0.0908373
0.0961404
0.101307
0.106229
0.110858
0.115176
0.119173
0.122848
0.126208
0.129266
0.132039
0.134538
0.136773
0.138754
0.14049
0.14199
0.143258
0.144296
0.145104
0.145685
0.146043
0.146161
0.146004
0.145593
0.144447
0.0537316
0.057282
0.0613522
0.0656589
0.0702396
0.0750861
0.0800502
0.0849362
0.0896045
0.0939875
0.0980563
0.101801
0.105223
0.108333
0.111144
0.113676
0.115949
0.117983
0.119793
0.121385
0.122762
0.123927
0.12488
0.125617
0.126142
0.12646
0.126548
0.126328
0.125734
0.124243
0.0423955
0.0449252
0.0479718
0.0513988
0.0552575
0.0595143
0.063988
0.0684554
0.072759
0.0768093
0.0805537
0.0839706
0.0870684
0.0898729
0.0924104
0.0946993
0.0967539
0.0985893
0.10022
0.101657
0.102905
0.103965
0.104834
0.105505
0.105978
0.106264
0.106351
0.106109
0.10533
0.103538
0.0317613
0.0333152
0.0353122
0.0377628
0.0407913
0.0443606
0.0482411
0.0521859
0.0560319
0.05967
0.0630181
0.0660316
0.068709
0.0710815
0.0731958
0.0750935
0.0768011
0.0783318
0.0796933
0.0808923
0.0819336
0.082817
0.0835393
0.0840913
0.0844636
0.084674
0.0847387
0.0844949
0.0835328
0.0813647
0.0217601
0.0224665
0.0234664
0.0248617
0.0268835
0.0295408
0.0325854
0.0357919
0.0390075
0.0420891
0.0449187
0.0474415
0.049661
0.0516105
0.053332
0.0548614
0.0562238
0.0574379
0.0585169
0.0594688
0.0602972
0.0610015
0.0615794
0.062022
0.0623091
0.062449
0.0625041
0.062346
0.0613386
0.0589947
0.0122755
0.012258
0.0123784
0.0129601
0.0141795
0.0159448
0.0180188
0.0203138
0.0227191
0.0250429
0.0271149
0.0288677
0.0303335
0.031587
0.0326922
0.0336798
0.0345605
0.0353424
0.0360352
0.036646
0.0371762
0.0376236
0.0379872
0.0382643
0.0384331
0.0384725
0.0384543
0.0383942
0.0375938
0.0352984
0.00331518
0.00126417
-0.000140741
0.000212987
0.0010982
0.00211867
0.00315843
0.00442148
0.00587683
0.0073295
0.00860726
0.00963644
0.0104335
0.0110607
0.0115768
0.0120171
0.0123993
0.0127344
0.0130307
0.0132937
0.0135241
0.0137193
0.0138772
0.014
0.0140792
0.0140748
0.0139943
0.0139992
0.0138663
0.0123731
0.381731
0.376484
0.364866
0.349092
0.332177
0.315578
0.299851
0.284931
0.270594
0.256632
0.242886
0.229227
0.215565
0.201833
0.187975
0.173965
0.159806
0.14553
0.13122
0.116997
0.103017
0.0894534
0.076456
0.064129
0.0525211
0.0416281
0.0313853
0.0217088
0.0125232
0.00369388
0.380865
0.37394
0.361848
0.345717
0.328815
0.312383
0.29685
0.282104
0.267918
0.254088
0.240458
0.226903
0.213334
0.199687
0.185909
0.171976
0.157897
0.143709
0.129506
0.115415
0.101596
0.0882177
0.0754232
0.0633067
0.0519067
0.0412115
0.0311433
0.0216071
0.0125344
0.0037833
0.38009
0.370912
0.358249
0.341899
0.325189
0.309048
0.293778
0.279247
0.265232
0.251543
0.238032
0.224582
0.211106
0.197546
0.183847
0.169991
0.155991
0.141889
0.127786
0.113814
0.100136
0.0869211
0.0743073
0.0623859
0.0511891
0.0406987
0.0308211
0.0214446
0.0124956
0.00385764
0.378766
0.367427
0.354463
0.338042
0.321586
0.305756
0.290748
0.276428
0.262582
0.249031
0.235638
0.222292
0.208908
0.195431
0.181811
0.168031
0.15411
0.140097
0.126099
0.112254
0.0987261
0.0856815
0.0732523
0.0615247
0.0505237
0.0402254
0.0305239
0.0212947
0.0124565
0.00391694
0.377006
0.36366
0.350595
0.334197
0.318018
0.302502
0.287755
0.273643
0.259962
0.246549
0.233272
0.220029
0.206734
0.19334
0.179797
0.166093
0.152251
0.138329
0.124439
0.110727
0.0973549
0.0844869
0.0722482
0.0607169
0.0499092
0.0397941
0.0302556
0.0211607
0.0124211
0.00396144
0.374843
0.359702
0.34666
0.33037
0.314485
0.299287
0.284796
0.27089
0.257373
0.244097
0.230936
0.217794
0.204588
0.191274
0.177806
0.164176
0.150415
0.136586
0.122808
0.109233
0.0960214
0.0833349
0.0712899
0.0599555
0.0493378
0.0393975
0.0300101
0.0210383
0.0123868
0.00399395
0.372237
0.355607
0.342668
0.326571
0.310991
0.296113
0.281874
0.268171
0.254818
0.241677
0.228631
0.215588
0.202469
0.189234
0.17584
0.162283
0.148603
0.13487
0.121208
0.107773
0.0947277
0.082227
0.0703784
0.0592403
0.0488083
0.0390339
0.0297864
0.0209263
0.0123535
0.0040169
0.369174
0.351432
0.338636
0.322809
0.307541
0.292979
0.27899
0.265486
0.252296
0.239289
0.226356
0.213411
0.200379
0.18722
0.173899
0.160415
0.146817
0.133182
0.11964
0.106351
0.0934757
0.0811644
0.0695137
0.0585706
0.0483194
0.0387022
0.0295838
0.0208242
0.0123218
0.00403227
0.365669
0.347224
0.33458
0.31909
0.304137
0.289888
0.276145
0.262837
0.249808
0.236933
0.224112
0.211264
0.198317
0.185233
0.171984
0.158573
0.145059
0.131524
0.118107
0.104967
0.0922668
0.0801478
0.0686952
0.057945
0.047869
0.0384003
0.0294007
0.0207312
0.0122918
0.00404178
0.361759
0.343016
0.330516
0.315417
0.300784
0.286839
0.273339
0.260224
0.247354
0.23461
0.2219
0.209148
0.196285
0.183274
0.170096
0.15676
0.14333
0.129898
0.11661
0.103625
0.0911031
0.079178
0.0679227
0.057362
0.0474549
0.0381259
0.0292354
0.0206465
0.0122637
0.00404777
0.357499
0.33883
0.326462
0.311792
0.297483
0.283834
0.270573
0.257647
0.244933
0.23232
0.219721
0.207063
0.194281
0.181343
0.168236
0.154974
0.141631
0.128307
0.115151
0.102326
0.0899862
0.0782561
0.0671964
0.0568207
0.0470754
0.0378772
0.0290864
0.0205697
0.0122375
0.00404945
0.352956
0.334677
0.322437
0.308217
0.294236
0.280875
0.267848
0.255108
0.242549
0.230064
0.217573
0.205007
0.192306
0.17944
0.166404
0.153218
0.139964
0.126751
0.113733
0.101072
0.0889178
0.0773833
0.0665166
0.0563207
0.0467294
0.0376527
0.0289525
0.0205002
0.012213
0.00404862
0.348205
0.330564
0.318456
0.304693
0.291044
0.277961
0.265164
0.252607
0.240201
0.227843
0.215459
0.202983
0.190361
0.177566
0.164601
0.151493
0.138331
0.125233
0.112357
0.0998655
0.0878986
0.0765597
0.065883
0.0558606
0.046415
0.0374507
0.0288323
0.0204373
0.0121901
0.00404603
0.34332
0.326493
0.314535
0.301223
0.287908
0.275095
0.262523
0.250146
0.23789
0.225657
0.213378
0.20099
0.188446
0.175722
0.162827
0.149798
0.136731
0.123753
0.111025
0.0987061
0.0869289
0.0757848
0.0652945
0.0554387
0.0461301
0.0372689
0.0287241
0.0203798
0.0121684
0.00404226
0.338372
0.322466
0.310682
0.297807
0.284827
0.272277
0.259925
0.247726
0.235617
0.223508
0.21133
0.199029
0.186561
0.173907
0.161083
0.148134
0.135166
0.122313
0.109737
0.0975946
0.0860081
0.0750576
0.0647491
0.0550521
0.0458718
0.0371047
0.0286261
0.0203271
0.0121477
0.0040378
0.333422
0.318487
0.306905
0.29445
0.281801
0.269506
0.25737
0.245347
0.233382
0.221394
0.209317
0.1971
0.184707
0.172122
0.159369
0.146503
0.133638
0.120914
0.108494
0.0965312
0.0851359
0.0743765
0.0642445
0.0546983
0.0456374
0.0369559
0.0285369
0.0202784
0.0121278
0.004033
0.328519
0.314559
0.303209
0.291151
0.278831
0.266784
0.254858
0.243008
0.231185
0.219315
0.207338
0.195204
0.182884
0.170367
0.157686
0.144907
0.132148
0.119558
0.107298
0.0955165
0.084312
0.0737403
0.0637786
0.0543745
0.0454243
0.0368208
0.0284554
0.0202333
0.0121087
0.00402816
0.323703
0.310689
0.299597
0.287914
0.275914
0.264111
0.25239
0.240709
0.229025
0.217273
0.205392
0.193341
0.181092
0.168643
0.156035
0.143345
0.130698
0.118246
0.10615
0.0945514
0.0835366
0.0731479
0.0633495
0.054079
0.0452309
0.0366979
0.0283807
0.0201915
0.0120905
0.00402346
0.319006
0.306882
0.296069
0.284739
0.273052
0.261486
0.249965
0.23845
0.226904
0.215265
0.203481
0.191509
0.17933
0.166951
0.154417
0.141821
0.129289