/*--------------------------------*- C++ -*----------------------------------*\
  =========                 |
  \\      /  F ield         | OpenFOAM: The Open Source CFD Toolbox
   \\    /   O peration     | Website:  https://openfoam.org
    \\  /    A nd           | Version:  7
     \\/     M anipulation  |
\*---------------------------------------------------------------------------*/
FoamFile
{
    version     2.0;
    format      ascii;
    class       surfaceScalarField;
    location    "9.1";
    object      phi;
}
// * * * * * * * * * * * * * * * * * * * * * * * * * * * * * * * * * * * * * //

dimensions      [0 3 -1 0 0 0 0];

internalField   nonuniform List<scalar> 
35640
(
1.79109e-05
-0.000309541
0.00029163
6.66665e-05
-0.000670512
0.000621756
0.00014428
-0.000796663
0.00071905
0.00024966
-0.00073876
0.000633379
0.000382297
-0.000533219
0.000400583
0.000541992
-0.000207455
4.77595e-05
0.000728719
0.00021682
-0.000403546
0.000942506
0.000722312
-0.000936098
0.0011833
0.00129503
-0.00153582
0.00145088
0.00192334
-0.00219092
0.00174482
0.00259735
-0.00289128
0.00206434
0.00330831
-0.00362784
0.00240831
0.0040482
-0.00439217
0.00277514
0.00480939
-0.00517623
0.00316283
0.00558448
-0.00597217
0.00356889
0.00636616
-0.00677221
0.0039904
0.00714717
-0.00756868
0.00442406
0.00792039
-0.00835405
0.00486627
0.00867884
-0.00912105
0.00531323
0.00941587
-0.00986283
0.00576103
0.0101253
-0.0105731
0.0062058
0.0108014
-0.0112462
0.0066438
0.0114394
-0.0118774
0.00707156
0.0120352
-0.0124629
0.00748597
0.0125854
-0.0129998
0.00788435
0.0130878
-0.0134862
0.00826459
0.0135407
-0.0139209
0.00862521
0.0139427
-0.0143033
0.00896554
0.0142919
-0.0146322
0.0145821
0.00928596
-0.0149025
1.73094e-05
-0.000326851
6.39342e-05
-0.000717137
0.000137638
-0.000870367
0.000237251
-0.000838373
0.000362302
-0.00065827
0.000512697
-0.000357849
0.000688493
4.10242e-05
0.000889803
0.000521002
0.00111669
0.00106814
0.00136907
0.00167095
0.00164666
0.00231977
0.00194886
0.00300611
0.00227478
0.00372228
0.00262315
0.00446103
0.00299226
0.00521537
0.00337998
0.00597843
0.0037838
0.00674335
0.00420081
0.00750338
0.00462778
0.00825187
0.00506124
0.00898241
0.00549759
0.00968893
0.00593317
0.0103658
0.00636442
0.0110082
0.00678794
0.0116116
0.00720062
0.0121727
0.00759974
0.0126887
0.00798303
0.0131574
0.00834887
0.0135769
0.00869631
0.0139445
0.0142532
0.00902527
1.66433e-05
-0.000343494
6.09255e-05
-0.000761419
0.000130416
-0.000939857
0.000223964
-0.000931921
0.000341194
-0.000775501
0.000482123
-0.000498778
0.000646916
-0.000123769
0.000835797
0.000332121
0.00104893
0.000855003
0.00128635
0.00143354
0.00154788
0.00205824
0.00183311
0.00272087
0.00214135
0.00341404
0.00247153
0.00413085
0.00282224
0.00486466
0.00319169
0.00560898
0.00357768
0.00635736
0.00397765
0.0071034
0.00438875
0.00784077
0.00480783
0.00856333
0.00523159
0.00926518
0.00565662
0.00994082
0.00607954
0.0105853
0.00649708
0.0111941
0.00690618
0.0117636
0.00730409
0.0122908
0.00768849
0.012773
0.00805761
0.0132078
0.00841028
0.0135918
0.0139174
0.008746
1.58745e-05
-0.000359369
5.74913e-05
-0.000803036
0.000122399
-0.00100476
0.000209521
-0.00101904
0.000318606
-0.000884585
0.000449821
-0.000629993
0.00060347
-0.000277418
0.000779879
0.000155712
0.000979329
0.000655553
0.00120196
0.00121091
0.00144771
0.00181249
0.00171631
0.00245228
0.0020072
0.00312315
0.00231955
0.0038185
0.00265216
0.00453205
0.0030035
0.00525764
0.00337169
0.00598917
0.00375448
0.0067206
0.00414934
0.00744592
0.00455343
0.00815923
0.00496375
0.00885485
0.00537716
0.00952742
0.00579046
0.010172
0.00620054
0.010784
0.00660442
0.0113598
0.00699941
0.0118958
0.00738313
0.0123893
0.00775372
0.0128372
0.00810983
0.0132357
0.0135767
0.00845054
1.49524e-05
-0.000374321
5.35872e-05
-0.000841671
0.000113494
-0.00106467
0.000193758
-0.00109931
0.000294316
-0.000985142
0.000415496
-0.000751173
0.000557766
-0.000419688
0.000721593
-8.11373e-06
0.000907361
0.000469784
0.00111531
0.00100296
0.00134549
0.00158231
0.00159773
0.00220003
0.00187163
0.00284925
0.0021665
0.00352364
0.00248134
0.0042172
0.00281486
0.00492412
0.00316541
0.00563862
0.00353104
0.00635497
0.00390949
0.00706747
0.00429824
0.00777048
0.00469455
0.00845855
0.00509552
0.00912644
0.0054982
0.00976928
0.00589962
0.0103826
0.00629694
0.0109624
0.0066875
0.0115053
0.00706897
0.0120078
0.00743941
0.0124667
0.00779731
0.0128778
0.0132327
0.00814138
1.38697e-05
-0.000388191
4.91425e-05
-0.000876943
0.000103589
-0.00111912
0.000176518
-0.00117224
0.000268094
-0.00107672
0.00037886
-0.000861939
0.000509467
-0.000550294
0.000660524
-0.000159171
0.000832537
0.000297771
0.00102585
0.000809653
0.0012406
0.00136755
0.00147674
0.00196389
0.00173396
0.00259203
0.00201171
0.00324589
0.00230915
0.00391976
0.00262518
0.0046081
0.00295836
0.00530544
0.00330699
0.00600634
0.00366907
0.00670539
0.00404233
0.00739722
0.00442429
0.00807658
0.0048123
0.00873843
0.00520362
0.00937796
0.00559547
0.00999075
0.00598514
0.0105728
0.00637007
0.0111203
0.00674795
0.0116299
0.00711681
0.0120979
0.00747501
0.0125196
0.0128867
0.00782093
1.25944e-05
-0.000400785
4.41109e-05
-0.00090846
9.25994e-05
-0.00116761
0.000157671
-0.00123731
0.000239783
-0.00115883
0.000339713
-0.000961869
0.000458316
-0.000668896
0.000596369
-0.000297225
0.000754506
0.000139635
0.00093317
0.00063099
0.0011326
0.00116812
0.00135284
0.00174366
0.00159366
0.0023512
0.00185463
0.00298492
0.00213506
0.00363934
0.00243397
0.00430918
0.00275014
0.00498927
0.00308205
0.00567443
0.00342793
0.00635951
0.00378574
0.00703941
0.00415325
0.00770908
0.00452802
0.00836365
0.00490753
0.00899846
0.00528917
0.00960911
0.00567039
0.0101916
0.00604873
0.010742
0.00642193
0.0112567
0.00678803
0.0117318
0.00714525
0.0121624
0.0125403
0.00749165
1.11107e-05
-0.000411896
3.84484e-05
-0.000935797
8.04613e-05
-0.00120962
0.000137138
-0.00129398
0.00020927
-0.00123096
0.000297911
-0.00105051
0.000404145
-0.000775129
0.000528926
-0.000422006
0.000673022
-4.46091e-06
0.000836989
0.000467023
0.00102116
0.000983943
0.00122565
0.00153917
0.00145033
0.00212652
0.00169486
0.00274039
0.00195865
0.00337555
0.00224087
0.00402697
0.00254042
0.00468971
0.00285599
0.00535887
0.00318597
0.00602953
0.00352854
0.00669683
0.00388167
0.00735595
0.00424315
0.00800217
0.00461063
0.00863097
0.0049817
0.00923804
0.00535394
0.00981931
0.00572502
0.0103709
0.00609275
0.010889
0.00645514
0.0113694
0.00681032
0.0118072
0.0121946
0.00715606
9.40489e-06
-0.0004213
3.21304e-05
-0.000958523
6.71373e-05
-0.00124463
0.000114868
-0.00134172
0.000176497
-0.00129259
0.000253391
-0.0011274
0.000346876
-0.000868614
0.000458097
-0.000533227
0.000587968
-0.000134332
0.000737159
0.000317832
0.000906099
0.000815004
0.00109498
0.0013503
0.00130375
0.00191775
0.00153215
0.00251199
0.00177968
0.00312801
0.00204562
0.00376103
0.00232901
0.00440632
0.00262867
0.00505922
0.00294315
0.00571505
0.00327082
0.00636916
0.00360984
0.00701694
0.00395816
0.00765385
0.00431363
0.0082755
0.00467401
0.00887766
0.00503702
0.0094563
0.00540044
0.0100075
0.00576214
0.0105273
0.00612016
0.0110113
0.0064725
0.0114549
0.0118504
0.00681667
7.47212e-06
-0.000428772
2.51457e-05
-0.000976196
5.26169e-05
-0.0012721
9.08582e-05
-0.00137996
0.000141473
-0.00134321
0.000206166
-0.0011921
0.000286526
-0.000948974
0.0003839
-0.0006306
0.000499353
-0.000249785
0.000633678
0.000183508
0.000787394
0.000661287
0.000960771
0.00117692
0.00115384
0.00172468
0.00136641
0.00229942
0.00159806
0.00289636
0.00184816
0.00351093
0.00211586
0.00413862
0.00240009
0.00477499
0.00269957
0.00541557
0.00301279
0.00605593
0.00333807
0.00669165
0.00367356
0.00731836
0.00401725
0.00793181
0.00436704
0.00852787
0.00472081
0.00910253
0.00507643
0.00965187
0.00543185
0.0101719
0.00578509
0.0106581
0.00613404
0.0111059
0.0115085
0.00647597
5.31058e-06
-0.000434083
1.74988e-05
-0.000988384
3.69208e-05
-0.00129152
6.51512e-05
-0.00140819
0.000104264
-0.00138232
0.000156331
-0.00124416
0.000223213
-0.00101586
0.000306467
-0.000713854
0.000407321
-0.000350639
0.000526689
6.41395e-05
0.00066519
0.000522787
0.000823172
0.00101894
0.00100074
0.00154711
0.00119776
0.00210239
0.0014139
0.00268022
0.0016486
0.00327623
0.0019011
0.00388612
0.00217044
0.00450565
0.00245545
0.00513056
0.00275476
0.00575662
0.00306683
0.00637958
0.00338994
0.00699525
0.00372224
0.00759952
0.00406177
0.00818834
0.00440651
0.00875779
0.00475445
0.00930393
0.00510358
0.00982275
0.00545189
0.0103098
0.00579717
0.0107606
0.0111692
0.00613644
2.92505e-06
-0.000437008
9.21124e-06
-0.00099467
2.00999e-05
-0.00130241
3.78361e-05
-0.00142592
6.50037e-05
-0.00140949
0.000104059
-0.00128322
0.000157149
-0.00106895
0.000226046
-0.000782751
0.000312147
-0.00043674
0.000416489
-4.02029e-05
0.000539792
0.000399484
0.000682486
0.000876242
0.000844746
0.00138485
0.00102651
0.00192063
0.0012275
0.00247923
0.00144724
0.00305649
0.00168505
0.00364831
0.00194006
0.00425064
0.00221119
0.00485943
0.00249721
0.00547061
0.00279667
0.00608012
0.003108
0.00668393
0.00342946
0.00727806
0.00375922
0.00785858
0.00409536
0.00842164
0.00443596
0.00896334
0.00477902
0.00947968
0.00512252
0.0099663
0.0054641
0.0104191
0.0108327
0.00580058
3.24531e-07
-0.000437332
3.33611e-07
-0.000994679
2.23649e-06
-0.00130431
9.04895e-06
-0.00143274
2.38871e-05
-0.00142432
4.96057e-05
-0.00130894
8.86453e-05
-0.00110798
0.000143001
-0.000837107
0.000214236
-0.000507974
0.000303518
-0.000129485
0.000411667
0.000291334
0.0005392
0.000748709
0.000686361
0.00123769
0.000853157
0.00175383
0.00103938
0.00229301
0.00124461
0.00285125
0.00146825
0.00342467
0.00170951
0.00400939
0.0019674
0.00460154
0.00224078
0.00519723
0.00252833
0.00579257
0.00282856
0.00638369
0.00313986
0.00696676
0.0034605
0.00753795
0.00378865
0.00809348
0.00412244
0.00862956
0.00445989
0.00914223
0.00479891
0.00962727
0.00513703
0.0100809
0.0104989
0.00547081
-2.4756e-06
-0.000434857
-9.11258e-06
-0.000988042
-1.6559e-05
-0.00129686
-2.10278e-05
-0.00142827
-1.88286e-05
-0.00142652
-6.6964e-06
-0.00132107
1.81078e-05
-0.00113279
5.78022e-05
-0.000876801
0.000114118
-0.00056429
0.000188354
-0.000203721
0.000281436
0.000198252
0.000393965
0.000636179
0.000526261
0.00110539
0.0006784
0.00160169
0.000850236
0.00212117
0.00104143
0.00266006
0.00125143
0.00321466
0.00147954
0.00378128
0.00172485
0.00435622
0.00198631
0.00493577
0.00226269
0.00551619
0.0025526
0.00609378
0.00285452
0.00666483
0.00316682
0.00722565
0.00348774
0.00777257
0.00381542
0.00830187
0.00414791
0.00880975
0.00448303
0.00929215
0.00481813
0.00974583
0.0101675
0.00514957
-5.45372e-06
-0.000429403
-1.90222e-05
-0.000974473
-3.61406e-05
-0.00127975
-5.21668e-05
-0.00141224
-6.28264e-05
-0.00141586
-6.444e-05
-0.00131946
-5.39689e-05
-0.00114326
-2.89739e-05
-0.000901796
1.2443e-05
-0.000605706
7.17132e-05
-0.000262991
0.000149868
0.000120098
0.000247597
0.000538449
0.0003653
0.000987689
0.000503121
0.00146387
0.000660984
0.00196331
0.00083861
0.00248244
0.00103553
0.00301774
0.00125111
0.0035657
0.00148453
0.0041228
0.00173481
0.00468549
0.00200081
0.00525019
0.00228123
0.00581336
0.00257465
0.00637141
0.00287948
0.00692081
0.00319404
0.00745801
0.00351649
0.00797943
0.00384482
0.00848142
0.00417678
0.00896019
0.00450956
0.00941305
0.00983781
0.00483925
-8.58344e-06
-0.000420819
-2.93191e-05
-0.000953737
-5.63359e-05
-0.00125273
-8.40976e-05
-0.00138448
-0.000107733
-0.00139223
-0.000123147
-0.00130404
-0.000127005
-0.0011394
-0.000116653
-0.000912148
-9.00261e-05
-0.000632333
-4.55637e-05
-0.000307454
1.78738e-05
5.66599e-05
0.000101068
0.000455256
0.000204497
0.00088426
0.00032838
0.00133999
0.000472713
0.00181898
0.000637284
0.00231787
0.000821699
0.00283332
0.00102539
0.00336202
0.00124762
0.00390058
0.00148748
0.00444562
0.00174393
0.00499375
0.00201574
0.00554154
0.00230156
0.00608559
0.00259989
0.00662249
0.00290906
0.00714884
0.00322724
0.00766125
0.00355238
0.00815627
0.00388211
0.00863046
0.00421341
0.00908175
0.00950904
0.00454218
-1.1833e-05
-0.000408986
-3.98994e-05
-0.000925671
-7.69448e-05
-0.00121568
-0.00011651
-0.00134491
-0.00015312
-0.00135562
-0.000182272
-0.00127489
-0.000200342
-0.00112133
-0.000204466
-0.000908024
-0.000192421
-0.000644378
-0.000162515
-0.00033736
-0.000113502
7.64655e-06
-4.45077e-05
0.000386261
4.50301e-05
0.000794722
0.000155409
0.00122961
0.000286698
0.00168769
0.000438757
0.00216581
0.000611264
0.00266082
0.000803727
0.00316955
0.00101549
0.00368882
0.00124572
0.00421539
0.00149345
0.00474602
0.00175755
0.00527744
0.00203673
0.00580641
0.00232954
0.00632968
0.00263435
0.00684403
0.00294932
0.00734628
0.00327233
0.00783326
0.00360088
0.00830191
0.00393176
0.00875087
0.00918016
0.00426063
-1.51654e-05
-0.000393821
-5.06451e-05
-0.000890191
-9.77416e-05
-0.00116859
-0.000149056
-0.0012936
-0.000198513
-0.00130616
-0.00024121
-0.00123219
-0.000273248
-0.00108929
-0.000291562
-0.00088971
-0.000293774
-0.000642166
-0.000278067
-0.000353066
-0.00024309
-2.73313e-05
-0.000187873
0.000331044
-0.000111768
0.000718617
-1.43952e-05
0.00113224
0.000104389
0.00156891
0.000244522
0.00202567
0.000405757
0.00249958
0.000587679
0.00298763
0.000789708
0.00348679
0.0010111
0.00399399
0.00125097
0.00450615
0.00150825
0.00502016
0.00178174
0.00553292
0.00207004
0.00604138
0.00237154
0.00654253
0.0026844
0.00703342
0.00300642
0.00751124
0.00333496
0.00797337
0.0036666
0.00841923
0.00884998
0.00399679
-1.85389e-05
-0.000375282
-6.14251e-05
-0.000847304
-0.000118478
-0.00111153
-0.000181355
-0.00123072
-0.000243392
-0.00124412
-0.000299303
-0.00117628
-0.000344925
-0.00104367
-0.000377007
-0.000857628
-0.000393025
-0.000626148
-0.000391042
-0.00035505
-0.0003696
-4.87728e-05
-0.000327639
0.000289082
-0.000264418
0.000655396
-0.000179475
0.0010473
-7.25882e-05
0.00146202
5.62591e-05
0.00189683
0.000206899
0.00234894
0.000378995
0.00281553
0.000572048
0.00329374
0.000785398
0.00378064
0.00101823
0.00427331
0.00126959
0.0047688
0.00153832
0.00526419
0.00182309
0.00575661
0.00212233
0.00624328
0.00243419
0.00672157
0.00275639
0.00718903
0.00308615
0.00764361
0.00341986
0.00808552
0.00851711
0.00375273
-2.19077e-05
-0.000353374
-7.2097e-05
-0.000797115
-0.000138886
-0.00104474
-0.000213
-0.00115661
-0.000287202
-0.00116992
-0.000355842
-0.00110764
-0.000414516
-0.000984993
-0.0004598
-0.000812344
-0.000489031
-0.000596917
-0.000500161
-0.00034392
-0.000491631
-5.73027e-05
-0.000462285
0.000259736
-0.000411294
0.000604406
-0.000338112
0.000974113
-0.000242434
0.00136634
-0.000124163
0.00177855
1.66132e-05
0.00220816
0.000179632
0.00265252
0.000364487
0.00310888
0.000570591
0.00357454
0.000797222
0.00404668
0.0010435
0.00452253
0.00130836
0.00499933
0.00159054
0.00547443
0.00188851
0.00594531
0.00220042
0.00640966
0.00252395
0.0068655
0.00285619
0.00731137
0.00319335
0.00774836
0.00818004
0.00353041
-2.52221e-05
-0.000328152
-8.2509e-05
-0.000739828
-0.000158683
-0.000968571
-0.000243559
-0.00107173
-0.000329354
-0.00108413
-0.000410081
-0.00102691
-0.000481116
-0.000913958
-0.000538874
-0.000754586
-0.000580571
-0.00055522
-0.000604054
-0.000320438
-0.000607668
-5.36886e-05
-0.000590164
0.000242232
-0.000550626
0.000564867
-0.000488421
0.000911909
-0.000403163
0.00128108
-0.000294675
0.00167007
-0.00016296
0.00207645
-8.19325e-06
0.00249775
0.000169248
0.00293144
0.00036891
0.00337488
0.000590145
0.00382545
0.000832155
0.00428052
0.00109397
0.00473752
0.0013744
0.005194
0.00167199
0.00564772
0.00198492
0.00609673
0.00231086
0.00653957
0.00264681
0.00697542
0.00298881
0.00740636
0.00783719
0.00333166
-2.84303e-05
-0.000299722
-9.25028e-05
-0.000675756
-0.000177574
-0.0008835
-0.000272585
-0.000976722
-0.00036924
-0.000987473
-0.000461243
-0.000934909
-0.000543775
-0.000831427
-0.000613111
-0.00068525
-0.000666357
-0.000501974
-0.000701265
-0.00028553
-0.000716094
-3.88603e-05
-0.000709504
0.000235642
-0.000680494
0.000535857
-0.000628349
0.000859764
-0.000552601
0.00120533
-0.000452992
0.00157046
-0.000329454
0.00195291
-0.000182099
0.00235039
-1.11797e-05
0.00276052
0.000182874
0.00318082
0.000399511
0.00360881
0.000638021
0.00404201
0.000897524
0.00447802
0.00117693
0.00491459
0.00147489
0.00534976
0.00178965
0.00578197
0.00211893
0.00621029
0.00245971
0.00663464
0.00280792
0.00705814
0.00748694
0.00315818
-3.14782e-05
-0.000268243
-0.000101916
-0.000605318
-0.000195259
-0.000790157
-0.000299621
-0.00087236
-0.000406235
-0.000880858
-0.000508531
-0.000832613
-0.000601515
-0.000738442
-0.000681347
-0.000605418
-0.000745039
-0.000438282
-0.000790261
-0.000240308
-0.00081519
-1.39313e-05
-0.000818406
0.000238858
-0.000798828
0.000516278
-0.000755661
0.000816597
-0.00068836
0.00113803
-0.000596589
0.00147869
-0.000480212
0.00183653
-0.000339269
0.00220945
-0.000173962
0.00259521
1.53623e-05
0.0029915
0.000228212
0.00339596
0.000463955
0.00380626
0.000721803
0.00422017
0.00100078
0.00463561
0.00129965
0.00505089
0.00161682
0.0054648
0.00195013
0.00587698
0.00229666
0.00628811
0.00265231
0.00670249
0.00712769
0.00301156
-3.43115e-05
-0.000233932
-0.000110587
-0.000529042
-0.000211436
-0.000689309
-0.000324209
-0.000759587
-0.000439711
-0.000765356
-0.000551135
-0.000721189
-0.00065334
-0.000636237
-0.000742389
-0.000516369
-0.000815221
-0.00036545
-0.000869438
-0.000186091
-0.000903146
1.97767e-05
-0.000914854
0.000250566
-0.000903407
0.000504832
-0.00086794
0.00078113
-0.000807831
0.00107792
-0.000722679
0.00139353
-0.000612284
0.00172614
-0.000476632
0.0020738
-0.000315871
0.00243445
-0.000130305
0.00280593
7.96239e-05
0.00318603
0.000313339
0.00357255
0.000570127
0.00396338
0.000849119
0.00435662
0.00114924
0.00475077
0.00146908
0.00514496
0.00180677
0.0055393
0.0021596
0.00593527
0.00252369
0.0063384
0.00675799
0.00289339
-3.68766e-05
-0.000197055
-0.000118356
-0.000447563
-0.00022581
-0.000581856
-0.000345897
-0.0006395
-0.000469048
-0.000642204
-0.00058825
-0.000601987
-0.000698247
-0.00052624
-0.000795027
-0.000419589
-0.000875476
-0.000285001
-0.00093714
-0.000124427
-0.000978071
6.07074e-05
-0.000996717
0.000269212
-0.000991863
0.000499977
-0.000962577
0.000751843
-0.000908173
0.00102352
-0.000828191
0.00131355
-0.00072238
0.00162033
-0.000590684
0.0019421
-0.000433221
0.00227699
-0.000250269
0.00262298
-4.22572e-05
0.00297802
0.000190253
0.00334004
0.000446584
0.00370705
0.000725943
0.00407726
0.0010274
0.00444931
0.00134984
0.00482253
0.00169174
0.0051974
0.00205094
0.00557607
0.00242399
0.00596535
0.00637663
0.00280535
-3.91223e-05
-0.000157933
-0.000125069
-0.000361616
-0.000238096
-0.000468829
-0.00036425
-0.000513346
-0.00049364
-0.000512814
-0.000619087
-0.00047654
-0.000735246
-0.000410081
-0.000838054
-0.000316781
-0.000924361
-0.000198695
-0.000991678
-5.71104e-05
-0.00103801
0.000107042
-0.00106177
0.000292971
-0.00106169
0.000499894
-0.00103678
0.000726934
-0.000986304
0.000973045
-0.000909756
0.001237
-0.000806845
0.00151742
-0.000677486
0.00181275
-0.000521786
0.00212129
-0.000340033
0.00244123
-0.000132681
0.00277067
9.96676e-05
0.00310769
0.000356297
0.00345042
0.000636413
0.00379715
0.000939181
0.00414654
0.00126373
0.00449797
0.00160909
0.00485204
0.00197394
0.00521123
0.00235584
0.00558344
0.00598276
0.00274971
-4.10014e-05
-0.000116932
-0.000130585
-0.000272032
-0.00024803
-0.000351384
-0.000378859
-0.000382517
-0.000512916
-0.000378757
-0.000642891
-0.000346565
-0.000763378
-0.000289593
-0.000870285
-0.000209874
-0.000960446
-0.000108535
-0.00103135
1.3794e-05
-0.00108098
0.000156675
-0.00110772
0.00031971
-0.00111027
0.00050244
-0.0010876
0.000704262
-0.00103893
0.000924376
-0.000963719
0.00116179
-0.000861654
0.00141535
-0.000732635
0.00168373
-0.000576773
0.00196542
-0.000394391
0.00225885
-0.000186017
0.00256229
4.76426e-05
0.00287403
0.000305732
0.00319233
0.000587319
0.00351556
0.0008915
0.00384236
0.00121754
0.00417193
0.001565
0.00450458
0.00193376
0.00484246
0.00232336
0.00519384
0.00557604
0.00273008
-4.24719e-05
-7.44598e-05
-0.000134777
-0.000179727
-0.000255373
-0.000230788
-0.000389352
-0.000248538
-0.000526348
-0.00024176
-0.000658957
-0.000213956
-0.000781736
-0.000166814
-0.000890586
-0.000101024
-0.000982339
-1.67819e-05
-0.00105448
8.59381e-05
-0.001105
0.000207189
-0.00113225
0.00034696
-0.00113492
0.000505111
-0.00111196
0.000681303
-0.00106257
0.000874985
-0.000986179
0.00108541
-0.000882457
0.00131163
-0.000751298
0.00155257
-0.000592831
0.00180696
-0.000407428
0.00207344
-0.000195713
0.00235058
4.14441e-05
0.00263687
0.00030295
0.00293082
0.000587556
0.00323095
0.00089402
0.00353589
0.00122139
0.00384456
0.00156944
0.00415653
0.00193926
0.00447265
0.00233356
0.00479954
0.00515621
0.00275339
-4.34986e-05
-3.09612e-05
-0.000137536
-8.56899e-05
-0.000259917
-0.000108406
-0.000395401
-0.000113054
-0.000533468
-0.000103694
-0.000666648
-8.07763e-05
-0.000789489
-4.39728e-05
-0.0008979
7.38657e-06
-0.000988727
7.40451e-05
-0.00105947
0.000156683
-0.00110812
0.000255841
-0.00113306
0.000371894
-0.00113296
0.000505008
-0.00110676
0.000655107
-0.00105366
0.000821884
-0.000973077
0.00100482
-0.000864666
0.00120322
-0.000728316
0.00141622
-0.000564167
0.00164281
-0.00037263
0.00188191
-0.00015441
0.00213236
8.94653e-05
0.002393
0.000357631
0.00266266
0.000648411
0.00294017
0.000959938
0.00322437
0.0012905
0.003514
0.00163919
0.00380783
0.00200711
0.00410473
0.00239984
0.00440681
0.00472022
0.00283583
-4.40533e-05
1.3092e-05
-0.000138775
9.03162e-06
-0.000261496
1.43145e-05
-0.000396736
2.21861e-05
-0.000533876
3.34463e-05
-0.000665414
5.07614e-05
-0.000785904
7.65179e-05
-0.00089128
0.000112762
-0.000978412
0.000161177
-0.00104483
0.0002231
-0.00108855
0.000299561
-0.00110797
0.000391313
-0.00110178
0.000498823
-0.00106895
0.000622273
-0.00100866
0.000761594
-0.000920337
0.000916498
-0.000803623
0.00108651
-0.000658396
0.00127099
-0.000484781
0.00146919
-0.000283178
0.0016803
-5.42989e-05
0.00190348
0.000200784
0.00213791
0.000480594
0.00238285
0.000783213
0.00263755
0.00110632
0.00290126
0.00144744
0.00317288
0.00180472
0.00345055
0.00217748
0.00373198
0.00257059
0.0040137
0.00302307
0.00426775
0.0094792
0.0854124
-0.0856057
0.00916751
0.0871919
-0.0868802
0.00864546
0.0850455
-0.0845235
0.00807411
0.081437
-0.0808657
0.00755768
0.0775133
-0.0769968
0.00712451
0.0738307
-0.0733975
0.00676727
0.0705535
-0.0701963
0.00646689
0.0676893
-0.0673889
0.00620392
0.0652092
-0.0649462
0.00596315
0.0630839
-0.0628432
0.00573324
0.0613042
-0.0610743
0.00550729
0.0598661
-0.0596402
0.005281
0.0587607
-0.0585344
0.00505183
0.0579624
-0.0577332
0.00481787
0.0574296
-0.0571956
0.00457772
0.0571124
-0.0568722
0.0043306
0.0569598
-0.0567127
0.00407572
0.0569286
-0.0566738
0.00381286
0.056984
-0.0567211
0.00354248
0.0570958
-0.0568255
0.00326485
0.0572466
-0.0569689
0.00298071
0.0574178
-0.0571336
0.00269088
0.0575973
-0.0573075
0.0023957
0.0577767
-0.0574816
0.00209601
0.057944
-0.0576443
0.00179148
0.058097
-0.0577925
0.00148243
0.0582301
-0.0579211
0.00116868
0.0583481
-0.0580344
0.000851342
0.0584511
-0.0581338
0.058507
-0.0581896
0.00936634
0.0850714
0.00915865
0.0873995
0.00870498
0.0854992
0.00817313
0.0819689
0.00767856
0.0780078
0.00725757
0.0742516
0.0069078
0.0709033
0.00661225
0.0679849
0.00635202
0.0654694
0.00611205
0.0633239
0.00588142
0.0615348
0.00565338
0.0600941
0.00542392
0.0589902
0.00519064
0.0581957
0.00495185
0.0576684
0.00470625
0.057358
0.00445289
0.0572132
0.00419116
0.0571904
0.00392105
0.0572541
0.00364262
0.0573743
0.00335658
0.0575326
0.00306355
0.0577108
0.0027642
0.0578967
0.0024594
0.0580815
0.00214933
0.0582541
0.00183443
0.0584119
0.0015144
0.0585501
0.00118959
0.0586729
0.000860994
0.0587797
0.0588358
0.00923432
0.084583
0.00913383
0.0875
0.00875247
0.0858806
0.00826333
0.082458
0.00779285
0.0784783
0.00738543
0.0746591
0.00704402
0.0712447
0.00675401
0.0682749
0.00649724
0.0657262
0.00625878
0.0635624
0.00602811
0.0617655
0.00579854
0.0603237
0.00556638
0.0592223
0.00532934
0.0584327
0.00508593
0.0579118
0.00483502
0.0576089
0.00457551
0.0574727
0.00430696
0.0574589
0.00402957
0.0575315
0.0037431
0.0576607
0.00344862
0.0578271
0.00314667
0.0580127
0.00283778
0.0582055
0.00252332
0.058396
0.00220283
0.0585746
0.00187753
0.0587373
0.00154651
0.0588812
0.00121062
0.0590088
0.000870716
0.0591196
0.0591762
0.00908418
0.0839494
0.00909333
0.0874909
0.00878776
0.0861861
0.00834438
0.0829014
0.00790017
0.0789225
0.0075077
0.0750515
0.00717555
0.0715768
0.00689179
0.0685586
0.00663925
0.0659787
0.00640312
0.0637985
0.0061731
0.0619955
0.00594266
0.0605541
0.00570828
0.0594567
0.00546787
0.0586731
0.00522009
0.0581595
0.00496397
0.057865
0.00469843
0.0577382
0.00442314
0.0577342
0.00413837
0.0578163
0.00384394
0.0579552
0.00354095
0.0581301
0.00323
0.0583237
0.00291167
0.0585239
0.00258732
0.0587204
0.00225661
0.0589053
0.00192068
0.0590732
0.00157877
0.0592231
0.00123172
0.0593559
0.000880487
0.0594708
0.0595282
0.00891719
0.0831736
0.00903761
0.0873705
0.00881089
0.0864129
0.00841611
0.0832962
0.00800015
0.0793385
0.00762394
0.0754278
0.00730197
0.0718988
0.00702524
0.0688354
0.00677772
0.0662263
0.00654481
0.0640314
0.00631622
0.0622241
0.00608558
0.0607848
0.00584951
0.0596928
0.00560617
0.0589165
0.00535431
0.0584114
0.00509308
0.0581262
0.00482163
0.0580097
0.00453968
0.0580162
0.00424745
0.0581085
0.00394509
0.0582575
0.00363354
0.0584416
0.00331355
0.0586437
0.00298581
0.0588516
0.00265146
0.0590547
0.00231057
0.0592462
0.0019639
0.0594199
0.00161112
0.0595758
0.00125288
0.0597141
0.000890293
0.0598334
0.0598919
0.00873476
0.0822598
0.00896738
0.0871379
0.00882193
0.0865583
0.0084783
0.0836398
0.0080925
0.0797243
0.00773377
0.0757865
0.00742288
0.0722097
0.00715399
0.0691043
0.00691235
0.0664679
0.00668353
0.0642602
0.00645724
0.0624504
0.00622715
0.0610149
0.00598999
0.0599299
0.00574415
0.0591623
0.00548851
0.058667
0.00522236
0.0583924
0.0049451
0.058287
0.00465652
0.0583047
0.00435686
0.0584081
0.00404654
0.0585679
0.00372641
0.0587617
0.00339733
0.0589728
0.00306012
0.0591888
0.00271577
0.0593991
0.00236463
0.0595974
0.00200724
0.0597773
0.00164356
0.0599395
0.00127413
0.0600836
0.000900141
0.0602074
0.0602673
0.00853847
0.0812129
0.00888352
0.0867928
0.00882114
0.0866207
0.00853084
0.0839301
0.00817694
0.0800782
0.00783687
0.0761265
0.00753787
0.0725087
0.00727765
0.0693645
0.00704277
0.0667028
0.00681902
0.064484
0.00659595
0.0626735
0.00636721
0.0612436
0.0061296
0.0601675
0.00588171
0.0594102
0.00562262
0.0589261
0.00535179
0.0586632
0.00506881
0.0585699
0.00477366
0.0585999
0.0044666
0.0587152
0.00414827
0.0588862
0.00381953
0.0590905
0.00348134
0.059311
0.00313459
0.0595356
0.00278022
0.0597534
0.00241879
0.0599588
0.00205068
0.0601454
0.00167606
0.0603141
0.00129543
0.0604642
0.000910033
0.0605928
0.0606545
0.00833001
0.080039
0.00878705
0.0863358
0.00880893
0.0865988
0.00857376
0.0841653
0.00825325
0.0803987
0.00793288
0.0764469
0.00764658
0.072795
0.00739583
0.0696152
0.00716864
0.06693
0.00695096
0.0647017
0.00673209
0.0628923
0.00650557
0.0614701
0.00626821
0.0604049
0.00601877
0.0596597
0.00575659
0.0591883
0.00548131
0.0589385
0.00519275
0.0588585
0.00489107
0.0589016
0.00457666
0.0590296
0.00425028
0.0592126
0.00391292
0.0594278
0.00356557
0.0596583
0.00320923
0.0598919
0.00284482
0.0601178
0.00247303
0.0603306
0.00209421
0.0605242
0.00170863
0.0606997
0.00131679
0.060856
0.000919963
0.0609897
0.0610534
0.00811125
0.0787444
0.00867915
0.0857678
0.00878583
0.0864921
0.0086072
0.0843439
0.0083213
0.0806846
0.00802153
0.0767467
0.00774863
0.0730679
0.00750817
0.0698557
0.00728961
0.0671485
0.00707905
0.0649122
0.00686542
0.063106
0.00664202
0.0616935
0.00640565
0.0606412
0.00615522
0.0599101
0.00589033
0.0594532
0.00561087
0.059218
0.00531689
0.0591525
0.00500875
0.0592097
0.00468701
0.0593514
0.00435259
0.059547
0.00400656
0.0597739
0.00365001
0.0600149
0.00328403
0.0602579
0.00290954
0.0604923
0.00252735
0.0607128
0.00213781
0.0609137
0.00174126
0.0610963
0.00133819
0.0612591
0.000929926
0.0613979
0.0614642
0.00788413
0.0773363
0.00856117
0.0850908
0.00875254
0.0863008
0.00863141
0.0844651
0.00838103
0.080935
0.00810258
0.0770251
0.00784371
0.0733268
0.00761429
0.0700851
0.00740532
0.0673575
0.00720297
0.0651146
0.00699566
0.0633133
0.00677636
0.0619128
0.00654177
0.0608758
0.00629093
0.0601609
0.00602376
0.0597204
0.00574039
0.0595013
0.00544117
0.0594517
0.00512667
0.0595242
0.00479766
0.0596804
0.00445518
0.0598895
0.00410046
0.0601286
0.00373466
0.0603807
0.003359
0.0606335
0.00297439
0.0608769
0.00258175
0.0611054
0.00218147
0.061314
0.00177394
0.0615038
0.00135965
0.0616734
0.000939923
0.0618176
0.0618868
0.00765074
0.075822
0.00843457
0.084307
0.00870991
0.0860254
0.00864677
0.0845282
0.00843249
0.0811492
0.00817587
0.0772818
0.00793153
0.0735711
0.00771387
0.0703028
0.00751543
0.0675559
0.0073224
0.0653076
0.00712254
0.0635131
0.00690835
0.062127
0.00667636
0.0611078
0.00642576
0.0604115
0.00615676
0.0599894
0.00586981
0.0597883
0.00556555
0.059756
0.0052448
0.0598449
0.00490856
0.0600166
0.00455804
0.06024
0.0041946
0.060492
0.00381953
0.0607557
0.00343413
0.0610189
0.00303937
0.0612717
0.00263625
0.0615085
0.0022252
0.061725
0.00180667
0.0619223
0.00138115
0.0620989
0.000949962
0.0622488
0.0623212
0.0074132
0.0742093
0.00830095
0.0834192
0.00865893
0.0856675
0.00865378
0.0845334
0.00847584
0.0813272
0.00824132
0.0775163
0.00801186
0.0738006
0.00780659
0.070508
0.00761961
0.0677429
0.00743701
0.0654902
0.00724578
0.0637044
0.00703775
0.0623351
0.00680925
0.0613363
0.00655956
0.0606612
0.00628921
0.0602597
0.00599903
0.0600784
0.00568996
0.060065
0.0053631
0.0601718
0.00501971
0.06036
0.00466116
0.0605985
0.004289
0.0608642
0.00390462
0.0611401
0.00350944
0.0614141
0.00310449
0.0616766
0.00269084
0.0619222
0.00226899
0.0621469
0.00183944
0.0623519
0.0014027
0.0625356
0.000960051
0.0626915
0.0627676
0.00717372
0.0725064
0.008162
0.0824309
0.00860072
0.0852287
0.00865311
0.084481
0.00851135
0.0814689
0.00829895
0.0777287
0.00808454
0.074015
0.00789218
0.0707004
0.00771754
0.0679176
0.00754649
0.0656613
0.00736508
0.0638858
0.0071643
0.0625358
0.00694021
0.0615604
0.00669215
0.0609093
0.00642099
0.0605309
0.00612795
0.0603715
0.00581432
0.0603787
0.00548151
0.0605046
0.00513105
0.0607105