/*--------------------------------*- C++ -*----------------------------------*\
  =========                 |
  \\      /  F ield         | OpenFOAM: The Open Source CFD Toolbox
   \\    /   O peration     | Website:  https://openfoam.org
    \\  /    A nd           | Version:  7
     \\/     M anipulation  |
\*---------------------------------------------------------------------------*/
FoamFile
{
    version     2.0;
    format      ascii;
    class       volVectorField;
    location    "9.1";
    object      U;
}
// * * * * * * * * * * * * * * * * * * * * * * * * * * * * * * * * * * * * * //

dimensions      [0 1 -1 0 0 0 0];

internalField   nonuniform List<vector> 
18000
(
(0.00047163 -0.00902327 4.03184e-21)
(0.00271772 -0.0193779 0)
(0.00688894 -0.0226856 0)
(0.0121856 -0.0204734 0)
(0.0184895 -0.0138251 -1.33864e-21)
(0.0256307 -0.00356104 6.77394e-21)
(0.0334923 0.00966891 -1.3713e-21)
(0.0419834 0.025345 1.38071e-21)
(0.0510262 0.0430454 0)
(0.0605496 0.0624184 -4.17624e-21)
(0.0704856 0.0831626 -1.39698e-21)
(0.0807645 0.10501 0)
(0.0913114 0.127714 2.78602e-21)
(0.102046 0.151038 2.79314e-21)
(0.112881 0.174752 -5.57623e-21)
(0.123726 0.19863 -5.56741e-21)
(0.134483 0.222445 0)
(0.145054 0.245977 -8.33871e-21)
(0.15534 0.269011 2.76895e-21)
(0.165244 0.291342 -8.31882e-21)
(0.174677 0.312781 2.7615e-21)
(0.183557 0.333158 0)
(0.191815 0.352327 -2.73689e-21)
(0.199394 0.370166 -2.75641e-21)
(0.206252 0.386584 0)
(0.212361 0.401515 0)
(0.217711 0.414917 -5.52084e-21)
(0.222313 0.426759 -5.52205e-21)
(0.226187 0.436994 -5.57965e-21)
(0.229249 0.445451 5.93151e-21)
(0.000721165 -0.00952131 5.74734e-21)
(0.00319037 -0.0207113 1.00269e-20)
(0.0072861 -0.0247605 -1.02777e-20)
(0.0122709 -0.0232299 -1.04926e-20)
(0.0180669 -0.0172258 -2.67198e-21)
(0.0245419 -0.00758178 8.1023e-21)
(0.0316101 0.00504318 -1.09289e-20)
(0.0392059 0.0201267 -1.1014e-20)
(0.0472714 0.0372476 1.10746e-20)
(0.0557536 0.0560565 1.11182e-20)
(0.0646008 0.0762575 -5.56343e-21)
(0.0737576 0.0975903 -1.11434e-20)
(0.0831649 0.119817 -5.58766e-21)
(0.0927583 0.142711 1.11277e-20)
(0.102467 0.166055 -1.1109e-20)
(0.112214 0.189632 1.11129e-20)
(0.12192 0.213228 -2.21844e-20)
(0.1315 0.236632 1.65906e-20)
(0.140869 0.259634 -1.1023e-20)
(0.149941 0.282036 5.53316e-21)
(0.158637 0.303649 -1.09882e-20)
(0.166882 0.324303 0)
(0.174609 0.343845 5.60942e-21)
(0.181763 0.362146 -1.09452e-20)
(0.1883 0.379105 1.0953e-20)
(0.194189 0.394641 0)
(0.199414 0.408697 -5.42782e-21)
(0.203982 0.421223 5.414e-21)
(0.207886 0.432149 2.18798e-20)
(0.211006 0.441272 1.1782e-20)
(0.000996 -0.0100217 -9.20289e-21)
(0.00372274 -0.0220077 -1.00267e-20)
(0.00776207 -0.0267397 1.54172e-20)
(0.0124516 -0.0258426 2.62068e-20)
(0.0177601 -0.0204456 0)
(0.0235947 -0.0113958 -1.08156e-20)
(0.0299 0.000643291 1.09288e-20)
(0.0366369 0.0151465 3.2993e-20)
(0.0437673 0.031693 -1.10745e-20)
(0.0512536 0.0499373 -1.1114e-20)
(0.059059 0.0695887 3.33476e-20)
(0.0671426 0.0903938 1.11433e-20)
(0.0754576 0.112123 0)
(0.0839525 0.13456 -2.22505e-20)
(0.0925704 0.157497 3.32186e-20)
(0.101249 0.180728 -1.10429e-20)
(0.109921 0.204051 1.10664e-20)
(0.118517 0.227262 1.10482e-20)
(0.126962 0.250162 5.78427e-23)
(0.135185 0.272556 0)
(0.143113 0.294261 3.29847e-20)
(0.15068 0.315104 -2.17968e-20)
(0.157825 0.334932 1.09651e-20)
(0.164494 0.35361 0)
(0.170644 0.371026 -1.09531e-20)
(0.176242 0.38709 4.36589e-20)
(0.181269 0.40173 -3.2466e-20)
(0.18573 0.414877 -1.09477e-20)
(0.189591 0.426442 1.07552e-20)
(0.192702 0.43619 1.18333e-20)
(0.00129247 -0.010473 0)
(0.00429914 -0.0231876 5.00771e-21)
(0.00829121 -0.028561 8.39749e-24)
(0.0126975 -0.0282638 -2.61808e-20)
(0.017532 -0.0234485 0)
(0.0227449 -0.0149756 -2.15489e-20)
(0.0283138 -0.00351174 0)
(0.0342234 0.0104162 -3.29595e-20)
(0.0404554 0.0263885 1.10319e-20)
(0.0469886 0.0440639 -2.2117e-20)
(0.0537989 0.0631573 -2.22116e-20)
(0.0608565 0.0834214 -1.11027e-20)
(0.0681261 0.104634 1.1081e-20)
(0.075568 0.126589 1.10256e-20)
(0.0831365 0.149087 -1.11024e-20)
(0.0907808 0.171933 -2.20091e-20)
(0.0984461 0.194934 2.19557e-20)
(0.106074 0.217896 0)
(0.113603 0.240629 0)
(0.12097 0.262945 0)
(0.128114 0.284664 0)
(0.134976 0.305616 0)
(0.1415 0.325646 0)
(0.147637 0.344617 -2.16218e-20)
(0.153346 0.362408 -2.17725e-20)
(0.158592 0.378922 -1.86157e-22)
(0.163357 0.394072 -2.17728e-20)
(0.167646 0.407775 -4.4801e-22)
(0.171397 0.41992 -2.21528e-20)
(0.174435 0.430251 4.64159e-20)
(0.00160704 -0.0109 0)
(0.00491183 -0.024285 4.49538e-20)
(0.00886099 -0.030246 7.56794e-24)
(0.0129866 -0.030508 -1.56784e-20)
(0.0173545 -0.0262454 5.30783e-20)
(0.0219594 -0.018329 3.23165e-20)
(0.0268111 -0.00742921 3.25781e-20)
(0.0319201 0.00592856 0)
(0.0372875 0.0213274 0)
(0.0429061 0.0384302 3.31651e-20)
(0.0487638 0.0569572 7.92617e-24)
(0.0548414 0.0766678 -7.74048e-20)
(0.0611131 0.0973475 6.62622e-20)
(0.0675483 0.118798 -2.2111e-20)
(0.0741108 0.140829 2.19304e-20)
(0.08076 0.163255 2.19454e-20)
(0.0874511 0.185892 -2.187e-20)
(0.0941361 0.208556 2.19014e-20)
(0.100764 0.231065 4.35997e-20)
(0.107282 0.253238 -2.16719e-20)
(0.113637 0.2749 -4.32537e-20)
(0.119779 0.295886 4.3151e-20)
(0.125657 0.31604 -4.30596e-20)
(0.131229 0.335222 2.1622e-20)
(0.136453 0.353309 0)
(0.141299 0.370194 0)
(0.14575 0.38578 3.64761e-22)
(0.149809 0.399971 -8.54438e-20)
(0.153393 0.412636 4.26981e-20)
(0.156302 0.423501 -4.6634e-20)
(0.00193649 -0.0112847 0)
(0.00554839 -0.0252683 -3.99523e-20)
(0.00945051 -0.031767 4.08764e-20)
(0.0132937 -0.0325515 0)
(0.0171966 -0.0288169 -8.48465e-20)
(0.021201 -0.0214427 -1.07467e-20)
(0.0253518 -0.0110996 -2.17462e-20)
(0.0296835 0.00168967 -1.09276e-20)
(0.0342155 0.0165115 0)
(0.0389553 0.0330345 -2.20425e-20)
(0.0439014 0.0509853 2.20638e-20)
(0.0490434 0.0701295 4.42017e-20)
(0.0543633 0.0902594 -4.4163e-20)
(0.0598386 0.111184 0)
(0.0654409 0.132722 -4.39885e-20)
(0.0711374 0.154697 4.37308e-20)
(0.0768923 0.176932 4.37453e-20)
(0.0826663 0.199254 6.52697e-20)
(0.0884174 0.221488 -6.51395e-20)
(0.0941016 0.24346 8.65791e-20)
(0.0996746 0.265003 4.3286e-20)
(0.105093 0.285953 -4.31515e-20)
(0.110313 0.306158 8.58919e-20)
(0.115297 0.325476 0)
(0.120008 0.343782 4.26518e-20)
(0.124418 0.360962 8.54822e-20)
(0.128511 0.37691 -4.21591e-20)
(0.132295 0.391519 4.27499e-20)
(0.135661 0.404642 4.34273e-23)
(0.13839 0.41599 -4.63005e-20)
(0.00227625 -0.0116263 -4.57938e-21)
(0.0061974 -0.0261351 0)
(0.0100427 -0.0331185 -5.10935e-20)
(0.0135946 -0.0343891 1.04118e-20)
(0.0170298 -0.0311601 3.17953e-20)
(0.0204387 -0.024315 1.07201e-20)
(0.0239007 -0.0145237 4.32746e-20)
(0.0274748 -0.00230473 0)
(0.0311988 0.0119346 2.19241e-20)
(0.0350933 0.0278696 2.19406e-20)
(0.0391665 0.0452327 -2.20224e-20)
(0.0434155 0.0637962 6.59895e-20)
(0.0478295 0.0833597 0)
(0.0523918 0.103739 0)
(0.0570803 0.124761 6.56542e-20)
(0.0618692 0.146255 -1.09139e-19)
(0.0667297 0.168056 4.34578e-20)
(0.0716299 0.189997 -4.34557e-20)
(0.0765352 0.21191 -4.31595e-20)
(0.0814096 0.233631 -1.2941e-19)
(0.0862162 0.254996 -2.14549e-22)
(0.0909183 0.275848 4.27446e-20)
(0.0954796 0.296036 -8.54568e-20)
(0.0998659 0.315421 4.25146e-20)
(0.104046 0.333874 -2.37617e-22)
(0.107994 0.351276 -4.25766e-20)
(0.111699 0.367515 4.25082e-20)
(0.11517 0.382475 0)
(0.118278 0.395993 4.2079e-20)
(0.120786 0.407772 5.5106e-22)
(0.00262174 -0.0119181 -9.15012e-21)
(0.0068459 -0.026873 9.96242e-21)
(0.0106181 -0.0342885 -6.11597e-20)
(0.0138661 -0.0360104 -3.1178e-20)
(0.0168271 -0.0332662 4.22425e-20)
(0.0196419 -0.026941 -6.41894e-20)
(0.0224252 -0.0177004 -2.16619e-20)
(0.02526 -0.00605573 -4.34965e-20)
(0.0282014 0.00759314 4.37046e-20)
(0.0312825 0.0229287 -8.77534e-20)
(0.0345201 0.0396909 -4.38829e-20)
(0.037918 0.0576588 -1.01632e-22)
(0.0414709 0.0766386 2.19514e-20)
(0.0451669 0.0964533 -6.56195e-20)
(0.0489892 0.116936 -8.73541e-20)
(0.0529174 0.137925 3.51791e-24)
(0.0569283 0.159261 -1.24649e-22)
(0.0609959 0.180785 4.31766e-20)
(0.0650919 0.202337 4.31601e-20)
(0.0691873 0.22376 -3.27386e-23)
(0.0732517 0.244897 -2.39303e-22)
(0.0772544 0.265595 4.2352e-20)
(0.0811652 0.285706 4.2625e-20)
(0.0849551 0.305093 5.64032e-23)
(0.0885976 0.323625 -1.2703e-19)
(0.09207 0.341181 8.41261e-20)
(0.0953659 0.357644 8.45977e-20)
(0.0984985 0.37289 -8.36805e-20)
(0.101317 0.386743 -4.20796e-20)
(0.103568 0.398903 -4.59738e-20)
(0.0029676 -0.0121543 -8.2248e-20)
(0.00748066 -0.027472 -9.94992e-21)
(0.0111579 -0.0352663 5.0944e-20)
(0.0140852 -0.0374061 4.15743e-20)
(0.0165629 -0.0351293 -4.22423e-20)
(0.0187836 -0.0293175 4.27776e-20)
(0.020897 -0.0206288 -2.15768e-20)
(0.0230096 -0.00956554 6.52219e-20)
(0.0251931 0.003482 -4.37047e-20)
(0.027492 0.018205 4.38293e-20)
(0.0299306 0.0343511 2.19607e-20)
(0.0325184 0.0517068 -2.19688e-20)
(0.0352545 0.0700848 -1.31261e-19)
(0.038131 0.0893148 8.73999e-20)
(0.0411352 0.109237 4.3621e-20)
(0.0442508 0.129696 0)
(0.047459 0.150539 0)
(0.0507385 0.171615 -2.54336e-22)
(0.0540664 0.192772 -4.29155e-20)
(0.0574192 0.213856 0)
(0.0607723 0.234719 0)
(0.0641002 0.255212 -4.25713e-20)
(0.0673783 0.275192 0)
(0.0705826 0.294522 -8.42709e-20)
(0.0736911 0.313073 0)
(0.0766848 0.33072 -4.20949e-20)
(0.0795617 0.347343 8.41147e-20)
(0.0823389 0.362813 -8.32027e-20)
(0.0848461 0.376944 0)
(0.0868145 0.389437 0)
(0.00330814 -0.0123291 7.31054e-20)
(0.00808792 -0.0279224 0)
(0.0116433 -0.0360422 -1.01738e-20)
(0.0142299 -0.0385685 1.03672e-20)
(0.0162137 -0.0367438 -6.31374e-20)
(0.0178396 -0.0314416 4.68246e-24)
(0.0192917 -0.0233092 -2.15344e-20)
(0.0206994 -0.0128369 0)
(0.0221497 -0.000403687 0)
(0.0236973 0.0136914 -2.18496e-20)
(0.0253733 0.0292046 2.18709e-20)
(0.0271918 0.04593 -4.37541e-20)
(0.0291554 0.0636874 4.38456e-20)
(0.0312594 0.0823128 0)
(0.0334941 0.101653 0)
(0.0358462 0.121558 0)
(0.0383002 0.141884 4.30135e-20)
(0.0408387 0.162483 -9.88451e-23)
(0.0434432 0.183211 4.303e-20)
(0.0460946 0.203921 -8.52263e-20)
(0.0487727 0.224469 4.26171e-20)
(0.0514573 0.244712 -2.11737e-19)
(0.0541283 0.264512 -1.16801e-22)
(0.0567665 0.283733 8.42724e-20)
(0.0593537 0.302247 -4.69884e-22)
(0.0618751 0.319928 8.32712e-20)
(0.0643327 0.336653 -8.31558e-20)
(0.0667471 0.352291 -8.34479e-20)
(0.06893 0.366648 -1.21086e-22)
(0.070598 0.379429 -9.01208e-20)
(0.00363708 -0.0124368 -9.12724e-21)
(0.00865334 -0.0282151 0)
(0.0120554 -0.0366075 2.03197e-20)
(0.0142795 -0.0394908 -2.07061e-20)
(0.0157583 -0.0381055 1.89324e-19)
(0.016789 -0.0333118 2.76071e-24)
(0.0175892 -0.0257423 -2.14972e-20)
(0.0183102 -0.0158726 2.16457e-20)
(0.0190528 -0.0040687 -1.08657e-19)
(0.019881 0.0093814 0)
(0.0208313 0.0242433 0)
(0.0219216 0.0403194 -4.35643e-20)
(0.0231573 0.0574365 4.37e-20)
(0.024536 0.0754373 -4.35385e-20)
(0.0260501 0.0941739 4.33534e-20)
(0.0276886 0.113504 0)
(0.0294385 0.133287 -1.72329e-19)
(0.0312854 0.153383 8.57367e-20)
(0.0332138 0.173652 4.28203e-20)
(0.0352084 0.193955 1.27783e-19)
(0.037253 0.214153 0)
(0.0393313 0.234106 8.45662e-20)
(0.0414275 0.253681 8.388e-20)
(0.0435263 0.272746 8.3552e-20)
(0.0456134 0.291173 -2.93841e-22)
(0.0476772 0.308837 -8.30924e-20)
(0.049724 0.325612 8.31573e-20)
(0.0517771 0.341367 0)
(0.0536314 0.355902 -1.1447e-22)
(0.0549883 0.368931 1.80012e-19)
(0.00394774 -0.0124724 -7.29375e-20)
(0.00916235 -0.028342 0)
(0.0123761 -0.036955 -8.11091e-20)
(0.0142147 -0.0401676 -1.03347e-19)
(0.0151778 -0.0392113 -6.3076e-20)
(0.0156144 -0.0349272 2.12615e-20)
(0.0157741 -0.0279291 -4.15502e-25)
(0.0158282 -0.0186754 -2.16088e-20)
(0.0158903 -0.00751737 1.49817e-22)
(0.016032 0.00526938 4.35399e-20)
(0.0162945 0.0194607 4.352e-20)
(0.0166987 0.0348676 -4.34501e-20)
(0.0172519 0.0513242 4.35103e-20)
(0.0179531 0.0686797 -1.30264e-19)
(0.0187963 0.086792 1.29834e-19)
(0.019772 0.105524 8.62631e-20)
(0.020869 0.124741 2.1508e-19)
(0.022075 0.144309 -4.29153e-20)
(0.0233772 0.164093 -8.52318e-20)
(0.0247629 0.183959 -1.63074e-22)
(0.0262191 0.203773 -8.47931e-20)
(0.027733 0.223402 2.52637e-19)
(0.0292922 0.242714 -1.68014e-19)
(0.0308849 0.261581 1.66782e-19)
(0.0324999 0.279876 -8.33865e-20)
(0.0341287 0.297476 1.65916e-19)
(0.0357809 0.314254 4.42806e-22)
(0.0374818 0.330082 -1.64722e-19)
(0.0390109 0.344754 1.63644e-19)
(0.0400531 0.357996 8.95986e-20)
(0.00423298 -0.0124313 7.29374e-20)
(0.00960025 -0.0282969 0)
(0.0125878 -0.0370788 1.82383e-19)
(0.014018 -0.0405949 6.20141e-20)
(0.0144563 -0.0400593 0)
(0.0143021 -0.0362877 0)
(0.013835 -0.029871 0)
(0.0132448 -0.021248 0)
(0.0126557 -0.0107533 4.34161e-20)
(0.012146 0.00135105 4.34633e-20)
(0.0117604 0.0148519 -8.71035e-20)
(0.0115218 0.0295693 8.70922e-20)
(0.0114388 0.0453449 1.30343e-19)
(0.0115113 0.0620342 4.34571e-20)
(0.0117341 0.0795011 4.31678e-20)
(0.0120987 0.0976137 -1.29325e-19)
(0.0125951 0.116243 -1.71763e-19)
(0.0132126 0.135258 -8.55925e-20)
(0.0139403 0.154532 8.52334e-20)
(0.0147673 0.173934 -1.69849e-19)
(0.0156835 0.193335 8.42473e-20)
(0.0166788 0.212606 -1.68439e-19)
(0.0177436 0.23162 8.36366e-20)
(0.0188687 0.250252 3.13893e-22)
(0.0200457 0.268377 -8.27729e-20)
(0.0212686 0.285871 -1.65805e-19)
(0.0225493 0.302612 1.64613e-19)
(0.0239139 0.318473 0)
(0.0251282 0.333248 1.29685e-22)
(0.025858 0.346673 -1.79047e-19)
(0.00448534 -0.0123096 9.10755e-21)
(0.00995236 -0.0280744 0)
(0.0126741 -0.036975 -8.10083e-20)
(0.0136736 -0.0407709 2.06224e-20)
(0.0135804 -0.0406491 -2.09401e-20)
(0.0128419 -0.0373942 0)
(0.0117652 -0.0315698 -2.13909e-20)
(0.0105562 -0.0235926 2.15385e-20)
(0.00934832 -0.013779 4.3278e-20)
(0.00822473 -0.00237628 -1.30129e-19)
(0.00723279 0.0104142 -4.3464e-20)
(0.00639664 0.0244216 -2.91146e-23)
(0.00572525 0.0394956 -5.19128e-23)
(0.00521906 0.0554982 -8.66339e-20)
(0.00487308 0.0722989 -4.32792e-20)
(0.00467932 0.089771 0)
(0.00462863 0.10779 -6.68325e-23)
(0.00471126 0.126231 8.54816e-20)
(0.00491757 0.144971 -8.49217e-20)
(0.00523849 0.163883 0)
(0.00566567 0.182843 0)
(0.00619131 0.201728 0)
(0.00680792 0.220413 0)
(0.00750858 0.238776 -1.37972e-22)
(0.00828694 0.256695 0)
(0.00913849 0.274049 0)
(0.0100764 0.290718 8.20662e-20)
(0.0111266 0.306578 8.17111e-20)
(0.0120423 0.321426 8.17248e-20)
(0.0124673 0.335011 1.62221e-22)
(0.0046973 -0.0121046 9.10119e-21)
(0.0102043 -0.0276714 -1.97596e-20)
(0.0126196 -0.036642 1.21234e-19)
(0.0131681 -0.0406951 -2.05966e-20)
(0.01254 -0.0409817 2.09074e-20)
(0.0112276 -0.0382482 -2.1921e-24)
(0.00956242 -0.0330274 6.40091e-20)
(0.00776394 -0.025711 -8.59538e-20)
(0.00597293 -0.0165958 1.29576e-19)
(0.00427606 -0.00591344 5.79545e-23)
(0.00272209 0.00614709 -4.33491e-20)
(0.0013356 0.0194249 8.67455e-20)
(0.000125538 0.0337773 -8.66607e-20)
(-0.000907892 0.0490731 8.64966e-20)
(-0.00176976 0.0651874 0)
(-0.0024679 0.0819985 8.59885e-20)
(-0.00301107 0.0993867 0)
(-0.0034084 0.117232 6.15184e-23)
(-0.00366869 0.135414 -8.49648e-20)
(-0.00379979 0.153813 -8.459e-20)
(-0.00380849 0.172308 8.42079e-20)
(-0.00370093 0.190779 -8.38229e-20)
(-0.00348302 0.209106 -8.34381e-20)
(-0.00316004 0.227171 -1.66206e-19)
(-0.00273696 0.244854 -8.26736e-20)
(-0.00221759 0.262036 8.26034e-20)
(-0.00158886 0.278602 -1.63792e-19)
(-0.000826481 0.294433 -8.17127e-20)
(-0.000188153 0.309331 0)
(-5.55976e-05 0.323056 -8.94561e-20)
(0.00486128 -0.0118144 0)
(0.0103423 -0.0270869 7.89145e-20)
(0.0124106 -0.0360801 -6.06209e-20)
(0.0124906 -0.0403694 -1.02773e-19)
(0.0113283 -0.0410596 0)
(0.00945682 -0.0388523 0)
(0.00722872 -0.0342456 -1.28021e-19)
(0.00487434 -0.0276043 1.71782e-19)
(0.00253963 -0.0192038 -1.29455e-19)
(0.000313343 -0.00925915 0)
(-0.00175549 0.0020532 4.33794e-20)
(-0.00364258 0.0145826 -4.34139e-20)
(-0.00533961 0.0281946 7.95785e-23)
(-0.00684704 0.0427645 -4.33344e-20)
(-0.00817039 0.058173 -4.31292e-20)
(-0.00931762 0.0743036 -4.93754e-23)
(-0.0102974 0.0910411 8.56317e-20)
(-0.0111187 0.10827 8.53292e-20)
(-0.0117896 0.125874 -1.34013e-22)
(-0.0123171 0.143737 1.69005e-19)
(-0.0127069 0.161742 -1.68584e-19)
(-0.0129638 0.179775 1.67434e-19)
(-0.0130927 0.197719 8.344e-20)
(-0.0130978 0.215457 8.30569e-20)
(-0.0129833 0.232876 6.9746e-23)
(-0.0127534 0.249859 0)
(-0.0123965 0.266295 8.21003e-20)
(-0.0118913 0.282074 -2.44608e-19)
(-0.0115048 0.297004 8.0002e-20)
(-0.0116484 0.310855 8.87944e-20)
(0.00496985 -0.0114385 -5.44981e-20)
(0.0103537 -0.026322 -1.77449e-19)
(0.0120352 -0.0352921 1.01516e-23)
(0.0116327 -0.0397975 1.26217e-22)
(0.00994162 -0.0408865 -6.24742e-20)
(0.00753108 -0.0392095 0)
(0.00477057 -0.0352264 -4.25236e-20)
(0.00189839 -0.0292726 -2.57303e-19)
(-0.000936459 -0.021601 1.2933e-19)
(-0.00364474 -0.0124098 -8.6398e-20)
(-0.00617814 -0.00186204 1.29855e-19)
(-0.00851344 0.00990204 -4.32883e-20)
(-0.0106434 0.0227563 8.65846e-20)
(-0.0125697 0.0365826 -2.16048e-19)
(-0.0142984 0.0512674 1.29269e-19)
(-0.0158381 0.0666992 8.86375e-23)
(-0.0171974 0.0827673 -2.56758e-19)
(-0.0183855 0.0993599 8.54267e-20)
(-0.01941 0.116365 -8.47867e-20)
(-0.0202772 0.133671 0)
(-0.0209918 0.151166 8.41812e-20)
(-0.0215582 0.168737 0)
(-0.0219803 0.186272 -8.35967e-20)
(-0.0222616 0.20366 8.27749e-20)
(-0.0224067 0.22079 8.26075e-20)
(-0.0224207 0.237549 8.21645e-20)
(-0.0222954 0.253833 0)
(-0.0220135 0.26954 0)
(-0.0218499 0.284488 -1.62385e-19)
(-0.0222497 0.298454 2.67265e-19)
(0.00501595 -0.0109777 5.45304e-20)
(0.010227 -0.0253804 9.85359e-20)
(0.0114838 -0.0342833 -8.04858e-20)
(0.0105891 -0.0389854 1.64053e-19)
(0.00838008 -0.0404679 2.09415e-20)
(0.0054559 -0.0393239 2.10622e-20)
(0.00219874 -0.0359715 1.29295e-22)
(-0.0011483 -0.0307151 -8.55251e-20)
(-0.00443546 -0.0237842 -4.29846e-20)
(-0.00757451 -0.0153593 1.01199e-22)
(-0.0105189 -0.00558991 -8.69771e-23)
(-0.0132471 0.00539441 -1.29807e-19)
(-0.0157537 0.0174758 -4.32475e-20)
(-0.0180415 0.030543 4.1443e-23)
(-0.0201178 0.0444881 8.61467e-20)
(-0.0219916 0.0592045 8.59019e-20)
(-0.0236723 0.0745858 2.19506e-26)
(-0.0251689 0.0905243 -8.52985e-20)
(-0.0264889 0.106912 8.51002e-20)
(-0.0276381 0.123641 -8.44122e-20)
(-0.0286207 0.140604 -1.68396e-19)
(-0.0294405 0.157691 -8.39958e-20)
(-0.0301009 0.174795 1.66618e-19)
(-0.0306056 0.191809 0)
(-0.0309595 0.208626 -8.25889e-20)
(-0.0311703 0.225139 -1.64328e-19)
(-0.031234 0.24125 -1.6391e-19)
(-0.0311389 0.256869 8.08486e-20)
(-0.0311661 0.271824 -2.42948e-19)
(-0.0317994 0.285899 8.88126e-20)
(0.00499304 -0.0104341 -9.06703e-20)
(0.00995233 -0.0242681 1.96919e-20)
(0.0107494 -0.0330616 8.04868e-20)
(0.00935764 -0.0379409 -6.14948e-20)
(0.00664731 -0.0398104 2.08482e-20)
(0.00324078 -0.0391998 4.80682e-24)
(-0.000471759 -0.0364824 2.12304e-19)
(-0.00424575 -0.03193 8.55845e-20)
(-0.00793292 -0.025748 8.60153e-20)
(-0.0114476 -0.0180989 1.29446e-19)
(-0.0147459 -0.00911827 -1.29647e-19)
(-0.0178088 0.00107502 8.65092e-20)
(-0.0206328 0.0123715 1.72982e-19)
(-0.0232227 0.0246667 8.64055e-20)
(-0.0255869 0.0378584 9.5665e-23)
(-0.0277352 0.0518451 -1.71699e-19)
(-0.0296777 0.0665243 1.71377e-19)
(-0.0314236 0.0817924 1.26268e-22)
(-0.0329804 0.0975453 -8.51377e-20)
(-0.0343534 0.113679 8.44494e-20)
(-0.0355465 0.13009 8.42147e-20)
(-0.0365633 0.146673 -8.38798e-20)
(-0.037407 0.163325 -1.67066e-19)
(-0.0380813 0.179942 -4.14848e-22)
(-0.0385927 0.196424 8.23504e-20)
(-0.038952 0.21267 8.21634e-20)
(-0.0391607 0.228589 1.63894e-19)
(-0.0392139 0.244105 -1.62117e-19)
(-0.0393977 0.259059 0)
(-0.0402387 0.273236 8.93546e-20)
(0.00489531 -0.00981124 7.62193e-23)
(0.00952159 -0.0229936 0)
(0.00982749 -0.0316372 -6.01765e-20)
(0.00793944 -0.0366742 -2.0452e-20)
(0.00475067 -0.0389221 -8.29301e-20)
(0.000899185 -0.0388422 0)
(-0.00322182 -0.0367603 -1.27259e-19)
(-0.00736973 -0.0329143 4.26947e-20)
(-0.0114 -0.0274852 0)
(-0.0152311 -0.0206169 -8.61074e-20)
(-0.0188227 -0.0124312 0)
(-0.0221589 -0.00303631 -1.29629e-19)
(-0.0252388 0.00746684 1.29536e-19)
(-0.028069 0.0189805 -8.6311e-20)
(-0.0306593 0.0314083 -8.6131e-20)
(-0.0330209 0.0446536 0)
(-0.0351644 0.058618 0)
(-0.0370996 0.0732017 8.55097e-20)
(-0.0388336 0.0883045 3.26809e-22)
(-0.0403718 0.103827 8.50648e-20)
(-0.0417181 0.119668 -8.41257e-20)
(-0.0428756 0.135727 1.67996e-19)
(-0.0438477 0.151905 -8.33168e-20)
(-0.0446386 0.168104 0)
(-0.0452564 0.18423 2.48389e-19)
(-0.0457156 0.200187 -4.11159e-19)
(-0.0460248 0.215896 8.13101e-20)
(-0.0461865 0.231293 8.1288e-20)
(-0.0464904 0.246238 8.08118e-20)
(-0.0475106 0.260513 1.79659e-19)
(0.00471791 -0.00911415 -7.22986e-20)
(0.00892901 -0.0215679 1.56778e-19)
(0.00871679 -0.0300228 8.02479e-20)
(0.0063392 -0.035197 1.83541e-19)
(0.0027013 -0.0378122 2.27785e-19)
(-0.00155151 -0.0382564 4.19323e-20)
(-0.00602831 -0.036806 -2.11501e-19)
(-0.0104919 -0.0336639 0)
(-0.0148038 -0.0289862 -1.7136e-19)
(-0.0188879 -0.0228987 -8.59131e-20)
(-0.0227085 -0.0155092 0)
(-0.0262534 -0.00691509 -8.62659e-20)
(-0.0295245 0.00279078 7.62937e-23)
(-0.0325308 0.0135176 -2.5872e-19)
(-0.0352836 0.025175 8.61331e-20)
(-0.0377954 0.0376707 8.60706e-20)
(-0.0400779 0.0509106 -1.71129e-19)
(-0.0421415 0.0647986 -1.70827e-19)
(-0.0439931 0.0792391 -3.40156e-22)
(-0.0456379 0.0941353 -1.36221e-22)
(-0.0470803 0.10939 0)
(-0.0483232 0.124907 -8.421e-20)
(-0.0493699 0.140592 -8.39228e-20)
(-0.0502254 0.156352 0)
(-0.0508997 0.172098 0)
(-0.0514113 0.187746 2.47291e-19)
(-0.0517765 0.203223 -2.45246e-19)
(-0.0520062 0.218485 0)
(-0.052392 0.233411 2.42958e-19)
(-0.0535606 0.247778 -1.78717e-19)
(0.0044571 -0.00834922 1.65782e-22)
(0.00817129 -0.0200044 -1.56826e-19)
(0.00741923 -0.0282335 -2.00233e-20)
(0.00456524 -0.0335232 -2.03878e-19)
(0.000514129 -0.0364913 -1.2421e-19)
(-0.00409008 -0.0374485 4.18612e-20)
(-0.0088642 -0.0366199 8.46527e-20)
(-0.01358 -0.0341732 2.1272e-19)
(-0.0181073 -0.0302397 1.71364e-19)
(-0.0223768 -0.0249267 1.72027e-19)
(-0.0263582 -0.0183285 0)
(-0.0300437 -0.0105321 1.23804e-22)
(-0.0334386 -0.00162202 0)
(-0.036554 0.00831783 1.72543e-19)
(-0.0394035 0.0192027 0)
(-0.0420009 0.0309451 -8.61072e-20)
(-0.0443591 0.0434548 8.54924e-20)
(-0.0464888 0.0566401 0)
(-0.0483978 0.0704089 0)
(-0.0500912 0.0846675 -2.54842e-19)
(-0.0515735 0.0993226 8.43086e-20)
(-0.0528477 0.114282 0)
(-0.0539172 0.129454 1.67058e-19)
(-0.0547878 0.144754 1.6649e-19)
(-0.055471 0.160099 -3.31493e-19)
(-0.0559896 0.175412 3.29667e-19)
(-0.0563677 0.190635 3.03416e-22)
(-0.0566248 0.205741 1.6302e-19)
(-0.0570531 0.220635 -1.61751e-19)
(-0.0583363 0.235083 0)
(0.00411049 -0.00752428 1.80663e-19)
(0.0072479 -0.0183188 -1.95844e-20)
(0.00594015 -0.0262867 -1.59633e-19)
(0.00262957 -0.0316682 0)
(-0.00179218 -0.0349708 -1.64942e-19)
(-0.00669156 -0.0364246 0)
(-0.0116988 -0.0362022 -2.10781e-19)
(-0.0165981 -0.0344358 -1.2767e-19)
(-0.0212696 -0.031232 -1.70875e-19)
(-0.0256524 -0.0266803 0)
(-0.0297226 -0.0208618 4.30963e-20)
(-0.0334772 -0.0138532 4.34029e-20)
(-0.0369249 -0.0057311 -8.61745e-20)
(-0.0400797 0.00342763 -1.72467e-19)
(-0.0429574 0.0135438 -8.59985e-20)
(-0.0455737 0.0245344 -3.43987e-19)
(-0.0479427 0.0363135 1.7119e-19)
(-0.0500757 0.0487934 -3.53728e-22)
(-0.0519812 0.0618854 -3.721e-22)
(-0.0536652 0.0754992 2.54568e-19)
(-0.0551323 0.0895444 0)
(-0.0563856 0.103932 0)
(-0.0574289 0.118576 5.42114e-22)
(-0.0582684 0.133396 2.81016e-22)
(-0.058917 0.148315 -1.66162e-19)
(-0.0594009 0.163267 -1.65502e-19)
(-0.0597516 0.178208 -5.46031e-22)
(-0.0599966 0.193131 -1.63023e-19)
(-0.0604271 0.207972 -1.6237e-19)
(-0.0617883 0.222483 -4.90325e-22)
(0.00367717 -0.00664843 0)
(0.00616123 -0.0165289 1.55903e-19)
(0.00428842 -0.0242015 1.39712e-19)
(0.000547881 -0.0296494 2.03036e-20)
(-0.00419525 -0.0332636 3.29536e-19)
(-0.00932741 -0.0351914 -4.17053e-20)
(-0.0144977 -0.0355525 3.36813e-19)
(-0.0195065 -0.0344438 1.69529e-19)
(-0.0242463 -0.0319478 2.56261e-19)
(-0.0286658 -0.0281364 1.28539e-19)
(-0.0327484 -0.0230779 4.3057e-20)
(-0.0364964 -0.0168397 2.15661e-19)
(-0.0399226 -0.00949005 2.47576e-22)
(-0.0430439 -0.00109932 8.63787e-20)
(-0.0458787 0.00825874 1.72293e-19)
(-0.0484447 0.0185057 1.72004e-19)
(-0.0507574 0.02956 0)
(-0.0528294 0.0413379 0)
(-0.0546701 0.0537539 0)
(-0.0562867 0.0667208 0)
(-0.0576842 0.080151 1.69581e-19)
(-0.0588666 0.0939586 0)
(-0.0598379 0.108061 -2.826e-22)
(-0.0606046 0.122382 3.34077e-19)
(-0.0611805 0.136851 1.65905e-19)
(-0.0615937 0.151414 1.64986e-19)
(-0.0618818 0.166038 3.2888e-19)
(-0.0620783 0.18074 0)
(-0.0624704 0.195497 -3.25129e-19)
(-0.06387 0.210045 3.60016e-19)
(0.00315783 -0.00573187 1.43814e-19)
(0.00491677 -0.0146543 -1.55907e-19)
(0.00247649 -0.021999 0)
(-0.00166044 -0.0274853 -1.61785e-19)
(-0.00666918 -0.0313832 -4.14868e-20)
(-0.0119656 -0.0337561 -1.2463e-19)
(-0.0172235 -0.0346706 -3.78202e-19)
(-0.0222624 -0.034189 -3.8367e-22)
(-0.0269895 -0.0323701 -1.27727e-19)
(-0.0313643 -0.029269 -2.99643e-19)
(-0.0353784 -0.0249423 -4.29063e-20)
(-0.0390399 -0.0194479 -1.72092e-19)
(-0.0423662 -0.0128467 -1.72297e-19)
(-0.0453773 -0.0052023 0)
(-0.0480946 0.00341655 -1.72268e-19)
(-0.0505381 0.012936 -2.58297e-19)
(-0.052725 0.023279 8.56952e-20)
(-0.0546695 0.0343656 -1.71412e-19)
(-0.0563827 0.0461137 -1.70951e-19)
(-0.0578731 0.0584387 0)
(-0.0591474 0.0712556 -3.39393e-19)
(-0.0602105 0.0844808 0)
(-0.0610672 0.0980342 -3.36833e-19)
(-0.0617247 0.111842 -1.67896e-19)
(-0.0621967 0.125841 -3.33232e-19)
(-0.0625118 0.139981 1.66115e-19)
(-0.0627102 0.154247 -4.93851e-19)
(-0.0628277 0.16868 1.63913e-19)
(-0.063142 0.183303 -3.34662e-22)
(-0.0645362 0.197843 -1.81298e-19)
(0.00255483 -0.00478575 -1.43817e-19)
(0.00352316 -0.0127161 1.94073e-20)
(0.000520367 -0.019702 1.38668e-19)
(-0.00397245 -0.025196 1.61789e-19)
(-0.00918462 -0.0293444 -1.64215e-19)
(-0.014571 -0.0321264 4.04137e-22)
(-0.0198353 -0.0335563 1.67905e-19)
(-0.0248197 -0.0336624 -3.38144e-19)
(-0.029448 -0.0324807 -4.22586e-20)
(-0.0336917 -0.0300504 3.84669e-19)
(-0.0375516 -0.0264173 -2.57393e-19)
(-0.0410422 -0.0216305 4.2987e-19)
(-0.0441854 -0.0157434 4.30721e-19)
(-0.0470055 -0.0088139 -8.59983e-20)
(-0.0495266 -0.000905704 1.72272e-19)
(-0.0517715 0.00791194 2.58323e-19)
(-0.0537596 0.0175664 8.6126e-20)
(-0.0555071 0.0279818 -9.40537e-23)
(-0.0570273 0.0390791 8.5223e-20)
(-0.0583311 0.0507766 8.50382e-20)
(-0.0594273 0.0629915 -8.53846e-20)
(-0.0603231 0.0756417 8.44089e-20)
(-0.0610253 0.0886481 -1.68659e-19)
(-0.061542 0.101938 1.67615e-19)
(-0.0618869 0.115449 -2.8673e-22)
(-0.0620869 0.129139 1.66168e-19)
(-0.0621813 0.142998 -3.14449e-22)
(-0.0622 0.157097 -1.63711e-19)
(-0.0624003 0.171515 1.9374e-22)
(-0.0637392 0.185979 0)
(0.00187225 -0.00382194 0)
(0.00199217 -0.0107366 0)
(-0.00156048 -0.0173343 -1.78308e-19)
(-0.00636184 -0.0228026 2.01559e-20)
(-0.0117091 -0.0271629 0)
(-0.0171054 -0.0303109 1.6584e-19)
(-0.0222897 -0.0322099 4.1859e-20)
(-0.0271297 -0.0328551 1.26748e-19)
(-0.0315678 -0.0322607 1.69993e-19)
(-0.035589 -0.0304516 -1.70844e-19)
(-0.0392037 -0.0274631 1.71473e-19)
(-0.0424336 -0.0233364 -1.71901e-19)
(-0.0453058 -0.0181181 -1.72153e-19)
(-0.0478486 -0.0118607 0)
(-0.05009 -0.00462336 0)
(-0.0520555 0.00352938 0)
(-0.0537671 0.0125294 -1.71847e-19)
(-0.0552437 0.0223048 2.57511e-19)
(-0.0565013 0.0327799 -8.53537e-20)
(-0.0575541 0.043876 0)
(-0.0584141 0.0555124 2.55303e-19)
(-0.0590924 0.0676084 -8.45112e-20)
(-0.0595993 0.0800844 1.68661e-19)
(-0.0599459 0.0928661 -3.36588e-19)
(-0.0601467 0.105889 3.33811e-19)
(-0.0602263 0.119108 5.68235e-22)
(-0.0602182 0.132516 2.67473e-22)
(-0.0601351 0.1462 1.64011e-19)
(-0.0601909 0.160305 -6.89302e-22)
(-0.0614096 0.174586 1.8129e-19)
(0.00111589 -0.00285283 1.78224e-20)
(0.000338718 -0.00873906 -1.93639e-20)
(-0.00374324 -0.014921 3.94451e-20)
(-0.00879914 -0.0203272 -2.40814e-19)
(-0.0142074 -0.0248552 4.07888e-20)
(-0.0195281 -0.028319 0)
(-0.0245407 -0.0306323 1.66657e-19)
(-0.0291414 -0.0317586 -1.6808e-19)
(-0.0332928 -0.0316916 0)
(-0.0369946 -0.0304429 2.1282e-19)
(-0.0402677 -0.0280386 -4.26961e-20)
(-0.0431414 -0.0245125 0)
(-0.0456487 -0.0199053 -8.61141e-20)
(-0.0478225 -0.0142647 1.72059e-19)
(-0.0496947 -0.00764547 -8.58514e-20)
(-0.0512941 -0.000107685 8.62343e-20)
(-0.0526456 0.008285 -1.71869e-19)
(-0.0537712 0.0174647 -4.59833e-22)
(-0.0546904 0.0273597 -4.68505e-22)
(-0.0554211 0.0378946 -8.56617e-20)
(-0.0559801 0.0489916 -1.70734e-19)
(-0.0563837 0.0605714 -9.40448e-22)
(-0.0566484 0.0725541 -5.36722e-22)
(-0.0567912 0.0848618 1.68128e-19)
(-0.0568305 0.0974232 -1.67875e-19)
(-0.0567903 0.11018 1.66469e-19)
(-0.0566968 0.12311 -3.31311e-19)
(-0.056532 0.136296 -2.80517e-22)
(-0.0564232 0.149937 -3.27939e-19)
(-0.0574165 0.163862 1.81707e-19)
(0.000293398 -0.00189131 0)
(-0.00141909 -0.00674751 -1.53774e-19)
(-0.00600183 -0.0124877 0)
(-0.0112519 -0.0177931 5.22482e-22)
(-0.0166415 -0.0224391 4.06679e-20)
(-0.0217962 -0.0261613 3.12554e-23)
(-0.0265406 -0.0288256 -3.32776e-19)
(-0.0308019 -0.0303654 1.26155e-19)
(-0.034565 -0.0307555 0)
(-0.037845 -0.0299954 -2.12735e-19)
(-0.0406743 -0.0281029 4.26071e-20)
(-0.0430906 -0.0251052 0)
(-0.0451329 -0.021038 -8.6004e-20)
(-0.0468396 -0.015945 8.57319e-20)
(-0.0482466 -0.00987689 8.56531e-20)
(-0.0493862 -0.00288955 1.71942e-19)
(-0.0502869 0.00495763 -8.56737e-20)
(-0.0509737 0.013601 0)
(-0.0514701 0.0229732 0)
(-0.0517982 0.0330032 1.70823e-19)
(-0.0519802 0.0436174 -1.70842e-19)
(-0.0520388 0.0547396 1.69291e-19)
(-0.0519989 0.0662914 1.69051e-19)
(-0.0518871 0.0781928 1.68853e-19)
(-0.0517315 0.090364 -1.6714e-19)
(-0.0515625 0.102728 1.66661e-19)
(-0.0514067 0.115224 1.6631e-19)
(-0.0512211 0.127894 -1.64505e-19)
(-0.0510059 0.140968 -5.49565e-22)
(-0.051669 0.154349 3.65061e-19)
(-0.000586468 -0.000949726 1.77132e-20)
(-0.00326088 -0.00478537 1.34575e-19)
(-0.00830776 -0.01006 0)
(-0.0136855 -0.0152234 1.59968e-19)
(-0.0189717 -0.0199329 0)
(-0.0238653 -0.0238492 0)
(-0.0282403 -0.026793 1.24674e-19)
(-0.0320575 -0.0286696 -9.09127e-23)
(-0.0353254 -0.0294361 4.20975e-20)
(-0.038076 -0.0290816 4.2469e-20)
(-0.0403537 -0.0276163 -1.27852e-19)
(-0.0422049 -0.0250618 8.52924e-20)
(-0.0436759 -0.0214498 0)
(-0.0448104 -0.0168206 0)
(-0.0456489 -0.0112215 -1.71858e-19)
(-0.0462277 -0.00470448 0)
(-0.0465784 0.00267497 -8.60992e-20)
(-0.0467299 0.0108576 8.5511e-20)
(-0.0467089 0.0197807 8.58694e-20)