/*--------------------------------*- C++ -*----------------------------------*\
  =========                 |
  \\      /  F ield         | OpenFOAM: The Open Source CFD Toolbox
   \\    /   O peration     | Website:  https://openfoam.org
    \\  /    A nd           | Version:  7
     \\/     M anipulation  |
\*---------------------------------------------------------------------------*/
FoamFile
{
    version     2.0;
    format      ascii;
    class       surfaceScalarField;
    location    "5.5";
    object      phi;
}
// * * * * * * * * * * * * * * * * * * * * * * * * * * * * * * * * * * * * * //

dimensions      [0 3 -1 0 0 0 0];

internalField   nonuniform List<scalar> 
35640
(
-7.65773e-06
-8.88584e-06
1.65436e-05
-2.70822e-05
0.000242431
-0.000223006
-5.54023e-05
0.000704136
-0.000675816
-8.92312e-05
0.00128693
-0.0012531
-0.000125285
0.00193783
-0.00190177
-0.000160553
0.00262462
-0.00258935
-0.000192412
0.003327
-0.00329514
-0.000218664
0.00403141
-0.00400516
-0.000237516
0.00472846
-0.00470961
-0.000247531
0.00541085
-0.00540084
-0.000247606
0.00607245
-0.00607237
-0.000236952
0.00670763
-0.00671828
-0.000214988
0.00731116
-0.00733313
-0.000181332
0.00787829
-0.00791194
-0.000135779
0.00840475
-0.0084503
-7.82554e-05
0.00888691
-0.00894443
-8.80318e-06
0.0093219
-0.00939136
7.24324e-05
0.00970765
-0.00978888
0.000165219
0.0100429
-0.0101356
0.000269255
0.0103271
-0.0104311
0.000384187
0.0105606
-0.0106755
0.000509639
0.0107443
-0.0108698
0.000645192
0.0108797
-0.0110153
0.000790378
0.0109686
-0.0111138
0.0009447
0.0110132
-0.0111675
0.00110758
0.0110157
-0.0111786
0.00127826
0.0109787
-0.0111493
0.00145579
0.0109044
-0.0110819
0.00163874
0.0107975
-0.0109805
0.0106642
0.00182515
-0.0108506
-9.5763e-06
6.90153e-07
-3.29522e-05
0.000265806
-6.6507e-05
0.000737691
-0.000106459
0.00132688
-0.000149292
0.00198066
-0.000191889
0.00266722
-0.000231508
0.00336662
-0.000265833
0.00406574
-0.000292962
0.00475559
-0.000311394
0.00542929
-0.000319962
0.00608102
-0.0003178
0.00670547
-0.00030428
0.00729764
-0.000278971
0.00785298
-0.000241609
0.00836738
-0.000192088
0.00883738
-0.000130414
0.00926023
-5.66867e-05
0.00963392
2.89172e-05
0.00995726
0.000126153
0.0102299
0.000234712
0.010452
0.000354247
0.0106248
0.000484366
0.0107496
0.000624621
0.0108284
0.000774499
0.0108633
0.000933344
0.0108569
0.00110029
0.0108117
0.0012742
0.0107305
0.00145347
0.0106183
0.0104818
0.00163591
-1.12818e-05
1.19717e-05
-3.80766e-05
0.000292601
-7.61337e-05
0.000775749
-0.000121351
0.00137209
-0.000169996
0.00202931
-0.000218828
0.00271605
-0.000264995
0.00341279
-0.00030614
0.00410688
-0.000340288
0.00478974
-0.00036586
0.00545486
-0.000381623
0.00609678
-0.000386653
0.0067105
-0.00038028
0.00729127
-0.000362037
0.00783473
-0.000331645
0.00833699
-0.000288959
0.0087947
-0.000233931
0.0092052
-0.00016662
0.00956661
-8.71726e-05
0.00987781
4.20307e-06
0.0101385
0.000107264
0.010349
0.00022172
0.0105103
0.000347229
0.0106241
0.000483366
0.0106922
0.000629596
0.0107171
0.000785206
0.0107013
0.000949244
0.0106477
0.00112041
0.0105593
0.00129691
0.0104418
0.0103024
0.00147631
-1.27154e-05
2.46869e-05
-4.25012e-05
0.000322387
-8.44037e-05
0.000817651
-0.000133975
0.00142167
-0.000187334
0.00208267
-0.000241185
0.0027699
-0.000292613
0.00346422
-0.000339194
0.00415347
-0.000378917
0.00482946
-0.00041015
0.00548609
-0.000431606
0.00611824
-0.000442318
0.00672121
-0.0004416
0.00729055
-0.00042896
0.00782209
-0.000404081
0.00831211
-0.000366795
0.00875741
-0.000317039
0.00915545
-0.00025484
0.00950441
-0.000180298
0.00980327
-9.3562e-05
0.0100517
5.18795e-06
0.0102502
0.000115719
0.0103998
0.00023775
0.0105021
0.000370904
0.0105591
0.00051465
0.0105733
0.00066827
0.0105477
0.000830713
0.0104852
0.00100054
0.0103895
0.00117576
0.0102665
0.0101244
0.00135368
-1.39551e-05
3.86423e-05
-4.61513e-05
0.000354583
-9.10688e-05
0.000862569
-0.000143987
0.00147458
-0.000200911
0.00213959
-0.000258466
0.00282746
-0.000313739
0.00351949
-0.000364272
0.004204
-0.000408014
0.0048732
-0.000443298
0.00552137
-0.000468816
0.00614375
-0.000483573
0.00673597
-0.000486844
0.00729382
-0.000478132
0.00781338
-0.000457117
0.0082911
-0.00042361
0.00872391
-0.000377525
0.00910936
-0.000318864
0.00944575
-0.000247686
0.00973209
-0.000164082
0.00996813
-6.81635e-05
0.0101543
3.99177e-05
0.0102917
0.000159955
0.010382
0.000291646
0.0104274
0.000434516
0.0104305
0.000587841
0.0103943
0.000750524
0.0103225
0.000921014
0.010219
0.00109712
0.0100904
0.00994569
0.00127587
-1.49129e-05
5.35548e-05
-4.89624e-05
0.000388633
-9.60802e-05
0.000909687
-0.000151293
0.0015298
-0.00021054
0.00219884
-0.000270434
0.00288735
-0.000328061
0.00357712
-0.000380945
0.00425689
-0.000427034
0.00491929
-0.000464643
0.00555898
-0.000492439
0.00617155
-0.000509408
0.00675294
-0.00051482
0.00729923
-0.000508175
0.00780674
-0.000489145
0.00827207
-0.00045753
0.00869229
-0.000413242
0.00906507
-0.00035626
0.00938876
-0.000286598
0.00966243
-0.000204283
0.00988582
-0.000109358
0.0100594
-1.88366e-06
0.0101843
0.000118038
0.0102621
0.000250201
0.0102952
0.000394224
0.0102865
0.000549424
0.0102391
0.000714713
0.0101573
0.000888444
0.0100452
0.00106825
0.00991062
0.00976312
0.00125081
-1.56212e-05
6.91761e-05
-5.09191e-05
0.000423931
-9.93453e-05
0.000958113
-0.000155754
0.00158621
-0.000216044
0.00225913
-0.00027682
0.00294813
-0.000335208
0.00363551
-0.000388756
0.00431043
-0.000435405
0.00496594
-0.000473465
0.00559704
-0.000501601
0.00619968
-0.000518795
0.00677013
-0.000524314
0.00730475
-0.000517656
0.00780008
-0.000498495
0.00825291
-0.000466638
0.00866043
-0.000421991
0.00902043
-0.000364514
0.00933129
-0.00029418
0.00959209
-0.000210962
0.0098026
-0.000114822
0.00996325
-5.71808e-06
0.0100752
0.000116365
0.01014
0.000251354
0.0101602
0.000398994
0.0101388
0.0005587
0.0100794
0.000729438
0.00998652
0.000909526
0.00986516
0.00109644
0.00972371
0.00957311
0.00128646
-1.60671e-05
8.52435e-05
-5.19942e-05
0.000459858
-0.000100837
0.00100696
-0.000157307
0.00164268
-0.000217297
0.00231912
-0.000277449
0.00300828
-0.000334943
0.003693
-0.000387361
0.00436285
-0.000432665
0.00501124
-0.000469181
0.00563356
-0.000495576
0.00622608
-0.000510834
0.00678539
-0.000514228
0.00730815
-0.000505262
0.00779111
-0.000483615
0.00823126
-0.000449106
0.00862592
-0.000401641
0.00897296
-0.000341166
0.00927081
-0.00026762
0.00951855
-0.000180923
0.0097159
-8.0959e-05
0.00986329
3.2421e-05
0.00996177
0.000159361
0.0100131
0.000299945
0.0100197
0.000454075
0.00998468
0.000621336
0.00991217
0.0008008
0.00980706
0.000990817
0.00967514
0.00118873
0.00952579
0.00937144
0.0013904
-1.62569e-05
0.000101501
-5.21971e-05
0.000495799
-0.000100555
0.00105531
-0.000155943
0.00169807
-0.000214276
0.00237745
-0.000272257
0.00306626
-0.000327136
0.00374788
-0.000376554
0.00441227
-0.000418514
0.0050532
-0.000451369
0.00566642
-0.000473796
0.00624851
-0.000484793
0.00679638
-0.000483642
0.00730699
-0.000469853
0.00777732
-0.000443118
0.00820452
-0.00040327
0.00858608
-0.000350218
0.00891991
-0.000283896
0.00920449
-0.000204224
0.00943888
-0.000111077
0.00962276
-4.26695e-06
0.00975648
0.000116453
0.00984105
0.000251367
0.00987817
0.000400723
0.00987031
0.000564615
0.00982079
0.00074284
0.00973395
0.000934657
0.00961524
0.00113852
0.00947128
0.00135171
0.0093126
0.00915352
0.00156963
-1.61974e-05
0.000117698
-5.15519e-05
0.000531154
-9.85458e-05
0.00110231
-0.000151726
0.00175125
-0.000207045
0.00243277
-0.000261289
0.0031205
-0.000311796
0.00379839
-0.000356285
0.00445676
-0.000392822
0.00508974
-0.000419791
0.00569338
-0.000435898
0.00626461
-0.000440158
0.00680064
-0.00043186
0.0072987
-0.000410524
0.00775599
-0.000375858
0.00816986
-0.000327709
0.00853793
-0.000265992
0.00885819
-0.000190639
0.00912914
-0.000101557
0.00934979
1.41044e-06
0.00951979
0.000118504
0.00963938
0.00025006
0.00970949
0.000396482
0.00973175
0.000558178
0.00970861
0.00073546
0.00964351
0.000928366
0.00954104
0.00113642
0.00940719
0.00135825
0.00924944
0.00159119
0.00907967
0.00891452
0.00183018
-1.5901e-05
0.000133599
-5.01078e-05
0.000565361
-9.49014e-05
0.0011471
-0.000144782
0.00180113
-0.000195759
0.00248375
-0.000244711
0.00316946
-0.000289078
0.00384276
-0.00032668
0.00449436
-0.000355653
0.00511871
-0.000374434
0.00571217
-0.000381763
0.00627194
-0.000376674
0.00679555
-0.000358466
0.00728049
-0.000326671
0.00772419
-0.000281012
0.0081242
-0.000221347
0.00847826
-0.000147598
0.00878444
-5.9706e-05
0.00904124
4.24225e-05
0.00924766
0.000158956
0.00940325
0.000290172
0.00950817
0.000436462
0.0095632
0.000598324
0.00956989
0.000776304
0.00953063
0.000970914
0.0094489
0.00118246
0.00932949
0.00141078
0.00917887
0.00165479
0.00900542
0.00191194
0.00882252
0.00864961
0.00217685
-1.5389e-05
0.000148988
-4.79351e-05
0.000597908
-8.97528e-05
0.00118892
-0.000135309
0.00184668
-0.00018067
0.00252911
-0.000222814
0.0032116
-0.000259296
0.00387924
-0.000288048
0.00452312
-0.000307295
0.00513796
-0.000315535
0.00572041
-0.00031155
0.00626796
-0.000294398
0.0067784
-0.000263389
0.00724948
-0.000218066
0.00767887
-0.000158167
0.0080643
-8.35535e-05
0.00840365
5.83778e-06
0.00869505
0.000110052
0.00893703
0.00022917
0.00912855
0.000363353
0.00926907
0.000512883
0.00935864
0.00067817
0.00939792
0.000859757
0.0093883
0.00105829
0.0093321
0.00127444
0.00923275
0.00150877
0.00909516
0.00176144
0.0089262
0.00203177
0.0087351
0.00231744
0.00853685
0.0083542
0.00261285
-1.469e-05
0.000163679
-4.51268e-05
0.000628345
-8.32747e-05
0.00122707
-0.000123569
0.00188698
-0.000162125
0.00256767
-0.000196019
0.0032455
-0.000222927
0.00390615
-0.000240904
0.00454109
-0.000248272
0.00514533
-0.000243604
0.00571574
-0.000225733
0.00625009
-0.000193743
0.00674641
-0.000146959
0.0072027
-8.4936e-05
0.00761685
-7.41465e-06
0.00798678
8.57324e-05
0.0083105
0.000194556
0.00858623
0.000319082
0.0088125
0.000459366
0.00898826
0.000615539
0.0091129
0.000787847
0.00918633
0.000976675
0.00920909
0.00118256
0.00918242
0.00140616
0.00910849
0.00164826
0.00899064
0.00190963
0.0088338
0.00219074
0.00864508
0.00249132
0.00843452
0.00280947
0.0082187
0.00802412
0.00313954
-1.38392e-05
0.000177518
-4.17948e-05
0.000656301
-7.56796e-05
0.00126095
-0.000109888
0.00192119
-0.000140561
0.00259834
-0.00016487
0.0032698
-0.00018061
0.00392189
-0.000185962
0.00454644
-0.000179355
0.00513872
-0.000159449
0.00569583
-0.000125135
0.00621577
-7.55283e-05
0.0066968
-9.97287e-06
0.00713714
7.19677e-05
0.00753491
0.000170548
0.0078882
0.000285892
0.00819516
0.000418032
0.00845409
0.000566967
0.00866357
0.000732715
0.00882252
0.000915352
0.00893026
0.00111506
0.00898663
0.00133213
0.00899201
0.00156704
0.00894752
0.00182039
0.00885514
0.00209296
0.00871807
0.00238564
0.00854112
0.00269916
0.00833156
0.00303366
0.00810002
0.00338777
0.0078646
0.00765586
0.00375603
-1.2878e-05
0.000190397
-3.80675e-05
0.00068149
-6.72133e-05
0.0012901
-9.46429e-05
0.00194862
-0.0001165
0.0026202
-0.000130029
0.00328333
-0.000133142
0.003925
-0.000124141
0.00453744
-0.000101571
0.00511615
-6.41887e-05
0.00565845
-1.09494e-05
0.00616253
5.89908e-05
0.00662686
0.000146266
0.00704987
0.000251303
0.00742987
0.000374353
0.00776515
0.000515526
0.00805398
0.000674841
0.00829477
0.000852262
0.00848615
0.00104775
0.00862702
0.00126131
0.0087167
0.00149301
0.00875492
0.00174303
0.00874199
0.00201168
0.00867887
0.00229943
0.00856739
0.00260696
0.00841053
0.00293513
0.00821295
0.00328485
0.00798184
0.00365659
0.00772827
0.00404957
0.00747162
0.00724666
0.00445877
-1.18511e-05
0.000202248
-3.40855e-05
0.000703725
-5.81458e-05
0.00131416
-7.82568e-05
0.00196873
-9.05293e-05
0.00263247
-9.22609e-05
0.00328507
-8.14624e-05
0.00391421
-5.65522e-05
0.00451253
-1.61953e-05
0.0050758
4.07478e-05
0.00560151
0.00011525
0.00608803
0.000208105
0.00653401
0.000319916
0.00693805
0.000451094
0.00729869
0.000601881
0.00761436
0.000772375
0.00788349
0.000962568
0.00810458
0.00117238
0.00827633
0.00140171
0.0083977
0.00165044
0.00846796
0.00191852
0.00848684
0.00220595
0.00845457
0.00251282
0.008372
0.0028394
0.00824082
0.00318613
0.0080638
0.00355373
0.00784535
0.00394311
0.00759247
0.004355
0.00731638
0.00478916
0.00703745
0.00679459
0.00524124
-1.0806e-05
0.000213054
-2.99957e-05
0.000722914
-4.87618e-05
0.00133292
-6.1179e-05
0.00198114
-6.32873e-05
0.00263458
-5.24074e-05
0.00327419
-2.6627e-05
0.00388843
1.55273e-05
0.00447038
7.52726e-05
0.00501605
0.000153641
0.00552314
0.000251523
0.00599015
0.000369652
0.00641588
0.000508587
0.00679912
0.000668714
0.00713856
0.000850255
0.00743282
0.00105328
0.00768046
0.00127775
0.00788011
0.00152352
0.00803056
0.0017904
0.00813082
0.00207816
0.0081802
0.00238656
0.00817844
0.0027154
0.00812573
0.00306451
0.00802289
0.00343384
0.00787149
0.00382354
0.0076741
0.00423404
0.00743485
0.00466608
0.00716043
0.0051205
0.00686196
0.00559754
0.00656042
0.00629852
0.0060936
-9.79031e-06
0.000222845
-2.59456e-05
0.00073907
-3.9348e-05
0.00134633
-4.38692e-05
0.00198566
-3.54365e-05
0.00262614
-1.13586e-05
0.00325011
3.02237e-05
0.00384684
9.06932e-05
0.00440991
0.000171152
0.00493559
0.000272524
0.00542176
0.000395606
0.00586707
0.000541057
0.00627043
0.000709379
0.0066308
0.000900915
0.00694703
0.00111585
0.00721789
0.00135421
0.0074421
0.00161589
0.00761843
0.00190069
0.00774577
0.00220829
0.00782322
0.00253831
0.00785018
0.00289033
0.00782642
0.00326386
0.00775219
0.00365847
0.00762829
0.00407374
0.00745621
0.00450943
0.0072384
0.00496559
0.00697869
0.00544264
0.00668337
0.00594136
0.00636324
0.00646231
0.00603947
0.00575812
0.00700272
-8.84951e-06
0.000231694
-2.20755e-05
0.000752296
-3.01799e-05
0.00135443
-2.67755e-05
0.00198226
-7.63359e-06
0.002607
2.99843e-05
0.00321249
8.79178e-05
0.00378891
0.000167471
0.00433036
0.000269643
0.00483342
0.000395248
0.00529616
0.00054498
0.00571733
0.000719409
0.006096
0.000918961
0.00643124
0.00114391
0.00672208
0.00139438
0.00696742
0.00167034
0.00716614
0.0019716
0.00731717
0.00229784
0.00741953
0.00264861
0.00747245
0.00302336
0.00747543
0.00342142
0.00742836
0.00384205
0.00733156
0.00428446
0.00718587
0.00474787
0.0069928
0.00523161
0.00675466
0.00573525
0.00647505
0.00625882
0.0061598
0.00680286
0.0058192
0.00736809
0.00547424
0.00517373
0.00795249
-8.02443e-06
0.000239719
-1.85108e-05
0.000762782
-2.15059e-05
0.00135743
-1.03045e-05
0.00197106
1.95061e-05
0.00257719
7.07631e-05
0.00316124
0.000145308
0.00371437
0.000244389
0.00423128
0.000368911
0.0047089
0.000519583
0.00514549
0.000696987
0.00553993
0.000901586
0.0058914
0.00113371
0.00619912
0.00139354
0.00646224
0.00168111
0.00667984
0.00199629
0.00685096
0.00233877
0.00697468
0.00270811
0.00705019
0.00310368
0.00707688
0.00352471
0.0070544
0.00397029
0.00698278
0.00443938
0.00686247
0.00493083
0.00669442
0.00544349
0.00648015
0.00597621
0.00622194
0.00652809
0.00592317
0.00709867
0.00558922
0.00768818
0.00522969
0.00829734
0.00486508
0.00454632
0.00892475
-7.34848e-06
0.000247067
-1.53536e-05
0.000770787
-1.35329e-05
0.0013556
5.18266e-06
0.00195234
4.54473e-05
0.00253693
0.000110208
0.00309647
0.000201343
0.00362323
0.000320065
0.00411256
0.000467198
0.00456177
0.000643349
0.00496933
0.000848979
0.0053343
0.00108443
0.00565595
0.00134991
0.00593364
0.00164549
0.00616667
0.00197106
0.00635427
0.00232637
0.00649565
0.00271098
0.00659008
0.00312425
0.00663693
0.00356536
0.00663577
0.0040333
0.00658646
0.00452688
0.0064892
0.00504475
0.0063446
0.00558541
0.00615375
0.00614729
0.00591827
0.00672881
0.00564042
0.00732858
0.0053234
0.00794566
0.00497214
0.00857986
0.00459549
0.00923183
0.00421312
0.00387749
0.00990066
-6.84526e-06
0.000253912
-1.26753e-05
0.000776617
-6.40545e-06
0.00134933
1.94384e-05
0.0019265
6.97741e-05
0.00248659
0.000147698
0.00301855
0.000255145
0.00351579
0.000393309
0.00397439
0.000562948
0.00439213
0.00076457
0.00476771
0.000998513
0.00510036
0.00126498
0.00538949
0.00156403
0.00563459
0.0018956
0.00583511
0.00225942
0.00599045
0.00265507
0.0061
0.00308193
0.00616322
0.00353916
0.0061797
0.0040257
0.00614922
0.0045403
0.00607186
0.00508146
0.00594804
0.00564751
0.00577856
0.00623658
0.00556468
0.00684671
0.00530814
0.00747589
0.00501124
0.00812225
0.00467704
0.00878436
0.00431003
0.0094616
0.00391825
0.0101545
0.00352026
0.00316948
0.0108625
-6.52637e-06
0.000260439
-1.051e-05
0.000780601
-2.05664e-07
0.00133903
3.23092e-05
0.00189398
9.22268e-05
0.00242667
0.000182816
0.00292796
0.000306085
0.00339252
0.000463228
0.00381725
0.000654949
0.0042004
0.000881659
0.004541
0.00114357
0.00483845
0.00144073
0.00509232
0.00177305
0.00530227
0.00214027
0.00546789
0.00254196
0.00558875
0.0029775
0.00566446
0.00344606
0.00569466
0.00394657
0.00567919
0.00447774
0.00561806
0.00503802
0.00551159
0.00562562
0.00536044
0.00623853
0.00516565
0.00687454
0.00492867
0.00753127
0.00465141
0.0082063
0.00433621
0.00889727
0.00398606
0.00960224
0.00360506
0.0103201
0.00320038
0.0110511
0.00278923
0.00242531
0.0117953
-6.38956e-06
0.000266828
-8.84885e-06
0.00078306
5.07845e-06
0.0013251
4.37792e-05
0.00185528
0.000112736
0.00235772
0.0002154
0.0028253
0.000353863
0.00325405
0.000529333
0.00364178
0.000742469
0.00398727
0.00099359
0.00428988
0.00128278
0.00454926
0.00160992
0.00476518
0.00197476
0.00493743
0.00237684
0.00506581
0.00281553
0.00515006
0.00329
0.00518998
0.00379919
0.00518547
0.0043418
0.00513658
0.00491626
0.00504359
0.00552077
0.00490708
0.00615323
0.00472797
0.00681131
0.00450757
0.00749243
0.00424756
0.00819381
0.00395002
0.00891258
0.00361744
0.00964585
0.00325279
0.0103911
0.00285983
0.0111466
0.00244486
0.0119123
0.00202352
0.00164893
0.0126887
-6.41733e-06
0.000273246
-7.637e-06
0.00078428
9.54174e-06
0.00130792
5.39789e-05
0.00181085
0.000131448
0.00228025
0.000245583
0.00271116
0.000398565
0.00310107
0.000591622
0.00344872
0.000825378
0.00375351
0.00110006
0.00401519
0.00141563
0.00423369
0.00177181
0.004409
0.00216814
0.0045411
0.00260399
0.00462996
0.00307852
0.00467554
0.00359066
0.00467784
0.00413912
0.00463701
0.00472237
0.00455333
0.00533858
0.00442737
0.00598569
0.00425998
0.0066613
0.00405236
0.00736278
0.00380609
0.00808718
0.00352316
0.00883131
0.00320589
0.00959176
0.00285699
0.010365
0.0024795
0.0111479
0.00207702
0.0119377
0.00165504
0.0127338
0.00122741
0.000845599
0.0135371
-6.57656e-06
0.000279822
-6.77246e-06
0.000784475
1.33742e-05
0.00128778
6.31924e-05
0.00176103
0.000148737
0.0021947
0.000273818
0.00258608
0.000440702
0.00293419
0.000650645
0.00323878
0.000904238
0.00349992
0.00120163
0.0037178
0.00154264
0.00389268
0.00192684
0.00402479
0.0023536
0.00411434
0.00282207
0.00416149
0.0033312
0.00416641
0.00387971
0.00412934
0.00446607
0.00405065
0.0050885
0.0039309
0.00574497
0.00377091
0.00643313
0.00357182
0.00715034
0.00333515
0.00789365
0.00306279
0.00865974
0.00275706
0.00944497
0.00242066
0.0102454
0.0020566
0.0110566
0.00166823
0.0118745
0.00125918
0.0126951
0.000834414
0.0135166
0.000405932
2.236e-05
0.0143398
-6.81932e-06
0.000286641
-6.108e-06
0.000783764
1.68556e-05
0.00126481
7.18542e-05
0.00170603
0.000165205
0.00210135
0.000300878
0.00245041
0.000481223
0.00275385
0.000707521
0.00301248
0.000980338
0.0032271
0.00129974
0.0033984
0.00166542
0.003527
0.00207681
0.0036134
0.00253309
0.00365806
0.0030332
0.00366137
0.0035759
0.00362371
0.00415967
0.00354557
0.00478278
0.00342754
0.00544321
0.00327046
0.0061387
0.00307543
0.00686664
0.00284387
0.00762416
0.00257763
0.00840799
0.00227897
0.00921447
0.00195059
0.0100395
0.00159564
0.0108784
0.00121769
0.011726
0.000820612
0.0125767
0.000408519
0.0134248
-1.36995e-05
0.0142662
-0.000435439
-0.000811318
0.0150998
-7.08493e-06
0.000293726
-5.45769e-06
0.000782137
2.03464e-05
0.00123901
8.05338e-05
0.00164584
0.000181659
0.00200023
0.000327834
0.00230423
0.000521484
0.0025602
0.000763913
0.00277005
0.00105566
0.00293535
0.00139671
0.00305735
0.00178665
0.00313706
0.00222474
0.00317531
0.00271001
0.0031728
0.00324119
0.00313018
0.00381683
0.00304808
0.00443518
0.00292721
0.00509428
0.00276844
0.00579188
0.00257286
0.00652546
0.00234184
0.0072922
0.00207714
0.00808891
0.00178091
0.00891207
0.00145581
0.00975768
0.00110498
0.0106212
0.000732116
0.0114974
0.000341496
0.0123801
-6.20744e-05
0.013262
-0.000473365
0.0141349
-0.000886605
0.014991
-0.00129154
-0.00164415
0.0158238
-7.30214e-06
0.000301028
-4.60124e-06
0.000779436
2.4272e-05
0.00121014
8.99115e-05
0.0015802
0.000199079
0.00189106
0.000356007
0.00214731
0.000563185
0.00235302
0.000821936
0.0025113
0.00113277
0.00262452
0.00149558
0.00269453
0.00190986
0.00272278
0.00237471
0.00271045
0.00288896
0.00265855
0.00345117
0.00256797
0.00405962
0.00243963
0.00471234
0.00227449
0.00540709
0.00207369
0.00614135
0.0018386
0.00691231
0.00157088
0.00771685
0.0012726
0.0085515
0.000946263
0.00941243
0.00059487
0.0102954
0.000221998
0.0111957
-0.00016813
0.0121077
-0.000570514
0.0130248
-0.000979181
0.0139383
-0.00138691
0.0148365
-0.00178473
0.0157032
-0.00215825
-0.0024653
0.0165243
-7.39316e-06
0.000308421
-3.29e-06
0.000775332
2.91035e-05
0.00117774
0.000100744
0.00150856
0.000218564
0.00177324
0.00038689
0.00197898
0.000608265
0.00213164
0.000884019
0.00223555
0.00121462
0.00229392
0.00159989
0.00230927
0.00203917
0.0022835
0.00253141
0.00221821
0.00307523
0.00211473
0.00366894
0.00197426
0.00431056
0.00179801
0.00499781
0.00158724
0.00572811
0.00134339
0.00649859
0.00106812
0.00730606
0.000763415
0.008147
0.000431658
0.0090176
7.56655e-05
0.00991371
-0.000301245
0.0108309
-0.000695204
0.0117645
-0.0011017
0.0127094
-0.00151544
0.0136602
-0.00192999
0.0146104
-0.00233712
0.0155502
-0.00272446
0.0164548
-0.00306294
0.0172347
-0.00324516
0.00259189
0.0558976
-0.0566643
0.00353549
0.0500486
-0.0509922
0.00446238
0.0445765
-0.0455034
0.00533059
0.0406559
-0.0415242
0.00605865
0.0384773
-0.0392053
0.00660906
0.0376798
-0.0382302
0.00697351
0.0377607
-0.0381251
0.00716754
0.0382933
-0.0384873
0.00722113
0.0390148
-0.0390684
0.00716719
0.039812
-0.039758
0.00703485
0.040661
-0.0405287
0.00684573
0.0415593
-0.0413702
0.00661408
0.0424981
-0.0422664
0.00635033
0.0434538
-0.0431901
0.00606117
0.0444031
-0.044114
0.00575159
0.0453272
-0.0450177
0.00542644
0.0462072
-0.0458821
0.00508895
0.0470389
-0.0467015
0.00474221
0.0478145
-0.0474677
0.00438879
0.0485317
-0.0481783
0.0040301
0.0491894
-0.0488307
0.00366833
0.0497842
-0.0494225
0.0033038
0.0503198
-0.0499552
0.0029382
0.0507896
-0.050424
0.002571
0.0511981
-0.050831
0.0022032
0.0515409
-0.0511731
0.00183403
0.0518233
-0.0514541
0.00146515
0.0520636
-0.0516948
0.00109901
0.0522768
-0.0519107
0.0524351
-0.0520764
0.00244311
0.0550904
0.00345607
0.0490356
0.00445231
0.0435803
0.00538401
0.0397242
0.0061628
0.0376985
0.0067501
0.0370925
0.00713901
0.0373717
0.00734744
0.0380848
0.00740794
0.0389543
0.00735575
0.0398642
0.00722127
0.0407955
0.00702814
0.0417524
0.00679105
0.0427352
0.00652089
0.043724
0.00622425
0.0446998
0.00590678
0.0456447
0.00557273
0.0465413
0.00522586
0.0473858
0.00486906
0.0481713
0.00450502
0.0488958
0.00413538
0.049559
0.00376198
0.0501576
0.00338594
0.0506958
0.00300804
0.0511675
0.00262898
0.0515772
0.00224879
0.051921
0.00186763
0.0522044
0.00148695
0.0524443
0.00110909
0.0526547
0.0528056
0.00231534
0.0542514
0.00339078
0.0479602
0.00445195
0.0425191
0.00544351
0.0387327
0.00627067
0.0368713
0.00689338
0.0364698
0.00730591
0.0369592
0.00752836
0.0378624
0.0075955
0.0388872
0.007545
0.0399147
0.00740842
0.0409321
0.00721126
0.0419496
0.00696875
0.0429777
0.00669222
0.0440005
0.00638824
0.0450038
0.00606297
0.04597
0.00572018
0.046884
0.00536406
0.0477419
0.00499728
0.0485381
0.0046227
0.0492703
0.00424216
0.0499396
0.00385714
0.0505427
0.00346961
0.0510833
0.00307939
0.0515577
0.00268842
0.0519682
0.00229578
0.0523137
0.00190249
0.0525977
0.00150984
0.052837
0.00111994
0.0530446
0.0531883
0.00221564
0.0533894
0.0033446
0.0468313
0.00446446
0.0413993
0.00551091
0.0376862
0.00638322
0.035999
0.00703935
0.0358137
0.00747431
0.0365243
0.00771021
0.0376265
0.00778374
0.0388136
0.0077347
0.0399637
0.00759615
0.0410707
0.00739484
0.0421509
0.00714701
0.0432255
0.00686411
0.0442834
0.00655306
0.0453148
0.00621997
0.0463031
0.00586864
0.0472354
0.00550334
0.0481072
0.00512668
0.0489147
0.00474167
0.0496554
0.00435025
0.050331
0.00395383
0.0509391
0.00355459
0.0514826
0.00315231
0.05196
0.00274912
0.0523714
0.00234416
0.0527186
0.00193856
0.0530033
0.00153372
0.0532418
0.00113158
0.0534468
0.0535836
0.00215161
0.0525137
0.00332276
0.0456601
0.00449322
0.0402288
0.00558824
0.0365912
0.00650147
0.0350858
0.00718835
0.0351268
0.00764426
0.0360683
0.0078929
0.0373779
0.00797245
0.0387341
0.0079246
0.0400115
0.00778419
0.0412111
0.00757875
0.0423563
0.00732562
0.0434787
0.00703638
0.0445727
0.00671844
0.0456327
0.00637759
0.0466439
0.00601789
0.0475951
0.00564351
0.0484816
0.00525713
0.0493011
0.0048618
0.0500507
0.00445951
0.0507333
0.00405182
0.0513468
0.00364076
0.0518936
0.0032266
0.0523742
0.00281102
0.052787
0.00239381
0.0531358
0.00197576
0.0534214
0.0015585
0.0536591
0.00114394
0.0538613
0.053992
0.00213114
0.0516334
0.00333085
0.0444604
0.00454178
0.0390179
0.00567748
0.0354555
0.00662644
0.0341368
0.00734083
0.0344124
0.00781587
0.0355933
0.00807629
0.0371174
0.00816147
0.0386489
0.00811462
0.0400584
0.0079723
0.0413534
0.00776276
0.0425659
0.00750439
0.043737
0.00720891
0.0448682
0.00688415
0.0459575
0.00653569
0.0469924
0.00616774
0.047963
0.00578442
0.0488649
0.00538847
0.049697
0.00498289
0.0504563
0.00456982
0.0511464
0.00415094
0.0517657
0.0037281
0.0523165
0.00330206
0.0528002
0.00287409
0.0532149
0.00244458
0.0535654
0.00201401
0.0538519
0.00158415
0.0540889
0.00115694
0.0542885
0.0544137
0.00216204
0.0507578
0.00337459
0.0432478
0.00461386
0.0377786
0.00578079
0.0342886
0.00675921
0.0331584
0.00749722
0.0336744
0.00798922
0.0351013
0.00826025
0.0368464
0.00835059
0.0385586
0.00830454
0.0401045
0.00816027
0.0414977
0.00794665
0.0427795
0.00768309
0.0440006
0.00738152
0.0451697
0.00705
0.046289
0.00669412
0.0473483
0.00631804
0.0483391
0.00592589
0.0492571
0.00552051
0.0501024
0.0051048
0.050872
0.00468104
0.0515701
0.00425102
0.0521957
0.0038165
0.052751
0.00337854
0.0532382
0.00293825
0.0536552
0.00249635
0.0540073
0.00205321
0.0542951
0.00161059
0.0545316
0.00117051
0.0547286
0.0548492
0.0022519
0.0498963
0.00345973
0.04204
0.00471325
0.0365251
0.00590043
0.0331014
0.00690092
0.0321579
0.00765801
0.0329173
0.0081644
0.0345949
0.00844469
0.0365661
0.00853961
0.0384636
0.00849416
0.0401499
0.00834786
0.041644
0.00813022
0.0429971
0.00786155
0.0442693
0.00755402
0.0454773
0.00721583
0.0466272
0.00685268
0.0477114
0.00646863
0.0487232
0.00606777
0.049658
0.00565309
0.0505171
0.00522738
0.0512977
0.00479302
0.0520045
0.00435193
0.0526368
0.00390581
0.0531971
0.00345595
0.053688
0.00300335
0.0541078
0.00254903
0.0544616
0.00209327
0.0547509
0.00163777
0.0549871
0.00118459
0.0551818
0.0552985
0.00240766
0.0490582
0.00359192
0.0408557
0.00484379
0.0352732
0.00603874
0.0319064
0.00705281
0.0311438
0.00782372
0.0321464
0.0083415
0.0340771
0.00862952
0.0362781
0.00872834
0.0383648
0.00868325
0.040195
0.00853486
0.0417923
0.00831326
0.0432187
0.00803955
0.044543
0.0077262
0.0457906
0.00738148
0.0469719
0.00701119
0.0480817
0.00661932
0.049115
0.00620991
0.0500674
0.00578604
0.050941
0.00535048
0.0517332
0.00490563
0.0524493
0.00445354
0.0530889
0.0039959
0.0536548
0.00353417
0.0541498
0.00306929
0.0545727
0.0026025
0.0549284
0.00213409
0.0552193
0.00166561
0.0554555
0.00119913
0.0556483
0.0557619
0.00263535
0.0482531
0.00377648
0.0397146
0.00500926
0.0340405
0.00619814
0.0307176
0.00721616
0.0301258
0.00799489
0.0313677
0.00852066
0.0335514
0.00881467
0.0359841
0.00891658
0.0382629
0.00887161
0.04024
0.00872104
0.0419429
0.00849556
0.0434442
0.00821692
0.0448216
0.00789786
0.0461097
0.00754676
0.047323
0.00716949
0.048459
0.00676996
0.0495146
0.00635215
0.0504852
0.00591923
0.0513739
0.00547395
0.0521785
0.00501873
0.0529046
0.00455572
0.0535519
0.00408663
0.0541238
0.00361307
0.0546233
0.00313596
0.0550498
0.00265667
0.0554077
0.00217558
0.0557004
0.00169405
0.0559371
0.00121409
0.0561282
0.0562396
0.00293971
0.0474902
0.00401814
0.0386362
0.00521325
0.0328453
0.00638105
0.0295498
0.00739233
0.0291145
0.00817216
0.0305878
0.00870202
0.0330215
0.00900005
0.0356861
0.00910415
0.0381588
0.00905899
0.0402851
0.00890618
0.0420957
0.0086769
0.0436735
0.00839343
0.0451051
0.00806881
0.0464343
0.0077115
0.0476804
0.00732739
0.0488431
0.00692037
0.0499216
0.00649435
0.0509112
0.00605252
0.0518157
0.00559763
0.0526334
0.00513219
0.05337
0.00465834
0.0540257
0.0041779
0.0546043
0.00369253
0.0551087
0.00320325
0.0555391
0.00271145
0.0558994
0.00221764
0.0561942
0.00172301
0.0564317
0.00122943
0.0566218
0.0567318
0.00332388
0.0467792
0.00432073
0.0376393
0.00545892
0.0317072
0.00658972
0.028419
0.00758268
0.0281215
0.00835613
0.0298144
0.00888579
0.0324918
0.00918561
0.0353862
0.00929087
0.0380535
0.00924519
0.0403308
0.00909006
0.0422509
0.00885706
0.0439065
0.00856888
0.0453933
0.00823886
0.0467643
0.00787551
0.0480437
0.00748474
0.0492338
0.00707041
0.0503359
0.00663634
0.0513453
0.00618578
0.0522663
0.00572141
0.0530978
0.00524589
0.0538455
0.00476128
0.0545103
0.00426958
0.055096
0.00377246
0.0556058
0.00327106
0.0560405
0.00276675
0.0564038
0.00226021
0.0567007
0.00175243
0.0569395
0.00124513
0.0571291
0.0572386
0.00378912
0.0461296
0.00468681
0.0367416
0.00574883
0.0306451
0.00682619
0.0273416
0.00778851
0.0271592
0.00854747
0.0290554
0.00907217
0.0319671
0.00937126
0.0350872
0.00947657
0.0379482
0.00942996
0.0403774
0.00927244
0.0424084
0.0090358
0.0441431
0.00874306
0.045686
0.00840781
0.0470995
0.00803862
0.0484129
0.00764137
0.0496311
0.00721992
0.0507574
0.00677798
0.0517872
0.00631885
0.0527254
0.00584515
0.0535715
0.00535969
0.054331
0.00486442
0.0550056
0.00436157
0.0555988
0.00385275
0.0561146
0.00333927
0.056554
0.00282249
0.0569205
0.00230319
0.05722
0.00178225
0.0574604
0.00126115
0.0576502
0.0577601
0.00433452
0.0455511
0.00511741
0.0359587
0.00608466
0.0296779
0.00709206
0.0263342
0.00801097
0.0262403
0.00874678
0.0283196
0.00926136
0.0314526
0.00955698
0.0347915
0.00966108
0.0378441
0.00961307
0.0404254
0.0094531
0.0425684