/*--------------------------------*- C++ -*----------------------------------*\
  =========                 |
  \\      /  F ield         | OpenFOAM: The Open Source CFD Toolbox
   \\    /   O peration     | Website:  https://openfoam.org
    \\  /    A nd           | Version:  7
     \\/     M anipulation  |
\*---------------------------------------------------------------------------*/
FoamFile
{
    version     2.0;
    format      ascii;
    class       volVectorField;
    location    "5.5";
    object      U;
}
// * * * * * * * * * * * * * * * * * * * * * * * * * * * * * * * * * * * * * //

dimensions      [0 1 -1 0 0 0 0];

internalField   nonuniform List<vector> 
18000
(
(-0.000133581 -0.00041225 8.5937e-21)
(-0.00112507 0.00691291 0)
(-0.00293077 0.0206053 0)
(-0.0050143 0.0379799 0)
(-0.00716628 0.0574481 -2.82719e-21)
(-0.00917832 0.0780415 1.43034e-20)
(-0.0109102 0.0991457 -2.89271e-21)
(-0.0122749 0.12035 2.91263e-21)
(-0.0132204 0.141365 0)
(-0.0137191 0.161968 -8.82347e-21)
(-0.0137653 0.18197 -2.95111e-21)
(-0.0133653 0.201197 0)
(-0.0125345 0.219489 5.90622e-21)
(-0.0112984 0.2367 5.91717e-21)
(-0.00968518 0.252699 -1.18347e-20)
(-0.00772325 0.267374 -1.18185e-20)
(-0.0054429 0.280638 0)
(-0.00287395 0.292427 -1.7669e-20)
(-4.60626e-05 0.302699 5.8596e-21)
(0.00300978 0.311439 -1.75549e-20)
(0.00626435 0.318656 5.8165e-21)
(0.0096914 0.324376 0)
(0.013266 0.328641 -5.74172e-21)
(0.0169649 0.331506 -5.73454e-21)
(0.0207651 0.333034 0)
(0.0246433 0.333292 0)
(0.0285752 0.332351 -1.12656e-20)
(0.0325479 0.330277 -1.11898e-20)
(0.036541 0.327205 -1.11623e-20)
(0.0403518 0.323304 1.24131e-20)
(-0.000184542 -0.000130677 1.22486e-20)
(-0.00157477 0.00756265 2.13032e-20)
(-0.00404905 0.0214679 -2.17965e-20)
(-0.00691644 0.0389405 -2.22138e-20)
(-0.00991374 0.0584029 -5.64566e-21)
(-0.0127967 0.0789026 1.71235e-20)
(-0.015405 0.0998429 -2.30794e-20)
(-0.0176375 0.120824 -2.32621e-20)
(-0.019428 0.141571 2.34027e-20)
(-0.0207416 0.161877 2.35029e-20)
(-0.0215694 0.181562 -1.17929e-20)
(-0.0219117 0.200459 -2.36223e-20)
(-0.0217786 0.218416 -1.18411e-20)
(-0.0211931 0.235292 2.36401e-20)
(-0.0201793 0.250959 -2.363e-20)
(-0.0187624 0.265311 2.36001e-20)
(-0.0169718 0.278262 -4.71415e-20)
(-0.014837 0.28975 3.52132e-20)
(-0.012386 0.299736 -2.33901e-20)
(-0.00964835 0.308205 1.16874e-20)
(-0.00665334 0.315168 -2.32028e-20)
(-0.00342897 0.32065 0)
(-1.99774e-06 0.324695 1.16296e-20)
(0.00360249 0.327358 -2.28453e-20)
(0.00735832 0.328702 2.27123e-20)
(0.0112389 0.328799 0)
(0.0152145 0.327723 -1.1153e-20)
(0.0192639 0.325548 1.10872e-20)
(0.0233449 0.322419 4.42173e-20)
(0.0272617 0.318521 2.46903e-20)
(-0.000246401 0.000154684 -1.9614e-20)
(-0.00203214 0.00822323 -2.13028e-20)
(-0.00514855 0.0223722 3.26874e-20)
(-0.00876236 0.0399554 5.54805e-20)
(-0.0125605 0.0594141 0)
(-0.0162629 0.0798162 -2.2848e-20)
(-0.0196891 0.10058 2.3079e-20)
(-0.0227277 0.121325 6.97226e-20)
(-0.025303 0.141793 -2.34024e-20)
(-0.0273735 0.161784 -2.35064e-20)
(-0.0289238 0.18113 7.0665e-20)
(-0.0299514 0.199677 2.36221e-20)
(-0.0304625 0.217278 0)
(-0.0304749 0.233796 -4.72971e-20)
(-0.0300119 0.249111 7.0684e-20)
(-0.0290965 0.263119 -2.35483e-20)
(-0.0277553 0.275736 2.35318e-20)
(-0.0260167 0.286902 2.34841e-20)
(-0.0239081 0.296581 8.17283e-23)
(-0.0214585 0.304761 0)
(-0.0186974 0.311449 6.96276e-20)
(-0.0156527 0.316675 -4.60041e-20)
(-0.0123515 0.32048 2.29753e-20)
(-0.00882166 0.322924 0)
(-0.00509156 0.324071 -2.27123e-20)
(-0.00119202 0.323996 9.00364e-20)
(0.0028417 0.322778 -6.6826e-20)
(0.00698182 0.3205 -2.22619e-20)
(0.0111642 0.31732 2.18494e-20)
(0.0151968 0.313436 2.46535e-20)
(-0.000321654 0.000515248 0)
(-0.00250757 0.00902104 1.06294e-20)
(-0.00624982 0.0234101 6.52574e-25)
(-0.0105733 0.0410908 -5.54477e-20)
(-0.0151187 0.0605275 0)
(-0.0195809 0.0808128 -4.55711e-20)
(-0.0237623 0.101381 0)
(-0.0275399 0.121871 -6.96898e-20)
(-0.0308319 0.142036 2.33386e-20)
(-0.0335913 0.161692 -4.68801e-20)
(-0.0357978 0.180681 -4.70863e-20)
(-0.0374454 0.198857 -2.35969e-20)
(-0.0385383 0.216082 2.35513e-20)
(-0.0390913 0.232225 2.34963e-20)
(-0.0391238 0.247169 -2.36331e-20)
(-0.0386571 0.260815 -4.69938e-20)
(-0.0377173 0.273082 4.68104e-20)
(-0.0363313 0.283911 0)
(-0.0345254 0.293268 0)
(-0.0323273 0.301141 0)
(-0.029766 0.30754 0)
(-0.0268693 0.312493 0)
(-0.023665 0.316045 0)
(-0.0201824 0.318254 -4.53037e-20)
(-0.0164518 0.319189 -4.5197e-20)
(-0.012508 0.318931 -1.92976e-22)
(-0.00839065 0.317564 -4.45309e-20)
(-0.00413504 0.315184 -3.00625e-22)
(0.000172954 0.311958 -4.42326e-20)
(0.0043423 0.308099 9.78953e-20)
(-0.000415684 0.000898876 0)
(-0.00300447 0.00985194 9.54661e-20)
(-0.00734197 0.0244885 6.39525e-25)
(-0.0123308 0.042265 -3.32057e-20)
(-0.017571 0.0616733 1.12349e-19)
(-0.0227302 0.0818326 6.83484e-20)
(-0.0275979 0.102196 6.89479e-20)
(-0.0320444 0.12242 0)
(-0.0359816 0.142272 0)
(-0.0393573 0.161582 7.03254e-20)
(-0.0421492 0.180201 4.8355e-23)
(-0.0443488 0.197994 -1.64672e-19)
(-0.0459568 0.214829 1.41122e-19)
(-0.0469853 0.230584 -4.71081e-20)
(-0.047452 0.245147 4.68398e-20)
(-0.0473771 0.25842 4.68075e-20)
(-0.046785 0.270325 -4.67508e-20)
(-0.0457011 0.280806 4.67098e-20)
(-0.0441503 0.28983 9.2921e-20)
(-0.0421593 0.297386 -4.61523e-20)
(-0.0397566 0.303483 -9.18554e-20)
(-0.0369691 0.30815 9.13431e-20)
(-0.0338243 0.311434 -9.0793e-20)
(-0.0303524 0.313396 4.53035e-20)
(-0.0265856 0.314108 0)
(-0.0225613 0.313655 0)
(-0.0183241 0.312133 3.7916e-22)
(-0.0139167 0.309647 -1.75274e-19)
(-0.00944472 0.30638 8.68664e-20)
(-0.00510331 0.30256 -9.76371e-20)
(-0.000528428 0.00131498 0)
(-0.00352274 0.0107427 -8.48505e-20)
(-0.00842899 0.0256268 8.6685e-20)
(-0.0140387 0.0434875 0)
(-0.0199137 0.0628553 -1.79608e-19)
(-0.0257037 0.0828773 -2.27463e-20)
(-0.0311872 0.103025 -4.5998e-20)
(-0.0362267 0.122971 -2.31394e-20)
(-0.0407313 0.142501 0)
(-0.0446473 0.161453 -4.68249e-20)
(-0.0479486 0.179692 4.68713e-20)
(-0.0506245 0.197091 9.40484e-20)
(-0.0526742 0.213529 -9.4094e-20)
(-0.0541078 0.228888 0)
(-0.054941 0.243061 -9.39192e-20)
(-0.0551931 0.255954 9.35184e-20)
(-0.0548871 0.267491 9.34541e-20)
(-0.0540468 0.277617 1.39466e-19)
(-0.0526956 0.286302 -1.38985e-19)
(-0.0508591 0.293533 1.84364e-19)
(-0.0485646 0.29932 9.18484e-20)
(-0.0458381 0.303693 -9.13425e-20)
(-0.042706 0.306699 1.81209e-19)
(-0.0391985 0.308401 0)
(-0.0353494 0.308878 8.91609e-20)
(-0.0311982 0.30822 1.77339e-19)
(-0.0267936 0.306535 -8.74228e-20)
(-0.0221856 0.303941 8.75808e-20)
(-0.0174982 0.300635 -1.50802e-22)
(-0.0129364 0.296867 -9.72068e-20)
(-0.000661927 0.00175063 -9.74627e-21)
(-0.00406456 0.0116613 0)
(-0.0095068 0.0267861 -1.0834e-19)
(-0.0156881 0.0447221 2.20684e-20)
(-0.0221375 0.0640386 6.73137e-20)
(-0.028488 0.0839124 2.26988e-20)
(-0.0345105 0.103837 9.16841e-20)
(-0.0400639 0.123501 0)
(-0.0450555 0.142701 4.65528e-20)
(-0.0494296 0.16129 4.66884e-20)
(-0.0531584 0.179144 -4.68948e-20)
(-0.0562301 0.196146 1.40631e-19)
(-0.0586427 0.212182 0)
(-0.0604042 0.227142 0)
(-0.0615294 0.240923 1.40442e-19)
(-0.062037 0.253433 -2.33479e-19)
(-0.0619481 0.264601 9.30107e-20)
(-0.0612846 0.274373 -9.28849e-20)
(-0.0600689 0.282716 -9.22127e-20)
(-0.0583256 0.289621 -2.75786e-19)
(-0.05608 0.295095 -3.01452e-22)
(-0.0533565 0.299168 9.06411e-20)
(-0.0501806 0.30189 -1.80451e-19)
(-0.0465815 0.303325 8.93959e-20)
(-0.0425935 0.303555 -4.35104e-22)
(-0.0382582 0.302683 -8.84885e-20)
(-0.033628 0.300825 8.77918e-20)
(-0.0287594 0.298116 0)
(-0.0237921 0.294773 8.57977e-20)
(-0.0189494 0.29107 2.48654e-22)
(-0.00081581 0.00219706 -1.94629e-20)
(-0.00462816 0.0125928 2.11325e-20)
(-0.010573 0.0279484 -1.29662e-19)
(-0.0172746 0.0459452 -6.60435e-20)
(-0.0242334 0.065199 8.94725e-20)
(-0.0310707 0.0849169 -1.35987e-19)
(-0.037553 0.104612 -4.58928e-20)
(-0.0435369 0.123989 -9.22863e-20)
(-0.0489296 0.142857 9.28414e-20)
(-0.053675 0.161082 -1.86605e-19)
(-0.0577448 0.17855 -9.34912e-20)
(-0.061126 0.195155 -1.42817e-22)
(-0.0638161 0.210791 4.69084e-20)
(-0.065822 0.225354 -1.40307e-19)
(-0.0671581 0.238745 -1.86925e-19)
(-0.0678417 0.250877 -2.36693e-23)
(-0.0678922 0.261679 -2.34717e-22)
(-0.0673303 0.2711 9.23943e-20)
(-0.0661772 0.279108 9.22118e-20)
(-0.0644559 0.285688 2.37141e-23)
(-0.0621901 0.290852 -2.47216e-22)
(-0.0594018 0.294626 8.99874e-20)
(-0.0561151 0.29706 9.00348e-20)
(-0.0523584 0.298222 -9.45457e-23)
(-0.0481654 0.298199 -2.6573e-19)
(-0.0435787 0.297102 1.75246e-19)
(-0.0386542 0.295061 1.74302e-19)
(-0.0334546 0.29223 -1.72412e-19)
(-0.0281323 0.288849 -8.57967e-20)
(-0.0229371 0.285222 -9.54176e-20)
(-0.000989822 0.00264754 -1.74764e-19)
(-0.00521197 0.0135189 -2.1099e-20)
(-0.0116242 0.0290893 1.08004e-19)
(-0.0187923 0.0471317 8.80773e-20)
(-0.0261937 0.0663106 -8.94716e-20)
(-0.0334416 0.085864 9.06222e-20)
(-0.040301 0.105326 -4.57687e-20)
(-0.0466284 0.124414 1.3837e-19)
(-0.0523323 0.142952 -9.28404e-20)
(-0.0573577 0.160816 9.32363e-20)
(-0.0616763 0.177902 4.67354e-20)
(-0.0652751 0.194115 -4.68885e-20)
(-0.0681513 0.209356 -2.80612e-19)
(-0.0703117 0.223528 1.86907e-19)
(-0.0717701 0.236537 9.3371e-20)
(-0.0725422 0.248299 0)
(-0.0726462 0.258747 0)
(-0.0721015 0.267827 -4.81165e-22)
(-0.0709285 0.275508 -9.16455e-20)
(-0.0691482 0.281774 0)
(-0.0667822 0.286634 0)
(-0.0638511 0.290115 -9.0285e-20)
(-0.060377 0.292264 0)
(-0.0563865 0.293152 -1.77137e-19)
(-0.0519123 0.292871 0)
(-0.0469978 0.29154 -8.7557e-20)
(-0.041702 0.289306 1.73275e-19)
(-0.0360928 0.286343 -1.71396e-19)
(-0.0303315 0.282919 0)
(-0.0247036 0.279378 0)
(-0.00118274 0.00309331 1.5533e-19)
(-0.00581301 0.0144219 0)
(-0.012656 0.0301865 -2.15546e-20)
(-0.0202361 0.0482558 2.19647e-20)
(-0.0280117 0.0673459 -1.33739e-19)
(-0.035592 0.0867266 3.65683e-23)
(-0.0427432 0.105952 -4.56554e-20)
(-0.0493241 0.124753 0)
(-0.0552457 0.142964 0)
(-0.0604554 0.160474 -4.65571e-20)
(-0.0649259 0.177187 4.66032e-20)
(-0.0686448 0.193017 -9.34902e-20)
(-0.07161 0.207875 9.3618e-20)
(-0.0738283 0.221667 0)
(-0.0753126 0.234307 0)
(-0.0760777 0.245714 0)
(-0.0761407 0.255821 9.21306e-20)
(-0.0755201 0.264576 -2.47785e-22)
(-0.0742348 0.271945 9.19021e-20)
(-0.0723043 0.277913 -1.81669e-19)
(-0.0697483 0.282484 9.04789e-20)
(-0.0665857 0.285683 -4.48471e-19)
(-0.0628372 0.287557 2.14791e-22)
(-0.0585274 0.288176 1.77134e-19)
(-0.0536873 0.287638 -5.90304e-22)
(-0.0483606 0.286069 1.73552e-19)
(-0.0426094 0.283631 -1.71612e-19)
(-0.036506 0.280523 -1.70613e-19)
(-0.0302158 0.27705 4.36451e-22)
(-0.0240696 0.2736 -1.87271e-19)
(-0.00139269 0.00352661 -1.93676e-20)
(-0.00642753 0.0152852 0)
(-0.0136644 0.031218 4.30378e-20)
(-0.0216009 0.0492919 -4.38567e-20)
(-0.0296817 0.0682778 4.01061e-19)
(-0.0375151 0.0874772 3.87533e-23)
(-0.0448714 0.106463 -4.55857e-20)
(-0.0516131 0.12498 4.60078e-20)
(-0.0576558 0.142872 -2.31108e-19)
(-0.0629503 0.160037 0)
(-0.0674714 0.176389 0)
(-0.0712082 0.191851 -9.30212e-20)
(-0.0741596 0.206339 9.34848e-20)
(-0.0763327 0.219769 -9.32177e-20)
(-0.0777397 0.232057 9.28225e-20)
(-0.0783945 0.243127 0)
(-0.0783138 0.252914 -3.68916e-19)
(-0.0775151 0.261365 1.83303e-19)
(-0.0760158 0.268445 9.13388e-20)
(-0.0738341 0.274136 2.72129e-19)
(-0.0709883 0.278439 0)
(-0.0674962 0.281376 1.79137e-19)
(-0.0633768 0.282992 1.77234e-19)
(-0.058653 0.283355 1.7575e-19)
(-0.0533546 0.282566 -8.93016e-22)
(-0.0475252 0.28076 -1.72268e-19)
(-0.0412297 0.278112 1.71608e-19)
(-0.0345443 0.274848 0)
(-0.0276332 0.271315 4.77129e-22)
(-0.0208807 0.26796 3.72982e-19)
(-0.00161754 0.00394046 -1.54527e-19)
(-0.00705127 0.0160933 0)
(-0.014645 0.0321628 -1.71682e-19)
(-0.0228827 0.0502154 -2.18802e-19)
(-0.0311995 0.069079 -1.33621e-19)
(-0.0392065 0.0880872 4.50903e-20)
(-0.04668 0.106832 5.09365e-23)
(-0.0534886 0.125068 -4.58799e-20)
(-0.0595536 0.14265 2.76626e-22)
(-0.0648305 0.159483 9.28359e-20)
(-0.0692972 0.175489 9.29316e-20)
(-0.0729452 0.190599 -9.28876e-20)
(-0.0757749 0.204738 9.3005e-20)
(-0.0777939 0.217825 -2.78784e-19)
(-0.079014 0.229784 2.77916e-19)
(-0.0794488 0.240542 1.84612e-19)
(-0.0791142 0.250034 4.60095e-19)
(-0.0780269 0.258207 -9.1946e-20)
(-0.0762035 0.265025 -1.81692e-19)
(-0.073661 0.270467 -6.00315e-22)
(-0.0704169 0.27453 -1.79571e-19)
(-0.0664882 0.277234 5.3381e-19)
(-0.0618932 0.278617 -3.53934e-19)
(-0.0566537 0.278747 3.4957e-19)
(-0.0507984 0.277725 -1.73886e-19)
(-0.0443713 0.275691 3.43578e-19)
(-0.0374402 0.272832 5.62523e-22)
(-0.0300848 0.269402 -3.36747e-19)
(-0.022462 0.265797 3.32663e-19)
(-0.0150165 0.262536 1.83772e-19)
(-0.00185485 0.00432867 1.54527e-19)
(-0.00767986 0.0168327 0)
(-0.0155937 0.0330016 3.85943e-19)
(-0.0240782 0.0510028 1.31295e-19)
(-0.0325627 0.0697229 0)
(-0.0406643 0.0885277 0)
(-0.0481672 0.107027 0)
(-0.054948 0.124987 0)
(-0.0609351 0.142269 9.23041e-20)
(-0.06609 0.158784 9.25517e-20)
(-0.0703948 0.174463 -1.85857e-19)
(-0.0738438 0.189243 1.86057e-19)
(-0.0764399 0.203054 2.78693e-19)
(-0.0781914 0.215824 9.30327e-20)
(-0.07911 0.22748 9.22406e-20)
(-0.079209 0.237953 -2.7674e-19)
(-0.0785043 0.247178 -3.67113e-19)
(-0.0770116 0.255105 -1.82802e-19)
(-0.0747469 0.261694 1.81688e-19)
(-0.0717271 0.266922 -3.60708e-19)
(-0.0679692 0.270781 1.787e-19)
(-0.0634905 0.273286 -3.55111e-19)
(-0.0583092 0.274472 1.75409e-19)
(-0.0524467 0.274403 -7.13517e-22)
(-0.0459323 0.273176 -1.72491e-19)
(-0.0388105 0.270934 -3.42184e-19)
(-0.0311524 0.267874 3.38647e-19)
(-0.0230418 0.264275 0)
(-0.0146222 0.260587 -5.32419e-22)
(-0.00640126 0.257415 -3.65688e-19)
(-0.00210206 0.00468603 1.92617e-20)
(-0.00830895 0.0174913 0)
(-0.0165069 0.0337174 -1.71372e-19)
(-0.0251851 0.0516327 4.3648e-20)
(-0.0337705 0.0701842 -4.43206e-20)
(-0.0418888 0.0887702 0)
(-0.0493343 0.107019 -4.54205e-20)
(-0.0559931 0.124705 4.5734e-20)
(-0.061802 0.141697 9.21547e-20)
(-0.0667298 0.157911 -2.77207e-19)
(-0.0707635 0.173282 -9.27789e-20)
(-0.0739015 0.187755 -1.44208e-22)
(-0.0761494 0.201264 -1.63568e-22)
(-0.0775167 0.213745 -1.85219e-19)
(-0.0780156 0.225127 -9.26072e-20)
(-0.0776596 0.235346 0)
(-0.0764642 0.244339 1.24847e-22)
(-0.0744448 0.252054 1.82289e-19)
(-0.0716178 0.258452 -1.80778e-19)
(-0.068 0.263505 0)
(-0.063609 0.267203 0)
(-0.0584629 0.269554 0)
(-0.0525814 0.270587 0)
(-0.045987 0.270362 -8.22734e-22)
(-0.0387104 0.268971 0)
(-0.0307977 0.266555 0)
(-0.0223244 0.263317 1.67606e-19)
(-0.0133793 0.259555 1.65763e-19)
(-0.00408662 0.25578 1.64433e-19)
(0.00498478 0.252691 -6.26985e-22)
(-0.0023567 0.00500853 1.9224e-20)
(-0.00893451 0.0180597 -4.17544e-20)
(-0.0173816 0.0342955 2.56178e-19)
(-0.0262023 0.0520856 -4.35446e-20)
(-0.0348237 0.0704388 4.42767e-20)
(-0.0428833 0.088787 4.82505e-23)
(-0.0501864 0.106776 1.35813e-19)
(-0.0566304 0.12419 -1.826e-19)
(-0.062162 0.140901 2.75727e-19)
(-0.066758 0.156828 1.49036e-22)
(-0.0704116 0.171914 -9.24684e-20)
(-0.0731261 0.186103 1.85122e-19)
(-0.0749103 0.199339 -1.85027e-19)
(-0.0757757 0.211559 1.84691e-19)
(-0.0757353 0.222701 0)
(-0.0748033 0.2327 1.83369e-19)
(-0.0729953 0.241496 0)
(-0.0703271 0.249039 4.9557e-22)
(-0.0668154 0.255287 -1.80046e-19)
(-0.0624781 0.260209 -1.78659e-19)
(-0.0573344 0.263792 1.7716e-19)
(-0.0514044 0.266038 -1.75566e-19)
(-0.04471 0.266972 -1.73889e-19)
(-0.0372769 0.266645 -3.451e-19)
(-0.0291384 0.265144 -1.70345e-19)
(-0.0203434 0.262602 1.68935e-19)
(-0.0109732 0.259223 -3.34736e-19)
(-0.00112343 0.255321 -1.65757e-19)
(0.00910577 0.251462 0)
(0.0190931 0.248454 -1.79216e-19)
(-0.00261652 0.00529349 0)
(-0.00955304 0.0185309 1.66505e-19)
(-0.0182158 0.0347243 -1.28077e-19)
(-0.0271297 0.0523451 -2.17171e-19)
(-0.035725 0.0704655 0)
(-0.0436529 0.088552 0)
(-0.0507315 0.106269 -2.71634e-19)
(-0.0568707 0.123408 3.64752e-19)
(-0.0620282 0.139844 -2.75413e-19)
(-0.06619 0.1555 0)
(-0.0693562 0.170319 9.24866e-20)
(-0.0715361 0.184251 -9.27074e-20)
(-0.0727426 0.197241 3.39161e-22)
(-0.0729895 0.209233 -9.26668e-20)
(-0.0722916 0.220166 -9.18277e-20)
(-0.0706641 0.229981 -4.17112e-22)
(-0.0681234 0.238619 1.81962e-19)
(-0.0646861 0.24603 1.81302e-19)
(-0.0603705 0.252171 2.50131e-22)
(-0.0551962 0.25701 3.56991e-19)
(-0.0491848 0.260528 -3.53979e-19)
(-0.0423596 0.262725 3.5078e-19)
(-0.0347462 0.263618 1.73883e-19)
(-0.0263747 0.263251 1.72138e-19)
(-0.017283 0.261703 8.50152e-22)
(-0.00752424 0.259099 0)
(0.00281396 0.255635 1.66092e-19)
(0.0136261 0.25163 -4.92669e-19)
(0.0248393 0.247706 1.6205e-19)
(0.0357959 0.244783 1.77303e-19)
(-0.00287961 0.00553958 -1.14704e-19)
(-0.0101617 0.0189007 -3.74253e-19)
(-0.0190081 0.0349953 -1.46898e-23)
(-0.0279683 0.0523978 3.19648e-22)
(-0.0364781 0.0702456 -1.3211e-19)
(-0.0442047 0.0880414 0)
(-0.0509803 0.105468 -9.00756e-20)
(-0.0567286 0.122325 -5.46364e-19)
(-0.0614191 0.13849 2.74963e-19)
(-0.0650478 0.153885 -1.83858e-19)
(-0.0676233 0.168457 2.76607e-19)
(-0.0691613 0.182154 -9.22479e-20)
(-0.0696797 0.194927 1.84682e-19)
(-0.0691955 0.206721 -4.60402e-19)
(-0.0677258 0.217481 2.75466e-19)
(-0.065288 0.227147 -1.5712e-22)
(-0.0618999 0.235666 -5.45137e-19)
(-0.0575799 0.242986 1.80567e-19)
(-0.0523484 0.249064 -1.79214e-19)
(-0.046228 0.253867 0)
(-0.0392437 0.257374 1.7588e-19)
(-0.0314229 0.259577 0)
(-0.0227965 0.260492 -1.72699e-19)
(-0.0134003 0.260153 1.71001e-19)
(-0.00327821 0.258631 1.69481e-19)
(0.00751106 0.256037 1.66714e-19)
(0.0188728 0.252557 0)
(0.0306889 0.248506 0)
(0.0429147 0.244551 -3.23457e-19)
(0.0548795 0.241732 5.24472e-19)
(-0.0031446 0.00574684 1.14795e-19)
(-0.0107584 0.0191672 2.07664e-19)
(-0.0197578 0.0351031 -1.69682e-19)
(-0.0287196 0.052234 3.46369e-19)
(-0.0370877 0.0697642 4.4381e-20)
(-0.0445469 0.0872348 4.46757e-20)
(-0.0509453 0.104348 4.6994e-22)
(-0.0562212 0.12091 -1.81454e-19)
(-0.0603569 0.136802 -9.13597e-20)
(-0.0633595 0.151945 3.33008e-22)
(-0.0652465 0.166283 -3.35587e-22)
(-0.0660414 0.179767 -2.76313e-19)
(-0.0657676 0.192349 -9.19567e-20)
(-0.0644462 0.203975 3.73059e-22)
(-0.0620982 0.214593 1.82948e-19)
(-0.0587435 0.224148 1.82093e-19)
(-0.0544025 0.232584 4.57789e-22)
(-0.0490964 0.239854 -1.79808e-19)
(-0.042849 0.245914 1.78656e-19)
(-0.0356867 0.250728 -1.77211e-19)
(-0.027639 0.254273 -3.51125e-19)
(-0.0187387 0.256541 -1.73758e-19)
(-0.00902281 0.257539 3.43788e-19)
(0.00146565 0.257298 0)
(0.0126755 0.255875 -1.67835e-19)
(0.0245418 0.253372 -3.32561e-19)
(0.0369625 0.249957 -3.28376e-19)
(0.0498049 0.245931 1.62964e-19)
(0.0630506 0.241995 -4.81293e-19)
(0.0760455 0.239315 1.73316e-19)
(-0.00341067 0.0059165 -1.90432e-19)
(-0.0113419 0.0193313 4.14125e-20)
(-0.020465 0.035046 1.69683e-19)
(-0.0293856 0.0518479 -1.29781e-19)
(-0.0375583 0.0690107 4.406e-20)
(-0.044688 0.0861159 -1.1599e-22)
(-0.0506396 0.102886 4.49759e-19)
(-0.0553672 0.119135 1.81619e-19)
(-0.0588666 0.134746 1.82749e-19)
(-0.0611568 0.149638 2.75264e-19)
(-0.0622654 0.163754 -2.75799e-19)
(-0.0622239 0.177042 1.8411e-19)
(-0.0610626 0.189454 3.67859e-19)
(-0.058808 0.20094 1.83477e-19)
(-0.0554853 0.211447 -1.57652e-22)
(-0.0511186 0.220922 -3.63922e-19)
(-0.0457321 0.229312 3.61832e-19)
(-0.0393509 0.23657 2.39548e-22)
(-0.0320034 0.242652 -1.78096e-19)
(-0.0237209 0.247522 1.76654e-19)
(-0.0145385 0.251156 1.75245e-19)
(-0.00449549 0.253541 -1.72843e-19)
(0.00636394 0.254684 -3.42868e-19)
(0.0179888 0.254606 2.42664e-22)
(0.0303197 0.253358 1.68339e-19)
(0.0432853 0.251027 1.65847e-19)
(0.0567767 0.247761 3.26566e-19)
(0.0706459 0.243843 -3.2213e-19)
(0.0848959 0.23999 0)
(0.0989227 0.237499 1.71126e-19)
(-0.00367768 0.00605095 3.55256e-22)
(-0.0119118 0.0193961 0)
(-0.0211298 0.0348256 -1.26638e-19)
(-0.0299676 0.0512381 -4.30992e-20)
(-0.037894 0.0679798 -1.75088e-19)
(-0.0446353 0.0846743 0)
(-0.0500754 0.101066 -2.69608e-19)
(-0.0541846 0.116978 9.04749e-20)
(-0.0569733 0.132293 0)
(-0.058473 0.14693 -1.82822e-19)
(-0.0587222 0.160827 0)
(-0.0577613 0.173931 -2.75233e-19)
(-0.0556283 0.186191 2.74895e-19)
(-0.0523561 0.197558 -1.83195e-19)
(-0.0479758 0.20798 -1.82126e-19)
(-0.0425166 0.217405 0)
(-0.0360078 0.225782 0)
(-0.0284799 0.233063 1.79005e-19)
(-0.019967 0.239205 -1.23761e-22)
(-0.0105065 0.244172 1.75576e-19)
(-0.000140178 0.247939 -1.74416e-19)
(0.0110852 0.250493 3.45217e-19)
(0.0231176 0.251834 -1.70746e-19)
(0.0358972 0.251982 0)
(0.0493565 0.250977 5.00027e-19)
(0.0634174 0.248895 -8.22661e-19)
(0.0779659 0.245865 1.63265e-19)
(0.0928392 0.242139 1.6094e-19)
(0.108055 0.238442 1.58058e-19)
(0.123093 0.236203 3.3664e-19)
(-0.00394613 0.00615354 -1.51233e-19)
(-0.0124682 0.0193672 3.29343e-19)
(-0.0217525 0.034447 1.68935e-19)
(-0.0304664 0.050408 3.86778e-19)
(-0.0380966 0.0666717 4.80792e-19)
(-0.0443939 0.0829062 8.86999e-20)
(-0.0492618 0.0988787 -4.4755e-19)
(-0.0526886 0.114422 0)
(-0.0546994 0.129421 -3.63352e-19)
(-0.0553392 0.143791 -1.82086e-19)
(-0.0546581 0.157467 0)
(-0.0527061 0.170392 -1.82643e-19)
(-0.0495297 0.182512 -1.1774e-22)
(-0.0451696 0.193778 -5.47336e-19)
(-0.0396637 0.204136 1.82123e-19)
(-0.0330479 0.213536 1.80981e-19)
(-0.0253578 0.221927 -3.59315e-19)
(-0.0166307 0.229261 -3.5708e-19)
(-0.00690738 0.235496 1.62209e-22)
(0.00376724 0.240597 -1.89278e-22)
(0.0153438 0.244538 0)
(0.0277674 0.247303 -1.7171e-19)
(0.0409773 0.248894 -1.69105e-19)
(0.0549051 0.249323 0)
(0.0694748 0.248624 0)
(0.084602 0.246861 4.91508e-19)
(0.100169 0.244145 -4.84353e-19)
(0.116002 0.240694 0)
(0.132125 0.237226 4.71316e-19)
(0.148128 0.235307 -3.34063e-19)
(-0.00421713 0.00622834 7.47184e-22)
(-0.0130116 0.0192518 -3.29344e-19)
(-0.0223327 0.0339184 -4.20778e-20)
(-0.0308807 0.0493658 -4.29626e-19)
(-0.0381655 0.0650932 -2.62203e-19)
(-0.0439645 0.0808155 8.85083e-20)
(-0.0482034 0.0963243 1.79199e-19)
(-0.0508886 0.111464 4.50399e-19)
(-0.0520613 0.12612 3.63352e-19)
(-0.0517804 0.140206 3.64906e-19)
(-0.0501081 0.153651 0)
(-0.0471048 0.166394 7.74669e-22)
(-0.0428265 0.178379 0)
(-0.0373225 0.189554 3.64798e-19)
(-0.0306388 0.199864 0)
(-0.0228193 0.209258 -1.80514e-19)
(-0.013907 0.217685 1.80374e-19)
(-0.00394718 0.225098 0)
(0.00701145 0.231455 0)
(0.0189157 0.236721 -5.23944e-19)
(0.0317078 0.240871 1.73241e-19)
(0.0453241 0.243889 0)
(0.0596949 0.245772 3.38873e-19)
(0.0747428 0.246531 3.35125e-19)
(0.0903837 0.246194 -6.60583e-19)
(0.106527 0.244814 6.522e-19)
(0.123055 0.242483 4.15816e-22)
(0.139782 0.239384 3.16894e-19)
(0.156734 0.236215 -3.14397e-19)
(0.173631 0.234681 0)
(-0.00449226 0.00627987 3.7797e-19)
(-0.0135426 0.0190585 -4.10209e-20)
(-0.0228686 0.0332511 -3.35447e-19)
(-0.0312069 0.0481242 0)
(-0.0380957 0.0632577 -3.47786e-19)
(-0.0433425 0.0784148 0)
(-0.0468971 0.0934134 -4.45721e-19)
(-0.0487855 0.108109 -2.70402e-19)
(-0.0490654 0.122391 -3.61796e-19)
(-0.0478103 0.136169 0)
(-0.0450951 0.149368 9.12131e-20)
(-0.0409911 0.161923 9.21604e-20)
(-0.0355644 0.173772 -1.82157e-19)
(-0.0288741 0.18486 -3.63113e-19)
(-0.0209753 0.195132 -1.80601e-19)
(-0.0119204 0.204533 -7.19811e-19)
(-0.00176156 0.213013 3.58399e-19)
(0.00944757 0.220526 1.75637e-22)
(0.0216494 0.227029 2.32648e-22)
(0.0347819 0.232488 5.23624e-19)
(0.0487781 0.236878 0)
(0.0635653 0.240183 0)
(0.0790646 0.242399 -1.07049e-21)
(0.0951896 0.243533 2.93356e-22)
(0.111848 0.243608 -3.28111e-19)
(0.128943 0.242668 -3.24187e-19)
(0.146355 0.240786 1.1569e-21)
(0.163896 0.238112 -3.1688e-19)
(0.181582 0.235304 -3.11648e-19)
(0.199279 0.23421 1.15055e-21)
(-0.00477334 0.00631266 0)
(-0.0140614 0.0187968 3.26869e-19)
(-0.0233567 0.0324588 2.93557e-19)
(-0.0314376 0.0467006 4.26928e-20)
(-0.037877 0.0611855 6.9473e-19)
(-0.042516 0.0757265 -8.81061e-20)
(-0.0453309 0.0901686 7.11889e-19)
(-0.0463687 0.104381 3.58523e-19)
(-0.0457046 0.118255 5.42489e-19)
(-0.043427 0.131699 2.71872e-19)
(-0.0396238 0.144633 9.10095e-20)
(-0.034378 0.156986 4.55593e-19)
(-0.0277663 0.168693 1.27621e-22)
(-0.0198581 0.179695 1.8182e-19)
(-0.0107185 0.189932 3.61632e-19)
(-0.000409345 0.19935 3.59679e-19)
(0.0110079 0.207898 0)
(0.0234704 0.215527 0)
(0.0369111 0.222197 0)
(0.0512588 0.227874 0)
(0.0664373 0.232533 3.43133e-19)
(0.0823644 0.236158 0)
(0.0989517 0.238744 -2.4424e-22)
(0.116103 0.240297 6.62984e-19)
(0.133718 0.240833 3.27808e-19)
(0.151692 0.240387 3.2353e-19)
(0.169904 0.239018 6.37609e-19)
(0.188162 0.236835 0)
(0.206469 0.234447 -6.19704e-19)
(0.224844 0.233837 6.48995e-19)
(-0.00506218 0.0063309 3.00081e-19)
(-0.0145669 0.0184762 -3.26876e-19)
(-0.023791 0.0315568 0)
(-0.0315611 0.0451165 -3.40373e-19)
(-0.0374926 0.0589038 -8.75756e-20)
(-0.0414642 0.0727823 -2.63084e-19)
(-0.0434814 0.0866256 -7.99222e-19)
(-0.0436136 0.100316 -1.01706e-21)
(-0.0419545 0.113751 -2.70063e-19)
(-0.0386079 0.126834 -6.33629e-19)
(-0.033675 0.139482 -9.06807e-20)
(-0.027251 0.15162 -3.62736e-19)
(-0.0194234 0.163177 -3.62303e-19)
(-0.0102724 0.17409 0)
(0.000126573 0.184296 -3.59738e-19)
(0.0117017 0.193738 -5.36739e-19)
(0.024382 0.202364 1.77949e-19)
(0.038095 0.210126 -3.52354e-19)
(0.0527645 0.216983 -3.49139e-19)
(0.0683099 0.222902 0)
(0.0846454 0.227857 -6.84974e-19)
(0.101679 0.231836 0)
(0.119313 0.234831 -6.69072e-19)
(0.137441 0.236846 -3.29715e-19)
(0.15595 0.237894 -6.518e-19)
(0.174726 0.238 3.21143e-19)
(0.193644 0.237207 -9.52258e-19)
(0.212507 0.235587 3.12226e-19)
(0.231298 0.23368 1.53742e-21)
(0.250195 0.233587 -3.19951e-19)
(-0.00536025 0.00633818 -3.00088e-19)
(-0.0150569 0.0181062 4.07053e-20)
(-0.024162 0.0305623 2.91152e-19)
(-0.0315608 0.0433971 3.4038e-19)
(-0.0369187 0.0564462 -3.4607e-19)
(-0.0401568 0.0696238 9.04096e-22)
(-0.0413126 0.0828331 3.54746e-19)
(-0.0404797 0.0959709 -7.14762e-19)
(-0.0377712 0.108938 -8.91068e-20)
(-0.0333069 0.121638 8.12722e-19)
(-0.0272015 0.133983 -5.42795e-19)
(-0.0195624 0.145894 9.05597e-19)
(-0.0104886 0.157295 9.04612e-19)
(-7.09942e-05 0.168117 -1.80374e-19)
(0.0116044 0.178296 3.59735e-19)
(0.0244559 0.187771 5.36205e-19)
(0.0384029 0.196489 1.76693e-19)
(0.0533634 0.204401 1.15429e-21)
(0.0692521 0.211466 1.75041e-19)
(0.0859789 0.217651 1.72679e-19)
(0.103449 0.222934 -1.69048e-19)
(0.12156 0.2273 1.6882e-19)
(0.140202 0.230744 -3.32287e-19)
(0.159258 0.233269 3.29467e-19)
(0.178601 0.234883 1.52308e-21)
(0.198102 0.235604 3.19258e-19)
(0.217623 0.235458 1.57706e-21)
(0.23696 0.234481 -3.11766e-19)
(0.256065 0.233128 4.15322e-22)
(0.275279 0.233588 0)
(-0.00566837 0.00633723 0)
(-0.0155267 0.0176955 0)
(-0.0244568 0.0294927 -3.7437e-19)
(-0.0314141 0.0415704 4.23537e-20)
(-0.0361235 0.0538515 0)
(-0.0385528 0.0663012 3.49945e-19)
(-0.038775 0.0788521 8.84307e-20)
(-0.0369094 0.0914154 2.67902e-19)
(-0.0330897 0.103896 3.59242e-19)
(-0.0274522 0.116199 -3.60799e-19)
(-0.0201254 0.128231 3.61646e-19)
(-0.011229 0.13991 -3.61818e-19)
(-0.000873667 0.151155 -3.61358e-19)
(0.010839 0.161893 0)
(0.0238125 0.172054 0)
(0.0379553 0.181576 0)
(0.0531772 0.190403 -3.5411e-19)
(0.069387 0.198487 5.26321e-19)
(0.0864898 0.205785 -1.73816e-19)
(0.104386 0.212266 0)
(0.122972 0.217908 5.10186e-19)
(0.142134 0.222698 -1.6813e-19)
(0.16175 0.226632 3.32278e-19)
(0.181688 0.229713 -6.53121e-19)
(0.201805 0.23195 6.46991e-19)
(0.221949 0.233354 -1.27606e-21)
(0.241962 0.23394 3.22636e-22)
(0.26162 0.233706 3.10123e-19)
(0.280828 0.233002 6.15516e-22)
(0.300079 0.234068 3.1588e-19)
(-0.00598625 0.00632957 3.72418e-20)
(-0.0159694 0.0172516 -4.04626e-20)
(-0.0246579 0.0283658 8.28914e-20)
(-0.0310927 0.0396662 -5.06598e-19)
(-0.0350671 0.0511633 8.58756e-20)
(-0.0366009 0.0628723 0)
(-0.0358056 0.0747547 3.51964e-19)
(-0.0328285 0.086736 -3.55053e-19)
(-0.0278247 0.0987264 0)
(-0.0209475 0.11063 4.48801e-19)
(-0.0123397 0.122353 -8.99934e-20)
(-0.00213363 0.133807 0)
(0.00954857 0.144907 -1.79938e-19)
(0.0225942 0.155575 3.58708e-19)
(0.0368965 0.165738 -1.78578e-19)
(0.0523539 0.17533 1.77365e-19)
(0.0688665 0.184293 -3.52309e-19)
(0.0863333 0.192576 3.29229e-22)
(0.10465 0.200138 3.96238e-22)
(0.123708 0.206947 -1.70231e-19)
(0.143391 0.21298 -3.37885e-19)
(0.163576 0.218228 1.08e-21)
(0.184128 0.222689 1.36215e-21)
(0.204898 0.226369 3.2642e-19)
(0.225722 0.229281 -3.20654e-19)
(0.246421 0.231439 3.17703e-19)
(0.266799 0.232854 -6.24824e-19)
(0.286593 0.233494 -4.07197e-22)
(0.305641 0.2336 -6.06865e-19)
(0.324525 0.235412 3.13221e-19)
(-0.00631192 0.00631507 0)
(-0.0163743 0.0167799 -3.22203e-19)
(-0.0247431 0.0271979 0)
(-0.0305617 0.0377147 1.0086e-21)
(-0.0337016 0.0484274 8.57681e-20)
(-0.0342399 0.0593998 1.58052e-22)
(-0.0323296 0.0706213 -7.02771e-19)
(-0.028148 0.0820306 2.66502e-19)
(-0.0218728 0.0935434 0)
(-0.0136754 0.105064 -4.48553e-19)
(-0.0037131 0.116497 8.97411e-20)
(0.00786865 0.127748 0)
(0.0209357 0.138729 -1.79386e-19)
(0.0353642 0.149357 1.78812e-19)
(0.0510364 0.159554 1.77427e-19)
(0.0678401 0.16925 3.53689e-19)
(0.085665 0.178384 -1.75662e-19)
(0.1044 0.186903 0)
(0.123929 0.194763 0)
(0.144134 0.201932 3.41604e-19)
(0.164887 0.208387 -3.36344e-19)
(0.186054 0.21412 3.33283e-19)
(0.207485 0.219132 3.2919e-19)
(0.22902 0.223435 3.2334e-19)
(0.250474 0.227053 -3.20053e-19)
(0.271642 0.230019 3.15859e-19)
(0.292276 0.232363 3.10042e-19)
(0.312025 0.234067 -3.06674e-19)
(0.330574 0.235349 1.07781e-21)
(0.348275 0.238395 6.20045e-19)
(-0.00664356 0.00629408 3.70224e-20)
(-0.016729 0.0162856 2.82073e-19)
(-0.0246868 0.0260059 0)
(-0.029782 0.0357474 3.36632e-19)
(-0.0319735 0.0456924 0)
(-0.0314012 0.055951 0)
(-0.0282631 0.0665385 2.63309e-19)
(-0.0227684 0.0774061 -1.64524e-22)
(-0.0151188 0.0884743 8.88854e-20)
(-0.00550464 0.0996479 8.93989e-20)
(0.00590075 0.110829 -2.6863e-19)
(0.0189383 0.121919 1.79037e-19)
(0.0334609 0.132825 0)
(0.0493323 0.143457 0)
(0.0664228 0.153733 -3.55323e-19)
(0.0846083 0.163578 0)
(0.103766 0.172927 -1.74688e-19)
(0.123773 0.181722 1.73488e-19)
(0.144502 0.189916 1.71322e-19)
(0.16582 0.197474 -5.27029e-22)
(0.18759 0.204372 -1.67939e-19)
(0.209663 0.210599 0)
(0.231883 0.21616 -3.26029e-19)
(0.254078 0.221074 3.22814e-19)
(0.276064 0.22538 0)
(0.297629 0.229141 0)
(0.318519 0.232448 0)
(0.338344 0.2354 0)
(0.356562 0.238449 -2.99541e-19)
(0.372221 0.2437 6.1368e-19)
(0.0521651 0.306962 -0.00930761)
(0.0729022 0.275589 -0.00960708)
(0.0998187 0.2457 -0.00973206)
(0.122584 0.224144 -0.00980809)