/*--------------------------------*- C++ -*----------------------------------*\
  =========                 |
  \\      /  F ield         | OpenFOAM: The Open Source CFD Toolbox
   \\    /   O peration     | Website:  https://openfoam.org
    \\  /    A nd           | Version:  7
     \\/     M anipulation  |
\*---------------------------------------------------------------------------*/
FoamFile
{
    version     2.0;
    format      ascii;
    class       surfaceScalarField;
    location    "46";
    object      phi;
}
// * * * * * * * * * * * * * * * * * * * * * * * * * * * * * * * * * * * * * //

dimensions      [0 3 -1 0 0 0 0];

internalField   nonuniform List<scalar> 
3880
(
-0.00012397
0.000371689
-0.000247719
-0.000208599
0.000794027
-0.000709398
-0.000162845
0.0011804
-0.00122615
6.15247e-05
0.00163168
-0.00185605
0.000494475
0.00222542
-0.00265837
0.00115642
0.00301366
-0.00367561
0.00205877
0.00402887
-0.00493122
0.00320093
0.00528774
-0.0064299
0.00456472
0.00679397
-0.00815776
0.00854026
0.0061034
-0.0100789
-0.000108598
0.000480287
-0.000156798
0.000842226
-6.66794e-05
0.00109028
0.000198825
0.00136618
0.00066261
0.00176163
0.00134216
0.00233411
0.00225146
0.00311957
0.00339785
0.00414135
0.00477497
0.00541685
0.0069686
0.00634663
-7.95898e-05
0.000559877
-6.45513e-05
0.000827188
0.00010483
0.0009209
0.000451469
0.00101954
0.00098645
0.00122665
0.00171956
0.001601
0.00266229
0.00217685
0.00382592
0.00297772
0.00521504
0.00402773
0.00537476
0.00680887
-3.63897e-05
0.000596267
6.91858e-05
0.000721612
0.000355184
0.000634902
0.00082708
0.000547641
0.0014811
0.000572636
0.00231492
0.000767181
0.00333211
0.00115966
0.00454233
0.0017675
0.00595764
0.00261242
0.00375565
0.00757675
2.10964e-05
0.000575171
0.000242439
0.00050027
0.000680777
0.000196564
0.00132154
-9.31176e-05
0.00214392
-0.000249747
0.00313061
-0.000219507
0.00427294
1.73223e-05
0.00557322
0.000467218
0.0070451
0.00114054
0.00209364
0.00870712
8.85915e-05
0.000486579
0.00044943
0.000139432
0.00107033
-0.00042434
0.00191618
-0.000938965
0.00294833
-0.0012819
0.00413348
-0.00140466
0.00544881
-0.001298
0.00688531
-0.000969281
0.00845174
-0.000425893
0.000363527
0.0101819
0.000165776
0.000320804
0.000681834
-0.000376627
0.00150509
-0.00124759
0.00257756
-0.00201143
0.00384231
-0.00254665
0.0052508
-0.00281315
0.00676682
-0.00281402
0.00836934
-0.0025718
0.0100577
-0.00211424
-0.00145014
0.0118714
0.000249341
7.1463e-05
0.000928736
-0.00105602
0.00195999
-0.00227885
0.00325979
-0.00331123
0.00475282
-0.00403969
0.00637738
-0.0044377
0.00808704
-0.00452368
0.00985105
-0.00433581
0.0116585
-0.00392167
-0.00333628
0.0135446
0.00033603
-0.000264567
0.00117733
-0.00189733
0.00240531
-0.00350683
0.00390862
-0.00481454
0.00559436
-0.00572543
0.00739171
-0.00623506
0.00924993
-0.0063819
0.0111333
-0.00621922
0.0130197
-0.00580805
-0.00525429
0.0149377
0.000422295
-0.000686861
0.00141333
-0.00288836
0.00280833
-0.00490183
0.00446599
-0.0064722
0.00627841
-0.00753785
0.00817239
-0.00812903
0.0101039
-0.00831342
0.0120485
-0.00816378
0.0139835
-0.00774308
0.0158385
-0.00710932
0.0101079
0.0474379
-0.0514424
0.0124881
0.0800041
-0.0823842
0.012463
0.107976
-0.107951
0.0111655
0.131291
-0.129993
0.00939
0.153679
-0.151904
0.00748958
0.177727
-0.175826
0.00556072
0.205816
-0.203887
0.00354527
0.23899
-0.236974
0.00158877
0.28044
-0.278483
0.32763
-0.326041
0.0106196
0.0431649
0.0137691
0.0768546
0.0142479
0.107497
0.0131323
0.132407
0.0113511
0.15546
0.00932963
0.179748
0.00718766
0.207958
0.0048372
0.24134
0.00235103
0.282926
0.329981
0.011082
0.0388918
0.0149378
0.0729988
0.0159845
0.106451
0.0151029
0.133288
0.0133317
0.157232
0.0111912
0.181889
0.00882677
0.210322
0.00613438
0.244033
0.00311532
0.285945
0.333096
0.0115495
0.0349191
0.0159561
0.0685921
0.017625
0.104782
0.0170366
0.133877
0.0153011
0.158967
0.013049
0.184141
0.0104656
0.212906
0.00743234
0.247066
0.00387971
0.289498
0.336976
0.0120938
0.0315324
0.0168007
0.0638852
0.0191236
0.102459
0.0188951
0.134105
0.0172303
0.160632
0.0148767
0.186494
0.0120798
0.215702
0.00871286
0.250433
0.00463489
0.293576
0.341611
0.0127788
0.0289354
0.0174735
0.0591905
0.0204387
0.0994938
0.0206323
0.133911
0.019082
0.162182
0.0166508
0.188926
0.0136562
0.218697
0.00996969
0.254119
0.0053776
0.298168
0.346988
0.0136273
0.0271795
0.0180039
0.0548139
0.0215422
0.0959556
0.022228
0.133226
0.0208469
0.163563
0.0183559
0.191417
0.0151744
0.221879
0.0111825
0.258111
0.00609748
0.303253
0.353086
0.0145905
0.0261336
0.0184353
0.0509692
0.022393
0.0919978
0.0235952
0.132023
0.0224481
0.16471
0.0199493
0.193915
0.016613
0.225215
0.012344
0.26238
0.00679109
0.308806
0.359877
0.0155087
0.0255627
0.0187854
0.0476924
0.0230563
0.0877269
0.0248453
0.130235
0.0239731
0.165583
0.0214643
0.196424
0.0179806
0.228699
0.0134451
0.266916
0.00745213
0.314799
0.367329
0.0161216
0.0252796
0.0189627
0.0448513
0.0233306
0.083359
0.0257175
0.127848
0.0252993
0.166001
0.0228964
0.198827
0.019337
0.232258
0.0145275
0.271725
0.00814465
0.321181
0.375474
0.0501143
0.0336798
-0.0585145
0.0420284
0.0529372
0.038014
0.0873734
0.0341505
0.131711
0.0285038
0.171647
0.0220418
0.205289
0.0157566
0.238543
0.00974411
0.277738
0.00408168
0.326844
0.379555
0.0498067
0.0389365
-0.0550634
0.0423215
0.0604224
0.0370786
0.0926162
0.0331623
0.135627
0.0277886
0.177021
0.021293
0.211785
0.0149303
0.244906
0.00904594
0.283622
0.00375713
0.332133
0.383312
0.0452383
0.0424169
-0.0487187
0.0392689
0.0663918
0.0338394
0.0980457
0.0297182
0.139749
0.0250416
0.181698
0.0193666
0.21746
0.0136313
0.250641
0.00826591
0.288987
0.00345009
0.336948
0.386762
0.0375914
0.0448643
-0.0400388
0.033559
0.0704243
0.0294338
0.102171
0.0261758
0.143007
0.0224516
0.185422
0.0175519
0.222359
0.0122159
0.255977
0.00722352
0.29398
0.00290993
0.341262
0.389672
0.0284265
0.0468944
-0.0304566
0.0253924
0.0734583
0.0222863
0.105277
0.0202218
0.145071
0.0180847
0.187559
0.0148041
0.22564
0.0106954
0.260086
0.0064606
0.298215
0.00261324
0.345109
0.392286
0.0192149
0.048495
-0.0208155
0.0172768
0.0753964
0.0156261
0.106928
0.0149511
0.145746
0.0141526
0.188358
0.0119393
0.227853
0.008462
0.263563
0.00483739
0.301839
0.00179972
0.348147
0.394085
0.0100712
0.0505091
-0.0120852
0.00774669
0.0777209
0.00666954
0.108005
0.00755463
0.144861
0.00914369
0.186768
0.00930667
0.22769
0.00738855
0.265481
0.00443385
0.304794
0.00160832
0.350973
0.395694
0.0034235
0.0523472
-0.00526158
0.00117699
0.0799674
0.000209447
0.108973
0.0012028
0.143868
0.00344853
0.184523
0.0047129
0.226426
0.00411621
0.266078
0.00243928
0.306471
0.000737672
0.352674
0.396431
-0.0031252
0.0552063
0.000266127
-0.00572773
0.0825699
-0.00639918
0.109644
-0.00428392
0.141752
-0.000337248
0.180576
0.00285033
0.223238
0.00351915
0.265409
0.00223846
0.307751
0.00063763
0.354275
0.397069
-0.00632843
0.00280729
-0.0102174
-0.0123799
-0.0113941
-0.00763758
-0.00331455
-0.00051978
4.42276e-05
-0.000223667
0.0162688
-0.0582305
-0.0165528
0.0147431
-0.0535377
0.0128886
-0.0468642
0.0111803
-0.0383304
0.00989658
-0.0291729
0.00911151
-0.0200305
0.00888317
-0.0118569
0.00906301
-0.00544141
0.00974368
-0.000414549
0.00196538
0.014601
-0.0572252
-0.0156063
0.012778
-0.0517147
0.0108767
-0.044963
0.00920287
-0.0366566
0.00797282
-0.0279429
0.00723222
-0.0192899
0.00698672
-0.0116114
0.00709881
-0.0055535
0.00765144
-0.000967173
0.0013426
0.0125581
-0.0558011
-0.0139822
0.0105869
-0.0497435
0.00868381
-0.0430599
0.00705086
-0.0350236
0.00586935
-0.0267614
0.00516195
-0.0185825
0.00490732
-0.0113568
0.00498145
-0.00562764
0.00540428
-0.00139
0.000879477
0.010156
-0.0541095
-0.0118476
0.00812818
-0.0477157
0.00627853
-0.0412102
0.00472502
-0.0334701
0.00360867
-0.025645
0.00294098
-0.0179148
0.00268497
-0.0111008
0.00273259
-0.00567526
0.00304974
-0.00170715
0.000542459
0.00746487
-0.0522364
-0.00933793
0.00544374
-0.0456946
0.00368515
-0.0394517
0.00223618
-0.0320211
0.00120664
-0.0246155
0.000600169
-0.0173083
0.000355374
-0.010856
0.000382358
-0.00570225
0.00062037
-0.00194516
0.00030607
0.00457798
-0.0502429
-0.00657154
0.00260623
-0.0437228
0.000962363
-0.0378078
-0.000358811
-0.0307
-0.00131814
-0.0236562
-0.00186848
-0.016758
-0.00208361
-0.0106408
-0.0020516
-0.00573426
-0.00187257
-0.00212419
0.000130547
0.00160379
-0.0481938
-0.00365281
-0.00029723
-0.0418218
-0.00185126
-0.0362538
-0.00308081
-0.0294704
-0.00391804
-0.0228189
-0.00438992
-0.0162861
-0.00456162
-0.0104691
-0.00452168
-0.0057742
-0.00438173
-0.00226414
-7.71165e-06
-0.00141039
-0.0461183
-0.000665112
-0.0032408
-0.0399914
-0.00466846
-0.0348261
-0.00578024
-0.0283586
-0.00651204
-0.0220871
-0.00690635
-0.0158918
-0.00703548
-0.01034
-0.00698513
-0.00582455
-0.00686941
-0.00237986
-0.000131742
-0.00438232
-0.0440147
0.00227874
-0.00609374
-0.03828
-0.00740753
-0.0335123
-0.00840741
-0.0273588
-0.0090446
-0.0214499
-0.00936775
-0.0155686
-0.00945983
-0.0102479
-0.00939943
-0.00588495
-0.00929393
-0.00248535
-0.000255413
-0.00718711
-0.0419508
0.00512316
-0.00879378
-0.0366733
-0.0100041
-0.0323019
-0.0109011
-0.0264619
-0.0114593
-0.0208917
-0.0117231
-0.0153048
-0.0117879
-0.0101831
-0.0117204
-0.00595254
-0.0116176
-0.00258814
-0.000390088
-0.00976873
-0.0399657
0.00778364
-0.0112807
-0.0351613
-0.0124066
-0.031176
-0.0132079
-0.0256605
-0.0137069
-0.0203928
-0.0139261
-0.0150856
-0.0139761
-0.010133
-0.0139066
-0.00602203
-0.0138038
-0.00269094
-0.000539718
-0.0121048
-0.0380751
0.0102142
-0.0135179
-0.0337482
-0.0145741
-0.0301198
-0.0152905
-0.0249441
-0.0157494
-0.019934
-0.0159393
-0.0148956
-0.0159874
-0.0100849
-0.0159235
-0.00608597
-0.0158232
-0.00279128
-0.000700052
-0.0141589
-0.0362932
0.0123771
-0.0154723
-0.0324349
-0.0164736
-0.0291186
-0.0171203
-0.0242974
-0.017556
-0.0194982
-0.0177351
-0.0147165
-0.017794
-0.0100261
-0.0177457
-0.00613424
-0.0176556
-0.00288133
-0.000859028
-0.015914
-0.0346268
0.0142476
-0.0171256
-0.0312232
-0.0180866
-0.0281576
-0.0186805
-0.0237035
-0.0191085
-0.0190703
-0.0192961
-0.0145289
-0.0193786
-0.00994358
-0.0193593
-0.00615349
-0.0192922
-0.00294843
-0.000998466
-0.0173663
-0.0330696
0.0158091
-0.0184739
-0.0301156
-0.0194067
-0.0272249
-0.0199672
-0.0231429
-0.0203999
-0.0186376
-0.0206161
-0.0143127
-0.0207358
-0.00982388
-0.0207619
-0.00612739
-0.0207343
-0.00297601
-0.00109593
-0.0185239
-0.0315958
0.01705
-0.0195278
-0.0291117
-0.0204381
-0.0263146
-0.0209871
-0.0225939
-0.0214341
-0.0181906
-0.0216993
-0.0140475
-0.0218706
-0.00965259
-0.0219609
-0.00603708
-0.0219923
-0.00294462
-0.00112646
-0.0193993
-0.0301577
0.0179612
-0.0203072
-0.0282037
-0.0211913
-0.0254305
-0.0217535
-0.0220318
-0.0222228
-0.0177213
-0.0225573
-0.013713
-0.022796
-0.00941386
-0.0229713
-0.00586182
-0.0230831
-0.00283286
-0.00106395
-0.0199734
-0.0287212
0.018537
-0.0208159
-0.0273612
-0.0216701
-0.0245763
-0.0222772
-0.0214247
-0.022781
-0.0172174
-0.0232062
-0.0132877
-0.0235308
-0.00908929
-0.0238131
-0.00557947
-0.0240282
-0.00261776
-0.000882086
-0.0202096
-0.0273098
0.0187982
-0.0210658
-0.0265051
-0.0218903
-0.0237518
-0.0225753
-0.0207397
-0.02313
-0.0166627
-0.0236661
-0.0127517
-0.0240964
-0.00865892
-0.0245084
-0.00516746
-0.0248511
-0.00227507
-0.000554387
-0.0202141
-0.0259433
0.0188476
-0.0211496
-0.0255696
-0.0218811
-0.0230203
-0.0226372
-0.0199836
-0.0232553
-0.0160446
-0.023921
-0.012086
-0.0244924
-0.0080876
-0.0250679
-0.00459191
-0.0255807
-0.00176227
-5.91529e-05
-0.079044
-0.0225655
0.0756663
-0.0846934
-0.0199203
-0.0894564
-0.0182573
-0.0941496
-0.0152904
-0.0978051
-0.0123891
-0.10079
-0.00910151
-0.102725
-0.00615182
-0.103894
-0.00342323
-0.104299
-0.00135701
-6.69089e-05
-0.0976626
-0.0192661
0.0943631
-0.101457
-0.0161255
-0.104953
-0.0147621
-0.108414
-0.0118289
-0.111176
-0.00962681
-0.113404
-0.00687381
-0.114847
-0.00470872
-0.115696
-0.00257393
-0.115966
-0.00108739
-6.55096e-05
-0.11546
-0.0164118
0.112606
-0.118358
-0.0132272
-0.121176
-0.0119445
-0.123778
-0.00922713
-0.125867
-0.00753757
-0.127495
-0.00524593
-0.128524
-0.00367908
-0.129098
-0.00200014
-0.129256
-0.000929276
-5.95174e-05
-0.135418
-0.0142212
0.133228
-0.137693
-0.0109528
-0.139888
-0.00974871
-0.141832
-0.00728314
-0.143387
-0.0059827
-0.144573
-0.00405998
-0.145302
-0.00295021
-0.145703
-0.00159887
-0.145801
-0.000831858
-5.18147e-05
-0.159141
-0.0121205
0.157041
-0.16099
-0.00910409
-0.162744
-0.00799442
-0.164241
-0.00578658
-0.165446
-0.00477774
-0.166355
-0.00315103
-0.16693
-0.00237461
-0.167277
-0.00125246
-0.167389
-0.000719635
-1.73871e-05
-0.187394
-0.00997925
0.185253
-0.18905
-0.00744865
-0.190647
-0.00639703
-0.19194
-0.00449306
-0.192994
-0.00372375
-0.193782
-0.00236307
-0.194351
-0.00180603
-0.194755
-0.000848792
-0.194981
-0.000493418
4.32195e-05
-0.218159
-0.0077464
0.215926
-0.22027
-0.00533809
-0.22207
-0.00459675
-0.223309
-0.00325387
-0.224309
-0.00272436
-0.225064
-0.0016077
-0.225698
-0.00117187
-0.226184
-0.000362694
-0.226493
-0.000184545
0.000121053
-0.249257
-0.00517456
0.246685
-0.250549
-0.00404615
-0.251787
-0.00335839
-0.252865
-0.00217624
-0.253853
-0.00173624
-0.254574
-0.000886732
-0.255167
-0.000578633
-0.255549
1.93587e-05
-0.255779
4.57096e-05
0.000154567
-0.268573
-0.0026738
0.266072
-0.271078
-0.0015411
-0.273114
-0.00132203
-0.274398
-0.000892472
-0.275372
-0.000761769
-0.275877
-0.000382383
-0.27624
-0.000215479
-0.27631
8.96924e-05
-0.276347
8.22411e-05
9.07066e-05
-0.281826
0.279153
-0.283368
-0.28469
-0.285582
-0.286344
-0.286726
-0.286942
-0.286852
-0.28677
-0.0214421
0.0774028
0.0197055
-0.0222316
0.0951527
-0.0225247
0.112899
-0.0223111
0.133014
-0.0215719
0.156301
-0.0199443
0.183625
-0.0172133
0.213195
-0.0116566
0.241128
-0.00686207
0.261277
0.272291
-0.0202276
0.0783334
0.019297
-0.020862
0.0957871
-0.0210428
0.11308
-0.0207189
0.13269
-0.019879
0.155462
-0.0182253
0.181972
-0.0154826
0.210453
-0.011192
0.236838
-0.00606093
0.256146
0.26623
-0.0192765
0.0790742
0.0185358
-0.019749
0.0962595
-0.0198026
0.113133
-0.0194091
0.132297
-0.0185372
0.15459
-0.0169248
0.180359
-0.014272
0.2078
-0.0103566
0.232922
-0.00551595
0.251306
0.260714
-0.0181965
0.0797449
0.0175258
-0.018538
0.096601
-0.0184514
0.113047
-0.0179712
0.131816
-0.0170645
0.153683
-0.0154945
0.178789
-0.0129801
0.205286
-0.00941794
0.22936
-0.00495414
0.246842
0.25576
-0.01694
0.0803434
0.0163415
-0.0171794
0.0968404
-0.0169826
0.11285
-0.0164331
0.131267
-0.0155052
0.152755
-0.0139886
0.177273
-0.0116466
0.202944
-0.00841527
0.226129
-0.0044008
0.242827
0.251359
-0.0155407
0.0808518
0.0150323
-0.0156695
0.0969692
-0.0153822
0.112563
-0.0147864
0.130671
-0.0138579
0.151826
-0.0124168
0.175832
-0.0102751
0.200802
-0.00737956
0.223233
-0.00385037
0.239298
0.247508
-0.0140369
0.0812568
0.0136319
-0.0140448
0.0969771
-0.013671
0.112189
-0.0130403
0.13004
-0.0121268
0.150913
-0.0107833
0.174488
-0.00886451
0.198883
-0.00632579
0.220695
-0.00329391
0.236266
0.244214
-0.0124557
0.0815415
0.012171
-0.0123433
0.0968647
-0.0118846
0.11173
-0.0112234
0.129379
-0.0103333
0.150023
-0.00910353
0.173258
-0.00742391
0.197203
-0.00526171
0.218532
-0.00273047
0.233735
0.241484
-0.0108233
0.0816832
0.0106816
-0.0105969
0.0966384
-0.0100556
0.111189
-0.00936795
0.128692
-0.00850557
0.14916
-0.00740013
0.172153
-0.00596944
0.195773
-0.0041943
0.216757
-0.00216393
0.231705
0.23932
-0.00916616
0.081653
0.0091964
-0.00883722
0.0963094
-0.00821093
0.110562
-0.00750281
0.127984
-0.00666921
0.148327
-0.00569621
0.17118
-0.00451915
0.194596
-0.00313333
0.215371
-0.00160095
0.230172
0.237719
-0.00751759
0.0814154
0.00775519
-0.00710338
0.0958952
-0.00638273
0.109842
-0.00565993
0.127261
-0.00485175
0.147518
-0.00401493
0.170343
-0.00309013
0.193671
-0.00208889
0.21437
-0.00104713
0.229131
0.236672
-0.00594096
0.0809753
0.00638101
-0.0054316
0.0953859
-0.00462331
0.109033
-0.00387965
0.126517
-0.00309596
0.146735
-0.00238399
0.169631
-0.00170113
0.192988
-0.00107555
0.213745
-0.000509345
0.228564
0.236163
-0.00448166
0.0803496
0.0051074
-0.00386026
0.0947645
-0.00297945
0.108153
-0.00220622
0.125744
-0.00145175
0.14598
-0.000853611
0.169033
-0.000404115
0.192539
-0.000134986
0.213476
-1.98823e-05
0.228449
0.236143
-0.00316676
0.0795643
0.003952
-0.00241014
0.0940078
-0.00148672
0.107229
-0.00067767
0.124935
-1.08113e-05
0.145313
0.000586852
0.168435
0.00085085
0.192275
0.000797945
0.213528
0.000481007
0.228766
0.236624
-0.00201552
0.0786589
0.00292091
-0.00110181
0.0930941
-0.000198816
0.106326
0.000768444
0.123968
0.00154373
0.144538
0.00199465
0.167984
0.00205083
0.192218
0.00167743
0.213902
0.00094582
0.229498
0.23757
-0.00103747
0.0776881
0.0020083
-8.04475e-06
0.0920647
0.00112489
0.105193
0.00212325
0.122969
0.00288106
0.14378
0.00325864
0.167607
0.00313832
0.192339
0.00247698
0.214563
0.00136703
0.230608
0.238937
-0.000247403
0.0767427
0.00119281
0.0011417
0.0906756
0.00227668
0.104058
0.00331857
0.121927
0.0040865
0.143012
0.00441553
0.167278
0.0041475
0.192607
0.00322499
0.215486
0.00176294
0.23207
0.2407
0.000528489
0.0757754
0.000438868
0.00205108
0.089153
0.00322323
0.102886
0.00430656
0.120844
0.00508506
0.142234
0.00537799
0.166985
0.00499289
0.192992
0.00385479
0.216624
0.00209276
0.233832
0.242792
0.0012926
0.0747799
-0.000297153
0.00289609
0.0875495
0.00411603
0.101666
0.00524204
0.119718
0.00604129
0.141435
0.00630965
0.166716
0.00581533
0.193486
0.00446798
0.217971
0.00241638
0.235883
0.245209
0.00163127
0.074161
-0.00101231
0.00328479
0.085896
0.0045493
0.100402
0.0056973
0.11857
0.00651425
0.140618
0.00679148
0.166439
0.00626173
0.194016
0.00481093
0.219422
0.00258625
0.238108
0.247795
-0.0653603
0.0670424
0.0724789
-0.0585677
0.0791034
-0.0536755
0.0955094
-0.0484655
0.11336
-0.0429533
0.135106
-0.0366879
0.160174
-0.0291796
0.186508
-0.0203105
0.210553
-0.0103759
0.228173
0.237419
-0.0767291
0.0613793
0.0823922
-0.0708184
0.0731927
-0.06529
0.0899811
-0.0590682
0.107138
-0.0526811
0.128719
-0.0451434
0.152636
-0.0360167
0.177381
-0.0252249
0.199761
-0.0131184
0.216067
0.224301
-0.0899954
0.055746
0.0956287
-0.0841101
0.0673075
-0.0777735
0.0836444
-0.0707876
0.100152
-0.0632969
0.121228
-0.0540021
0.143341
-0.0428824
0.166261
-0.0297942
0.186673
-0.0151112
0.201384
0.209189
-0.106353
0.050282
0.111817
-0.100089
0.0610434
-0.093184
0.0767393
-0.0854588
0.0924273
-0.0764576
0.112227
-0.0650726
0.131956
-0.0516525
0.152841
-0.0359605
0.170981
-0.0186604
0.184084
0.190529
-0.125277
0.044075
0.131484
-0.118714
0.0544813
-0.110936
0.0689608
-0.101593
0.0830842
-0.0901487
0.100782
-0.0760737
0.117881
-0.0598363
0.136604
-0.0409801
0.152125
-0.0204763
0.16358
0.170053
-0.149221
0.0381711
0.155125
-0.141624
0.0468841
-0.132343
0.0596805
-0.120835
0.0715759
-0.106797
0.0867444
-0.0900526
0.101137
-0.0706389
0.11719
-0.0484402
0.129926
-0.0250819
0.140222
0.144971
-0.174165
0.0307407
0.181595
-0.165084
0.0378027
-0.15361
0.0482074
-0.139346
0.0573117
-0.122175
0.069573
-0.101729
0.0806913
-0.0778176
0.0932782
-0.0513305
0.103439
-0.0245683
0.11346
0.120403
-0.202556
0.0228445
0.210452
-0.191739
0.0269866
-0.178113
0.0345813
-0.161409
0.0406073
-0.141368
0.0495319
-0.117509
0.0568326
-0.0901961
0.0659651
-0.0610558
0.0742988
-0.0321977
0.0846014
0.0882049
-0.223118
0.0109966
0.234966
-0.209478
0.0133468
-0.192127
0.0172301
-0.17171
0.0201903
-0.147089
0.0249107
-0.118769
0.0285125
-0.0865765
0.0337729
-0.0507984
0.0385207
-0.0141632
0.0479663
0.0740416
-0.298492
0.309489
-0.285145
-0.267915
-0.247725
-0.222814
-0.194302
-0.160529
-0.122008
-0.0740416
-0.0014544
0.0743717
-0.000438392
-0.00295699
0.0838948
-0.00414026
0.0968119
-0.00502078
0.112698
-0.00553651
0.131999
-0.00563892
0.155227
-0.0051593
0.181116
-0.00403159
0.209324
-0.00316467
0.234099
0.306324
-0.000985115
0.0763345
-0.000977722
-0.00262527
0.0855349
-0.00389508
0.0980817
-0.00479994
0.113602
-0.00535435
0.132554
-0.00546627
0.155339
-0.00504759
0.180697
-0.00394211
0.208219
-0.00289529
0.233052
0.303429
-0.000359436
0.0782088
-0.00151487
-0.00196963
0.0871451
-0.00324256
0.0993547
-0.0041386
0.114498
-0.00472206
0.133137
-0.00485957
0.155476
-0.00454214
0.18038
-0.00353415
0.207211
-0.00263763
0.232156
0.300791
0.000258585
0.080019
-0.00206877
-0.0013111
0.0887148
-0.00248005
0.100524
-0.0033404
0.115359
-0.00390368
0.1337
-0.00409086
0.155664
-0.00385388
0.180143
-0.00302184
0.206379
-0.00230022
0.231434
0.298491
0.00086438
0.0817988
-0.0026442
-0.000675617
0.0902548
-0.0017427
0.101591
-0.00254324
0.116159
-0.00306807
0.134225
-0.0032752
0.155871
-0.00310783
0.179975
-0.00245071
0.205721
-0.0019153
0.230899
0.296576
0.00149613
0.0835307
-0.00322805
-1.74521e-05
0.0917684
-0.000943704
0.102517
-0.00168503
0.116901
-0.00217407
0.134714
-0.00239495
0.156092
-0.00230952
0.17989
-0.00182453
0.205236
-0.00149346
0.230568
0.295082
0.00217119
0.0851734
-0.00381383
0.000855445
0.0930841
-6.49665e-05
0.103437
-0.000740009
0.117576
-0.00119045
0.135165
-0.00142839
0.15633
-0.00142693
0.179888
-0.00113896
0.204948
-0.00103265
0.230461
0.294049
0.00287247
0.0866974
-0.00439647
0.00171167
0.0942449
0.000900961
0.104248
0.000285645
0.118191
-0.000116049
0.135566
-0.000387552
0.156601
-0.000446818
0.179948
-0.000403907
0.204906
-0.000529287
0.230587
0.29352
0.00359303
0.0880712
-0.00496682
0.00258762
0.0952503
0.0018875
0.104948
0.00138641
0.118692
0.00101452
0.135938
0.000740481
0.156875
0.000571635
0.180116
0.000400728
0.205076
2.98224e-05
0.230958
0.29355
0.00432203
0.0892594
-0.00551024
0.0034757
0.0960967
0.00289676
0.105527
0.00249734
0.119091
0.00218091
0.136255
0.00189914
0.157157
0.00160978
0.180406
0.001249
0.205437
0.000541233
0.231665
0.294091
0.00503899
0.0902202
-0.00599978
0.00435502
0.0967806
0.00390506
0.105977
0.00361144
0.119385
0.00335547
0.136511
0.00306583
0.157447
0.00267398
0.180798
0.00209877
0.206012
0.00109075
0.232673
0.295182
0.0057358
0.0909148
-0.00643044
0.00521654
0.0972999
0.00490236
0.106291
0.0047188
0.119569
0.00452755
0.136702
0.00423849
0.157736
0.00374685
0.181289
0.00295963
0.2068
0.00165178
0.233981
0.296834
0.00637811
0.0913233
-0.00678666
0.00603155
0.0976465
0.00585787
0.106465
0.00578744
0.119639
0.0056701
0.136819
0.00539126
0.158014
0.00480784
0.181873
0.00382043
0.207787
0.002214
0.235588
0.299048
0.00694818
0.0914349
-0.00705978
0.00678083
0.0978138
0.006747
0.106499
0.00679117
0.119595
0.00675844
0.136852
0.00649814
0.158275
0.00583657
0.182534
0.00466307
0.208961
0.00276655
0.237484
0.301814
0.00743161
0.0912468
-0.00724344
0.00744958
0.0977959
0.00755056
0.106398
0.00770898
0.119437
0.00776842
0.136793
0.00754165
0.158502
0.00682362
0.183252
0.00547972
0.210304
0.00330818
0.239656
0.305122
0.00781328
0.0907708
-0.00733727
0.00802028
0.0975888
0.00824657
0.106172
0.008515
0.119168
0.00867044
0.136637
0.0084887
0.158683
0.00773747
0.184004
0.00624469
0.211797
0.00382271
0.242078
0.308945
0.00809888
0.0900232
-0.00735133
0.00849831
0.0971894
0.0088377
0.105832
0.00921115
0.118795
0.00946879
0.13638
0.00934856
0.158804
0.0085863
0.184766
0.00696751
0.213416
0.004317
0.244728
0.313262
0.00825219
0.0890734
-0.00730235
0.00883458
0.096607
0.00927369
0.105393
0.00973832
0.11833
0.0100936
0.136024
0.0100436
0.158854
0.00929899
0.18551
0.00759726
0.215118
0.0047591
0.247566
0.318021
0.00843154
0.0878877
-0.00724589
0.00918102
0.0958575
0.00968963
0.104884
0.0102255
0.117794
0.0106724
0.135577
0.0106972
0.158829
0.00997554
0.186232
0.00819456
0.216899
0.00517798
0.250583
0.323199
0.0081637
0.0868896
-0.00716559
0.00905555
0.0949657
0.00968178
0.104258
0.0102868
0.117189
0.010835
0.135029
0.0109604
0.158703
0.010347
0.186845
0.00856914
0.218677
0.00549564
0.253656
0.328695
-0.0490989
0.0797098
0.0562787
-0.0412862
0.087153
-0.035281
0.098253
-0.0296044
0.111512
-0.0241252
0.12955
-0.0185303
0.153108
-0.012717
0.181032
-0.00698624
0.212946
-0.00310074
0.249771
0.325594
-0.0659215
0.072406
0.0732253
-0.0583644
0.079596
-0.0511874
0.0910759
-0.0436306
0.103956
-0.0362434
0.122163
-0.0284395
0.145304
-0.0201144
0.172707
-0.0118145
0.204646
-0.00538845
0.243345
0.320206
-0.0842597
0.0649845
0.0916812
-0.0759707
0.071307
-0.0672915
0.0823968
-0.0582982
0.0949623
-0.0493772
0.113242
-0.0393261
0.135253
-0.0283883
0.161769
-0.017145
0.193403
-0.00758607
0.233786
0.31262
-0.104427
0.0570583
0.112354
-0.0946233
0.0615029
-0.0850717
0.0728451
-0.0751127
0.0850034
-0.0643272
0.102456
-0.0515966
0.122523
-0.0377014
0.147874
-0.0231443
0.178845
-0.0101614
0.220803
0.302458
-0.126202
0.0478563
0.135404
-0.11632
0.0516211
-0.106559
0.0630836
-0.0949142
0.0733585
-0.0816519
0.0891941
-0.0661995
0.10707
-0.0492089
0.130883
-0.0307308
0.160367
-0.0133689
0.203441
0.289089
-0.152692
0.0390826
0.161465
-0.142458
0.041387
-0.1313
0.0519259
-0.117501
0.0595599
-0.102118
0.0738108
-0.0840304
0.088983
-0.0635213
0.110374
-0.0405169
0.137363
-0.0185341
0.181458
0.270555
-0.183668
0.0284901
0.19426
-0.173361
0.0310805
-0.160662
0.0392271
-0.145711
0.0446082
-0.128585
0.0566853
-0.107413
0.0678112
-0.0829559
0.0859168
-0.0552566
0.109664
-0.0267885
0.15299
0.243767
-0.221101
0.018501
0.23109
-0.209619
0.0195988
-0.19554
0.0251477
-0.179556
0.0286242
-0.160013
0.0371419
-0.136476
0.0442749
-0.109412
0.0588522
-0.0779725
0.0782243
-0.0422717
0.117289
0.201495
-0.272014
0.00767094
0.282844
-0.260811
0.00839625
-0.246611
0.0109472
-0.230917
0.0129309
-0.210941
0.0171662
-0.188113
0.0214461
-0.15947
0.0302093
-0.123396
0.042151
-0.0734906
0.0673837
0.128004
-0.338635
0.346306
-0.330239
-0.319292
-0.306361
-0.289194
-0.267748
-0.237539
-0.195388
-0.128004
0.00391062
0.0585134
-0.00614531
0.00106148
0.0760744
-0.00123909
0.0939818
-0.00304417
0.114159
-0.00453677
0.136897
-0.00569219
0.162621
-0.00608606
0.194654
-0.00597953
0.230984
-0.0040723
0.280937
0.342234
0.00419446
0.0603828
-0.00606382
0.00169178
0.0785771
-0.000627882
0.0963014
-0.00248915
0.11602
-0.00406314
0.138471
-0.0052549
0.163813
-0.00577132
0.19517
-0.00568691
0.230899
-0.00393523
0.279185
0.338298
0.00475069
0.0616345
-0.00600247
0.00259701
0.0807307
0.000366509
0.0985319
-0.00151347
0.1179
-0.00312186
0.140079
-0.00435327
0.165044
-0.00498613
0.195803
-0.0049525
0.230866
-0.00357979
0.277812
0.334719
0.00535598
0.0622505
-0.00597196
0.00357323
0.0825135
0.00153196
0.100573
-0.000436909
0.119869
-0.0019969
0.141639
-0.00328672
0.166334
-0.00401107
0.196527
-0.00413686
0.230991
-0.00311879
0.276794
0.3316
0.00598896
0.0622236
-0.00596203
0.00461798
0.0838845
0.00276118
0.10243
0.000851866
0.121778
-0.00079113
0.143282
-0.0021237
0.167666
-0.00293809
0.197342
-0.0032655
0.231319
-0.00257923
0.276108
0.329021
0.00667682
0.0615065
-0.00595975
0.00577681
0.0847845
0.0041213
0.104085
0.00230308
0.123596
0.000593743
0.144992
-0.000859696
0.16912
-0.00176785
0.19825
-0.00232598
0.231877
-0.00198113
0.275763
0.327039
0.00740549
0.0600587
-0.00595769
0.00704301
0.085147
0.00561939
0.105509
0.00387674
0.125339
0.00217872
0.14669
0.000593173
0.170705
-0.000482073
0.199325
-0.0013119
0.232707
-0.00133073
0.275782
0.325709
0.00814464
0.0578696
-0.0059555
0.0083843
0.0849073
0.00723341
0.10666
0.00557508
0.126997
0.00386078
0.148404
0.00224028
0.172326
0.000920147
0.200645
-0.000249865
0.233877
-0.000628358
0.27616
0.32508
0.00886179
0.0549694
-0.00596165
0.00976429
0.0840048
0.00893345
0.107491
0.00737466
0.128556
0.00563789
0.150141
0.00393319
0.174031
0.00241246
0.202166
0.00100845
0.235281
0.000121075
0.277048
0.325201
0.00952513
-0.00599809
0.0111457
0.0106853
0.00924792
0.00748489
0.00568919
0.00396848
0.00227501
0.000839399
0.000505209
-0.00119207
0.00162293
-0.00400608
0.00313659
-0.00641548
0.00487539
-0.008211
0.0067214
-0.00938387
0.00860653
-0.0100142
0.0105035
-0.0102104
0.0124185
-0.0100789
0.0143946
-0.00971909
-0.00926755
0.00057582
-0.00176789
0.00178263
-0.00521289
0.00335081
-0.00798367
0.00508414
-0.00994433
0.0068615
-0.0111612
0.00862499
-0.0117776
0.010362
-0.0119473
0.0120891
-0.011806
0.0138367
-0.0114667
-0.0110371
0.000630759
-0.00239865
0.0018805
-0.00646263
0.0034294
-0.00953257
0.00506516
-0.0115801
0.00667378
-0.0127698
0.00821455
-0.0133184
0.00969156
-0.0134243
0.0111303
-0.0132447
0.0125581
-0.0128945
-0.0124612
0.0006645
-0.00306315
0.00190342
-0.00770156
0.00335635
-0.0109855
0.00480903
-0.0130328
0.00616637
-0.0141272
0.00741151
-0.0145636
0.00856789
-0.0145807
0.00967263
-0.0143495
0.0107591
-0.013981
-0.0135497
0.000672058
-0.00373521
0.00184287
-0.00887237
0.00312795
-0.0122706
0.0043276
-0.0142324
0.00537577
-0.0151754
0.00628266
-0.0154705
0.0070901
-0.0153882
0.00784473
-0.0151041
0.00858499
-0.0147213
-0.0143027
0.00064974
-0.00438495
0.00169633
-0.00991896
0.00275302
-0.0133273
0.00365017
-0.0151296
0.0043567
-0.0158819
0.00490852
-0.0160223
0.00536104
-0.0158407
0.00576529
-0.0155083
0.00615989
-0.0151159
-0.0147143
0.000595773
-0.00498072
0.0014678
-0.010791
0.00225097
-0.0141104
0.00281738
-0.015696
0.00317165
-0.0162361
0.00337015
-0.0162208
0.00347518
-0.0159457
0.0035363
-0.0155695
0.00358763
-0.0151672
-0.0147795
0.000510684
-0.0054914
0.00116712
-0.0114474
0.00164849
-0.0145918
0.00187483
-0.0159223
0.00188258
-0.0162439
0.00174154
-0.0160797
0.00151389
-0.0157181
0.00124383
-0.0152994
0.00095745
-0.0148808
-0.0144872
0.000397299
-0.0058887
0.000808572
-0.0118587
0.000975913
-0.0147591
0.000867926
-0.0158143
0.000545889
-0.0159219
8.51824e-05
-0.015619
-0.000454744
-0.0151781
-0.00103971
-0.0147144
-0.0016509
-0.0142696
-0.0138593
0.000260255
-0.00614896
0.000408895
-0.0120073
0.000264064
-0.0146143
-0.000161616
-0.0153887
-0.000789054
-0.0152944
-0.00154304
-0.014865
-0.00237371
-0.0143475
-0.00325338
-0.0138348
-0.00417038
-0.0133526
-0.0129066
0.000135071
-0.00628403
2.83491e-05
-0.0119006
-0.000417885
-0.0141681
-0.00114126
-0.0146653
-0.00205189
-0.0143838
-0.00307829
-0.0138386
-0.00417837
-0.0132474
-0.0053322
-0.0126809
-0.00653323
-0.0121516
-0.0116561
-2.06339e-05
-0.0062634
-0.000390354
-0.0115309
-0.00111584
-0.0134426
-0.0021059
-0.0136752
-0.00326545
-0.0132243
-0.00453027
-0.0125738
-0.00586665
-0.011911
-0.00726062
-0.011287
-0.00870885
-0.0107033
-0.0101508
-0.00017881
-0.00608459
-0.000797716
-0.010912
-0.00177873
-0.0124616
-0.00300423
-0.0124497
-0.00438058