/*--------------------------------*- C++ -*----------------------------------*\
  =========                 |
  \\      /  F ield         | OpenFOAM: The Open Source CFD Toolbox
   \\    /   O peration     | Website:  https://openfoam.org
    \\  /    A nd           | Version:  7
     \\/     M anipulation  |
\*---------------------------------------------------------------------------*/
FoamFile
{
    version     2.0;
    format      ascii;
    class       surfaceScalarField;
    location    "12.1";
    object      phi;
}
// * * * * * * * * * * * * * * * * * * * * * * * * * * * * * * * * * * * * * //

dimensions      [0 3 -1 0 0 0 0];

internalField   nonuniform List<scalar> 
3880
(
0.000650317
-0.000257169
-0.000393148
0.00249516
0.00429357
-0.00613841
0.00536502
0.0110952
-0.0139651
0.00886971
0.018646
-0.0221507
0.0125152
0.0257771
-0.0294226
0.0158849
0.0317388
-0.0351085
0.0187314
0.0362282
-0.0390747
0.0209722
0.0392771
-0.0415179
0.0226393
0.0411095
-0.0427766
0.0419867
0.0238192
-0.0431666
0.000560444
-0.000817613
0.00217605
0.00267796
0.00477155
0.00849973
0.00809102
0.0153266
0.011737
0.0221311
0.0153082
0.0281676
0.01851
0.0330264
0.0211891
0.036598
0.0233125
0.0389861
0.0403876
0.0249117
0.00047527
-0.00129288
0.00186356
0.00128967
0.00415954
0.00620374
0.00721886
0.0122672
0.0107499
0.0186001
0.0144008
0.0245168
0.0178626
0.0295646
0.020928
0.0335326
0.0235007
0.0364134
0.0383368
0.0255515
0.000388104
-0.00168099
0.00154815
0.000129626
0.00352986
0.00422204
0.00627533
0.00952177
0.00959193
0.0152835
0.0131975
0.0209113
0.0168008
0.0259612
0.0201668
0.0301666
0.0231472
0.033433
0.0358273
0.0256566
0.000291496
-0.00197248
0.00121645
-0.000795325
0.00287341
0.00256507
0.00526961
0.00712558
0.00829487
0.0122582
0.0117418
0.0174644
0.0153604
0.0223426
0.0189157
0.0266113
0.0222264
0.0301222
0.0328888
0.025165
0.000178871
-0.00215135
0.000855507
-0.00147196
0.00217697
0.00124361
0.00420062
0.00510193
0.00688013
0.00957871
0.0100762
0.0142683
0.0135914
0.0188274
0.0172143
0.0229885
0.0207524
0.0265841
0.0295871
0.0240541
4.67227e-05
-0.00219808
0.000458307
-0.00188355
0.00143239
0.000269526
0.00306692
0.00346739
0.00536366
0.00728198
0.00823956
0.0113924
0.0115503
0.0155166
0.015123
0.0194158
0.0187767
0.0229305
0.0260115
0.0223523
-0.00010423
-0.00209385
2.90311e-05
-0.00201681
0.000646822
-0.000348266
0.00188107
0.00223314
0.00377003
0.00539302
0.00627494
0.00888748
0.00929912
0.0124924
0.0127149
0.016
0.0163786
0.0192667
0.0222593
0.0201309
-0.000265273
-0.00182857
-0.00041213
-0.00186995
-0.000147942
-0.000612454
0.000685419
0.00139978
0.00215352
0.00392492
0.00425117
0.00678982
0.00692003
0.00982355
0.0100754
0.0128446
0.0136504
0.0156917
0.018313
0.0175966
-0.000422387
-0.00140619
-0.000828635
-0.0014637
-0.000890703
-0.000550386
-0.0004344
0.000943476
0.000622366
0.00286816
0.00229606
0.00511612
0.00455217
0.00756744
0.00732766
0.0100692
0.0106391
0.0123803
0.0148597
0.0140925
0.0197826
0.153117
-0.14908
0.0157737
0.14396
-0.139952
0.0125025
0.13749
-0.134218
0.00993995
0.132998
-0.130435
0.00782927
0.130196
-0.128085
0.00591644
0.128958
-0.127045
0.00411605
0.128892
-0.127092
0.00248519
0.130043
-0.128412
0.00103486
0.131207
-0.129757
0.133945
-0.13291
0.0216196
0.156409
0.0177131
0.147867
0.0143056
0.140897
0.0115921
0.135711
0.00933804
0.13245
0.00725092
0.131045
0.00523955
0.130904
0.00332599
0.131957
0.00151
0.133023
0.135455
0.0233519
0.158608
0.0196743
0.151544
0.0161526
0.144419
0.0132752
0.138588
0.0108492
0.134876
0.00857819
0.133316
0.00634692
0.133135
0.00415174
0.134152
0.00197123
0.135204
0.137426
0.0249123
0.159353
0.0216145
0.154842
0.018015
0.148018
0.0149662
0.141637
0.0123464
0.137496
0.00988006
0.135782
0.00742718
0.135588
0.00495601
0.136623
0.00241884
0.137741
0.139845
0.0262522
0.158265
0.0234966
0.157598
0.0198821
0.151633
0.0166564
0.144863
0.0138197
0.140333
0.0111446
0.138457
0.00846781
0.138265
0.00572609
0.139365
0.00284497
0.140622
0.14269
0.027288
0.155032
0.0252153
0.159671
0.0217046
0.155143
0.0183253
0.148242
0.0152594
0.143399
0.0123644
0.141352
0.0094676
0.141161
0.00647312
0.142359
0.00326363
0.143832
0.145954
0.0280523
0.149331
0.0268101
0.160913
0.0235118
0.158442
0.0199788
0.151775
0.0166696
0.146708
0.0135369
0.144485
0.0104047
0.144294
0.00714906
0.145615
0.00363184
0.147349
0.149585
0.0282318
0.14123
0.0279858
0.161159
0.0251473
0.16128
0.0215515
0.155371
0.0180221
0.150237
0.0146553
0.147852
0.0113238
0.147625
0.00786592
0.149073
0.00405195
0.151163
0.153637
0.0282682
0.130559
0.0292362
0.160191
0.0268158
0.163701
0.0231306
0.159056
0.0193846
0.153983
0.0157368
0.1515
0.0121
0.151262
0.00833379
0.152839
0.00427295
0.155224
0.15791
0.0266705
0.118748
0.0296394
0.157222
0.0280909
0.165249
0.0245501
0.162597
0.0206459
0.157887
0.0168111
0.155334
0.0131275
0.154946
0.00930187
0.156665
0.00490506
0.15962
0.162815
-0.00465044
0.103892
0.0195065
0.0110444
0.141527
0.0207057
0.155588
0.0241817
0.159121
0.023033
0.159036
0.0178273
0.16054
0.0105113
0.162262
0.00417274
0.163003
0.00115464
0.162639
0.16397
-0.00352352
0.118807
-0.0113911
0.00407631
0.133927
0.0117844
0.14788
0.0152211
0.155684
0.0161235
0.158134
0.0169302
0.159733
0.0173883
0.161803
0.0144588
0.165933
0.00735011
0.169747
0.17132
0.0244566
0.146598
-0.0522479
0.0138941
0.14449
0.0160488
0.145725
0.021714
0.150019
0.0222878
0.15756
0.0166627
0.165358
0.00973256
0.168734
0.00437132
0.171294
0.0016949
0.172424
0.173015
0.0616133
0.169758
-0.0847736
0.0422495
0.163854
0.029161
0.158813
0.0235453
0.155635
0.0249065
0.156199
0.0275845
0.16268
0.0266803
0.169638
0.0213796
0.176595
0.0123014
0.181502
0.185316
0.0905569
0.183347
-0.104146
0.0749902
0.17942
0.0624351
0.171369
0.0500795
0.16799
0.0369362
0.169342
0.0261835
0.173433
0.0180972
0.177724
0.0127791
0.181913
0.00760768
0.186673
0.192924
0.108167
0.188793
-0.113613
0.093514
0.194073
0.0769758
0.187907
0.0651188
0.179847
0.0567411
0.17772
0.0484716
0.181703
0.0384785
0.187717
0.0265553
0.193836
0.0138015
0.199427
0.206726
0.119533
0.184875
-0.115615
0.115886
0.197721
0.1027
0.201093
0.08328
0.199267
0.0644375
0.196562
0.0484396
0.1977
0.0349189
0.201238
0.0223534
0.206401
0.0105406
0.21124
0.217266
0.117477
0.177182
-0.109784
0.11458
0.200618
0.108742
0.206931
0.0991556
0.208854
0.0861308
0.209587
0.0708407
0.212991
0.054104
0.217974
0.0364358
0.22407
0.0177835
0.229892
0.23505
0.12427
0.154437
-0.101524
0.127425
0.197462
0.11811
0.216247
0.10343
0.223533
0.0863313
0.226686
0.0690578
0.230264
0.0517445
0.235288
0.0346621
0.241152
0.0174445
0.24711
0.252494
0.105728
-0.0750864
0.123361
0.126614
0.119601
0.105953
0.0882477
0.0678718
0.0460573
0.023473
0.0186108
0.0104025
-0.00950674
0.0337464
-0.0265267
0.0463946
-0.0648961
0.053308
-0.091687
0.0552201
-0.106058
0.0536778
-0.112071
0.0488125
-0.11075
0.0416727
-0.102645
0.0309502
-0.0908013
-0.0655056
0.0218474
-0.00320347
-0.00824146
0.0386834
-0.0433627
0.0499314
-0.0761441
0.0548126
-0.0965682
0.0550103
-0.106255
0.0518585
-0.108919
0.0456334
-0.104525
0.0372675
-0.0942788
0.0262909
-0.0798247
-0.0559513
0.0273395
-0.0209701
-0.00957284
0.0434619
-0.0594851
0.0523216
-0.0850038
0.0550881
-0.0993347
0.0537065
-0.104874
0.049169
-0.104381
0.0418218
-0.0971777
0.0325104
-0.0849675
0.0214076
-0.0687218
-0.0466703
0.0336727
-0.0408655
-0.0137773
0.0473662
-0.0731786
0.0535779
-0.0912155
0.0543608
-0.100118
0.0514834
-0.101996
0.0456495
-0.0985474
0.0373136
-0.0888419
0.0273608
-0.0750147
0.0164596
-0.0578206
-0.0378807
0.0395912
-0.0602406
-0.0202161
0.0499437
-0.0835312
0.0535332
-0.0948049
0.052535
-0.0991194
0.0483044
-0.0977658
0.041349
-0.0915919
0.0322632
-0.0797561
0.0219921
-0.0647437
0.0115695
-0.0473979
-0.0298128
0.044002
-0.076605
-0.0276376
0.0509455
-0.0904746
0.0521929
-0.0960523
0.049656
-0.0965825
0.0442459
-0.0923557
0.0363807
-0.0837267
0.0268107
-0.0701861
0.0165525
-0.0544855
0.00681307
-0.0376585
-0.0227631
0.0463967
-0.0885846
-0.0344171
0.0503232
-0.0944011
0.0496296
-0.0953587
0.0457941
-0.092747
0.0394044
-0.085966
0.0308828
-0.0752051
0.0211284
-0.0604318
0.01122
-0.0445771
0.0023318
-0.0287703
-0.0169543
0.0466975
-0.0961323
-0.0391497
0.0481848
-0.0958885
0.0459683
-0.0931423
0.0410768
-0.0878555
0.0339339
-0.0788231
0.0250339
-0.0663051
0.015401
-0.0507989
0.00616478
-0.0353409
-0.00154606
-0.0210594
-0.0122755
0.0451172
-0.100048
-0.0412013
0.0447483
-0.0955196
0.0413729
-0.0897668
0.0356702
-0.0821528
0.028022
-0.0711749
0.0190303
-0.0573133
0.00980853
-0.0415772
0.00152833
-0.0270607
-0.00479551
-0.0147356
-0.00854716
0.042027
-0.101343
-0.0407318
0.0402739
-0.0937665
0.0360388
-0.0855317
0.0297751
-0.0758891
0.021882
-0.0632818
0.0130761
-0.0485074
0.00451426
-0.0330153
-0.00271174
-0.0198347
-0.00766364
-0.00978369
-0.00577759
0.0378173
-0.100826
-0.038335
0.0350276
-0.0909768
0.0301924
-0.0806965
0.023617
-0.0693136
0.0157351
-0.0553999
0.00736694
-0.0401392
-0.000342716
-0.0253057
-0.00638918
-0.0137882
-0.0100808
-0.00609203
-0.00385482
0.0328199
-0.0990322
-0.0346135
0.0292674
-0.0874243
0.024079
-0.0755082
0.0174254
-0.06266
0.0097906
-0.0477652
0.0020734
-0.032422
-0.00463074
-0.0186015
-0.00946979
-0.00894915
-0.012059
-0.0035028
-0.00261738
0.0273259
-0.0963152
-0.0300429
0.0232756
-0.083374
0.0179493
-0.0701819
0.0114236
-0.0561343
0.00423453
-0.0405761
-0.00269627
-0.0254912
-0.00833019
-0.0129676
-0.0119916
-0.00528777
-0.013654
-0.00184039
-0.00188921
0.0215856
-0.0929384
-0.0249624
0.0172871
-0.0790755
0.0120209
-0.0649157
0.00579678
-0.0499102
-0.000748971
-0.0340304
-0.00687786
-0.0193624
-0.0114202
-0.00842519
-0.0140124
-0.00269558
-0.0149455
-0.000907344
-0.00150305
0.0158301
-0.0891332
-0.0196353
0.011506
-0.0747514
0.0064743
-0.0598839
0.000712379
-0.0441482
-0.00526058
-0.0280574
-0.0104229
-0.0142
-0.0139291
-0.00491897
-0.0156124
-0.00101229
-0.0160208
-0.000499016
-0.00131437
0.010262
-0.0851147
-0.0142805
0.00610382
-0.0705932
0.0014673
-0.0552474
-0.00386229
-0.0388186
-0.00907737
-0.0228423
-0.0133378
-0.00993963
-0.015916
-0.00234077
-0.0168834
-4.487e-05
-0.0169627
-0.000419751
-0.0012067
0.00508757
-0.081139
-0.00906332
0.00124556
-0.0667512
-0.00302338
-0.0509785
-0.00777955
-0.0340625
-0.012236
-0.0183858
-0.0156613
-0.00651436
-0.0174659
-0.000536166
-0.0179081
0.000397289
-0.0178442
-0.000483604
-0.00109208
0.000553677
-0.0776148
-0.00407779
-0.0030048
-0.0631927
-0.00686883
-0.0471144
-0.0110305
-0.0299008
-0.0147679
-0.0146484
-0.0174505
-0.00383176
-0.0186425
0.000655779
-0.0187878
0.000542634
-0.0187249
-0.000546521
-0.000908102
-0.00342145
-0.0746444
0.000450967
-0.00661523
-0.0599989
-0.0100211
-0.0437086
-0.0136434
-0.0262785
-0.0167184
-0.0115734
-0.0187721
-0.00177804
-0.0195251
0.00140872
-0.0195889
0.000606499
-0.0196461
-0.000489334
-0.000611011
-0.00733967
-0.0723968
0.00509214
-0.0100006
-0.057338
-0.0126698
-0.0410394
-0.0155869
-0.0233614
-0.0180569
-0.0091034
-0.019674
-0.00016099
-0.0202109
0.00194566
-0.0203598
0.000755425
-0.0206221
-0.000227114
-0.000160112
-0.00303795
-0.0549278
-0.0144311
-0.0356312
-0.0247447
-0.0628156
-0.0138549
-0.0812212
-0.0049558
-0.0889183
-0.00140629
-0.0898119
0.000732589
-0.0890499
0.0011836
-0.0887185
0.00042403
-0.0888396
-0.000106012
9.04128e-06
-0.104219
-0.0304922
0.0797834
-0.119541
-0.0094224
-0.12258
-0.0108164
-0.121873
-0.00566287
-0.116914
-0.00636503
-0.113714
-0.00246719
-0.112366
-0.000164141
-0.11249
0.000548013
-0.112475
-0.000121357
-9.43751e-05
-0.135539
-0.0217352
0.126782
-0.13326
-0.0117009
-0.130659
-0.0134179
-0.130972
-0.00534976
-0.131285
-0.00605167
-0.132991
-0.000762007
-0.132705
-0.000449887
-0.132434
0.000277175
-0.131983
-0.000572751
-5.06091e-05
-0.151231
-0.0175404
0.147036
-0.150323
-0.0126092
-0.152959
-0.0107816
-0.154652
-0.00365666
-0.155219
-0.00548502
-0.156073
9.19456e-05
-0.154452
-0.00207045
-0.154103
-7.17028e-05
-0.153649
-0.00102738
0.000114863
-0.171859
-0.0140456
0.168364
-0.175236
-0.00923265
-0.178938
-0.00707898
-0.178867
-0.00372818
-0.180178
-0.00417381
-0.179658
-0.00042787
-0.179205
-0.00252322
-0.179568
0.000290791
-0.179134
-0.00146105
0.000324924
-0.203017
-0.0106705
0.199641
-0.205555
-0.00669425
-0.206618
-0.00601551
-0.206808
-0.00353907
-0.208055
-0.00292647
-0.207713
-0.000769789
-0.208347
-0.00188945
-0.208249
0.00019268
-0.20818
-0.0015292
0.000632951
-0.238845
-0.00784213
0.236017
-0.240098
-0.00544074
-0.241538
-0.00457575
-0.242534
-0.00254373
-0.2433
-0.00215977
-0.243297
-0.000772804
-0.243897
-0.00128931
-0.243685
-2.00964e-05
-0.244241
-0.000973115
0.000599624
-0.287541
-0.00531861
0.285017
-0.289018
-0.0039632
-0.290354
-0.00324035
-0.291
-0.00189759
-0.291681
-0.00147808
-0.291884
-0.000570062
-0.292376
-0.000797429
-0.292292
-0.000104115
-0.292693
-0.000572437
0.000340832
-0.346982
-0.00297859
0.344642
-0.349154
-0.00179103
-0.351021
-0.00137335
-0.35216
-0.000758583
-0.352955
-0.000682985
-0.353087
-0.000437517
-0.353416
-0.000469011
-0.353467
-5.29175e-05
-0.353996
-4.37679e-05
0.000261899
-0.395131
0.392152
-0.396922
-0.398295
-0.399054
-0.399737
-0.400174
-0.400643
-0.400696
-0.40074
-0.0199085
-0.0053792
0.0108566
-0.0254383
0.0853132
-0.0260692
0.127413
-0.0250641
0.146031
-0.0239406
0.167241
-0.0219056
0.197606
-0.0195145
0.233625
-0.015408
0.280911
-0.00925274
0.338486
0.3829
-0.0204547
0.00200242
0.0130731
-0.023761
0.0886195
-0.0238722
0.127524
-0.0231183
0.145277
-0.0220274
0.16615
-0.0198982
0.195477
-0.0174389
0.231166
-0.0136138
0.277085
-0.00795014
0.332823
0.374949
-0.0210336
0.00803227
0.0150037
-0.0227972
0.0903832
-0.0223416
0.127068
-0.0217256
0.144661
-0.0206515
0.165076
-0.0185472
0.193373
-0.0161246
0.228744
-0.0126151
0.273576
-0.00724032
0.327448
0.367709
-0.0211249
0.012547
0.0166102
-0.0217506
0.0910088
-0.0208721
0.12619
-0.0202932
0.144082
-0.0191576
0.16394
-0.0170594
0.191275
-0.0147226
0.226407
-0.011503
0.270356
-0.00651052
0.322455
0.361199
-0.0208283
0.0154192
0.017956
-0.0203503
0.0905308
-0.0192959
0.125136
-0.0188176
0.143604
-0.0175923
0.162715
-0.0154918
0.189174
-0.0132739
0.224189
-0.0103263
0.267409
-0.00579738
0.317926
0.355401
-0.0203377
0.0166378
0.0191192
-0.0187763
0.0889694
-0.017605
0.123964
-0.0172451
0.143244
-0.0159518
0.161421
-0.0138659
0.187088
-0.0117784
0.222101
-0.00910498
0.264735
-0.0050894
0.313911
0.350312
-0.0198263
0.0162505
0.0202136
-0.0172058
0.0863488
-0.0158897
0.122648
-0.0155795
0.142934
-0.0142368
0.160079
-0.0121902
0.185042
-0.0102332
0.220144
-0.00784688
0.262349
-0.00436751
0.310431
0.345944
-0.0194436
0.0143461
0.021348
-0.0157352
0.0826404
-0.014213
0.121126
-0.0138643
0.142585
-0.0124724
0.158687
-0.0104807
0.18305
-0.00864783
0.218312
-0.00656333
0.260265
-0.00362882
0.307497
0.342315
-0.0193211
0.011066
0.0226012
-0.0144445
0.0777639
-0.0126018
0.119283
-0.0121413
0.142125
-0.0106934
0.157239
-0.0087631
0.18112
-0.00704126
0.21659
-0.00526862
0.258492
-0.00288162
0.30511
0.339434
-0.0195364
0.00658364
0.0240188
-0.0134171
0.0716446
-0.0110815
0.116948
-0.0104428
0.141486
-0.00892419
0.15572
-0.00706642
0.179262
-0.00543445
0.214958
-0.00398485
0.257042
-0.00214076
0.303266
0.337293
-0.0201165
0.00110454
0.0255956
-0.0127651
0.0642932
-0.00969408
0.113877
-0.008803
0.140595
-0.00720929
0.154127
-0.00542019
0.177473
-0.00386187
0.213399
-0.00273218
0.255913
-0.00141735
0.301951
0.335876
-0.021152
-0.00509527
0.0273518
-0.0126025
0.0557437
-0.00845892
0.109733
-0.00724434
0.13938
-0.00561539
0.152498
-0.00388092
0.175738
-0.00238251
0.211901
-0.00152651
0.255057
-0.000718553
0.301143
0.335157
-0.0226653
-0.0115663
0.0291363
-0.0130146
0.0460929
-0.00748742
0.104206
-0.00584656
0.13774
-0.00417459
0.150826
-0.00248038
0.174044
-0.00103225
0.210453
-0.000372488
0.254397
-4.94311e-05
0.30082
0.335108
-0.0245166
-0.0179339
0.0308843
-0.0140507
0.035627
-0.0069336
0.0970888
-0.00462691
0.135433
-0.0029127
0.149111
-0.00124959
0.172381
8.77181e-05
0.209116
0.000683906
0.253801
0.000568444
0.300935
0.335676
-0.0265447
-0.0238624
0.0324732
-0.0156975
0.0247798
-0.00687071
0.088262
-0.0035913
0.132153
-0.00184001
0.14736
-0.000215742
0.170757
0.00131755
0.207582
0.0016863
0.253432
0.00115048
0.301471
0.336827
-0.0285668
-0.0290867
0.0337911
-0.0178519
0.0140649
-0.00734758
0.0777577
-0.00276792
0.127574
-0.000988705
0.145581
0.000681286
0.169087
0.00229312
0.20597
0.00254938
0.253176
0.00165818
0.302363
0.338485
-0.0304091
-0.0334171
0.0347395
-0.0202968
0.00395266
-0.00836689
0.0658278
-0.00219138
0.121398
-0.00033929
0.143729
0.00148497
0.167263
0.00313986
0.204316
0.00333344
0.252982
0.00212877
0.303567
0.340614
-0.0319222
-0.0367423
0.0352473
-0.0227197
-0.00524984
-0.00990972
0.0530178
-0.00202586
0.113514
2.33814e-05
0.14168
0.00196236
0.165324
0.0036995
0.202578
0.00390575
0.252776
0.00248244
0.304991
0.343096
-0.0328527
-0.0391565
0.035267
-0.0249488
-0.0131537
-0.0118779
0.0399469
-0.00222441
0.103861
0.000572089
0.138883
0.00244277
0.163453
0.00423184
0.200789
0.00445648
0.252551
0.00282957
0.306617
0.345926
-0.0329186
-0.0408994
0.0346615
-0.0264986
-0.0195738
-0.0143242
0.0277725
-0.00352576
0.0930625
0.000223022
0.135134
0.00223027
0.161446
0.00419525
0.198824
0.00457483
0.252172
0.00292678
0.308265
0.348852
-0.141206
-0.0368473
0.137154
-0.139212
-0.0215677
-0.120686
0.009246
-0.091028
0.0634047
-0.0704224
0.114529
-0.0594224
0.150446
-0.0465437
0.185946
-0.0329079
0.238536
-0.0176415
0.292999
0.331211
-0.151479
-0.0288079
0.14344
-0.154708
-0.0183384
-0.14653
0.00106781
-0.121745
0.0386197
-0.0945074
0.0872911
-0.0755967
0.131535
-0.0608055
0.171154
-0.0437416
0.221472
-0.0238988
0.273156
0.307312
-0.152388
-0.0190592
0.142639
-0.160162
-0.010564
-0.160916
0.00182166
-0.14853
0.0262334
-0.124548
0.0633094
-0.0990889
0.106076
-0.0777043
0.14977
-0.0548757
0.198643
-0.0291379
0.247418
0.278174
-0.147993
-0.0100855
0.139019
-0.156603
-0.00195367
-0.162551
0.00776961
-0.160631
0.0243139
-0.147107
0.0497853
-0.124233
0.083202
-0.0979189
0.123456
-0.0679571
0.168681
-0.0338923
0.213354
0.244282
-0.14122
-0.00252183
0.133656
-0.148213
0.00503886
-0.154268
0.0138248
-0.156502
0.0265482
-0.151418
0.0447014
-0.136618
0.0684021
-0.112604
0.0994411
-0.0804985
0.136576
-0.0406085
0.173464
0.203673
-0.134073
0.00336657
0.128185
-0.138916
0.0098822
-0.142726
0.0176346
-0.144069
0.027891
-0.141143
0.041775
-0.131508
0.0587672
-0.11263
0.080563
-0.0838442
0.107791
-0.0453696
0.134989
0.158304
-0.127733
0.00759615
0.123503
-0.130457
0.0126059
-0.131726
0.0189037
-0.130353
0.0265177
-0.125523
0.0369456
-0.11578
0.0490244
-0.0990953
0.0638779
-0.0740489
0.0827443
-0.0403634
0.101304
0.11794
-0.122987
0.0104047
0.120179
-0.123967
0.0135855
-0.123291
0.0182275
-0.120173
0.0233995
-0.113925
0.0306978
-0.103697
0.038796
-0.0880261
0.0482075
-0.0657291
0.0604472
-0.0383652
0.0739397
0.0795752
-0.134587
0.00638761
0.138604
-0.129404
0.00840255
-0.122232
0.0110553
-0.112917
0.0140849
-0.0999135
0.0176939
-0.083319
0.0222016
-0.0628464
0.0277348
-0.0363279
0.0339288
-0.00711749
0.0447293
0.0724577
-0.252289
0.258676
-0.243886
-0.232831
-0.218746
-0.201052
-0.178851
-0.151116
-0.117187
-0.0724577
-0.0348172
0.135921
0.03605
-0.0297845
0.138407
-0.0243275
0.137182
-0.0190013
0.133693
-0.0140662
0.128721
-0.00962691
0.123745
-0.00570993
0.119586
-0.00298212
0.117451
-0.00266411
0.138286
0.256012
-0.0323041
0.133927
0.0342988
-0.0280814
0.134184
-0.0232369
0.132338
-0.0181524
0.128608
-0.0133983
0.123967
-0.00912583
0.119473
-0.00536712
0.115828
-0.00282131
0.114905
-0.00241286
0.137878
0.253599
-0.0294046
0.131397
0.0319338
-0.0254381
0.130218
-0.0210776
0.127977
-0.0165185
0.124049
-0.0122027
0.119651
-0.00827991
0.11555
-0.00482116
0.112369
-0.00253082
0.112615
-0.00218523
0.137532
0.251414
-0.0265592
0.128751
0.0292058
-0.0228301
0.126489
-0.0188512
0.123998
-0.0147762
0.119974
-0.0109207
0.115796
-0.00737673
0.112006
-0.00422515
0.109217
-0.00219739
0.110587
-0.0019005
0.137235
0.249514
-0.0239441
0.126346
0.026349
-0.0205409
0.123085
-0.0169078
0.120365
-0.0132213
0.116288
-0.00972854
0.112303
-0.00649953
0.108777
-0.00362707
0.106345
-0.00182954
0.10879
-0.00157152
0.136977
0.247942
-0.0213942
0.124266
0.023474
-0.0183961
0.120087
-0.0151169
0.117086
-0.0117806
0.112951
-0.0085983
0.109121
-0.00564635
0.105825
-0.00303146
0.10373
-0.00143067
0.107189
-0.00120767
0.136754
0.246734
-0.0188881
0.122502
0.020652
-0.01629
0.117489
-0.0133685
0.114164
-0.0103769
0.10996
-0.00749255
0.106236
-0.00480482
0.103137
-0.00243429
0.10136
-0.00100467
0.105759
-0.000814535
0.136564
0.24592
-0.0164825
0.121057
0.0179278
-0.0142551
0.115262
-0.0116694
0.111579
-0.00900594
0.107296
-0.00640892
0.103639
-0.00397618
0.100705
-0.00183736
0.0992208
-0.000558737
0.104481
-0.000395904
0.136401
0.245524
-0.0142003
0.119929
0.015328
-0.0123219
0.113383
-0.0100458
0.109302
-0.00768526
0.104936
-0.00535922
0.101313
-0.00316888
0.0985143
-0.00124698
0.0972989
-0.000106961
0.103341
4.55871e-05
0.136249
0.24557
-0.0120374
0.119094
0.0128721
-0.0104929
0.111839
-0.00850577
0.107315
-0.00642466
0.102855
-0.00435279
0.0992415
-0.00239077
0.0965523
-0.000669647
0.0955777
0.00039033
0.102281
0.000493273
0.136146
0.246063
-0.00999761
0.118503
0.0105891
-0.00877105
0.110612
-0.00705375
0.105598
-0.00523133
0.101032
-0.0033985
0.0974087
-0.00165053
0.0948043
-0.00011503
0.0940422
0.00086298
0.101303
0.0009528
0.136056
0.247016
-0.00807549
0.118106
0.0084726
-0.00714498
0.109682
-0.00567896
0.104132
-0.00409788
0.0994511
-0.0024911
0.095802
-0.000947075
0.0932603
0.000415736
0.0926794
0.00131928
0.100399
0.00141503
0.13596
0.248431
-0.00628643
0.117866
0.00652587
-0.00562078
0.109016
-0.00438803
0.102899
-0.00303264
0.0980957
-0.00163715
0.0944065
-0.000280362
0.0919035
0.000915816
0.0914833
0.00176235
0.0995526
0.00187357
0.135849
0.250304
-0.00463113
0.117759
0.00473838
-0.00419193
0.108577
-0.00318226
0.10189
-0.00204003
0.0969535
-0.000841373
0.0932078
0.000332849
0.0907293
0.00138112
0.090435
0.00218419
0.0987495
0.00232289
0.13571
0.252627
-0.00310661
0.11777
0.00309556
-0.00284805
0.108318
-0.00206377
0.101105
-0.00112381
0.0960135
-0.000101926
0.0921859
0.000891704
0.0897357
0.00180755
0.0895191
0.00257844
0.0979786
0.00275489
0.135534
0.255382
-0.00174212
0.117923
0.00158926
-0.00158738
0.108164
-0.00104072
0.100559
-0.000285971
0.0952588
0.000544297
0.0913557
0.00139558
0.0888844
0.00219195
0.0887228
0.00294117
0.0972294
0.00316282
0.135312
0.258545
-0.000513639
0.118346
9.09319e-05
-0.00039898
0.108049
-0.00012631
0.100286
0.000463973
0.0946685
0.00112846
0.0906912
0.00184173
0.0881711
0.0025319
0.0880326
0.00327044
0.0964908
0.0035384
0.135044
0.262083
0.000615251
0.118861
-0.00113041
0.000671729
0.107993
0.000746491
0.100211
0.00113383
0.0942811
0.001638
0.090187
0.00222675
0.0875824
0.00282616
0.0874332
0.00356472
0.0957523
0.00386923
0.13474
0.265953
0.0019818
0.119404
-0.00252533
0.00177926
0.108195
0.00157089
0.10042
0.00174397
0.0941081
0.00208339
0.0898476
0.00255445
0.0871113
0.00307875
0.0869089
0.0038336
0.0949974
0.00415979
0.134414
0.270112
0.00247908
0.120345
-0.00341959
0.00247412
0.1082
0.00215536
0.100738
0.00217955
0.0940839
0.00240069
0.0896264
0.00278801
0.086724
0.00326429
0.0864326
0.0040463
0.0942154
0.00439469
0.134065
0.274507
-0.0870605
0.101859
0.105547
-0.0667973
0.0879369
-0.0532595
0.0872005
-0.040197
0.0810213
-0.0287475
0.0781769
-0.0182556
0.0762321
-0.00932939
0.0775064
-0.00246954
0.0873556
0.000446159
0.13115
0.274953
-0.0921985
0.0861348
0.107923
-0.0733594
0.0690978
-0.0588568
0.072698
-0.0442717
0.0664362
-0.0315701
0.0654754
-0.0195519
0.0642138
-0.00934945
0.067304
-0.00215388
0.08016
0.000152098
0.128844
0.275105
-0.0928461
0.0681113
0.11087
-0.0771587
0.0534104
-0.0620577
0.0575971
-0.0470301
0.0514085
-0.033482
0.0519274
-0.0205877
0.0513195
-0.00970124
0.0564176
-0.00241228
0.072871
-0.00010272
0.126534
0.275003
-0.0944966
0.0508663
0.111741
-0.0799615
0.0388753
-0.0642874
0.041923
-0.0491749
0.036296
-0.0346795
0.037432
-0.0214762
0.0381161
-0.0102757
0.0452171
-0.00267614
0.0652715
-1.20633e-05
0.12387
0.27499
-0.0961692
0.0337235
0.113312
-0.0821985
0.0249046
-0.0665276
0.0262521
-0.0511947
0.0209631
-0.0357994
0.0220367
-0.0227283
0.025045
-0.0118443
0.0343331
-0.00453516
0.0579623
-0.0010464
0.120381
0.273944
-0.0994417
0.018906
0.114259
-0.0853454
0.0108083
-0.0692522
0.010159
-0.053046
0.00475681
-0.0369877
0.00597842
-0.0240697
0.0121269
-0.0139915
0.0242549
-0.00754112
0.051512
-0.00368621
0.116526
0.270258
-0.103694
0.00490652
0.117693
-0.0900792
-0.00280599
-0.0735688
-0.00635146
-0.0568726
-0.0119393
-0.0413911
-0.00950313
-0.029891
0.000626862
-0.0220517
0.0164157
-0.0182385
0.0476988
-0.0126699
0.110958
0.257588
-0.112413
-0.00579861
0.123118
-0.100728
-0.014491
-0.0867088
-0.0203704
-0.0741948
-0.0244533
-0.0640523
-0.0196456
-0.0549803
-0.00844519
-0.04802
0.00945541
-0.0426988
0.0423776
-0.0318494
0.100108
0.225739
-0.127754
-0.0105569
0.132512
-0.124031
-0.0182139
-0.121276
-0.0231253
-0.123204
-0.022525
-0.128157
-0.0146922
-0.132408
-0.00419445
-0.131379
0.00842669
-0.117836
0.0288339
-0.0820729
0.0643454
0.143666
-0.162521
0.151964
-0.180735
-0.20386
-0.226385
-0.241077
-0.245272
-0.236845
-0.208011
-0.143666
0.00171581
0.108835
-0.00500436
-0.000498238
0.110137
-0.00168283
0.112054
-0.00277489
0.112834
-0.00378425
0.114321
-0.00475572
0.115231
-0.00544224
0.11838
-0.00561766
0.123293
-0.00449055
0.131385
0.147473
0.00313739
0.112698
-0.00700066
0.000629333
0.112645
-0.000941998
0.113626
-0.00221109
0.114103
-0.00331502
0.115425
-0.00428564
0.116201
-0.00493031
0.119024
-0.00503885
0.123402
-0.00392583
0.130272
0.143547
0.00487869
0.116758
-0.00893829
0.00218577
0.115338
0.000127297
0.115684
-0.00130708
0.115537
-0.00251791
0.116636
-0.00353092
0.117214
-0.00418176
0.119675
-0.00429074
0.123511
-0.00331463
0.129296
0.140233
0.00660788
0.121019
-0.0108684
0.00370356
0.118242
0.00152705
0.11786
-0.000317474
0.117382
-0.0015667
0.117885
-0.00264426
0.118292
-0.00333108
0.120362
-0.00350415
0.123684
-0.00271483
0.128506
0.137518
0.00832794
0.125516
-0.0128252
0.00520683
0.121363
0.00286983
0.120197
0.000924298
0.119327
-0.000532723
0.119342
-0.00166156
0.119421
-0.00240608
0.121106
-0.00269015
0.123968
-0.00213096
0.127947
0.135387
0.0101232
0.130203
-0.0148102
0.00677519
0.124711
0.00427854
0.122694
0.00225929
0.121346
0.000692394
0.120909
-0.000605908
0.120719
-0.00142177
0.121922
-0.00185723
0.124403
-0.00156491
0.127655
0.133822
0.0120023
0.135005
-0.0168041
0.00843687
0.128277
0.00578325
0.125348
0.00366919
0.12346
0.00203691
0.122542
0.000616271
0.12214
-0.000395393
0.122934
-0.00101281
0.125021
-0.00101677
0.127659
0.132805
0.0139404
0.139835
-0.0187708
0.0101824
0.132035
0.00737673
0.128153
0.00516198
0.125675
0.0034332
0.12427
0.00192475
0.123648
0.000735584
0.124123
-0.000177444
0.125934
-0.000485492
0.127967
0.13232
0.0159084
0.14458
-0.0206535
0.0119968
0.135946
0.00904123
0.131109
0.00671946
0.127997
0.00487752
0.126112
0.0032457
0.12528
0.00186684
0.125502
0.000751222
0.127049
4.13068e-05
0.128677
0.132361
0.017873
-0.0223731
0.0138676
0.0107584
0.00832021
0.00634709
0.00458208
0.00299204
0.00162925
0.000548919
-0.0005564
-0.000849789
-0.00117086
-0.000849247
-0.00149255
-0.000228697
-0.00134348
0.000794412
-0.000637257
0.00216193
0.000647583
0.00383129
0.00247393
0.0057411
0.00472886
0.00781423
0.0071772
0.00993194
0.0117629
-0.00064534
-0.000204448
-0.00137936
-0.000115225
-0.00184289
0.000234827
-0.0018653
0.000816826
-0.00136311
0.00165974
-0.000309048
0.00277722
0.00127063
0.00416142
0.00330045
0.0057844
0.00565749
0.0075749
0.00917897
-0.000670001
0.000465552
-0.00140216
0.000616939
-0.00184041
0.000673077
-0.00182361
0.000800018
-0.00127678
0.00111292
-0.000164833
0.00166527
0.00150683
0.00248975
0.00372496
0.00356628
0.00646177
0.00483809
0.0060679
-0.000620377
0.00108593
-0.00120961
0.00120618
-0.00141971
0.000883172
-0.00110049
0.000480801
-0.000186715
0.000199142
0.00133634
0.000142216
0.00349233
0.000333769
0.0062896
0.000769009
0.00975447
0.00137322
0.00204506
-0.000498253
0.00158418
-0.000801865
0.00150979
-0.000576852
0.00065816
0.000310381
-0.000406431
0.00189847
-0.00138894
0.00418999
-0.00214931
0.00717197
-0.00264821
0.0108435
-0.00290257
0.0152079
-0.00299111
-0.00296316
-0.000315903
0.00190008
-0.000208734
0.00140262
0.000628634
-0.000179207
0.00229777
-0.00207556
0.00479381
-0.00388498
0.00806193
-0.00541743
0.0120349
-0.00662119
0.0166596
-0.00752731
0.0218675
-0.00819897
-0.00873323
-8.94508e-05
0.00198953
0.000522474
0.000790694
0.00209629
-0.00175303
0.00466728
-0.00464655
0.00814582
-0.00736352
0.012391
-0.00966261
0.0172574
-0.0114876
0.0226207
-0.0128906
0.0283555
-0.0139338
-0.0147949
0.000165022
0.00182451
0.00134241
-0.000386692
0.00371305
-0.00412367
0.00719031
-0.00812381
0.0115548
-0.011728
0.0165571
-0.0146649
0.0219753
-0.0169057
0.0276303
-0.0185456
0.0333833
-0.0196868
-0.0205613
0.000432799
0.00139171
0.00220936
-0.00216326
0.00536767
-0.00728197
0.00963567
-0.0123918
0.0146329
-0.0167253
0.0200103
-0.0200424
0.0255044
-0.0223998
0.0309351
-0.0239762
0.0361952
-0.024947
-0.0255673
0.000712461
0.000679253
0.00308875
-0.00453955
0.00694848
-0.0111417
0.0117781
-0.0172215
0.0170453
-0.0219924
0.0223543
-0.0253514
0.0274652
-0.0275107
0.032258
-0.028769
0.0366908
-0.0293797
-0.0296083
0.001011
-0.00033175
0.00396835
-0.0074969
0.0083748
-0.0155481
0.0134593
-0.022306
0.0186034
-0.0271365
0.0234504
-0.0301984
0.027852
-0.0319123
0.0317826
-0.0326996
0.0352694
-0.0328665
-0.032674
0.00131644
-0.00164819
0.00476988
-0.0109503
0.00947941
-0.0202577
0.0144741
-0.0273007
0.019156
-0.0318184
0.0232862
-0.0343286
0.0268388
-0.0354649
0.0298714
-0.0357322
0.0324492
-0.0354443
-0.0348383
0.00162114
-0.00326933
0.00544253
-0.0147717
0.0101791
-0.0249942
0.0147812
-0.0319028
0.0187766
-0.0358138
0.0220826
-0.0376346
0.0247803
-0.0381626
0.0269702
-0.0379221
0.028715
-0.0371891
-0.0361662
0.00190598
-0.00517531
0.0059219
-0.0187877
0.010418
-0.0294903
0.0144111
-0.0358959
0.0176179
-0.0390206
0.020101
-0.0401177
0.0220056
-0.0400672
0.0234327
-0.0393492
0.0244174
-0.0381738
-0.0367112