/*--------------------------------*- C++ -*----------------------------------*\
  =========                 |
  \\      /  F ield         | OpenFOAM: The Open Source CFD Toolbox
   \\    /   O peration     | Website:  https://openfoam.org
    \\  /    A nd           | Version:  7
     \\/     M anipulation  |
\*---------------------------------------------------------------------------*/
FoamFile
{
    version     2.0;
    format      ascii;
    class       volScalarField;
    location    "7";
    object      p;
}
// * * * * * * * * * * * * * * * * * * * * * * * * * * * * * * * * * * * * * //

dimensions      [0 2 -2 0 0 0 0];

internalField   nonuniform List<scalar> 
8000
(
0.200919
0.203301
0.204855
0.2066
0.208388
0.210214
0.212067
0.213932
0.215796
0.217645
0.21947
0.221262
0.223015
0.224724
0.226385
0.227996
0.229556
0.231064
0.23252
0.233928
0.199911
0.202319
0.203909
0.205693
0.207512
0.20936
0.211224
0.21309
0.214943
0.216772
0.218568
0.220323
0.222031
0.223688
0.225293
0.226843
0.22834
0.229779
0.231151
0.232509
0.198845
0.201308
0.202949
0.204782
0.206642
0.208519
0.210403
0.212275
0.214124
0.215937
0.217707
0.219428
0.221093
0.222702
0.224251
0.225741
0.227173
0.228543
0.22983
0.231132
0.197782
0.200309
0.202005
0.20389
0.205794
0.207706
0.209612
0.211495
0.213343
0.215144
0.216892
0.21858
0.220205
0.221765
0.22326
0.22469
0.226058
0.227356
0.228559
0.229796
0.196718
0.199316
0.201068
0.203011
0.204964
0.206914
0.208847
0.210745
0.212596
0.214389
0.216117
0.217776
0.219364
0.220879
0.22232
0.22369
0.224994
0.226221
0.227339
0.228501
0.195645
0.198319
0.200134
0.202139
0.204146
0.20614
0.208105
0.210022
0.21188
0.213668
0.215381
0.217015
0.218568
0.22004
0.22143
0.222742
0.223981
0.225137
0.226169
0.227248
0.194558
0.197315
0.199197
0.201271
0.203338
0.20538
0.207381
0.209322
0.211191
0.212979
0.214681
0.216293
0.217815
0.219247
0.220589
0.221844
0.223019
0.224104
0.225052
0.226035
0.193452
0.196298
0.198255
0.200403
0.202536
0.204632
0.206674
0.208642
0.210526
0.212318
0.214012
0.215607
0.217102
0.218497
0.219794
0.220995
0.222107
0.223122
0.223988
0.224865
0.19232
0.195265
0.197302
0.199532
0.201737
0.203892
0.205978
0.207979
0.209882
0.211681
0.213372
0.214953
0.216425
0.217788
0.219043
0.220193
0.221245
0.222193
0.222981
0.223739
0.191155
0.19421
0.196335
0.198654
0.200936
0.203155
0.205291
0.207328
0.209254
0.211064
0.212755
0.214327
0.215779
0.217114
0.218332
0.219436
0.220432
0.221317
0.222033
0.222662
0.189948
0.193129
0.195349
0.197765
0.200131
0.202418
0.204609
0.206685
0.208637
0.210461
0.212156
0.213722
0.215159
0.216471
0.217658
0.218721
0.219667
0.220496
0.221148
0.221639
0.188694
0.192015
0.19434
0.19686
0.199316
0.201677
0.203925
0.206044
0.208026
0.209867
0.211568
0.213131
0.214557
0.215851
0.217012
0.218043
0.218947
0.21973
0.220334
0.220678
0.187382
0.190865
0.193303
0.195935
0.198487
0.200927
0.203237
0.205401
0.207414
0.209274
0.210984
0.212545
0.213964
0.215245
0.216389
0.217397
0.21827
0.219021
0.219595
0.219791
0.186007
0.189673
0.192233
0.194986
0.19764
0.200162
0.202537
0.204749
0.206795
0.208675
0.210394
0.211956
0.21337
0.214641
0.215775
0.216771
0.217629
0.218368
0.218941
0.218994
0.184561
0.188434
0.191127
0.194009
0.19677
0.199379
0.20182
0.204082
0.206161
0.208061
0.209789
0.211352
0.212761
0.214027
0.215157
0.216151
0.217011
0.217765
0.218381
0.218311
0.183038
0.187146
0.189982
0.193
0.195874
0.198572
0.201082
0.203393
0.205505
0.207424
0.209158
0.21072
0.212124
0.213384
0.214513
0.215517
0.216397
0.2172
0.217919
0.217772
0.181434
0.185806
0.188794
0.191957
0.194948
0.197738
0.200317
0.202677
0.20482
0.206754
0.208491
0.210047
0.21144
0.21269
0.213817
0.214835
0.21575
0.216638
0.217542
0.217412
0.179746
0.184411
0.187563
0.190877
0.193989
0.196873
0.199521
0.201928
0.204099
0.206043
0.207777
0.209319
0.210692
0.211921
0.213036
0.214063
0.215021
0.216031
0.217259
0.217365
0.177972
0.182962
0.186287
0.189761
0.192997
0.195975
0.198691
0.201142
0.203335
0.205285
0.207007
0.208523
0.209859
0.211047
0.212127
0.213141
0.214138
0.215351
0.217244
0.21818
0.176118
0.181463
0.184969
0.188607
0.19197
0.195042
0.197823
0.200314
0.202525
0.204471
0.206171
0.207647
0.208925
0.210036
0.211022
0.211934
0.212855
0.214154
0.216647
0.218874
0.237065
0.24169
0.245253
0.248707
0.251531
0.254091
0.256314
0.258299
0.260056
0.261612
0.262978
0.264164
0.265177
0.266026
0.26672
0.267271
0.267691
0.267991
0.268188
0.268285
0.235858
0.240183
0.243755
0.24714
0.249942
0.252481
0.254696
0.256677
0.258435
0.259996
0.261368
0.262561
0.263582
0.264439
0.265142
0.265702
0.266131
0.266442
0.266646
0.266754
0.23465
0.23871
0.242268
0.245586
0.24836
0.250876
0.253079
0.255056
0.256815
0.25838
0.259759
0.260961
0.261991
0.262857
0.26357
0.264139
0.264578
0.2649
0.265112
0.265232
0.233437
0.237275
0.240793
0.244048
0.246788
0.249278
0.251468
0.253439
0.255198
0.256767
0.258154
0.259365
0.260406
0.261282
0.262006
0.262585
0.263034
0.263367
0.263587
0.263719
0.232208
0.235877
0.23933
0.242527
0.245226
0.247688
0.249862
0.251825
0.253584
0.255158
0.256552
0.257773
0.258825
0.259712
0.260447
0.261037
0.261497
0.26184
0.262069
0.262213
0.230954
0.234519
0.237879
0.241024
0.243675
0.246108
0.248263
0.250217
0.251975
0.253553
0.254955
0.256186
0.257249
0.258149
0.258895
0.259497
0.259968
0.260321
0.260559
0.260714
0.229665
0.233199
0.236438
0.239537
0.242136
0.244537
0.246673
0.248617
0.250372
0.251954
0.253364
0.254605
0.25568
0.256592
0.25735
0.257964
0.258445
0.258808
0.259055
0.25922
0.228327
0.231917
0.235008
0.238067
0.24061
0.242977
0.245091
0.247023
0.248775
0.25036
0.251778
0.25303
0.254116
0.255041
0.255811
0.256437
0.256929
0.257303
0.257557
0.257731
0.226931
0.230671
0.233586
0.236611
0.239095
0.241428
0.243518
0.245438
0.247186
0.248774
0.250199
0.25146
0.252559
0.253496
0.254279
0.254916
0.25542
0.255803
0.256065
0.256247
0.225464
0.229456
0.232172
0.23517
0.237592
0.239889
0.241954
0.243861
0.245605
0.247194
0.248626
0.249898
0.251008
0.251958
0.252753
0.253403
0.253917
0.254309
0.254578
0.254767
0.223918
0.228265
0.230764
0.233738
0.2361
0.23836
0.240401
0.242293
0.244032
0.245622
0.24706
0.248342
0.249464
0.250426
0.251234
0.251895
0.25242
0.252821
0.253097
0.25329
0.222289
0.227088
0.229362
0.232314
0.234617
0.23684
0.238856
0.240734
0.242467
0.244058
0.245502
0.246793
0.247926
0.248901
0.249721
0.250394
0.250929
0.251338
0.251619
0.251816
0.220576
0.22591
0.227963
0.230892
0.233141
0.235328
0.23732
0.239184
0.24091
0.242502
0.243951
0.245251
0.246396
0.247383
0.248215
0.248899
0.249443
0.24986
0.250146
0.250345
0.218789
0.224713
0.226565
0.229468
0.23167
0.233823
0.235792
0.237641
0.239362
0.240954
0.242408
0.243717
0.244872
0.245871
0.246715
0.24741
0.247963
0.248387
0.248675
0.248875
0.216951
0.223475
0.225167
0.228039
0.230203
0.232323
0.234272
0.236107
0.237821
0.239413
0.240872
0.242189
0.243355
0.244365
0.245221
0.245927
0.246488
0.246917
0.247208
0.247406
0.215113
0.222187
0.223774
0.226606
0.228743
0.230831
0.232761
0.234584
0.236292
0.237882
0.239345
0.24067
0.241846
0.242867
0.243734
0.244449
0.245017
0.245451
0.245744
0.245937
0.213323
0.220816
0.222379
0.225167
0.227288
0.229347
0.231259
0.233069
0.23477
0.236359
0.237825
0.239157
0.240343
0.241375
0.242252
0.242976
0.243551
0.243987
0.244281
0.244469
0.211545
0.219208
0.220876
0.223638
0.225768
0.22781
0.229714
0.231518
0.233218
0.234811
0.236286
0.237629
0.238829
0.239875
0.240766
0.241501
0.242084
0.242525
0.242818
0.242999
0.210041
0.217308
0.219182
0.221933
0.224109
0.22616
0.228078
0.229896
0.231612
0.233222
0.234717
0.236081
0.237302
0.238369
0.239277
0.240026
0.240618
0.241063
0.241356
0.241528
0.210935
0.216455
0.218159
0.220732
0.222881
0.224894
0.226795
0.228602
0.230308
0.231909
0.233392
0.234742
0.235947
0.236998
0.237889
0.238621
0.239197
0.239625
0.239904
0.240058
0.221526
0.220317
0.220078
0.221621
0.223199
0.224691
0.226159
0.227593
0.228967
0.23026
0.231453
0.23253
0.233481
0.234299
0.234983
0.235536
0.235965
0.236278
0.236481
0.236584
0.213059
0.212658
0.213095
0.215117
0.217032
0.218719
0.220315
0.221834
0.223259
0.224579
0.225783
0.226866
0.227821
0.228645
0.229338
0.229903
0.230345
0.230669
0.230882
0.230988
0.203368
0.204158
0.205408
0.20794
0.210252
0.212239
0.214059
0.21574
0.217277
0.218669
0.21992
0.221033
0.222008
0.222849
0.223558
0.224139
0.224596
0.224934
0.225157
0.225267
0.193389
0.195402
0.197412
0.200421
0.203161
0.205507
0.207607
0.209498
0.211183
0.212673
0.213983
0.215127
0.216117
0.216961
0.217669
0.218248
0.218703
0.219039
0.219261
0.219371
0.182422
0.185569
0.188406
0.191966
0.195216
0.198013
0.200483
0.202666
0.204574
0.206227
0.207651
0.20887
0.209907
0.21078
0.211505
0.212094
0.212554
0.212894
0.213118
0.213229
0.170642
0.174782
0.178443
0.182583
0.186378
0.189677
0.192578
0.195121
0.197318
0.199198
0.200792
0.202136
0.203262
0.204198
0.204967
0.205585
0.206067
0.20642
0.206653
0.206768
0.158329
0.163305
0.167725
0.172422
0.176751
0.180561
0.183921
0.186861
0.189393
0.191546
0.193356
0.194867
0.196119
0.197148
0.197983
0.19865
0.199166
0.199542
0.199789
0.199911
0.145622
0.151281
0.156366
0.16157
0.166399
0.170703
0.174522
0.177874
0.180766
0.183223
0.185285
0.186997
0.188404
0.189552
0.190477
0.191209
0.19177
0.192179
0.192445
0.192576
0.132601
0.138799
0.144441
0.150093
0.15537
0.16013
0.164387
0.168144
0.171402
0.174181
0.176515
0.178452
0.18004
0.181328
0.182361
0.183173
0.183792
0.18424
0.184531
0.184674
0.119325
0.125934
0.132029
0.138055
0.143717
0.148879
0.153532
0.157668
0.16128
0.164377
0.166991
0.169165
0.170948
0.172393
0.173547
0.17445
0.175136
0.17563
0.17595
0.176106
0.10586
0.112759
0.119205
0.125526
0.131497
0.136992
0.141985
0.146455
0.150387
0.153783
0.156665
0.159073
0.161054
0.162661
0.163942
0.164944
0.165702
0.166245
0.166596
0.166768
0.0922612
0.0993451
0.106041
0.112571
0.118766
0.124513
0.129773
0.134515
0.138716
0.14237
0.145493
0.148115
0.150282
0.152044
0.15345
0.154549
0.155379
0.155973
0.156356
0.156542
0.0786321
0.0857797
0.0926163
0.0992541
0.105577
0.111483
0.116922
0.121856
0.126257
0.130111
0.133425
0.136226
0.138551
0.140447
0.141964
0.14315
0.144045
0.144686
0.145097
0.145298
0.065025
0.0721403
0.0790029
0.0856391
0.0919795
0.0979367
0.103452
0.108483
0.112995
0.11697
0.12041
0.123332
0.12577
0.127766
0.129368
0.130621
0.131568
0.132245
0.13268
0.132892
0.0516822
0.0585801
0.0653174
0.0718113
0.0780345
0.083913
0.0893818
0.0943915
0.0989054
0.102902
0.106377
0.109343
0.111828
0.11387
0.115512
0.116799
0.117772
0.118468
0.118914
0.119133
0.0385137
0.0451581
0.0516271
0.057835
0.0637919
0.069441
0.074716
0.079565
0.0839502
0.0878482
0.0912514
0.0941685
0.0966223
0.0986462
0.100279
0.101563
0.102535
0.10323
0.103677
0.103892
0.0263376
0.0322435
0.0381751
0.0438679
0.0493521
0.0545788
0.0594747
0.063983
0.0680651
0.0716971
0.0748709
0.0775934
0.0798849
0.0817755
0.0833011
0.0844991
0.0854054
0.0860526
0.0864712
0.0866882
0.0140695
0.0196776
0.0249445
0.0299211
0.0347078
0.0392932
0.0436112
0.0476045
0.0512345
0.0544761
0.0573185
0.0597656
0.061834
0.0635492
0.0649412
0.0660411
0.0668774
0.067476
0.0678608
0.0680311
0.00465612
0.00833885
0.0126803
0.0166406
0.0203991
0.0239662
0.0272799
0.0302966
0.0329971
0.035374
0.0374298
0.0391771
0.0406361
0.041832
0.0427916
0.0435416
0.0441061
0.044504
0.0447669
0.0450065
-0.0119595
-0.00619072
-0.0023368
0.00112208
0.00435754
0.00735912
0.0101116
0.0126029
0.0148166
0.0167448
0.0183945
0.0197849
0.0209419
0.0218929
0.0226631
0.0232728
0.023738
0.0240663
0.0242328
0.0241539
0.206885
0.198873
0.191614
0.182777
0.172958
0.16221
0.150762
0.138736
0.126249
0.113407
0.100333
0.0870964
0.0738857
0.060626
0.0478829
0.0348025
0.0239543
0.0100648
0.00712115
-0.0203081
0.207346
0.197281
0.190085
0.180818
0.170709
0.159728
0.148112
0.135977
0.123436
0.110589
0.097559
0.0844012
0.0713215
0.0581986
0.045702
0.032719
0.022458
0.00807569
0.00758428
-0.0236125
0.207795
0.195852
0.188524
0.178727
0.168277
0.157026
0.145221
0.132968
0.120376
0.107533
0.0945584
0.081496
0.0685559
0.0555918
0.0433289
0.030506
0.0207325
0.00614203
0.00734189
-0.0263199
0.207108
0.19384
0.186515
0.17633
0.165658
0.154232
0.142312
0.129994
0.117389
0.104576
0.0916712
0.078714
0.0659155
0.0531139
0.0410706
0.0284182
0.0190623
0.00433996
0.00693913
-0.028879
0.205894
0.191626
0.184323
0.173821
0.162975
0.151412
0.139406
0.127049
0.114447
0.101676
0.0888507
0.076006
0.063353
0.0507203
0.0388911
0.0264218
0.0174361
0.00262983
0.00645934
-0.0314338
0.204346
0.189363
0.182032
0.171256
0.160257
0.148577
0.136502
0.124116
0.111529
0.0988092
0.0860692
0.0733438
0.0608406
0.0483848
0.0367657
0.0244949
0.015835
0.000999291
0.00588465
-0.0340173
0.202472
0.187055
0.179641
0.168642
0.157513
0.145735
0.133606
0.121205
0.108641
0.0959814
0.0833332
0.0707334
0.0583841
0.0461122
0.0346997
0.0226423
0.0142649
-0.000545619
0.00521786
-0.0366714
0.200303
0.18471
0.177159
0.165989
0.154751
0.142897
0.130729
0.118326
0.105794
0.0932018
0.0806512
0.0681828
0.0559913
0.0439097
0.0327013
0.020872
0.012737
-0.00199361
0.00447267
-0.0394386
0.197887
0.182347
0.17461
0.163315
0.151987
0.140075
0.127882
0.115487
0.102995
0.0904763
0.0780288
0.0656969
0.0536673
0.0417822
0.0307769
0.0191907
0.0112632
-0.00332861
0.00365752
-0.0423726
0.195272
0.17998
0.172017
0.160637
0.149234
0.137279
0.125074
0.112695
0.10025
0.0878102
0.0754709
0.0632803
0.0514168
0.039734
0.0289326
0.0176056
0.00985727
-0.00452456
0.00274397
-0.0457735
0.192507
0.177622
0.169403
0.157971
0.146505
0.134521
0.122311
0.109958
0.0975649
0.0852088
0.0729823
0.0609372
0.0492442
0.0377694
0.0271749
0.0161244
0.00853861
-0.00553233
0.00166318
-0.0502954
0.189643
0.175283
0.166792
0.155333
0.143814
0.13181
0.119604
0.107282
0.0949459
0.0826773
0.0705677
0.0586718
0.0471533
0.0358924
0.0255096
0.0147547
0.00733108
-0.00627833
0.000521521
-0.0547764
0.186734
0.172974
0.164207
0.152737
0.141174
0.129157
0.11696
0.104673
0.0923984
0.0802204
0.0682313
0.056488
0.0451478
0.0341064
0.0239414
0.0135018
0.00625441
-0.00671192
-0.000187011
-0.0516562
0.183833
0.170707
0.16167
0.150199
0.138598
0.126572
0.114388
0.102138
0.0899278
0.0778429
0.0659772
0.0543894
0.0432309
0.032414
0.0224735
0.0123671
0.00531552
-0.00685074
-0.000561942
-0.0414419
0.180993
0.168495
0.159202
0.147732
0.136096
0.124063
0.111893
0.099683
0.0875388
0.075549
0.0638091
0.0523793
0.0414054
0.0308171
0.0211073
0.0113477
0.00450703
-0.00675554
-0.000893798
-0.0328428
0.178264
0.166352
0.156823
0.145349
0.13368
0.12164
0.109485
0.0973133
0.0852361
0.0733427
0.06173
0.0504605
0.0396736
0.0293165
0.0198429
0.0104375
0.0038141
-0.00650948
-0.00117943
-0.0265993
0.175694
0.164293
0.154551
0.143064
0.131361
0.119311
0.107168
0.0950343
0.083024
0.0712275
0.0597429
0.0486352
0.038037
0.0279128
0.0186788
0.00962933
0.00322382
-0.00620198
-0.00183705
-0.0213631
0.173324
0.162336
0.152402
0.140888
0.129148
0.117083
0.104949
0.0928509
0.0809064
0.0692068
0.0578503
0.0469049
0.0364965
0.0266053
0.0176128
0.00891632
0.002726
-0.00586808
-0.00227877
-0.0172343
0.171192
0.160498
0.150394
0.138833
0.12705
0.114962
0.102833
0.0907677
0.078887
0.0672834
0.0560545
0.0452711
0.0350525
0.025393
0.0166423
0.0082921
0.00232284
-0.00543715
-0.00262961
-0.0139679
0.169328
0.158797
0.148539
0.136909
0.125074
0.112955
0.100826
0.0887888
0.0769693
0.0654601
0.0543579
0.0437349
0.0337054
0.024275
0.0157642
0.00775107
0.00201322
-0.00503723
-0.00285677
-0.0113371
0.167758
0.157249
0.146849
0.135126
0.123229
0.111068
0.098931
0.0869181
0.0751566
0.0637398
0.0527625
0.0422977
0.0324558
0.0232504
0.0149763
0.00728612
0.00172743
-0.00460294
-0.00298601
-0.0092051
0.166503
0.155875
0.145338
0.133493
0.121519
0.109306
0.0971525
0.0851581
0.0734507
0.0621232
0.0512686
0.0409594
0.0313022
0.0223171
0.0142749
0.0068937
0.00152355
-0.00418964
-0.00303636
-0.00747256
0.165578
0.154689
0.144015
0.132018
0.119952
0.107673
0.0954944
0.0835122
0.0718545
0.0606129
0.0498779
0.0397209
0.0302448
0.0214743
0.0136581
0.0065709
0.00139026
-0.00378863
-0.00301744
-0.00605938
0.164994
0.153708
0.142889
0.130707
0.118532
0.106173
0.09396
0.0819832
0.0703704
0.0592105
0.0485913
0.038583
0.029283
0.0207208
0.0131234
0.00631414
0.00131831
-0.0033934
-0.00293877
-0.00490214
0.164757
0.152948
0.141966
0.129568
0.117263
0.10481
0.0925523
0.0805734
0.0690004
0.0579173
0.0474097
0.0375454
0.028416
0.0200552
0.0126686
0.00612075
0.00130312
-0.00300222
-0.00281006
-0.00395097
0.164872
0.152422
0.141254
0.128604
0.116149
0.103585
0.0912736
0.0792852
0.067746
0.0567347
0.0463336
0.0366079
0.027643
0.0194758
0.0122911
0.00598824
0.0013407
-0.00261359
-0.00264032
-0.00316647
0.165338
0.152142
0.140756
0.12782
0.115191
0.102504
0.0901263
0.0781208
0.0666089
0.0556634
0.0453632
0.03577
0.026963
0.0189807
0.0119887
0.00591411
0.00142717
-0.00222611
-0.00243753
-0.0025174
0.166156
0.152121
0.140474
0.12722
0.114393
0.101567
0.0891124
0.0770821
0.06559
0.0547041
0.0444986
0.0350309
0.0263749
0.0185679
0.0117587
0.00589581
0.00155865
-0.00183871
-0.00220866
-0.00197885
0.167319
0.152368
0.140409
0.126805
0.113756
0.100777
0.0882344
0.0761706
0.0646903
0.0538572
0.0437393
0.0343903
0.025877
0.0182355
0.0115986
0.00593074
0.00173145
-0.00145069
-0.00195968
-0.00153089
0.16882
0.152892
0.14056
0.126578
0.113283
0.100138
0.0874943
0.0753876
0.0639101
0.0531225
0.0430854
0.0338463
0.0254677
0.0179816
0.0115058
0.00601623
0.00194207
-0.0010616
-0.00169555
-0.00115745
0.170651
0.153699
0.140923
0.126542
0.112977
0.0996517
0.0868945
0.0747336
0.0632497
0.0525006
0.0425346
0.0333981
0.0251452
0.0178038
0.0114775
0.00614962
0.00218728
-0.000671186
-0.00142031
-0.000845451
0.172802
0.154789
0.141497
0.126698
0.112839
0.0993237
0.0864369
0.0742089
0.0627108
0.0519877
0.0420861
0.0330439
0.0249072
0.0176997
0.0115108
0.00632818
0.00246409
-0.000279269
-0.00113714
-0.000584193
0.175252
0.156166
0.142284
0.127051
0.112871
0.0991617
0.0861237
0.0738146
0.0622892
0.0515842
0.0417381
0.0327814
0.0247513
0.0176666
0.0116027
0.00654924
0.00276971
0.00011426
-0.000848452
-0.000364841
0.177942
0.157878
0.143285
0.127617
0.113106
0.0991476
0.0859556
0.0735512
0.0619869
0.0512898
0.0414899
0.032609
0.0246754
0.017702
0.0117505
0.0068104
0.00310172
0.00050954
-0.000556018
-0.000180021
0.180865
0.159888
0.144511
0.128397
0.113528
0.0993075
0.0859371
0.0734216
0.0618059
0.0511059
0.0413424
0.032527
0.024679
0.0178047
0.0119524
0.00711003
0.0034583
0.00090691
-0.000260942
-2.34714e-05
0.183932
0.162143
0.145927
0.129365
0.114119
0.0996237
0.086056
0.0734167
0.061739
0.0510271
0.0412911
0.0325313
0.0247586
0.0179715
0.0122055
0.00744587
0.00383749
0.00130654
3.60187e-05
0.000110214
0.187038
0.16464
0.147548
0.130514
0.114859
0.100061
0.0862735
0.0734955
0.0617458
0.0510162
0.0413028
0.0325943
0.0248918
0.018185
0.0124968
0.00780902
0.00423346
0.00170644
0.000333463
0.000225793
0.190345
0.167807
0.149728
0.132077
0.115893
0.100701
0.086624
0.0736603
0.061809
0.051045
0.0413452
0.032684
0.0250493
0.0184206
0.0128071
0.00818545
0.00463701
0.00210277
0.000629605
0.000327639
0.193998
0.172098
0.152922
0.134475
0.117614
0.101916
0.0874569
0.0742306
0.0622124
0.051357
0.0416199
0.0329607
0.0253532
0.0187666
0.0131968
0.00861407
0.00507107
0.00250895
0.000931878
0.000419794
0.195609
0.175072
0.15552
0.13675
0.11958
0.103664
0.0890238
0.0756473
0.0634986
0.0525261
0.0426805
0.0339217
0.0262232
0.0195571
0.0139149
0.00926752
0.00564337
0.0029844
0.00126948
0.000504649
0.191318
0.174627
0.157024
0.13922
0.122655
0.10727
0.0929953
0.0798258
0.067735
0.0566861
0.0466485
0.0376069
0.02956
0.0225123
0.0164709
0.0114316
0.00739052
0.00430862
0.00214168
0.000702387
0.187616
0.171312
0.15289
0.134472
0.117594
0.102187
0.0881568
0.0754566
0.0640091
0.0537191
0.0444965
0.0362677
0.0289788
0.0225912
0.0170743
0.012397
0.00852137
0.00539371
0.00294078
0.000963902
0.182707
0.167906
0.148995
0.130671
0.114076
0.0990343
0.0854502
0.0732563
0.0623507
0.0526169
0.0439427
0.0362299
0.0293983
0.0233842
0.0181344
0.0135978
0.0097188
0.0064311
0.00364863
0.00120177
0.178977
0.163515
0.145304
0.127501
0.111439
0.0969607
0.0839559
0.0723314
0.0619643
0.0527228
0.0444817
0.0371305
0.0305776
0.0247488
0.0195823
0.0150207
0.0110041
0.00746487
0.00431776
0.00142309
0.175693
0.159917
0.142307
0.125202
0.109777
0.095902
0.0834601
0.0723427
0.0624181
0.0535504
0.0456116
0.0384886
0.0320859
0.0263255
0.0211417
0.0164749
0.0122648
0.00844621
0.00493943
0.00162961
0.17327
0.157518
0.140406
0.124029
0.109248
0.095936
0.0839806
0.0732655
0.0636589
0.0550294
0.0472546
0.0402261
0.0338518
0.0280546
0.0227687
0.0179341
0.0134915
0.00937849
0.00552144
0.00182398
0.172081
0.156459
0.13979
0.124077
0.109856
0.0970039
0.0854157
0.0749749
0.0655562
0.0570372
0.0493051
0.0422598
0.0358154
0.0298984
0.0244446
0.0193948
0.0146913
0.0102739
0.00607421
0.00200899
0.172271
0.156777
0.14048
0.125309
0.111509
0.0989783
0.0876177
0.077317
0.067961
0.059439
0.0516489
0.0444995
0.0379112
0.0318142
0.0261464
0.0208497
0.0158671
0.0111403
0.00660484
0.0021867
0.173809
0.158395
0.142379
0.127594
0.11406
0.101703
0.0904328
0.0801481
0.0707458
0.0621266
0.0541986
0.0468784
0.0400919
0.0337724
0.027859
0.0222941
0.0170212
0.0119831
0.00711811
0.00235859
0.176556
0.161151
0.145314
0.130756
0.117338
0.10502
0.0937184
0.0833449
0.0738075
0.0650172
0.0568904
0.0493502
0.0423261
0.0357538
0.0295729
0.0237257
0.0181557
0.0128061
0.00761723
0.00252566
0.180313
0.164841
0.149083
0.134606
0.121174
0.108781
0.0973497
0.0868046
0.0770636
0.0680464
0.0596759
0.0518798
0.0445902
0.0377439
0.0312804
0.0251417
0.0192707
0.013611
0.00810388
0.00268849
0.184848
0.169239
0.153473
0.138957
0.12541
0.112853
0.101217
0.0904387
0.0804437
0.0711592
0.0625129
0.0544356
0.0468613
0.0397268
0.0329714
0.0265361
0.0203635
0.0143968
0.00857798
0.00284707
0.189918
0.174116
0.158275
0.14363
0.129894
0.11711
0.105217
0.0941617
0.0838785
0.0742996
0.0653566
0.0569824
0.0491118
0.0416816
0.0346303
0.0278981
0.0214268
0.0151593
0.00903722
0.00300069
0.195269
0.179237
0.163275
0.148441
0.134469
0.121418
0.109236
0.0978796
0.0872891
0.0774017
0.0681519
0.0594744
0.0513043
0.0435781
0.0362334
0.0292096
0.0224477
0.0158898
0.00947665
0.00314771
0.200633
0.184357
0.168251
0.153194
0.138963
0.125628
0.113146
0.101481
0.090579
0.0803825
0.070828
0.0618516
0.0533885
0.0453748
0.0377474
0.0304447
0.0234069
0.016575
0.00988842
0.00328554
0.20573
0.189214
0.17296
0.157672
0.143185
0.12957
0.116795
0.104831
0.0936315
0.0831401
0.0732968
0.0640383
0.0553004
0.0470186
0.0391291
0.0315694
0.0242787
0.0171968
0.0102619
0.00341061
0.21027
0.19354
0.17715
0.161647
0.146925
0.133054
0.120014
0.107781
0.096313
0.0855576
0.0754563
0.065947
0.0569655
0.0484472
0.0403277
0.0325434
0.0250325
0.0177339
0.0105843
0.00351867
0.213975
0.197071
0.180571
0.164886
0.149969
0.135887
0.122628
0.110174
0.0984847
0.0875124
0.0771997
0.0674854
0.0583056
0.0495952
0.0412894
0.0333238
0.0256359
0.0181635
0.0108422
0.00360514
0.216602
0.199576
0.182997
0.167183
0.152127
0.137893
0.124478
0.111865
0.100018
0.0888914
0.0784283
0.0685684
0.0592479
0.0504016
0.0419642
0.033871
0.0260587
0.0184644
0.0110228
0.00366561
0.217966
0.200869
0.184253
0.16837
0.153242
0.13893
0.125433
0.112737
0.100809
0.0896022
0.0790612
0.0691259
0.0597327
0.0508162
0.0423109
0.0341519
0.0262757
0.0186189
0.0111152
0.00369624
0.215225
0.21335
0.20985
0.205751
0.201534
0.197895
0.195228
0.193791
0.193689
0.194896
0.197282
0.200639
0.204713
0.209221
0.213869
0.218358
0.222393
0.225706
0.228062
0.229314
0.220886
0.219316
0.215821
0.211592
0.207362
0.203722
0.201046
0.199579
0.199419
0.200546
0.202835
0.206084
0.210044
0.214438
0.218973
0.223356
0.227299
0.230544
0.232857
0.234117
0.22529
0.223021
0.218975
0.214347
0.210034
0.206482
0.204005
0.202808
0.202943
0.204353
0.206887
0.210335
0.214445
0.218945
0.223553
0.227984
0.231959
0.235229
0.237562
0.238858
0.230119
0.227243
0.222273
0.21769
0.213244
0.209693
0.207312
0.206278
0.206608
0.208219
0.210939
0.214546
0.218785
0.223387
0.228071
0.232559
0.236579
0.239886
0.242247
0.243579
0.235085
0.231787
0.226561
0.22165
0.2171
0.21355
0.211232
0.210298
0.210747
0.212475
0.215302
0.218999
0.22331
0.227965
0.232688
0.237204
0.241244
0.244569
0.246945
0.248302
0.239996
0.236276
0.230859
0.22575
0.221139
0.217615
0.21537
0.214534
0.215086
0.216911
0.21982
0.223583
0.227941
0.232628
0.23737
0.241896
0.245939
0.249267
0.251645
0.25302
0.244869
0.24071
0.235119
0.229902
0.225267
0.221781
0.219611
0.21887
0.219517
0.221428
0.224408
0.228224
0.232619
0.237327
0.242078
0.246604
0.250643
0.253965
0.256338
0.257722
0.249711
0.245128
0.239413
0.234133
0.229506
0.226067
0.223972
0.223313
0.224041
0.226022
0.229057
0.232913
0.237333
0.242052
0.246802
0.251319
0.255344
0.258654
0.261017
0.262403
0.254506
0.249531
0.243741
0.238437
0.233848
0.23047
0.228448
0.227865
0.228659
0.230693
0.233768
0.237649
0.242079
0.246796
0.251535
0.256035
0.260039
0.263328
0.265675
0.267056
0.259233
0.253865
0.248082
0.24279
0.238268
0.234965
0.23302
0.232505
0.233354
0.235429
0.238528
0.24242
0.246849
0.251553
0.25627
0.260743
0.264718
0.267981
0.270306
0.271676
0.263873
0.258183
0.252422
0.247172
0.242742
0.239528
0.237663
0.237213
0.238109
0.240212
0.243324
0.247214
0.25163
0.256311
0.260998
0.265435
0.269375
0.272605
0.274903
0.276255
0.268407
0.262489
0.25675
0.251568
0.247248
0.244135
0.242356
0.241967
0.242903
0.245026
0.248141
0.252018
0.25641
0.261059
0.265706
0.270101
0.273999
0.27719
0.279457
0.280787
0.272827
0.266736
0.261046
0.255958
0.251766
0.248766
0.247077
0.246749
0.24772
0.249854
0.252962
0.256818
0.261177
0.265784
0.270385
0.274731
0.278581
0.281729
0.283962
0.285263
0.277114
0.270912
0.265294
0.260325
0.256273
0.253397
0.251803
0.251538
0.252539
0.25468
0.257773
0.261598
0.265916
0.270475
0.275023
0.279315
0.283112
0.286213
0.288407
0.289677
0.281191
0.275002
0.269475
0.264648
0.26075
0.258008
0.256514
0.256313
0.257343
0.259484
0.262556
0.266346
0.270616
0.27512
0.279609
0.283841
0.287581
0.290631
0.292786
0.29402
0.285136
0.278992
0.273571
0.268907
0.265175
0.262576
0.261188
0.261052
0.262111
0.26425
0.267297
0.271045
0.275262
0.279705
0.28413
0.288298
0.291978
0.294975
0.297089
0.298284
0.288873
0.282862
0.277563
0.273085
0.269528
0.26708
0.265803
0.265736
0.266824
0.268959
0.271979
0.275681
0.279839
0.284218
0.288576
0.292677
0.296294
0.299236
0.301306
0.302461
0.292389
0.286593
0.281433
0.277162
0.273788
0.2715
0.270339
0.270344
0.271463
0.273595
0.276585
0.280238
0.284335
0.288646
0.292933
0.296965
0.300518
0.303402
0.305429
0.306543
0.295686
0.290173
0.285165
0.281118
0.277936
0.275815
0.274776
0.274857
0.276009
0.278139
0.281098
0.284701
0.288736
0.292976
0.297191
0.301152
0.304639
0.307466
0.309448
0.310521
0.29876
0.293587
0.288745
0.284939
0.281956
0.280008
0.279095
0.279257
0.280446
0.282575
0.285505
0.289058
0.293028
0.297196
0.301338
0.305228
0.308649
0.311417
0.313356
0.314387
0.301606
0.296824
0.292161
0.288609
0.285831
0.284062
0.283281
0.283528
0.284758
0.286889
0.289791
0.293293
0.297199
0.301296
0.305363
0.309182
0.312537
0.315247
0.317143
0.318134
0.30422
0.299871
0.295398
0.292113
0.289546
0.287961
0.287316
0.287652
0.288927
0.291064
0.29394
0.297394
0.301237
0.305263
0.309257
0.313005
0.316295
0.318948
0.320802
0.321755
0.306607
0.30272
0.298452
0.29544
0.293089
0.291692
0.291187
0.291617
0.29294
0.295088
0.297941
0.301349
0.305132
0.309088
0.31301
0.316688
0.319915
0.322512
0.324325
0.325242
0.308771
0.305367
0.301316
0.298583
0.296452
0.295245
0.294883
0.295411
0.296788
0.298949
0.301784
0.30515
0.308874
0.312763
0.316614
0.320223
0.323388
0.325932
0.327706
0.328589
0.310722
0.307808
0.303989
0.301536
0.299628
0.298612
0.298395
0.299025
0.300459
0.302639
0.30546
0.308786
0.312455
0.316279
0.320062
0.323605
0.32671
0.329202
0.330939
0.331791
0.31247
0.310042
0.306468
0.304295
0.302611
0.301786
0.301717
0.302451
0.303946
0.306149
0.308961
0.312252
0.315868
0.319631
0.323349
0.326827
0.329874
0.332317
0.334019
0.334842
0.314027
0.312071
0.308757
0.306859
0.305399
0.304765
0.304843
0.305684
0.307245
0.309475
0.312281
0.315542
0.319109
0.322814
0.326469
0.329885
0.332877
0.335273
0.336941
0.33774
0.315406
0.313897
0.310857
0.309228
0.307991
0.307546
0.307772
0.308722
0.310351
0.312612
0.315418
0.318652
0.322175
0.325824
0.32942
0.332777
0.335715
0.338067
0.339704
0.340481
0.316621
0.315526
0.312774
0.311405
0.31039
0.31013
0.310505
0.311564
0.313264
0.31556
0.318368
0.32158
0.325063
0.32866
0.3322
0.335501
0.338388
0.340698
0.342305
0.343063
0.317687
0.316963
0.314514
0.313394
0.312598
0.31252
0.313042
0.31421
0.315983
0.318317
0.321132
0.324326
0.327773
0.331322
0.334808
0.338056
0.340894
0.343164
0.344744
0.345485
0.318616
0.318217
0.316081
0.3152
0.314621
0.31472
0.315387
0.316665
0.318512
0.320886
0.323711
0.326891
0.330306
0.333811
0.337247
0.340444
0.343235
0.345466
0.34702
0.347749
0.319421
0.319296
0.317485
0.316832
0.316465
0.316736
0.317547
0.318932
0.320854
0.32327
0.326109
0.329279
0.332665
0.336129
0.339518
0.342666
0.345413
0.347607
0.349137
0.349854
0.320112
0.320211
0.318732
0.318296
0.318137
0.318575
0.319525
0.321017
0.323013
0.325474
0.328329
0.331493
0.334855
0.338281
0.341625
0.344727
0.347431
0.34959
0.351096
0.351805
0.320695
0.320971
0.319829
0.319601
0.319645
0.320244
0.321329
0.322925
0.324995
0.327502
0.330377
0.333538
0.336879
0.340271
0.343572
0.34663
0.349293
0.351418
0.352901
0.353603
0.321173
0.321587
0.320785
0.320758
0.320998
0.321753
0.322968
0.324665
0.326809
0.329362
0.332259
0.33542
0.338743
0.342104
0.345366
0.348381
0.351005
0.353097
0.354558
0.355254
0.321549
0.322076
0.321613
0.321783
0.322213
0.323117
0.324457
0.32625
0.328465
0.331065
0.333985
0.337149
0.340457
0.343789
0.347013
0.349988
0.352572
0.354633
0.356071
0.356762
0.321821
0.322449
0.322319
0.322682
0.323293
0.324338
0.325796
0.327683
0.329967
0.332614
0.33556
0.338728
0.342024
0.34533
0.348519
0.351455
0.354002
0.356031
0.357447
0.358134
0.321958
0.322674
0.322859
0.323405
0.324182
0.325356
0.326925
0.328901
0.331257
0.333956
0.336936
0.340121
0.343415
0.346706
0.34987
0.352776
0.355293