/*--------------------------------*- C++ -*----------------------------------*\
  =========                 |
  \\      /  F ield         | OpenFOAM: The Open Source CFD Toolbox
   \\    /   O peration     | Website:  https://openfoam.org
    \\  /    A nd           | Version:  7
     \\/     M anipulation  |
\*---------------------------------------------------------------------------*/
FoamFile
{
    version     2.0;
    format      ascii;
    class       surfaceScalarField;
    location    "26.6";
    object      phi;
}
// * * * * * * * * * * * * * * * * * * * * * * * * * * * * * * * * * * * * * //

dimensions      [0 3 -1 0 0 0 0];

internalField   nonuniform List<scalar> 
3880
(
0.000368573
0.00129116
-0.00165973
0.00118931
0.00539718
-0.00621792
0.00226035
0.0101201
-0.0111911
0.00338351
0.0147616
-0.0158848
0.00443325
0.0189694
-0.0200191
0.00537328
0.0226591
-0.0235991
0.00622922
0.0258928
-0.0267488
0.0070476
0.0287651
-0.0295835
0.0078602
0.0313305
-0.0321431
0.0335804
0.008663
-0.0343832
0.000381634
0.000909522
0.00128482
0.004494
0.00254618
0.0088587
0.00397137
0.0133364
0.00540496
0.0175358
0.00676849
0.0212956
0.00805286
0.0246085
0.00928558
0.0275324
0.010494
0.0301221
0.0323959
0.0116785
0.000373921
0.000535601
0.00131358
0.00355433
0.0027059
0.00746639
0.00438116
0.0116612
0.006171
0.0157459
0.00795811
0.0195085
0.00969004
0.0228765
0.0113627
0.0258597
0.0129902
0.0284945
0.0308079
0.0145783
0.000346514
0.000189087
0.00127488
0.00262596
0.00272662
0.00601465
0.00457397
0.00981382
0.00665839
0.0136615
0.008839
0.0173278
0.0110212
0.0206943
0.013159
0.0237219
0.0152391
0.0264144
0.0287819
0.0172651
0.000302066
-0.000112979
0.00117449
0.00175354
0.00260987
0.00457927
0.0045314
0.00789229
0.00681224
0.0113807
0.00931224
0.0148279
0.0119099
0.0180966
0.0145184
0.0211135
0.0170845
0.0238483
0.0262727
0.0195937
0.000244955
-0.000357934
0.00102487
0.000973624
0.00237347
0.00323068
0.00426364
0.00600212
0.00661377
0.00903055
0.00930942
0.0121322
0.0122287
0.0151774
0.0152614
0.0180807
0.018318
0.0207917
0.0232406
0.0213501
0.000181124
-0.000539058
0.000844568
0.000310179
0.00205117
0.00202407
0.0038131
0.0042402
0.00609525
0.00674839
0.00882491
0.00940255
0.0119067
0.0120956
0.015238
0.0147494
0.018718
0.0173118
0.0196925
0.0222661
0.0001181
-0.000657158
0.000657452
-0.000229173
0.00169076
0.000990759
0.00325326
0.0026777
0.0053462
0.00465545
0.00794033
0.00680842
0.0109831
0.00905279
0.0144091
0.0113234
0.0181456
0.0135753
0.015728
0.0221101
6.46363e-05
-0.000721795
0.000491063
-0.0006556
0.00134999
0.000131828
0.00268197
0.00134573
0.00450713
0.00283029
0.00682795
0.00448759
0.0096336
0.00624713
0.0129101
0.00804687
0.016656
0.00982943
0.0114974
0.0208866
2.97602e-05
-0.000751555
0.000373399
-0.000999239
0.00108955
-0.00058432
0.00220861
0.000226669
0.00375048
0.00128842
0.00572858
0.0025095
0.00815247
0.00382324
0.0110377
0.00516159
0.0144754
0.00639179
0.0187939
0.00717891
0.00831366
0.135084
-0.134735
0.00733467
0.14468
-0.143701
0.00624566
0.147892
-0.146803
0.00506352
0.149055
-0.147873
0.00384257
0.149824
-0.148603
0.00264849
0.151867
-0.150673
0.00158564
0.159737
-0.158674
0.000620541
0.184902
-0.183937
9.65264e-05
0.237167
-0.236643
0.3017
-0.301603
0.0114938
0.135269
0.0103385
0.145836
0.00890825
0.149322
0.00735557
0.150607
0.0057803
0.1514
0.00425683
0.153391
0.00293393
0.16106
0.00176152
0.186075
0.000768297
0.238161
0.302468
0.01462
0.135227
0.0133491
0.147107
0.011597
0.151074
0.00967827
0.152526
0.00774284
0.153335
0.005886
0.155247
0.00428917
0.162657
0.00287825
0.187486
0.00146378
0.239575
0.303932
0.0176379
0.134854
0.0163243
0.14842
0.0142809
0.153118
0.0120077
0.154799
0.00971609
0.155627
0.00752323
0.15744
0.00564113
0.164539
0.00398611
0.189141
0.00215547
0.241406
0.306087
0.0204926
0.133956
0.0192389
0.149674
0.0169408
0.155416
0.0143241
0.157416
0.0116773
0.158273
0.00914316
0.159974
0.00697112
0.166711
0.00506886
0.191043
0.00283099
0.243644
0.308918
0.0230915
0.132214
0.022012
0.150753
0.0195253
0.157903
0.0166068
0.160334
0.0136193
0.161261
0.0107447
0.162849
0.00827962
0.169176
0.00612674
0.193196
0.0034906
0.24628
0.312409
0.0253894
0.129091
0.0246647
0.151478
0.0220448
0.160522
0.0188314
0.163548
0.0155009
0.164591
0.0122875
0.166062
0.00953249
0.171931
0.00713499
0.195593
0.00412214
0.249293
0.316531
0.0271212
0.12408
0.0269527
0.151647
0.0243881
0.163087
0.0209872
0.166949
0.0173572
0.168221
0.0138125
0.169607
0.010758
0.174986
0.00810795
0.198243
0.00472913
0.252671
0.32126
0.0285176
0.116449
0.0291769
0.150987
0.0266569
0.165607
0.0230033
0.170602
0.01906
0.172165
0.0152012
0.173466
0.0118803
0.178307
0.00900512
0.201119
0.00529588
0.256381
0.326556
0.0285826
0.10666
0.0306838
0.148886
0.0287551
0.167536
0.0251034
0.174254
0.0209311
0.176337
0.0167173
0.17768
0.0130763
0.181948
0.0098943
0.204301
0.00588539
0.260389
0.332441
0.024076
0.0990648
-0.0164807
0.0238466
0.149115
0.0203831
0.170999
0.016144
0.178493
0.0121378
0.180343
0.00861259
0.181205
0.0053128
0.185247
0.00202295
0.20759
-0.000330449
0.262743
0.332111
0.0240537
0.0949152
-0.0199042
0.0258384
0.147331
0.0234074
0.17343
0.0191901
0.18271
0.0146933
0.18484
0.0105678
0.18533
0.00672228
0.189093
0.00307818
0.211235
0.000287771
0.265533
0.332399
0.0229482
0.093925
-0.021958
0.0235829
0.146696
0.0204101
0.176603
0.0163343
0.186786
0.0125643
0.18861
0.00924545
0.188649
0.00598947
0.192349
0.00265523
0.214569
0.000105448
0.268083
0.332504
0.0207296
0.0937722
-0.0205768
0.0225176
0.144908
0.0206193
0.178502
0.0166322
0.190773
0.0127059
0.192536
0.00958855
0.191767
0.00669183
0.195246
0.00356432
0.217696
0.000861057
0.270786
0.333365
0.0150864
0.0955046
-0.0168187
0.0152369
0.144757
0.0143674
0.179371
0.0123845
0.192756
0.00993173
0.194989
0.00757282
0.194126
0.00497313
0.197845
0.00198112
0.220688
-0.000117986
0.272885
0.333247
0.0110053
0.0958292
-0.01133
0.0117898
0.143973
0.0107758
0.180385
0.00921117
0.194321
0.00796195
0.196238
0.00695527
0.195132
0.00544898
0.199352
0.00311335
0.223024
0.000831844
0.275167
0.334079
0.00254837
0.0981452
-0.00486438
0.0031006
0.143421
0.00420485
0.179281
0.00391081
0.194615
0.0031504
0.196999
0.00224755
0.196035
0.000922523
0.200677
-0.000538354
0.224485
-0.00121078
0.275839
0.332868
0.000517084
0.0996455
-0.0020173
-0.000315625
0.144253
0.000366131
0.178599
0.00104529
0.193936
0.00102854
0.197015
0.000541466
0.196522
-0.000313995
0.201532
-0.00105559
0.225226
-0.0012876
0.276071
0.331581
-0.00617116
0.102926
0.00289094
-0.00559924
0.143682
-0.00475848
0.177758
-0.0038743
0.193051
-0.00399732
0.197139
-0.00508233
0.197607
-0.00630281
0.202753
-0.00589553
0.224819
-0.00305878
0.273235
0.328522
-0.00494432
-0.000452098
-0.00644479
-0.00638211
-0.00660179
-0.00792136
-0.0103881
-0.0129477
-0.0130097
-0.00790261
0.0172705
-0.0193101
-0.0144411
0.0197476
-0.0223813
0.0212053
-0.0234157
0.0216469
-0.0210184
0.0214574
-0.0166292
0.0211552
-0.0110278
0.0215292
-0.00523845
0.0219712
-0.00245928
0.0235909
0.00127122
-0.00209944
0.0163921
-0.0228491
-0.0128531
0.019419
-0.0254082
0.0209492
-0.0249459
0.0212358
-0.021305
0.0208013
-0.0161947
0.0203427
-0.0105691
0.0204613
-0.00535708
0.0207804
-0.00277842
0.0221931
-0.000141388
-0.00329982
0.0170465
-0.0271519
-0.0127437
0.0199245
-0.0282861
0.0210398
-0.0260613
0.0209098
-0.021175
0.020151
-0.0154359
0.0194763
-0.00989443
0.0193355
-0.0052162
0.0194975
-0.00294046
0.020566
-0.00120989
-0.00399024
0.0181876
-0.0315437
-0.0137958
0.0204488
-0.0305473
0.0209384
-0.0265509
0.0203401
-0.0205767
0.0192841
-0.0143799
0.0184047
-0.00901508
0.018013
-0.00482443
0.0179705
-0.00289801
0.018563
-0.00180239
-0.00417002
0.0189745
-0.0352846
-0.0152335
0.020322
-0.0318948
0.0201595
-0.0263884
0.0191767
-0.0195939
0.0179318
-0.013135
0.0169101
-0.0079934
0.0163028
-0.00421714
0.0160083
-0.00260351
0.0160945
-0.00188856
-0.00390945
0.0187495
-0.0378458
-0.0161884
0.0191222
-0.0322675
0.0184225
-0.0256886
0.0172083
-0.0183798
0.0159077
-0.0118344
0.0148249
-0.00691058
0.0140557
-0.00344797
0.0135068
-0.00205462
0.0131551
-0.00153683
-0.00333847
0.017163
-0.039048
-0.0159608
0.0167093
-0.0318138
0.0156699
-0.0246493
0.014392
-0.0171018
0.0131541
-0.0105965
0.0120876
-0.00584414
0.011223
-0.00258337
0.0104775
-0.00130907
0.00983876
-0.000898108
-0.00261436
0.0142166
-0.0390296
-0.0142349
0.0132012
-0.0307984
0.012035
-0.0234831
0.0108329
-0.0158997
0.00974165
-0.00950525
0.00875702
-0.00485951
0.00787713
-0.00170348
0.00704857
-0.000480508
0.00631464
-0.00016418
-0.00188608
0.0102063
-0.0381069
-0.011129
0.00890308
-0.0294952
0.00778049
-0.0223605
0.00674728
-0.0148665
0.00584676
-0.00860474
0.00500043
-0.00401318
0.00419603
-0.000899081
0.00342984
0.000285685
0.00278137
0.000484293
-0.001267
0.00558614
-0.0366223
-0.00707079
0.0042071
-0.0281162
0.00322566
-0.0213791
0.00240935
-0.0140502
0.00171413
-0.00790952
0.00106284
-0.00336188
0.000426331
-0.000262576
-0.00011196
0.000823976
-0.000595586
0.00096792
-0.000832968
0.000798954
-0.0348313
-0.00258993
-0.000467707
-0.0268495
-0.00132359
-0.0205232
-0.00190547
-0.0134683
-0.00238881
-0.00742617
-0.00281572
-0.00293497
-0.00319494
0.000116637
-0.00349715
0.00112619
-0.00366607
0.00113684
-0.00058267
-0.00374258
-0.0329516
0.0018629
-0.00490108
-0.025691
-0.00555929
-0.019865
-0.00595715
-0.0130704
-0.00621594
-0.00716739
-0.00638824
-0.00276267
-0.00647491
0.000203308
-0.00647878
0.00113006
-0.00639608
0.00105414
-0.000496827
-0.00779416
-0.0311233
0.00596582
-0.0087905
-0.0246947
-0.00931692
-0.0193386
-0.0095244
-0.012863
-0.00957952
-0.00711226
-0.0094968
-0.0028454
-0.00930673
1.324e-05
-0.00905004
0.000873376
-0.0087803
0.0007844
-0.000524791
-0.0112137
-0.0294338
0.00952417
-0.0120359
-0.0238725
-0.0124664
-0.018908
-0.0125034
-0.012826
-0.0123825
-0.00723313
-0.0120792
-0.00314871
-0.0116741
-0.000391824
-0.011235
0.000434212
-0.0108616
0.000411045
-0.000611488
-0.0139497
-0.0279267
0.0124426
-0.014611
-0.0232112
-0.0149704
-0.0185486
-0.0148727
-0.0129237
-0.0146155
-0.00749034
-0.0141562
-0.00360805
-0.0136215
-0.000926541
-0.0130943
-9.29232e-05
-0.0126983
1.50393e-05
-0.000707487
-0.0160331
-0.0265981
0.0147045
-0.016554
-0.0226903
-0.0168603
-0.0182423
-0.0166772
-0.0131067
-0.0163342
-0.00783343
-0.015804
-0.00413822
-0.0152161
-0.00151442
-0.0147031
-0.000605903
-0.0143497
-0.000338383
-0.000773812
-0.017542
-0.0253992
0.0163431
-0.0179478
-0.0222846
-0.0182114
-0.0179787
-0.0180026
-0.0133155
-0.0176274
-0.00820857
-0.017111
-0.0046547
-0.0165528
-0.00207261
-0.0161184
-0.00104023
-0.0158568
-0.000600049
-0.000775769
-0.0185484
-0.0242689
0.0174181
-0.0188839
-0.0219491
-0.0191125
-0.0177501
-0.0189438
-0.0134842
-0.018589
-0.00856336
-0.0181595
-0.00508416
-0.0176959
-0.00253619
-0.017392
-0.00134417
-0.0172542
-0.000737856
-0.000683985
-0.0191038
-0.0231828
0.0180177
-0.0194524
-0.0216005
-0.0196518
-0.0175507
-0.0195835
-0.0135525
-0.0192951
-0.00885173
-0.0190108
-0.00536847
-0.0186906
-0.00285644
-0.0185561
-0.00147862
-0.0185679
-0.000726086
-0.000472108
-0.0192941
-0.0221844
0.0182957
-0.0197342
-0.0211605
-0.0198641
-0.0174207
-0.0199316
-0.013485
-0.0197583
-0.00902499
-0.0196712
-0.00545554
-0.0195487
-0.00297898
-0.0196249
-0.00140242
-0.0198132
-0.000537783
-0.000112029
-0.0793764
-0.0203819
0.077574
-0.0832926
-0.0172444
-0.085743
-0.0149703
-0.0877232
-0.0115049
-0.088299
-0.0084492
-0.0882763
-0.00547818
-0.0876154
-0.00363992
-0.0872454
-0.00177243
-0.0868809
-0.000902241
-3.97511e-05
-0.0995492
-0.0181638
0.0973311
-0.101918
-0.0148755
-0.103809
-0.0130789
-0.10548
-0.00983463
-0.106348
-0.0075813
-0.106773
-0.0050524
-0.106851
-0.00356214
-0.106852
-0.00177163
-0.10676
-0.000994624
1.05197e-05
-0.119202
-0.0159468
0.116985
-0.121369
-0.0127091
-0.1233
-0.0111476
-0.124851
-0.00828403
-0.125871
-0.00656075
-0.126507
-0.00441675
-0.12686
-0.00320849
-0.126941
-0.00169079
-0.126961
-0.000975308
-1.39355e-05
-0.140937
-0.0139788
0.138969
-0.142972
-0.0106746
-0.144765
-0.00935411
-0.146169
-0.0068801
-0.147181
-0.00554912
-0.147825
-0.00377225
-0.148201
-0.00283278
-0.14829
-0.00160158
-0.148304
-0.000961827
-5.40608e-05
-0.16627
-0.0118635
0.164155
-0.168009
-0.0089359
-0.169585
-0.00777758
-0.170841
-0.00562451
-0.171758
-0.00463208
-0.172365
-0.0031656
-0.172716
-0.00248131
-0.172854
-0.00146331
-0.172908
-0.000908212
-6.72252e-05
-0.196585
-0.00978324
0.194505
-0.198271
-0.00725034
-0.199797
-0.00625121
-0.200987
-0.00443499
-0.201861
-0.00375736
-0.202482
-0.00254462
-0.202891
-0.00207231
-0.203148
-0.00120654
-0.203277
-0.000778988
-3.4152e-05
-0.234004
-0.00747738
0.231698
-0.236033
-0.00522137
-0.237702
-0.00458189
-0.238861
-0.00327666
-0.239768
-0.00284991
-0.240478
-0.00183489
-0.241042
-0.00150771
-0.241511
-0.000738282
-0.241829
-0.00046019
4.8628e-05
-0.278861
-0.00472454
0.276108
-0.280255
-0.00382808
-0.281629
-0.00320713
-0.282779
-0.0021267
-0.283846
-0.00178282
-0.284662
-0.00101975
-0.285406
-0.000763343
-0.286
-0.000144406
-0.286432
-2.77741e-05
0.000153497
-0.316634
-0.00237636
0.314285
-0.319237
-0.00122427
-0.321408
-0.00103685
-0.322771
-0.000763393
-0.323865
-0.000688363
-0.324498
-0.000387432
-0.325056
-0.000204877
-0.325335
0.000134831
-0.325524
0.00016082
0.000132784
-0.342863
0.340487
-0.344087
-0.345124
-0.345888
-0.346576
-0.346964
-0.347168
-0.347034
-0.346873
-0.0215117
0.079667
0.0194187
-0.0226227
0.0984421
-0.0231022
0.117465
-0.0229847
0.138852
-0.0222984
0.163469
-0.0209101
0.193117
-0.0186326
0.229421
-0.0137327
0.271209
-0.00822893
0.308782
0.332258
-0.0204456
0.0809819
0.0191306
-0.0213426
0.0993391
-0.021663
0.117785
-0.0213971
0.138586
-0.0205845
0.162656
-0.0191151
0.191647
-0.0167154
0.227021
-0.0125365
0.26703
-0.00716888
0.303414
0.325089
-0.019503
0.0820499
0.018435
-0.0202044
0.100041
-0.0203752
0.117956
-0.0200258
0.138236
-0.0191787
0.161809
-0.0177375
0.190206
-0.0154033
0.224687
-0.0116256
0.263252
-0.00646972
0.298258
0.318619
-0.0183984
0.083
0.0174484
-0.0189333
0.100575
-0.0189477
0.11797
-0.0185021
0.137791
-0.0176188
0.160926
-0.0162068
0.188794
-0.0139827
0.222462
-0.0105534
0.259823
-0.00573786
0.293443
0.312881
-0.0171154
0.0838658
0.0162496
-0.017517
0.100977
-0.0174045
0.117858
-0.0168783
0.137265
-0.0159673
0.160014
-0.0145904
0.187418
-0.0125014
0.220373
-0.0093849
0.256706
-0.00504111
0.289099
0.30784
-0.015672
0.0846473
0.0148905
-0.0159444
0.101249
-0.0157288
0.117642
-0.0151452
0.136681
-0.0142236
0.159093
-0.012899
0.186093
-0.0109668
0.218441
-0.00816723
0.253906
-0.00437149
0.285303
0.303469
-0.0141019
0.0853409
0.0134083
-0.0142437
0.101391
-0.0139348
0.117333
-0.0133067
0.136053
-0.0123879
0.158174
-0.0111335
0.184838
-0.00937982
0.216688
-0.00692221
0.251449
-0.00369776
0.282079
0.299771
-0.0124381
0.0859425
0.0118364
-0.0124542
0.101407
-0.0120587
0.116938
-0.011391
0.135385
-0.010481
0.157264
-0.00930864
0.183666
-0.00775114
0.21513
-0.00566038
0.249358
-0.00301078
0.279429
0.29676
-0.0107132
0.0864475
0.0102082
-0.0106115
0.101306
-0.0101372
0.116464
-0.00943289
0.134681
-0.00853404
0.156365
-0.00745002
0.182582
-0.0060994
0.213779
-0.00438951
0.247648
-0.00231352
0.277353
0.294447
-0.00896212
0.0868511
0.00855846
-0.00874779
0.101091
-0.00820293
0.115919
-0.0074642
0.133942
-0.00657672
0.155478
-0.00558485
0.18159
-0.00444631
0.212641
-0.00312251
0.246324
-0.00161668
0.275847
0.29283
-0.00722696
0.0871487
0.00692935
-0.00690546
0.10077
-0.00629154
0.115305
-0.00551881
0.133169
-0.00464187
0.154601
-0.00374069
0.180689
-0.00281204
0.211712
-0.00187266
0.245385
-0.000927773
0.274902
0.291902
-0.0055279
0.0873314
0.00534528
-0.00512344
0.100365
-0.00444269
0.114624
-0.00363635
0.132363
-0.00277272
0.153737
-0.00195414
0.17987
-0.00122352
0.210982
-0.000649786
0.244811
-0.00025572
0.274508
0.291647
-0.00391183
0.0873977
0.0038455
-0.00344826
0.0999017
-0.00270734
0.113883
-0.00187289
0.131529
-0.00102476
0.152889
-0.000293132
0.179139
0.000270441
0.210418
0.000521789
0.24456
0.000392305
0.274638
0.292039
-0.00242246
0.0873626
0.00245754
-0.00191304
0.0993923
-0.00112459
0.113095
-0.000289725
0.130694
0.000609931
0.15199
0.00134336
0.178405
0.00174392
0.210017
0.00164888
0.244655
0.00101149
0.275275
0.29305
-0.00109007
0.0872555
0.00119717
-0.000549589
0.0988518
0.000294128
0.112251
0.00127879
0.129709
0.00219766
0.151071
0.00287025
0.177733
0.00312119
0.209767
0.0027225
0.245054
0.00160773
0.27639
0.294658
2.71545e-05
0.0872121
1.62252e-05
0.0007335
0.0981455
0.0016854
0.111299
0.00267598
0.128719
0.00360307
0.150144
0.00424146
0.177094
0.00436707
0.209641
0.00369812
0.245723
0.00214717
0.277941
0.296805
0.00120983
0.086956
-0.000953731
0.00191726
0.0974381
0.00288629
0.11033
0.0039119
0.127693
0.00486457
0.149191
0.00549622
0.176463
0.00553053
0.209607
0.00462581
0.246627
0.00267023
0.279896
0.299476
0.00214445
0.0866353
-0.00182368
0.00288825
0.0966943
0.00387259
0.109346
0.00492147
0.126644
0.00589075
0.148222
0.00652066
0.175833
0.00648827
0.209639
0.00539777
0.247718
0.00310004
0.282194
0.302576
0.0030516
0.0861855
-0.00260181
0.0038274
0.0959185
0.00481312
0.10836
0.00588109
0.125576
0.00687355
0.147229
0.00751737
0.175189
0.00743452
0.209722
0.00616975
0.248983
0.0035432
0.284821
0.306119
0.00346588
0.0859398
-0.00322022
0.00425746
0.0951269
0.00525456
0.107363
0.00631901
0.124512
0.0073145
0.146234
0.00798279
0.174521
0.00790796
0.209797
0.00658721
0.250303
0.00377133
0.287637
0.30989
-0.0677814
0.0794958
0.0742254
-0.0609383
0.0882838
-0.054944
0.101369
-0.0489122
0.11848
-0.0424628
0.139784
-0.0357066
0.167765
-0.0282762
0.202366
-0.0197701
0.241797
-0.0101146
0.277981
0.299776
-0.0836597
0.0719456
0.0912099
-0.0754739
0.080098
-0.0675262
0.0934208
-0.0601176
0.111071
-0.0525405
0.132207
-0.044637
0.159861
-0.0357072
0.193437
-0.0253707
0.231461
-0.0134938
0.266104
0.286282
-0.0987991
0.0629114
0.107833
-0.0891363
0.0704352
-0.0806806
0.0849652
-0.0728448
0.103235
-0.0640869
0.123449
-0.0544377
0.150212
-0.043491
0.18249
-0.0306763
0.218646
-0.0156282
0.251056
0.270653
-0.115006
0.0539037
0.124014
-0.105499
0.0609281
-0.0979927
0.0774591
-0.0893242
0.0945667
-0.0788966
0.113022
-0.0674501
0.138765
-0.0544574
0.169497
-0.0388311
0.20302
-0.0206846
0.23291
0.249969
-0.133922
0.0450024
0.142823
-0.126236
0.0532421
-0.118557
0.06978
-0.107571
0.083581
-0.0953612
0.100812
-0.0818572
0.125261
-0.0659509
0.153591
-0.0462977
0.183367
-0.0235029
0.210115
0.226466
-0.161338
0.0379015
0.168438
-0.153993
0.0458979
-0.144378
0.0601645
-0.131474
0.0706771
-0.118002
0.0873404
-0.101969
0.109228
-0.0821988
0.133821
-0.0580752
0.159243
-0.0311027
0.183142
0.195363
-0.194224
0.0296519
0.202473
-0.185348
0.0370225
-0.17317
0.0479862
-0.158588
0.0560954
-0.142516
0.071268
-0.122112
0.0888234
-0.0967353
0.108445
-0.0667165
0.129224
-0.0330144
0.14944
0.162349
-0.235531
0.0211166
0.244067
-0.224615
0.0261065
-0.210625
0.0339958
-0.194399
0.0398698
-0.174987
0.051856
-0.149893
0.0637293
-0.119226
0.0777772
-0.0836596
0.0936579
-0.04435
0.110131
0.117999
-0.272059
0.0100116
0.283164
-0.258681
0.0127281
-0.241592
0.0169073
-0.221787
0.0200648
-0.196618
0.0266865
-0.165368
0.0324792
-0.127595
0.0400042
-0.0827773
0.0488403
-0.0323668
0.0597201
0.0856321
-0.343063
0.353074
-0.330334
-0.313427
-0.293362
-0.266676
-0.234197
-0.194192
-0.145352
-0.0856321
0.000149253
0.0771423
-0.00306616
-0.00219119
0.0935504
-0.00415986
0.109802
-0.0056757
0.125529
-0.00672626
0.143874
-0.00723159
0.168944
-0.00698634
0.202228
-0.00584934
0.24293
-0.00453051
0.281846
0.348544
0.000891131
0.0798892
-0.00363799
-0.00176817
0.0962097
-0.0039253
0.111959
-0.00552465
0.127129
-0.00661472
0.144964
-0.00710393
0.169433
-0.00691005
0.202034
-0.00579732
0.241817
-0.0040477
0.280096
0.344496
0.00160017
0.082398
-0.00410895
-0.00104544
0.0988553
-0.00320599
0.11412
-0.00483296
0.128756
-0.00595241
0.146083
-0.0064433
0.169924
-0.00632017
0.201911
-0.0052836
0.24078
-0.00369407
0.278506
0.340802
0.00220126
0.0846709
-0.0044742
-0.000383686
0.10144
-0.0023826
0.116119
-0.00397484
0.130348
-0.00507967
0.147188
-0.00560427
0.170448
-0.0055273
0.201834
-0.00464593
0.239899
-0.00326899
0.27713
0.337533
0.00273782
0.086661
-0.0047279
0.000315788
0.103862
-0.00156402
0.117998
-0.00308988
0.131874
-0.00415594
0.148254
-0.00469574
0.170988
-0.00466801
0.201806
-0.00395114
0.239182
-0.00281323
0.275992
0.33472
0.00324387
0.0882664
-0.00484926
0.00115466
0.105951
-0.000670283
0.119823
-0.00211459
0.133318
-0.00314717
0.149287
-0.00370189
0.171543
-0.00375004
0.201854
-0.0031977
0.23863
-0.002328
0.275122
0.332392
0.00369853
0.0893831
-0.00481531
0.00198582
0.107664
0.000340293
0.121469
-0.00102247
0.134681
-0.00201961
0.150284
-0.00259975
0.172123
-0.00274379
0.201999
-0.00237228
0.238258
-0.00180102
0.274551
0.330591
0.0040725
0.089918
-0.00460736
0.00280032
0.108936
0.00145696
0.122812
0.000160368
0.135978
-0.000779914
0.151224
-0.00139773
0.172741
-0.00163137
0.202232
-0.00147785
0.238105
-0.00122975
0.274303
0.329361
0.00434791
0.0897816
-0.00421149
0.00354834
0.109736
0.00255747
0.123803
0.00149107
0.137044
0.000546991
0.152168
-0.000141621
0.17343
-0.000416894
0.202507
-0.000535665
0.238224
-0.000615531
0.274382
0.328745
0.00450988
0.0889054
-0.00363365
0.00421031
0.110036
0.00363969
0.124374
0.00279209
0.137892
0.00191976
0.15304
0.00124357
0.174106
0.000807385
0.202944
0.000451597
0.238579
4.85635e-05
0.274785
0.328794
0.00450674
0.0872692
-0.0028706
0.004759
0.109783
0.00466955
0.124463
0.00406355
0.138498
0.00329708
0.153807
0.00260874
0.174794
0.0020375
0.203515
0.0014648
0.239152
0.000640331
0.27561
0.329434
0.00428912
0.0849183
-0.00193824
0.00514153
0.108931
0.00560248
0.124002
0.00527881
0.138821
0.00465571
0.15443
0.00396731
0.175483
0.00328017
0.204202
0.0024709
0.239961
0.00126589
0.276815
0.3307
0.00380307
0.0819703
-0.000855007
0.00530209
0.107432
0.00636333
0.122941
0.00637916
0.138805
0.00595593
0.154853
0.00529231
0.176146
0.00450433
0.20499
0.00347337
0.240992
0.00189573
0.278393
0.332596
0.00301474
0.0784894
0.000466106
0.00520371
0.105243
0.00688666
0.121258
0.00731035
0.138382
0.00714805
0.155016
0.00654115
0.176753
0.00567703
0.205854
0.00444814
0.242221
0.00250978
0.280331
0.335106
0.00188559
0.0746495
0.0019544
0.0048237
0.102305
0.0071209
0.118961
0.00802855
0.137474
0.00818452
0.15486
0.00768805
0.177249
0.00679157
0.206751
0.00538879
0.243624
0.00310925
0.28261
0.338215
0.000330946
0.0707979
0.00352056
0.00415708
0.0984786
0.00702217
0.116096
0.00847774
0.136018
0.00899791
0.154339
0.0086711
0.177576
0.00779578
0.207626
0.00625144
0.245168
0.00367064
0.285191
0.341885
-0.00110237
0.0668199
0.00508043
0.00326442
0.0941118
0.00660496
0.112755
0.00866048
0.133963
0.00959382
0.153406
0.0095075
0.177663
0.00870557
0.208428
0.0070575
0.246816
0.00420746
0.288041
0.346093
-0.00274159
0.0630357
0.00652578
0.00206392
0.0893063
0.00581351
0.109006
0.00845999
0.131316
0.00983627
0.15203
0.0100627
0.177436
0.00940323
0.209087
0.00772293
0.248497
0.0046729
0.291091
0.350766
-0.00432245
0.059649
0.00770912
0.000753332
0.0842305
0.00492826
0.104831
0.00812684
0.128118
0.00994994
0.150207
0.0105222
0.176864
0.0100395
0.20957
0.00834765
0.250188
0.00511323
0.294326
0.355879
-0.00612055
0.0574773
0.00829223
-0.00105633
0.0791663
0.00325412
0.10052
0.00700172
0.12437
0.00935276
0.147856
0.0103881
0.175829
0.010224
0.209734
0.00865539
0.251757
0.00540637
0.297575
0.361285
-0.107249
0.0467191
0.118007
-0.0928378
0.0647552
-0.077269
0.0849513
-0.0604389
0.10754
-0.0454719
0.132889
-0.0332799
0.163637
-0.0233651
0.199819
-0.0145329
0.242925
-0.00699201
0.290034
0.354293
-0.134114
0.0406844
0.140149
-0.122208
0.0528493
-0.107817
0.0705605
-0.0902696
0.0899927
-0.0723432
0.114962
-0.0546605
0.145954
-0.0379835
0.183142
-0.0228373
0.227779
-0.0101665
0.277363
0.344127
-0.146852
0.0351544
0.152382
-0.137247
0.0432445
-0.125403
0.0587171
-0.109148
0.0737377
-0.091643
0.0974567
-0.0713645
0.125675
-0.0503107
0.162088
-0.0299655
0.207434
-0.0126312
0.260029
0.331496
-0.149776
0.0293604
0.15557
-0.14137
0.0348385
-0.130942
0.0482884
-0.116754
0.0595497
-0.100927
0.0816296
-0.0802984
0.105047
-0.0578092
0.139599
-0.034273
0.183897
-0.0137382
0.239494
0.317758
-0.148535
0.0226068
0.155289
-0.140718
0.0270215
-0.130724
0.0382941
-0.11839
0.0472157
-0.103601
0.0668411
-0.0838734
0.0853195
-0.0620796
0.117805
-0.03756
0.159378
-0.0147499
0.216684
0.303008
-0.148896
0.0165851
0.154918
-0.141268
0.019393
-0.131495
0.0285218
-0.120329
0.0360487
-0.105829
0.0523412
-0.0875435
0.0670343
-0.0666842
0.096946
-0.0418143
0.134508
-0.017753
0.192622
0.285255
-0.154684
0.0102488
0.161021
-0.148268
0.0129767
-0.139723
0.0199762
-0.129941
0.0262668
-0.116144
0.0385442
-0.100106
0.0509964
-0.0796408
0.0764811
-0.0535751
0.108442
-0.0253908
0.164438
0.259864
-0.17897
0.00494995
0.184269
-0.172987
0.0069944
-0.165084
0.0120728
-0.155715
0.0168975
-0.142739
0.0255687
-0.127427
0.035684
-0.105813
0.0548669
-0.0779332
0.0805629
-0.0425281
0.129033
0.217336
-0.244353
0.0012253
0.248077
-0.239959
0.0026004
-0.232931
0.00504502
-0.223984
0.00795017
-0.210963
0.0125479
-0.194084
0.0188052
-0.168893
0.0296754
-0.133861
0.0455312
-0.0800886
0.0752607
0.137247
-0.334663
0.335889
-0.332063
-0.327018
-0.319068
-0.30652
-0.287715
-0.258039
-0.212508
-0.137247
-0.0156021
0.122246
0.0113631
-0.0163102
0.140857
-0.0150296
0.151101
-0.0129257
0.153467
-0.0108538
0.153217
-0.00925954
0.153324
-0.00810784
0.159869
-0.00756053
0.183721
-0.0056742
0.246191
0.330214
-0.0151727
0.12585
0.0115692
-0.0157596
0.141444
-0.0143526
0.149694
-0.0122905
0.151404
-0.0103693
0.151296
-0.00888735
0.151842
-0.00785648
0.158838
-0.00737226
0.183237
-0.00532766
0.244146
0.324887
-0.0133949
0.128274
0.0109708
-0.0137244
0.141773
-0.0125087
0.148478
-0.0107763
0.149672
-0.00921671
0.149736
-0.00800761
0.150633
-0.00720183
0.158032
-0.0067746
0.18281
-0.00491564
0.242288
0.319971
-0.0113191
0.129915
0.00967823
-0.0113084
0.141762
-0.0102797
0.147449
-0.00898843
0.148381
-0.00783474
0.148582
-0.00696462
0.149763
-0.00639444
0.157462
-0.00608017
0.182496
-0.00443714
0.240644
0.315534
-0.0091154
0.131167
0.00786277
-0.0090466
0.141694
-0.00819253
0.146595
-0.00723293
0.147421
-0.00641496
0.147764
-0.00584168
0.149189
-0.00549199
0.157112
-0.00530761
0.182311
-0.00389967
0.239237
0.311634
-0.00665974
0.132187
0.00564031
-0.006682
0.141716
-0.00608074
0.145994
-0.00544449
0.146785
-0.00494038
0.14726
-0.00464169
0.148891
-0.00450912
0.15698
-0.00446155
0.182264
-0.00331366
0.238089
0.308321
-0.00393948
0.133019
0.00310675
-0.00412894
0.141905
-0.00383188
0.145697
-0.00354787
0.146501
-0.0033674
0.14708
-0.0033507
0.148874
-0.00344656
0.157076
-0.00354557
0.182363
-0.00268976
0.237233
0.305631
-0.000993427
0.133674
0.0003384
-0.00144229
0.142354
-0.00145288
0.145708
-0.00154165
0.14659
-0.00168834
0.147226
-0.00197147
0.149157
-0.00228945
0.157394
-0.00256816
0.182641
-0.00203485
0.2367
0.303596
0.00200654
0.134258
-0.00258998
0.00142964
0.142931
0.00106577
0.146072
0.000596768
0.147059
9.38649e-05
0.147729
-0.000529736
0.149781
-0.00103653
0.1579
-0.00154568
0.183151
-0.00135249
0.236506
0.302243
0.00513917
-0.00561619
0.00436887
0.00363747
0.00282367
0.00194964
0.00105716
0.000283276
-0.000503464
-0.00064044
2.04149e-05
-0.00077197
0.000328305
-0.00130713
0.00096303
-0.00121905
0.00193583
-0.000746133
0.00325183
-2.75807e-05
0.0049145
0.000846829
0.00692219
0.00181554
0.00925738
0.0028264
0.0118374
0.00381181
0.00457517
3.86761e-05
-0.000810646
0.000367817
-0.00163627
0.00100098
-0.00185221
0.0019284
-0.00167354
0.00313736
-0.00123655
0.00461505
-0.000630857
0.00634922
8.13697e-05
0.00832245
0.000853171
0.0105056
0.0016287
0.00222761
8.64045e-05
-0.000897051
0.000492076
-0.00204194
0.00120513
-0.00256526
0.00219715
-0.00266557
0.0034395
-0.0024789
0.00490816
-0.00209952
0.00658584
-0.00159631
0.00846205
-0.00102303
0.0105307
-0.000439923
1.45863e-05
0.000158754
-0.0010558
0.000684828
-0.00256802
0.0015414
-0.00342183
0.00268346
-0.00380763
0.00406981
-0.00386525
0.00566767
-0.00369738
0.00745417
-0.00338281
0.00941576
-0.00298463
0.0115432
-0.00256737
-0.00223804
0.000246453
-0.00130226
0.000917103
-0.00323867
0.00194761
-0.00445234
0.00327579
-0.0051358
0.00484875
-0.00543821
0.00662545
-0.00547408
0.00857618
-0.00533354
0.0106797
-0.00508819
0.0129158
-0.00480342
-0.00455573
0.000338055
-0.00164031
0.00115267
-0.00405328
0.0023466
-0.00564628
0.00383699
-0.00662619
0.00555764
-0.00715886
0.00745883
-0.00737527
0.00950401
-0.00737872
0.0116646
-0.00724881
0.0139109
-0.00704967
-0.00683321
0.00042149
-0.0020618
0.0013538
-0.00498559
0.00266036
-0.00695285
0.00423336
-0.00819919
0.00599158
-0.00891708
0.0078772
-0.0092609
0.00984935
-0.00935087
0.0118769
-0.00927641
0.0139294
-0.00910214
-0.00886461
0.000485308
-0.00254711
0.00148622
-0.0059865
0.00282233
-0.00828896
0.00435907
-0.00973593
0.00600156
-0.0105596
0.00768773
-0.0109471
0.00937834
-0.0110415
0.0110476
-0.0109457
0.0126741
-0.0107286
-0.0104254
0.000519665
-0.00306678
0.00152318
-0.00699002
0.00278694
-0.00955271
0.00415338
-0.0111024
0.00552053
-0.0119267
0.00683009
-0.0122566
0.00805313
-0.0122645
0.00917791
-0.0120705
0.0102007
-0.0117515
-0.0113536
0.000517156
-0.00358393
0.00144869
-0.00792156
0.00253595
-0.01064
0.00360896
-0.0121754
0.00457002
-0.0128878
0.00537503
-0.0130616
0.00601408
-0.0129036
0.00649572
-0.0125521
0.00683786
-0.0120936
-0.0115866
0.000493172
-0.0040771
0.00128798
-0.00871636
0.00211085
-0.0114628
0.00279795
-0.0128625
0.00327054
-0.0133604
0.00350893
-0.0133
0.00352768
-0.0129223
0.00335678
-0.0123812
0.00303152
-0.0117683
-0.011145
0.000418339
-0.00449544
0.00100717
-0.00930519
0.00149909
-0.0119548
0.00175206
-0.0131155
0.00171587
-0.0133242
0.00139865
-0.0129828
0.000837978
-0.0123617
8.01673e-05
-0.0116234
-0.000830997
-0.0108572
-0.0101131
0.000308831
-0.00480427
0.000644144
-0.0096405
0.000770838
-0.0120815
0.000583016
-0.0129276
6.36806e-05
-0.0128048
-0.000752866
-0.0121663
-0.00181247
-0.011302
-0.00306079
-0.0103751
-0.00445422
-0.00946374
-0.00860148
0.00017151
-0.00497578
0.000225198
-0.00969419
-1.79233e-05
-0.0118383