/*--------------------------------*- C++ -*----------------------------------*\
  =========                 |
  \\      /  F ield         | OpenFOAM: The Open Source CFD Toolbox
   \\    /   O peration     | Website:  https://openfoam.org
    \\  /    A nd           | Version:  7
     \\/     M anipulation  |
\*---------------------------------------------------------------------------*/
FoamFile
{
    version     2.0;
    format      ascii;
    class       surfaceScalarField;
    location    "47.9";
    object      phi;
}
// * * * * * * * * * * * * * * * * * * * * * * * * * * * * * * * * * * * * * //

dimensions      [0 3 -1 0 0 0 0];

internalField   nonuniform List<scalar> 
3880
(
-0.000133648
7.11916e-05
6.24559e-05
-0.000259089
0.000357909
-0.000232468
-0.000281952
0.000789796
-0.000766933
-0.000147588
0.00136541
-0.00149978
0.000180857
0.00210954
-0.00243798
0.000729556
0.00304781
-0.00359651
0.00151401
0.00419839
-0.00498284
0.00253567
0.00556908
-0.00659074
0.00377648
0.00715642
-0.00839723
0.00894453
0.00518896
-0.010357
-0.000128812
0.000200004
-0.00023713
0.000466227
-0.000239679
0.000792345
-9.0144e-05
0.00121588
0.000242924
0.00177647
0.000784998
0.00250574
0.001556
0.00342739
0.00256662
0.00455846
0.00381079
0.00591224
0.00750551
0.00524981
-0.000110213
0.000310217
-0.000174881
0.000530894
-0.000122469
0.000739933
8.10902e-05
0.00101232
0.00045769
0.00139987
0.00102681
0.00193662
0.00180762
0.00264658
0.00281611
0.00354997
0.00405754
0.00467081
0.0060564
0.00550665
-7.70937e-05
0.000387311
-6.95156e-05
0.000523316
7.63371e-05
0.00059408
0.000379632
0.000709024
0.000849196
0.000930308
0.00149384
0.00129198
0.00232619
0.00181422
0.00336185
0.00251431
0.00461419
0.00341847
0.00459459
0.006076
-2.93535e-05
0.000416664
7.83085e-05
0.000415654
0.000356402
0.000315987
0.000807255
0.000258171
0.00142442
0.000313138
0.00220281
0.000513591
0.00314358
0.000873455
0.00425568
0.00140221
0.00555496
0.00211919
0.0030957
0.00705385
3.18875e-05
0.000384777
0.000264255
0.000183286
0.000709168
-0.000128926
0.00135059
-0.000383252
0.00216599
-0.000502258
0.00313498
-0.000455402
0.00424446
-0.000236022
0.00549179
0.000154881
0.00688838
0.000722595
0.00152137
0.00846271
0.000102707
0.00028207
0.000480206
-0.000194214
0.00111772
-0.000766443
0.00198034
-0.00124587
0.00302934
-0.00155126
0.00422943
-0.0016555
0.00555305
-0.00155964
0.00698393
-0.001276
0.00852299
-0.000816463
-0.000161623
0.010206
0.000181402
0.000100669
0.000715571
-0.000728383
0.00155821
-0.00160909
0.00265339
-0.00234104
0.00394611
-0.00284398
0.00538767
-0.00309706
0.00693817
-0.00311014
0.00856854
-0.00290636
0.0102666
-0.00251454
-0.00195975
0.0120647
0.000264343
-0.000163675
0.000957643
-0.00142168
0.00200166
-0.0026531
0.00331685
-0.00365623
0.00483206
-0.00435919
0.00648816
-0.00475316
0.00823772
-0.0048597
0.0100424
-0.00471108
0.0118743
-0.00434641
-0.00384386
0.0137584
0.000347856
-0.000511531
0.00119228
-0.00226611
0.00241578
-0.0038766
0.0039125
-0.00515296
0.00559612
-0.00604281
0.0074023
-0.00655934
0.00928658
-0.00674398
0.0112178
-0.00664235
0.0131618
-0.00629034
0.0150358
-0.00571794
0.00899323
0.0485204
-0.0523247
0.0111489
0.0791609
-0.0813166
0.0111192
0.104626
-0.104596
0.00999819
0.126431
-0.12531
0.00846752
0.148182
-0.146652
0.00680238
0.172195
-0.17053
0.00506624
0.200257
-0.198521
0.00322284
0.233287
-0.231444
0.00143373
0.275036
-0.273247
0.322666
-0.321232
0.00941909
0.0443512
0.0123877
0.0761923
0.0128415
0.104172
0.0118941
0.127379
0.010367
0.14971
0.00859539
0.173966
0.00665659
0.202196
0.00448912
0.235455
0.00218386
0.277341
0.32485
0.00976249
0.0400953
0.0135141
0.0724407
0.0145227
0.103163
0.0137976
0.128104
0.0122868
0.15122
0.0104096
0.175843
0.00826016
0.204345
0.00576235
0.237952
0.00293624
0.280167
0.327786
0.0100887
0.0360826
0.0144852
0.0680442
0.016115
0.101534
0.0156699
0.128549
0.0141973
0.152693
0.0122212
0.17782
0.00986371
0.206703
0.00703462
0.240781
0.00368727
0.283515
0.331473
0.0104931
0.0326434
0.0152726
0.0632647
0.0175724
0.0992338
0.017473
0.128649
0.0160699
0.154096
0.0140046
0.179885
0.0114455
0.209262
0.00829169
0.243935
0.00443056
0.287376
0.335904
0.0110722
0.0300339
0.0158787
0.0584582
0.0188535
0.096259
0.0191636
0.128338
0.0178699
0.15539
0.0157361
0.182019
0.0129897
0.212008
0.00952394
0.247401
0.00515963
0.29174
0.341063
0.0118834
0.0283565
0.0163456
0.0539959
0.0199287
0.092676
0.0207176
0.12755
0.0195852
0.156522
0.0174017
0.184202
0.0144813
0.214929
0.010718
0.251164
0.0058697
0.296588
0.346933
0.0129057
0.0275156
0.0167424
0.0501593
0.020764
0.0886544
0.0220597
0.126254
0.0211472
0.157435
0.0189569
0.186392
0.015891
0.217995
0.0118565
0.255199
0.00654964
0.301895
0.353483
0.0140009
0.0272731
0.0171159
0.0470442
0.0214131
0.0843572
0.0232804
0.124386
0.0226335
0.158082
0.0204418
0.188584
0.0172421
0.221194
0.0129471
0.259494
0.0072048
0.307637
0.360687
0.0149529
0.027356
0.0174382
0.044559
0.021718
0.0800773
0.0241386
0.121966
0.0239113
0.158309
0.0218179
0.190678
0.0185544
0.224458
0.013996
0.264052
0.00787696
0.313756
0.368564
0.0469278
0.0362956
-0.0558674
0.0382192
0.0532677
0.0346413
0.0836552
0.0314955
0.125112
0.0264901
0.163314
0.0206569
0.196511
0.0148698
0.230245
0.00914384
0.269778
0.00375853
0.319142
0.372323
0.0495592
0.0411385
-0.0544021
0.0417842
0.0610426
0.0363038
0.0891356
0.0323434
0.129072
0.026959
0.168699
0.020582
0.202888
0.0143821
0.236445
0.00859563
0.275565
0.00348491
0.324252
0.375808
0.0472855
0.0437314
-0.0498783
0.0414858
0.0668424
0.0356309
0.0949905
0.0309299
0.133773
0.0257058
0.173923
0.0198073
0.208786
0.0140472
0.242205
0.00854286
0.281069
0.0035447
0.329251
0.379352
0.0416036
0.0450406
-0.0429128
0.038061
0.0703849
0.0334661
0.0995854
0.0290815
0.138158
0.0240552
0.178949
0.0182443
0.214597
0.0125461
0.247903
0.0074241
0.286191
0.00299136
0.333683
0.382344
0.0339175
0.0457519
-0.0346288
0.0317459
0.0725565
0.0283683
0.102963
0.0250153
0.141511
0.0212914
0.182673
0.0168095
0.219079
0.0120088
0.252704
0.00727609
0.290924
0.00295829
0.338001
0.385302
0.0255523
0.0458636
-0.025664
0.0247619
0.0733469
0.0229328
0.104792
0.0206345
0.143809
0.017517
0.185791
0.0134855
0.22311
0.00934025
0.256849
0.00556561
0.294698
0.00221838
0.341348
0.38752
0.0167634
0.0461025
-0.0170023
0.0162096
0.0739007
0.0156653
0.105336
0.0154904
0.143984
0.0147377
0.186543
0.0124432
0.225405
0.00897777
0.260314
0.00529558
0.298381
0.00204456
0.344599
0.389565
0.00943179
0.0462959
-0.00962516
0.00897794
0.0743545
0.00869378
0.10562
0.00894078
0.143737
0.0090323
0.186452
0.00803985
0.226397
0.00605881
0.262295
0.00366431
0.300775
0.0013777
0.346886
0.390943
0.00250384
0.0470704
-0.00327836
0.00213235
0.074726
0.00316725
0.104586
0.00541782
0.141486
0.00752559
0.184344
0.0076912
0.226232
0.00586553
0.264121
0.00343298
0.303208
0.00122602
0.349093
0.392169
-0.00341523
0.00122584
-0.00532879
-0.00533305
-0.00286223
0.000891729
0.00336309
0.00361628
0.00228627
0.000805238
0.0164986
-0.0561168
-0.0162493
0.0151996
-0.0531031
0.0133869
-0.0480656
0.0115307
-0.0410566
0.00992787
-0.033026
0.00870705
-0.0244432
0.00795689
-0.0162521
0.00760091
-0.00926918
0.00774701
-0.00342446
0.000715226
0.0149036
-0.0554376
-0.0155828
0.0132001
-0.0513996
0.0112745
-0.04614
0.00941914
-0.0392013
0.00785944
-0.0314663
0.00669192
-0.0232757
0.00596954
-0.0155297
0.00560802
-0.00890766
0.00568581
-0.00350226
0.00035614
0.0129046
-0.0541938
-0.0141484
0.0109845
-0.0494795
0.00900749
-0.0441629
0.00716218
-0.037356
0.00564297
-0.029947
0.00452455
-0.0221573
0.0038323
-0.0148375
0.00348329
-0.00855864
0.00350003
-0.003519
0.000109832
0.0105301
-0.0525902
-0.0121337
0.00850053
-0.04745
0.00653531
-0.0421977
0.00474468
-0.0355654
0.00329608
-0.0284984
0.00224027
-0.0211015
0.00158622
-0.0141834
0.0012537
-0.00822611
0.00122607
-0.00349138
-4.56352e-05
0.00786289
-0.0507528
-0.00970033
0.00579837
-0.0453854
0.00388792
-0.0402873
0.0021883
-0.0338657
0.000837781
-0.0271479
-0.000117299
-0.0201464
-0.000743456
-0.0135573
-0.00105653
-0.00791304
-0.00111686
-0.00343104
-0.000137423
0.00499293
-0.0487591
-0.00698663
0.00294932
-0.0433418
0.00112733
-0.0384653
-0.000452072
-0.0322863
-0.00171273
-0.0258873
-0.00260392
-0.0192552
-0.00315119
-0.01301
-0.00342605
-0.00763819
-0.00350828
-0.0033488
-0.000197857
0.00203026
-0.0466789
-0.0041105
4.33136e-05
-0.0413549
-0.00168536
-0.0367366
-0.00316234
-0.0308093
-0.00429743
-0.0247522
-0.00509031
-0.0184623
-0.00557205
-0.0125283
-0.00581178
-0.00739847
-0.00589898
-0.00326161
-0.000243429
-0.000942473
-0.0445692
-0.00116718
-0.00287069
-0.0394267
-0.0044817
-0.0351256
-0.00583732
-0.0294537
-0.00685584
-0.0237337
-0.00755291
-0.0177652
-0.00797203
-0.0121091
-0.00817739
-0.00719311
-0.00825745
-0.00318155
-0.000293226
-0.00387533
-0.0424344
0.00174048
-0.00569207
-0.0376099
-0.0071887
-0.033629
-0.0084246
-0.0282178
-0.00933582
-0.0228224
-0.00994509
-0.017156
-0.0103087
-0.0117455
-0.0104816
-0.00702018
-0.0105452
-0.00311796
-0.000362051
-0.00664504
-0.0403339
0.00454459
-0.00835806
-0.0358969
-0.00974657
-0.0322405
-0.0108686
-0.0270958
-0.0116869
-0.0220041
-0.0122208
-0.0166221
-0.0125388
-0.0114275
-0.0126826
-0.00687638
-0.012724
-0.00307658
-0.0004579
-0.00919628
-0.0383075
0.00716984
-0.010811
-0.0342822
-0.0121057
-0.0309458
-0.0131213
-0.0260801
-0.0138652
-0.0212603
-0.0143376
-0.0161497
-0.0146215
-0.0111436
-0.0147414
-0.00675647
-0.0147597
-0.00305831
-0.000580907
-0.0115034
-0.0363737
0.00956959
-0.0130151
-0.0327704
-0.0142287
-0.0297322
-0.0151486
-0.0251601
-0.0158356
-0.0205733
-0.0162615
-0.0157238
-0.0165228
-0.0108823
-0.0166263
-0.00665297
-0.0166261
-0.00305844
-0.000723298
-0.0135319
-0.0345486
0.0117068
-0.0149385
-0.0313639
-0.0160848
-0.0285859
-0.0169231
-0.0243218
-0.0175695
-0.019927
-0.0179662
-0.0153271
-0.018217
-0.0106316
-0.0183149
-0.00655502
-0.0183068
-0.00306661
-0.000870096
-0.015265
-0.0328405
0.0135569
-0.0165641
-0.0300648
-0.017657
-0.027493
-0.0184294
-0.0235494
-0.0190499
-0.0193065
-0.0194359
-0.0149411
-0.0196894
-0.0103781
-0.0197965
-0.00644786
-0.0197957
-0.00306749
-0.0010009
-0.0166989
-0.0312451
0.0151036
-0.0178883
-0.0288755
-0.0189392
-0.0264421
-0.019664
-0.0228246
-0.0202713
-0.0186992
-0.0206662
-0.0145461
-0.0209367
-0.0101077
-0.0210712
-0.0063133
-0.0210968
-0.0030419
-0.00109179
-0.0178408
-0.0297398
0.0163355
-0.0189215
-0.0277948
-0.0199363
-0.0254272
-0.0206342
-0.0221266
-0.0212384
-0.018095
-0.0216626
-0.0141219
-0.0219658
-0.00980443
-0.0221486
-0.00613055
-0.0222225
-0.00296801
-0.00111699
-0.0187031
-0.0282809
0.0172442
-0.0196834
-0.0268145
-0.0206596
-0.024451
-0.0213541
-0.0214321
-0.0219641
-0.0174851
-0.0224382
-0.0136478
-0.0227917
-0.00945095
-0.0230451
-0.0058771
-0.0231908
-0.00282233
-0.00105014
-0.019268
-0.0268367
0.0178238
-0.0201774
-0.0259051
-0.0211131
-0.0235153
-0.0218351
-0.0207102
-0.0224639
-0.0168562
-0.0230099
-0.0131018
-0.0234336
-0.00902721
-0.0237814
-0.00552928
-0.0240236
-0.00258016
-0.000865031
-0.0195039
-0.0254291
0.0180962
-0.0204174
-0.0249916
-0.0213145
-0.0226181
-0.0220958
-0.0199289
-0.0227603
-0.0161918
-0.0233988
-0.0124632
-0.023914
-0.00851202
-0.0243799
-0.00506344
-0.0247437
-0.00221627
-0.000535458
-0.0195382
-0.0240467
0.0181557
-0.0205208
-0.0240089
-0.0213132
-0.0218258
-0.0221428
-0.0190993
-0.0228507
-0.0154839
-0.023597
-0.011717
-0.0242357
-0.00787327
-0.0248526
-0.00444655
-0.0253801
-0.00168879
-4.09222e-05
-0.076975
-0.0209231
0.0738515
-0.0824479
-0.0185361
-0.0872017
-0.017072
-0.0919672
-0.0143339
-0.0957879
-0.0116632
-0.0989468
-0.00855801
-0.101045
-0.00577476
-0.102316
-0.00317617
-0.10276
-0.00124498
-5.38997e-05
-0.0951772
-0.0178094
0.0920634
-0.0988798
-0.0148335
-0.102334
-0.0136174
-0.10578
-0.0108886
-0.108565
-0.0088783
-0.110819
-0.00630352
-0.112283
-0.00431067
-0.113127
-0.00233176
-0.113389
-0.000983311
-5.62989e-05
-0.112668
-0.0151206
0.109979
-0.115416
-0.0120849
-0.118118
-0.0109153
-0.120639
-0.00836765
-0.122668
-0.00684993
-0.124245
-0.0047266
-0.125234
-0.00332155
-0.125776
-0.0017894
-0.125919
-0.000840738
-5.31453e-05
-0.132318
-0.0131298
0.130327
-0.134414
-0.00998859
-0.136453
-0.00887641
-0.138266
-0.00655469
-0.139715
-0.00540112
-0.140819
-0.00362291
-0.141488
-0.00265233
-0.141855
-0.00142263
-0.141938
-0.000757174
-4.56369e-05
-0.155679
-0.0112244
0.153774
-0.157338
-0.00833013
-0.158928
-0.00728648
-0.160277
-0.00520579
-0.161366
-0.00431123
-0.162188
-0.00280123
-0.162706
-0.00213455
-0.163022
-0.00110676
-0.163123
-0.00065637
-9.94429e-06
-0.183346
-0.00927564
0.181398
-0.184834
-0.00684284
-0.18627
-0.00585013
-0.187421
-0.00405452
-0.188368
-0.00336511
-0.189075
-0.00209371
-0.18959
-0.00161957
-0.189962
-0.000734993
-0.190174
-0.000444624
4.77865e-05
-0.213179
-0.00724274
0.211146
-0.215091
-0.0049302
-0.216728
-0.00421383
-0.21784
-0.00294206
-0.218746
-0.002459
-0.219424
-0.00141648
-0.220002
-0.00104087
-0.220444
-0.00029272
-0.22073
-0.000159012
0.00012067
-0.242777
-0.00479474
0.240329
-0.243986
-0.00372188
-0.245125
-0.00307413
-0.246099
-0.00196817
-0.246991
-0.00156718
-0.247633
-0.000775098
-0.248167
-0.000506385
-0.248505
4.57679e-05
-0.248714
4.90787e-05
0.000147901
-0.26119
-0.00251237
0.258907
-0.263469
-0.00144289
-0.265316
-0.00122656
-0.266474
-0.000810208
-0.267352
-0.000689759
-0.267796
-0.000330765
-0.268116
-0.000186071
-0.268167
9.62366e-05
-0.268196
7.82723e-05
8.69321e-05
-0.273544
0.271032
-0.274987
-0.276214
-0.277024
-0.277714
-0.278045
-0.278231
-0.278134
-0.278056
-0.0206249
0.0755482
0.0189282
-0.0214378
0.0928763
-0.0217784
0.11032
-0.0216241
0.130173
-0.0209433
0.153093
-0.0193744
0.179829
-0.0166786
0.20845
-0.0114142
0.235065
-0.00661224
0.254105
0.26442
-0.019457
0.0764758
0.0185294
-0.0201104
0.0935297
-0.0203407
0.11055
-0.0200792
0.129911
-0.0193014
0.152315
-0.0177067
0.178234
-0.0150179
0.205761
-0.010854
0.230901
-0.0058504
0.249102
0.258569
-0.0185451
0.077228
0.0177929
-0.019038
0.0940227
-0.0191393
0.110651
-0.0188059
0.129578
-0.0179931
0.151503
-0.0164356
0.176677
-0.013842
0.203168
-0.010032
0.227091
-0.00532832
0.244398
0.253241
-0.0175009
0.0779127
0.0168163
-0.0178693
0.0943911
-0.0178322
0.110614
-0.0174098
0.129155
-0.0165596
0.150652
-0.0150416
0.175159
-0.0125873
0.200713
-0.00911668
0.22362
-0.00478979
0.240071
0.248451
-0.0162771
0.0785204
0.0156693
-0.0165473
0.0946614
-0.0164031
0.11047
-0.0159109
0.128663
-0.0150384
0.14978
-0.0135729
0.173693
-0.0112901
0.198431
-0.00814314
0.220473
-0.00425593
0.236184
0.244195
-0.0149138
0.0790349
0.0143993
-0.0150751
0.0948227
-0.014841
0.110236
-0.0143018
0.128124
-0.0134285
0.148906
-0.0120384
0.172303
-0.00995433
0.196347
-0.00713844
0.217657
-0.00372237
0.232768
0.240473
-0.0134497
0.079446
0.0130386
-0.013492
0.094865
-0.0131703
0.109914
-0.0125949
0.127549
-0.011736
0.148047
-0.0104434
0.171011
-0.00858019
0.194483
-0.00611583
0.215193
-0.00318235
0.229834
0.237291
-0.0119101
0.0797387
0.0116174
-0.0118344
0.0947893
-0.0114263
0.109506
-0.0108192
0.126941
-0.00998308
0.147211
-0.00880344
0.169831
-0.00717721
0.192857
-0.00508271
0.213099
-0.00263573
0.227387
0.234655
-0.01032
0.0798913
0.0101674
-0.0101326
0.0946019
-0.00964019
0.109014
-0.00900569
0.126307
-0.00819711
0.146403
-0.00714096
0.168775
-0.00576119
0.191477
-0.00404624
0.211384
-0.00208641
0.225428
0.232569
-0.00870566
0.0798763
0.00872066
-0.00841737
0.0943136
-0.00783775
0.108434
-0.00718264
0.125652
-0.00640278
0.145623
-0.00547819
0.16785
-0.0043494
0.190349
-0.00301602
0.21005
-0.00154068
0.223952
0.231028
-0.00710019
0.0796604
0.00731608
-0.00672745
0.0939408
-0.00605124
0.107758
-0.00538113
0.124982
-0.00462709
0.144869
-0.00383766
0.167061
-0.00295842
0.189469
-0.002002
0.209094
-0.0010039
0.222954
0.230024
-0.00556394
0.0792485
0.00597592
-0.0050971
0.093474
-0.00433149
0.106992
-0.00363926
0.124289
-0.00291162
0.144141
-0.00224524
0.166394
-0.00160649
0.188831
-0.00101846
0.208506
-0.000482864
0.222419
0.229541
-0.00414122
0.0786567
0.00473294
-0.00356428
0.092897
-0.00272445
0.106152
-0.00200163
0.123567
-0.00130523
0.143445
-0.000751962
0.165841
-0.000345383
0.188424
-0.000107012
0.208267
-1.05782e-05
0.222322
0.22953
-0.00285924
0.0779114
0.00360454
-0.00214972
0.0921875
-0.00126707
0.10527
-0.000509171
0.122809
0.000138332
0.142797
0.000661695
0.165318
0.000880686
0.188205
0.000801458
0.208347
0.000477149
0.222646
0.230008
-0.00173779
0.0770524
0.00259682
-0.000873711
0.0913235
-3.91983e-05
0.104435
0.000923417
0.121846
0.00163446
0.142086
0.00203337
0.164919
0.00204793
0.18819
0.00165449
0.20874
0.000926949
0.223374
0.230935
-0.000790076
0.0761386
0.00170388
0.000249583
0.0902838
0.0013078
0.103377
0.00224622
0.120908
0.00294394
0.141389
0.00326849
0.164594
0.00310721
0.188352
0.00243085
0.209417
0.00133506
0.22447
0.23227
-5.49943e-05
0.0752902
0.000903419
0.00133642
0.0888924
0.00242748
0.102286
0.00341597
0.119919
0.00412433
0.14068
0.0043985
0.16432
0.00408888
0.188661
0.0031557
0.21035
0.00171755
0.225908
0.233987
0.000789208
0.074347
0.000154027
0.00222412
0.0874575
0.00335411
0.101156
0.00438573
0.118888
0.00510538
0.139961
0.00534172
0.164084
0.00491388
0.189089
0.00376767
0.211496
0.00203714
0.227638
0.236024
0.00151611
0.0733975
-0.000566679
0.00304486
0.0859287
0.00422448
0.0999763
0.00529985
0.117812
0.00604118
0.139219
0.00625111
0.163874
0.00571318
0.189627
0.00436076
0.212848
0.00234879
0.22965
0.238373
0.00185473
0.0728121
-0.00126933
0.00343025
0.0843532
0.00465263
0.098754
0.00575103
0.116714
0.00651149
0.138459
0.00672881
0.163657
0.00615291
0.190203
0.004696
0.214305
0.00251431
0.231832
0.240887
-0.0632014
0.0659977
0.0700159
-0.0567981
0.0779499
-0.0521417
0.0940975
-0.0471925
0.111765
-0.0419016
0.133168
-0.0358178
0.157573
-0.0284865
0.182872
-0.0198191
0.205638
-0.0101232
0.222136
0.230764
-0.0745931
0.0605576
0.0800332
-0.0689839
0.0723407
-0.0636968
0.0888104
-0.057741
0.105809
-0.0515427
0.12697
-0.0441703
0.1502
-0.0352147
0.173916
-0.0246359
0.195059
-0.012797
0.210297
0.217967
-0.0878696
0.0551671
0.09326
-0.0822337
0.0667049
-0.0761271
0.0827038
-0.0693679
0.0990496
-0.0620331
0.119635
-0.0529001
0.141067
-0.0419577
0.162974
-0.0291154
0.182217
-0.0147608
0.195943
0.203206
-0.104159
0.0499312
0.109395
-0.0980889
0.0606345
-0.0913745
0.0759893
-0.0838238
0.091499
-0.0749532
0.110764
-0.0637244
0.129839
-0.0504922
0.149741
-0.0350931
0.166818
-0.0181841
0.179034
0.185022
-0.122874
0.0439006
0.128904
-0.116439
0.0542
-0.108821
0.0683715
-0.0996183
0.0822958
-0.0882998
0.0994457
-0.0743951
0.115934
-0.0583921
0.133738
-0.0399187
0.148344
-0.0199298
0.159045
0.165093
-0.146357
0.0380877
0.15217
-0.138848
0.046691
-0.129702
0.059225
-0.118295
0.070889
-0.104387
0.0855378
-0.0878475
0.0993944
-0.0687484
0.114639
-0.0470496
0.126646
-0.0242941
0.136289
0.140798
-0.170604
0.0307339
0.177957
-0.161568
0.037655
-0.150197
0.0478539
-0.136018
0.0567106
-0.119032
0.0685519
-0.0988797
0.0792418
-0.0754474
0.091207
-0.049621
0.100819
-0.0236618
0.11033
0.117137
-0.197943
0.0229218
0.205755
-0.187167
0.026879
-0.173644
0.034331
-0.157097
0.0401634
-0.13735
0.0488055
-0.113928
0.0558195
-0.0872753
0.0645541
-0.0589308
0.0724747
-0.0310613
0.0824605
0.0860754
-0.217473
0.0110195
0.229375
-0.203904
0.0133102
-0.186682
0.0171092
-0.166484
0.0199654
-0.142225
0.0245467
-0.114413
0.0280077
-0.0829313
0.033072
-0.0481577
0.0377011
-0.0127648
0.0470676
0.0733105
-0.29409
0.30511
-0.28078
-0.263671
-0.243706
-0.219159
-0.191151
-0.158079
-0.120378
-0.0733105
-0.00120641
0.0719405
-0.000718247
-0.00269959
0.0815263
-0.00388057
0.094441
-0.00475977
0.110274
-0.00527348
0.129418
-0.00537296
0.15227
-0.00490553
0.17749
-0.00382197
0.204671
-0.00304657
0.2286
0.302063
-0.000735627
0.073888
-0.00121189
-0.00235875
0.0831495
-0.00362152
0.0957038
-0.00452551
0.111178
-0.00507898
0.129972
-0.00519098
0.152382
-0.00478652
0.177086
-0.00372671
0.203612
-0.00278496
0.227658
0.299278
-0.000127558
0.0757336
-0.00171802
-0.00171964
0.0847415
-0.00297862
0.0969628
-0.0038727
0.112072
-0.00445481
0.130554
-0.00459471
0.152522
-0.00429232
0.176783
-0.00333018
0.20265
-0.00253294
0.226861
0.296746
0.000475421
0.0775039
-0.00224573
-0.00108214
0.0862991
-0.0022347
0.0981153
-0.00309159
0.112929
-0.00365351
0.131116
-0.00384313
0.152711
-0.00362191
0.176562
-0.00283302
0.201861
-0.00220218
0.22623
0.294543
0.00106221
0.0792368
-0.00279506
-0.000465527
0.0878268
-0.00151017
0.09916
-0.00230848
0.113728
-0.00283323
0.13164
-0.00304416
0.152922
-0.00289389
0.176412
-0.00227704
0.201244
-0.00182343
0.225776
0.29272
0.00167787
0.0809117
-0.00335283
0.000230258
0.0892744
-0.000723478
0.100114
-0.00146371
0.114468
-0.00195382
0.13213
-0.00218044
0.153149
-0.002112
0.176343
-0.00166605
0.200798
-0.00140733
0.225517
0.291313
0.00233186
0.0824914
-0.00391156
0.00105114
0.0905552
0.000142776
0.101022
-0.000536038
0.115147
-0.000986175
0.132581
-0.00123245
0.153395
-0.00124583
0.176357
-0.00099713
0.200549
-0.00095222
0.225472
0.29036
0.00301115
0.0839457
-0.00446542
0.00188479
0.0916815
0.00108895
0.101818
0.000483049
0.115753
7.35518e-05
0.13299
-0.000216523
0.153685
-0.000279501
0.17642
-0.000282895
0.200553
-0.000454411
0.225644
0.289906
0.00370825
0.0852423
-0.0050049
0.00273893
0.0926509
0.00205523
0.102502
0.00155773
0.11625
0.00118026
0.133368
0.000898145
0.153967
0.000705919
0.176612
0.000514441
0.200744
8.5149e-05
0.226073
0.289991
0.00441135
0.0863462
-0.00551524
0.00360396
0.0934582
0.00304329
0.103062
0.00264751
0.116646
0.00232578
0.133689
0.00203177
0.154261
0.00172541
0.176918
0.00134124
0.201128
0.000597106
0.226817
0.290588
0.00509983
0.0872165
-0.0059701
0.00445849
0.0940996
0.00402945
0.103491
0.00374024
0.116935
0.0034785
0.133951
0.00317568
0.154564
0.0027677
0.177326
0.00217322
0.201723
0.00113927
0.227851
0.291727
0.00576511
0.0878159
-0.00636454
0.00529315
0.0945716
0.00500333
0.103781
0.00482552
0.117113
0.00462838
0.134148
0.00432577
0.154867
0.00381815
0.177834
0.00301656
0.202524
0.00169239
0.229176
0.29342
0.00637313
0.0881258
-0.00668295
0.00607965
0.094865
0.00593484
0.103926
0.00587191
0.117176
0.00574875
0.134271
0.00545605
0.155159
0.00485703
0.178433
0.00385934
0.203522
0.00224687
0.230788
0.295667
0.00690609
0.0881367
-0.00691706
0.006799
0.0949721
0.00679947
0.103925
0.0068538
0.117122
0.00681582
0.134309
0.00654137
0.155434
0.00586467
0.17911
0.00468449
0.204702
0.00279226
0.23268
0.298459
0.00734926
0.087849
-0.00706157
0.00743604
0.0948854
0.0075778
0.103784
0.00775011
0.116949
0.00780566
0.134254
0.00756431
0.155675
0.00683107
0.179843
0.00548401
0.206049
0.00332669
0.234838
0.301786
0.00768862
0.0872782
-0.00711777
0.00797424
0.0945997
0.00824867
0.103509
0.00853597
0.116662
0.00868957
0.1341
0.0084933
0.155871
0.00772669
0.180609
0.00623376
0.207542
0.00383469
0.237237
0.30562
0.00792803
0.0864477
-0.00709756
0.0084162
0.0941116
0.00881256
0.103113
0.00921142
0.116263
0.00947011
0.133841
0.00933569
0.156006
0.00855784
0.181387
0.0069416
0.209158
0.00432228
0.239856
0.309943
0.0080403
0.0854282
-0.00702081
0.00871999
0.0934319
0.00922447
0.102608
0.00972166
0.115766
0.0100815
0.133482
0.0100182
0.156069
0.00925746
0.182148
0.0075597
0.210856
0.00475926
0.242656
0.314702
0.00816429
0.0842053
-0.00694136
0.00902032
0.0925758
0.00960792
0.102021
0.0101867
0.115187
0.0106436
0.133025
0.010657
0.156056
0.00991926
0.182886
0.00814455
0.212631
0.00517248
0.245628
0.319874
0.00787418
0.0831825
-0.00685144
0.00886729
0.0915827
0.00958076
0.101307
0.0102379
0.11453
0.0108018
0.132461
0.0109182
0.155939
0.010287
0.183517
0.00851435
0.214403
0.00548893
0.248654
0.325363
-0.0474725
0.0760319
0.0546232
-0.0397678
0.083878
-0.0338971
0.0954367
-0.0283569
0.10899
-0.0230349
0.127139
-0.0176004
0.150505
-0.0119411
0.177857
-0.0063932
0.208856
-0.00277189
0.245033
0.322591
-0.0638867
0.0688533
0.0710653
-0.0564923
0.0764836
-0.0494852
0.0884296
-0.0421523
0.101657
-0.0349828
0.119969
-0.0273669
0.142889
-0.0192159
0.169706
-0.0111153
0.200755
-0.00501269
0.23893
0.317579
-0.0817735
0.0615463
0.0890805
-0.0737209
0.068431
-0.0653608
0.0800695
-0.0566607
0.0929566
-0.0479514
0.11126
-0.0380826
0.13302
-0.0273309
0.158955
-0.0163341
0.189758
-0.00715482
0.229751
0.310424
-0.10144
0.0539774
0.109009
-0.0921565
0.059147
-0.0830059
0.0709189
-0.0733051
0.0832558
-0.062726
0.100681
-0.0501952
0.120489
-0.0365118
0.145271
-0.0222343
0.175481
-0.00968269
0.217199
0.300741
-0.123062
0.0452947
0.131744
-0.113778
0.0498639
-0.104313
0.0614532
-0.0929301
0.0718731
-0.0798915
0.0876423
-0.0645963
0.105194
-0.0477947
0.12847
-0.029649
0.157335
-0.0128444
0.200394
0.287897
-0.149485
0.0370682
0.157712
-0.139691
0.0400697
-0.128771
0.0505333
-0.115289
0.058391
-0.100075
0.0724282
-0.082137
0.0872563
-0.061871
0.108204
-0.0393336
0.134798
-0.0179707
0.179032
0.269926
-0.180178
0.0270917
0.190154
-0.170213
0.0301053
-0.157817
0.0381373
-0.143126
0.0436994
-0.126119
0.0554212
-0.105188
0.0663256
-0.0810874
0.0841032
-0.0539664
0.107677
-0.0261864
0.151251
0.24374
-0.217154
0.0175891
0.226657
-0.205987
0.0189384
-0.192208
0.0243578
-0.176393
0.0278843
-0.157066
0.036094
-0.133956
0.0432156
-0.107434
0.0575819
-0.0767546
0.0769969
-0.0418572
0.116354
0.201883
-0.268103
0.00721803
0.278475
-0.257205
0.00804042
-0.243351
0.0105032
-0.227958
0.0124914
-0.208483
0.0166193
-0.186184
0.0209161
-0.158148
0.0295463
-0.122794
0.041643
-0.0735283
0.0670882
0.128354
-0.335202
0.34242
-0.327162
-0.316659
-0.304167
-0.287548
-0.266632
-0.237085
-0.195442
-0.128354
0.00337774
0.0569654
-0.00571994
0.000492278
0.0739507
-0.0016363
0.0912091
-0.00340087
0.110774
-0.00482129
0.133165
-0.00589716
0.158788
-0.00622365
0.190481
-0.00605863
0.226492
-0.00412901
0.276545
0.338291
0.00359771
0.0589477
-0.00557999
0.00108415
0.0764643
-0.00110851
0.0934018
-0.00291826
0.112584
-0.0044008
0.134647
-0.0054976
0.159884
-0.0059322
0.190915
-0.00578293
0.226343
-0.00399949
0.274762
0.334292
0.00406889
0.0603593
-0.00548052
0.00189418
0.078639
-0.000257987
0.0955539
-0.00201571
0.114341
-0.00351898
0.136151
-0.00463881
0.161004
-0.00517799
0.191454
-0.00507178
0.226236
-0.00365003
0.27334
0.330642
0.00459684
0.0611897
-0.00542725
0.00276637
0.0804695
0.000787147
0.0975331
-0.000984017
0.116113
-0.00245158
0.137618
-0.0036152
0.162168
-0.00423756
0.192077
-0.00427926
0.226278
-0.00319362
0.272254
0.327448
0.00516119
0.0614328
-0.00540423
0.00371287
0.0819178
0.0019256
0.0993204
9.47661e-05
0.117943
-0.00129452
0.139007
-0.00249319
0.163367
-0.00320133
0.192785
-0.00343015
0.226507
-0.00266301
0.271487
0.324785
0.00578855
0.0610361
-0.00539192
0.00477753
0.0829288
0.0031923
0.100906
0.00152333
0.119612
-5.18894e-05
0.140583
-0.00126214
0.164577
-0.00207099
0.193594
-0.002512
0.226948
-0.00207548
0.27105
0.32271
0.00646627
0.0599443
-0.00537446
0.00595513
0.08344
0.00459695
0.102264
0.00302007
0.121189
0.0015074
0.142095
4.71383e-05
0.166037
-0.000831432
0.194472
-0.00151872
0.227635
-0.00143761
0.270969
0.321272
0.0071635
0.0581216
-0.00534076
0.00721661
0.0833869
0.00612003
0.10336
0.00463621
0.122673
0.00312582
0.143606
0.00169993
0.167463
0.000542702
0.19563
-0.000467425
0.228645
-0.00074989
0.271252
0.320522
0.00784365
0.0555653
-0.00528739
0.00852787
0.0827026
0.00773448
0.104154
0.00635509
0.124052
0.00483824
0.145123
0.00334454
0.168957
0.00199253
0.196982
0.000728137
0.22991
1.2348e-05
0.271968
0.320534
0.00846652
-0.00522592
0.00985257
0.00941013
0.00815218
0.0066229
0.00505002
0.00351059
0.00197664
0.00069755
0.000428891
-0.000940422
0.00140581
-0.00324302
0.00276813
-0.00523893
0.00438207
-0.0067669
0.00614837
-0.0078091
0.00800309
-0.00841407
0.00991466
-0.00865555
0.0118826
-0.00861027
0.0139483
-0.00835602
-0.00801895
0.000499529
-0.00143995
0.00157634
-0.00431983
0.00301982
-0.00668241
0.00466908
-0.00841616
0.00641567
-0.00955569
0.00819911
-0.0101975
0.00999719
-0.0104536
0.0118165
-0.0104295
0.0136803
-0.0102198
-0.0099215
0.000556286
-0.00199624
0.00169138
-0.00545493
0.0031467
-0.00813773
0.00473983
-0.0100093
0.00636093
-0.0111768
0.00795921
-0.0117958
0.00952427
-0.0120187
0.0110686
-0.0119739
0.01261
-0.0117612
-0.0114599
0.000593964
-0.0025902
0.00173752
-0.00659849
0.00312992
-0.00953012
0.004578
-0.0114574
0.0059815
-0.0125803
0.00730729
-0.0131216
0.00856185
-0.0132732
0.00976929
-0.0131813
0.0109546
-0.0129466
-0.0126389
0.000607763
-0.00319796
0.00170533
-0.00769605
0.00296213
-0.0107869
0.00418891
-0.0126841
0.00530614
-0.0136975
0.00630432
-0.0141198
0.00720873
-0.0141776
0.00805538
-0.014028
0.00887725
-0.0137684
-0.013462
0.000593935
-0.0037919
0.00159083
-0.00869295
0.00264843
-0.0118445
0.00359684
-0.0136326
0.0043857
-0.0144864
0.00503077
-0.0147648
0.00557352
-0.0147204
0.00605773
-0.0145122
0.00651955
-0.0142303
-0.013929
0.000550414
-0.00434231
0.00139622
-0.00953875
0.00220503
-0.0126533
0.00283952
-0.0142671
0.00328219
-0.0149291
0.00357121
-0.0150539
0.00375859
-0.0149078
0.00388995
-0.0146435
0.00399914
-0.0143395
-0.0140404
0.000477237
-0.00481955
0.0011296
-0.0101911
0.00165638
-0.0131801
0.00196151
-0.0145722
0.00205919
-0.0150267
0.00200414
-0.0149988
0.00185237
-0.014756
0.00164619
-0.0144373
0.00141311
-0.0141064
-0.0137945
0.000376631
-0.00519618
0.000803777
-0.0106183
0.0010315
-0.0134078
0.00100857
-0.0145493
0.000775623
-0.0147938
0.000397285
-0.0146205
-7.20856e-05
-0.0142866
-0.00059637
-0.0139131
-0.00115568
-0.0135471
-0.0132097
0.000252626
-0.00544881
0.000434506
-0.0108001
0.000360668
-0.013334
2.24219e-05
-0.014211
-0.000517304
-0.0142541
-0.00119276
-0.013945
-0.00195457
-0.0135248
-0.00277438
-0.0130932
-0.00363869
-0.0126828
-0.0123038
0.000137176
-0.00558598
7.58361e-05
-0.0107388
-0.000289998
-0.0129682
-0.000923251
-0.0135778
-0.00174823
-0.0134291
-0.00269783
-0.0129954
-0.00372989
-0.0124928
-0.00482301
-0.0120001
-0.00596918
-0.0115366
-0.0111031
-7.27889e-06
-0.0055787
-0.000318499
-0.0104276
-0.0009597
-0.012327
-0.00185975
-0.0126777
-0.00293525
-0.0123536
-0.00412463
-0.011806
-0.00539317
-0.0112242
-0.00672532
-0.010668
-0.00811662
-0.0101453
-0.00965016
-0.000155213
-0.00542349
-0.000706602
-0.00987619
-0.00159985