/*--------------------------------*- C++ -*----------------------------------*\
  =========                 |
  \\      /  F ield         | OpenFOAM: The Open Source CFD Toolbox
   \\    /   O peration     | Website:  https://openfoam.org
    \\  /    A nd           | Version:  7
     \\/     M anipulation  |
\*---------------------------------------------------------------------------*/
FoamFile
{
    version     2.0;
    format      ascii;
    class       volScalarField;
    location    "4.2";
    object      p;
}
// * * * * * * * * * * * * * * * * * * * * * * * * * * * * * * * * * * * * * //

dimensions      [0 2 -2 0 0 0 0];

internalField   nonuniform List<scalar> 
32000
(
0.678118
0.67718
0.676942
0.676804
0.676873
0.677142
0.67761
0.678256
0.679049
0.679972
0.681025
0.682214
0.683542
0.685001
0.686574
0.688249
0.690023
0.691889
0.69384
0.69586
0.697936
0.700053
0.702203
0.704381
0.706578
0.708783
0.710982
0.713163
0.715314
0.717426
0.719492
0.721506
0.723464
0.725363
0.727202
0.728978
0.730691
0.732351
0.733944
0.735334
0.677462
0.676539
0.676306
0.676176
0.676257
0.676538
0.677011
0.677656
0.678438
0.67934
0.680363
0.681515
0.682795
0.684193
0.685693
0.687285
0.688967
0.690735
0.69258
0.694489
0.696445
0.698436
0.700456
0.702503
0.704571
0.70665
0.708727
0.710787
0.712822
0.714822
0.716782
0.718697
0.720562
0.722376
0.724134
0.725836
0.72748
0.729076
0.730608
0.73195
0.676751
0.675859
0.675634
0.675513
0.675609
0.675904
0.676384
0.677025
0.677797
0.678677
0.679671
0.680785
0.682016
0.683349
0.684774
0.68628
0.687867
0.689533
0.691269
0.69306
0.694892
0.696752
0.698638
0.700551
0.702486
0.704434
0.706381
0.708316
0.710229
0.712114
0.713965
0.715778
0.717549
0.719276
0.720956
0.722584
0.724161
0.725693
0.727166
0.72846
0.675989
0.675128
0.674915
0.674809
0.674922
0.675235
0.675725
0.676363
0.677122
0.677983
0.678949
0.680024
0.681201
0.682469
0.683815
0.685233
0.686723
0.688283
0.689905
0.691574
0.693275
0.695001
0.69675
0.698526
0.700323
0.702133
0.703945
0.705749
0.707536
0.709302
0.711042
0.712751
0.714427
0.716067
0.717668
0.719224
0.720734
0.722206
0.723622
0.72487
0.67519
0.674372
0.674175
0.674086
0.674216
0.674546
0.675045
0.675679
0.676422
0.677262
0.678198
0.679232
0.680354
0.681553
0.682819
0.684147
0.685537
0.686987
0.688491
0.690031
0.691598
0.693184
0.694794
0.696429
0.698083
0.699751
0.701422
0.70309
0.704748
0.706392
0.708018
0.709622
0.711201
0.712753
0.714274
0.715759
0.717204
0.718617
0.71998
0.721183
0.674344
0.673574
0.673397
0.673328
0.673478
0.673824
0.674333
0.674964
0.675693
0.676511
0.677416
0.678406
0.679472
0.680602
0.681787
0.683024
0.684311
0.685648
0.687028
0.688436
0.689863
0.691309
0.692776
0.694265
0.695772
0.697291
0.698817
0.700344
0.70187
0.703389
0.704899
0.706394
0.707875
0.709338
0.71078
0.712195
0.713577
0.714933
0.716247
0.717407
0.673459
0.672745
0.672591
0.672547
0.672719
0.673081
0.673598
0.674227
0.674943
0.675738
0.67661
0.677554
0.67856
0.67962
0.680724
0.681868
0.68305
0.684271
0.685522
0.686793
0.688079
0.689381
0.690702
0.69204
0.693394
0.694761
0.696138
0.697521
0.698911
0.700303
0.701693
0.703078
0.704458
0.705831
0.707194
0.708539
0.709859
0.711162
0.71243
0.713548
0.672536
0.671885
0.671757
0.671743
0.671938
0.672316
0.672841
0.673469
0.674172
0.674945
0.675782
0.676678
0.677623
0.678612
0.679634
0.680683
0.681758
0.682858
0.683977
0.685109
0.686252
0.687408
0.688577
0.689761
0.690959
0.692169
0.693393
0.694631
0.695882
0.697143
0.69841
0.699682
0.70096
0.702243
0.703527
0.704803
0.706063
0.707314
0.708541
0.709619
0.671577
0.670996
0.670899
0.670916
0.671135
0.671531
0.672063
0.67269
0.673383
0.674133
0.674934
0.67578
0.676664
0.677581
0.67852
0.679473
0.680439
0.681416
0.682401
0.683392
0.68439
0.685396
0.686411
0.687437
0.688475
0.689527
0.690596
0.691685
0.692794
0.693921
0.695063
0.69622
0.697395
0.698587
0.699791
0.700999
0.702201
0.703402
0.704591
0.705631
0.670585
0.670081
0.670015
0.670066
0.670311
0.670723
0.671265
0.671892
0.672575
0.673302
0.674067
0.674862
0.675686
0.676531
0.677386
0.678242
0.679097
0.67995
0.6808
0.681649
0.6825
0.683354
0.684212
0.685077
0.685954
0.686846
0.687758
0.688696
0.689661
0.690651
0.691666
0.692707
0.693778
0.694879
0.696003
0.697142
0.698287
0.699442
0.700595
0.7016
0.669564
0.669141
0.669109
0.669195
0.669465
0.669896
0.670447
0.671076
0.67175
0.672455
0.673183
0.673929
0.674693
0.675466
0.676237
0.676995
0.677737
0.678465
0.679181
0.679888
0.680591
0.681291
0.68199
0.682694
0.683408
0.684139
0.684894
0.68568
0.686499
0.687351
0.688238
0.689162
0.690128
0.691136
0.692181
0.693252
0.69434
0.695449
0.696571
0.697542
0.668515
0.668178
0.668182
0.668303
0.668601
0.669051
0.669613
0.670244
0.67091
0.671593
0.672285
0.672984
0.673689
0.67439
0.675076
0.675735
0.676366
0.67697
0.677553
0.678119
0.678672
0.679217
0.679757
0.680299
0.680851
0.681422
0.68202
0.682654
0.683327
0.68404
0.684797
0.685603
0.686464
0.68738
0.688345
0.689349
0.69038
0.691444
0.692537
0.693478
0.667441
0.667193
0.667234
0.667393
0.667719
0.66819
0.668764
0.669398
0.670055
0.670718
0.671377
0.672031
0.672677
0.673308
0.673909
0.67447
0.67499
0.675474
0.675925
0.67635
0.676755
0.677145
0.677526
0.677908
0.678298
0.67871
0.679153
0.679635
0.680162
0.680736
0.681364
0.682053
0.682809
0.683632
0.684517
0.685453
0.686428
0.687448
0.688514
0.689426
0.666344
0.666188
0.666266
0.666466
0.666823
0.667316
0.667902
0.668539
0.669189
0.669833
0.670462
0.671074
0.671664
0.672224
0.67274
0.673205
0.673619
0.673985
0.674307
0.674593
0.67485
0.675086
0.67531
0.675533
0.675765
0.67602
0.67631
0.676643
0.677025
0.677461
0.677961
0.678533
0.679185
0.679916
0.680721
0.681589
0.682508
0.683482
0.684524
0.685409
0.665227
0.665162
0.665281
0.665523
0.665913
0.666429
0.667029
0.667669
0.668314
0.668942
0.669544
0.670116
0.670653
0.671144
0.671578
0.671949
0.672259
0.672511
0.672707
0.672856
0.672967
0.673053
0.673124
0.673191
0.673268
0.67337
0.67351
0.673695
0.673934
0.674235
0.674609
0.675067
0.675616
0.676256
0.67698
0.67778
0.678642
0.679571
0.680587
0.681447
0.664092
0.664118
0.664279
0.664566
0.664991
0.665531
0.666146
0.666791
0.667432
0.668048
0.668626
0.669163
0.669647
0.670071
0.670426
0.670708
0.670919
0.67106
0.671134
0.671149
0.671119
0.671058
0.670979
0.670896
0.670823
0.670776
0.670769
0.670811
0.67091
0.671079
0.67133
0.671676
0.672124
0.672673
0.673318
0.674049
0.674852
0.675734
0.676724
0.677561
0.66294
0.663057
0.663261
0.663596
0.664058
0.664624
0.665254
0.665906
0.666546
0.667152
0.667712
0.668215
0.668651
0.669012
0.669292
0.669489
0.669605
0.669639
0.669595
0.66948
0.669313
0.669111
0.668888
0.66866
0.668443
0.668253
0.668104
0.668006
0.66797
0.668011
0.668144
0.668382
0.668731
0.66919
0.669756
0.670418
0.671162
0.671994
0.672956
0.673771
0.661774
0.661981
0.66223
0.662613
0.663114
0.663707
0.664354
0.665015
0.665657
0.666257
0.666801
0.667274
0.667667
0.667969
0.66818
0.668297
0.668322
0.668254
0.668096
0.667858
0.66756
0.667223
0.666863
0.666497
0.666143
0.665815
0.665529
0.665297
0.665132
0.665051
0.66507
0.665203
0.665455
0.665827
0.666314
0.666907
0.66759
0.668371
0.669303
0.670095
0.660599
0.66089
0.661185
0.661619
0.66216
0.662782
0.663447
0.664119
0.664766
0.665364
0.665895
0.666343
0.666696
0.666946
0.667093
0.667136
0.667075
0.666909
0.666642
0.666287
0.665866
0.665401
0.664913
0.664417
0.663932
0.663473
0.663057
0.662697
0.66241
0.662213
0.662124
0.662155
0.662314
0.6626
0.663009
0.663532
0.664153
0.664882
0.665779
0.666549
0.659415
0.659787
0.660128
0.660613
0.661196
0.661848
0.662534
0.663219
0.663873
0.664472
0.664995
0.665423
0.665741
0.665946
0.666035
0.666009
0.665867
0.665608
0.665238
0.664773
0.664237
0.663654
0.663044
0.662426
0.661818
0.661236
0.660697
0.660218
0.659815
0.659508
0.659316
0.659251
0.659319
0.659521
0.659854
0.660307
0.660867
0.661539
0.662399
0.663146
0.658225
0.658673
0.659061
0.659596
0.660221
0.660906
0.661615
0.662316
0.662981
0.663585
0.664102
0.664513
0.664804
0.664968
0.665006
0.664917
0.664699
0.664353
0.663888
0.663321
0.662678
0.661985
0.661262
0.66053
0.659807
0.65911
0.658457
0.657865
0.657354
0.656945
0.656655
0.656498
0.656479
0.656601
0.656858
0.657243
0.657739
0.658355
0.659173
0.659895
0.657033
0.657551
0.657983
0.658569
0.659237
0.659955
0.66069
0.661411
0.66209
0.662701
0.663217
0.663616
0.663884
0.664015
0.664007
0.66386
0.663572
0.663146
0.662592
0.661931
0.661191
0.660396
0.659569
0.658732
0.657902
0.657097
0.656337
0.655642
0.655031
0.654527
0.654145
0.6539
0.653799
0.653843
0.654027
0.654344
0.654777
0.655334
0.656106
0.656801
0.655841
0.656421
0.656897
0.657531
0.658242
0.658996
0.65976
0.660503
0.661199
0.661821
0.66234
0.662732
0.662982
0.663085
0.663037
0.662838
0.662486
0.661986
0.661351
0.660605
0.659775
0.658887
0.657965
0.657029
0.656101
0.655197
0.65434
0.653549
0.652846
0.652252
0.651785
0.651458
0.651279
0.651248
0.651362
0.651612
0.651983
0.65248
0.653202
0.653868
0.654652
0.655287
0.655803
0.656483
0.657238
0.658029
0.658823
0.659592
0.660309
0.660946
0.66147
0.661859
0.662096
0.662176
0.662094
0.661848
0.661437
0.66087
0.660163
0.659339
0.658428
0.657454
0.656444
0.655419
0.6544
0.653406
0.652459
0.651581
0.650793
0.650117
0.649571
0.649167
0.648915
0.648814
0.64886
0.649045
0.649355
0.649791
0.650459
0.651094
0.653466
0.654147
0.654701
0.655426
0.656223
0.657052
0.65788
0.658677
0.659418
0.660072
0.660607
0.660996
0.661225
0.661286
0.661174
0.660886
0.660423
0.659796
0.659023
0.658129
0.657143
0.656092
0.655002
0.653895
0.652793
0.651717
0.650689
0.649731
0.648865
0.648114
0.647495
0.647021
0.646701
0.646533
0.646515
0.646637
0.646886
0.647262
0.647874
0.648476
0.652284
0.653002
0.65359
0.654357
0.655196
0.656064
0.656928
0.657757
0.658526
0.6592
0.659746
0.66014
0.660364
0.66041
0.660272
0.659946
0.659437
0.658755
0.657923
0.656967
0.655914
0.654793
0.653629
0.652447
0.65127
0.650119
0.649017
0.647987
0.647052
0.646232
0.645547
0.645009
0.644626
0.644397
0.644316
0.644379
0.64457
0.644887
0.64544
0.646006
0.651102
0.651849
0.652469
0.653276
0.654156
0.655065
0.655966
0.656831
0.657628
0.658324
0.658886
0.659286
0.659509
0.659543
0.659382
0.659023
0.658471
0.657741
0.656857
0.655844
0.65473
0.653544
0.652313
0.651064
0.649818
0.6486
0.647432
0.646337
0.645339
0.644458
0.643713
0.643118
0.642676
0.64239
0.642252
0.642258
0.642394
0.642653
0.643147
0.643676
0.64992
0.650686
0.651336
0.652181
0.653101
0.654052
0.654994
0.655895
0.656723
0.657443
0.658021
0.65843
0.658653
0.658678
0.658497
0.658108
0.657518
0.656745
0.655813
0.654749
0.65358
0.652335
0.651043
0.649732
0.648425
0.647145
0.645917
0.644764
0.64371
0.642775
0.641977
0.641329
0.640836
0.640497
0.640307
0.640261
0.640344
0.640548
0.640983
0.641476
0.648733
0.649512
0.650188
0.651069
0.652029
0.653023
0.654007
0.654947
0.655808
0.656552
0.657146
0.657565
0.65779
0.657807
0.657609
0.657193
0.656568
0.655755
0.65478
0.653669
0.65245
0.651151
0.649804
0.648436
0.647073
0.645738
0.644456
0.643251
0.642147
0.641165
0.640321
0.639627
0.639086
0.6387
0.638464
0.63837
0.638406
0.638559
0.638936
0.639392
0.647539
0.648325
0.649025
0.649939
0.650939
0.651975
0.653004
0.653984
0.654877
0.655646
0.656257
0.656686
0.656912
0.656923
0.656709
0.656267
0.655611
0.654761
0.653746
0.652592
0.651326
0.649978
0.648579
0.64716
0.645746
0.644361
0.643031
0.641781
0.640634
0.63961
0.638726
0.63799
0.637409
0.636982
0.636704
0.636569
0.636561
0.636668
0.636992
0.637413
0.646334
0.647121
0.647842
0.648787
0.649826
0.650907
0.65198
0.653
0.653927
0.65472
0.655348
0.655785
0.656013
0.656017
0.655786
0.655321
0.654634
0.653751
0.652698
0.651503
0.650193
0.648799
0.647354
0.645888
0.644427
0.642997
0.641625
0.640335
0.639151
0.638092
0.637173
0.636402
0.635786
0.635322
0.635009
0.634838
0.634794
0.634861
0.635135
0.635525
0.645113
0.645897
0.646637
0.647613
0.648691
0.649815
0.650933
0.651993
0.652952
0.65377
0.654412
0.654856
0.655084
0.65508
0.654833
0.654343
0.653628
0.652711
0.651623
0.650389
0.649038
0.647601
0.646112
0.644603
0.643101
0.641631
0.640221
0.638897
0.637682
0.636593
0.635644
0.634844
0.634197
0.633704
0.63336
0.633158
0.633084
0.633118
0.633351
0.633716
0.643872
0.644649
0.645407
0.646413
0.647529
0.648697
0.649858
0.650958
0.651949
0.652788
0.653443
0.653891
0.654116
0.654102
0.653837
0.653323
0.652579
0.651631
0.650507
0.649236
0.647845
0.646368
0.64484
0.643292
0.641751
0.640246
0.638804
0.637452
0.636211
0.635097
0.634123
0.633297
0.632625
0.632106
0.631737
0.631511
0.631413
0.631422
0.631623
0.631973
0.642606
0.643375
0.64415
0.645185
0.64634
0.647549
0.648751
0.649889
0.65091
0.651769
0.652433
0.652883
0.653102
0.653075
0.65279
0.652251
0.651477
0.650497
0.649339
0.648031
0.646603
0.645088
0.643524
0.64194
0.640366
0.638831
0.637362
0.635986
0.634723
0.633588
0.632593
0.631745
0.63105
0.63051
0.63012
0.629874
0.629759
0.629753
0.629934
0.630281
0.641309
0.642069
0.642863
0.643927
0.645119
0.646367
0.647609
0.648783
0.64983
0.650705
0.651376
0.651824
0.652034
0.651989
0.651681
0.651115
0.650312
0.6493
0.648107
0.646764
0.6453
0.643751
0.642152
0.640537
0.638934
0.637373
0.635882
0.634487
0.633206
0.632053
0.631038
0.63017
0.629456
0.628896
0.628487
0.628226
0.628099
0.628086
0.628261
0.628624
0.639976
0.64073
0.641542
0.642635
0.643863
0.645149
0.646427
0.647633
0.648703
0.64959
0.650264
0.650706
0.650903
0.650838
0.650504
0.649909
0.649074
0.648029
0.646803
0.645425
0.643927
0.642346
0.640717
0.639074
0.637446
0.635864
0.634355
0.632944
0.631647
0.630478
0.629445
0.628557
0.627823
0.627243
0.626816
0.62654
0.626405
0.626395
0.626578
0.626978
0.638602
0.639351
0.640183
0.641306
0.642568
0.64389
0.645202
0.646435
0.647524
0.648419
0.649091
0.649524
0.649703
0.649614
0.649251
0.648624
0.647756
0.646678
0.645418
0.644007
0.642478
0.640867
0.639211
0.637544
0.635895
0.634295
0.632772
0.631348
0.630038
0.628852
0.627801
0.626892
0.626135
0.625531
0.625082
0.624789
0.624646
0.624642
0.624846
0.625309
0.637182
0.63793
0.638783
0.639936
0.641231
0.642586
0.643928
0.645184
0.646287
0.647185
0.647852
0.648271
0.648428
0.648311
0.647916
0.647254
0.646353
0.64524
0.643948
0.642505
0.640947
0.63931
0.63763
0.635941
0.634276
0.632662
0.631127
0.629692
0.628369
0.627167
0.626096
0.625163
0.624376
0.62374
0.623259
0.622938
0.622781
0.622785
0.623029
0.62359
0.635709
0.636462
0.637339
0.638521
0.639849
0.641235
0.642603
0.643877
0.644988
0.645885
0.646541
0.646942
0.647073
0.646924
0.646494
0.645797
0.64486
0.643713
0.642388
0.640916
0.639331
0.637671
0.63597
0.634264
0.632585
0.630961
0.629417
0.627971
0.626636
0.625417
0.624323
0.62336
0.622536
0.621854
0.621321
0.620946
0.620744
0.620737
0.621053
0.621825
0.634184
0.634947
0.635848
0.637062
0.638421
0.639835
0.641224
0.64251
0.643624
0.644515
0.645156
0.645534
0.645635
0.645452
0.644985
0.64425
0.643276
0.642095
0.640739
0.63924
0.637631
0.63595
0.634232
0.632513
0.630824
0.629192
0.627641
0.626187
0.624838
0.623601
0.622481
0.621482
0.620611
0.619868
0.619256
0.618781
0.618452
0.6183
0.618471
0.619338
0.73964
0.747457
0.75191
0.756687
0.759812
0.762635
0.764764
0.766547
0.767977
0.769148
0.770126
0.770926
0.771599
0.772138
0.772549
0.772844
0.773031
0.773135
0.773141
0.773063
0.772883
0.772625
0.772303
0.771903
0.771421
0.77084
0.77015
0.769351
0.768429
0.767386
0.766209
0.764894
0.763439
0.761836
0.760108
0.758257
0.756317
0.754296
0.752377
0.750578
0.736225
0.744438
0.749154
0.754221
0.75751
0.760471
0.762666
0.764528
0.765995
0.767195
0.768188
0.769031
0.769734
0.770287
0.770718
0.771046
0.771259
0.771382
0.771411
0.771347
0.771195
0.770964
0.770656
0.770269
0.76981
0.769248
0.768576
0.767792
0.766886
0.765853
0.764683
0.763377
0.761925
0.760337
0.758616
0.756771
0.754841
0.752834
0.750921
0.749127
0.732688
0.741354
0.746348
0.751723
0.755185
0.75829
0.760559
0.762496
0.764001
0.765234
0.766245
0.767131
0.767862
0.76843
0.768885
0.769244
0.769484
0.769624
0.769678
0.76963
0.769507
0.769304
0.769012
0.768639
0.768201
0.767657
0.767002
0.766234
0.765344
0.764322
0.763163
0.761869
0.760424
0.758855
0.757144
0.755311
0.753391
0.751401
0.749495
0.747708
0.729028
0.7382
0.743506
0.749184
0.752845
0.756086
0.758449
0.760443
0.761993
0.763265
0.764307
0.765222
0.765976
0.766571
0.767053
0.767434
0.767701
0.767864
0.767942
0.767917
0.767818
0.76764
0.767368
0.767016
0.766593
0.766067
0.765431
0.764678
0.763804
0.762796
0.761651
0.76037
0.75894
0.757385
0.755691
0.753876
0.751968
0.749994
0.748099
0.746319
0.725246
0.734982
0.740619
0.746613
0.750485
0.753864
0.756331
0.758376
0.759976
0.761289
0.762367
0.763306
0.764084
0.764709
0.765219
0.76562
0.765913
0.766101
0.766202
0.766204
0.766128
0.765972
0.765725
0.765397
0.764988
0.76448
0.763862
0.763125
0.762267
0.761275
0.760147
0.758882
0.757471
0.755931
0.754258
0.752463
0.750568
0.748611
0.746729
0.744955
0.721347
0.731704
0.737681
0.744015
0.748102
0.751627
0.754199
0.756303
0.757952
0.759307
0.760421
0.761385
0.762188
0.762843
0.76338
0.763803
0.764122
0.764334
0.764459
0.764488
0.764436
0.764305
0.76408
0.763777
0.763384
0.762896
0.762296
0.761577
0.760736
0.759763
0.758652
0.757406
0.756016
0.754494
0.752842
0.75107
0.74919
0.747249
0.745381
0.743613
0.717334
0.72837
0.734695
0.741389
0.745697
0.749376
0.752054
0.754222
0.755922
0.757318
0.758468
0.759459
0.76029
0.760973
0.761537
0.761983
0.762327
0.762564
0.762714
0.762771
0.762743
0.762636
0.762436
0.762157
0.761783
0.761314
0.760734
0.760033
0.759211
0.758258
0.757167
0.755941
0.754574
0.753073
0.751443
0.749696
0.747832
0.745907
0.744055
0.742292
0.713218
0.724983
0.731665
0.738736
0.743272
0.74711
0.749897
0.752134
0.753886
0.755324
0.756511
0.75753
0.758388
0.759099
0.75969
0.760161
0.760529
0.760792
0.760967
0.761052
0.76105
0.760968
0.760793
0.760537
0.760184
0.759734
0.759175
0.758494
0.757692
0.756761
0.755692
0.754488
0.753146
0.751669
0.75006
0.748339
0.746494
0.744586
0.742751
0.740993
0.709006
0.721547
0.728594
0.736057
0.740826
0.74483
0.747729
0.750039
0.751844
0.753325
0.754548
0.755596
0.756483
0.757222
0.75784
0.758335
0.758729
0.759019
0.759219
0.759332
0.759356
0.7593
0.75915
0.758917
0.758587
0.758156
0.75762
0.75696
0.756178
0.755271
0.754227
0.753045
0.751731
0.75028
0.748694
0.746999
0.745177
0.743285
0.741466
0.739715
0.704713
0.718068
0.725486
0.733352
0.738362
0.742535
0.745551
0.747937
0.749797
0.751321
0.752581
0.753659
0.754575
0.755342
0.755986
0.756507
0.756927
0.757244
0.75747
0.757612
0.757662
0.757632
0.757507
0.757297
0.756991
0.75658
0.756066
0.75543
0.75467
0.753787
0.75277
0.751614
0.750328
0.748905
0.747345
0.745676
0.743878
0.742004
0.740202
0.738458
0.700354
0.714553
0.722347
0.730623
0.735879
0.740226
0.743362
0.745828
0.747745
0.749313
0.750611
0.75172
0.752664
0.753459
0.754129
0.754677
0.755123
0.755468
0.75572
0.75589
0.755968
0.755963
0.755865
0.755676
0.755395
0.755006
0.754515
0.753904
0.753168
0.75231
0.751322
0.750194
0.748938
0.747544
0.746011
0.74437
0.742598
0.740741
0.738959
0.737223
0.695946
0.711008
0.719181
0.727871
0.73338
0.737904
0.741163
0.743713
0.745689
0.747303
0.748639
0.749779
0.750751
0.751574
0.752271
0.752846
0.753318
0.753691
0.75397
0.754168
0.754273
0.754294
0.754223
0.754056
0.7538
0.753433
0.752966
0.752381
0.751671
0.75084
0.749884
0.748785
0.747559
0.746197
0.744694
0.743079
0.741336
0.739499
0.737737
0.73601
0.691508
0.707442
0.715994
0.725098
0.730865
0.73557
0.738955
0.741592
0.743631
0.745291
0.746664
0.747837
0.748836
0.749689
0.750412
0.751014
0.751513
0.751913
0.752219
0.752445
0.752579
0.752625
0.752581
0.752435
0.752204
0.751863
0.751419
0.750862
0.750179
0.749378
0.748453
0.747386
0.746191
0.744862
0.743391
0.741803
0.740092
0.738276
0.736534
0.734817
0.687064
0.703863
0.712793
0.722307
0.728335
0.733223
0.73674
0.739466
0.74157
0.743277
0.744689
0.745893
0.74692
0.747802
0.748552
0.749182
0.749707
0.750135
0.750469
0.750722
0.750885
0.750957
0.750938
0.750816
0.75061
0.750295
0.749876
0.749346
0.748692
0.747923
0.74703
0.745995
0.744833
0.74354
0.742103
0.740543
0.738865
0.737074
0.735352
0.733644
0.682635
0.700282
0.709585
0.719499
0.725793
0.730864
0.734516
0.737336
0.739507
0.741263
0.742712
0.743949
0.745004
0.745916
0.746693
0.747351
0.747903
0.748357
0.74872
0.749
0.749192
0.749288
0.749296
0.749199
0.749016
0.748728
0.748334
0.747834
0.74721
0.746474
0.745615
0.744613
0.743486
0.742229
0.740829
0.739299
0.737656
0.735891
0.734189
0.732491
0.678247
0.696707
0.706377
0.716678
0.723238
0.728494
0.732286
0.735201
0.737442
0.739247
0.740736
0.742004
0.743088
0.74403
0.744835
0.745521
0.7461
0.746582
0.746973
0.74728
0.747501
0.747621
0.747655
0.747584
0.747424
0.747163
0.746796
0.746326
0.745733
0.745031
0.744205
0.743239
0.742149
0.740929
0.739567
0.738071
0.736464
0.734728
0.733046
0.731359
0.673923
0.693151
0.703177
0.713847
0.720674
0.726115
0.730049
0.733063
0.735375
0.737231
0.738759
0.74006
0.741174
0.742146
0.742979
0.743692
0.7443
0.744809
0.745228
0.745562
0.74581
0.745955
0.746013
0.74597
0.745834
0.7456
0.74526
0.744822
0.744262
0.743592
0.742802
0.741873
0.74082
0.739638
0.738318
0.736859
0.735289
0.733584
0.731924
0.730247
0.66969
0.689622
0.699992
0.711009
0.718101
0.723727
0.727806
0.730921
0.733307
0.735214
0.736783
0.738118
0.739263
0.740265
0.741126
0.741866
0.742501
0.743037
0.743486
0.743845
0.744119
0.74429
0.744373
0.744357
0.744244
0.744038
0.743727
0.743321
0.742795
0.742159
0.741404
0.740514
0.739499
0.738357
0.737082
0.735663
0.73413
0.73246
0.730824
0.729157
0.665569
0.686133
0.69683
0.708169
0.71552
0.721332
0.725557
0.728777
0.731239
0.7332
0.734809
0.736179
0.737356
0.738388
0.739277
0.740043
0.740705
0.741268
0.741745
0.74213
0.74243
0.742627
0.742733
0.742743
0.742656
0.742478
0.742196
0.741823
0.741331
0.74073
0.740011
0.739161
0.738186
0.737086
0.735857
0.734482
0.732989
0.731355
0.729745
0.728089
0.661582
0.682693
0.693696
0.705329
0.712934
0.718932
0.723304
0.726632
0.72917
0.731187
0.73284
0.734246
0.735455
0.736516
0.737431
0.738224
0.738913
0.739502
0.740006
0.740417
0.740741
0.740965
0.741093
0.74113
0.741068
0.740919
0.740668
0.740326
0.73987
0.739305
0.738621
0.737812
0.736879
0.735824
0.734643
0.733316
0.731864
0.73027
0.728689
0.727042
0.657749
0.679313
0.690598
0.702493
0.710346
0.716527
0.721049
0.724485
0.727103
0.729177
0.730877
0.73232
0.733561
0.73465
0.735591
0.736408
0.737123
0.737738
0.738269
0.738706
0.739054
0.739304
0.739455
0.739517
0.739482
0.739362
0.739143
0.738832
0.738412
0.737882
0.737235
0.736468
0.735577
0.734571
0.733439
0.732163
0.730755
0.729203
0.727656
0.726018
0.654084
0.676
0.687541
0.699665
0.707756
0.71412
0.718791
0.722338
0.725039
0.727172
0.728919
0.7304
0.731673
0.73279
0.733755
0.734598
0.735338
0.735977
0.736535
0.736997
0.737368
0.737644
0.737818
0.737905
0.737898
0.737806
0.737619
0.737339
0.736955
0.736462
0.73585
0.735126
0.734281
0.733324
0.732243
0.731021
0.729663
0.728156
0.726643
0.725016
0.650602
0.672763
0.684531
0.696848
0.705169
0.711711
0.716533
0.720191
0.722977
0.725172
0.726969
0.728487
0.729792
0.730936
0.731925
0.732794
0.733558
0.734221
0.734804
0.735291
0.735684
0.735986
0.736182
0.736293
0.736315
0.736251
0.736096
0.735847
0.735499
0.735042
0.734467
0.733787
0.732988
0.732082
0.731056
0.72989
0.728587
0.727128
0.725653
0.724039
0.647311
0.669609
0.681572
0.694045
0.702585
0.709303
0.714275
0.718046
0.720919
0.723178
0.725027
0.726583
0.727919
0.729089
0.730101
0.730995
0.731782
0.732468
0.733076
0.733587
0.734002
0.734328
0.734548
0.734683
0.734733
0.734696
0.734573
0.734356
0.734042
0.733621
0.733084
0.732448
0.731698
0.730846
0.729875
0.72877
0.727526
0.72612
0.724686
0.723085
0.644217
0.666543
0.678669
0.691261
0.700008
0.706897
0.712018
0.715903
0.718867
0.721193
0.723093
0.724687
0.726054
0.72725
0.728285
0.729203
0.730012
0.730721
0.731352
0.731887
0.732322
0.732671
0.732915
0.733074
0.733151
0.733141
0.73305
0.732864
0.732584
0.732199
0.731701
0.73111
0.730411
0.729614
0.728701
0.727661
0.72648
0.725131
0.723742
0.722158
0.641323
0.66357
0.675824
0.688497
0.69744
0.704495
0.709764
0.713766
0.716823
0.719217
0.72117
0.722802
0.724199
0.725419
0.726477
0.727418
0.728248
0.72898
0.729632
0.730189
0.730645
0.731016
0.731284
0.731465
0.73157
0.731586
0.731525
0.731371
0.731124
0.730775
0.730317
0.729773
0.729125
0.728384
0.727534
0.72656
0.725449
0.724164
0.722823
0.721258
0.638629
0.660693
0.673042
0.68576
0.694883
0.7021
0.707515
0.711636
0.714788
0.717254
0.719259
0.72093
0.722356
0.7236
0.72468
0.72564
0.726492
0.727245
0.727917
0.728496
0.728971
0.729363
0.729654
0.729858
0.729988
0.730031
0.729999
0.729876
0.729662
0.729349
0.728933
0.728435
0.72784
0.727158
0.726371
0.725469
0.724432
0.723216
0.721931
0.720388
0.636133
0.657917
0.670323
0.683051
0.692341
0.699713
0.705274
0.709514
0.712764
0.715303
0.717362
0.719071
0.720526
0.721793
0.722893
0.723873
0.724744
0.725518
0.726208
0.726807
0.727301
0.727713
0.728026
0.728251
0.728405
0.728475
0.728471
0.728378
0.728197
0.72792
0.727547
0.727096
0.726555
0.725932
0.725213
0.724385
0.723427
0.722289
0.721066
0.71955
0.633829
0.655242
0.66767
0.680375
0.689816
0.697337
0.703042
0.707404
0.710753
0.713366
0.715479
0.717227
0.71871
0.719998
0.721117
0.722115
0.723005
0.723798
0.724505
0.725123
0.725635
0.726065
0.726399
0.726645
0.726823
0.726919
0.726942
0.726878
0.72673
0.726489
0.72616
0.725756
0.725269
0.724708
0.724058
0.723308
0.722434
0.721383
0.720232
0.718747
0.631714
0.652669
0.665085
0.677733
0.687312
0.694974
0.700823
0.705306
0.708756
0.711444
0.713612
0.715398
0.716909
0.718217
0.719354
0.720368
0.721276
0.722087
0.72281
0.723444
0.723974
0.72442
0.724774
0.725041
0.725241
0.725363
0.725412
0.725376
0.725262
0.725056
0.724771
0.724414
0.723982
0.723482
0.722904
0.722236
0.721453
0.720496
0.719429
0.717983
0.629781
0.650196
0.662567
0.675129
0.684832
0.692629
0.698618
0.703225
0.706775
0.709539
0.711762
0.713585
0.715123
0.716449
0.717603
0.718633
0.719558
0.720384
0.721121
0.721771
0.722317
0.722778
0.723151
0.723439
0.72366
0.723806
0.723881
0.723872
0.723791
0.723621
0.723379
0.72307
0.722693
0.722254
0.72175
0.721167
0.720481
0.719629
0.718659
0.717262
0.628025
0.647821
0.660116
0.672568
0.682379
0.690305
0.696432
0.701162
0.704813
0.707653
0.709932
0.71179
0.713353
0.714697
0.715866
0.716912
0.717851
0.718691
0.719441
0.720104
0.720664
0.72114
0.721531
0.721839
0.722079
0.722249
0.722348
0.722367
0.722318
0.722183
0.721984
0.721722
0.7214
0.721023
0.720593
0.720099
0.719516
0.718781
0.717926
0.716591
0.62644
0.645542
0.657731
0.670055
0.679957
0.688006
0.694267
0.699121
0.702873
0.705789
0.708121
0.710014
0.711601
0.712961
0.714145
0.715205
0.716156
0.717008
0.717769
0.718443
0.719017
0.719506
0.719913
0.720241
0.7205
0.720692
0.720815
0.720861
0.720842
0.720742
0.720584
0.720369
0.720103
0.719788
0.719434
0.719031
0.718557
0.717951
0.717229
0.715976
0.625021
0.643354
0.655412
0.667592
0.677571
0.685735
0.692128
0.697104
0.700956
0.703948
0.706333
0.708258
0.709868
0.711243
0.71244
0.713512
0.714473
0.715336
0.716106
0.71679
0.717375
0.717877
0.718299
0.718644
0.71892
0.719135
0.719279
0.719351
0.719363
0.719297
0.719179
0.719012
0.718801
0.718548
0.718269
0.71796
0.717602
0.717137
0.716571
0.715425
0.623765
0.641252
0.653159
0.665186
0.675227
0.683497
0.69002
0.695115
0.699067
0.702133
0.704567
0.706525
0.708156
0.709545
0.710753
0.711836
0.712804
0.713675
0.714452
0.715143
0.715739
0.716252
0.716687
0.717049
0.717341
0.717577
0.717742
0.717839
0.717879
0.717847
0.71777
0.717649
0.717492
0.717301
0.717098
0.716883
0.716647
0.716336
0.715952
0.714949
0.62267
0.639238
0.650982
0.662851
0.672938
0.681305
0.687953
0.693163
0.697211
0.700348
0.70283
0.704819
0.706468
0.707869
0.709087
0.710176
0.71115
0.712025
0.712808
0.713503
0.714108
0.714631
0.715078
0.715455
0.715762
0.716017
0.716203
0.716323
0.71639
0.716393
0.716355
0.716278
0.716175
0.716045
0.715917
0.715797
0.715687
0.715544
0.715373
0.71456
0.621735
0.637314
0.648889
0.660597
0.670715
0.67917
0.685934
0.691256
0.695394
0.6986
0.701125
0.703142
0.704808
0.706219
0.707443
0.708536
0.709511
0.710389
0.711174
0.711872
0.712483
0.713014
0.713471
0.713861
0.714183
0.714455
0.71466
0.714803
0.714897
0.714934
0.714934
0.7149
0.714849
0.71478
0.714726
0.7147
0.714718
0.714756
0.714832
0.714277
0.620973
0.635441
0.646822
0.658357
0.668488
0.677025
0.683906
0.689341
0.693571
0.696846
0.699417
0.701464
0.703146
0.704568
0.705797
0.70689
0.707865
0.708743
0.709529
0.710229
0.710845
0.711383
0.711849
0.712252
0.712588
0.712876
0.713099
0.713266
0.713387
0.713457
0.713495
0.713505
0.713504
0.713494
0.713513
0.71358
0.713727
0.713959
0.714321
0.714119
0.620329
0.633503
0.644659
0.656007
0.66614
0.674762
0.681768
0.687326
0.691656
0.695008
0.697633
0.699717
0.701424
0.702859
0.704096
0.705192
0.706169
0.707049
0.707837
0.70854
0.709163
0.709709
0.710188
0.710604
0.710956
0.711261
0.711505
0.711697
0.711845
0.71195
0.712025
0.712079
0.712127
0.712178
0.712267
0.712425
0.712702
0.713139
0.71383
0.714113
0.619805
0.631785
0.642812
0.654006
0.664108
0.672758
0.679836
0.685472
0.689867
0.693269
0.695923
0.698026
0.699742
0.701181
0.702422
0.703518
0.704496
0.705376
0.706166
0.706871
0.7075
0.708054
0.708543
0.708969
0.709336
0.709655
0.709918
0.710132
0.710305
0.71044
0.710549
0.710642
0.710734
0.71084
0.710993
0.711235
0.711631
0.712267
0.71331
0.714243
0.616394
0.627161
0.638342
0.649532
0.659649
0.668324
0.675484
0.681229
0.68572
0.689158
0.691763
0.693764
0.695359
0.696696
0.697864
0.698912
0.699859
0.700715
0.701488
0.702179
0.702802
0.703353
0.703846
0.704281
0.704666
0.705003
0.705297
0.705553
0.705775
0.705973
0.706156
0.706335
0.706527
0.706757
0.707058
0.70749
0.708157
0.709273
0.711268
0.714413
0.606879
0.617336
0.62807
0.63845
0.647854
0.656099
0.663083
0.668823
0.673428
0.677063
0.679915
0.682181
0.684033
0.685603
0.686978
0.688207
0.689318
0.690326
0.691242
0.692074
0.69283
0.693515
0.694136
0.694698
0.695206
0.695666
0.696081
0.696457
0.696799
0.697117
0.69742
0.697723
0.698042
0.698408
0.698861
0.699475
0.700386
0.701912
0.704621
0.708827
0.59631
0.606604
0.616772
0.626501
0.635402
0.643349
0.650211
0.655967
0.660699
0.66454
0.667645
0.670178
0.67229
0.674097
0.675686