/*--------------------------------*- C++ -*----------------------------------*\
  =========                 |
  \\      /  F ield         | OpenFOAM: The Open Source CFD Toolbox
   \\    /   O peration     | Website:  https://openfoam.org
    \\  /    A nd           | Version:  7
     \\/     M anipulation  |
\*---------------------------------------------------------------------------*/
FoamFile
{
    version     2.0;
    format      ascii;
    class       volScalarField;
    location    "0.425";
    object      p;
}
// * * * * * * * * * * * * * * * * * * * * * * * * * * * * * * * * * * * * * //

dimensions      [0 2 -2 0 0 0 0];

internalField   nonuniform List<scalar> 
400
(
3.19596e-06
-0.00590093
-0.0130512
-0.0184961
-0.0205184
-0.0183262
-0.011856
-0.00155406
0.0117832
0.0271141
0.0432295
0.0588277
0.0726003
0.0833426
0.0900933
0.0923066
0.0900623
0.0842897
0.0768974
0.0710247
0.00582745
-0.000244193
-0.00577811
-0.00949087
-0.0105389
-0.0083719
-0.00291637
0.00551275
0.0163206
0.0287047
0.0417164
0.0543271
0.0655054
0.0743126
0.0800147
0.0822109
0.0809819
0.0769869
0.0712564
0.0652403
0.0133944
0.0049619
-0.00101158
-0.00442814
-0.0052809
-0.00327284
0.0015923
0.00901509
0.0184861
0.0293293
0.040741
0.0518409
0.0617359
0.0696008
0.07477
0.0768403
0.0758017
0.072058
0.0658324
0.0574353
0.020205
0.0085926
0.00120182
-0.00267966
-0.00373896
-0.00190352
0.00271277
0.00976529
0.0187601
0.0290735
0.039969
0.0506295
0.0602069
0.0678886
0.0729753
0.0749723
0.0737316
0.0694358
0.0616626
0.0499973
0.0245914
0.00964541
0.000569317
-0.00398938
-0.0053116
-0.00351838
0.00116281
0.00832064
0.0174454
0.0279294
0.0390619
0.0500433
0.0600187
0.068132
0.0735918
0.0757612
0.0743259
0.0692663
0.0596127
0.0444086
0.0252965
0.00699762
-0.0038199
-0.00905279
-0.0105166
-0.00850663
-0.0033647
0.00441892
0.0142995
0.0256613
0.0377918
0.0498767
0.0610168
0.0702677
0.0766967
0.0794756
0.0780883
0.0723075
0.0606559
0.0417311
0.0212446
-0.000439144
-0.0129483
-0.0186967
-0.0200285
-0.0174157
-0.0113218
-0.00232629
0.00897984
0.0219611
0.0358896
0.0499188
0.0630807
0.0743082
0.0824807
0.0865229
0.0856608
0.0794167
0.0657684
0.0428766
0.0113322
-0.0138186
-0.0278815
-0.0338302
-0.034594
-0.0308523
-0.02321
-0.0123463
0.00109898
0.0164727
0.0330354
0.0499098
0.0660521
0.080251
0.0911554
0.0973761
0.0977972
0.0915972
0.0760775
0.0488756
-0.00573028
-0.0344897
-0.0498648
-0.0555091
-0.0550697
-0.0495005
-0.0395829
-0.0261076
-0.00975697
0.00881707
0.0288882
0.0495727
0.0697674
0.0881142
0.102998
0.112638
0.115459
0.110139
0.09305
0.061109
-0.0315578
-0.0641214
-0.0803941
-0.0849476
-0.082386
-0.0740538
-0.0609615
-0.0440232
-0.0239444
-0.00133637
0.0231386
0.048645
0.0740683
0.0979317
0.118342
0.133051
0.139874
0.136742
0.118691
0.0815451
-0.0682817
-0.104868
-0.121296
-0.123505
-0.117466
-0.105091
-0.0876896
-0.0663042
-0.0416225
-0.0141477
0.0156059
0.0469439
0.0788337
0.109755
0.137567
0.159498
0.172581
0.173668
0.155801
0.113057
-0.118894
-0.159636
-0.174831
-0.172642
-0.161082
-0.142882
-0.119722
-0.0927487
-0.062556
-0.0294322
0.00638198
0.0444733
0.0840416
0.123671
0.16108
0.192988
0.215487
0.223918
0.208349
0.159936
-0.187946
-0.232522
-0.243809
-0.233801
-0.213615
-0.187101
-0.156331
-0.122469
-0.0858715
-0.0464499
-0.00399654
0.0415498
0.0898412
0.139809
0.18927
0.234587
0.270859
0.291444
0.282029
0.228817
-0.283065
-0.329541
-0.331643
-0.308111
-0.274627
-0.236388
-0.195726
-0.153579
-0.109813
-0.0637185
-0.0144112
0.0388879
0.0965716
0.158278
0.222347
0.285199
0.341163
0.381278
0.385109
0.330524
-0.418187
-0.459747
-0.442073
-0.395628
-0.342073
-0.287709
-0.234594
-0.182911
-0.131588
-0.078958
-0.0231799
0.0375162
0.104597
0.178875
0.259879
0.344929
0.428404
0.499307
0.529617
0.483715
-0.619426
-0.636581
-0.578333
-0.494083
-0.411227
-0.335655
-0.267777
-0.205969
-0.147524
-0.0893571
-0.0283865
0.0384034
0.113875
0.200549
0.300047
0.41206
0.532933
0.651422
0.732442
0.720594
-0.935599
-0.87818
-0.741682
-0.598055
-0.474389
-0.372625
-0.288844
-0.217739
-0.153925
-0.0924289
-0.0286767
0.0417515
0.123334
0.2208
0.339
0.482242
0.652264
0.841648
1.01495
1.09628
-1.48059
-1.20196
-0.920999
-0.692546
-0.517676
-0.3877
-0.290193
-0.213424
-0.148161
-0.0872093
-0.024528
0.0455588
0.129101
0.233297
0.367361
0.543121
0.772629
1.06029
1.39819
1.73407
-2.57157
-1.60192
-1.04347
-0.714828
-0.497798
-0.353386
-0.255528
-0.184282
-0.126595
-0.0737834
-0.0192096
0.0430647
0.119762
0.219651
0.356004
0.549821
0.829812
1.23507
1.88111
2.95926
-4.44511
-2.01727
-0.969796
-0.564337
-0.357044
-0.239033
-0.169355
-0.123296
-0.0871838
-0.0533689
-0.0166772
0.0275135
0.0842981
0.161193
0.271577
0.441362
0.718803
1.2215
2.38402
4.92939
)
;

boundaryField
{
    movingWall
    {
        type            zeroGradient;
    }
    fixedWalls
    {
        type            zeroGradient;
    }
    frontAndBack
    {
        type            empty;
    }
}


// ************************************************************************* //
