/*--------------------------------*- C++ -*----------------------------------*\
  =========                 |
  \\      /  F ield         | OpenFOAM: The Open Source CFD Toolbox
   \\    /   O peration     | Website:  https://openfoam.org
    \\  /    A nd           | Version:  7
     \\/     M anipulation  |
\*---------------------------------------------------------------------------*/
FoamFile
{
    version     2.0;
    format      ascii;
    class       volVectorField;
    location    "7.3";
    object      U;
}
// * * * * * * * * * * * * * * * * * * * * * * * * * * * * * * * * * * * * * //

dimensions      [0 1 -1 0 0 0 0];

internalField   nonuniform List<vector> 
2000
(
(0.00125575 0.0244146 -4.60949e-21)
(0.0108863 0.0894958 0)
(0.0291286 0.154234 0)
(0.0493356 0.211739 -2.33635e-20)
(0.0688791 0.258321 7.80295e-21)
(0.0859972 0.292802 4.69021e-22)
(0.0999783 0.315874 -1.34758e-20)
(0.110805 0.329271 0)
(0.118829 0.335132 0)
(0.125261 0.335496 0)
(-0.00102011 0.021007 0)
(0.00197676 0.0805711 -1.79176e-20)
(0.0130485 0.140987 1.65216e-20)
(0.0274245 0.195759 3.12987e-20)
(0.0429633 0.24137 0)
(0.0579324 0.276351 2.88257e-20)
(0.071347 0.300907 -2.68046e-20)
(0.0828008 0.316302 0)
(0.0921817 0.324323 5.07301e-20)
(0.09998 0.326799 -9.6858e-20)
(-0.00302649 0.0182626 0)
(-0.00600627 0.072431 1.43739e-19)
(-0.00155538 0.12797 0)
(0.00723048 0.179111 1.25868e-19)
(0.0186312 0.222703 0)
(0.0310293 0.257188 -1.13253e-19)
(0.0433081 0.282421 0)
(0.0548045 0.299271 1.04939e-19)
(0.06504 0.309188 -9.82805e-20)
(0.0737053 0.313729 -9.54081e-20)
(-0.00495465 0.0162361 -3.78357e-20)
(-0.0133239 0.0652035 -7.15535e-20)
(-0.014824 0.115469 -3.34184e-20)
(-0.0111652 0.162266 -6.2107e-20)
(-0.00377098 0.202939 -5.88983e-20)
(0.00588052 0.235981 5.59448e-20)
(0.0166457 0.261029 5.3294e-20)
(0.0277355 0.278639 -1.30586e-21)
(0.0384207 0.289975 9.75966e-20)
(0.0475621 0.296304 9.54937e-20)
(-0.00698642 0.0149589 -3.8022e-20)
(-0.0201672 0.0589412 -7.29365e-20)
(-0.0268027 0.103709 -1.36582e-19)
(-0.0275763 0.145674 6.28374e-20)
(-0.0237779 0.182731 0)
(-0.0167687 0.213524 0)
(-0.0076545 0.237558 -1.08861e-19)
(0.0027684 0.255147 -1.03807e-19)
(0.0136509 0.267224 9.76326e-20)
(0.0230504 0.274796 2.83834e-19)
(-0.00926826 0.0143762 3.83639e-20)
(-0.0266298 0.0536279 3.69634e-20)
(-0.0373759 0.0928649 -2.05134e-19)
(-0.0416274 0.129772 3.20045e-19)
(-0.0406988 0.162809 -5.94252e-20)
(-0.035893 0.190797 0)
(-0.0282562 0.21316 0)
(-0.0185064 0.229999 5.13045e-19)
(-0.0074633 0.242022 -4.86667e-19)
(0.00222477 0.25004 9.42237e-20)
(-0.0118699 0.0143675 3.09055e-19)
(-0.032658 0.049181 0)
(-0.0462389 0.0830631 2.73135e-19)
(-0.0526916 0.115015 -2.5573e-19)
(-0.0535136 0.144008 0)
(-0.0500279 0.169032 1.14759e-19)
(-0.043242 0.189439 -3.21989e-19)
(-0.0337821 0.205095 -4.09663e-19)
(-0.022307 0.216408 1.92294e-19)
(-0.0119754 0.223975 1.86373e-19)
(-0.0147968 0.0147638 -6.19465e-19)
(-0.0380449 0.0454253 -7.43203e-20)
(-0.0528786 0.0743773 -1.38516e-19)
(-0.0598774 0.101858 -3.22866e-19)
(-0.0608426 0.12725 -1.22168e-19)
(-0.0572022 0.149693 -1.15322e-19)
(-0.0499894 0.168471 7.86188e-23)
(-0.0398485 0.183171 0)
(-0.0272657 0.193743 0)
(-0.0156779 0.200308 -2.25219e-21)
(-0.0179675 0.0153389 3.10415e-19)
(-0.0424429 0.042134 -2.97431e-19)
(-0.056617 0.0668387 2.06682e-19)
(-0.0620974 0.0907088 4.54036e-19)
(-0.0610696 0.113425 -1.20808e-19)
(-0.0551348 0.134283 1.14621e-19)
(-0.0454658 0.152554 1.08253e-19)
(-0.0330196 0.167604 0)
(-0.0184 0.178935 0)
(-0.00582082 0.185749 1.93868e-22)
(-0.0212144 0.0158468 -3.89341e-20)
(-0.0453743 0.0390559 3.7246e-19)
(-0.0566772 0.0604426 -6.91465e-20)
(-0.0582043 0.0818749 0)
(-0.052597 0.103243 0)
(-0.041658 0.123982 2.28947e-19)
(-0.0267547 0.143463 0)
(-0.00945115 0.161143 -2.01253e-19)
(0.00922337 0.177219 -2.8085e-23)
(0.0177278 0.19083 1.78454e-19)
(0.130393 0.327258 3.86918e-21)
(0.136801 0.307252 -3.93092e-21)
(0.123307 0.292741 -4.1105e-21)
(0.113607 0.286217 -4.22849e-21)
(0.0833975 0.285065 -4.37057e-21)
(0.0802438 0.289599 -3.66882e-24)
(0.0426633 0.292405 2.21932e-21)
(0.0508906 0.300114 6.8379e-21)
(0.00665182 0.305601 0)
(0.0250356 0.318019 -4.6701e-21)
(0.113421 0.322307 1.45617e-20)
(0.127985 0.306677 -1.60644e-20)
(0.120091 0.296135 2.84533e-20)
(0.11387 0.291445 4.23571e-21)
(0.0850242 0.29071 8.54285e-21)
(0.0817552 0.295148 1.31474e-20)
(0.0442808 0.29756 -4.47882e-21)
(0.0510393 0.305144 -4.55215e-21)
(0.00724564 0.309868 9.10806e-21)
(0.0246697 0.322609 4.65929e-21)
(0.0948156 0.314657 0)
(0.117382 0.30408 -1.56887e-20)
(0.115634 0.298028 -8.17492e-21)
(0.113858 0.295784 0)
(0.0869641 0.295915 -2.56967e-20)
(0.0841135 0.300568 8.51983e-21)
(0.0467815 0.302784 8.67483e-21)
(0.0520929 0.310255 2.67027e-20)
(0.00853227 0.314188 -9.07844e-21)
(0.0243952 0.32721 1.818e-20)
(0.0754749 0.304244 0)
(0.105696 0.299255 1.58238e-20)
(0.110349 0.298139 0)
(0.113617 0.298972 3.33427e-20)
(0.0890974 0.300459 -3.35103e-20)
(0.0871436 0.305749 -1.72569e-20)
(0.050022 0.308007 -1.56291e-22)
(0.0539789 0.315455 -2.64619e-20)
(0.0104603 0.318657 -4.42793e-21)
(0.0242276 0.331967 -2.25411e-20)
(0.0565542 0.291059 2.90991e-21)
(0.093789 0.292066 -4.55708e-20)
(0.10479 0.296331 6.53782e-22)
(0.11331 0.300839 -3.25994e-20)
(0.0913653 0.304205 0)
(0.0906615 0.310603 -1.70844e-20)
(0.0538148 0.313181 -1.42212e-22)
(0.0565495 0.320753 3.48044e-20)
(0.0129171 0.323337 4.3811e-21)
(0.0241811 0.336861 -4.39826e-21)
(0.0394994 0.275311 -1.20328e-19)
(0.0825628 0.282477 7.77825e-20)
(0.0995418 0.292522 3.24863e-20)
(0.113178 0.301237 -3.24588e-20)
(0.0937864 0.307003 -1.65086e-20)
(0.0945314 0.314998 0)
(0.0579958 0.318208 -3.39377e-20)
(0.059646 0.326096 1.69279e-20)
(0.0157459 0.328305 1.71476e-20)
(0.0242291 0.342292 1.7165e-20)
(0.0262351 0.25762 -1.51396e-20)
(0.0729533 0.270784 0)
(0.0951012 0.286881 0)
(0.113446 0.300313 0)
(0.0964116 0.308962 -1.66635e-20)
(0.0986322 0.319002 3.31173e-20)
(0.0623793 0.323144 3.36889e-20)
(0.06305 0.331562 -5.04626e-20)
(0.0187852 0.33351 8.43538e-21)
(0.0243962 0.347367 -2.53603e-20)
(0.0194843 0.238958 9.13354e-20)
(0.0663506 0.257104 6.47595e-20)
(0.0921187 0.27904 -6.41321e-20)
(0.114448 0.297637 6.58328e-20)
(0.0993948 0.309652 -8.15509e-20)
(0.103041 0.322251 0)
(0.0670346 0.327638 -1.64471e-20)
(0.0668567 0.336847 1.82496e-22)
(0.0220471 0.339197 -1.6394e-20)
(0.0246065 0.354694 -1.63508e-20)
(0.0213676 0.221801 -7.74156e-20)
(0.0636337 0.244149 0)
(0.090828 0.270891 -7.3907e-20)
(0.116283 0.294702 1.30768e-19)
(0.102734 0.31024 -4.85205e-20)
(0.107401 0.325612 -8.14297e-21)
(0.0714021 0.332514 1.64114e-20)
(0.0701832 0.342713 6.08376e-23)
(0.0246586 0.344597 2.422e-20)
(0.0247779 0.357329 2.4076e-20)
(0.0386141 0.20336 -6.45862e-20)
(0.0704219 0.226562 6.35645e-20)
(0.0928442 0.257514 8.12741e-21)
(0.119352 0.287694 0)
(0.10684 0.307652 0)
(0.112981 0.326732 7.98139e-21)
(0.077217 0.335336 3.16146e-20)
(0.0758964 0.347123 -3.10211e-20)
(0.0300512 0.352062 -7.70883e-21)
(0.0257156 0.373467 7.57519e-21)
(0.174621 0.225187 0)
(0.153609 0.220517 0)
(0.137035 0.243494 0)
(0.141598 0.281637 0)
(0.120142 0.310986 0)
(0.120616 0.338114 0)
(0.0812729 0.353164 0)
(0.0709114 0.366388 0)
(0.0170409 0.358216 0)
(0.0202385 0.338824 0)
(0.316269 0.288128 0)
(0.271259 0.276324 0)
(0.22193 0.278795 0)
(0.200037 0.303949 0)
(0.153951 0.32515 0)
(0.151214 0.35209 0)
(0.109481 0.36547 0)
(0.122886 0.389295 0)
(0.0939231 0.412376 0)
(0.0509013 0.468949 0)
(0.366028 0.329951 0)
(0.323241 0.327591 0)
(0.275398 0.33085 0)
(0.246423 0.350685 0)
(0.198716 0.374673 0)
(0.170924 0.398963 0)
(0.101657 0.410813 0)
(0.055671 0.409167 0)
(-0.0245102 0.402266 0)
(0.00748582 0.416953 0)
(0.381945 0.359396 0)
(0.348852 0.367274 0)
(0.300014 0.368267 0)
(0.265303 0.376842 0)
(0.201499 0.388399 0)
(0.194204 0.416507 0)
(0.152229 0.445625 0)
(0.159394 0.482005 0)
(0.103564 0.505162 0)
(0.0468827 0.521455 0)
(0.393146 0.393952 0)
(0.360773 0.40858 0)
(0.330633 0.425343 0)
(0.318189 0.450611 0)
(0.262046 0.469016 0)
(0.214982 0.4792 0)
(0.119318 0.47668 0)
(0.0811239 0.478673 0)
(0.0314493 0.481002 0)
(0.0340892 0.48937 0)
(0.411011 0.411725 0)
(0.380345 0.428128 0)
(0.322909 0.430327 0)
(0.287452 0.442223 0)
(0.240248 0.473663 0)
(0.244726 0.517749 0)
(0.198092 0.551773 0)
(0.172336 0.572978 0)
(0.0901873 0.602231 0)
(0.0526269 0.642111 0)
(0.428299 0.452163 0)
(0.412607 0.48694 0)
(0.393687 0.521795 0)
(0.369488 0.542699 0)
(0.28291 0.544913 0)
(0.22417 0.550745 0)
(0.138935 0.562384 0)
(0.117027 0.56667 0)
(0.0424924 0.570637 0)
(0.0336466 0.589688 0)
(0.448128 0.44668 0)
(0.404055 0.461503 0)
(0.356251 0.483975 0)
(0.363606 0.537087 0)
(0.332586 0.589653 0)
(0.315224 0.63346 0)
(0.236425 0.667321 0)
(0.193391 0.700724 0)
(0.0951843 0.722035 0)
(0.0451414 0.739264 0)
(0.477868 0.493901 0)
(0.493772 0.566014 0)
(0.437505 0.585796 0)
(0.386784 0.594474 0)
(0.311153 0.613426 0)
(0.279644 0.64423 0)
(0.204693 0.666509 0)
(0.167676 0.685745 0)
(0.0847591 0.702643 0)
(0.0477786 0.715453 0)
(0.37256 0.332346 0)
(0.457069 0.479038 0)
(0.468861 0.579946 0)
(0.46855 0.64934 0)
(0.407849 0.702057 0)
(0.370604 0.753579 0)
(0.283962 0.797831 0)
(0.22828 0.832729 0)
(0.123741 0.859393 0)
(0.0614366 0.883987 0)
(0.253398 0.249063 5.46692e-20)
(0.365535 0.295271 -5.31967e-20)
(0.402509 0.328443 5.39013e-21)
(0.415208 0.35538 0)
(0.423278 0.383913 0)
(0.438407 0.401747 2.9304e-21)
(0.452459 0.435367 -7.45515e-21)
(0.454361 0.412721 7.32263e-21)
(0.427973 0.405347 3.46628e-22)
(0.308921 0.22164 -3.42603e-22)
(0.315151 0.265213 -6.92294e-20)
(0.389737 0.307237 0)
(0.410957 0.335029 3.44714e-20)
(0.419751 0.359434 -7.27839e-20)
(0.427609 0.384369 4.02801e-20)
(0.442869 0.401579 -3.03185e-21)
(0.450678 0.424562 4.22356e-21)
(0.442846 0.390232 4.65202e-21)
(0.400537 0.365643 -4.34678e-22)
(0.278466 0.175378 -5.87769e-22)
(0.352403 0.2794 7.86828e-20)
(0.402163 0.313184 -4.40065e-20)
(0.418275 0.336381 4.35703e-20)
(0.427339 0.359485 -3.14629e-20)
(0.435251 0.382084 2.38886e-20)
(0.447883 0.396903 0)
(0.44951 0.409426 -4.23275e-21)
(0.430881 0.364478 -2.38978e-22)
(0.371727 0.322117 -1.32999e-21)
(0.247308 0.128105 3.1311e-22)
(0.382275 0.290389 -1.228e-20)
(0.414312 0.318537 0)
(0.424303 0.338381 0)
(0.432299 0.360157 0)
(0.43955 0.379666 1.83958e-20)
(0.448761 0.390538 -1.18332e-20)
(0.442215 0.390308 6.16904e-22)
(0.411131 0.333223 -1.53095e-21)
(0.338742 0.2752 -1.49816e-22)
(0.215653 0.0811815 7.40672e-22)
(0.400478 0.297702 -4.558e-21)
(0.421707 0.321579 -3.40915e-20)
(0.429263 0.338656 -1.67689e-20)
(0.437357 0.359031 1.67529e-20)
(0.443601 0.375146 -6.46968e-21)
(0.447451 0.379979 0)
(0.431506 0.366008 -3.65913e-21)
(0.387995 0.297619 3.72908e-21)
(0.304555 0.225455 -1.54738e-21)
(0.184639 0.0360002 -6.00989e-22)
(0.412226 0.301427 -8.76368e-20)
(0.42831 0.323404 1.35949e-20)
(0.433935 0.338452 2.73866e-21)
(0.44119 0.357021 1.59242e-20)
(0.445093 0.368577 0)
(0.442183 0.365456 0)
(0.415865 0.337197 0)
(0.360035 0.257956 1.83619e-21)
(0.2685 0.173371 0)
(0.1488 -0.00582998 0)
(0.419744 0.302798 0)
(0.433242 0.324058 2.70114e-20)
(0.437768 0.337147 -1.77644e-20)
(0.443879 0.353134 -1.24692e-20)
(0.444322 0.358903 1.25311e-20)
(0.433343 0.346208 3.63951e-21)
(0.396128 0.303777 -4.17857e-21)
(0.329036 0.214969 -6.59908e-21)
(0.231459 0.120817 6.29943e-22)
(0.11902 -0.0435151 5.91884e-22)
(0.425211 0.302655 0)
(0.437332 0.323688 -9.25247e-21)
(0.440777 0.334757 -3.8579e-21)
(0.444783 0.347197 0)
(0.440327 0.345769 2.05579e-21)
(0.42039 0.322352 -6.61307e-21)
(0.372394 0.266498 4.01722e-21)
(0.295509 0.169739 5.90004e-22)
(0.194115 0.0696123 -4.01415e-22)
(0.0936028 -0.0771877 -5.64516e-22)
(0.429315 0.301562 1.0383e-20)
(0.440053 0.322164 8.11715e-21)
(0.442374 0.330853 -2.48929e-21)
(0.443495 0.338586 1.53965e-21)
(0.432983 0.328708 2.57473e-21)
(0.403652 0.294002 2.85908e-21)
(0.345477 0.225953 -6.27282e-22)
(0.260834 0.123394 -3.64897e-22)
(0.158911 0.0208646 4.02723e-22)
(0.0712407 -0.106465 -6.26218e-23)
(0.432354 0.299681 -2.23948e-21)
(0.441452 0.319302 2.28988e-21)
(0.442337 0.325121 -1.84902e-21)
(0.439682 0.326992 -1.53685e-21)
(0.422141 0.30769 1.03679e-21)
(0.383392 0.261671 -1.96097e-21)
(0.316102 0.183033 8.65676e-22)
(0.226049 0.0767142 1.24843e-22)
(0.126731 -0.0252665 0)
(0.0514345 -0.13229 6.27296e-23)
(0.434488 0.297011 2.19662e-21)
(0.441614 0.314888 -2.24311e-21)
(0.440546 0.317221 -1.73976e-21)
(0.433327 0.312167 -1.42808e-21)
(0.408155 0.282876 -9.86661e-22)
(0.360345 0.226014 1.76048e-22)
(0.28526 0.138598 3.26046e-22)
(0.192034 0.0306144 5.44383e-22)
(0.0977111 -0.0680285 0)
(0.0349618 -0.155137 -2.13587e-24)
(0.435823 0.29339 0)
(0.440712 0.308722 -7.48472e-21)
(0.437008 0.306974 1.26906e-20)
(0.424532 0.294153 1.42975e-21)
(0.39149 0.254735 2.15041e-21)
(0.335291 0.187876 2.38111e-21)
(0.253884 0.0936293 -5.4856e-22)
(0.159452 -0.0139958 -3.19233e-22)
(0.0722374 -0.106806 3.14918e-22)
(0.0219915 -0.175178 2.13012e-24)
(0.436239 0.288665 0)
(0.438577 0.300681 -8.03006e-21)
(0.431628 0.294343 -3.41425e-21)
(0.413478 0.273194 0)
(0.372725 0.22389 -5.78186e-21)
(0.309094 0.148145 2.09262e-21)
(0.22288 0.0490519 1.17016e-21)
(0.129179 -0.0561795 1.95948e-21)
(0.050554 -0.141139 -3.13888e-22)
(0.0123486 -0.192577 1.56269e-22)
(0.435488 0.282801 0)
(0.435106 0.290744 8.0929e-21)
(0.424585 0.279438 0)
(0.400621 0.249715 9.44159e-21)
(0.352588 0.191065 -9.49313e-21)
(0.282612 0.107692 -2.41957e-21)
(0.193041 0.0056487 4.6958e-22)
(0.101735 -0.0954031 -1.83775e-21)
(0.0325502 -0.170991 -3.38607e-22)
(0.0056522 -0.207621 -2.53974e-22)
(0.433544 0.275852 7.59937e-20)
(0.430829 0.27895 -2.88999e-20)
(0.416681 0.262478 -2.86321e-21)
(0.386862 0.224283 -1.19224e-20)
(0.332032 0.157043 0)
(0.256639 0.0673268 -2.33652e-21)
(0.165005 -0.0359711 8.74882e-22)
(0.077472 -0.131346 2.58704e-21)
(0.0181075 -0.196582 1.02424e-22)
(0.0013953 -0.22069 -1.02148e-22)
(0.431131 0.267848 5.95329e-21)
(0.426937 0.265388 4.42247e-20)
(0.408953 0.243868 1.17973e-20)
(0.373104 0.197646 -1.17956e-20)
(0.31185 0.122695 -3.8725e-21)
(0.231622 0.0277806 0)
(0.139255 -0.0754203 -3.2032e-21)
(0.0565881 -0.1639 1.6614e-21)
(0.00707658 -0.218314 8.4499e-22)
(-0.00097369 -0.232223 2.29631e-22)
(0.429013 0.258776 -1.01937e-20)
(0.423248 0.250409 0)
(0.400888 0.224263 0)
(0.35895 0.170653 0)
(0.291801 0.0888643 -2.69324e-21)
(0.207877 -0.0102999 6.56255e-21)
(0.116102 -0.11239 3.1791e-21)
(0.0391042 -0.193124 -3.54448e-21)
(-0.000547156 -0.236702 2.13358e-22)
(-0.0019714 -0.242647 -4.38055e-22)
(0.424622 0.249131 -2.3898e-20)
(0.415665 0.234806 3.10897e-20)
(0.388971 0.204271 -3.08193e-20)
(0.341885 0.143888 1.83807e-20)
(0.270501 0.0559624 -2.21719e-20)
(0.185069 -0.046755 0)
(0.0954515 -0.146898 -1.74379e-21)
(0.0248585 -0.219324 -1.05756e-23)
(-0.00582752 -0.252272 -6.59181e-22)
(-0.00204653 -0.25228 -2.34071e-22)
(0.413777 0.240497 -1.11097e-20)
(0.400733 0.219303 0)
(0.371286 0.183974 -2.93914e-20)
(0.321021 0.117179 4.45659e-20)
(0.247502 0.0236292 -1.49513e-20)
(0.162775 -0.0820232 -1.38845e-21)
(0.0773324 -0.179373 1.73986e-21)
(0.0138717 -0.242634 1.93992e-22)
(-0.00926309 -0.265489 1.28845e-21)
(-0.00154821 -0.261681 4.51163e-22)
(0.406401 0.234 -4.85609e-20)
(0.393195 0.20399 4.7206e-20)
(0.361501 0.163058 4.07872e-21)
(0.307193 0.0903676 0)
(0.229879 -0.0082173 0)
(0.143662 -0.116442 1.46007e-21)
(0.0620009 -0.21039 2.97737e-21)
(0.00644527 -0.263342 -2.89912e-21)
(-0.0108296 -0.276547 -2.39069e-22)
(-0.00092073 -0.271178 2.33722e-22)
(0.42991 0.213466 0)
(0.419958 0.167114 0)
(0.379245 0.114101 0)
(0.309971 0.0298411 0)
(0.216944 -0.0786839 0)
(0.112795 -0.19372 0)
(0.0253068 -0.281559 0)
(-0.0136554 -0.307052 0)
(-0.0105457 -0.297452 0)
(0.00272335 -0.295382 0)
(0.400166 0.10214 0)
(0.331943 0.0111013 0)
(0.242211 -0.0816728 0)
(0.131573 -0.204228 0)
(0.0366692 -0.309815 0)
(-0.00820821 -0.373249 0)
(-0.00874633 -0.392758 0)
(0.00212514 -0.373334 0)
(0.00489212 -0.35765 0)
(0.00153277 -0.361212 0)
(0.339069 -0.0432892 0)
(0.249523 -0.18184 0)
(0.159892 -0.285922 0)
(0.0777468 -0.377212 0)
(0.0281632 -0.420034 0)
(0.00862464 -0.42315 0)
(0.0112196 -0.409811 0)
(0.0144736 -0.400777 0)
(0.00684228 -0.407329 0)
(-0.00148805 -0.411607 0)
(0.235231 -0.251164 0)
(0.115203 -0.391615 0)
(0.0510019 -0.445995 0)
(0.0116994 -0.486357 0)
(0.00582404 -0.485269 0)
(0.0126179 -0.470209 0)
(0.0175192 -0.457781 0)
(0.00942018 -0.459837 0)
(-0.000926064 -0.471705 0)
(-0.00178552 -0.47006 0)
(0.149061 -0.436891 0)
(0.0555492 -0.550543 0)
(0.0443071 -0.535054 0)
(0.0306314 -0.54336 0)
(0.0343666 -0.521933 0)
(0.0263085 -0.521744 0)
(0.0129854 -0.526715 0)
(0.000443819 -0.53678 0)
(-0.00205605 -0.539608 0)
(0.000284845 -0.535727 0)
(0.0934391 -0.562382 0)
(0.0410038 -0.619776 0)
(0.0588107 -0.573313 0)
(0.03499 -0.599971 0)
(0.0324924 -0.588078 0)
(0.0125319 -0.605841 0)
(0.00359023 -0.607934 0)
(-5.86585e-05 -0.610924 0)
(0.0022942 -0.609001 0)
(0.000614561 -0.60799 0)
(0.0791852 -0.635358 0)
(0.0548457 -0.672284 0)
(0.0598171 -0.650056 0)
(0.0217856 -0.694 0)
(0.0202199 -0.685448 0)
(0.00252245 -0.700397 0)
(0.00649912 -0.691858 0)
(0.00341962 -0.695213 0)
(0.00274776 -0.69611 0)
(-0.000495679 -0.696079 0)
(0.0658928 -0.750107 0)
(0.0435307 -0.795459 0)
(0.0309058 -0.795513 0)
(0.0089379 -0.823979 0)
(0.0180192 -0.808625 0)
(0.0048688 -0.820081 0)
(0.00893698 -0.81445 0)
(-0.000589312 -0.821836 0)
(0.00216067 -0.821151 0)
(-6.4199e-05 -0.820396 0)
(0.0330294 -0.936557 0)
(0.0186763 -0.97775 0)
(0.0208947 -0.976349 0)
(0.0142076 -0.987418 0)
(0.00953216 -0.986481 0)
(-7.74386e-05 -0.996522 0)
(0.00692606 -0.993463 0)
(-0.000772401 -1.00055 0)
(0.00321726 -0.996263 0)
(0.000352176 -0.997765 0)
(0.0109025 -1.0825 0)
(0.0121492 -1.10922 0)
(0.0109666 -1.12325 0)
(-0.00175433 -1.13668 0)
(-0.000180974 -1.13493 0)
(0.00637469 -1.14038 0)
(0.00203957 -1.14701 0)
(-0.00278409 -1.14708 0)
(0.0034206 -1.14467 0)
(-4.86641e-05 -1.15037 0)
(0.408948 0.218502 5.02117e-20)
(0.42063 0.104129 -4.98119e-20)
(0.352479 -0.0353406 5.68391e-21)
(0.261307 -0.240221 0)
(0.168128 -0.431881 0)
(0.109694 -0.568044 5.86857e-21)
(0.0893638 -0.650233 -2.41861e-20)
(0.0732131 -0.763268 2.40911e-20)
(0.0411295 -0.938136 6.58703e-21)
(0.0115149 -1.07207 -6.60139e-21)
(0.40674 0.199227 -6.85026e-20)
(0.424322 0.0865198 0)
(0.361194 -0.0422238 3.83391e-20)
(0.275386 -0.238613 -8.57411e-20)
(0.177453 -0.425333 5.29237e-20)
(0.116896 -0.564074 -5.23173e-21)
(0.0937459 -0.650911 1.14759e-20)
(0.0765269 -0.762571 2.35575e-20)
(0.0450545 -0.932436 6.76131e-21)
(0.0120991 -1.06431 6.73957e-21)
(0.405075 0.182206 8.29192e-20)
(0.426379 0.074104 -4.81637e-20)
(0.370412 -0.046138 4.76609e-20)
(0.291335 -0.2401 -4.429e-20)
(0.189527 -0.420084 3.30887e-20)
(0.125816 -0.55826 0)
(0.0991315 -0.647849 -1.15049e-20)
(0.0807949 -0.757049 8.47691e-22)
(0.0494584 -0.921052 -1.24176e-20)
(0.0128208 -1.05194 -1.29224e-20)
(0.403446 0.162864 -1.34489e-20)
(0.428231 0.06336 0)
(0.380876 -0.0475844 0)
(0.308128 -0.236249 0)
(0.204115 -0.413022 3.54533e-20)
(0.13699 -0.552991 -2.35188e-20)
(0.10611 -0.644617 -3.67952e-23)
(0.0863206 -0.75139 -1.36281e-20)
(0.0545569 -0.909446 -7.15844e-21)
(0.0139076 -1.03841 -7.88444e-21)
(0.401393 0.143344 -3.61056e-21)
(0.429779 0.0540124 -4.10479e-20)
(0.392584 -0.0477632 -2.43619e-20)
(0.32585 -0.227566 2.43289e-20)
(0.220794 -0.401278 -1.17716e-20)
(0.150212 -0.546681 0)
(0.114751 -0.641598 -1.29834e-20)
(0.0930564 -0.746875 2.83332e-20)
(0.0604521 -0.899322 -1.45765e-20)
(0.0156099 -1.02533 1.5223e-20)
(0.398822 0.123477 -1.17765e-19)
(0.430638 0.0455277 1.64953e-20)
(0.404695 -0.0470306 1.25371e-21)
(0.344677 -0.215978 2.5539e-20)
(0.23987 -0.385073 0)
(0.165288 -0.537211 0)
(0.124801 -0.63739 0)
(0.100767 -0.742537 1.52703e-20)
(0.0670387 -0.890048 0)
(0.0180367 -1.01264 0)
(0.395531 0.103552 0)
(0.430383 0.0372694 4.24521e-20)
(0.416198 -0.0458853 -2.79216e-20)
(0.364308 -0.20215 -2.65595e-20)
(0.261925 -0.365694 2.66904e-20)
(0.182424 -0.523896 1.42833e-20)
(0.13609 -0.630637 -1.42947e-20)
(0.109222 -0.736896 -5.4744e-20)
(0.0740835 -0.880187 3.8498e-21)
(0.0211588 -0.999337 -1.37172e-20)
(0.391401 0.083849 0)
(0.42862 0.028744 -1.45421e-20)
(0.426113 -0.0450267 -7.29466e-21)
(0.384027 -0.186664 0)
(0.287122 -0.343814 7.08572e-21)
(0.20207 -0.506948 -2.19362e-20)
(0.148724 -0.62083 2.30945e-20)
(0.118345 -0.72904 8.0986e-21)
(0.0813587 -0.868594 -9.01012e-21)
(0.0248651 -0.984317 1.81429e-20)
(0.386386 0.0647312 1.67086e-20)
(0.425068 0.0197051 1.51492e-20)
(0.433502 -0.0450854 -4.18224e-21)
(0.40282 -0.170594 3.77193e-21)
(0.314911 -0.319774 7.22113e-21)
(0.224639 -0.486421 1.14672e-20)
(0.162988 -0.608007 -4.17675e-21)
(0.128209 -0.718815 -4.45761e-21)
(0.0887161 -0.854839 9.03995e-21)
(0.0290144 -0.966958 4.99963e-21)
(0.380537 0.0466539 -4.12774e-21)
(0.419656 0.0101989 4.11661e-21)
(0.437587 -0.0463612 -3.81776e-21)
(0.419397 -0.155189 -3.76677e-21)
(0.344029 -0.294293 3.95679e-21)
(0.250348 -0.462077 -7.94428e-21)
(0.179242 -0.592149 6.38189e-21)
(0.138934 -0.706422 2.23976e-21)
(0.0960636 -0.839028 0)
(0.0334195 -0.94719 -5.01052e-21)
(0.374007 0.0302453 4.28372e-21)
(0.412589 0.000374262 -4.27318e-21)
(0.437926 -0.048839 -4.19794e-21)
(0.432309 -0.141659 -4.16706e-21)
(0.372547 -0.268541 -4.15809e-21)
(0.279074 -0.433951 -1.62337e-22)
(0.197953 -0.572927 2.28236e-21)
(0.150581 -0.692022 7.23284e-21)
(0.103294 -0.821452 0)
(0.0378276 -0.925457 -5.49201e-21)
(0.366986 0.0160101 0)
(0.404247 -0.00941064 -1.72704e-20)
(0.434575 -0.05239 3.03945e-20)
(0.440374 -0.130953 4.17368e-21)
(0.398096 -0.243924 8.81673e-21)
(0.30995 -0.402908 1.34948e-20)
(0.219681 -0.549896 -4.59055e-21)
(0.163137 -0.675475 -4.89826e-21)
(0.110264 -0.802192 1.09131e-20)
(0.041893 -0.902259 5.47895e-21)
(0.359684 0.00391364 0)
(0.395017 -0.0185473 -1.84529e-20)
(0.427981 -0.0567314 -8.81263e-21)
(0.443049 -0.123456 0)
(0.418396 -0.221858 -2.71508e-20)
(0.341152 -0.37053 9.30912e-21)
(0.244884 -0.522857 9.95798e-21)
(0.176609 -0.656262 3.14635e-20)
(0.116764 -0.781131 -1.08778e-20)
(0.0450865 -0.878164 2.36923e-20)
(0.352299 -0.00661922 0)
(0.385297 -0.0266898 1.86075e-20)
(0.418849 -0.061421 0)
(0.44051 -0.118989 3.75821e-20)
(0.431816 -0.203453 -3.7781e-20)
(0.370042 -0.338732 -1.99386e-20)
(0.273393 -0.492159 2.12588e-23)
(0.191313 -0.633582 -3.21995e-20)
(0.12266 -0.757921 -5.35301e-21)
(0.0471388 -0.853265 -2.94324e-20)
(0.344952 -0.0153184 1.60204e-19)
(0.375517 -0.0336059 -5.96798e-20)
(0.408021 -0.06593 -1.26765e-22)
(0.433538 -0.116926 -3.91662e-20)
(0.437718 -0.189216 0)
(0.393769 -0.309443 -2.07829e-20)
(0.303755 -0.458913 -9.89468e-22)
(0.208 -0.606923 4.39199e-20)
(0.127754 -0.732342 6.05358e-21)
(0.0474511 -0.827743 -6.07545e-21)
(0.337879 -0.0219657 8.7112e-22)
(0.365786 -0.0391349 1.01803e-19)
(0.39628 -0.0697728 4.07029e-20)
(0.423276 -0.116389 -4.06825e-20)
(0.436504 -0.178942 -2.09409e-20)
(0.410085 -0.284116 0)
(0.333161 -0.424756 -4.50437e-20)
(0.227776 -0.576051 2.23246e-20)
(0.132986 -0.703913 2.38786e-20)
(0.0471605 -0.801887 2.56587e-20)
(0.331258 -0.0270798 -2.15634e-20)
(0.356288 -0.0432292 0)
(0.384252 -0.0726217 0)
(0.41095 -0.116498 0)
(0.429394 -0.171944 -2.23665e-20)
(0.41793 -0.263645 4.32476e-20)
(0.358099 -0.392047 4.57461e-20)
(0.250604 -0.542048 -7.0994e-20)
(0.138838 -0.672667 1.27535e-20)
(0.0440103 -0.775139 -3.80477e-20)
(0.325191 -0.0308633 -4.44842e-20)
(0.347148 -0.0459903 8.79176e-20)
(0.372377 -0.0743518 -8.70975e-20)
(0.397636 -0.116472 8.85853e-20)
(0.418051 -0.167025 -1.10231e-19)
(0.417591 -0.247557 0)
(0.375727 -0.362102 -2.37509e-20)
(0.275905 -0.505517 -7.16342e-22)
(0.150358 -0.637472 -2.60544e-20)
(0.0430689 -0.749597 -2.65344e-20)
(0.31953 -0.033141 -2.30055e-20)
(0.338416 -0.0471371 0)
(0.360873 -0.074705 -1.0273e-19)
(0.384137 -0.115913 1.81788e-19)
(0.404253 -0.163733 -6.78799e-20)
(0.410402 -0.236412 -1.18024e-20)
(0.383919 -0.33829 2.36989e-20)
(0.297807 -0.471398 -1.06615e-21)
(0.162728 -0.600807 3.79157e-20)
(0.0391723 -0.718992 3.91847e-20)
(0.313886 -0.0330719 -9.82252e-20)
(0.32997 -0.0466352 9.54291e-20)
(0.349306 -0.0729816 1.1772e-20)
(0.370101 -0.112973 0)
(0.388749 -0.158548 0)
(0.398126 -0.224837 1.17305e-20)
(0.384634 -0.315219 4.93662e-20)
(0.320394 -0.435102 -4.78285e-20)
(0.18882 -0.559046 -1.2775e-20)
(0.0460418 -0.694347 1.23839e-20)
(0.301355 -0.0468711 0)
(0.314757 -0.0594845 0)
(0.326011 -0.0888207 0)
(0.338649 -0.129354 0)
(0.350726 -0.173387 0)
(0.353205 -0.232278 0)
(0.344728 -0.304239 0)
(0.31224 -0.389546 0)
(0.207305 -0.477726 0)
(0.0940362 -0.590613 0)
(0.281782 -0.0550013 0)
(0.286626 -0.0702767 0)
(0.294417 -0.0993605 0)
(0.291632 -0.135373 0)
(0.297245 -0.17453 0)
(0.285456 -0.22417 0)
(0.265078 -0.278876 0)
(0.243388 -0.335165 0)
(0.148356 -0.38509 0)
(0.0924327 -0.434968 0)
(0.261083 -0.0505592 0)
(0.258893 -0.0684885 0)
(0.263221 -0.0978033 0)
(0.252205 -0.129801 0)
(0.251625 -0.165774 0)
(0.23373 -0.207561 0)
(0.202436 -0.24927 0)
(0.185091 -0.28929 0)
(0.092958 -0.320246 0)
(0.0709114 -0.344239 0)
(0.242284 -0.0490336 0)
(0.235312 -0.0677645 0)
(0.235752 -0.0927924 0)
(0.220568 -0.11946 0)
(0.213676 -0.150383 0)
(0.19485 -0.18501 0)
(0.157096 -0.21712 0)
(0.146151 -0.246879 0)
(0.0610851 -0.266985 0)
(0.0580114 -0.280097 0)
(0.221822 -0.0461733 0)
(0.214282 -0.0642581 0)
(0.211561 -0.086456 0)
(0.19523 -0.108545 0)
(0.183376 -0.133955 0)
(0.165904 -0.161852 0)
(0.124537 -0.186307 0)
(0.11938 -0.209185 0)
(0.0419552 -0.223517 0)
(0.0494541 -0.230276 0)
(0.20399 -0.0416627 0)
(0.195537 -0.0574289 0)
(0.190392 -0.0764402 0)
(0.173966 -0.0949848 0)
(0.158576 -0.115884 0)
(0.143305 -0.13886 0)
(0.100069 -0.158303 0)
(0.0991186 -0.176992 0)
(0.02706 -0.188589 0)
(0.0413304 -0.188768 0)
(0.188836 -0.0375431 0)
(0.180406 -0.0497361 0)
(0.173083 -0.0648964 0)
(0.156584 -0.0795937 0)
(0.13836 -0.0959532 0)
(0.124946 -0.114292 0)
(0.0803951 -0.130743 0)
(0.0823584 -0.145804 0)
(0.0165221 -0.15708 0)
(0.0342664 -0.169162 0)
(0.17838 -0.033795 0)
(0.17088 -0.04148 0)
(0.160311 -0.0534552 0)
(0.143102 -0.0647656 0)
(0.1221 -0.0781964 0)
(0.109223 -0.0945347 0)
(0.0643169 -0.109323 0)
(0.0688377 -0.125977 0)
(0.0034506 -0.147039 0)
(0.0349783 -0.128708 0)
(0.211812 -0.0207317 0)
(0.206535 -0.0263834 0)
(0.184737 -0.0334911 0)
(0.160596 -0.0410806 0)
(0.129738 -0.0498417 0)
(0.111081 -0.0554594 0)
(0.0448857 -0.0729827 0)
(0.0414564 -0.0776558 0)
(-0.0371561 -0.0935483 0)
(-0.0469959 -0.155599 0)
(0.535177 -0.00942152 0)
(0.526075 -0.0128709 0)
(0.499687 -0.0158145 0)
(0.476742 -0.0207051 0)
(0.443622 -0.0261588 0)
(0.406716 -0.0331996 0)
(0.352424 -0.0479637 0)
(0.303332 -0.060626 0)
(0.198019 -0.0975303 0)
(0.173285 -0.169299 0)
(0.308196 -0.0438297 1.05817e-19)
(0.29028 -0.0427868 -1.02638e-19)
(0.268355 -0.0355933 1.30983e-20)
(0.247578 -0.0352971 0)
(0.224905 -0.0327376 0)
(0.206662 -0.0306214 1.29173e-20)
(0.191278 -0.0284133 -5.12913e-20)
(0.184016 -0.0266296 5.0268e-20)
(0.231158 -0.0167481 1.24725e-20)
(0.549426 -0.00752625 -1.27601e-20)
(0.304755 -0.0415687 -1.15238e-19)
(0.286672 -0.0371913 0)
(0.26533 -0.0292359 8.49105e-20)
(0.244986 -0.0295683 -1.93142e-19)
(0.223043 -0.0272531 1.20548e-19)
(0.20576 -0.0261826 -1.21831e-20)
(0.191152 -0.0246997 2.41543e-20)
(0.186119 -0.0235869 4.8028e-20)
(0.237969 -0.0152264 1.18544e-20)
(0.555164 -0.00679729 1.17133e-20)
(0.300959 -0.0371227 1.34398e-19)
(0.280934 -0.0310137 -9.36471e-20)
(0.25995 -0.0229966 9.28071e-20)
(0.240294 -0.0241142 -9.62002e-20)
(0.219776 -0.0221569 7.12853e-20)
(0.203831 -0.0220799 0)
(0.190418 -0.0212602 -2.42116e-20)
(0.188001 -0.0205979 -1.20718e-22)
(0.244011 -0.0139058 -2.39863e-20)
(0.560795 -0.00618738 -2.38223e-20)
(0.300337 -0.0308967 -2.20352e-20)
(0.278475 -0.0241542 0)
(0.256865 -0.0166689 0)
(0.237076 -0.0187552 0)
(0.217423 -0.0173295 7.17078e-20)
(0.20231 -0.0182159 -4.77365e-20)
(0.189867 -0.0180553 -1.10226e-22)
(0.189744 -0.0177275 -2.41809e-20)
(0.249513 -0.0128278 -1.20467e-20)
(0.566254 -0.00571936 -1.19281e-20)
(0.300471 -0.0233432 2.87896e-21)
(0.277381 -0.0168344 -6.51117e-20)
(0.254999 -0.0101897 -4.60052e-20)
(0.234757 -0.0133476 4.59886e-20)
(0.21568 -0.0126381 -2.36528e-20)
(0.20108 -0.0144784 0)
(0.189456 -0.0150113 -2.40959e-20)
(0.191251 -0.0150075 4.83664e-20)
(0.254342 -0.0119751 -2.41665e-20)
(0.571347 -0.00538789 2.42038e-20)
(0.300303 -0.0145434 -1.68405e-19)
(0.275968 -0.00927587 1.97603e-20)
(0.253004 -0.00367936 -1.03748e-21)
(0.232378 -0.00790935 4.54892e-20)
(0.213939 -0.00806349 0)
(0.199796 -0.0108331 0)
(0.188994 -0.0121019 0)
(0.192413 -0.0124614 2.40886e-20)
(0.258357 -0.0112962 0)
(0.575979 -0.00517634 0)
(0.299922 -0.00445496 0)
(0.274125 -0.00147734 6.50715e-20)
(0.250727 0.0028048 -4.38193e-20)
(0.229757 -0.00245834 -4.58759e-20)
(0.212047 -0.00359489 4.61196e-20)
(0.198353 -0.00726263 2.36911e-20)
(0.188393 -0.00931552 -2.37221e-20)
(0.193161 -0.0101035 -8.4421e-20)
(0.261491 -0.010737 6.06681e-21)
(0.580111 -0.00506319 -1.82247e-20)
(0.299314 0.00693743 0)
(0.272006 0.00673447 -2.13104e-20)
(0.248375 0.00932503 -1.0971e-20)
(0.227034 0.00304936 0)
(0.210052 0.00081994 1.16843e-20)
(0.196769 -0.00373396 -3.5096e-20)
(0.187627 -0.00663277 3.58203e-20)
(0.193448 -0.00793407 1.21229e-20)
(0.263768 -0.0102506 -1.21466e-20)
(0.583795 -0.0050309 2.44809e-20)
(0.298294 0.019537 1.97324e-20)
(0.269523 0.0155774 2.1363e-20)
(0.245977 0.0160009 -5.16839e-21)
(0.224278 0.00868065 5.5995e-21)
(0.207971 0.00525017 1.15032e-20)
(0.195048 -0.000210533 1.75537e-20)
(0.186671 -0.00403034 -5.92642e-21)
(0.193228 -0.00595301 -5.9981e-21)
(0.265115 -0.00979587 1.21865e-20)
(0.587 -0.00506478 6.09568e-21)
(0.296704 0.0330097 -5.09808e-21)
(0.266522 0.0251474 5.14522e-21)
(0.243409 0.0229346 -5.43397e-21)
(0.221471 0.0144801 -5.59207e-21)
(0.205766 0.0097486 5.74314e-21)
(0.193171 0.00332919 -1.16299e-20)
(0.185481 -0.00148719 8.89282e-21)
(0.192475 -0.00415967 3.01348e-21)
(0.265505 -0.0093558 0)
(0.589743 -0.00515012 -6.10909e-21)
(0.294555 0.0467883 5.07515e-21)
(0.263028 0.0352783 -5.12347e-21)
(0.240559 0.0301491 -5.39566e-21)
(0.218594 0.0204484 -5.55266e-21)