/*--------------------------------*- C++ -*----------------------------------*\
  =========                 |
  \\      /  F ield         | OpenFOAM: The Open Source CFD Toolbox
   \\    /   O peration     | Website:  https://openfoam.org
    \\  /    A nd           | Version:  7
     \\/     M anipulation  |
\*---------------------------------------------------------------------------*/
FoamFile
{
    version     2.0;
    format      ascii;
    class       volVectorField;
    location    "97.3";
    object      U;
}
// * * * * * * * * * * * * * * * * * * * * * * * * * * * * * * * * * * * * * //

dimensions      [0 1 -1 0 0 0 0];

internalField   nonuniform List<vector> 
2000
(
(-6.31775e-05 -0.00468022 -1.63753e-22)
(8.14877e-05 -0.0110802 0)
(0.000508892 -0.0148316 0)
(0.00116746 -0.0163762 -8.41545e-22)
(0.0020161 -0.0159962 2.74137e-22)
(0.00303487 -0.0138791 1.15043e-23)
(0.00422269 -0.0101541 -4.71973e-22)
(0.00558666 -0.00492676 0)
(0.00713644 0.00169824 0)
(0.0087826 0.00960367 0)
(0.00038836 -0.00456006 0)
(0.00133804 -0.0111017 -6.41503e-22)
(0.00247623 -0.01503 5.91594e-22)
(0.00364107 -0.0167679 1.12415e-21)
(0.00480328 -0.0166043 0)
(0.0059532 -0.0147414 1.03168e-21)
(0.00710183 -0.0113181 -9.59395e-22)
(0.00827251 -0.0064351 0)
(0.00950441 -0.000172737 1.77082e-21)
(0.0107158 0.00738744 -3.41112e-21)
(0.000876687 -0.00451448 0)
(0.00275651 -0.0112118 5.13236e-21)
(0.00475146 -0.015277 0)
(0.00656113 -0.0171568 4.59672e-21)
(0.00816898 -0.0171559 0)
(0.00957715 -0.0154976 -4.15509e-21)
(0.0108095 -0.012336 0)
(0.011905 -0.00777231 3.78182e-21)
(0.0129321 -0.00186685 -3.54191e-21)
(0.0138144 0.00532618 -3.48378e-21)
(0.00142877 -0.00456022 -1.33392e-21)
(0.00437055 -0.0114284 -2.5618e-21)
(0.00735213 -0.0155811 -1.20169e-21)
(0.00992413 -0.0175397 -2.25499e-21)
(0.0120881 -0.0176349 -2.16299e-21)
(0.0138632 -0.0161171 2.04199e-21)
(0.0152897 -0.0131598 1.96486e-21)
(0.0164232 -0.00887012 -2.09868e-23)
(0.01736 -0.00329233 3.57888e-21)
(0.0180288 0.00353689 3.48222e-21)
(0.0020744 -0.00470586 -1.31088e-21)
(0.00621258 -0.0117549 -2.62218e-21)
(0.0102859 -0.0159381 -4.98824e-21)
(0.0137056 -0.017907 2.29282e-21)
(0.0165016 -0.0180279 0)
(0.0187194 -0.0165827 0)
(0.0204223 -0.0137673 -4.04434e-21)
(0.0216855 -0.00969737 -3.84187e-21)
(0.0226312 -0.00440386 3.63204e-21)
(0.0231943 0.00208474 1.04959e-20)
(0.00284314 -0.00494762 1.33712e-21)
(0.00830817 -0.0121758 1.3671e-21)
(0.0135446 -0.0163288 -7.41553e-21)
(0.0178549 -0.018241 1.17753e-20)
(0.0213131 -0.0183234 -2.19426e-21)
(0.0240029 -0.0168922 0)
(0.0260204 -0.0141661 0)
(0.0274662 -0.0102697 1.91484e-20)
(0.0284866 -0.00521978 -1.81349e-20)
(0.0290223 0.000959209 3.44484e-21)
(0.00376021 -0.00526816 1.04424e-20)
(0.0106699 -0.0126562 0)
(0.0170988 -0.0167187 9.90279e-21)
(0.0222925 -0.0185165 -9.40012e-21)
(0.0263886 -0.018512 0)
(0.0295239 -0.0170571 4.28327e-21)
(0.0318388 -0.0143927 -1.20205e-20)
(0.033468 -0.0106504 -1.53092e-20)
(0.0345816 -0.00582798 7.1887e-21)
(0.035122 6.24572e-05 6.98799e-21)
(0.00484239 -0.00563731 -2.09127e-20)
(0.0132915 -0.0131444 -2.67229e-21)
(0.0208937 -0.017061 -5.04737e-21)
(0.0269096 -0.0187023 -1.18545e-20)
(0.0315624 -0.0185863 -4.53622e-21)
(0.035058 -0.0170993 -4.29214e-21)
(0.0375933 -0.0145042 2.18857e-23)
(0.0393482 -0.0109393 0)
(0.0405225 -0.00637685 0)
(0.0410539 -0.000787782 4.05637e-23)
(0.00609431 -0.00601445 1.04706e-20)
(0.0161431 -0.0135758 -1.06921e-20)
(0.0248477 -0.0173011 7.49346e-21)
(0.0315712 -0.0187658 1.6698e-20)
(0.0366466 -0.0185417 -4.45739e-21)
(0.0403643 -0.0170463 4.27453e-21)
(0.0429876 -0.0145634 4.04083e-21)
(0.0447519 -0.0112436 0)
(0.0459043 -0.0070357 0)
(0.0463885 -0.00183485 -1.62156e-22)
(0.0075061 -0.00635271 -1.32465e-21)
(0.0191681 -0.0138802 1.34195e-20)
(0.0288524 -0.0173841 -2.51335e-21)
(0.0361222 -0.0186787 0)
(0.0414457 -0.0183805 0)
(0.0452111 -0.0169286 8.49758e-21)
(0.0477534 -0.0146235 0)
(0.0493642 -0.0116366 -7.4855e-21)
(0.0503495 -0.00792539 5.50118e-24)
(0.050712 -0.00332849 6.71252e-21)
(0.0119819 0.0297817 1.29569e-22)
(0.0213381 0.0773786 -1.31009e-22)
(0.029721 0.130355 -1.46291e-22)
(0.0320621 0.180464 -1.64527e-22)
(0.0290333 0.229213 -2.00594e-22)
(0.0257879 0.280475 -7.74395e-24)
(0.0156837 0.340803 1.04539e-22)
(0.0131892 0.428397 3.78717e-22)
(-0.00428193 0.564019 0)
(0.00370619 0.724893 -2.7636e-22)
(0.0124193 0.0268758 5.03273e-22)
(0.0193256 0.0733072 -5.62552e-22)
(0.0275459 0.127631 1.00274e-21)
(0.030267 0.17949 1.64794e-22)
(0.0276424 0.229473 3.55745e-22)
(0.0246857 0.281549 6.12693e-22)
(0.0150405 0.342374 -2.27357e-22)
(0.0126078 0.430271 -2.54479e-22)
(-0.00411067 0.565173 4.86824e-22)
(0.00332231 0.724402 2.75708e-22)
(0.0141493 0.0239836 0)
(0.0180444 0.0686594 -5.51606e-22)
(0.0257253 0.12392 -2.9019e-22)
(0.0287149 0.177561 0)
(0.0264441 0.228898 -1.09718e-21)
(0.0237577 0.281864 3.433e-22)
(0.0145189 0.343187 3.82279e-22)
(0.0121054 0.431293 1.37162e-21)
(-0.00391551 0.565843 -4.85246e-22)
(0.00298464 0.723741 9.95201e-22)
(0.0171886 0.0212579 0)
(0.0176255 0.0636474 5.56221e-22)
(0.0242885 0.119288 0)
(0.0273985 0.174673 1.28821e-21)
(0.0254249 0.227477 -1.29491e-21)
(0.0229887 0.281422 -7.79805e-22)
(0.0141039 0.343238 -4.37849e-23)
(0.011692 0.431483 -1.34827e-21)
(-0.00369973 0.565867 -2.18634e-22)
(0.00267133 0.722747 -1.2227e-21)
(0.0214193 0.0188102 3.13757e-23)
(0.018189 0.0585074 -1.59399e-21)
(0.0232798 0.113848 4.10047e-23)
(0.0263132 0.170839 -1.17231e-21)
(0.0245707 0.22521 0)
(0.0223629 0.280239 -7.46863e-22)
(0.0137823 0.342578 -6.30441e-23)
(0.0113557 0.430997 1.68857e-21)
(-0.00348096 0.565517 2.21315e-22)
(0.00238327 0.721696 -2.22131e-22)
(0.0265602 0.0166881 -4.31136e-21)
(0.0197885 0.0534693 2.73289e-21)
(0.0227562 0.10776 1.15487e-21)
(0.0254589 0.166098 -1.15431e-21)
(0.0238692 0.222102 -6.18294e-22)
(0.0218689 0.278313 0)
(0.013553 0.341174 -1.49503e-21)
(0.011104 0.429656 7.55093e-22)
(-0.00325626 0.5643 8.13209e-22)
(0.00209814 0.720207 8.52393e-22)
(0.0321695 0.0148749 -5.1853e-22)
(0.0223451 0.0487324 0)
(0.0227704 0.101235 0)
(0.0248407 0.16052 0)
(0.0233063 0.218179 -6.58399e-22)
(0.0214887 0.275727 1.27475e-21)
(0.0133947 0.339242 1.45861e-21)
(0.0108979 0.427987 -2.28143e-21)
(-0.00305365 0.563173 4.0043e-22)
(0.00184104 0.718946 -1.24081e-21)
(0.0376774 0.013274 3.24888e-21)
(0.0255898 0.0443474 2.24211e-21)
(0.0233291 0.0944626 -2.22154e-21)
(0.0244621 0.154227 2.33038e-21)
(0.0228773 0.213424 -2.891e-21)
(0.0212221 0.272299 0)
(0.0133289 0.336338 -6.57765e-22)
(0.0107886 0.424982 3.22337e-23)
(-0.00283714 0.560491 -7.20117e-22)
(0.00156554 0.716912 -7.70848e-22)
(0.0424046 0.01154 -2.75931e-21)
(0.0290464 0.0399428 0)
(0.0243571 0.0872359 -2.50012e-21)
(0.0243068 0.147164 4.47835e-21)
(0.0225445 0.208138 -1.66333e-21)
(0.0210281 0.268799 -3.01951e-22)
(0.0132873 0.333827 6.5633e-22)
(0.0106463 0.423047 1.0217e-23)
(-0.00269506 0.559369 1.04258e-21)
(0.0013359 0.715724 1.1177e-21)
(0.0455376 0.0095738 -2.249e-21)
(0.0320996 0.0355697 2.20038e-21)
(0.0256976 0.0794729 2.79961e-22)
(0.0244633 0.138361 0)
(0.0223463 0.200275 0)
(0.0209566 0.262402 2.98805e-22)
(0.0134237 0.327999 1.25386e-21)
(0.0107466 0.416972 -1.21792e-21)
(-0.00245644 0.554222 -3.28529e-22)
(0.00105065 0.712902 3.17501e-22)
(0.0471803 0.0102695 0)
(0.0362815 0.0341411 0)
(0.0280448 0.0740602 0)
(0.0253634 0.132766 0)
(0.0226552 0.197336 0)
(0.0205136 0.262249 0)
(0.0130339 0.32969 0)
(0.00989974 0.419972 0)
(-0.00255898 0.556267 0)
(0.000583483 0.711549 0)
(0.0488511 0.0228719 0)
(0.0397717 0.0502666 0)
(0.0299366 0.0862558 0)
(0.0250572 0.139051 0)
(0.0219749 0.201479 0)
(0.0195394 0.266759 0)
(0.0125497 0.335781 0)
(0.00900069 0.427229 0)
(-0.0022853 0.561533 0)
(0.000223119 0.710417 0)
(0.0462338 0.025731 0)
(0.0407358 0.0574263 0)
(0.031851 0.0942088 0)
(0.0254482 0.144897 0)
(0.0214329 0.206289 0)
(0.0185217 0.271682 0)
(0.0119489 0.341515 0)
(0.00814496 0.433188 0)
(-0.00211574 0.565534 0)
(-7.26265e-05 0.709185 0)
(0.0418486 0.0272857 0)
(0.0391017 0.0627838 0)
(0.0322952 0.100788 0)
(0.0257926 0.15016 0)
(0.0211337 0.210907 0)
(0.0177314 0.27706 0)
(0.011466 0.34849 0)
(0.00752096 0.440993 0)
(-0.0017533 0.571095 0)
(-0.000211572 0.708408 0)
(0.0369931 0.0272529 0)
(0.0361264 0.066535 0)
(0.0313314 0.106534 0)
(0.0255598 0.155198 0)
(0.0208136 0.214896 0)
(0.017131 0.28101 0)
(0.0110775 0.353117 0)
(0.00694747 0.445771 0)
(-0.00162777 0.574192 0)
(-0.000398776 0.707283 0)
(0.0318753 0.0258677 0)
(0.0325118 0.0685798 0)
(0.0294093 0.111111 0)
(0.0245852 0.160126 0)
(0.0201327 0.219533 0)
(0.0164908 0.286254 0)
(0.0108068 0.359852 0)
(0.00663016 0.45334 0)
(-0.0012114 0.579459 0)
(-0.000423982 0.706475 0)
(0.0266853 0.0233347 0)
(0.0286847 0.0691554 0)
(0.0271933 0.114456 0)
(0.0234472 0.164234 0)
(0.0193812 0.223092 0)
(0.0158078 0.289439 0)
(0.010427 0.363234 0)
(0.00622709 0.456618 0)
(-0.00113202 0.581442 0)
(-0.000535298 0.705445 0)
(0.0214048 0.0195276 0)
(0.0246708 0.0680364 0)
(0.0244823 0.116184 0)
(0.0218595 0.16784 0)
(0.0184688 0.227691 0)
(0.0151792 0.295144 0)
(0.0102126 0.370488 0)
(0.00605791 0.464622 0)
(-0.000666275 0.586868 0)
(-0.000478205 0.704695 0)
(0.0167884 0.0161577 0)
(0.0216923 0.0670349 0)
(0.0227866 0.117656 0)
(0.0209181 0.170237 0)
(0.0178337 0.22985 0)
(0.0146323 0.296974 0)
(0.0098748 0.372369 0)
(0.00577211 0.466312 0)
(-0.00065723 0.587855 0)
(-0.000543815 0.704044 0)
(0.0113066 0.0059636 0)
(0.0166 0.0598903 0)
(0.0198374 0.115502 0)
(0.019722 0.172432 0)
(0.0175225 0.234652 0)
(0.0145462 0.303608 0)
(0.0100241 0.380757 0)
(0.00582321 0.475445 0)
(-7.20988e-05 0.593908 0)
(-0.000417867 0.703423 0)
(0.052726 0.00108074 1.9926e-21)
(0.0515964 0.00626694 -1.95768e-21)
(0.0468042 0.00641202 1.72678e-22)
(0.0413756 0.0054263 0)
(0.0357159 0.00326916 0)
(0.0298837 0.0002367 5.59645e-23)
(0.0240593 -0.00352791 -8.04481e-23)
(0.0182613 -0.00820554 7.90465e-23)
(0.012866 -0.0123508 -7.94179e-24)
(0.00686956 -0.0212211 7.8003e-24)
(0.0536669 -0.00270317 -2.62026e-21)
(0.0509454 -0.000670666 0)
(0.045498 -0.00188607 9.80771e-22)
(0.0398795 -0.00391718 -1.9629e-21)
(0.0341574 -0.00685408 9.87647e-22)
(0.0283124 -0.0104358 -5.46722e-23)
(0.0224784 -0.0145843 5.6185e-23)
(0.0167206 -0.0194911 2.93689e-23)
(0.0111946 -0.0238701 -1.46054e-23)
(0.00558625 -0.0319227 -1.76575e-23)
(0.0538643 -0.00648009 2.96091e-21)
(0.0498601 -0.00723548 -1.39588e-21)
(0.0440479 -0.00984642 1.38249e-21)
(0.0383176 -0.0129729 -7.90073e-22)
(0.0325563 -0.016715 6.17466e-22)
(0.0267005 -0.0208452 0)
(0.0208689 -0.0253404 -5.63134e-23)
(0.0151689 -0.0303679 1.09262e-24)
(0.00962032 -0.0348129 -1.93227e-24)
(0.00447973 -0.0418209 2.44131e-23)
(0.0534049 -0.0107359 -4.52201e-22)
(0.0483719 -0.0138728 0)
(0.0424236 -0.017719 0)
(0.0366613 -0.0218365 0)
(0.0309118 -0.0262937 4.16179e-22)
(0.0250758 -0.0308901 -2.58111e-22)
(0.0192778 -0.0356423 1.80502e-23)
(0.0136544 -0.0406653 -4.78256e-24)
(0.00819372 -0.0450015 3.0359e-24)
(0.00351131 -0.0508972 1.10853e-23)
(0.052255 -0.0155838 -3.00374e-22)
(0.0464256 -0.0206905 -1.21548e-21)
(0.0405224 -0.0255703 -5.04792e-22)
(0.0348069 -0.0305057 5.04437e-22)
(0.029132 -0.0355362 -1.56084e-22)
(0.0233809 -0.0404751 0)
(0.0176772 -0.0453648 -5.68981e-23)
(0.0121874 -0.0502565 3.86086e-23)
(0.00692519 -0.0543335 -1.56584e-23)
(0.00271025 -0.0591498 -1.42812e-23)
(0.0504936 -0.0209812 -3.35929e-21)
(0.0441173 -0.0276327 5.51615e-22)
(0.0383961 -0.0333559 1.36831e-22)
(0.0327923 -0.0389141 4.97112e-22)
(0.0272513 -0.0443615 0)
(0.0216414 -0.0495048 0)
(0.0160913 -0.0544068 0)
(0.0107967 -0.0590562 3.01645e-23)
(0.00581988 -0.0627662 0)
(0.00207138 -0.0665963 0)
(0.0481676 -0.0268459 0)
(0.0415458 -0.0345759 9.70701e-22)
(0.0361111 -0.0409808 -6.26764e-22)
(0.0306768 -0.0469684 -3.70622e-22)
(0.0253205 -0.0526813 3.72527e-22)
(0.0199014 -0.0578955 8.51282e-23)
(0.014557 -0.0626961 -1.04083e-22)
(0.00951104 -0.0670193 -1.25064e-22)
(0.00487643 -0.0703026 1.02701e-23)
(0.00157229 -0.0732731 3.25279e-24)
(0.0453699 -0.0329717 0)
(0.0387934 -0.0413941 -3.44195e-22)
(0.0337238 -0.0483373 -1.40605e-22)
(0.0285109 -0.054575 0)
(0.023383 -0.0604188 5.34872e-23)
(0.0181994 -0.0655875 -1.91935e-22)
(0.0131041 -0.0701952 9.35144e-23)
(0.00834873 -0.0741408 8.10022e-24)
(0.00408548 -0.0769804 -9.31073e-24)
(0.00118883 -0.0792311 -2.07199e-24)
(0.0422225 -0.0392059 4.52723e-22)
(0.0359324 -0.0479729 3.13248e-22)
(0.0312848 -0.0553288 -1.04614e-22)
(0.0263411 -0.0616591 5.56835e-23)
(0.0214774 -0.0675212 8.09705e-23)
(0.0165674 -0.0725519 8.58996e-23)
(0.0117541 -0.0769023 -1.93478e-23)
(0.00731738 -0.0804507 -1.12031e-23)
(0.00343162 -0.0828637 9.34119e-24)
(0.000898288 -0.0845319 9.71139e-25)
(0.0388364 -0.0454264 -9.58522e-23)
(0.0330261 -0.0542272 9.6738e-23)
(0.0288399 -0.0618847 -7.10386e-23)
(0.0242098 -0.0681758 -5.55993e-23)
(0.0196368 -0.0739664 3.62276e-23)
(0.0150303 -0.0787934 -6.60968e-23)
(0.0105202 -0.0828488 2.73057e-23)
(0.00641581 -0.0860072 3.19108e-24)
(0.00289619 -0.0880329 0)
(0.000680032 -0.0892439 -9.73243e-25)
(0.03533 -0.0515416 9.79561e-23)
(0.0301414 -0.060108 -9.8831e-23)
(0.026437 -0.0679666 -7.43623e-23)
(0.0221595 -0.0741146 -5.87928e-23)
(0.0178909 -0.0797641 -3.78233e-23)
(0.0136078 -0.0843476 5.44937e-24)
(0.00940891 -0.0880931 1.36733e-23)
(0.00563708 -0.0908886 2.2551e-23)
(0.00246009 -0.0925777 0)
(0.000516413 -0.0934397 -2.09342e-24)
(0.0318221 -0.0574994 0)
(0.027349 -0.0656027 -3.32981e-22)
(0.0241228 -0.0735674 5.63279e-22)
(0.0202292 -0.0794972 5.88797e-23)
(0.0162648 -0.0849521 9.36262e-23)
(0.012313 -0.0892751 1.01623e-22)
(0.00842146 -0.092713 -2.23118e-23)
(0.00497077 -0.0951848 -1.38109e-23)
(0.00210569 -0.096591 1.64494e-23)
(0.000393452 -0.0971934 2.08851e-24)
(0.0284083 -0.0632847 0)
(0.0247066 -0.070733 -3.81969e-22)
(0.02193 -0.0787066 -1.53698e-22)
(0.0184451 -0.0843726 0)
(0.0147728 -0.08959 -2.59606e-22)
(0.0111505 -0.0936545 9.80635e-23)
(0.00755318 -0.0967978 6.14215e-23)
(0.00440408 -0.0989907 1.06029e-22)
(0.00181734 -0.100165 -1.63957e-23)
(0.000300341 -0.100579 1.17206e-23)
(0.0251559 -0.0689094 0)
(0.0222547 -0.0755527 3.85137e-22)
(0.0198769 -0.0834247 0)
(0.0168191 -0.0888116 4.56081e-22)
(0.0134196 -0.0937538 -4.58445e-22)
(0.0101164 -0.097575 -1.26439e-22)
(0.00679494 -0.100442 2.55706e-23)
(0.00392308 -0.102401 -1.09399e-22)
(0.00158154 -0.103387 -2.02185e-23)
(0.000228722 -0.10367 -1.79054e-23)
(0.022111 -0.0743995 3.90806e-21)
(0.0200247 -0.0801435 -1.46846e-21)
(0.0179763 -0.0877779 -1.38004e-22)
(0.015355 -0.0928989 -6.04062e-22)
(0.0122054 -0.0975289 0)
(0.00920302 -0.10113 -1.33486e-22)
(0.00613624 -0.103742 4.22081e-23)
(0.00351463 -0.105508 1.6205e-22)
(0.00138748 -0.106343 6.78199e-24)
(0.000172441 -0.106537 -6.78012e-24)
(0.0192973 -0.0797791 3.18933e-22)
(0.0180413 -0.0846111 2.28661e-21)
(0.0162413 -0.0918319 6.28834e-22)
(0.0140519 -0.0967258 -6.28442e-22)
(0.0111295 -0.101005 -2.22456e-22)
(0.00840173 -0.104414 0)
(0.00556734 -0.106787 -2.17405e-22)
(0.00316767 -0.108397 1.16502e-22)
(0.00122701 -0.10911 6.03827e-23)
(0.000127213 -0.109249 1.51961e-23)
(0.016726 -0.0850511 -5.44501e-22)
(0.0163321 -0.089079 0)
(0.0146963 -0.0956589 0)
(0.0129117 -0.100383 0)
(0.0101949 -0.104272 -1.77404e-22)
(0.00770686 -0.107513 3.99405e-22)
(0.00508138 -0.109664 2.22623e-22)
(0.00287416 -0.111148 -2.65701e-22)
(0.0010947 -0.111761 1.5459e-23)
(9.01883e-05 -0.111871 -3.03596e-23)
(0.0143866 -0.0901779 -1.23727e-21)
(0.0149022 -0.0936798 1.69384e-21)
(0.01336 -0.099334 -1.67783e-21)
(0.0119246 -0.103956 1.0948e-21)
(0.00939878 -0.107415 -1.32865e-21)
(0.00710906 -0.110509 0)
(0.00467025 -0.112449 -1.32665e-22)
(0.00262655 -0.113833 -4.90044e-24)
(0.000986145 -0.114365 -5.02304e-23)
(5.92369e-05 -0.114466 -1.67781e-23)
(0.0121085 -0.0950417 -5.88233e-22)
(0.0135719 -0.0985407 0)
(0.0121498 -0.102937 -1.65805e-21)
(0.0110038 -0.10752 2.58703e-21)
(0.00868618 -0.110514 -8.91525e-22)
(0.00656578 -0.113477 -9.68335e-23)
(0.00430637 -0.115214 1.32363e-22)
(0.00240759 -0.116517 1.67999e-23)
(0.000893774 -0.116982 1.02803e-22)
(3.37525e-05 -0.117095 3.33739e-23)
(0.00993116 -0.099341 -2.36819e-21)
(0.0122735 -0.103778 2.31717e-21)
(0.011079 -0.106575 2.12906e-22)
(0.0101455 -0.111156 0)
(0.00804976 -0.113654 0)
(0.0060755 -0.116491 9.96605e-23)
(0.00398725 -0.118029 2.44173e-22)
(0.00221776 -0.119264 -2.3965e-22)
(0.000819654 -0.119675 -1.82497e-23)
(2.3414e-05 -0.119818 1.78717e-23)
(0.00911481 -0.106506 0)
(0.0122774 -0.116306 0)
(0.0107452 -0.115164 0)
(0.0096373 -0.119942 0)
(0.00759614 -0.121358 0)
(0.00564642 -0.123992 0)
(0.00369875 -0.125091 0)
(0.00205527 -0.126189 0)
(0.000786976 -0.126455 0)
(5.17816e-05 -0.126631 0)
(0.0098065 -0.12755 0)
(0.00912401 -0.138721 0)
(0.00761863 -0.134623 0)
(0.00652869 -0.139462 0)
(0.00500512 -0.139148 0)
(0.00371354 -0.141462 0)
(0.00238889 -0.141683 0)
(0.00134692 -0.142573 0)
(0.000515263 -0.142515 0)
(5.08654e-05 -0.142716 0)
(0.010512 -0.154078 0)
(0.00862854 -0.166265 0)
(0.00699119 -0.159917 0)
(0.0055906 -0.165109 0)
(0.00421044 -0.163305 0)
(0.00303545 -0.165661 0)
(0.00195184 -0.165112 0)
(0.00111884 -0.166023 0)
(0.000457176 -0.165648 0)
(6.11193e-05 -0.165931 0)
(0.0109539 -0.186821 0)
(0.00822214 -0.199903 0)
(0.00658041 -0.192118 0)
(0.00490523 -0.197943 0)
(0.0036989 -0.194965 0)
(0.00255951 -0.197671 0)
(0.00168478 -0.196446 0)
(0.00096393 -0.197568 0)
(0.00042933 -0.196858 0)
(6.14305e-05 -0.197301 0)
(0.0110111 -0.225715 0)
(0.0078571 -0.238876 0)
(0.00627549 -0.230799 0)
(0.00439595 -0.237126 0)
(0.00335721 -0.233494 0)
(0.00219791 -0.236637 0)
(0.00150375 -0.234922 0)
(0.000822392 -0.236349 0)
(0.000401575 -0.235337 0)
(4.50743e-05 -0.236005 0)
(0.0104123 -0.26839 0)
(0.00725225 -0.280283 0)
(0.00580243 -0.273312 0)
(0.00388045 -0.279518 0)
(0.00300607 -0.276001 0)
(0.00184941 -0.279319 0)
(0.00131031 -0.277462 0)
(0.000642654 -0.279091 0)
(0.00033615 -0.277921 0)
(8.11638e-06 -0.278779 0)
(0.00903006 -0.310228 0)
(0.00622504 -0.319681 0)
(0.00498223 -0.314972 0)
(0.00323311 -0.320254 0)
(0.00252246 -0.317627 0)
(0.00145836 -0.320612 0)
(0.00104539 -0.319051 0)
(0.000421515 -0.320588 0)
(0.000225102 -0.319503 0)
(-3.5406e-05 -0.320383 0)
(0.00694488 -0.345883 0)
(0.00476141 -0.352501 0)
(0.00380386 -0.350462 0)
(0.00242214 -0.354324 0)
(0.00188804 -0.353002 0)
(0.00102996 -0.355232 0)
(0.000726564 -0.354271 0)
(0.000213074 -0.355418 0)
(0.000108287 -0.354632 0)
(-6.08372e-05 -0.35532 0)
(0.00435452 -0.371236 0)
(0.00297105 -0.375512 0)
(0.00237116 -0.375702 0)
(0.00149162 -0.378217 0)
(0.0011595 -0.378092 0)
(0.000602429 -0.3795 0)
(0.000412164 -0.379158 0)
(7.29868e-05 -0.379823 0)
(2.94986e-05 -0.37939 0)
(-5.5301e-05 -0.379786 0)
(0.00148358 -0.384222 0)
(0.00100446 -0.387226 0)
(0.000804969 -0.388643 0)
(0.000501455 -0.390369 0)
(0.000390766 -0.390932 0)
(0.000196503 -0.391827 0)
(0.000131748 -0.391862 0)
(1.20482e-05 -0.392214 0)
(1.7449e-06 -0.392016 0)
(-2.22798e-05 -0.392208 0)
(0.00952606 -0.114766 2.71144e-21)
(0.0111537 -0.137302 -2.66004e-21)
(0.0123154 -0.165122 3.4072e-22)
(0.0128964 -0.198342 0)
(0.0128727 -0.23649 0)
(0.0120518 -0.277017 3.98104e-22)
(0.0103867 -0.315717 -1.71585e-21)
(0.00797981 -0.3481 1.69076e-21)
(0.00501448 -0.370872 4.59697e-22)
(0.00170707 -0.382476 -4.52414e-22)
(0.00990304 -0.119235 -3.21723e-21)
(0.0119099 -0.141772 0)
(0.0131805 -0.16961 2.33832e-21)
(0.0137777 -0.20266 -5.40671e-21)
(0.0136925 -0.240285 3.47838e-21)
(0.0127671 -0.279881 -3.71356e-22)
(0.0109811 -0.317393 8.30041e-22)
(0.00843736 -0.348607 1.75633e-21)
(0.00530874 -0.370488 4.95047e-22)
(0.00180409 -0.381617 4.80597e-22)
(0.0104798 -0.12382 3.74097e-21)
(0.0129123 -0.146406 -2.56399e-21)
(0.0142325 -0.174114 2.53965e-21)
(0.0148115 -0.206851 -2.86331e-21)
(0.014634 -0.243835 2.11592e-21)
(0.0135755 -0.282433 0)
(0.0116377 -0.318756 -8.32042e-22)
(0.00892687 -0.348856 4.22318e-23)
(0.00561293 -0.369918 -9.22594e-22)
(0.0018993 -0.38062 -9.42481e-22)
(0.0113061 -0.127961 -6.02343e-22)
(0.0141155 -0.150639 0)
(0.0154496 -0.178252 0)
(0.0159897 -0.210701 0)
(0.0157017 -0.247077 2.36476e-21)
(0.014493 -0.284727 -1.5832e-21)
(0.0123793 -0.319921 -1.24831e-23)
(0.00947163 -0.348958 -9.8512e-22)
(0.00594524 -0.369232 -5.06138e-22)
(0.00200112 -0.379517 -5.42561e-22)
(0.012446 -0.131757 5.30981e-23)
(0.0155144 -0.154369 -1.80706e-21)
(0.0168212 -0.181837 -1.3855e-21)
(0.0173011 -0.214001 1.38462e-21)
(0.0168876 -0.249816 -7.70856e-22)
(0.0155179 -0.286612 0)
(0.0132125 -0.320794 -9.14061e-22)
(0.0100851 -0.348872 2.00816e-21)
(0.00631999 -0.368426 -1.02819e-21)
(0.00211719 -0.378322 1.06102e-21)
(0.0139299 -0.13525 -4.77848e-21)
(0.0171286 -0.157637 5.13562e-22)
(0.0183643 -0.184859 -1.07999e-22)
(0.0187544 -0.2167 1.4207e-21)
(0.0181956 -0.251971 0)
(0.0166505 -0.287995 0)
(0.0141375 -0.321289 0)
(0.0107697 -0.348537 1.07639e-21)
(0.00674107 -0.367469 0)
(0.00225066 -0.37703 0)
(0.0157691 -0.138354 0)
(0.0189707 -0.160414 1.97063e-21)
(0.0200992 -0.187312 -1.33359e-21)
(0.0203662 -0.218797 -1.60525e-21)
(0.0196391 -0.253539 1.61359e-21)
(0.017899 -0.288862 9.75357e-22)
(0.0151572 -0.321385 -9.66069e-22)
(0.0115257 -0.347929 -3.84506e-21)
(0.00720793 -0.366343 2.7367e-22)
(0.00240216 -0.375631 -9.40244e-22)
(0.0179737 -0.140969 0)
(0.0210466 -0.162632 -6.38549e-22)
(0.0220391 -0.189157 -3.62099e-22)
(0.0221488 -0.220282 0)
(0.0212315 -0.254526 4.74514e-22)
(0.0192739 -0.289229 -1.42837e-21)
(0.0162787 -0.321091 1.60332e-21)
(0.0123562 -0.347049 5.74236e-22)
(0.00772098 -0.365041 -6.29056e-22)
(0.0025722 -0.374116 1.24717e-21)
(0.0205554 -0.143021 5.66013e-22)
(0.023362 -0.164242 6.92797e-22)
(0.0241929 -0.190354 -1.51376e-22)
(0.0241102 -0.221131 2.08851e-22)
(0.022982 -0.254927 4.48214e-22)
(0.0207843 -0.289101 7.58438e-22)
(0.0175095 -0.320417 -2.86904e-22)
(0.0132664 -0.345904 -3.11045e-22)
(0.00828253 -0.363565 6.31127e-22)
(0.00276187 -0.372479 3.42517e-22)
(0.0235237 -0.14445 -1.58258e-22)
(0.0259224 -0.165218 1.59791e-22)
(0.0265687 -0.190877 -1.86104e-22)
(0.0262565 -0.22133 -2.08573e-22)
(0.0248981 -0.254732 2.5109e-22)
(0.0224373 -0.288476 -5.13632e-22)
(0.0188561 -0.319365 4.39315e-22)
(0.0142618 -0.344497 1.57714e-22)
(0.00889597 -0.361913 0)
(0.00297254 -0.370717 -3.43286e-22)
(0.0268858 -0.145215 1.61676e-22)
(0.0287306 -0.165555 -1.63288e-22)
(0.0291737 -0.190719 -1.99325e-22)
(0.0285927 -0.220879 -2.25301e-22)
(0.0269863 -0.253944 -2.62128e-22)
(0.0242386 -0.287359 -1.96098e-23)
(0.0203241 -0.317938 1.54664e-22)
(0.015347 -0.342827 5.01436e-22)
(0.00956442 -0.360083 0)
(0.00320522 -0.368826 -3.75143e-22)
(0.0306461 -0.145304 0)
(0.0317872 -0.165249 -7.58105e-22)
(0.0320122 -0.189888 1.37748e-21)
(0.0311224 -0.219785 2.25674e-22)
(0.0292524 -0.252567 5.29806e-22)
(0.0261944 -0.285753 8.7752e-22)
(0.0219202 -0.316135 -3.13854e-22)
(0.016528 -0.340895 -3.40382e-22)
(0.0102913 -0.358072 7.55124e-22)
(0.00346076 -0.366803 3.74273e-22)
(0.0348069 -0.144748 0)
(0.0350928 -0.164295 -7.41038e-22)
(0.0350835 -0.188421 -4.15211e-22)
(0.0338479 -0.21807 0)
(0.0317003 -0.250629 -1.67447e-21)
(0.0283084 -0.283676 5.58056e-22)
(0.0236466 -0.313976 6.73783e-22)
(0.0178069 -0.338696 2.18506e-21)
(0.0110788 -0.355875 -7.5267e-22)
(0.00373908 -0.364636 1.6273e-21)
(0.0393604 -0.143671 0)
(0.038649 -0.162664 7.47325e-22)
(0.0383797 -0.18636 0)
(0.0367728 -0.215744 2.12174e-21)
(0.0343329 -0.248139 -2.13264e-21)
(0.0305861 -0.281129 -1.32758e-21)
(0.025515 -0.311451 -3.33369e-23)
(0.0191939 -0.336223 -2.25045e-21)
(0.0119298 -0.353487 -3.75114e-22)
(0.00404122 -0.362317 -2.02414e-21)
(0.0442674 -0.142071 5.29461e-21)
(0.0424804 -0.160388 -2.03362e-21)
(0.0418794 -0.183732 2.50272e-22)
(0.0399008 -0.212831 -1.95471e-21)
(0.0371498 -0.245119 0)
(0.0330306 -0.278131 -1.38529e-21)
(0.0275257 -0.308575 -1.2342e-22)
(0.0206892 -0.333507 3.05682e-21)
(0.0128465 -0.35092 4.20587e-22)
(0.00436674 -0.359853 -4.22229e-22)
(0.0494881 -0.139916 -6.08639e-22)
(0.0465764 -0.157594 3.83942e-21)
(0.0455738 -0.180583 2.03277e-21)
(0.0432285 -0.209392 -2.03141e-21)
(0.0401499 -0.241602 -1.24909e-21)
(0.035645 -0.274699 0)
(0.0296827 -0.305347 -3.11917e-21)
(0.0222992 -0.330535 1.56456e-21)
(0.0138358 -0.348164 1.67711e-21)
(0.00471706 -0.357234 1.80495e-21)
(0.0549515 -0.137315 -7.25439e-22)
(0.0509273 -0.154315 0)
(0.0494505 -0.176968 0)
(0.0467481 -0.205484 0)
(0.0433301 -0.237654 -1.45669e-21)
(0.0384262 -0.270905 2.70107e-21)
(0.0319793 -0.301841 3.1787e-21)
(0.0240143 -0.327356 -5.0182e-21)
(0.0148897 -0.345248 9.01129e-22)
(0.00508713 -0.354471 -2.6808e-21)
(0.0605542 -0.134412 -1.04172e-21)
(0.055525 -0.150586 3.83205e-21)
(0.0534886 -0.17293 -3.79555e-21)
(0.050448 -0.201105 5.0247e-21)
(0.0466906 -0.233208 -6.32804e-21)
(0.0413893 -0.266622 0)
(0.0344464 -0.29791 -1.66237e-21)
(0.025873 -0.323849 -7.02952e-23)
(0.0160397 -0.342099 -1.87464e-21)
(0.00548808 -0.351517 -1.91238e-21)
(0.0661659 -0.13137 -7.67774e-22)
(0.0603788 -0.146543 0)
(0.0576654 -0.168671 -5.14082e-21)
(0.0542897 -0.196595 9.77259e-21)
(0.0501775 -0.228751 -3.80166e-21)
(0.0444548 -0.262423 -7.81989e-22)
(0.0369791 -0.294085 1.65873e-21)
(0.0277646 -0.320389 -8.72009e-23)
(0.0172028 -0.338912 2.73421e-21)
(0.00588511 -0.348473 2.8301e-21)
(0.0719552 -0.127119 -3.50182e-21)
(0.066047 -0.141112 3.43374e-21)
(0.0623843 -0.162851 5.46541e-22)
(0.0585914 -0.190358 0)
(0.0540999 -0.222471 0)
(0.0479686 -0.256515 7.7442e-22)
(0.0399564 -0.288895 3.58498e-21)
(0.0300431 -0.316027 -3.51038e-21)
(0.018629 -0.335212 -9.65862e-22)
(0.00637269 -0.345067 9.49828e-22)
(0.0819246 -0.126784 0)
(0.0789676 -0.138725 0)
(0.0727214 -0.160796 0)
(0.0677247 -0.187855 0)
(0.0620162 -0.219222 0)
(0.0546039 -0.252171 0)
(0.0452322 -0.283312 0)
(0.0338845 -0.30934 0)
(0.020967 -0.327856 0)
(0.00709716 -0.337566 0)
(0.0988445 -0.116618 0)
(0.100486 -0.132499 0)
(0.0910141 -0.156556 0)
(0.0848656 -0.183073 0)
(0.076947 -0.213186 0)
(0.0671833 -0.244128 0)
(0.055272 -0.27297 0)
(0.0412066 -0.296732 0)
(0.0254467 -0.313164 0)
(0.00873766 -0.321142 0)
(0.119564 -0.106757 0)
(0.123319 -0.12471 0)
(0.110842 -0.148911 0)
(0.103867 -0.174104 0)
(0.093204 -0.202449 0)
(0.0806828 -0.230874 0)
(0.0657606 -0.257305 0)
(0.048636 -0.279358 0)
(0.029833 -0.295311 0)
(0.00991568 -0.30417 0)
(0.145154 -0.0996029 0)
(0.149378 -0.117967 0)
(0.133604 -0.141121 0)
(0.125741 -0.164917 0)
(0.111695 -0.191553 0)
(0.0961995 -0.217494 0)
(0.0778439 -0.24154 0)
(0.057244 -0.261238 0)
(0.0350318 -0.274625 0)
(0.012134 -0.280371 0)
(0.17503 -0.0909794 0)
(0.177656 -0.107803 0)
(0.158299 -0.12859 0)
(0.1488 -0.149901 0)
(0.130215 -0.173442 0)
(0.111126 -0.195857 0)
(0.0885909 -0.217141 0)
(0.0642701 -0.235235 0)
(0.0387547 -0.249275 0)
(0.0122782 -0.258864 0)
(0.208558 -0.0838498 0)
(0.208947 -0.0985504 0)
(0.186088 -0.117574 0)
(0.174548 -0.136496 0)
(0.15087 -0.157309 0)
(0.128546 -0.177085 0)
(0.101693 -0.196534 0)
(0.0734677 -0.212727 0)
(0.0443055 -0.223867 0)
(0.0162652 -0.226061 0)
(0.243798 -0.0698886 0)
(0.238345 -0.0812394 0)
(0.212681 -0.0967124 0)
(0.197118 -0.11109 0)
(0.167589 -0.127311 0)
(0.141184 -0.142718 0)
(0.108134 -0.158379 0)
(0.0752951 -0.172482 0)
(0.042707 -0.186912 0)
(0.00979308 -0.205131 0)
(0.277043 -0.0616163 0)
(0.268277 -0.0690843 0)
(0.241436 -0.0820935 0)
(0.222228 -0.0930629 0)
(0.190025 -0.107542 0)
(0.16104 -0.121349 0)
(0.124523 -0.13719 0)
(0.0885275 -0.152402 0)
(0.0516195 -0.167351 0)
(0.0271999 -0.162007 0)
(0.315759 -0.0347424 0)
(0.30436 -0.0379921 0)
(0.263316 -0.0458196 0)
(0.23812 -0.0510876 0)
(0.193129 -0.0595823 0)
(0.155284 -0.0664776 0)
(0.104797 -0.074986 0)
(0.05515 -0.0835595 0)
(0.0102133 -0.101835 0)
(-0.0439706 -0.153749 0)
(0.597173 -0.0183574 0)
(0.578331 -0.0212989 0)
(0.539925 -0.0254998 0)
(0.510247 -0.0296769 0)
(0.463279 -0.0356809 0)
(0.420259 -0.0426692 0)
(0.359965 -0.0530418 0)
(0.293751 -0.0689231 0)
(0.206912 -0.0985786 0)
(0.149557 -0.157449 0)
(0.0972793 -0.114008 3.56324e-21)
(0.116216 -0.103812 -3.50842e-21)
(0.137291 -0.0942602 5.94739e-22)
(0.162339 -0.0872863 0)
(0.192306 -0.0792131 0)
(0.224621 -0.0728748 9.4499e-22)
(0.259632 -0.0605238 -4.5474e-21)
(0.291488 -0.054106 4.48097e-21)
(0.342034 -0.0302985 1.28508e-21)
(0.617793 -0.0161113 -1.30708e-21)
(0.102715 -0.108404 -3.25084e-21)
(0.12159 -0.0982273 0)
(0.142424 -0.0890578 4.3152e-21)
(0.16718 -0.0822868 -1.05075e-20)
(0.197104 -0.0745184 7.14011e-21)
(0.229413 -0.0685649 -8.8908e-22)
(0.264447 -0.0568126 1.92953e-21)
(0.29668 -0.0511376 4.40773e-21)
(0.351746 -0.028574 1.18586e-21)
(0.625941 -0.0151594 1.22367e-21)
(0.107412 -0.102269 3.73541e-21)
(0.126222 -0.0923845 -3.9484e-21)
(0.146692 -0.0837633 3.91099e-21)
(0.171281 -0.077256 -5.60302e-21)
(0.200956 -0.0698786 4.05125e-21)
(0.233387 -0.0643862 0)
(0.268302 -0.0532842 -1.93414e-21)
(0.301467 -0.0483296 -5.22784e-23)
(0.360368 -0.0269988 -2.24636e-21)
(0.633741 -0.0142498 -2.41998e-21)
(0.111865 -0.0957357 -6.41018e-22)
(0.130946 -0.0863863 0)
(0.151141 -0.078417 0)
(0.17563 -0.072216 0)
(0.205047 -0.0652846 4.63012e-21)
(0.237552 -0.0603038 -3.16241e-21)
(0.272129 -0.0499161 -1.415e-22)
(0.306339 -0.045619 -2.24061e-21)
(0.368406 -0.0255655 -1.13756e-21)
(0.641343 -0.0134246 -1.17768e-21)
(0.115804 -0.0888994 7.08328e-22)
(0.135331 -0.080316 -2.05319e-21)
(0.15537 -0.0730575 -2.2486e-21)
(0.179777 -0.067214 2.24719e-21)
(0.209044 -0.060775 -1.44671e-21)
(0.24164 -0.0563022 0)
(0.275864 -0.0466935 -1.86959e-21)
(0.311128 -0.0429909 4.22123e-21)
(0.375989 -0.0242484 -2.11781e-21)
(0.648646 -0.0126976 2.33759e-21)
(0.119087 -0.0817899 -4.81121e-21)
(0.139125 -0.0741978 1.77282e-22)
(0.159082 -0.0676934 -3.90763e-22)
(0.183393 -0.0622694 2.18954e-21)
(0.212559 -0.0563676 0)
(0.245253 -0.0524012 0)
(0.279313 -0.0436108 0)
(0.315515 -0.0404541 2.00146e-21)
(0.383056 -0.0230356 0)
(0.655533 -0.0120605 0)
(0.121641 -0.0744385 0)
(0.142283 -0.0680326 2.50005e-21)
(0.162231 -0.0623172 -1.743e-21)
(0.186433 -0.0573764 -2.52944e-21)
(0.215498 -0.052052 2.54257e-21)
(0.24827 -0.0486118 1.67678e-21)
(0.282335 -0.0406576 -1.56975e-21)
(0.319368 -0.0380198 -6.87164e-21)
(0.389465 -0.0219233 4.84799e-22)