/*--------------------------------*- C++ -*----------------------------------*\
  =========                 |
  \\      /  F ield         | OpenFOAM: The Open Source CFD Toolbox
   \\    /   O peration     | Website:  https://openfoam.org
    \\  /    A nd           | Version:  7
     \\/     M anipulation  |
\*---------------------------------------------------------------------------*/
FoamFile
{
    version     2.0;
    format      ascii;
    class       volVectorField;
    location    "90.7";
    object      U;
}
// * * * * * * * * * * * * * * * * * * * * * * * * * * * * * * * * * * * * * //

dimensions      [0 1 -1 0 0 0 0];

internalField   nonuniform List<vector> 
2000
(
(-0.000103986 -0.0048542 -1.96302e-22)
(1.51227e-05 -0.0115126 0)
(0.00047705 -0.0153701 0)
(0.00123159 -0.0168549 -1.00543e-21)
(0.00223063 -0.0162407 3.26913e-22)
(0.00345078 -0.0137082 1.30858e-23)
(0.00489035 -0.00938538 -5.62817e-22)
(0.00655412 -0.00338291 0)
(0.00844397 0.00417883 0)
(0.010452 0.0131545 0)
(0.000363249 -0.00470786 0)
(0.00132995 -0.0115318 -7.67031e-22)
(0.00254137 -0.0156033 7.07356e-22)
(0.00381972 -0.0173259 1.34315e-21)
(0.00512639 -0.0169803 0)
(0.00644849 -0.0147644 1.22861e-21)
(0.00779882 -0.0108158 -1.14253e-21)
(0.00920288 -0.00523712 0)
(0.0106983 0.00188396 2.10277e-21)
(0.0121882 0.0104505 -4.04925e-21)
(0.000870399 -0.00464315 0)
(0.00282971 -0.0116482 6.12598e-21)
(0.00496212 -0.0158871 0)
(0.00692698 -0.0177863 5.47631e-21)
(0.00869535 -0.0176447 0)
(0.0102656 -0.015686 -4.94119e-21)
(0.011665 -0.0120653 0)
(0.0129387 -0.00688448 4.48925e-21)
(0.0141601 -0.000203911 -4.20446e-21)
(0.0152408 0.00791934 -4.12669e-21)
(0.0014483 -0.00468121 -1.59259e-21)
(0.00455451 -0.0118847 -3.05924e-21)
(0.00776338 -0.0162329 -1.43259e-21)
(0.0105562 -0.0182326 -2.6897e-21)
(0.0129187 -0.0182131 -2.57391e-21)
(0.0148659 -0.0164318 2.43096e-21)
(0.016443 -0.013068 2.33413e-21)
(0.0177149 -0.00823058 -2.50559e-23)
(0.0187897 -0.00195906 4.24371e-21)
(0.0195877 0.00571757 4.12477e-21)
(0.00213135 -0.00483394 -1.56464e-21)
(0.0065436 -0.0122485 -3.12118e-21)
(0.0109582 -0.0166386 -5.92735e-21)
(0.0146856 -0.0186549 2.72671e-21)
(0.0177375 -0.0186692 0)
(0.0201555 -0.0169781 0)
(0.0220102 -0.01379 -4.79481e-21)
(0.0233892 -0.00922589 -4.55097e-21)
(0.0244332 -0.00331021 4.29794e-21)
(0.0250739 0.00394403 1.24134e-20)
(0.00295445 -0.00509984 1.5916e-21)
(0.00882909 -0.0127257 1.62206e-21)
(0.0145414 -0.0170856 -8.79476e-21)
(0.0192622 -0.0190361 1.39668e-20)
(0.023047 -0.0190019 -2.60358e-21)
(0.025978 -0.0173224 0)
(0.0281621 -0.0142365 0)
(0.0297162 -0.00987994 2.26597e-20)
(0.0308115 -0.00426383 -2.14519e-20)
(0.0313933 0.00260706 4.07658e-21)
(0.00394839 -0.00546189 1.24085e-20)
(0.011429 -0.0132805 0)
(0.0184832 -0.0175384 1.17526e-20)
(0.0241987 -0.0193511 -1.11485e-20)
(0.0286971 -0.0192046 0)
(0.0321191 -0.0174819 5.06879e-21)
(0.034621 -0.014452 -1.42152e-20)
(0.0363594 -0.0102646 -1.81016e-20)
(0.0375357 -0.00491516 8.49558e-21)
(0.0381065 0.0016049 8.25233e-21)
(0.00513499 -0.00588799 -2.48208e-20)
(0.0143402 -0.0138566 -3.16401e-21)
(0.0227245 -0.0179468 -5.96258e-21)
(0.0293722 -0.0195689 -1.40154e-20)
(0.034498 -0.0192745 -5.36293e-21)
(0.0383198 -0.0174894 -5.06353e-21)
(0.0410582 -0.0145105 4.07511e-23)
(0.0429219 -0.0105014 0)
(0.0441489 -0.00543759 0)
(0.0447013 0.000729205 3.96135e-23)
(0.00652266 -0.00633332 1.24126e-20)
(0.0175328 -0.0143824 -1.26221e-20)
(0.0271743 -0.0182509 8.86434e-21)
(0.0346282 -0.0196561 1.97292e-20)
(0.0402317 -0.0192138 -5.26307e-21)
(0.0442991 -0.017387 5.06001e-21)
(0.047128 -0.0144983 4.77205e-21)
(0.0489897 -0.0107283 0)
(0.0501762 -0.00603566 0)
(0.0506663 -0.000301201 -1.93781e-22)
(0.00810337 -0.00674489 -1.56385e-21)
(0.0209458 -0.0147779 1.58378e-20)
(0.0317099 -0.0183894 -2.96341e-21)
(0.0397873 -0.0195836 0)
(0.0456693 -0.019032 0)
(0.0497846 -0.0172227 1.00178e-20)
(0.0525149 -0.0144959 0)
(0.0541967 -0.0110545 -8.79869e-21)
(0.0551852 -0.00686999 1.19426e-23)
(0.0555232 -0.00177615 7.88085e-21)
(0.0144702 0.0359321 1.54148e-22)
(0.0254371 0.0883607 -1.55874e-22)
(0.0339473 0.14439 -1.74459e-22)
(0.0358991 0.196585 -1.96337e-22)
(0.0323214 0.247728 -2.39096e-22)
(0.0286913 0.301688 -8.78927e-24)
(0.0180282 0.363792 1.25072e-22)
(0.0152224 0.450181 4.49154e-22)
(-0.00312597 0.582455 0)
(0.00442185 0.74043 -3.27755e-22)
(0.0144828 0.0324578 5.97498e-22)
(0.0230243 0.0838759 -6.68748e-22)
(0.0315613 0.141634 1.19273e-21)
(0.0339441 0.195695 1.96658e-22)
(0.0307957 0.248083 4.24171e-22)
(0.0274811 0.302858 7.2881e-22)
(0.0172967 0.36549 -2.70997e-22)
(0.0145788 0.452212 -3.01545e-22)
(-0.00298958 0.583839 5.81549e-22)
(0.00402384 0.740213 3.26981e-22)
(0.015915 0.028976 0)
(0.021342 0.0786894 -6.52765e-22)
(0.0295413 0.137806 -3.45113e-22)
(0.032249 0.193802 0)
(0.029476 0.247561 -1.30673e-21)
(0.0264558 0.303237 4.09029e-22)
(0.0166949 0.366417 4.56668e-22)
(0.0140222 0.453416 1.62732e-21)
(-0.00282498 0.584744 -5.79665e-22)
(0.00367086 0.739822 1.18123e-21)
(0.0188322 0.0256799 0)
(0.0205338 0.0730291 6.58232e-22)
(0.0279102 0.13296 0)
(0.0308044 0.190897 1.53195e-21)
(0.0283481 0.246153 -1.53991e-21)
(0.0255992 0.302827 -9.27804e-22)
(0.0162083 0.366563 -5.32953e-23)
(0.0135612 0.453783 -1.59646e-21)
(-0.00263509 0.584981 -2.59901e-22)
(0.00334243 0.739087 -1.45202e-21)
(0.023153 0.022723 3.55609e-23)
(0.0207496 0.0671641 -1.88531e-21)
(0.026706 0.127194 5.10507e-23)
(0.0296036 0.186988 -1.38776e-21)
(0.0273972 0.243859 0)
(0.024894 0.301647 -8.88213e-22)
(0.0158214 0.365992 -7.38613e-23)
(0.0131809 0.453496 2.0036e-21)
(-0.00243974 0.584866 2.63331e-22)
(0.00303981 0.738299 -2.64298e-22)
(0.0286031 0.020185 -5.09506e-21)
(0.0220894 0.0613704 3.22866e-21)
(0.0259833 0.120664 1.36458e-21)
(0.0286436 0.182108 -1.36392e-21)
(0.0266102 0.240679 -7.3383e-22)
(0.0243289 0.29968 0)
(0.0155333 0.364637 -1.77737e-21)
(0.0128911 0.452315 8.93662e-22)
(-0.00223152 0.583852 9.66927e-22)
(0.00274189 0.737058 1.01045e-21)
(0.0347055 0.0180624 -6.12396e-22)
(0.024523 0.0558999 0)
(0.0258011 0.113587 0)
(0.0279263 0.176316 0)
(0.0259708 0.236651 -7.80509e-22)
(0.0238835 0.29705 1.51203e-21)
(0.0153195 0.362786 1.73399e-21)
(0.0126478 0.45087 -2.70559e-21)
(-0.00204642 0.582979 4.7586e-22)
(0.00247156 0.736049 -1.47205e-21)
(0.0408117 0.0162511 3.83313e-21)
(0.0278069 0.0508477 2.64054e-21)
(0.0261821 0.106183 -2.61639e-21)
(0.0274554 0.169726 2.75502e-21)
(0.0254762 0.231707 -3.41891e-21)
(0.0235595 0.293465 0)
(0.0152052 0.359838 -7.82348e-22)
(0.0125118 0.447979 3.82921e-23)
(-0.0018345 0.58049 -8.57463e-22)
(0.00218602 0.734255 -9.11572e-22)
(0.0461241 0.0143722 -3.25124e-21)
(0.031441 0.0458297 0)
(0.0270729 0.0982644 -2.94472e-21)
(0.0272059 0.162362 5.28352e-21)
(0.0250869 0.226337 -1.96351e-21)
(0.023312 0.289973 -3.57463e-22)
(0.0151112 0.357464 7.80648e-22)
(0.0123348 0.446308 1.04672e-23)
(-0.00170969 0.579628 1.24098e-21)
(0.0019422 0.733301 1.32281e-21)
(0.0496713 0.0123002 -2.64494e-21)
(0.0347216 0.0408551 2.58725e-21)
(0.0283571 0.0895889 3.28682e-22)
(0.0272792 0.152858 0)
(0.0248262 0.217958 0)
(0.0232027 0.28317 3.52681e-22)
(0.0152148 0.351441 1.48435e-21)
(0.0124266 0.440327 -1.44197e-21)
(-0.00145762 0.574713 -3.88125e-22)
(0.00165037 0.73073 3.75255e-22)
(0.0514255 0.0133258 0)
(0.0390988 0.0392331 0)
(0.0306879 0.0836915 0)
(0.0281176 0.147285 0)
(0.024981 0.215339 0)
(0.0225606 0.283354 0)
(0.0146622 0.35339 0)
(0.0114905 0.443595 0)
(-0.00162721 0.577103 0)
(0.00113853 0.729827 0)
(0.0529361 0.0272402 0)
(0.0426152 0.0565591 0)
(0.0322883 0.0960686 0)
(0.0275789 0.153519 0)
(0.0241804 0.219655 0)
(0.0214549 0.288137 0)
(0.0140549 0.359746 0)
(0.0104966 0.451233 0)
(-0.00144804 0.582992 0)
(0.000710533 0.729584 0)
(0.0500617 0.0308413 0)
(0.0435643 0.0646711 0)
(0.033948 0.104532 0)
(0.0276128 0.15963 0)
(0.0233993 0.224765 0)
(0.020257 0.293274 0)
(0.013332 0.365557 0)
(0.00955697 0.457293 0)
(-0.00132634 0.587308 0)
(0.000381285 0.728947 0)
(0.0452979 0.0328652 0)
(0.0418269 0.0707245 0)
(0.0342213 0.111501 0)
(0.0276477 0.165095 0)
(0.0228615 0.229715 0)
(0.0192867 0.298986 0)
(0.0127252 0.372772 0)
(0.00883025 0.465411 0)
(-0.000996563 0.593429 0)
(0.000221281 0.728978 0)
(0.0400379 0.0332022 0)
(0.0386546 0.0751268 0)
(0.0330948 0.117658 0)
(0.0271475 0.170247 0)
(0.0222949 0.233853 0)
(0.0184852 0.303092 0)
(0.0121996 0.377456 0)
(0.00816076 0.470259 0)
(-0.000899098 0.596773 0)
(2.09247e-05 0.728288 0)
(0.0344998 0.032066 0)
(0.0347809 0.0777375 0)
(0.0309641 0.122654 0)
(0.0259334 0.17533 0)
(0.0214328 0.238668 0)
(0.0177003 0.308564 0)
(0.011815 0.384383 0)
(0.00773053 0.478117 0)
(-0.000539327 0.602588 0)
(-3.85119e-05 0.72824 0)
(0.0289046 0.0296444 0)
(0.0307249 0.0788223 0)
(0.0285906 0.126464 0)
(0.0245534 0.179533 0)
(0.0204572 0.242208 0)
(0.0168654 0.311747 0)
(0.0113415 0.387729 0)
(0.00725754 0.481393 0)
(-0.000496309 0.604728 0)
(-0.000171357 0.727527 0)
(0.0232483 0.025789 0)
(0.0264389 0.0779797 0)
(0.0257039 0.128583 0)
(0.0228143 0.183395 0)
(0.0194043 0.24696 0)
(0.0161139 0.317579 0)
(0.0110328 0.395081 0)
(0.00698654 0.489616 0)
(-8.35471e-05 0.610669 0)
(-0.00014841 0.727539 0)
(0.0184227 0.0223212 0)
(0.0234125 0.0773859 0)
(0.0239369 0.130427 0)
(0.0216978 0.185803 0)
(0.0186069 0.249028 0)
(0.01547 0.319352 0)
(0.010642 0.396908 0)
(0.00666763 0.491272 0)
(-8.95679e-05 0.611718 0)
(-0.000223326 0.727055 0)
(0.0123779 0.0113155 0)
(0.0181616 0.0701301 0)
(0.0210932 0.128825 0)
(0.0205502 0.188455 0)
(0.0182148 0.253951 0)
(0.0152704 0.325989 0)
(0.0107044 0.405276 0)
(0.00662261 0.500547 0)
(0.000453316 0.618264 0)
(-0.000127995 0.727217 0)
(0.0577475 0.00326431 2.31368e-21)
(0.056195 0.00910606 -2.27373e-21)
(0.0509601 0.00958237 1.98222e-22)
(0.0450314 0.00876714 0)
(0.0388768 0.00670412 0)
(0.0325224 0.00368694 6.16555e-23)
(0.0261892 -0.000170085 -8.26923e-23)
(0.0199193 -0.00507914 8.12572e-23)
(0.0141542 -0.00951429 -9.97013e-24)
(0.00752449 -0.0191993 9.79379e-24)
(0.0587187 -0.000868762 -3.05357e-21)
(0.0554773 0.00152592 0)
(0.0495639 0.00045339 1.12081e-21)
(0.0434437 -0.00153715 -2.23519e-21)
(0.0372309 -0.00449288 1.1165e-21)
(0.0308617 -0.00815342 -6.0255e-23)
(0.0245143 -0.012475 5.92557e-23)
(0.0182751 -0.0176785 2.51601e-23)
(0.0123257 -0.0224154 -1.74155e-23)
(0.00612033 -0.0312542 -1.9792e-23)
(0.0589041 -0.00505111 3.44453e-21)
(0.0543186 -0.00569348 -1.60781e-21)
(0.0480338 -0.0083227 1.59237e-21)
(0.0417973 -0.0115364 -8.93445e-22)
(0.0355422 -0.0154135 6.99604e-22)
(0.0291557 -0.0197207 0)
(0.022802 -0.02447 -5.93912e-23)
(0.0166093 -0.0298489 1.26414e-24)
(0.0106012 -0.0346983 1.50454e-24)
(0.00490695 -0.0424235 2.85537e-23)
(0.0583961 -0.00983406 -5.24741e-22)
(0.0527341 -0.0130613 0)
(0.0463129 -0.0170489 0)
(0.0400444 -0.0213585 0)
(0.0337971 -0.0260508 4.64289e-22)
(0.0274268 -0.0309077 -2.87038e-22)
(0.0210985 -0.0359809 2.04493e-23)
(0.0149724 -0.0413921 -1.3776e-24)
(0.00903353 -0.046152 4.62136e-24)
(0.00384137 -0.0526703 1.25184e-23)
(0.057143 -0.0153217 -3.56332e-22)
(0.0506602 -0.0206778 -1.40654e-21)
(0.044289 -0.0257943 -5.76129e-22)
(0.0380695 -0.0310016 5.75721e-22)
(0.0318965 -0.0363452 -1.75034e-22)
(0.0256106 -0.0416064 0)
(0.0193747 -0.0468631 -6.01844e-23)
(0.0133785 -0.0521584 3.59042e-23)
(0.00763514 -0.0566513 -1.4017e-23)
(0.00295816 -0.0619842 -1.73282e-23)
(0.0552313 -0.0214383 -3.88801e-21)
(0.0482001 -0.0284586 6.42217e-22)
(0.0420239 -0.034494 1.61262e-22)
(0.0359159 -0.0403826 5.67426e-22)
(0.0298804 -0.0461996 0)
(0.0237386 -0.0517039 0)
(0.0176599 -0.0569968 0)
(0.0118626 -0.0620443 3.05191e-23)
(0.00641461 -0.0661408 0)
(0.00225368 -0.0703817 0)
(0.052725 -0.0280516 0)
(0.0454581 -0.0362475 1.11708e-21)
(0.0395871 -0.0430275 -7.2056e-22)
(0.0336499 -0.0493846 -4.19534e-22)
(0.0278054 -0.0555056 4.2169e-22)
(0.0218611 -0.0610985 9.32466e-23)
(0.0159968 -0.0662943 -1.14876e-22)
(0.0104589 -0.070993 -1.29543e-22)
(0.0053726 -0.0746188 1.05155e-23)
(0.00170421 -0.0779031 4.13908e-24)
(0.049716 -0.0349436 0)
(0.0425231 -0.0438874 -3.968e-22)
(0.0370383 -0.0512612 -1.61359e-22)
(0.0313263 -0.057891 0)
(0.0257201 -0.0641666 5.92786e-23)
(0.020022 -0.0697148 -2.14752e-22)
(0.0144202 -0.074707 1.01009e-22)
(0.00918946 -0.078994 7.42262e-24)
(0.00449995 -0.0821257 -9.3457e-24)
(0.0012833 -0.084607 -3.29521e-24)
(0.0463288 -0.0419328 5.25116e-22)
(0.0394704 -0.0512393 3.60674e-22)
(0.0344307 -0.0590766 -1.21145e-22)
(0.0289956 -0.0658077 6.35846e-23)
(0.0236673 -0.0721143 9.14368e-23)
(0.0182576 -0.0775133 9.58502e-23)
(0.0129549 -0.0822275 -2.13201e-23)
(0.008064 -0.0860778 -1.20634e-23)
(0.00378006 -0.0887324 9.37628e-24)
(0.000965761 -0.0905637 9.22972e-25)
(0.0426813 -0.0488714 -1.10914e-22)
(0.0363662 -0.0581998 1.11927e-22)
(0.0318128 -0.0663867 -8.16329e-23)
(0.0267039 -0.0730759 -6.34883e-23)
(0.0216831 -0.0793161 4.0913e-23)
(0.0165959 -0.084493 -7.43529e-23)
(0.0116162 -0.0888866 3.006e-23)
(0.00708169 -0.0923073 3.2638e-24)
(0.00319217 -0.0945285 0)
(0.000728497 -0.0958506 -9.24961e-25)
(0.0389033 -0.0556483 1.13463e-22)
(0.033282 -0.0647085 -1.1446e-22)
(0.0292363 -0.0731425 -8.5728e-23)
(0.0244977 -0.0796772 -6.7426e-23)
(0.0198003 -0.0857772 -4.2878e-23)
(0.0150587 -0.0906893 6.29405e-24)
(0.0104113 -0.0947463 1.53802e-23)
(0.00623485 -0.0977681 2.49324e-23)
(0.00271475 -0.0996134 0)
(0.000551678 -0.100548 -2.25379e-24)
(0.0351268 -0.0621996 0)
(0.0302948 -0.0707475 -3.84982e-22)
(0.0267532 -0.0793317 6.50794e-22)
(0.0224207 -0.0856313 6.75255e-23)
(0.0180462 -0.0915347 1.07047e-22)
(0.0136608 -0.0961664 1.15175e-22)
(0.00934153 -0.0998904 -2.49546e-23)
(0.0055117 -0.102559 -1.52453e-23)
(0.00232785 -0.104089 1.8112e-23)
(0.000419571 -0.104738 2.24848e-24)
(0.0314566 -0.0685057 0)
(0.0274664 -0.0763387 -4.43263e-22)
(0.0243986 -0.0849723 -1.77495e-22)
(0.0205017 -0.0909899 0)
(0.0164364 -0.0966515 -2.96544e-22)
(0.0124065 -0.101009 1.12425e-22)
(0.00840137 -0.104416 6.97687e-23)
(0.00489772 -0.106782 1.19094e-22)
(0.00201376 -0.108056 -1.80529e-23)
(0.000320079 -0.108499 1.3031e-23)
(0.0279661 -0.0745789 0)
(0.0248388 -0.0815412 4.46938e-22)
(0.0221916 -0.0901073 0)
(0.0187528 -0.0958303 5.24907e-22)
(0.0149751 -0.101209 -5.27629e-22)
(0.0112911 -0.105313 -1.43939e-22)
(0.00758039 -0.108425 2.98207e-23)
(0.00437718 -0.110542 -1.23264e-22)
(0.00175739 -0.111609 -2.27418e-23)
(0.000243933 -0.111909 -1.99429e-23)
(0.0247058 -0.0804501 4.555e-21)
(0.0224451 -0.0864466 -1.70977e-21)
(0.0201451 -0.0947974 -1.62434e-22)
(0.0171775 -0.100246 -6.99369e-22)
(0.0136619 -0.105301 0)
(0.0103054 -0.109183 -1.52528e-22)
(0.00686678 -0.112021 4.87955e-23)
(0.0039353 -0.113936 1.83671e-22)
(0.00154666 -0.114838 7.63805e-24)
(0.000184356 -0.115044 -7.63457e-24)
(0.021702 -0.0861497 3.80248e-22)
(0.0203119 -0.0911736 2.66257e-21)
(0.0182727 -0.0991148 7.2929e-22)
(0.0157745 -0.104341 -7.28839e-22)
(0.0124958 -0.109026 -2.5693e-22)
(0.0094395 -0.112719 0)
(0.00624973 -0.115303 -2.48583e-22)
(0.0035597 -0.117059 1.33185e-22)
(0.00137261 -0.117827 6.86058e-23)
(0.000136651 -0.117977 1.72677e-23)
(0.0189684 -0.091686 -6.35786e-22)
(0.0184713 -0.0958627 0)
(0.0166017 -0.103139 0)
(0.0145459 -0.108215 0)
(0.0114809 -0.112482 -2.0457e-22)
(0.00868703 -0.116019 4.60978e-22)
(0.00572183 -0.118364 2.54951e-22)
(0.00324146 -0.119996 -3.03845e-22)
(0.00122923 -0.120655 1.76057e-23)
(9.76711e-05 -0.120778 -3.45341e-23)
(0.0164968 -0.0970236 -1.45583e-21)
(0.0169324 -0.100664 1.97459e-21)
(0.0151529 -0.106955 -1.95593e-21)
(0.0134807 -0.111966 1.26986e-21)
(0.0106143 -0.115765 -1.54097e-21)
(0.00803748 -0.119173 0)
(0.00527425 -0.121289 -1.52776e-22)
(0.0029722 -0.122824 -5.92868e-24)
(0.00111172 -0.123394 -5.75381e-23)
(6.49847e-05 -0.123513 -1.92383e-23)
(0.0140888 -0.102038 -6.87881e-22)
(0.0154917 -0.105722 0)
(0.0138283 -0.110652 -1.93203e-21)
(0.0124772 -0.115678 3.01006e-21)
(0.0098325 -0.118965 -1.03633e-21)
(0.00744167 -0.122262 -1.12097e-22)
(0.00487559 -0.124157 1.52427e-22)
(0.00273234 -0.125617 1.92363e-23)
(0.00101146 -0.126113 1.17962e-22)
(3.76658e-05 -0.126249 3.82844e-23)
(0.011755 -0.106404 -2.77493e-21)
(0.0140672 -0.111166 2.71445e-21)
(0.0126411 -0.114352 2.48608e-22)
(0.0115291 -0.119444 0)
(0.00912663 -0.122181 0)
(0.0068974 -0.125373 1.15385e-22)
(0.00452253 -0.127047 2.81866e-22)
(0.00252199 -0.128446 -2.76636e-22)
(0.000930215 -0.128878 -2.10151e-23)
(2.62712e-05 -0.129051 2.05756e-23)
(0.0111203 -0.113488 0)
(0.0141679 -0.124215 0)
(0.012337 -0.123064 0)
(0.0110234 -0.128518 0)
(0.00866035 -0.130037 0)
(0.00644146 -0.133071 0)
(0.00421452 -0.134247 0)
(0.00234537 -0.135519 0)
(0.000896259 -0.13578 0)
(5.78393e-05 -0.135999 0)
(0.0112397 -0.135233 0)
(0.010368 -0.147368 0)
(0.00871231 -0.143001 0)
(0.00744599 -0.148534 0)
(0.00572202 -0.148127 0)
(0.00424871 -0.150848 0)
(0.00274004 -0.151025 0)
(0.00155171 -0.152092 0)
(0.000597323 -0.15197 0)
(6.02966e-05 -0.15223 0)
(0.0118398 -0.162536 0)
(0.00972948 -0.175744 0)
(0.00792259 -0.168921 0)
(0.0063357 -0.174839 0)
(0.00478761 -0.17278 0)
(0.00345438 -0.175569 0)
(0.00223234 -0.174869 0)
(0.00128613 -0.175977 0)
(0.000531678 -0.175475 0)
(7.21909e-05 -0.175844 0)
(0.0121206 -0.19652 0)
(0.00915055 -0.210724 0)
(0.00736057 -0.20227 0)
(0.00550564 -0.208883 0)
(0.00417066 -0.205499 0)
(0.00289433 -0.20869 0)
(0.00192075 -0.20721 0)
(0.00110696 -0.208572 0)
(0.000501406 -0.207669 0)
(7.27332e-05 -0.208237 0)
(0.0120441 -0.237397 0)
(0.00865423 -0.251757 0)
(0.00693885 -0.242889 0)
(0.00488628 -0.250062 0)
(0.00375009 -0.245919 0)
(0.00246719 -0.249607 0)
(0.00170551 -0.247556 0)
(0.000940877 -0.249278 0)
(0.000468421 -0.248015 0)
(5.28848e-05 -0.248862 0)
(0.0113187 -0.282799 0)
(0.00792694 -0.295827 0)
(0.00636209 -0.28811 0)
(0.00427524 -0.29514 0)
(0.00332852 -0.291112 0)
(0.00205686 -0.294988 0)
(0.00147239 -0.292773 0)
(0.00072529 -0.294728 0)
(0.000386391 -0.293282 0)
(7.64549e-06 -0.294361 0)
(0.0097754 -0.327675 0)
(0.00676456 -0.338036 0)
(0.00542749 -0.332797 0)
(0.00353365 -0.338761 0)
(0.00276883 -0.335743 0)
(0.00160187 -0.339208 0)
(0.00115618 -0.337345 0)
(0.000459346 -0.339175 0)
(0.00024869 -0.337844 0)
(-4.51231e-05 -0.338942 0)
(0.0074918 -0.365999 0)
(0.00514751 -0.373229 0)
(0.00411983 -0.370944 0)
(0.00262757 -0.375269 0)
(0.00205421 -0.373737 0)
(0.00111412 -0.376293 0)
(0.000785455 -0.375139 0)
(0.000213408 -0.376485 0)
(0.000107886 -0.375526 0)
(-7.50352e-05 -0.376376 0)
(0.00468392 -0.393166 0)
(0.00319802 -0.397813 0)
(0.00255573 -0.397992 0)
(0.0016082 -0.400769 0)
(0.00125221 -0.40059 0)
(0.000642167 -0.402169 0)
(0.000434501 -0.401739 0)
(5.74747e-05 -0.402498 0)
(1.88177e-05 -0.401971 0)
(-6.72334e-05 -0.40245 0)
(0.00159304 -0.407017 0)
(0.00107827 -0.410271 0)
(0.000865248 -0.411797 0)
(0.000538722 -0.413675 0)
(0.000420395 -0.414268 0)
(0.000207589 -0.415241 0)
(0.000136556 -0.41525 0)
(3.52525e-06 -0.41563 0)
(-3.99565e-06 -0.415388 0)
(-2.68812e-05 -0.415612 0)
(0.0113009 -0.12198 3.1973e-21)
(0.0126087 -0.145265 -3.13619e-21)
(0.0137179 -0.174043 4.0161e-22)
(0.0141557 -0.208689 0)
(0.0140182 -0.248913 0)
(0.0130663 -0.292102 4.65608e-22)
(0.0112284 -0.333624 -2.002e-21)
(0.00860783 -0.368405 1.97333e-21)
(0.00540146 -0.392776 5.35807e-22)
(0.0018377 -0.405136 -5.27342e-22)
(0.0116225 -0.126542 -3.79488e-21)
(0.0133892 -0.149817 0)
(0.0146175 -0.178657 2.74755e-21)
(0.0150789 -0.213183 -6.34412e-21)
(0.0148871 -0.252912 4.07435e-21)
(0.0138287 -0.295148 -4.33322e-22)
(0.0118656 -0.33541 9.66339e-22)
(0.00910198 -0.368938 2.04125e-21)
(0.00572176 -0.392357 5.74483e-22)
(0.00194396 -0.404215 5.57806e-22)
(0.012178 -0.131252 4.42071e-21)
(0.0144412 -0.154574 -3.02463e-21)
(0.0157199 -0.183301 2.99592e-21)
(0.0161678 -0.217536 -3.35692e-21)
(0.015887 -0.256633 2.48225e-21)
(0.0146901 -0.297838 0)
(0.0125678 -0.33684 -9.68674e-22)
(0.00962751 -0.369179 4.90992e-23)
(0.0060493 -0.39173 -1.07157e-21)
(0.00204655 -0.403142 -1.09426e-21)
(0.013012 -0.135499 -7.1283e-22)
(0.0157133 -0.158931 0)
(0.0170027 -0.187586 0)
(0.0174152 -0.221552 0)
(0.0170233 -0.260046 2.76618e-21)
(0.0156686 -0.300265 -1.85093e-21)
(0.0133603 -0.338065 -1.36675e-23)
(0.0102102 -0.369266 -1.14416e-21)
(0.00640445 -0.390977 -5.87522e-22)
(0.00215487 -0.401947 -6.29283e-22)
(0.0141904 -0.139383 5.98189e-23)
(0.0171968 -0.162762 -2.14243e-21)
(0.018452 -0.191296 -1.63193e-21)
(0.0188071 -0.225001 1.63089e-21)
(0.0182866 -0.262939 -9.02752e-22)
(0.0167622 -0.30227 0)
(0.0142511 -0.338991 -1.0643e-21)
(0.0108663 -0.369161 2.33334e-21)
(0.00680466 -0.390098 -1.1943e-21)
(0.00227818 -0.400652 1.23111e-21)
(0.0157457 -0.142956 -5.67964e-21)
(0.0189121 -0.166111 6.16631e-22)
(0.0200848 -0.194415 -1.20892e-22)
(0.0203509 -0.227815 1.6739e-21)
(0.0196795 -0.265213 0)
(0.0179704 -0.30374 0)
(0.0152401 -0.339517 0)
(0.0115991 -0.368794 1.25033e-21)
(0.0072552 -0.389062 0)
(0.00242047 -0.399256 0)
(0.0176891 -0.146126 0)
(0.0208729 -0.16895 2.33533e-21)
(0.0219232 -0.196936 -1.57895e-21)
(0.0220639 -0.229993 -1.88325e-21)
(0.0212162 -0.266859 1.89304e-21)
(0.0193016 -0.304657 1.1362e-21)
(0.0163302 -0.339613 -1.1263e-21)
(0.0124085 -0.368134 -4.4662e-21)
(0.00775533 -0.387845 3.17937e-22)
(0.00258244 -0.397745 -1.0898e-21)
(0.0200302 -0.148788 0)
(0.0230852 -0.171205 -7.58161e-22)
(0.0239815 -0.198819 -4.28022e-22)
(0.0239598 -0.231522 0)
(0.0229111 -0.267886 5.53383e-22)
(0.0207675 -0.305035 -1.66754e-21)
(0.0175287 -0.339287 1.86428e-21)
(0.0132974 -0.367179 6.66338e-22)
(0.00830499 -0.38644 -7.29325e-22)
(0.00276445 -0.396112 1.44576e-21)
(0.0227806 -0.150862 6.78763e-22)
(0.0255543 -0.172824 8.2127e-22)
(0.0262693 -0.200021 -1.81247e-22)
(0.0260469 -0.23238 2.45544e-22)
(0.0247747 -0.268288 5.24587e-22)
(0.0223778 -0.304883 8.84186e-22)
(0.0188439 -0.338553 -3.33468e-22)
(0.0142713 -0.36594 -3.60897e-22)
(0.00890628 -0.384848 7.31726e-22)
(0.00296753 -0.394348 3.96748e-22)
(0.02595 -0.152281 -1.88922e-22)
(0.0282855 -0.173779 1.90733e-22)
(0.0287951 -0.200512 -2.20034e-22)
(0.0283315 -0.232549 -2.45219e-22)
(0.0268149 -0.268055 2.93138e-22)
(0.0241404 -0.304199 -5.9914e-22)
(0.0202831 -0.337415 5.10423e-22)
(0.0153361 -0.364419 1.82876e-22)
(0.00956279 -0.383069 0)
(0.00319317 -0.392452 -3.97638e-22)
(0.029546 -0.152999 1.93211e-22)
(0.0312814 -0.174063 -1.9512e-22)
(0.0315664 -0.200285 -2.35711e-22)
(0.0308187 -0.232029 -2.64785e-22)
(0.0290384 -0.267188 -3.05905e-22)
(0.0260611 -0.302989 -2.21867e-23)
(0.0218522 -0.335876 1.7972e-22)
(0.0164967 -0.362618 5.81532e-22)
(0.0102776 -0.3811 0)
(0.00344249 -0.390419 -4.34171e-22)
(0.0335737 -0.153003 0)
(0.0345424 -0.173671 -8.99708e-22)
(0.0345877 -0.199346 1.6322e-21)
(0.033512 -0.230828 2.65225e-22)
(0.0314517 -0.265694 6.19221e-22)
(0.0281462 -0.301254 1.02162e-21)
(0.0235581 -0.333935 -3.64467e-22)
(0.0177598 -0.360534 -3.94625e-22)
(0.0110547 -0.378939 8.73943e-22)
(0.00371656 -0.388244 4.33163e-22)
(0.0380371 -0.152325 0)
(0.0380687 -0.1726 -8.83609e-22)
(0.0378587 -0.197733 -4.91031e-22)
(0.0364139 -0.228967 0)
(0.034059 -0.263598 -1.95397e-21)
(0.0303997 -0.299015 6.51905e-22)
(0.0254041 -0.331608 7.82199e-22)
(0.019127 -0.358172 2.5317e-21)
(0.0118951 -0.376579 -8.71104e-22)
(0.00401516 -0.385917 1.88166e-21)
(0.0429352 -0.151088 0)
(0.0418615 -0.170844 8.91113e-22)
(0.0413702 -0.195494 0)
(0.0395279 -0.226457 2.48488e-21)
(0.0368636 -0.260913 -2.49764e-21)
(0.0328279 -0.29627 -1.54207e-21)
(0.027399 -0.328887 -3.68619e-23)
(0.0206095 -0.355523 -2.60634e-21)
(0.0128058 -0.37401 -4.34452e-22)
(0.00433915 -0.383427 -2.34051e-21)
(0.0481993 -0.149321 6.38979e-21)
(0.0459468 -0.168414 -2.4529e-21)
(0.0451094 -0.192649 2.79688e-22)
(0.0428578 -0.22332 -2.30345e-21)
(0.039864 -0.257661 0)
(0.0354337 -0.293045 -1.60844e-21)
(0.029544 -0.325794 -1.3917e-22)
(0.0222069 -0.352609 3.53967e-21)
(0.0137866 -0.371254 4.86111e-22)
(0.00468759 -0.380783 -4.88001e-22)
(0.0538109 -0.146989 -6.83582e-22)
(0.0503189 -0.165402 4.60103e-21)
(0.049059 -0.189264 2.3954e-21)
(0.0464006 -0.219626 -2.39379e-21)
(0.0430597 -0.253879 -1.45797e-21)
(0.0382206 -0.28935 0)
(0.0318457 -0.32232 -3.61285e-21)
(0.0239279 -0.349411 1.81209e-21)
(0.0148459 -0.368295 1.93895e-21)
(0.00506288 -0.377974 2.08408e-21)
(0.0597037 -0.14419 -8.78063e-22)
(0.0549671 -0.16187 0)
(0.0532023 -0.185399 0)
(0.0501493 -0.215443 0)
(0.0464467 -0.249647 -1.69247e-21)
(0.0411834 -0.285282 3.14497e-21)
(0.0342935 -0.318562 3.68096e-21)
(0.0257571 -0.346005 -5.80398e-21)
(0.0159704 -0.365172 1.04051e-21)
(0.00545786 -0.375017 -3.09538e-21)
(0.0657691 -0.141067 -1.2942e-21)
(0.0598825 -0.157858 4.5552e-21)
(0.0575176 -0.181079 -4.5118e-21)
(0.0540938 -0.210744 5.87915e-21)
(0.0500294 -0.244861 -7.39941e-21)
(0.0443454 -0.280661 0)
(0.0369303 -0.31432 -1.92452e-21)
(0.027747 -0.342228 -8.02839e-23)
(0.0172031 -0.36179 -2.16356e-21)
(0.0058884 -0.371849 -2.20592e-21)
(0.0718642 -0.137847 -9.3124e-22)
(0.0650631 -0.153564 0)
(0.0619689 -0.176583 -6.06163e-21)
(0.0581805 -0.205973 1.14722e-20)
(0.0537346 -0.240139 -4.45216e-21)
(0.047601 -0.276207 -9.07685e-22)
(0.0396192 -0.310257 1.92031e-21)
(0.0297549 -0.338544 -9.90101e-23)
(0.0184374 -0.358389 3.15682e-21)
(0.00630929 -0.368597 3.26452e-21)
(0.0781576 -0.133335 -4.21967e-21)
(0.071128 -0.14774 4.13757e-21)
(0.0670097 -0.170363 6.46316e-22)
(0.0627775 -0.199279 0)
(0.0579284 -0.233372 0)
(0.0513641 -0.269824 8.9717e-22)
(0.0428136 -0.304653 4.13402e-21)
(0.0322039 -0.333846 -4.04714e-21)
(0.0199725 -0.354416 -1.11086e-21)
(0.0068367 -0.36494 1.09239e-21)
(0.0882974 -0.133139 0)
(0.0848278 -0.145205 0)
(0.0779624 -0.168307 0)
(0.0724785 -0.196749 0)
(0.0663612 -0.230049 0)
(0.0584458 -0.265308 0)
(0.0484514 -0.298771 0)
(0.0363101 -0.326739 0)
(0.0224678 -0.346566 0)
(0.00759867 -0.356936 0)
(0.10577 -0.12194 0)
(0.107671 -0.138306 0)
(0.0972873 -0.163724 0)
(0.0907439 -0.191645 0)
(0.0823183 -0.223695 0)
(0.0719341 -0.256818 0)
(0.0592501 -0.287781 0)
(0.0442094 -0.313265 0)
(0.0273216 -0.330813 0)
(0.0094009 -0.33929 0)
(0.127678 -0.111173 0)
(0.131942 -0.129782 0)
(0.118244 -0.155418 0)
(0.111021 -0.18198 0)
(0.0996818 -0.212239 0)
(0.0864021 -0.242683 0)
(0.0705176 -0.271048 0)
(0.0522018 -0.294669 0)
(0.0320304 -0.311674 0)
(0.0106318 -0.321084 0)
(0.154785 -0.10349 0)
(0.159731 -0.122564 0)
(0.142411 -0.14713 0)
(0.134498 -0.172257 0)
(0.119505 -0.200744 0)
(0.103108 -0.228452 0)
(0.083557 -0.254184 0)
(0.0615217 -0.275198 0)
(0.037697 -0.28942 0)
(0.0130892 -0.295514 0)
(0.186545 -0.0942282 0)
(0.189892 -0.11175 0)
(0.168737 -0.133882 0)
(0.159336 -0.156449 0)
(0.139371 -0.181639 0)
(0.119226 -0.205501 0)
(0.0951835 -0.228245 0)
(0.0691633 -0.24746 0)
(0.0417375 -0.262253 0)
(0.013208 -0.272238 0)
(0.222514 -0.0867212 0)
(0.223378 -0.10208 0)
(0.198584 -0.122393 0)
(0.187112 -0.142357 0)
(0.161515 -0.164517 0)
(0.138063 -0.185398 0)
(0.109341 -0.206041 0)
(0.0791569 -0.22303 0)
(0.0478593 -0.234695 0)
(0.0175959 -0.237117 0)
(0.260067 -0.0720519 0)
(0.25474 -0.0839489 0)
(0.22709 -0.100522 0)
(0.211332 -0.115648 0)
(0.179465 -0.132976 0)
(0.151971 -0.149246 0)
(0.116538 -0.165861 0)
(0.0815693 -0.180528 0)
(0.0464712 -0.195435 0)
(0.0108923 -0.213715 0)
(0.296064 -0.063016 0)
(0.286716 -0.0709558 0)
(0.258157 -0.0847821 0)
(0.238193 -0.0962078 0)
(0.203572 -0.111511 0)
(0.173209 -0.12578 0)
(0.133816 -0.142179 0)
(0.0955145 -0.157651 0)
(0.0559601 -0.172856 0)
(0.0288411 -0.168045 0)
(0.334163 -0.0353126 0)
(0.321786 -0.0387811 0)
(0.279675 -0.0470875 0)
(0.25358 -0.0525434 0)
(0.206534 -0.0615635 0)
(0.167487 -0.068584 0)
(0.114185 -0.0774744 0)
(0.0629236 -0.0862257 0)
(0.0149439 -0.104823 0)
(-0.0418199 -0.156524 0)
(0.607428 -0.018604 0)
(0.58798 -0.0215533 0)
(0.54894 -0.025841 0)
(0.518387 -0.0300149 0)
(0.47026 -0.0360985 0)
(0.426178 -0.0430067 0)
(0.364315 -0.0533657 0)
(0.297027 -0.0690472 0)
(0.208527 -0.0985994 0)
(0.150326 -0.157248 0)
(0.10522 -0.119902 4.31833e-21)
(0.12477 -0.108422 -4.25223e-21)
(0.1469 -0.09794 7.09242e-22)
(0.173521 -0.0904415 0)
(0.205278 -0.0818096 0)
(0.239867 -0.0750876 1.10233e-21)
(0.276988 -0.0621245 -5.2761e-21)
(0.311236 -0.0550623 5.20066e-21)
(0.360436 -0.0306069 1.48543e-21)
(0.628156 -0.0163174 -1.5092e-21)
(0.111117 -0.114125 -3.9913e-21)
(0.130525 -0.102558 0)
(0.152329 -0.0924549 5.11172e-21)
(0.178652 -0.0851678 -1.24013e-20)
(0.21041 -0.0768593 8.39317e-21)
(0.244954 -0.0705158 -1.03476e-21)
(0.282101 -0.0581885 2.24625e-21)
(0.316589 -0.0519225 5.09857e-21)
(0.370157 -0.0287756 1.37408e-21)
(0.636322 -0.0153459 1.40308e-21)
(0.116261 -0.107766 4.59922e-21)
(0.135464 -0.0964214 -4.73674e-21)
(0.156836 -0.0868641 4.69189e-21)
(0.182905 -0.0798618 -6.60132e-21)
(0.214438 -0.0719704 4.77986e-21)
(0.249085 -0.0660819 0)
(0.286158 -0.0544465 -2.25163e-21)
(0.32143 -0.0489722 -5.53351e-23)
(0.378768 -0.0271101 -2.60503e-21)
(0.644099 -0.014413 -2.78375e-21)
(0.121214 -0.100976 -7.89518e-22)
(0.140571 -0.0901214 0)
(0.161597 -0.0812145 0)
(0.187517 -0.0745339 0)
(0.218743 -0.067123 5.43709e-21)
(0.253408 -0.061758 -3.70831e-21)
(0.290244 -0.0508712 -1.56839e-22)
(0.326325 -0.0461436 -2.59273e-21)
(0.386795 -0.0255997 -1.31604e-21)
(0.651655 -0.0135616 -1.3575e-21)
(0.125654 -0.093859 8.27869e-22)
(0.145355 -0.0837456 -2.51618e-21)
(0.166143 -0.0755547 -2.68001e-21)
(0.191958 -0.0692416 2.67833e-21)
(0.223002 -0.0623446 -1.70416e-21)
(0.257697 -0.0575311 0)
(0.294246 -0.0474428 -2.1824e-21)
(0.331198 -0.0433974 4.90415e-21)
(0.394362 -0.0242112 -2.46125e-21)
(0.6589 -0.0127996 2.69935e-21)
(0.129421 -0.0864424 -5.92736e-21)
(0.149529 -0.0773165 2.58458e-22)
(0.170137 -0.0698929 -4.44492e-22)
(0.195825 -0.06401 2.61474e-21)
(0.226755 -0.0576706 0)
(0.261544 -0.0534096 0)
(0.297879 -0.0441653 0)
(0.335726 -0.0407446 2.33355e-21)
(0.401372 -0.0229245 0)
(0.665728 -0.0121265 0)
(0.13244 -0.0787506 0)
(0.153043 -0.0708307 3.03046e-21)
(0.173539 -0.0642176 -2.10788e-21)
(0.199068 -0.0588323 -3.00284e-21)
(0.229885 -0.0530966 3.01844e-21)
(0.264763 -0.0493998 1.96875e-21)
(0.30104 -0.0410281 -1.85063e-21)
(0.339698 -0.0381962 -8.02261e-21)
(0.407714 -0.0217313 5.66722e-22)
(0.67205 -0.0115284 -1.91019e-21)
(0.134613 -0.0708202 0)