/*--------------------------------*- C++ -*----------------------------------*\
  =========                 |
  \\      /  F ield         | OpenFOAM: The Open Source CFD Toolbox
   \\    /   O peration     | Website:  https://openfoam.org
    \\  /    A nd           | Version:  7
     \\/     M anipulation  |
\*---------------------------------------------------------------------------*/
FoamFile
{
    version     2.0;
    format      ascii;
    class       volScalarField;
    location    "0.35";
    object      p;
}
// * * * * * * * * * * * * * * * * * * * * * * * * * * * * * * * * * * * * * //

dimensions      [0 2 -2 0 0 0 0];

internalField   nonuniform List<scalar> 
400
(
4.31253e-06
-0.00589929
-0.0130495
-0.0184944
-0.0205167
-0.0183245
-0.0118542
-0.00155226
0.011785
0.0271158
0.0432312
0.0588294
0.072602
0.0833444
0.0900951
0.0923083
0.090064
0.0842914
0.0768991
0.0710264
0.00582907
-0.000242474
-0.00577635
-0.00948911
-0.0105372
-0.00837019
-0.00291465
0.00551451
0.0163224
0.0287065
0.0417181
0.0543288
0.0655071
0.0743143
0.0800165
0.0822126
0.0809837
0.0769887
0.0712581
0.0652421
0.0133961
0.00496361
-0.00100983
-0.00442636
-0.00527912
-0.00327109
0.00159401
0.00901681
0.0184879
0.0293311
0.0407428
0.0518427
0.0617376
0.0696025
0.0747718
0.0768421
0.0758035
0.0720598
0.0658342
0.0574371
0.0202067
0.00859431
0.00120354
-0.0026779
-0.00373716
-0.00190173
0.00271453
0.00976701
0.0187618
0.0290752
0.0399708
0.0506314
0.0602087
0.0678904
0.072977
0.0749741
0.0737333
0.0694376
0.0616644
0.0499991
0.0245932
0.00964715
0.000571025
-0.00398766
-0.00530983
-0.00351656
0.00116462
0.00832241
0.0174471
0.0279312
0.0390637
0.0500451
0.0600205
0.0681338
0.0735935
0.0757629
0.0743276
0.069268
0.0596145
0.0444105
0.0252983
0.00699941
-0.00381816
-0.00905108
-0.0105148
-0.00850485
-0.00336287
0.00442074
0.0143012
0.025663
0.0377935
0.0498785
0.0610186
0.0702695
0.0766984
0.0794774
0.07809
0.0723093
0.0606577
0.041733
0.0212464
-0.000437335
-0.0129465
-0.018695
-0.0200268
-0.0174139
-0.01132
-0.00232445
0.00898167
0.0219629
0.0358913
0.0499205
0.0630825
0.07431
0.0824825
0.0865247
0.0856625
0.0794185
0.0657702
0.0428785
0.0113339
-0.0138168
-0.0278797
-0.0338284
-0.0345922
-0.0308506
-0.0232083
-0.0123445
0.00110082
0.0164745
0.0330372
0.0499115
0.0660538
0.0802527
0.0911572
0.0973778
0.097799
0.091599
0.0760793
0.0488774
-0.00572856
-0.034488
-0.049863
-0.0555073
-0.0550679
-0.0494988
-0.0395812
-0.0261059
-0.00975517
0.0088189
0.02889
0.0495744
0.0697691
0.0881159
0.102999
0.112639
0.115461
0.110141
0.0930518
0.0611108
-0.0315561
-0.0641197
-0.0803924
-0.0849458
-0.0823843
-0.074052
-0.0609598
-0.0440215
-0.0239426
-0.00133457
0.0231404
0.0486467
0.07407
0.0979334
0.118343
0.133053
0.139875
0.136744
0.118693
0.0815469
-0.0682799
-0.104867
-0.121295
-0.123503
-0.117464
-0.105089
-0.0876879
-0.0663025
-0.0416208
-0.014146
0.0156077
0.0469457
0.0788355
0.109757
0.137568
0.1595
0.172583
0.17367
0.155803
0.113059
-0.118892
-0.159635
-0.17483
-0.17264
-0.16108
-0.14288
-0.11972
-0.0927469
-0.0625543
-0.0294304
0.00638375
0.044475
0.0840434
0.123673
0.161081
0.19299
0.215488
0.22392
0.20835
0.159938
-0.187944
-0.23252
-0.243808
-0.233799
-0.213613
-0.187099
-0.156329
-0.122467
-0.0858696
-0.0464481
-0.00399475
0.0415516
0.089843
0.139811
0.189272
0.234589
0.27086
0.291446
0.282031
0.228818
-0.283063
-0.329539
-0.331641
-0.308109
-0.274626
-0.236386
-0.195724
-0.153577
-0.109811
-0.0637166
-0.0144094
0.0388897
0.0965734
0.158279
0.222348
0.285201
0.341165
0.38128
0.385111
0.330526
-0.418185
-0.459746
-0.442071
-0.395626
-0.342071
-0.287708
-0.234592
-0.182909
-0.131587
-0.0789561
-0.023178
0.037518
0.104598
0.178877
0.259881
0.344931
0.428406
0.499309
0.529619
0.483717
-0.619424
-0.63658
-0.578331
-0.494081
-0.411225
-0.335653
-0.267776
-0.205967
-0.147522
-0.0893553
-0.0283847
0.0384052
0.113877
0.20055
0.300049
0.412062
0.532935
0.651424
0.732444
0.720596
-0.935597
-0.878178
-0.74168
-0.598054
-0.474387
-0.372623
-0.288842
-0.217737
-0.153923
-0.0924271
-0.0286749
0.0417533
0.123336
0.220802
0.339002
0.482244
0.652266
0.84165
1.01496
1.09628
-1.48059
-1.20196
-0.920998
-0.692544
-0.517674
-0.387699
-0.290192
-0.213423
-0.14816
-0.0872076
-0.0245262
0.0455606
0.129103
0.233299
0.367363
0.543123
0.772631
1.06029
1.39819
1.73407
-2.57157
-1.60192
-1.04347
-0.714826
-0.497796
-0.353384
-0.255526
-0.184281
-0.126593
-0.0737816
-0.0192079
0.0430664
0.119764
0.219653
0.356005
0.549823
0.829814
1.23507
1.88111
2.95926
-4.4451
-2.01726
-0.969794
-0.564336
-0.357042
-0.239031
-0.169353
-0.123294
-0.087182
-0.0533672
-0.0166754
0.0275153
0.0842998
0.161195
0.271579
0.441363
0.718805
1.2215
2.38403
4.92939
)
;

boundaryField
{
    movingWall
    {
        type            zeroGradient;
    }
    fixedWalls
    {
        type            zeroGradient;
    }
    frontAndBack
    {
        type            empty;
    }
}


// ************************************************************************* //
