/*--------------------------------*- C++ -*----------------------------------*\
  =========                 |
  \\      /  F ield         | OpenFOAM: The Open Source CFD Toolbox
   \\    /   O peration     | Website:  https://openfoam.org
    \\  /    A nd           | Version:  7
     \\/     M anipulation  |
\*---------------------------------------------------------------------------*/
FoamFile
{
    version     2.0;
    format      ascii;
    class       volVectorField;
    location    "20";
    object      U;
}
// * * * * * * * * * * * * * * * * * * * * * * * * * * * * * * * * * * * * * //

dimensions      [0 1 -1 0 0 0 0];

internalField   nonuniform List<vector> 
2000
(
(0.00494411 0.0180153 3.33996e-22)
(0.0296609 0.0824088 0)
(0.0723169 0.155451 0)
(0.114685 0.225192 4.70901e-22)
(0.149891 0.284308 2.18133e-22)
(0.174851 0.330063 2.79626e-22)
(0.189636 0.362974 -3.97064e-22)
(0.196058 0.385135 0)
(0.196343 0.399103 0)
(0.193588 0.407083 0)
(0.00310816 0.010611 0)
(0.0203241 0.0628693 6.74959e-22)
(0.0545169 0.127821 -6.22267e-22)
(0.091767 0.194785 -5.34852e-22)
(0.12606 0.25628 0)
(0.153329 0.307905 6.25465e-22)
(0.172022 0.348166 -5.81613e-22)
(0.182567 0.377549 0)
(0.186214 0.397648 3.64389e-21)
(0.185829 0.410433 -7.65686e-21)
(0.00229827 0.00454548 0)
(0.0137952 0.0452684 -5.33406e-21)
(0.0399841 0.100804 0)
(0.0709069 0.162193 -2.02434e-21)
(0.102096 0.222915 0)
(0.129559 0.278047 -6.60645e-22)
(0.150822 0.324676 0)
(0.165098 0.361669 4.52922e-21)
(0.172477 0.389228 -4.24199e-21)
(0.175119 0.408686 -5.54233e-21)
(0.00220621 -0.00019138 1.5989e-21)
(0.00961571 0.0300857 2.71856e-21)
(0.028826 0.0757163 1.01119e-21)
(0.0531391 0.129451 1.32712e-21)
(0.0796696 0.186243 6.44057e-22)
(0.105184 0.241662 1.55191e-22)
(0.127072 0.292295 4.70018e-22)
(0.143827 0.335897 -1.14147e-21)
(0.154578 0.371261 3.08354e-21)
(0.160297 0.398821 5.53428e-21)
(0.00253218 -0.00366046 1.62019e-21)
(0.00719759 0.0175399 1.98162e-21)
(0.0207111 0.0534771 2.44976e-21)
(0.0389112 0.0984026 -1.19179e-21)
(0.0601505 0.14874 0)
(0.0821424 0.2011 0)
(0.102683 0.25241 -1.32584e-21)
(0.120096 0.300105 -2.22015e-21)
(0.133122 0.342081 2.00477e-21)
(0.14087 0.377631 1.06983e-20)
(0.0029995 -0.00597063 -1.24613e-21)
(0.0059169 0.00761897 -6.17507e-22)
(0.0150158 0.0345521 4.18789e-21)
(0.0280629 0.070378 -4.21443e-21)
(0.0442226 0.112708 6.4857e-22)
(0.0620114 0.15927 0)
(0.0798175 0.207801 0)
(0.0961433 0.256088 5.14767e-21)
(0.110093 0.302026 -7.98588e-21)
(0.117823 0.343192 3.07841e-21)
(0.00336783 -0.00725363 -9.1577e-21)
(0.00519676 0.000161259 0)
(0.0110109 0.0190423 -5.51166e-21)
(0.0200109 0.0461114 3.51272e-21)
(0.031832 0.0798339 0)
(0.0455519 0.118856 -1.71276e-22)
(0.0600915 0.161792 2.52169e-22)
(0.0742982 0.207101 -2.46935e-21)
(0.0881889 0.253613 1.06881e-21)
(0.0937623 0.295871 2.7786e-21)
(0.00344768 -0.00765012 1.718e-20)
(0.00458261 -0.00507333 1.52993e-21)
(0.00804523 0.00683412 2.37576e-21)
(0.0140457 0.025888 4.28574e-21)
(0.0224579 0.0511295 7.68817e-22)
(0.0327237 0.0818439 3.33905e-22)
(0.0441753 0.117339 2.96029e-22)
(0.0561542 0.156797 0)
(0.069573 0.20046 0)
(0.072083 0.239194 -1.879e-21)
(0.00311272 -0.00730416 -8.02235e-21)
(0.00380612 -0.00835649 6.16625e-21)
(0.00569412 -0.00224997 -3.82796e-21)
(0.00961784 0.00979741 -5.61604e-21)
(0.0155251 0.0271936 1.26286e-21)
(0.023091 0.0495889 -3.20548e-22)
(0.0319881 0.076696 -7.98576e-24)
(0.0422364 0.108328 0)
(0.0553509 0.145763 0)
(0.0562013 0.176223 5.08739e-22)
(0.00232645 -0.00638902 8.49036e-22)
(0.00280399 -0.00994522 -7.54487e-21)
(0.00385273 -0.00835721 1.27022e-21)
(0.00652656 -0.00204305 0)
(0.0107518 0.00858389 0)
(0.0162934 0.0232988 -1.13604e-21)
(0.023063 0.0419025 0)
(0.0317173 0.064379 1.99497e-22)
(0.0444865 0.0913485 1.30821e-21)
(0.0500088 0.109305 -1.41575e-21)
(0.176335 0.414574 5.79669e-22)
(0.143451 0.405688 -5.9039e-22)
(0.113503 0.393517 -8.32566e-22)
(0.0882135 0.382429 -9.47034e-22)
(0.0628649 0.371778 -1.06716e-21)
(0.0417687 0.365424 2.40773e-24)
(0.0180482 0.378167 5.32797e-22)
(0.00604523 0.446443 1.64518e-21)
(-0.00903442 0.602525 0)
(0.00346161 0.797425 -1.11259e-21)
(0.172973 0.423005 1.27604e-21)
(0.14019 0.414373 -2.90641e-21)
(0.110335 0.401555 5.34556e-21)
(0.0853463 0.390259 9.48721e-22)
(0.0601357 0.379133 1.96621e-21)
(0.0389146 0.372109 3.13839e-21)
(0.0150549 0.383789 -1.08466e-21)
(0.00295845 0.449598 -1.087e-21)
(-0.0111926 0.602463 2.05454e-21)
(0.00257754 0.795926 1.10996e-21)
(0.168858 0.430297 0)
(0.137045 0.422993 -2.312e-21)
(0.107594 0.409859 -1.58832e-21)
(0.0828871 0.398288 0)
(0.0576929 0.386552 -5.90633e-21)
(0.0363 0.378769 1.89863e-21)
(0.0121707 0.389081 1.96607e-21)
(-0.000266332 0.451946 6.03876e-21)
(-0.0136111 0.601486 -2.04789e-21)
(0.00170028 0.793581 4.06739e-21)
(0.163243 0.434956 0)
(0.133689 0.430561 2.33234e-21)
(0.105153 0.417923 0)
(0.0807563 0.406239 7.05286e-21)
(0.0555257 0.393928 -7.08771e-21)
(0.0339592 0.38542 -3.89079e-21)
(0.00945006 0.394105 -8.20074e-23)
(-0.00355146 0.453615 -5.87769e-21)
(-0.0162635 0.599578 -9.69441e-22)
(0.000812196 0.790608 -5.01843e-21)
(0.155215 0.435235 3.51263e-21)
(0.129895 0.43747 -3.24065e-21)
(0.103115 0.426543 1.13213e-21)
(0.0789899 0.414461 -5.98061e-21)
(0.0536401 0.401381 0)
(0.0318757 0.392102 -3.7438e-21)
(0.00687591 0.398938 9.41115e-24)
(-0.0069204 0.454754 7.56659e-21)
(-0.019206 0.596788 9.30795e-22)
(-0.000158922 0.786654 -9.34194e-22)
(0.144352 0.428189 -6.82858e-21)
(0.125089 0.440841 7.26173e-21)
(0.101045 0.433882 5.65132e-21)
(0.0773967 0.422066 -5.6453e-21)
(0.0520584 0.408634 -3.32727e-21)
(0.0301679 0.398779 0)
(0.00462892 0.403685 -7.1477e-21)
(-0.0101568 0.455495 3.56477e-21)
(-0.0223335 0.593104 3.55166e-21)
(-0.00114545 0.782179 3.55241e-21)
(0.130521 0.413459 -4.12653e-22)
(0.119629 0.444009 0)
(0.0993298 0.442561 0)
(0.0760444 0.430233 0)
(0.0506602 0.416075 -3.39873e-21)
(0.0285837 0.405463 6.71392e-21)
(0.00243263 0.408354 7.0061e-21)
(-0.0135322 0.456013 -1.03294e-20)
(-0.0258388 0.588802 1.7077e-21)
(-0.0023789 0.776524 -5.20983e-21)
(0.114593 0.385693 9.30417e-22)
(0.112263 0.438591 7.68903e-21)
(0.0967941 0.446941 -7.61166e-21)
(0.0747516 0.436632 1.18755e-20)
(0.049814 0.423039 -1.4824e-20)
(0.0277587 0.412175 0)
(0.00105453 0.413166 -3.29027e-21)
(-0.0162552 0.456354 1.11871e-22)
(-0.0292692 0.583601 -3.17644e-21)
(-0.0035346 0.770608 -3.25546e-21)
(0.0977825 0.356012 -5.5507e-23)
(0.105681 0.438882 0)
(0.0946157 0.455005 -1.04418e-20)
(0.0732267 0.444697 2.0709e-20)
(0.0484504 0.43043 -8.12652e-21)
(0.0261727 0.418633 -1.57195e-21)
(-0.00112117 0.417765 3.28327e-21)
(-0.0197504 0.456924 7.28126e-23)
(-0.033396 0.578501 4.67896e-21)
(-0.00520117 0.763232 4.75752e-21)
(0.0797484 0.298004 -2.61194e-21)
(0.0948477 0.41766 2.52711e-21)
(0.0907464 0.452504 9.43384e-22)
(0.0725812 0.449119 0)
(0.0490943 0.437068 0)
(0.0272624 0.425675 1.51891e-21)
(-0.000397481 0.423053 6.00195e-21)
(-0.0207937 0.457096 -5.87606e-21)
(-0.0365032 0.571878 -1.43534e-21)
(-0.00662184 0.756028 1.38341e-21)
(0.0473788 0.25603 0)
(0.0783739 0.419794 0)
(0.0784292 0.469821 0)
(0.0622862 0.469716 0)
(0.0391556 0.454476 0)
(0.0161589 0.439252 0)
(-0.0121755 0.433409 0)
(-0.0334659 0.461441 0)
(-0.0489854 0.560687 0)
(-0.0116353 0.734577 0)
(0.0247263 0.241265 0)
(0.0499068 0.409318 0)
(0.0496362 0.469959 0)
(0.0417455 0.481596 0)
(0.0280809 0.476903 0)
(0.0117594 0.469613 0)
(-0.0127434 0.46781 0)
(-0.0350626 0.490879 0)
(-0.0535837 0.565544 0)
(-0.0204728 0.708572 0)
(0.0128586 0.245915 0)
(0.0313583 0.408723 0)
(0.0306101 0.477628 0)
(0.0250346 0.493604 0)
(0.0116964 0.489709 0)
(-0.00492516 0.482109 0)
(-0.0263702 0.478962 0)
(-0.0438231 0.495088 0)
(-0.0568395 0.547087 0)
(-0.0268864 0.650778 0)
(-0.00243549 0.248958 0)
(0.0102647 0.391948 0)
(0.00919859 0.464385 0)
(0.0137936 0.494059 0)
(0.0106088 0.504581 0)
(0.00208183 0.508081 0)
(-0.0139106 0.51046 0)
(-0.0289411 0.523079 0)
(-0.0417958 0.556909 0)
(-0.0229009 0.623188 0)
(-0.00928024 0.27198 0)
(0.00455159 0.399639 0)
(0.00223908 0.471404 0)
(-0.000285393 0.494836 0)
(-0.00737161 0.501041 0)
(-0.0132046 0.504307 0)
(-0.0220857 0.508565 0)
(-0.0285966 0.519331 0)
(-0.033793 0.541372 0)
(-0.0178469 0.580795 0)
(-0.0162711 0.275132 0)
(-0.0117129 0.375233 0)
(0.00289361 0.462483 0)
(0.0111612 0.500499 0)
(0.010541 0.515668 0)
(0.00785278 0.522768 0)
(0.000529727 0.528186 0)
(-0.00621517 0.537216 0)
(-0.0135303 0.552409 0)
(-0.00844122 0.575819 0)
(0.00199983 0.322237 0)
(-0.0135105 0.386775 0)
(-0.00789048 0.458269 0)
(-0.0058166 0.49093 0)
(-0.00833307 0.503623 0)
(-0.00840881 0.511832 0)
(-0.00981571 0.519817 0)
(-0.00933945 0.529496 0)
(-0.0103619 0.541292 0)
(-0.00492885 0.555755 0)
(0.0199627 0.329209 0)
(-0.00303734 0.375739 0)
(0.00974835 0.451936 0)
(0.0238603 0.501276 0)
(0.0246036 0.520669 0)
(0.0203325 0.527539 0)
(0.012342 0.53286 0)
(0.0066858 0.54084 0)
(0.000472281 0.55128 0)
(-0.000399908 0.562824 0)
(0.0606464 0.392893 0)
(0.00871041 0.402407 0)
(-0.0152528 0.432801 0)
(-0.00904233 0.474 0)
(-0.000286008 0.503635 0)
(0.00605898 0.520669 0)
(0.00521619 0.530456 0)
(0.00354238 0.538588 0)
(-0.000864056 0.546333 0)
(-0.000662937 0.553538 0)
(0.0966708 0.390713 0)
(0.0784117 0.445848 0)
(0.0496363 0.472954 0)
(0.0334629 0.493413 0)
(0.0253638 0.510568 0)
(0.0227928 0.525186 0)
(0.0182787 0.537382 0)
(0.0141737 0.548268 0)
(0.00729088 0.556824 0)
(0.0026716 0.562349 0)
(0.0306428 0.0880898 1.06048e-21)
(0.0314022 0.125275 -1.04334e-21)
(0.0296654 0.171396 1.43852e-22)
(0.0192904 0.205892 0)
(0.0137439 0.246012 0)
(0.0122023 0.268499 1.39055e-22)
(0.027607 0.314198 -8.06092e-22)
(0.0440658 0.321065 7.89613e-22)
(0.070738 0.358093 1.38088e-22)
(0.0826604 0.312322 -1.33335e-22)
(0.0430066 0.048537 -6.17587e-22)
(0.0456152 0.101337 0)
(0.0408367 0.158393 7.97214e-22)
(0.0288361 0.200615 -1.71041e-21)
(0.0219132 0.243401 9.36063e-22)
(0.0212915 0.269561 -1.35416e-22)
(0.0349475 0.309562 2.98834e-22)
(0.04906 0.311357 7.26936e-22)
(0.0684627 0.333105 1.13895e-22)
(0.0751545 0.275806 -1.6196e-23)
(0.0585942 0.0424727 7.97089e-22)
(0.0621521 0.10535 -1.11499e-21)
(0.053164 0.164379 1.10423e-21)
(0.0387922 0.207218 -4.8641e-22)
(0.0302384 0.247068 3.2484e-22)
(0.0294336 0.271246 0)
(0.0400259 0.301048 -2.99531e-22)
(0.0506306 0.294105 -4.77439e-23)
(0.0630373 0.300368 -3.66862e-22)
(0.0663966 0.236505 -1.0677e-22)
(0.0773465 0.0619792 -2.52678e-22)
(0.0790705 0.127857 0)
(0.0650025 0.181892 0)
(0.0479939 0.21951 0)
(0.0376444 0.25173 9.04602e-23)
(0.0356692 0.269025 -1.18172e-22)
(0.0422724 0.285861 -6.67239e-23)
(0.0487783 0.268847 -3.17676e-22)
(0.0550486 0.26173 -1.0155e-22)
(0.0568068 0.1956 2.91909e-23)
(0.0992578 0.0962329 6.83444e-22)
(0.0948189 0.157088 -7.09844e-22)
(0.0748744 0.201261 8.61804e-23)
(0.0549764 0.229679 -8.61126e-23)
(0.0426338 0.251343 2.80648e-23)
(0.0387559 0.258861 0)
(0.0410857 0.262246 -1.80706e-22)
(0.0435766 0.23605 5.25978e-22)
(0.0451822 0.218962 -2.66785e-22)
(0.0469622 0.154416 7.21856e-23)
(0.121692 0.133332 -3.50536e-22)
(0.107467 0.182397 3.71035e-22)
(0.0816154 0.213845 2.70301e-22)
(0.0589137 0.231167 -3.8135e-22)
(0.0445408 0.241394 0)
(0.0383688 0.238582 0)
(0.0366602 0.230068 0)
(0.0357584 0.197144 1.62605e-22)
(0.0344333 0.174051 0)
(0.0374184 0.114315 0)
(0.1412 0.163593 0)
(0.115684 0.19662 -7.05875e-22)
(0.0847006 0.214213 4.64017e-22)
(0.0596715 0.22041 6.87271e-22)
(0.0434198 0.220068 -6.9078e-22)
(0.0348748 0.208238 -7.00817e-23)
(0.0297192 0.190693 1.60469e-22)
(0.026369 0.154275 -4.5225e-22)
(0.023778 0.129074 5.95045e-23)
(0.0286376 0.0765517 -2.77918e-25)
(0.154702 0.180696 0)
(0.118989 0.196369 2.42093e-22)
(0.0842702 0.200569 2.89173e-22)
(0.0576195 0.197019 0)
(0.039764 0.188112 -9.59219e-23)
(0.0290156 0.169634 4.70947e-22)
(0.021229 0.146469 2.00369e-24)
(0.0165089 0.109905 1.03114e-22)
(0.0140346 0.0859614 -9.34052e-23)
(0.0209893 0.0421291 3.54205e-23)
(0.16077 0.181693 -2.55409e-22)
(0.117712 0.181416 -5.97418e-22)
(0.0809821 0.174035 1.32655e-22)
(0.0534268 0.162947 -1.76066e-22)
(0.0343009 0.147961 -2.3203e-22)
(0.0217161 0.125556 -2.27771e-22)
(0.0122221 0.100153 3.20427e-23)
(0.00718984 0.066431 -6.55828e-24)
(0.00575904 0.0462563 9.37105e-23)
(0.0147327 0.011695 3.9543e-24)
(0.15993 0.166967 1.47553e-22)
(0.112779 0.153982 -1.50117e-22)
(0.0757516 0.137574 1.81292e-22)
(0.0478687 0.121395 1.75795e-22)
(0.0278337 0.102796 -1.22022e-22)
(0.0139407 0.079082 2.10688e-22)
(0.00365182 0.0544473 -4.1369e-23)
(-0.000778305 0.0258884 1.59645e-23)
(-0.000823919 0.0109447 0)
(0.00950405 -0.0145226 -3.94713e-24)
(0.1539 0.139571 -1.78379e-22)
(0.105377 0.117734 1.81281e-22)
(0.0694671 0.094916 2.31462e-22)
(0.0416869 0.0758895 2.16354e-22)
(0.0211171 0.0558471 1.3671e-22)
(0.00651367 0.0331104 -2.46946e-23)
(-0.00373942 0.0116531 -4.01374e-23)
(-0.0069003 -0.0102457 -2.58343e-23)
(-0.00542035 -0.0195426 0)
(0.00618063 -0.0367928 -4.50766e-24)
(0.1446 0.103739 0)
(0.0967174 0.0766345 9.42716e-22)
(0.06281 0.0497055 -1.66848e-21)
(0.0355056 0.0296639 -2.16669e-22)
(0.0148198 0.00998105 -3.61829e-22)
(-9.80269e-06 -0.00994806 -3.56236e-22)
(-0.00943529 -0.0265745 5.44668e-23)
(-0.0110424 -0.0412689 1.1341e-23)
(-0.00799713 -0.0452585 2.95653e-23)
(0.00375104 -0.0558321 4.49559e-24)
(0.133465 0.0634975 0)
(0.0878756 0.034173 9.77232e-22)
(0.056234 0.00503976 4.88093e-22)
(0.0297786 -0.0146692 0)
(0.00937312 -0.0325174 9.79337e-22)
(-0.00498106 -0.0483858 -3.78195e-22)
(-0.0131645 -0.0593753 -1.86702e-22)
(-0.0133189 -0.0671633 -1.83519e-22)
(-0.00903042 -0.0667497 -2.94687e-23)
(0.00213619 -0.0724088 1.40283e-23)
(0.121422 0.0221485 0)
(0.0794839 -0.00694679 -9.85281e-22)
(0.0501585 -0.0367103 0)
(0.0248575 -0.0552066 -1.67377e-21)
(0.00512035 -0.0701737 1.68251e-21)
(-0.00809713 -0.0813008 3.98622e-22)
(-0.0149897 -0.0865613 -1.27274e-22)
(-0.0140054 -0.0884776 1.88977e-22)
(-0.00900787 -0.0848839 2.53944e-23)
(0.0011724 -0.0872418 -1.80994e-23)
(0.109427 -0.0176714 -5.15413e-21)
(0.0718609 -0.0448048 2.13827e-21)
(0.0449282 -0.0739303 4.13426e-23)
(0.0210165 -0.0907548 1.89752e-21)
(0.00229797 -0.102187 0)
(-0.00957213 -0.108536 4.08245e-22)
(-0.015212 -0.108653 -1.99996e-22)
(-0.0135198 -0.106127 -3.24088e-22)
(-0.00834348 -0.100605 9.74407e-25)
(0.000637254 -0.100941 -9.74253e-25)
(0.0981484 -0.0540636 1.14754e-21)
(0.0652204 -0.0784164 -3.81464e-21)
(0.0406365 -0.105735 -1.83535e-21)
(0.018342 -0.120843 1.8344e-21)
(0.000900475 -0.128466 7.22076e-22)
(-0.00961812 -0.130582 0)
(-0.0142437 -0.126595 5.27741e-22)
(-0.0123053 -0.121151 -2.85843e-22)
(-0.00736309 -0.114757 -7.62696e-23)
(0.000356531 -0.11398 -6.11123e-25)
(0.0880336 -0.0856614 3.74775e-22)
(0.0598405 -0.107651 0)
(0.0373035 -0.131832 0)
(0.0167716 -0.14563 0)
(0.000788424 -0.1495 5.03455e-22)
(-0.0085959 -0.148353 -1.22438e-21)
(-0.0125241 -0.141506 -5.35017e-22)
(-0.0107391 -0.13451 5.19715e-22)
(-0.00629159 -0.128001 -8.5578e-24)
(0.000220178 -0.126696 9.10075e-24)
(0.0791638 -0.11164 2.876e-22)
(0.0557354 -0.132998 -3.22252e-21)
(0.0349772 -0.15243 3.19276e-21)
(0.0161495 -0.165724 -3.03371e-21)
(0.00167083 -0.166155 3.68298e-21)
(-0.00692537 -0.162938 0)
(-0.0104387 -0.15445 3.11544e-22)
(-0.00908707 -0.146963 8.57734e-24)
(-0.0052572 -0.140795 4.87611e-23)
(0.000167343 -0.139312 9.33149e-24)
(0.0708824 -0.1315 2.62038e-22)
(0.0523665 -0.155382 0)
(0.0335495 -0.168184 3.52634e-21)
(0.0163012 -0.181966 -6.0115e-21)
(0.00325701 -0.179441 2.18246e-21)
(-0.00493302 -0.175389 2.42642e-22)
(-0.00822017 -0.166291 -3.10835e-22)
(-0.00747397 -0.159033 -4.97795e-23)
(-0.00430386 -0.153424 -1.38734e-22)
(0.00017069 -0.15197 -2.51594e-23)
(0.0639368 -0.144613 1.33844e-21)
(0.0487236 -0.175924 -1.30243e-21)
(0.0323505 -0.18025 -3.93485e-22)
(0.0164485 -0.195324 0)
(0.00523148 -0.190335 0)
(-0.00277798 -0.186558 -2.49396e-22)
(-0.00601954 -0.177616 -4.90999e-22)
(-0.00596932 -0.171023 4.82037e-22)
(-0.00342048 -0.166042 1.9518e-23)
(0.0002083 -0.164759 -1.91072e-23)
(0.0652153 -0.157658 0)
(0.0426088 -0.219967 0)
(0.0295318 -0.203119 0)
(0.0142471 -0.222343 0)
(0.00787569 -0.212809 0)
(0.000173577 -0.211643 0)
(-0.00226214 -0.204371 0)
(-0.00328014 -0.200136 0)
(-0.00157329 -0.196504 0)
(0.000276456 -0.195572 0)
(0.0398878 -0.234428 0)
(0.0308178 -0.270467 0)
(0.025805 -0.253456 0)
(0.0124066 -0.268115 0)
(0.0125503 -0.257109 0)
(0.00347712 -0.261415 0)
(0.00316424 -0.254196 0)
(-7.01955e-05 -0.254152 0)
(0.000769346 -0.250609 0)
(0.000169396 -0.250878 0)
(0.0390388 -0.281961 0)
(0.0270357 -0.315324 0)
(0.02255 -0.301718 0)
(0.013679 -0.314199 0)
(0.0125255 -0.305728 0)
(0.00533671 -0.311678 0)
(0.00535457 -0.305411 0)
(0.00109601 -0.308044 0)
(0.0021105 -0.303748 0)
(-0.000126707 -0.305489 0)
(0.0310439 -0.339053 0)
(0.0230006 -0.369908 0)
(0.0207933 -0.35214 0)
(0.0130341 -0.368373 0)
(0.0114764 -0.358535 0)
(0.00639183 -0.367339 0)
(0.00550761 -0.360914 0)
(0.00234112 -0.364783 0)
(0.00238395 -0.360175 0)
(-0.000387211 -0.36285 0)
(0.0271899 -0.400603 0)
(0.0203994 -0.431957 0)
(0.0171527 -0.413715 0)
(0.0118482 -0.432189 0)
(0.0101723 -0.420563 0)
(0.00624509 -0.432413 0)
(0.00528949 -0.423754 0)
(0.00286416 -0.429948 0)
(0.00222146 -0.423783 0)
(-7.11515e-05 -0.427176 0)
(0.0227832 -0.475033 0)
(0.0168062 -0.507008 0)
(0.0144739 -0.487175 0)
(0.00988872 -0.507968 0)
(0.00873771 -0.494948 0)
(0.00577728 -0.50853 0)
(0.00526653 -0.498363 0)
(0.00323215 -0.506311 0)
(0.00240962 -0.497856 0)
(8.07964e-05 -0.503383 0)
(0.01763 -0.569012 0)
(0.0133056 -0.600537 0)
(0.0115163 -0.580745 0)
(0.00830373 -0.602836 0)
(0.00738279 -0.588827 0)
(0.00522098 -0.604367 0)
(0.0047174 -0.593285 0)
(0.00283067 -0.602788 0)
(0.00184973 -0.593438 0)
(6.74816e-05 -0.601185 0)
(0.0136282 -0.689805 0)
(0.00984353 -0.717382 0)
(0.00828005 -0.701235 0)
(0.00574582 -0.721958 0)
(0.00514362 -0.709813 0)
(0.00349533 -0.724931 0)
(0.00299334 -0.714579 0)
(0.00133141 -0.724463 0)
(0.000778439 -0.715465 0)
(-0.000204551 -0.724294 0)
(0.00708601 -0.821053 0)
(0.00472549 -0.837477 0)
(0.0040213 -0.830414 0)
(0.00283933 -0.844124 0)
(0.00253989 -0.83771 0)
(0.00139195 -0.847572 0)
(0.000905683 -0.840836 0)
(-0.00023517 -0.847358 0)
(-0.000309842 -0.841144 0)
(-0.000382392 -0.847711 0)
(0.00133265 -0.906295 0)
(0.000894725 -0.915519 0)
(0.000845095 -0.915705 0)
(0.000746189 -0.921927 0)
(0.000587811 -0.920184 0)
(0.000224234 -0.924006 0)
(-1.99667e-05 -0.92084 0)
(-0.000381837 -0.92298 0)
(-0.000359159 -0.919681 0)
(-0.000186038 -0.922571 0)
(0.0552572 -0.184846 1.5785e-21)
(0.0396563 -0.252815 -1.55557e-21)
(0.0408474 -0.299585 3.26308e-22)
(0.0316782 -0.358599 0)
(0.0293476 -0.419364 0)
(0.0242505 -0.494215 5.78875e-22)
(0.0192997 -0.587454 -2.80068e-21)
(0.0145221 -0.703239 2.7935e-21)
(0.00868178 -0.827453 8.78363e-22)
(0.0027016 -0.904282 -8.72873e-22)
(0.0517613 -0.192513 -2.08145e-21)
(0.039936 -0.258774 0)
(0.0414671 -0.305004 2.52506e-21)
(0.0320303 -0.364384 -6.18778e-21)
(0.0303068 -0.424782 4.35806e-21)
(0.0249092 -0.499918 -5.22097e-22)
(0.0200689 -0.592807 1.3407e-21)
(0.0149611 -0.707203 3.02474e-21)
(0.00940189 -0.828331 9.63038e-22)
(0.00331785 -0.904204 9.69941e-22)
(0.0490602 -0.199855 3.09946e-21)
(0.0404898 -0.265499 -2.7203e-21)
(0.0422542 -0.310455 2.69456e-21)
(0.0326745 -0.36949 -3.8308e-21)
(0.0314507 -0.429351 2.80593e-21)
(0.0257013 -0.504501 0)
(0.0209251 -0.596927 -1.34405e-21)
(0.0155387 -0.710111 1.46047e-22)
(0.0098801 -0.828139 -1.63899e-21)
(0.0036121 -0.904171 -1.81601e-21)
(0.047018 -0.207322 -5.41127e-22)
(0.0412597 -0.27249 0)
(0.0433284 -0.315955 0)
(0.0336758 -0.374527 0)
(0.0328323 -0.433897 3.70883e-21)
(0.0266909 -0.508815 -2.49578e-21)
(0.0219206 -0.600709 -4.36629e-23)
(0.0162614 -0.712593 -1.86569e-21)
(0.0102137 -0.827936 -9.76865e-22)
(0.00367423 -0.903247 -1.08112e-21)
(0.0456063 -0.214483 3.89358e-23)
(0.0422548 -0.278825 -1.96883e-21)
(0.044695 -0.320745 -1.85052e-21)
(0.0350003 -0.379012 1.84935e-21)
(0.0344342 -0.438061 -1.19662e-21)
(0.0278854 -0.512724 0)
(0.0230705 -0.604118 -1.62598e-21)
(0.0171119 -0.714741 3.8451e-21)
(0.0105742 -0.82781 -2.00245e-21)
(0.0036865 -0.901571 2.08256e-21)
(0.0448834 -0.221104 -5.78078e-21)
(0.0435577 -0.284232 4.85927e-22)
(0.046379 -0.324442 -3.09732e-22)
(0.0366219 -0.38248 1.99312e-21)
(0.0362251 -0.441341 0)
(0.0292685 -0.515809 0)
(0.0243612 -0.606788 0)
(0.0180733 -0.716311 2.1236e-21)
(0.0110637 -0.827474 0)
(0.00376445 -0.899506 0)
(0.0448931 -0.227073 0)
(0.0452677 -0.288763 2.62714e-21)
(0.0484449 -0.327046 -1.79276e-21)
(0.0385596 -0.38481 -2.6077e-21)
(0.0382059 -0.44353 2.62132e-21)
(0.0308391 -0.517812 1.81175e-21)
(0.0257834 -0.608458 -1.77402e-21)
(0.0191322 -0.717084 -7.64778e-21)
(0.011688 -0.82671 5.4004e-22)
(0.00392515 -0.897296 -2.01813e-21)
(0.0456533 -0.232225 0)
(0.047465 -0.29244 -8.36734e-22)
(0.0509562 -0.328612 -5.39426e-22)
(0.0408524 -0.386026 0)
(0.0404057 -0.444613 8.69248e-22)
(0.0326208 -0.518667 -2.62533e-21)
(0.0273486 -0.609025 3.13805e-21)
(0.0202963 -0.716923 1.16717e-21)
(0.012432 -0.825362 -1.34371e-21)
(0.00415937 -0.894931 2.65945e-21)
(0.0471834 -0.236355 7.60591e-22)
(0.0502125 -0.295202 1.00362e-21)
(0.0539544 -0.329109 -1.86164e-22)
(0.0435328 -0.386139 3.53326e-22)
(0.0428571 -0.444607 8.03469e-22)
(0.0346411 -0.518404 1.44376e-21)
(0.0290773 -0.608515 -5.84162e-22)
(0.0215722 -0.715876 -6.56364e-22)
(0.0132611 -0.823468 1.34816e-21)
(0.00443147 -0.8924 7.63317e-22)
(0.0495207 -0.239245 -2.10243e-22)
(0.0535657 -0.296982 2.12046e-22)
(0.0574658 -0.328454 -2.87864e-22)
(0.0466219 -0.385116 -3.52899e-22)
(0.0455903 -0.443458 4.82597e-22)
(0.0369267 -0.517014 -9.91541e-22)
(0.0309939 -0.606911 9.04044e-22)
(0.0229886 -0.713904 3.34644e-22)
(0.0141942 -0.820961 0)
(0.00475642 -0.889576 -7.64987e-22)
(0.0527208 -0.240687 2.15248e-22)
(0.0575756 -0.297754 -2.17208e-22)
(0.0615084 -0.326581 -3.29768e-22)
(0.0501369 -0.382956 -4.03779e-22)
(0.0486251 -0.441144 -5.17161e-22)
(0.0394825 -0.514541 -5.67463e-23)
(0.0331118 -0.604265 3.2803e-22)
(0.0245414 -0.711152 1.09531e-21)
(0.0152054 -0.817992 0)
(0.0050998 -0.886537 -8.70666e-22)
(0.0568589 -0.240459 0)
(0.0622825 -0.297524 -1.19017e-21)
(0.0660925 -0.323517 2.23558e-21)
(0.0540838 -0.379644 4.04494e-22)
(0.0519973 -0.437592 1.06243e-21)
(0.0423297 -0.510893 1.81442e-21)
(0.0354538 -0.600479 -6.69715e-22)
(0.0262704 -0.707444 -7.49727e-22)
(0.0163582 -0.81437 1.7507e-21)
(0.00552094 -0.883134 8.68596e-22)
(0.0620239 -0.238343 0)
(0.067699 -0.296342 -1.07944e-21)
(0.0712459 -0.319362 -7.08325e-22)
(0.0584849 -0.375167 0)
(0.0557204 -0.432989 -3.43109e-21)
(0.045452 -0.506141 1.14674e-21)
(0.0380132 -0.595755 1.49052e-21)
(0.0281363 -0.703044 4.96655e-21)
(0.0175792 -0.810388 -1.74504e-21)
(0.00593591 -0.879586 3.92254e-21)
(0.0683217 -0.234168 0)
(0.0738189 -0.294207 1.08876e-21)
(0.0769926 -0.314425 0)
(0.0633156 -0.369402 4.22364e-21)
(0.0598593 -0.427259 -4.24526e-21)
(0.0489101 -0.500061 -2.92211e-21)
(0.0408315 -0.589786 -1.05925e-22)
(0.0302368 -0.697481 -5.17487e-21)
(0.0189914 -0.805602 -8.56434e-22)
(0.00647617 -0.875582 -4.87771e-21)
(0.0758969 -0.227857 5.79342e-21)
(0.0805871 -0.291102 -2.05512e-21)
(0.083438 -0.308783 8.71285e-22)
(0.0686504 -0.362393 -3.67345e-21)
(0.0643784 -0.420524 0)
(0.0526772 -0.493101 -3.10913e-21)
(0.0438438 -0.583136 -3.9498e-22)
(0.0324423 -0.691545 7.11495e-21)
(0.0204058 -0.800681 1.03092e-21)
(0.00693796 -0.871554 -1.0346e-21)
(0.0849377 -0.219499 -1.90995e-21)
(0.08804 -0.286718 4.86364e-21)
(0.0906134 -0.302208 3.89212e-21)
(0.0745213 -0.354278 -3.8895e-21)
(0.0693229 -0.412502 -2.71334e-21)
(0.0568356 -0.484807 0)
(0.0472076 -0.57493 -7.34541e-21)
(0.0349977 -0.684051 3.66587e-21)
(0.0221272 -0.794624 4.07877e-21)
(0.00763154 -0.866865 4.58068e-21)
(0.0955867 -0.20927 -5.94997e-22)
(0.0962695 -0.281295 0)
(0.0984375 -0.295196 0)
(0.0808606 -0.345677 0)
(0.0746107 -0.404046 -3.33449e-21)
(0.0612282 -0.476358 6.03687e-21)
(0.0506833 -0.566868 7.55098e-21)
(0.0375265 -0.677018 -1.21648e-20)
(0.0236945 -0.788967 2.28437e-21)
(0.00808102 -0.862396 -6.79966e-21)
(0.108197 -0.197199 9.1786e-24)
(0.105505 -0.273273 6.35155e-21)
(0.107024 -0.286998 -6.28948e-21)
(0.0878751 -0.335517 1.07379e-20)
(0.0804959 -0.393631 -1.36553e-20)
(0.0662196 -0.465607 0)
(0.054771 -0.556083 -4.01804e-21)
(0.040694 -0.667246 -2.38192e-22)
(0.0258496 -0.781413 -4.81825e-21)
(0.00901146 -0.856867 -5.01159e-21)
(0.122881 -0.184789 -5.34607e-22)
(0.115355 -0.265966 0)
(0.115748 -0.280452 -1.01739e-20)
(0.09495 -0.326854 2.0362e-20)
(0.086368 -0.385194 -8.13483e-21)
(0.0710366 -0.457239 -1.83815e-21)
(0.05856 -0.548122 4.00956e-21)
(0.043409 -0.660187 -3.28615e-22)
(0.0274521 -0.775519 6.94572e-21)
(0.00932179 -0.852066 7.41093e-21)
(0.139487 -0.165052 -3.23037e-21)
(0.127977 -0.249423 3.12559e-21)
(0.126332 -0.269002 1.01443e-21)
(0.104043 -0.312787 0)
(0.0937195 -0.370784 0)
(0.0773904 -0.442478 1.77266e-21)
(0.0638147 -0.533481 8.66027e-21)
(0.0475774 -0.647217 -8.39492e-21)
(0.0303353 -0.766031 -2.42919e-21)
(0.0106914 -0.845437 2.37198e-21)
(0.162196 -0.159556 0)
(0.15541 -0.248108 0)
(0.148335 -0.268076 0)
(0.118972 -0.307471 0)
(0.107824 -0.36495 0)
(0.0881265 -0.434723 0)
(0.0723913 -0.524037 0)
(0.0535956 -0.635782 0)
(0.0336259 -0.753362 0)
(0.0104825 -0.833355 0)
(0.200871 -0.147843 0)
(0.208774 -0.232686 0)
(0.177113 -0.250276 0)
(0.155165 -0.288887 0)
(0.134383 -0.35176 0)
(0.11192 -0.420633 0)
(0.092826 -0.509955 0)
(0.0702874 -0.6192 0)
(0.0454587 -0.731316 0)
(0.0170008 -0.805457 0)
(0.24565 -0.128507 0)
(0.254149 -0.204468 0)
(0.204871 -0.220776 0)
(0.197329 -0.258752 0)
(0.162415 -0.32398 0)
(0.1389 -0.393565 0)
(0.115846 -0.480999 0)
(0.0866943 -0.587925 0)
(0.0549203 -0.696708 0)
(0.0173758 -0.771365 0)
(0.295178 -0.102251 0)
(0.295548 -0.172955 0)
(0.241614 -0.196629 0)
(0.242212 -0.235302 0)
(0.201288 -0.298721 0)
(0.176458 -0.375226 0)
(0.149784 -0.459765 0)
(0.113724 -0.561244 0)
(0.0732156 -0.662422 0)
(0.0271843 -0.726745 0)
(0.357567 -0.0658333 0)
(0.348167 -0.135625 0)
(0.29299 -0.167623 0)
(0.291464 -0.20552 0)
(0.251595 -0.26165 0)
(0.22115 -0.340427 0)
(0.185829 -0.418662 0)
(0.141157 -0.51218 0)
(0.0890988 -0.608343 0)
(0.0274823 -0.674168 0)
(0.438173 -0.0349846 0)
(0.423033 -0.10526 0)
(0.370455 -0.146812 0)
(0.360638 -0.189428 0)
(0.323034 -0.241092 0)
(0.285583 -0.316675 0)
(0.238758 -0.387156 0)
(0.183637 -0.470844 0)
(0.117164 -0.553577 0)
(0.0447028 -0.601744 0)
(0.53171 0.000600259 0)
(0.517233 -0.0637546 0)
(0.467563 -0.107299 0)
(0.444805 -0.150902 0)
(0.402702 -0.195247 0)
(0.354129 -0.259184 0)
(0.292983 -0.318481 0)
(0.221996 -0.39172 0)
(0.136259 -0.465861 0)
(0.0394325 -0.519781 0)
(0.628498 0.00312134 0)
(0.622619 -0.0469317 0)
(0.584304 -0.086575 0)
(0.554075 -0.12839 0)
(0.504065 -0.167436 0)
(0.445191 -0.218393 0)
(0.369826 -0.265407 0)
(0.281087 -0.323146 0)
(0.177949 -0.37899 0)
(0.0735293 -0.407614 0)
(0.697006 0.0133963 0)
(0.703804 -0.0125058 0)
(0.668318 -0.0363829 0)
(0.635277 -0.063645 0)
(0.571613 -0.088833 0)
(0.503215 -0.119697 0)
(0.406549 -0.148303 0)
(0.299379 -0.185031 0)
(0.171568 -0.229672 0)
(0.0247581 -0.283363 0)
(0.87784 -0.0129039 0)
(0.876586 -0.0210089 0)
(0.847034 -0.0280685 0)
(0.811404 -0.0376068 0)
(0.749034 -0.047124 0)
(0.677066 -0.0596297 0)
(0.576052 -0.0734137 0)
(0.457615 -0.0936392 0)
(0.308209 -0.124578 0)
(0.180956 -0.177752 0)
(0.194397 -0.097804 2.1968e-21)
(0.243773 -0.0793918 -2.16544e-21)
(0.29612 -0.0593011 8.33014e-22)
(0.349262 -0.033781 0)
(0.410393 -0.0040129 0)
(0.482101 0.0175239 2.26678e-21)
(0.560171 0.0377775 -1.22299e-20)
(0.637341 0.0269386 1.21335e-20)
(0.696727 0.0237912 3.81658e-21)
(0.878358 -0.0102361 -3.83148e-21)
(0.204595 -0.0713261 -9.54499e-22)
(0.254873 -0.0496864 0)
(0.308679 -0.0304188 7.07886e-21)
(0.36268 -0.0058435 -1.89171e-20)
(0.423235 0.0206694 1.43599e-20)
(0.49184 0.0380086 -2.05204e-21)
(0.564593 0.0519839 5.20439e-21)
(0.63505 0.0358725 1.25458e-20)
(0.693329 0.0275515 3.82183e-21)
(0.876184 -0.00914116 3.62016e-21)
(0.212454 -0.0425383 1.42718e-21)
(0.264682 -0.0175886 -5.37513e-21)
(0.317907 -0.000105673 5.3239e-21)
(0.371382 0.0226736 -1.19633e-20)
(0.430524 0.045119 8.55896e-21)
(0.495947 0.0575665 0)
(0.563723 0.0649888 -5.21735e-21)
(0.628681 0.0434602 2.05127e-22)
(0.68754 0.0304411 -6.78841e-21)
(0.87261 -0.00811529 -7.11242e-21)
(0.21969 -0.0121602 -3.08657e-22)
(0.276195 0.0158716 0)
(0.328524 0.0309781 0)
(0.380869 0.0511878 0)
(0.43783 0.0688364 1.20062e-20)
(0.499544 0.0758517 -8.2504e-21)
(0.562082 0.0765891 -3.85706e-22)
(0.622003 0.0497089 -6.99708e-21)
(0.681451 0.0325282 -3.59907e-21)
(0.869285 -0.00716084 -3.77219e-21)
(0.226797 0.0192184 1.6959e-21)
(0.287747 0.0495926 -2.1675e-21)
(0.338942 0.0618662 -4.79932e-21)
(0.390138 0.078907 4.79647e-21)
(0.444717 0.091246 -3.70308e-21)
(0.50255 0.0925333 0)
(0.559895 0.0866643 -5.71174e-21)
(0.615231 0.0547404 1.36027e-20)
(0.675349 0.0339579 -6.95339e-21)
(0.866315 -0.00627584 7.44321e-21)
(0.234126 0.0511933 -6.61178e-21)
(0.29819 0.0827363 -6.29972e-22)
(0.347333 0.0916994 -1.63776e-21)
(0.39725 0.105062 5.15947e-21)
(0.44936 0.111783 0)
(0.503401 0.107276 0)
(0.555959 0.0950948 0)
(0.607416 0.058621 6.96332e-21)
(0.668754 0.0348208 0)
(0.863256 -0.00546205 0)
(0.241725 0.083251 0)
(0.307158 0.114585 5.61302e-21)
(0.353182 0.119818 -3.92921e-21)
(0.401521 0.129084 -7.47865e-21)
(0.450924 0.130055 7.51791e-21)
(0.501262 0.119859 5.72447e-21)
(0.549538 0.101822 -5.46373e-21)
(0.597962 0.0613975 -2.44311e-20)
(0.661284 0.0351705 1.74875e-21)
(0.859761 -0.00472165 -5.86741e-21)
(0.249283 0.114727 0)
(0.314332 0.144434 -1.69005e-21)
(0.356524 0.145675 -1.36872e-21)
(0.403066 0.150579 0)
(0.44952 0.145852 2.67201e-21)
(0.496239 0.130214 -7.87226e-21)
(0.540717 0.106885 9.75434e-21)
(0.586926 0.0631519 3.73537e-21)
(0.652918 0.035066 -3.85891e-21)
(0.855753 -0.00404825 7.82148e-21)
(0.256286 0.144901 1.22333e-21)
(0.319338 0.171638 2.45763e-21)
(0.357402 0.168816 -3.58087e-22)
(0.402107 0.169275 9.93272e-22)
(0.445527 0.159085 2.32473e-21)
(0.488816 0.138381 4.32339e-21)
(0.529986 0.110403 -1.70659e-21)
(0.5747 0.0640139 -1.89255e-21)