/*--------------------------------*- C++ -*----------------------------------*\
  =========                 |
  \\      /  F ield         | OpenFOAM: The Open Source CFD Toolbox
   \\    /   O peration     | Website:  https://openfoam.org
    \\  /    A nd           | Version:  7
     \\/     M anipulation  |
\*---------------------------------------------------------------------------*/
FoamFile
{
    version     2.0;
    format      ascii;
    class       volScalarField;
    location    "0.075";
    object      p;
}
// * * * * * * * * * * * * * * * * * * * * * * * * * * * * * * * * * * * * * //

dimensions      [0 2 -2 0 0 0 0];

internalField   nonuniform List<scalar> 
400
(
1.38129e-06
-0.00568489
-0.0125298
-0.0176907
-0.0195133
-0.0172391
-0.0108129
-0.000671721
0.0124108
0.0274253
0.0432023
0.0584829
0.0720015
0.0825898
0.0893114
0.0916279
0.0896036
0.0841241
0.0770283
0.0713463
0.00561006
-0.00024122
-0.00553867
-0.009041
-0.0099334
-0.00768671
-0.00223457
0.00611288
0.0167745
0.0289686
0.0417731
0.0541889
0.0652142
0.0739359
0.0796373
0.0819224
0.0808606
0.0770822
0.0715789
0.0657533
0.0128701
0.00473437
-0.000999986
-0.00422761
-0.00493677
-0.00284068
0.002053
0.00944813
0.0188439
0.0295779
0.0408647
0.0518452
0.0616489
0.0694708
0.0746596
0.076818
0.0759292
0.0723796
0.0663827
0.0582444
0.0193943
0.00816463
0.00104105
-0.00264833
-0.00355967
-0.00162198
0.00304999
0.0101145
0.0190829
0.0293406
0.0401638
0.0507517
0.0602748
0.0679384
0.0730576
0.0751461
0.0740538
0.0699541
0.0624369
0.0511084
0.0235896
0.00908627
0.000298903
-0.00406238
-0.00522952
-0.00331918
0.00144221
0.00864532
0.0177829
0.0282522
0.0393508
0.050292
0.0602369
0.0683461
0.0738436
0.0761037
0.0748144
0.0699534
0.0605779
0.0457684
0.0242463
0.00640848
-0.00411716
-0.00915346
-0.0104581
-0.00831882
-0.00307611
0.00478008
0.0147044
0.0260821
0.0382059
0.0502711
0.0613927
0.0706427
0.0771051
0.0799656
0.0787143
0.0731256
0.0617569
0.0432504
0.0203092
-0.000942472
-0.0131801
-0.0187431
-0.0199179
-0.0171685
-0.0109582
-0.00186891
0.00950448
0.0225239
0.0364631
0.050483
0.0636282
0.074848
0.0830396
0.0871438
0.086396
0.0803233
0.0669402
0.0444517
0.0106708
-0.0141231
-0.027959
-0.0337456
-0.0343627
-0.0304833
-0.0227146
-0.0117414
0.00178856
0.017216
0.0337999
0.0506677
0.0667871
0.0809629
0.0918629
0.0981153
0.0986163
0.0925509
0.0772544
0.050403
-0.00598343
-0.0345014
-0.0497156
-0.0552328
-0.0546653
-0.048964
-0.0389154
-0.0253198
-0.00887175
0.00976676
0.0298644
0.0505399
0.0706999
0.0890023
0.103851
0.113484
0.116339
0.111102
0.0941718
0.0624951
-0.0313128
-0.0637793
-0.0799734
-0.0844446
-0.0817816
-0.0733291
-0.0601062
-0.0430408
-0.022855
-0.00017465
0.0243294
0.0498211
0.0751949
0.0989892
0.11933
0.133988
0.140791
0.13768
0.119706
0.0827123
-0.0675083
-0.104157
-0.120597
-0.122776
-0.116668
-0.104191
-0.0866633
-0.065146
-0.0403489
-0.0127947
0.0169896
0.0483065
0.0801308
0.110958
0.138665
0.160502
0.173511
0.174551
0.156669
0.113948
-0.117632
-0.158592
-0.173892
-0.171728
-0.160139
-0.141858
-0.118578
-0.0914674
-0.0611494
-0.0279372
0.00791051
0.0459749
0.0854625
0.124973
0.162247
0.19402
0.216395
0.224717
0.209041
0.160515
-0.186307
-0.231237
-0.242713
-0.232788
-0.212614
-0.186042
-0.155156
-0.121148
-0.0844107
-0.0448876
-0.00239443
0.0431215
0.0913189
0.141147
0.190446
0.235596
0.271706
0.292131
0.282528
0.229074
-0.281226
-0.328152
-0.330515
-0.307122
-0.273691
-0.235413
-0.194632
-0.152323
-0.108394
-0.0621783
-0.0128197
0.0404497
0.0980292
0.159578
0.223463
0.286126
0.341905
0.381828
0.385411
0.330476
-0.416368
-0.458425
-0.441064
-0.394808
-0.341339
-0.286946
-0.2337
-0.181826
-0.130312
-0.0775292
-0.0216799
0.0389937
0.105966
0.180073
0.260875
0.345721
0.429
0.499702
0.529733
0.483409
-0.617857
-0.6355
-0.577595
-0.493572
-0.410822
-0.335215
-0.267181
-0.205135
-0.146479
-0.0881123
-0.0270382
0.0397486
0.115117
0.201615
0.300898
0.412693
0.533365
0.651659
0.732402
0.720111
-0.934469
-0.877478
-0.741331
-0.59795
-0.474391
-0.372574
-0.288604
-0.217228
-0.153136
-0.0914016
-0.0275043
0.042957
0.124462
0.221761
0.339742
0.482752
0.652562
0.841758
1.01481
1.09573
-1.47999
-1.2017
-0.921072
-0.692865
-0.518092
-0.388041
-0.290313
-0.213236
-0.147642
-0.0863984
-0.0235119
0.046667
0.130182
0.234245
0.368102
0.543622
0.772899
1.06036
1.39804
1.73357
-2.57142
-1.60204
-1.04392
-0.715546
-0.498626
-0.354135
-0.256035
-0.184436
-0.126351
-0.073162
-0.0182859
0.0441781
0.120936
0.220761
0.356946
0.550528
0.83026
1.23528
1.88108
2.95896
-4.44519
-2.01762
-0.970563
-0.565473
-0.358364
-0.240306
-0.170362
-0.123875
-0.0872487
-0.0529113
-0.0157601
0.0287735
0.0857519
0.162683
0.272959
0.44252
0.719665
1.22204
2.38425
4.92936
)
;

boundaryField
{
    movingWall
    {
        type            zeroGradient;
    }
    fixedWalls
    {
        type            zeroGradient;
    }
    frontAndBack
    {
        type            empty;
    }
}


// ************************************************************************* //
