/*--------------------------------*- C++ -*----------------------------------*\
  =========                 |
  \\      /  F ield         | OpenFOAM: The Open Source CFD Toolbox
   \\    /   O peration     | Website:  https://openfoam.org
    \\  /    A nd           | Version:  7
     \\/     M anipulation  |
\*---------------------------------------------------------------------------*/
FoamFile
{
    version     2.0;
    format      ascii;
    class       surfaceScalarField;
    location    "0.075";
    object      phi;
}
// * * * * * * * * * * * * * * * * * * * * * * * * * * * * * * * * * * * * * //

dimensions      [0 3 -1 0 0 0 0];

internalField   nonuniform List<scalar> 
760
(
1.35447e-08
-1.3552e-08
-2.20728e-08
3.56179e-08
-1.10941e-07
8.88679e-08
-2.37456e-07
1.26514e-07
-3.82549e-07
1.45093e-07
-5.28192e-07
1.45644e-07
-6.58922e-07
1.3073e-07
-7.62377e-07
1.03455e-07
-8.29402e-07
6.70247e-08
-8.5408e-07
2.46779e-08
-8.33857e-07
-2.02232e-08
-7.69779e-07
-6.40779e-08
-6.66792e-07
-1.02986e-07
-5.33993e-07
-1.32799e-07
-3.8466e-07
-1.49332e-07
-2.35857e-07
-1.48804e-07
-1.0724e-07
-1.28616e-07
-1.8695e-08
-8.85451e-08
1.49822e-08
-3.36771e-08
1.49823e-08
-3.33292e-08
1.97767e-08
-1.74448e-07
1.76737e-07
-4.19072e-07
3.33492e-07
-7.37347e-07
4.44788e-07
-1.09128e-06
4.99024e-07
-1.44239e-06
4.96752e-07
-1.75598e-06
4.44328e-07
-2.00341e-06
3.50877e-07
-2.16308e-06
2.26696e-07
-2.22109e-06
8.26949e-08
-2.17172e-06
-6.96009e-08
-2.01787e-06
-2.17921e-07
-1.77164e-06
-3.49221e-07
-1.45442e-06
-4.5002e-07
-1.0965e-06
-5.0725e-07
-7.35455e-07
-5.0985e-07
-4.12752e-07
-4.5132e-07
-1.68044e-07
-3.33253e-07
-3.03596e-08
-1.71362e-07
-1.53773e-08
-8.88592e-08
1.08636e-07
-3.44423e-07
4.323e-07
-7.37535e-07
7.26604e-07
-1.22324e-06
9.30497e-07
-1.7494e-06
1.02518e-06
-2.26393e-06
1.01128e-06
-2.71973e-06
9.00123e-07
-3.07758e-06
7.08735e-07
-3.30786e-06
4.56969e-07
-3.39143e-06
1.66268e-07
-3.32045e-06
-1.4058e-07
-3.09901e-06
-4.39363e-07
-2.74368e-06
-7.04547e-07
-2.28369e-06
-9.10014e-07
-1.76014e-06
-1.03079e-06
-1.22385e-06
-1.04614e-06
-7.31003e-07
-9.44168e-07
-3.36453e-07
-7.27802e-07
-8.46586e-08
-4.23156e-07
-1.00036e-07
-1.40072e-07
2.48708e-07
-5.07462e-07
7.9969e-07
-1.04483e-06
1.26397e-06
-1.68796e-06
1.57363e-06
-2.37036e-06
1.70758e-06
-3.02865e-06
1.66958e-06
-3.6067e-06
1.47817e-06
-4.05826e-06
1.16029e-06
-4.34847e-06
7.47179e-07
-4.45482e-06
2.72624e-07
-4.36788e-06
-2.2752e-07
-4.09203e-06
-7.15217e-07
-3.64618e-06
-1.15039e-06
-3.06419e-06
-1.49201e-06
-2.39431e-06
-1.70067e-06
-1.69728e-06
-1.74317e-06
-1.04213e-06
-1.59932e-06
-4.9979e-07
-1.27015e-06
-1.35093e-07
-7.87853e-07
-2.35129e-07
-1.8734e-07
4.36048e-07
-6.6354e-07
1.27589e-06
-1.34267e-06
1.94309e-06
-2.13892e-06
2.36988e-06
-2.97038e-06
2.53905e-06
-3.76298e-06
2.46217e-06
-4.4533e-06
2.16849e-06
-4.99023e-06
1.69722e-06
-5.33569e-06
1.09263e-06
-5.46497e-06
4.01907e-07
-5.36725e-06
-3.25242e-07
-5.04629e-06
-1.03617e-06
-4.5215e-06
-1.67518e-06
-3.8289e-06
-2.18462e-06
-3.02151e-06
-2.50805e-06
-2.16841e-06
-2.59627e-06
-1.35152e-06
-2.41621e-06
-6.59986e-07
-1.96168e-06
-1.82543e-07
-1.2653e-06
-4.17672e-07
-2.33243e-07
6.69291e-07
-8.17714e-07
1.86036e-06
-1.63847e-06
2.76385e-06
-2.58645e-06
3.31786e-06
-3.56332e-06
3.51592e-06
-4.48462e-06
3.38346e-06
-5.28099e-06
2.96487e-06
-5.89827e-06
2.3145e-06
-6.29678e-06
1.49114e-06
-6.45067e-06
5.55799e-07
-6.34781e-06
-4.28098e-07
-5.99042e-06
-1.39357e-06
-5.39651e-06
-2.26909e-06
-4.60193e-06
-2.9792e-06
-3.66225e-06
-3.44772e-06
-2.65361e-06
-3.60492e-06
-1.67124e-06
-3.39858e-06
-8.24832e-07
-2.80809e-06
-2.30504e-07
-1.85962e-06
-6.48177e-07
-2.80355e-07
9.49646e-07
-9.75666e-07
2.55567e-06
-1.93993e-06
3.72812e-06
-3.03887e-06
4.4168e-06
-4.15708e-06
4.63414e-06
-5.20043e-06
4.4268e-06
-6.09541e-06
3.85985e-06
-6.78697e-06
3.00606e-06
-7.23581e-06
1.93998e-06
-7.41622e-06
7.36212e-07
-7.31497e-06
-5.29353e-07
-6.9317e-06
-1.77684e-06
-6.28094e-06
-2.91984e-06
-5.39553e-06
-3.86461e-06
-4.33063e-06
-4.51263e-06
-3.16737e-06
-4.76817e-06
-2.01407e-06
-4.55188e-06
-1.00323e-06
-3.81893e-06
-2.82692e-07
-2.58016e-06
-9.30868e-07
-3.30949e-07
1.2806e-06
-1.14245e-06
3.36717e-06
-2.25284e-06
4.83851e-06
-3.49997e-06
5.66393e-06
-4.75107e-06
5.88524e-06
-5.90405e-06
5.57978e-06
-6.88417e-06
4.83997e-06
-7.63874e-06
3.76062e-06
-8.13167e-06
2.43291e-06
-8.33924e-06
9.43779e-07
-8.24765e-06
-6.20938e-07
-7.85303e-06
-2.17147e-06
-7.16389e-06
-3.60898e-06
-6.20621e-06
-4.82229e-06
-5.03039e-06
-5.68845e-06
-3.7187e-06
-6.07986e-06
-2.39077e-06
-5.87981e-06
-1.20362e-06
-5.00609e-06
-3.42676e-07
-3.4411e-06
-1.27354e-06
-3.87182e-07
1.66778e-06
-1.32241e-06
4.3024e-06
-2.5805e-06
6.0966e-06
-3.96762e-06
7.05105e-06
-5.3341e-06
7.25172e-06
-6.57331e-06
6.81899e-06
-7.614e-06
5.88066e-06
-8.41068e-06
4.5573e-06
-8.93459e-06
2.95682e-06
-9.16678e-06
1.17597e-06
-9.09406e-06
-6.93664e-07
-8.70817e-06
-2.55736e-06
-8.0087e-06
-4.30845e-06
-7.00981e-06
-5.82118e-06
-5.75063e-06
-6.94762e-06
-4.308e-06
-7.5225e-06
-2.80832e-06
-7.37949e-06
-1.43353e-06
-6.38088e-06
-4.14004e-07
-4.46062e-06
-1.68755e-06
-4.51722e-07
2.1195e-06
-1.52009e-06
5.37077e-06
-2.92384e-06
7.50035e-06
-4.43265e-06
8.55986e-06
-5.88204e-06
8.7011e-06
-7.16682e-06
8.10378e-06
-8.2266e-06
6.94043e-06
-9.03001e-06
5.36072e-06
-9.56124e-06
3.48806e-06
-9.81003e-06
1.42476e-06
-9.76566e-06
-7.38038e-07
-9.41515e-06
-2.90787e-06
-8.74609e-06
-4.97751e-06
-7.75477e-06
-6.81249e-06
-6.46019e-06
-8.24221e-06
-4.9233e-06
-9.05939e-06
-3.26843e-06
-9.03435e-06
-1.69971e-06
-7.94959e-06
-5.00699e-07
-5.65964e-06
-2.18825e-06
-5.28873e-07
2.64837e-06
-1.74165e-06
6.58355e-06
-3.28174e-06
9.04044e-06
-4.87718e-06
1.01553e-05
-6.3541e-06
1.0178e-05
-7.61898e-06
9.36866e-06
-8.63302e-06
7.95447e-06
-9.38823e-06
6.11593e-06
-9.88878e-06
3.98861e-06
-1.01379e-05
1.67392e-06
-1.01302e-05
-7.45754e-07
-9.84836e-06
-3.18974e-06
-9.26536e-06
-5.56051e-06
-8.35319e-06
-7.72467e-06
-7.09963e-06
-9.49577e-06
-5.53476e-06
-1.06243e-05
-3.76525e-06
-1.08039e-05
-2.00845e-06
-9.70639e-06
-6.0818e-07
-7.05991e-06
-2.79643e-06
-6.2648e-07
3.27485e-06
-1.99683e-06
7.9539e-06
-3.65026e-06
1.06939e-05
-5.2703e-06
1.17753e-05
-6.68592e-06
1.15936e-05
-7.83179e-06
1.05145e-05
-8.70557e-06
8.82824e-06
-9.33383e-06
6.74418e-06
-9.74836e-06
4.40315e-06
-9.97106e-06
1.89662e-06
-1.0005e-05
-7.11828e-07
-9.83016e-06
-3.36457e-06
-9.40408e-06
-5.98659e-06
-8.669e-06
-8.45974e-06
-7.56957e-06
-1.05952e-05
-6.08538e-06
-1.21084e-05
-4.28066e-06
-1.26086e-05
-2.36547e-06
-1.16216e-05
-7.44789e-07
-8.68059e-06
-3.54122e-06
-7.59064e-07
4.03392e-06
-2.30029e-06
9.49513e-06
-4.01804e-06
1.24116e-05
-5.55754e-06
1.33148e-05
-6.77577e-06
1.28119e-05
-7.66103e-06
1.13998e-05
-8.26613e-06
9.43334e-06
-8.66359e-06
7.14164e-06
-8.91912e-06
4.65868e-06
-9.07694e-06
2.05445e-06
-9.15172e-06
-6.37047e-07
-9.12381e-06
-3.39249e-06
-8.93728e-06
-6.17312e-06
-8.50316e-06
-8.89386e-06
-7.71346e-06
-1.13849e-05
-6.47514e-06
-1.33468e-05
-4.77439e-06
-1.43093e-05
-2.77422e-06
-1.36218e-05
-9.24272e-07
-1.05305e-05
-4.46549e-06
-9.52556e-07
4.98647e-06
-2.6694e-06
1.1212e-05
-4.35128e-06
1.40935e-05
-5.63676e-06
1.46003e-05
-6.45811e-06
1.36332e-05
-6.89308e-06
1.18348e-05
-7.06932e-06
9.60958e-06
-7.11278e-06
7.1851e-06
-7.1242e-06
4.6701e-06
-7.16976e-06
2.1e-06
-7.27693e-06
-5.29875e-07
-7.43069e-06
-3.23873e-06
-7.56852e-06
-6.03529e-06
-7.57641e-06
-8.88597e-06
-7.29264e-06
-1.16687e-05
-6.53342e-06
-1.4106e-05
-5.1626e-06
-1.56802e-05
-3.22835e-06
-1.5556e-05
-1.16904e-06
-1.25898e-05
-5.63453e-06
-1.24852e-06
6.23499e-06
-3.10782e-06
1.30713e-05
-4.55292e-06
1.55386e-05
-5.30622e-06
1.53536e-05
-5.45497e-06
1.37819e-05
-5.20813e-06
1.15879e-05
-4.78014e-06
9.18159e-06
-4.34603e-06
6.75098e-06
-4.03205e-06
4.35613e-06
-3.91798e-06
1.98593e-06
-4.04144e-06
-4.06414e-07
-4.39669e-06
-2.88348e-06
-4.92715e-06
-5.50482e-06
-5.51191e-06
-8.30121e-06
-5.95186e-06
-1.12287e-05
-5.97168e-06
-1.40862e-05
-5.27207e-06
-1.63798e-05
-3.68671e-06
-1.71414e-05
-1.51033e-06
-1.47662e-05
-7.14486e-06
-1.69371e-06
7.9287e-06
-3.54216e-06
1.49197e-05
-4.36137e-06
1.63578e-05
-4.16158e-06
1.51538e-05
-3.29496e-06
1.29153e-05
-2.12887e-06
1.04218e-05
-9.50204e-07
8.00293e-06
4.45886e-08
5.75619e-06
7.31169e-07
3.66955e-06
1.03409e-06
1.68301e-06
9.14395e-07
-2.86718e-07
3.65302e-07
-2.33438e-06
-5.79646e-07
-4.55988e-06
-1.82469e-06
-7.05617e-06
-3.17649e-06
-9.87693e-06
-4.30588e-06
-1.29568e-05
-4.74423e-06
-1.59414e-05
-3.99844e-06
-1.78871e-05
-1.96718e-06
-1.67975e-05
-9.11204e-06
-2.27635e-06
1.0205e-05
-3.62728e-06
1.62707e-05
-3.12093e-06
1.58515e-05
-1.41042e-06
1.34433e-05
8.03125e-07
1.07018e-05
3.03401e-06
8.19096e-06
4.9928e-06
6.04415e-06
6.52397e-06
4.22502e-06
7.54817e-06
2.64534e-06
8.02373e-06
1.20746e-06
7.9239e-06
-1.86887e-07
7.22966e-06
-1.64015e-06
5.93483e-06
-3.26504e-06
4.06967e-06
-5.19101e-06
1.75022e-06
-7.55748e-06
-7.39462e-07
-1.04671e-05
-2.84739e-06
-1.38335e-05
-3.7108e-06
-1.70237e-05
-2.46634e-06
-1.8042e-05
-1.15784e-05
-2.69955e-06
1.29046e-05
-2.21888e-06
1.579e-05
6.87398e-07
1.29452e-05
4.41729e-06
9.71342e-06
8.05676e-06
7.06231e-06
1.12014e-05
5.0463e-06
1.37076e-05
3.53795e-06
1.55495e-05
2.38317e-06
1.67416e-05
1.45325e-06
1.72999e-05
6.49093e-07
1.72235e-05
-1.10437e-07
1.64862e-05
-9.02908e-07
1.50372e-05
-1.81599e-06
1.28121e-05
-2.96598e-06
9.77188e-06
-4.51721e-06
5.99462e-06
-6.68982e-06
1.86457e-06
-9.70344e-06
-1.61288e-06
-1.35463e-05
-2.59912e-06
-1.70557e-05
-1.41775e-05
-5.79023e-07
1.34836e-05
4.11621e-06
1.10948e-05
1.02867e-05
6.77468e-06
1.57616e-05
4.23858e-06
2.01068e-05
2.71704e-06
2.33891e-05
1.76407e-06
2.57763e-05
1.15068e-06
2.74248e-05
7.34673e-07
2.84492e-05
4.28849e-07
2.89182e-05
1.80164e-07
2.88558e-05
-4.80713e-08
2.82384e-05
-2.85484e-07
2.69914e-05
-5.68973e-07
2.49777e-05
-9.52278e-07
2.19904e-05
-1.52994e-06
1.77732e-05
-2.47265e-06
1.21527e-05
-4.08291e-06
5.51108e-06
-6.90466e-06
9.32279e-08
-1.16379e-05
-1.40843e-05
1.34836e-05
2.45784e-05
3.1353e-05
3.55916e-05
3.83087e-05
4.00727e-05
4.12234e-05
4.19581e-05
4.23869e-05
4.25671e-05
4.2519e-05
4.22335e-05
4.16646e-05
4.07123e-05
3.91824e-05
3.67097e-05
3.26268e-05
2.57221e-05
1.40843e-05
)
;

boundaryField
{
    movingWall
    {
        type            calculated;
        value           uniform 0;
    }
    fixedWalls
    {
        type            calculated;
        value           uniform 0;
    }
    frontAndBack
    {
        type            empty;
        value           nonuniform 0();
    }
}


// ************************************************************************* //
