/*--------------------------------*- C++ -*----------------------------------*\
  =========                 |
  \\      /  F ield         | OpenFOAM: The Open Source CFD Toolbox
   \\    /   O peration     | Website:  https://openfoam.org
    \\  /    A nd           | Version:  7
     \\/     M anipulation  |
\*---------------------------------------------------------------------------*/
FoamFile
{
    version     2.0;
    format      ascii;
    class       volVectorField;
    location    "0.075";
    object      U;
}
// * * * * * * * * * * * * * * * * * * * * * * * * * * * * * * * * * * * * * //

dimensions      [0 1 -1 0 0 0 0];

internalField   nonuniform List<vector> 
400
(
(0.000248338 -0.000242966 0)
(0.000136386 0.000104017 0)
(-0.00114664 0.000534454 0)
(-0.00337242 0.000838858 0)
(-0.00616357 0.000990878 0)
(-0.00914112 0.00100525 0)
(-0.0119648 0.000906233 0)
(-0.0143535 0.000719264 0)
(-0.0160912 0.000468159 0)
(-0.0170265 0.000175502 0)
(-0.0170739 -0.000135854 0)
(-0.0162172 -0.000441278 0)
(-0.0145156 -0.000713364 0)
(-0.0121093 -0.000921818 0)
(-0.00922351 -0.0010345 0)
(-0.00616609 -0.00102021 0)
(-0.00331224 -0.000854457 0)
(-0.00106771 -0.00052967 0)
(0.000187293 -8.63765e-05 0)
(0.000261724 0.000254337 0)
(-6.70566e-05 -0.000161535 0)
(-0.00155191 0.00158938 0)
(-0.0055027 0.00347987 0)
(-0.0113109 0.00483669 0)
(-0.018216 0.00551238 0)
(-0.0254393 0.00552503 0)
(-0.0322368 0.00495875 0)
(-0.0379663 0.00392451 0)
(-0.0421212 0.00254189 0)
(-0.0443444 0.000934382 0)
(-0.0444371 -0.000768867 0)
(-0.0423691 -0.00242989 0)
(-0.0382889 -0.00390051 0)
(-0.0325319 -0.00502514 0)
(-0.0256201 -0.00564968 0)
(-0.0182443 -0.00563935 0)
(-0.0112132 -0.00490896 0)
(-0.00535858 -0.00346836 0)
(-0.00144964 -0.00151831 0)
(-3.6072e-05 0.000215549 0)
(-0.000494352 0.00106019 0)
(-0.00356566 0.00554669 0)
(-0.0102179 0.00986263 0)
(-0.0192843 0.0129173 0)
(-0.0296634 0.0143886 0)
(-0.0403121 0.0142779 0)
(-0.0502266 0.0127521 0)
(-0.0585311 0.010062 0)
(-0.0645308 0.00649707 0)
(-0.0677344 0.00236795 0)
(-0.0678691 -0.00199577 0)
(-0.0648945 -0.00624347 0)
(-0.0590155 -0.0100043 0)
(-0.0506911 -0.0128976 0)
(-0.0406316 -0.0145582 0)
(-0.0297731 -0.014682 0)
(-0.019205 -0.0130968 0)
(-0.0100484 -0.00985788 0)
(-0.00342883 -0.00539784 0)
(-0.000448591 -0.000931732 0)
(-0.000873774 0.00336369 0)
(-0.00547404 0.0118052 0)
(-0.0147826 0.0192193 0)
(-0.0269695 0.0242875 0)
(-0.0405532 0.0265829 0)
(-0.054254 0.026129 0)
(-0.0668708 0.02321 0)
(-0.0773668 0.0182541 0)
(-0.084925 0.0117635 0)
(-0.0889685 0.00428303 0)
(-0.0891745 -0.00360757 0)
(-0.0854891 -0.0112927 0)
(-0.0781425 -0.0181243 0)
(-0.0676621 -0.0234411 0)
(-0.054875 -0.026612 0)
(-0.0408882 -0.0271137 0)
(-0.027014 -0.0246438 0)
(-0.0146457 -0.0192634 0)
(-0.00532134 -0.0115805 0)
(-0.00081494 -0.0031398 0)
(-0.00120889 0.00664478 0)
(-0.00726988 0.0202503 0)
(-0.0191915 0.0313949 0)
(-0.0344384 0.0387003 0)
(-0.0511112 0.0417524 0)
(-0.06769 0.0406782 0)
(-0.0828035 0.0359359 0)
(-0.0952968 0.0281736 0)
(-0.104275 0.0181386 0)
(-0.109109 0.00663631 0)
(-0.109441 -0.00547952 0)
(-0.105197 -0.0173038 0)
(-0.0966026 -0.0278825 0)
(-0.0842089 -0.0362362 0)
(-0.0689078 -0.0414201 0)
(-0.0519333 -0.0426304 0)
(-0.0348018 -0.0393604 0)
(-0.0192003 -0.0315891 0)
(-0.00714189 -0.019993 0)
(-0.00114217 -0.00631639 0)
(-0.00152686 0.0108498 0)
(-0.00902956 0.0308523 0)
(-0.0235656 0.0463895 0)
(-0.0418638 0.0561463 0)
(-0.0615762 0.0598515 0)
(-0.0809355 0.0578428 0)
(-0.0984185 0.0508321 0)
(-0.112787 0.0397394 0)
(-0.123105 0.0255881 0)
(-0.128721 0.00945912 0)
(-0.129255 -0.00751357 0)
(-0.124602 -0.0241302 0)
(-0.114957 -0.0391177 0)
(-0.100847 -0.0511496 0)
(-0.0831797 -0.0589142 0)
(-0.0632785 -0.0612463 0)
(-0.0428518 -0.0573281 0)
(-0.0239078 -0.0469314 0)
(-0.00900097 -0.0306792 0)
(-0.00146465 -0.0104352 0)
(-0.00185373 0.0159772 0)
(-0.0108378 0.0436344 0)
(-0.0280433 0.0642314 0)
(-0.0494113 0.0766252 0)
(-0.0721145 0.0808324 0)
(-0.09414 0.077534 0)
(-0.113841 0.0677945 0)
(-0.129938 0.0528681 0)
(-0.1415 0.034082 0)
(-0.147887 0.0127954 0)
(-0.14871 -0.0095902 0)
(-0.143829 -0.0315962 0)
(-0.133373 -0.0516362 0)
(-0.117796 -0.0680183 0)
(-0.0979591 -0.0790083 0)
(-0.0752182 -0.0829802 0)
(-0.051447 -0.0786624 0)
(-0.0289921 -0.0654548 0)
(-0.0110251 -0.0437761 0)
(-0.00181802 -0.0155433 0)
(-0.00221242 0.0220744 0)
(-0.0127724 0.0586779 0)
(-0.0327445 0.084972 0)
(-0.0571897 0.100114 0)
(-0.0827672 0.104588 0)
(-0.107238 0.0995819 0)
(-0.128882 0.086635 0)
(-0.146445 0.0674044 0)
(-0.159063 0.043544 0)
(-0.166157 0.0166775 0)
(-0.167358 -0.011562 0)
(-0.162484 -0.0394595 0)
(-0.151563 -0.0651469 0)
(-0.13491 -0.0865672 0)
(-0.113253 -0.101514 0)
(-0.0878934 -0.107784 0)
(-0.0608038 -0.103473 0)
(-0.0346609 -0.0873833 0)
(-0.013339 -0.0595222 0)
(-0.00223682 -0.0217609 0)
(-0.00262589 0.0292324 0)
(-0.0149077 0.0761151 0)
(-0.0377645 0.108664 0)
(-0.0652305 0.126521 0)
(-0.0934149 0.130882 0)
(-0.1199 0.123654 0)
(-0.142982 0.106998 0)
(-0.161534 0.0830478 0)
(-0.174852 0.0537962 0)
(-0.182486 0.0210956 0)
(-0.18413 -0.0132551 0)
(-0.179564 -0.0473816 0)
(-0.168679 -0.0792016 0)
(-0.151569 -0.106326 0)
(-0.128713 -0.126044 0)
(-0.101215 -0.135456 0)
(-0.0710228 -0.131796 0)
(-0.0410854 -0.112967 0)
(-0.0160655 -0.0782475 0)
(-0.00275778 -0.0292799 0)
(-0.00312517 0.0375882 0)
(-0.0173331 0.0961184 0)
(-0.0431876 0.135317 0)
(-0.07348 0.155608 0)
(-0.103742 0.159247 0)
(-0.131476 0.149144 0)
(-0.155139 0.128252 0)
(-0.173879 0.0992594 0)
(-0.187282 0.0644885 0)
(-0.195126 0.0259551 0)
(-0.197223 -0.0144786 0)
(-0.193334 -0.0548998 0)
(-0.18318 -0.0931276 0)
(-0.166546 -0.126523 0)
(-0.143506 -0.151883 0)
(-0.114766 -0.165498 0)
(-0.0820371 -0.16348 0)
(-0.0483916 -0.14241 0)
(-0.0193382 -0.100353 0)
(-0.00342772 -0.0383664 0)
(-0.00376393 0.0473447 0)
(-0.0201861 0.118897 0)
(-0.0491104 0.164841 0)
(-0.0817868 0.18688 0)
(-0.113181 0.188848 0)
(-0.140901 0.175027 0)
(-0.163792 0.149365 0)
(-0.181484 0.115159 0)
(-0.194013 0.0750211 0)
(-0.201506 0.0310257 0)
(-0.203968 -0.0150469 0)
(-0.201177 -0.0614135 0)
(-0.192664 -0.10597 0)
(-0.177818 -0.14598 0)
(-0.156138 -0.177829 0)
(-0.127663 -0.196939 0)
(-0.0935313 -0.198013 0)
(-0.0566454 -0.175762 0)
(-0.0233243 -0.126281 0)
(-0.00431789 -0.0493787 0)
(-0.00464498 0.0588211 0)
(-0.0237035 0.144704 0)
(-0.0556606 0.196955 0)
(-0.0898492 0.219425 0)
(-0.120792 0.218299 0)
(-0.146539 0.199701 0)
(-0.166659 0.16877 0)
(-0.181524 0.129425 0)
(-0.191809 0.0844707 0)
(-0.198109 0.0358867 0)
(-0.200707 -0.0148152 0)
(-0.199443 -0.0661945 0)
(-0.193676 -0.116458 0)
(-0.182346 -0.163013 0)
(-0.16421 -0.202025 0)
(-0.138329 -0.228097 0)
(-0.104795 -0.234283 0)
(-0.0658119 -0.212741 0)
(-0.0282569 -0.156471 0)
(-0.00554968 -0.0628106 0)
(-0.00596848 0.0725567 0)
(-0.0282923 0.173831 0)
(-0.0629722 0.231016 0)
(-0.0970553 0.251661 0)
(-0.125006 0.245421 0)
(-0.145894 0.220797 0)
(-0.160472 0.184249 0)
(-0.170148 0.140226 0)
(-0.176399 0.0915468 0)
(-0.180377 0.0398867 0)
(-0.182704 -0.0137268 0)
(-0.183344 -0.0684323 0)
(-0.181543 -0.123026 0)
(-0.175814 -0.175383 0)
(-0.164087 -0.221796 0)
(-0.144146 -0.256297 0)
(-0.114445 -0.270214 0)
(-0.0756382 -0.252437 0)
(-0.0344731 -0.191269 0)
(-0.00734037 -0.0793791 0)
(-0.0081128 0.0894967 0)
(-0.0345996 0.206542 0)
(-0.0710133 0.265684 0)
(-0.102061 0.280937 0)
(-0.123085 0.266927 0)
(-0.135092 0.235006 0)
(-0.14057 0.192878 0)
(-0.142208 0.145242 0)
(-0.142344 0.0946263 0)
(-0.142677 0.042149 0)
(-0.144161 -0.01186 0)
(-0.146941 -0.0673318 0)
(-0.150265 -0.123922 0)
(-0.152374 -0.180359 0)
(-0.150461 -0.233574 0)
(-0.140891 -0.277581 0)
(-0.119886 -0.302285 0)
(-0.0853454 -0.292801 0)
(-0.0424169 -0.230704 0)
(-0.0100735 -0.100171 0)
(-0.0117286 0.111262 0)
(-0.0434527 0.242776 0)
(-0.0789805 0.298258 0)
(-0.101791 0.302934 0)
(-0.110065 0.278106 0)
(-0.108004 0.238046 0)
(-0.100307 0.191182 0)
(-0.0909611 0.14188 0)
(-0.0829818 0.0919479 0)
(-0.0784123 0.0416747 0)
(-0.0784168 -0.0094554 0)
(-0.083333 -0.0622794 0)
(-0.092587 -0.117489 0)
(-0.104472 -0.175016 0)
(-0.115839 -0.233062 0)
(-0.121885 -0.286553 0)
(-0.116296 -0.324945 0)
(-0.0928449 -0.329808 0)
(-0.0524259 -0.273945 0)
(-0.014348 -0.126813 0)
(-0.0176622 0.140558 0)
(-0.05515 0.281204 0)
(-0.0835116 0.323363 0)
(-0.0892476 0.31087 0)
(-0.0768497 0.272688 0)
(-0.0549219 0.224994 0)
(-0.0303315 0.175678 0)
(-0.00783751 0.127846 0)
(0.00944881 0.0820621 0)
(0.0196126 0.0376049 0)
(0.0215639 -0.00688769 0)
(0.0148334 -0.0530749 0)
(-0.000378801 -0.102641 0)
(-0.0229102 -0.156881 0)
(-0.0500604 -0.215851 0)
(-0.0767723 -0.276625 0)
(-0.0947624 -0.330093 0)
(-0.0928333 -0.3561 0)
(-0.0637085 -0.318039 0)
(-0.0207555 -0.161718 0)
(-0.0260368 0.182199 0)
(-0.0666781 0.316667 0)
(-0.0740493 0.330251 0)
(-0.0491194 0.294342 0)
(-0.00717744 0.243054 0)
(0.0390608 0.191195 0)
(0.0819724 0.143961 0)
(0.117408 0.102097 0)
(0.143243 0.0645555 0)
(0.158402 0.0296532 0)
(0.162272 -0.00455409 0)
(0.154404 -0.0401787 0)
(0.134486 -0.0795161 0)
(0.102602 -0.124975 0)
(0.0599133 -0.178646 0)
(0.00998515 -0.240879 0)
(-0.0391072 -0.306709 0)
(-0.0726097 -0.358784 0)
(-0.0712152 -0.355175 0)
(-0.0286236 -0.208848 0)
(-0.0317525 0.241389 0)
(-0.0631408 0.333777 0)
(-0.0223148 0.299284 0)
(0.0498739 0.239495 0)
(0.126275 0.182328 0)
(0.195223 0.134735 0)
(0.252106 0.0967919 0)
(0.295627 0.0663607 0)
(0.325907 0.0410306 0)
(0.343382 0.0186487 0)
(0.348263 -0.00272512 0)
(0.340299 -0.0250111 0)
(0.3187 -0.0503809 0)
(0.28221 -0.0815277 0)
(0.229535 -0.12185 0)
(0.160586 -0.175024 0)
(0.0789228 -0.242652 0)
(-0.00384569 -0.317684 0)
(-0.0575473 -0.366441 0)
(-0.0309454 -0.27012 0)
(0.00231938 0.286407 0)
(0.0142988 0.29404 0)
(0.139695 0.209958 0)
(0.264509 0.142857 0)
(0.363524 0.0966075 0)
(0.439125 0.0652254 0)
(0.495196 0.0437697 0)
(0.535046 0.0285337 0)
(0.561409 0.0169741 0)
(0.57615 0.007391 0)
(0.580209 -0.00145887 0)
(0.573605 -0.0106902 0)
(0.555383 -0.0215791 0)
(0.523442 -0.0359586 0)
(0.474352 -0.0567804 0)
(0.403471 -0.088812 0)
(0.305021 -0.139031 0)
(0.173973 -0.215284 0)
(0.0351012 -0.310842 0)
(0.0120715 -0.304767 0)
(0.293167 0.148912 0)
(0.389684 0.127935 0)
(0.557571 0.0757877 0)
(0.674657 0.0433477 0)
(0.743578 0.0251912 0)
(0.786724 0.0149004 0)
(0.814954 0.00894041 0)
(0.833304 0.00531444 0)
(0.844641 0.00290469 0)
(0.850581 0.00109372 0)
(0.851875 -0.000490469 0)
(0.848634 -0.00214675 0)
(0.840333 -0.00420671 0)
(0.825581 -0.00722069 0)
(0.801615 -0.0122518 0)
(0.763267 -0.0214209 0)
(0.699258 -0.0388826 0)
(0.584365 -0.0723179 0)
(0.40933 -0.128331 0)
(0.302184 -0.152212 0)
)
;

boundaryField
{
    movingWall
    {
        type            fixedValue;
        value           uniform (1 0 0);
    }
    fixedWalls
    {
        type            noSlip;
    }
    frontAndBack
    {
        type            empty;
    }
}


// ************************************************************************* //
