-0.365783 	0.365783 	0.5 	0.0333905 	0.0325289 	1.80516e-21
-0.38935 	0.38935 	0.5 	0.087534 	0.0859314 	1.35822e-20
-0.412917 	0.412917 	0.5 	0.132446 	0.130699 	0
-0.436483 	0.436483 	0.5 	0.170234 	0.167908 	1.64423e-20
-0.46005 	0.46005 	0.5 	0.202303 	0.198669 	0
-0.483617 	0.483617 	0.5 	0.229727 	0.22387 	0
-0.507183 	0.507183 	0.5 	0.253317 	0.244278 	1.30397e-20
-0.53075 	0.53075 	0.5 	0.273712 	0.260559 	-2.72223e-23
-0.554317 	0.554317 	0.5 	0.29142 	0.273298 	4.52926e-21
-0.577883 	0.577883 	0.5 	0.306855 	0.283011 	4.5927e-21
-0.60145 	0.60145 	0.5 	0.32036 	0.290151 	-1.38404e-20
-0.625017 	0.625017 	0.5 	0.332218 	0.295118 	9.24232e-21
-0.648583 	0.648583 	0.5 	0.342666 	0.298258 	0
-0.67215 	0.67215 	0.5 	0.351906 	0.299874 	0
-0.695717 	0.695717 	0.5 	0.360103 	0.300225 	-1.82784e-20
-0.719283 	0.719283 	0.5 	0.3674 	0.299534 	0
-0.74285 	0.74285 	0.5 	0.373914 	0.297988 	-9.10668e-21
-0.766417 	0.766417 	0.5 	0.379741 	0.295743 	9.05156e-21
-0.789983 	0.789983 	0.5 	0.384962 	0.292928 	8.92701e-21
-0.81355 	0.81355 	0.5 	0.389641 	0.289648 	-4.25631e-23
-0.837117 	0.837117 	0.5 	0.393828 	0.285987 	-8.74862e-21
-0.860683 	0.860683 	0.5 	0.397562 	0.282009 	0
-0.88425 	0.88425 	0.5 	0.40087 	0.277763 	-1.68658e-20
-0.907817 	0.907817 	0.5 	0.403768 	0.273282 	1.67099e-20
-0.931383 	0.931383 	0.5 	0.406264 	0.268587 	0
-0.95495 	0.95495 	0.5 	0.408352 	0.263689 	0
-0.978517 	0.978517 	0.5 	0.410015 	0.258587 	0
-1.00208 	1.00208 	0.5 	0.411253 	0.253242 	0
-1.02565 	1.02565 	0.5 	0.412133 	0.24757 	-1.47774e-20
-1.04922 	1.04922 	0.5 	0.412583 	0.241824 	2.38626e-22
-1.061 	1.061 	0.5 	0.411599 	0.22771 	6.24319e-21
-1.14332 	1.14332 	0.5 	0.403209 	0.217803 	0
-1.22563 	1.22563 	0.5 	0.404622 	0.194689 	0
-1.30795 	1.30795 	0.5 	0.386339 	0.156291 	0
-1.39027 	1.39027 	0.5 	0.379102 	0.135131 	0
-1.47258 	1.47258 	0.5 	0.356015 	0.0867766 	0
-1.5549 	1.5549 	0.5 	0.342539 	0.0620734 	0
-1.63722 	1.63722 	0.5 	0.315291 	0.00618669 	0
-1.71953 	1.71953 	0.5 	0.297407 	-0.0226204 	0
