0.362837 	0.362837 	0.5 	-0.00319836 	0.0033741 	-4.91297e-24
0.380512 	0.380512 	0.5 	-0.00811217 	0.00924035 	1.55301e-21
0.398188 	0.398188 	0.5 	-0.0116324 	0.0146759 	-8.00375e-22
0.415863 	0.415863 	0.5 	-0.0140418 	0.0197226 	6.67e-21
0.433538 	0.433538 	0.5 	-0.015499 	0.0245049 	0
0.451213 	0.451213 	0.5 	-0.0161603 	0.0290966 	5.30279e-21
0.468888 	0.468888 	0.5 	-0.0161537 	0.0335534 	9.07408e-21
0.486563 	0.486563 	0.5 	-0.0155858 	0.0379151 	5.58265e-21
0.504238 	0.504238 	0.5 	-0.0145453 	0.0422093 	-3.81915e-21
0.521913 	0.521913 	0.5 	-0.0131059 	0.0464554 	-9.72139e-21
0.539588 	0.539588 	0.5 	-0.0113294 	0.0506668 	0
0.557263 	0.557263 	0.5 	-0.00926771 	0.0548526 	8.08275e-21
0.574938 	0.574938 	0.5 	-0.00696468 	0.0590189 	4.1214e-21
0.592613 	0.592613 	0.5 	-0.00445754 	0.0631699 	1.07586e-23
0.610288 	0.610288 	0.5 	-0.00177794 	0.0673079 	-3.6635e-23
0.627963 	0.627963 	0.5 	0.00104716 	0.0714346 	1.71006e-20
0.645638 	0.645638 	0.5 	0.00399465 	0.0755507 	-4.30271e-21
0.663313 	0.663313 	0.5 	0.00704476 	0.0796562 	1.31152e-20
0.680988 	0.680988 	0.5 	0.0101805 	0.0837511 	-4.38531e-21
0.698663 	0.698663 	0.5 	0.0133871 	0.0878347 	1.3333e-20
0.716338 	0.716338 	0.5 	0.016652 	0.0919064 	-8.93233e-21
0.734013 	0.734013 	0.5 	0.0199645 	0.0959656 	1.34733e-20
0.751688 	0.751688 	0.5 	0.0233153 	0.100012 	4.52878e-21
0.769363 	0.769363 	0.5 	0.0266965 	0.104043 	-1.35996e-20
0.787038 	0.787038 	0.5 	0.0301013 	0.10806 	0
0.804713 	0.804713 	0.5 	0.0335243 	0.112061 	-9.13524e-21
0.822388 	0.822388 	0.5 	0.036961 	0.116046 	0
0.840063 	0.840063 	0.5 	0.040408 	0.120013 	-9.16816e-21
0.857738 	0.857738 	0.5 	0.0438629 	0.123962 	0
0.875413 	0.875413 	0.5 	0.0473246 	0.127892 	9.18213e-21
0.893088 	0.893088 	0.5 	0.0507929 	0.131801 	0
0.910763 	0.910763 	0.5 	0.0542693 	0.13569 	9.18267e-21
0.928438 	0.928438 	0.5 	0.0577564 	0.139555 	-9.18036e-21
0.946113 	0.946113 	0.5 	0.0612588 	0.143395 	0
0.963788 	0.963788 	0.5 	0.0647832 	0.147207 	-9.17887e-21
0.981463 	0.981463 	0.5 	0.0683356 	0.150983 	9.18472e-21
0.999138 	0.999138 	0.5 	0.0719141 	0.154709 	0
1.01681 	1.01681 	0.5 	0.0755379 	0.158408 	0
1.03449 	1.03449 	0.5 	0.0793594 	0.162288 	-9.37391e-21
1.05216 	1.05216 	0.5 	0.0831966 	0.166224 	1.10505e-20
1.061 	1.061 	0.5 	0.086829 	0.17389 	-0.000276811
1.12274 	1.12274 	0.5 	0.105862 	0.172372 	-0.000572129
1.19698 	1.19698 	0.5 	0.143147 	0.193305 	-0.000574448
1.25871 	1.25871 	0.5 	0.137585 	0.203996 	-0.000570574
1.33295 	1.33295 	0.5 	0.173134 	0.21744 	-0.000561374
1.39469 	1.39469 	0.5 	0.159067 	0.226223 	-0.000582191
1.46893 	1.46893 	0.5 	0.192305 	0.237392 	-0.000573778
1.53066 	1.53066 	0.5 	0.178253 	0.244596 	-0.000590094
1.6049 	1.6049 	0.5 	0.209513 	0.255106 	-0.000581478
1.66664 	1.66664 	0.5 	0.196969 	0.2608 	-0.000588596
