/*--------------------------------*- C++ -*----------------------------------*\
  =========                 |
  \\      /  F ield         | OpenFOAM: The Open Source CFD Toolbox
   \\    /   O peration     | Website:  https://openfoam.org
    \\  /    A nd           | Version:  7
     \\/     M anipulation  |
\*---------------------------------------------------------------------------*/
FoamFile
{
    version     2.0;
    format      ascii;
    class       surfaceScalarField;
    location    "0.1";
    object      phi;
}
// * * * * * * * * * * * * * * * * * * * * * * * * * * * * * * * * * * * * * //

dimensions      [0 3 -1 0 0 0 0];

internalField   nonuniform List<scalar> 
35640
(
-0.000157796
0.0181885
-0.0180307
9.60289e-05
0.00782091
-0.0080744
0.000500348
0.00422168
-0.00462641
0.000939639
0.0037268
-0.00416666
0.00136057
0.00412469
-0.00454548
0.00175365
0.0046617
-0.00505474
0.00212611
0.00512788
-0.00550004
0.00247471
0.00549931
-0.00584782
0.00280772
0.00577767
-0.00611077
0.00312656
0.00597489
-0.00629364
0.00343056
0.00610894
-0.0064133
0.00372562
0.00619484
-0.00649022
0.00401312
0.00624164
-0.00652944
0.00429547
0.00625435
-0.00653649
0.00457219
0.00623782
-0.0065149
0.0048448
0.00619853
-0.00647137
0.00511317
0.00614111
-0.00640946
0.00537725
0.00606882
-0.00633298
0.00564046
0.00598142
-0.00624459
0.00590237
0.00588458
-0.00614634
0.00615999
0.0057787
-0.00603623
0.00641372
0.00566238
-0.00591607
0.0066666
0.00553991
-0.00579291
0.00691727
0.00541822
-0.00566889
0.00716026
0.00529149
-0.00553438
0.00739991
0.00515955
-0.00539925
0.00763917
0.00503098
-0.00527009
0.00787199
0.00490278
-0.00513559
0.00809762
0.00479909
-0.00502455
0.00428522
0.00830469
-0.00449228
-0.000142428
0.0183307
0.000122725
0.00755532
0.000531469
0.00381267
0.000969982
0.00328811
0.00139135
0.00370382
0.00178931
0.00426422
0.00216244
0.00475505
0.00251137
0.00515032
0.00284644
0.00544275
0.003164
0.00565697
0.00346539
0.00580706
0.00376107
0.00589892
0.00404872
0.00595367
0.00432667
0.00597576
0.00459932
0.00596504
0.00486839
0.00592931
0.00513294
0.00587649
0.00539339
0.00580834
0.00565089
0.00572402
0.00590655
0.00562906
0.00615926
0.00552597
0.00640837
0.00541317
0.00665349
0.00529482
0.00689591
0.00517584
0.00713429
0.00505301
0.00736771
0.00492618
0.00759818
0.00480055
0.00782276
0.00467841
0.00804854
0.00457331
0.00407001
0.0082638
-0.00012385
0.0184545
0.00014429
0.0072872
0.000559645
0.00339745
0.00100148
0.00284641
0.00142572
0.00327952
0.00182496
0.00386519
0.00219492
0.00438482
0.00254754
0.004798
0.00288224
0.0051077
0.00319835
0.00534092
0.00350142
0.00550385
0.00379435
0.00560578
0.00407835
0.00566934
0.00435471
0.00569918
0.00462504
0.00569445
0.00488978
0.00566461
0.00514875
0.00561741
0.00540478
0.00555213
0.00565792
0.00547096
0.00590755
0.00537952
0.00615323
0.00528025
0.00639561
0.00517104
0.00663511
0.00505558
0.00687345
0.00493752
0.00710625
0.00482021
0.00733456
0.00469804
0.00756003
0.00457523
0.00778238
0.00445604
0.00800376
0.00435198
0.00385734
0.00821646
-0.000107567
0.018562
0.000169155
0.00701035
0.000590705
0.00297581
0.00103407
0.00240309
0.00145905
0.00285458
0.0018583
0.00346611
0.0022296
0.00401341
0.00258247
0.0044454
0.00291482
0.00477504
0.00323054
0.00502527
0.00353435
0.00519955
0.00382489
0.00531528
0.0041046
0.00538934
0.00437836
0.00542507
0.00464573
0.00542702
0.00490602
0.00540427
0.00516105
0.00536203
0.00541254
0.00530073
0.00565928
0.00522423
0.00590265
0.00513596
0.0061439
0.00503905
0.00638111
0.004934
0.00661472
0.0048219
0.0068462
0.004706
0.00707599
0.00459069
0.00730259
0.00447157
0.00752534
0.00435258
0.00774533
0.0042362
0.00796506
0.00413245
0.00364734
0.00817491
-9.29105e-05
0.018655
0.000195764
0.00672157
0.000621945
0.00254953
0.00106566
0.00195933
0.00149214
0.0024282
0.00189025
0.00306815
0.00226351
0.00363991
0.00261545
0.00409361
0.00294555
0.00444477
0.00326099
0.00470968
0.00356346
0.00489691
0.00385161
0.0050272
0.00412923
0.00511131
0.00440048
0.00515364
0.00466406
0.00516325
0.00491996
0.00514827
0.00517037
0.00511171
0.00541639
0.00505494
0.00565727
0.00498324
0.00589482
0.00489846
0.00612994
0.00480416
0.00636109
0.00470288
0.00659043
0.00459253
0.00681621
0.00448037
0.0070416
0.0043654
0.00726356
0.00424963
0.00748396
0.00413228
0.00770172
0.00401867
0.00792134
0.00391282
0.0034367
0.00813171
-7.57106e-05
0.0187306
0.000223305
0.00642258
0.00065283
0.00211982
0.00109818
0.0015141
0.00152374
0.00200275
0.00192091
0.00267081
0.00229563
0.00326528
0.00264579
0.00374316
0.00297469
0.0041158
0.00329021
0.00439412
0.00359077
0.00459623
0.0038765
0.00474136
0.00415246
0.00483501
0.00442052
0.00488535
0.00467911
0.00490451
0.00493034
0.00489707
0.00517649
0.0048656
0.00541676
0.00481462
0.00565174
0.00474822
0.00588371
0.00466676
0.00611289
0.00457522
0.00633886
0.00447694
0.00656125
0.00437018
0.00678204
0.00425972
0.00700252
0.00414503
0.00722159
0.00403068
0.00743915
0.00391494
0.00765557
0.00380238
0.00787546
0.00369276
0.00322374
0.00808814
-5.81158e-05
0.0187889
0.000251612
0.00611272
0.000684863
0.00168666
0.00112933
0.00106962
0.0015538
0.00157824
0.00195222
0.00227218
0.00232566
0.00289199
0.00267424
0.00339439
0.00300428
0.0037859
0.00331882
0.00407925
0.00361651
0.00429844
0.00390045
0.00445726
0.00417418
0.00456102
0.00443784
0.00462159
0.00469154
0.00465079
0.00493835
0.00465021
0.00517983
0.00462411
0.00541435
0.00458015
0.00564367
0.00451902
0.00586924
0.00444137
0.00609127
0.00435333
0.00631164
0.00425659
0.00652792
0.00415406
0.0067439
0.00404374
0.00695852
0.00393044
0.00717445
0.00381493
0.00738917
0.00370041
0.00760424
0.00358729
0.00782562
0.00347124
0.00300782
0.00804139
-3.89396e-05
0.0188279
0.000278892
0.00579466
0.000716496
0.00124913
0.00116152
0.00062439
0.00158421
0.00115576
0.00198274
0.0018735
0.00235532
0.00251957
0.00270332
0.00304633
0.00303323
0.00345594
0.00334574
0.0037664
0.00364097
0.00400323
0.00392321
0.00417475
0.00419433
0.00428973
0.00445375
0.00436206
0.00470343
0.00440101
0.00494583
0.00440788
0.00518131
0.00438889
0.00540946
0.00435216
0.00563257
0.00429601
0.00585113
0.00422302
0.00606642
0.00413821
0.00627904
0.00404406
0.00648935
0.00394389
0.0066993
0.00383392
0.0069093
0.0037205
0.00712023
0.00360415
0.0073319
0.00348881
0.00754508
0.00337406
0.00776699
0.00324929
0.00279029
0.00798443
-1.97986e-05
0.0188475
0.000307885
0.00546676
0.000748422
0.000808545
0.00119313
0.00017964
0.0016161
0.00073297
0.00201375
0.00147576
0.00238432
0.00214901
0.00273197
0.00269851
0.00306111
0.00312674
0.00337122
0.00345628
0.00366443
0.00371003
0.00394508
0.00389369
0.0042137
0.00402087
0.00446924
0.00410629
0.004715
0.00415521
0.0049526
0.00417046
0.00518131
0.00416035
0.00540265
0.00413089
0.00561857
0.00408025
0.00582941
0.00401245
0.00603738
0.00393035
0.00624202
0.00383956
0.00644615
0.00373989
0.00664872
0.00363144
0.00685269
0.00351657
0.00705791
0.00339906
0.00726509
0.00328164
0.00747505
0.00316403
0.00769562
0.00302874
0.00257397
0.00791184
-5.18597e-07
0.0188477
0.000338767
0.00512733
0.000780511
0.000366692
0.00122452
-0.000264224
0.00164818
0.000309199
0.00204404
0.00107979
0.00241289
0.00177992
0.00276029
0.00235095
0.00308801
0.00279915
0.00339625
0.00314815
0.00368874
0.00341731
0.00396756
0.00361452
0.0042326
0.00375578
0.00448439
0.00385446
0.00472616
0.00391356
0.00495795
0.00393881
0.00517949
0.00393886
0.00539425
0.00391615
0.00560279
0.00387192
0.00580571
0.00380969
0.00600469
0.00373157
0.00620092
0.00364357
0.00639675
0.00354414
0.00659178
0.00343634
0.00678773
0.0033206
0.00698584
0.00320103
0.00718732
0.00308015
0.00739278
0.00295846
0.00760959
0.00281193
0.00236181
0.0078216
2.00371e-05
0.0188275
0.000370073
0.00477709
0.000811588
-7.51141e-05
0.00125615
-0.000708623
0.0016798
-0.000114707
0.00207352
0.000686012
0.00244146
0.00141164
0.00278859
0.00200374
0.00311518
0.00247257
0.00342221
0.00284097
0.00371395
0.00312529
0.00399046
0.00333789
0.00425161
0.00349463
0.00449969
0.00360639
0.00473687
0.00367647
0.00496246
0.00371328
0.00517733
0.003724
0.00538499
0.0037086
0.00558556
0.00367157
0.00577999
0.00361543
0.00596906
0.00354276
0.00615599
0.00345689
0.00634146
0.00335862
0.00652712
0.00325053
0.00671386
0.00313392
0.00690356
0.00301143
0.00709779
0.00288583
0.0072973
0.00275877
0.00750844
0.00260076
0.00215581
0.00771428
4.20002e-05
0.0187854
0.000399896
0.00441891
0.000842351
-0.000517857
0.00128857
-0.0011548
0.00171067
-0.000537008
0.00210304
0.000293708
0.00247115
0.00104321
0.00281726
0.00165752
0.00314244
0.00214723
0.00344884
0.0025344
0.00373948
0.0028345
0.00401313
0.00306417
0.0042706
0.00323708
0.00451567
0.00336138
0.00474849
0.00344376
0.00496803
0.00349379
0.00517661
0.00351545
0.00537637
0.00350908
0.00556794
0.00348021
0.00575232
0.00343128
0.00593065
0.00336468
0.00610643
0.00328118
0.00628047
0.00318444
0.0064549
0.00307603
0.00663092
0.00295805
0.00681061
0.0028318
0.00699599
0.00270033
0.00718798
0.00256663
0.00739208
0.00239665
0.00195672
0.00759102
6.46724e-05
0.0187207
0.000428575
0.00405482
0.0008742
-0.000963609
0.00132133
-0.00160199
0.00174125
-0.00095703
0.00213333
-9.83852e-05
0.00250128
0.000674935
0.00284588
0.00131283
0.00317005
0.00182292
0.00347616
0.00222824
0.00376527
0.00254532
0.00403651
0.00279281
0.00429163
0.00298189
0.00453394
0.00311914
0.00476209
0.00321564
0.0049755
0.00328036
0.00517734
0.00331369
0.00536865
0.00331803
0.00555039
0.0032987
0.00572357
0.00325836
0.00589029
0.00319814
0.00605315
0.00311825
0.00621407
0.00302337
0.00637525
0.00291488
0.00653866
0.00279483
0.00670628
0.00266418
0.00688091
0.00252561
0.00706388
0.00238362
0.00726013
0.00220043
0.00176402
0.00745265
8.66252e-05
0.0186341
0.000457571
0.00368371
0.000907421
-0.00141344
0.00135352
-0.00204819
0.00177166
-0.00137523
0.0021638
-0.000490639
0.0025306
0.000307899
0.0028742
0.000969171
0.00319839
0.00149863
0.00350466
0.00192194
0.00379243
0.00225743
0.00406213
0.00252299
0.0043159
0.00272813
0.00455501
0.00288012
0.00477805
0.00299261
0.00498562
0.00307273
0.00518016
0.00311923
0.00536251
0.00313588
0.0055338
0.00312763
0.00569528
0.00309713
0.00584922
0.00304428
0.00599738
0.00296993
0.00614292
0.00287778
0.0062882
0.00276969
0.00643631
0.00264687
0.00658948
0.00251097
0.00675112
0.00236397
0.0069234
0.0022114
0.00711115
0.00201267
0.00157665
0.00729831
0.000107024
0.0185272
0.000487546
0.00330294
0.000940717
-0.00186659
0.00138467
-0.00249229
0.00180202
-0.00179256
0.0021937
-0.000882411
0.00255908
-5.76163e-05
0.00290308
0.000625102
0.00322802
0.00117359
0.00353442
0.00161552
0.00382156
0.00197025
0.00409071
0.00225385
0.00434345
0.00247546
0.004579
0.0026446
0.00479694
0.00277456
0.00499933
0.00287027
0.0051871
0.00293155
0.00536048
0.00296266
0.00552048
0.00296786
0.00566903
0.00294876
0.00580843
0.00290492
0.00593995
0.0028383
0.00606727
0.0027505
0.00619374
0.00264327
0.00632327
0.00251737
0.00645891
0.00237527
0.00660467
0.0022183
0.00676392
0.00205218
0.00694234
0.00183419
0.00139384
0.00712494
0.000126565
0.0184006
0.00051797
0.00291126
0.000972878
-0.00232142
0.00141531
-0.00293481
0.00183273
-0.00220994
0.00222328
-0.0012731
0.0025881
-0.000422554
0.00293365
0.000279442
0.00325946
0.000847677
0.00356567
0.0013093
0.00385276
0.0016832
0.00412211
0.00198457
0.00437397
0.00222362
0.00460665
0.00241185
0.00482075
0.00256031
0.00501859
0.0026724
0.00519959
0.00275063
0.00536376
0.00279862
0.00551211
0.0028197
0.00564677
0.0028143
0.00576948
0.00278226
0.00588216
0.00272561
0.00598831
0.00264437
0.00609242
0.00253911
0.00619922
0.00241056
0.00631287
0.00226159
0.00643833
0.00209295
0.00658087
0.00190958
0.00674866
0.00166629
0.00121449
0.00692782
0.000146704
0.0182538
0.000548118
0.00250978
0.00100406
-0.00277728
0.00144638
-0.00337721
0.00186373
-0.00262729
0.00225287
-0.0016624
0.00261856
-0.000788366
0.0029658
-6.7926e-05
0.00329217
0.000521233
0.00359842
0.00100304
0.0038863
0.00139537
0.00415667
0.00171422
0.0044082
0.00197208
0.00463914
0.00218079
0.00485075
0.0023486
0.0050447
0.00247847
0.00521941
0.00257598
0.00537437
0.00264374
0.00551078
0.00268345
0.00563071
0.0026946
0.00573512
0.00267794
0.00582641
0.00263434
0.00590819
0.00256258
0.0059856
0.00246163
0.00606415
0.00233201
0.0061493
0.00217642
0.00624733
0.00199495
0.00636599
0.00179076
0.00651752
0.00151462
0.00103582
0.00669601
0.00016798
0.0180858
0.000577868
0.00209993
0.00103522
-0.00323458
0.00147814
-0.00382019
0.00189436
-0.00304359
0.00228235
-0.00205052
0.00264994
-0.00115599
0.00299835
-0.000416432
0.00332539
0.00019409
0.00363293
0.000695437
0.00392285
0.00110548
0.00419493
0.00144214
0.00444698
0.00172001
0.00467774
0.00194993
0.00488852
0.00213777
0.00507928
0.00228774
0.00524836
0.00240688
0.00539478
0.00249738
0.00551962
0.00255878
0.00562404
0.00259037
0.00570876
0.00259328
0.00577621
0.00256696
0.00583009
0.00250872
0.00587562
0.00241607
0.00591895
0.00228871
0.00596699
0.00212835
0.00602747
0.0019344
0.00611007
0.00170789
0.00622946
0.00139509
0.000883973
0.00638113
0.000189517
0.0178963
0.000607519
0.00168188
0.00106674
-0.00369382
0.00150981
-0.00426326
0.00192396
-0.00345781
0.00231172
-0.00243832
0.00268141
-0.00152573
0.00303059
-0.000765747
0.00335918
-0.000134602
0.00366975
0.000384804
0.00396297
0.000812247
0.00423756
0.00116755
0.00449145
0.00146612
0.00472368
0.00171765
0.00493502
0.00192639
0.00512369
0.00209908
0.0052883
0.00224226
0.00542761
0.00235814
0.00554191
0.00244458
0.00563086
0.00250151
0.00569495
0.00252922
0.00573638
0.00252565
0.00575855
0.0024866
0.0057664
0.00240824
0.00576653
0.00228865
0.00576729
0.00212755
0.00577795
0.00192355
0.00581005
0.00167544
0.00588041
0.00132463
0.000777835
0.00598635
0.000210256
0.0176859
0.000637132
0.00125482
0.00109805
-0.00415475
0.00154033
-0.00470548
0.00195249
-0.00387002
0.00234136
-0.00282719
0.00271276
-0.00189726
0.00306304
-0.00111615
0.0033946
-0.000466173
0.00370958
6.98313e-05
0.00400689
0.000514901
0.00428468
0.000889779
0.00454167
0.00120913
0.00477717
0.00148214
0.00499064
0.00171295
0.00517933
0.00191045
0.0053416
0.00208001
0.00547615
0.00222365
0.00558155
0.00233917
0.00565598
0.00242707
0.00569929
0.00248594
0.00571314
0.00251196
0.00570008
0.0024997
0.00566434
0.00244401
0.00561271
0.00234038
0.00555468
0.00218551
0.00550124
0.00197669
0.00546607
0.00171027
0.00546809
0.00132255
0.000738489
0.00550719
0.000230278
0.0174554
0.000666364
0.000818552
0.00112846
-0.00461683
0.00156937
-0.00514638
0.00198065
-0.00428136
0.00237159
-0.00321819
0.00274419
-0.00227003
0.00309645
-0.00146842
0.00343214
-0.000801771
0.00375193
-0.000249964
0.00405372
0.000213063
0.00433585
0.000607666
0.00459768
0.000947312
0.00483868
0.00124121
0.00505649
0.00149528
0.00524814
0.00171892
0.00541114
0.00191707
0.00554379
0.002091
0.00564269
0.0022402
0.00570474
0.00236498
0.00572862
0.0024621
0.00571469
0.00252603
0.00566387
0.00255052
0.00557914
0.00252878
0.00546692
0.00245273
0.00533733
0.00231499
0.00520346
0.00211026
0.00508177
0.00183166
0.0049941
0.00141015
0.000788374
0.00494392
0.000250542
0.0172048
0.000694776
0.00037419
0.00115784
-0.00507995
0.00159739
-0.00558599
0.00200899
-0.00469303
0.00240188
-0.00361119
0.00277534
-0.00264362
0.00313057
-0.00182353
0.00347104
-0.00114217
0.00379584
-0.000574825
0.00410295
-9.40602e-05
0.00439138
0.000319268
0.00466038
0.000678318
0.0049092
0.000992497
0.00513398
0.00127074
0.00533165
0.0015214
0.00549907
0.00174972
0.00563345
0.00195659
0.0057297
0.00214391
0.0057834
0.00231125
0.00579138
0.00245417
0.00575156
0.00256595
0.0056623
0.0026398
0.00552438
0.00266674
0.00534286
0.00263437
0.0051278
0.00252995
0.00489461
0.00234319
0.00466402
0.002062
0.0044641
0.00161
0.000948005
0.00430416
0.000271507
0.0169333
0.000722234
-7.66616e-05
0.00118655
-0.00554439
0.00162487
-0.00602435
0.00203729
-0.00510548
0.00243121
-0.00400518
0.00280576
-0.00301825
0.00316489
-0.00218257
0.00351066
-0.00148794
0.00384113
-0.000905336
0.00415501
-0.000407897
0.00445171
2.25437e-05
0.00473011
0.00039991
0.00498869
0.00073403
0.00522333
0.00103632
0.00543056
0.0013143
0.00560693
0.00157345
0.00574798
0.00181555
0.00584736
0.00204453
0.00589912
0.00225948
0.00589748
0.00245589
0.00583668
0.00262687
0.00571123
0.00276525
0.00551835
0.00285968
0.00525986
0.00289302
0.00494426
0.00284542
0.00458896
0.00269824
0.0042203
0.00243043
0.0038769
0.00195329
0.00124357
0.00358106
0.00029245
0.0166409
0.000749073
-0.000533455
0.00121482
-0.00601021
0.00165196
-0.00646144
0.00206485
-0.00551838
0.00245894
-0.00439933
0.00283544
-0.00339479
0.00319919
-0.00254632
0.00355062
-0.0018394
0.00388764
-0.0012423
0.00420975
-0.000729949
0.00451627
-0.000284089
0.00480596
0.000110178
0.00507644
0.00046365
0.00532421
0.000788728
0.00554534
0.00109331
0.00573599
0.00138296
0.00589007
0.0016615
0.00600038
0.0019342
0.00605925
0.00220065
0.00605761
0.0024577
0.00598487
0.00269973
0.00583039
0.00291971
0.0055855
0.00310465
0.00524545
0.00323318
0.00481396
0.0032767
0.00430817
0.00320384
0.00375994
0.00297841
0.00322143
0.00249165
0.00173221
0.00273257
0.000312277
0.0163287
0.00077572
-0.00099707
0.00124228
-0.00647672
0.00167825
-0.00689731
0.00209087
-0.00593108
0.00248504
-0.00479354
0.00286444
-0.00377421
0.0032331
-0.002915
0.0035904
-0.00219665
0.0039349
-0.00158665
0.00426641
-0.0010615
0.00458404
-0.000601898
0.00488673
-0.000192541
0.00517172
0.000178767
0.00543612
0.000524435
0.00567596
0.000853626
0.00588677
0.00117227
0.00606145
0.0014868
0.00619237
0.00180327
0.0062701
0.00212305
0.00628206
0.00244595
0.0062123
0.00276961
0.00604359
0.00308841
0.00575815
0.00339013
0.0053395
0.00365181
0.00477988
0.00383609
0.00408922
0.00389436
0.00330264
0.00376474
0.00248649
0.00330769
0.00251333
0.00170522
0.000330908
0.0159978
0.000802209
-0.00146852
0.0012683
-0.00694271
0.00170313
-0.00733214
0.00211495
-0.00634298
0.00250972
-0.00518829
0.0028926
-0.00415707
0.00326612
-0.00328849
0.00362949
-0.00255992
0.00398224
-0.00193931
0.00432398
-0.00140338
0.0046539
-0.000931938
0.00497121
-0.000509823
0.00527349
-0.000123415
0.00555807
0.00023991
0.00582136
0.000590452
0.00605841
0.000935246
0.00626205
0.0012831
0.00642466
0.0016407
0.00653557
0.00201233
0.00657928
0.0024024
0.0065351
0.00281388
0.00637809
0.0032454
0.00607793
0.00369031
0.00559943
0.00413025
0.00491097
0.00452427
0.00399884
0.00480633
0.00288894
0.00487437
0.00165268
0.00454388
0.00378145
0.000384467
0.000349772
0.015648
0.000828248
-0.00194714
0.00129268
-0.0074071
0.00172641
-0.00776597
0.00213726
-0.00675383
0.00253317
-0.00558413
0.00291942
-0.00454329
0.0032975
-0.00366652
0.00366714
-0.00292949
0.00402868
-0.00230085
0.00438123
-0.00175606
0.00472457
-0.00127527
0.00505815
-0.000843353
0.00538018
-0.000445414
0.00568813
-6.80157e-05
0.00597908
0.000299577
0.00624822
0.00066608
0.00648932
0.00104192
0.00669544
0.00143466
0.00685581
0.00185216
0.00695376
0.0023046
0.00696595
0.00280176
0.00686067
0.00335066
0.0065935
0.00395754
0.0061035
0.00462015
0.00531645
0.00531106
0.00416065
0.00596196
0.00260872
0.00642598
0.00070267
0.00644989
0.00609578
-0.00161172
0.000371284
0.0152766
0.000853684
-0.00242972
0.00131583
-0.00786927
0.00174825
-0.00819846
0.00215804
-0.00716355
0.002555
-0.00598099
0.00294395
-0.00493225
0.00332629
-0.00404883
0.00370247
-0.00330563
0.00407308
-0.00267151
0.004437
-0.00212003
0.00479472
-0.00163295
0.00514598
-0.00119458
0.0054895
-0.000788937
0.00582324
-0.000401719
0.0061452
-2.23071e-05
0.00645155
0.000359716
0.00673798
0.000755411
0.00699925
0.00117345
0.00722599
0.00162557
0.00740312
0.0021276
0.00750878
0.00269619
0.00750942
0.00335009
0.00735086
0.00411616
0.006946
0.00502486
0.00615724
0.00609957
0.00478713
0.00733185
0.00261092
0.00860193
-0.000521553
0.00958233
0.0107467
-0.00517253
0.000397711
0.0148788
0.000878243
-0.00291045
0.0013381
-0.00832916
0.00176883
-0.00862917
0.00217737
-0.007572
0.00257473
-0.00637829
0.00296569
-0.00532322
0.00335218
-0.00443529
0.00373518
-0.00368858
0.00411489
-0.00305125
0.00449051
-0.00249567
0.0048631
-0.00200553
0.00523273
-0.0015642
0.00559855
-0.00115473
0.00595958
-0.000762657
0.00631494
-0.000377551
0.0066625
1.21363e-05
0.00700049
0.000417301
0.00732634
0.000847667
0.00763408
0.00131793
0.00791401
0.00184777
0.00815186
0.00245852
0.00832228
0.0031798
0.00837836
0.00406007
0.00823005
0.00517298
0.00768684
0.00664249
0.00633274
0.0086857
0.00326597
0.0116685
-0.00339066
0.0162389
0.0206458
-0.0132897
0.000416303
0.0144624
0.000901893
-0.0033962
0.00136076
-0.00878801
0.00178903
-0.00905737
0.00219575
-0.00797864
0.0025927
-0.0067752
0.00298516
-0.00571565
0.00337564
-0.00482568
0.00376527
-0.00407816
0.00415368
-0.00343968
0.00454083
-0.00288285
0.00492807
-0.0023928
0.0053159
-0.00195201
0.00570403
-0.00154278
0.00609291
-0.00115137
0.00648281
-0.000767337
0.00687377
-0.000378951
0.00726686
2.4086e-05
0.0076624
0.000452181
0.00805961
0.000920776
0.00845771
0.00144981
0.00885627
0.00206014
0.00925218
0.00278396
0.00963919
0.00367301
0.0100036
0.00480835
0.0103042
0.00634164
0.0104124
0.00857722
0.00981712
0.0122637
0.00729938
0.0187567
-0.00417349
0.0321186
0.00706948
0.0260501
-0.0248149
0.00560349
0.0347727
-0.0333068
0.00431185
0.0403499
-0.0390583
0.00354638
0.0468767
-0.0461113
0.00370989
0.0580342
-0.0581977
0.00476805
0.0745435
-0.0756015
0.00377124
0.0879747
-0.0869778
0.0030635
0.0937986
-0.0930909
0.00252913
0.0993928
-0.0988582
0.00193471
0.104556
-0.103962
0.00140546
0.108456
-0.107926
0.000945935
0.112445
-0.111985
0.000527966
0.116095
-0.115678
0.000100698
0.119517
-0.11909
-0.00022849
0.122668
-0.122339
-0.000568394
0.125824
-0.125484
-0.000849333
0.128622
-0.128341
-0.00112581
0.131373
-0.131096
-0.00132865
0.133977
-0.133774
-0.00151818
0.136451
-0.136262
-0.00162347
0.138734
-0.138629
-0.00169358
0.140897
-0.140827
-0.00170698
0.142881
-0.142867
-0.00168934
0.144905
-0.144923
-0.0016252
0.146748
-0.146812
-0.00146427
0.148419
-0.14858
-0.00125945
0.150207
-0.150412
-0.00103511
0.151599
-0.151824
-0.00077185
0.153778
-0.154041
0.153869
-0.154064
0.0069789
0.0273341
0.00543775
0.0363116
0.0040416
0.0417446
0.00316832
0.04775
0.00318066
0.0580233
0.00416651
0.0735617
0.00340589
0.0887371
0.00270694
0.0944993
0.00215657
0.0999429
0.00157141
0.105142
0.00103417
0.108996
0.000596239
0.112883
0.00019738
0.116494
-0.000196749
0.119913
-0.000517491
0.122994
-0.000828112
0.126138
-0.00109482
0.128891
-0.001344
0.131625
-0.00153445
0.134166
-0.0016975
0.136614
-0.00178425
0.13882
-0.00182758
0.140943
-0.00182264
0.142879
-0.00176676
0.144854
-0.00168587
0.146666
-0.00150805
0.148239
-0.00127073
0.149973
-0.00101365
0.151343
-0.000715871
0.153479
0.15363
0.00687763
0.0286731
0.00524215
0.037947
0.00374041
0.0432465
0.00270795
0.0487824
0.00261698
0.0581141
0.00333278
0.0728459
0.00302558
0.0890443
0.0023363
0.0951884
0.00177126
0.100508
0.00120328
0.10571
0.000667517
0.109531
0.000246901
0.113303
-0.000140848
0.116881
-0.000493838
0.120266
-0.000808852
0.123309
-0.001083
0.126411
-0.00134429
0.129152
-0.00156153
0.131842
-0.0017399
0.134345
-0.00186796
0.136743
-0.00193711
0.138889
-0.00195925
0.140965
-0.00194393
0.142863
-0.00185035
0.14476
-0.00173832
0.146554
-0.00154679
0.148047
-0.00128577
0.149712
-0.000991962
0.151049
-0.000660374
0.153147
0.153346
0.0067968
0.0300512
0.00502694
0.0397167
0.00341909
0.0448544
0.00221779
0.0499836
0.00203175
0.0583
0.00257322
0.0723044
0.00265521
0.0889622
0.00195767
0.0958857
0.00137094
0.101094
0.000832315
0.106248
0.00029825
0.110065
-0.0001031
0.113704
-0.00047855
0.117256
-0.000799322
0.120586
-0.00109605
0.123605
-0.00134363
0.126659
-0.00158473
0.129393
-0.00177729
0.132034
-0.0019373
0.134505
-0.00203828
0.136843
-0.00208785
0.138938
-0.00208715
0.140964
-0.00205938
0.142835
-0.00193955
0.14464
-0.00179353
0.146408
-0.00158104
0.147834
-0.00129588
0.149427
-0.000972672
0.150726
-0.000600077
0.152775
0.153017
0.006739
0.031444
0.00480767
0.0416478
0.00309342
0.0465688
0.00175328
0.0513238
0.00143179
0.0586212
0.00185799
0.0718782
0.00231145
0.0885088
0.00158002
0.0966169
0.000963889
0.10171
0.000453678
0.106759
-7.94019e-05
0.110597
-0.000458778
0.114084
-0.000811851
0.117609
-0.00110605
0.12088
-0.0013774
0.123876
-0.00160301
0.126884
-0.00181902
0.129609
-0.0019903
0.132206
-0.00212898
0.134643
-0.00220749
0.136922
-0.00223969
0.138971
-0.00221661
0.14094
-0.00216855
0.142787
-0.00202772
0.144499
-0.0018527
0.146233
-0.00161489
0.147596
-0.00129968
0.149111
-0.000948596
0.150375
-0.000531857
0.152359
0.152646
0.00670821
0.0328241
0.00458386
0.043772
0.00276301
0.0483896
0.00130481
0.0527818
0.000828478
0.0590974
0.00117191
0.0715348
0.00200649
0.0876743
0.00119453
0.0974287
0.000549824
0.102355
6.67567e-05
0.107242
-0.00045852
0.111123
-0.000819157
0.114445
-0.00114423
0.117934
-0.00141285
0.121149
-0.00165667
0.12412
-0.0018593
0.127087
-0.00205046
0.1298
-0.00220015
0.132356
-0.00231496
0.134758
-0.00237282
0.13698
-0.00238822
0.138987
-0.00234475
0.140897
-0.00227539
0.142717
-0.00211345
0.144337
-0.00191104
0.146031
-0.00164816
0.147333
-0.00130248
0.148766
-0.000920147
0.149992
-0.000461531
0.151901
0.15223
0.00669763
0.034168
0.00435979
0.0461097
0.0024315
0.0503179
0.000866908
0.0543465
0.000225765
0.0597383
0.000496427
0.071264
0.0017585
0.0864125
0.000798307
0.098389
0.000130761
0.103023
-0.000332374
0.107705
-0.000836908
0.111627
-0.00118327
0.114791
-0.00147574
0.118227
-0.00171799
0.121391
-0.00193435
0.124337
-0.00211167
0.127265
-0.00227688
0.129966
-0.00240679
0.132486
-0.00249583
0.134848
-0.00253368
0.137018
-0.00253326
0.138987
-0.00247044
0.140833
-0.0023789
0.142625
-0.00219665
0.144155
-0.00196804
0.145802
-0.00168088
0.147046
-0.00130434
0.148389
-0.000887506
0.149575
-0.000388591
0.151402
0.151769
0.00667004
0.0354826
0.00413776
0.0486419
0.00210127
0.0523544
0.000437185
0.0560105
-0.000373884
0.0605493
-0.000188427
0.0710786
0.00118933
0.085035
0.000381152
0.0991972
-0.000291614
0.103696
-0.000744213
0.108158
-0.00121367
0.112097
-0.00155048
0.115128
-0.00180741
0.118484
-0.0020203
0.121604
-0.00220939
0.124526
-0.00236108
0.127416
-0.00249773
0.130102
-0.00260796
0.132595
-0.00267267
0.134913
-0.00269049
0.137035
-0.00267332
0.13897
-0.00259149
0.140751
-0.00247885
0.142512
-0.00227973
0.143956
-0.00202297
0.145545
-0.00171179
0.146734
-0.00130394
0.147982
-0.000853524
0.149124
-0.000313257
0.150862
0.151259
0.00657898
0.0368156
0.00391859
0.0513021
0.00177479
0.0544981
1.56807e-05
0.0577695
-0.000967662
0.0615326
-0.000891377
0.0710024
0.000131685
0.0840122
-5.44549e-05
0.0993833
-0.00071628
0.104358
-0.00116801
0.10861
-0.00159127
0.11252
-0.00191877
0.115456
-0.00213981
0.118705
-0.00232016
0.121784
-0.00247998
0.124686
-0.00260706
0.127542
-0.00271439
0.130209
-0.00280228
0.132683
-0.00284453
0.134956
-0.00284294
0.137033
-0.00280917
0.138936
-0.00270768
0.140649
-0.00257461
0.14238
-0.0023626
0.143744
-0.00207598
0.145259
-0.00174081
0.146399
-0.00130183
0.147543
-0.000818379
0.148641
-0.000235659
0.150279
0.150698
0.00642814
0.0382092
0.00370395
0.0540261
0.0014546
0.0567472
-0.000396141
0.0596202
-0.0015524
0.0626887
-0.00160177
0.0710517
-0.000830837
0.0832414
-0.00048228
0.0990347
-0.00114318
0.105018
-0.0016015
0.109069
-0.00197286
0.112891
-0.00228633
0.115769
-0.00247208
0.11889
-0.00261844
0.12193
-0.00274625
0.124813
-0.00284787
0.127644
-0.00292669
0.130288
-0.00299039
0.132746
-0.00301088
0.134977
-0.00298943
0.137011
-0.00294083
0.138888
-0.00282045
0.140529
-0.00266583
0.142225
-0.00244268
0.143521
-0.00212747
0.144944
-0.00176791
0.146039
-0.00129982
0.147075
-0.000781637
0.148123
-0.000155201
0.149652
0.150086
0.00625026
0.0396733
0.00349748
0.0567786
0.0011434
0.0591009
-0.000796066
0.0615597
-0.00212493
0.0640174
-0.0023136
0.0712402
-0.00172784
0.0826556
-0.000878578
0.0981852
-0.00157287
0.105713
-0.00204235
0.109538
-0.00236147
0.11321
-0.00265209
0.11606
-0.00280351
0.119042
-0.00291477
0.122041
-0.00300887
0.124908
-0.0030827
0.127718
-0.00313366
0.13034
-0.00317276
0.132785
-0.00317188
0.134977
-0.00312944
0.136969
-0.00306621
0.138825
-0.00293027
0.140394
-0.00275239
0.142048
-0.00251816
0.143287
-0.00217798
0.144604
-0.00179321
0.145655
-0.0012981
0.14658
-0.000743205
0.147569
-7.14583e-05
0.14898
0.149423
0.00605782
0.0412064
0.00330431
0.0595317
0.000844198
0.0615607
-0.00118161
0.0635855
-0.00268124
0.065517
-0.00302375
0.0715825
-0.00258424
0.082216
-0.00122101
0.0968217
-0.00200721
0.106499
-0.00248866
0.11002
-0.00275959
0.113481
-0.00301518
0.116315
-0.00313422
0.119161
-0.00320801
0.122116
-0.00326782
0.124968
-0.00331196
0.127762
-0.00333456
0.130363
-0.0033489
0.1328
-0.0033274
0.134956
-0.00326354
0.136905
-0.00318311
0.138745
-0.00303671
0.140247
-0.00283419
0.141846
-0.00258839
0.143042
-0.00222823
0.144244
-0.00181713
0.145244
-0.00129571
0.146058
-0.000703903
0.146977
1.50183e-05
0.148261
0.148706
0.00585866
0.0428003
0.00312275
0.0622673
0.00056036
0.0641228
-0.00155034
0.0656963
-0.00321606
0.0671827
-0.00373148
0.0720976
-0.00342272
0.0819074
-0.00161568
0.0950144
-0.00245448
0.107338
-0.00293903
0.110504
-0.00316896
0.113711
-0.00337505
0.116522
-0.00346459
0.119251
-0.00349741
0.122148
-0.00352217
0.124993
-0.00353571
0.127775
-0.00352951
0.130358
-0.00351797
0.132788
-0.0034762
0.134915
-0.00339265
0.136821
-0.00329109
0.138644
-0.00313814
0.140094
-0.00291167
0.14162
-0.00265301
0.142783
-0.00227849
0.143869
-0.0018408
0.144807
-0.00129222
0.145509
-0.000664523
0.14635
0.000104185
0.147492
0.147933
0.00565471
0.0444437
0.0029641
0.0649577
0.000295643
0.0667912
-0.00190024
0.0678923
-0.00373449
0.069017
-0.00443518
0.0727981
-0.00426422
0.0817368
-0.00286893
0.0936189
-0.00292408
0.107394
-0.00339125
0.110971
-0.00358986
0.11391
-0.00373274
0.116665
-0.003794
0.119312
-0.00378305
0.122137
-0.00377088
0.124981
-0.00375337
0.127757
-0.00371876
0.130324
-0.00367953
0.132749
-0.00361727
0.134853
-0.00351678
0.13672
-0.00339105
0.138519
-0.00323205
0.139935
-0.00298564
0.141373
-0.00271198
0.142509
-0.00232775
0.143484
-0.00186544
0.144345
-0.00128782
0.144932
-0.000624487
0.145688
0.000195135
0.146672
0.147098
0.00544188
0.0461267
0.00277527
0.0676242
5.38704e-05
0.0695126