1.11936e-18 	0.5125 	0.5 	0.543479
1.11936e-18 	0.5375 	0.5 	0.546801
1.11936e-18 	0.5625 	0.5 	0.548446
1.11936e-18 	0.5875 	0.5 	0.550377
1.11936e-18 	0.6125 	0.5 	0.552369
1.11936e-18 	0.6375 	0.5 	0.554511
1.11936e-18 	0.6625 	0.5 	0.556807
1.11936e-18 	0.6875 	0.5 	0.559229
1.11936e-18 	0.7125 	0.5 	0.561738
1.11936e-18 	0.7375 	0.5 	0.564287
1.11936e-18 	0.7625 	0.5 	0.566829
1.11936e-18 	0.7875 	0.5 	0.569319
1.11936e-18 	0.8125 	0.5 	0.571718
1.11936e-18 	0.8375 	0.5 	0.573997
1.11936e-18 	0.8625 	0.5 	0.576129
1.11936e-18 	0.8875 	0.5 	0.578097
1.11936e-18 	0.9125 	0.5 	0.579889
1.11936e-18 	0.9375 	0.5 	0.581499
1.11936e-18 	0.9625 	0.5 	0.582923
1.11936e-18 	0.9875 	0.5 	0.584162
1.11936e-18 	1.0125 	0.5 	0.585219
1.11936e-18 	1.0375 	0.5 	0.586098
1.11936e-18 	1.0625 	0.5 	0.586806
1.11936e-18 	1.0875 	0.5 	0.58735
1.11936e-18 	1.1125 	0.5 	0.587737
1.11936e-18 	1.1375 	0.5 	0.587976
1.11936e-18 	1.1625 	0.5 	0.588074
1.11936e-18 	1.1875 	0.5 	0.588039
1.11936e-18 	1.2125 	0.5 	0.587879
1.11936e-18 	1.2375 	0.5 	0.587601
1.11936e-18 	1.2625 	0.5 	0.587214
1.11936e-18 	1.2875 	0.5 	0.586728
1.11936e-18 	1.3125 	0.5 	0.586151
1.11936e-18 	1.3375 	0.5 	0.58549
1.11936e-18 	1.3625 	0.5 	0.584753
1.11936e-18 	1.3875 	0.5 	0.583942
1.11936e-18 	1.4125 	0.5 	0.583058
1.11936e-18 	1.4375 	0.5 	0.582102
1.11936e-18 	1.4625 	0.5 	0.581077
1.11936e-18 	1.4875 	0.5 	0.580023
1.11936e-18 	1.55625 	0.5 	0.577166
1.11936e-18 	1.66875 	0.5 	0.570906
1.11936e-18 	1.78125 	0.5 	0.56412
1.11936e-18 	1.89375 	0.5 	0.556328
1.11936e-18 	2.00625 	0.5 	0.547988
1.11936e-18 	2.11875 	0.5 	0.538942
1.11936e-18 	2.23125 	0.5 	0.529348
1.11936e-18 	2.34375 	0.5 	0.519175
