-0.362837 	0.362837 	0.5 	0.0202717 	0.0189016 	2.78464e-23
-0.380512 	0.380512 	0.5 	0.0560047 	0.0485252 	8.53744e-21
-0.398188 	0.398188 	0.5 	0.0888677 	0.0704982 	-4.35003e-21
-0.415863 	0.415863 	0.5 	0.118469 	0.0866891 	3.50826e-20
-0.433538 	0.433538 	0.5 	0.145162 	0.0980061 	0
-0.451213 	0.451213 	0.5 	0.169147 	0.105332 	2.70151e-20
-0.468888 	0.468888 	0.5 	0.190646 	0.10938 	4.56098e-20
-0.486563 	0.486563 	0.5 	0.209877 	0.110749 	2.76113e-20
-0.504238 	0.504238 	0.5 	0.22705 	0.109943 	-1.85313e-20
-0.521913 	0.521913 	0.5 	0.242366 	0.107383 	-4.68709e-20
-0.539588 	0.539588 	0.5 	0.256018 	0.103429 	0
-0.557263 	0.557263 	0.5 	0.268185 	0.0983804 	3.79314e-20
-0.574938 	0.574938 	0.5 	0.279034 	0.0924915 	1.90777e-20
-0.592613 	0.592613 	0.5 	0.288719 	0.0859739 	-9.52202e-23
-0.610288 	0.610288 	0.5 	0.297382 	0.0790039 	4.36929e-23
-0.627963 	0.627963 	0.5 	0.30515 	0.0717272 	7.68673e-20
-0.645638 	0.645638 	0.5 	0.312136 	0.064263 	-1.92731e-20
-0.663313 	0.663313 	0.5 	0.318444 	0.056708 	5.7632e-20
-0.680988 	0.680988 	0.5 	0.324163 	0.0491394 	-1.92505e-20
-0.698663 	0.698663 	0.5 	0.329374 	0.041618 	5.74822e-20
-0.716338 	0.716338 	0.5 	0.334146 	0.0341904 	-3.8303e-20
-0.734013 	0.734013 	0.5 	0.338539 	0.026892 	5.72257e-20
-0.751688 	0.751688 	0.5 	0.342606 	0.0197482 	1.90063e-20
-0.769363 	0.769363 	0.5 	0.346392 	0.0127765 	-5.67977e-20
-0.787038 	0.787038 	0.5 	0.349935 	0.0059881 	0
-0.804713 	0.804713 	0.5 	0.353268 	-0.000611182 	-3.74689e-20
-0.822388 	0.822388 	0.5 	0.356419 	-0.00701949 	0
-0.840063 	0.840063 	0.5 	0.359413 	-0.0132382 	-3.7056e-20
-0.857738 	0.857738 	0.5 	0.36227 	-0.0192712 	0
-0.875413 	0.875413 	0.5 	0.365008 	-0.0251242 	3.65962e-20
-0.893088 	0.893088 	0.5 	0.367641 	-0.0308043 	0
-0.910763 	0.910763 	0.5 	0.370184 	-0.0363198 	3.60978e-20
-0.928438 	0.928438 	0.5 	0.372649 	-0.0416801 	-3.58359e-20
-0.946113 	0.946113 	0.5 	0.375048 	-0.0468956 	0
-0.963788 	0.963788 	0.5 	0.377395 	-0.0519782 	-3.52889e-20
-0.981463 	0.981463 	0.5 	0.379706 	-0.0569394 	3.50047e-20
-0.999138 	0.999138 	0.5 	0.382004 	-0.0617944 	0
-1.01681 	1.01681 	0.5 	0.384361 	-0.0665929 	0
-1.03449 	1.03449 	0.5 	0.38696 	-0.0713753 	-3.40977e-20
-1.05216 	1.05216 	0.5 	0.390017 	-0.0757131 	-3.97195e-20
-1.061 	1.061 	0.5 	0.40151 	-0.0845927 	3.26765e-20
-1.12274 	1.12274 	0.5 	0.390861 	-0.0876053 	0
-1.18448 	1.18448 	0.5 	0.387268 	-0.105649 	0
-1.24621 	1.24621 	0.5 	0.40488 	-0.11721 	0
-1.30795 	1.30795 	0.5 	0.421612 	-0.124506 	0
-1.36969 	1.36969 	0.5 	0.414798 	-0.140353 	0
-1.43142 	1.43142 	0.5 	0.430697 	-0.146566 	0
-1.49316 	1.49316 	0.5 	0.42439 	-0.162237 	0
-1.5549 	1.5549 	0.5 	0.418583 	-0.177881 	0
-1.61664 	1.61664 	0.5 	0.433924 	-0.183648 	0
-1.67838 	1.67838 	0.5 	0.428222 	-0.19893 	0
