-0.362837 	0.362837 	0.5 	0.778959
-0.380512 	0.380512 	0.5 	0.767925
-0.398188 	0.398188 	0.5 	0.762431
-0.415863 	0.415863 	0.5 	0.757132
-0.433538 	0.433538 	0.5 	0.752846
-0.451213 	0.451213 	0.5 	0.749273
-0.468888 	0.468888 	0.5 	0.746248
-0.486563 	0.486563 	0.5 	0.743642
-0.504238 	0.504238 	0.5 	0.741344
-0.521913 	0.521913 	0.5 	0.739269
-0.539588 	0.539588 	0.5 	0.737351
-0.557263 	0.557263 	0.5 	0.735539
-0.574938 	0.574938 	0.5 	0.7338
-0.592613 	0.592613 	0.5 	0.732106
-0.610288 	0.610288 	0.5 	0.730438
-0.627963 	0.627963 	0.5 	0.728783
-0.645638 	0.645638 	0.5 	0.727133
-0.663313 	0.663313 	0.5 	0.725482
-0.680988 	0.680988 	0.5 	0.723829
-0.698663 	0.698663 	0.5 	0.722174
-0.716338 	0.716338 	0.5 	0.720515
-0.734013 	0.734013 	0.5 	0.718854
-0.751688 	0.751688 	0.5 	0.717193
-0.769363 	0.769363 	0.5 	0.715532
-0.787038 	0.787038 	0.5 	0.713874
-0.804713 	0.804713 	0.5 	0.71222
-0.822388 	0.822388 	0.5 	0.710572
-0.840063 	0.840063 	0.5 	0.708931
-0.857738 	0.857738 	0.5 	0.707297
-0.875413 	0.875413 	0.5 	0.705669
-0.893088 	0.893088 	0.5 	0.704042
-0.910763 	0.910763 	0.5 	0.702411
-0.928438 	0.928438 	0.5 	0.700768
-0.946113 	0.946113 	0.5 	0.699098
-0.963788 	0.963788 	0.5 	0.697389
-0.981463 	0.981463 	0.5 	0.695628
-0.999138 	0.999138 	0.5 	0.693777
-1.01681 	1.01681 	0.5 	0.691646
-1.03449 	1.03449 	0.5 	0.689187
-1.05216 	1.05216 	0.5 	0.687861
-1.061 	1.061 	0.5 	0.68534
-1.12274 	1.12274 	0.5 	0.680591
-1.18448 	1.18448 	0.5 	0.685273
-1.24621 	1.24621 	0.5 	0.675877
-1.30795 	1.30795 	0.5 	0.664408
-1.36969 	1.36969 	0.5 	0.668441
-1.43142 	1.43142 	0.5 	0.656494
-1.49316 	1.49316 	0.5 	0.660409
-1.5549 	1.5549 	0.5 	0.664143
-1.61664 	1.61664 	0.5 	0.652778
-1.67838 	1.67838 	0.5 	0.656753
