-0.365783 	0.365783 	0.5 	0.027304 	0.0248877 	7.40987e-21
-0.38935 	0.38935 	0.5 	0.0733106 	0.0607837 	5.56096e-20
-0.412917 	0.412917 	0.5 	0.114354 	0.0844858 	0
-0.436483 	0.436483 	0.5 	0.149938 	0.0996108 	6.55198e-20
-0.46005 	0.46005 	0.5 	0.180827 	0.107935 	0
-0.483617 	0.483617 	0.5 	0.207514 	0.111053 	0
-0.507183 	0.507183 	0.5 	0.2305 	0.110199 	5.04003e-20
-0.53075 	0.53075 	0.5 	0.250257 	0.106355 	5.75678e-23
-0.554317 	0.554317 	0.5 	0.267223 	0.100303 	1.70199e-20
-0.577883 	0.577883 	0.5 	0.281796 	0.0926679 	1.69787e-20
-0.60145 	0.60145 	0.5 	0.294336 	0.0839436 	-5.09371e-20
-0.625017 	0.625017 	0.5 	0.305162 	0.0745188 	3.39385e-20
-0.648583 	0.648583 	0.5 	0.314553 	0.0646946 	0
-0.67215 	0.67215 	0.5 	0.322749 	0.0547009 	0
-0.695717 	0.695717 	0.5 	0.329956 	0.0447089 	-6.65329e-20
-0.719283 	0.719283 	0.5 	0.336345 	0.034843 	0
-0.74285 	0.74285 	0.5 	0.342062 	0.0251896 	-3.2797e-20
-0.766417 	0.766417 	0.5 	0.347224 	0.0158055 	3.25986e-20
-0.789983 	0.789983 	0.5 	0.351928 	0.00672452 	3.2182e-20
-0.81355 	0.81355 	0.5 	0.356253 	-0.00203668 	-9.74969e-23
-0.837117 	0.837117 	0.5 	0.360263 	-0.0104743 	-3.15945e-20
-0.860683 	0.860683 	0.5 	0.364009 	-0.0185937 	0
-0.88425 	0.88425 	0.5 	0.367535 	-0.0264067 	-6.153e-20
-0.907817 	0.907817 	0.5 	0.370878 	-0.03393 	6.09615e-20
-0.931383 	0.931383 	0.5 	0.374072 	-0.0411838 	0
-0.95495 	0.95495 	0.5 	0.37715 	-0.0481883 	0
-0.978517 	0.978517 	0.5 	0.380154 	-0.0549689 	0
-1.00208 	1.00208 	0.5 	0.383182 	-0.0615968 	0
-1.02565 	1.02565 	0.5 	0.38647 	-0.0681225 	-5.6762e-20
-1.04922 	1.04922 	0.5 	0.390296 	-0.0739871 	1.72338e-22
-1.061 	1.061 	0.5 	0.4045 	-0.0861739 	2.43211e-20
-1.14332 	1.14332 	0.5 	0.391306 	-0.0899391 	0
-1.22563 	1.22563 	0.5 	0.414396 	-0.108263 	0
-1.30795 	1.30795 	0.5 	0.409838 	-0.129496 	0
-1.39027 	1.39027 	0.5 	0.431336 	-0.138282 	0
-1.47258 	1.47258 	0.5 	0.422668 	-0.15916 	0
-1.5549 	1.5549 	0.5 	0.443218 	-0.166939 	0
-1.63722 	1.63722 	0.5 	0.435391 	-0.187303 	0
-1.71953 	1.71953 	0.5 	0.455527 	-0.194999 	0
