/*--------------------------------*- C++ -*----------------------------------*\
  =========                 |
  \\      /  F ield         | OpenFOAM: The Open Source CFD Toolbox
   \\    /   O peration     | Website:  https://openfoam.org
    \\  /    A nd           | Version:  7
     \\/     M anipulation  |
\*---------------------------------------------------------------------------*/
FoamFile
{
    version     2.0;
    format      ascii;
    class       surfaceScalarField;
    location    "0.3";
    object      phi;
}
// * * * * * * * * * * * * * * * * * * * * * * * * * * * * * * * * * * * * * //

dimensions      [0 3 -1 0 0 0 0];

internalField   nonuniform List<scalar> 
63520
(
3.16937e-05
-0.000784882
0.000753185
0.000158877
-0.00416725
0.00404007
0.000389113
-0.00770843
0.0074782
0.000711101
-0.0105946
0.0102726
0.00110449
-0.012648
0.0122546
0.00154872
-0.0139642
0.01352
0.00202666
-0.0147165
0.0142386
0.00252383
-0.0150708
0.0145736
0.00303034
-0.0151618
0.0146552
0.0035402
-0.0150835
0.0145737
0.00404808
-0.0149038
0.0143959
0.00455278
-0.0146668
0.0141621
0.00505227
-0.0143987
0.0138992
0.00554537
-0.014119
0.0136259
0.00603264
-0.0138377
0.0133505
0.00651379
-0.0135632
0.0130821
0.00698903
-0.0132976
0.0128223
0.00745816
-0.013044
0.0125749
0.00792225
-0.0128031
0.012339
0.00838143
-0.0125746
0.0121154
0.00883578
-0.0123581
0.0119038
0.00928582
-0.0121542
0.0117042
0.00973258
-0.0119617
0.011515
0.0101758
-0.0117797
0.0113365
0.0106158
-0.0116082
0.0111681
0.0110527
-0.0114458
0.0110089
0.0114873
-0.0112937
0.0108591
0.0119202
-0.0111494
0.0107166
0.0123504
-0.0110124
0.0105822
0.012779
-0.0108837
0.0104551
0.0132065
-0.0107612
0.0103337
0.0136322
-0.0106448
0.0102191
0.0140565
-0.0105344
0.0101102
0.0144797
-0.0104295
0.0100062
0.0149023
-0.0103298
0.00990728
0.0153237
-0.0102345
0.00981307
0.0157441
-0.0101437
0.00972334
0.0161639
-0.0100571
0.0096373
0.016583
-0.00997267
0.00955359
-0.00988107
0.0169998
0.00946426
3.34482e-05
-0.000818313
0.000164436
-0.00429824
0.000398591
-0.00794259
0.000724347
-0.0109204
0.00112032
-0.013044
0.00156487
-0.0144087
0.00204138
-0.0151931
0.00253596
-0.0155653
0.0030386
-0.0156644
0.00354376
-0.0155887
0.00404658
-0.0154066
0.00454516
-0.0151654
0.00503869
-0.0148922
0.00552628
-0.0146066
0.0060076
-0.0143191
0.00648253
-0.0140382
0.00695198
-0.013767
0.00741605
-0.0135081
0.00787453
-0.0132616
0.00832811
-0.0130282
0.00877756
-0.0128076
0.00922312
-0.0125998
0.0096651
-0.0124037
0.0101035
-0.0122181
0.0105393
-0.0120439
0.0109727
-0.0118793
0.0114032
-0.0117241
0.0118317
-0.011578
0.0122586
-0.0114393
0.0126836
-0.0113086
0.0131072
-0.0111848
0.0135294
-0.0110671
0.0139505
-0.0109555
0.0143705
-0.0108494
0.0147893
-0.0107486
0.0152076
-0.0106528
0.0156251
-0.0105612
0.0160414
-0.0104735
0.0164574
-0.0103886
-0.0102959
0.0168722
3.46316e-05
-0.00085295
0.000170152
-0.00443376
0.000409678
-0.00818212
0.0007392
-0.0112499
0.00113709
-0.0134419
0.0015821
-0.0148537
0.00205697
-0.0156679
0.00254851
-0.0160569
0.00304689
-0.0161628
0.00354669
-0.0160885
0.00404405
-0.015904
0.0045368
-0.0156581
0.00502393
-0.0153794
0.00550479
-0.0150875
0.00597994
-0.0147942
0.00644921
-0.0145074
0.00691254
-0.0142304
0.00737023
-0.0139658
0.00782302
-0.0137144
0.00827138
-0.0134765
0.00871556
-0.0132518
0.00915565
-0.0130399
0.00959277
-0.0128408
0.0100269
-0.0126523
0.0104579
-0.0124749
0.0108868
-0.0123082
0.0113133
-0.0121507
0.0117375
-0.0120023
0.0121604
-0.0118622
0.0125817
-0.01173
0.0130016
-0.0116047
0.0134199
-0.0114854
0.013837
-0.0113727
0.0142535
-0.0112659
0.014669
-0.011164
0.0150833
-0.0110671
0.0154972
-0.0109751
0.015911
-0.0108873
0.0163239
-0.0108014
-0.0107075
0.0167354
3.74436e-05
-0.000890391
0.000177541
-0.00457386
0.000421654
-0.00842623
0.000754907
-0.0115832
0.0011551
-0.0138421
0.00159994
-0.0152986
0.00207265
-0.0161406
0.00256084
-0.0165451
0.00305471
-0.0166566
0.00354902
-0.0165828
0.00404037
-0.0163953
0.00452652
-0.0161443
0.00500704
-0.0158599
0.0054815
-0.0155619
0.00595003
-0.0152628
0.00641254
-0.0149699
0.00686965
-0.0146875
0.00732134
-0.0144175
0.00776805
-0.0141611
0.00821034
-0.0139188
0.00864922
-0.0136906
0.00908418
-0.0134748
0.00951566
-0.0132723
0.00994497
-0.0130816
0.0103716
-0.0129015
0.0107955
-0.0127322
0.0112174
-0.0125726
0.0116377
-0.0124226
0.0120565
-0.012281
0.0124733
-0.0121467
0.0128887
-0.01202
0.0133034
-0.0119001
0.0137167
-0.011786
0.0141287
-0.0116779
0.0145403
-0.0115756
0.0149514
-0.0114782
0.0153617
-0.0113855
0.0157713
-0.0112969
0.0161806
-0.0112107
-0.0111155
0.0165886
3.99092e-05
-0.000930302
0.000185145
-0.0047191
0.000434917
-0.008676
0.000771533
-0.0119198
0.00117304
-0.0142436
0.00161795
-0.0157435
0.00208855
-0.0166112
0.00257264
-0.0170291
0.00306144
-0.0171454
0.00354991
-0.0170713
0.00403516
-0.0168806
0.00451463
-0.0166238
0.004988
-0.0163333
0.00545548
-0.0160294
0.00591737
-0.0157246
0.00637313
-0.0154257
0.00682323
-0.0151376
0.00726842
-0.0148627
0.00770944
-0.0146022
0.00814575
-0.0143551
0.00857818
-0.0141231
0.00900789
-0.0139045
0.00943437
-0.0136988
0.00985802
-0.0135052
0.0102794
-0.0133229
0.0106989
-0.0131516
0.0111164
-0.0129902
0.0115318
-0.0128379
0.0119457
-0.0126949
0.0123586
-0.0125596
0.0127696
-0.0124311
0.0131793
-0.0123097
0.0135885
-0.0121952
0.013997
-0.0120864
0.0144043
-0.011983
0.014811
-0.0118849
0.0152173
-0.0117919
0.0156232
-0.0117027
0.0160285
-0.011616
-0.0115191
0.0164322
4.32809e-05
-0.00097358
0.000193398
-0.00486922
0.000447866
-0.00893047
0.000788441
-0.0122604
0.00119164
-0.0146468
0.00163576
-0.0161876
0.00210358
-0.0170791
0.00258366
-0.0175092
0.00306751
-0.0176293
0.00354958
-0.0175533
0.00402768
-0.0173587
0.00450023
-0.0170963
0.0049669
-0.0167999
0.00542715
-0.0164896
0.00588139
-0.0161789
0.00633011
-0.0158744
0.00677384
-0.0155813
0.00721217
-0.015301
0.00764617
-0.0150362
0.00807675
-0.0147857
0.00850348
-0.0145498
0.00892689
-0.014328
0.00934756
-0.0141194
0.00976618
-0.0139239
0.0101826
-0.0137393
0.0105965
-0.0135655
0.0110089
-0.0134025
0.0114201
-0.0132492
0.0118292
-0.013104
0.0122366
-0.0129669
0.0126431
-0.0128377
0.0130489
-0.0127155
0.0134535
-0.0125997
0.0138571
-0.01249
0.0142602
-0.0123861
0.0146629
-0.0122876
0.0150648
-0.0121938
0.0154663
-0.0121042
0.0158671
-0.0120169
-0.0119184
0.0162664
4.61469e-05
-0.00101973
0.000201464
-0.00502454
0.000461356
-0.00919036
0.000805319
-0.0126043
0.00120947
-0.015051
0.00165317
-0.0166313
0.00211869
-0.0175446
0.00259379
-0.0179843
0.00307153
-0.018107
0.00354749
-0.0180293
0.00401893
-0.0178301
0.00448369
-0.0175611
0.00494245
-0.0172587
0.00539573
-0.0169429
0.00584308
-0.0166262
0.00628389
-0.0163152
0.00671993
-0.0160173
0.0071521
-0.0157332
0.00757971
-0.0154638
0.00800318
-0.0152092
0.0084234
-0.01497
0.00884138
-0.0147459
0.00925665
-0.0145347
0.00966887
-0.0143361
0.0100795
-0.01415
0.0104889
-0.0139749
0.0108962
-0.0138098
0.0113016
-0.0136545
0.0117057
-0.0135081
0.0121086
-0.0133699
0.0125102
-0.0132394
0.0129109
-0.0131162
0.0133108
-0.0129996
0.01371
-0.0128892
0.0141085
-0.0127846
0.0145064
-0.0126855
0.0149038
-0.0125912
0.0153008
-0.0125012
0.0156969
-0.012413
-0.0123128
0.0160913
4.97224e-05
-0.00106945
0.000209898
-0.00518472
0.000474258
-0.00945472
0.000821972
-0.012952
0.00122773
-0.0154567
0.00167005
-0.0170736
0.00213198
-0.0180065
0.00260265
-0.018455
0.00307506
-0.0185794
0.00354365
-0.0184979
0.00400694
-0.0182934
0.00446472
-0.0180189
0.00491647
-0.0177104
0.00536122
-0.0173877
0.00580017
-0.0170652
0.00623429
-0.0167494
0.00666338
-0.0164464
0.00708771
-0.0161575
0.00750795
-0.015884
0.00792543
-0.0156267
0.00833973
-0.0153843
0.00875067
-0.0151569
0.00915963
-0.0149437
0.00956682
-0.0147433
0.00997184
-0.014555
0.0103751
-0.0143781
0.0107769
-0.0142116
0.0111772
-0.0140549
0.011576
-0.0139069
0.0119735
-0.0137674
0.0123701
-0.013636
0.0127659
-0.0135119
0.0131609
-0.0133946
0.0135552
-0.0132835
0.0139489
-0.0131784
0.014342
-0.0130786
0.0147347
-0.0129838
0.0151267
-0.0128932
0.015518
-0.0128042
-0.0127023
0.0159074
5.23744e-05
-0.00112182
0.000217789
-0.00535013
0.000487484
-0.00972442
0.000838544
-0.0133031
0.00124496
-0.0158631
0.00168607
-0.0175147
0.00214506
-0.0184655
0.00261029
-0.0189202
0.00307581
-0.019045
0.00353765
-0.0189597
0.00399379
-0.0187496
0.00444321
-0.0184683
0.0048864
-0.0181536
0.0053236
-0.0178249
0.00575491
-0.0174965
0.00618078
-0.0171752
0.00660179
-0.0168674
0.00701928
-0.016575
0.00743291
-0.0162977
0.00784289
-0.0160367
0.00825035
-0.0157918
0.00865544
-0.015562
0.00905818
-0.0153464
0.00945893
-0.015144
0.00985801
-0.0149541
0.0102556
-0.0147756
0.0106517
-0.0146077
0.0110462
-0.0144494
0.0114395
-0.0143002
0.0118318
-0.0141597
0.0122232
-0.0140274
0.0126137
-0.0139025
0.0130036
-0.0137845
0.0133929
-0.0136728
0.0137816
-0.0135671
0.0141697
-0.0134667
0.0145572
-0.0133714
0.0149444
-0.0132803
0.0153307
-0.0131905
-0.0130867
0.0157151
5.56395e-05
-0.00117746
0.000225955
-0.00552045
0.000499938
-0.0099984
0.000854273
-0.0136574
0.00126215
-0.016271
0.00170147
-0.0179541
0.00215629
-0.0189203
0.00261633
-0.0193803
0.00307547
-0.0195041
0.00352944
-0.0194137
0.00397724
-0.0191974
0.00441894
-0.01891
0.00485407
-0.0185887
0.00528256
-0.0182534
0.0057052
-0.0179191
0.0061235
-0.0175935
0.00653702
-0.0172809
0.00694639
-0.0169844
0.00735267
-0.0167039
0.007756
-0.01644
0.00815662
-0.0161924
0.0085549
-0.0159603
0.00895113
-0.0157426
0.00934563
-0.0155385
0.00973854
-0.015347
0.01013
-0.0151671
0.01052
-0.0149978
0.0109088
-0.0148383
0.0112965
-0.0146879
0.0116832
-0.0145464
0.0120691
-0.0144132
0.0124543
-0.0142877
0.0128389
-0.0141691
0.0132229
-0.0140568
0.0136063
-0.0139504
0.0139892
-0.0138496
0.0143717
-0.0137539
0.0147537
-0.0136624
0.0151348
-0.0135716
-0.0134658
0.0155139
5.8136e-05
-0.0012356
0.000233561
-0.00569587
0.000512501
-0.0102773
0.00086983
-0.0140148
0.00127808
-0.0166793
0.00171548
-0.0183915
0.00216664
-0.0193715
0.00262091
-0.0198345
0.00307258
-0.0199558
0.00351884
-0.01986
0.00395862
-0.0196371
0.00439169
-0.019343
0.00481786
-0.0190149
0.00523804
-0.0186735
0.00565241
-0.0183335
0.00606215
-0.0180033
0.00646768
-0.0176865
0.00686938
-0.0173861
0.00726813
-0.0171027
0.00766421
-0.0168361
0.00805774
-0.0165859
0.00844914
-0.0163517
0.00883871
-0.0161322
0.00922659
-0.0159264
0.00961299
-0.0157334
0.00999812
-0.0155522
0.0103821
-0.0153817
0.0107648
-0.015221
0.0111466
-0.0150697
0.0115277
-0.0149274
0.011908
-0.0147936
0.0122877
-0.0146674
0.0126668
-0.0145482
0.0130453
-0.0144353
0.0134233
-0.0143284
0.0138009
-0.0142272
0.0141781
-0.0141311
0.0145546
-0.0140389
0.0149299
-0.013947
-0.0138388
0.0153029
6.0607e-05
-0.0012962
0.000241022
-0.00587629
0.000524597
-0.0105609
0.000884737
-0.0143749
0.0012934
-0.0170879
0.00172848
-0.0188266
0.0021752
-0.0198182
0.00262346
-0.0202828
0.00306778
-0.0204001
0.00350599
-0.0202982
0.00393703
-0.0200682
0.00436126
-0.0197673
0.00477853
-0.0194322
0.00518991
-0.0190849
0.0055957
-0.0187393
0.00599682
-0.0184044
0.00639419
-0.0180838
0.00678803
-0.0177799
0.00717891
-0.0174936
0.0075674
-0.0172245
0.00795372
-0.0169723
0.00833805
-0.016736
0.0087206
-0.0165147
0.00910163
-0.0163075
0.0094814
-0.0161132
0.00986003
-0.0159308
0.0102376
-0.0157592
0.0106141
-0.0155976
0.01099
-0.0154455
0.0113652
-0.0153026
0.0117397
-0.0151682
0.0121137
-0.0150413
0.0124871
-0.0149216
0.01286
-0.0148083
0.0132325
-0.0147009
0.0136046
-0.0145993
0.0139762
-0.0145026
0.0143469
-0.0144097
0.0147163
-0.0143164
-0.0142056
0.0150832
6.2878e-05
-0.00135908
0.000248164
-0.00606158
0.000536404
-0.0108492
0.000899068
-0.0147376
0.0013078
-0.0174967
0.00174035
-0.0192591
0.00218221
-0.0202601
0.00262406
-0.0207246
0.00306064
-0.0208367
0.00349051
-0.020728
0.00391262
-0.0204903
0.0043277
-0.0201823
0.00473584
-0.0198403
0.00513803
-0.0194871
0.00553501
-0.0191363
0.0059275
-0.0187969
0.00631641
-0.0184727
0.00670206
-0.0181656
0.00708492
-0.0178764
0.00746561
-0.0176052
0.00784441
-0.0173511
0.00822139
-0.017113
0.00859674
-0.0168901
0.00897075
-0.0166815
0.00934364
-0.0164861
0.00971554
-0.0163027
0.0100865
-0.0161302
0.0104567
-0.0159678
0.0108264
-0.0158152
0.0111955
-0.0156717
0.0115641
-0.0155368
0.0119322
-0.0154094
0.0122998
-0.0152892
0.0126671
-0.0151755
0.0130339
-0.0150678
0.0134003
-0.0149656
0.0137661
-0.0148685
0.0141311
-0.0147747
0.0144947
-0.01468
-0.0145665
0.0148556
6.50074e-05
-0.00142409
0.000255089
-0.00625166
0.000547935
-0.011142
0.000912844
-0.0151025
0.00132123
-0.0179051
0.00175095
-0.0196888
0.00218764
-0.0206967
0.00262272
-0.0211597
0.00305113
-0.0212651
0.00347222
-0.0211491
0.00388528
-0.0209033
0.00429089
-0.020588
0.0046896
-0.020239
0.00508242
-0.0198799
0.00547036
-0.0195242
0.00585401
-0.0191805
0.00623418
-0.0188529
0.0066114
-0.0185428
0.00698609
-0.0182511
0.00735878
-0.0179779
0.00772975
-0.017722
0.0080991
-0.0174823
0.00846703
-0.017258
0.00883381
-0.0170482
0.00919962
-0.0168519
0.00956456
-0.0166676
0.00992877
-0.0164944
0.0102925
-0.0163315
0.0106558
-0.0161785
0.0110187
-0.0160346
0.0113812
-0.0158992
0.0117432
-0.0157715
0.012105
-0.0156509
0.0124663
-0.0155369
0.0128274
-0.0154288
0.013188
-0.0153263
0.0135482
-0.0152286
0.0139074
-0.015134
0.0142651
-0.0150377
-0.0149213
0.0146199
6.7074e-05
-0.00149116
0.000262002
-0.00644659
0.000559305
-0.0114393
0.000926104
-0.0154693
0.0013337
-0.0183127
0.00176025
-0.0201154
0.00219132
-0.0211278
0.0026192
-0.0215876
0.00303923
-0.0216851
0.00345114
-0.021561
0.00385482
-0.021307
0.00425068
-0.0209838
0.0046397
-0.0206281
0.00502304
-0.0202632
0.00540171
-0.0199029
0.00577626
-0.0195551
0.00614745
-0.0192241
0.00651601
-0.0189113
0.00688235
-0.0186175
0.00724682
-0.0183424
0.00760967
-0.0180849
0.00797113
-0.0178438
0.00833142
-0.0176183
0.00869076
-0.0174076
0.00904924
-0.0172104
0.00940699
-0.0170254
0.00976424
-0.0168516
0.0101212
-0.0166885
0.010478
-0.0165353
0.0108345
-0.0163912
0.0111907
-0.0162555
0.0115466
-0.0161274
0.0119024
-0.0160066
0.0122579
-0.0158924
0.0126131
-0.0157841
0.012968
-0.0156812
0.0133223
-0.0155829
0.0136756
-0.0154873
0.0140272
-0.0153892
-0.0152695
0.0143754
6.91497e-05
-0.00156031
0.000268986
-0.00664642
0.000570548
-0.0117409
0.000938915
-0.0158376
0.00134523
-0.018719
0.00176817
-0.0205383
0.00219315
-0.0215528
0.00261331
-0.0220078
0.00302479
-0.0220966
0.00342723
-0.0219635
0.00382113
-0.0217009
0.00420699
-0.0213697
0.00458611
-0.0210072
0.00495978
-0.0206369
0.00532898
-0.0202721
0.00569419
-0.0199203
0.00605622
-0.0195861
0.0064159
-0.019271
0.00677364
-0.0189752
0.00712962
-0.0186984
0.0074841
-0.0184394
0.00783743
-0.0181971
0.00818986
-0.0179708
0.0085415
-0.0177592
0.00889241
-0.0175613
0.00924277
-0.0173758
0.00959287
-0.0172018
0.00994294
-0.0170386
0.010293
-0.0168853
0.0106429
-0.0167411
0.0109926
-0.0166052
0.0113423
-0.0164771
0.011692
-0.0163563
0.0120415
-0.016242
0.0123909
-0.0161335
0.01274
-0.0160302
0.0130884
-0.0159313
0.0134357
-0.0158346
0.0137809
-0.0157345
-0.0156108
0.0141222
7.13658e-05
-0.00163168
0.000276114
-0.00685117
0.000581599
-0.0120464
0.000951248
-0.0162073
0.00135584
-0.0191236
0.00177458
-0.0209571
0.00219305
-0.0219713
0.00260501
-0.0224197
0.00300764
-0.0224992
0.00340036
-0.0223562
0.00378412
-0.0220847
0.00415981
-0.0217454
0.00452885
-0.0213762
0.00489259
-0.0210007
0.00525204
-0.0206315
0.00560776
-0.020276
0.00596049
-0.0199389
0.00631106
-0.0196216
0.00665989
-0.0193241
0.00700711
-0.0190456
0.00735302
-0.0187853
0.00769802
-0.0185421
0.00804232
-0.0183151
0.00838598
-0.0181029
0.00872908
-0.0179044
0.00907188
-0.0177186
0.00941467
-0.0175445
0.00975759
-0.0173815
0.0101006
-0.0172283
0.0104436
-0.0170841
0.0107868
-0.0169483
0.0111301
-0.0168204
0.0114736
-0.0166998
0.0118171
-0.0165855
0.0121606
-0.0164769
0.0125037
-0.0163733
0.0128463
-0.0162739
0.0131877
-0.016176
0.0135267
-0.0160735
-0.0159452
0.0138611
7.38368e-05
-0.00170551
0.000283441
-0.00706078
0.000592412
-0.0123553
0.000963006
-0.0165779
0.00136542
-0.019526
0.0017793
-0.0213709
0.0021909
-0.0223829
0.00259431
-0.0228231
0.00298768
-0.0228926
0.00337039
-0.0227389
0.0037437
-0.022458
0.00410907
-0.0221107
0.00446788
-0.021735
0.00482143
-0.0213542
0.00517086
-0.020981
0.00551691
-0.0206221
0.00586022
-0.0202822
0.00620147
-0.0199628
0.00654109
-0.0196637
0.0068793
-0.0193838
0.00721645
-0.0191224
0.00755288
-0.0188785
0.00788876
-0.018651
0.00822417
-0.0184383
0.00855925
-0.0182395
0.00889429
-0.0180536
0.00922951
-0.0178798
0.00956497
-0.0177169
0.00990065
-0.017564
0.0102366
-0.0174201
0.010573
-0.0172847
0.0109098
-0.0171573
0.011247
-0.017037
0.0115845
-0.016923
0.011922
-0.0168144
0.0122594
-0.0167107
0.0125964
-0.0166108
0.012932
-0.0165117
0.0132649
-0.0164064
-0.0162729
0.0135927
7.65886e-05
-0.0017821
0.00029093
-0.00727512
0.000602969
-0.0126674
0.000974073
-0.016949
0.00137383
-0.0199257
0.00178224
-0.0217794
0.00218658
-0.0227872
0.00258114
-0.0232177
0.00296483
-0.0232763
0.00333724
-0.0231113
0.00369987
-0.0228206
0.00405467
-0.0224655
0.00440309
-0.0220835
0.00474627
-0.0216974
0.00508547
-0.0213202
0.00542165
-0.0209583
0.00575536
-0.0206159
0.00608708
-0.0202945
0.00641725
-0.0199938
0.00674625
-0.0197128
0.00707441
-0.0194506
0.007402
-0.0192061
0.00772917
-0.0189781
0.00805607
-0.0187652
0.0083829
-0.0185663
0.00870991
-0.0183806
0.00903722
-0.0182071
0.00936489
-0.0180446
0.00969302
-0.0178921
0.0100218
-0.0177488
0.0103512
-0.0176142
0.0106814
-0.0174874
0.0110122
-0.0173678
0.0113436
-0.0172543
0.0116752
-0.0171461
0.012007
-0.0170425
0.0123386
-0.0169423
0.0126688
-0.0168419
0.0129959
-0.0167335
-0.0165943
0.0133172
7.95785e-05
-0.00186168
0.000298487
-0.00749403
0.000613214
-0.0129821
0.000984307
-0.0173201
0.00138091
-0.0203223
0.00178334
-0.0221818
0.00218002
-0.0231839
0.00256543
-0.0236031
0.00293898
-0.0236498
0.00330087
-0.0234732
0.00365262
-0.0231724
0.00399657
-0.0228095
0.00433438
-0.0224213
0.00466707
-0.0220301
0.0049959
-0.021649
0.00532199
-0.0212844
0.00564587
-0.0209398
0.00596788
-0.0206165
0.00628845
-0.0203144
0.00660802
-0.0200324
0.00692692
-0.0197695
0.00724538
-0.0195246
0.00756358
-0.0192963
0.0078817
-0.0190833
0.00819998
-0.0188846
0.0085186
-0.0186992
0.00883767
-0.0185261
0.00915728
-0.0183642
0.00947764
-0.0182125
0.00979894
-0.0180701
0.0101213
-0.0179365
0.0104446
-0.0178108
0.0107689
-0.0176921
0.0110941
-0.0175795
0.01142
-0.017472
0.0117464
-0.0173689
0.0120727
-0.0172686
0.0123978
-0.017167
0.0127195
-0.0170553
-0.0169096
0.0130349
8.27388e-05
-0.00194442
0.000306008
-0.0077173
0.000623048
-0.0132991
0.000993567
-0.0176906
0.00138654
-0.0207153
0.00178256
-0.0225778
0.00217116
-0.0235725
0.00254707
-0.023979
0.00291007
-0.0240129
0.00326117
-0.0238243
0.00360194
-0.0235132
0.00393477
-0.0231423
0.00426169
-0.0227482
0.0045838
-0.0223522
0.00490218
-0.0219674
0.00521797
-0.0216001
0.00553179
-0.0212536
0.00584391
-0.0209287
0.00615471
-0.0206252
0.00646464
-0.0203423
0.00677402
-0.0200789
0.00708309
-0.0198337
0.00739202
-0.0196053
0.00770107
-0.0193924
0.00801046
-0.019194
0.00832033
-0.0190091
0.00863081
-0.0188366
0.00894207
-0.0186755
0.00925438
-0.0185248
0.00956792
-0.0183836
0.0098828
-0.0182514
0.0101991
-0.018127
0.0105167
-0.0180097
0.0108356
-0.0178984
0.0111558
-0.0177922
0.0114769
-0.0176901
0.0117984
-0.0175901
0.0121188
-0.0174874
0.0124359
-0.0173723
-0.0172194
0.0127456
8.60079e-05
-0.00203043
0.000313396
-0.00794469
0.000632347
-0.0136181
0.00100173
-0.01806
0.00139062
-0.0211042
0.00177986
-0.022967
0.0021599
-0.0239525
0.00252599
-0.0243451
0.00287811
-0.024365
0.00321809
-0.0241643
0.00354774
-0.0238428
0.00386931
-0.0234639
0.00418511
-0.023064
0.00449647
-0.0226636
0.0048043
-0.0222752
0.00510964
-0.0219055
0.00541318
-0.0215571
0.00571522
-0.0212307
0.00601607
-0.0209261
0.00631614
-0.0206424
0.00661577
-0.0203785
0.00691517
-0.0201331
0.00721457
-0.0199047
0.00751422
-0.019692
0.00781435
-0.0194941
0.0081151
-0.0193098
0.00841662
-0.0191381
0.00871916
-0.018978
0.00902301
-0.0188286
0.00932837
-0.018689
0.00963541
-0.0185584
0.00994424
-0.0184359
0.0102549
-0.0183204
0.0105675
-0.018211
0.010882
-0.0181066
0.011198
-0.0180061
0.011515
-0.0179071
0.0118314
-0.0178038
0.0121445
-0.0176854
-0.0175243
0.0124495
8.93359e-05
-0.00211976
0.000320544
-0.0081759
0.000640979
-0.0139385
0.0010087
-0.0184277
0.00139309
-0.0214886
0.00177517
-0.0233491
0.00214617
-0.0243235
0.00250214
-0.0247011
0.00284313
-0.024706
0.00317163
-0.0244928
0.00348997
-0.0241612
0.00380021
-0.0237741
0.00410473
-0.0233685
0.00440513
-0.022964
0.00470228
-0.0225723
0.00499702
-0.0222002
0.0052901
-0.0218502
0.00558185
-0.0215225
0.00587256
-0.0212168
0.00616258
-0.0209324
0.00645222
-0.0206681
0.00674171
-0.0204226
0.00703128
-0.0201942
0.0073212
-0.0199819
0.00761169
-0.0197846
0.00790292
-0.0196011
0.00819507
-0.0194303
0.00848844
-0.0192714
0.00878332
-0.0191235
0.00908
-0.0189857
0.00937873
-0.0188571
0.00967972
-0.0187369
0.00998314
-0.0186238
0.0102891
-0.018517
0.0105977
-0.0184153
0.0109088
-0.0183172
0.0112217
-0.01822
0.0115348
-0.0181169
0.0118448
-0.0179955
-0.0178253
0.0121458
9.26573e-05
-0.00221242
0.000327326
-0.00841057
0.000648819
-0.01426
0.00101441
-0.0187933
0.00139386
-0.021868
0.00176845
-0.0237237
0.00212993
-0.024685
0.00247544
-0.0250466
0.00280514
-0.0250357
0.00312187
-0.0248095
0.00342862
-0.0244679
0.00372748
-0.024073
0.00402062
-0.0236617
0.00430985
-0.0232532
0.00459613
-0.0228586
0.00488017
-0.0224843
0.00516261
-0.0221326
0.00544388
-0.0218037
0.00572426
-0.0214972
0.00600403
-0.0212122
0.00628348
-0.0209476
0.0065628
-0.0207019
0.00684225
-0.0204737
0.0071221
-0.0202618
0.00740259
-0.0200651
0.00768387
-0.0198823
0.0079662
-0.0197126
0.00824987
-0.0195551
0.00853522
-0.0194088
0.00882263
-0.0192731
0.00911246
-0.019147
0.00940501
-0.0190294
0.00970057
-0.0189194
0.00999945
-0.0188159
0.0103019
-0.0187177
0.0106079
-0.0186233
0.0109169
-0.0185289
0.0112272
-0.0184271
0.011535
-0.0183033
-0.0181234
0.0118331
9.59133e-05
-0.00230833
0.000333612
-0.00864827
0.000655748
-0.0145821
0.00101878
-0.0191563
0.00139284
-0.0222421
0.00175963
-0.0240905
0.00211122
-0.0250366
0.00244586
-0.0253812
0.00276414
-0.0253539
0.00306889
-0.0251143
0.00336377
-0.0247628
0.00365113
-0.0243603
0.00393283
-0.0239434
0.00421075
-0.0235311
0.00448598
-0.0231339
0.00475916
-0.0227574
0.00503083
-0.0224043
0.00530144
-0.0220743
0.0055713
-0.021767
0.00584064
-0.0214815
0.00610967
-0.0212166
0.00637857
-0.0209708
0.00664761
-0.0207427
0.00691707
-0.0205313
0.00718717
-0.0203352
0.0074581
-0.0201533
0.0077301
-0.0199846
0.0080035
-0.0198285
0.0082787
-0.019684
0.00855616
-0.0195505
0.00883632
-0.0194271
0.00911958
-0.0193127
0.00940642
-0.0192062
0.00969741
-0.0191068
0.00999305
-0.0190134
0.0102935
-0.0189237
0.0105985
-0.0188339
0.0109061
-0.0187348
0.0112124
-0.0186096
-0.0184195
0.0115085
9.90107e-05
-0.00240734
0.000339277
-0.00888854
0.000661656
-0.0149045
0.00102177
-0.0195164
0.00138997
-0.0226103
0.00174865
-0.0244492
0.00209008
-0.025378
0.00241344
-0.0257046
0.00272006
-0.0256606
0.00301275
-0.0254069
0.00329554
-0.0250456
0.00357121
-0.024636
0.00384143
-0.0242136
0.00410793
-0.0237976
0.00437196
-0.0233979
0.00463413
-0.0230196
0.00489489
-0.0226651
0.00515469
-0.0223341
0.00541386
-0.0220262
0.00567258
-0.0217402
0.00593096
-0.021475
0.00618918
-0.021229
0.00644755
-0.0210011
0.00670631
-0.02079
0.00696565
-0.0205945
0.00722578
-0.0204134
0.00748694
-0.0202458
0.00774947
-0.020091
0.00801383
-0.0199484
0.00828052
-0.0198172
0.00855003
-0.0196966
0.00882291
-0.0195855
0.0090999
-0.0194832
0.0093818
-0.0193888
0.00966941
-0.019301
0.00996327
-0.0192176
0.0102633
-0.0191339
0.0105681
-0.0190395
0.0108729
-0.0189144
-0.0187138
0.0111672
0.000101846
-0.00250919
0.000344228
-0.00913093
0.000666453
-0.0152268
0.00102334
-0.0198733
0.00138524
-0.0229722
0.00173546
-0.0247994
0.00206656
-0.0257091
0.00237826
-0.0260163
0.00267293
-0.0259552
0.0029535
-0.0256875
0.00322408
-0.0253162
0.00348786
-0.0248998
0.0037465
-0.0244722
0.00400152
-0.0240526
0.00425421
-0.0236506
0.00450523
-0.0232706
0.00475496
-0.0229148
0.00500383
-0.022583
0.00525214
-0.0222745
0.00550002
-0.0219881
0.00574752
-0.0217225
0.00599486
-0.0214763
0.0062423
-0.0212485
0.00649005
-0.0210378
0.00673827
-0.0208427
0.00698716
-0.0206623
0.00723696
-0.0204956
0.007488
-0.0203421
0.00774076
-0.0202011
0.00799574
-0.0200722
0.00825347
-0.0199544
0.00851468
-0.0198468
0.00878031
-0.0197488
0.00905142
-0.0196599
0.00932914
-0.0195787
0.00961447
-0.0195029
0.00990788
-0.0194273
0.0102082
-0.0193398
0.0105103
-0.0192165
-0.0190061
0.0108025
0.000104321
-0.00261351
0.000348411
-0.00937502
0.000670088
-0.0155484
0.00102345
-0.0202267
0.0013787
-0.0233275
0.00172006
-0.0251408
0.00204066
-0.0260297
0.00234042
-0.026316
0.0026228
-0.0262376
0.00289118
-0.0259559
0.00314951
-0.0255745
0.00340123
-0.0251515
0.00364816
-0.0247192
0.00389164
-0.0242961
0.00413289
-0.0238918
0.00437262
-0.0235104
0.00461121
-0.0231534
0.00484903
-0.0228208
0.00508632
-0.0225118
0.00532315
-0.0222249
0.00555959
-0.0219589
0.00579585
-0.0217126
0.00603214
-0.0214848
0.00626861
-0.0212742
0.00650538
-0.0210795
0.00674262
-0.0208995
0.00698056
-0.0207335
0.0072195
-0.020581
0.00745987
-0.0204415
0.00770213
-0.0203145
0.00794686
-0.0201991
0.00819487
-0.0200948
0.00844727
-0.0200012
0.00870532
-0.0199179
0.00897051
-0.0198439
0.00924436
-0.0197768
0.00952793
-0.0197109
0.0098207
-0.0196326
0.0101172
-0.0195129
-0.019294
0.0104051
0.000106372
-0.00271988
0.000351824
-0.00962047
0.000672567
-0.0158692
0.00102211
-0.0205762
0.00137045
-0.0236758
0.00170252
-0.0254728
0.00201237
-0.0263395
0.00230001
-0.0266037
0.00256979
-0.0265074
0.00282586
-0.026212
0.00307194
-0.0258206
0.00331148
-0.0253911
0.00354654
-0.0249542
0.00377839
-0.024528
0.00400812
-0.0241216
0.00423647
-0.0237387
0.00446382
-0.0233808
0.00469048
-0.0230475
0.00491659
-0.0227379
0.00514221
-0.0224506
0.00536745
-0.0221842
0.0055925
-0.0219377
0.00581746
-0.0217098
0.0060424
-0.0214992
0.00626743
-0.0213045
0.00649269
-0.0211248
0.00671832
-0.0209591
0.00694458
-0.0208073
0.00717181
-0.0206687
0.00740037
-0.020543
0.00763081
-0.0204295
0.00786395
-0.0203279
0.00810092
-0.0202382
0.00834313
-0.0201601
0.00859233
-0.0200931
0.0088505
-0.0200349
0.00911938
-0.0199798
0.00939928
-0.0199125
0.00968462
-0.0197983
-0.0195736
0.00996416
0.000107985
-0.00282787
0.000354506
-0.00986699
0.000673959
-0.0161886
0.00101934
-0.0209216
0.00136056
-0.024017
0.00168294
-0.0257952
0.00198167
-0.0266383
0.00225707
-0.0268791
0.00251405
-0.0267644
0.00275764
-0.0264556
0.00299144
-0.0260544
0.00321873
-0.0256183
0.00344177
-0.0251773
0.00366188
-0.0247481
0.00388004
-0.0243397
0.00409695
-0.0239556
0.00431299
-0.0235968
0.00452836
-0.0232629
0.00474316
-0.0229527
0.00495748
-0.0226649
0.00517146
-0.0223982
0.0053852
-0.0221514
0.00559867
-0.0219233
0.00581192
-0.0217124
0.00602502
-0.0215176
0.00623803
-0.0213378
0.00645101
-0.0211721
0.00666413
-0.0210204
0.00687756
-0.0208822
0.00709152
-0.020757
0.00730643
-0.0206444
0.007523
-0.0205445
0.00774223
-0.0204574
0.00796546
-0.0203834
0.00819454
-0.0203222
0.00843167
-0.0202721
0.00867922
-0.0202273
0.0089385
-0.0201718
0.00920435
-0.0200641
-0.0198381
0.00946889
0.000109201
-0.00293707
0.000356526
-0.0101143
0.000674381
-0.0165065
0.00101522
-0.0212624
0.00134911
-0.0243509
0.00166142
-0.0261075
0.00194859
-0.0269254
0.0022116
-0.0271421
0.00245568
-0.0270084
0.00268663
-0.0266865
0.00290809
-0.0262758
0.00312305
-0.0258333
0.00333395
-0.0253882
0.00354224
-0.0249564
0.0037488
-0.0245463
0.00395423
-0.0241611
0.00415889
-0.0238015
0.00436288
-0.0234669
0.0045663
-0.0231561
0.0047693
-0.0228679
0.00497199
-0.0226008
0.00517433
-0.0223537
0.00537624
-0.0221252
0.00557772
-0.0219139
0.00577879
-0.0217187
0.0059794
-0.0215384
0.00617952
-0.0213722
0.00637918
-0.02122
0.00657835
-0.0210813
0.00677704
-0.0209557
0.00697544
-0.0208428
0.00717397
-0.020743
0.00737329
-0.0206567
0.00757445
-0.0205845
0.00777897
-0.0205267
0.00798898
-0.0204821
0.00820716
-0.0204455
0.00843586
-0.0204005
0.00867114
-0.0202994
-0.020079
0.00891203
0.000110104
-0.00304717
0.000357962
-0.0103622
0.000673969
-0.0168225
0.00100983
-0.0215983
0.0013361
-0.0246772
0.00163802
-0.0264094
0.00191314
-0.0272006
0.00216359
-0.0273926
0.00239476
-0.0272396
0.00261292
-0.0269047
0.00282191
-0.0264848
0.0030245
-0.0260359
0.00322321
-0.0255869
0.00341962
-0.0251528
0.00361455
-0.0247412
0.00380848
-0.024355
0.00400168
-0.0239947
0.00419424
-0.0236594
0.00438627
-0.0233482
0.00457797
-0.0230596
0.00476935
-0.0227922
0.00496026
-0.0225446
0.00515059
-0.0223155
0.00534032
-0.0221037
0.00552937
-0.0219078
0.00571757
-0.0217266
0.00590482
-0.0215595
0.00609095
-0.0214062
0.0062757
-0.0212661
0.00645881
-0.0211388
0.00664016
-0.0210242
0.00681972
-0.0209226
0.00699756
-0.0208346
0.0071741
-0.0207611
0.00735013
-0.0207027
0.00752712
-0.0206591
0.00770757
-0.020626
0.00789468
-0.0205876
0.00808687
-0.0204916
-0.0202867
0.0082946
0.000110797
-0.00315797
0.000358898
-0.0106103
0.000672836
-0.0171364
0.0010033
-0.0219288
0.00132151
-0.0249954
0.00161274
-0.0267007
0.00187537
-0.0274632
0.00211305
-0.0276302
0.00233133
-0.0274579
0.00253659
-0.0271099
0.00273295
-0.0266812
0.00292314
-0.0262261
0.00310966
-0.0257734
0.00329417
-0.0253373
0.00347743
-0.0249245
0.00365982
-0.0245374
0.00384151
-0.0241763
0.00402261
-0.0238405
0.0042033
-0.0235289
0.00438373
-0.02324
0.00456379
-0.0229723
0.00474328
-0.0227241
0.00492212
-0.0224944
0.00510022
-0.0222818
0.00527736
-0.0220849
0.00545331
-0.0219025
0.00562787
-0.021734
0.00580068
-0.021579
0.00597122
-0.0214366
0.00613897
-0.0213065
0.00630341
-0.0211886
0.00646391
-0.0210831
0.00661981
-0.0209905
0.00677054
-0.0209118
0.00691569
-0.0208479
0.00705544
-0.0207988
0.00719136
-0.0207619
0.00732711
-0.0207233
0.00746487
-0.0206294
-0.0204533
0.00763142
0.000111378
-0.00326935
0.00035942
-0.0108583
0.000671059
-0.0174481
0.000995705
-0.0222534
0.00130529
-0.025305
0.00158551
-0.0269809
0.00183535
-0.027713
0.00206003
-0.0278549
0.00226542
-0.0276633
0.0024577
-0.0273022
0.00264129
-0.0268648
0.00281905
-0.0264038
0.00299341