/*--------------------------------*- C++ -*----------------------------------*\
  =========                 |
  \\      /  F ield         | OpenFOAM: The Open Source CFD Toolbox
   \\    /   O peration     | Website:  https://openfoam.org
    \\  /    A nd           | Version:  7
     \\/     M anipulation  |
\*---------------------------------------------------------------------------*/
FoamFile
{
    version     2.0;
    format      ascii;
    class       volVectorField;
    location    "0.3";
    object      U;
}
// * * * * * * * * * * * * * * * * * * * * * * * * * * * * * * * * * * * * * //

dimensions      [0 1 -1 0 0 0 0];

internalField   nonuniform List<vector> 
32000
(
(-0.00515642 -0.0307367 -2.20572e-21)
(0.00525052 -0.163932 0)
(0.0274289 -0.303307 -1.8822e-20)
(0.0531254 -0.416795 0)
(0.0810335 -0.497263 2.00937e-20)
(0.111583 -0.548586 0)
(0.143554 -0.577741 2.12002e-20)
(0.175129 -0.591253 -1.61787e-20)
(0.205289 -0.594412 2.7584e-23)
(0.233621 -0.590958 2.68035e-23)
(0.260063 -0.583539 -5.65511e-21)
(0.28469 -0.57388 2.28886e-20)
(0.307425 -0.563047 0)
(0.328388 -0.551793 -5.86913e-21)
(0.347784 -0.54047 5.89336e-21)
(0.365808 -0.529407 0)
(0.382494 -0.518732 2.98688e-20)
(0.397898 -0.508559 -6.00333e-21)
(0.412228 -0.498891 0)
(0.425612 -0.489701 1.21406e-20)
(0.438115 -0.481009 1.21165e-20)
(0.449771 -0.472825 0)
(0.460646 -0.46509 0)
(0.470885 -0.457772 0)
(0.480559 -0.450865 0)
(0.489649 -0.444336 0)
(0.498237 -0.438223 0)
(0.50633 -0.432412 0)
(0.514029 -0.426905 -2.43487e-20)
(0.52136 -0.421715 0)
(0.528275 -0.41676 2.42775e-20)
(0.534923 -0.41209 0)
(0.541275 -0.407631 0)
(0.547274 -0.403365 0)
(0.55307 -0.399359 -2.40544e-20)
(0.558637 -0.395521 -1.20418e-20)
(0.563904 -0.391836 3.59772e-20)
(0.569005 -0.388342 -2.68427e-23)
(0.573977 -0.384931 2.38511e-20)
(0.578559 -0.381261 -2.5591e-23)
(-0.00448037 -0.0322262 0)
(0.00891192 -0.169156 3.701e-20)
(0.0343155 -0.31219 9.40275e-21)
(0.0626487 -0.428647 -1.24443e-22)
(0.092465 -0.511345 -1.01639e-20)
(0.124115 -0.564075 0)
(0.156585 -0.593883 2.09287e-20)
(0.188263 -0.607472 -2.13441e-20)
(0.218198 -0.610406 0)
(0.246158 -0.606517 -4.43558e-20)
(0.272111 -0.598492 0)
(0.296142 -0.588231 -6.84075e-20)
(0.318276 -0.576779 0)
(0.33871 -0.564872 0)
(0.357598 -0.552909 2.35444e-20)
(0.375051 -0.541259 -2.36197e-20)
(0.391202 -0.530043 -2.38737e-20)
(0.406173 -0.519345 0)
(0.420097 -0.509179 7.20373e-20)
(0.433056 -0.499553 -2.40814e-20)
(0.445157 -0.490455 -1.80312e-23)
(0.456496 -0.481889 -7.25779e-20)
(0.467091 -0.473792 -4.84549e-20)
(0.477017 -0.466127 -2.43549e-20)
(0.486403 -0.458926 7.28288e-20)
(0.495254 -0.452127 -7.29154e-20)
(0.50363 -0.445749 7.30182e-20)
(0.511529 -0.439701 -9.70377e-20)
(0.519004 -0.433952 -2.40958e-20)
(0.526178 -0.428582 2.0456e-22)
(0.532951 -0.423444 -7.24267e-20)
(0.539385 -0.418536 -4.82616e-20)
(0.545606 -0.413933 9.64121e-20)
(0.551507 -0.409541 -9.60276e-20)
(0.557116 -0.405333 -2.38022e-20)
(0.562541 -0.401365 -9.56295e-20)
(0.567758 -0.397581 5.79332e-23)
(0.572743 -0.393924 2.37793e-20)
(0.577574 -0.390404 -9.45569e-20)
(0.582107 -0.38658 -1.21839e-19)
(-0.00378775 -0.033594 -8.578e-21)
(0.0126849 -0.17411 -1.85125e-20)
(0.0416479 -0.320776 -8.35085e-20)
(0.072864 -0.44034 0)
(0.104549 -0.525217 1.00103e-20)
(0.137362 -0.579228 -1.01801e-20)
(0.170398 -0.609614 -1.2583e-19)
(0.20212 -0.623315 4.29532e-20)
(0.231823 -0.625983 -2.18342e-20)
(0.259379 -0.621607 1.32429e-19)
(0.284751 -0.613025 4.48353e-20)
(0.308186 -0.602144 2.28797e-20)
(0.32974 -0.590035 -9.15343e-20)
(0.34956 -0.577473 0)
(0.367828 -0.564937 0)
(0.384746 -0.552747 4.71826e-20)
(0.400401 -0.540991 1.81157e-22)
(0.414847 -0.529788 -4.75469e-20)
(0.428292 -0.519156 -4.79584e-20)
(0.440855 -0.509112 -9.57777e-20)
(0.452575 -0.499613 1.44276e-19)
(0.463523 -0.490662 2.00952e-22)
(0.473793 -0.482234 4.24626e-23)
(0.483438 -0.474269 4.8308e-20)
(0.492549 -0.466785 -9.70285e-20)
(0.501108 -0.459713 1.9347e-19)
(0.509227 -0.453054 0)
(0.516957 -0.446814 4.84937e-20)
(0.524221 -0.440861 4.84443e-20)
(0.53116 -0.435229 9.67088e-20)
(0.537815 -0.42994 2.04096e-22)
(0.544102 -0.42488 0)
(0.550091 -0.420064 4.79991e-20)
(0.555848 -0.415532 -4.75875e-20)
(0.561356 -0.411222 -4.7338e-20)
(0.566622 -0.407099 1.43027e-19)
(0.571703 -0.403164 -1.41774e-19)
(0.576609 -0.399418 9.47076e-20)
(0.581376 -0.395749 -1.40834e-19)
(0.585762 -0.391788 4.82297e-20)
(-0.00295518 -0.0350844 6.87696e-20)
(0.0169168 -0.179355 -7.28982e-20)
(0.0494527 -0.329467 1.47703e-19)
(0.0835726 -0.451973 0)
(0.117356 -0.538897 5.88072e-20)
(0.151341 -0.594047 1.01389e-19)
(0.184865 -0.624971 2.14797e-20)
(0.216664 -0.638697 1.3066e-22)
(0.246108 -0.641021 6.47175e-20)
(0.27321 -0.63622 -2.2569e-20)
(0.298003 -0.627073 1.11122e-19)
(0.320783 -0.615525 -1.35253e-19)
(0.341686 -0.60278 1.3706e-19)
(0.360888 -0.589638 -4.61957e-20)
(0.378549 -0.576542 4.63868e-20)
(0.39485 -0.563782 -9.34306e-20)
(0.40994 -0.551537 -1.41262e-19)
(0.423904 -0.539881 4.73025e-20)
(0.43688 -0.528804 -4.76819e-20)
(0.448971 -0.51832 1.43465e-19)
(0.460276 -0.508447 -9.60505e-20)
(0.470862 -0.499153 -9.57792e-20)
(0.480796 -0.490421 0)
(0.490097 -0.482146 0)
(0.498911 -0.474384 -9.60722e-20)
(0.507245 -0.467113 -9.65844e-20)
(0.515078 -0.460186 -9.60341e-20)
(0.522546 -0.45367 0)
(0.529668 -0.447561 0)
(0.5364 -0.441746 -1.91858e-19)
(0.542804 -0.436232 -3.01891e-22)
(0.548953 -0.431026 9.59119e-20)
(0.554807 -0.426082 -9.52912e-20)
(0.560346 -0.421389 -9.53392e-20)
(0.565688 -0.416935 9.5325e-20)
(0.570871 -0.41268 0)
(0.575824 -0.408624 9.46082e-20)
(0.5806 -0.404756 -1.87948e-19)
(0.58524 -0.400984 1.87563e-19)
(0.589506 -0.396913 -1.93216e-19)
(-0.0020727 -0.0367246 -3.47447e-20)
(0.0213228 -0.184628 5.44893e-20)
(0.0577352 -0.338229 -7.35653e-20)
(0.094906 -0.463453 0)
(0.130739 -0.5523 -9.84301e-20)
(0.165942 -0.608541 -6.10915e-20)
(0.200013 -0.639874 8.31483e-20)
(0.231871 -0.65359 0)
(0.260995 -0.655596 -1.29431e-19)
(0.287583 -0.650268 -4.40853e-20)
(0.311784 -0.64054 -4.44633e-20)
(0.333914 -0.628399 9.02361e-20)
(0.354131 -0.615057 -9.0757e-20)
(0.372636 -0.601301 4.57245e-20)
(0.389654 -0.587665 0)
(0.405364 -0.574423 1.40115e-19)
(0.41987 -0.561689 4.72377e-20)
(0.433274 -0.549537 -9.44642e-20)
(0.445772 -0.538043 1.89419e-19)
(0.457428 -0.527201 -1.90107e-19)
(0.46829 -0.516982 1.90251e-19)
(0.478438 -0.507316 9.57792e-20)
(0.488037 -0.498286 0)
(0.497057 -0.489807 9.59206e-20)
(0.5055 -0.481754 4.03115e-22)
(0.513543 -0.474201 0)
(0.521207 -0.467094 9.60342e-20)
(0.528396 -0.460362 -9.58457e-20)
(0.535216 -0.454033 9.54469e-20)
(0.541797 -0.44806 1.91328e-19)
(0.548049 -0.44238 -1.90599e-19)
(0.553951 -0.437002 1.90351e-19)
(0.559604 -0.431923 0)
(0.565025 -0.427092 0)
(0.570229 -0.422485 1.88786e-19)
(0.575231 -0.418108 0)
(0.580045 -0.413959 0)
(0.584709 -0.409969 -1.86738e-19)
(0.589223 -0.406109 1.86083e-19)
(0.593348 -0.401885 9.64523e-20)
(-0.0010545 -0.0383676 1.69934e-20)
(0.0260875 -0.189995 0)
(0.0663829 -0.346922 1.44825e-19)
(0.106705 -0.474793 1.89192e-20)
(0.14475 -0.565448 1.99218e-20)
(0.181206 -0.622702 1.20202e-19)
(0.215752 -0.654357 1.64035e-19)
(0.247637 -0.667958 0)
(0.276479 -0.669605 4.28619e-20)
(0.302544 -0.66378 1.29851e-19)
(0.326061 -0.653471 1.75662e-19)
(0.347463 -0.640684 -4.47274e-20)
(0.367005 -0.626764 -1.34969e-19)
(0.384835 -0.612501 0)
(0.401142 -0.598355 1.83398e-19)
(0.41619 -0.584569 0)
(0.430146 -0.571361 2.79492e-19)
(0.443023 -0.558806 -9.36032e-20)
(0.454957 -0.546918 0)
(0.466098 -0.535671 -9.47283e-20)
(0.476584 -0.525145 -4.05195e-22)
(0.486353 -0.515233 -9.43862e-20)
(0.495476 -0.505876 -9.50293e-20)
(0.504168 -0.497129 9.54007e-20)
(0.512403 -0.488879 -9.51507e-20)
(0.520111 -0.481068 0)
(0.527435 -0.473736 -9.53958e-20)
(0.53442 -0.466844 9.50315e-20)
(0.541034 -0.460325 0)
(0.547346 -0.454156 0)
(0.553379 -0.448331 0)
(0.559126 -0.442811 -1.89432e-19)
(0.564605 -0.437572 1.88431e-19)
(0.569832 -0.432606 0)
(0.574869 -0.427887 -9.41224e-20)
(0.579728 -0.423404 0)
(0.584406 -0.419135 1.8679e-19)
(0.58892 -0.415055 -9.23979e-20)
(0.593291 -0.411089 -1.85537e-19)
(0.597285 -0.406729 1.9115e-19)
(8.0902e-06 -0.0401715 1.17456e-19)
(0.0310336 -0.195467 -1.6007e-19)
(0.0754752 -0.355602 -2.70328e-19)
(0.119041 -0.486 -1.48252e-19)
(0.159259 -0.578348 -3.89167e-20)
(0.197011 -0.636439 -8.04249e-20)
(0.232131 -0.668329 -3.67583e-19)
(0.264024 -0.681827 -1.24397e-19)
(0.292463 -0.683078 -2.11582e-19)
(0.317945 -0.676676 -2.1642e-19)
(0.340844 -0.665803 -3.06599e-19)
(0.361523 -0.652451 -1.76885e-19)
(0.380246 -0.637955 1.03425e-21)
(0.39732 -0.623132 -1.80755e-19)
(0.413009 -0.608508 -1.83398e-19)
(0.427434 -0.594269 -2.76101e-19)
(0.440705 -0.580601 1.84484e-19)
(0.45298 -0.567609 -9.30958e-20)
(0.464468 -0.555391 0)
(0.475115 -0.543835 1.87653e-19)
(0.485036 -0.532954 0)
(0.494427 -0.522788 3.7812e-19)
(0.503254 -0.513206 0)
(0.511536 -0.504173 -9.48749e-20)
(0.519408 -0.49569 9.54442e-20)
(0.526878 -0.487695 -1.89246e-19)
(0.533931 -0.480156 0)
(0.540595 -0.473078 -1.89554e-19)
(0.546955 -0.466402 1.88766e-19)
(0.553077 -0.460063 0)
(0.558902 -0.454067 0)
(0.564425 -0.44841 0)
(0.569714 -0.443051 -1.87031e-19)
(0.574784 -0.437956 0)
(0.579653 -0.433118 -1.86847e-19)
(0.584339 -0.428533 3.72008e-19)
(0.58886 -0.424166 -3.70788e-19)
(0.593234 -0.419993 1.83644e-19)
(0.597472 -0.41591 3.68232e-19)
(0.601307 -0.411414 -1.90233e-19)
(0.00122628 -0.0420321 -1.51033e-19)
(0.0363256 -0.200943 1.16487e-21)
(0.084918 -0.364317 1.43665e-19)
(0.131812 -0.497107 2.95342e-19)
(0.174369 -0.590883 -3.86294e-20)
(0.213445 -0.649745 -1.58242e-19)
(0.249001 -0.681849 1.62534e-19)
(0.280863 -0.695093 2.49043e-19)
(0.309012 -0.695903 8.49174e-20)
(0.333892 -0.689009 2.1368e-19)
(0.355996 -0.677571 1.7459e-19)
(0.375902 -0.663597 2.64301e-19)
(0.393924 -0.648577 5.35236e-19)
(0.410235 -0.633276 2.70569e-19)
(0.425124 -0.618139 0)
(0.438888 -0.603414 9.19357e-20)
(0.451628 -0.589385 9.10086e-20)
(0.463283 -0.576046 9.20892e-20)
(0.474117 -0.563448 1.86438e-19)
(0.484316 -0.551608 -9.44202e-20)
(0.493834 -0.540453 0)
(0.502727 -0.53 -1.04584e-21)
(0.511139 -0.520198 -1.8773e-19)
(0.519125 -0.510942 1.87874e-19)
(0.526684 -0.502212 3.76954e-19)
(0.533797 -0.494031 3.76689e-19)
(0.540532 -0.486351 -2.6644e-22)
(0.546946 -0.479097 1.87643e-19)
(0.55307 -0.472226 1.87377e-19)
(0.558941 -0.465733 -1.8706e-19)
(0.564532 -0.459615 1.86704e-19)
(0.56986 -0.453826 1.86314e-19)
(0.574971 -0.44833 3.72916e-19)
(0.579854 -0.44312 -8.44519e-22)
(0.584538 -0.438188 5.55754e-19)
(0.589061 -0.433501 -3.2799e-22)
(0.59343 -0.429033 -1.83653e-19)
(0.597653 -0.424758 -1.8418e-19)
(0.601742 -0.42057 1.82354e-19)
(0.605418 -0.415938 1.88966e-19)
(0.00249088 -0.0439707 1.32107e-19)
(0.0417722 -0.206553 1.76063e-19)
(0.0947412 -0.372946 1.05602e-19)
(0.145145 -0.507956 -1.10111e-19)
(0.189975 -0.603142 -1.89288e-19)
(0.230335 -0.662683 1.57747e-19)
(0.266469 -0.694794 0)
(0.298289 -0.707721 1.63934e-19)
(0.325931 -0.708144 0)
(0.350168 -0.700723 -3.40776e-19)
(0.371637 -0.688683 8.67448e-20)
(0.390733 -0.674158 -4.37992e-19)
(0.407835 -0.658657 -1.77896e-19)
(0.423389 -0.642859 8.87467e-20)
(0.437656 -0.627234 4.2551e-22)
(0.450674 -0.612069 -9.0889e-20)
(0.462658 -0.597693 -1.83976e-19)
(0.473783 -0.58407 -3.69083e-19)
(0.484119 -0.571116 0)
(0.493737 -0.558959 -2.12564e-22)
(0.502742 -0.5476 -1.86331e-19)
(0.511238 -0.536912 -1.87502e-19)
(0.519284 -0.526829 1.87731e-19)
(0.526888 -0.517356 -1.88689e-19)
(0.534077 -0.508477 1.86877e-19)
(0.540867 -0.500136 -3.75057e-19)
(0.547311 -0.492268 -2.87483e-22)
(0.553446 -0.48484 -3.74477e-19)
(0.559304 -0.477826 -1.87379e-19)
(0.564929 -0.471201 3.03568e-22)
(0.570298 -0.464946 -8.3803e-22)
(0.575421 -0.459028 -1.86315e-19)
(0.580335 -0.453421 -1.85885e-19)
(0.585029 -0.448112 -1.1714e-21)
(0.589535 -0.44308 -1.84868e-19)
(0.593891 -0.438292 -1.18265e-21)
(0.598097 -0.433731 -1.82977e-19)
(0.602165 -0.429361 5.46157e-19)
(0.606105 -0.425065 -1.82356e-19)
(0.609625 -0.420296 -1.89267e-19)
(0.0039077 -0.0460604 -1.31662e-19)
(0.0475759 -0.212197 3.53447e-20)
(0.104936 -0.38149 -1.05955e-19)
(0.158848 -0.518646 -3.61369e-20)
(0.206101 -0.615075 1.51602e-19)
(0.247825 -0.67507 -3.91965e-20)
(0.284402 -0.707166 3.97854e-20)
(0.316094 -0.719839 -2.45902e-19)
(0.343344 -0.719774 8.2921e-20)
(0.366917 -0.711708 1.69833e-19)
(0.387537 -0.699141 0)
(0.405808 -0.684186 3.48461e-19)
(0.422152 -0.668163 0)
(0.43689 -0.6518 -3.56246e-19)
(0.450344 -0.635778 -1.79213e-19)
(0.462671 -0.62032 0)
(0.473996 -0.605536 0)
(0.484492 -0.591552 3.6701e-19)
(0.494257 -0.578376 1.84725e-19)
(0.50335 -0.565991 -3.7012e-19)
(0.51188 -0.554352 1.85277e-19)
(0.519939 -0.543407 0)
(0.527572 -0.533135 -1.86407e-19)
(0.534791 -0.523502 3.71485e-19)
(0.541624 -0.514454 -1.86062e-19)
(0.548082 -0.505941 -1.86567e-19)
(0.554218 -0.497916 1.85923e-19)
(0.56007 -0.490344 0)
(0.565664 -0.483191 3.71044e-19)
(0.571036 -0.476435 -1.851e-19)
(0.576172 -0.470059 -1.85236e-19)
(0.581086 -0.464029 -5.3354e-22)
(0.585802 -0.458321 7.36181e-19)
(0.590305 -0.452921 -5.50993e-19)
(0.594629 -0.447794 0)
(0.598814 -0.442911 -1.83099e-19)
(0.602859 -0.438254 -3.64234e-19)
(0.60677 -0.43379 1.80133e-19)
(0.610551 -0.429397 1.79958e-19)
(0.613897 -0.424501 0)
(0.0053864 -0.0481217 -2.60228e-19)
(0.0535685 -0.217883 -3.50485e-20)
(0.115524 -0.390047 2.78013e-19)
(0.173087 -0.529119 -2.87151e-19)
(0.222705 -0.626564 0)
(0.265726 -0.686972 0)
(0.30281 -0.719031 -7.97212e-20)
(0.334384 -0.731289 -6.23795e-22)
(0.361124 -0.730689 8.23457e-20)
(0.383984 -0.722117 0)
(0.403795 -0.709023 0)
(0.421196 -0.693496 -8.68693e-20)
(0.43669 -0.676989 4.82356e-22)
(0.450627 -0.660249 8.92962e-20)
(0.463289 -0.643816 1.79213e-19)
(0.474887 -0.627981 0)
(0.485522 -0.612883 1.81786e-19)
(0.495372 -0.598632 -1.82229e-19)
(0.50457 -0.585212 -3.6663e-19)
(0.513146 -0.572577 3.67987e-19)
(0.521187 -0.560704 5.69251e-22)
(0.528789 -0.549567 -1.84575e-19)
(0.535998 -0.539128 1.85337e-19)
(0.542824 -0.529333 -3.70679e-19)
(0.549292 -0.520126 0)
(0.555415 -0.511464 1.85449e-19)
(0.561243 -0.503299 -3.70111e-19)
(0.566808 -0.495594 1.84594e-19)
(0.572129 -0.488316 -1.85113e-19)
(0.577245 -0.481441 -1.84436e-19)
(0.582147 -0.474955 -1.84558e-19)
(0.586843 -0.468828 7.3355e-19)
(0.591353 -0.463034 -5.4888e-19)
(0.595664 -0.457545 -3.65357e-19)
(0.599815 -0.452319 3.63267e-19)
(0.603833 -0.447337 0)
(0.60771 -0.442593 3.61806e-19)
(0.611447 -0.438055 -3.59543e-19)
(0.615056 -0.433574 -1.7996e-19)
(0.618212 -0.42855 0)
(0.00699006 -0.0503274 5.49281e-19)
(0.0598548 -0.223632 2.38275e-19)
(0.126473 -0.398451 -2.78011e-19)
(0.187758 -0.539351 2.51045e-19)
(0.239825 -0.637748 -3.81303e-20)
(0.284119 -0.698377 7.61937e-20)
(0.321618 -0.730232 0)
(0.353035 -0.742084 -8.08313e-20)
(0.379269 -0.740979 8.17696e-20)
(0.401385 -0.731845 8.38155e-20)
(0.420333 -0.718201 -8.45457e-20)
(0.436845 -0.702185 -8.62846e-20)
(0.451458 -0.685215 8.68236e-20)
(0.464572 -0.668081 0)
(0.476433 -0.651277 0)
(0.48728 -0.635126 -1.79512e-19)
(0.497221 -0.619763 1.79932e-19)
(0.50642 -0.605255 -1.8176e-19)
(0.515035 -0.591593 1.81906e-19)
(0.523086 -0.578742 1.83235e-19)
(0.530633 -0.566683 -3.66854e-19)
(0.537766 -0.555383 3.67558e-19)
(0.544538 -0.544791 5.16498e-22)
(0.550966 -0.534844 -1.83864e-19)
(0.557067 -0.525492 0)
(0.562851 -0.516701 1.84317e-19)
(0.568365 -0.508415 4.742e-22)
(0.573639 -0.500589 -1.83453e-19)
(0.578689 -0.493194 0)
(0.583546 -0.486214 3.66526e-19)
(0.588203 -0.479639 -3.64779e-19)
(0.592673 -0.473433 0)
(0.596979 -0.467551 3.63911e-19)
(0.601111 -0.461962 -3.61905e-19)
(0.60509 -0.456638 0)
(0.608932 -0.451577 0)
(0.612624 -0.446771 0)
(0.616182 -0.442165 -3.58047e-19)
(0.619619 -0.437584 3.55753e-19)
(0.622582 -0.432413 3.72105e-19)
(0.00867481 -0.0525458 -2.5759e-19)
(0.0664093 -0.22942 -2.73027e-19)
(0.137828 -0.40679 -3.45098e-20)
(0.202871 -0.549304 1.06867e-19)
(0.257394 -0.648492 -1.47321e-19)
(0.302968 -0.709271 1.52245e-19)
(0.340854 -0.740852 -1.56372e-19)
(0.372038 -0.752204 -2.39055e-19)
(0.397707 -0.750543 0)
(0.419064 -0.74087 -8.32613e-20)
(0.437124 -0.726697 8.39868e-20)
(0.452724 -0.710225 0)
(0.466432 -0.692819 1.73573e-19)
(0.478691 -0.675305 -1.74468e-19)
(0.489738 -0.658177 -5.29207e-19)
(0.499822 -0.641751 -8.55994e-22)
(0.509066 -0.626153 3.58566e-19)
(0.517616 -0.611412 -1.79959e-19)
(0.525634 -0.597529 0)
(0.533145 -0.584499 0)
(0.540187 -0.572292 3.63672e-19)
(0.546844 -0.56085 1.82973e-19)
(0.553178 -0.55011 -1.82672e-19)
(0.559202 -0.540023 -1.83268e-19)
(0.564926 -0.530551 3.66053e-19)
(0.570364 -0.521653 -1.82706e-19)
(0.575565 -0.513256 3.65996e-19)
(0.580553 -0.505318 -7.30109e-19)
(0.585328 -0.497825 7.28884e-19)
(0.589915 -0.490768 -7.27418e-19)
(0.594321 -0.484122 7.25737e-19)
(0.59857 -0.477832 -7.23882e-19)
(0.602681 -0.471855 3.60481e-19)
(0.606634 -0.466172 3.60372e-19)
(0.610431 -0.460774 9.53788e-22)
(0.614084 -0.455657 9.44895e-22)
(0.617594 -0.45079 -3.55902e-19)
(0.620982 -0.446098 1.74274e-21)
(0.624252 -0.441399 -3.53243e-19)
(0.627022 -0.436078 0)
(0.0104571 -0.0548098 3.17892e-20)
(0.0732338 -0.235211 -3.34647e-20)
(0.14959 -0.415015 1.02706e-19)
(0.21844 -0.558977 -1.40938e-19)
(0.2754 -0.658782 7.23879e-20)
(0.322215 -0.719585 0)
(0.36047 -0.750845 0)
(0.391396 -0.761667 3.18666e-19)
(0.416425 -0.759388 4.03916e-19)
(0.436973 -0.749169 -8.20816e-20)
(0.454119 -0.734498 4.1794e-19)
(0.468791 -0.717603 -8.46579e-20)
(0.481585 -0.699801 0)
(0.492964 -0.681936 0)
(0.503178 -0.664522 3.52167e-19)
(0.512484 -0.647855 0)
(0.52103 -0.63204 1.76807e-19)
(0.528934 -0.617092 -1.78604e-19)
(0.536344 -0.603029 0)
(0.543293 -0.589856 -3.60532e-19)
(0.549822 -0.577523 -1.82104e-19)
(0.556008 -0.565947 -5.4357e-19)
(0.561902 -0.555074 -1.82082e-19)
(0.567511 -0.544875 1.8169e-19)
(0.572848 -0.53531 3.62687e-19)
(0.57794 -0.526314 0)
(0.582833 -0.517814 3.62054e-19)
(0.58753 -0.509786 7.24716e-19)
(0.592019 -0.502228 8.73607e-22)
(0.596333 -0.495113 -3.6091e-19)
(0.600496 -0.488393 -3.60866e-19)
(0.604532 -0.482012 3.5905e-19)
(0.608447 -0.475948 3.58899e-19)
(0.612209 -0.470197 -7.14768e-19)
(0.615816 -0.464745 7.12529e-19)
(0.619285 -0.459568 -3.56361e-19)
(0.622627 -0.454624 3.53372e-19)
(0.625853 -0.449837 7.0498e-19)
(0.628949 -0.445028 3.49821e-19)
(0.631515 -0.439566 3.66255e-19)
(0.0123448 -0.0571146 -2.50666e-19)
(0.080357 -0.241009 2.33662e-19)
(0.16177 -0.423102 -2.008e-19)
(0.234465 -0.568338 2.07275e-19)
(0.293848 -0.668609 3.60804e-19)
(0.341842 -0.729308 -2.99013e-19)
(0.380406 -0.760161 3.84539e-19)
(0.411062 -0.770435 2.35616e-19)
(0.435412 -0.767524 -5.62364e-19)
(0.45509 -0.756756 1.62651e-19)
(0.471281 -0.74161 8.07423e-20)
(0.484998 -0.724306 1.69362e-19)
(0.496875 -0.706149 1.70443e-19)
(0.507365 -0.687981 -3.44648e-19)
(0.516731 -0.670318 3.47976e-19)
(0.525248 -0.653426 5.27219e-19)
(0.533087 -0.637411 -5.32207e-19)
(0.540341 -0.622296 7.12898e-19)
(0.547133 -0.608098 3.5708e-19)
(0.55351 -0.594808 5.4056e-19)
(0.559524 -0.582356 1.79438e-19)
(0.565239 -0.570663 3.62204e-19)
(0.570685 -0.559691 -3.60417e-19)
(0.575869 -0.54941 0)
(0.580819 -0.539763 -1.0851e-18)
(0.585567 -0.530677 7.22588e-19)
(0.590146 -0.522096 -3.61203e-19)
(0.594542 -0.514012 -3.60693e-19)
(0.598743 -0.506407 -7.76873e-22)
(0.602792 -0.499231 0)
(0.606721 -0.492432 0)
(0.610543 -0.485974 3.55742e-19)
(0.614252 -0.479847 -3.56376e-19)
(0.617817 -0.474046 3.54413e-19)
(0.621239 -0.468539 -3.54164e-19)
(0.624538 -0.463294 -3.52943e-19)
(0.627719 -0.458272 0)
(0.630776 -0.453404 -3.49442e-19)
(0.633688 -0.448499 -3.48968e-19)
(0.636042 -0.442897 -1.09828e-18)
(0.014338 -0.0594354 2.51506e-19)
(0.0877925 -0.246801 -2.32556e-19)
(0.174379 -0.431035 2.68749e-19)
(0.250934 -0.577351 -4.8326e-19)
(0.31272 -0.677951 -3.60214e-19)
(0.361847 -0.73845 2.99012e-19)
(0.400636 -0.768789 -6.11903e-19)
(0.430975 -0.778464 -3.14062e-19)
(0.454619 -0.774938 4.00579e-19)
(0.473387 -0.763642 -7.31505e-19)
(0.488592 -0.748037 -4.97697e-19)
(0.501318 -0.730331 -1.67304e-19)
(0.512253 -0.711853 -5.11269e-19)
(0.521853 -0.693431 5.15934e-19)
(0.530374 -0.675549 -3.47978e-19)
(0.538097 -0.658453 -3.5086e-19)
(0.545212 -0.642266 0)
(0.551804 -0.627027 -3.55397e-19)
(0.557975 -0.61273 -5.35411e-19)
(0.563778 -0.599339 1.78348e-19)
(0.569274 -0.586786 -3.59373e-19)
(0.574511 -0.575005 0)
(0.579503 -0.563965 3.60421e-19)
(0.584262 -0.55362 3.59836e-19)
(0.588826 -0.543901 -3.56632e-19)
(0.593226 -0.534745 0)
(0.597481 -0.526114 0)
(0.601571 -0.517992 0)
(0.605491 -0.510343 -2.41958e-21)
(0.609286 -0.503106 0)
(0.612982 -0.496242 -7.10217e-19)
(0.616582 -0.489732 -1.62337e-21)
(0.620078 -0.483564 -7.06017e-19)
(0.623448 -0.477718 7.04635e-19)
(0.626696 -0.472156 -3.5072e-19)
(0.629833 -0.466846 3.51215e-19)
(0.632852 -0.46176 0)
(0.635735 -0.456824 6.96228e-19)
(0.638461 -0.45182 -3.45427e-19)
(0.640598 -0.446055 0)
(0.0164514 -0.061778 3.09891e-20)
(0.0955567 -0.252576 0)
(0.187422 -0.438786 -3.3093e-19)
(0.267834 -0.585991 4.12858e-19)
(0.331979 -0.686778 2.13734e-19)
(0.382206 -0.74699 -2.9434e-19)
(0.42115 -0.776724 3.04785e-19)
(0.451094 -0.785743 -3.09484e-19)
(0.473989 -0.781612 0)
(0.491814 -0.769807 3.24187e-19)
(0.50602 -0.753768 -3.27518e-19)
(0.51773 -0.735682 2.10463e-21)
(0.527691 -0.716911 0)
(0.536387 -0.69827 3.40413e-19)
(0.544074 -0.680201 -1.70908e-19)
(0.551006 -0.662935 3.4755e-19)
(0.557381 -0.646618 1.74492e-19)
(0.563297 -0.631289 -3.51229e-19)
(0.568846 -0.616916 0)
(0.574079 -0.603444 5.32003e-19)
(0.579052 -0.590816 1.77275e-19)
(0.583802 -0.578979 0)
(0.588337 -0.567892 0)
(0.592675 -0.557496 0)
(0.596852 -0.547724 3.58175e-19)
(0.600895 -0.538527 0)
(0.604818 -0.529868 -3.56598e-19)
(0.608605 -0.521719 7.11238e-19)
(0.612252 -0.514029 -7.10637e-19)
(0.615797 -0.506745 0)
(0.619256 -0.499843 3.54307e-19)
(0.622629 -0.493304 -3.50778e-19)
(0.625913 -0.487106 3.52176e-19)
(0.629096 -0.481219 0)
(0.632176 -0.475605 0)
(0.635153 -0.470242 3.47658e-19)
(0.63801 -0.465101 -3.45539e-19)
(0.640722 -0.460094 6.89836e-19)
(0.643269 -0.454971 -6.85416e-19)
(0.645191 -0.449013 0)
(0.0187023 -0.0641525 2.14892e-19)
(0.103668 -0.258322 6.60495e-20)
(0.200895 -0.446325 2.64203e-19)
(0.285152 -0.59424 2.70853e-19)
(0.35159 -0.695059 -2.84353e-19)
(0.40287 -0.754877 2.9434e-19)
(0.44192 -0.783945 3.00146e-19)
(0.471392 -0.792274 3.09484e-19)
(0.493483 -0.78754 0)
(0.510325 -0.775228 3.19893e-19)
(0.523518 -0.758779 3.27519e-19)
(0.534206 -0.740358 3.32371e-19)
(0.543168 -0.721328 0)
(0.550942 -0.70249 -2.09663e-21)
(0.557796 -0.684268 3.43764e-19)
(0.563943 -0.666879 -1.73443e-19)
(0.569571 -0.650474 -1.757e-19)
(0.574801 -0.635083 5.26664e-19)
(0.579729 -0.620652 6.35377e-22)
(0.584392 -0.607124 -1.78358e-19)
(0.588836 -0.594451 -3.55065e-19)
(0.593093 -0.582583 0)
(0.597173 -0.571467 0)
(0.60109 -0.561039 0)
(0.604876 -0.551238 0)
(0.608555 -0.542025 0)
(0.612143 -0.533356 0)
(0.615631 -0.52519 3.53581e-19)
(0.61901 -0.517474 -3.52112e-19)
(0.622305 -0.510167 0)
(0.625524 -0.503249 0)
(0.628669 -0.496696 3.50783e-19)
(0.631747 -0.490475 0)
(0.634749 -0.484552 3.47548e-19)
(0.637666 -0.478896 -3.45559e-19)
(0.640486 -0.473487 0)
(0.643188 -0.46829 6.87119e-19)
(0.645738 -0.4632 -6.8282e-19)
(0.648115 -0.457936 0)
(0.649823 -0.451764 0)
(0.0211019 -0.0665593 -2.44794e-19)
(0.112134 -0.264018 -6.41352e-20)
(0.214783 -0.453625 6.56698e-20)
(0.302869 -0.602079 -2.70853e-19)
(0.371527 -0.702769 0)
(0.423793 -0.762069 0)
(0.462896 -0.790425 -2.25012e-19)
(0.491832 -0.798052 -7.61302e-20)
(0.513071 -0.792718 -1.57082e-19)
(0.528887 -0.779897 -1.61225e-19)
(0.541038 -0.763061 -1.62787e-19)
(0.550702 -0.744356 1.63997e-19)
(0.558662 -0.725108 1.65222e-19)
(0.565497 -0.706102 -1.70196e-19)
(0.571509 -0.68776 0)
(0.576876 -0.670294 0)
(0.581757 -0.653836 -3.47133e-19)
(0.586297 -0.638405 0)
(0.590603 -0.623937 0)
(0.594695 -0.610381 3.49374e-19)
(0.598607 -0.59769 1.04825e-21)
(0.602369 -0.585812 -5.63147e-22)
(0.605993 -0.574686 -3.53182e-19)
(0.609488 -0.564247 3.52423e-19)
(0.612878 -0.554445 3.5148e-19)
(0.616188 -0.54524 -3.51009e-19)
(0.61944 -0.536577 0)
(0.622631 -0.528408 3.51168e-19)
(0.625744 -0.520686 6.69244e-22)
(0.628788 -0.513376 -3.4881e-19)
(0.631767 -0.506459 0)
(0.634689 -0.499903 0)
(0.637568 -0.493669 3.46186e-19)
(0.640394 -0.487723 -3.44279e-19)
(0.643154 -0.482036 -3.43595e-19)
(0.645826 -0.476586 3.41563e-19)
(0.648384 -0.471332 0)
(0.650785 -0.466151 0)
(0.652999 -0.460735 0)
(0.654494 -0.454333 -3.55523e-19)
(0.023659 -0.0689961 3.00271e-19)
(0.120952 -0.269638 -1.28521e-19)
(0.229062 -0.460658 6.51096e-20)
(0.320956 -0.609481 0)
(0.391771 -0.709884 3.47833e-19)
(0.444938 -0.768548 1.1206e-21)
(0.484028 -0.796149 2.96494e-19)
(0.512366 -0.803066 -2.28278e-19)
(0.532719 -0.79714 3.10507e-19)
(0.54748 -0.783824 -1.57597e-19)
(0.558548 -0.766623 0)
(0.567178 -0.747675 1.64139e-19)
(0.574145 -0.728255 -4.97654e-19)
(0.580034 -0.709114 0)
(0.585189 -0.690688 5.07381e-19)
(0.589772 -0.673181 -3.39682e-19)
(0.593916 -0.656702 -3.44023e-19)
(0.597769 -0.641253 1.72675e-19)
(0.601449 -0.626773 0)
(0.604968 -0.613214 -3.49897e-19)
(0.608345 -0.600532 -3.50231e-19)
(0.611612 -0.588664 -1.56329e-21)
(0.614779 -0.577547 3.49585e-19)
(0.61785 -0.567123 3.50978e-19)
(0.620839 -0.557345 -7.01545e-19)
(0.623776 -0.548167 3.51015e-19)
(0.626692 -0.539527 0)
(0.629586 -0.531371 -3.47297e-19)
(0.632433 -0.523659 3.46447e-19)
(0.635225 -0.516367 3.45518e-19)
(0.637967 -0.50947 -3.44481e-19)
(0.640672 -0.502929 3.43321e-19)
(0.643357 -0.496701 0)
(0.646018 -0.490749 3.4228e-19)
(0.64863 -0.485043 6.80717e-19)
(0.651166 -0.479561 -6.77748e-19)
(0.653594 -0.474256 6.75905e-19)
(0.655862 -0.468982 1.18443e-21)
(0.65792 -0.463405 -3.3543e-19)
(0.659203 -0.456752 7.09655e-19)
(0.026382 -0.0714618 -1.81571e-19)
(0.130117 -0.275163 -3.80251e-19)
(0.243708 -0.4674 2.55375e-19)
(0.33938 -0.616412 -1.98327e-19)
(0.412295 -0.716381 -7.1938e-20)
(0.466278 -0.77431 7.09263e-20)
(0.505281 -0.801118 -1.47557e-19)
(0.532952 -0.807306 -1.50023e-19)
(0.552382 -0.800797 1.54966e-19)
(0.566075 -0.787018 -3.14547e-19)
(0.576026 -0.769478 -1.33971e-21)
(0.583596 -0.750318 1.61928e-19)
(0.589579 -0.730766 0)
(0.59453 -0.711535 -1.67112e-19)
(0.598815 -0.693059 -1.69808e-19)
(0.602609 -0.675541 3.40581e-19)
(0.606023 -0.659068 0)
(0.609195 -0.643626 0)
(0.612249 -0.62916 3.46157e-19)
(0.615192 -0.615626 -3.46199e-19)
(0.618033 -0.602975 0)
(0.620803 -0.591139 3.48669e-19)
(0.623512 -0.580054 -3.48788e-19)
(0.626155 -0.569668 -6.96973e-19)
(0.62874 -0.559937 -5.61423e-22)
(0.631303 -0.550805 3.48745e-19)
(0.633883 -0.542201 -6.92535e-19)
(0.636478 -0.534075 3.47303e-19)
(0.639054 -0.526397 -3.46453e-19)
(0.641594 -0.519146 -9.09306e-22)
(0.644102 -0.512293 1.5139e-21)
(0.646596 -0.505791 -3.43327e-19)
(0.649097 -0.499592 -3.39493e-19)
(0.651601 -0.493652 -3.38057e-19)
(0.65408 -0.487945 -2.70283e-21)
(0.656496 -0.482447 0)
(0.658812 -0.477099 -3.33438e-19)
(0.660963 -0.471734 6.67072e-19)
(0.66288 -0.465985 -9.95924e-19)
(0.663948 -0.459046 5.97435e-22)
(0.029277 -0.0739559 -5.93975e-20)
(0.139622 -0.28058 5.03492e-19)
(0.258703 -0.473834 -2.5534e-19)
(0.358111 -0.622847 1.97698e-19)
(0.433064 -0.722243 -5.49946e-19)
(0.487779 -0.779354 7.03782e-20)
(0.526625 -0.80533 -2.91289e-19)
(0.55356 -0.810771 0)
(0.572014 -0.803681 0)
(0.584631 -0.789478 -3.1152e-19)
(0.593452 -0.771636 1.59726e-19)
(0.599935 -0.752289 -9.10663e-22)
(0.604929 -0.732644 1.63144e-19)
(0.608954 -0.713367 0)
(0.612367 -0.694877 -5.01474e-19)
(0.615367 -0.677376 1.68331e-19)
(0.618056 -0.660934 -3.39087e-19)
(0.620555 -0.64553 0)
(0.622984 -0.631106 0)
(0.625348 -0.617621 1.52833e-21)
(0.627654 -0.605022 -3.45067e-19)
(0.629928 -0.59324 3.45138e-19)
(0.632177 -0.582211 -3.46799e-19)
(0.634388 -0.571888 3.46054e-19)
(0.636568 -0.562223 1.28813e-21)
(0.638757 -0.553151 1.32575e-21)
(0.640997 -0.544599 3.45833e-19)
(0.643288 -0.536525 -3.42743e-19)
(0.645587 -0.528908 0)
(0.647872 -0.521726 -3.42223e-19)
(0.650147 -0.514942 3.40593e-19)
(0.652435 -0.508503 0)
(0.654761 -0.502353 3.395e-19)
(0.657121 -0.496449 -3.35819e-19)
(0.65948 -0.490763 3.33459e-19)
(0.661794 -0.485269 0)
(0.66402 -0.479893 9.9792e-19)
(0.666079 -0.47444 -6.60319e-19)
(0.667872 -0.468508 0)
(0.668727 -0.461243 3.5185e-19)
(0.0323463 -0.0764777 4.69082e-19)
(0.149457 -0.285878 -2.50666e-19)
(0.27403 -0.479942 -6.3456e-20)
(0.37712 -0.628766 6.48137e-20)
(0.454043 -0.727456 2.73197e-19)
(0.509403 -0.783667 0)
(0.548024 -0.808776 2.91291e-19)
(0.574164 -0.81346 4.43322e-19)
(0.591579 -0.805792 1.51272e-19)
(0.603101 -0.791195 1.55544e-19)
(0.610795 -0.773095 1.5734e-19)
(0.616174 -0.753596 -4.83289e-19)
(0.620167 -0.733892 1.6216e-19)
(0.623276 -0.714611 6.56756e-19)
(0.625824 -0.696144 1.66864e-19)
(0.628028 -0.678689 1.6736e-19)
(0.629995 -0.662309 3.39093e-19)
(0.631829 -0.646971 0)
(0.633635 -0.632614 0)
(0.635421 -0.6192 6.86943e-19)
(0.63719 -0.606677 -1.37219e-18)
(0.638967 -0.594972 -1.49552e-21)
(0.640754 -0.584022 0)
(0.642533 -0.573781 0)
(0.644308 -0.564198 3.45027e-19)
(0.646122 -0.555201 0)
(0.648019 -0.546722 0)
(0.649996 -0.538727 -3.38367e-19)
(0.652009 -0.531198 -6.79167e-19)
(0.654033 -0.524109 0)
(0.656076 -0.517416 -6.74585e-19)
(0.658162 -0.51106 -1.3464e-18)
(0.660318 -0.504985 6.71014e-19)
(0.662543 -0.499144 -6.65586e-19)
(0.664794 -0.49351 6.65315e-19)
(0.667027 -0.488047 -6.6138e-19)
(0.669188 -0.482663 -6.55453e-19)
(0.671184 -0.477136 0)
(0.67288 -0.471016 0)
(0.67352 -0.463388 0)
(0.03559 -0.079025 -4.69084e-19)
(0.159608 -0.291035 0)
(0.289669 -0.485703 0)
(0.396381 -0.634154 0)
(0.4752 -0.732009 0)
(0.53111 -0.787237 0)
(0.569431 -0.811439 1.44919e-19)
(0.594733 -0.81537 -7.39702e-19)
(0.611051 -0.807132 -4.50416e-19)
(0.621443 -0.792167 -1.53411e-19)
(0.628017 -0.773854 0)
(0.632292 -0.754247 6.36532e-19)
(0.635271 -0.734519 1.62331e-19)
(0.637468 -0.71527 -1.47293e-18)
(0.639163 -0.696864 0)
(0.640573 -0.679488 -6.65592e-19)
(0.64182 -0.663199 0)
(0.642995 -0.647953 6.74251e-19)
(0.644185 -0.633686 0)
(0.645393 -0.620366 -6.79523e-19)
(0.646624 -0.607941 3.43113e-19)