/*--------------------------------*- C++ -*----------------------------------*\
  =========                 |
  \\      /  F ield         | OpenFOAM: The Open Source CFD Toolbox
   \\    /   O peration     | Website:  https://openfoam.org
    \\  /    A nd           | Version:  7
     \\/     M anipulation  |
\*---------------------------------------------------------------------------*/
FoamFile
{
    version     2.0;
    format      ascii;
    class       volVectorField;
    location    "29.7";
    object      U;
}
// * * * * * * * * * * * * * * * * * * * * * * * * * * * * * * * * * * * * * //

dimensions      [0 1 -1 0 0 0 0];

internalField   nonuniform List<vector> 
2000
(
(0.000917271 -0.0067504 1.19653e-22)
(0.00357013 0.00879742 0)
(0.0079994 0.0389377 0)
(0.0120816 0.075191 2.77821e-22)
(0.0150637 0.112814 -5.51396e-23)
(0.0167162 0.149592 6.42361e-23)
(0.0172881 0.184793 8.34226e-23)
(0.0172026 0.218112 0)
(0.0167211 0.248963 0)
(0.0159324 0.276359 0)
(0.0015989 -0.00770673 0)
(0.00381377 0.00609647 2.37851e-22)
(0.00747947 0.0350795 -2.19336e-22)
(0.0109498 0.0709632 -3.97922e-22)
(0.0136067 0.108892 0)
(0.0151268 0.14629 7.02682e-23)
(0.0156201 0.182089 -6.53443e-23)
(0.0154281 0.215855 0)
(0.0148091 0.247086 9.41682e-22)
(0.0138387 0.274975 -2.12055e-21)
(0.00239029 -0.00870574 0)
(0.00434532 0.00295252 -5.12354e-22)
(0.00731346 0.0301708 0)
(0.0102097 0.0650483 4.67047e-22)
(0.0126096 0.102786 0)
(0.0141265 0.14052 -1.37397e-21)
(0.0147169 0.176823 0)
(0.0146043 0.211063 2.1502e-21)
(0.014022 0.242769 -2.0138e-21)
(0.0130167 0.271285 -3.01631e-21)
(0.00327334 -0.00966074 8.40835e-23)
(0.00516455 -0.000466543 4.97131e-22)
(0.0075146 0.0243928 -5.96389e-23)
(0.00985387 0.0575576 1.46009e-22)
(0.012008 0.0944757 -5.66256e-22)
(0.013588 0.132138 3.28768e-22)
(0.014413 0.168785 9.71833e-22)
(0.01456 0.203515 5.67606e-23)
(0.0141969 0.235797 2.67797e-21)
(0.0133119 0.26505 3.00883e-21)
(0.00421437 -0.0104823 -8.54558e-23)
(0.00625724 -0.00395691 -6.27188e-22)
(0.00810294 0.0180189 -2.15403e-21)
(0.00990493 0.048742 7.93824e-22)
(0.0117775 0.0840826 0)
(0.013407 0.121078 0)
(0.0145306 0.157743 -3.20657e-21)
(0.0150809 0.192891 -3.45662e-21)
(0.0151189 0.225826 3.75275e-21)
(0.0145075 0.255905 1.19439e-20)
(0.0051702 -0.0110845 4.05961e-22)
(0.00760523 -0.00729455 7.06488e-22)
(0.00911647 0.0114037 -4.56543e-21)
(0.0104335 0.0390113 7.70095e-21)
(0.0119679 0.0719376 -1.38783e-21)
(0.0135543 0.107462 0)
(0.0149336 0.143558 0)
(0.0159465 0.178828 1.97748e-20)
(0.0165386 0.212371 -1.97013e-20)
(0.0163262 0.243286 4.06697e-21)
(0.00610018 -0.011405 5.16123e-21)
(0.00920267 -0.0102623 0)
(0.0106254 0.00496013 5.4298e-21)
(0.0115735 0.0289376 -6.19873e-21)
(0.0127331 0.0586472 0)
(0.0141346 0.0917525 4.26354e-21)
(0.0156137 0.126385 -1.28856e-20)
(0.0170174 0.161112 -1.71972e-20)
(0.0182389 0.194911 8.46815e-21)
(0.018429 0.226423 8.59858e-21)
(0.00698333 -0.0114152 -1.18487e-20)
(0.011076 -0.0126671 -1.91349e-21)
(0.0127466 -0.000867624 -4.51115e-21)
(0.0135315 0.0192328 -1.0947e-20)
(0.0143457 0.0451169 -4.70923e-21)
(0.0154284 0.0748738 -5.39896e-21)
(0.0167793 0.106938 -9.81928e-22)
(0.0183695 0.140044 0)
(0.0201863 0.173252 0)
(0.020629 0.204572 -1.5563e-22)
(0.00783658 -0.0111258 6.68769e-21)
(0.0133006 -0.0143579 -8.96544e-21)
(0.015649 -0.0056462 5.94033e-21)
(0.0165804 0.0106854 1.63869e-20)
(0.0171826 0.0324957 -4.73768e-21)
(0.017887 0.058234 4.37119e-21)
(0.0188896 0.0866657 4.92446e-21)
(0.0203931 0.116807 0)
(0.0227102 0.147979 0)
(0.0233148 0.177332 4.14312e-22)
(0.00872515 -0.0105811 -1.07941e-21)
(0.0160075 -0.0152415 1.15416e-20)
(0.0195406 -0.00900703 -2.37409e-21)
(0.0210269 0.00405329 0)
(0.0216702 0.022022 0)
(0.0220535 0.0435744 1.07495e-20)
(0.0225479 0.0677116 0)
(0.0236021 0.0936565 -1.11839e-20)
(0.0261373 0.120822 -9.59278e-23)
(0.0281841 0.145448 1.00197e-20)
(0.015056 0.3277 1.70136e-22)
(-0.00092206 0.386729 -1.72135e-22)
(-0.00151162 0.42177 -3.29925e-22)
(-0.00472593 0.43979 -4.31823e-22)
(-0.0064987 0.451465 -5.60277e-22)
(-0.00546056 0.466881 -2.6695e-23)
(-0.00962392 0.503251 2.99826e-22)
(-0.00143989 0.587489 1.04798e-21)
(-0.013208 0.744067 0)
(0.00514068 0.923052 -7.64315e-22)
(0.0122483 0.328009 3.60272e-22)
(-0.00207672 0.387169 -1.13188e-21)
(-0.00262641 0.421482 2.12946e-21)
(-0.00544498 0.439587 4.32607e-22)
(-0.00719288 0.45124 9.95599e-22)
(-0.00627476 0.466577 1.73275e-21)
(-0.0104471 0.50227 -6.41034e-22)
(-0.00250242 0.586719 -7.02882e-22)
(-0.0134451 0.742672 1.37443e-21)
(0.00443527 0.921142 7.62495e-22)
(0.0108182 0.326633 0)
(-0.00220514 0.386586 -9.88977e-22)
(-0.00304915 0.42089 -6.60644e-22)
(-0.00565218 0.439251 0)
(-0.00753167 0.450945 -3.09083e-21)
(-0.00682263 0.466032 9.66535e-22)
(-0.0110686 0.500928 1.11766e-21)
(-0.00346437 0.585165 3.85129e-21)
(-0.013654 0.740822 -1.36998e-21)
(0.00380095 0.919216 2.78455e-21)
(0.0106144 0.323408 0)
(-0.00143033 0.384991 9.97606e-22)
(-0.00284592 0.419862 0)
(-0.00540067 0.438694 3.52392e-21)
(-0.00752745 0.45055 -3.54148e-21)
(-0.00708296 0.465282 -2.23945e-21)
(-0.0114802 0.499189 -1.24017e-22)
(-0.00428732 0.58264 -3.78131e-21)
(-0.0137867 0.73802 -6.201e-22)
(0.00323025 0.916444 -3.42823e-21)
(0.0114458 0.318206 1.04477e-21)
(0.000119517 0.382647 -2.22497e-21)
(-0.00207762 0.41869 5.65604e-22)
(-0.00475685 0.438147 -2.89467e-21)
(-0.00723827 0.450179 0)
(-0.00710886 0.464466 -2.16064e-21)
(-0.0117442 0.497182 -1.62701e-22)
(-0.00502339 0.579625 4.80343e-21)
(-0.0139231 0.735212 6.29896e-22)
(0.00268797 0.914059 -6.3214e-22)
(0.0131389 0.310651 -6.3313e-21)
(0.00232417 0.378843 4.67853e-21)
(-0.000798346 0.416682 2.84538e-21)
(-0.00370825 0.437202 -2.84281e-21)
(-0.00660807 0.449641 -1.75788e-21)
(-0.00683132 0.463496 0)
(-0.0117813 0.494743 -4.35869e-21)
(-0.00556808 0.575561 2.18081e-21)
(-0.0139613 0.730889 2.34006e-21)
(0.00217703 0.910308 2.41882e-21)
(0.0153633 0.300715 -8.32665e-22)
(0.00504644 0.374716 0)
(0.000922277 0.415079 0)
(-0.00239894 0.436632 0)
(-0.00580728 0.449348 -1.92394e-21)
(-0.00641846 0.462675 3.675e-21)
(-0.01174 0.492403 4.27151e-21)
(-0.00608995 0.571772 -6.60732e-21)
(-0.0140898 0.727524 1.15233e-21)
(0.00167476 0.907866 -3.53677e-21)
(0.0180063 0.286718 4.87656e-21)
(0.00818215 0.367139 4.65214e-21)
(0.00311219 0.41123 -4.6072e-21)
(-0.000598042 0.434931 6.39298e-21)
(-0.00455102 0.448546 -7.99018e-21)
(-0.0055846 0.461509 0)
(-0.0113454 0.489338 -1.96175e-21)
(-0.00630514 0.566103 7.62967e-23)
(-0.0140322 0.721217 -2.11835e-21)
(0.00118935 0.902891 -2.20145e-21)
(0.0203714 0.271803 -4.2341e-21)
(0.0114836 0.362348 0)
(0.00541825 0.41006 -6.09815e-21)
(0.00107056 0.43489 1.16629e-20)
(-0.00346966 0.448726 -4.4984e-21)
(-0.00490829 0.461136 -8.9317e-22)
(-0.011081 0.487505 1.95759e-21)
(-0.00670467 0.562833 1.70434e-23)
(-0.0142425 0.718447 3.08091e-21)
(0.000723764 0.901127 3.20861e-21)
(0.0239887 0.243042 -3.87659e-21)
(0.0152058 0.345398 3.7629e-21)
(0.00862114 0.401698 6.02259e-22)
(0.00388329 0.431307 0)
(-0.00139424 0.447123 0)
(-0.00333979 0.459393 8.59323e-22)
(-0.0100758 0.483116 3.67475e-21)
(-0.00644012 0.55427 -3.58066e-21)
(-0.0140052 0.708858 -9.39879e-22)
(0.000237132 0.894254 9.06071e-22)
(0.025781 0.232945 0)
(0.0246477 0.348248 0)
(0.0139127 0.407015 0)
(0.00703732 0.436104 0)
(0.000587933 0.450999 0)
(-0.00224528 0.462533 0)
(-0.00960987 0.484984 0)
(-0.00784643 0.555481 0)
(-0.0151324 0.709413 0)
(-0.000701598 0.894585 0)
(0.0292761 0.237797 0)
(0.0378242 0.353344 0)
(0.0279366 0.414579 0)
(0.0181324 0.443463 0)
(0.00827173 0.457548 0)
(0.00298534 0.468764 0)
(-0.00535541 0.489282 0)
(-0.00533722 0.555769 0)
(-0.0127838 0.700678 0)
(-0.00130151 0.875253 0)
(0.0327766 0.246065 0)
(0.0421507 0.36094 0)
(0.032979 0.426035 0)
(0.0233532 0.454605 0)
(0.0126789 0.466232 0)
(0.00537117 0.47488 0)
(-0.00422256 0.494049 0)
(-0.00585627 0.561373 0)
(-0.0127744 0.707213 0)
(-0.0013924 0.880134 0)
(0.0341042 0.246709 0)
(0.0465052 0.360052 0)
(0.0397723 0.431452 0)
(0.0295015 0.46343 0)
(0.018324 0.476261 0)
(0.010489 0.484455 0)
(0.000804145 0.501531 0)
(-0.00200684 0.563563 0)
(-0.0105149 0.699232 0)
(-0.00246311 0.861977 0)
(0.0329145 0.250084 0)
(0.0409946 0.360904 0)
(0.0387661 0.439681 0)
(0.0304435 0.473168 0)
(0.0197966 0.484125 0)
(0.0118703 0.490133 0)
(0.00274899 0.506751 0)
(-0.000178059 0.5702 0)
(-0.00668589 0.706657 0)
(-0.00090947 0.865533 0)
(0.0318868 0.247046 0)
(0.0393918 0.357594 0)
(0.0376764 0.442915 0)
(0.0307232 0.482531 0)
(0.0210261 0.495545 0)
(0.0132996 0.501211 0)
(0.00442278 0.516201 0)
(-0.000152441 0.575332 0)
(-0.00882913 0.703956 0)
(-0.00259737 0.855229 0)
(0.0232794 0.244718 0)
(0.0294523 0.356155 0)
(0.0307341 0.446458 0)
(0.0271729 0.488697 0)
(0.0209018 0.501776 0)
(0.0159645 0.505736 0)
(0.009712 0.519894 0)
(0.00692632 0.579656 0)
(-0.000885387 0.708139 0)
(-0.000928311 0.854584 0)
(0.0196004 0.245607 0)
(0.0203147 0.354691 0)
(0.021499 0.447671 0)
(0.018383 0.492433 0)
(0.0137042 0.50734 0)
(0.00994218 0.512496 0)
(0.00441299 0.52769 0)
(0.0005953 0.586633 0)
(-0.00502285 0.711627 0)
(-0.00131663 0.851609 0)
(0.00800933 0.240134 0)
(0.0101365 0.352402 0)
(0.0136574 0.44849 0)
(0.0142985 0.495979 0)
(0.0135002 0.510505 0)
(0.0137987 0.514449 0)
(0.0120254 0.529704 0)
(0.0091604 0.589218 0)
(-0.000325245 0.71263 0)
(-0.000446097 0.850329 0)
(-0.000606913 0.246745 0)
(-0.00336355 0.35107 0)
(-0.00053954 0.442873 0)
(0.00223845 0.491197 0)
(0.00376387 0.507263 0)
(0.00528934 0.513074 0)
(0.00490579 0.531927 0)
(0.00427993 0.595805 0)
(-0.000303041 0.718808 0)
(-0.000618317 0.849268 0)
(0.0355274 0.141935 3.54219e-21)
(0.0432077 0.168106 -3.48624e-21)
(0.0473252 0.192482 2.1504e-22)
(0.0451705 0.205614 0)
(0.0395602 0.214047 0)
(0.0332269 0.211243 -9.24491e-23)
(0.0238385 0.207671 4.71887e-22)
(0.0181321 0.203882 -4.63648e-22)
(0.00793968 0.197333 -6.5396e-23)
(0.00284423 0.203922 6.37098e-23)
(0.0462239 0.118716 -4.4969e-21)
(0.0510585 0.149913 0)
(0.051655 0.177138 7.35732e-22)
(0.0464471 0.191734 -9.57658e-22)
(0.0387379 0.199854 -8.92688e-23)
(0.0310642 0.196223 9.03586e-23)
(0.0219706 0.192102 -2.57194e-22)
(0.0162815 0.186477 -4.51449e-22)
(0.00760191 0.180198 -3.35342e-23)
(0.00379082 0.185651 -2.54746e-24)
(0.0576148 0.109455 4.97575e-21)
(0.0592162 0.14206 -1.66752e-21)
(0.0561465 0.167343 1.65153e-21)
(0.0478148 0.179897 2.72424e-22)
(0.0378048 0.185688 -1.53129e-22)
(0.0287334 0.180552 0)
(0.0197731 0.175697 2.57788e-22)
(0.0142757 0.168407 -4.46057e-24)
(0.00726832 0.162898 1.82004e-22)
(0.004621 0.166319 6.46714e-23)
(0.0689578 0.107252 -7.5161e-22)
(0.0665367 0.137385 0)
(0.0597997 0.157713 0)
(0.0485778 0.166608 0)
(0.0365615 0.169418 -7.275e-22)
(0.0263643 0.162908 4.89746e-22)
(0.0175623 0.157447 -2.54708e-23)
(0.0123562 0.148942 2.31066e-22)
(0.00689345 0.144321 5.94709e-23)
(0.00524301 0.145121 2.02822e-24)
(0.0792454 0.105885 -8.72202e-22)
(0.0721025 0.130175 -1.64742e-21)
(0.0619717 0.144191 6.19328e-23)
(0.0483227 0.149236 -6.18862e-23)
(0.0347826 0.149371 2.34327e-22)
(0.0238509 0.142123 0)
(0.0152967 0.136414 2.94768e-22)
(0.010496 0.127327 -4.64281e-22)
(0.006361 0.12343 2.12061e-22)
(0.00550655 0.121496 -6.18092e-23)
(0.0871618 0.100408 -4.03437e-21)
(0.0754853 0.11706 1.00446e-21)
(0.0627056 0.124766 4.56561e-22)
(0.0472782 0.126645 -2.13927e-22)
(0.0327274 0.124859 0)
(0.0213724 0.117639 0)
(0.0130806 0.112083 0)
(0.00871779 0.10305 -2.55092e-22)
(0.00561978 0.0996159 0)
(0.00538054 0.0953625 0)
(0.0920118 0.0880295 0)
(0.0767586 0.0970865 2.04689e-22)
(0.0622984 0.0993535 -8.16825e-23)
(0.0457701 0.099095 6.11444e-22)
(0.0306866 0.0961654 -6.14571e-22)
(0.0191239 0.0895948 -3.45768e-22)
(0.0110456 0.0845137 3.8564e-22)
(0.00705477 0.0760655 9.06218e-22)
(0.00468715 0.0729395 -7.70316e-23)
(0.00492059 0.0671883 3.14922e-23)
(0.0938301 0.0684029 0)
(0.0763236 0.0712404 -1.22385e-22)
(0.0611297 0.0692404 7.60179e-23)
(0.044075 0.0677996 0)
(0.0288518 0.0642841 -1.86545e-22)
(0.0172125 0.058728 5.77165e-22)
(0.00926859 0.0543313 -4.73983e-22)
(0.00553883 0.0468891 -1.08674e-22)
(0.00364776 0.0441391 7.69118e-23)
(0.0042479 0.0378909 -5.96953e-23)
(0.0931034 0.043084 4.30952e-22)
(0.0746622 0.041628 -6.66051e-23)
(0.0595177 0.0363892 -5.32984e-23)
(0.0423903 0.034426 -8.54211e-23)
(0.0272969 0.0306027 -1.92884e-22)
(0.0156739 0.0261999 -2.93222e-22)
(0.00778746 0.0226308 8.28762e-23)
(0.00422856 0.0165411 6.23171e-23)
(0.00263388 0.0144275 -7.71634e-23)
(0.00350069 0.00861236 -1.43911e-23)
(0.0904581 0.0145069 -3.32194e-23)
(0.072195 0.0106284 3.36055e-23)
(0.0576476 0.00283285 4.46582e-23)
(0.0408663 0.000694254 8.52905e-23)
(0.025985 -0.00334688 -9.90176e-23)
(0.0145095 -0.00659408 1.98507e-22)
(0.00663797 -0.00920604 -1.18848e-22)
(0.00320744 -0.0136657 -2.61101e-23)
(0.00178018 -0.0148474 0)
(0.00263086 -0.0195537 1.43613e-23)
(0.0865437 -0.0149347 3.20414e-23)
(0.0692953 -0.0196976 -3.23742e-23)
(0.0556715 -0.0296993 4.52781e-23)
(0.0394708 -0.031845 8.43921e-23)
(0.0249283 -0.0360789 9.76264e-23)
(0.0137052 -0.0382373 -2.91121e-24)
(0.00587455 -0.039768 -4.46305e-23)
(0.00254626 -0.0424396 -9.46282e-23)
(0.00119305 -0.0425148 0)
(0.00201838 -0.0458155 1.24999e-23)
(0.081945 -0.043373 0)
(0.066248 -0.0478774 8.10017e-23)
(0.0536826 -0.0598614 -2.07367e-22)
(0.0381614 -0.0619678 -8.45151e-23)
(0.0241533 -0.0663561 -1.85034e-22)
(0.0132573 -0.0674952 -2.79049e-22)
(0.00553191 -0.0678895 7.97444e-23)
(0.00227273 -0.068808 5.91013e-23)
(0.000895466 -0.0678096 -6.756e-23)
(0.0015424 -0.0697873 -1.24651e-23)
(0.0770805 -0.0695445 0)
(0.063213 -0.0730682 -5.40746e-23)
(0.0516887 -0.0867765 8.06651e-23)
(0.0370191 -0.0888699 0)
(0.0236098 -0.0932936 5.42785e-22)
(0.0131662 -0.0935582 -1.7646e-22)
(0.00558894 -0.0928627 -1.62824e-22)
(0.00236361 -0.0922986 -3.49789e-22)
(0.000849283 -0.0904613 6.73393e-23)
(0.00118895 -0.0914221 -4.27985e-23)
(0.0722542 -0.0927974 0)
(0.0602949 -0.0950112 5.45207e-23)
(0.0497009 -0.11002 0)
(0.0360766 -0.112218 -6.0346e-22)
(0.02328 -0.116484 6.06607e-22)
(0.0134006 -0.116141 3.09946e-22)
(0.00598202 -0.114516 -1.85089e-23)
(0.00273706 -0.11293 3.40424e-22)
(0.000977098 -0.110595 6.4229e-23)
(0.000935266 -0.110902 6.35281e-23)
(0.0676835 -0.112983 3.24917e-21)
(0.057577 -0.113917 -1.17447e-21)
(0.047757 -0.129574 -3.5189e-22)
(0.0353378 -0.132132 3.05245e-22)
(0.0231413 -0.136 0)
(0.0138834 -0.135441 2.89585e-22)
(0.00660765 -0.133125 -5.54887e-23)
(0.00327034 -0.131063 -4.42346e-22)
(0.00118878 -0.128563 -1.99322e-23)
(0.000746768 -0.12853 1.99175e-23)
(0.0634991 -0.130299 1.10856e-21)
(0.0551414 -0.130337 1.46239e-21)
(0.0459175 -0.145747 -2.17123e-22)
(0.0347837 -0.149083 2.17002e-22)
(0.0231595 -0.152293 2.50854e-22)
(0.0145065 -0.151986 0)
(0.0073487 -0.14923 4.62663e-22)
(0.00384487 -0.147207 -2.52155e-22)
(0.00141597 -0.144784 -1.52634e-22)
(0.000596088 -0.144637 -3.41614e-23)
(0.0597936 -0.145094 -5.99246e-22)
(0.0531078 -0.145017 0)
(0.0442732 -0.159059 0)
(0.0343851 -0.163718 0)
(0.0232992 -0.166014 2.41393e-22)
(0.0151631 -0.16643 -4.91575e-22)
(0.00810505 -0.163443 -4.47334e-22)
(0.00437357 -0.161869 5.60282e-22)
(0.00162164 -0.159653 -3.5466e-23)
(0.000468541 -0.159535 6.89154e-23)
(0.0564811 -0.157665 -1.7086e-21)
(0.0514874 -0.158745 7.3917e-22)
(0.0428558 -0.170133 -7.32265e-22)
(0.0340699 -0.176694 -6.10057e-22)
(0.0235277 -0.177859 7.86132e-22)
(0.0157809 -0.179386 0)
(0.00882493 -0.17632 2.05386e-22)
(0.00481709 -0.175467 -1.12495e-23)
(0.00179893 -0.173494 9.91909e-23)
(0.000360002 -0.173495 2.89852e-23)
(0.0527863 -0.168022 -7.06074e-22)
(0.0497133 -0.172217 0)
(0.0414253 -0.179629 -2.40352e-22)
(0.0336184 -0.188576 -2.84194e-22)
(0.023767 -0.188466 2.52275e-22)
(0.0163062 -0.191351 9.44566e-23)
(0.00951035 -0.188293 -2.04918e-22)
(0.00519389 -0.188305 -3.39106e-23)
(0.00196989 -0.186558 -1.90487e-22)
(0.000272485 -0.18674 -5.88233e-23)
(0.0492531 -0.175618 -2.67547e-21)
(0.0477041 -0.185968 2.60761e-21)
(0.0401242 -0.188293 8.51641e-23)
(0.0329605 -0.19984 0)
(0.0238912 -0.198393 0)
(0.0165966 -0.2027 -9.73689e-23)
(0.010043 -0.199681 -3.2682e-22)
(0.00546448 -0.200587 3.20629e-22)
(0.00212339 -0.199028 2.88735e-23)
(0.000202695 -0.199459 -2.82256e-23)
(0.0537525 -0.184969 0)
(0.0493799 -0.218036 0)
(0.0413964 -0.208003 0)
(0.0329777 -0.225654 0)
(0.0241891 -0.221415 0)
(0.016455 -0.229163 0)
(0.0102599 -0.226371 0)
(0.00527457 -0.229332 0)
(0.00212109 -0.227921 0)
(7.5038e-05 -0.22883 0)
(0.0446762 -0.235193 0)
(0.037453 -0.267353 0)
(0.0332662 -0.255137 0)
(0.0259013 -0.272553 0)
(0.020345 -0.267023 0)
(0.0139407 -0.276156 0)
(0.00915493 -0.273093 0)
(0.00472029 -0.2771 0)
(0.00221989 -0.275006 0)
(3.60384e-05 -0.276371 0)
(0.0415823 -0.286119 0)
(0.0328431 -0.318512 0)
(0.0286629 -0.304371 0)
(0.0215454 -0.322839 0)
(0.0170393 -0.315667 0)
(0.0114913 -0.3261 0)
(0.00791101 -0.321621 0)
(0.00426615 -0.326406 0)
(0.00218257 -0.323131 0)
(9.18059e-05 -0.325113 0)
(0.0366059 -0.341696 0)
(0.0278657 -0.374306 0)
(0.0243626 -0.357986 0)
(0.0177023 -0.377694 0)
(0.0142739 -0.368447 0)
(0.00958377 -0.380115 0)
(0.00698706 -0.373817 0)
(0.00395027 -0.379631 0)
(0.00219672 -0.374736 0)
(0.000162169 -0.377814 0)
(0.0313903 -0.40544 0)
(0.0234877 -0.438429 0)
(0.020352 -0.42009 0)
(0.0145292 -0.441115 0)
(0.0119945 -0.429734 0)
(0.0080521 -0.442858 0)
(0.00622419 -0.4347 0)
(0.00363203 -0.441785 0)
(0.00216749 -0.435223 0)
(0.000193046 -0.439703 0)
(0.0263673 -0.482794 0)
(0.019305 -0.515841 0)
(0.0167118 -0.496353 0)
(0.0117545 -0.518595 0)
(0.0100059 -0.505587 0)
(0.00664867 -0.520168 0)
(0.00544969 -0.510437 0)
(0.00313597 -0.518889 0)
(0.0019942 -0.510898 0)
(0.000125506 -0.517046 0)
(0.0205905 -0.578643 0)
(0.0152236 -0.609442 0)
(0.0131371 -0.591679 0)
(0.00919743 -0.613477 0)
(0.00789081 -0.600635 0)
(0.00509915 -0.615687 0)
(0.00425952 -0.605562 0)
(0.00216 -0.614913 0)
(0.0013836 -0.606433 0)
(-7.94513e-05 -0.613944 0)
(0.0161698 -0.688191 0)
(0.0114676 -0.712379 0)
(0.00953623 -0.700312 0)
(0.00624406 -0.717955 0)
(0.00530907 -0.708517 0)
(0.00304132 -0.72127 0)
(0.00242052 -0.713041 0)
(0.000634404 -0.721319 0)
(0.000362346 -0.71415 0)
(-0.000338062 -0.721484 0)
(0.00886635 -0.786029 0)
(0.00582336 -0.798943 0)
(0.00482113 -0.795886 0)
(0.00314582 -0.806481 0)
(0.00263469 -0.802974 0)
(0.0012416 -0.810237 0)
(0.000707836 -0.80576 0)
(-0.000424961 -0.810295 0)
(-0.000375727 -0.805965 0)
(-0.000372555 -0.810529 0)
(0.00161031 -0.839041 0)
(0.00107022 -0.848547 0)
(0.00100214 -0.850461 0)
(0.000868024 -0.855857 0)
(0.000680832 -0.855404 0)
(0.000310789 -0.858441 0)
(1.79412e-05 -0.856373 0)
(-0.000308431 -0.857852 0)
(-0.000286334 -0.855563 0)
(-0.000143742 -0.857514 0)
(0.0513743 -0.204511 4.23749e-21)
(0.0458166 -0.254546 -4.15977e-21)
(0.0436949 -0.305317 6.10195e-22)
(0.0386891 -0.361179 0)
(0.0337321 -0.425115 0)
(0.028597 -0.502176 8.72061e-22)
(0.0229754 -0.595553 -4.03858e-21)
(0.0174467 -0.697565 4.02143e-21)
(0.0109372 -0.789319 1.20475e-21)
(0.0034368 -0.835087 -1.19233e-21)
(0.050894 -0.212311 -5.04246e-21)
(0.0466906 -0.261377 0)
(0.0446944 -0.311386 4.35925e-21)
(0.0396776 -0.366968 -1.03529e-20)
(0.0348142 -0.430808 6.95003e-21)
(0.0296261 -0.507707 -7.8559e-22)
(0.0240415 -0.600106 1.903e-21)
(0.0180412 -0.700217 4.19283e-21)
(0.0118656 -0.789001 1.27095e-21)
(0.00426475 -0.834719 1.2808e-21)
(0.0509994 -0.220095 6.017e-21)
(0.0481409 -0.268361 -4.6248e-21)
(0.0460644 -0.3172 4.58091e-21)
(0.0410034 -0.372046 -5.92804e-21)
(0.0361619 -0.435503 4.37054e-21)
(0.0308618 -0.512009 0)
(0.0251677 -0.60335 -1.90776e-21)
(0.018764 -0.701844 1.62746e-22)
(0.0124655 -0.787605 -2.2293e-21)
(0.00466613 -0.834694 -2.43183e-21)
(0.0516499 -0.226997 -9.81039e-22)
(0.0500325 -0.274899 0)
(0.0478102 -0.322819 0)
(0.0427096 -0.376993 0)
(0.0378171 -0.440056 5.33767e-21)
(0.0323384 -0.516083 -3.58783e-21)
(0.0264234 -0.606351 -5.02456e-23)
(0.0196304 -0.703079 -2.50167e-21)
(0.0128422 -0.786279 -1.28784e-21)
(0.0047425 -0.833526 -1.39599e-21)
(0.0529087 -0.23305 2.91549e-22)
(0.0522805 -0.280401 -3.13966e-21)
(0.0498677 -0.327584 -2.8651e-21)
(0.0447441 -0.381317 2.86335e-21)
(0.0397425 -0.444137 -1.72619e-21)
(0.0340338 -0.519769 0)
(0.0278404 -0.609068 -2.22987e-21)
(0.0206409 -0.704052 5.12716e-21)
(0.0132201 -0.785095 -2.65062e-21)
(0.00473259 -0.831279 2.7158e-21)
(0.0548516 -0.238399 -8.52236e-21)
(0.0549179 -0.284803 7.09387e-22)
(0.0522411 -0.331185 -4.20473e-22)
(0.0470728 -0.384565 3.02103e-21)
(0.0418976 -0.447247 0)
(0.0359151 -0.522588 0)
(0.0294105 -0.611078 0)
(0.0217915 -0.704538 2.79921e-21)
(0.0137439 -0.783762 0)
(0.0047922 -0.828467 0)
(0.0575107 -0.242958 0)
(0.0579997 -0.288152 3.99108e-21)
(0.054986 -0.333633 -2.72305e-21)
(0.0497124 -0.38663 -3.71795e-21)
(0.0442839 -0.449175 3.73735e-21)
(0.0379771 -0.524267 2.4414e-21)
(0.0311234 -0.612087 -2.39783e-21)
(0.0230713 -0.704308 -1.00428e-20)
(0.0144388 -0.782053 7.13573e-22)
(0.00495669 -0.825467 -2.56494e-21)
(0.0608992 -0.24655 0)
(0.0615553 -0.290395 -1.27155e-21)
(0.0581511 -0.334956 -7.99316e-22)
(0.0526956 -0.387537 0)
(0.0469305 -0.449908 1.17984e-21)
(0.040244 -0.524749 -3.56027e-21)
(0.0329932 -0.611995 4.13848e-21)
(0.0244851 -0.703233 1.52237e-21)
(0.0152843 -0.779845 -1.71844e-21)
(0.00521137 -0.822368 3.38929e-21)
(0.0650343 -0.249031 1.03095e-21)
(0.0656 -0.291444 1.49724e-21)
(0.0617614 -0.335115 -2.90698e-22)
(0.0560443 -0.38729 5.017e-22)
(0.0498675 -0.449471 1.09969e-21)
(0.0427462 -0.524076 1.93411e-21)
(0.035041 -0.610859 -7.59037e-22)
(0.0260331 -0.701357 -8.43182e-22)
(0.0162382 -0.77716 1.72413e-21)
(0.00551914 -0.819146 9.5947e-22)
(0.0699375 -0.25029 -3.22199e-22)
(0.0701484 -0.291238 3.24703e-22)
(0.0658293 -0.334057 -4.21867e-22)
(0.059768 -0.38585 -5.01094e-22)
(0.0531137 -0.447847 6.44791e-22)
(0.0455084 -0.52225 -1.32231e-21)
(0.0372979 -0.608681 1.1705e-21)
(0.0277433 -0.698667 4.29351e-22)
(0.0173057 -0.77397 0)
(0.00587963 -0.815698 -9.61576e-22)
(0.0756313 -0.250251 3.36965e-22)
(0.0752125 -0.28977 -3.39751e-22)
(0.0703628 -0.33176 -4.74124e-22)
(0.0638725 -0.383194 -5.65271e-22)
(0.0566832 -0.445024 -6.84975e-22)
(0.0485427 -0.519304 -6.64163e-23)
(0.0397684 -0.605553 4.19486e-22)
(0.0296062 -0.695295 1.3894e-21)
(0.0184622 -0.770371 0)
(0.00627003 -0.812025 -1.07842e-21)
(0.0821322 -0.248887 0)
(0.080796 -0.2871 -1.76582e-21)
(0.0753691 -0.328239 3.26039e-21)
(0.0683627 -0.379337 5.66272e-22)
(0.0605836 -0.440985 1.40045e-21)
(0.0518645 -0.515171 2.36363e-21)
(0.0424862 -0.601353 -8.55464e-22)
(0.0316716 -0.691097 -9.48457e-22)
(0.0197598 -0.76625 2.17335e-21)
(0.00672675 -0.808044 1.07586e-21)
(0.0894377 -0.246266 0)
(0.0868959 -0.283335 -1.71427e-21)
(0.0808506 -0.32359 -1.00939e-21)
(0.0732419 -0.374333 0)
(0.0648328 -0.435792 -4.48717e-21)
(0.0554736 -0.509985 1.49878e-21)
(0.045422 -0.596292 1.87715e-21)
(0.0338874 -0.686301 6.20986e-21)
(0.0211391 -0.761784 -2.16633e-21)
(0.00720066 -0.803856 4.79046e-21)
(0.0975285 -0.242517 0)
(0.0935052 -0.27855 1.72902e-21)
(0.0868173 -0.317857 0)
(0.0785188 -0.368262 5.65874e-21)
(0.0694326 -0.429447 -5.68774e-21)
(0.0594036 -0.503576 -3.70503e-21)
(0.0486563 -0.59004 -1.04404e-22)
(0.0363563 -0.680505 -6.44637e-21)
(0.022703 -0.756692 -1.07077e-21)
(0.00777158 -0.799297 -5.95852e-21)
(0.106378 -0.237832 1.10676e-20)
(0.100627 -0.272818 -4.29339e-21)
(0.0932321 -0.311352 9.0081e-22)
(0.084191 -0.36116 -5.09837e-21)
(0.0744215 -0.422055 0)
(0.0636359 -0.496216 -3.91602e-21)
(0.0520997 -0.583117 -4.30181e-22)
(0.038932 -0.674348 8.82037e-21)
(0.0242898 -0.751398 1.25208e-21)
(0.00831528 -0.794606 -1.25661e-21)
(0.115946 -0.232364 -2.3009e-21)
(0.108236 -0.266178 8.7926e-21)
(0.100146 -0.30384 5.37955e-21)
(0.0903461 -0.352761 -5.37586e-21)
(0.07981 -0.413381 -3.49426e-21)
(0.0682526 -0.487469 0)
(0.0559143 -0.574734 -9.06545e-21)
(0.0418626 -0.666909 4.53619e-21)
(0.0261604 -0.745262 4.97369e-21)
(0.00902137 -0.789418 5.48393e-21)
(0.126169 -0.226595 -1.53673e-21)
(0.116393 -0.258658 0)
(0.107514 -0.2956 0)
(0.0968709 -0.343896 0)
(0.085488 -0.404333 -4.19581e-21)
(0.0730765 -0.478585 7.67643e-21)
(0.0598137 -0.566509 9.29012e-21)
(0.0447503 -0.659797 -1.4859e-20)
(0.027917 -0.739301 2.73794e-21)
(0.00959025 -0.784266 -8.14379e-21)
(0.136933 -0.219988 -1.44362e-21)
(0.125245 -0.249684 9.78062e-21)
(0.115328 -0.286173 -9.6871e-21)
(0.103908 -0.333602 1.41155e-20)
(0.091713 -0.393422 -1.78397e-20)
(0.078496 -0.467413 0)
(0.0643554 -0.555732 -4.91268e-21)
(0.0482849 -0.650429 -2.57748e-22)
(0.0302007 -0.731955 -5.74527e-21)
(0.0104853 -0.778322 -5.92145e-21)
(0.147796 -0.214347 -1.61456e-21)
(0.134323 -0.241919 0)
(0.123113 -0.278177 -1.40419e-20)
(0.110924 -0.324974 2.727e-20)
(0.09783 -0.384544 -1.07513e-20)
(0.08368 -0.458717 -2.28797e-21)
(0.0685159 -0.547645 4.90232e-21)
(0.0513251 -0.643277 -3.39489e-22)
(0.032014 -0.725727 8.32544e-21)
(0.0109793 -0.772809 8.76037e-21)
(0.160297 -0.203904 -7.83806e-21)
(0.145397 -0.229542 7.67293e-21)
(0.132475 -0.265349 1.43565e-21)
(0.119465 -0.311084 0)
(0.105474 -0.369807 0)
(0.0904241 -0.443639 2.20605e-21)
(0.0742503 -0.533297 1.04511e-20)
(0.0558423 -0.631256 -1.01512e-20)
(0.0349759 -0.716843 -2.87331e-21)
(0.012219 -0.765848 2.81539e-21)
(0.174159 -0.210033 0)
(0.169819 -0.22752 0)
(0.150295 -0.262958 0)
(0.135106 -0.306852 0)
(0.118969 -0.363618 0)
(0.101822 -0.43559 0)
(0.0834261 -0.523069 0)
(0.0625181 -0.618778 0)
(0.0388636 -0.702907 0)
(0.0126981 -0.752109 0)
(0.204683 -0.190084 0)
(0.212075 -0.212085 0)
(0.180369 -0.25102 0)
(0.165611 -0.29381 0)
(0.146001 -0.350481 0)
(0.125735 -0.421376 0)
(0.103764 -0.506375 0)
(0.0784327 -0.597778 0)
(0.0494862 -0.6764 0)
(0.0180387 -0.720193 0)
(0.242308 -0.165899 0)
(0.252313 -0.186382 0)
(0.210449 -0.226183 0)
(0.200125 -0.268769 0)
(0.176192 -0.325375 0)
(0.152634 -0.394579 0)
(0.125974 -0.476596 0)
(0.0948563 -0.564264 0)
(0.0590615 -0.64039 0)
(0.0189736 -0.685484 0)
(0.286033 -0.145972 0)
(0.296533 -0.164896 0)
(0.25067 -0.208318 0)
(0.245291 -0.250877 0)
(0.214413 -0.306133 0)
(0.187835 -0.372656 0)
(0.155966 -0.450415 0)
(0.118305 -0.531746 0)
(0.0747067 -0.600158 0)
(0.0273636 -0.636896 0)
(0.338997 -0.121685 0)
(0.349891 -0.141999 0)
(0.301045 -0.184599 0)
(0.296268 -0.221126 0)
(0.255966 -0.272089 0)
(0.226714 -0.334514 0)
(0.187385 -0.406694 0)
(0.141121 -0.482214 0)
(0.0875662 -0.546799 0)
(0.0273142 -0.586019 0)
(0.408456 -0.108467 0)
(0.416772 -0.129299 0)
(0.364091 -0.166785 0)
(0.359903 -0.1986 0)
(0.3108 -0.248902 0)
(0.280336 -0.306249 0)
(0.230736 -0.370983 0)
(0.174035 -0.436057 0)
(0.109452 -0.489149 0)
(0.0412594 -0.515073 0)
(0.489102 -0.0834785 0)
(0.490423 -0.100972 0)
(0.437524 -0.13141 0)
(0.430777 -0.159594 0)
(0.3697 -0.205052 0)
(0.336402 -0.251375 0)
(0.268406 -0.304454 0)
(0.200152 -0.358532 0)
(0.122168 -0.408933 0)
(0.0344626 -0.442754 0)
(0.590162 -0.0714867 0)
(0.583467 -0.0863965 0)
(0.535289 -0.112151 0)
(0.517193 -0.136195 0)
(0.449043 -0.173287 0)
(0.408479 -0.20702 0)
(0.321585 -0.24932 0)
(0.246518 -0.292651 0)
(0.152467 -0.332447 0)
(0.0646615 -0.342538 0)
(0.683256 -0.0372599 0)
(0.666283 -0.0456807 0)
(0.614027 -0.0615084 0)
(0.578559 -0.0755605 0)
(0.503393 -0.0979929 0)
(0.44697 -0.115299 0)
(0.342079 -0.142382 0)
(0.254501 -0.16854 0)
(0.132483 -0.200992 0)
(0.0120372 -0.246173 0)
(0.866523 -0.0193514 0)
(0.843254 -0.023388 0)
(0.798623 -0.0295541 0)
(0.75506 -0.0361398 0)
(0.688488 -0.04539 0)
(0.620516 -0.0542269 0)
(0.520128 -0.0684064 0)
(0.415236 -0.0848407 0)
(0.274826 -0.113489 0)
(0.174004 -0.166892 0)
(0.210418 -0.188235 6.58417e-21)
(0.247067 -0.167141 -6.49641e-21)
(0.285734 -0.14252 1.35111e-21)
(0.326474 -0.123419 0)
(0.376928 -0.101782 0)
(0.443197 -0.0904127 2.50941e-21)
(0.522471 -0.0689215 -1.25193e-20)
(0.618223 -0.0591045 1.2446e-20)
(0.710806 -0.0289108 3.74671e-21)
(0.885833 -0.0160987 -3.75906e-21)
(0.221432 -0.179258 -4.30695e-21)
(0.25762 -0.157774 0)
(0.296115 -0.133238 9.96056e-21)
(0.336491 -0.114473 -2.50154e-20)
(0.386757 -0.0938801 1.75785e-20)
(0.452703 -0.083292 -2.28494e-21)
(0.53205 -0.0631469 5.08602e-21)
(0.626618 -0.0541271 1.17937e-20)
(0.719639 -0.0255406 3.43939e-21)
(0.892241 -0.0147263 3.3272e-21)
(0.230835 -0.168933 4.62691e-21)
(0.265908 -0.147775 -8.11932e-21)
(0.303269 -0.123849 8.04283e-21)
(0.343093 -0.105565 -1.37434e-20)
(0.393175 -0.0860586 9.85979e-21)
(0.459089 -0.0762943 0)
(0.538558 -0.0575362 -5.0986e-21)
(0.632515 -0.0494198 -9.84069e-23)
(0.726377 -0.0224836 -6.2587e-21)
(0.897247 -0.0134557 -6.62372e-21)
(0.240559 -0.157711 -8.7705e-22)
(0.276108 -0.137282 0)
(0.312074 -0.114226 0)
(0.351014 -0.0965789 0)
(0.400499 -0.0782335 1.16576e-20)
(0.4661 -0.0693472 -8.01079e-21)
(0.545462 -0.0520308 -4.12124e-22)
(0.638741 -0.0449312 -5.98728e-21)
(0.733122 -0.019702 -3.15079e-21)
(0.902139 -0.0122821 -3.21997e-21)
(0.249594 -0.145945 2.61532e-21)
(0.28654 -0.126524 -2.90338e-21)
(0.321284 -0.104441 -5.03845e-21)
(0.359531 -0.0875659 5.03563e-21)
(0.408382 -0.0704158 -3.59513e-21)
(0.473645 -0.0624615 0)
(0.55292 -0.0466223 -4.93653e-21)
(0.645579 -0.0406046 1.13842e-20)
(0.74021 -0.0171071 -5.76748e-21)
(0.907142 -0.0111722 6.43285e-21)
(0.257444 -0.133618 -4.90471e-21)
(0.295833 -0.115519 -9.25859e-22)
(0.329699 -0.0945505 -1.43049e-21)
(0.367228 -0.0786055 4.80161e-21)
(0.415535 -0.0626704 0)
(0.480583 -0.0557013 0)
(0.559948 -0.0413599 0)
(0.652237 -0.0364465 5.3168e-21)
(0.747126 -0.0146551 0)
(0.911959 -0.0101055 0)
(0.263989 -0.12062 0)
(0.303767 -0.104209 4.25596e-21)
(0.337116 -0.0845292 -3.1301e-21)
(0.373735 -0.069662 -5.93708e-21)
(0.421393 -0.055016 5.96817e-21)
(0.48627 -0.0490867 4.28348e-21)
(0.56585 -0.0362662 -3.93956e-21)
(0.658027 -0.0324799 -1.82114e-20)
(0.753334 -0.0123491 1.28087e-21)
(0.916238 -0.0090838 -4.50056e-21)
(0.26905 -0.106872 0)
(0.310399 -0.0925246 -1.13264e-21)
(0.343454 -0.0743388 -8.89177e-22)
(0.379206 -0.0606695 0)
(0.425989 -0.0473989 1.94871e-21)
(0.490621 -0.0425861 -5.48452e-21)
(0.570428 -0.0313065 6.95965e-21)
(0.662642 -0.0286907 2.79022e-21)
(0.758507 -0.0101855 -2.7629e-21)
(0.919778 -0.00810621 6.01164e-21)
(0.272395 -0.0922932 -9.68002e-23)
(0.315618 -0.0803926 1.34072e-21)