/*--------------------------------*- C++ -*----------------------------------*\
  =========                 |
  \\      /  F ield         | OpenFOAM: The Open Source CFD Toolbox
   \\    /   O peration     | Website:  https://openfoam.org
    \\  /    A nd           | Version:  7
     \\/     M anipulation  |
\*---------------------------------------------------------------------------*/
FoamFile
{
    version     2.0;
    format      ascii;
    class       surfaceScalarField;
    location    "99.7";
    object      phi;
}
// * * * * * * * * * * * * * * * * * * * * * * * * * * * * * * * * * * * * * //

dimensions      [0 3 -1 0 0 0 0];

internalField   nonuniform List<scalar> 
3880
(
-1.33529e-05
-0.000459501
0.000472854
-1.11297e-05
-0.001103
0.00110077
1.39766e-05
-0.00148901
0.0014639
6.52023e-05
-0.0016608
0.00160957
0.00014577
-0.00164722
0.00156666
0.000259804
-0.0014679
0.00135387
0.000412186
-0.00113648
0.000984102
0.000607277
-0.000663415
0.000468324
0.000847258
-5.79172e-05
-0.000182063
0.000671035
0.00113019
-0.000953971
-2.97695e-06
-0.000456524
1.98416e-05
-0.00112581
7.17388e-05
-0.0015409
0.000153274
-0.00174233
0.000265755
-0.00175971
0.000412091
-0.00161424
0.000596445
-0.00132084
0.000823083
-0.000890053
0.00109484
-0.000329673
0.000354833
0.00141104
1.04359e-05
-0.00046696
5.95262e-05
-0.0011749
0.000145514
-0.00162689
0.00026581
-0.00186263
0.000419538
-0.00191343
0.000608036
-0.00180274
0.000834437
-0.00154724
0.00110261
-0.00115822
0.0014158
-0.000642861
-3.72371e-06
0.00177435
2.63686e-05
-0.000493329
0.000106264
-0.0012548
0.000232082
-0.00175271
0.000397841
-0.00202839
0.000600381
-0.00211597
0.000839395
-0.00204175
0.00111687
-0.00182472
0.00143605
-0.0014774
0.00180006
-0.00100687
-0.000414636
0.00221097
4.41731e-05
-0.000537502
0.000157736
-0.00136836
0.000326829
-0.0019218
0.000541958
-0.00224352
0.000797755
-0.00237177
0.00109243
-0.00233642
0.00142698
-0.00215927
0.00180406
-0.00185448
0.0022266
-0.00142941
-0.000884745
0.00269671
6.2908e-05
-0.00060041
0.000210999
-0.00151645
0.000423876
-0.00213468
0.000688533
-0.00250818
0.000997571
-0.00268081
0.00134801
-0.00268686
0.00174024
-0.0025515
0.0021767
-0.00229094
0.00266006
-0.00191277
-0.0014165
0.00319182
8.15053e-05
-0.000681915
0.00026266
-0.00169761
0.000516416
-0.00238843
0.000826321
-0.00281808
0.00118313
-0.00303762
0.00158297
-0.0030867
0.00202611
-0.00299464
0.00251546
-0.00278029
0.00305415
-0.00245146
-0.00200469
0.00364233
9.88189e-05
-0.000780734
0.000309087
-0.00190788
0.000597207
-0.00267655
0.000943409
-0.00316428
0.00133673
-0.00343094
0.00177257
-0.00352254
0.00225136
-0.00347343
0.00277736
-0.00330628
0.00335596
-0.00303006
-0.00263516
0.00398643
0.000113688
-0.000894421
0.000346654
-0.00214084
0.000659151
-0.00298905
0.00102835
-0.00353348
0.0014417
-0.00384429
0.00189378
-0.00397462
0.00238494
-0.0039646
0.00292093
-0.00384227
0.00351196
-0.00362109
-0.00328699
0.00416379
0.000124994
-0.00101941
0.000371978
-0.00238783
0.000695855
-0.00331293
0.00107129
-0.00390892
0.00148446
-0.00425746
0.00192906
-0.00441922
0.00240452
-0.00444006
0.00291608
-0.00435383
0.00347829
-0.0041833
0.00413149
-0.00394018
0.00201778
0.00931907
-0.0102067
0.00318459
0.0252424
-0.0264092
0.00383488
0.043637
-0.0442873
0.00386919
0.0612311
-0.0612654
0.00347688
0.078242
-0.0778497
0.00279755
0.0960394
-0.0953601
0.00194212
0.117098
-0.116243
0.000953338
0.148025
-0.147036
0.000193886
0.195789
-0.19503
0.252254
-0.25206
0.00230658
0.00842353
0.00364654
0.0239024
0.00454918
0.0427344
0.00476896
0.0610113
0.00447088
0.0785401
0.00381151
0.0966988
0.00292034
0.117989
0.00183757
0.149108
0.000754444
0.196872
0.253008
0.00263168
0.0075662
0.00408996
0.0224441
0.00523926
0.0415851
0.00565771
0.0605929
0.00546447
0.0787334
0.00482939
0.0973339
0.00390049
0.118918
0.00271413
0.150294
0.00132636
0.19826
0.254334
0.00299389
0.00678328
0.0045063
0.0209317
0.00588512
0.0402063
0.00651441
0.0599636
0.00643943
0.0788083
0.00583472
0.0979386
0.00487014
0.119883
0.00358035
0.151584
0.00189172
0.199949
0.256226
0.00338835
0.00609164
0.00489098
0.0194291
0.00646938
0.0386279
0.0073187
0.0591143
0.00737756
0.0787495
0.00681219
0.098504
0.00581754
0.120877
0.00442683
0.152975
0.00244463
0.201931
0.258671
0.0037994
0.00548406
0.00524109
0.0179874
0.00697851
0.0368905
0.00805182
0.058041
0.00826158
0.0785397
0.00774788
0.0990177
0.00673065
0.121895
0.00524307
0.154462
0.00297782
0.204196
0.261649
0.00419674
0.00492965
0.00555055
0.0166336
0.0074032
0.0350378
0.00869751
0.0567466
0.00907576
0.0781615
0.00862905
0.0994644
0.00759976
0.122924
0.00602336
0.156039
0.00349139
0.206728
0.26514
0.00453123
0.00438484
0.00580291
0.0153619
0.0077346
0.0331061
0.00924221
0.055239
0.00980481
0.0775989
0.00943998
0.0998292
0.00840887
0.123955
0.00675248
0.157695
0.0039721
0.209509
0.269112
0.00473706
0.00381158
0.00596903
0.0141299
0.00795869
0.0311165
0.009673
0.0535247
0.010444
0.0768279
0.0101849
0.100088
0.00916902
0.124971
0.00744318
0.159421
0.00443237
0.21252
0.273544
0.00479845
0.00314462
0.00608632
0.0128421
0.00811183
0.029091
0.00998658
0.05165
0.010951
0.0758634
0.0108086
0.100231
0.00983751
0.125942
0.00803986
0.161218
0.00486625
0.215693
0.278411
0.016047
0.00648857
-0.019391
0.0123333
0.0165558
0.0101958
0.0312285
0.00921647
0.0526293
0.00810876
0.0769711
0.00645512
0.101884
0.00413591
0.128261
0.0013831
0.163971
-0.00056997
0.217646
0.277841
0.0168777
0.00880623
-0.0191954
0.0133488
0.0200846
0.0105007
0.0340766
0.0090084
0.0541216
0.00780478
0.0781748
0.0061739
0.103515
0.00388437
0.130551
0.0012546
0.166601
-0.000562514
0.219463
0.277278
0.0165498
0.00985356
-0.0175972
0.0139066
0.0227279
0.0109941
0.0369892
0.00900923
0.0561064
0.00752561
0.0796584
0.00584695
0.105194
0.0036229
0.132775
0.00111017
0.169114
-0.000572979
0.221146
0.276705
0.0153941
0.010097
-0.0156375
0.013637
0.0244849
0.0111509
0.0394753
0.00904334
0.058214
0.00735634
0.0813454
0.00560667
0.106944
0.00343217
0.134949
0.00105834
0.171488
-0.000517296
0.222722
0.276188
0.0139099
0.00977207
-0.013585
0.0128693
0.0255255
0.0109023
0.0414423
0.00893541
0.0601809
0.00721449
0.0830663
0.00542817
0.10873
0.00327193
0.137105
0.000968822
0.173791
-0.000522848
0.224214
0.275665
0.0122549
0.00897679
-0.0114597
0.0118179
0.0259626
0.0103472
0.042913
0.00860779
0.0619203
0.00697708
0.084697
0.00525761
0.110449
0.00318503
0.139178
0.000993992
0.175982
-0.000431592
0.225639
0.275233
0.0105372
0.00776572
-0.0093261
0.0106663
0.0258335
0.00971136
0.0438679
0.00824717
0.0633845
0.00671575
0.0862284
0.00505282
0.112112
0.00305065
0.14118
0.000928548
0.178104
-0.000430701
0.226999
0.274803
0.00878295
0.0061604
-0.00717763
0.00938919
0.0252272
0.00889317
0.0443639
0.00777247
0.0645052
0.00643602
0.0875649
0.00489478
0.113654
0.00299454
0.14308
0.000992699
0.180106
-0.000313786
0.228305
0.274489
0.00736439
0.00398874
-0.00519273
0.00847799
0.0241136
0.00839592
0.044446
0.00749028
0.0654108
0.00622497
0.0888302
0.0047285
0.11515
0.00288229
0.144927
0.000934203
0.182054
-0.000320983
0.22956
0.274168
0.00520448
-0.0029328
0.00698453
0.00762925
0.00721414
0.00617843
0.00473599
0.00296202
0.00104978
-0.000163529
0.00394317
-0.0195492
-0.00378491
0.00353729
-0.0187895
0.00286254
-0.0169224
0.0021171
-0.0148921
0.00135057
-0.0128185
0.000583114
-0.0106922
-0.000177247
-0.00856573
-0.000905993
-0.00644888
-0.00167292
-0.0044258
-0.00229838
0.00316336
-0.0194128
-0.00329982
0.00256185
-0.018188
0.00179254
-0.0161531
0.000994427
-0.014094
0.000193556
-0.0120176
-0.000592266
-0.00990639
-0.00136244
-0.00779556
-0.00209441
-0.00571691
-0.00282929
-0.00369092
-0.00173219
0.0022743
-0.0190246
-0.00266246
0.00150416
-0.0174178
0.000660826
-0.0153098
-0.000178426
-0.0132547
-0.000995805
-0.0112002
-0.00178662
-0.00911558
-0.00254461
-0.00703758
-0.00325318
-0.00500833
-0.00391953
-0.00302457
-0.00125052
0.00127472
-0.0184294
-0.00186991
0.000381274
-0.0165244
-0.000509564
-0.0144189
-0.00137125
-0.012393
-0.00219348
-0.010378
-0.0029698
-0.00833926
-0.00369583
-0.00631155
-0.0043564
-0.00434776
-0.00493552
-0.00244545
-0.000862621
0.000178118
-0.0176665
-0.000941075
-0.000793693
-0.0155526
-0.00170716
-0.0135055
-0.00257063
-0.0115296
-0.00337559
-0.00957301
-0.00411842
-0.00759643
-0.00479393
-0.00563604
-0.00538685
-0.00375483
-0.00586839
-0.00196392
-0.000568764
-0.000985265
-0.0167784
9.71936e-05
-0.0019965
-0.0145414
-0.00290745
-0.0125945
-0.00375015
-0.0106869
-0.00451892
-0.00880424
-0.00521105
-0.0069043
-0.00582075
-0.00502634
-0.0063327
-0.00324289
-0.00671423
-0.00158238
-0.000363382
-0.00217691
-0.015782
0.00118054
-0.00319338
-0.0135249
-0.00408001
-0.0117079
-0.0048834
-0.00988347
-0.00560035
-0.00808728
-0.00622848
-0.00627617
-0.00676225
-0.00449256
-0.007187
-0.00281814
-0.00747277
-0.00129661
-0.000236886
-0.00335543
-0.0147229
0.0022963
-0.00435035
-0.01253
-0.00519604
-0.0108622
-0.00594575
-0.00913376
-0.00659985
-0.00743319
-0.00715573
-0.00572029
-0.00760928
-0.00403901
-0.0079474
-0.00248001
-0.00814669
-0.00109732
-0.00017721
-0.00448286
-0.0136351
0.00339508
-0.00543689
-0.0115759
-0.00623028
-0.0100688
-0.00691684
-0.0084472
-0.0075022
-0.00684783
-0.00798299
-0.00523951
-0.00835767
-0.00366432
-0.00861545
-0.00222224
-0.00874099
-0.000971777
-0.00017107
-0.00552761
-0.0125482
0.00444064
-0.00642797
-0.0106756
-0.00716295
-0.00933383
-0.00778187
-0.00782828
-0.00829773
-0.00633197
-0.00870569
-0.00483156
-0.00900776
-0.00336225
-0.00919572
-0.00203428
-0.00926223
-0.000905263
-0.000204822
-0.0064657
-0.0114851
0.00540268
-0.00730506
-0.0098362
-0.00798054
-0.00865835
-0.00853196
-0.00727686
-0.00898216
-0.00588176
-0.00932398
-0.00448973
-0.00956352
-0.00312271
-0.009695
-0.0019028
-0.00971796
-0.000882307
-0.000264993
-0.00728479
-0.0104628
0.0062624
-0.00805864
-0.00906236
-0.00867718
-0.00803981
-0.00916493
-0.00678911
-0.00955668
-0.00549001
-0.00984222
-0.00420419
-0.0100317
-0.00293324
-0.0101214
-0.00181307
-0.0101162
-0.000887543
-0.000338569
-0.00797688
-0.00949157
0.0070057
-0.00868388
-0.00835535
-0.00925125
-0.00747244
-0.00968253
-0.00635784
-0.0100256
-0.0051469
-0.0102671
-0.00396269
-0.0104205
-0.00277992
-0.0104837
-0.0017498
-0.0104651
-0.000906165
-0.000413094
-0.00854125
-0.00857563
0.00762531
-0.00918231
-0.00771429
-0.00970618
-0.00694857
-0.0100906
-0.00597338
-0.0103964
-0.00484115
-0.0106074
-0.00375169
-0.010739
-0.00264831
-0.0107908
-0.00169797
-0.0107728
-0.000924191
-0.000476701
-0.00898189
-0.00771175
0.00811801
-0.00955982
-0.00713637
-0.0100485
-0.00645988
-0.0103977
-0.00562422
-0.0106779
-0.00456089
-0.0108725
-0.00355713
-0.0109966
-0.00252415
-0.0110515
-0.00164312
-0.0110472
-0.000928515
-0.000518035
-0.00930559
-0.00688868
0.00848253
-0.00982573
-0.00661623
-0.0102868
-0.00599881
-0.0106134
-0.00529761
-0.0108799
-0.00429438
-0.011072
-0.00336504
-0.0112024
-0.0023937
-0.011274
-0.0015716
-0.0112957
-0.000906818
-0.000526152
-0.00951949
-0.00608695
0.00871776
-0.0099914
-0.00614432
-0.0104304
-0.00555985
-0.0107479
-0.00498012
-0.0110119
-0.0040303
-0.011215
-0.00316194
-0.0113649
-0.00224389
-0.011466
-0.0014705
-0.0115254
-0.000847394
-0.000490395
-0.00962479
-0.00528504
0.00882288
-0.0100655
-0.00570359
-0.0104867
-0.00513867
-0.0108093
-0.00465749
-0.0110824
-0.00375726
-0.0113096
-0.00293473
-0.0114913
-0.0020621
-0.0116344
-0.00132742
-0.0117429
-0.000738874
-0.00040024
-0.00961827
-0.00447129
0.00880451
-0.0100564
-0.00526542
-0.0104639
-0.00473124
-0.0108056
-0.00431571
-0.011099
-0.0034639
-0.0113628
-0.00267091
-0.0115887
-0.00183621
-0.0117857
-0.00113043
-0.0119545
-0.000570062
-0.000245095
-0.00953673
-0.00363428
0.00869972
-0.00999846
-0.00480369
-0.0103843
-0.00434538
-0.0107476
-0.00395241
-0.0110703
-0.00314123
-0.0113803
-0.00236088
-0.0116624
-0.00155416
-0.0119252
-0.000867636
-0.0121665
-0.000328694
-1.46438e-05
-0.0434522
-0.00364361
0.0434615
-0.0443348
-0.00392106
-0.0453481
-0.00333204
-0.0463662
-0.00293435
-0.0472261
-0.00228134
-0.0478928
-0.00169416
-0.0483482
-0.00109873
-0.0486044
-0.000611483
-0.0487019
-0.000231147
-1.71769e-05
-0.0519497
-0.00383904
0.0521451
-0.0524783
-0.00339245
-0.053019
-0.00279139
-0.053635
-0.00231832
-0.0541547
-0.00176165
-0.0545599
-0.00128892
-0.0548314
-0.000827278
-0.0549749
-0.000467939
-0.0550234
-0.000182603
-2.0414e-05
-0.0625508
-0.00408719
0.062799
-0.0627616
-0.00318162
-0.0629994
-0.00255366
-0.0633446
-0.00197305
-0.0636229
-0.00148343
-0.0638628
-0.00104897
-0.0640108
-0.000679292
-0.0640912
-0.000387555
-0.0641102
-0.000163543
-2.2389e-05
-0.0754571
-0.00423481
0.0756047
-0.075564
-0.00307474
-0.0756693
-0.00244834
-0.0758766
-0.00176575
-0.0760255
-0.00133458
-0.0761764
-0.000898007
-0.0762573
-0.000598436
-0.0763102
-0.000334621
-0.0763175
-0.000156299
-2.07739e-05
-0.0904667
-0.00415999
0.0903918
-0.0906242
-0.00291721
-0.0907446
-0.00232793
-0.0909189
-0.0015914
-0.0910337
-0.0012198
-0.0911576
-0.000774093
-0.0912209
-0.000535188
-0.0912759
-0.000279575
-0.0912904
-0.000141857
-1.12844e-05
-0.106559
-0.0037933
0.106192
-0.106857
-0.002619
-0.10709
-0.00209475
-0.107301
-0.00138082
-0.10745
-0.00107086
-0.107583
-0.000640785
-0.107663
-0.000454913
-0.107735
-0.000207451
-0.107767
-0.000109915
4.06614e-06
-0.12204
-0.00312909
0.121376
-0.122514
-0.00214522
-0.122893
-0.00171538
-0.123169
-0.00110518
-0.123379
-0.000860854
-0.123532
-0.000487722
-0.123639
-0.000347196
-0.12372
-0.00012699
-0.123764
-6.58881e-05
1.83254e-05
-0.135081
-0.00222152
0.134173
-0.135711
-0.00151488
-0.136217
-0.00120937
-0.136554
-0.000768383
-0.136817
-0.000598141
-0.136981
-0.000323259
-0.137102
-0.000226046
-0.13717
-5.96938e-05
-0.137209
-2.66905e-05
2.30199e-05
-0.144315
-0.00115128
0.143245
-0.14505
-0.000779813
-0.145637
-0.000622678
-0.146013
-0.000391992
-0.146306
-0.000305333
-0.14647
-0.000159549
-0.146586
-0.000109469
-0.146627
-1.92236e-05
-0.146647
-6.34256e-06
1.57534e-05
-0.149056
0.147905
-0.149836
-0.150459
-0.150851
-0.151156
-0.151316
-0.151425
-0.151444
-0.151451
-0.00989726
0.0444639
0.00889482
-0.0106656
0.0529135
-0.0112772
0.0634105
-0.0115963
0.0759239
-0.011423
0.0902185
-0.0105511
0.10532
-0.0088678
0.119692
-0.00641275
0.131718
-0.00336808
0.1402
0.144537
-0.0094163
0.0452599
0.00862029
-0.0101282
0.0536254
-0.0106667
0.0639491
-0.0109044
0.0761616
-0.0106677
0.0899817
-0.00978441
0.104437
-0.00817146
0.118079
-0.00587967
0.129426
-0.00307768
0.137398
0.141459
-0.00894068
0.0459983
0.00820236
-0.00958391
0.0542686
-0.0100434
0.0644086
-0.0102075
0.0763256
-0.009925
0.0896993
-0.00905199
0.103564
-0.00752502
0.116552
-0.0053965
0.127298
-0.00281902
0.13482
0.13864
-0.00837549
0.0467053
0.00766841
-0.00895438
0.0548475
-0.00933455
0.0647888
-0.00942945
0.0764205
-0.0091113
0.0893811
-0.00826234
0.102715
-0.00683653
0.115127
-0.00488612
0.125347
-0.00254701
0.132481
0.136093
-0.00770896
0.047373
0.00704124
-0.00822563
0.0553642
-0.00853413
0.0650973
-0.00857185
0.0764583
-0.00823341
0.0890427
-0.00742508
0.101907
-0.00611549
0.113817
-0.00435566
0.123588
-0.00226535
0.130391
0.133828
-0.00695853
0.0479931
0.0063385
-0.00740832
0.0558139
-0.00764922
0.0653382
-0.00764018
0.0764492
-0.00729629
0.0886988
-0.00654504
0.101155
-0.00536662
0.112638
-0.00380916
0.12203
-0.00197639
0.128558
0.131852
-0.00613997
0.0485583
0.00557473
-0.00652015
0.0561941
-0.00669608
0.0655141
-0.00664842
0.0764016
-0.00631109
0.0883615
-0.00563054
0.100475
-0.00459577
0.111604
-0.0032505
0.120685
-0.00168215
0.12699
0.130169
-0.00526674
0.0490603
0.00476477
-0.00557753
0.0565049
-0.00569204
0.0656286
-0.00561312
0.0763226
-0.00529216
0.0880405
-0.00469278
0.0998754
-0.0038108
0.110722
-0.00268454
0.119559
-0.00138497
0.12569
0.128784
-0.0043541
0.0494898
0.00392455
-0.00459724
0.056748
-0.00465411
0.0656855
-0.00455063
0.0762192
-0.00425392
0.0877438
-0.00374346
0.099365
-0.00302022
0.109999
-0.00211672
0.118655
-0.00108746
0.124661
0.127697
-0.00341877
0.0498379
0.00307076
-0.00359752
0.0569268
-0.00359959
0.0656875
-0.00347711
0.0760967
-0.00321034
0.087477
-0.00279388
0.0989485
-0.00223237
0.109437
-0.00155252
0.117975
-0.000792351
0.123901
0.126905
-0.0024856
0.0500993
0.00222412
-0.0026008
0.057042
-0.00254982
0.0656366
-0.00241207
0.0759589
-0.00217804
0.087243
-0.00185759
0.098628
-0.00145736
0.109037
-0.000998717
0.117517
-0.000502948
0.123405
0.126402
-0.00157126
0.0502766
0.00139403
-0.00161953
0.0570903
-0.00152077
0.0655378
-0.00136862
0.0758068
-0.0011683
0.0870427
-0.000942441
0.0984022
-0.000700876
0.108795
-0.000459033
0.117275
-0.000221431
0.123168
0.12618
-0.0007047
0.050384
0.000597301
-0.000677091
0.0570627
-0.000541229
0.0654019
-0.000374873
0.0756404
-0.000210937
0.0868787
-7.82552e-05
0.0982695
6.26113e-06
0.108711
5.05614e-05
0.117231
4.3616e-05
0.123175
0.126224
8.41353e-05
0.0504599
-0.000160035
0.000208412
0.0569384
0.000385338
0.065225
0.00057589
0.0754499
0.000716633
0.086738
0.000769544
0.0982166
0.000714656
0.108766
0.000551743
0.117393
0.000303945
0.123422
0.126528
0.000880832
0.0504418
-0.00086273
0.00105398
0.0567652
0.00127079
0.0650082
0.00147355
0.0752471
0.00158681
0.0866247
0.00155991
0.0982435
0.0013683
0.108957
0.00101851
0.117743
0.000546308
0.123895
0.127074
0.00158836
0.050369
-0.00151561
0.00182361
0.05653
0.00207625
0.0647555
0.00229475
0.0750286
0.00238637
0.0865331
0.00228905
0.0983408
0.00197307
0.109273
0.00145031
0.118266
0.000770015
0.124575
0.127844
0.00222278
0.0502633
-0.00211703
0.00251605
0.0562367
0.00280057
0.064471
0.00303504
0.0747942
0.00311051
0.0864576
0.00295268
0.0984986
0.00252554
0.1097
0.00184504
0.118946
0.00097387
0.125446
0.128818
0.00278944
0.0501487
-0.00267485
0.0031299
0.0558963
0.00344076
0.0641602
0.00368836
0.0745466
0.00375068
0.0863953
0.00354096
0.0987084
0.00301608
0.110225
0.00219528
0.119767
0.00115368
0.126488
0.129972
0.00329473
0.0500536
-0.0031997
0.00366649
0.0555245
0.00400303
0.0638236
0.0042648
0.0742848
0.00432037
0.0863398
0.00406858
0.0989601
0.00345777
0.110836
0.00251033
0.120715
0.00131417
0.127684
0.131286
0.00368689
0.0500421
-0.00367538
0.0040546
0.0551568
0.00441558
0.0634626
0.00468489
0.0740155
0.00473449
0.0862902
0.00445327
0.0992414
0.00378109
0.111508
0.00274071
0.121755
0.00142911
0.128995
0.132715
-0.0315883
0.0464724
0.035158
-0.0288724
0.0524409
-0.0270227
0.0616129
-0.0250099
0.0720027
-0.0225235
0.0838037
-0.019318
0.0960359
-0.0153219
0.107512
-0.0106316
0.117065
-0.00544248
0.123806
0.127273
-0.0390807
0.0432519
0.0423012
-0.0364663
0.0498265
-0.0340355
0.0591822
-0.03123
0.0691972
-0.0278983
0.0804719
-0.0237462
0.0918838
-0.0187242
0.10249
-0.0129453
0.111286
-0.00663147
0.117492
0.120641
-0.0473908
0.0401612
0.0504814
-0.0446655
0.0471012
-0.0416289
0.0561456
-0.0380077
0.065576
-0.0336778
0.0761421
-0.0283797
0.0865857
-0.0221739
0.0962843
-0.0152095
0.104322
-0.00771119
0.109994
0.11293
-0.05728
0.0372084
0.0602329
-0.0540894
0.0439106
-0.0502857
0.0523419
-0.0457417
0.061032
-0.0402782
0.0706786
-0.0336895
0.0799969
-0.0261453
0.0887401
-0.017845
0.0960212
-0.00906594
0.101215
0.103864
-0.0683335
0.0337001
0.0718418
-0.0643377
0.0399148
-0.0595164
0.0475206
-0.0537181
0.0552337
-0.0467717
0.0637321
-0.0386106
0.0718358
-0.0295436
0.0796731
-0.0198288
0.0863065
-0.00982999
0.0912162
0.0940339
-0.0808419
0.0301881
0.0843538
-0.0758172
0.0348902
-0.0698322
0.0415355
-0.0626419
0.0480434
-0.0541608
0.0552511
-0.0444674
0.0621424
-0.0338465
0.0690522
-0.0226117
0.0750718
-0.0113923
0.0799967
0.0826417
-0.0928286
0.0248849
0.0981318
-0.0866603
0.0287219
-0.0792893
0.0341645
-0.0702536
0.0390077
-0.0598427
0.0448402
-0.0481139
0.0504135
-0.035442
0.0563803
-0.0223216
0.0619514
-0.00984697
0.067522
0.0727947
-0.105342
0.0197582
0.110469
-0.0981997
0.0215792
-0.0896557
0.0256205
-0.0794658
0.0288177
-0.0680055
0.03338
-0.055159
0.0375671
-0.0413911
0.0426123
-0.027126
0.0476863
-0.0143484
0.0547445
0.0584463
-0.120236
0.00964574
0.130348
-0.109599
0.0109427
-0.0971708
0.0131918
-0.0833081
0.0149549
-0.0675427
0.0176146
-0.0501472
0.0201716
-0.0310854
0.0235506
-0.0113096
0.0279105
0.00666742
0.0367675
0.0651137
-0.230218
0.239864
-0.219275
-0.206083
-0.191128
-0.173514
-0.153342
-0.129792
-0.101881
-0.0651137
0.00217274
0.0363639
-0.00337864
0.00106373
0.0434102
0.000156653
0.0513885
-0.000444637
0.0608342
-0.000792873
0.07219
-0.000936426
0.0844974
-0.000733833
0.0979292
-0.000550087
0.110285
-0.00151872
0.131317
0.238345
0.00246445
0.0375103
-0.00361083
0.00138256
0.0444921
0.0005188
0.0522523
-0.000143298
0.0614963
-0.0005174
0.0725641
-0.000693866
0.0846738
-0.000553075
0.0977885
-0.00043698
0.110169
-0.00132887
0.132209
0.237016
0.00281254
0.0385514
-0.00385357
0.00177468
0.04553
0.000932042
0.0530949
0.000276449
0.0621519
-0.000133355
0.072974
-0.000350954
0.0848914
-0.000255011
0.0976925
-0.000253395
0.110168
-0.00113382
0.133089
0.235882
0.00316237
0.0394857
-0.00409669
0.00217759
0.0465148
0.0013665
0.053906
0.000731235
0.0627871
0.000310205
0.073395
1.99629e-05
0.0851817
0.000100603
0.0976119
-3.61583e-05
0.110304
-0.000884718
0.133938
0.234998
0.00350542
0.0403077
-0.00432746
0.00259143
0.0474287
0.00182169
0.0546757
0.00121237
0.0633964
0.000796356
0.073811
0.00052092
0.0854571
0.00048427
0.0976485
0.00030158
0.110487
-0.000590591
0.13483
0.234407
0.00385129
0.0409937
-0.00453726
0.00302846
0.0482516
0.00230908
0.0553951
0.0017324
0.0639731
0.00132272
0.0742207
0.00103529
0.0857445
0.000921746
0.0977621
0.00066498
0.110744
-0.000257894
0.135753
0.234149
0.00419995
0.0415147
-0.00472096
0.00348685
0.0489647
0.00282784
0.0560541
0.00229017
0.0645108
0.00189007
0.0746208
0.0015886
0.086046
0.00140182
0.0979488
0.00106334
0.111082
0.000103404
0.136713
0.234252
0.00454693
0.0418422
-0.00487441
0.00395866
0.0495529
0.00337016
0.0566426
0.00287799
0.065003
0.00249222
0.0750065
0.00217731
0.0863609
0.00191962
0.0982065
0.00149629
0.111506
0.000472328
0.137737
0.234725
0.00488373
0.0419515
-0.00499308
0.00443448
0.0500022
0.00392667
0.0571504
0.00348651
0.0654431
0.00312116
0.0753719
0.00279344
0.0866886
0.00246857
0.0985314
0.0019594
0.112015
0.000873748
0.138823
0.235598
0.00519998
0.0418237
-0.00507219
0.00490359
0.0502986
0.00448726
0.0575668
0.00410557
0.0658248
0.00376733
0.0757101
0.00342804
0.0870279
0.00304051
0.0989189
0.00244638
0.112609
0.0012949
0.139974
0.236893
0.00548097
0.0414481
-0.00510536
0.00535082
0.0504287
0.00503804
0.0578795
0.00472053
0.0661423
0.0044155
0.0760152
0.00406862
0.0873748
0.00362406
0.0993635
0.00294815
0.113285
0.00172743
0.141195
0.238621
0.00572075
0.040824
-0.00509659
0.00577034
0.0503792
0.00557145
0.0580784
0.00532452
0.0663893
0.00505861
0.0762811
0.00470979
0.0877236
0.00421416
0.0998591
0.00346068
0.114038
0.00216841
0.142487
0.240789
0.00590552
0.0399638
-0.0050453
0.00614598
0.0501387
0.00606988
0.0581545
0.00590054
0.0665586
0.00568018
0.0765014
0.00533707
0.0880667
0.00479829
0.100398
0.00397395
0.114863
0.00261076
0.14385
0.2434
0.00602716
0.0388939
-0.00495727
0.00646504
0.0497008
0.00651947
0.0581001
0.00643475
0.0666433
0.00626678
0.0766694
0.00593835
0.0883952
0.00536607
0.10097
0.0044798
0.115749
0.00304837
0.145282
0.246448
0.00608139
0.0376545
-0.00484204
0.00671694
0.0490653
0.00690762
0.0579094
0.00691402
0.0666369
0.00680557
0.0767779
0.00650167
0.0886991
0.00590728
0.101565
0.0049702
0.116686
0.00347504
0.146777
0.249923
0.00606955
0.0362971
-0.00471216
0.00689407
0.0482407
0.00722375
0.0575797
0.00732646
0.0665342
0.00728477
0.0768195
0.00701546
0.0889684
0.00641193
0.102168
0.00543751
0.11766
0.00388326
0.148331
0.253807
0.00599999
0.0348767
-0.00457954
0.00699279
0.047248
0.00746009
0.0571124
0.00766231
0.066332
0.00769419
0.0767877
0.00746976
0.0891928
0.00687173
0.102766
0.00587564
0.118657
0.00426769
0.149939
0.258074
0.00588268
0.0334393
-0.00444533
0.00701235
0.0461183
0.00761216
0.0565126
0.00791415
0.06603
0.00802339
0.0766784
0.00785286
0.0893634
0.00727488
0.103344
0.00627548
0.119656
0.004617
0.151597
0.262691
0.00570352
0.0320062
-0.00427045
0.00694054
0.0448813
0.00767535
0.0557778
0.00808135
0.065624
0.00827445
0.0764853
0.0081693
0.0894685
0.00762638
0.103887
0.00664189
0.12064
0.00493445
0.153305
0.267626
0.00545272
0.0304861
-0.0039326
0.00674836
0.0435856
0.00760721
0.054919
0.0081083
0.0651229
0.00838726
0.0762064
0.00835455
0.0895012
0.00787197
0.10437
0.00691961
0.121593
0.00521975
0.155005
0.272846
-0.0126655
0.0310548
0.0120968
-0.01159
0.0425101
-0.00958093
0.0529099
-0.0070319
0.0625739
-0.00427454
0.073449
-0.00130331
0.08653
0.00166936
0.101397
0.00375662
0.119506
0.0024409
0.15632
0.275286
-0.0242375
0.0304589
0.0248334
-0.0223163
0.040589
-0.0191529
0.0497464
-0.0153306
0.0587516
-0.0111657
0.0692841
-0.00661101
0.0819753
-0.00198454
0.0967705
0.00138112
0.11614
0.00127262
0.156429
0.276559
-0.0370763
0.0289525
0.0385827
-0.0340481
0.0375608
-0.0295655
0.0452638
-0.0244125
0.0535985
-0.0187875
0.0636591
-0.0125643
0.0757521
-0.00619594
0.0904022
-0.00121697
0.111161
0.000253322
0.154959
0.276812
-0.0510285
0.026508
0.053473
-0.0466205
0.0331528
-0.0409411
0.0395843
-0.0345669
0.0472243
-0.0274018
0.0564941
-0.0193755
0.0677258
-0.0111317
0.0821583
-0.00428411
0.104313
-0.0012196
0.151894
0.275593
-0.0661312
0.0227077
0.0699315
-0.0604572
0.0274789
-0.0539299
0.033057
-0.0463352
0.0396297
-0.0375641
0.0477229
-0.027737
0.0578987
-0.0176166
0.0720378
-0.00884209
0.0955389
-0.00347312
0.146525
0.27212
-0.0828534
0.0182386
0.0873225
-0.0763606
0.020986
-0.0690265
0.0257229
-0.0601493
0.0307525
-0.0499454
0.037519
-0.0384941
0.0464474
-0.0267395
0.0602832
-0.0159604
0.0847598
-0.00765476
0.13822
0.264465
-0.102857
0.0123234
0.108773
-0.0959147
0.0140434
-0.087991
0.0177993
-0.078458
0.0212195
-0.0677308
0.0267919
-0.0555947
0.0343113
-0.0428109
0.0474994
-0.0298716
0.0718204
-0.0167721
0.12512
0.247693
-0.133856
0.0060421
0.140137
-0.126515
0.00670255
-0.117981
0.00926554
-0.108118
0.0113564
-0.0969901
0.0156636
-0.0845451
0.0218662
-0.0709277
0.0338821
-0.0557409
0.0566336
-0.0352909
0.10467
0.212402
-0.193807
0.00105347
0.198796
-0.188593
0.00148887
-0.181932
0.00260456
-0.174525
0.00394949
-0.165429
0.00656772
-0.154451
0.0108877
-0.139608
0.0190397
-0.117118
0.0341432
-0.0767283
0.0642804
0.135674
-0.278635
0.279689
-0.277146
-0.274542
-0.270592
-0.264025
-0.253137
-0.234097
-0.199954
-0.135674
0.0017841
0.0127661
-0.00245342
0.000505494
0.026112
-0.000898979
0.0399872
-0.00219377
0.0547678
-0.00324627
0.070984
-0.00415216
0.0882284
-0.00490077
0.109521
-0.00552104
0.140758
-0.00488379
0.198158
0.274805
0.00150699
0.0131453
-0.00188619
0.000490337
0.0271286
-0.000768724
0.0412463
-0.00199649
0.0559956
-0.00302862
0.0720161
-0.00392264
0.0891224
-0.00464827
0.110247
-0.00530706
0.141416
-0.00436791
0.197219
0.270437
0.00130685
0.0133214
-0.0014829
0.000542632
0.0278929
-0.000543739
0.0423326
-0.00165968
0.0571115
-0.00263505
0.0729915
-0.00349772
0.0899851
-0.00423364
0.110983
-0.00484519
0.142028
-0.00399553
0.196369
0.266441
0.00118818
0.0133261
-0.00119287
0.000661262
0.0284198
-0.000249518
0.0432434
-0.00124241
0.0581044
-0.00214607
0.0738951
-0.00298032
0.0908194
-0.00371842
0.111721
-0.00431217
0.142622
-0.00357852
0.195636
0.262863
0.00114065
0.0131701
-0.000984733
0.000852264
0.0287082
0.000129471
0.0439662
-0.000744043
0.0589779
-0.00157558
0.0747267
-0.00237986
0.0916237
-0.00312126
0.112462
-0.00371415
0.143215
-0.00312101
0.195043
0.259742
0.00115862
0.0128569
-0.000845355
0.00111598
0.0287508
0.000604782
0.0444774
-0.000165498
0.0597482
-0.000915372
0.0754765
-0.00169425
0.0924025
-0.00244166
0.11321
-0.0030523
0.143825
-0.00262852
0.194619
0.257113
0.00123687
0.0123897
-0.000769673
0.00144589
0.0285418
0.00114944
0.0447739
0.00053402
0.0603636
-0.000165647
0.0761762
-0.000929219
0.0931661
-0.00167895
0.113959
-0.00233175
0.144478
-0.0021065
0.194394
0.255007
0.0013687
0.0117778
-0.000756839
0.00183225
0.0280782
0.00175884
0.0448473
0.00129889
0.0608236
0.000663389
0.0768117
-0.000112464
0.093942
-0.000835373
0.114682
-0.0015641
0.145207
-0.00155964
0.194389
0.253447
0.00154692
0.0110401
-0.000809187
0.00226195
0.0273632
0.00242077
0.0446884
0.0021179
0.0611264
0.0015583
0.0773713
0.000837063
0.0946632
9.47421e-05
0.115425
-0.000765961
0.146067
-0.000990175
0.194613
0.252457
0.00176506
-0.000931627
0.00271909
0.00312021
0.00298121
0.00250278
0.00180588
0.000987857
1.90788e-05
-0.000397434
0.000132231
-0.00115165
0.000382506
-0.0026381
0.000701883
-0.00363231
0.00106371
-0.00427074
0.00145384
-0.00464759
0.00186579
-0.00483117
0.00229816
-0.00487243
0.00275388
-0.00480954
0.00324214
-0.00467157
-0.00448295
0.000131982
-0.00128363
0.000372714
-0.00287883
0.000671049
-0.00393064
0.00100005
-0.00459975
0.00134629
-0.00499383
0.00170439
-0.00518927
0.00207401
-0.00524205
0.00245839
-0.00519392
0.00286391
-0.00507708
-0.00491886
0.000125289
-0.00140892
0.000343385
-0.00309693
0.000603362
-0.00419062
0.000879659
-0.00487604
0.00116081
-0.00527498
0.00144365
-0.00547211
0.00172994
-0.00552835
0.00202444
-0.00548842
0.00233334
-0.00538598
-0.00524798
0.00011166
-0.00152058
0.000293835
-0.00327911
0.000498679
-0.00439546
0.000703776
-0.00508114
0.000900768
-0.00547198
0.00108935
-0.00566069
0.00127375
-0.00571274
0.00146044
-0.00567511
0.00165678
-0.00558232
-0.00546111
9.09557e-05
-0.00161153
0.000224482
-0.00341263
0.000358972
-0.00452995
0.000476958
-0.00519913
0.000574149
-0.00556917
0.000653486
-0.00574003
0.000721603
-0.00578086
0.000786489
-0.00574
0.000855711
-0.00565154
-0.00554647
6.34221e-05
-0.00167495
0.000136848
-0.00348606
0.000188205
-0.00458131
0.000206663
-0.00521759
0.00019272
-0.00555522
0.000152666
-0.00569998
9.53145e-05
-0.00572351
3.0416e-05
-0.0056751
-3.28412e-05
-0.00558828
-0.00548212
2.97438e-05
-0.0017047
3.34757e-05
-0.00348979
-7.96234e-06
-0.00453987
-9.74187e-05
-0.00512813
-0.000229175
-0.00542347
-0.00039372
-0.00553543
-0.000580503
-0.00553672
-0.00077976
-0.00547584
-0.000983667
-0.00538438
-0.00528524
-9.54047e-06
-0.00169516
-8.22005e-05
-0.00341713
-0.000222592
-0.00439948
-0.000424146
-0.00492658
-0.000675809
-0.0051718
-0.000965269
-0.00524597
-0.0012809