/*--------------------------------*- C++ -*----------------------------------*\
  =========                 |
  \\      /  F ield         | OpenFOAM: The Open Source CFD Toolbox
   \\    /   O peration     | Website:  https://openfoam.org
    \\  /    A nd           | Version:  7
     \\/     M anipulation  |
\*---------------------------------------------------------------------------*/
FoamFile
{
    version     2.0;
    format      ascii;
    class       surfaceScalarField;
    location    "3.2";
    object      phi;
}
// * * * * * * * * * * * * * * * * * * * * * * * * * * * * * * * * * * * * * //

dimensions      [0 3 -1 0 0 0 0];

internalField   nonuniform List<scalar> 
63520
(
-1.98654e-05
0.000604976
-0.00058511
-6.65676e-05
0.00163653
-0.00158983
-0.000133572
0.0025327
-0.00246569
-0.000215384
0.00328674
-0.00320493
-0.000307212
0.00390868
-0.00381685
-0.000404721
0.00441401
-0.0043165
-0.000504011
0.00481897
-0.00471968
-0.000601608
0.0051384
-0.00504081
-0.000694464
0.00538517
-0.00529231
-0.000779946
0.00556968
-0.0054842
-0.000855797
0.00570014
-0.00562429
-0.000920127
0.00578296
-0.00571863
-0.000971356
0.00582314
-0.00577191
-0.00100817
0.00582467
-0.00578785
-0.0010295
0.00579093
-0.0057696
-0.00103446
0.00572499
-0.00572004
-0.00102234
0.00562977
-0.00564189
-0.00099262
0.00550812
-0.00553784
-0.000944911
0.00536297
-0.00541068
-0.000878982
0.0051973
-0.00526323
-0.000794743
0.00501415
-0.00509838
-0.000692237
0.00481657
-0.00491908
-0.000571662
0.00460768
-0.00472826
-0.000433356
0.00439053
-0.00452883
-0.000277784
0.00416808
-0.00432365
-0.000105535
0.00394319
-0.00411544
8.26681e-05
0.00371856
-0.00390677
0.000285983
0.0034967
-0.00370002
0.000503466
0.00327992
-0.0034974
0.000734086
0.00307028
-0.0033009
0.000976729
0.00286961
-0.00311225
0.00123021
0.00267949
-0.00293297
0.00149328
0.00250126
-0.00276433
0.00176464
0.00233606
-0.00260743
0.00204295
0.00218486
-0.00246317
0.00232678
0.00204852
-0.00233235
0.00261458
0.00192789
-0.00221569
0.00290461
0.00182379
-0.00211382
0.00319486
0.00173927
-0.00202951
0.0016799
0.00348269
-0.00196774
-1.82166e-05
0.000623191
-6.12583e-05
0.00167957
-0.000123276
0.00259471
-0.000199383
0.00336284
-0.000285202
0.0039945
-0.000376699
0.0045055
-0.000470156
0.00491243
-0.000562212
0.00523046
-0.000649847
0.0054728
-0.000730437
0.00565027
-0.000801736
0.00577143
-0.000861833
0.00584306
-0.000909109
0.00587042
-0.000942213
0.00585777
-0.000960027
0.00580874
-0.000961625
0.00572659
-0.000946263
0.00561441
-0.000913373
0.00547523
-0.000862535
0.00531213
-0.00079347
0.00512823
-0.000706052
0.00492673
-0.000600311
0.00471083
-0.000476411
0.00448378
-0.000334658
0.00424877
-0.000175505
0.00400892
4.50708e-07
0.00376723
0.000192488
0.00352652
0.000399767
0.00328942
0.000621337
0.00305835
0.000856145
0.00283547
0.00110306
0.0026227
0.00136086
0.00242168
0.00162831
0.00223381
0.00190409
0.00206028
0.00218684
0.00190211
0.00247515
0.00176021
0.00276749
0.00163556
0.00306214
0.00152914
0.00335709
0.00144431
0.00138727
0.00364972
-1.64193e-05
0.00063961
-5.54091e-05
0.00171856
-0.000111911
0.00265121
-0.000181644
0.00343258
-0.00026068
0.00407353
-0.000345308
0.00459013
-0.000431996
0.00499912
-0.000517523
0.00531599
-0.000598935
0.00555422
-0.000673633
0.00572496
-0.00073936
0.00583716
-0.000794176
0.00589787
-0.000836443
0.00591268
-0.00086478
0.00588611
-0.000878033
0.005822
-0.000875246
0.00572381
-0.000855645
0.00559481
-0.000818616
0.0054382
-0.000763704
0.00525722
-0.000690609
0.00505514
-0.00059918
0.0048353
-0.000489416
0.00460107
-0.000361468
0.00435583
-0.00021564
0.00410294
-5.23766e-05
0.00384566
0.000127743
0.00358711
0.000323996
0.00333027
0.000535524
0.0030779
0.000761357
0.00283252
0.00100043
0.0025964
0.0012516
0.00237153
0.00151364
0.00215964
0.00178528
0.00196217
0.0020652
0.00178037
0.00235205
0.00161526
0.00264442
0.00146784
0.00294081
0.00133916
0.00323958
0.00123038
0.00353873
0.00114516
0.00109032
0.00383568
-1.44748e-05
0.000654085
-4.91209e-05
0.00175321
-9.96468e-05
0.00270174
-0.00016241
0.00349534
-0.000233942
0.00414506
-0.00031087
0.00466706
-0.000389898
0.00507814
-0.000467937
0.00539402
-0.000542112
0.00562839
-0.000609857
0.00579271
-0.000668931
0.00589623
-0.000717387
0.00594633
-0.000753559
0.00594885
-0.000776042
0.00590859
-0.000783659
0.00582961
-0.000775423
0.00571557
-0.000750525
0.00556991
-0.000708337
0.00539601
-0.000648384
0.00519726
-0.000570335
0.00497709
-0.000474021
0.00473899
-0.000359439
0.00448649
-0.00022673
0.00422312
-7.61792e-05
0.00395239
9.17703e-05
0.00367771
0.000276528
0.00340236
0.000477359
0.00312944
0.0006934
0.00286185
0.000923673
0.00260225
0.0011671
0.00235297
0.0014225
0.00211612
0.00168866
0.00189348
0.00196427
0.00168656
0.00224804
0.0014966
0.0025386
0.0013247
0.00283458
0.00117187
0.00313452
0.00103921
0.00343682
0.000928071
0.0037396
0.000842383
0.000789627
0.0040403
-1.24314e-05
0.000666516
-4.2439e-05
0.00178322
-8.6557e-05
0.00274586
-0.000141777
0.00355056
-0.000205121
0.00420841
-0.000273564
0.0047355
-0.000344054
0.00514863
-0.000413651
0.00546362
-0.000479594
0.00569433
-0.000539363
0.00585248
-0.000590723
0.00594759
-0.000631731
0.00598733
-0.000660714
0.00597784
-0.000676244
0.00592412
-0.00067712
0.00583049
-0.000662342
0.00570079
-0.000631092
0.00553866
-0.000582714
0.00534764
-0.000516715
0.00513127
-0.000432763
0.00489314
-0.000330685
0.00463691
-0.000210463
0.00436627
-7.22365e-05
0.0040849
8.37013e-05
0.00379646
0.000256903
0.00350451
0.00044677
0.00321249
0.000652561
0.00292365
0.000873398
0.00264102
0.00110829
0.00236736
0.00135613
0.00210513
0.00161575
0.00185651
0.00188589
0.00162334
0.00216527
0.00140718
0.00245256
0.00120931
0.00274643
0.00103083
0.00304553
0.000872766
0.00334846
0.000736284
0.00365369
0.00062284
0.00395944
0.000536636
0.000485827
0.00426324
-1.02848e-05
0.000676801
-3.54079e-05
0.00180834
-7.27449e-05
0.00278319
-0.000119927
0.00359774
-0.000174459
0.00426294
-0.000233678
0.00479472
-0.000294803
0.00520976
-0.000355059
0.00552388
-0.000411795
0.00575107
-0.000462557
0.00590324
-0.000505145
0.00599018
-0.000537621
0.00601981
-0.000558303
0.00599852
-0.00056576
0.00593158
-0.000558786
0.00582352
-0.000536366
0.00567837
-0.000497672
0.00549997
-0.000442045
0.00529201
-0.000368991
0.00505821
-0.000278175
0.00480232
-0.000169424
0.00452816
-4.2728e-05
0.00423957
0.000101767
0.0039404
0.00026376
0.00363446
0.000442792
0.00332548
0.000638251
0.00301703
0.00084938
0.00271252
0.00107529
0.00241511
0.00131496
0.00212768
0.0015673
0.0018528
0.00183109
0.00159271
0.00210509
0.00134935
0.00238799
0.00112428
0.00267848
0.000918814
0.00297525
0.00073406
0.00327697
0.000571048
0.00358231
0.000430947
0.00388982
0.000315323
0.00419785
0.000228604
0.000179609
0.00450407
-8.07355e-06
0.000684874
-2.81176e-05
0.00182838
-5.8347e-05
0.00281342
-9.7036e-05
0.00363643
-0.000142187
0.00430809
-0.000191504
0.00484404
-0.000242476
0.00526073
-0.000292516
0.00557392
-0.000339106
0.00579766
-0.000379867
0.005944
-0.000412638
0.00602295
-0.000435501
0.00604267
-0.000446788
0.0060098
-0.000445068
0.00592986
-0.00042913
0.00580758
-0.000397963
0.00564721
-0.000350745
0.00545275
-0.000286819
0.00522808
-0.000205693
0.00497709
-0.000107048
0.00470368
9.27603e-06
0.00441184
0.000143277
0.00410557
0.000294794
0.00378888
0.00046351
0.00346575
0.000648948
0.00314004
0.000850475
0.0028155
0.00106732
0.00249568
0.00129857
0.00218386
0.0015432
0.00188305
0.00180008
0.00159591
0.00206802
0.00132478
0.00234573
0.00107163
0.00263193
0.00083808
0.00292529
0.000625448
0.00322453
0.000434823
0.00352836
0.000267217
0.00383551
0.000123794
0.00414466
6.18126e-06
0.00445426
-8.10042e-05
-0.000128304
0.00476218
-5.82923e-06
0.000690703
-2.06423e-05
0.0018432
-4.34985e-05
0.00283628
-7.33143e-05
0.00366625
-0.000108578
0.00434335
-0.000147365
0.00488282
-0.000187454
0.00530082
-0.000226463
0.00561292
-0.000262006
0.0058332
-0.0002918
0.00597379
-0.000313741
0.00604489
-0.000325945
0.00605488
-0.000326761
0.00601062
-0.000314772
0.00591787
-0.000288778
0.00578158
-0.000247782
0.00560621
-0.000190972
0.00539594
-0.000117703
0.00515481
-2.75054e-05
0.00488689
7.99179e-05
0.00459625
0.000204704
0.00428705
0.00034683
0.00396344
0.000506115
0.0036296
0.000682213
0.00328965
0.000874622
0.00294763
0.00108269
0.00260744
0.00130561
0.00227275
0.00154248
0.001947
0.00179223
0.0016333
0.00205373
0.00133441
0.00232576
0.00105275
0.00260705
0.00079034
0.0028963
0.000548828
0.00319221
0.000329535
0.00349351
0.000133531
0.00379894
-3.82198e-05
0.00410732
-0.000184586
0.00441742
-0.000303918
0.00472788
-0.000391462
-0.000437159
0.00503673
-3.57402e-06
0.000694277
-1.30647e-05
0.00185269
-2.83534e-05
0.00285157
-4.89835e-05
0.00368688
-7.39273e-05
0.0043683
-0.000101634
0.00491053
-0.000130178
0.00532936
-0.000157391
0.00564014
-0.000181042
0.00585685
-0.000198956
0.00599171
-0.000209099
0.00605504
-0.000209633
0.00605541
-0.000198939
0.00599993
-0.000175626
0.00589456
-0.000138516
0.00574447
-8.66337e-05
0.00555433
-1.91883e-05
0.00532849
6.44365e-05
0.00507119
0.000164678
0.00478665
0.000281804
0.00447913
0.00041592
0.00415293
0.000566974
0.00381239
0.00073475
0.00346182
0.000918871
0.00310553
0.0011188
0.0027477
0.00133387
0.00239237
0.00156324
0.00204338
0.00180597
0.00170427
0.002061
0.00137826
0.00232718
0.00106824
0.00260327
0.000776662
0.002888
0.000505607
0.00318008
0.00025675
0.00347821
3.14006e-05
0.00378115
-0.000169408
0.0040877
-0.000344768
0.00439673
-0.000493617
0.00470713
-0.000614321
0.00501772
-0.000702053
-0.000746203
0.00532677
-1.33552e-06
0.000695613
-5.46668e-06
0.00185682
-1.30683e-05
0.00285917
-2.42832e-05
0.00369809
-3.8557e-05
0.00438257
-5.47145e-05
0.00492669
-7.11272e-05
0.00534577
-8.58558e-05
0.00565487
-9.68374e-05
0.00586783
-0.000102018
0.00599689
-9.94497e-05
0.00605247
-8.73556e-05
0.00604332
-6.4164e-05
0.00597674
-2.85185e-05
0.00585891
2.07241e-05
0.00569523
8.45062e-05
0.00549055
0.000163585
0.00524941
0.000258537
0.00497624
0.000369758
0.00467543
0.000497475
0.00435141
0.000641755
0.00400865
0.000802506
0.00365164
0.00097947
0.00328486
0.00117223
0.00291277
0.00138022
0.00253971
0.00160272
0.00216987
0.00183888
0.00180722
0.00208774
0.00145541
0.0023482
0.0011178
0.0026191
0.000797337
0.00289921
0.000496554
0.00318724
0.000217569
0.00348193
-3.79313e-05
0.00378197
-0.000268648
0.00408616
-0.000473598
0.00439335
-0.000651952
0.00470247
-0.000802741
0.00501255
-0.000924397
0.00532259
-0.00101209
-0.00105478
0.00563116
8.68465e-07
0.000694744
2.06879e-06
0.00185562
2.19622e-06
0.00285904
5.37201e-07
0.00369975
-2.80858e-06
0.00438592
-7.03761e-06
0.00493092
-1.08215e-05
0.00534956
-1.2461e-05
0.0056565
-1.00743e-05
0.00586545
-1.74294e-06
0.00598856
1.43786e-05
0.00603635
3.99897e-05
0.00601771
7.66042e-05
0.00594012
0.000125529
0.00580999
0.000187861
0.0056329
0.000264497
0.00541391
0.000356152
0.00515776
0.000463348
0.00486904
0.000586431
0.00455234
0.00072558
0.00421226
0.000880815
0.00385342
0.00105199
0.00348046
0.0012388
0.00309805
0.00144078
0.00271079
0.00165732
0.00232317
0.00188768
0.00193952
0.00213096
0.00156394
0.00238616
0.00120021
0.00265219
0.00085177
0.00292787
0.000521659
0.00321195
0.000212471
0.00350317
-7.36455e-05
0.00380023
-0.000334997
0.0041019
-0.00057031
0.00440696
-0.000778661
0.00471433
-0.000959316
0.00502301
-0.00111143
0.00533215
-0.00123354
0.00564095
-0.00132089
-0.00136215
0.00594832
3.00601e-06
0.000691738
9.45878e-06
0.00184917
1.72769e-05
0.00285122
2.52238e-05
0.0036918
3.29669e-05
0.00437817
4.09452e-05
0.00492294
5.01878e-05
0.00534031
6.21475e-05
0.00564454
7.8511e-05
0.00584908
0.000101044
0.00596602
0.000131474
0.00600592
0.000171412
0.00597777
0.000222297
0.00588924
0.00028537
0.00574691
0.000361673
0.0055566
0.000452048
0.00532353
0.00055715
0.00505266
0.00067744
0.00474875
0.000813205
0.00441658
0.000964567
0.0040609
0.00113149
0.0036865
0.00131376
0.00329819
0.00151102
0.00290079
0.00172277
0.00249904
0.00194833
0.00209761
0.00218692
0.00170093
0.00243761
0.00131324
0.00269938
0.000938434
0.00297111
0.000580039
0.00325161
0.000241165
0.00353962
-7.55395e-05
0.00383388
-0.000367904
0.00413312
-0.000634237
0.00443611
-0.0008733
0.00474169
-0.00108424
0.0050488
-0.00126643
0.00535654
-0.00141917
0.00566415
-0.00154115
0.00597104
-0.00162777
-0.00166752
0.00627641
5.05801e-06
0.00068668
1.66226e-05
0.0018376
3.20144e-05
0.00283583
4.95224e-05
0.0036743
6.84105e-05
0.00435928
8.87688e-05
0.00490258
0.00011133
0.00531775
0.000137292
0.00561858
0.000168135
0.00581824
0.000205459
0.0059287
0.000250859
0.00596052
0.000305837
0.00592279
0.000371745
0.00582333
0.000449749
0.00566891
0.000540819
0.00546553
0.000645731
0.00521862
0.000765068
0.00493332
0.000899222
0.0046146
0.00104841
0.00426739
0.0012127
0.00389662
0.00139196
0.00350723
0.00158595
0.00310421
0.00179422
0.00269251
0.00201621
0.00227705
0.00225122
0.0018626
0.00249838
0.00145376
0.00275676
0.00105486
0.00302529
0.000669904
0.00330283
0.000302502
0.00358817
-4.41708e-05
0.00388005
-0.000367425
0.00417722
-0.000665077
0.00447844
-0.000935448
0.00478248
-0.00117734
0.00508823
-0.00138999
0.0053947
-0.00157289
0.00570103
-0.0017255
0.00600659
-0.00184671
0.00631096
-0.00193214
-0.00197024
0.00661368
7.0026e-06
0.000679677
2.34837e-05
0.00182112
4.6253e-05
0.00281306
7.3181e-05
0.00364737
0.000103165
0.0043293
0.000135965
0.00486978
0.000172021
0.0052817
0.000212274
0.00557833
0.000257986
0.00577253
0.000310578
0.00587611
0.000371497
0.0058996
0.000442123
0.00585216
0.000523705
0.00574175
0.000617317
0.0055753
0.00072385
0.00535899
0.000843999
0.00509847
0.000978265
0.00479905
0.00112696
0.0044659
0.00129024
0.00410411
0.00146807
0.00371878
0.00166027
0.00331503
0.00186651
0.00289797
0.00208628
0.00247274
0.00231896
0.00204437
0.00256378
0.00161779
0.00281983
0.00119771
0.00308613
0.000788562
0.00336158
0.000394455
0.00364501
1.90715e-05
0.0039352
-0.000334362
0.0042309
-0.000663125
0.00453085
-0.000965031
0.00483384
-0.00123843
0.00513868
-0.00148218
0.00544429
-0.00169561
0.00574973
-0.00187833
0.00605423
-0.00203001
0.00635726
-0.00214973
0.00665857
-0.00223346
-0.00226973
0.00695807
8.8193e-06
0.000670858
2.99698e-05
0.00179997
5.98442e-05
0.00278319
9.59571e-05
0.00361125
0.000136882
0.00428838
0.000182069
0.00482459
0.000231676
0.00523209
0.000286385
0.00552362
0.000347233
0.00571168
0.000415449
0.00580789
0.000492317
0.00582273
0.000579081
0.0057654
0.00067687
0.00564396
0.000786658
0.00546551
0.000909239
0.00523641
0.00104522
0.0049625
0.001195
0.00464927
0.00135883
0.00430208
0.00153675
0.00392619
0.00172867
0.00352687
0.00193432
0.00310938
0.00215327
0.00267902
0.00238497
0.00224104
0.00262871
0.00180063
0.00288365
0.00136284
0.00314886
0.0009325
0.00342328
0.000514144
0.00370578
0.000111955
0.00399516
-0.000270317
0.0042902
-0.000629402
0.00458964
-0.000962565
0.00489224
-0.00126763
0.0051968
-0.00154299
0.00550218
-0.00178756
0.00580736
-0.00200078
0.00611143
-0.00218241
0.00641371
-0.00233229
0.00671377
-0.00244979
0.00701155
-0.00253124
-0.00256547
0.00730729
1.04894e-05
0.000660368
3.60141e-05
0.00177444
7.26491e-05
0.00274655
0.000117621
0.00356628
0.000169225
0.00423677
0.000226631
0.00476719
0.000289722
0.005169
0.000358925
0.00545442
0.000435047
0.00563556
0.000519113
0.00572383
0.000612231
0.00572961
0.000715495
0.00566214
0.000829903
0.00552955
0.000956311
0.0053391
0.00109541
0.00509732
0.00124769
0.00481021
0.00141348
0.00448348
0.00159291
0.00412265
0.00178595
0.00373315
0.0019924
0.00332041
0.00221191
0.00288987
0.00244398
0.00244695
0.00268795
0.00199706
0.00294306
0.00154552
0.00320841
0.0010975
0.00348297
0.000657933
0.00376567
0.000231451
0.00405531
-0.000177695
0.0043507
-0.000565699
0.00465056
-0.000929267
0.00495366
-0.00126566
0.00525876
-0.00157273
0.0055647
-0.00184892
0.00587038
-0.00209324
0.00617482
-0.00230522
0.0064772
-0.00248479
0.00677691
-0.002632
0.00707362
-0.0027465
0.00736743
-0.00282505
-0.00285695
0.00765892
1.19962e-05
0.000648372
4.15569e-05
0.00174488
8.45424e-05
0.00270357
0.000137963
0.00351286
0.000199885
0.00417485
0.000269225
0.00469785
0.000345611
0.00509261
0.000429218
0.00537081
0.000520618
0.00554415
0.000620625
0.00562382
0.000730161
0.00562007
0.000850157
0.00554214
0.000981463
0.00539824
0.00112481
0.00519576
0.00128076
0.00494136
0.00144971
0.00464126
0.00163187
0.00430132
0.00182728
0.00392724
0.0020358
0.00352464
0.00225713
0.00309908
0.00249085
0.00265615
0.00273634
0.00220145
0.00299288
0.00174052
0.00325961
0.00127879
0.00353556
0.000821553
0.00381966
0.000373839
0.00411074
-5.96345e-05
0.0044076
-0.000474556
0.00470899
-0.000867083
0.00501363
-0.00123391
0.00532027
-0.00157231
0.00562772
-0.00188018
0.00593483
-0.00215603
0.00624056
-0.00239897
0.006544
-0.00260866
0.00684438
-0.00278518
0.00714119
-0.00292881
0.00743419
-0.0030395
0.00772364
-0.00311451
-0.00314375
0.00801044
1.33255e-05
0.000635046
4.65472e-05
0.00171166
9.54146e-05
0.0026547
0.000156796
0.00345148
0.00022858
0.00410307
0.000309463
0.00461696
0.000398833
0.00500324
0.000496624
0.00527302
0.000603174
0.00543761
0.000719077
0.00550792
0.000845064
0.00549409
0.000981886
0.00540532
0.00113024
0.00524989
0.00129071
0.00503529
0.00146374
0.00476833
0.0016496
0.0044554
0.00184839
0.00410253
0.00206004
0.0037156
0.0022843
0.00330037
0.00252079
0.00286259
0.00276896
0.00240799
0.00302812
0.0019423
0.00329744
0.00147119
0.00357599
0.00100025
0.0038627
0.00053484
0.00415644
8.01013e-05
0.00445599
-0.000359183
0.00476008
-0.00077865
0.00506743
-0.00117444
0.00537676
-0.00154324
0.00568683
-0.00188237
0.00599644
-0.00218979
0.00630451
-0.0024641
0.00661004
-0.0027045
0.00691219
-0.00291081
0.00721028
-0.00308327
0.00750388
-0.0032224
0.00779285
-0.00332847
0.00807761
-0.00339926
-0.00342548
0.00835933
1.44658e-05
0.00062058
5.09438e-05
0.00167518
0.000105175
0.00260047
0.000173963
0.00338269
0.000255065
0.00402196
0.000346997
0.00452503
0.000448929
0.00490131
0.000560562
0.00516139
0.000682002
0.00531616
0.000813626
0.00537629
0.00095596
0.00535176
0.00110957
0.00525171
0.00127499
0.00508447
0.00145265
0.00485762
0.00164286
0.00457812
0.00184576
0.0042525
0.00206133
0.00388696
0.00228938
0.00348755
0.00252956
0.00306018
0.00278138
0.00261077
0.00304418
0.00214519
0.00331717
0.00166931
0.00359943
0.00118893
0.00388992
0.000709758
0.0041875
0.000237263
0.00449094
-0.000223343
0.00479897
-0.000667215
0.00511027
-0.00108995
0.00542352
-0.00148769
0.00573743
-0.00185714
0.00605075
-0.00219569
0.00636232
-0.00250137
0.0066711
-0.00277288
0.00697616
-0.00300957
0.00727674
-0.00321139
0.00757226
-0.00337879
0.00786236
-0.00351251
0.00814703
-0.00361314
0.00842679
-0.00367902
-0.00370181
0.00870312
1.54085e-05
0.000605172
5.4716e-05
0.00163588
0.000113756
0.00254143
0.000189337
0.00330711
0.000279143
0.00393216
0.000381541
0.00442263
0.000495506
0.00478735
0.000620524
0.00503637
0.000756475
0.00518021
0.000903516
0.00522925
0.00106197
0.0051933
0.0012322
0.00508147
0.00141458
0.0049021
0.00160938
0.00466283
0.00181675
0.00437075
0.0020367
0.00403254
0.0022691
0.00365457
0.00251363
0.00324302
0.00276983
0.00280398
0.00303708
0.00234352
0.00331462
0.00186765
0.00360155
0.00138238
0.00389683
0.000893651
0.00419933
0.000407258
0.00450781
-7.1219e-05
0.00482097
-0.000536501
0.00513745
-0.000983694
0.00545588
-0.00140838
0.0057749
-0.00180671
0.0060932
-0.00217545
0.00640956
-0.00251205
0.00672285
-0.00281466
0.00703207
-0.0030821
0.00733638
-0.00331388
0.0076351
-0.00351011
0.00792775
-0.00367144
0.00821409
-0.00379884
0.00849419
-0.00389324
0.00876874
-0.00395356
-0.00397252
0.00903944
1.61488e-05
0.000589023
5.78452e-05
0.00159418
0.00012111
0.00247816
0.000202832
0.00322539
0.000300665
0.00383432
0.000412868
0.00431043
0.000538249
0.00466196
0.000676093
0.00489852
0.000826065
0.00503024
0.000988107
0.00506721
0.00116233
0.00501908
0.00134891
0.00489489
0.00154802
0.00470298
0.00175979
0.00445107
0.0019842
0.00414634
0.00222114
0.0037956
0.00247033
0.00340538
0.00273133
0.00298201
0.00300356
0.00253176
0.00328628
0.0020608
0.0035786
0.00157533
0.0038795
0.00108148
0.00418783
0.000585315
0.00450235
9.27387e-05
0.00482172
-0.000390585
0.00514453
-0.000859313
0.00546936
-0.00130852
0.00579476
-0.00173379
0.00611936
-0.00213131
0.00644184
-0.00249792
0.00676096
-0.00283118
0.00707567
-0.00312936
0.00738502
-0.00339145
0.00768825
-0.00361711
0.0079848
-0.00380666
0.00827429
-0.00396094
0.0085566
-0.00408116
0.00883193
-0.00416857
0.00910107
-0.0042227
-0.00423743
0.00936598
1.66861e-05
0.000572337
6.03257e-05
0.00155054
0.000127219
0.00241127
0.000214399
0.00313821
0.00031954
0.00372918
0.000440828
0.00418914
0.000576935
0.00452586
0.000726962
0.0047485
0.000890371
0.00486683
0.00106689
0.00489069
0.00125644
0.00482954
0.00145898
0.00469235
0.00167451
0.00448745
0.00190298
0.00422259
0.00214424
0.00390508
0.00239801
0.00354183
0.00266388
0.00313951
0.00294128
0.00270461
0.00322949
0.00224354
0.00352765
0.00176265
0.00383473
0.00126825
0.00414958
0.000766625
0.00447093
0.000263961
0.00479741
-0.000233741
0.00512757
-0.00072074
0.0054599
-0.00119164
0.00579289
-0.00164151
0.00612505
-0.00206595
0.00645496
-0.00246121
0.00678129
-0.00282425
0.00710285
-0.00315274
0.00741861
-0.00344512
0.00772771
-0.00370055
0.00802951
-0.00391891
0.00832354
-0.0041007
0.00860957
-0.00424697
0.0088876
-0.00435918
0.00915794
-0.00443891
0.00942151
-0.00448627
-0.00449641
0.0096805
1.70232e-05
0.000555314
6.21655e-05
0.0015054
0.000132089
0.00234134
0.000224033
0.00304626
0.000335735
0.00361748
0.000465351
0.00405953
0.000611438
0.00437977
0.000772939
0.004587
0.000949129
0.00469064
0.00113954
0.00470028
0.00134387
0.00462522
0.00156191
0.00447431
0.00179346
0.00425589
0.00203831
0.00397775
0.00229614
0.00364725
0.00256652
0.00327144
0.0028489
0.00285713
0.00314257
0.00241095
0.00344666
0.00193945
0.00376017
0.00144914
0.00408193
0.000946486
0.00441065
0.000437904
0.00474491
-7.03047e-05
0.00508322
-0.000572045
0.00542398
-0.00106151
0.00576561
-0.00153327
0.00610649
-0.00198239
0.00644508
-0.00240454
0.00677993
-0.00279606
0.00710972
-0.00315404
0.00743328
-0.00347631
0.00774967
-0.0037615
0.0080581
-0.00400899
0.00835806
-0.00421886
0.00864921
-0.00439184
0.00893144
-0.00452921
0.00920491
-0.00463265
0.00947007
-0.00470406
0.00972794
-0.00474414
-0.00474936
0.00998088
1.71675e-05
0.000538146
6.33861e-05
0.00145918
0.000135755
0.00226897
0.000231771
0.00295025
0.000349284
0.00349997
0.000486448
0.00392236
0.00064174
0.00422448
0.000813966
0.00441477
0.00100223
0.00450238
0.00120587
0.00449664
0.0014244
0.00440669
0.00165741
0.0042413
0.00190454
0.00400876
0.00216538
0.00371691
0.00243945
0.00337318
0.00272618
0.00298471
0.00302485
0.00255846
0.00333461
0.00210119
0.00365443
0.00161963
0.00398316
0.00112042
0.00431946
0.00061018
0.00466189
9.54712e-05
0.00500889
-0.000417297
0.00535879
-0.000921945
0.00570989
-0.00141261
0.00606047
-0.00188385
0.00640885
-0.00233077
0.00675344
-0.00274913
0.00709275
-0.00313538
0.00742549
-0.00348677
0.00775055
-0.00380137
0.00806704
-0.004078
0.00837432
-0.00431627
0.00867197
-0.00451652
0.00895983
-0.0046797
0.00923793
-0.00480731
0.00950658
-0.0049013
0.00976635
-0.00496384
0.0100184
-0.00499619
-0.00499621
0.0102653
1.71303e-05
0.000521016
6.40228e-05
0.00141229
0.000138277
0.00219472
0.000237697
0.00285083
0.000360283
0.00337738
0.000504221
0.00377843
0.000667935
0.00406077
0.000850119
0.00423259
0.00104972
0.00430277
0.00126592
0.00428044
0.00149802
0.00417458
0.00174546
0.00399387
0.00200767
0.00374655
0.00228408
0.0034405
0.00257405
0.00308321
0.00287683
0.00268193
0.00319155
0.00224374
0.00351717
0.00177556
0.00385253
0.00128427
0.00419628
0.000776667
0.00454693
0.000259538
0.00490283
-0.000260437
0.00526227
-0.000776734
0.00562343
-0.0012831
0.00598446
-0.00177364
0.00634354
-0.00224293
0.0066989
-0.00268614
0.00704891
-0.00309913
0.00739209
-0.00347855
0.00772716
-0.00382185
0.00805309
-0.0041273
0.0083691
-0.004394
0.00867466
-0.00462183
0.00896951
-0.00481137
0.00925364
-0.00496382
0.00952725
-0.00508093
0.00979081
-0.00516485
0.010045
-0.00521806
0.0102912
-0.00524235
-0.00523694
0.0105319
1.69273e-05
0.000504088
6.41235e-05
0.00136509
0.000139742
0.0021191
0.000241937
0.00274863
0.000368891
0.00325043
0.000518856
0.00362846
0.000690229
0.00388939
0.000881615
0.0040412
0.00109184
0.00409255
0.0013199
0.00405238
0.00156495
0.00392953
0.00182625
0.00373257
0.00210305
0.00346976
0.0023946
0.00314894
0.0027001
0.00277771
0.00301862
0.00236341
0.00334911
0.00191325
0.00369037
0.00143431
0.00404102
0.000933615
0.00439953
0.000418151
0.00476422
-0.000105153
0.00513327
-0.00062948
0.00550475
-0.00114822
0.00587669
-0.00165505
0.00624711
-0.00214407
0.00661408
-0.0026099
0.00697576
-0.00304782
0.00733048
-0.00345386
0.00767679
-0.00382486
0.00801345
-0.00415852
0.00833954
-0.00445339
0.00865438
-0.00470885
0.00895761
-0.00492506
0.00924912
-0.00510288
0.00952906
-0.00524377
0.00979784
-0.0053497
0.0100561
-0.00542307
0.0103046
-0.00546659
0.0105448
-0.00548258
-0.00547161
0.0107795
1.65781e-05
0.00048751
6.37483e-05
0.00131792
0.000140261
0.00204259
0.000244658
0.00264424
0.000375332
0.00311975
0.000530625
0.00347317
0.000708936
0.00371108
0.000908806
0.00384133
0.00112895
0.00387241
0.00136822
0.00381311
0.00162563
0.00367212
0.00190023
0.00345797
0.00219114
0.00317885
0.00249743
0.00284265
0.00281809
0.00245704
0.00315203
0.00202947
0.003498
0.00156728
0.00385459
0.00107771
0.00422024
0.000567972
0.00459318
4.52055e-05
0.00497153
-0.000483499
0.00535324
-0.0010112
0.00573623
-0.0015312
0.00611833
-0.00203715
0.00649744
-0.00252317
0.00687151
-0.00298397
0.00723868
-0.00341498
0.00759725
-0.00381243
0.00794581
-0.00417342
0.00828323
-0.00449593
0.00860866
-0.00477882
0.00892159
-0.00502178
0.00922181
-0.00522528
0.00950941
-0.00539047
0.00978472
-0.00551908
0.0100483
-0.00561329
0.010301
-0.00567572
0.0105437
-0.00570933
0.010778
-0.00571689
-0.00570025
0.0110066
1.61056e-05
0.000471404
6.29682e-05
0.00127105
0.000139971
0.00196559
0.000246065
0.00253814
0.000379882
0.00298594
0.000539877
0.00331317
0.000724474
0.00352648
0.000932174
0.00363363
0.00116159
0.00364299
0.00141148
0.00356322
0.00168068
0.00340292
0.0019681
0.00317055
0.00227267
0.00287427
0.00259329
0.00252203
0.00292877
0.00212156
0.0032778
0.00168044
0.00363893
0.00120616
0.00401052
0.00070612
0.00439078
0.000187715
0.00477771
-0.000341731
0.00516919
-0.00087498
0.00556298
-0.00140498
0.00595675
-0.00192498
0.00634822
-0.00242861
0.00673512
-0.00291008
0.00711535
-0.00336421
0.007487
-0.00378663
0.00784842
-0.00417385
0.00819824
-0.00452324
0.00853544
-0.00483313
0.00885932
-0.0051027
0.00916954
-0.005332
0.00946607
-0.00552181
0.00974918
-0.00567358
0.0100194
-0.00578929
0.0102775
-0.00587137
0.0105244
-0.00592261
0.0107613
-0.00594621
0.0109897
-0.00594538
-0.00592327
0.0112128
1.55357e-05
0.000455868
6.18639e-05
0.00122473
0.000139025
0.00188842
0.000246399
0.00243077
0.000382871
0.00284947
0.00054703
0.00314901
0.000737351
0.00333616
0.000952312
0.00341867
0.00119046
0.00340485
0.00145043
0.00330325
0.00173093
0.00312242
0.00203072
0.00287075
0.00234857
0.00255643
0.00268316
0.00218744
0.00303311
0.00177161
0.00339689
0.00131666
0.00377282
0.000830233
0.00415901
0.00031993
0.0045534
-0.000206679
0.00495376
-0.000742092
0.00535771
-0.00127893
0.00576277
-0.00181004
0.00616645
-0.00232865
0.00656627
-0.00282844
0.00695989
-0.0033037
0.00734515
-0.00374946
0.00772013
-0.00416161
0.00808323
-0.00453695
0.0084332
-0.00487321
0.00876914
-0.00516906
0.00909052
-0.00542409
0.0093972
-0.00563867
0.00968933
-0.00581394
0.00996739
-0.00595164
0.0102321
-0.006054
0.0104844
-0.00612365
0.0107253
-0.00616357
0.0109563
-0.00617718
0.011179
-0.00616806
-0.00614067
0.0113964
1.48958e-05
0.000440972
6.05238e-05
0.0011791
0.000137594
0.00181135
0.000245925
0.00232243
0.000384667
0.00271072
0.000552562
0.00298112
0.000748152
0.00314057
0.00096991
0.00319691
0.00121633
0.00315843
0.00148595
0.00303363
0.00177735
0.00283102
0.00208915
0.00255896
0.00241992
0.00222567
0.00276815
0.00183921
0.00313224
0.00140752
0.00351041
0.000938489
0.00390072
0.000439928
0.004301
-8.03594e-05
0.00470894
-0.000614613
0.005122
-0.00115516
0.00553757
-0.00169449
0.00595293
-0.00222541
0.00636541
-0.00274113
0.0067724
-0.00323543
0.00717147
-0.00370277
0.00756044
-0.00413843
0.00793744
-0.00453861
0.00830095
-0.00490046
0.00864986
-0.00522212
0.00898344
-0.00550264
0.00930135
-0.00574201
0.00960366
-0.00594097
0.00989072
-0.00610101
0.0101632
-0.00622413
0.010422
-0.00631282
0.0106683
-0.0063699
0.0109032
-0.00639851
0.0111283
-0.00640223
0.0113452
-0.006385
-0.00635247
0.011557
1.42153e-05
0.000426757
5.90417e-05
0.00113427
0.00013586
0.00173454
0.000244927
0.00221337
0.000385668
0.00256998
0.00055699
0.0028098
0.000757515
0.00294005
0.000985728
0.0029687
0.00124008
0.00290408
0.00151902
0.00275469
0.00182102
0.00252901
0.00214453
0.00223545
0.00248792
0.00188227
0.00284949
0.00147764
0.00322737
0.00102964
0.00361952
0.000546334
0.00402371
3.57403e-05
0.00443748
-0.000494134
0.00485821
-0.00103533
0.00528308
-0.00158003
0.00570921
-0.00212062
0.00613369
-0.00264989
0.00655366
-0.0031611
0.00696641
-0.00364818
0.00736948
-0.00410584
0.0077607
-0.00452965
0.00813828
-0.00491619
0.00850084
-0.00526302
0.00884743
-0.0055687
0.00917752
-0.00583273
0.009491
-0.00605549
0.00978814
-0.00623811
0.0100695
-0.00638238
0.010336
-0.0064906
0.0105886
-0.00656547
0.0108287
-0.00660998
0.0110576
-0.00662742
0.0112769
-0.00662149
0.0114883
-0.00659644
-0.00655903
0.0116949
1.35244e-05
0.000413233
5.75146e-05
0.00109028
0.000134012
0.00165804
0.000243703
0.00210368
0.000386292
0.00242739
0.00056086
0.00263523
0.000766116
0.00273479
0.00100057
0.00273425
0.00126263
0.00264202
0.00155068
0.00246664
0.00186306
0.00221664
0.00219805
0.00190047
0.00255382
0.0015265
0.00292842
0.00110304
0.00331971
0.000638346
0.00372537
0.000140677
0.00414283
-0.000381721
0.00456933
-0.000920631
0.00500191
-0.00146792
0.00543749
-0.00201561
0.00587293
-0.00255607
0.00630512
-0.00308208
0.00673107
-0.00358705
0.007148
-0.00406512
0.00755345
-0.00451128
0.00794533
-0.00492153