/*--------------------------------*- C++ -*----------------------------------*\
  =========                 |
  \\      /  F ield         | OpenFOAM: The Open Source CFD Toolbox
   \\    /   O peration     | Website:  https://openfoam.org
    \\  /    A nd           | Version:  7
     \\/     M anipulation  |
\*---------------------------------------------------------------------------*/
FoamFile
{
    version     2.0;
    format      ascii;
    class       volScalarField;
    location    "0.0125";
    object      p;
}
// * * * * * * * * * * * * * * * * * * * * * * * * * * * * * * * * * * * * * //

dimensions      [0 2 -2 0 0 0 0];

internalField   nonuniform List<scalar> 
400
(
-8.03145e-08
-0.00426589
-0.00729813
-0.0076269
-0.00459069
0.00184016
0.0113182
0.023301
0.037149
0.0521697
0.0676377
0.0828068
0.0969219
0.109238
0.119054
0.12577
0.129005
0.128799
0.125838
0.121604
0.00404749
-0.000324275
-0.00257581
-0.00219257
0.000993452
0.0070408
0.0157296
0.0266387
0.0392294
0.0528892
0.0669597
0.0807571
0.0935951
0.104813
0.113815
0.120127
0.123496
0.123982
0.121781
0.117435
0.00714144
0.00154056
-0.000936414
-0.000432706
0.00278593
0.0087152
0.0171504
0.0276998
0.03986
0.0530521
0.0666472
0.079989
0.0924184
0.103304
0.112076
0.118283
0.121681
0.122259
0.119785
0.114166
0.00807805
0.000897988
-0.00223897
-0.00187779
0.00138203
0.00744831
0.0160766
0.0268514
0.0392598
0.0527196
0.0666001
0.0802412
0.0929758
0.104157
0.113192
0.119586
0.12304
0.123454
0.120268
0.113016
0.00614342
-0.00260589
-0.00647713
-0.00626734
-0.00283363
0.00364677
0.012869
0.0243667
0.0375902
0.0519295
0.0667281
0.0812985
0.0949394
0.106959
0.116703
0.123602
0.127275
0.127527
0.123553
0.114666
0.000884504
-0.00952076
-0.0141607
-0.0140209
-0.010194
-0.00294886
0.00732853
0.0200961
0.0347437
0.0506121
0.0669999
0.0831724
0.098372
0.111835
0.122814
0.130625
0.134777
0.134967
0.130161
0.119518
-0.00809566
-0.0204372
-0.0259073
-0.025695
-0.0211703
-0.0127215
-0.000845977
0.0138098
0.0305525
0.0486571
0.0673638
0.0858774
0.103368
0.118974
0.131824
0.141076
0.146077
0.146377
0.140661
0.12792
-0.0213288
-0.0360966
-0.0424873
-0.0419842
-0.0363481
-0.0261442
-0.0120258
0.00522199
0.0248017
0.045912
0.0677305
0.0893985
0.110006
0.128579
0.144083
0.155464
0.16184
0.162526
0.155791
0.140365
-0.039623
-0.0575375
-0.0649448
-0.0638087
-0.0564875
-0.0438195
-0.0266778
-0.00602613
0.0172163
0.0421709
0.0679625
0.0936817
0.118346
0.140864
0.160006
0.17444
0.182947
0.184473
0.176614
0.157633
-0.0642192
-0.0862552
-0.0947135
-0.0923777
-0.0825457
-0.0664778
-0.0453508
-0.0203516
0.00746982
0.0371726
0.0678582
0.098603
0.128386
0.156013
0.180043
0.198787
0.210556
0.2137
0.204707
0.180985
-0.0970522
-0.124436
-0.133764
-0.129251
-0.115681
-0.0949475
-0.0686338
-0.0381893
-0.00478679
0.0306102
0.0671384
0.10393
0.139998
0.174101
0.204601
0.229391
0.246137
0.252269
0.242445
0.212483
-0.141237
-0.175323
-0.184799
-0.176392
-0.157216
-0.130077
-0.0970642
-0.0599054
-0.0198552
0.0221761
0.0654591
0.109297
0.152863
0.194991
0.233932
0.267148
0.291492
0.303026
0.293437
0.255611
-0.20199
-0.24379
-0.251473
-0.236158
-0.208506
-0.172551
-0.130934
-0.0856182
-0.0378382
0.0116786
0.062485
0.114225
0.166426
0.218222
0.267962
0.3128
0.3487
0.369819
0.363199
0.316435
-0.288414
-0.337196
-0.338535
-0.311078
-0.270572
-0.222483
-0.169911
-0.114869
-0.0583635
-0.000734251
0.0580597
0.118227
0.179919
0.242916
0.306071
0.366635
0.419878
0.457635
0.460141
0.405838
-0.416947
-0.466555
-0.451561
-0.40306
-0.343197
-0.278604
-0.212363
-0.146085
-0.0801656
-0.0142429
0.0524724
0.121011
0.192469
0.267732
0.346826
0.427957
0.506559
0.572368
0.596888
0.543647
-0.617101
-0.647654
-0.595828
-0.511739
-0.423356
-0.336988
-0.254444
-0.175964
-0.100662
-0.0270446
0.0467221
0.122739
0.203303
0.290986
0.387848
0.494573
0.608793
0.720043
0.791415
0.764759
-0.940928
-0.900511
-0.773823
-0.63243
-0.503656
-0.390071
-0.289638
-0.199366
-0.116036
-0.0364788
0.0424438
0.124079
0.211903
0.310951
0.426173
0.562993
0.724801
0.905407
1.06674
1.12828
-1.5027
-1.24244
-0.973253
-0.748289
-0.568122
-0.424913
-0.308519
-0.20985
-0.122064
-0.0399557
0.0408947
0.12488
0.217073
0.324297
0.455868
0.624582
0.844395
1.12187
1.44719
1.76146
-2.61557
-1.6635
-1.11855
-0.794918
-0.572737
-0.413873
-0.294733
-0.198267
-0.114084
-0.0357526
0.0415174
0.122194
0.211804
0.318334
0.454771
0.642596
0.912089
1.30487
1.9367
2.99484
-4.50716
-2.09758
-1.0687
-0.673124
-0.462861
-0.329664
-0.2355
-0.159214
-0.0904555
-0.0243344
0.0421418
0.111849
0.188477
0.278396
0.394128
0.56121
0.828357
1.31491
2.45823
4.98406
)
;

boundaryField
{
    movingWall
    {
        type            zeroGradient;
    }
    fixedWalls
    {
        type            zeroGradient;
    }
    frontAndBack
    {
        type            empty;
    }
}


// ************************************************************************* //
