/*--------------------------------*- C++ -*----------------------------------*\
  =========                 |
  \\      /  F ield         | OpenFOAM: The Open Source CFD Toolbox
   \\    /   O peration     | Website:  https://openfoam.org
    \\  /    A nd           | Version:  7
     \\/     M anipulation  |
\*---------------------------------------------------------------------------*/
FoamFile
{
    version     2.0;
    format      ascii;
    class       surfaceScalarField;
    location    "0.0125";
    object      phi;
}
// * * * * * * * * * * * * * * * * * * * * * * * * * * * * * * * * * * * * * //

dimensions      [0 3 -1 0 0 0 0];

internalField   nonuniform List<scalar> 
760
(
-2.75437e-09
2.75491e-09
-4.66714e-08
4.39169e-08
-1.24085e-07
7.7413e-08
-2.17391e-07
9.33065e-08
-3.12642e-07
9.52515e-08
-4.00118e-07
8.74754e-08
-4.73431e-07
7.33134e-08
-5.28558e-07
5.5127e-08
-5.63041e-07
3.44824e-08
-5.75476e-07
1.24352e-08
-5.65269e-07
-1.02073e-08
-5.32589e-07
-3.26799e-08
-4.78506e-07
-5.40837e-08
-4.0531e-07
-7.31953e-08
-3.17082e-07
-8.82279e-08
-2.20494e-07
-9.65887e-08
-1.2572e-07
-9.47739e-08
-4.71841e-08
-7.85357e-08
-2.6994e-09
-4.44848e-08
-2.69969e-09
-4.30009e-08
4.57557e-08
-1.69261e-07
1.70177e-07
-3.53963e-07
2.62115e-07
-5.67796e-07
3.07139e-07
-7.84401e-07
3.11857e-07
-9.83523e-07
2.86597e-07
-1.15088e-06
2.40671e-07
-1.27697e-06
1.81214e-07
-1.35578e-06
1.13295e-07
-1.38389e-06
4.05412e-08
-1.35992e-06
-3.41754e-08
-1.28447e-06
-1.08132e-07
-1.16035e-06
-1.78202e-07
-9.9326e-07
-2.40285e-07
-7.92801e-07
-2.88687e-07
-5.73762e-07
-3.15628e-07
-3.57204e-07
-3.11332e-07
-1.70321e-07
-2.65419e-07
-4.30006e-08
-1.71805e-07
-4.56999e-08
-7.88669e-08
1.24622e-07
-2.72185e-07
3.63495e-07
-5.38937e-07
5.28867e-07
-8.3987e-07
6.08072e-07
-1.14119e-06
6.1318e-07
-1.41674e-06
5.62148e-07
-1.64777e-06
4.71696e-07
-1.82158e-06
3.55029e-07
-1.93009e-06
2.21805e-07
-1.96866e-06
7.91058e-08
-1.93545e-06
-6.73867e-08
-1.8313e-06
-2.12284e-07
-1.66005e-06
-3.49447e-07
-1.4294e-06
-4.70937e-07
-1.15213e-06
-5.65955e-07
-8.47643e-07
-6.20114e-07
-5.4315e-07
-6.15825e-07
-2.73573e-07
-5.34995e-07
-7.89262e-08
-3.66452e-07
-1.24626e-07
-1.04636e-07
2.29258e-07
-3.52733e-07
6.11591e-07
-6.87349e-07
8.63484e-07
-1.05897e-06
9.79692e-07
-1.42723e-06
9.81444e-07
-1.7617e-06
8.96613e-07
-2.04086e-06
7.50853e-07
-2.2503e-06
5.64472e-07
-2.38091e-06
3.52415e-07
-2.42747e-06
1.25667e-07
-2.38789e-06
-1.06972e-07
-2.26299e-06
-3.37181e-07
-2.05697e-06
-5.55467e-07
-1.77839e-06
-7.49518e-07
-1.44174e-06
-9.02607e-07
-1.06932e-06
-9.92535e-07
-6.92934e-07
-9.92206e-07
-3.54499e-07
-8.7343e-07
-1.04609e-07
-6.16341e-07
-2.29236e-07
-1.25534e-07
3.54792e-07
-4.22764e-07
9.08821e-07
-8.20182e-07
1.2609e-06
-1.25729e-06
1.4168e-06
-1.68669e-06
1.41085e-06
-2.07388e-06
1.28381e-06
-2.39528e-06
1.07225e-06
-2.63559e-06
8.04779e-07
-2.78538e-06
5.02205e-07
-2.83932e-06
1.7961e-07
-2.79516e-06
-1.51135e-07
-2.65347e-06
-4.78875e-07
-2.41818e-06
-7.9076e-07
-2.09788e-06
-1.06981e-06
-1.70788e-06
-1.29261e-06
-1.27274e-06
-1.42768e-06
-8.28797e-07
-1.43615e-06
-4.25677e-07
-1.27655e-06
-1.25591e-07
-9.16427e-07
-3.54827e-07
-1.46597e-07
5.01389e-07
-4.95197e-07
1.25742e-06
-9.59226e-07
1.72493e-06
-1.46568e-06
1.92326e-06
-1.95902e-06
1.90418e-06
-2.40033e-06
1.72512e-06
-2.76426e-06
1.43618e-06
-3.03525e-06
1.07577e-06
-3.20421e-06
6.71165e-07
-3.26612e-06
2.41519e-07
-3.21865e-06
-1.98605e-07
-3.06182e-06
-6.35708e-07
-2.79866e-06
-1.05391e-06
-2.43698e-06
-1.43149e-06
-1.99214e-06
-1.73745e-06
-1.49064e-06
-1.92917e-06
-9.73904e-07
-1.95289e-06
-5.00784e-07
-1.74967e-06
-1.4713e-07
-1.27008e-06
-5.01957e-07
-1.7191e-07
6.733e-07
-5.81629e-07
1.66714e-06
-1.12417e-06
2.26747e-06
-1.71117e-06
2.51025e-06
-2.27723e-06
2.47024e-06
-2.77863e-06
2.22652e-06
-3.1887e-06
1.84625e-06
-3.49245e-06
1.37952e-06
-3.68198e-06
8.60693e-07
-3.75313e-06
3.12668e-07
-3.70363e-06
-2.48107e-07
-3.53257e-06
-8.06763e-07
-3.2413e-06
-1.34519e-06
-2.83569e-06
-1.8371e-06
-2.33008e-06
-2.24306e-06
-1.7524e-06
-2.50685e-06
-1.14974e-06
-2.55555e-06
-5.92416e-07
-2.30699e-06
-1.73597e-07
-1.6889e-06
-6.75553e-07
-2.05197e-07
8.78497e-07
-6.92983e-07
2.15492e-06
-1.33329e-06
2.90778e-06
-2.01771e-06
3.19468e-06
-2.66892e-06
3.12144e-06
-3.23825e-06
2.79585e-06
-3.69874e-06
2.30675e-06
-4.03745e-06
1.71823e-06
-4.24894e-06
1.07219e-06
-4.33081e-06
3.9454e-07
-4.28109e-06
-2.97828e-07
-4.0975e-06
-9.90355e-07
-3.77851e-06
-1.66418e-06
-3.32642e-06
-2.28918e-06
-2.75268e-06
-2.81681e-06
-2.08529e-06
-3.17425e-06
-1.37722e-06
-3.26362e-06
-7.13049e-07
-2.97116e-06
-2.09185e-07
-2.19277e-06
-8.84739e-07
-2.50638e-07
1.12914e-06
-8.41158e-07
2.74544e-06
-1.6054e-06
3.67203e-06
-2.40819e-06
3.99747e-06
-3.15796e-06
3.87121e-06
-3.80185e-06
3.43974e-06
-4.31482e-06
2.81972e-06
-4.68841e-06
2.09182e-06
-4.92174e-06
1.30552e-06
-5.01547e-06
4.88268e-07
-4.96836e-06
-3.44931e-07
-4.77624e-06
-1.18248e-06
-4.43316e-06
-2.00726e-06
-3.93529e-06
-2.78705e-06
-3.28805e-06
-3.46404e-06
-2.51669e-06
-3.94561e-06
-1.67908e-06
-4.10123e-06
-8.77065e-07
-3.77318e-06
-2.58906e-07
-2.81092e-06
-1.14364e-06
-3.13933e-07
1.44307e-06
-1.04098e-06
3.47249e-06
-1.96176e-06
4.5928e-06
-2.90531e-06
4.94101e-06
-3.76417e-06
4.73007e-06
-4.48386e-06
4.15943e-06
-5.04529e-06
3.38115e-06
-5.44839e-06
2.49492e-06
-5.69989e-06
1.55702e-06
-5.8054e-06
5.93776e-07
-5.76515e-06
-3.85181e-07
-5.5725e-06
-1.37512e-06
-5.21516e-06
-2.36461e-06
-4.67966e-06
-3.32255e-06
-3.9605e-06
-4.1832e-06
-3.07483e-06
-4.83128e-06
-2.08195e-06
-5.0941e-06
-1.10306e-06
-4.75208e-06
-3.29864e-07
-3.58412e-06
-1.47351e-06
-4.0358e-07
1.84665e-06
-1.31186e-06
4.38077e-06
-2.42617e-06
5.70711e-06
-3.5291e-06
6.04395e-06
-4.49803e-06
5.699e-06
-5.28273e-06
4.94413e-06
-5.87692e-06
3.97534e-06
-6.29469e-06
2.9127e-06
-6.55438e-06
1.81671e-06
-6.669e-06
7.08398e-07
-6.6413e-06
-4.12887e-07
-6.46184e-06
-1.55458e-06
-6.10988e-06
-2.71656e-06
-5.55803e-06
-3.87441e-06
-4.78289e-06
-4.95834e-06
-3.7846e-06
-5.82957e-06
-2.61576e-06
-6.26295e-06
-1.41556e-06
-5.95227e-06
-4.32771e-07
-4.56691e-06
-1.90628e-06
-5.32404e-07
2.37905e-06
-1.67804e-06
5.52641e-06
-3.02078e-06
7.04985e-06
-4.28703e-06
7.3102e-06
-5.3456e-06
6.75756e-06
-6.16217e-06
5.7607e-06
-6.75384e-06
4.56702e-06
-7.15637e-06
3.31523e-06
-7.40433e-06
2.06467e-06
-7.52075e-06
8.24815e-07
-7.51216e-06
-4.21478e-07
-7.36651e-06
-1.70023e-06
-7.05317e-06
-3.02989e-06
-6.5265e-06
-4.40108e-06
-5.73672e-06
-5.74812e-06
-4.65348e-06
-6.91281e-06
-3.30693e-06
-7.60949e-06
-1.8445e-06
-7.4147e-06
-5.8362e-07
-5.82779e-06
-2.4899e-06
-7.19282e-07
3.09833e-06
-2.16538e-06
6.9725e-06
-3.75269e-06
8.63717e-06
-5.15013e-06
8.70763e-06
-6.23694e-06
7.84438e-06
-7.01497e-06
6.53873e-06
-7.53918e-06
5.09123e-06
-7.87516e-06
3.6512e-06
-8.07759e-06
2.2671e-06
-8.18127e-06
9.28487e-07
-8.19769e-06
-4.05051e-07
-8.11332e-06
-1.7846e-06
-7.88806e-06
-3.25516e-06
-7.4558e-06
-4.83333e-06
-6.73231e-06
-6.47162e-06
-5.6396e-06
-8.00552e-06
-4.15886e-06
-9.09023e-06
-2.41909e-06
-9.15447e-06
-8.05155e-07
-7.44172e-06
-3.29505e-06
-9.9077e-07
4.0891e-06
-2.78995e-06
8.77168e-06
-4.5829e-06
1.04301e-05
-6.00577e-06
1.01305e-05
-6.98964e-06
8.82824e-06
-7.60335e-06
7.15244e-06
-7.9559e-06
5.44378e-06
-8.14819e-06
3.8435e-06
-8.25518e-06
2.37409e-06
-8.32238e-06
9.95686e-07
-8.3665e-06
-3.60934e-07
-8.3749e-06
-1.77619e-06
-8.30221e-06
-3.32786e-06
-8.06524e-06
-5.0703e-06
-7.54272e-06
-6.99414e-06
-6.59259e-06
-8.95565e-06
-5.10969e-06
-1.05731e-05
-3.14971e-06
-1.11145e-05
-1.12707e-06
-9.46436e-06
-4.42212e-06
-1.38029e-06
5.46939e-06
-3.52837e-06
1.09198e-05
-5.36335e-06
1.22651e-05
-6.57512e-06
1.13423e-05
-7.22153e-06
9.47465e-06
-7.47626e-06
7.40717e-06
-7.5123e-06
5.47982e-06
-7.46156e-06
3.79276e-06
-7.41089e-06
2.32341e-06
-7.40987e-06
9.94668e-07
-7.47828e-06
-2.92525e-07
-7.6081e-06
-1.64637e-06
-7.75827e-06
-3.17769e-06
-7.84213e-06
-4.98644e-06
-7.71285e-06
-7.12342e-06
-7.16044e-06
-9.50805e-06
-5.9541e-06
-1.17795e-05
-3.98492e-06
-1.30836e-05
-1.5804e-06
-1.18689e-05
-6.00252e-06
-1.91223e-06
7.38162e-06
-4.24219e-06
1.32497e-05
-5.71684e-06
1.37397e-05
-6.28496e-06
1.19104e-05
-6.23888e-06
9.42858e-06
-5.88246e-06
7.05075e-06
-5.43873e-06
5.03609e-06
-5.04553e-06
3.39957e-06
-4.77915e-06
2.05703e-06
-4.67845e-06
8.93971e-07
-4.76045e-06
-2.10526e-07
-5.02565e-06
-1.38117e-06
-5.45273e-06
-2.75061e-06
-5.97827e-06
-4.4609e-06
-6.46575e-06
-6.63594e-06
-6.6668e-06
-9.30701e-06
-6.21234e-06
-1.22339e-05
-4.71495e-06
-1.4581e-05
-2.16849e-06
-1.44153e-05
-8.17102e-06
-2.53652e-06
9.91814e-06
-4.48604e-06
1.51992e-05
-4.81361e-06
1.40673e-05
-4.09076e-06
1.11875e-05
-2.93044e-06
8.26826e-06
-1.72848e-06
5.84879e-06
-6.92363e-07
3.99997e-06
9.00549e-08
2.61715e-06
5.90924e-07
1.55616e-06
8.03885e-07
6.8101e-07
7.23545e-07
-1.30186e-07
3.38297e-07
-9.95919e-07
-3.64737e-07
-2.04758e-06
-1.38427e-06
-3.44137e-06
-2.65738e-06
-5.36283e-06
-3.98424e-06
-7.98015e-06
-4.92878e-06
-1.12894e-05
-4.7666e-06
-1.47432e-05
-2.77769e-06
-1.64042e-05
-1.09487e-05
-2.92525e-06
1.28434e-05
-3.01633e-06
1.52903e-05
-9.58424e-07
1.20094e-05
1.73845e-06
8.49066e-06
4.27015e-06
5.73656e-06
6.33952e-06
3.77942e-06
7.89296e-06
2.44653e-06
8.97152e-06
1.53858e-06
9.63497e-06
8.92719e-07
9.92725e-06
3.88727e-07
9.8628e-06
-6.57376e-08
9.421e-06
-5.54122e-07
8.54468e-06
-1.17125e-06
7.14896e-06
-2.04566e-06
5.15052e-06
-3.36439e-06
2.55262e-06
-5.38225e-06
-3.72379e-07
-8.36437e-06
-2.76556e-06
-1.235e-05
-2.9507e-06
-1.62191e-05
-1.38994e-05
-6.81771e-07
1.35252e-05
3.62693e-06
1.09816e-05
9.13978e-06
6.49655e-06
1.37741e-05
3.85636e-06
1.72086e-05
2.30208e-06
1.9614e-05
1.37396e-06
2.12376e-05
8.22955e-07
2.22871e-05
4.89038e-07
2.29069e-05
2.7301e-07
2.31801e-05
1.15435e-07
2.31372e-05
-2.275e-08
2.27552e-05
-1.72147e-07
2.19545e-05
-3.70554e-07
2.05836e-05
-6.74742e-07
1.8405e-05
-1.18578e-06
1.51076e-05
-2.08493e-06
1.04323e-05
-3.68906e-06
4.64324e-06
-6.56096e-06
-1.5801e-07
-1.14178e-05
-1.40574e-05
1.35252e-05
2.45068e-05
3.10033e-05
3.48597e-05
3.71618e-05
3.85357e-05
3.93587e-05
3.98477e-05
4.01207e-05
4.02362e-05
4.02134e-05
4.00413e-05
3.96707e-05
3.8996e-05
3.78102e-05
3.57253e-05
3.20362e-05
2.54753e-05
1.40574e-05
)
;

boundaryField
{
    movingWall
    {
        type            calculated;
        value           uniform 0;
    }
    fixedWalls
    {
        type            calculated;
        value           uniform 0;
    }
    frontAndBack
    {
        type            empty;
        value           nonuniform 0();
    }
}


// ************************************************************************* //
