/*--------------------------------*- C++ -*----------------------------------*\
  =========                 |
  \\      /  F ield         | OpenFOAM: The Open Source CFD Toolbox
   \\    /   O peration     | Website:  https://openfoam.org
    \\  /    A nd           | Version:  7
     \\/     M anipulation  |
\*---------------------------------------------------------------------------*/
FoamFile
{
    version     2.0;
    format      ascii;
    class       surfaceScalarField;
    location    "0.4";
    object      phi;
}
// * * * * * * * * * * * * * * * * * * * * * * * * * * * * * * * * * * * * * //

dimensions      [0 3 -1 0 0 0 0];

internalField   nonuniform List<scalar> 
63520
(
1.05933e-05
0.000432034
-0.000442631
8.81021e-05
-0.00116401
0.0010865
0.000251738
-0.00377427
0.00361064
0.000502014
-0.0064712
0.00622092
0.000828643
-0.00879099
0.00846436
0.00121361
-0.010586
0.0102011
0.00164238
-0.011854
0.0114252
0.00209843
-0.0126776
0.0122215
0.0025705
-0.0131545
0.0126824
0.00305066
-0.0133746
0.0128944
0.00353175
-0.0134151
0.012934
0.00401073
-0.0133336
0.0128546
0.00448525
-0.0131725
0.012698
0.00495387
-0.0129638
0.0124952
0.00541609
-0.0127272
0.012265
0.00587166
-0.0124781
0.0120225
0.00632099
-0.012225
0.0117756
0.00676388
-0.0119747
0.0115318
0.0072009
-0.0117307
0.0112937
0.00763245
-0.0114959
0.0110644
0.00805911
-0.0112711
0.0108444
0.00848079
-0.0110569
0.0106352
0.00889811
-0.0108537
0.0104364
0.00931144
-0.0106611
0.0102478
0.00972143
-0.0104791
0.0100691
0.010128
-0.0103062
0.00989955
0.0105313
-0.0101426
0.00973936
0.010932
-0.00998804
0.00958733
0.0113302
-0.00984141
0.00944317
0.011726
-0.00970275
0.00930694
0.0121197
-0.00957109
0.00917742
0.0125114
-0.00944606
0.00905439
0.0129013
-0.00932739
0.00893743
0.0132896
-0.00921422
0.0088259
0.0136763
-0.00910639
0.00871969
0.0140617
-0.00900362
0.0086183
0.0144456
-0.00890535
0.00852145
0.0148281
-0.00881147
0.00842891
0.0152096
-0.00872077
0.0083393
-0.00862369
0.0155892
0.00824405
1.33126e-05
0.000418727
9.64608e-05
-0.00124715
0.000266803
-0.00394461
0.000524012
-0.00672842
0.000857101
-0.00912408
0.00124645
-0.0109754
0.00167733
-0.0122849
0.00213387
-0.0131341
0.00260457
-0.0136252
0.00308197
-0.013852
0.00355932
-0.0138925
0.00403341
-0.0138077
0.0045025
-0.0136416
0.00496548
-0.0134268
0.00542203
-0.0131838
0.00587181
-0.0129279
0.00631503
-0.0126682
0.00675225
-0.0124119
0.00718398
-0.0121625
0.00761034
-0.0119223
0.00803165
-0.0116924
0.00844842
-0.0114737
0.00886137
-0.0112667
0.0092705
-0.0110702
0.00967598
-0.0108846
0.0100786
-0.0107087
0.0104782
-0.0105422
0.0108753
-0.0103851
0.0112701
-0.0102362
0.0116626
-0.0100952
0.012053
-0.00996156
0.0124416
-0.00983465
0.0128285
-0.00971423
0.0132138
-0.00959953
0.0135975
-0.00949012
0.0139799
-0.00938601
0.0143612
-0.00928669
0.0147415
-0.0091917
0.0151201
-0.0090994
-0.00900054
0.015497
1.57859e-05
0.000402939
0.000104773
-0.00133614
0.000282912
-0.00412275
0.000547565
-0.00699307
0.00088683
-0.00946335
0.00128055
-0.0113691
0.00171358
-0.0127179
0.00217035
-0.0135909
0.00263938
-0.0140942
0.00311319
-0.0143258
0.00358604
-0.0143653
0.00405503
-0.0142767
0.00451868
-0.0141053
0.00497565
-0.0138838
0.00542581
-0.0136339
0.00586938
-0.0133715
0.00630677
-0.0131056
0.00673804
-0.0128432
0.0071638
-0.0125882
0.00758454
-0.012343
0.00800081
-0.0121087
0.00841261
-0.0118855
0.00882051
-0.0116746
0.00922513
-0.0114749
0.00962627
-0.0112857
0.0100246
-0.0111071
0.0104205
-0.0109381
0.0108138
-0.0107785
0.0112049
-0.0106273
0.0115937
-0.0104841
0.0119808
-0.0103486
0.0123661
-0.01022
0.0127495
-0.0100976
0.0131315
-0.00998154
0.0135124
-0.00987101
0.0138919
-0.00976548
0.0142701
-0.00966489
0.0146471
-0.00956873
0.015023
-0.0094753
-0.00937436
0.0153968
1.8619e-05
0.000384322
0.000114036
-0.00143156
0.000300097
-0.00430881
0.000572342
-0.00726532
0.000917773
-0.00980878
0.00131602
-0.0117673
0.00175061
-0.0131525
0.00220691
-0.0140472
0.00267381
-0.0145611
0.0031439
-0.0147959
0.00361204
-0.0148334
0.00407542
-0.0147401
0.00453286
-0.0145627
0.00498355
-0.0143345
0.00542739
-0.0140778
0.00586439
-0.0138085
0.00629534
-0.0135365
0.00672057
-0.0132684
0.00714052
-0.0130082
0.00755529
-0.0127578
0.0079659
-0.0125193
0.00837273
-0.0122923
0.00877561
-0.0120774
0.00917524
-0.0118745
0.00957203
-0.0116825
0.00996617
-0.0115012
0.0103577
-0.0113297
0.0107469
-0.0111676
0.0111342
-0.0110146
0.0115196
-0.0108694
0.0119028
-0.0107318
0.0122844
-0.0106016
0.0126647
-0.0104779
0.0130434
-0.0103603
0.0134207
-0.0102483
0.0137969
-0.0101417
0.0141721
-0.0100401
0.014546
-0.00994266
0.0149187
-0.00984798
-0.00974496
0.0152893
2.16453e-05
0.000362679
0.000123561
-0.00153347
0.000318028
-0.00450327
0.000598367
-0.00754565
0.000949391
-0.0101598
0.0013516
-0.0121696
0.00178766
-0.0135885
0.00224351
-0.014503
0.00270784
-0.0150255
0.00317337
-0.0152614
0.00363635
-0.0152964
0.00409409
-0.0151978
0.00454518
-0.0150138
0.00498896
-0.0147782
0.005426
-0.0145148
0.00585658
-0.014239
0.00628101
-0.013961
0.00669952
-0.0136869
0.00711323
-0.0134219
0.00752244
-0.013167
0.0079272
-0.012924
0.00832835
-0.0126935
0.00872627
-0.0124754
0.00912119
-0.0122694
0.00951312
-0.0120744
0.00990249
-0.0118906
0.0102899
-0.0117171
0.0106752
-0.0115529
0.0110581
-0.0113975
0.0114393
-0.0112507
0.011819
-0.0111116
0.012197
-0.0109795
0.0125734
-0.0108543
0.0129485
-0.0107355
0.0133226
-0.0106224
0.0136954
-0.0105146
0.0140671
-0.0104117
0.0144378
-0.0103134
0.0148073
-0.0102174
-0.0101125
0.0151748
2.46383e-05
0.000338042
0.000133617
-0.00164245
0.000336436
-0.00470609
0.000624446
-0.00783366
0.000981332
-0.0105167
0.00138761
-0.0125758
0.00182472
-0.0140256
0.00227909
-0.0149574
0.00274055
-0.0154869
0.00320189
-0.0157228
0.00365923
-0.0157538
0.00411032
-0.0156489
0.00455473
-0.0154582
0.00499196
-0.0152155
0.00542196
-0.0149448
0.00584518
-0.0146622
0.00626291
-0.0143787
0.00667524
-0.0140993
0.00708226
-0.0138289
0.00748503
-0.0135698
0.00788421
-0.0133232
0.00828009
-0.0130893
0.00867247
-0.0128678
0.00906193
-0.0126588
0.00944932
-0.0124618
0.0098343
-0.0122756
0.0102168
-0.0120996
0.0105974
-0.0119335
0.0109764
-0.0117765
0.0113536
-0.0116279
0.0117291
-0.011487
0.0121031
-0.0113536
0.0124759
-0.0112271
0.0128474
-0.011107
0.0132177
-0.0109927
0.013587
-0.0108838
0.0139553
-0.01078
0.0143226
-0.0106807
0.0146886
-0.0105835
-0.0104766
0.0150527
2.78715e-05
0.000310171
0.00014394
-0.00175852
0.000355019
-0.00491717
0.000651116
-0.00812975
0.00101361
-0.0108792
0.00142286
-0.0129851
0.00186097
-0.0144637
0.00231427
-0.0154107
0.00277222
-0.0159449
0.00322821
-0.0161787
0.00367981
-0.0162054
0.00412479
-0.0160939
0.00456191
-0.0158953
0.00499133
-0.0156449
0.00541438
-0.0153679
0.00583097
-0.0150788
0.00624129
-0.014789
0.0066464
-0.0145044
0.00704716
-0.0142297
0.00744404
-0.0139667
0.00783695
-0.0137161
0.00822664
-0.013479
0.00861391
-0.013255
0.00899845
-0.0130434
0.00938036
-0.0128437
0.00976025
-0.0126555
0.0101383
-0.0124777
0.0105145
-0.0123097
0.0108888
-0.0121509
0.0112617
-0.0120007
0.0116331
-0.0118585
0.0120032
-0.0117237
0.012372
-0.0115959
0.0127396
-0.0114746
0.0131062
-0.0113592
0.0134718
-0.0112494
0.0138364
-0.0111447
0.0142001
-0.0110443
0.0145626
-0.010946
-0.0108371
0.014923
3.09903e-05
0.000279182
0.00015455
-0.00188208
0.000374053
-0.00513668
0.000677537
-0.00843324
0.00104551
-0.0112472
0.00145812
-0.0133977
0.00189677
-0.0149024
0.00234769
-0.0158616
0.00280191
-0.0163991
0.00325324
-0.0166301
0.00369845
-0.0166506
0.00413592
-0.0165314
0.00456583
-0.0163253
0.00498826
-0.0160673
0.00540352
-0.0157831
0.00581232
-0.0154876
0.00621559
-0.0151923
0.00661416
-0.014903
0.007008
-0.0146235
0.00739801
-0.0143567
0.00778505
-0.0141032
0.00816909
-0.0138631
0.00855037
-0.0136363
0.00892934
-0.0134224
0.00930622
-0.0132206
0.00968108
-0.0130303
0.0100541
-0.0128507
0.0104255
-0.0126811
0.0107953
-0.0125208
0.0111638
-0.0123692
0.0115309
-0.0122256
0.0118967
-0.0120895
0.0122615
-0.0119606
0.0126252
-0.0118383
0.0129878
-0.0117219
0.0133495
-0.0116111
0.0137104
-0.0115055
0.0140703
-0.0114043
0.0144291
-0.0113047
-0.0111936
0.0147856
3.45148e-05
0.000244667
0.000165158
-0.00201272
0.000392809
-0.00536433
0.000704161
-0.00874459
0.00107753
-0.0116205
0.00149244
-0.0138126
0.00193124
-0.0153412
0.00238016
-0.0163105
0.0028301
-0.016849
0.00327553
-0.0170755
0.00371423
-0.0170893
0.00414475
-0.0169619
0.00456685
-0.0167474
0.00498119
-0.0164817
0.00538878
-0.0161907
0.00579032
-0.0158892
0.00618601
-0.015588
0.00657709
-0.015294
0.00696432
-0.0150107
0.0073479
-0.0147403
0.00772838
-0.0144836
0.00810623
-0.0142409
0.00848175
-0.0140118
0.00885514
-0.0137957
0.00922652
-0.013592
0.00959609
-0.0133999
0.00996406
-0.0132186
0.0103306
-0.0130476
0.0106957
-0.0128859
0.0110595
-0.012733
0.0114222
-0.0125882
0.0117838
-0.0124511
0.0121443
-0.0123212
0.0125038
-0.0121978
0.0128624
-0.0120805
0.0132203
-0.0119689
0.0135772
-0.0118625
0.0139332
-0.0117603
0.0142879
-0.0116594
-0.011546
0.0146403
3.78162e-05
0.00020685
0.000175982
-0.00215089
0.000412035
-0.00560038
0.000730402
-0.00906295
0.00110875
-0.0119989
0.00152627
-0.0142301
0.00196486
-0.0157798
0.00241074
-0.0167564
0.00285601
-0.0172943
0.00329578
-0.0175153
0.00372741
-0.0175209
0.00415007
-0.0173845
0.00456428
-0.0171616
0.00497089
-0.0168883
0.00537032
-0.0165902
0.00576383
-0.0162827
0.00615211
-0.0159763
0.00653591
-0.0156778
0.00691601
-0.0153908
0.00729279
-0.0151171
0.00766677
-0.0148576
0.00803837
-0.0146125
0.00840783
-0.0143813
0.00877535
-0.0141633
0.00914113
-0.0139578
0.00950532
-0.0137641
0.00986805
-0.0135814
0.0102294
-0.013409
0.0105897
-0.0132461
0.0109488
-0.0130921
0.0113069
-0.0129464
0.0116641
-0.0128083
0.0120203
-0.0126774
0.0123756
-0.0125531
0.0127301
-0.012435
0.0130839
-0.0123227
0.0134368
-0.0122154
0.0137886
-0.0121121
0.0141391
-0.0120099
-0.0118941
0.0144872
4.13641e-05
0.000165485
0.000186788
-0.00229631
0.000431044
-0.00584463
0.000756508
-0.00938842
0.00113971
-0.0123821
0.00155904
-0.0146495
0.00199679
-0.0162175
0.00243968
-0.0171993
0.00287996
-0.0177346
0.00331324
-0.0179486
0.00373738
-0.017945
0.00415225
-0.0177994
0.00455827
-0.0175676
0.00495655
-0.0172866
0.00534778
-0.0169814
0.00573322
-0.0166681
0.00611381
-0.0163568
0.00649009
-0.0160541
0.00686288
-0.0157636
0.00723276
-0.0154869
0.00760008
-0.0152249
0.00796519
-0.0149776
0.00832838
-0.0147445
0.00868991
-0.0145248
0.00904991
-0.0143178
0.00940849
-0.0141227
0.00976579
-0.0139387
0.010122
-0.0137652
0.0104772
-0.0136014
0.0108315
-0.0134464
0.0111849
-0.0132998
0.0115375
-0.0131609
0.0118893
-0.0130291
0.0122403
-0.0129041
0.0125906
-0.0127853
0.0129402
-0.0126722
0.0132889
-0.0125641
0.0136366
-0.0124599
0.0139829
-0.0123562
-0.012238
0.0143268
4.48767e-05
0.000120608
0.000197664
-0.00244909
0.000450089
-0.00609706
0.000782264
-0.00972059
0.00116998
-0.0127698
0.00159083
-0.0150703
0.00202724
-0.0166539
0.00246657
-0.0176386
0.00290138
-0.0181694
0.00332788
-0.0183751
0.00374424
-0.0183614
0.00415089
-0.0182061
0.00454845
-0.0179652
0.00493818
-0.0176763
0.00532105
-0.0173643
0.00569826
-0.0170454
0.00607087
-0.0167294
0.00643951
-0.0164228
0.0068049
-0.016129
0.00716763
-0.0158497
0.00752808
-0.0155854
0.00788654
-0.0153361
0.00824333
-0.0151013
0.00859866
-0.0148801
0.00895265
-0.0146718
0.00930542
-0.0144754
0.00965717
-0.0142904
0.010008
-0.014116
0.0103581
-0.0139514
0.0107074
-0.0137958
0.011056
-0.0136484
0.0114039
-0.0135088
0.0117512
-0.0133764
0.0120979
-0.0132508
0.0124439
-0.0131313
0.0127892
-0.0130175
0.0131338
-0.0129086
0.0134773
-0.0128034
0.0138194
-0.0126983
-0.0125775
0.0141589
4.84366e-05
7.21716e-05
0.000208522
-0.00260918
0.000469005
-0.00635754
0.00080764
-0.0100592
0.00119948
-0.0131616
0.00162145
-0.0154923
0.00205604
-0.0170885
0.00249133
-0.0180739
0.00292014
-0.0185982
0.00333944
-0.0187944
0.00374774
-0.0187697
0.00414584
-0.0186042
0.00453471
-0.018354
0.00491569
-0.0180573
0.00528997
-0.0177385
0.00565876
-0.0174141
0.00602323
-0.0170939
0.00638407
-0.0167836
0.00674189
-0.0164868
0.00709728
-0.0162051
0.00745065
-0.0159388
0.0078023
-0.0156878
0.0081525
-0.0154515
0.00850142
-0.015229
0.0088492
-0.0150195
0.00919601
-0.0148222
0.00954203
-0.0146364
0.00988736
-0.0144614
0.0102321
-0.0142962
0.0105763
-0.0141399
0.01092
-0.0139921
0.0112631
-0.013852
0.0116059
-0.0137191
0.0119481
-0.013593
0.0122898
-0.013473
0.0126309
-0.0133586
0.0129712
-0.013249
0.0133105
-0.0131427
0.0136483
-0.0130361
-0.0129125
0.0139833
5.20842e-05
2.00887e-05
0.000219396
-0.00277649
0.000487741
-0.00662588
0.000832557
-0.010404
0.00122808
-0.0135571
0.00165073
-0.015915
0.00208299
-0.0175208
0.00251378
-0.0185047
0.00293617
-0.0190206
0.00334776
-0.0192059
0.00374768
-0.0191696
0.00413695
-0.0189934
0.0045169
-0.018734
0.00488894
-0.0184293
0.00525443
-0.018104
0.00561464
-0.0177744
0.00597078
-0.01745
0.00632363
-0.0171365
0.00667372
-0.0168369
0.00702159
-0.0165529
0.0073677
-0.0162849
0.00771235
-0.0160324
0.00805575
-0.0157949
0.00839805
-0.0155713
0.00873944
-0.0153609
0.00908012
-0.0151629
0.00942023
-0.0149765
0.00975988
-0.014801
0.0100991
-0.0146354
0.010438
-0.0144788
0.0107766
-0.0143307
0.0111149
-0.0141903
0.011453
-0.0140572
0.0117908
-0.0139308
0.0121281
-0.0138104
0.0124649
-0.0136954
0.0128011
-0.0135851
0.0131361
-0.0134778
0.0134695
-0.0133695
-0.0132428
0.0137998
5.57892e-05
-3.57012e-05
0.000230248
-0.00295095
0.000506267
-0.0069019
0.000856967
-0.0107548
0.00125564
-0.0139558
0.00167847
-0.0163378
0.00210794
-0.0179502
0.00253371
-0.0189305
0.00294929
-0.0194362
0.00335272
-0.0196094
0.00374392
-0.0195608
0.00412411
-0.0193736
0.00449488
-0.0191048
0.00485778
-0.0187922
0.00521432
-0.0184606
0.0055658
-0.0181258
0.00591346
-0.0177977
0.00625812
-0.0174811
0.00660028
-0.0171791
0.00694047
-0.0168931
0.00727914
-0.0166236
0.00761659
-0.0163699
0.00795297
-0.0161313
0.00828846
-0.0159068
0.00862327
-0.0156957
0.00895763
-0.0154973
0.00929166
-0.0153106
0.00962542
-0.0151348
0.00995896
-0.0149689
0.0102924
-0.0148123
0.0106257
-0.0146641
0.0109591
-0.0145237
0.0112924
-0.0143905
0.0116257
-0.014264
0.0119586
-0.0141434
0.0122912
-0.014028
0.0126232
-0.0139171
0.0129542
-0.0138088
0.0132833
-0.0136986
-0.0135684
0.0136089
5.95468e-05
-9.52451e-05
0.00024102
-0.00313242
0.000524473
-0.00718535
0.000880768
-0.011111
0.00128205
-0.0143571
0.00170452
-0.0167603
0.00213076
-0.0183765
0.00255097
-0.0193507
0.0029593
-0.0198445
0.0033542
-0.0200043
0.00373637
-0.019943
0.00410723
-0.0197445
0.00446854
-0.0194661
0.00482209
-0.0191458
0.00516953
-0.018808
0.00551218
-0.0184685
0.0058512
-0.0181367
0.00618745
-0.0178174
0.0065215
-0.0175132
0.00685386
-0.0172255
0.00718492
-0.0169546
0.00751494
-0.0166999
0.00784408
-0.0164604
0.00817255
-0.0162353
0.00850061
-0.0160238
0.00882844
-0.0158251
0.00915615
-0.0156383
0.00948378
-0.0154624
0.00981141
-0.0152966
0.0101392
-0.01514
0.0104672
-0.0149921
0.0107954
-0.014852
0.0111239
-0.014719
0.0114525
-0.0145926
0.0117811
-0.014472
0.0121096
-0.0143565
0.0124376
-0.0142451
0.0127647
-0.0141358
0.0130897
-0.0140236
-0.0138897
0.013411
6.33412e-05
-0.000158586
0.000251701
-0.00332078
0.000542263
-0.00747591
0.000903781
-0.0114726
0.00130716
-0.0147605
0.00172873
-0.0171818
0.00215129
-0.018799
0.0025654
-0.0197648
0.00296604
-0.0202451
0.00335208
-0.0203903
0.0037249
-0.0203158
0.00408619
-0.0201058
0.00443782
-0.0198177
0.0047818
-0.0194897
0.00511999
-0.0191462
0.0054537
-0.0188022
0.00578393
-0.018467
0.0061116
-0.018145
0.00643738
-0.0178389
0.00676173
-0.0175498
0.00708498
-0.0172779
0.00740735
-0.0170222
0.00772902
-0.0167821
0.00805027
-0.0165566
0.00837136
-0.0163449
0.00869243
-0.0161462
0.00901354
-0.0159594
0.00933479
-0.0157836
0.00965631
-0.0156181
0.00997824
-0.015462
0.0103007
-0.0153145
0.0106237
-0.0151749
0.0109471
-0.0150425
0.0112711
-0.0149165
0.0115953
-0.0147962
0.0119198
-0.0146809
0.012244
-0.0145694
0.0125674
-0.0144592
0.0128887
-0.0143449
-0.014207
0.013206
6.71298e-05
-0.000225715
0.000262267
-0.00351592
0.000559564
-0.00777321
0.000925845
-0.0118388
0.00133083
-0.0151654
0.00175095
-0.0176019
0.00216935
-0.0192174
0.00257685
-0.0201723
0.00296937
-0.0206377
0.00334628
-0.0207672
0.00370941
-0.0206789
0.00406086
-0.0204572
0.00440265
-0.0201595
0.00473692
-0.019824
0.0050657
-0.019475
0.00539029
-0.0191268
0.00571161
-0.0187883
0.00603057
-0.018464
0.00634791
-0.0181563
0.00666407
-0.017866
0.00697929
-0.0175931
0.00729377
-0.0173367
0.00760777
-0.0170961
0.00792159
-0.0168704
0.00823544
-0.0166587
0.00854945
-0.0164602
0.00886369
-0.0162737
0.00917832
-0.0160983
0.00949349
-0.0159333
0.00980936
-0.0157778
0.010126
-0.0156312
0.0104435
-0.0154924
0.0107618
-0.0153608
0.011081
-0.0152357
0.011401
-0.0151162
0.0117215
-0.0150014
0.0120421
-0.01489
0.0123621
-0.0147792
0.0126799
-0.0146628
-0.0145207
0.0129936
7.0866e-05
-0.00029658
0.000272667
-0.00371772
0.000576301
-0.00807684
0.000946836
-0.0122094
0.00135295
-0.0155716
0.00177107
-0.0180201
0.00218477
-0.0196311
0.00258517
-0.0205727
0.00296918
-0.0210217
0.00333671
-0.0211347
0.00368985
-0.0210321
0.00403117
-0.0207985
0.00436297
-0.0204913
0.00468745
-0.0201485
0.00500664
-0.0197942
0.00532194
-0.0194421
0.00563422
-0.0191006
0.00594437
-0.0187741
0.00625312
-0.018465
0.00656087
-0.0181738
0.00686784
-0.0179001
0.00717423
-0.0176431
0.00748035
-0.0174022
0.00778647
-0.0171765
0.0080928
-0.0169651
0.00839943
-0.0167668
0.00870651
-0.0165807
0.00901424
-0.016406
0.00932277
-0.0162418
0.00963226
-0.0160873
0.00994283
-0.0159417
0.0102546
-0.0158042
0.0105676
-0.0156739
0.0108819
-0.01555
0.0111975
-0.0154317
0.0115141
-0.015318
0.0118312
-0.0152072
0.0121481
-0.015096
0.0124629
-0.0149777
-0.014831
0.0127733
7.45276e-05
-0.000371108
0.000282837
-0.00392604
0.000592397
-0.0083864
0.000966672
-0.0125837
0.00137341
-0.0159783
0.00178897
-0.0184356
0.00219742
-0.0200396
0.0025903
-0.0209656
0.00296539
-0.0213968
0.00332328
-0.0214926
0.00366618
-0.021375
0.00399711
-0.0211295
0.00431878
-0.0208129
0.00463337
-0.0204631
0.00494285
-0.0201036
0.00524868
-0.0197479
0.0055518
-0.0194037
0.00585302
-0.0190754
0.00615301
-0.018765
0.00645214
-0.0184729
0.00675064
-0.0181986
0.00704875
-0.0179412
0.00734675
-0.0177002
0.00764491
-0.0174747
0.00794339
-0.0172635
0.00824234
-0.0170658
0.00854194
-0.0168803
0.00884241
-0.0167065
0.00914393
-0.0165433
0.00944666
-0.01639
0.00975078
-0.0162458
0.0100565
-0.0161099
0.0103639
-0.0159813
0.0106731
-0.0158592
0.0109842
-0.0157428
0.0112968
-0.0156307
0.0116107
-0.015521
0.0119247
-0.01541
0.012237
-0.01529
-0.0151384
0.0125444
7.81135e-05
-0.000449222
0.00029272
-0.00414064
0.000607788
-0.00870147
0.000985289
-0.0129611
0.00139215
-0.0163852
0.00180454
-0.018848
0.0022072
-0.0204422
0.00259216
-0.0213505
0.00295794
-0.0217625
0.00330587
-0.0218406
0.00363838
-0.0217075
0.00395872
-0.0214498
0.00427007
-0.0211243
0.00457467
-0.0207677
0.00487434
-0.0204033
0.00517057
-0.0200442
0.00546439
-0.0196975
0.00575654
-0.0193675
0.0060476
-0.0190561
0.00633793
-0.0187632
0.00662777
-0.0184884
0.00691739
-0.0182308
0.00720704
-0.0179898
0.00749694
-0.0177646
0.00778725
-0.0175539
0.00807817
-0.0173567
0.00836993
-0.0171721
0.00866274
-0.0169993
0.00895679
-0.0168374
0.00925231
-0.0166856
0.00954953
-0.0165431
0.00984873
-0.0164091
0.0101501
-0.0162827
0.0104539
-0.016163
0.0107602
-0.016049
0.0110688
-0.0159393
0.0113794
-0.0158316
0.0116908
-0.0157214
0.0120009
-0.0156
-0.0154433
0.0123058
8.16265e-05
-0.000530849
0.000302259
-0.00436127
0.000622423
-0.00902163
0.00100263
-0.0133414
0.00140907
-0.0167916
0.00181773
-0.0192567
0.00221402
-0.0208385
0.00259072
-0.0217272
0.00294681
-0.0221186
0.00328443
-0.0221782
0.0036064
-0.0220294
0.00391606
-0.0217595
0.00421689
-0.0214251
0.00451136
-0.0210621
0.00480113
-0.0206931
0.00508767
-0.0203307
0.00537205
-0.0199819
0.00565499
-0.0196504
0.00593697
-0.0193381
0.00621833
-0.0190446
0.00649933
-0.0187694
0.00678023
-0.0185117
0.00706127
-0.0182709
0.00734262
-0.0180459
0.00762445
-0.0178357
0.00790699
-0.0176392
0.00819049
-0.0174556
0.00847517
-0.017284
0.00876125
-0.0171235
0.00904902
-0.0169733
0.0093388
-0.0168328
0.00963092
-0.0167012
0.00992572
-0.0165775
0.0102235
-0.0164608
0.0105245
-0.01635
0.0108288
-0.0162436
0.0111359
-0.0161387
0.0114447
-0.0160302
0.0117528
-0.0159082
-0.015746
0.0120556
8.50602e-05
-0.000615911
0.000311405
-0.00458762
0.000636255
-0.00934648
0.00101863
-0.0137237
0.0014241
-0.0171971
0.00182848
-0.019661
0.00221784
-0.0212279
0.0025859
-0.0220953
0.002932
-0.0224647
0.00325896
-0.0225051
0.0035702
-0.0223407
0.00386912
-0.0220584
0.00415932
-0.0217153
0.00444349
-0.0213463
0.00472329
-0.0209729
0.00500006
-0.0206075
0.00527489
-0.0202567
0.00554847
-0.019924
0.00582121
-0.0196108
0.00609344
-0.0193168
0.00636543
-0.0190414
0.00663741
-0.0187837
0.00690958
-0.0185431
0.00718209
-0.0183184
0.00745512
-0.0181087
0.00772891
-0.017913
0.00800371
-0.0177304
0.00827976
-0.01756
0.00855731
-0.017401
0.00883671
-0.0172527
0.00911834
-0.0171145
0.00940263
-0.0169855
0.00969003
-0.0168649
0.009981
-0.0167518
0.010276
-0.016645
0.0105751
-0.0165427
0.0108783
-0.0164419
0.0111843
-0.0163362
0.0114903
-0.0162142
-0.0160467
0.011791
8.83975e-05
-0.000704309
0.000320109
-0.00481933
0.000649229
-0.0096756
0.00103325
-0.0141077
0.00143717
-0.017601
0.00183676
-0.0200606
0.00221864
-0.0216098
0.00257762
-0.0224543
0.00291349
-0.0228006
0.00322951
-0.0228212
0.0035298
-0.022641
0.00381792
-0.0223465
0.00409743
-0.0219948
0.00437118
-0.0216201
0.00464089
-0.0212426
0.00490782
-0.0208744
0.005173
-0.0205219
0.00543709
-0.0201881
0.00570046
-0.0198742
0.00596342
-0.0195798
0.00622621
-0.0193042
0.00648906
-0.0190466
0.00675212
-0.0188061
0.00701552
-0.0185818
0.00727943
-0.0183726
0.00754409
-0.0181777
0.00780975
-0.0179961
0.00807664
-0.0178269
0.00834504
-0.0176694
0.00861535
-0.017523
0.00888801
-0.0173871
0.00916352
-0.017261
0.00944247
-0.0171438
0.00972551
-0.0170348
0.0100133
-0.0169327
0.0103062
-0.0168357
0.0106043
-0.01674
0.0109066
-0.0166385
0.0112099
-0.0165175
-0.0163448
0.011508
9.16172e-05
-0.000795927
0.000328329
-0.00505604
0.000661289
-0.0100086
0.00104641
-0.0144929
0.00144819
-0.0180028
0.00184253
-0.020455
0.00221643
-0.0219837
0.00256584
-0.0228037
0.00289124
-0.023126
0.00319613
-0.0231261
0.00348525
-0.0229301
0.00376249
-0.0226237
0.00403127
-0.0222636
0.00429452
-0.0218833
0.00455405
-0.0215021
0.00481107
-0.0211314
0.0050665
-0.0207773
0.00532098
-0.0204426
0.00557487
-0.0201281
0.0058284
-0.0198333
0.00608184
-0.0195576
0.00633537
-0.0193001
0.00658909
-0.0190598
0.00684311
-0.0188358
0.0070976
-0.0186271
0.00735277
-0.0184329
0.00760883
-0.0182521
0.00786602
-0.0180841
0.00812463
-0.017928
0.00838507
-0.0177835
0.00864781
-0.0176499
0.00891342
-0.0175266
0.00918264
-0.0174131
0.00945627
-0.0173085
0.00973518
-0.0172116
0.0100201
-0.0171206
0.0103114
-0.0170313
0.0106083
-0.0169353
0.0109074
-0.0168166
-0.0166391
0.0112017
9.46978e-05
-0.000890626
0.000336024
-0.00529736
0.000672373
-0.0103449
0.0010581
-0.0148786
0.00145712
-0.0184018
0.00184571
-0.0208436
0.00221121
-0.0223492
0.00255057
-0.023143
0.00286523
-0.0234406
0.00315888
-0.0234197
0.00343666
-0.0232079
0.00370289
-0.02289
0.00396093
-0.0225217
0.00421363
-0.022136
0.00446289
-0.0217514
0.0047099
-0.0213784
0.00495552
-0.0210229
0.00520031
-0.0206874
0.00544458
-0.0203723
0.00568858
-0.0200773
0.00593252
-0.0198016
0.00617655
-0.0195441
0.00642073
-0.019304
0.00666515
-0.0190802
0.00690994
-0.0188719
0.00715527
-0.0186782
0.0074013
-0.0184981
0.00764825
-0.018331
0.00789641
-0.0181762
0.00814614
-0.0180332
0.00839794
-0.0179017
0.00865242
-0.0177811
0.00891037
-0.017671
0.00917276
-0.0175708
0.00944067
-0.0174795
0.00971517
-0.0173951
0.00999701
-0.0173131
0.0102857
-0.017224
0.0105778
-0.0171088
-0.0169272
0.010866
9.76182e-05
-0.000988246
0.000343164
-0.0055429
0.000682422
-0.0106842
0.00106827
-0.0152644
0.00146394
-0.0187974
0.00184623
-0.0212259
0.00220297
-0.0227059
0.00253186
-0.0234719
0.00283548
-0.0237443
0.00311778
-0.023702
0.00338411
-0.0234742
0.00363922
-0.0231451
0.00388648
-0.0227689
0.00412859
-0.0223781
0.00436752
-0.0219903
0.00460447
-0.0216154
0.0048402
-0.0212587
0.00507521
-0.0209224
0.00530979
-0.0206069
0.00554414
-0.0203117
0.00577847
-0.0200359
0.00601287
-0.0197785
0.00624734
-0.0195385
0.00648195
-0.0193148
0.0067168
-0.0191067
0.00695198
-0.0189134
0.0071876
-0.0187338
0.00742383
-0.0185672
0.0076609
-0.0184132
0.00789913
-0.0182714
0.00813894
-0.0181415
0.00838094
-0.0180231
0.00862594
-0.017916
0.00887495
-0.0178199
0.00912923
-0.0177338
0.00939014
-0.017656
0.00965884
-0.0175818
0.00993534
-0.0175005
0.0102165
-0.0173899
-0.0172058
0.010495
0.000100356
-0.0010886
0.00034973
-0.00579228
0.000691403
-0.0110258
0.00107689
-0.0156499
0.00146865
-0.0191892
0.00184404
-0.0216012
0.00219167
-0.0230536
0.00250977
-0.02379
0.002802
-0.0240365
0.00307284
-0.0239728
0.00332767
-0.023729
0.00357157
-0.023389
0.00380799
-0.0230053
0.00403952
-0.0226096
0.00426808
-0.0222189
0.0044949
-0.0218422
0.0047207
-0.0214845
0.00494587
-0.0211476
0.00517068
-0.0208317
0.00539533
-0.0205363
0.00561997
-0.0202606
0.00584462
-0.0200032
0.00606926
-0.0197631
0.00629393
-0.0195395
0.00651864
-0.0193315
0.00674343
-0.0191382
0.00696833
-0.0189587
0.00719344
-0.0187924
0.00741888
-0.0186387
0.00764487
-0.0184974
0.00787172
-0.0183683
0.00809993
-0.0182513
0.00833022
-0.0181463
0.00856356
-0.0180532
0.00880122
-0.0179715
0.00904476
-0.0178996
0.00929575
-0.0178328
0.00955485
-0.0177596
0.00981949
-0.0176545
-0.01747
0.0100837
0.000102889
-0.00119149
0.000355725
-0.00604511
0.000699316
-0.0113694
0.00108393
-0.0160345
0.00147126
-0.0195765
0.00183912
-0.0219691
0.00217726
-0.0233917
0.00248433
-0.0240971
0.00276488
-0.024317
0.0030241
-0.0242321
0.00326741
-0.0239723
0.00350003
-0.0236216
0.00372558
-0.0232309
0.0039465
-0.0228306
0.00416468
-0.0224371
0.00438134
-0.0220589
0.00459715
-0.0217003
0.00481244
-0.0213629
0.00502746
-0.0210467
0.00524237
-0.0207513
0.00545727
-0.0204755
0.00567211
-0.020218
0.00588686
-0.0199779
0.0061015
-0.0197541
0.00631598
-0.0195459
0.00653023
-0.0193524
0.00674422
-0.0191727
0.00695792
-0.0190061
0.00717135
-0.0188521
0.00738452
-0.0187106
0.0075976
-0.0185814
0.00781089
-0.0184646
0.00802488
-0.0183603
0.00824031
-0.0182686
0.0084583
-0.0181895
0.0086804
-0.0181217
0.00890853
-0.0180609
0.00914409
-0.0179952
0.00938568
-0.0178961
-0.0177144
0.00963006
0.000105206
-0.0012967
0.000361173
-0.00630108
0.000706206
-0.0117145
0.00108937
-0.0164177
0.00147178
-0.0199589
0.00183152
-0.0223288
0.00215973
-0.0237199
0.00245557
-0.0243929
0.00272417
-0.0245856
0.0029716
-0.0244795
0.00320338
-0.0242041
0.00342471
-0.0238429
0.00363933
-0.0234455
0.00384964
-0.0230409
0.00405745
-0.0226449
0.00426394
-0.0222653
0.00446972
-0.0219061
0.00467511
-0.0215682
0.00488032
-0.0212519
0.00508549
-0.0209564
0.00529062
-0.0206806
0.00549564
-0.0204231
0.00570049
-0.0201827
0.0059051
-0.0199588
0.00610933
-0.0197502
0.00631302
-0.0195561
0.00651604
-0.0193757
0.00671825
-0.0192083
0.00691947
-0.0190533
0.00711954
-0.0189106
0.00731837
-0.0187802
0.00751597
-0.0186622
0.00771244
-0.0185568
0.00790814
-0.0184643
0.00810378
-0.0183851
0.00830067
-0.0183185
0.00850082
-0.0182611
0.00870652
-0.0182009
0.00891823
-0.0181078
-0.0179335
0.0091373
0.000107316
-0.00140401
0.000366115
-0.00655988
0.000712148
-0.0120605
0.00109322
-0.0167988
0.00147019
-0.0203359
0.00182129
-0.0226799
0.00213908
-0.0240377
0.00242347
-0.0246773
0.00267996
-0.0248421
0.00291542
-0.0247149
0.00313563
-0.0244243
0.00334568
-0.024053
0.00354936
-0.0236492
0.00374907
-0.0232406
0.00394651
-0.0228423
0.00414281
-0.0224616
0.00433855
-0.0221018
0.00453404
-0.0217637
0.00472946
-0.0214474
0.00492489
-0.0211519
0.00512027
-0.020876
0.0053155
-0.0206183
0.00551051
-0.0203778
0.00570516
-0.0201534
0.00589922
-0.0199442
0.00609245
-0.0197493
0.00628464
-0.0195679
0.00647547
-0.0193991
0.00666458
-0.0192424
0.00685161
-0.0190977
0.00703617
-0.0189648
0.00721786
-0.0188439
0.00739631
-0.0187352
0.00757129
-0.0186393
0.00774287
-0.0185567
0.00791178
-0.0184875
0.00807987
-0.0184292
0.00825033
-0.0183714
0.0084263
-0.0182838
-0.0181229
0.00861577
0.000109255
-0.00151327
0.000370598
-0.00682122
0.00071722
-0.0124071
0.00109549
-0.0171771
0.00146647
-0.0207069
0.00180846
-0.0230219
0.00211535
-0.0243446
0.00238804
-0.02495
0.00263229
-0.0250864
0.00285565
-0.0249383
0.00306424
-0.0246329
0.00326303
-0.0242518
0.00345577
-0.0238419
0.00364487
-0.0234297
0.00383196
-0.0230294
0.00401808
-0.0226478
0.00420378
-0.0222875
0.00438939
-0.0219493
0.00457504
-0.021633
0.00476075
-0.0213376
0.00494642
-0.0210616
0.00513195
-0.0208038
0.00531723
-0.020563
0.00550205
-0.0203382
0.00568612
-0.0201283
0.00586916
-0.0199324
0.0060508
-0.0197495
0.0062306
-0.0195789
0.00640804
-0.0194199
0.00658252
-0.0192722
0.00675335
-0.0191356
0.00691967
-0.0190102
0.00708057
-0.0188961
0.0072351
-0.0187938
0.00738247
-0.0187041
0.00752255
-0.0186275
0.00765669
-0.0185633
0.00778889
-0.0185036
0.00792563
-0.0184205
-0.0182808
0.00808346
0.000111076
-0.00162434
0.000374662
-0.0070848
0.00072147
-0.0127539
0.00109624
-0.0175518
0.00146058
-0.0210712
0.00179307
-0.0233544
0.0020886
-0.0246401
0.0023493
-0.0252107
0.00258121
-0.0253183
0.00279237
-0.0251495
0.00298931
-0.0248298
0.00317685
-0.0244393
0.00335866
-0.0240237
0.00353717
-0.0236082
0.00371393
-0.0232061
0.00388987
-0.0228237
0.00406556
-0.0224632
0.00424131
-0.0221251
0.00441722
-0.0218089
0.00459325
-0.0215136
0.00476929
-0.0212377
0.00494524
-0.0209798
0.00512094
-0.0207387
0.00529613
-0.0205134
0.00547049
-0.0203027
0.00564368
-0.0201056
0.00581525
-0.0199211
0.00598461
-0.0197482
0.00615113
-0.0195864
0.00631402
-0.019435
0.00647225
-0.0192938
0.00662457
-0.0191625
0.00676954
-0.0190411
0.00690545
-0.0189297
0.00703055
-0.0188292
0.00714366
-0.0187406
0.00724521
-0.0186649
0.00733976
-0.0185981
0.00743741
-0.0185182
-0.0184078
0.00756442
0.000112842
-0.00173718
0.000378334
-0.0073503
0.0007249
-0.0131005
0.00109551
-0.0179224
0.00145254
-0.0214283
0.00177514
-0.023677