/*--------------------------------*- C++ -*----------------------------------*\
  =========                 |
  \\      /  F ield         | OpenFOAM: The Open Source CFD Toolbox
   \\    /   O peration     | Website:  https://openfoam.org
    \\  /    A nd           | Version:  7
     \\/     M anipulation  |
\*---------------------------------------------------------------------------*/
FoamFile
{
    version     2.0;
    format      ascii;
    class       volScalarField;
    location    "27.2";
    object      p;
}
// * * * * * * * * * * * * * * * * * * * * * * * * * * * * * * * * * * * * * //

dimensions      [0 2 -2 0 0 0 0];

internalField   nonuniform List<scalar> 
2000
(
-0.00139437
-2.25152e-05
0.000994111
0.00228592
0.00382158
0.00554338
0.00740132
0.00935729
0.0113833
0.0134811
-0.000300215
0.00118398
0.00223992
0.00352151
0.00500603
0.00665002
0.00841063
0.0102497
0.0121365
0.0140682
0.000806786
0.00234851
0.00342951
0.0046899
0.00610849
0.00765444
0.00929418
0.0109927
0.0127187
0.0144613
0.00191891
0.0034632
0.00455484
0.00578556
0.0071284
0.0085614
0.0100607
0.0115971
0.0131417
0.0146731
0.00301986
0.00451733
0.00560672
0.0068025
0.00806535
0.00937717
0.0107221
0.0120783
0.0134213
0.0147169
0.00408777
0.00550144
0.00657899
0.00773806
0.0089218
0.010111
0.0112948
0.0124576
0.0135794
0.0145992
0.00509811
0.00640792
0.00746854
0.00859259
0.00970243
0.0107739
0.0117976
0.0127624
0.0136478
0.0143189
0.00602314
0.0072291
0.00827245
0.00936636
0.0104108
0.0113744
0.0122473
0.0130225
0.0136728
0.0138917
0.00683411
0.00795652
0.00898602
0.0100564
0.0110454
0.0119141
0.0126517
0.0132602
0.0136968
0.0133499
0.00750603
0.00858164
0.00960242
0.0106547
0.0115973
0.0123846
0.0130082
0.0134879
0.0137847
0.0130323
0.0185511
0.0270474
0.0338458
0.0403644
0.0457567
0.0505087
0.0536188
0.0570043
0.0572424
0.0594284
0.0187266
0.026455
0.0327863
0.0388962
0.043975
0.0485167
0.0515487
0.0547448
0.0552015
0.0570429
0.0186586
0.0257125
0.0316315
0.0373849
0.0422021
0.0465738
0.0495074
0.0526062
0.0532033
0.054775
0.0183718
0.0248358
0.0303969
0.0358396
0.0404487
0.0446708
0.0475226
0.050573
0.0512105
0.0526471
0.017911
0.0238819
0.0291104
0.0342837
0.0387208
0.0428076
0.0456037
0.0486195
0.0492662
0.0506581
0.0173243
0.022858
0.0277591
0.0327201
0.0370166
0.0409857
0.0437388
0.0467132
0.0473719
0.0487684
0.0167047
0.0218236
0.0264006
0.0311872
0.0353495
0.0392119
0.0419297
0.0448695
0.0455714
0.0469853
0.0160641
0.0206394
0.0249563
0.0296436
0.0337021
0.0374788
0.0401574
0.0430355
0.0437904
0.0452562
0.0156529
0.0195486
0.02362
0.0281642
0.0321028
0.0358008
0.0384598
0.0412936
0.0421255
0.0436289
0.0147417
0.0179679
0.0220274
0.0265506
0.0304671
0.0341229
0.0367462
0.0394529
0.0403804
0.0419884
0.0180291
0.0173359
0.0197829
0.0233128
0.0268631
0.0303323
0.03317
0.0358748
0.0370581
0.0384178
0.0126349
0.0125269
0.0153102
0.0186219
0.021914
0.0250657
0.0277587
0.0301415
0.0312873
0.0321815
0.00599957
0.00719356
0.0106382
0.0141099
0.017319
0.020217
0.0226234
0.0247288
0.0257641
0.0264127
1.66748e-05
0.00216
0.00612093
0.00987123
0.013021
0.0156075
0.0175812
0.0192403
0.0201172
0.0207896
-0.00427806
-0.00208937
0.00182032
0.0057382
0.00888722
0.011282
0.0129424
0.0142459
0.0148601
0.0154863
-0.00686451
-0.00496415
-0.00135353
0.00236658
0.00530419
0.00744248
0.00878217
0.00979649
0.0103277
0.0109259
-0.00771248
-0.00638261
-0.00335261
1.78594e-05
0.00258257
0.00428691
0.00511653
0.00561761
0.00594278
0.00684068
-0.00654959
-0.00586378
-0.00381601
-0.00127378
0.000762933
0.00200787
0.00243715
0.0025909
0.00274432
0.00350654
-0.00447824
-0.00413532
-0.0029576
-0.00141717
-0.000160493
0.000483553
0.000464027
1.99967e-05
5.5392e-05
0.000892369
-0.00130829
-0.00137065
-0.00117727
-0.000653816
-0.000260821
-0.000161853
-0.000489063
-0.00108319
-0.00117285
-0.000537759
0.0129758
0.00949338
0.00391759
-0.00128544
-0.00493064
-0.00705291
-0.00725866
-0.00610233
-0.00382595
-0.000766322
0.0121304
0.00814039
0.00247935
-0.00249421
-0.00571766
-0.00744522
-0.00731645
-0.00602269
-0.00363249
-0.000731958
0.0113269
0.00661638
0.000957929
-0.00374746
-0.00656363
-0.0078869
-0.00741954
-0.00594498
-0.00346079
-0.000739785
0.0102461
0.00496785
-0.000566055
-0.00495519
-0.00735385
-0.00828382
-0.0074935
-0.0058589
-0.00331071
-0.000748724
0.00885663
0.00322197
-0.00210231
-0.00614287
-0.00810952
-0.00864585
-0.00755419
-0.00576969
-0.00316652
-0.000762848
0.00719905
0.00144857
-0.0035822
-0.00726039
-0.00880383
-0.00896492
-0.00760016
-0.00567413
-0.00303339
-0.000778901
0.00544519
-0.000228497
-0.00490243
-0.00823148
-0.0093887
-0.00921623
-0.00761892
-0.00556929
-0.00291434
-0.000792434
0.00385172
-0.00165785
-0.00595943
-0.00898396
-0.00981868
-0.00937582
-0.0075991
-0.00545435
-0.00281107
-0.000804121
0.00265158
-0.00270825
-0.0066755
-0.00946815
-0.0100599
-0.00942658
-0.00753076
-0.00532871
-0.00271899
-0.000812533
0.00197058
-0.00331821
-0.0070161
-0.00966387
-0.0100967
-0.00935818
-0.00740549
-0.00518557
-0.00263787
-0.000795964
0.00180513
-0.00350994
-0.00699957
-0.00957358
-0.00993686
-0.0091596
-0.00722631
-0.00502269
-0.00257211
-0.000755996
0.00204566
-0.00328846
-0.00667386
-0.00922687
-0.0095988
-0.00884592
-0.00698607
-0.00484317
-0.00250805
-0.000724191
0.00264617
-0.00276845
-0.00609432
-0.00867377
-0.00911314
-0.00843808
-0.00669975
-0.00465195
-0.0024469
-0.000705656
0.00350981
-0.00202776
-0.00533012
-0.00796579
-0.00852024
-0.00796088
-0.00637925
-0.0044428
-0.00238854
-0.000694768
0.00455021
-0.00113196
-0.00444768
-0.00715288
-0.0078606
-0.00744047
-0.00604227
-0.0043145
-0.0023495
-0.000686587
0.00569535
-0.00013447
-0.00350274
-0.00627996
-0.00716771
-0.00689979
-0.00569602
-0.0040877
-0.00228292
-0.000677253
0.00687885
0.000920492
-0.0025383
-0.00538221
-0.0064663
-0.00635568
-0.00535076
-0.00387756
-0.00220909
-0.00066481
0.00808381
0.00203297
-0.00156271
-0.00447561
-0.00577133
-0.00582133
-0.0050118
-0.00367677
-0.00213379
-0.00064935
0.00939987
0.00329815
-0.000534841
-0.00354887
-0.00508158
-0.00530234
-0.00468474
-0.00348262
-0.00205506
-0.000631126
0.0104471
0.00455869
0.000454896
-0.00263666
-0.00438114
-0.00476488
-0.00433786
-0.00327491
-0.00196334
-0.000606412
0.0103646
0.00635753
0.00231176
-0.000645016
-0.00261943
-0.00336465
-0.00332894
-0.00262934
-0.00165345
-0.000523211
0.010951
0.00738886
0.00385156
0.00125713
-0.000619651
-0.00156769
-0.00191316
-0.00162478
-0.00104071
-0.000277145
0.0127275
0.00917867
0.00569539
0.00315297
0.00117615
-2.32449e-07
-0.000639062
-0.000655633
-0.000381432
2.89611e-05
0.0148386
0.011166
0.00762978
0.00500212
0.00283987
0.00141816
0.000519503
0.000273582
0.00033467
0.00042552
0.0172448
0.0133009
0.00959623
0.0067767
0.00436994
0.00269648
0.00158019
0.00118566
0.00111384
0.000903411
0.0199006
0.0155631
0.0115684
0.0084576
0.00576734
0.0038543
0.00256475
0.00208759
0.00195248
0.00145285
0.022727
0.0178535
0.0134757
0.0100267
0.00706869
0.00493764
0.00351858
0.00298978
0.00280911
0.00200608
0.0253129
0.019811
0.0152554
0.0115033
0.00830379
0.00597597
0.00446271
0.0038502
0.00349434
0.00229683
0.0276751
0.0224486
0.0172523
0.012865
0.00936352
0.00689205
0.00529867
0.0044404
0.00364902
0.00205954
0.030401
0.0228362
0.0173386
0.0131123
0.00984472
0.00746836
0.00583951
0.00469219
0.00347683
0.00165166
0.0130853
0.0138749
0.0155519
0.017593
0.0201749
0.0230391
0.026052
0.0296142
0.0307985
0.036554
0.0139895
0.0151712
0.0169786
0.0191352
0.0218943
0.0249071
0.0280818
0.0316795
0.0331571
0.0379277
0.0146301
0.0162464
0.0183667
0.0208801
0.0239816
0.0272855
0.0307339
0.0342832
0.0364053
0.0386541
0.0152878
0.0171576
0.0195329
0.0224143
0.0258539
0.0294684
0.0331976
0.0368622
0.0394402
0.0402587
0.0159954
0.0181107
0.0206939
0.0238735
0.0275768
0.0314431
0.0354021
0.0392564
0.0421433
0.0428034
0.0166904
0.0191378
0.0219807
0.0254407
0.0293663
0.0334362
0.0375753
0.0416005
0.044738
0.0458409
0.0173517
0.0201984
0.0233799
0.0271539
0.0313157
0.0355916
0.0399031
0.0440735
0.0474269
0.0490178
0.0179924
0.0212788
0.0248513
0.0289739
0.0334071
0.0379226
0.0424359
0.0467608
0.0503
0.0522138
0.0186261
0.0223892
0.026381
0.0308688
0.035601
0.0403898
0.0451443
0.0496576
0.0533679
0.0554558
0.0192591
0.023539
0.0279686
0.0328293
0.0378772
0.0429603
0.0479861
0.0527229
0.0566103
0.0588051
0.0198952
0.0247286
0.0296092
0.0348517
0.0402296
0.0456212
0.05094
0.0559269
0.0600112
0.0623037
0.0205301
0.0259413
0.0312862
0.0369226
0.0426484
0.0483641
0.0539967
0.0592544
0.0635614
0.065963
0.0211462
0.027137
0.0329729
0.0390159
0.0451181
0.0511864
0.0571667
0.0627203
0.0672651
0.0697859
0.0217089
0.0282767
0.0346362
0.041104
0.0476217
0.0540759
0.060449
0.066336
0.0711229
0.0737705
0.0221653
0.0293368
0.0362453
0.043163
0.0501649
0.0570559
0.063839
0.0700851
0.0751389
0.0779217
0.0224477
0.0302977
0.0377501
0.045232
0.0527017
0.0600541
0.0672796
0.0739244
0.0792928
0.0822317
0.0224796
0.0311789
0.0391918
0.0472262
0.055195
0.0630562
0.0707806
0.0778771
0.0836018
0.0867209
0.0222335
0.0318881
0.0404461
0.0490406
0.0575475
0.0659611
0.0742401
0.0818627
0.0880214
0.0913734
0.0217879
0.0324679
0.041571
0.0507554
0.0598403
0.0688544
0.0777394
0.0859444
0.0925865
0.0962315
0.0206312
0.032452
0.0421333
0.0519091
0.0615881
0.0712448
0.080832
0.0897998
0.0971437
0.101247
0.0207582
0.034654
0.0455484
0.0565379
0.067488
0.0785512
0.089637
0.10019
0.108947
0.114065
0.0313773
0.0447753
0.0560391
0.0686484
0.0814641
0.0947898
0.108397
0.121545
0.132534
0.138822
0.0437546
0.0572395
0.0693888
0.0838661
0.0987219
0.114603
0.131118
0.147141
0.160554
0.168319
0.0559354
0.0700082
0.0841257
0.101018
0.118454
0.13756
0.157518
0.176801
0.192912
0.202098
0.0676198
0.0830162
0.0999126
0.119531
0.140048
0.163155
0.187096
0.210205
0.229213
0.240148
0.0794538
0.0968558
0.116864
0.139288
0.163496
0.191335
0.219769
0.247236
0.269066
0.28119
0.0915601
0.111473
0.13433
0.159663
0.188328
0.2213
0.25458
0.286512
0.310664
0.324748
0.104158
0.1264
0.151841
0.180579
0.214182
0.252058
0.290449
0.326784
0.352822
0.365586
0.114536
0.138557
0.166079
0.198133
0.235948
0.277565
0.320533
0.360748
0.388808
0.403141
0.12253
0.147343
0.176349
0.210908
0.251391
0.295696
0.342735
0.387874
0.420303
0.420369
0.0147772
0.0239939
0.0350644
0.0470016
0.0582696
0.0698515
0.0807025
0.0925903
0.101876
0.109474
0.0126273
0.022514
0.0333783
0.0451411
0.0561204
0.067488
0.0779147
0.0896002
0.0983848
0.105439
0.0111893
0.0221207
0.033284
0.0450221
0.055749
0.0668009
0.0769343
0.0883516
0.09662
0.103011
0.00946964
0.0209345
0.0323925
0.0442139
0.0548402
0.0656675
0.0755418
0.0866299
0.09451
0.100473
0.00757928
0.0192162
0.0309298
0.0427201
0.0532643
0.0639005
0.0734855
0.0841612
0.0916953
0.0974046
0.00568443
0.0174416
0.029405
0.0411362
0.0515769
0.0620074
0.0712798
0.0814937
0.0886476
0.0941349
0.00383927
0.0157355
0.0279168
0.0397125
0.050091
0.06034
0.0693279
0.0791335
0.0858908
0.0911398
0.00209722
0.0140826
0.02647
0.0384104
0.048836
0.0589656
0.0677451
0.0772644
0.0836783
0.0887011
0.000532348
0.0125015
0.0251179
0.0371793
0.0477666
0.0578345
0.0665197
0.075835
0.0820309
0.086859
-0.000778322
0.0110339
0.0239198
0.0360992
0.0468331
0.0568887
0.0656545
0.0747279
0.0808826
0.0855206
-0.00176491
0.00970902
0.0229257
0.0352134
0.0460652
0.0561852
0.0650474
0.0739506
0.0801571
0.0845952
-0.00240963
0.00852622
0.0221396
0.0345043
0.0454923
0.0557355
0.0646828
0.0735198
0.0797952
0.0840762
-0.00273727
0.00748615
0.0215497
0.0339388
0.0451238
0.0555313
0.0645828
0.0734499
0.0797969
0.0839765
-0.00276571
0.00664386
0.0211636
0.0335084
0.0449617
0.0555541
0.0647534
0.0737329
0.0801649
0.0843026
-0.00248984
0.0060818
0.0209836
0.0332383
0.0450193
0.0557997
0.065211
0.0743789
0.0809129
0.0850487
-0.00233141
0.00586559
0.0209768
0.0331485
0.0452777
0.056241
0.0659305
0.0753496
0.0820159
0.0861984
-0.00191161
0.00605806
0.0211141
0.0332923
0.0457496
0.0569125
0.0669513
0.0766639
0.0834901
0.0877374
-0.00128121
0.00655799
0.0212802
0.0336038
0.0463244
0.0577258
0.0681704
0.0782201
0.0852797
0.0896542
-0.000778316
0.00761843
0.0216064
0.0342205
0.047116
0.0587988
0.069682
0.0800867
0.0874268
0.0919471
-0.00052892
0.00841663
0.0215134
0.0344858
0.0475534
0.0596175
0.0710133
0.0819172
0.0897603
0.094609
0.00323215
0.0148582
0.0254588
0.0382625
0.0511667
0.0638406
0.0762608
0.0880046
0.0968157
0.102062
0.0221485
0.0315733
0.0412084
0.0538143
0.066241
0.0794478
0.0927845
0.105454
0.115169
0.120644
0.0396518
0.0504597
0.0617116
0.0750534
0.0884302
0.103102
0.117427
0.130861
0.140774
0.145887
0.0550081
0.0675883
0.0811279
0.0963523
0.112476
0.130095
0.146975
0.162677
0.173668
0.178514
0.0678059
0.0818609
0.097351
0.114864
0.134187
0.155271
0.176116
0.196117
0.210531
0.216939
0.0781912
0.0931601
0.110241
0.129974
0.152219
0.176787
0.202648
0.228821
0.249935
0.26134
0.0852643
0.10121
0.11966
0.141437
0.166328
0.194644
0.226641
0.261028
0.2927
0.315498
0.0915968
0.108156
0.127804
0.151394
0.178904
0.211437
0.250814
0.296517
0.34503
0.38978
0.0937554
0.110934
0.131805
0.157108
0.187706
0.225678
0.27422
0.334874
0.407827
0.489656
0.098242
0.117472
0.140238
0.168048
0.202844
0.247513
0.306283
0.38452
0.489962
0.621426
0.00413786
0.0191536
0.0338301
0.0476428
0.0594615
0.0698295
0.0764328
0.0827441
0.0849211
0.0879567
0.00596717
0.0208401
0.0341983
0.0469138
0.0578014
0.067557
0.0736033
0.0796332
0.0817513
0.0847747
0.00861012
0.0242849
0.0369128
0.0484545
0.0580328
0.0665588
0.0717474
0.0771246
0.0789267
0.0824261
0.0105124
0.0259903
0.0380615
0.0489019
0.0575826
0.0651911
0.0697713
0.074595
0.0759868
0.0796662
0.012185
0.0266472
0.0377953
0.0480433
0.05615
0.0632029
0.0674438
0.0719171
0.0729337
0.0764165
0.0138407
0.0271743
0.0372185
0.0467545
0.0543369
0.060954
0.064959
0.0691971
0.0699214
0.0730428
0.01532
0.0276557
0.03673
0.0455271
0.0525605
0.0587404
0.0625108
0.0665555
0.067059
0.069856
0.0165171
0.0279124
0.0362175
0.0443561
0.0508782
0.0566309
0.0601597
0.0640441
0.0643723
0.0669606
0.0174357
0.0278825
0.0355563
0.0431094
0.0492158
0.054581
0.057898
0.0616479
0.0618447
0.0643161
0.0181232
0.027521
0.0347785
0.0417789
0.0475129
0.052546
0.0557198
0.0593093
0.0594641
0.0618323
0.0080253
0.00909767
0.0101146
0.01115
0.0120488
0.0127633
0.0132914
0.0136828
0.0140888
0.0143141
0.00839355
0.00950573
0.0105198
0.0115313
0.0123786
0.0130104
0.0134235
0.0136511
0.0137757
0.0136896
0.00862106
0.00981833
0.0108242
0.0117962
0.0125727
0.0131002
0.0133741
0.0134072
0.0132182
0.0127246
0.008739
0.0100568
0.0110429
0.0119525
0.0126302
0.013026
0.0131396
0.0129851
0.0125675
0.0118286
0.00879544
0.0102485
0.0111979
0.0120162
0.0125609
0.0127923
0.0127226
0.0123769
0.0117776
0.0109117
0.00884752
0.0104244
0.0113154
0.0120104
0.012386
0.0124194
0.0121418
0.0115955
0.01083
0.00988155
0.00895529
0.0106166
0.0114244
0.0119658
0.0121418
0.0119521
0.0114507
0.0106983
0.00976898
0.00872594
0.0091776
0.0108591
0.0115591
0.0119238
0.0118833
0.0114631
0.0107395
0.00978979
0.00870464
0.00754106
0.00956684
0.011187
0.0117589
0.0119361
0.0116805
0.011044
0.0101217
0.00900279
0.00778322
0.00649569
0.0101532
0.0116295
0.0120626
0.0120566
0.0116053
0.010785
0.00970419
0.00845779
0.00713583
0.00575183
0.010933
0.0122021
0.0125021
0.012331
0.0117154
0.0107527
0.009559
0.00822869
0.00683916
0.00540172
0.0119822
0.0129568
0.0131188
0.012797
0.0120456
0.0109773
0.00970978
0.00833143
0.00690567
0.00545015
0.0132813
0.0138936
0.013917
0.0134582
0.0125943
0.0114484
0.0101357
0.00873573
0.00730135
0.00586223
0.0147961
0.0149994
0.0148826
0.0142932
0.0133307
0.0121245
0.0107837
0.00937912
0.00795843
0.00655992
0.0164779
0.0162443
0.0159795
0.015259
0.0142027
0.0129438
0.0115838
0.0101856
0.00879617
0.00745518
0.0182593
0.017578
0.0171541
0.0162969
0.0151462
0.0138372
0.0124627
0.0110781
0.00973334
0.00846301
0.0200574
0.0189342
0.0183411
0.0173414
0.0160956
0.0147385
0.0133532
0.0119876
0.0106955
0.00950433
0.0217805
0.0202373
0.019471
0.0183289
0.0169915
0.0155913
0.0142011
0.0128583
0.0116164
0.0105061
0.0233341
0.0214095
0.0204767
0.0192032
0.0177864
0.0163532
0.0149648
0.0136396
0.012423
0.0113932
0.0246274
0.0223766
0.0212987
0.01992
0.0184503
0.0170067
0.0156321
0.0143143
0.01309
0.0121452
0.0255814
0.0230738
0.0218859
0.020444
0.018967
0.0175654
0.0162776
0.0150893
0.0140602
0.0134896
0.026135
0.0234473
0.0221941
0.0207385
0.0193
0.0179781
0.0168014
0.0157503
0.0148663
0.0143785
0.0262329
0.0234574
0.0221969
0.0207748
0.0194169
0.0182051
0.0171562
0.016245
0.0154859
0.0150317
0.0258508
0.0230846
0.0218702
0.0205369
0.019301
0.0182309
0.0173337
0.0165819
0.0159707
0.0155995
0.0249922
0.0223305
0.0212199
0.0200246
0.0189506
0.0180541
0.0173351
0.0167652
0.0163275
0.0160858
0.0236845
0.0212153
0.0202623
0.0192515
0.0183765
0.0176839
0.0171687
0.0168025
0.0165604
0.0164787
0.0219756
0.0197749
0.0190267
0.0182414
0.0175982
0.0171366
0.0168486
0.0167068
0.0166811
0.0167851
0.0199281
0.0180568
0.0175514
0.0170253
0.0166408
0.0164328
0.0163917
0.0164921
0.0167021
0.0170166
0.0176148
0.016115
0.0158798
0.0156375
0.0155317
0.0155939
0.0158149
0.0161717
0.0166331
0.0171815
0.0151254
0.0140108
0.0140588
0.0141141
0.0142982
0.0146404
0.0151332
0.0157562
0.0164811
0.0172838
0.0125743
0.0118181
0.0121423
0.0124958
0.0129711
0.0135949
0.0143622
0.0152558
0.0162509
0.0173239
0.00994102
0.00955636
0.0101559
0.0108037
0.0115659
0.0124676
0.0135078
0.0146721
0.0159393
0.0172945
0.00730021
0.00727773
0.0081383
0.00906662
0.0101031
0.0112716
0.0125761
0.0140051
0.0155391
0.0171799
0.00471411
0.00502773
0.00612389
0.00730914
0.00859907
0.0100155
0.0115687
0.0132502
0.0150373
0.0169541
0.0022233
0.00283973
0.00413864
0.00554975
0.00706527
0.00870434
0.0104838
0.0123994
0.01442
0.0165826
-0.000141655
0.000739946
0.00220055
0.00380239
0.00550973
0.00734013
0.00931695
0.0114421
0.0136758
0.0160328
-0.00236017
-0.0012552
0.000326486
0.00207757
0.00393799
0.00592382
0.00806495
0.0103677
0.0127804
0.0153133
-0.00442027
-0.00313495
-0.00147205
0.000383006
0.00235376
0.00445501
0.00672383
0.00917155
0.0117251
0.0144026
-0.00631651
-0.00489247
-0.00318922
-0.00127647
0.000759831
0.00293369
0.00529018
0.00785386
0.0105278
0.0132911
-0.00804809
-0.00652529
-0.00482199
-0.00289761
-0.000841609
0.00135958
0.00375557
0.00639219
0.00917819
0.0119701
-0.00962171
-0.00803636
-0.00637076
-0.0044791
-0.00244869
-0.000264656
0.00212195
0.00478151
0.00776598
0.0107892
-0.0110641
-0.0094365
-0.00783828
-0.00601894
-0.00405735
-0.00193615
0.000388011
0.00296882
0.00589149
0.00893517
-0.0123616
-0.0107222
-0.00922165
-0.00751109
-0.00565725
-0.00363939
-0.00141588
0.00105315
0.00385537
0.00685836
-0.0135135
-0.0118954
-0.0105196
-0.00894845
-0.00723344
-0.0053486
-0.00324846
-0.000892995
0.00180311
0.00473515
-0.0145241
-0.0129595
-0.0117302
-0.0103223
-0.00876924
-0.00703851
-0.00507939
-0.00284798
-0.000263015
0.00258279
-0.0153955
-0.0139156
-0.0128495
-0.0116216
-0.0102462
-0.00868375
-0.00687892
-0.00478476
-0.00232502
0.000427168
-0.0161269
-0.0147617
-0.0138702
-0.012832
-0.0116422
-0.0102545
-0.00860977
-0.00665903
-0.00433276
-0.00167874
-0.0167154
-0.0154933
-0.0147819
-0.0139357
-0.0129312
-0.0117162
-0.0102288
-0.00841935
-0.00622709
-0.00367108
-0.0171564
-0.016103
-0.0155714
-0.0149117
-0.0140839
-0.0130314
-0.0116906
-0.010013
-0.00794898
-0.00548456
-0.0174376
-0.016578
-0.0162214
-0.0157363
-0.0150696
-0.0141625
-0.0129512
-0.0113903
-0.00944464
-0.00706357
-0.017537
-0.0168954
-0.0167063
-0.0163795
-0.0158536
-0.0150703
-0.013968
-0.0125057
-0.010667
-0.00836602
-0.0174947
-0.0170707
-0.0170271
-0.0168325
-0.0164196
-0.0157336
-0.0147168
-0.0133333
-0.0115892
-0.00937065
-0.0172999
-0.0170896
-0.0171679
-0.0170767
-0.0167471
-0.0161308
-0.0151776
-0.0138572
-0.0122015
-0.0100892
-0.0169506
-0.0169443
-0.0171187
-0.0171004
-0.0168234
-0.0162489
-0.0153381
-0.0140695
-0.012507
-0.0105826
-0.0164534
-0.0166358
-0.0168774
-0.0169
-0.0166442
-0.0160824
-0.0151881
-0.0139543
-0.0124821
-0.0110898
-0.0158192
-0.016171
-0.0164484
-0.0164792
-0.0162126
-0.0156326
-0.0147211
-0.0134882
-0.0120347
-0.0102965
-0.0150673
-0.0155608
-0.0158419
-0.015848
-0.0155393
-0.014912
-0.0139551
-0.0126935
-0.0112612
-0.00950565
-0.0142226
-0.0148146
-0.015072
-0.0150225
-0.0146419
-0.0139395
-0.0129119
-0.0115944
-0.0101669
-0.00849353
-0.0133047
-0.0139527
-0.0141579
-0.0140237
-0.0135425
-0.0127352
-0.0116016
-0.0101702
-0.00865511
-0.00707885
-0.0123362
-0.0129941
-0.0131212
-0.012878
-0.0122735
-0.0113409
-0.0100901
-0.00853109
-0.00681577
-0.00512014
-0.0113391
-0.0119582
-0.0119859
-0.0116134
-0.0108633
-0.00976997
-0.00833068
-0.00647279
-0.00407148
-0.00120191
-0.0103415
-0.0108689
-0.0107782
-0.0102627
-0.00935982
-0.00811029
-0.00652213
-0.00454402
-0.00204746
0.0008721
-0.00935053
-0.00973779
-0.00951846
-0.00885737
-0.00780943
-0.0064289
-0.00474148
-0.00273964
-0.000358232
0.00243149
-0.00837094
-0.00857515
-0.00822459
-0.00742247
-0.00624035
-0.00474531
-0.0029707
-0.000925387
0.00140585
0.00406629
-0.00740347
-0.00738849
-0.00691099
-0.00597719
-0.00467315
-0.00307522
-0.00121977
0.000881615
0.00321794
0.00580737
-0.00644411
-0.00618074
-0.00558875
-0.00453658
-0.00312741
-0.00144258
0.000477971
0.00262025
0.00496479
0.00752112
-0.00548192
-0.00496615
-0.00425551
-0.00311152
-0.00162002
0.000129377
0.00209269
0.0042513
0.00658367
0.00909816
-0.00450703
-0.00373831
-0.00292628
-0.00171044
-0.000165208
0.00162287
0.00360319
0.00575185
0.00804667
0.010492
-0.00351038
-0.00250445
-0.00160698
-0.000342226
0.0012291
0.00302638
0.00499576
0.00710742
0.00933837
0.0116913
-0.00247863
-0.00126817
-0.000302272
0.000987666
0.00255596
0.00433162
0.00626092
0.00830894
0.0104508
0.0126902
)
;

boundaryField
{
    inlet
    {
        type            zeroGradient;
    }
    outlet
    {
        type            fixedValue;
        value           uniform 0;
    }
    cylinder
    {
        type            zeroGradient;
    }
    top
    {
        type            symmetryPlane;
    }
    bottom
    {
        type            symmetryPlane;
    }
    defaultFaces
    {
        type            empty;
    }
}


// ************************************************************************* //
