/*--------------------------------*- C++ -*----------------------------------*\
  =========                 |
  \\      /  F ield         | OpenFOAM: The Open Source CFD Toolbox
   \\    /   O peration     | Website:  https://openfoam.org
    \\  /    A nd           | Version:  7
     \\/     M anipulation  |
\*---------------------------------------------------------------------------*/
FoamFile
{
    version     2.0;
    format      ascii;
    class       volScalarField;
    location    "2";
    object      p;
}
// * * * * * * * * * * * * * * * * * * * * * * * * * * * * * * * * * * * * * //

dimensions      [0 2 -2 0 0 0 0];

internalField   nonuniform List<scalar> 
2000
(
0.540597
0.543933
0.548876
0.553889
0.557787
0.560445
0.562158
0.563269
0.564041
0.56464
0.539598
0.542964
0.547945
0.552898
0.556669
0.559144
0.560621
0.561454
0.561917
0.562199
0.537934
0.541421
0.546422
0.551344
0.555056
0.557426
0.558737
0.55934
0.559521
0.559486
0.535543
0.539229
0.544208
0.549109
0.552818
0.555159
0.556381
0.556814
0.556761
0.556427
0.532375
0.536358
0.541251
0.546124
0.549872
0.552251
0.553455
0.553782
0.553555
0.552963
0.528427
0.532827
0.53756
0.542386
0.546198
0.548659
0.549898
0.550174
0.549837
0.549051
0.523854
0.528595
0.533196
0.537966
0.541841
0.544391
0.545683
0.545953
0.545557
0.54466
0.518647
0.523836
0.52828
0.53298
0.536889
0.539484
0.540785
0.541065
0.540657
0.539765
0.512918
0.518654
0.522948
0.527574
0.531455
0.533982
0.53515
0.535338
0.534857
0.534158
0.506809
0.513152
0.517342
0.521898
0.525671
0.527982
0.528808
0.528573
0.527479
0.526721
0.565616
0.568606
0.569746
0.573643
0.572981
0.582031
0.575305
0.586578
0.579678
0.58521
0.562383
0.565468
0.566596
0.570551
0.570058
0.579025
0.572579
0.583662
0.577035
0.582477
0.558849
0.562041
0.563134
0.567168
0.566807
0.57579
0.569596
0.580571
0.574213
0.579602
0.554984
0.558341
0.559421
0.563538
0.563287
0.572346
0.566371
0.577307
0.571213
0.57658
0.550765
0.554451
0.555557
0.559765
0.559614
0.568771
0.562991
0.573931
0.568071
0.573431
0.546181
0.550383
0.551562
0.555865
0.555824
0.565091
0.559496
0.570466
0.564811
0.570164
0.541255
0.546105
0.547427
0.551816
0.551923
0.561286
0.555892
0.566913
0.561441
0.566779
0.536086
0.541603
0.543161
0.547611
0.547885
0.557291
0.552149
0.563221
0.557954
0.56325
0.530832
0.536892
0.538779
0.543345
0.543865
0.553183
0.548358
0.559412
0.554365
0.559556
0.525635
0.532129
0.534277
0.538867
0.539594
0.548753
0.544404
0.555335
0.550691
0.555668
0.514223
0.522671
0.52679
0.531055
0.532306
0.539367
0.536055
0.545564
0.541986
0.545945
0.486769
0.498283
0.504636
0.510816
0.514507
0.52203
0.520152
0.529011
0.525785
0.530172
0.45593
0.468961
0.4758
0.483051
0.488882
0.498134
0.498452
0.507787
0.505657
0.507929
0.418038
0.432814
0.440822
0.449403
0.456786
0.467337
0.469675
0.480579
0.480615
0.488154
0.374472
0.391362
0.400884
0.410824
0.419862
0.43126
0.435796
0.44594
0.446197
0.445292
0.323154
0.3422
0.353165
0.3646
0.374691
0.387212
0.391756
0.402364
0.408114
0.417591
0.266745
0.286577
0.298403
0.310391
0.322183
0.33558
0.343652
0.353213
0.347602
0.352542
0.196875
0.217727
0.229648
0.241703
0.252471
0.264669
0.271375
0.277082
0.289479
0.301878
0.127353
0.144448
0.154586
0.163968
0.171376
0.180539
0.181576
0.187458
0.189794
0.20648
0.0382826
0.0506853
0.0569195
0.0635452
0.0681367
0.075808
0.0763357
0.0817981
0.0768781
0.0819102
0.500034
0.469616
0.437254
0.397395
0.352509
0.299839
0.244153
0.173486
0.11004
0.0248188
0.493232
0.461889
0.428984
0.388597
0.343201
0.290339
0.234685
0.164546
0.101925
0.0193601
0.486598
0.455135
0.421788
0.38119
0.335358
0.282435
0.226733
0.15715
0.0947556
0.0143441
0.480321
0.448928
0.415054
0.374387
0.328124
0.275162
0.219292
0.150295
0.0880003
0.00937799
0.474646
0.443444
0.408985
0.368258
0.321613
0.268489
0.212302
0.143732
0.0815434
0.00417913
0.46982
0.438773
0.403679
0.362747
0.315774
0.262355
0.205665
0.137383
0.0751813
-0.00195133
0.46601
0.435076
0.399362
0.358002
0.31076
0.256915
0.199558
0.131398
0.0688376
-0.00966562
0.463387
0.432566
0.396223
0.354215
0.306715
0.252315
0.194133
0.125924
0.0625558
-0.0185951
0.46206
0.431424
0.394401
0.351594
0.303797
0.248684
0.189522
0.121015
0.0566393
-0.0264685
0.462056
0.431639
0.393892
0.350168
0.301976
0.245965
0.185666
0.116625
0.0515838
-0.030185
0.463289
0.432942
0.394466
0.349686
0.301029
0.243973
0.182474
0.112793
0.0478935
-0.0310601
0.465678
0.43523
0.396024
0.349993
0.300968
0.242741
0.180028
0.109623
0.0457148
-0.0311421
0.469313
0.438609
0.398763
0.351213
0.302031
0.242403
0.17835
0.106888
0.0442975
-0.0300844
0.474177
0.443203
0.402759
0.353976
0.303599
0.242657
0.176962
0.103886
0.0420666
-0.0281855
0.480158
0.448669
0.407623
0.357334
0.305383
0.242806
0.175185
0.1003
0.0389416
-0.0260425
0.486682
0.454272
0.412661
0.36064
0.307083
0.242875
0.173013
0.097819
0.0354555
-0.0238503
0.493519
0.460336
0.418622
0.365137
0.31081
0.245481
0.173962
0.0981908
0.0327103
-0.0217638
0.502661
0.46991
0.428881
0.374918
0.320693
0.254687
0.181459
0.103147
0.0318701
-0.0197859
0.516391
0.484591
0.444432
0.390883
0.336119
0.269056
0.193315
0.110611
0.0322812
-0.017807
0.526387
0.494012
0.452872
0.398695
0.341175
0.271936
0.193896
0.109304
0.0296331
-0.0158221
0.529126
0.49612
0.450496
0.391526
0.327328
0.252839
0.171611
0.0886627
0.0170481
-0.0112886
0.539139
0.501817
0.45156
0.388352
0.316671
0.235207
0.149126
0.0656716
0.00490915
-0.00692047
0.552852
0.513896
0.461078
0.393906
0.31513
0.226145
0.134412
0.0517873
0.00282137
-0.00221541
0.568581
0.529516
0.474585
0.403453
0.317078
0.218925
0.120676
0.0399219
0.0030568
0.00116414
0.588179
0.551505
0.49592
0.42004
0.323356
0.213108
0.108894
0.0346818
0.00892673
0.00408486
0.614651
0.581228
0.524156
0.439619
0.329122
0.207742
0.10274
0.0394352
0.0210211
0.00741647
0.641745
0.608695
0.550163
0.460362
0.341769
0.21492
0.111741
0.0569138
0.0388245
0.012212
0.656553
0.635534
0.589706
0.507877
0.384904
0.245387
0.134439
0.0847498
0.0583539
0.0193934
0.704272
0.696628
0.664902
0.58251
0.438403
0.278388
0.160554
0.109804
0.0762999
0.0286926
0.707685
0.70904
0.692197
0.624467
0.483372
0.312047
0.191967
0.135489
0.0898408
0.0355018
0.561791
0.571555
0.582655
0.595021
0.610805
0.631783
0.658346
0.663425
0.706416
0.705275
0.571703
0.582758
0.59339
0.605398
0.620497
0.639331
0.665631
0.666614
0.707805
0.703724
0.579715
0.591159
0.601266
0.613249
0.628209
0.645541
0.670704
0.669568
0.708059
0.701456
0.587961
0.598762
0.607844
0.619336
0.633772
0.649659
0.67354
0.671287
0.706897
0.69932
0.595865
0.606163
0.614385
0.625186
0.638718
0.653047
0.675822
0.67249
0.705451
0.697591
0.602954
0.612653
0.620416
0.630673
0.643347
0.656186
0.678092
0.673677
0.704218
0.696079
0.609225
0.618095
0.625563
0.635321
0.647287
0.65877
0.67995
0.674606
0.70296
0.694563
0.614686
0.622671
0.629929
0.639147
0.650499
0.660698
0.681214
0.675086
0.701507
0.69303
0.619317
0.626508
0.63367
0.642356
0.653165
0.662123
0.682029
0.675226
0.69995
0.691552
0.623161
0.629691
0.636848
0.645039
0.655376
0.663152
0.682511
0.675153
0.698395
0.690159
0.626307
0.632305
0.639499
0.647221
0.657148
0.663819
0.68269
0.674901
0.696861
0.688837
0.628884
0.634482
0.641726
0.648999
0.658572
0.664211
0.682641
0.674513
0.69536
0.687586
0.63099
0.636322
0.643646
0.650494
0.659764
0.664462
0.682478
0.674076
0.693923
0.686409
0.632606
0.637779
0.645232
0.651722
0.660742
0.664598
0.682226
0.673617
0.692545
0.685287
0.633723
0.638798
0.646348
0.652585
0.661445
0.664564
0.681831
0.673096
0.691173
0.684184
0.63443
0.639473
0.647019
0.653046
0.661826
0.66434
0.681276
0.672487
0.689766
0.683076
0.634822
0.639912
0.647403
0.653221
0.661908
0.663938
0.680601
0.671813
0.68832
0.681961
0.63497
0.640162
0.647608
0.653249
0.66178
0.663386
0.679844
0.671108
0.686848
0.680844
0.635104
0.640297
0.647688
0.653208
0.661521
0.662734
0.678977
0.670384
0.685349
0.67972
0.634925
0.640193
0.647566
0.653066
0.661108
0.662047
0.677999
0.669653
0.683827
0.678615
0.629168
0.637188
0.644386
0.650909
0.658356
0.659446
0.674632
0.667207
0.680017
0.675489
0.633236
0.639215
0.644741
0.650116
0.655971
0.655741
0.670807
0.661637
0.675216
0.66991
0.638232
0.643482
0.64836
0.652647
0.657013
0.654799
0.668877
0.657684
0.670989
0.664928
0.638707
0.642888
0.647403
0.65142
0.655684
0.65261
0.666369
0.654209
0.666923
0.660463
0.640526
0.643774
0.647249
0.650429
0.654237
0.649923
0.663265
0.650433
0.662477
0.65578
0.641311
0.644046
0.646898
0.649469
0.652951
0.647425
0.660175
0.646558
0.657735
0.650684
0.641588
0.643925
0.646272
0.648342
0.651586
0.645127
0.657142
0.642681
0.652668
0.645031
0.641527
0.643631
0.645597
0.647246
0.650098
0.643152
0.65415
0.638855
0.646951
0.637738
0.641251
0.643294
0.645022
0.646396
0.64838
0.641351
0.651426
0.635152
0.641624
0.631817
0.6408
0.643232
0.645016
0.646377
0.646327
0.643061
0.648468
0.63293
0.639937
0.604142
0.627191
0.632013
0.636537
0.637052
0.639365
0.640107
0.640565
0.640583
0.640819
0.639537
0.625981
0.631304
0.635983
0.636364
0.638853
0.639541
0.640063
0.640094
0.640496
0.638933
0.624688
0.630063
0.635298
0.635593
0.638196
0.638868
0.639453
0.639503
0.639968
0.638232
0.624364
0.628832
0.634476
0.634822
0.637496
0.638214
0.638858
0.638931
0.639401
0.637593
0.624777
0.627982
0.633734
0.634134
0.636837
0.637629
0.638319
0.638419
0.638857
0.637099
0.625051
0.62723
0.633
0.633482
0.63619
0.637082
0.637808
0.637943
0.638316
0.63672
0.624722
0.626302
0.632174
0.632823
0.635534
0.636552
0.637313
0.637493
0.637761
0.636403
0.623791
0.625184
0.63129
0.632178
0.634899
0.636051
0.636848
0.637082
0.637222
0.63613
0.622355
0.624081
0.630393
0.631568
0.634311
0.635588
0.636427
0.636724
0.636717
0.635914
0.620626
0.62302
0.62948
0.630992
0.633777
0.635163
0.636052
0.636408
0.63627
0.635765
0.61871
0.622052
0.628539
0.630453
0.633284
0.634774
0.635725
0.636142
0.635886
0.63569
0.616643
0.621184
0.627547
0.629967
0.632806
0.634423
0.635443
0.635928
0.635572
0.635696
0.614508
0.620353
0.626522
0.62947
0.632342
0.634095
0.635201
0.635765
0.63533
0.635785
0.612349
0.619479
0.625472
0.628938
0.631887
0.633784
0.634995
0.635652
0.635166
0.635946
0.610154
0.618581
0.624382
0.628384
0.631433
0.633489
0.634823
0.635585
0.63508
0.63617
0.607989
0.617647
0.623237
0.627835
0.630977
0.633212
0.634683
0.635563
0.635072
0.636444
0.605906
0.616664
0.622035
0.627287
0.630519
0.632953
0.634574
0.635581
0.635142
0.636752
0.603928
0.615599
0.620792
0.626719
0.630054
0.63271
0.634491
0.635633
0.635282
0.637068
0.602123
0.614462
0.619561
0.626116
0.629578
0.632473
0.634425
0.635711
0.635483
0.637393
0.600078
0.613019
0.618289
0.625415
0.629102
0.632252
0.634397
0.63583
0.635774
0.637661
0.598778
0.609974
0.616823
0.624561
0.628729
0.632317
0.634847
0.636547
0.637311
0.638566
0.60547
0.612469
0.618228
0.62634
0.629854
0.633685
0.636392
0.638232
0.639264
0.639781
0.608551
0.614063
0.619308
0.627769
0.631005
0.635174
0.638134
0.640189
0.641306
0.641463
0.610538
0.616095
0.620738
0.629535
0.632987
0.63759
0.640973
0.643313
0.644407
0.644438
0.607541
0.614102
0.618492
0.627196
0.63079
0.635445
0.639187
0.64228
0.644679
0.645949
0.617761
0.623885
0.62877
0.637303
0.642066
0.647436
0.65186
0.655087
0.656469
0.655747
0.607195
0.613935
0.618678
0.627002
0.631963
0.637429
0.642415
0.646986
0.651048
0.655687
0.619862
0.626919
0.632777
0.640722
0.647157
0.653965
0.660648
0.666635
0.671007
0.674639
0.610428
0.618226
0.623907
0.631441
0.637833
0.644532
0.651577
0.659514
0.665078
0.683915
0.616059
0.624103
0.630439
0.638046
0.64533
0.653388
0.662706
0.673554
0.6878
0.72631
0.592082
0.594051
0.594458
0.598894
0.595157
0.607958
0.596744
0.611818
0.602433
0.608962
0.589174
0.590392
0.590802
0.595506
0.591934
0.604729
0.593733
0.608984
0.599707
0.606401
0.586582
0.588686
0.589628
0.594042
0.590969
0.602784
0.592352
0.606999
0.597699
0.604412
0.584064
0.58683
0.588
0.592373
0.589659
0.600787
0.590936
0.604901
0.595769
0.602348
0.581628
0.584557
0.585721
0.590072
0.587667
0.598334
0.589015
0.602483
0.593639
0.600063
0.579209
0.582154
0.583276
0.587532
0.585439
0.595662
0.586875
0.599943
0.591412
0.597684
0.576726
0.579693
0.580802
0.584947
0.583154
0.592982
0.584736
0.597389
0.589177
0.595291
0.574144
0.577124
0.578232
0.582256
0.580764
0.590316
0.58256
0.594791
0.586915
0.592868
0.571449
0.574416
0.575524
0.579442
0.578262
0.587629
0.580271
0.592122
0.584589
0.590386
0.568619
0.57157
0.572695
0.57657
0.57568
0.58488
0.577853
0.589384
0.582183
0.587837
0.500462
0.50743
0.511602
0.516105
0.519702
0.521678
0.522032
0.521121
0.518724
0.515273
0.49404
0.501605
0.505879
0.510362
0.513743
0.51533
0.515193
0.513642
0.510607
0.506738
0.487723
0.495798
0.500334
0.504853
0.508014
0.509225
0.508655
0.506621
0.50328
0.499081
0.481704
0.490174
0.495156
0.499776
0.502744
0.503625
0.502695
0.500302
0.496743
0.492252
0.476188
0.484947
0.490549
0.495336
0.498147
0.498755
0.497532
0.494864
0.491099
0.486311
0.471387
0.480367
0.486725
0.491732
0.494423
0.494806
0.493344
0.490453
0.486469
0.481401
0.467516
0.476701
0.483891
0.489143
0.491741
0.491936
0.490274
0.487195
0.482983
0.477675
0.464799
0.474211
0.482241
0.487727
0.490241
0.490268
0.488433
0.485188
0.480758
0.475277
0.463448
0.473126
0.481933
0.487612
0.490028
0.48989
0.487896
0.484498
0.479881
0.474303
0.463585
0.4736
0.483087
0.488888
0.491175
0.490859
0.488709
0.485157
0.480385
0.47478
0.465208
0.475699
0.485767
0.491605
0.49372
0.493206
0.490896
0.487184
0.482271
0.476645
0.468744
0.479583
0.49002
0.495771
0.497659
0.496941
0.494475
0.490615
0.485588
0.47993
0.474195
0.485197
0.495799
0.501336
0.502941
0.502042
0.499437
0.49545
0.490428
0.484797
0.481534
0.492479
0.503016
0.508167
0.509512
0.508439
0.505718
0.50169
0.496876
0.491278
0.490674
0.501344
0.51152
0.516154
0.517197
0.515978
0.513183
0.509242
0.504772
0.499089
0.501498
0.511705
0.521037
0.525084
0.525804
0.524448
0.521611
0.517842
0.513734
0.5078
0.513898
0.52312
0.531443
0.534769
0.535121
0.533612
0.53075
0.527183
0.523366
0.517029
0.527503
0.535343
0.542516
0.545023
0.544945
0.543248
0.540377
0.537007
0.533381
0.526761
0.541919
0.548147
0.554029
0.555654
0.555093
0.553175
0.55031
0.547082
0.543491
0.53702
0.556733
0.561209
0.565717
0.566439
0.565371
0.563232
0.560393
0.557191
0.55354
0.547666
0.571529
0.574181
0.577274
0.577093
0.575515
0.573167
0.570357
0.567076
0.563279
0.560723
0.585951
0.586713
0.588375
0.587299
0.585206
0.582602
0.579717
0.576467
0.573034
0.571304
0.599524
0.598445
0.598723
0.596788
0.594207
0.591366
0.588451
0.58543
0.582445
0.580658
0.611859
0.60908
0.608078
0.605362
0.602345
0.599304
0.596386
0.593591
0.590984
0.589297
0.622648
0.618385
0.616263
0.612879
0.609513
0.606347
0.603485
0.600917
0.598628
0.597105
0.631666
0.626198
0.623161
0.619257
0.615644
0.612432
0.60968
0.607365
0.605405
0.604064
0.638777
0.632427
0.628715
0.624458
0.620717
0.61754
0.614947
0.612904
0.611285
0.610172
0.643932
0.637045
0.632919
0.62849
0.624745
0.621685
0.619294
0.617518
0.616247
0.615396
0.647159
0.640085
0.635811
0.631398
0.627773
0.624911
0.622769
0.621278
0.620322
0.619737
0.648559
0.641626
0.637466
0.633251
0.629867
0.62728
0.625427
0.624226
0.623566
0.623244
0.648304
0.641791
0.637986
0.634141
0.631113
0.628873
0.627353
0.62646
0.626091
0.626026
0.646554
0.640709
0.63748
0.634164
0.631598
0.629774
0.628629
0.628076
0.628017
0.628213
0.643505
0.638535
0.636075
0.633428
0.631418
0.630069
0.629335
0.629143
0.629403
0.629869
0.639367
0.635431
0.633899
0.63204
0.630664
0.629837
0.629541
0.629719
0.630289
0.631012
0.634347
0.631556
0.631078
0.6301
0.629419
0.629153
0.629315
0.629874
0.63075
0.631703
0.628645
0.627063
0.62773
0.627703
0.627762
0.628082
0.628719
0.629675
0.630874
0.632049
0.622446
0.622096
0.623967
0.624937
0.625762
0.626683
0.627802
0.629171
0.630724
0.632136
0.615923
0.616789
0.619892
0.621883
0.623484
0.625004
0.626602
0.628389
0.630339
0.63203
0.609226
0.611261
0.615599
0.618616
0.620986
0.623092
0.625146
0.627336
0.629722
0.631805
0.602487
0.605619
0.611173
0.615202
0.618321
0.620979
0.623442
0.625992
0.628952
0.631789
0.595806
0.599953
0.606683
0.611702
0.615544
0.618716
0.621535
0.624365
0.627904
0.631343
0.589217
0.594325
0.602184
0.608151
0.612669
0.616275
0.619309
0.622077
0.625245
0.628243
0.582852
0.588815
0.597715
0.604565
0.609698
0.613655
0.616814
0.619426
0.622017
0.624451
0.576789
0.583472
0.593307
0.600955
0.606648
0.610928
0.614243
0.616842
0.619073
0.621286
0.571091
0.578319
0.588993
0.597342
0.603562
0.608185
0.611743
0.614524
0.616693
0.618821
0.565804
0.573395
0.584808
0.593759
0.600487
0.60549
0.609363
0.612451
0.614797
0.616932
0.560929
0.568793
0.58076
0.590245
0.597467
0.602874
0.607101
0.610536
0.613175
0.615415
0.556479
0.564644
0.576805
0.586842
0.594541
0.600353
0.60494
0.608713
0.611666
0.614062
0.552463
0.560813
0.573108
0.583607
0.591733
0.59793
0.602859
0.606937
0.610181
0.612721
0.548921
0.55731
0.569695
0.580547
0.589052
0.595599
0.600832
0.605176
0.608685
0.611332
0.545958
0.554211
0.566565
0.577665
0.586481
0.593342
0.598832
0.603395
0.60715
0.609917
0.54332
0.551449
0.563699
0.574967
0.584023
0.591134
0.596852
0.601586
0.605505
0.60863
0.541059
0.549042
0.561103
0.572448
0.581671
0.588966
0.594854
0.599729
0.603781
0.607119
0.539205
0.546995
0.55877
0.570093
0.579406
0.586818
0.592817
0.597795
0.601961
0.605386
0.537745
0.5453
0.556695
0.5679
0.577221
0.584684
0.59074
0.595779
0.600045
0.603563
0.536658
0.543941
0.554876
0.565869
0.57512
0.582569
0.588626
0.593686
0.59803
0.601668
0.535921
0.542903
0.553309
0.564006
0.573112
0.580481
0.586485
0.591516
0.595904
0.599677
0.535506
0.542164
0.551991
0.562318
0.571209
0.578434
0.584327
0.589268
0.593638
0.597547
0.535385
0.541701
0.550915
0.56081
0.569424
0.576446
0.582166
0.586944
0.591182
0.595147
0.535525
0.541486
0.550074
0.559489
0.567772
0.574538
0.580029
0.584572
0.588523
0.592224
0.535891
0.541489
0.549453
0.558355
0.566264
0.572729
0.577936
0.582149
0.585584
0.588214
0.536409
0.541663
0.549034
0.557406
0.564908
0.571047
0.575971
0.579925
0.583149
0.58578
0.53707
0.541985
0.548803
0.556636
0.563699
0.569489
0.574128
0.577857
0.580904
0.583461
0.537835
0.542422
0.548736
0.556033
0.562626
0.568022
0.572328
0.575775
0.578549
0.580841
0.53865
0.542929
0.548805
0.555585
0.561685
0.566642
0.570562
0.573678
0.576165
0.578191
0.539453
0.543454
0.548972
0.555277
0.560883
0.565379
0.56889
0.571661
0.573886
0.575695
0.540175
0.54394
0.549187
0.555079
0.560219
0.564261
0.567363
0.569791
0.571757
0.573372
0.540735
0.544316
0.549381
0.554936
0.559661
0.563279
0.565987
0.568074
0.569769
0.571177
0.541042
0.544503
0.549466
0.554767
0.559142
0.562381
0.564721
0.56647
0.567873
0.569045
0.541006
0.544415
0.549336
0.554461
0.558561
0.561476
0.563481
0.564902
0.565993
0.566895
)
;

boundaryField
{
    inlet
    {
        type            zeroGradient;
    }
    outlet
    {
        type            fixedValue;
        value           uniform 0;
    }
    cylinder
    {
        type            zeroGradient;
    }
    top
    {
        type            symmetryPlane;
    }
    bottom
    {
        type            symmetryPlane;
    }
    defaultFaces
    {
        type            empty;
    }
}


// ************************************************************************* //
