/*--------------------------------*- C++ -*----------------------------------*\
  =========                 |
  \\      /  F ield         | OpenFOAM: The Open Source CFD Toolbox
   \\    /   O peration     | Website:  https://openfoam.org
    \\  /    A nd           | Version:  7
     \\/     M anipulation  |
\*---------------------------------------------------------------------------*/
FoamFile
{
    version     2.0;
    format      ascii;
    class       volScalarField;
    location    "2";
    object      p;
}
// * * * * * * * * * * * * * * * * * * * * * * * * * * * * * * * * * * * * * //

dimensions      [0 2 -2 0 0 0 0];

internalField   nonuniform List<scalar> 
8000
(
0.480932
0.484904
0.487776
0.490944
0.494083
0.49714
0.500079
0.50287
0.505493
0.507939
0.510207
0.512301
0.514228
0.516001
0.517635
0.519144
0.520543
0.521848
0.523079
0.524204
0.479357
0.48341
0.48636
0.489609
0.492819
0.495935
0.49892
0.501743
0.504385
0.506838
0.509101
0.511179
0.513083
0.514824
0.516419
0.517881
0.519227
0.520474
0.521643
0.522696
0.477645
0.48182
0.484863
0.488204
0.491493
0.494674
0.497709
0.500567
0.503231
0.505693
0.507954
0.510021
0.511904
0.513617
0.515175
0.516594
0.517888
0.519078
0.520187
0.521159
0.475839
0.480161
0.483303
0.486741
0.490112
0.493359
0.496446
0.499341
0.502028
0.504501
0.506763
0.508821
0.510687
0.512374
0.513899
0.515276
0.51652
0.517653
0.518704
0.519588
0.473934
0.478422
0.48167
0.48521
0.488667
0.491983
0.495123
0.498056
0.500768
0.503254
0.505519
0.507571
0.509422
0.511088
0.512582
0.51392
0.515114
0.516193
0.517189
0.517976
0.471921
0.476599
0.479961
0.483609
0.487154
0.490541
0.493735
0.496706
0.499444
0.501945
0.504214
0.506263
0.508104
0.50975
0.511217
0.512517
0.513665
0.514691
0.515634
0.516317
0.469796
0.474687
0.47817
0.481933
0.48557
0.489028
0.492276
0.495286
0.498049
0.500566
0.502842
0.504891
0.506723
0.508353
0.509795
0.511061
0.512164
0.513138
0.514033
0.514602
0.467557
0.472685
0.476298
0.480179
0.483911
0.487442
0.490742
0.49379
0.496579
0.499112
0.501397
0.503446
0.505273
0.506889
0.508309
0.509543
0.510603
0.511529
0.512379
0.512827
0.465204
0.470593
0.474342
0.478348
0.482175
0.485778
0.489131
0.492216
0.49503
0.497579
0.499873
0.501924
0.503746
0.505351
0.506751
0.507956
0.508976
0.509856
0.510666
0.510987
0.462735
0.468411
0.472304
0.476438
0.480363
0.484036
0.487439
0.490559
0.493397
0.495961
0.498264
0.500318
0.502137
0.503731
0.505114
0.506294
0.507277
0.508115
0.50889
0.509078
0.460153
0.466142
0.470185
0.474451
0.478473
0.482215
0.485667
0.488819
0.491678
0.494256
0.496567
0.498623
0.500438
0.502024
0.503392
0.50455
0.505501
0.506301
0.507048
0.5071
0.457461
0.46379
0.467989
0.47239
0.476508
0.480317
0.483813
0.486995
0.489873
0.492462
0.494778
0.496835
0.498646
0.500223
0.501579
0.502719
0.503643
0.504412
0.505139
0.505054
0.454665
0.46136
0.46572
0.470257
0.47447
0.478342
0.48188
0.485088
0.487981
0.490578
0.492896
0.49495
0.496755
0.498324
0.499671
0.500798
0.501701
0.502448
0.503167
0.50295
0.451773
0.45886
0.463385
0.468058
0.472364
0.476297
0.479872
0.483101
0.486004
0.488604
0.490918
0.492966
0.494763
0.496325
0.497664
0.498785
0.499676
0.500413
0.501141
0.500803
0.448796
0.456297
0.460991
0.465802
0.470197
0.474185
0.477792
0.481037
0.483945
0.486541
0.488848
0.490884
0.492669
0.494221
0.495556
0.496675
0.497567
0.498313
0.499077
0.498641
0.445747
0.453685
0.458548
0.463495
0.467976
0.472015
0.475648
0.478903
0.481809
0.484395
0.486686
0.488704
0.490472
0.492011
0.49334
0.494463
0.49537
0.496151
0.496993
0.496507
0.44264
0.451035
0.456069
0.461149
0.465712
0.469795
0.473448
0.476705
0.479603
0.48217
0.484437
0.486429
0.488172
0.489691
0.491009
0.492139
0.493073
0.493918
0.494898
0.494456
0.439497
0.448363
0.453566
0.458776
0.463414
0.467535
0.471202
0.474455
0.477335
0.479876
0.482109
0.484063
0.485769
0.487255
0.488553
0.489686
0.490658
0.491607
0.492853
0.492661
0.436336
0.445686
0.451056
0.45639
0.461097
0.465249
0.468922
0.472163
0.475016
0.477521
0.479709
0.481613
0.483264
0.484697
0.485952
0.487068
0.488082
0.489224
0.491062
0.491659
0.433178
0.443019
0.448551
0.454003
0.458773
0.46295
0.466621
0.469842
0.472662
0.47512
0.477252
0.47909
0.480664
0.48201
0.483167
0.484183
0.485127
0.486348
0.488705
0.490519
0.526396
0.530767
0.53366
0.536803
0.539507
0.542103
0.5445
0.546737
0.548805
0.550711
0.552454
0.554038
0.555465
0.556736
0.557854
0.558817
0.559622
0.560254
0.560697
0.560929
0.52468
0.529175
0.531985
0.535128
0.537814
0.540407
0.542804
0.545047
0.547125
0.549044
0.550803
0.552405
0.55385
0.555143
0.55628
0.557268
0.55809
0.558745
0.5592
0.559445
0.522858
0.527557
0.530266
0.53342
0.536088
0.53868
0.541077
0.543328
0.545418
0.547352
0.549128
0.55075
0.552215
0.553532
0.55469
0.555704
0.556545
0.557225
0.557693
0.557953
0.52092
0.525912
0.5285
0.531677
0.534329
0.53692
0.539321
0.54158
0.543682
0.545632
0.547428
0.549072
0.55056
0.551902
0.553085
0.554125
0.55499
0.55569
0.556176
0.556452
0.518854
0.524232
0.526683
0.529896
0.532534
0.535128
0.537534
0.539803
0.541919
0.543886
0.545704
0.547371
0.548885
0.550253
0.551464
0.552529
0.553421
0.554142
0.554647
0.554939
0.516653
0.522511
0.524813
0.528074
0.530703
0.533303
0.535716
0.537995
0.540127
0.542114
0.543954
0.545647
0.547189
0.548584
0.549826
0.550917
0.551837
0.55258
0.553104
0.553413
0.514307
0.520742
0.522886
0.526211
0.528835
0.531445
0.533866
0.536157
0.538305
0.540313
0.542178
0.543899
0.54547
0.546896
0.548169
0.549289
0.550237
0.551003
0.551546
0.551872
0.511812
0.518915
0.5209
0.524303
0.52693
0.529552
0.531983
0.534288
0.536454
0.538484
0.540376
0.542126
0.543729
0.545188
0.546493
0.547643
0.54862
0.549411
0.549972
0.550314
0.509165
0.517022
0.518856
0.52235
0.524986
0.527624
0.530068
0.532386
0.534571
0.536626
0.538546
0.540328
0.541966
0.543458
0.544797
0.545979
0.546985
0.5478
0.548382
0.548739
0.506369
0.51505
0.516754
0.520348
0.523004
0.525661
0.528117
0.530451
0.532657
0.534737
0.536688
0.538505
0.540178
0.541706
0.54308
0.544295
0.54533
0.546172
0.546773
0.547145
0.503431
0.51299
0.514595
0.518296
0.520981
0.523658
0.52613
0.528481
0.530709
0.532818
0.534802
0.536656
0.538367
0.539933
0.541342
0.54259
0.543656
0.544524
0.545145
0.545531
0.500367
0.51083
0.512383
0.516193
0.518917
0.521615
0.524103
0.526473
0.528726
0.530866
0.532887
0.534779
0.536531
0.538136
0.539583
0.540865
0.541962
0.542856
0.543498
0.543897
0.497201
0.508558
0.510121
0.514035
0.516806
0.519525
0.522033
0.524425
0.526706
0.528881
0.530941
0.532875
0.534669
0.536315
0.5378
0.539117
0.540245
0.541166
0.541829
0.54224
0.49397
0.506165
0.507813
0.511817
0.514643
0.517385
0.519916
0.522334
0.524648
0.526862
0.528965
0.530943
0.532782
0.53447
0.535995
0.537347
0.538506
0.539454
0.540138
0.540559
0.490727
0.503648
0.505463
0.509535
0.512422
0.515189
0.517749
0.5202
0.522552
0.524809
0.526958
0.528984
0.530869
0.532601
0.534166
0.535553
0.536744
0.537719
0.538423
0.538855
0.487561
0.501025
0.503087
0.507196
0.510148
0.512943
0.515538
0.518027
0.520423
0.522726
0.524924
0.526999
0.528932
0.530709
0.532315
0.533737
0.534958
0.535959
0.536685
0.537125
0.484556
0.498282
0.500662
0.504778
0.507801
0.510631
0.51327
0.515806
0.518252
0.520607
0.522857
0.524984
0.526967
0.528791
0.530439
0.531896
0.533148
0.534175
0.534922
0.535369
0.481667
0.49518
0.497977
0.502107
0.505238
0.508138
0.510852
0.51346
0.515977
0.518401
0.520716
0.522906
0.52495
0.526829
0.528524
0.530021
0.531305
0.532359
0.53313
0.533585
0.479161
0.491632
0.494942
0.499108
0.502407
0.505431
0.508264
0.510982
0.513597
0.51611
0.518508
0.520774
0.522887
0.524828
0.526576
0.528116
0.529433
0.530515
0.531312
0.531775
0.479335
0.489665
0.493149
0.497163
0.500507
0.503547
0.506396
0.509125
0.511748
0.514267
0.516669
0.518938
0.521056
0.523001
0.524753
0.526295
0.527614
0.528695
0.529491
0.529943
0.488388
0.4926
0.49498
0.498027
0.50076
0.503145
0.505368
0.507526
0.509644
0.511722
0.513744
0.515687
0.517528
0.519247
0.520825
0.522244
0.523474
0.524466
0.525164
0.525526
0.474484
0.478859
0.482099
0.485875
0.489318
0.49232
0.495075
0.49769
0.500199
0.50261
0.504919
0.507111
0.509169
0.511075
0.512812
0.514362
0.515701
0.516784
0.517556
0.517958
0.460497
0.465177
0.468981
0.473243
0.477213
0.480745
0.483996
0.487063
0.489976
0.492746
0.495373
0.497847
0.500153
0.502276
0.504198
0.505903
0.507369
0.508552
0.509398
0.509839
0.446408
0.451423
0.45559
0.460244
0.464672
0.468674
0.472373
0.475854
0.479146
0.482258
0.485192
0.487941
0.490493
0.492834
0.494947
0.496817
0.498416
0.499699
0.500605
0.501072
0.431048
0.436306
0.440773
0.44584
0.450756
0.455261
0.45945
0.463395
0.467118
0.470626
0.473921
0.476998
0.479846
0.482451
0.484799
0.48687
0.488634
0.490036
0.491012
0.49151
0.414211
0.419708
0.424472
0.429963
0.435377
0.440402
0.445105
0.449548
0.453744
0.457695
0.461401
0.464855
0.468047
0.470964
0.473587
0.475895
0.477851
0.479394
0.480454
0.480989
0.395849
0.401646
0.406741
0.412664
0.418576
0.424121
0.429347
0.434303
0.438994
0.443415
0.447561
0.451425
0.454993
0.458251
0.461179
0.463747
0.465913
0.467608
0.468761
0.469337
0.375864
0.382033
0.387501
0.393869
0.400282
0.406348
0.412099
0.417576
0.422774
0.42768
0.432286
0.43658
0.440547
0.444167
0.447416
0.450259
0.452645
0.4545
0.45575
0.45637
0.35416
0.360761
0.366643
0.373466
0.380379
0.386965
0.39324
0.399238
0.404945
0.410344
0.41542
0.420156
0.424534
0.428528
0.432109
0.435235
0.437848
0.439867
0.441217
0.441881
0.330646
0.337726
0.344056
0.351339
0.358746
0.365841
0.372629
0.379137
0.385347
0.391233
0.396777
0.401956
0.406747
0.41112
0.415037
0.418449
0.421291
0.423475
0.424927
0.425637
0.305241
0.312825
0.319629
0.32737
0.335253
0.342835
0.350111
0.357104
0.363793
0.370146
0.37614
0.38175
0.386944
0.391687
0.395934
0.399628
0.402696
0.405044
0.406597
0.407353
0.277833
0.285948
0.293246
0.301431
0.309759
0.31779
0.325511
0.332946
0.34007
0.34685
0.353258
0.359266
0.364837
0.369928
0.374488
0.378453
0.38174
0.384249
0.385902
0.386703
0.248378
0.257008
0.264805
0.273405
0.282124
0.290541
0.298641
0.306447
0.313936
0.321075
0.327835
0.334184
0.340082
0.345479
0.350318
0.354523
0.358005
0.360656
0.362394
0.363233
0.216659
0.225865
0.234186
0.243163
0.2522
0.260913
0.269293
0.277367
0.285117
0.292512
0.299526
0.306128
0.312276
0.317915
0.32298
0.32739
0.331048
0.333834
0.335661
0.336536
0.18292
0.192571
0.201393
0.210654
0.219878
0.228745
0.237257
0.245447
0.253304
0.260804
0.267927
0.274644
0.280914
0.286677
0.291863
0.29638
0.300121
0.302956
0.304797
0.305683
0.146567
0.156924
0.166287
0.175752
0.18501
0.193848
0.202293
0.21039
0.218141
0.22554
0.232576
0.239232
0.24547
0.251236
0.256457
0.261039
0.264866
0.267792
0.269705
0.270599
0.109529
0.119769
0.129367
0.138695
0.147651
0.156147
0.164218
0.171909
0.179237
0.186211
0.192837
0.199107
0.204988
0.210427
0.215345
0.219644
0.223205
0.225885
0.227599
0.228442
0.0699346
0.0809057
0.0905102
0.0993425
0.107595
0.115347
0.122659
0.129579
0.136147
0.142394
0.148347
0.154021
0.159406
0.164464
0.169128
0.173299
0.176839
0.179565
0.181326
0.182063
0.0360564
0.0439765
0.0523039
0.0595325
0.0660988
0.0721873
0.0778382
0.083093
0.0880006
0.0926028
0.0969331
0.10101
0.104831
0.108367
0.111572
0.114381
0.116716
0.118456
0.119541
0.12022
-0.00647938
0.00329811
0.00974908
0.0152755
0.0202387
0.0246895
0.0287063
0.0323791
0.0357774
0.0389623
0.0419883
0.044896
0.0477041
0.0504039
0.0529559
0.0552856
0.0572867
0.0588112
0.0596733
0.0597347
0.475335
0.463197
0.451594
0.437755
0.422262
0.405128
0.38644
0.366138
0.344158
0.320415
0.294854
0.267316
0.237938
0.20621
0.173212
0.136767
0.102553
0.0606646
0.0374358
-0.0194856
0.474143
0.460244
0.448629
0.434427
0.418724
0.401412
0.382568
0.362121
0.340009
0.316154
0.290506
0.262895
0.233509
0.201752
0.168939
0.132361
0.0990011
0.0561478
0.0370919
-0.0249901
0.472081
0.456741
0.445044
0.430551
0.414729
0.39732
0.378387
0.35785
0.335651
0.311721
0.286016
0.258358
0.228971
0.197216
0.164535
0.127889
0.0951567
0.0516711
0.0359403
-0.0299207
0.469278
0.453097
0.441426
0.426744
0.410851
0.393365
0.374352
0.35373
0.331447
0.30744
0.281673
0.253965
0.22456
0.192805
0.160222
0.123536
0.0913348
0.0473716
0.034591
-0.0346615
0.466193
0.449546
0.437887
0.423054
0.407093
0.389527
0.37043
0.34972
0.327348
0.303258
0.277422
0.24966
0.220227
0.188468
0.155956
0.119256
0.087507
0.0431757
0.0331026
-0.0393703
0.462936
0.446128
0.434426
0.419464
0.403432
0.385783
0.366598
0.345797
0.323334
0.299157
0.273248
0.245429
0.215959
0.184195
0.151728
0.115038
0.083661
0.0390585
0.0314645
-0.0441014
0.459564
0.442854
0.431062
0.415994
0.399886
0.38215
0.362872
0.341977
0.319419
0.29515
0.269161
0.241284
0.211767
0.179994
0.147547
0.11089
0.0798091
0.0350196
0.0296839
-0.0489141
0.456158
0.439744
0.427823
0.412671
0.396478
0.378649
0.359271
0.338276
0.315618
0.29125
0.265175
0.237234
0.207663
0.175874
0.143421
0.106821
0.0759669
0.0310657
0.0277656
-0.0538827
0.452797
0.436815
0.424735
0.409513
0.393227
0.375296
0.355811
0.334708
0.311944
0.28747
0.261298
0.233289
0.203655
0.171843
0.139361
0.10284
0.0721489
0.027212
0.0257113
-0.0590853
0.449552
0.434081
0.421819
0.406537
0.390149
0.372108
0.352505
0.331285
0.308406
0.283818
0.257541
0.229456
0.199751
0.167908
0.135378
0.0989579
0.0683683
0.0234833
0.023533
-0.0645682
0.446489
0.431558
0.419098
0.403759
0.38726
0.369099
0.349368
0.32802
0.305017
0.280306
0.253914
0.225743
0.195958
0.164078
0.131485
0.0951852
0.0646357
0.0199102
0.0212425
-0.0703868
0.443668
0.429263
0.416594
0.401195
0.384572
0.366282
0.346412
0.324926
0.301788
0.276944
0.250427
0.222159
0.192285
0.160362
0.127697
0.0915365
0.0609642
0.0165322
0.0187541
-0.0771535
0.441138
0.427212
0.41433
0.39886
0.382102
0.363671
0.343651
0.322014
0.298728
0.273742
0.24709
0.218713
0.188739
0.156769
0.12403
0.0880295
0.0573822
0.0134292
0.015815
-0.0858374
0.438942
0.425422
0.412323
0.396767
0.379862
0.361278
0.341097
0.319295
0.29585
0.270711
0.243913
0.215412
0.185326
0.153307
0.120499
0.0846838
0.053943
0.0107324
0.0122426
-0.0963545
0.437117
0.423911
0.410593
0.39493
0.377864
0.359116
0.338761
0.316781
0.293162
0.267859
0.240904
0.212265
0.182056
0.149983
0.117115
0.0815166
0.0507144
0.00862497
0.00840788
-0.106513
0.435691
0.422696
0.409156
0.393363
0.376122
0.357195
0.336654
0.314482
0.290676
0.265195
0.238072
0.209282
0.178935
0.146804
0.113886
0.078537
0.0477459
0.00718537
0.00563896
-0.100039
0.434687
0.421792
0.408027
0.392078
0.374648
0.355528
0.334787
0.31241
0.2884
0.26273
0.235426
0.206469
0.175973
0.143775
0.110813
0.0757423
0.0450457
0.00629485
0.00384299
-0.0782958
0.434121
0.421215
0.407218
0.391087
0.373451
0.354124
0.333171
0.310574
0.286346
0.26047
0.23297
0.203833
0.173176
0.140901
0.107897
0.0731218
0.0425838
0.00576092
0.0022234
-0.0612637
0.434005
0.420977
0.406741
0.390401
0.372543
0.352993
0.331814
0.308984
0.284523
0.258425
0.230713
0.20138
0.170552
0.138186
0.105138
0.0706619
0.0403188
0.00538452
0.000681581
-0.0493157
0.434342
0.421091
0.406604
0.390028
0.371933
0.352144
0.330725
0.307648
0.282939
0.256601
0.22866
0.199116
0.168102
0.135633
0.102534
0.0683497
0.0382154
0.00505101
-0.000725313
-0.0403703
0.435134
0.421565
0.406815
0.389977
0.371629
0.351585
0.329912
0.306574
0.281602
0.255007
0.226817
0.197043
0.165831
0.133239
0.100085
0.066172
0.0362472
0.00470962
-0.00192256
-0.0336106
0.436379
0.422408
0.407378
0.390255
0.371639
0.351327
0.329384
0.305772
0.280522
0.253651
0.225191
0.195167
0.163738
0.131005
0.0977841
0.0641143
0.0343925
0.00433534
-0.00293942
-0.0284706
0.438073
0.423621
0.408299
0.39087
0.371972
0.351376
0.329149
0.305248
0.279705
0.252539
0.223789
0.193494
0.161826
0.128928
0.0956263
0.0621635
0.032637
0.00389815
-0.00422608
-0.0241612
0.440207
0.425206
0.409577
0.391824
0.372632
0.351738
0.329212
0.305007
0.279156
0.251678
0.222617
0.192027
0.160096
0.127006
0.0936053
0.0603095
0.0309664
0.00339152
-0.00532914
-0.0208773
0.442762
0.427167
0.411214
0.393122
0.373623
0.352419
0.32958
0.305056
0.278881
0.251073
0.22168
0.190772
0.158551
0.125242
0.0917168
0.0585461
0.0293713
0.00281563
-0.00626789
-0.018353
0.445725
0.429501
0.413207
0.394767
0.37495
0.353424
0.330257
0.305399
0.278884
0.250728
0.220982
0.189733
0.157195
0.123636
0.0899586
0.0568716
0.0278512
0.0022239
-0.0071335
-0.0163539
0.449076
0.432203
0.415555
0.396758
0.376614
0.354755
0.331247
0.30604
0.27917
0.250646
0.220528
0.188912
0.15603
0.122192
0.08833
0.0552869
0.0264057
0.00159114
-0.00789602
-0.0147402
0.452792
0.435268
0.418253
0.399096
0.378615
0.356414
0.332552
0.306982
0.27974
0.25083
0.220319
0.188312
0.155058
0.120909
0.0868318
0.0537932
0.0250201
0.000949828
-0.00856936
-0.0134198
0.45685
0.438687
0.421294
0.401778
0.380952
0.358399
0.334173
0.308228
0.280597
0.251284
0.220358
0.187938
0.154278
0.119788
0.0854643
0.0523917
0.0237085
0.000303169
-0.00916593
-0.0123238
0.461224
0.44245
0.424672
0.404798
0.383619
0.360707
0.336109
0.309778
0.281745
0.252008
0.220648
0.187786
0.153693
0.118832
0.0842218
0.0510819
0.0224705
-0.000337615
-0.00969148
-0.0114
0.465888
0.446546
0.428376
0.408149
0.386609
0.363333
0.338357
0.311632
0.283182
0.253006
0.221188
0.187858
0.153304
0.118037
0.0831071
0.0498623
0.0213036
-0.000964619
-0.0101502
-0.0106096
0.470813
0.450964
0.432395
0.411819
0.389914
0.366271
0.340914
0.313788
0.284912
0.254279
0.221983
0.188157
0.153111
0.117402
0.0821186
0.0487311
0.0202058
-0.00157269
-0.0105471
-0.00992408
0.475972
0.455692
0.43672
0.415798
0.393526
0.369516
0.343777
0.316249
0.286936
0.255833
0.223037
0.188687
0.153119
0.11693
0.0812564
0.0476869
0.0191749
-0.0021583
-0.0108872
-0.00932211
0.481344
0.46073
0.441342
0.420077
0.397438
0.373065
0.346948
0.319014
0.289257
0.257669
0.224353
0.189454
0.15333
0.116622
0.0805207
0.0467296
0.0182097
-0.002718
-0.0111746
-0.00878733
0.486907
0.466054
0.446226
0.424617
0.401615
0.376885
0.350392
0.322052
0.291844
0.259761
0.225908
0.190435
0.153729
0.116467
0.0799041
0.0458568
0.0173103
-0.00324672
-0.0114108
-0.00830654
0.492585
0.471557
0.451258
0.429309
0.405961
0.380888
0.35403
0.325288
0.294631
0.262051
0.227651
0.191591
0.154281
0.116438
0.0793866
0.0450556
0.0164693
-0.00374347
-0.0115976
-0.0078691
0.498285
0.477185
0.456417
0.434158
0.410503
0.385121
0.357921
0.328797
0.297701
0.264627
0.229673
0.193008
0.155057
0.116582
0.0789816
0.0443101
0.015655
-0.00423572
-0.0117529
-0.00746939
0.504316
0.4835
0.462295
0.439751
0.415831
0.390169
0.362648
0.333147
0.301607
0.268018
0.232466
0.195123
0.156424
0.117172
0.0788535
0.0436799
0.0148477
-0.00477459
-0.0119188
-0.00710759
0.511231
0.491106
0.469416
0.446531
0.422315
0.396345
0.368467
0.338553
0.306525
0.27237
0.236158
0.198067
0.158531
0.118393
0.0792275
0.0434054
0.0142513
-0.00522505
-0.0120334
-0.00676131
0.515879
0.496227
0.474123
0.450841
0.426262
0.399935
0.371675
0.341353
0.308891
0.274291
0.237631
0.19912
0.159216
0.118797
0.07945
0.0435655
0.0144145
-0.00491712
-0.0116297
-0.00632747
0.513343
0.495343
0.473876
0.450374
0.425423
0.398668
0.369897
0.339017
0.306007
0.27094
0.233998
0.195533
0.156125
0.116723
0.0788112
0.0445164
0.0165817
-0.00207571
-0.00911823
-0.00509672
0.520327
0.502203
0.480679
0.456696
0.430927
0.403108
0.373055
0.3407
0.30606
0.269256
0.230549
0.190393
0.149527
0.109104
0.0708632
0.0371882
0.0109206
-0.0052064
-0.00977938
-0.00463862
0.525413
0.507417
0.486037
0.461918
0.435627
0.406962
0.37578
0.342047
0.305835
0.267346
0.226966
0.185318
0.143351
0.102443
0.0645205
0.0320337
0.0076808
-0.00625999
-0.00921685
-0.0039112
0.530051
0.512543
0.491478
0.4674
0.440757
0.411365
0.379106
0.343978
0.306107
0.265801
0.223604
0.180356
0.137261
0.0959673
0.0586068
0.0276734
0.00558756
-0.00610267
-0.00785993
-0.00304814
0.534863
0.51791
0.497219
0.473263
0.446356
0.416296
0.382966
0.346385
0.306746
0.264492
0.220377
0.175521
0.13143
0.0900134
0.0535395
0.0244093
0.00461805
-0.00509417
-0.00613803
-0.00221626
0.540097
0.523744
0.503488
0.479733
0.452642
0.421965
0.38756
0.349453
0.307914
0.263556
0.21741
0.170942
0.126001
0.0847417
0.0494805
0.0223797
0.00484709
-0.00325199
-0.00411156
-0.00141525
0.545933
0.530218
0.510468
0.486998
0.459805
0.428561
0.393071
0.353352
0.309762
0.263133
0.214852
0.166809
0.121226
0.0804504
0.0467191
0.0217904
0.00635312
-0.000592064
-0.0017941
-0.000607442
0.552445
0.537433
0.518283
0.495207
0.468018
0.436281
0.399712
0.358303
0.312513
0.263456
0.212968
0.163444
0.117487
0.0775443
0.0456124
0.0228734
0.00920987
0.00285744
0.00080117
0.000242871
0.559635
0.545414
0.526994
0.504457
0.477421
0.445309
0.407712
0.364573
0.316472
0.264875
0.212174
0.161339
0.115324
0.0765446
0.046566
0.0258469
0.0134551
0.00705128
0.00366257
0.00116401
0.567429
0.554115
0.536587
0.514781
0.488104
0.455805
0.417309
0.372486
0.322051
0.267904
0.213089
0.161193
0.115444
0.0780545
0.0499787
0.0308678
0.0190663
0.0119225
0.006777
0.00217327
0.575687
0.563409
0.546965
0.526126
0.500082
0.467881
0.428739
0.382421
0.329794
0.273249
0.216551
0.163893
0.118657
0.0826739
0.0561613
0.0379817
0.025948
0.0173853
0.0101277
0.00327462
0.584199
0.573089
0.557938
0.53834
0.513276
0.481572
0.442201
0.394791
0.340346
0.28177
0.223549
0.170406
0.125737
0.0908615
0.06524
0.0470838
0.0339329
0.0233416
0.0136931
0.00446006
0.592702
0.582881
0.569231
0.551168
0.527492
0.496803
0.457811
0.409963
0.354353
0.294336
0.235023
0.181545
0.1372
0.10277
0.0770729
0.0579027
0.0427934
0.0296865
0.017445
0.00571306
0.600913
0.592476
0.580508
0.564267
0.542414
0.513347
0.475506
0.428108
0.372228
0.311512
0.25152
0.197645
0.153057
0.118111
0.0912164
0.070021
0.0522637
0.036309
0.0213443
0.00701268
0.608566
0.601571
0.591414
0.577235
0.557612
0.530783
0.494929
0.448976
0.393828
0.333185
0.27282
0.218276
0.172657
0.136123
0.106958
0.0829166
0.0620512
0.0430798
0.0253299
0.0083341
0.615445
0.609906
0.601617
0.589647
0.572554
0.548464
0.515319
0.471702
0.418178
0.358251
0.297681
0.242093
0.194658
0.155602
0.123365
0.095973
0.0718075
0.0498099
0.0292944
0.00964242
0.621397
0.617277
0.610812
0.601062
0.586601
0.565485
0.535442
0.494686
0.443327
0.384495
0.323778
0.266845
0.21706
0.174939
0.139268
0.108423
0.0810531
0.0561918
0.0330534
0.0108808
0.626284
0.623459
0.618638
0.610917
0.598899
0.580591
0.553537
0.515603
0.466438
0.408745
0.347878
0.289534
0.23733
0.192166
0.153248
0.119289
0.0891157
0.0617628
0.0363307
0.0119612
0.629863
0.628059
0.624519
0.61838
0.608271
0.592154
0.567431
0.531699
0.484249
0.427441
0.366429
0.306926
0.252761
0.205183
0.163754
0.127442
0.0951722
0.0659485
0.0387879
0.0127713
0.631766
0.630539
0.627709
0.622442
0.613378
0.598452
0.574981
0.540419
0.493873
0.437528
0.376433
0.316299
0.261065
0.212172
0.169387
0.131814
0.0984226
0.0681929
0.0400987
0.0131978
0.536949
0.540497
0.544018
0.547313
0.551021
0.555243
0.560139
0.565711
0.571916
0.578642
0.585722
0.592937
0.600034
0.606764
0.612926
0.618405
0.623158
0.627142
0.630183
0.631835
0.543447
0.546038
0.549425
0.552399
0.555898
0.559921
0.564627
0.569984
0.575936
0.582359
0.589081
0.595888
0.602535
0.608789
0.614473
0.619495
0.623837
0.627472
0.630255
0.631768
0.548125
0.549693
0.553111
0.555916
0.559347
0.56329
0.56791
0.573148
0.578939
0.585151
0.591613
0.598118
0.604436
0.610349
0.615698
0.620396
0.624428
0.627767
0.630294
0.631654
0.552669
0.553318
0.556676
0.55929
0.562633
0.566463
0.570965
0.576053
0.581661
0.587649
0.59385
0.600064
0.606074
0.611678
0.616726
0.621138
0.624896
0.627976
0.630276
0.631503
0.557147
0.55703
0.560263
0.562672
0.565912
0.569611
0.573971
0.578887
0.584291
0.590039
0.595969
0.601887
0.607589
0.612886
0.617638
0.621769
0.625264
0.628101
0.630199
0.631309
0.561396
0.560623
0.563691
0.565898
0.56904
0.57261
0.576829
0.581571
0.58677
0.59228
0.597942
0.603571
0.608975
0.613975
0.618442
0.622304
0.625549
0.628158
0.630071
0.631075
0.565386
0.564058
0.56692
0.568929
0.571972
0.575416
0.579497
0.584068
0.589066
0.594343
0.599746
0.605098
0.610217
0.614938
0.619136
0.622746
0.625756
0.628155
0.629897
0.630803
0.569116
0.567345
0.569971
0.571784
0.57472
0.578038
0.581981
0.586383
0.591182
0.596232
0.601384
0.606471
0.611321
0.615777
0.619724
0.623098
0.62589
0.628094
0.629679
0.630497
0.572576
0.570474
0.572848
0.574474
0.577293
0.580484
0.584289
0.588523
0.593127
0.597956
0.602868
0.607701
0.612295
0.616501
0.620211
0.623365
0.625954
0.627978
0.629421
0.630158
0.575759
0.573429
0.575547
0.577
0.579694
0.582757
0.586424
0.590493
0.594906
0.599522
0.604202
0.608793
0.613145
0.617116
0.620605
0.623553
0.625954
0.627813
0.629124
0.629789
0.578663
0.576199
0.578066
0.579363
0.581926
0.584861
0.58839
0.592298
0.596526
0.600935
0.605394
0.609756
0.613878
0.617629
0.620911
0.623667
0.625894
0.627601
0.628793
0.629392
0.581293
0.578777
0.580401
0.581562
0.583993
0.586801
0.590192
0.593942
0.597991
0.602202
0.60645
0.610595
0.614501
0.618045
0.621133
0.623712
0.625778
0.627346
0.62843
0.628969
0.583657
0.581158
0.582552
0.5836
0.585899
0.588583
0.591836
0.595432
0.599309
0.60333
0.607378
0.611317
0.61502
0.61837
0.621277
0.623691
0.62561
0.62705
0.628036
0.628523
0.585766
0.583343
0.584522
0.585477
0.587648
0.590211
0.593329
0.596776
0.600485
0.604326
0.608183
0.611928
0.615441
0.61861
0.621349
0.623611
0.625393
0.626718
0.627615
0.628055
0.587633
0.585333
0.586315
0.587196
0.589244
0.591691
0.594678
0.597979
0.601528
0.605196
0.608873
0.612436
0.615771
0.61877
0.621353
0.623473
0.625132
0.626351
0.627168
0.627566
0.589271
0.587134
0.587936
0.58876
0.590692
0.59303
0.595888
0.599049
0.602445
0.605949
0.609456
0.612847
0.616014
0.618855
0.621293
0.623284
0.624829
0.625953
0.626698
0.627059
0.590697
0.58875
0.589392
0.590174
0.591999
0.594234
0.596968
0.599995
0.603244
0.606592
0.609937
0.613167
0.616178
0.618871
0.621175
0.623047
0.624488
0.625526
0.626206
0.626534
0.591927
0.590189
0.590692
0.591444
0.593169
0.595308
0.597924
0.600822
0.603931
0.607131
0.610324
0.613403
0.616266
0.618823
0.621002
0.622764
0.624111
0.625071
0.625693
0.625992
0.592977
0.591459
0.591844
0.592575
0.594211
0.596259
0.598763
0.601538
0.604514
0.607574
0.610624
0.613559
0.616286
0.618714
0.620779
0.62244
0.623701
0.624591
0.625161
0.625434
0.593866
0.592569
0.592858
0.593575
0.595131
0.597095
0.599493
0.602152
0.605
0.607927
0.610841
0.613643
0.616241
0.61855
0.620508
0.622077
0.623259
0.624086
0.62461
0.624861
0.594611
0.593529
0.593744
0.594452
0.595936
0.597823
0.600121
0.602669
0.605397
0.608198
0.610983
0.613658
0.616136
0.618334
0.620194
0.621677
0.622789
0.623559
0.624041
0.624273
0.595227
0.594345
0.59451
0.595212
0.596635
0.598449
0.600653
0.603096
0.605709
0.60839
0.611054
0.613611
0.615975
0.61807
0.619838
0.621244
0.622291
0.62301
0.623455
0.623669
0.595732
0.595028
0.595167
0.595865
0.597234
0.59898
0.601097
0.603441
0.605945
0.608512
0.611061
0.613505
0.615763
0.617761
0.619445
0.620779
0.621767
0.622439
0.622851
0.623051
0.596141
0.595589
0.595725
0.596418
0.597741
0.599425
0.601459
0.603708
0.606109
0.608568
0.611008
0.613345
0.615503
0.617411
0.619016
0.620284
0.621218
0.621849
0.622231
0.622418
0.596469
0.596036
0.596192
0.59688
0.598164
0.599789
0.601746
0.603906
0.606208
0.608564
0.6109
0.613136
0.6152
0.617023
0.618554
0.619761
0.620645
0.621239
0.621594
0.62177
0.596729
0.596379
0.596578
0.597259
0.598511
0.60008
0.601964
0.604039
0.606247
0.608506
0.610743
0.612883
0.614857
0.6166
0.618062
0.619212
0.620051
0.62061
0.620942
0.621108
0.596935
0.596627
0.59689
0.597563
0.598787
0.600305
0.602119
0.604113
0.606232
0.608397
0.61054
0.612589
0.614479
0.616146
0.617544
0.61864
0.619437
0.619965
0.620275
0.620432
0.597095
0.59679
0.597137
0.597798
0.599
0.600468
0.602217
0.604134
0.606168
0.608244
0.610297
0.612259
0.614068
0.615664
0.617
0.618047
0.618805
0.619303
0.619593
0.619743
0.597219
0.596877
0.597325
0.597974
0.599156
0.600576
0.602263
0.604106
0.606059
0.60805
0.610017
0.611897
0.613628
0.615156
0.616434
0.617434
0.618155
0.618626
0.618898
0.61904
0.597314
0.596897
0.59746
0.598095
0.59926
0.600635
0.602262
0.604035
0.60591
0.607819
0.609705
0.611505
0.613164
0.614626
0.615849
0.616804
0.61749
0.617936
0.61819
0.618326
0.597384
0.596862
0.597548
0.59817
0.599317
0.600649
0.602218
0.603924
0.605725
0.607556
0.609363
0.611088
0.612677
0.614076
0.615246
0.616159
0.616811
0.617232
0.617471
0.617599
0.597432
0.596781
0.597593
0.598203
0.599333
0.600623
0.602137
0.603777
0.605507
0.607264
0.608997
0.610649
0.61217
0.61351
0.614629
0.615499
0.61612
0.616518
0.616741
0.616862
0.597458
0.596665
0.5976
0.598201
0.599311
0.60056
0.60202
0.603599
0.605261
0.606947
0.608608
0.610191
0.611647
0.612929
0.613998
0.614828
0.615417
0.615792
0.616
0.616114
0.59746
0.596524
0.59757
0.598167
0.599254
0.600465
0.601873
0.603392
0.604988
0.606606
0.608199
0.609716
0.611109
0.612335
0.613356
0.614147
0.614705
0.615058
0.615251
0.615356
0.597431
0.596368
0.597504
0.598105
0.599167
0.60034
0.601697
0.603159
0.604693
0.606246
0.607774
0.609226
0.61056
0.611731
0.612705
0.613457
0.613984
0.614314
0.614492
0.614589
0.597359
0.596207
0.597407
0.59802
0.599054
0.600192
0.6015
0.602907
0.604381
0.605871
0.607336
0.608726
0.610002
0.61112
0.612046
0.612759
0.613255
0.613563
0.613726
0.613813
0.597246
0.596061
0.597287
0.59792
0.598923
0.600026
0.601285
0.602638
0.604054
0.605484
0.606887
0.608218
0.609436
0.610501
0.611382
0.612055
0.612519
0.612803
0.612951
0.613028
0.597096
0.595939
0.597135
0.597786
0.59875
0.599817
0.601028
0.60233
0.603691
0.605065
0.606412
0.607688
0.608854
0.60987
0.610706
0.611341
0.611775
0.612035
0.612169
0.612235
0.596724
0.595734
0.596865
0.597553
0.598483
0.599517
0.600687
0.601945
0.603259
0.604587
0.605888
0.607118
0.60824
0.609215
0.610013
0.610614
0.611018
0.611258
0.611378
0.611434
0.595719
0.595339
0.596519
0.597348
0.598306
0.599343
0.600487
0.601704
0.602965
0.604234
0.605471
0.606637
0.607694
0.608609
0.609352
0.609908
0.610277
0.610491
0.610594
0.610639
0.59387
0.595462
0.596971
0.598266
0.599417
0.6005
0.601561
0.602605
0.603623
0.604598
0.605507
0.606329
0.607045
0.607641
0.608106
0.60844
0.608649
0.608755
0.608792
0.608799
0.594187
0.595294
0.596527
0.597707
0.598738
0.599687
0.600588
0.601446
0.602255
0.603003
0.603675
0.604259
0.604742