/*--------------------------------*- C++ -*----------------------------------*\
  =========                 |
  \\      /  F ield         | OpenFOAM: The Open Source CFD Toolbox
   \\    /   O peration     | Website:  https://openfoam.org
    \\  /    A nd           | Version:  7
     \\/     M anipulation  |
\*---------------------------------------------------------------------------*/
FoamFile
{
    version     2.0;
    format      ascii;
    class       surfaceScalarField;
    location    "2";
    object      phi;
}
// * * * * * * * * * * * * * * * * * * * * * * * * * * * * * * * * * * * * * //

dimensions      [0 3 -1 0 0 0 0];

internalField   nonuniform List<scalar> 
3880
(
-0.000104259
0.00362159
-0.00351733
0.000623529
0.00726729
-0.00799508
0.00228106
0.00907733
-0.0107349
0.00461467
0.00988882
-0.0122224
0.00730579
0.0102057
-0.0128968
0.0101009
0.0103537
-0.0131488
0.0128415
0.0105131
-0.0132537
0.0154495
0.0107587
-0.0133667
0.0178996
0.0111093
-0.0135595
0.011528
0.0202071
-0.0138355
-0.000169365
0.00379096
0.000514192
0.00658373
0.00219944
0.00739208
0.00465188
0.00743638
0.00754445
0.00731313
0.0106015
0.00729663
0.0136405
0.00747404
0.0165625
0.00783673
0.0193268
0.00834499
0.00890329
0.0219515
-0.000201575
0.00399253
0.000488205
0.00589396
0.00224455
0.00563574
0.00483813
0.0048428
0.00793208
0.00421917
0.011234
0.00399472
0.0145435
0.00416457
0.0177453
0.00463492
0.0207856
0.00530467
0.0059983
0.0236906
-0.000191035
0.00418357
0.000572622
0.0051303
0.00246198
0.00374638
0.00523206
0.00207272
0.00853154
0.000919683
0.0120575
0.000468739
0.0156008
0.000621326
0.0190384
0.00119726
0.0223103
0.00203278
0.00286519
0.0254434
-0.000127724
0.00431129
0.000791408
0.00421117
0.00289092
0.00164687
0.00588344
-0.000919794
0.00939569
-0.00259257
0.0131216
-0.00325714
0.0168548
-0.00311195
0.0204751
-0.00242302
0.0239281
-0.00142022
-0.000427094
0.0272204
2.82126e-06
0.00430847
0.00115854
0.00305546
0.0035519
-0.000746494
0.00681488
-0.00418277
0.0105451
-0.00632283
0.0144421
-0.00715415
0.0183173
-0.00698713
0.0220642
-0.00616989
0.0256521
-0.00500816
-0.00381119
0.0290362
0.00016326
0.00414521
0.00166921
0.00154951
0.00443468
-0.00351196
0.00800352
-0.00775161
0.011946
-0.0102653
0.0159788
-0.0111869
0.0199477
-0.0109561
0.0237709
-0.00999305
0.027461
-0.00869823
-0.00724662
0.0308964
0.000385834
0.00375937
0.00230677
-0.000371425
0.00549201
-0.0066972
0.00937142
-0.011631
0.0134991
-0.014393
0.0176255
-0.0153132
0.0216465
-0.0149772
0.0255103
-0.0138569
0.0292767
-0.0124646
-0.010739
0.0327691
0.000651843
0.00310753
0.00303473
-0.00275431
0.00664217
-0.0103046
0.0107914
-0.0157802
0.0150464
-0.018648
0.0192175
-0.0194844
0.0232667
-0.0190264
0.0271761
-0.0177662
0.0309929
-0.0162814
-0.014324
0.0345779
0.000949557
0.00215798
0.00380452
-0.00560927
0.00778185
-0.014282
0.0121103
-0.0201087
0.0163996
-0.0229372
0.0205476
-0.0236324
0.0246014
-0.0230802
0.0286342
-0.021799
0.0326524
-0.0202996
0.036203
-0.0178746
0.0208207
0.0516084
-0.052222
0.0205917
0.0599944
-0.0597653
0.0191877
0.0665492
-0.0651453
0.0172197
0.0727896
-0.0708216
0.0148039
0.0777912
-0.0753754
0.0119569
0.0835691
-0.0807221
0.00916429
0.0835833
-0.0807907
0.00610143
0.0909357
-0.0878729
0.00274644
0.086408
-0.083053
0.103916
-0.101169
0.0226702
0.0508896
0.0223612
0.0603034
0.0209055
0.0680049
0.0188256
0.0748696
0.0162428
0.080374
0.013184
0.0866279
0.0100782
0.0866891
0.00671217
0.0943017
0.00297067
0.0901495
0.106887
0.0244917
0.0500885
0.024106
0.0606891
0.0226291
0.0694818
0.0204331
0.0770655
0.0177144
0.0830927
0.0144527
0.0898897
0.0110424
0.0900993
0.00737324
0.0979709
0.0032413
0.0942814
0.110128
0.0262923
0.0492397
0.0258571
0.0611243
0.0243706
0.0709683
0.0220618
0.0793744
0.0192267
0.0859278
0.0157649
0.0933514
0.0120569
0.0938073
0.00808522
0.101943
0.00355782
0.0988088
0.113686
0.0280283
0.0484318
0.0275692
0.0615833
0.0261052
0.0724323
0.0237072
0.0817724
0.0207769
0.0888582
0.0171187
0.0970096
0.0131223
0.0978038
0.00885123
0.106214
0.00392089
0.103739
0.117607
0.0296533
0.0478147
0.0291942
0.0620425
0.0277994
0.073827
0.0253496
0.0842222
0.0223477
0.0918601
0.0185006
0.100857
0.0142296
0.102075
0.00966478
0.110778
0.00432861
0.109075
0.121935
0.0311427
0.0475684
0.0306916
0.0624936
0.0294249
0.0750938
0.0269691
0.0866779
0.0239345
0.0948947
0.0199101
0.104881
0.0153843
0.106601
0.0105325
0.11563
0.00478377
0.114824
0.126719
0.0324901
0.0478474
0.0320259
0.0629577
0.0309303
0.0761894
0.0285147
0.0890935
0.0254835
0.0979259
0.021299
0.109066
0.0165599
0.11134
0.0114432
0.120747
0.00528741
0.12098
0.132006
0.0337085
0.0487169
0.0332059
0.0634603
0.0323306
0.0770647
0.0300431
0.0913811
0.027065
0.100904
0.0226964
0.113434
0.0177471
0.116289
0.0123344
0.12616
0.00581273
0.127501
0.137819
0.035016
0.0499039
0.034366
0.0641103
0.0335134
0.0779173
0.0313586
0.0935358
0.0286438
0.103619
0.024025
0.118053
0.0191593
0.121155
0.013353
0.131966
0.00648735
0.134367
0.144306
0.135594
0.0583212
-0.144012
0.123763
0.0759417
0.108392
0.0932878
0.0931059
0.108822
0.0774622
0.119263
0.0627196
0.132795
0.0478556
0.136019
0.0321787
0.147643
0.0163629
0.150183
0.160669
0.146821
0.0729179
-0.161417
0.133215
0.0895479
0.120022
0.106481
0.106119
0.122725
0.089947
0.135434
0.0736377
0.149105
0.055592
0.154064
0.0368927
0.166342
0.0194673
0.167608
0.180137
0.161412
0.0870321
-0.175526
0.147745
0.103215
0.133645
0.12058
0.118799
0.137571
0.102163
0.152071
0.0846984
0.166569
0.064997
0.173766
0.0444545
0.186885
0.0247014
0.187361
0.204838
0.180081
0.100303
-0.193352
0.165525
0.117771
0.15009
0.136015
0.133508
0.154154
0.115175
0.170404
0.0956133
0.18613
0.0737396
0.195639
0.0497799
0.210844
0.024614
0.212527
0.229452
0.199209
0.113387
-0.212294
0.184426
0.132553
0.16818
0.152262
0.150135
0.172199
0.129771
0.190768
0.107249
0.208653
0.0821672
0.220721
0.0557017
0.23731
0.0310565
0.237172
0.260508
0.219332
0.126499
-0.232443
0.204457
0.147428
0.187803
0.168916
0.169131
0.190871
0.14824
0.211659
0.125589
0.231304
0.101565
0.244746
0.0762533
0.262621
0.0428828
0.270543
0.303391
0.243266
0.138007
-0.254774
0.228412
0.162282
0.210367
0.186961
0.188828
0.212409
0.162923
0.237565
0.131121
0.263105
0.0924288
0.283438
0.0458888
0.309161
0.0114706
0.304961
0.314862
0.262791
0.14981
-0.274594
0.250477
0.174596
0.236112
0.201326
0.219346
0.229175
0.199981
0.25693
0.178673
0.284413
0.156238
0.305874
0.133377
0.332022
0.08505
0.353288
0.399912
0.30218
0.163565
-0.315935
0.282714
0.194063
0.25895
0.225089
0.231772
0.256353
0.198417
0.290285
0.160897
0.321933
0.11415
0.352621
0.0668052
0.379366
0.0298987
0.390195
0.429811
0.314582
-0.295713
0.318918
0.313005
0.297033
0.275133
0.240362
0.199212
0.140826
0.071849
0.041339
-0.146161
-0.0391892
0.0440281
-0.164107
0.0462768
-0.177775
0.0479157
-0.194991
0.0488089
-0.213187
0.0493053
-0.23294
0.0481393
-0.253608
0.0479738
-0.274429
0.0437912
-0.311753
-0.282934
0.0405285
-0.148476
-0.0382143
0.0431583
-0.166736
0.0453222
-0.179939
0.0466601
-0.196328
0.047456
-0.213983
0.0476368
-0.233121
0.0466971
-0.252668
0.045886
-0.273618
0.0417088
-0.307576
-0.268718
0.0386566
-0.150766
-0.0363666
0.0410018
-0.169081
0.0430388
-0.181976
0.0441765
-0.197466
0.0449103
-0.214716
0.0450366
-0.233247
0.0442476
-0.251879
0.0435418
-0.272912
0.0387163
-0.30275
-0.253884
0.0362252
-0.153124
-0.0338668
0.0382949
-0.171151
0.0402777
-0.183958
0.0413026
-0.198491
0.0420398
-0.215454
0.0421971
-0.233404
0.0416565
-0.251339
0.0410746
-0.27233
0.035503
-0.297178
-0.238538
0.0332685
-0.155556
-0.0308369
0.035014
-0.172897
0.0369416
-0.185886
0.0379217
-0.199471
0.0387112
-0.216243
0.0389899
-0.233683
0.0387574
-0.251106
0.0382616
-0.271834
0.0320292
-0.290946
-0.222814
0.029777
-0.15797
-0.027363
0.0311811
-0.174301
0.0330991
-0.187804
0.034105
-0.200477
0.0350221
-0.21716
0.0354998
-0.234161
0.0356348
-0.251241
0.0352095
-0.271409
0.0284114
-0.284148
-0.206781
0.0258315
-0.160244
-0.0235569
0.0268646
-0.175334
0.0288043
-0.189744
0.0298755
-0.201548
0.0309815
-0.218266
0.0317217
-0.234901
0.0322389
-0.251758
0.0318366
-0.271007
0.0246673
-0.276979
-0.190533
0.0214633
-0.162214
-0.019494
0.0221116
-0.175982
0.0241261
-0.191758
0.0253057
-0.202728
0.0266587
-0.219619
0.0277189
-0.235961
0.0286079
-0.252647
0.0281945
-0.270593
0.0208365
-0.269621
-0.174267
0.0167551
-0.163756
-0.0152127
0.0170387
-0.176266
0.0191501
-0.19387
0.0204856
-0.204063
0.0221155
-0.221249
0.0235344
-0.23738
0.0247643
-0.253877
0.0243224
-0.270151
0.016849
-0.262147
-0.158385
0.0117728
-0.164838
-0.0106912
0.0117745
-0.176268
0.0139754
-0.19607
0.0155215
-0.205609
0.0174217
-0.223149
0.019213
-0.239171
0.0207666
-0.255431
0.0203376
-0.269722
0.0126754
-0.254485
-0.143416
0.00656395
-0.165517
-0.00588494
0.00644301
-0.176147
0.00870944
-0.198337
0.0104938
-0.207394
0.0126385
-0.225294
0.0147932
-0.241326
0.016677
-0.257315
0.0162736
-0.269319
0.00847525
-0.246687
-0.129593
0.00100334
-0.165776
-0.000744453
0.0012065
-0.17635
0.00333036
-0.200461
0.00543297
-0.209496
0.00780161
-0.227663
0.0103077
-0.243832
0.0125492
-0.259556
0.0121544
-0.268924
0.0042471
-0.238779
-0.117093
-0.00428137
-0.166514
0.00502028
-0.00374905
-0.176882
-0.00205386
-0.202156
0.00050071
-0.212051
0.00292976
-0.230092
0.00582406
-0.246727
0.00841881
-0.262151
0.00809812
-0.268603
-0.000279811
-0.230402
-0.106353
-0.00960141
-0.167649
0.0107358
-0.0084502
-0.178033
-0.00729396
-0.203312
-0.00457779
-0.214767
-0.00185893
-0.23281
0.00139961
-0.249985
0.00425684
-0.265008
0.00421891
-0.268565
-0.00313359
-0.223049
-0.095841
-0.0147131
-0.169038
0.0161023
-0.0129691
-0.179777
-0.0123845
-0.203897
-0.00948484
-0.217667
-0.00660898
-0.235686
-0.00314381
-0.25345
4.24532e-05
-0.268195
0.000547538
-0.26907
-0.00622483
-0.216277
-0.0857794
-0.0195547
-0.17015
0.0206663
-0.017444
-0.181888
-0.017234
-0.204107
-0.0142652
-0.220636
-0.0112174
-0.238734
-0.00743343
-0.257234
-0.00368873
-0.271939
-0.00347694
-0.269282
-0.00933429
-0.210419
-0.0762623
-0.0238882
-0.170465
0.0242036
-0.0216326
-0.184143
-0.0214951
-0.204244
-0.0184946
-0.223636
-0.0152876
-0.241941
-0.0112339
-0.261288
-0.00735314
-0.27582
-0.00700151
-0.269634
-0.0123842
-0.205037
-0.0673457
-0.0270983
-0.170272
0.0269052
-0.0250332
-0.186209
-0.0248099
-0.204468
-0.0218718
-0.226574
-0.0186401
-0.245173
-0.0145424
-0.265386
-0.0106745
-0.279688
-0.0100962
-0.270212
-0.0153822
-0.199751
-0.0590364
-0.0295274
-0.170121
0.0293768
-0.0280761
-0.18766
-0.0278157
-0.204728
-0.0252322
-0.229158
-0.0221163
-0.248289
-0.0181204
-0.269382
-0.0142577
-0.28355
-0.0133534
-0.271116
-0.0184828
-0.194621
-0.0513241
-0.0340382
-0.167905
0.031822
-0.0335337
-0.188164
-0.0331072
-0.205155
-0.0316637
-0.230601
-0.0286213
-0.251331
-0.0243621
-0.273641
-0.0198558
-0.288057
-0.0180108
-0.272961
-0.0213118
-0.19132
-0.0436867
-0.023881
-0.161024
0.0169995
-0.0234874
-0.188558
-0.023692
-0.20495
-0.0232126
-0.23108
-0.0197812
-0.254763
-0.0184937
-0.274928
-0.0261508
-0.2804
-0.0542582
-0.244854
-0.101327
-0.144252
-0.012775
-0.0471331
-0.155822
0.0419314
-0.0500736
-0.185618
-0.0492118
-0.205812
-0.0473114
-0.232981
-0.0452541
-0.25682
-0.0474545
-0.272728
-0.0644862
-0.263368
-0.104147
-0.205193
-0.152514
-0.0958855
0.00823456
-0.068834
-0.152498
0.0655098
-0.0720923
-0.182359
-0.0735413
-0.204363
-0.0728003
-0.233722
-0.0728079
-0.256812
-0.0807365
-0.264799
-0.107275
-0.236829
-0.1532
-0.159268
-0.197128
-0.0519573
0.0189664
-0.0947563
-0.147422
0.0896805
-0.100295
-0.176821
-0.102329
-0.202329
-0.102928
-0.233123
-0.105844
-0.253896
-0.121355
-0.249289
-0.158318
-0.199866
-0.208327
-0.109259
-0.244559
-0.0157254
0.0202306
-0.120289
-0.139262
0.11213
-0.129098
-0.168012
-0.133759
-0.197667
-0.137248
-0.229634
-0.146272
-0.244872
-0.172594
-0.222967
-0.218807
-0.153653
-0.266692
-0.0613734
-0.290447
0.00802868
0.0147013
-0.146981
-0.126727
0.134446
-0.160221
-0.154772
-0.169861
-0.188028
-0.180047
-0.219447
-0.199624
-0.225295
-0.237599
-0.184991
-0.28691
-0.104342
-0.324662
-0.0236214
-0.333823
0.0171888
0.00582582
-0.174915
-0.105512
0.153701
-0.196462
-0.133225
-0.215933
-0.168557
-0.237077
-0.198304
-0.268058
-0.194315
-0.312636
-0.140413
-0.355476
-0.0615023
-0.377402
-0.00169507
-0.374091
0.0138778
-0.00153474
-0.208566
-0.0784831
0.181537
-0.239895
-0.101896
-0.269371
-0.139081
-0.300929
-0.166746
-0.34308
-0.152163
-0.392096
-0.0913976
-0.427188
-0.0264095
-0.434422
0.00553841
-0.424172
0.0036278
-0.00490446
-0.221123
-0.0424045
0.185045
-0.260059
-0.0629608
-0.306604
-0.0925357
-0.365476
-0.107874
-0.437777
-0.0798626
-0.500427
-0.0287478
-0.525321
-0.00151475
-0.518193
-0.00159014
-0.509367
-0.00519784
-0.0029004
-0.216947
0.174543
-0.279908
-0.372444
-0.480318
-0.56018
-0.588928
-0.590443
-0.592033
-0.597231
-0.0408823
0.0214916
0.0363902
-0.0440323
0.0450814
-0.0459745
0.067452
-0.0457118
0.0894178
-0.0434754
0.109893
-0.0396272
0.130598
-0.0320458
0.146119
-0.024107
0.173598
-0.0121915
0.173129
0.162351
-0.0400713
0.0246739
0.0368889
-0.0421536
0.0471637
-0.0434063
0.0687048
-0.0425026
0.088514
-0.0401632
0.107554
-0.0359456
0.12638
-0.0300538
0.140228
-0.021075
0.164619
-0.0113048
0.163359
0.151047
-0.0402047
0.0275585
0.03732
-0.0413816
0.0483406
-0.0418892
0.0692124
-0.0402917
0.0869165
-0.0375849
0.104847
-0.0332771
0.122072
-0.027395
0.134345
-0.0190179
0.156242
-0.0101991
0.15454
0.140847
-0.0398251
0.030119
0.0372646
-0.040555
0.0490705
-0.0405657
0.0692231
-0.0384577
0.0848085
-0.0354022
0.101792
-0.0309421
0.117612
-0.0250959
0.128499
-0.0172373
0.148383
-0.0093055
0.146608
0.131542
-0.0388241
0.0322441
0.0366989
-0.0391972
0.0494436
-0.0388745
0.0689004
-0.0365229
0.082457
-0.0332938
0.0985627
-0.0287918
0.11311
-0.0230518
0.122759
-0.0157127
0.141044
-0.00851435
0.13941
0.123028
-0.0373974
0.0340006
0.035641
-0.0374624
0.0495087
-0.0368013
0.0682393
-0.0343652
0.0800209
-0.0310992
0.0952966
-0.026693
0.108704
-0.0211599
0.117226
-0.0143192
0.134204
-0.00767418
0.132765
0.115353
-0.0356153
0.0354693
0.0341465
-0.0355104
0.0494038
-0.0345134
0.0672422
-0.0320974
0.0776049
-0.0288464
0.0920457
-0.0246097
0.104467
-0.019363
0.111979
-0.0129655
0.127806
-0.00673049
0.12653
0.108623
-0.0335486
0.0367071
0.0323109
-0.0333873
0.0492425
-0.0320941
0.065949
-0.0297657
0.0752766
-0.0265558
0.0888359
-0.0225266
0.100438
-0.0176174
0.10707
-0.0116264
0.121815
-0.00573336
0.120637
0.10289
-0.0312934
0.0377579
0.0302426
-0.0311471
0.0490962
-0.0296052
0.0644071
-0.0273995
0.0730709
-0.0242576
0.0856939
-0.0204564
0.0966369
-0.0159128
0.102527
-0.0103231
0.116225
-0.0047656
0.11508
0.0981239
-0.0289282
0.0386359
0.0280502
-0.0288316
0.0489996
-0.0271124
0.0626879
-0.0250524
0.0710109
-0.0220057
0.0826472
-0.0184399
0.0930712
-0.0142747
0.0983613
-0.00909494
0.111046
-0.00389024
0.109875
0.0942337
-0.0265027
0.039354
0.0257846
-0.0264621
0.048959
-0.0246642
0.06089
-0.0227584
0.0691051
-0.019843
0.0797318
-0.0165167
0.0897448
-0.0127358
0.0945805
-0.00797534
0.106285
-0.0031388
0.105038
0.0910949
-0.0240323
0.0398978
0.0234885
-0.0240618
0.0489885
-0.0222443
0.0590725
-0.0204993
0.0673601
-0.0177794
0.0770119
-0.0147034
0.0866689
-0.0113124
0.0911895
-0.00697569
0.101948
-0.00251586
0.100579
0.088579
-0.0216192
0.0402217
0.0212953
-0.0217155
0.0490847
-0.0199249
0.057282
-0.0183333
0.0657684
-0.015852
0.0745306
-0.0130212
0.0838381
-0.0100174
0.0881857
-0.00609474
0.0980258
-0.00201105
0.0964948
0.086568
-0.0193795
0.0403338
0.0192674
-0.0195193
0.0492245
-0.0177877
0.0555504
-0.0163079
0.0642887
-0.0140949
0.0723175
-0.0114848
0.081228
-0.00885519
0.0855561
-0.00532052
0.0944911
-0.00160584
0.0927801
0.0849621
-0.0173256
0.0402704
0.017389
-0.0174491
0.0493479
-0.0158721
0.0539734
-0.0144652
0.0628818
-0.0125117
0.070364
-0.0100975
0.0788139
-0.00782515
0.0832837
-0.00464144
0.0913074
-0.00128502
0.0894237
0.0836771
-0.0154375
0.0400846
0.0156233
-0.0154988
0.0494092
-0.014133
0.0526076
-0.0128096
0.0615583
-0.0110938
0.0686483
-0.00885083
0.0765708
-0.00691879
0.0813517
-0.00404884
0.0884374
-0.00104094
0.0864158
0.0826362
-0.0136897
0.0398471
0.0139272
-0.0136853
0.0494049
-0.0125303
0.0514525
-0.0112895
0.0603176
-0.00981918
0.0671779
-0.0077341
0.0744858
-0.00612443
0.079742
-0.00353696
0.08585
-0.000872213
0.0837511
0.081764
-0.012022
0.0396353
0.0122338
-0.0119463
0.0493292
-0.0110315
0.0505378
-0.00985284
0.0591389
-0.00866376
0.0659888
-0.00673768
0.0725597
-0.00543104
0.0784354
-0.0031008
0.0835197
-0.000783722
0.081434
0.0809802
-0.0103655
0.0394733
0.0105275
-0.010306
0.0492697
-0.00963215
0.0498639
-0.00851936
0.0580261
-0.00761518
0.0650846
-0.00585381
0.0707983
-0.0048336
0.0774152
-0.00274085
0.081427
-0.000786337
0.0794795
0.0801939
-0.0088888
0.0399507
0.00841133
-0.00864523
0.0490261
-0.00823871
0.0494574
-0.00713485
0.0569222
-0.00654549
0.0644953
-0.00495661
0.0692094
-0.00427126
0.0767298
-0.00243195
0.0795876
-0.000895624
0.0779431
0.0792983
-0.0759537
0.0270093
0.0888951
-0.0661263
0.0391988
-0.0602219
0.0435529
-0.0532121
0.0499125
-0.045465
0.0567481
-0.0374174
0.0611618
-0.027896
0.0672085
-0.0185378
0.0702295
-0.00981741
0.0692227
0.0694809
-0.0696698
0.0286184
0.0680607
-0.0631159
0.0326449
-0.0585474
0.0389844
-0.0522267
0.0435918
-0.0444261
0.0489475
-0.0369096
0.0536453
-0.0271658
0.0574647
-0.0183024
0.0613661
-0.00996806
0.0608883
0.0595128
-0.0619543
0.0231151
0.0674576
-0.0564337
0.0271243
-0.0507994
0.0333501
-0.045022
0.0378144
-0.0384969
0.0424224
-0.031933
0.0470813
-0.023894
0.0494257
-0.0161837
0.0536558
-0.00845475
0.0531594
0.051058
-0.0568391
0.0191841
0.0607701
-0.0524436
0.0227288
-0.0470704
0.0279769
-0.0412531
0.0319971
-0.0347644
0.0359338
-0.0281313
0.0404482
-0.0208508
0.0421452
-0.0137727
0.0465776
-0.00675174
0.0461385
0.0443063
-0.0516933
0.0157508
0.0551266
-0.0477589
0.0187945
-0.0428976
0.0231155
-0.0374798
0.0265794
-0.0313829
0.0298369
-0.024969
0.0340344
-0.0183022
0.0354784
-0.0116849
0.0399603
-0.00537994
0.0398336
0.0389264
-0.0476513
0.0124659
0.0509362
-0.0438926
0.0150358
-0.0392281
0.0184511
-0.0340071
0.0213583
-0.0282242
0.024054
-0.0219055
0.0277156
-0.0157988
0.0293717
-0.00950958
0.033671
-0.00400185
0.0343258
0.0349245
-0.0444583
0.0094444
0.0474798
-0.0407822
0.0113596
-0.0362188
0.0138877
-0.0310585
0.016198
-0.0254576
0.0184531
-0.0188812
0.0211392
-0.0132538
0.0237442
-0.00683839
0.0272556
-0.00220965
0.0296971
0.0327149
-0.0421928
0.0065643
0.0450729
-0.0384958
0.00766259
-0.0339143
0.00930618
-0.0286816
0.0109653
-0.0231568
0.0129283
-0.0157967
0.0137792
-0.0106293
0.0185769
-0.00290509
0.0195314
0.000931602
0.0258604
0.0336465
-0.043883
0.00375509
0.0466922
-0.0400038
0.00378335
-0.0351598
0.00446216
-0.0295358
0.00534138
-0.0238031
0.00719558
-0.0149827
0.00495883
-0.00967934
0.0132735
0.000583981
0.00926807
0.00702351
0.0194209
0.04067
-0.108374
0.112129
-0.10459
-0.100128
-0.0947868
-0.0875912
-0.0826324
-0.0693589
-0.0600909
-0.04067
-0.00938406
0.089441
0.00883809
-0.00559811
0.0642748
-0.00482457
0.0666841
-0.00324719
0.0591928
-0.00225831
0.0541377
-0.00146757
0.0501455
-0.000863828
0.0468761
-0.000472776
0.0446819
-0.000640054
0.0468595
0.111489
-0.00785706
0.0885875
0.00871064
-0.00472369
0.0611414
-0.00430326
0.0662636
-0.00281072
0.0577002
-0.00203817
0.0533651
-0.00133706
0.0494444
-0.000808805
0.0463478
-0.000437022
0.0443101
-0.000532568
0.046955
0.110956
-0.00660821
0.0866504
0.00854526
-0.00432284
0.0588561
-0.0037668
0.0657076
-0.00251685
0.0564503
-0.00186128
0.0527096
-0.00124322
0.0488263
-0.000771842
0.0458765
-0.000409216
0.0439475
-0.000412345
0.0469582
0.110544
-0.00479498
0.0838743
0.00757107
-0.00402877
0.0580898
-0.00325698
0.0649358
-0.00227984
0.0554731
-0.00170344
0.0521332
-0.00115658
0.0482794
-0.000725807
0.0454457
-0.000364499
0.0435862
-0.000284975
0.0468786
0.110259
-0.00266809
0.0806676
0.00587481
-0.00357689
0.0589987
-0.0027044
0.0640633
-0.00202653
0.0547953
-0.0015189
0.0516255
-0.00104321
0.0478037
-0.000650451
0.0450529
-0.000297197
0.0432329
-0.000155023
0.0467365
0.110104
-0.00104073
0.0775357
0.0041726
-0.00303401
0.0609919
-0.00213964
0.0631689
-0.00174822
0.0544038
-0.00130277
0.0511801
-0.000899394
0.0474004
-0.000547463
0.044701
-0.000213829
0.0428993
-3.5884e-05
0.0465585
0.110068
-0.000224985
0.0748888
0.00287196
-0.00250138
0.0632683
-0.00160902
0.0622766
-0.00145432
0.0542492
-0.00106409
0.0507898
-0.000732376
0.0470687
-0.00042402
0.0443926
-0.000119055
0.0425943
0.000103977
0.0463355
0.110172
0.000106375
0.0728352
0.00194716
-0.00198306
0.0653578
-0.00112811
0.0614216
-0.00114287
0.0542639
-0.000809444
0.0504564
-0.000548628
0.0468078
-0.00028765
0.0441316
-1.70675e-05
0.0423237
0.000225046
0.0460934
0.110397
0.000286294
0.0713225
0.00122642
-0.00145319
0.0670972
-0.000700417
0.0606688
-0.000813836
0.0543773
-0.000545409
0.050188
-0.0003555
0.0466179
-0.000146443
0.0439226
7.37669e-05
0.0421035
0.000318784
0.0458483
0.110716
0.000433802
0.0703143
0.000574426
-0.000893693
0.0684247
-0.000323211
0.0600984
-0.000468921
0.054523
-0.000278484
0.0499976
-0.000160085
0.0464995
-4.88577e-06
0.0437674
0.000165671
0.0419329
0.000386896
0.0456271
0.111103
0.000648758
0.0697438
-7.82742e-05
-0.0002871
0.0693606
1.69978e-06
0.0598096
-0.000102876
0.0546276
-1.99376e-05
0.0499146
3.23719e-05
0.0464472
0.000130706
0.0436691
0.000247936
0.0418157
0.000425604
0.0454495
0.111528
0.000935574
0.0693765
-0.000568313
0.000285067
0.0700111
0.000420298
0.0596743
0.00023866
0.0548093
0.000240242
0.049913
0.000228862
0.0464586
0.000260245
0.0436377
0.00032002
0.0417559
0.0004522
0.0453173
0.11198
0.00121473
0.0693081
-0.00114629
0.000844851
0.070381
0.00078148
0.0597377
0.000584587
0.0550062
0.000493329
0.0500043
0.000416927
0.046535
0.000382213
0.0436724
0.000381584
0.0417566
0.000468928
0.0452299
0.112449
0.00144261
0.0696426
-0.00177717
0.00145335
0.0703703
0.00113074
0.0600603
0.000926556
0.0552103
0.000737562
0.0501933
0.00059567
0.0466769
0.000495078
0.043773
0.000432826
0.0418188
0.000476331
0.0451864
0.112926
0.00175092
0.0703532
-0.00246151
0.00209324
0.0700279
0.00147562
0.0606779
0.00125866
0.0554273
0.000972492
0.0504794
0.000763026
0.0468864
0.000597773
0.0439382
0.00047429
0.0419423
0.000477334
0.0451834
0.113403
0.00209189
0.071492
-0.00323063
0.00275667
0.0693632
0.00184207
0.0615925
0.00158126
0.0556881
0.00119729
0.0508634
0.00091744
0.0471662
0.000689315
0.0441664
0.000506643
0.042125
0.000475658
0.0452144
0.113879
0.00246738
0.0731418
-0.00411719
0.00338491
0.0684456
0.00223026
0.0627472
0.0018901
0.0560283
0.00140756
0.051346
0.00105609
0.0475177
0.000768279
0.0444542
0.00053095
0.0423623
0.000475764
0.0452696
0.114354
0.00291034
0.0754043
-0.00517287
0.00393816
0.0674178
0.00264667
0.0640387
0.0021889
0.056486
0.00160813
0.0519267
0.00118135
0.0479445
0.000836068
0.0447995
0.000549913
0.0426484
0.000484337
0.0453351
0.114839
0.00346653
0.0782882
-0.00635039
0.0044056
0.0664787
0.00307538
0.0653689
0.00244578
0.0571157
0.00177885
0.0525937
0.00127829
0.048445
0.000880352
0.0451974
0.000557229
0.0429716
0.000503722
0.0453886
0.115342
0.00391267
0.0819322
-0.0075567
0.00459512
0.0657963
0.00342147
0.0665425
0.0026386
0.0578985
0.00193598
0.0532963
0.00135603
0.049025
0.000912363
0.0456411
0.000553487
0.0433304
0.000536932
0.0454052
0.115879
-0.0455388
0.0787779
0.0486932
-0.0327407
0.0529982
-0.0266329
0.0604347
-0.0207969
0.0520625
-0.0164172
0.0489166
-0.0125948
0.0452026
-0.00919995
0.0422462
-0.00617771
0.0403082
-0.00436465
0.0435921
0.111515
-0.038024
0.0672041
0.0495977
-0.0364131
0.0513873
-0.0292653
0.0532868
-0.0245043
0.0473015
-0.0197686
0.0441809
-0.0154098
0.0408438
-0.0113242
0.0381606
-0.00742528
0.0364093
-0.00385798
0.0400248
0.107657
-0.0408486
0.0543793
0.0536734
-0.0397653
0.050304
-0.0325462
0.0460677
-0.0278792
0.0426345
-0.0227826
0.0390844
-0.0179615
0.0360226
-0.0132468
0.0334459
-0.00854885
0.0317114
-0.00394967
0.0354257
0.103707
-0.0469631
0.045829
0.0555134
-0.0434992
0.0468401
-0.0365133
0.0390818
-0.0312893
0.0374105
-0.0258448
0.0336399
-0.0205614
0.0307392
-0.0152329
0.0281174
-0.00972992
0.0262084
-0.0042971
0.0299928
0.09941
-0.0530001
0.0364686
0.0623604
-0.0469439
0.040784
-0.039932
0.0320698
-0.0340259
0.0315044
-0.028329
0.0279429
-0.0228709
0.0252812
-0.0175149
0.0227615
-0.0121721
0.0208656
-0.0065024
0.0243231
0.0929076
-0.0556788
0.0300581
0.0620894
-0.0504767
0.0355819
-0.0440979
0.025691
-0.038095
0.0255015
-0.0321851
0.022033
-0.0260867
0.0191828
-0.0193458
0.0160206
-0.0113917
0.0129114
-0.00302492
0.0159564
0.0898827
-0.0605119
0.0216377
0.0689323
-0.0521485
0.0272184
-0.0454889
0.0190315
-0.0389694
0.018982
-0.0331855
0.0162491
-0.0278333
0.0138306
-0.0228683
0.0110556
-0.0181609
0.00820398
-0.0126966
0.0104921
0.0771861
-0.0627601
0.0150673
0.0693305
-0.0559606
0.0204189
-0.0498404
0.0129114
-0.0437146
0.0128562
-0.0380855
0.0106201
-0.0325429
0.00828793
-0.026343
0.00485571
-0.0176614
-0.000477585
-0.00714718
-2.2097e-05
0.0700389
-0.065628
0.00846408
0.0722312
-0.0556326
0.0104235
-0.0496411
0.00691993
-0.0433045
0.0065195
-0.0378941
0.00520967
-0.0332618
0.00365566
-0.0298272
0.00142109
-0.027894
-0.00241078
-0.0258381
-0.00207799
0.0442008
-0.0738614
0.0823254
-0.0634379
-0.056518
-0.0499985
-0.0447888
-0.0411331
-0.0397121
-0.0421228
-0.0442008
0.00990877
0.0493876
-0.0106032
0.00710549
0.052401
0.00536351
0.0554154
0.00358365
0.0572932
0.00295594
0.0629882
0.00153214
0.0635132
0.00154419
0.0689202
0.000153169
0.0707215
0.000872654
0.0715118
0.0831981
0.0100958
0.0509459
-0.011654
0.0072768
0.05522
0.0056689
0.0570233
0.0041712
0.0587909
0.00355826
0.0636011
0.00210982
0.0649616
0.00197307
0.069057
0.000578365
0.0721162
0.00111133
0.0709788
0.0843094
0.0102071
0.052432
-0.0116932
0.00818288
0.0572442
0.00685564
0.0583506
0.00552441
0.0601222
0.00471672
0.0644088
0.00323103
0.0664473
0.00274796
0.0695401
0.00133242
0.0735318
0.00143182
0.0708794
0.0857413
0.0104406
0.053373
-0.0113817
0.00929352
0.0583913
0.00835007
0.059294
0.00699572
0.0614765
0.00600519
0.0653993
0.00444047
0.068012
0.00364522
0.0703353
0.00215139
0.0750256
0.00174732
0.0712834
0.0874886
0.0110432
0.0537581
-0.0114283
0.010496
0.0589386
0.0096956
0.0600944
0.00837593
0.0627962
0.00722303
0.0665522
0.00555476
0.0696803
0.00449436
0.0713957
0.0028787
0.0766412
0.00198334
0.0721788
0.0894719
0.0121118
0.0537507
-0.0121045
0.0118846
0.0591658
0.0110877
0.0608913
0.00972819
0.0641557
0.00839593
0.0678845
0.00658414
0.0714921
0.0052686
0.0727113
0.00348807
0.0784218
0.00213545
0.0735314
0.0916074
0.0135652
0.0535183
-0.0133327
0.0134482
0.0592827
0.0125922
0.0617473
0.011113
0.065635
0.00957657
0.0694209
0.00758275
0.0734859
0.00600221
0.0742918
0.0040176
0.0804064
0.00223718
0.0753119
0.0938445
0.0152679
0.0531602
-0.0149099
0.0151354
0.0594153
0.0141493
0.0627333
0.0125499
0.0672345
0.0107935
0.0711773
0.00859611
0.0756832
0.00673378
0.0761541
0.00451383
0.0826263
0.00232609
0.0774996
0.0961706
0.017081
0.0527271
-0.0166479
0.0169159
0.0595804
0.0157814
0.0638679
0.0140519
0.0689639
0.0120667
0.0731625
0.00965647
0.0780935
0.00749472
0.0783159
0.00501328
0.0851078
0.00243066
0.0800822
0.0986013
0.0189403
-0.0184351
0.0187553
0.0174779
0.0156203
0.0134074
0.0107788
0.00830399
0.00553891
0.00256814
0.00126912
0.000888857
0.00456636
-0.00890652
0.0088074
-0.018523
0.0131803
-0.0244816
0.0173785
-0.0271355
0.0214004
-0.0276542
0.0253617
-0.0270415
0.0294346
-0.025872
0.0338125
-0.0246774
-0.0232514
0.0015882
-0.000699348
0.00524373
-0.012562
0.00960285
-0.0228821
0.0138751
-0.0287539
0.0178659
-0.0311262
0.0216674
-0.0314558
0.025441
-0.0308151
0.0293727
-0.0298037
0.0335102
-0.0288149
-0.0279555
0.00189264
-0.00259199
0.00579225
-0.0164616
0.0101085
-0.0271984
0.0141381
-0.0327834
0.0178159
-0.034804
0.0213124
-0.0349523
0.0248112
-0.034314
0.0284583
-0.0334507
0.0322854
-0.032642
-0.0320366
0.00216246
-0.00475445
0.00616526
-0.0204644
0.0102807
-0.0313139
0.0139476
-0.0364503
0.0172334
-0.0380899
0.0203685
-0.0380873
0.0235402
-0.0374857
0.0268537
-0.0367642
0.0303121
-0.0361004
-0.0355914
0.00237596
-0.00713042
0.00632911
-0.0244176
0.0101046
-0.0350894
0.013318
-0.0396637
0.0161595
-0.0409314
0.0188992
-0.040827
0.0217127
-0.0402992
0.0246643
-0.0397157
0.0277294
-0.0391655
-0.0386989
0.0025127
-0.00964312
0.00626721
-0.0281721
0.009592
-0.0384142
0.0122907
-0.0423624
0.0146562
-0.0432969
0.0169794
-0.0431502
0.0194145
-0.0427344
0.0219889
-0.0422902
0.02466
-0.0418365
-0.0414018
0.00255715
-0.0122003
0.00598208
-0.031597
0.00877735
-0.0412095
0.0109257
-0.0445107
0.0127975
-0.0451687
0.0146898
-0.0450424
0.0167331
-0.0447778
0.018927
-0.044484
0.0212195
-0.044129
-0.0437393
0.00250178
-0.0147021
0.00549363
-0.0345889
0.00771201
-0.0434279
0.00929505
-0.0460937
0.0106645
-0.0465382
0.0121148
-0.0464928
0.0137588
-0.0464217
0.0155784
-0.0463037
0.0175116
-0.0460622
-0.0457217
0.00234836
-0.0170504
0.004835
-0.0370755
0.00645784
-0.0450507
0.0074775
-0.0471134
0.00834197
-0.0474027
0.00934049
-0.0474913
0.0105786
-0.0476598
0.0120294
-0.0477545
0.0136083
-0.0476411
-0.0473261
0.00210646
-0.0191569
0.00404757
-0.0390166
0.00508139
-0.0460845
0.00555373
-0.0475857
0.00591548
-0.0477644
0.00645026
-0.0480261
0.00726708
-0.0484766
0.00833486
-0.0488223
0.00953238
-0.0488386
-0.0484849
0.00188866
-0.0210455
0.00330407
-0.040432
0.00377157
-0.046552
0.00371076
-0.0475249
0.00356184
-0.0476155
0.00360005
-0.0480643
0.00394338
-0.04882
0.00455826
-0.0494372
0.00528135
-0.0495617
-0.0490885
0.00156064
-0.0226062
0.00243279
-0.0413042
0.00237244
-0.0464917
0.00182469
-0.0469772
0.00118841
-0.0469792
0.000722418
-0.0475983
0.000543676
-0.0486412
0.000603302
-0.0494968
0.000709245
-0.0496676
-0.0491237
0.00120377
-0.02381
0.00155319
-0.0416536
0.00101356
-0.045952
3.26351e-05
-0.0459962
-0.00105252
-0.0458941
-0.00204186
-0.0466089
-0.00281996
-0.0478631
-0.0034248
-0.048892
-0.00406424
-0.0490282
-0.0481677
0.000831807
-0.0246418
0.000695459
-0.0415173
-0.000271595
-0.044985
-0.00162405
-0.0446438
-0.00312072
-0.0443974
-0.00462585
-0.0451038
-0.00605196
-0.046437
-0.00743188
-0.047512
-0.0089515
-0.0475086
-0.0463834
0.000456431