/*--------------------------------*- C++ -*----------------------------------*\
  =========                 |
  \\      /  F ield         | OpenFOAM: The Open Source CFD Toolbox
   \\    /   O peration     | Website:  https://openfoam.org
    \\  /    A nd           | Version:  7
     \\/     M anipulation  |
\*---------------------------------------------------------------------------*/
FoamFile
{
    version     2.0;
    format      ascii;
    class       surfaceScalarField;
    location    "2";
    object      phi;
}
// * * * * * * * * * * * * * * * * * * * * * * * * * * * * * * * * * * * * * //

dimensions      [0 3 -1 0 0 0 0];

internalField   nonuniform List<scalar> 
15760
(
2.56352e-05
0.000689575
-0.00071521
0.000107397
0.00175405
-0.00183581
0.00024498
0.00260449
-0.00274207
0.00043646
0.00329551
-0.00348699
0.000678879
0.00386652
-0.00410893
0.000968577
0.0043457
-0.0046354
0.00130142
0.00475351
-0.00508635
0.00167295
0.00510503
-0.00547656
0.00207848
0.00541164
-0.00581718
0.00251323
0.00568212
-0.00611686
0.00297235
0.00592337
-0.00638248
0.00345101
0.00614098
-0.00661964
0.00394448
0.00633953
-0.006833
0.00444814
0.00652285
-0.00702651
0.00495754
0.00669416
-0.00720357
0.00546842
0.00685619
-0.00736707
0.00597672
0.00701122
-0.00751952
0.00647859
0.00716111
-0.00766298
0.00697038
0.00730736
-0.00779915
0.00745106
0.00744853
-0.00792922
2.65495e-05
0.000663024
0.000110891
0.00166971
0.000253068
0.00246231
0.000451304
0.00309727
0.000702693
0.00361513
0.00100361
0.00404479
0.00134993
0.00440718
0.00173722
0.00471774
0.0021608
0.00498806
0.00261585
0.00522706
0.0030975
0.00544172
0.00360088
0.00563761
0.00412114
0.00581927
0.00465355
0.00599044
0.00519351
0.00615421
0.00573654
0.00631316
0.00627835
0.00646941
0.00681482
0.00662465
0.00734194
0.00678024
0.00693724
0.00785576
2.75278e-05
0.000635496
0.000114759
0.00158248
0.000261955
0.00231512
0.000467432
0.0028918
0.000728304
0.00335425
0.00104095
0.00373215
0.00140125
0.00404688
0.00180476
0.00431423
0.00224681
0.00454601
0.00272258
0.00475129
0.00322717
0.00493713
0.00375565
0.00510912
0.00430314
0.00527178
0.00486479
0.00542879
0.00543585
0.00558315
0.00601168
0.00573733
0.00658776
0.00589333
0.00715967
0.00605274
0.00772308
0.00621682
0.00638668
0.00827364
2.86197e-05
0.000606877
0.00011912
0.00149198
0.000271852
0.00216238
0.00048515
0.0026785
0.000756102
0.0030833
0.00108106
0.00340719
0.00145588
0.00367206
0.00187613
0.00389398
0.00233711
0.00408503
0.00283401
0.00425439
0.00336192
0.00440922
0.00391589
0.00455515
0.00449098
0.0046967
0.00508227
0.00483749
0.00568492
0.0049805
0.00629411
0.00512813
0.00690512
0.00528233
0.00751326
0.0054446
0.00811387
0.00561621
0.00579841
0.00870214
2.98508e-05
0.000577026
0.00012403
0.0013978
0.000282868
0.00200355
0.000504632
0.00245673
0.000786336
0.0028016
0.00112426
0.00306926
0.00151424
0.00328208
0.00195179
0.00345644
0.00243221
0.00360461
0.00295068
0.00373592
0.00350229
0.00385761
0.00408208
0.00397536
0.00468509
0.00409368
0.00530637
0.00421622
0.00594097
0.0043459
0.00658397
0.00448513
0.00723046
0.00463584
0.00787551
0.00479955
0.00851411
0.00497762
0.00517149
0.00914102
3.12546e-05
0.000545771
0.000129576
0.00129947
0.000295154
0.00183797
0.000526107
0.00222578
0.000819314
0.00250839
0.00117095
0.00271763
0.00157676
0.00287627
0.00203222
0.00300098
0.00253261
0.00310422
0.00307309
0.00319544
0.00364875
0.00328195
0.00425465
0.00336946
0.00488582
0.00346251
0.0055373
0.00356474
0.0062041
0.0036791
0.00688122
0.00380801
0.00756359
0.00395347
0.00824607
0.00411708
0.00892332
0.00430036
0.00450511
0.0095897
3.28641e-05
0.000512907
0.000135834
0.0011965
0.000308842
0.00166496
0.000549767
0.00198485
0.00085529
0.00220287
0.00122143
0.00235149
0.00164381
0.00245388
0.00211783
0.00252696
0.00263873
0.00258332
0.00320164
0.00263252
0.00380167
0.00268192
0.00443389
0.00273724
0.00509335
0.00280305
0.00577511
0.00288298
0.00647419
0.00298002
0.00718555
0.00309666
0.00790401
0.003235
0.00862426
0.00339683
0.00934069
0.00358393
0.00379859
0.0100472
3.47078e-05
0.0004782
0.000142875
0.00108834
0.000324051
0.00148378
0.000575787
0.00173312
0.000894492
0.00188416
0.00127597
0.00197001
0.00171571
0.00201415
0.00220897
0.0020337
0.00275092
0.00204137
0.00333668
0.00204676
0.00396133
0.00205726
0.00461998
0.0020786
0.00530772
0.0021153
0.00601968
0.00217102
0.00675091
0.00224879
0.0074964
0.00235117
0.00825094
0.00248046
0.00900908
0.00263869
0.00976498
0.00282803
0.00305141
0.0105122
3.6811e-05
0.000441389
0.000150761
0.000974388
0.000340887
0.00129366
0.000604315
0.00146969
0.000937113
0.00155137
0.00133482
0.0015723
0.00179271
0.00155627
0.0023059
0.00152051
0.00286945
0.00147782
0.00347842
0.0014378
0.00412788
0.0014078
0.00481295
0.00139352
0.00552882
0.00139944
0.00627067
0.00142917
0.00703369
0.00148577
0.00781293
0.00157193
0.00860323
0.00169016
0.0093991
0.00184281
0.0101945
0.00203261
0.00226327
0.0109827
3.9195e-05
0.000402194
0.000159544
0.000854039
0.000359435
0.00109377
0.000635468
0.00119366
0.000983297
0.00120354
0.00139813
0.00115747
0.00187499
0.00107941
0.00240879
0.000986711
0.00299445
0.000892147
0.00362695
0.000805301
0.00430131
0.000733439
0.00501269
0.000682147
0.00575632
0.000655803
0.00652754
0.000657956
0.00732167
0.000691642
0.00813394
0.000759657
0.00895935
0.000864747
0.00979245
0.00100972
0.0106271
0.00119794
0.00143414
0.0114562
4.18764e-05
0.000360317
0.000169263
0.000726652
0.000379753
0.000883278
0.00066932
0.000904089
0.00103313
0.000839732
0.00146599
0.0007246
0.00196262
0.000582784
0.00251769
0.000431636
0.00312595
0.000283892
0.00378222
0.000149032
0.00448148
3.41814e-05
0.00521887
-5.52429e-05
0.00598971
-0.000115039
0.00678947
-0.00014181
0.00761372
-0.000132599
0.00845793
-8.45552e-05
0.00931735
5.32066e-06
0.0101867
0.000140338
0.01106
0.000324684
0.000564338
0.0119298
4.48668e-05
0.00031545
0.00017994
0.000591579
0.000401868
0.000661351
0.000705893
0.000600064
0.00108661
0.000459017
0.00153838
0.000272824
0.00205556
6.56107e-05
0.00263252
-0.000145326
0.00326377
-0.000347361
0.00394398
-0.000531175
0.00466801
-0.000689846
0.00543097
-0.000818204
0.00622824
-0.000912311
0.00705545
-0.000969024
0.00790843
-0.000985571
0.00878301
-0.000959142
0.00967486
-0.000886528
0.0105791
-0.000763876
0.0114898
-0.000586009
-0.000345412
0.0123995
4.81723e-05
0.000267278
0.00019158
0.000448171
0.000425771
0.000427161
0.000745151
0.000280684
0.00114367
6.05008e-05
0.00161518
-0.000198687
0.0021536
-0.000472815
0.00275299
-0.000744716
0.00340757
-0.00100194
0.00411178
-0.00123538
0.00486033
-0.0014384
0.00564826
-0.00160613
0.00647096
-0.00173502
0.00732422
-0.00182228
0.00820415
-0.0018655
0.00910704
-0.00186203
0.0100291
-0.0018086
0.0109661
-0.00170083
0.0119125
-0.00153239
-0.00129385
0.0128609
5.17929e-05
0.000215485
0.000204168
0.000295796
0.000451412
0.000179917
0.000786989
-5.48931e-05
0.00120413
-0.000356636
0.00169611
-0.00069067
0.00225639
-0.0010331
0.00287864
-0.00136696
0.00355676
-0.00168005
0.00428491
-0.00196353
0.00505761
-0.0022111
0.00586976
-0.00241828
0.00671671
-0.00258197
0.00759435
-0.00269992
0.00849907
-0.00277021
0.00942766
-0.00279063
0.0103771
-0.00275803
0.0113439
-0.00266767
0.0123235
-0.00251196
-0.00227909
0.0133087
5.57222e-05
0.000159763
0.000217666
0.000133852
0.000478697
-8.11131e-05
0.00083123
-0.000407426
0.0012677
-0.000793106
0.00178077
-0.00120374
0.00236338
-0.00161571
0.00300878
-0.00201236
0.00371049
-0.00238176
0.00446239
-0.00271544
0.00525874
-0.00300745
0.00609424
-0.00325378
0.00696413
-0.00345187
0.0078643
-0.00360009
0.00879134
-0.00369725
0.00974255
-0.00374184
0.0107157
-0.00373122
0.0117087
-0.00366062
0.012718
-0.0035213
-0.00329843
0.0137374
5.99476e-05
9.98159e-05
0.000232015
-3.82155e-05
0.000507483
-0.000356581
0.000877617
-0.00077756
0.00133399
-0.00124948
0.00186859
-0.00173834
0.00247381
-0.00222094
0.00314244
-0.00268099
0.00386764
-0.00310696
0.00464293
-0.00349073
0.0054623
-0.00382681
0.00632019
-0.00411167
0.00721166
-0.00434333
0.00813247
-0.0045209
0.00907926
-0.00464405
0.0100497
-0.00471228
0.0110424
-0.00472395
0.0120568
-0.00467494
0.0130913
-0.00455586
-0.00434815
0.014141
6.44501e-05
3.53659e-05
0.000247132
-0.000220897
0.000537581
-0.000647031
0.000925813
-0.00116579
0.00140247
-0.00172614
0.00195883
-0.0022947
0.00258672
-0.00284882
0.00327843
-0.0033727
0.00402673
-0.00385526
0.00482485
-0.00428885
0.00566644
-0.0046684
0.0065457
-0.00499094
0.00745744
-0.00525507
0.00839718
-0.00546064
0.0093614
-0.00560827
0.0103478
-0.00569868
0.0113556
-0.00573179
0.0123858
-0.00570507
0.0134397
-0.00560977
-0.00542325
0.0145148
6.92051e-05
-3.38392e-05
0.000262911
-0.000414603
0.000568753
-0.000952872
0.000975397
-0.00157244
0.00147251
-0.00222325
0.0020506
-0.00287279
0.00270089
-0.00349911
0.00341522
-0.00408703
0.00418597
-0.00462601
0.00500604
-0.00510891
0.00586885
-0.00553122
0.00676839
-0.00589047
0.00769921
-0.00618589
0.00865657
-0.006418
0.00963658
-0.00658827
0.0106366
-0.00669867
0.0116557
-0.0067509
0.0126957
-0.00674509
0.0137616
-0.00667568
-0.00651883
0.0148572
7.41832e-05
-0.000108022
0.000279226
-0.000619645
0.000600711
-0.00127436
0.00102587
-0.0019976
0.00154333
-0.00274071
0.00214281
-0.00347227
0.00281492
-0.00417123
0.00355103
-0.00482314
0.00434315
-0.00541813
0.00518394
-0.0059497
0.00606665
-0.00641394
0.00698517
-0.00680899
0.00793398
-0.00713471
0.00890822
-0.00739224
0.0099037
-0.00758375
0.0109171
-0.00771212
0.0119467
-0.00778045
0.0129929
-0.00779133
0.0140625
-0.00774523
-0.00763491
0.0151786
7.93503e-05
-0.000187373
0.000295928
-0.000836223
0.000633125
-0.00161155
0.00107665
-0.00244113
0.00161406
-0.00327811
0.00223423
-0.00409245
0.00292718
-0.00486417
0.00368378
-0.00557974
0.00449573
-0.00623008
0.00535549
-0.00680947
0.00625628
-0.00731472
0.00719204
-0.00774476
0.00815752
-0.00810018
0.00914822
-0.00838294
0.0101605
-0.00859602
0.0111916
-0.00874323
0.01224
-0.0088289
0.0133049
-0.00885621
0.0143859
-0.0088262
0.015508
-0.00875706
0.00802143
0.0281598
-0.0287327
0.00838558
0.0297302
-0.0300943
0.00853063
0.0313467
-0.0314917
0.00849981
0.0329379
-0.0329071
0.00832312
0.0345324
-0.0343557
0.00803267
0.0361132
-0.0358228
0.00765508
0.0376661
-0.0372885
0.00721204
0.0391752
-0.0387322
0.00672021
0.0406246
-0.0401327
0.0061922
0.0420007
-0.0414726
0.00563755
0.0432915
-0.0427369
0.00506363
0.0444879
-0.043914
0.00447625
0.045582
-0.0449946
0.00387939
0.0465707
-0.0459739
0.00327487
0.0474545
-0.04685
0.00266073
0.0482438
-0.0476297
0.00203096
0.0489481
-0.0483183
0.00137746
0.0495665
-0.048913
0.000697255
0.0500555
-0.0493753
0.0503325
-0.0496353
0.00846795
0.0275476
0.00886336
0.0293348
0.00902926
0.0311808
0.0090099
0.0329573
0.00883563
0.0347067
0.00853951
0.0364094
0.00814915
0.0380565
0.00768739
0.039637
0.00717184
0.0411401
0.00661591
0.0425566
0.00602973
0.0438777
0.00542111
0.0450965
0.00479608
0.046207
0.00415901
0.0472078
0.00351178
0.0481018
0.00285292
0.0489027
0.00217654
0.0496245
0.00147523
0.0502678
0.000746317
0.0507845
0.0510789
0.00892057
0.0269007
0.00934487
0.0289105
0.00953037
0.0309953
0.00952209
0.0329656
0.00935049
0.0348783
0.0090493
0.0367106
0.0086469
0.0384589
0.00816713
0.0401168
0.00762844
0.0416788
0.007045
0.04314
0.00642747
0.0444952
0.00578413
0.0457398
0.00512127
0.0468699
0.0044436
0.0478855
0.00375315
0.0487922
0.00304893
0.0496069
0.00232523
0.0503482
0.00157524
0.0510178
0.000796584
0.0515631
0.0518754
0.00937878
0.0262241
0.00982916
0.0284601
0.0100328
0.0307917
0.010035
0.0329633
0.00986631
0.035047
0.00956064
0.0370162
0.00914703
0.0388725
0.00865005
0.0406138
0.00808893
0.0422399
0.00747851
0.0437505
0.00682996
0.0451438
0.006152
0.0464178
0.00545124
0.0475706
0.00473269
0.048604
0.00399868
0.0495262
0.00324854
0.0503571
0.00247695
0.0511197
0.00167745
0.0518173
0.000848076
0.0523925
0.0527235
0.00984185
0.0255232
0.0103151
0.0279869
0.0105352
0.0305716
0.0105473
0.0329512
0.0103816
0.0352126
0.0100721
0.0373258
0.00964818
0.0392964
0.00913492
0.041127
0.00855221
0.0428226
0.00791545
0.0443872
0.00723636
0.0458229
0.00652402
0.0471301
0.00578543
0.0483092
0.00502586
0.0493636
0.00424804
0.050304
0.00345156
0.0511535
0.0026316
0.0519397
0.00178185
0.052667
0.000900778
0.0532736
0.0536243
0.0103089
0.024804
0.0108013
0.0274945
0.011036
0.0303368
0.0110573
0.0329299
0.0108949
0.0353751
0.0105822
0.0376384
0.010149
0.0397297
0.00962048
0.0416555
0.00901715
0.043426
0.00835487
0.0450495
0.00764583
0.0465319
0.0068995
0.0478765
0.00612326
0.0490855
0.00532268
0.0501642
0.00450091
0.0511258
0.00365784
0.0519966
0.00278906
0.0528085
0.00188842
0.0535677
0.000954697
0.0542073
0.054579
0.0107787
0.0240725
0.0112863
0.0269869
0.0115339
0.0300893
0.0115636
0.0329002
0.0114045
0.0355342
0.0110895
0.0379534
0.0106479
0.0401712
0.0101054
0.042198
0.00948257
0.0440488
0.00879573
0.0457363
0.0080575
0.0472701
0.00727773
0.0486562
0.00646415
0.049899
0.00562271
0.0510056
0.00475697
0.0519916
0.00386716
0.0528864
0.00294924
0.0537264
0.00199713
0.0545198
0.00100983
0.0551946
0.0555888
0.0112501
0.0233346
0.0117686
0.0264684
0.012027
0.0298309
0.0120643
0.0328629
0.0119088
0.0356897
0.0115922
0.03827
0.0111436
0.0406198
0.0105883
0.0427533
0.00994727
0.0446899
0.009237
0.0464466
0.00847049
0.0480366
0.00765795
0.0494688
0.00680751
0.0507495
0.00592549
0.0518876
0.00501587
0.0529012
0.00407929
0.053823
0.003112
0.0546937
0.00210794
0.0555238
0.00106618
0.0562363
0.056655
0.0117212
0.022596
0.0122461
0.0259436
0.0125134
0.0295636
0.0125576
0.0328187
0.0124059
0.0358413
0.0120887
0.0385872
0.0116344
0.0410742
0.0110678
0.0433199
0.01041
0.0453477
0.00967756
0.047179
0.00888384
0.0488304
0.00803938
0.0503132
0.00715269
0.0516362
0.00623049
0.0528098
0.00527724
0.0538544
0.00429397
0.0548063
0.00327719
0.0557105
0.00222075
0.0565803
0.00112371
0.0573334
0.0577787
0.0121902
0.021862
0.0127168
0.025417
0.0129911
0.0292892
0.0130415
0.0327683
0.0128941
0.0359887
0.0125773
0.038904
0.0121186
0.0415329
0.0115424
0.0438961
0.0108693
0.0460208
0.0101162
0.0479321
0.00929654
0.04965
0.00842116
0.0511886
0.00749897
0.0525584
0.00653714
0.0537717
0.00554062
0.0548509
0.00451087
0.055836
0.00344461
0.0567767
0.00233548
0.0576894
0.00118239
0.0584865
0.0589611
0.0126548
0.021137
0.0131783
0.0248935
0.0134579
0.0290097
0.0135139
0.0327123
0.0133712
0.0361314
0.013056
0.0392192
0.0125946
0.0419943
0.0120104
0.0444802
0.0113239
0.0467073
0.0105517
0.0487043
0.00970749
0.0504943
0.00880234
0.0520938
0.00784557
0.0535151
0.0068448
0.0547724
0.00580551
0.0558902
0.00472962
0.0569119
0.00361399
0.0578923
0.00245196
0.0588514
0.00124216
0.0596963
0.0602033
0.0131122
0.0204244
0.0136282
0.0243775
0.0139114
0.0287265
0.0139725
0.0326512
0.0138351
0.0362688
0.0135228
0.0395315
0.0130604
0.0424568
0.0124703
0.0450702
0.0117722
0.0474053
0.0109827
0.0494938
0.0101155
0.0513616
0.00918189
0.0530274
0.0081916
0.0545054
0.00715272
0.0558113
0.00607131
0.0569716
0.00494972
0.0580335
0.00378499
0.0590571
0.00256998
0.0600664
0.00130291
0.0609633
0.0615062
0.0135592
0.0197261
0.0140636
0.023873
0.0143488
0.0284413
0.014415
0.0325851
0.0142837
0.0364001
0.0139758
0.0398394
0.0135142
0.0429184
0.0129202
0.0456643
0.0122126
0.0481129
0.0114078
0.0502987
0.0105192
0.0522501
0.00955865
0.0539879
0.00853605
0.055528
0.00746005
0.0568873
0.00633729
0.0580944
0.00517063
0.0592002
0.0039572
0.0602705
0.00268928
0.0613344
0.00136453
0.0622881
0.0628707
0.013992
0.0190428
0.0144813
0.0233837
0.0147673
0.0281553
0.0148385
0.0325139
0.0147144
0.0365242
0.0144126
0.0401411
0.013954
0.043377
0.0133582
0.04626
0.0126434
0.0488277
0.0118252
0.0511169
0.0109173
0.053158
0.00993132
0.0549739
0.00887779
0.0565816
0.00776579
0.0579993
0.00660261
0.0592576
0.00539165
0.0604111
0.00413009
0.0615321
0.00280951
0.0626549
0.00142685
0.0636707
0.0642976
0.0144064
0.0183738
0.0148779
0.0229122
0.0151637
0.0278695
0.0152404
0.0324372
0.0151248
0.0366398
0.014831
0.0404349
0.0143775
0.0438305
0.0137824
0.0468552
0.0130625
0.0495475
0.0122333
0.0519462
0.0113079
0.0540834
0.0102984
0.0559834
0.00921548
0.0576645
0.00806878
0.059146
0.00686627
0.0604601
0.00561193
0.0616655
0.00430302
0.062841
0.00293024
0.0640277
0.00148965
0.0651113
0.0657872
0.0147977
0.0177171
0.0152499
0.02246
0.0155345
0.0275849
0.0156176
0.0323542
0.0155121
0.0367453
0.0152286
0.0407184
0.0147826
0.0442765
0.0141905
0.0474473
0.0134681
0.0502699
0.01263
0.0527842
0.0116894
0.055024
0.0106582
0.0570146
0.00954758
0.0587751
0.00836763
0.060326
0.00712707
0.0617006
0.00583048
0.0629621
0.00447518
0.0641963
0.00305092
0.065452
0.00155267
0.0666096
0.0673399
0.0151591
0.0170727
0.0155915
0.0220276
0.0158748
0.0273016
0.0159657
0.0322633
0.0158726
0.0368383
0.015602
0.040989
0.0151663
0.0447122
0.0145799
0.0480337
0.0138575
0.0509924
0.013013
0.0536287
0.0120594
0.0559776
0.0110087
0.0580653
0.00987216
0.0599117
0.00866062
0.0615375
0.00738348
0.0629778
0.006046
0.0642995
0.00464558
0.0655967
0.00317087
0.0669267
0.00161556
0.0681649
0.0689555
0.0154799
0.0164501
0.0158928
0.0216147
0.0161761
0.0270183
0.0162778
0.0321616
0.0162006
0.0369155
0.0159464
0.0412432
0.0155244
0.0451343
0.0149468
0.0486113
0.0142272
0.0517119
0.0133791
0.0544769
0.012415
0.0569416
0.011347
0.0591333
0.0101868
0.0610719
0.00894557
0.0627787
0.00763361
0.0642897
0.0062569
0.0656762
0.00481296
0.0670406
0.00328924
0.0684504
0.00167793
0.0697762
0.0706334
0.0157635
0.0158651
0.0161558
0.0212224
0.0164402
0.0267339
0.0165548
0.032047
0.0164965
0.0369738
0.0162619
0.0414777
0.0158564
0.0455398
0.0152903
0.0491775
0.014576
0.0524262
0.0137265
0.0553264
0.0127542
0.0579139
0.0116712
0.0602163
0.0104893
0.0622538
0.00922035
0.0640477
0.00787542
0.0656347
0.00646136
0.0670903
0.00497585
0.0685261
0.00340504
0.0700212
0.00173931
0.0714419
0.0723727
0.0160358
0.0153374
0.0164183
0.0208399
0.0166922
0.0264599
0.016817
0.0319223
0.0167757
0.0370151
0.0165597
0.0416938
0.0161698
0.0459297
0.0156145
0.0497328
0.0149053
0.0531353
0.0140546
0.0561771
0.0130747
0.0588938
0.0119776
0.0613134
0.0107755
0.0634559
0.00948053
0.0653426
0.00810461
0.0670106
0.0066555
0.0685394
0.00513109
0.0700505
0.00351608
0.0716362
0.00179863
0.0731594
0.0741713
0.0630538
0.0203585
-0.0680749
0.0589466
0.024947
0.0554544
0.0299522
0.0523512
0.0350255
0.0494439
0.0399223
0.0466251
0.0445125
0.0438196
0.0487353
0.0409772
0.0525752
0.0380657
0.0560469
0.0350664
0.0591764
0.0319717
0.0619885
0.0287828
0.0645023
0.0255077
0.0667311
0.0221583
0.0686921
0.0187454
0.0704234
0.0152686
0.0720162
0.0116998
0.0736194
0.00798039
0.0753557
0.00406459
0.0770752
0.0782359
0.0693282
0.0251331
-0.0741028
0.0649011
0.0293741
0.0609325
0.0339208
0.057331
0.0386269
0.053968
0.0432854
0.0507334
0.0477471
0.0475454
0.0519233
0.0443457
0.0557748
0.0410958
0.0592968
0.0377722
0.0624999
0.0343639
0.0653968
0.0308695
0.0679967
0.0272958
0.0703047
0.023656
0.0723318
0.0199649
0.0741146
0.0162265
0.0757546
0.0124148
0.0774311
0.00846382
0.0793066
0.00431271
0.0812263
0.0825486
0.0741535
0.0296295
-0.0786499
0.0698494
0.0336783
0.0657941
0.0379761
0.0619925
0.0424285
0.0583795
0.0468984
0.0548734
0.0512532
0.0514029
0.0553938
0.0479142
0.0592635
0.0443708
0.0628402
0.0407504
0.0661203
0.037042
0.0691052
0.0332443
0.0717944
0.0293641
0.0741849
0.0254155
0.0762805
0.021415
0.078115
0.0173707
0.0797989
0.01326
0.0815417
0.00902012
0.0835465
0.00458894
0.0856575
0.0871376
0.0783091
0.0337513
-0.0824309
0.0742288
0.0377586
0.0702562
0.0419487
0.0664174
0.0462673
0.0626865
0.0506292
0.059011
0.0549288
0.0553364
0.0590684
0.0516191
0.0629808
0.0478285
0.0666308
0.0439459
0.0700029
0.0399623
0.0730888
0.0358768
0.0758799
0.0316959
0.0783657
0.027433
0.0805435
0.023104
0.082444
0.0187183
0.0841846
0.0142587
0.0860013
0.00967339
0.0881319
0.00490931
0.0904215
0.0920469
0.0822561
0.0375757
-0.0860805
0.0783834
0.0416314
0.0745195
0.0458125
0.0706954
0.0500914
0.0669042
0.0544204
0.0631128
0.0587201
0.0592816
0.0628997
0.0553763
0.0668861
0.0513729
0.0706342
0.0472566
0.0741192
0.0430204
0.0773251
0.0386637
0.0802366
0.0341921
0.0828373
0.0296167
0.0851189
0.0249512
0.0871094
0.0202047
0.0889311
0.0153661
0.0908399
0.0103979
0.0931
0.00526377
0.0955557
0.0973107
0.086259
0.0411886
-0.0898719
0.0825342
0.0453561
0.0787505
0.0495962
0.0749378
0.0539041
0.0710975
0.0582608
0.0672079
0.0626097
0.063239
0.0668686
0.0591641
0.0709611
0.0549639
0.0748343
0.0506271
0.0784561
0.046148
0.0818042
0.0415264
0.0848582
0.0367666
0.0875971
0.0318774
0.0900081
0.02687
0.0921169
0.0217529
0.0940481
0.0165219
0.0960709
0.0111551
0.0984668
0.00563439
0.101076
0.102945
0.0904257
0.0446627
-0.0938998
0.0867955
0.0489863
0.0830567
0.053335
0.0792372
0.0577236
0.0753418
0.0621563
0.071355
0.0665965
0.0672528
0.0709708
0.0630127
0.0752011
0.058619
0.0792281
0.0540622
0.0830128
0.0493382
0.0865282
0.0444468
0.0897496
0.0393915
0.0926523
0.0341795
0.0952201
0.0288206
0.0974757
0.0233247
0.099544
0.0176951
0.101701
0.0119248
0.104237
0.006012
0.106989
0.108957
0.0947935
0.0480502
-0.098181
0.0912188
0.0525611
0.0874976
0.0570561
0.083655
0.0615662
0.0796969
0.0661145
0.0756109
0.0706824
0.0713758
0.0752058
0.0669712
0.0796058
0.0623826
0.0838167
0.0576018
0.0877937
0.0526253
0.0915047
0.0474531
0.0949217
0.0420888
0.0980167
0.0365391
0.10077
0.0308144
0.1032
0.0249281
0.10543
0.0188918
0.107737
0.0127121
0.110417
0.00639981
0.113302
0.115357
0.099373
0.0513869
-0.10271
0.0958275
0.0561066
0.0921061
0.0607776
0.0882302
0.065442
0.0842055
0.0701392
0.0800208
0.0748671
0.0756553
0.0795714
0.0710881
0.0841729
0.0663046
0.0886002
0.0612962
0.0928021
0.0560595
0.0967414
0.0505949
0.100386
0.0449063
0.103705
0.0390013
0.106675
0.0328929
0.109309
0.0265994
0.111724
0.0201417
0.114195
0.0135381
0.11702
0.00680888
0.120031
0.122166
0.104166
0.054695
-0.107474
0.100633
0.059639
0.0969021
0.0645087
0.0929896
0.0693545
0.0888998
0.074229
0.0846209
0.079146
0.080131
0.0840613
0.075407
0.0888968
0.0704318
0.0935754
0.0651953
0.0980386
0.0596933
0.102243
0.0539263
0.106153
0.0478987
0.109733
0.0416203
0.112953
0.0351072
0.115822
0.0283843
0.118447
0.0214819
0.121097
0.0144286
0.124074
0.00725226
0.127207
0.129418
0.109174
0.0579899
-0.112469
0.105646
0.0631677
0.101902
0.0682527
0.0979548
0.0733012
0.0938064
0.0783774
0.0894426
0.0835098
0.0848386
0.0886654
0.0799674
0.093768
0.0748077
0.0987351
0.0693463
0.1035
0.0635771
0.108013
0.0574999
0.112231
0.0511199
0.116113
0.044449
0.119624
0.0375078
0.122763
0.0303277
0.125627
0.0229487
0.128476
0.015409
0.131613
0.0077428
0.134873
0.137161
0.114393
0.0612734
-0.117676
0.110867
0.0666934
0.107115
0.0720049
0.103143
0.0772728
0.0989492
0.0825716
0.0945153
0.0879437
0.0898126
0.0933681
0.0848084
0.0987722
0.0794754
0.104068
0.0737957
0.10918
0.0677601
0.114048
0.0613669
0.118624
0.0546216
0.122858
0.0475381
0.126708
0.040141
0.13016
0.0324692
0.133298
0.0245722
0.136373
0.0164985
0.139687
0.0082897
0.143082
0.145451
0.119828
0.0645496
-0.123105
0.116308
0.070214
0.112555
0.0757573
0.108573
0.0812548
0.104352
0.0867928
0.0998691
0.0924268
0.0950886
0.0981486
0.0899707
0.10389
0.0844803
0.109558
0.0785928
0.115067
0.0722943
0.120347
0.065581
0.125337
0.0584577
0.129981
0.0509398
0.134226
0.0430563
0.138044
0.034853
0.141502
0.0263894
0.144837
0.0177241
0.148352
0.00890656
0.1519
0.154357
0.125408
0.0677647
-0.128623
0.121927
0.0736949
0.118208
0.0794763
0.114249
0.0852143
0.110033
0.0910085
0.105532
0.0969277
0.100704
0.102977
0.0954985
0.109095
0.0898722
0.115185
0.0837917
0.121148
0.0772371
0.126901
0.0702007
0.132374
0.0626859
0.137496
0.0547088
0.142203
0.0463019
0.146451
0.0375184
0.150285
0.0284288
0.153926
0.0191041
0.157677
0.00960459
0.161399
0.163962
0.131104
0.0708616
-0.134201
0.127719
0.0770796
0.124078
0.0831176
0.120184
0.0891085
0.116016
0.0951761
0.111539
0.101405
0.106701
0.107815
0.101443
0.114353
0.0957088
0.120919
0.0894559
0.127401
0.0826562
0.133701
0.0752967
0.139733
0.0673774
0.145415
0.0589135
0.150667
0.0499392
0.155425
0.0405138
0.159711
0.0307208
0.163719
0.0206494
0.167749
0.0103779
0.171671
0.17434
0.136362
0.0734341
-0.138934
0.133343
0.0800985
0.129981
0.0864801
0.126294
0.092795
0.122277
0.0991927
0.117902
0.10578
0.113117
0.112601
0.107855
0.119615
0.102051
0.126722
0.0956531
0.133799
0.0886243
0.14073
0.080946
0.147411
0.0726153
0.153746
0.0636464
0.159635
0.0540758
0.164996
0.0439675
0.169819
0.0334117
0.174275
0.0225041
0.178656
0.011335
0.18284
0.185675
0.14075
0.0749895
-0.142306
0.138555
0.0822936
0.135785
0.0892506
0.132526
0.0960541
0.128817
0.102901
0.124658
0.109939
0.12001
0.117249
0.114809
0.124816
0.108986
0.132546
0.102476
0.140308
0.0952333
0.147973
0.0872266
0.155418
0.0784438
0.162529
0.0688935
0.169186
0.0586137
0.175275
0.0476831
0.180749
0.036223
0.185735
0.0243711
0.190508
0.0122454
0.194965
0.19792
0.141408
0.0736369
-0.140055
0.141401
0.082301
0.1403
0.0903514
0.138223
0.0981312
0.135312
0.105812
0.131673
0.113579
0.127347
0.121574
0.122327
0.129836
0.116573
0.1383
0.110037
0.146845
0.102673
0.155337
0.0944459
0.163645
0.0853321
0.171643
0.075322
0.179196
0.0644292
0.186168
0.0527053
0.192473
0.0402526
0.198188
0.0272111
0.20355
0.0137489
0.208428
0.211669
0.138569
0.0691024
-0.134034
0.141662
0.0792076
0.143091
0.0889223
0.142994
0.0982279
0.141557
0.107249
0.138923
0.116213
0.135206
0.125291
0.130477
0.134566
0.124761
0.144016
0.118054
0.153551
0.110339
0.163052
0.101594
0.172389
0.0918099
0.181427
0.0809931
0.190013
0.069185
0.197976
0.0564763
0.205182
0.0430169
0.211647
0.0289924
0.217574
0.0145526
0.222867
0.226222
0.129159
-0.118892
0.136748
0.141982
0.145092
0.146279
0.145758
0.143713
0.140287
0.135566
0.129587
0.12235
0.113823
0.103959
0.0927096
0.0800516
0.0660195
0.0507402
0.034442
0.0174497
0.018144
-0.0700202
-0.0161988
0.0195392
-0.0754979
0.0205198
-0.0796305
0.0212794
-0.0831904
0.0219121
-0.0867132
0.0224609
-0.0904208
0.0229436
-0.0943825
0.0233659
-0.0986034
0.0237277
-0.103071
0.0240264
-0.107772
0.0242565
-0.112699
0.0244129
-0.117833
0.0244794
-0.123171
0.02444
-0.128584
0.024219
-0.13398
0.0237353
-0.138451
0.0226708
-0.141241
0.0208359
-0.13822
0.0175862
-0.130784
-0.115
0.0180134
-0.0717487
-0.0162849
0.0192995
-0.076784
0.0202253
-0.0805564
0.0209536
-0.0839187
0.0215626
-0.0873222
0.022091
-0.0909492
0.0225547
-0.0948462
0.0229588
-0.0990074
0.0233028
-0.103416
0.0235844
-0.108054
0.0237981
-0.112913
0.0239386
-0.117973
0.0239886
-0.123221
0.0239311
-0.128526
0.0236828
-0.133732
0.0231612
-0.137929
0.0220236
-0.140104
0.0201097
-0.136307
0.0167343
-0.127409
-0.111003
0.0178691
-0.0733424
-0.0162754
0.0190564
-0.0779714
0.0199227
-0.0814227
0.0206139
-0.0846099
0.0211959
-0.0879042
0.0217022
-0.0914556
0.0221462
-0.0952901
0.0225317
-0.099393
0.0228581
-0.103742
0.0231228
-0.108319
0.0233205
-0.113111
0.0234455
-0.118098
0.0234801
-0.123256
0.0234036
-0.12845
0.02313
-0.133458
0.0225635
-0.137363
0.0213628
-0.138903
0.0193496
-0.134293
0.0159016
-0.123961
-0.106836
0.0176771
-0.0748252
-0.0161943
0.0187767
-0.079071
0.0195855
-0.0822314
0.0202379
-0.0852623
0.0207911
-0.0884574
0.021274
-0.0919385
0.0216975
-0.0957136
0.0220645
-0.0997599
0.0223738
-0.104051
0.0226227
-0.108568
0.0228061
-0.113294
0.0229175
-0.11821
0.0229388
-0.123277
0.0228453
-0.128357
0.0225479
-0.133161
0.0219376
-0.136752
0.0206763
-0.137642
0.0185725
-0.13219
0.0150495
-0.120438
-0.102507
0.017433
-0.0762079
-0.0160503
0.0184481
-0.0800861
0.0192005
-0.0829838
0.0198133
-0.085875
0.0203366
-0.0889807
0.0207955
-0.0923974
0.0211986
-0.0961167
0.0215477
-0.100109
0.0218411
-0.104345
0.0220761
-0.108802
0.0222475
-0.113466
0.0223481
-0.11831
0.0223591
-0.123288
0.0222514
-0.128249
0.0219325
-0.132842
0.0212806
-0.1361
0.0199628
-0.136324
0.0177788
-0.130005
0.0141829
-0.116842
-0.0980194
0.0171283
-0.0774936
-0.0158426
0.0180597
-0.0810175
0.0187568
-0.083681
0.0193298
-0.086448
0.0198234
-0.0894744
0.0202588
-0.0928327
0.0206424
-0.0965003
0.020975
-0.100442
0.0212547
-0.104624
0.0214784
-0.109026
0.0216409
-0.113628
0.0217342
-0.118404
0.0217385
-0.123292
0.0216198
-0.12813
0.021282
-0.132504
0.0205915
-0.13541
0.019222
-0.134954
0.0169694
-0.127753
0.0133047
-0.113177
-0.0933761
0.0167552
-0.0786814
-0.0155674
0.0176042
-0.0818665
0.0182474
-0.0843242
0.0187815
-0.0869822
0.0192464
-0.0899393
0.0196594
-0.0932457
0.0200252
-0.0968661
0.0203436
-0.10076
0.0206123
-0.104893
0.0208279
-0.109242
0.0209851
-0.113785
0.021075
-0.118493
0.0210762
-0.123294
0.02095
-0.128004
0.0205961
-0.13215
0.0198701
-0.134684
0.0184541
-0.133538
0.0161456
-0.125444
0.0124179
-0.10945
-0.088579
0.0163087
-0.0797695
-0.0152206
0.0170773
-0.0826352
0.0176685
-0.0849153
0.0181654
-0.087479
0.0186032
-0.090377
0.0189957
-0.0936382
0.0193458
-0.0972163
0.0196526
-0.101067
0.0199134
-0.105154
0.0201245
-0.109453
0.0202803
-0.113941
0.0203708
-0.118584
0.0203728
-0.123296
0.0202424
-0.127874
0.0198752
-0.131783
0.0191169
-0.133926
0.0176598
-0.132081
0.0153086
-0.123093
0.011526
-0.105667
-0.0836293
0.0157857
-0.0807566
-0.0147985
0.016477
-0.0833264
0.0170184
-0.0854568
0.0174801
-0.0879407
0.0178927
-0.0907897
0.018267
-0.0940125
0.0186041
-0.0975535
0.0189023
-0.101365
0.0191586
-0.10541
0.019369
-0.109663
0.0195275
-0.114099
0.0196227
-0.118679
0.0196294
-0.123302
0.0194981
-0.127742
0.0191201
-0.131405
0.0183326
-0.133138
0.0168398
-0.130588
0.0144592
-0.120713
0.0106328
-0.101841
-0.0785292
0.0151849
-0.0816429
-0.0142987
0.0158025
-0.083944
0.0162967
-0.085951
0.0167256
-0.0883695
0.0171156
-0.0911797
0.0174741
-0.094371
0.0178011
-0.0978805
0.018094
-0.101658
0.0183494
-0.105665
0.0185631
-0.109877
0.0187284
-0.114265
0.0188323
-0.118783
0.0188474
-0.123317
0.0187184
-0.127613
0.018332
-0.131018
0.0175181
-0.132324
0.015995
-0.129065
0.0135977
-0.118315
0.00974238
-0.0979853
-0.0732837
0.0145065
-0.0824295
-0.0137198
0.0150544
-0.084492
0.0155043
-0.086401
0.015903
-0.0887682
0.016273
-0.0915497
0.0166187
-0.0947167
0.0169386
-0.0982004
0.0172296
-0.101949
0.0174879
-0.105924
0.0177089
-0.110098
0.017885
-0.114441
0.0180017
-0.1189
0.0180285
-0.123344
0.0179047
-0.12749
0.0175122
-0.130626
0.0166745
-0.131487
0.015126
-0.127517
0.0127238