/*--------------------------------*- C++ -*----------------------------------*\
  =========                 |
  \\      /  F ield         | OpenFOAM: The Open Source CFD Toolbox
   \\    /   O peration     | Website:  https://openfoam.org
    \\  /    A nd           | Version:  7
     \\/     M anipulation  |
\*---------------------------------------------------------------------------*/
FoamFile
{
    version     2.0;
    format      ascii;
    class       surfaceScalarField;
    location    "46.5";
    object      phi;
}
// * * * * * * * * * * * * * * * * * * * * * * * * * * * * * * * * * * * * * //

dimensions      [0 3 -1 0 0 0 0];

internalField   nonuniform List<scalar> 
3880
(
-0.000128828
0.000297536
-0.000168707
-0.000228677
0.000697736
-0.000597887
-0.000206753
0.00110855
-0.00113047
-1.22983e-05
0.0016018
-0.00179626
0.000386048
0.00224133
-0.00263967
0.00101162
0.00307122
-0.00369679
0.00187717
0.00412125
-0.0049868
0.00298306
0.00540623
-0.00651212
0.00431153
0.00692861
-0.00825708
0.00867968
0.00581579
-0.0101839
-0.000116277
0.000413813
-0.000184765
0.000766223
-0.000124859
0.00104864
0.000103586
0.00137336
0.0005264
0.00181852
0.00116324
0.00243438
0.00203015
0.00325433
0.00313578
0.0043006
0.00447423
0.00559016
0.00714506
0.00600884
-8.99223e-05
0.000503736
-0.000100062
0.000776363
3.32765e-05
0.000915303
0.000336382
0.00107025
0.000823833
0.00133106
0.00150812
0.0017501
0.00240299
0.00235946
0.00352123
0.00318236
0.00486789
0.0042435
0.00559172
0.00642124
-4.94033e-05
0.000553139
2.68882e-05
0.000700071
0.000271538
0.000670653
0.00069447
0.000647321
0.00129564
0.000729893
0.00207582
0.000969927
0.00304101
0.00139427
0.00420245
0.00202091
0.00557262
0.00287334
0.00401547
0.00714886
6.77899e-06
0.00054636
0.00019446
0.000512389
0.000587202
0.000277911
0.00117506
5.94649e-05
0.00194133
-3.63744e-05
0.002872
3.92574e-05
0.00396086
0.000305398
0.00521172
0.000770054
0.00663855
0.00144651
0.00239568
0.00825835
7.20077e-05
0.000474352
0.00039687
0.000187527
0.00096945
-0.000294668
0.00176054
-0.000731622
0.00273616
-0.001012
0.00386642
-0.00109101
0.00513076
-0.000958934
0.00652132
-0.000620506
0.00804696
-7.91346e-05
0.000702858
0.00973978
0.000147886
0.000326467
0.000626024
-0.000290612
0.00139983
-0.00106848
0.00241824
-0.00175003
0.0036295
-0.00222326
0.00498845
-0.00244996
0.0064607
-0.00243119
0.00802573
-0.00218554
0.00968241
-0.00173581
-0.00108341
0.0114687
0.000230466
9.60011e-05
0.000870998
-0.000931144
0.00185354
-0.00205102
0.00310279
-0.00299928
0.00454902
-0.00366949
0.00613369
-0.00403462
0.00781145
-0.00410894
0.00955109
-0.00392518
0.0113403
-0.00352503
-0.00295579
0.0132127
0.000316447
-0.000220446
0.001119
-0.0017337
0.00230098
-0.00323299
0.00376007
-0.00445838
0.0054091
-0.00531852
0.00717981
-0.00580533
0.00902152
-0.00595066
0.0108969
-0.00580056
0.0127811
-0.00540925
-0.00487557
0.0147009
0.000402268
-0.000622714
0.00135579
-0.00268722
0.0027095
-0.0045867
0.00433181
-0.00608069
0.00612013
-0.00710684
0.00800279
-0.007688
0.00993479
-0.00788265
0.0118891
-0.00775488
0.0138394
-0.00735951
0.0157098
-0.00674601
0.00978525
0.0477763
-0.0517458
0.0121256
0.0797971
-0.0821375
0.0121065
0.107073
-0.107054
0.0108587
0.129961
-0.128713
0.00915049
0.152167
-0.150458
0.00731238
0.17621
-0.174372
0.00543193
0.204307
-0.202426
0.00345826
0.237428
-0.235454
0.00154617
0.278948
-0.277035
0.326274
-0.324728
0.0102696
0.0435155
0.0133966
0.0766702
0.0138781
0.106592
0.0128104
0.131028
0.0110985
0.153878
0.00914298
0.178166
0.00705168
0.206398
0.00474497
0.239734
0.00230573
0.281387
0.32858
0.0106979
0.0392389
0.0145543
0.0728138
0.015603
0.105543
0.0147668
0.131864
0.0130662
0.155579
0.0109949
0.180237
0.00868391
0.208709
0.00603739
0.242381
0.00306741
0.284357
0.331647
0.0111299
0.0352579
0.0155597
0.0683839
0.0172333
0.103869
0.0166876
0.13241
0.0150229
0.157244
0.0128433
0.182417
0.0103159
0.211236
0.00733015
0.245367
0.00382895
0.287858
0.335476
0.011645
0.0318712
0.0163893
0.0636396
0.0187234
0.101535
0.0185344
0.132599
0.0169397
0.158838
0.0146618
0.184695
0.011924
0.213974
0.00860615
0.248685
0.00458162
0.291883
0.340058
0.0123162
0.0292948
0.0170464
0.0589094
0.0200317
0.0985501
0.020262
0.132369
0.0187801
0.16032
0.0164269
0.187048
0.0134943
0.216907
0.00985837
0.25232
0.00532154
0.296419
0.34538
0.0131735
0.0275899
0.0175654
0.0545175
0.0211302
0.0949853
0.0218491
0.13165
0.0205338
0.161636
0.0181233
0.189458
0.0150075
0.220023
0.0110678
0.25626
0.00603951
0.301448
0.351419
0.0141732
0.0266295
0.0179968
0.0506939
0.0219803
0.0910017
0.0232124
0.130418
0.0221266
0.162721
0.0197082
0.191877
0.0164406
0.22329
0.0122253
0.260475
0.00673043
0.306943
0.358149
0.0151578
0.0261725
0.0183649
0.0474869
0.0226437
0.0867229
0.024457
0.128605
0.0236427
0.163536
0.0212161
0.194303
0.017805
0.226701
0.0133249
0.264955
0.0073906
0.312877
0.36554
0.0158758
0.0260065
0.0185932
0.0447696
0.0229321
0.0823839
0.0253292
0.126208
0.0249585
0.163906
0.0226348
0.196627
0.0191516
0.230184
0.0144008
0.269706
0.00807881
0.319199
0.373619
0.0495804
0.0345013
-0.0580752
0.0413182
0.0530318
0.0373887
0.0863134
0.0336616
0.129935
0.028122
0.169446
0.0217822
0.202967
0.0156039
0.236363
0.0096409
0.275669
0.00402007
0.32482
0.377639
0.0500637
0.0395795
-0.0551419
0.0425314
0.0605642
0.0371992
0.0916456
0.0332036
0.13393
0.0277422
0.174907
0.0212204
0.209489
0.0148778
0.242705
0.00899484
0.281552
0.00371482
0.3301
0.381354
0.0461075
0.0427588
-0.0492868
0.0402128
0.0664588
0.0346409
0.0972175
0.0302815
0.13829
0.02535
0.179839
0.0195355
0.215303
0.0137727
0.248468
0.00837766
0.286947
0.00349922
0.334978
0.384853
0.0389669
0.0448463
-0.0410544
0.0351002
0.0703256
0.0308287
0.101489
0.0271902
0.141928
0.0230122
0.184017
0.017781
0.220534
0.0123076
0.253942
0.00728077
0.291974
0.00293483
0.339324
0.387788
0.0301557
0.0464739
-0.0317834
0.0273875
0.0730938
0.0241991
0.104677
0.0217195
0.144408
0.0190369
0.186699
0.0153292
0.224242
0.0110216
0.258249
0.0066901
0.296306
0.00272373
0.34329
0.390512
0.021117
0.0476285
-0.0222716
0.019536
0.0746748
0.0178686
0.106345
0.0167509
0.145526
0.0152327
0.188218
0.0123782
0.227096
0.00863184
0.261996
0.00496883
0.299969
0.00189053
0.346369
0.392402
0.0119863
0.0491416
-0.0134995
0.010177
0.0764841
0.00930153
0.10722
0.00996567
0.144861
0.010916
0.187267
0.0103388
0.227674
0.0079018
0.264433
0.0046843
0.303186
0.00173512
0.349318
0.394137
0.00507659
0.0505354
-0.0064704
0.00334075
0.0782199
0.0026345
0.107927
0.00353859
0.143957
0.00523778
0.185568
0.0058163
0.227095
0.00469711
0.265552
0.00276416
0.305119
0.000905882
0.351176
0.395043
-0.00167695
0.0528546
-0.000642198
-0.0036638
0.0802068
-0.00378061
0.108043
-0.00144256
0.141619
0.00225568
0.18187
0.00463225
0.224719
0.00443873
0.265745
0.00268942
0.306868
0.000833108
0.353032
0.395876
-0.00570594
0.00246345
-0.00912343
-0.0106883
-0.00918051
-0.00522301
-0.00122403
0.000897204
0.000827959
0.000136412
0.0163998
-0.0579142
-0.0165608
0.014917
-0.0536591
0.0130544
-0.0474243
0.0112842
-0.0392842
0.00989499
-0.0303941
0.00897675
-0.0213533
0.00859569
-0.0131184
0.00862527
-0.00649998
0.00918084
-0.00119777
0.00169545
0.0147383
-0.0569746
-0.0156778
0.0129303
-0.0518512
0.0110055
-0.0454995
0.00926432
-0.0375429
0.00792754
-0.0290573
0.00705888
-0.0204847
0.00667654
-0.0127361
0.00666062
-0.00648406
0.00709678
-0.00163394
0.00112804
0.0126953
-0.0555792
-0.0140908
0.0107226
-0.0498785
0.00878391
-0.0435608
0.00707636
-0.0358354
0.00578946
-0.0277704
0.00496105
-0.0196562
0.00458282
-0.0123578
0.00454477
-0.00644602
0.00486764
-0.0019568
0.000708917
0.0102899
-0.0538939
-0.0119753
0.00824753
-0.0478361
0.00635182
-0.041665
0.00471969
-0.0342033
0.00350226
-0.026553
0.00272254
-0.0188765
0.00235513
-0.0119904
0.00230309
-0.00639398
0.00253609
-0.0021898
0.00040795
0.00759615
-0.0520153
-0.00947475
0.00554953
-0.0457894
0.00373602
-0.0398515
0.00220783
-0.0326751
0.00108293
-0.0254281
0.000376912
-0.0181705
4.06074e-05
-0.0116541
-2.0766e-05
-0.00633261
0.000141097
-0.00235167
0.000209761
0.00470455
-0.0500068
-0.00671308
0.00270077
-0.0437857
0.000997476
-0.0381482
-0.000403987
-0.0312736
-0.00145149
-0.0243806
-0.00209716
-0.0175248
-0.00240307
-0.0113482
-0.00245023
-0.00628545
-0.00233511
-0.00246679
5.60539e-05
0.0017272
-0.0479359
-0.00379814
-0.000207667
-0.0418508
-0.00181934
-0.0365366
-0.00312436
-0.0299686
-0.00404775
-0.0234572
-0.0046084
-0.0169642
-0.004864
-0.0110926
-0.00489614
-0.0062533
-0.00481268
-0.00255025
-6.45004e-05
-0.00127968
-0.0458396
-0.00081657
-0.00314677
-0.0399837
-0.0046333
-0.03505
-0.0058183
-0.0287836
-0.00663211
-0.0226434
-0.00710949
-0.0164868
-0.00731667
-0.0108854
-0.00733249
-0.00623748
-0.00726594
-0.00261681
-0.000172807
-0.00424473
-0.0437178
0.00212295
-0.00599369
-0.0382347
-0.00736511
-0.0336786
-0.00843499
-0.0277137
-0.00914993
-0.0219285
-0.00955131
-0.0160854
-0.00971642
-0.0107203
-0.009717
-0.0062369
-0.00965481
-0.002679
-0.000284313
-0.00704289
-0.0416356
0.00496063
-0.00868631
-0.0365913
-0.00995197
-0.032413
-0.0109151
-0.0267506
-0.0115467
-0.0212968
-0.0118844
-0.0157478
-0.0120175
-0.0105872
-0.0120059
-0.00624848
-0.0119411
-0.00274387
-0.00041004
-0.00961855
-0.039632
0.00761496
-0.0111654
-0.0350444
-0.0123432
-0.0312352
-0.0132069
-0.0258869
-0.0137749
-0.0207289
-0.0140635
-0.0154592
-0.0141771
-0.0104735
-0.0141586
-0.00626697
-0.0140886
-0.00281389
-0.000553261
-0.0119487
-0.0377233
0.01004
-0.0133948
-0.0335984
-0.0144989
-0.0301311
-0.0152743
-0.0251114
-0.0157974
-0.0202058
-0.0160524
-0.0152042
-0.016159
-0.0103669
-0.016141
-0.006285
-0.0160686
-0.00288632
-0.000709045
-0.0139975
-0.0359242
0.0121984
-0.0153417
-0.0322542
-0.0163869
-0.0290859
-0.017089
-0.0244093
-0.0175842
-0.0197105
-0.0178237
-0.0149647
-0.0179358
-0.0102548
-0.0179283
-0.00629247
-0.0178618
-0.00295288
-0.000864739
-0.0157481
-0.0342417
0.0140656
-0.0169883
-0.031014
-0.0179892
-0.0280851
-0.0186346
-0.0237639
-0.0191172
-0.019228
-0.0193603
-0.0147215
-0.0194909
-0.0101242
-0.0195075
-0.00627583
-0.0194599
-0.00300044
-0.00100168
-0.0171967
-0.0326699
0.015625
-0.0183308
-0.0298799
-0.0192993
-0.0271166
-0.0199073
-0.0231558
-0.0203897
-0.0187456
-0.0206565
-0.0144548
-0.0208191
-0.00996159
-0.0208765
-0.00621841
-0.0208651
-0.00301189
-0.0010971
-0.0183511
-0.0311839
0.0168651
-0.0193797
-0.0288513
-0.0203217
-0.0261747
-0.0209139
-0.0225636
-0.0214059
-0.0182536
-0.0217165
-0.0141442
-0.0219259
-0.0097522
-0.0220434
-0.00610091
-0.022088
-0.00296727
-0.00112583
-0.0192239
-0.0297368
0.0177768
-0.020155
-0.0279203
-0.021067
-0.0252626
-0.0216678
-0.0219628
-0.0221776
-0.0177438
-0.0225525
-0.0137693
-0.0228248
-0.00947989
-0.0230236
-0.00590214
-0.0231462
-0.00284471
-0.00106169
-0.0197962
-0.0282955
0.0183549
-0.0206599
-0.0270565
-0.021539
-0.0243836
-0.0221799
-0.0213219
-0.02272
-0.0172037
-0.0231806
-0.0133086
-0.0235346
-0.00912589
-0.0238372
-0.0055996
-0.0240611
-0.00262081
-0.000878388
-0.0200325
-0.0268831
0.0186201
-0.0209072
-0.0261818
-0.0217539
-0.0235369
-0.0224677
-0.0206081
-0.0230545
-0.0166168
-0.0236212
-0.012742
-0.0240771
-0.00866994
-0.0245063
-0.00517043
-0.0248561
-0.00227102
-0.000549484
-0.0200458
-0.0255111
0.0186738
-0.0209968
-0.0252308
-0.0217468
-0.0227868
-0.0225253
-0.0198297
-0.02317
-0.0159722
-0.0238603
-0.0120517
-0.0244525
-0.00807769
-0.025042
-0.00458097
-0.0255603
-0.00175276
-5.36e-05
-0.078487
-0.0221921
0.075168
-0.0841043
-0.0196135
-0.0888825
-0.0180086
-0.0936146
-0.0150975
-0.0973352
-0.0122516
-0.100387
-0.00900025
-0.102383
-0.00608147
-0.103591
-0.00337305
-0.104011
-0.00133237
-6.32437e-05
-0.097012
-0.0189304
0.0937503
-0.100794
-0.0158314
-0.104294
-0.0145088
-0.107768
-0.0116238
-0.110554
-0.00946524
-0.112804
-0.00675015
-0.114265
-0.00462102
-0.11512
-0.00251807
-0.11539
-0.00106214
-6.29006e-05
-0.114736
-0.016108
0.111914
-0.117608
-0.0129599
-0.120409
-0.0117076
-0.123004
-0.00902888
-0.12509
-0.00737943
-0.126715
-0.00512491
-0.127742
-0.00359444
-0.128311
-0.00194873
-0.128466
-0.000906888
-5.77411e-05
-0.134625
-0.0139618
0.132479
-0.136863
-0.0107218
-0.139029
-0.00954224
-0.140949
-0.00710888
-0.142484
-0.0058438
-0.143655
-0.00395381
-0.144373
-0.00287701
-0.144767
-0.00155443
-0.144862
-0.000812544
-5.01504e-05
-0.158265
-0.0119048
0.156208
-0.160071
-0.00891581
-0.16179
-0.00782362
-0.163255
-0.00564437
-0.164435
-0.00466374
-0.165325
-0.0030638
-0.165887
-0.0023144
-0.166227
-0.00121484
-0.166336
-0.000703103
-1.53468e-05
-0.186373
-0.00980789
0.184276
-0.187989
-0.00729978
-0.18955
-0.00626349
-0.19081
-0.00438428
-0.191839
-0.00363484
-0.192608
-0.00229474
-0.193163
-0.00175865
-0.193559
-0.000818803
-0.193782
-0.000480465
4.45811e-05
-0.216894
-0.00762393
0.21471
-0.218957
-0.00523716
-0.220718
-0.00450225
-0.221926
-0.00317593
-0.222903
-0.00265796
-0.223639
-0.00155864
-0.22426
-0.00113818
-0.224735
-0.000343861
-0.225038
-0.000177661
0.000121193
-0.247593
-0.00508185
0.245051
-0.248864
-0.00396574
-0.250079
-0.00328792
-0.251131
-0.00212404
-0.252095
-0.00169386
-0.252795
-0.000857969
-0.253374
-0.000559982
-0.253744
2.67439e-05
-0.253968
4.66184e-05
0.000152954
-0.266656
-0.00263423
0.264208
-0.269104
-0.00151729
-0.271093
-0.00129884
-0.272345
-0.000871963
-0.273295
-0.000743844
-0.273784
-0.000369092
-0.274136
-0.000207973
-0.274201
9.15546e-05
-0.274236
8.11475e-05
8.97741e-05
-0.279667
0.277033
-0.281184
-0.282483
-0.283355
-0.284099
-0.284468
-0.284676
-0.284584
-0.284503
-0.021236
0.0768944
0.0195096
-0.0220323
0.0945465
-0.0223385
0.11222
-0.0221402
0.132281
-0.0214156
0.155484
-0.019802
0.182663
-0.0170779
0.211986
-0.0115924
0.239565
-0.00679752
0.259413
0.270235
-0.020033
0.0778235
0.019104
-0.0206723
0.0951858
-0.0208668
0.112415
-0.020559
0.131973
-0.0197346
0.15466
-0.0180952
0.181023
-0.0153649
0.209256
-0.0111061
0.235307
-0.00600663
0.254314
0.264229
-0.0190927
0.0785669
0.0183493
-0.0195702
0.0956634
-0.0196366
0.112481
-0.0192585
0.131595
-0.0184012
0.153802
-0.016802
0.179424
-0.0141631
0.206617
-0.0102738
0.231417
-0.00546767
0.249508
0.258761
-0.0180224
0.0792413
0.017348
-0.0183708
0.0960118
-0.0182971
0.112407
-0.0178314
0.131129
-0.0169386
0.15291
-0.0153809
0.177867
-0.0128808
0.204117
-0.0093411
0.227878
-0.00491198
0.245078
0.253849
-0.0167744
0.0798423
0.0161734
-0.0170219
0.0962593
-0.0168386
0.112224
-0.0163033
0.130594
-0.015389
0.151995
-0.0138845
0.176362
-0.0115566
0.201789
-0.00834595
0.224667
-0.00436373
0.241096
0.249485
-0.0153844
0.0803523
0.0148744
-0.0155217
0.0963966
-0.015248
0.11195
-0.0146662
0.130012
-0.0137511
0.15108
-0.0123222
0.174933
-0.0101942
0.199661
-0.00731826
0.221791
-0.00381767
0.237596
0.245668
-0.0138909
0.0807591
0.0134842
-0.0139077
0.0964134
-0.0135471
0.11159
-0.01293
0.129395
-0.0120297
0.15018
-0.0106985
0.173602
-0.00879297
0.197755
-0.00627257
0.219271
-0.00326549
0.234589
0.242402
-0.0123205
0.0810461
0.0120335
-0.0122175
0.0963104
-0.0117715
0.111144
-0.0111235
0.128747
-0.0102464
0.149303
-0.00902879
0.172384
-0.00736204
0.196089
-0.00521651
0.217125
-0.00270643
0.232079
0.239696
-0.010699
0.0811909
0.0105542
-0.0104825
0.0960939
-0.00995348
0.110615
-0.00927867
0.128072
-0.0084292
0.148453
-0.00733585
0.171291
-0.00591747
0.19467
-0.00415713
0.215365
-0.00214439
0.230066
0.237551
-0.00905294
0.081165
0.00907881
-0.00873411
0.0957751
-0.00811969
0.11
-0.00742426
0.127377
-0.00660334
0.147632
-0.00564251
0.17033
-0.0044771
0.193505
-0.00310415
0.213992
-0.00158592
0.228548
0.235965
-0.00741545
0.0809336
0.00764689
-0.00701131
0.0953709
-0.00630221
0.109291
-0.00559194
0.126666
-0.00479627
0.146837
-0.00397181
0.169506
-0.00305787
0.192591
-0.00206762
0.213002
-0.00103656
0.227516
0.234929
-0.00584916
0.0805015
0.00628126
-0.00534996
0.0948718
-0.00455301
0.108494
-0.00382148
0.125935
-0.00305057
0.146066
-0.00235081
0.168806
-0.00167843
0.191918
-0.00106207
0.212385
-0.000503165
0.226958
0.234426
-0.00439916
0.0798853
0.00501529
-0.00378835
0.0942609
-0.00291856
0.107624
-0.00215723
0.125174
-0.00141599
0.145324
-0.000829833
0.16822
-0.000390738
0.191479
-0.000129034
0.212124
-1.80566e-05
0.226847
0.234408
-0.00309253
0.0791114
0.00386651
-0.00234732
0.0935157
-0.00143468
0.106712
-0.000637708
0.124377
1.81212e-05
0.144669
0.000603641
0.167634
0.000856518
0.191226
0.00079732
0.212183
0.000479162
0.227165
0.234887
-0.00194863
0.0782189
0.00284105
-0.00104761
0.0926147
-0.000159229
0.105823
0.000804837
0.123413
0.00156498
0.143908
0.00200233
0.167197
0.00204799
0.191181
0.00166989
0.212561
0.000940031
0.227895
0.235827
-0.000977572
0.0772634
0.00193306
5.19514e-05
0.0915852
0.00116783
0.104708
0.00215148
0.122429
0.00289485
0.143165
0.00325898
0.166833
0.00312816
0.191312
0.00246338
0.213226
0.00135779
0.229
0.237185
-0.000198599
0.0763411
0.00112099
0.0011872
0.0901994
0.00231146
0.103583
0.00334017
0.1214
0.00409374
0.142412
0.00440891
0.166518
0.00413023
0.19159
0.00320532
0.214151
0.00175015
0.230455
0.238935
0.000592592
0.0753799
0.000368584
0.00209118
0.0887008
0.00325293
0.102422
0.00432348
0.12033
0.00508783
0.141647
0.00536639
0.166239
0.00497036
0.191986
0.00383044
0.21529
0.00207726
0.232209
0.241012
0.0013468
0.0743972
-0.000364108
0.00293029
0.0871173
0.00413995
0.101212
0.0052535
0.119216
0.00603881
0.140862
0.00629232
0.165986
0.0057868
0.192492
0.00443835
0.216639
0.0023977
0.234249
0.24341
0.00168591
0.0737875
-0.00107625
0.00331871
0.0854845
0.00457214
0.0999585
0.00570782
0.11808
0.00651107
0.140059
0.0067731
0.165724
0.00623146
0.193033
0.00477924
0.218091
0.0025664
0.236462
0.245976
-0.0648021
0.0667554
0.0718343
-0.0581143
0.0787968
-0.0532877
0.0951318
-0.0481479
0.112941
-0.0426929
0.134604
-0.0364737
0.159504
-0.0290087
0.185568
-0.020189
0.209271
-0.0103133
0.226586
0.235663
-0.0761761
0.0611575
0.081774
-0.0703472
0.0729678
-0.0648857
0.0896703
-0.0587354
0.10679
-0.0523976
0.128266
-0.0449019
0.152009
-0.0358169
0.176483
-0.0250774
0.198532
-0.0130375
0.214547
0.222625
-0.0894459
0.0555928
0.0950105
-0.0836282
0.0671501
-0.0773543
0.0833964
-0.0704295
0.0998655
-0.0629799
0.120816
-0.0537261
0.142755
-0.0426498
0.165407
-0.0296225
0.185505
-0.0150224
0.199946
0.207603
-0.105786
0.0501915
0.111187
-0.0995741
0.0609385
-0.0927211
0.0765435
-0.0850433
0.0921878
-0.0760765
0.11185
-0.0647306
0.131409
-0.0513567
0.152033
-0.0357381
0.169886
-0.0185376
0.182746
0.189065
-0.124654
0.044032
0.130814
-0.118127
0.0544108
-0.110392
0.0688089
-0.101087
0.0828824
-0.089675
0.100438
-0.0756424
0.117376
-0.0594635
0.135854
-0.0407048
0.151127
-0.0203341
0.162375
0.168731
-0.148477
0.038152
0.154357
-0.140904
0.0468371
-0.131659
0.0595647
-0.120177
0.0714004
-0.106172
0.0864323
-0.0894792
0.100683
-0.0701455
0.116521
-0.048076
0.129058
-0.024875
0.139174
0.143856
-0.173237
0.0307428
0.180646
-0.164167
0.0377669
-0.15272
0.0481181
-0.138477
0.0571571
-0.121352
0.0693079
-0.100981
0.0803124
-0.0771933
0.0927327
-0.0508784
0.102743
-0.0243279
0.112624
0.119528
-0.201346
0.022869
0.20922
-0.190539
0.0269592
-0.176938
0.0345175
-0.160273
0.0404923
-0.140308
0.0493424
-0.116562
0.0565666
-0.0894217
0.0655925
-0.060491
0.0738122
-0.031895
0.0840276
0.0876332
-0.221624
0.0110038
0.23349
-0.208003
0.0133381
-0.190685
0.0171992
-0.170325
0.0201319
-0.145798
0.0248155
-0.11761
0.0283792
-0.0856045
0.0335866
-0.050093
0.0383007
-0.0137892
0.0477238
0.0738441
-0.297319
0.308323
-0.283981
-0.266782
-0.24665
-0.221834
-0.193455
-0.159869
-0.121568
-0.0738441
-0.00139195
0.0737356
-0.000509412
-0.00289105
0.0832731
-0.00407297
0.0961925
-0.0049527
0.112067
-0.00546747
0.131329
-0.00556875
0.154458
-0.00509218
0.18017
-0.0039761
0.208104
-0.00313308
0.232647
0.30519
-0.000922213
0.0756936
-0.00103579
-0.00255663
0.0849075
-0.00382391
0.0974597
-0.00472814
0.112971
-0.00528193
0.131882
-0.00539357
0.15457
-0.0049785
0.179755
-0.00388501
0.207011
-0.00286591
0.231627
0.302324
-0.000301361
0.0775597
-0.00156473
-0.00190503
0.0865112
-0.00317371
0.0987284
-0.00406885
0.113866
-0.00465164
0.132465
-0.00478953
0.154708
-0.00447597
0.179441
-0.00348003
0.206015
-0.00260976
0.230757
0.299714
0.000313766
0.0793577
-0.0021118
-0.00125183
0.0880768
-0.00241566
0.0998922
-0.0032749
0.114725
-0.00383755
0.133028
-0.0040252
0.154896
-0.00379234
0.179208
-0.0029717
0.205194
-0.00227411
0.23006
0.29744
0.000914358
0.0811237
-0.00268034
-0.000621168
0.0896123
-0.00168121
0.100952
-0.00248129
0.115525
-0.00300583
0.133552
-0.00321383
0.155104
-0.00305096
0.179045
-0.00240455
0.204548
-0.0018908
0.229546
0.295549
0.00154169
0.0828392
-0.00325715
4.43346e-05
0.0911097
-0.000884786
0.101881
-0.00162662
0.116267
-0.00211557
0.134041
-0.00233784
0.155326
-0.00225689
0.178964
-0.00178236
0.204073
-0.00147045
0.229234
0.294079
0.00221139
0.0844634
-0.00383559
0.000905711
0.0924154
-1.54815e-05
0.102803
-0.000686082
0.116938
-0.00113607
0.134491
-0.00137605
0.155566
-0.00137857
0.178967
-0.00110115
0.203796
-0.00101112
0.229144
0.293068
0.00290669
0.0859671
-0.00441043
0.00175596
0.0935661
0.000951581
0.103607
0.000338526
0.117551
-6.43396e-05
0.134894
-0.000341405
0.155843
-0.000402246
0.179028
-0.000371444
0.203765
-0.000509242
0.229282
0.292558
0.00362076
0.0873187
-0.00497236
0.00262631
0.0945605
0.00193221
0.104301
0.00143224
0.118051
0.00105896
0.135268
0.000782962
0.156119
0.000607654
0.179203
0.000431243
0.203941
4.40836e-05
0.229669
0.292603
0.00434254
0.0884828
-0.00550664
0.00350832
0.0953948
0.00293556
0.104874
0.00253767
0.118449
0.00222
0.135585
0.00193507
0.156404
0.00164099
0.179497
0.0012738
0.204309
0.000556195
0.230386
0.293159
0.00505155
0.0894178
-0.0059865
0.00438086
0.0960655
0.0039378
0.105317
0.00364617
0.11874
0.00338891
0.135842
0.00309585
0.156697
0.00269945
0.179893
0.00211892
0.204889
0.00110373
0.231402
0.294262
0.00573949
0.0900852
-0.00640693
0.00523485
0.0965701
0.00492869
0.105623
0.00474768
0.118921
0.00455524
0.136035
0.00426262
0.15699
0.00376646
0.18039
0.00297515
0.20568
0.00166265
0.232714
0.295925
0.00637199
0.0904656
-0.00675235
0.00604174
0.0969003
0.00587759
0.105787
0.00581037
0.118989
0.00569201
0.136153
0.00540952
0.157272
0.00482169
0.180977
0.00383115
0.206671
0.00222284
0.234322
0.298148
0.00693134
0.0905485
-0.00701425
0.00678242
0.0970493
0.00675987
0.10581
0.0068082
0.11894
0.00677477
0.136187
0.00651077
0.157536
0.00584491
0.181643
0.00466917
0.207847
0.0027735
0.236218
0.300921
0.00740306
0.090332
-0.0071866
0.00744197
0.0970104
0.00755628
0.105695
0.00772012
0.118776
0.00777941
0.136127
0.0075489
0.157767
0.00682656
0.182366
0.00548131
0.209192
0.00331322
0.238386
0.304235
0.00777237
0.0898292
-0.00726952
0.00800318
0.0967795
0.00824508
0.105454
0.00852053
0.118501
0.00867659
0.135971
0.00849122
0.157952
0.00773564
0.183121
0.00624229
0.210685
0.003826
0.240802
0.308061
0.00804449
0.0890583
-0.00727364
0.00847066
0.0963534
0.00882832
0.105096
0.00921085
0.118118
0.00947013
0.135712
0.00934648
0.158076
0.00857984
0.183888
0.00696117
0.212304
0.00431851
0.243445
0.312379
0.00818575
0.0880892
-0.00721661
0.00879734
0.0957418
0.00925719
0.104636
0.00973311
0.117643
0.0100912
0.135354
0.0100382
0.158129
0.00928911
0.184637
0.00758787
0.214005
0.00475925
0.246274
0.317138
0.00834931
0.0868934
-0.00715356
0.00913047
0.0949606
0.00966369
0.104103
0.010214
0.117092
0.0106654
0.134903
0.0106878
0.158106
0.00996177
0.185363
0.00818187
0.215785
0.00517663
0.249279
0.322315
0.00807406
0.0858902
-0.00707082
0.00899649
0.0940382
0.0096497
0.10345
0.0102719
0.11647
0.0108265
0.134348
0.0109504
0.157982
0.0103323
0.185981
0.00855523
0.217562
0.00549396
0.25234
0.327809
-0.0487122
0.0786924
0.05591
-0.0409084
0.0862344
-0.0349278
0.097469
-0.0292803
0.110823
-0.023839
0.128907
-0.0182854
0.152429
-0.0125128
0.180209
-0.00682994
0.211879
-0.00301412
0.248524
0.324795
-0.0654119
0.0714037
0.0727006
-0.0578857
0.0787082
-0.050747
0.0903303
-0.0432458
0.103321
-0.0359146
0.121575
-0.0281587
0.144673
-0.0198782
0.171928
-0.0116304
0.203631
-0.00528892
0.242183
0.319506
-0.0836129
0.064001
0.0910155
-0.0753797
0.070475
-0.0667856
0.0817362
-0.0578701
0.0944058
-0.0490045
0.11271
-0.0390003
0.134669
-0.0281116
0.161039
-0.0169329
0.192453
-0.00747343
0.232724
0.312033
-0.103628
0.0561592
0.11147
-0.0939639
0.0608108
-0.0845258
0.0722981
-0.0746383
0.0845183
-0.06391
0.101982
-0.0512315
0.12199
-0.0373918
0.1472
-0.0229057
0.177967
-0.0100345
0.219852
0.301998
-0.12535
0.0471
0.13441
-0.115638
0.0510984
-0.105964
0.0626237
-0.0943926
0.0729473
-0.0811949
0.0887839
-0.0657824
0.106578
-0.0488384
0.130256
-0.0304468
0.159575
-0.0132316
0.202637
0.288766
-0.151823
0.0384822
0.160441
-0.141715
0.0409902
-0.130624
0.0515328
-0.116917
0.0592405
-0.101587
0.0734534
-0.0835393
0.0885301
-0.0630901
0.109807
-0.0402081
0.136693
-0.0183858
0.180815
0.270381
-0.182715
0.0280652
0.193132
-0.17251
0.0307857
-0.159903
0.0389262
-0.145034
0.0443712
-0.127945
0.0563638
-0.106834
0.06742
-0.0824646
0.0854367
-0.0549146
0.109143
-0.0266284
0.152529
0.243752
-0.220025
0.0182252
0.229865
-0.208649
0.0194087
-0.194665
0.0249427
-0.178732
0.0284378
-0.159239
0.0368715
-0.135812
0.043993
-0.108889
0.0585132
-0.0776489
0.0779031
-0.0421642
0.117044
0.201588
-0.270972
0.00753865
0.281659
-0.259865
0.00830139
-0.245758
0.0108356
-0.230137
0.0128171
-0.210288
0.0170227
-0.187602
0.0213072
-0.159119
0.0300302
-0.123231
0.0420149
-0.0734934
0.067306
0.128095
-0.33773
0.345268
-0.329428
-0.318593
-0.305776
-0.288753
-0.267446
-0.237416
-0.195401
-0.128095
0.00374747
0.0581816
-0.006019
0.000887705
0.0755604
-0.00136076
0.093264
-0.00315618
0.113265
-0.00462722
0.135881
-0.00575905
0.161573
-0.00613323
0.193506
-0.00600834
0.229741
-0.00409037
0.279741
0.341178
0.00401465
0.0600888
-0.00592188
0.00150697
0.078068
-0.000770918
0.0955419
-0.00262163
0.115116
-0.00416796
0.137427
-0.00533176
0.162736
-0.0058247
0.193999
-0.0057205
0.229636
-0.00395552
0.277976
0.337223
0.0045486
0.0613906
-0.00585042
0.00238628
0.0802304
0.000160851
0.0977673
-0.0016651
0.116942
-0.00324178
0.139004
-0.00444081
0.163936
-0.0050472
0.194605
-0.00499214
0.229581
-0.00360186
0.276585
0.333621
0.00513406
0.0620703
-0.00581375
0.00333611
0.0820283
0.00131678
0.0997866
-0.000594999
0.118854
-0.00213054
0.140539
-0.00338455
0.16519
-0.00408048
0.195301
-0.00418239
0.229683
-0.00314202
0.275545
0.330479
0.00574989
0.0621201
-0.00579967
0.00435636
0.0834218
0.00252251
0.10162
0.000642518
0.120734
-0.000934761
0.142116
-0.00223089
0.166486
-0.00301607
0.196086
-0.00331655
0.229984
-0.00260472
0.274833
0.327874
0.00642287
0.0614902
-0.00579293
0.00549219
0.0843525
0.00385943
0.103253
0.00208269
0.122511
0.000416261
0.143783
-0.000973399
0.167875
-0.0018548
0.196968
-0.00238213
0.230511
-0.00200918
0.27446
0.325865
0.0071389
0.0601346
-0.00578337
0.00673727
0.0847541
0.00533501
0.104656
0.00363848
0.124207
0.00199316
0.145428
0.000449208
0.169419
-0.000579917
0.197997
-0.00137273
0.231304
-0.00136181
0.274449
0.324503
0.00786694
0.0580352
-0.00576753
0.00806006
0.084561
0.0069277
0.105788
0.00531794
0.125817
0.00366128
0.147085
0.00209304
0.170988
0.000815512
0.199274
-0.000311546
0.232431
-0.000663098
0.274801
0.32384
0.0085727
0.0552135
-0.00575101
0.00942455
0.0837092
0.00860824
0.106604
0.0070995
0.127326
0.00542433
0.14876
0.00377607
0.172636
0.00229882
0.200751
0.000929853
0.2338
8.83263e-05
0.275642
0.323928
0.00922179
-0.00575407
0.0107935
0.0103435
0.00895631
0.00725808
0.0055217
0.003847
0.00219287
0.000799879
0.000484988
-0.0011077
0.00156762
-0.00376986
0.00304659
-0.00606566
0.0047608
-0.0077949
0.00659643
-0.00894248
0.00848543
-0.00957699
0.0103985
-0.00979571
0.0123397
-0.00969609
0.0143516
-0.00937141
-0.00895519
0.000555968
-0.00166367
0.00173141
-0.00494529
0.00327294
-0.0076072
0.00499308
-0.00951503
0.00677282
-0.0107222
0.0085524
-0.0113566
0.0103159
-0.0115592
0.0120769
-0.0114571
0.0138643
-0.0111588
-0.0107688
0.000611781
-0.00227545
0.00183499
-0.00616851
0.00336612
-0.00913832
0.0049996
-0.0111485
0.00662109
-0.0123437
0.00818607
-0.0129216
0.00969423
-0.0130673
0.0111676
-0.0129305
0.0126312
-0.0126223
-0.0122284
0.000646971
-0.00292242
0.00186509
-0.00738663
0.0033092
-0.0105824
0.00476908
-0.0126084
0.00614674
-0.0137214
0.00742014
-0.014195
0.00860798
-0.0142552
0.00974409
-0.0140666
0.01086
-0.0137383
-0.0133436
0.000656576
-0.003579
0.00181286
-0.00854291
0.00309748
-0.0118671
0.00431172
-0.0138226
0.00538465
-0.0147943
0.00632069
-0.015131
0.00715732
-0.0150918
0.00793868
-0.014848
0.00870212
-0.0145017
-0.0141162
0.000636854
-0.00421585
0.00167534
-0.00958139
0.00273879
-0.0129305
0.00365574
-0.0147396
0.00438899
-0.0155275
0.00496888
-0.0157109
0.0054474
-0.0155703
0.00587397
-0.0152745
0.00628682
-0.0149145
-0.0145425
0.00058593
-0.00480178
0.00145602
-0.0104515
0.00225179
-0.0137263
0.00284126
-0.0153291
0.00322252
-0.0159088
0.00344717
-0.0159355
0.00357514
-0.0156983
0.00365523
-0.0153546
0.00372163
-0.0149809
-0.014619
0.000504181
-0.00530596
0.00116432
-0.0111116
0.00166272
-0.0142247
0.00191386
-0.0155802
0.00194794
-0.0159429
0.00183091
-0.0158185
0.00162389
-0.0154913
0.00137059
-0.0151013
0.00109762
-0.014708
-0.014338
0.000394265
-0.00570023
0.000814162
-0.0115315
0.00100167
-0.0144122
0.000919168
-0.0154977
0.000622498
-0.0156462
0.00018455
-0.0153806
-0.000336889
-0.0149698
-0.000906391
-0.0145318
-0.00150489
-0.0141095
-0.0137199
0.000260652
-0.00596088
0.000422086
-0.011693
0.000299433
-0.0142895
-0.000100796
-0.0150975
-0.000704018
-0.015043
-0.00143704
-0.0146476
-0.00224969
-0.0141572
-0.00311427
-0.0136673
-0.00401855
-0.0132052
-0.0127778
0.000137929
-0.00609881
4.63418e-05
-0.0116014
-0.000375579
-0.0138676
-0.0010735
-0.0143995
-0.00196081
-0.0141557
-0.00296694
-0.0136414
-0.00404951
-0.0130746
-0.00518818
-0.0125286
-0.006376
-0.0120174
-0.0115389
-1.49272e-05
-0.00608388
-0.000366172
-0.0112501
-0.00106731
-0.0131665
-0.00203248
-0.0134344
-0.00316951
-0.0130187
-0.00441464
-0.0123963
-0.00573373
-0.0117555
-0.00711236
-0.01115
-0.00854687
-0.0105829
-0.0100457
-0.000170604
-0.00591328
-0.000769189
-0.0106515
-0.00172542
-0.0122103
-0.00292661
-0.0122332