/*--------------------------------*- C++ -*----------------------------------*\
  =========                 |
  \\      /  F ield         | OpenFOAM: The Open Source CFD Toolbox
   \\    /   O peration     | Website:  https://openfoam.org
    \\  /    A nd           | Version:  7
     \\/     M anipulation  |
\*---------------------------------------------------------------------------*/
FoamFile
{
    version     2.0;
    format      ascii;
    class       volScalarField;
    location    "9.4";
    object      p;
}
// * * * * * * * * * * * * * * * * * * * * * * * * * * * * * * * * * * * * * //

dimensions      [0 2 -2 0 0 0 0];

internalField   nonuniform List<scalar> 
2000
(
0.107343
0.109968
0.112351
0.116473
0.122432
0.129783
0.137862
0.146031
0.153827
0.161102
0.109467
0.111678
0.113643
0.117111
0.122249
0.128747
0.136051
0.143584
0.150885
0.157782
0.111624
0.113441
0.115088
0.118049
0.122513
0.128258
0.13483
0.141717
0.14848
0.154924
0.113814
0.115257
0.116676
0.119266
0.123199
0.128303
0.134201
0.140451
0.146646
0.152567
0.116022
0.117118
0.118398
0.120745
0.124285
0.128863
0.134157
0.139792
0.145402
0.150737
0.118223
0.119011
0.120239
0.122466
0.125745
0.129912
0.13468
0.139733
0.144747
0.14944
0.120372
0.120908
0.122178
0.124402
0.127547
0.131415
0.135737
0.140248
0.144662
0.148664
0.122402
0.122764
0.124167
0.126502
0.129635
0.133316
0.137277
0.141292
0.145107
0.148384
0.124224
0.124508
0.126132
0.128683
0.131916
0.135518
0.139206
0.142777
0.145985
0.148484
0.125733
0.126052
0.12797
0.130814
0.134243
0.137861
0.141368
0.144575
0.147234
0.148897
0.174916
0.188021
0.195627
0.201389
0.205274
0.208816
0.21092
0.212936
0.213872
0.214507
0.171559
0.18464
0.192169
0.198034
0.202015
0.205663
0.207825
0.209906
0.210865
0.211545
0.168563
0.181403
0.188759
0.19472
0.198794
0.202543
0.204769
0.206913
0.207887
0.208607
0.165993
0.178306
0.18542
0.191454
0.195617
0.199453
0.201762
0.203962
0.204946
0.205697
0.163921
0.175347
0.182173
0.188251
0.192488
0.1964
0.198808
0.201059
0.202043
0.202809
0.16236
0.172482
0.179029
0.185121
0.189406
0.193387
0.195907
0.198204
0.199185
0.199958
0.161321
0.169685
0.176031
0.182081
0.186384
0.190424
0.19307
0.195406
0.196361
0.197107
0.160689
0.166854
0.173177
0.179114
0.183415
0.187502
0.190276
0.192656
0.193594
0.194336
0.160602
0.164094
0.170563
0.17626
0.180552
0.184671
0.187585
0.189981
0.190813
0.191437
0.160177
0.161181
0.16799
0.173424
0.177719
0.181824
0.18486
0.187322
0.188189
0.188885
0.163901
0.155774
0.162417
0.167085
0.171568
0.175735
0.179061
0.181056
0.180806
0.180463
0.148553
0.148317
0.152876
0.15746
0.161306
0.164225
0.166801
0.169386
0.172379
0.17604
0.1299
0.135159
0.140849
0.146464
0.151209
0.155236
0.157992
0.159232
0.160659
0.162083
0.111731
0.120145
0.127416
0.134146
0.13921
0.142937
0.146106
0.148591
0.150258
0.151859
0.094265
0.104177
0.111909
0.119121
0.125686
0.130857
0.133649
0.134999
0.136339
0.138023
0.0761426
0.0866067
0.0946691
0.101849
0.108359
0.113904
0.118043
0.12039
0.122218
0.123414
0.057986
0.0679299
0.0761886
0.0838019
0.0903509
0.0951236
0.0986317
0.101292
0.103326
0.104645
0.039243
0.0482358
0.0557979
0.0627137
0.0690714
0.0740621
0.0773812
0.0795437
0.0812136
0.0825712
0.0210813
0.0284605
0.034854
0.0398764
0.0444171
0.048449
0.0512725
0.0528325
0.053753
0.0544188
0.00187659
0.00780881
0.0120495
0.0146943
0.0168006
0.0186699
0.0201496
0.0210821
0.0214302
0.0215164
0.153864
0.137573
0.118935
0.10119
0.084299
0.0667359
0.0504535
0.0326079
0.0174326
-0.00188787
0.152217
0.133847
0.114166
0.0964293
0.0798297
0.0626253
0.046901
0.0297
0.0159609
-0.0032236
0.148349
0.129454
0.109301
0.0918216
0.0756361
0.0588912
0.0437317
0.0272944
0.0146836
-0.00445074
0.142762
0.124809
0.104602
0.0873045
0.071499
0.0553012
0.0406777
0.0251167
0.0135073
-0.00568696
0.136679
0.119718
0.0999936
0.0829369
0.0674903
0.0518962
0.0378363
0.0232558
0.0125191
-0.00669563
0.130647
0.114373
0.0954991
0.0787672
0.0636274
0.0486509
0.0351829
0.0216423
0.0117624
-0.00648294
0.124847
0.109015
0.0911041
0.074808
0.0599601
0.0455868
0.0327366
0.0202387
0.0112152
-0.00506539
0.119361
0.103881
0.0868733
0.0710852
0.0565288
0.042725
0.0305022
0.0189901
0.0106869
-0.0032954
0.114307
0.0991484
0.0828923
0.0676258
0.0533686
0.0400975
0.0284985
0.0178898
0.0101502
-0.00158011
0.109777
0.0949004
0.0792267
0.0644493
0.0504933
0.0377232
0.0267375
0.0169724
0.00967721
-0.000151346
0.105803
0.0911239
0.0758777
0.0615437
0.047888
0.0355987
0.0252149
0.0162378
0.00931061
0.000930692
0.102411
0.0878205
0.0728627
0.0589219
0.0455508
0.0337216
0.023926
0.0156606
0.00906265
0.00168745
0.0996546
0.0850586
0.0702463
0.0566325
0.043501
0.0321081
0.0228725
0.01523
0.00891576
0.00217589
0.097578
0.0828856
0.0680602
0.0547004
0.0417395
0.0308008
0.0220399
0.0149417
0.00885029
0.00246632
0.0961574
0.0812244
0.0662298
0.0530901
0.0402531
0.02982
0.0214264
0.0147923
0.00885373
0.00262853
0.0951982
0.0798674
0.0646237
0.0517616
0.0392693
0.0289531
0.0210187
0.0147766
0.0089127
0.00272209
0.0945482
0.0789374
0.0634287
0.0508467
0.0385955
0.0284051
0.02081
0.0148806
0.00901695
0.00279259
0.0949139
0.0794655
0.0634617
0.0506824
0.0383502
0.0281558
0.0207757
0.0150542
0.00926144
0.00286959
0.0972102
0.0819025
0.0649496
0.051449
0.0386291
0.028165
0.0208681
0.0153695
0.00947474
0.00296486
0.097199
0.0818283
0.0646903
0.0516513
0.039179
0.0285204
0.0210694
0.0156962
0.00982387
0.00307994
0.0881011
0.0718873
0.0565649
0.0481694
0.0409411
0.0319365
0.0236141
0.01664
0.0100511
0.0033363
0.0816731
0.0646497
0.0486665
0.0372931
0.0306256
0.025714
0.0209386
0.0157007
0.00971364
0.00335863
0.079645
0.0662386
0.0558873
0.0476803
0.0392802
0.0310409
0.0236093
0.0167891
0.00994047
0.00319118
0.0825585
0.0686751
0.056695
0.0470009
0.0383356
0.0308314
0.0238785
0.0169635
0.0100363
0.0032022
0.0889585
0.0744952
0.0612883
0.0508588
0.0410969
0.0328965
0.0252757
0.0178774
0.010615
0.0036433
0.0923521
0.0774164
0.0638042
0.0526341
0.0428884
0.034728
0.026492
0.0185819
0.0111479
0.00397997
0.0957603
0.0800992
0.0664722
0.0549296
0.045059
0.0365512
0.0274076
0.0192403
0.0116486
0.00434124
0.0983937
0.082792
0.0695088
0.0577002
0.0472402
0.0377046
0.0282249
0.0199888
0.0120867
0.00463603
0.101111
0.0860894
0.072262
0.0597656
0.0490024
0.0388015
0.0290955
0.0206038
0.0125039
0.00463444
0.103414
0.0874118
0.0740782
0.0615668
0.0498524
0.0392173
0.0298394
0.0210606
0.0126345
0.00455297
0.105887
0.102256
0.0954664
0.0955268
0.0991189
0.102297
0.106413
0.110028
0.111881
0.11646
0.111129
0.105991
0.100361
0.101282
0.104259
0.107382
0.111634
0.115802
0.118904
0.123629
0.117104
0.110144
0.103235
0.105632
0.109754
0.113543
0.117972
0.122864
0.12842
0.132976
0.123115
0.11491
0.107087
0.109484
0.114764
0.119571
0.124383
0.129903
0.137133
0.141879
0.129436
0.120017
0.112069
0.114053
0.119718
0.125283
0.130565
0.136574
0.144475
0.14964
0.13614
0.125571
0.117571
0.119481
0.125181
0.131049
0.136694
0.143087
0.151103
0.156678
0.143311
0.131649
0.123462
0.125391
0.131216
0.137171
0.14305
0.149761
0.157769
0.163664
0.150978
0.138274
0.129839
0.131587
0.137586
0.143666
0.149779
0.156802
0.16488
0.171033
0.159119
0.145417
0.136724
0.138111
0.144102
0.150412
0.156872
0.164261
0.172532
0.178927
0.167625
0.153005
0.144056
0.145018
0.150705
0.157313
0.164248
0.172081
0.180664
0.187312
0.176232
0.160956
0.15174
0.152267
0.15739
0.164343
0.171844
0.180168
0.189188
0.19612
0.184848
0.169368
0.159738
0.159762
0.164168
0.171494
0.179628
0.188439
0.198027
0.205276
0.193422
0.178022
0.168053
0.167415
0.171113
0.178752
0.187597
0.196895
0.207141
0.214742
0.20178
0.186798
0.176652
0.175188
0.178335
0.186116
0.195741
0.205572
0.216512
0.22447
0.209751
0.195524
0.185453
0.183075
0.185894
0.19362
0.204062
0.214518
0.226192
0.234459
0.217189
0.204017
0.194311
0.191093
0.193746
0.20131
0.212496
0.223706
0.236166
0.244704
0.223969
0.212091
0.203047
0.199252
0.201753
0.209281
0.221041
0.233155
0.246473
0.255256
0.229945
0.21957
0.211501
0.207494
0.209735
0.217451
0.229557
0.24268
0.256937
0.266108
0.235073
0.226506
0.219426
0.215657
0.217616
0.225897
0.238176
0.252378
0.267606
0.277236
0.239698
0.233231
0.226912
0.223758
0.225165
0.233809
0.246327
0.261501
0.277981
0.288539
0.249201
0.248649
0.247152
0.246144
0.248036
0.255928
0.268564
0.285695
0.304063
0.315825
0.2638
0.268408
0.272737
0.278061
0.28549
0.296294
0.310264
0.32868
0.348075
0.360921
0.278766
0.286065
0.294044
0.303719
0.315789
0.330911
0.347839
0.367677
0.387703
0.400984
0.291583
0.300665
0.310957
0.323139
0.337431
0.354518
0.372869
0.392531
0.41209
0.423969
0.302208
0.312205
0.323767
0.33727
0.352397
0.369628
0.387516
0.404992
0.421916
0.431456
0.310467
0.321052
0.333292
0.347397
0.362721
0.379407
0.396256
0.41133
0.424971
0.431839
0.316255
0.327297
0.33995
0.35433
0.369596
0.385571
0.401338
0.414432
0.425293
0.430732
0.320026
0.331372
0.344365
0.359079
0.374523
0.390265
0.405449
0.417581
0.42656
0.428978
0.320764
0.332712
0.345937
0.361002
0.376473
0.391954
0.407316
0.418701
0.42513
0.431278
0.323752
0.335557
0.349214
0.364457
0.380516
0.397228
0.413163
0.426615
0.435264
0.421504
0.248397
0.260316
0.273908
0.286063
0.296519
0.304586
0.310159
0.314128
0.314653
0.317324
0.249946
0.261266
0.273984
0.285397
0.295276
0.302857
0.308085
0.311872
0.312376
0.314843
0.251901
0.263681
0.27563
0.286069
0.294997
0.301786
0.306459
0.3098
0.310373
0.312471
0.252305
0.264556
0.276183
0.286067
0.294343
0.300561
0.304822
0.307782
0.308452
0.310107
0.252133
0.264465
0.275843
0.285412
0.293282
0.299131
0.303123
0.305812
0.306565
0.307813
0.251911
0.264257
0.275328
0.284596
0.292118
0.297668
0.301447
0.303923
0.304746
0.305658
0.25155
0.264031
0.274837
0.283804
0.290989
0.296261
0.299846
0.302135
0.303022
0.303672
0.250971
0.263666
0.274296
0.283007
0.289892
0.294916
0.298328
0.300452
0.301404
0.301849
0.250216
0.263143
0.273665
0.282176
0.288812
0.293627
0.296892
0.298873
0.299887
0.300173
0.249355
0.26251
0.272969
0.281318
0.287753
0.292396
0.295537
0.2974
0.298464
0.298624
0.24844
0.261803
0.272236
0.280456
0.286729
0.291231
0.294267
0.296032
0.297136
0.297177
0.247448
0.261001
0.271469
0.279594
0.285747
0.290136
0.293087
0.294761
0.295901
0.295822
0.246306
0.26006
0.270654
0.278729
0.284805
0.289114
0.291994
0.293581
0.294747
0.294554
0.244987
0.258978
0.26979
0.277862
0.283906
0.288161
0.290979
0.29249
0.293661
0.293372
0.243487
0.257788
0.268874
0.276996
0.283055
0.287264
0.290044
0.291484
0.292627
0.292278
0.241748
0.256515
0.267893
0.276144
0.282224
0.286434
0.289184
0.290557
0.291624
0.291271
0.239712
0.255215
0.266822
0.275278
0.281432
0.28567
0.288395
0.2897
0.290633
0.290369
0.237344
0.253748
0.26566
0.274396
0.280674
0.284965
0.287675
0.288908
0.289622
0.289571
0.23486
0.252221
0.264452
0.27351
0.279948
0.284316
0.28702
0.288179
0.28861
0.288929
0.231297
0.250207
0.262976
0.272501
0.279194
0.283692
0.286416
0.287499
0.28747
0.288389
0.224899
0.246063
0.25989
0.270375
0.277604
0.282398
0.285191
0.286372
0.285951
0.287517
0.233495
0.249662
0.261355
0.270954
0.277562
0.281879
0.284094
0.284846
0.284135
0.285074
0.239625
0.25331
0.263835
0.272305
0.278256
0.28199
0.283514
0.283662
0.282493
0.282526
0.24318
0.25552
0.265736
0.273491
0.279056
0.282293
0.2832
0.282832
0.281441
0.281344
0.245472
0.257184
0.267198
0.274593
0.279917
0.282666
0.282974
0.282136
0.280624
0.281724
0.247568
0.25866
0.268502
0.275832
0.280888
0.283072
0.282627
0.281394
0.280921
0.285971
0.248828
0.259768
0.269574
0.276996
0.281615
0.282774
0.280925
0.279298
0.281731
0.297559
0.25028
0.261094
0.271099
0.278914
0.283456
0.283786
0.281041
0.279685
0.290951
0.32973
0.250553
0.261234
0.27155
0.279554
0.283282
0.281529
0.277758
0.282402
0.314675
0.398005
0.251474
0.262741
0.274535
0.285592
0.293627
0.296574
0.30002
0.319357
0.385313
0.523168
0.212432
0.222561
0.228376
0.233688
0.236416
0.239882
0.241183
0.243325
0.243686
0.244558
0.208604
0.218937
0.224753
0.230314
0.23307
0.236875
0.238117
0.240447
0.240776
0.241603
0.206209
0.216545
0.222535
0.22778
0.230432
0.234124
0.235272
0.23756
0.237854
0.23858
0.202969
0.213567
0.219784
0.225021
0.22772
0.231234
0.232401
0.234599
0.234926
0.23554
0.199118
0.210033
0.216481
0.221792
0.224716
0.228116
0.229492
0.231561
0.23198
0.232512
0.195074
0.206348
0.213024
0.218403
0.221542
0.224905
0.226472
0.228456
0.229004
0.229518
0.190932
0.202641
0.209567
0.215009
0.218318
0.221681
0.223387
0.225333
0.225994
0.226515
0.186737
0.198916
0.206099
0.211613
0.215079
0.218453
0.220279
0.222213
0.222965
0.223502
0.182588
0.195198
0.202609
0.208199
0.211822
0.215223
0.217161
0.219099
0.21993
0.220491
0.178609
0.191547
0.199111
0.204783
0.20855
0.212004
0.214038
0.216003
0.216897
0.21749
0.126812
0.127294
0.129551
0.132733
0.136406
0.140089
0.143451
0.146273
0.148222
0.148028
0.127353
0.128132
0.130739
0.134273
0.138148
0.141886
0.145091
0.147498
0.14887
0.147297
0.12728
0.128492
0.131418
0.135268
0.139244
0.142928
0.145877
0.147784
0.148628
0.146286
0.126556
0.128343
0.131581
0.135549
0.139516
0.142965
0.145481
0.14675
0.146897
0.144286
0.125176
0.12769
0.131156
0.135141
0.138905
0.141914
0.14381
0.144366
0.14371
0.141137
0.123173
0.126568
0.130183
0.134059
0.137446
0.139853
0.141014
0.140863
0.139489
0.136985
0.120661
0.124982
0.128703
0.132355
0.135241
0.136961
0.137382
0.136589
0.134695
0.132138
0.117679
0.123002
0.126761
0.130107
0.132441
0.133487
0.133259
0.131944
0.129718
0.127014
0.114313
0.120669
0.124409
0.127422
0.129244
0.129721
0.128994
0.127305
0.124877
0.122013
0.110664
0.11802
0.121719
0.124453
0.125886
0.125956
0.124894
0.122968
0.120415
0.117421
0.106845
0.115096
0.118812
0.121407
0.122626
0.122464
0.121205
0.119137
0.116491
0.113393
0.103098
0.112083
0.11595
0.118574
0.119742
0.119477
0.118109
0.115942
0.113203
0.110004
0.09964
0.109145
0.113381
0.116214
0.117449
0.117161
0.115719
0.113457
0.110605
0.107296
0.0967175
0.106537
0.111394
0.114573
0.115934
0.115641
0.114119
0.111734
0.10873
0.105293
0.0945861
0.104584
0.110263
0.113856
0.115337
0.115008
0.113364
0.110808
0.107603
0.104003
0.093494
0.103631
0.110225
0.114219
0.11576
0.115327
0.113494
0.110701
0.107233
0.103398
0.0936829
0.103994
0.111469
0.115775
0.117278
0.116653
0.114543
0.111415
0.107576
0.103376
0.0953881
0.105922
0.114131
0.118596
0.11995
0.119044
0.116569
0.112979
0.108553
0.103758
0.0988227
0.109577
0.118285
0.122718
0.123808
0.122557
0.119682
0.115556
0.110322
0.104591
0.104149
0.115028
0.123945
0.128124
0.128836
0.127203
0.123964
0.119393
0.113571
0.107439
0.111476
0.122267
0.131079
0.134753
0.134954
0.132895
0.129306
0.124467
0.118694
0.113411
0.120912
0.131252
0.139575
0.142492
0.142051
0.139483
0.135479
0.130344
0.124629
0.119742
0.132306
0.141848
0.149205
0.151179
0.14998
0.146834
0.14239
0.136966
0.131164
0.126231
0.145512
0.153668
0.159759
0.160617
0.158567
0.154784
0.149865
0.144116
0.138125
0.132983
0.160131
0.166393
0.17098
0.170592
0.167633
0.163188
0.157789
0.151708
0.145483
0.140074
0.17565
0.17972
0.182585
0.180873
0.176984
0.171883
0.166029
0.159649
0.153206
0.147527
0.191552
0.193263
0.194272
0.191216
0.186421
0.180709
0.17446
0.167852
0.161256
0.155344
0.207303
0.206605
0.205729
0.201375
0.195741
0.189497
0.182947
0.176215
0.169563
0.16349
0.222365
0.219326
0.216647
0.211106
0.204743
0.198077
0.191343
0.184616
0.178034
0.171899
0.23619
0.231027
0.226734
0.220172
0.213226
0.206275
0.19949
0.192913
0.186547
0.180461
0.248254
0.241357
0.23573
0.228364
0.221009
0.213922
0.207227
0.200941
0.194941
0.189018
0.25841
0.25009
0.243431
0.235505
0.227935
0.220873
0.214403
0.208534
0.203032
0.1974
0.266361
0.25702
0.249682
0.241465
0.233883
0.227005
0.220888
0.215537
0.210638
0.205433
0.271902
0.262003
0.254373
0.246148
0.23876
0.232225
0.226574
0.221824
0.217613
0.212961
0.274937
0.264968
0.257445
0.249499
0.242511
0.236466
0.231387
0.227303
0.223839
0.219846
0.275461
0.265907
0.25889
0.251506
0.245114
0.2397
0.235281
0.231911
0.229232
0.225981
0.273553
0.264877
0.258748
0.252197
0.246586
0.241928
0.238246
0.235617
0.233734
0.231282
0.269365
0.261987
0.257103
0.251634
0.246971
0.24318
0.240298
0.238424
0.23732
0.235686
0.263113
0.257394
0.254072
0.249911
0.246344
0.243517
0.241492
0.240374
0.23999
0.239126
0.255062
0.251291
0.2498
0.247143
0.244797
0.243013
0.24189
0.241497
0.241683
0.241574
0.245496
0.243889
0.244451
0.243462
0.242441
0.241765
0.241589
0.241931
0.242602
0.243599
0.234673
0.235411
0.238199
0.239008
0.239397
0.239874
0.240669
0.24183
0.243238
0.24498
0.222979
0.226118
0.231231
0.233926
0.235784
0.237437
0.239199
0.24117
0.243273
0.2456
0.210761
0.216265
0.223726
0.228357
0.231714
0.234551
0.237261
0.240009
0.242753
0.245502
0.198334
0.206091
0.215853
0.222429
0.227298
0.231315
0.234954
0.238452
0.241823
0.244998
0.185986
0.195809
0.207767
0.21626
0.222634
0.22782
0.232372
0.236595
0.240571
0.244215
0.17397
0.185605
0.199602
0.209953
0.217805
0.224141
0.229584
0.234503
0.239052
0.243161
0.162511
0.175611
0.191472
0.203587
0.212876
0.220332
0.22664
0.232228
0.237311
0.241862
0.15195
0.165862
0.183469
0.197228
0.207897
0.216434
0.223576
0.229804
0.235391
0.240363
0.142271
0.156703
0.175637
0.190921
0.2029
0.21247
0.220414
0.227257
0.233323
0.238705
0.133658
0.148313
0.168008
0.184721
0.1979
0.208449
0.217163
0.224598
0.231121
0.236905
0.125806
0.140524
0.16081
0.178609
0.19292
0.204383
0.213828
0.221829
0.228783
0.234952
0.118831
0.133388
0.153995
0.172683
0.187981
0.200267
0.210401
0.218938
0.226292
0.232811
0.112803
0.126978
0.147581
0.166927
0.183033
0.196106
0.206862
0.215902
0.223628
0.23044
0.10771
0.121325
0.141595
0.161341
0.178102
0.191842
0.203175
0.212694
0.220778
0.22781
0.103515
0.116435
0.136068
0.155939
0.173184
0.187479
0.19932
0.209267
0.217705
0.224948
0.100173
0.112302
0.131026
0.150744
0.16828
0.183011
0.195288
0.205618
0.214371
0.22195
0.0976298
0.108908
0.126492
0.145785
0.163406
0.178438
0.191067
0.201731
0.210749
0.218569
0.0958254
0.106224
0.122486
0.141095
0.158585
0.173763
0.186636
0.197557
0.206757
0.214703
0.0946949
0.104212
0.119023
0.136713
0.153857
0.169019
0.182011
0.193124
0.202503
0.210261
0.0941662
0.102821
0.11611
0.132679
0.14927
0.164248
0.177199
0.188289
0.197698
0.204813
0.0941208
0.101976
0.113737
0.129033
0.144882
0.159522
0.17232
0.183266
0.19259
0.200021
0.0945345
0.101636
0.111899
0.125812
0.14076
0.154937
0.167546
0.178423
0.187796
0.195677
0.0953511
0.101742
0.110576
0.123046
0.136967
0.150571
0.162945
0.173788
0.183231
0.19134
0.096501
0.102229
0.109737
0.120754
0.133549
0.146465
0.15851
0.16925
0.178689
0.186879
0.0979188
0.103032
0.109342
0.118938
0.130539
0.142653
0.15425
0.164781
0.174132
0.182333
0.0995467
0.104091
0.109342
0.117591
0.127966
0.139182
0.150216
0.160438
0.169623
0.177772
0.101335
0.105352
0.109688
0.116696
0.125854
0.136108
0.146485
0.156303
0.165246
0.173273
0.103241
0.106767
0.110328
0.116228
0.124224
0.133489
0.143135
0.152467
0.161092
0.168929
0.105244
0.108306
0.11122
0.116158
0.123079
0.131366
0.140238
0.149014
0.157254
0.164841
)
;

boundaryField
{
    inlet
    {
        type            zeroGradient;
    }
    outlet
    {
        type            fixedValue;
        value           uniform 0;
    }
    cylinder
    {
        type            zeroGradient;
    }
    top
    {
        type            symmetryPlane;
    }
    bottom
    {
        type            symmetryPlane;
    }
    defaultFaces
    {
        type            empty;
    }
}


// ************************************************************************* //
