/*--------------------------------*- C++ -*----------------------------------*\
  =========                 |
  \\      /  F ield         | OpenFOAM: The Open Source CFD Toolbox
   \\    /   O peration     | Website:  https://openfoam.org
    \\  /    A nd           | Version:  7
     \\/     M anipulation  |
\*---------------------------------------------------------------------------*/
FoamFile
{
    version     2.0;
    format      ascii;
    class       volVectorField;
    location    "13.4";
    object      U;
}
// * * * * * * * * * * * * * * * * * * * * * * * * * * * * * * * * * * * * * //

dimensions      [0 1 -1 0 0 0 0];

internalField   nonuniform List<vector> 
2000
(
(0.00422927 -0.00081581 -4.91753e-22)
(0.0247448 0.0483141 0)
(0.0635499 0.121448 0)
(0.106451 0.202572 -3.36047e-21)
(0.145835 0.278574 1.50652e-21)
(0.176211 0.341053 4.50504e-22)
(0.195703 0.386916 -2.68947e-21)
(0.205258 0.416941 0)
(0.206718 0.434021 0)
(0.204533 0.4414 0)
(0.00438913 -0.00663338 0)
(0.0192461 0.0314581 -2.43602e-21)
(0.0484983 0.0955814 2.24592e-21)
(0.0823989 0.171519 4.58262e-21)
(0.115849 0.247522 0)
(0.14399 0.314564 5.4583e-21)
(0.164155 0.367685 -5.07551e-21)
(0.176074 0.405713 0)
(0.180467 0.430084 1.36643e-20)
(0.180786 0.443546 -2.70723e-20)
(0.00537822 -0.0114784 0)
(0.0163746 0.016704 2.05614e-20)
(0.0376084 0.0716133 0)
(0.0629095 0.140653 1.90725e-20)
(0.0894303 0.213897 0)
(0.113542 0.282751 -1.92718e-20)
(0.132538 0.341233 0)
(0.145389 0.386514 2.38799e-20)
(0.151908 0.418415 -2.23653e-20)
(0.15413 0.438865 -2.44797e-20)
(0.00690624 -0.0153712 -5.3378e-21)
(0.0153685 0.00416262 -1.01202e-20)
(0.0300442 0.0500832 -4.95194e-21)
(0.0476623 0.1112 -9.13962e-21)
(0.0670789 0.179408 -9.17489e-21)
(0.0860022 0.247228 9.17545e-21)
(0.102225 0.308545 9.38921e-21)
(0.114457 0.359459 -1.85649e-21)
(0.122004 0.398341 2.10462e-20)
(0.125107 0.425991 2.44792e-20)
(0.00866325 -0.0183021 -5.5089e-21)
(0.0154211 -0.00615675 -1.12265e-20)
(0.0247631 0.0312181 -2.16806e-20)
(0.0358488 0.0839463 9.80072e-21)
(0.0486604 0.145495 0)
(0.0620103 0.209752 0)
(0.0744031 0.271145 -2.04826e-20)
(0.0846733 0.325391 -2.1464e-20)
(0.0920747 0.369884 2.0873e-20)
(0.0947185 0.403956 6.91166e-20)
(0.0103157 -0.0202407 5.99084e-21)
(0.0157367 -0.014322 6.02279e-21)
(0.02068 0.0149907 -3.39073e-20)
(0.0263958 0.0592179 5.22589e-20)
(0.0335205 0.113108 -9.63922e-21)
(0.0416074 0.171853 0)
(0.0498094 0.230762 0)
(0.0572858 0.285739 1.01023e-19)
(0.0635845 0.33384 -1.02957e-19)
(0.0644447 0.3726 2.21511e-20)
(0.0115144 -0.0211449 5.1448e-20)
(0.0155995 -0.0204414 0)
(0.016835 0.0012352 4.45116e-20)
(0.0182423 0.0370195 -4.18284e-20)
(0.0207686 0.0827167 0)
(0.0243722 0.13462 2.03126e-20)
(0.0286594 0.188971 -5.85291e-20)
(0.0331673 0.242192 -8.07329e-20)
(0.0378741 0.291606 3.86412e-20)
(0.0360189 0.332508 4.18488e-20)
(0.0119194 -0.0209848 -1.05728e-19)
(0.0144484 -0.0246366 -1.27254e-20)
(0.0125368 -0.0102237 -2.45466e-20)
(0.0105902 0.0172547 -5.62935e-20)
(0.00961416 0.054518 -2.15558e-20)
(0.00972916 0.0987561 -2.18658e-20)
(0.0107978 0.147025 -1.56251e-21)
(0.0127375 0.196395 0)
(0.0159142 0.244799 0)
(0.011426 0.28533 -2.50887e-21)
(0.0112451 -0.0197814 5.42819e-20)
(0.0119452 -0.0270223 -5.3598e-20)
(0.007462 -0.019458 3.57848e-20)
(0.0030771 -3.65871e-05 8.02937e-20)
(-0.000352534 0.0287772 -2.17298e-20)
(-0.00270162 0.0648914 1.98532e-20)
(-0.00399452 0.106015 2.07299e-20)
(-0.00393759 0.149852 0)
(-0.00172249 0.194935 0)
(-0.00752459 0.232292 2.99184e-21)
(0.00932105 -0.0176341 -7.26811e-21)
(0.00803219 -0.0277005 6.73513e-20)
(0.00170053 -0.0263689 -1.26722e-20)
(-0.00415301 -0.0144885 0)
(-0.00899899 0.00616338 0)
(-0.0128416 0.0340574 4.40461e-20)
(-0.0157005 0.0673737 0)
(-0.0169938 0.104186 -4.58998e-20)
(-0.0150422 0.14292 -2.20693e-21)
(-0.0167932 0.17393 4.28517e-20)
(0.182491 0.440476 1.46227e-21)
(0.146709 0.415498 -1.48985e-21)
(0.114466 0.398229 -1.78622e-21)
(0.0914012 0.388809 -1.9229e-21)
(0.06543 0.383769 -2.08385e-21)
(0.0491566 0.381403 -4.77113e-24)
(0.0255944 0.382219 1.06282e-21)
(0.0156491 0.3881 3.33481e-21)
(-0.00304706 0.396423 0)
(-0.0002665 0.413213 -2.28925e-21)
(0.168471 0.448661 4.29054e-21)
(0.138174 0.424502 -6.63836e-21)
(0.10887 0.406367 1.19507e-20)
(0.0878873 0.395941 1.92633e-21)
(0.0638962 0.390053 3.94593e-21)
(0.0494073 0.387078 6.21807e-21)
(0.0273436 0.38728 -2.16724e-21)
(0.0181031 0.392151 -2.21769e-21)
(-7.63827e-05 0.398976 4.39766e-21)
(0.00123153 0.412979 2.28392e-21)
(0.152582 0.453697 0)
(0.129122 0.432372 -5.973e-21)
(0.103285 0.41408 -3.4841e-21)
(0.0844175 0.402562 0)
(0.0623552 0.395766 -1.18854e-20)
(0.049603 0.392235 3.87429e-21)
(0.0289863 0.391904 4.0395e-21)
(0.020388 0.395931 1.26828e-20)
(0.00262691 0.401583 -4.38337e-21)
(0.00253861 0.413295 8.68844e-21)
(0.134721 0.454389 0)
(0.11936 0.438405 6.02557e-21)
(0.0975886 0.421036 0)
(0.0809149 0.408555 1.47866e-20)
(0.0607615 0.400879 -1.48599e-20)
(0.0496934 0.39685 -8.00797e-21)
(0.0304858 0.396096 -1.91551e-22)
(0.0225104 0.399492 -1.24646e-20)
(0.00511223 0.404263 -2.08462e-21)
(0.00369465 0.414169 -1.07563e-20)
(0.114859 0.449841 5.54541e-21)
(0.10892 0.442865 -1.38898e-20)
(0.0918854 0.427605 1.25443e-21)
(0.0774422 0.414138 -1.3571e-20)
(0.0591385 0.405541 0)
(0.0496607 0.401016 -7.81633e-21)
(0.0318071 0.399923 -1.63831e-22)
(0.024411 0.402837 1.62101e-20)
(0.0073164 0.40694 2.05161e-21)
(0.00468802 0.415407 -2.05954e-21)
(0.0933856 0.438304 -3.40434e-20)
(0.097491 0.443873 2.57161e-20)
(0.0857487 0.432562 1.32614e-20)
(0.073791 0.418865 -1.32471e-20)
(0.057391 0.409594 -7.15744e-21)
(0.0494311 0.404593 0)
(0.0329297 0.403288 -1.54226e-20)
(0.0261988 0.405996 7.66136e-21)
(0.00944179 0.409802 7.89527e-21)
(0.00561831 0.417268 7.89404e-21)
(0.0706683 0.420793 -4.22734e-21)
(0.0858733 0.444179 0)
(0.079837 0.437553 0)
(0.0703718 0.423537 0)
(0.0557708 0.413512 -7.29043e-21)
(0.0491346 0.407973 1.44222e-20)
(0.0338109 0.406412 1.52074e-20)
(0.0275594 0.408852 -2.28313e-20)
(0.0110502 0.412379 3.85001e-21)
(0.00631842 0.419001 -1.16334e-20)
(0.0475711 0.392948 2.29795e-20)
(0.0724996 0.43748 2.32836e-20)
(0.072543 0.438668 -2.30482e-20)
(0.0663757 0.426694 2.73193e-20)
(0.0537589 0.416487 -3.39151e-20)
(0.0484478 0.410453 0)
(0.034538 0.408931 -7.23452e-21)
(0.0292493 0.411732 1.77216e-22)
(0.0131872 0.415684 -7.3327e-21)
(0.00720083 0.422085 -7.32792e-21)
(0.025534 0.365863 -1.93944e-20)
(0.0614485 0.435507 0)
(0.066683 0.441938 -2.83962e-20)
(0.063399 0.430916 5.19467e-20)
(0.0526001 0.420251 -1.96119e-20)
(0.0481731 0.413637 -3.46536e-21)
(0.0347752 0.411527 7.21903e-21)
(0.0293752 0.413736 5.09772e-23)
(0.0134947 0.417337 1.07834e-20)
(0.00740504 0.423136 1.07632e-20)
(0.00278896 0.315435 -1.9235e-20)
(0.0442442 0.41514 1.8681e-20)
(0.0569349 0.436786 2.9078e-21)
(0.058539 0.431756 0)
(0.0497008 0.421392 0)
(0.0467381 0.414496 3.35465e-21)
(0.035721 0.413277 1.35742e-20)
(0.0325535 0.417247 -1.33389e-20)
(0.0172502 0.422608 -3.35668e-21)
(0.00877739 0.429325 3.30314e-21)
(-0.0243672 0.289767 0)
(0.0292359 0.414086 0)
(0.0426716 0.442038 0)
(0.0531949 0.442519 0)
(0.0519625 0.434172 0)
(0.0483566 0.425524 0)
(0.0304548 0.41797 0)
(0.0203906 0.415178 0)
(0.00657647 0.416431 0)
(0.00567293 0.420386 0)
(-0.0403263 0.252388 0)
(0.010647 0.374783 0)
(0.024472 0.420328 0)
(0.0380964 0.427004 0)
(0.0345768 0.420903 0)
(0.0395377 0.423623 0)
(0.0387264 0.432549 0)
(0.0402588 0.441407 0)
(0.023443 0.45172 0)
(0.0115072 0.461805 0)
(0.00483711 0.290064 0)
(0.00463391 0.346715 0)
(0.0131398 0.402404 0)
(0.0416146 0.433429 0)
(0.0455085 0.439997 0)
(0.0376811 0.435807 0)
(0.017168 0.432201 0)
(0.0107424 0.43228 0)
(-0.00153364 0.431424 0)
(0.00165351 0.431913 0)
(0.0885503 0.36372 0)
(0.0467245 0.36192 0)
(0.0213321 0.37594 0)
(0.0249016 0.39225 0)
(0.0330554 0.413922 0)
(0.0501644 0.4366 0)
(0.0476779 0.450829 0)
(0.0430151 0.465419 0)
(0.0242372 0.474726 0)
(0.0108493 0.478771 0)
(0.168897 0.43375 0)
(0.121201 0.423442 0)
(0.0889329 0.424315 0)
(0.075355 0.425776 0)
(0.0551343 0.425805 0)
(0.0448037 0.432905 0)
(0.031077 0.440101 0)
(0.026939 0.446999 0)
(0.0168133 0.451541 0)
(0.00987115 0.453962 0)
(0.226393 0.467069 0)
(0.186039 0.454507 0)
(0.137004 0.429069 0)
(0.110458 0.419371 0)
(0.0944113 0.429622 0)
(0.0887517 0.449977 0)
(0.0732277 0.471772 0)
(0.0602261 0.491599 0)
(0.0392919 0.506847 0)
(0.0183911 0.518203 0)
(0.258619 0.488022 0)
(0.251223 0.515401 0)
(0.220687 0.507511 0)
(0.178769 0.480378 0)
(0.130827 0.459562 0)
(0.0993635 0.455757 0)
(0.0707872 0.461466 0)
(0.0528284 0.471514 0)
(0.0304715 0.483341 0)
(0.0146152 0.498064 0)
(0.262376 0.453324 0)
(0.261361 0.490173 0)
(0.245077 0.500435 0)
(0.225819 0.500928 0)
(0.191369 0.501258 0)
(0.160032 0.511306 0)
(0.122791 0.526495 0)
(0.0921188 0.542712 0)
(0.052581 0.557883 0)
(0.0198333 0.575812 0)
(0.271352 0.454556 0)
(0.299693 0.536894 0)
(0.284338 0.553762 0)
(0.255387 0.541917 0)
(0.211157 0.524367 0)
(0.170508 0.517915 0)
(0.126436 0.522363 0)
(0.0915807 0.533646 0)
(0.0518397 0.545992 0)
(0.0185647 0.559037 0)
(0.21475 0.325324 0)
(0.277591 0.461876 0)
(0.296952 0.538829 0)
(0.293359 0.574485 0)
(0.263665 0.588732 0)
(0.226402 0.598922 0)
(0.177155 0.611513 0)
(0.129981 0.626639 0)
(0.0765225 0.641573 0)
(0.0273121 0.654985 0)
(-0.0447507 0.160531 2.13332e-20)
(-0.000304004 0.202819 -2.08651e-20)
(0.0820774 0.294951 2.56351e-21)
(0.159341 0.378382 0)
(0.213168 0.434609 0)
(0.243286 0.448035 1.33132e-21)
(0.252678 0.443364 -3.54755e-21)
(0.240823 0.389005 3.48957e-21)
(0.219935 0.349065 2.11702e-22)
(0.163584 0.213922 -2.0767e-22)
(-0.0214488 0.121005 -2.25723e-20)
(0.0385811 0.203082 0)
(0.119242 0.312473 1.55667e-20)
(0.183349 0.39253 -3.264e-20)
(0.222855 0.435606 1.78494e-20)
(0.242137 0.436559 -1.3409e-21)
(0.241627 0.417619 1.94863e-21)
(0.223637 0.354051 2.42101e-21)
(0.196486 0.304991 -8.48094e-23)
(0.143393 0.171161 -2.32975e-22)
(0.0101068 0.10815 2.74066e-20)
(0.0823855 0.225861 -1.95497e-20)
(0.152181 0.336101 1.93717e-20)
(0.201537 0.402949 -1.3791e-20)
(0.228398 0.43 1.04856e-20)
(0.237762 0.418239 0)
(0.228775 0.386553 -1.95296e-21)
(0.205333 0.315665 -7.91474e-23)
(0.17235 0.258583 -8.08825e-22)
(0.122966 0.12878 3.92175e-23)
(0.0498789 0.128289 -4.82688e-21)
(0.125921 0.260291 0)
(0.180478 0.357744 0)
(0.214298 0.406819 0)
(0.22894 0.417577 7.92249e-21)
(0.228834 0.393502 -5.13499e-21)
(0.212133 0.350065 2.2214e-22)
(0.183923 0.27329 -9.47606e-22)
(0.147494 0.210781 -1.7141e-22)
(0.102972 0.0877664 2.59136e-22)
(0.100363 0.172132 1.47156e-21)
(0.165216 0.2957 -1.41241e-20)
(0.201678 0.372694 -7.11397e-21)
(0.220636 0.402607 7.10885e-21)
(0.224507 0.397792 -2.74877e-21)
(0.215973 0.362288 0)
(0.19277 0.308754 -1.73305e-21)
(0.16089 0.228127 2.13654e-21)
(0.122961 0.162821 -9.43504e-22)
(0.0840507 0.0491818 -9.00746e-23)
(0.151684 0.223303 -3.32727e-20)
(0.195848 0.324289 5.24038e-21)
(0.214887 0.378203 1.2479e-21)
(0.221037 0.389715 6.50282e-21)
(0.215598 0.370805 0)
(0.199632 0.325205 0)
(0.171139 0.263568 0)
(0.136848 0.181296 1.05351e-21)
(0.0993177 0.115839 0)
(0.0667192 0.0140783 0)
(0.195808 0.269359 0)
(0.216729 0.341978 1.06409e-20)
(0.220582 0.373335 -7.04044e-21)
(0.216154 0.368361 -4.91311e-21)
(0.202763 0.337165 4.93784e-21)
(0.180457 0.283085 1.63839e-21)
(0.148025 0.215645 -1.81237e-21)
(0.11273 0.134093 -3.7119e-21)
(0.0771208 0.0709018 3.53665e-22)
(0.0491535 -0.0165905 1.48757e-22)
(0.228197 0.303377 0)
(0.228383 0.347353 -3.60476e-21)
(0.219772 0.358424 -1.38128e-21)
(0.206793 0.339287 0)
(0.1867 0.297767 8.80949e-22)
(0.159214 0.237067 -2.6816e-21)
(0.124275 0.166319 1.97841e-21)
(0.0894466 0.0878904 4.13037e-22)
(0.056933 0.0292926 -3.0966e-22)
(0.0368937 -0.0425417 -7.81892e-23)
(0.247934 0.322386 3.25818e-21)
(0.232148 0.340794 2.83125e-21)
(0.213704 0.334585 -8.5909e-22)
(0.193806 0.303589 5.25174e-22)
(0.168168 0.253765 9.77384e-22)
(0.136755 0.188492 1.17884e-21)
(0.100783 0.117006 -3.00181e-22)
(0.0678891 0.0440237 -2.17093e-22)
(0.0396362 -0.0078728 3.10671e-22)
(0.0265982 -0.0641516 7.09904e-24)
(0.256646 0.32667 -7.0503e-22)
(0.229642 0.323815 7.21164e-22)
(0.203596 0.303311 -6.18579e-22)
(0.178073 0.262588 -5.24311e-22)
(0.148007 0.206513 3.87705e-22)
(0.113986 0.13883 -7.62004e-22)
(0.0784155 0.0691124 4.24428e-22)
(0.0487226 0.0035474 9.20281e-23)
(0.0257449 -0.0401465 0)
(0.0182064 -0.0820782 -7.11243e-24)
(0.25696 0.318539 6.34119e-22)
(0.222378 0.29832 -6.48256e-22)
(0.190573 0.266213 -4.99648e-22)
(0.160525 0.217754 -4.28567e-22)
(0.12712 0.157487 -3.53932e-22)
(0.0918301 0.0895708 4.44012e-23)
(0.0579523 0.0239456 1.42427e-22)
(0.0324088 -0.0326465 3.08848e-22)
(0.0151595 -0.0672834 0)
(0.0119359 -0.096853 -2.33815e-23)
(0.251285 0.30074 0)
(0.21163 0.266158 -2.04665e-21)
(0.175652 0.224925 3.4667e-21)
(0.142077 0.170638 4.29158e-22)
(0.106427 0.108186 6.71509e-22)
(0.071141 0.0421195 8.90504e-22)
(0.0400315 -0.0174158 -2.58071e-22)
(0.0192507 -0.0640387 -1.91846e-22)
(0.00758493 -0.089509 2.40325e-22)
(0.00755044 -0.109103 2.33224e-23)
(0.241363 0.275565 0)
(0.198477 0.229073 -1.94239e-21)
(0.159696 0.18108 -9.0622e-22)
(0.123565 0.122771 0)
(0.0867512 0.0600181 -1.86723e-21)
(0.0525374 -0.00231895 6.25156e-22)
(0.0250878 -0.0542447 4.98957e-22)
(0.00932646 -0.0905241 1.10292e-21)
(0.00259683 -0.107433 -2.3954e-22)
(0.00465509 -0.119525 1.18505e-22)
(0.228407 0.244883 0)
(0.183887 0.188756 1.95818e-21)
(0.14348 0.136209 0)
(0.105736 0.0755328 2.54543e-21)
(0.0686801 0.0142167 -2.55889e-21)
(0.0364444 -0.0428237 -9.58607e-22)
(0.0133194 -0.0861736 5.72709e-23)
(0.00248035 -0.112358 -1.07316e-21)
(-0.000303445 -0.121915 -2.09602e-22)
(0.00284265 -0.128797 -1.88116e-22)
(0.213411 0.210376 1.63205e-20)
(0.168808 0.146818 -6.26417e-21)
(0.1278 0.0916594 -5.24102e-22)
(0.0891256 0.0301104 -2.74883e-21)
(0.052593 -0.0282451 0)
(0.0231728 -0.0788482 -9.11489e-22)
(0.00469253 -0.1132 1.70639e-22)
(-0.00162905 -0.130121 1.40513e-21)
(-0.00163629 -0.133916 6.80767e-23)
(0.0017468 -0.137511 -6.80126e-23)
(0.197415 0.173694 9.74419e-22)
(0.154162 0.104701 9.37145e-21)
(0.113257 0.0485591 2.60523e-21)
(0.0739936 -0.0125517 -2.60424e-21)
(0.0388711 -0.0667568 -1.03398e-21)
(0.0128306 -0.110145 0)
(-0.000932755 -0.135642 -1.51697e-21)
(-0.00380276 -0.144615 8.19632e-22)
(-0.00203707 -0.14437 5.15795e-22)
(0.00107766 -0.14614 1.23229e-22)
(0.18147 0.136463 -2.07072e-21)
(0.140506 0.0636559 0)
(0.100011 0.00779564 0)
(0.0607804 -0.0518445 0)
(0.0277518 -0.100954 -8.95663e-22)
(0.00523633 -0.136761 1.92742e-21)
(-0.00442941 -0.153979 1.49589e-21)
(-0.00461846 -0.15669 -1.91189e-21)
(-0.00195305 -0.154182 1.27609e-22)
(0.000640828 -0.155079 -2.48297e-22)
(0.165783 0.10044 -4.50367e-21)
(0.127633 0.0246754 6.25101e-21)
(0.0883251 -0.0300254 -6.19475e-21)
(0.0498917 -0.0873716 4.28522e-21)
(0.0191668 -0.130683 -5.23765e-21)
(0.000161802 -0.158849 0)
(-0.00631432 -0.168964 -7.66839e-22)
(-0.0043756 -0.167385 7.88982e-24)
(-0.00165142 -0.163992 -3.75813e-22)
(0.000322647 -0.164569 -1.19712e-22)
(0.149923 0.0678149 -2.21761e-21)
(0.115177 -0.0118301 0)
(0.0783689 -0.0648008 -5.77773e-21)
(0.04142 -0.119022 9.28089e-21)
(0.013134 -0.156043 -3.22064e-21)
(-0.0029065 -0.176873 -4.47909e-22)
(-0.00678484 -0.181353 7.651e-22)
(-0.00365925 -0.177464 1.07971e-22)
(-0.00124441 -0.174251 7.21794e-22)
(7.42403e-05 -0.174758 2.379e-22)
(0.1388 0.0407778 -8.92754e-21)
(0.104913 -0.0457444 8.68481e-21)
(0.0697155 -0.0967087 7.43794e-22)
(0.0345362 -0.146958 0)
(0.00910905 -0.177179 0)
(-0.00475147 -0.191305 4.60254e-22)
(-0.00664654 -0.191945 1.38022e-21)
(-0.00301042 -0.187604 -1.35568e-21)
(-0.00102852 -0.185214 -1.22486e-22)
(-7.17481e-05 -0.185654 1.19811e-22)
(0.143923 -0.0116466 0)
(0.0910206 -0.115986 0)
(0.0480505 -0.164522 0)
(0.0133522 -0.205256 0)
(-0.00247052 -0.218544 0)
(-0.00682838 -0.218694 0)
(-0.00398665 -0.214863 0)
(-0.000522358 -0.213193 0)
(-0.000228285 -0.213545 0)
(-0.000251248 -0.21326 0)
(0.0456458 -0.239602 0)
(-0.00672951 -0.309926 0)
(0.0096867 -0.287727 0)
(0.00484751 -0.298171 0)
(0.00671446 -0.280191 0)
(0.000329682 -0.27716 0)
(-0.0017088 -0.271714 0)
(-0.00148862 -0.273067 0)
(-0.000213998 -0.272578 0)
(-2.73982e-05 -0.27135 0)
(0.0664737 -0.30686 0)
(0.0383678 -0.336507 0)
(0.0422872 -0.304862 0)
(0.0164745 -0.331391 0)
(0.0143022 -0.318891 0)
(-1.36528e-05 -0.329694 0)
(-0.000129663 -0.322358 0)
(-0.000146078 -0.324136 0)
(0.00159124 -0.322371 0)
(1.375e-05 -0.322368 0)
(0.0368958 -0.351761 0)
(0.0241472 -0.381771 0)
(0.0189298 -0.367803 0)
(0.00559684 -0.391454 0)
(0.00960422 -0.376247 0)
(-0.00193531 -0.387855 0)
(0.00449115 -0.375605 0)
(0.000347462 -0.380988 0)
(0.00219572 -0.376898 0)
(-0.000246217 -0.378136 0)
(0.036666 -0.410108 0)
(0.0234251 -0.447794 0)
(0.0164725 -0.432612 0)
(0.0103152 -0.449876 0)
(0.0100483 -0.438292 0)
(0.00155826 -0.448102 0)
(0.00625817 -0.438633 0)
(-0.000553311 -0.447004 0)
(0.00369567 -0.439533 0)
(-0.000760322 -0.443297 0)
(0.0237119 -0.488022 0)
(0.0152049 -0.522664 0)
(0.0152512 -0.500744 0)
(0.00841561 -0.52203 0)
(0.00642337 -0.50911 0)
(0.00269145 -0.521154 0)
(0.00468451 -0.513301 0)
(0.000393098 -0.520122 0)
(0.00395953 -0.512852 0)
(-0.00152466 -0.518101 0)
(0.0193691 -0.578323 0)
(0.0133264 -0.611797 0)
(0.0102999 -0.591207 0)
(0.00591668 -0.614653 0)
(0.00571574 -0.597489 0)
(0.00270379 -0.614519 0)
(0.00329532 -0.602686 0)
(0.00100775 -0.612224 0)
(0.00253987 -0.603932 0)
(-0.00105864 -0.608989 0)
(0.0141663 -0.704199 0)
(0.0101089 -0.735135 0)
(0.00837519 -0.714441 0)
(0.00442818 -0.735933 0)
(0.00372611 -0.720515 0)
(0.00217786 -0.737276 0)
(0.0024772 -0.724283 0)
(0.00106814 -0.736104 0)
(0.00197626 -0.724586 0)
(-0.000642796 -0.732252 0)
(0.00836914 -0.859767 0)
(0.00561042 -0.878757 0)
(0.00462556 -0.867813 0)
(0.00267872 -0.882777 0)
(0.00261772 -0.8727 0)
(0.00127912 -0.884385 0)
(0.00135945 -0.87675 0)
(0.000517528 -0.884762 0)
(0.000186982 -0.876167 0)
(-0.000533509 -0.88383 0)
(0.00225408 -0.97774 0)
(0.00168867 -0.986303 0)
(0.00152797 -0.984793 0)
(0.00102387 -0.991462 0)
(0.000925083 -0.989201 0)
(0.00015107 -0.994523 0)
(-0.000162499 -0.991337 0)
(-0.000130455 -0.993818 0)
(-0.00012801 -0.989593 0)
(-0.000287714 -0.993348 0)
(0.132215 -0.0411589 1.26299e-20)
(0.0526872 -0.249907 -1.27661e-20)
(0.0626515 -0.320018 1.68545e-21)
(0.0368625 -0.364687 0)
(0.0406496 -0.42591 0)
(0.0250981 -0.505435 1.76998e-21)
(0.0218293 -0.596677 -7.40656e-21)
(0.0149629 -0.719327 7.39403e-21)
(0.00914223 -0.868433 1.94629e-21)
(0.00284906 -0.977455 -1.94199e-21)
(0.127336 -0.059683 -1.58127e-20)
(0.0552878 -0.258018 0)
(0.0601391 -0.324524 1.1041e-20)
(0.0372878 -0.368323 -2.51194e-20)
(0.0422453 -0.430564 1.58618e-20)
(0.025818 -0.51069 -1.59302e-21)
(0.0229257 -0.601969 3.5028e-21)
(0.0153796 -0.723678 7.20488e-21)
(0.00946533 -0.869391 1.98466e-21)
(0.00308798 -0.976016 1.9943e-21)
(0.1217 -0.0764684 1.96097e-20)
(0.057874 -0.270832 -1.30233e-20)
(0.0579832 -0.330968 1.28985e-20)
(0.0385876 -0.372335 -1.32301e-20)
(0.0439696 -0.434927 9.83145e-21)
(0.0268541 -0.514993 0)
(0.0241972 -0.606113 -3.51157e-21)
(0.0161626 -0.726896 2.11407e-22)
(0.00997224 -0.868689 -3.74467e-21)
(0.00326171 -0.973098 -3.84366e-21)
(0.116627 -0.0897985 -3.18285e-21)
(0.0602515 -0.280663 0)
(0.0564073 -0.336953 0)
(0.0408579 -0.376679 0)
(0.0459441 -0.439213 1.06717e-20)
(0.0283093 -0.518713 -7.07712e-21)
(0.0256845 -0.609853 -8.64759e-24)
(0.0173321 -0.729634 -4.10476e-21)
(0.0107437 -0.86818 -2.14084e-21)
(0.00345698 -0.970104 -2.32772e-21)
(0.113288 -0.100466 -7.97357e-22)
(0.0625695 -0.286244 -1.00035e-20)
(0.0552862 -0.340929 -6.72327e-21)
(0.0438904 -0.380557 6.71966e-21)
(0.0481925 -0.442885 -3.54712e-21)
(0.0302015 -0.521689 0)
(0.0273673 -0.613112 -3.92111e-21)
(0.0187829 -0.73198 8.49031e-21)
(0.0117407 -0.868143 -4.36023e-21)
(0.00373307 -0.967602 4.52198e-21)
(0.111949 -0.10795 -2.8458e-20)
(0.0651001 -0.289134 3.61545e-21)
(0.0548098 -0.34325 -1.43885e-22)
(0.0474917 -0.38361 6.95864e-21)
(0.0507071 -0.445465 0)
(0.0325182 -0.523618 0)
(0.029214 -0.615553 0)
(0.0204137 -0.733666 4.5545e-21)
(0.012884 -0.868095 0)
(0.00409517 -0.965432 0)
(0.112669 -0.111674 0)
(0.0680284 -0.290006 1.04648e-20)
(0.0553398 -0.344684 -6.98321e-21)
(0.0516143 -0.385958 -7.59724e-21)
(0.0535287 -0.446777 7.6369e-21)
(0.0352569 -0.524321 4.26077e-21)
(0.0312176 -0.616952 -4.2736e-21)
(0.0221756 -0.734454 -1.63254e-20)
(0.0140989 -0.867561 1.15316e-21)
(0.00451122 -0.963225 -4.02463e-21)
(0.115785 -0.111331 0)
(0.0715348 -0.28856 -3.48863e-21)
(0.0571558 -0.345455 -1.84031e-21)
(0.0562929 -0.387709 0)
(0.0567462 -0.446807 2.10025e-21)
(0.0384314 -0.523734 -6.43073e-21)
(0.0334069 -0.617204 6.91062e-21)
(0.0240863 -0.734188 2.40659e-21)
(0.0153806 -0.866202 -2.66739e-21)
(0.00497416 -0.960606 5.33237e-21)
(0.121846 -0.106762 4.02429e-21)
(0.075907 -0.284392 3.65729e-21)
(0.0604171 -0.345357 -9.03254e-22)
(0.0615736 -0.388757 1.02268e-21)
(0.0604492 -0.445547 2.08285e-21)
(0.0420566 -0.521858 3.37443e-21)
(0.0358192 -0.616303 -1.24485e-21)
(0.0261724 -0.73291 -1.32218e-21)
(0.0167318 -0.864036 2.67623e-21)
(0.00546791 -0.957497 1.46598e-21)
(0.131347 -0.0979678 -9.48812e-22)
(0.0815572 -0.277212 9.53498e-22)
(0.0652163 -0.34409 -9.49095e-22)
(0.0675058 -0.388866 -1.02145e-21)
(0.0647014 -0.442947 1.14515e-21)
(0.0461436 -0.518679 -2.31598e-21)
(0.0385043 -0.614176 1.8999e-21)
(0.0284852 -0.730568 6.63372e-22)
(0.0182171 -0.860982 0)
(0.0060332 -0.953811 -1.46917e-21)
(0.144499 -0.0850161 9.79324e-22)
(0.0890416 -0.26669 -9.8403e-22)
(0.0716079 -0.341376 -1.01955e-21)
(0.0741588 -0.387816 -1.10889e-21)
(0.0695332 -0.438969 -1.1989e-21)
(0.0506936 -0.514224 -6.27026e-23)
(0.0414916 -0.610842 6.80839e-22)
(0.0310142 -0.72732 2.14541e-21)
(0.0198258 -0.857286 0)
(0.00663778 -0.949747 -1.61521e-21)
(0.161076 -0.0681072 0)
(0.099006 -0.252423 -4.01289e-21)
(0.0796199 -0.336895 7.18439e-21)
(0.0816138 -0.38545 1.11086e-21)
(0.0749535 -0.433609 2.49709e-21)
(0.0557107 -0.508473 3.93451e-21)
(0.0448429 -0.606134 -1.36619e-21)
(0.0338142 -0.722952 -1.4523e-21)
(0.0216424 -0.852686 3.23371e-21)
(0.00735589 -0.945161 1.61136e-21)
(0.180487 -0.0476746 0)
(0.112098 -0.233892 -4.09924e-21)
(0.0892549 -0.330177 -2.1259e-21)
(0.0899326 -0.381732 0)
(0.0809616 -0.426988 -7.76323e-21)
(0.0611865 -0.501466 2.63484e-21)
(0.0485654 -0.600289 2.977e-21)
(0.0368094 -0.717756 9.38425e-21)
(0.023586 -0.847619 -3.22327e-21)
(0.00808342 -0.940343 7.04846e-21)
(0.201836 -0.0242793 0)
(0.128748 -0.210762 4.13397e-21)
(0.100537 -0.320642 0)
(0.0991128 -0.376636 1.02836e-20)
(0.0876116 -0.419136 -1.03359e-20)
(0.0671382 -0.493113 -5.88343e-21)
(0.0527751 -0.592952 -6.14651e-23)
(0.0401419 -0.711096 -9.64817e-21)
(0.0257907 -0.84141 -1.60062e-21)
(0.00896886 -0.934879 -8.76154e-21)
(0.224072 -0.00128817 4.04457e-20)
(0.148844 -0.183346 -1.41045e-20)
(0.113682 -0.307689 7.43696e-22)
(0.109083 -0.37015 -9.88911e-21)
(0.0949164 -0.410452 0)
(0.0735467 -0.483453 -6.15677e-21)
(0.0574265 -0.58446 -3.91982e-22)
(0.043626 -0.704012 1.31978e-20)
(0.0280395 -0.835069 1.82214e-21)
(0.00979023 -0.929308 -1.82859e-21)
(0.245866 0.0201131 3.27565e-21)
(0.172672 -0.152258 2.44384e-20)
(0.12932 -0.290727 1.03364e-20)
(0.119694 -0.361853 -1.03306e-20)
(0.103079 -0.400448 -6.00781e-21)
(0.0806356 -0.472056 0)
(0.062647 -0.57409 -1.36524e-20)
(0.0475627 -0.695004 6.80556e-21)
(0.0306964 -0.827081 7.24348e-21)
(0.0108496 -0.922794 7.88626e-21)
(0.266201 0.0409246 -5.95076e-21)
(0.19926 -0.118628 0)
(0.148518 -0.269289 0)
(0.130703 -0.351921 0)
(0.111892 -0.389616 -6.66869e-21)
(0.0880803 -0.460283 1.26554e-20)
(0.0681884 -0.563598 1.39321e-20)
(0.0514753 -0.686594 -2.17637e-20)
(0.0332464 -0.819801 3.92919e-21)
(0.0117366 -0.916468 -1.17027e-20)
(0.283947 0.059815 -1.46606e-20)
(0.22729 -0.084158 2.15441e-20)
(0.172206 -0.243094 -2.13643e-20)
(0.142144 -0.338347 2.48442e-20)
(0.121778 -0.376715 -3.11971e-20)
(0.0963745 -0.44626 0)
(0.0746471 -0.55005 -7.35188e-21)
(0.0562522 -0.674653 -3.22653e-22)
(0.0365139 -0.809691 -8.17959e-21)
(0.012987 -0.908678 -8.4123e-21)
(0.297857 0.0742981 -6.68134e-21)
(0.255212 -0.0501816 0)
(0.200218 -0.212878 -2.71936e-20)
(0.152617 -0.324019 4.99987e-20)
(0.131116 -0.365937 -1.91028e-20)
(0.104504 -0.434421 -3.60069e-21)
(0.0809783 -0.539317 7.33629e-21)
(0.060474 -0.666278 -4.14138e-22)
(0.0392904 -0.802269 1.18936e-20)
(0.0139304 -0.901745 1.24381e-20)
(0.306913 0.0843275 -2.8642e-20)
(0.281654 -0.0144751 2.733e-20)
(0.229767 -0.174092 3.0218e-21)
(0.165405 -0.299433 0)
(0.143528 -0.349343 0)
(0.114644 -0.416449 3.48611e-21)
(0.0893471 -0.520897 1.52432e-20)
(0.0666615 -0.649974 -1.47444e-20)
(0.0434604 -0.789348 -4.01823e-21)
(0.0153763 -0.892329 3.91337e-21)
(0.317226 0.124969 0)
(0.331614 0.0295663 0)
(0.258167 -0.128443 0)
(0.18703 -0.274543 0)
(0.156932 -0.339145 0)
(0.13486 -0.401233 0)
(0.10485 -0.506708 0)
(0.0765767 -0.637715 0)
(0.0503388 -0.774631 0)
(0.017942 -0.874855 0)
(0.367101 0.101104 0)
(0.382257 0.0371238 0)
(0.330409 -0.0681029 0)
(0.257194 -0.212801 0)
(0.193423 -0.310104 0)
(0.169137 -0.379192 0)
(0.138335 -0.47592 0)
(0.100347 -0.608569 0)
(0.0659486 -0.740144 0)
(0.0211485 -0.83335 0)
(0.389771 0.0957403 0)
(0.413192 0.0528496 0)
(0.390402 -0.0211391 0)
(0.337732 -0.140896 0)
(0.260157 -0.256271 0)
(0.213329 -0.347855 0)
(0.17583 -0.444784 0)
(0.131265 -0.573381 0)
(0.0867857 -0.698522 0)
(0.0297157 -0.788458 0)
(0.395846 0.0722354 0)
(0.423899 0.0439847 0)
(0.425538 4.88049e-05 0)
(0.4025 -0.0845024 0)
(0.341091 -0.189456 0)
(0.278455 -0.295646 0)
(0.224038 -0.403577 0)
(0.165565 -0.52743 0)
(0.106038 -0.642787 0)
(0.0402377 -0.714625 0)
(0.38924 0.0460967 0)
(0.416067 0.0251701 0)
(0.43027 -0.00236496 0)
(0.431172 -0.0554544 0)
(0.399827 -0.132085 0)
(0.345793 -0.22737 0)
(0.282448 -0.336394 0)
(0.205957 -0.454833 0)
(0.126475 -0.566336 0)
(0.039931 -0.637032 0)
(0.37776 0.021264 0)
(0.399734 0.00337427 0)
(0.415175 -0.0177262 0)
(0.424796 -0.0533459 0)
(0.415256 -0.10524 0)
(0.381538 -0.175981 0)
(0.327882 -0.26794 0)
(0.24661 -0.371505 0)
(0.153209 -0.467524 0)
(0.0517485 -0.529993 0)
(0.365252 0.00367564 0)
(0.38195 -0.0106756 0)
(0.392633 -0.0269104 0)
(0.399065 -0.0513622 0)
(0.394158 -0.0858525 0)
(0.370169 -0.131869 0)
(0.328479 -0.195225 0)
(0.256923 -0.273407 0)
(0.160042 -0.353328 0)
(0.0534293 -0.426875 0)
(0.3538 -0.0175695 0)
(0.368692 -0.0280906 0)
(0.372714 -0.0417806 0)
(0.376087 -0.0600815 0)
(0.36936 -0.0864025 0)
(0.348427 -0.117777 0)
(0.312757 -0.160698 0)
(0.2527 -0.216024 0)
(0.164572 -0.266998 0)
(0.0839507 -0.296817 0)
(0.378632 -0.0159453 0)
(0.388252 -0.0212564 0)
(0.366094 -0.0292226 0)
(0.357844 -0.0386732 0)
(0.330887 -0.0518306 0)
(0.296283 -0.067988 0)
(0.245811 -0.0891307 0)
(0.185859 -0.115881 0)
(0.0937212 -0.151532 0)
(0.00152379 -0.207866 0)
(0.671598 -0.0152131 0)
(0.663309 -0.0198312 0)
(0.63371 -0.025416 0)
(0.611231 -0.0319511 0)
(0.567541 -0.0400998 0)
(0.521055 -0.0511355 0)
(0.453277 -0.0645762 0)
(0.368805 -0.0828484 0)
(0.251055 -0.114256 0)
(0.170458 -0.170661 0)
(0.345701 0.122799 4.04532e-20)
(0.380721 0.103256 -3.93697e-20)
(0.393048 0.0957926 5.6951e-21)
(0.39263 0.0705037 0)
(0.382522 0.0470874 0)
(0.369688 0.0244871 6.84777e-21)
(0.357453 0.00721968 -2.87948e-20)
(0.349668 -0.0135589 2.82055e-20)
(0.393124 -0.0128556 7.25599e-21)
(0.685757 -0.0128154 -7.3984e-21)
(0.349136 0.120585 -4.43083e-20)
(0.376159 0.103269 0)
(0.384481 0.0947102 3.8201e-20)
(0.383194 0.0695069 -8.92174e-20)
(0.373741 0.0475736 5.79164e-20)
(0.36232 0.0258373 -6.30002e-21)
(0.351742 0.00869915 1.30176e-20)
(0.346941 -0.0119281 2.67341e-20)
(0.398285 -0.0115767 6.75344e-21)
(0.690961 -0.0117912 6.70209e-21)
(0.351083 0.119166 5.28026e-20)
(0.369807 0.103334 -4.04478e-20)
(0.373646 0.0932655 4.00828e-20)
(0.370691 0.0684653 -4.6787e-20)
(0.362269 0.0478463 3.44537e-20)
(0.35285 0.0268078 0)
(0.344596 0.00980254 -1.30494e-20)
(0.343656 -0.0105741 -8.49287e-23)
(0.40258 -0.0104172 -1.34423e-20)
(0.695825 -0.010783 -1.35544e-20)
(0.353146 0.11806 -8.77922e-21)
(0.366245 0.10352 0)
(0.36659 0.0921129 0)
(0.361494 0.067947 0)
(0.353285 0.048246 3.67635e-20)
(0.344908 0.02764 -2.46145e-20)
(0.33827 0.0106765 -2.11143e-22)
(0.340822 -0.00937685 -1.35445e-20)
(0.406464 -0.00941966 -6.76608e-21)
(0.70064 -0.00985471 -6.76542e-21)
(0.353951 0.117018 2.55799e-21)
(0.362776 0.103703 -2.71195e-20)
(0.360995 0.0913884 -2.17716e-20)
(0.3544 0.068095 2.17644e-20)
(0.346212 0.0489736 -1.199e-20)
(0.338341 0.0285721 0)
(0.332758 0.0115367 -1.30391e-20)
(0.338405 -0.00819368 2.6793e-20)
(0.41004 -0.00857387 -1.34028e-20)
(0.705249 -0.00903651 1.36617e-20)
(0.353354 0.11637 -7.13883e-20)
(0.357858 0.104069 7.21926e-21)
(0.354656 0.0910868 -1.55562e-21)
(0.347286 0.068768 2.1744e-20)
(0.339401 0.0499857 0)
(0.332053 0.0296519 0)
(0.327434 0.0124638 0)
(0.336052 -0.00697916 1.32848e-20)
(0.413172 -0.00785566 0)
(0.709456 -0.0083285 0)
(0.351881 0.116506 0)
(0.351991 0.104947 2.97599e-20)
(0.347542 0.0913127 -2.01677e-20)
(0.339672 0.0698614 -2.31128e-20)
(0.332251 0.0512031 2.32363e-20)
(0.325537 0.0308469 1.26945e-20)
(0.321963 0.0134543 -1.2601e-20)
(0.333525 -0.00574111 -4.64291e-20)
(0.415684 -0.00724135 3.32733e-21)
(0.713157 -0.00771557 -1.01868e-20)
(0.349804 0.117665 0)
(0.345849 0.106552 -9.62092e-21)
(0.340256 0.092187 -5.25709e-21)
(0.33194 0.0713615 0)
(0.32492 0.0526155 6.19509e-21)
(0.318839 0.0321485 -1.84837e-20)
(0.316332 0.0145048 1.94595e-20)
(0.330737 -0.00448265 6.73262e-21)
(0.417473 -0.00670855 -6.70977e-21)
(0.716349 -0.00718563 1.36679e-20)
(0.347145 0.119989 8.48157e-21)
(0.339634 0.108945 1.00576e-20)
(0.333042 0.0937561 -2.27151e-21)
(0.324357 0.0732689 2.81653e-21)
(0.31762 0.0542497 5.95415e-21)
(0.312102 0.0335787 9.34775e-21)
(0.310601 0.0156324 -3.21578e-21)
(0.327662 -0.00319162 -3.29913e-21)
(0.418451 -0.00623546 6.73188e-21)
(0.719039 -0.00672819 3.38728e-21)
(0.343845 0.123584 -2.3173e-21)
(0.333314 0.112118 2.33025e-21)
(0.325845 0.0960073 -2.62795e-21)
(0.316922 0.0755665 -2.81301e-21)
(0.310393 0.0561271 3.02998e-21)
(0.305372 0.0351635 -6.16976e-21)