/*--------------------------------*- C++ -*----------------------------------*\
  =========                 |
  \\      /  F ield         | OpenFOAM: The Open Source CFD Toolbox
   \\    /   O peration     | Website:  https://openfoam.org
    \\  /    A nd           | Version:  7
     \\/     M anipulation  |
\*---------------------------------------------------------------------------*/
FoamFile
{
    version     2.0;
    format      ascii;
    class       volScalarField;
    location    "94.5";
    object      p;
}
// * * * * * * * * * * * * * * * * * * * * * * * * * * * * * * * * * * * * * //

dimensions      [0 2 -2 0 0 0 0];

internalField   nonuniform List<scalar> 
2000
(
0.00731389
0.007389
0.0075318
0.00771052
0.00790123
0.00808881
0.00826275
0.00841782
0.00855313
0.00865442
0.00733827
0.00745329
0.00761132
0.00780499
0.0080102
0.00821152
0.0083977
0.0085628
0.00870593
0.00880533
0.00734153
0.0075046
0.00767821
0.00788549
0.00810252
0.00831407
0.00850885
0.00868073
0.00882968
0.00892589
0.00732806
0.0075452
0.00773442
0.00795312
0.00817815
0.00839509
0.0085932
0.00876674
0.0089173
0.00900763
0.00730421
0.00757936
0.00778294
0.00800976
0.00823786
0.0084541
0.00864885
0.00881726
0.0089631
0.00904308
0.00727803
0.00761188
0.00782737
0.00805802
0.00828335
0.00849188
0.00867562
0.00883098
0.00896408
0.00902754
0.00725862
0.00764804
0.00787184
0.00810116
0.0083173
0.00851072
0.00867544
0.00880947
0.00892109
0.00896079
0.00725577
0.00769352
0.00792092
0.00814312
0.00834349
0.00851461
0.00865285
0.00875809
0.00884058
0.00884977
0.00727954
0.00775423
0.00797955
0.00818849
0.00836674
0.00850931
0.00861531
0.00868722
0.00873807
0.00871368
0.00733962
0.00783612
0.00805301
0.00824239
0.00839266
0.00850155
0.0085716
0.00860934
0.00863385
0.00859031
0.00876789
0.00946103
0.0101765
0.0114253
0.0127683
0.0144045
0.015483
0.0171643
0.017
0.0182691
0.00885075
0.00948849
0.0100152
0.0110851
0.0122783
0.0137877
0.01478
0.0163271
0.0162898
0.01737
0.0088898
0.00950061
0.00985864
0.0107559
0.0118069
0.0131979
0.0141091
0.0155624
0.0155866
0.0165403
0.00887929
0.00948486
0.0097038
0.0104383
0.0113547
0.0126346
0.0134744
0.0148507
0.0148976
0.015787
0.00881726
0.00942888
0.00954543
0.0101316
0.0109223
0.0120985
0.0128753
0.014183
0.0142468
0.0151097
0.0087065
0.00932382
0.00937615
0.00983402
0.0105098
0.0115885
0.0123067
0.0135474
0.0136292
0.0144903
0.00855558
0.00916654
0.00918815
0.0095426
0.0101173
0.0111064
0.0117736
0.0129565
0.0130669
0.0139348
0.00837171
0.00894948
0.00896986
0.00925353
0.00974219
0.0106431
0.0112582
0.0123741
0.0125143
0.0134187
0.00814464
0.00866007
0.00869857
0.00895393
0.00939597
0.0102294
0.0108095
0.0118692
0.0120456
0.0129703
0.00797057
0.00842887
0.00846373
0.0086553
0.00902307
0.00976871
0.0103022
0.0112771
0.0115198
0.0125282
0.0085131
0.00896084
0.00920457
0.00933578
0.00943932
0.0097815
0.0101204
0.0107946
0.0109913
0.0116915
0.00678106
0.00719895
0.00756853
0.00789988
0.00821061
0.00861829
0.00898622
0.00952928
0.0096825
0.0100967
0.00549148
0.00587585
0.00622051
0.00651768
0.00680345
0.0071975
0.0075695
0.00806675
0.00820359
0.00849822
0.00416963
0.00455386
0.00494928
0.00528197
0.0055631
0.00590853
0.00623308
0.00666419
0.00678011
0.00701424
0.00292606
0.00327625
0.00370557
0.00409993
0.0044301
0.00476335
0.00504693
0.00540539
0.00549795
0.00569047
0.0018419
0.00214599
0.0025689
0.00299427
0.00337081
0.00372147
0.00399746
0.00430528
0.00437777
0.00452651
0.000961137
0.00121666
0.00160806
0.00202176
0.00239981
0.00274613
0.00301247
0.00328566
0.00334959
0.00347008
0.000307688
0.000511061
0.00085111
0.0012237
0.00156676
0.00187751
0.00211445
0.00234869
0.00239364
0.00247563
-4.02567e-05
6.68836e-05
0.000327461
0.000612042
0.000862645
0.0010849
0.00124774
0.0014227
0.00144369
0.00149773
-0.000564831
-0.000276398
-3.38074e-05
0.000156
0.00029157
0.000401084
0.000462875
0.000546269
0.000521729
0.000519165
0.00798458
0.00654986
0.005313
0.00403511
0.00284544
0.00180124
0.000954025
0.000301627
-1.1839e-05
-0.000541767
0.00769738
0.00632748
0.00510482
0.00386277
0.00272126
0.00172269
0.000916033
0.000294039
1.2498e-06
-0.000462436
0.00741739
0.00612615
0.00491778
0.00371363
0.00261357
0.00165932
0.000890402
0.000301428
2.14158e-05
-0.000367165
0.00720035
0.00598745
0.0047909
0.00361962
0.00255735
0.00163593
0.000895504
0.000330958
5.3487e-05
-0.000279233
0.00704701
0.00589568
0.00470967
0.00356775
0.002536
0.00164252
0.0009245
0.000377798
9.5511e-05
-0.000199808
0.0069594
0.00584713
0.00467023
0.00355148
0.00254466
0.00167376
0.000972558
0.000437844
0.000144874
-0.000128337
0.00695395
0.0058395
0.00467073
0.00356845
0.00258107
0.00172693
0.00103683
0.000508135
0.000199381
-6.50835e-05
0.00700805
0.0058698
0.00470772
0.00361519
0.00264181
0.00179885
0.00111435
0.000585945
0.00025713
-9.90445e-06
0.00711362
0.00593441
0.00477681
0.00368773
0.00272306
0.0018861
0.00120209
0.000668791
0.000316525
3.79128e-05
0.00726037
0.00602868
0.00487294
0.00378194
0.00282099
0.00198541
0.00129726
0.000754579
0.000376311
7.93377e-05
0.00743545
0.00614575
0.00498974
0.00389296
0.00293144
0.00209345
0.00139726
0.000841563
0.000435537
0.000115305
0.00762941
0.00628027
0.00512239
0.0040174
0.00305139
0.00220786
0.00150023
0.000928586
0.000493638
0.000146672
0.00783643
0.00642991
0.00526802
0.00415354
0.00317908
0.00232724
0.00160509
0.00101506
0.000550415
0.000174286
0.00805083
0.00659256
0.00542363
0.00429966
0.00331291
0.00245041
0.00171105
0.00110066
0.00060584
0.000198851
0.00826783
0.00676713
0.00558675
0.00445437
0.00345173
0.0025765
0.00181765
0.00118527
0.000660006
0.000220937
0.00848303
0.0069531
0.00575524
0.00461631
0.00359459
0.00270481
0.00192456
0.00126887
0.000713068
0.000241
0.00868983
0.00714842
0.00592648
0.00478355
0.00374051
0.0028346
0.00203154
0.00135151
0.000765216
0.000259443
0.00888404
0.00735642
0.00610298
0.00495775
0.00389111
0.00296697
0.00213948
0.00143384
0.000816928
0.00027668
0.00908249
0.00760397
0.0063026
0.00515075
0.00405505
0.00310752
0.0022519
0.00151794
0.000869189
0.000292826
0.00921653
0.00784388
0.00649686
0.00533717
0.00421676
0.0032442
0.00236155
0.00159923
0.000919805
0.000306545
0.00877046
0.0078914
0.00668762
0.00557828
0.00447868
0.0034834
0.00257085
0.00176021
0.0010251
0.000340632
0.00872649
0.0078428
0.00667536
0.005634
0.00457123
0.00360609
0.00269729
0.00187468
0.001106
0.000372856
0.00892371
0.00801555
0.00683668
0.00581103
0.00474355
0.00377349
0.00284293
0.00199417
0.00118878
0.000409582
0.00934692
0.00831623
0.00708283
0.00603241
0.00493813
0.00394805
0.00298742
0.00211134
0.00127328
0.000452496
0.00998503
0.00876196
0.0074359
0.00631727
0.00517262
0.0041421
0.00314156
0.00223438
0.00136509
0.000502761
0.0107809
0.00933503
0.00789105
0.00666573
0.00545056
0.00435944
0.00331064
0.00236573
0.00146264
0.000554424
0.0116384
0.00997358
0.00840327
0.00705145
0.00575586
0.00459194
0.00349102
0.00249969
0.00155315
0.000591604
0.0124407
0.0105836
0.00889466
0.00742096
0.00604931
0.00481498
0.00366464
0.00262012
0.00161948
0.00060244
0.0130677
0.0110618
0.00927901
0.00771131
0.00628163
0.00499329
0.00380359
0.00270975
0.00165626
0.000592741
0.0134133
0.0113226
0.009488
0.0078698
0.00640987
0.00509318
0.00388208
0.00275747
0.00166956
0.00057952
0.00964487
0.00960227
0.00986089
0.0103587
0.0110702
0.0119371
0.0128797
0.0137836
0.0145114
0.0149222
0.00977069
0.00985958
0.010207
0.0107872
0.0115704
0.0124953
0.0134836
0.0144208
0.0151702
0.0155942
0.0097683
0.0100085
0.010479
0.0111768
0.0120666
0.0130847
0.0141456
0.0151259
0.0158905
0.0163182
0.00981206
0.0101705
0.0107426
0.0115433
0.0125301
0.013642
0.0147873
0.0158316
0.0166341
0.0170818
0.00989688
0.0103788
0.0110463
0.0119396
0.0130116
0.0142068
0.0154316
0.0165447
0.0173973
0.0178755
0.0099933
0.0106109
0.0113868
0.0123783
0.0135378
0.014814
0.0161128
0.0172899
0.0181909
0.0186991
0.0100997
0.0108547
0.0117518
0.0128502
0.0141055
0.0154685
0.0168421
0.0180797
0.0190234
0.0195561
0.0102234
0.0111125
0.0121386
0.0133482
0.0147062
0.0161623
0.0176152
0.0189139
0.0198975
0.02045
0.0103683
0.0113868
0.0125486
0.0138706
0.0153356
0.0168892
0.0184257
0.0197883
0.0208124
0.0213822
0.0105359
0.0116762
0.0129813
0.014416
0.0159919
0.0176464
0.0192706
0.0207002
0.0217672
0.0223533
0.0107278
0.0119767
0.0134343
0.0149809
0.0166729
0.0184318
0.0201482
0.0216486
0.0227615
0.0233637
0.0109424
0.0122836
0.013903
0.0155599
0.017374
0.0192419
0.0210564
0.0226323
0.0237954
0.0244141
0.011172
0.0125938
0.0143793
0.0161474
0.01809
0.0200731
0.021993
0.0236511
0.0248697
0.0255062
0.011402
0.0129082
0.014851
0.0167384
0.0188135
0.0209206
0.0229535
0.0247068
0.0259864
0.0266442
0.0115895
0.0132384
0.0153091
0.0173303
0.0195409
0.0217815
0.0239369
0.0257919
0.0271405
0.0278249
0.0117557
0.0135539
0.015745
0.0179082
0.0202613
0.0226463
0.0249362
0.0269019
0.0283291
0.0290471
0.0118847
0.0138451
0.0161506
0.0184624
0.020967
0.0235095
0.0259476
0.0280364
0.0295528
0.0303124
0.011951
0.0141086
0.0165175
0.0189832
0.0216461
0.0243582
0.0269595
0.0291879
0.0308074
0.0316201
0.0119308
0.0143374
0.0168433
0.0194743
0.022309
0.0252063
0.0279845
0.0303646
0.0320976
0.0329749
0.0117713
0.0144812
0.0170751
0.0198594
0.022863
0.0259585
0.0289435
0.0315154
0.0333984
0.0343662
0.0123552
0.0158075
0.0187173
0.0218243
0.0251181
0.0285014
0.0317689
0.0346133
0.0367259
0.0378515
0.0156411
0.0190024
0.0221261
0.0257349
0.0295575
0.0334783
0.0372307
0.0404631
0.0428385
0.0440857
0.0193111
0.0228375
0.0263135
0.0304681
0.0348319
0.0393046
0.0435162
0.0470819
0.0496644
0.0510228
0.0232184
0.0271249
0.0311584
0.0359364
0.0408789
0.0459144
0.0505422
0.0543711
0.0570712
0.0584298
0.0273917
0.0317807
0.0364589
0.041898
0.0474455
0.0530377
0.0580311
0.0620567
0.0648067
0.0662069
0.031911
0.0367941
0.0421696
0.0482874
0.0544602
0.0606074
0.0659348
0.0700849
0.0726968
0.0737425
0.0363217
0.0418042
0.0478326
0.0545593
0.0613242
0.0679721
0.0735994
0.0778252
0.0801762
0.0811444
0.040808
0.0466419
0.0533031
0.0606644
0.0680646
0.0752529
0.0813155
0.0857859
0.0876687
0.0865372
0.0431202
0.0497559
0.057015
0.0649048
0.0727921
0.080361
0.0866345
0.0910952
0.0918134
0.0933451
0.0465319
0.0532555
0.060944
0.0693051
0.0778849
0.0861887
0.0937821
0.100194
0.102167
0.0853168
0.0113113
0.0145073
0.0178317
0.0214315
0.0251573
0.0294978
0.0332421
0.0378631
0.0395223
0.042867
0.0109341
0.0142894
0.0175432
0.0211038
0.0246751
0.02888
0.032359
0.0368706
0.0382509
0.0415428
0.0107532
0.014278
0.0175083
0.0210349
0.024525
0.0285578
0.0318384
0.036063
0.0373161
0.0403655
0.0105452
0.0141327
0.0173303
0.0207889
0.024233
0.028102
0.0312557
0.0351928
0.0364867
0.0391723
0.0103221
0.0138995
0.0170541
0.0204371
0.0238076
0.0275215
0.0306039
0.0342546
0.0356692
0.0379874
0.0101017
0.0136404
0.016761
0.0200799
0.0233688
0.0269331
0.0299522
0.0333445
0.0348665
0.0368738
0.00988215
0.0133667
0.0164678
0.0197376
0.022959
0.0263957
0.0293416
0.0325268
0.0341029
0.0358661
0.00966397
0.013081
0.0161728
0.0194055
0.0225754
0.0259126
0.0287857
0.0318085
0.0334066
0.034973
0.00945244
0.0127909
0.0158805
0.0190863
0.0222163
0.0254786
0.0282881
0.0311798
0.032783
0.0342088
0.00925322
0.012505
0.0155993
0.018789
0.0218891
0.0250958
0.027854
0.0306363
0.0322379
0.03357
0.00907081
0.0122303
0.0153369
0.0185219
0.0216032
0.0247703
0.0274903
0.0301808
0.0317789
0.0330468
0.00890217
0.0119683
0.0150964
0.0182879
0.0213641
0.0245067
0.0272025
0.0298171
0.0314111
0.0326316
0.00873851
0.0117179
0.0148775
0.0180873
0.0211735
0.0243077
0.0269942
0.0295481
0.0311373
0.032323
0.00857158
0.0114817
0.0146801
0.0179207
0.0210327
0.0241751
0.0268672
0.029375
0.0309559
0.0321211
0.00839127
0.0112618
0.0145028
0.0177881
0.0209416
0.0241097
0.0268225
0.0292984
0.030866
0.0320322
0.00818458
0.0110568
0.0143416
0.0176872
0.0208983
0.02411
0.026859
0.0293176
0.030858
0.0320594
0.0079381
0.0108614
0.0141902
0.0176133
0.0208997
0.024174
0.0269773
0.0294354
0.0309342
0.0322188
0.00763876
0.0106669
0.0140409
0.0175588
0.0209381
0.0242924
0.0271689
0.0296433
0.0310626
0.0325145
0.00724001
0.0104435
0.0138845
0.017522
0.0210185
0.0244768
0.02745
0.029964
0.0312874
0.0329749
0.006774
0.0101536
0.0136719
0.0174388
0.0210657
0.0246435
0.0277411
0.0303266
0.0314859
0.0335779
0.00771686
0.0112193
0.014632
0.0184592
0.0222781
0.026006
0.0292526
0.0319628
0.0329602
0.0354422
0.00969265
0.0134658
0.017151
0.0213543
0.0255679
0.0296912
0.0333206
0.0363587
0.0376815
0.0398614
0.0125775
0.0166587
0.0207339
0.0254418
0.0301638
0.0348429
0.0389973
0.0424285
0.0443354
0.0462394
0.0161086
0.0205699
0.0251292
0.0304727
0.0358941
0.0413746
0.046328
0.0505018
0.0534473
0.0556901
0.0198395
0.0247532
0.0299228
0.0360502
0.0423766
0.0489432
0.0551026
0.0606535
0.0653156
0.0693222
0.0237373
0.0290745
0.0349874
0.0420238
0.049468
0.0574498
0.0653989
0.073508
0.0818701
0.0904857
0.0267769
0.0327409
0.0394688
0.0474681
0.0562566
0.0660938
0.0766534
0.0890334
0.104314
0.123352
0.0302431
0.0367297
0.0443031
0.0533431
0.0636554
0.075818
0.090145
0.109677
0.138567
0.179388
0.0309977
0.0375926
0.0454627
0.0551034
0.0669565
0.0822399
0.102973
0.13446
0.186358
0.267079
0.033463
0.041285
0.0507123
0.0626153
0.0781946
0.0993892
0.129982
0.178673
0.263849
0.396393
0.00773023
0.00956405
0.011931
0.0148636
0.0178046
0.0213161
0.0236745
0.0269917
0.0275854
0.0295094
0.00761754
0.0094709
0.0117548
0.0145513
0.0172743
0.0205912
0.0226909
0.0258915
0.0263477
0.0283551
0.00764027
0.00944884
0.0116572
0.0143526
0.0169509
0.0200609
0.0219798
0.0249718
0.0252371
0.0274966
0.00773635
0.00942275
0.0114896
0.0140394
0.0164944
0.0194114
0.0211888
0.02399
0.0240762
0.0263839
0.00786617
0.00939758
0.0112865
0.0136682
0.0159458
0.0186653
0.0202945
0.0229423
0.022868
0.0250326
0.00801719
0.00938172
0.0110835
0.013289
0.0153921
0.0179101
0.0193808
0.021898
0.0216797
0.0236403
0.00818055
0.00937698
0.0108892
0.0128969
0.0148635
0.0171782
0.0185024
0.0208997
0.0205613
0.022352
0.00834674
0.0093838
0.0107014
0.0125114
0.0143339
0.0164622
0.0176791
0.0199466
0.0195293
0.0212059
0.00850629
0.00940196
0.0105196
0.0121381
0.0138009
0.0157408
0.0169261
0.019012
0.0185873
0.0201728
0.00864978
0.0094293
0.0103443
0.0117763
0.0132764
0.0150528
0.0162026
0.0180749
0.0177438
0.019205
0.00744614
0.00794561
0.00814722
0.00831069
0.0084274
0.00849783
0.00852788
0.00852743
0.00852127
0.00848066
0.00761355
0.00809101
0.00826871
0.00839957
0.00847749
0.0085051
0.00849033
0.00844395
0.00838911
0.00829918
0.00784529
0.00827581
0.00842209
0.00851471
0.00854988
0.00853194
0.00847035
0.00837672
0.00827413
0.00813758
0.00814482
0.00850381
0.00861185
0.00866142
0.00865093
0.00858616
0.00847766
0.0083378
0.00818943
0.00801024
0.00851376
0.00877767
0.00884124
0.00884364
0.00878541
0.00867351
0.00851919
0.00833499
0.00814293
0.007928
0.00895022
0.00909771
0.00911131
0.00906313
0.00895579
0.0087971
0.00859854
0.00837212
0.00813891
0.00790989
0.00944866
0.00946115
0.00942038
0.00931894
0.00916171
0.00895696
0.0087159
0.00845123
0.00818108
0.00789117
0.01
0.00986177
0.00976385
0.00960723
0.00939992
0.00915045
0.00886942
0.00856928
0.00826414
0.00793687
0.0105872
0.0102933
0.010134
0.0099211
0.00966422
0.00937188
0.00905378
0.00872122
0.00838473
0.00803111
0.0111898
0.0107394
0.0105191
0.0102505
0.00994561
0.00961292
0.00926096
0.00889949
0.00853601
0.0081625
0.0117753
0.01118
0.0109039
0.0105828
0.0102331
0.00986355
0.00948146
0.00909493
0.00870923
0.00832151
0.0123517
0.0116111
0.0112789
0.0109071
0.0105156
0.0101129
0.0097048
0.00929746
0.00889464
0.00849843
0.0128904
0.0120118
0.0116273
0.0112093
0.0107809
0.0103501
0.00992092
0.00949753
0.00908288
0.0086841
0.0133658
0.0123633
0.0119333
0.011476
0.0110173
0.0105647
0.0101202
0.00968599
0.00926505
0.00886989
0.0137571
0.0126489
0.0121826
0.0116947
0.0112141
0.010747
0.0102938
0.00985463
0.00943313
0.00904806
0.0140461
0.0128538
0.0123622
0.0118549
0.011362
0.010889
0.0104345
0.00999671
0.00958021
0.0092117
0.0142177
0.0129654
0.0124619
0.0119478
0.011454
0.0109848
0.0105372
0.0101072
0.00970084
0.00935425
0.0142606
0.0129745
0.0124738
0.0119675
0.0114853
0.0110306
0.0105989
0.0101837
0.0097904
0.00946665
0.0141682
0.0128753
0.0123935
0.0119106
0.0114538
0.011025
0.0106185
0.0102236
0.00983914
0.00953066
0.0139385
0.0126663
0.0122198
0.011777
0.0113606
0.0109708
0.0106002
0.0102317
0.00985421
0.0095528
0.0135731
0.0123488
0.0119538
0.0115679
0.0112082
0.0108747
0.010563
0.0102657
0.00999382
0.00983405
0.0130712
0.0119255
0.0115984
0.0112849
0.0109953
0.0107287
0.0104824
0.0102547
0.0100606
0.00995067
0.0124476
0.011407
0.0111608
0.0109321
0.0107227
0.0105298
0.0103512
0.0101882
0.0100529
0.00996591
0.0117192
0.0108063
0.0106507
0.0105164
0.0103956
0.0102829
0.0101769
0.0100813
0.0100056
0.00995598
0.0109054
0.0101385
0.0100802
0.0100476
0.0100221
0.00999569
0.00996795
0.00994408
0.00993208
0.00993235
0.0100281
0.0094211
0.00946354
0.00953706
0.00961192
0.00967694
0.00973225
0.00978429
0.00984001
0.00989775
0.00911075
0.00867278
0.00881616
0.00899754
0.00917577
0.00933588
0.00947815
0.00960981
0.00973746
0.0098593
0.00817725
0.00791235
0.00815399
0.00844211
0.0087245
0.00898178
0.0092138
0.00942808
0.00963141
0.00982349
0.00725105
0.00715751
0.00749228
0.00788338
0.00826845
0.00862325
0.00894644
0.00924536
0.00952714
0.00979444
0.00636349
0.00642876
0.00684699
0.00733387
0.0078174
0.00826794
0.00868218
0.00906655
0.00942831
0.00977439
0.0055596
0.00575641
0.0062387
0.00680864
0.0073822
0.00792374
0.00842673
0.00889569
0.00933723
0.00976389
0.00479468
0.00512399
0.00566405
0.0063102
0.00696638
0.00759377
0.00818228
0.00873397
0.00925359
0.00976014
0.00409358
0.00454698
0.00513742
0.00584564
0.00657574
0.00728197
0.00795089
0.00858195
0.00917628
0.00975677
0.00347345
0.00403687
0.00466541
0.00542315
0.00621512
0.00699086
0.00773332
0.00843876
0.00910381
0.00974457
0.00294058
0.00359839
0.00425259
0.00504634
0.00588729
0.00672212
0.00752995
0.00830252
0.00903095
0.00974233
0.00249728
0.00323313
0.00390149
0.00471747
0.00559398
0.00647648
0.00734051
0.00817286
0.00895659
0.00972162
0.00214346
0.00294073
0.00361277
0.00443762
0.00533605
0.00625418
0.00716462
0.0080491
0.00887972
0.00968279
0.00187662
0.00271901
0.00338541
0.00420662
0.00511355
0.00605511
0.00700218
0.00793227
0.00880384
0.0096289
0.00169228
0.00256431
0.00321705
0.00402323
0.00492569
0.00587859
0.00685284
0.00782454
0.00873926
0.00957425
0.00158478
0.002472
0.00310424
0.00388524
0.00477085
0.00572286
0.00671383
0.00772215
0.00869595
0.00955848
0.00154615
0.00243578
0.00304192
0.00378886
0.00464601
0.00558562
0.00658613
0.00764145
0.00877789
0.00993375
0.00155998
0.0024455
0.00302356
0.00373012
0.00454716
0.00545676
0.00644001
0.00748487
0.00861599
0.00975503
0.00162648
0.00249905
0.00304631
0.00370682
0.00447294
0.00533514
0.00627698
0.00728006
0.00835664
0.00943508
0.00174013
0.00259121
0.0031059
0.00371693
0.00442508
0.00522897
0.0061172
0.00707238
0.00810071
0.00913006
0.00189304
0.00271578
0.00319758
0.00375822
0.00440517
0.00514493
0.00597258
0.00687455
0.00785391
0.00883927
0.00207776
0.00286697
0.00331666
0.00382797
0.00441324
0.00508605
0.00584817
0.00669051
0.00761456
0.00855542
0.00228754
0.00303949
0.00345857
0.00392298
0.00444814
0.0050535
0.00574731
0.00652523
0.0073883
0.00828182
0.00251618
0.00322833
0.00361872
0.00403961
0.0045078
0.00504723
0.00567201
0.00638271
0.00718054
0.00802313
0.00275827
0.00342894
0.00379262
0.00417384
0.00458926
0.00506583
0.00562262
0.00626491
0.00699449
0.00778282
0.00301056
0.00363892
0.00397753
0.00432272
0.00468983
0.00510739
0.00559841
0.00617241
0.00683188
0.00756308
0.00327179
0.00385886
0.00417403
0.00448645
0.00480945
0.00517195
0.00559981
0.00610627
0.00669426
0.00736522
0.00353007
0.00407699
0.00437079
0.00465443
0.00493865
0.00525155
0.00562071
0.00606231
0.00657913
0.00718658
0.00378584
0.00429406
0.00456793
0.00482591
0.00507588
0.00534418
0.005659
0.00603866
0.00648495
0.00702486
0.0040388
0.00450951
0.00476439
0.00499914
0.00521874
0.00544705
0.00571185
0.00603274
0.00640955
0.00687766
0.00428824
0.00472217
0.00495863
0.00517206
0.0053646
0.00555721
0.00577631
0.00604182
0.00635055
0.00674224
0.00453403
0.00493139
0.00514972
0.00534325
0.00551157
0.0056724
0.00585005
0.00606378
0.00630609
0.00661598
0.00477656
0.00513708
0.0053374
0.00551218
0.00565868
0.00579132
0.0059318
0.00609796
0.00627633
0.00649801
0.00501646
0.00533946
0.005522
0.00567919
0.00580617
0.00591408
0.00602172
0.00614523
0.00626354
0.00638853
0.00525416
0.0055389
0.0057043
0.00584563
0.00595607
0.0060436
0.00612353
0.00620938
0.00627027
0.00628042
0.00548959
0.0057356
0.00588526
0.00601355
0.00611251
0.00618821
0.00625361
0.00632115
0.00635902
0.00628158
0.00572239
0.00592955
0.00606535
0.00618414
0.00627801
0.0063543
0.00643066
0.00654013
0.00674683
0.00709674
0.00595327
0.00612068
0.00624426
0.00635668
0.00644934
0.00652894
0.00661201
0.0067286
0.00693603
0.00724455
0.00617785
0.00630728
0.00642086
0.00652985
0.00662405
0.00670767
0.00679369
0.0069049
0.00707987
0.00731385
0.00639222
0.00648738
0.00659375
0.00670224
0.00680096
0.00689104
0.00698177
0.00709059
0.00724377
0.00743167
0.00659401
0.00665749
0.00676115
0.006872
0.00697813
0.00707729
0.00717492
0.00728346
0.00742061
0.00757751
0.00677748
0.00681805
0.00691995
0.00703679
0.007153
0.00726353
0.00737005
0.00748041
0.0076061
0.00774138
0.00693925
0.00696527
0.00706906
0.00719425
0.00732287
0.00744679
0.0075643
0.00767929
0.00779882
0.0079197
0.00707639
0.00709732
0.00720626
0.00734218
0.007485
0.007624
0.00775442
0.00787691
0.00799532
0.0081071
0.00718655
0.00721296
0.00732993
0.00747849
0.00763682
0.00779197
0.0079367
0.00806906
0.00819052
0.0082969
0.00726698
0.00731084
0.00743883
0.00760157
0.00777617
0.00794771
0.00810728
0.00825092
0.00837852
0.00848186
)
;

boundaryField
{
    inlet
    {
        type            zeroGradient;
    }
    outlet
    {
        type            fixedValue;
        value           uniform 0;
    }
    cylinder
    {
        type            zeroGradient;
    }
    top
    {
        type            symmetryPlane;
    }
    bottom
    {
        type            symmetryPlane;
    }
    defaultFaces
    {
        type            empty;
    }
}


// ************************************************************************* //
