/*--------------------------------*- C++ -*----------------------------------*\
  =========                 |
  \\      /  F ield         | OpenFOAM: The Open Source CFD Toolbox
   \\    /   O peration     | Website:  https://openfoam.org
    \\  /    A nd           | Version:  7
     \\/     M anipulation  |
\*---------------------------------------------------------------------------*/
FoamFile
{
    version     2.0;
    format      ascii;
    class       surfaceScalarField;
    location    "12";
    object      phi;
}
// * * * * * * * * * * * * * * * * * * * * * * * * * * * * * * * * * * * * * //

dimensions      [0 3 -1 0 0 0 0];

internalField   nonuniform List<scalar> 
3880
(
0.000648823
-0.000235638
-0.000413184
0.00248318
0.00435007
-0.00618443
0.00533201
0.0111672
-0.0140161
0.00880791
0.0187108
-0.0221867
0.0124229
0.0258178
-0.0294328
0.0157661
0.0317482
-0.0350915
0.0185936
0.0362071
-0.0390346
0.0208239
0.0392306
-0.0414609
0.0224876
0.0410438
-0.0427075
0.0419069
0.0236691
-0.0430884
0.000559407
-0.000795043
0.00216659
0.00274288
0.00474408
0.00858974
0.00803659
0.0154183
0.0116507
0.0222037
0.0151908
0.0282081
0.018367
0.0330309
0.0210283
0.0365693
0.0231419
0.0389303
0.0403108
0.024738
0.000474269
-0.00126931
0.00185567
0.00136148
0.00413668
0.00630873
0.00717208
0.0123829
0.0106722
0.0187036
0.0142895
0.0245908
0.0177202
0.0296002
0.0207607
0.0335289
0.0233161
0.0363748
0.0382692
0.0253578
0.000386812
-0.00165612
0.001541
0.00020729
0.00351049
0.00433924
0.00623574
0.00965764
0.00952422
0.0154151
0.0130964
0.0210186
0.0166654
0.0260311
0.0200005
0.0301938
0.0229563
0.033419
0.035776
0.0254495
0.000289735
-0.00194586
0.00120955
-0.000712522
0.00285673
0.00269206
0.0052366
0.00727776
0.00823784
0.0124138
0.0116539
0.0176026
0.0152378
0.0224473
0.0187585
0.0266731
0.0220385
0.030139
0.0328611
0.0249534
0.000176652
-0.00212251
0.000848822
-0.00138469
0.00216278
0.0013781
0.00417404
0.00526651
0.00683436
0.00975352
0.0100039
0.0144331
0.0134865
0.0189646
0.0170738
0.0230859
0.020577
0.0266357
0.0295899
0.0238482
4.42412e-05
-0.00216675
0.00045228
-0.00179273
0.00142126
0.00040912
0.00304744
0.00364032
0.0053303
0.00747066
0.00818522
0.0115781
0.0114678
0.0156821
0.0150064
0.0195473
0.0186232
0.0230189
0.0260506
0.0221625
-0.000106625
-0.00206012
2.44372e-05
-0.00192379
0.000639962
-0.000206405
0.0018703
0.00240999
0.00375116
0.0055898
0.00624165
0.00908765
0.00924365
0.0126801
0.0126292
0.0161617
0.0162559
0.0193922
0.0223397
0.0199667
-0.000267199
-0.00179293
-0.0004143
-0.00177669
-0.000148836
-0.000471869
0.000685624
0.00157553
0.00215219
0.00412323
0.0042431
0.00699674
0.00689764
0.0100255
0.010029
0.0130303
0.0135684
0.0158528
0.0184413
0.0174668
-0.00042346
-0.00136946
-0.000827438
-0.00137271
-0.000884075
-0.000415231
-0.000420676
0.00111213
0.000642268
0.00306029
0.00231865
0.00532036
0.00457107
0.00777311
0.00733294
0.0102685
0.0106141
0.0125716
0.0147769
0.0142785
0.0196775
0.152732
-0.148741
0.0156939
0.143613
-0.139629
0.0124558
0.137106
-0.133868
0.00993684
0.132506
-0.129987
0.00786767
0.129644
-0.127575
0.00598641
0.128415
-0.126534
0.00420344
0.128372
-0.126589
0.00257278
0.129514
-0.127884
0.00109478
0.130641
-0.129163
0.133288
-0.132193
0.021498
0.155972
0.0176239
0.147487
0.0142522
0.140478
0.0115807
0.135177
0.00936576
0.131859
0.00730858
0.130472
0.00531455
0.130366
0.00340211
0.131427
0.00156219
0.132481
0.13485
0.0232148
0.158115
0.0195764
0.151125
0.0160936
0.143961
0.013256
0.138015
0.0108658
0.134249
0.00862249
0.132715
0.00640851
0.13258
0.00421606
0.133619
0.00201591
0.134681
0.136866
0.0247617
0.158803
0.0215093
0.154378
0.0179524
0.147518
0.0149408
0.141027
0.0123524
0.136838
0.00991068
0.135157
0.00747468
0.135016
0.00500817
0.136086
0.00245605
0.137233
0.139322
0.0260906
0.157666
0.0233847
0.157084
0.0198177
0.151085
0.0166269
0.144217
0.0138167
0.139648
0.0111621
0.137812
0.00850111
0.137677
0.00576596
0.138821
0.00287481
0.140124
0.142197
0.0271191
0.154395
0.0250986
0.159104
0.0216407
0.154543
0.0182947
0.147563
0.0152503
0.142692
0.0123705
0.140692
0.00948723
0.14056
0.00650064
0.141807
0.00328612
0.143339
0.145483
0.0278768
0.148681
0.026686
0.160295
0.0234473
0.157781
0.0199482
0.151062
0.0166566
0.145984
0.0135337
0.143814
0.010412
0.143682
0.00716476
0.145055
0.00364696
0.146857
0.14913
0.0280533
0.140594
0.0278601
0.160488
0.0250857
0.160556
0.0215252
0.154623
0.0180103
0.149499
0.0146469
0.147178
0.0113211
0.147008
0.00787138
0.148504
0.00406106
0.150667
0.153191
0.0280812
0.12998
0.0290946
0.159475
0.0267444
0.162906
0.0231012
0.158266
0.0193709
0.153229
0.015724
0.150825
0.0120893
0.150642
0.0083282
0.152265
0.00427316
0.154722
0.157464
0.0265017
0.118255
0.0295025
0.156474
0.0280227
0.164386
0.024529
0.16176
0.0206412
0.157117
0.0168014
0.154664
0.0131144
0.154329
0.0092964
0.156083
0.00490823
0.15911
0.162372
-0.00508969
0.103876
0.0194686
0.0108388
0.140545
0.0207839
0.154441
0.0244126
0.158131
0.023272
0.158258
0.0179856
0.159951
0.0105246
0.16179
0.00400312
0.162605
0.000980336
0.162133
0.163353
-0.00287366
0.119818
-0.0130677
0.00417953
0.133492
0.0118102
0.14681
0.0153431
0.154598
0.0163102
0.157291
0.017143
0.159118
0.0176742
0.161259
0.0147682
0.165511
0.00752985
0.169372
0.170882
0.0268453
0.147653
-0.0546807
0.0154971
0.14484
0.0170299
0.145277
0.0224581
0.14917
0.023018
0.156731
0.0173244
0.164812
0.0102176
0.168366
0.00473687
0.170992
0.00196213
0.172146
0.172844
0.0643785
0.170308
-0.0870332
0.044926
0.164293
0.0313019
0.158901
0.0249994
0.155472
0.0258751
0.155855
0.0283931
0.162294
0.0274144
0.169345
0.0220277
0.176378
0.012734
0.18144
0.185578
0.0928083
0.183443
-0.105944
0.0774845
0.179617
0.0648854
0.171501
0.0522239
0.168134
0.0385208
0.169558
0.0271766
0.173638
0.0186431
0.177878
0.0130272
0.181994
0.00769404
0.186773
0.193273
0.109843
0.188653
-0.115053
0.0954328
0.194027
0.0788881
0.188045
0.0668821
0.18014
0.0583206
0.17812
0.0497723
0.182186
0.0394478
0.188203
0.0270961
0.194346
0.0139589
0.19991
0.207231
0.120743
0.184745
-0.116835
0.117263
0.197507
0.104203
0.201105
0.0846997
0.199643
0.0656581
0.197161
0.0494271
0.198417
0.0356504
0.201979
0.022808
0.207188
0.0106981
0.21202
0.21793
0.11845
0.177168
-0.110872
0.115439
0.200518
0.109654
0.20689
0.100182
0.209115
0.087167
0.210176
0.0717836
0.2138
0.054859
0.218904
0.0370045
0.225043
0.0181127
0.230912
0.236042
0.12524
0.154383
-0.102456
0.128287
0.197471
0.118815
0.216362
0.104083
0.223848
0.0869637
0.227295
0.0696445
0.23112
0.052228
0.23632
0.035032
0.242239
0.0176949
0.248249
0.253737
0.106479
-0.0756929
0.124169
0.127389
0.120319
0.106623
0.0888502
0.0683689
0.0464061
0.0236628
0.0190616
0.0099957
-0.00958878
0.0344326
-0.0284387
0.0469533
-0.0672013
0.0536424
-0.0937224
0.0553963
-0.107698
0.053783
-0.11344
0.0488914
-0.111943
0.0417272
-0.103708
0.0309491
-0.091678
-0.066051
0.0224735
-0.00400757
-0.00847023
0.0393841
-0.0453492
0.0504287
-0.0782459
0.0550932
-0.0983868
0.0551662
-0.107771
0.0519635
-0.110237
0.0457166
-0.105696
0.03732
-0.0953113
0.0262856
-0.0806435
-0.0564321
0.028042
-0.0220879
-0.00996165
0.0440872
-0.0613945
0.052724
-0.0868827
0.0553147
-0.100977
0.0538478
-0.106304
0.0492783
-0.105668
0.0419115
-0.0983293
0.0325618
-0.0859615
0.0213944
-0.0694761
-0.0470847
0.0343664
-0.0421786
-0.0142757
0.0478849
-0.074913
0.0538955
-0.0928933
0.0545516
-0.101634
0.0516212
-0.103373
0.0457661
-0.0998126
0.0374072
-0.0899704
0.0274076
-0.0759619
0.0164371
-0.0585056
-0.0382284
0.040191
-0.0615998
-0.0207698
0.0503514
-0.0850734
0.0537831
-0.0963249
0.052705
-0.100556
0.0484461
-0.0991145
0.0414742
-0.0928407
0.0323592
-0.0808554
0.0220324
-0.0656351
0.011536
-0.0480092
-0.0300958
0.044474
-0.0778874
-0.0281865
0.0512577
-0.0918571
0.0523997
-0.0974669
0.0498206
-0.0979764
0.0443972
-0.0936911
0.0365145
-0.084958
0.0269066
-0.0712475
0.0165836
-0.0553121
0.00676592
-0.0381916
-0.022988
0.0467481
-0.0897368
-0.0348987
0.0505659
-0.0956749
0.0498164
-0.0967174
0.0459645
-0.0941245
0.0395676
-0.0872942
0.0310231
-0.0764135
0.021221
-0.0614453
0.0112398
-0.0453309
0.0022684
-0.0292202
-0.0171317
0.0469552
-0.0971686
-0.0395234
0.0483871
-0.0971069
0.0461532
-0.0944834
0.0412601
-0.0892313
0.0341089
-0.0801431
0.0251776
-0.0674822
0.0154865
-0.0517543
0.00617151
-0.0360159
-0.00161363
-0.0214351
-0.0124049
0.0453169
-0.10102
-0.0414654
0.0449367
-0.0967267
0.0415677
-0.0911144
0.0358689
-0.0835325
0.0282065
-0.0724807
0.0191731
-0.0584489
0.00988302
-0.0424641
0.0015195
-0.0276523
-0.00487735
-0.0150382
-0.00863762
0.0422025
-0.102307
-0.0409153
0.0404672
-0.0949914
0.0362493
-0.0868965
0.0299881
-0.0772714
0.0220718
-0.0645644
0.0132133
-0.0495903
0.00457357
-0.0338244
-0.00273935
-0.0203394
-0.00775884
-0.0100187
-0.00583732
0.0379928
-0.101823
-0.0384769
0.035236
-0.0922346
0.0304193
-0.0820799
0.0238408
-0.0706928
0.015925
-0.0566486
0.00749323
-0.0411586
-0.000303496
-0.0260277
-0.00643651
-0.0142064
-0.0101886
-0.00626661
-0.00389192
0.0330077
-0.100087
-0.0347443
0.0294933
-0.0887202
0.0243192
-0.0769058
0.0176541
-0.0640278
0.00997414
-0.0489686
0.0021834
-0.0333679
-0.00461251
-0.0192317
-0.00953673
-0.00928218
-0.0121776
-0.0036257
-0.00263945
0.0275301
-0.0974377
-0.0301792
0.0235161
-0.0847062
0.018197
-0.0715867
0.0116507
-0.0574814
0.0044051
-0.041723
-0.00260509
-0.0263577
-0.00833571
-0.0135011
-0.0120771
-0.00554082
-0.0137809
-0.00192189
-0.00190286
0.0218049
-0.0941331
-0.0251095
0.0175367
-0.080438
0.0122693
-0.0663193
0.00601538
-0.0512275
-0.000587066
-0.0351205
-0.00681096
-0.0201338
-0.0114502
-0.00886186
-0.0141143
-0.0028768
-0.0150776
-0.000958523
-0.00151359
0.016059
-0.0904011
-0.019791
0.0117573
-0.0761362
0.00671563
-0.0612777
0.000908961
-0.0454208
-0.00512892
-0.0290827
-0.0103824
-0.0148803
-0.0139828
-0.00526153
-0.0157272
-0.00113239
-0.016155
-0.000530667
-0.00132556
0.0104921
-0.0864553
-0.0144379
0.00634916
-0.0719933
0.00169178
-0.0566203
-0.00367746
-0.0400516
-0.0089716
-0.0237885
-0.0133241
-0.0105277
-0.0159911
-0.00259461
-0.0170068
-0.000116655
-0.0170963
-0.000441181
-0.00122082
0.00530884
-0.0825513
-0.00921286
0.00147897
-0.0681634
-0.00280689
-0.0523344
-0.00761988
-0.0352386
-0.0121588
-0.0192496
-0.0156738
-0.00701273
-0.017556
-0.000712432
-0.0180385
0.000365914
-0.0179747
-0.000505019
-0.00110983
0.000752275
-0.0790945
-0.00420907
-0.00278014
-0.064631
-0.00667531
-0.0484393
-0.0108977
-0.0310161
-0.0147211
-0.0154263
-0.0174859
-0.00424796
-0.018748
0.000549661
-0.0189171
0.000535058
-0.0188506
-0.000571482
-0.000928804
-0.00323781
-0.0761736
0.000316877
-0.0064082
-0.0614606
-0.00985133
-0.0449961
-0.0135396
-0.0273278
-0.0167027
-0.0122632
-0.0188303
-0.00212038
-0.0196352
0.00135453
-0.0197145
0.000614368
-0.0197665
-0.000519505
-0.00063283
-0.00720481
-0.0739744
0.00500563
-0.0098308
-0.0588346
-0.0125474
-0.0422796
-0.0155206
-0.0243546
-0.0180709
-0.00971285
-0.0197461
-0.000445214
-0.0203216
0.00193006
-0.0204783
0.000771023
-0.0207375
-0.000260336
-0.00018031
-0.000847907
-0.0563958
-0.0167307
-0.0338598
-0.0258227
-0.0617556
-0.0143837
-0.0809035
-0.00520671
-0.0891238
-0.00149254
-0.0902291
0.000660114
-0.0894629
0.00116387
-0.0891157
0.000423743
-0.089258
-0.000117968
2.35204e-06
-0.10326
-0.0312816
0.0781456
-0.11931
-0.00977253
-0.122955
-0.0107384
-0.122514
-0.00564826
-0.117559
-0.00644739
-0.114221
-0.00267818
-0.112786
-0.000270662
-0.112925
0.000562554
-0.112952
-9.12752e-05
-0.000100033
-0.135917
-0.0220152
0.126651
-0.133988
-0.0117018
-0.131153
-0.0135731
-0.131317
-0.00548492
-0.131562
-0.00620214
-0.133331
-0.00090906
-0.133147
-0.000454506
-0.132891
0.000306484
-0.13243
-0.00055208
-6.03734e-05
-0.151793
-0.017715
0.147493
-0.150733
-0.0127626
-0.153187
-0.0111183
-0.15495
-0.00372262
-0.155545
-0.0056066
-0.156524
6.94849e-05
-0.154932
-0.00204666
-0.154541
-8.43747e-05
-0.154078
-0.0010149
0.000107929
-0.172076
-0.0143272
0.168688
-0.175382
-0.00945621
-0.179272
-0.00722854
-0.17926
-0.00373434
-0.180594
-0.00427314
-0.180122
-0.000402469
-0.179613
-0.00255531
-0.179993
0.000295102
-0.179567
-0.00144062
0.000315096
-0.203245
-0.0108673
0.199785
-0.205915
-0.00678589
-0.207055
-0.00608887
-0.207179
-0.00361082
-0.208448
-0.00300405
-0.208104
-0.000746385
-0.208735
-0.00192404
-0.208672
0.00023241
-0.20857
-0.00154296
0.000631039
-0.239198
-0.00797241
0.236303
-0.240439
-0.00554495
-0.241854
-0.00467443
-0.242872
-0.0025923
-0.243671
-0.00220511
-0.243654
-0.000763091
-0.244276
-0.00130251
-0.244051
7.10005e-06
-0.244601
-0.000992859
0.000625002
-0.287821
-0.00545769
0.285306
-0.289327
-0.00403885
-0.290721
-0.00328041
-0.291381
-0.00193255
-0.292062
-0.0015242
-0.292264
-0.000560841
-0.292771
-0.000795558
-0.292679
-8.45519e-05
-0.293091
-0.000580791
0.000361276
-0.347465
-0.00304763
0.345055
-0.349658
-0.00184603
-0.351527
-0.00141129
-0.35268
-0.000779557
-0.353528
-0.000676275
-0.353673
-0.000415868
-0.353984
-0.000484411
-0.353994
-7.46134e-05
-0.354521
-5.37022e-05
0.0002749
-0.395796
0.392748
-0.397642
-0.399053
-0.399833
-0.400509
-0.400925
-0.401409
-0.401484
-0.401538
-0.0199046
-0.00758897
0.0107629
-0.0254913
0.0837322
-0.0261636
0.127323
-0.0251836
0.146513
-0.024058
0.167562
-0.0219943
0.197721
-0.0195812
0.23389
-0.0154689
0.281194
-0.00928792
0.338874
0.38346
-0.0205122
-0.000139093
0.0130623
-0.0238476
0.0870676
-0.0239594
0.127435
-0.0232347
0.145789
-0.0221421
0.16647
-0.0199835
0.195563
-0.0175003
0.231407
-0.0136679
0.277362
-0.00798053
0.333186
0.37548
-0.0211304
0.00589055
0.0151007
-0.0229117
0.088849
-0.0224376
0.126961
-0.0218469
0.145198
-0.0207694
0.165392
-0.0186347
0.193428
-0.016187
0.228959
-0.0126686
0.273843
-0.00726984
0.327788
0.36821
-0.0212907
0.0104251
0.0167562
-0.0218813
0.0894396
-0.0209815
0.126061
-0.0204221
0.144638
-0.0192779
0.164248
-0.0171491
0.191299
-0.0147861
0.226596
-0.0115558
0.270613
-0.00653952
0.322771
0.361671
-0.0210503
0.0133056
0.0181698
-0.0205063
0.0888955
-0.0194203
0.124975
-0.0189548
0.144173
-0.0177158
0.163009
-0.015585
0.189168
-0.0133383
0.22435
-0.0103785
0.267653
-0.00582636
0.318219
0.355844
-0.0206191
0.0145175
0.0194072
-0.0189685
0.0872449
-0.0177481
0.123755
-0.0173893
0.143814
-0.016079
0.161699
-0.0139641
0.187054
-0.0118442
0.22223
-0.00915677
0.264966
-0.00511875
0.314181
0.350725
-0.0201797
0.0141205
0.0205767
-0.0174433
0.0845086
-0.0160551
0.122366
-0.0157294
0.143488
-0.0143678
0.160337
-0.0122948
0.184981
-0.0103008
0.220236
-0.00789837
0.262563
-0.00439731
0.31068
0.346328
-0.01988
0.0122164
0.0217841
-0.0160278
0.0806563
-0.0144029
0.120742
-0.0140195
0.143105
-0.0126074
0.158925
-0.0105923
0.182965
-0.00871813
0.218362
-0.00661487
0.26046
-0.00365924
0.307724
0.342669
-0.0198472
0.00895989
0.0231037
-0.0148025
0.0756117
-0.0128172
0.118756
-0.0123021
0.14259
-0.010833
0.157456
-0.00888241
0.181015
-0.00711514
0.216595
-0.00532072
0.258665
-0.00291289
0.305317
0.339756
-0.020148
0.00452866
0.0245792
-0.0138507
0.0693144
-0.0113247
0.11623
-0.0106095
0.141875
-0.00906932
0.155916
-0.00719386
0.179139
-0.00551325
0.214914
-0.00403841
0.257191
-0.00217328
0.303452
0.337583
-0.0207976
-0.000875662
0.0262019
-0.0132869
0.0618037
-0.00996893
0.112912
-0.00897582
0.140881
-0.007361
0.154301
-0.00555607
0.177335
-0.00394701
0.213305
-0.00278821
0.256032
-0.00145167
0.302115
0.336131
-0.0219195
-0.00689897
0.0279428
-0.0132255
0.0531097
-0.00877219
0.108459
-0.00742187
0.139531
-0.00577508
0.152654
-0.0040261
0.175586
-0.00247635
0.211755
-0.00158627
0.255142
-0.000755203
0.301284
0.335376
-0.0234718
-0.0131521
0.0297249
-0.0137459
0.0433838
-0.00786001
0.102573
-0.00602942
0.137701
-0.00434347
0.150968
-0.00263484
0.173877
-0.00113489
0.210255
-0.000437317
0.254444
-8.75262e-05
0.300934
0.335288
-0.0253333
-0.0192629
0.0314441
-0.0148872
0.0329377
-0.00738279
0.0950687
-0.00481546
0.135133
-0.00309046
0.149243
-0.00141386
0.1722
-2.3112e-05
0.208864
0.000607856
0.253813
0.00052524
0.301017
0.335814
-0.0273382
-0.0249041
0.0329795
-0.0166226
0.0222221
-0.00740958
0.0858556
-0.00378873
0.131512
-0.0020243
0.147479
-0.000384866
0.170561
0.00117127
0.207308
0.00160045
0.253384
0.0011028
0.301514
0.336916
-0.0293034
-0.0298247
0.0342239
-0.0188294
0.0117481
-0.00798262
0.0750089
-0.00298648
0.126516
-0.00117216
0.145665
0.000454561
0.168934
0.00212899
0.205634
0.00245184
0.253061
0.00160547
0.302361
0.338522
-0.0310586
-0.0338513
0.0350852
-0.0212687
0.00195819
-0.00910125
0.0628414
-0.00245959
0.119875
-0.000511256
0.143716
0.0012527
0.16717
0.0029574
0.203929
0.00322261
0.252796
0.00206837
0.303515
0.34059
-0.0324807
-0.0368724
0.0355018
-0.0236263
-0.00689622
-0.0107475
0.0499627
-0.0023842
0.111511
-0.000153132
0.141485
0.00170895
0.165308
0.00349491
0.202143
0.00377894
0.252512
0.00241588
0.304878
0.343006
-0.033301
-0.0390071
0.0354356
-0.0257718
-0.0144254
-0.0128188
0.0370097
-0.00271566
0.101408
0.000254405
0.138515
0.00216993
0.163393
0.00400786
0.200305
0.0043122
0.252208
0.00275227
0.306438
0.345758
-0.0332542
-0.0405051
0.0347521
-0.0272008
-0.0204788
-0.0153077
0.0251167
-0.00415389
0.0902543
-5.37834e-05
0.134415
0.00192822
0.161411
0.00394846
0.198285
0.00441313
0.251743
0.002844
0.308007
0.348602
-0.142015
-0.0359261
0.137436
-0.140888
-0.0216062
-0.12338
0.00760906
-0.0936873
0.0605614
-0.0719429
0.112671
-0.0604922
0.14996
-0.0475955
0.185388
-0.0336642
0.237812
-0.0180635
0.292406
0.330539
-0.151391
-0.0276173
0.143082
-0.155353
-0.0176437
-0.148471
0.000726342
-0.12467
0.0367608
-0.0970467
0.0850474
-0.0772019
0.130115
-0.0620298
0.170216
-0.0446085
0.22039
-0.0243767
0.272175
0.306162
-0.15165
-0.0178883
0.141921
-0.15975
-0.00954368
-0.161425
0.00240159
-0.150396
0.025732
-0.127176
0.0618272
-0.101382
0.104321
-0.0793456
0.148179
-0.0558954
0.19694
-0.0294693
0.245748
0.276693
-0.146862
-0.00910318
0.138077
-0.155425
-0.000981027
-0.161692
0.00866918
-0.160674
0.0247134
-0.148281
0.0494343
-0.12603
0.0820709
-0.0996181
0.121767
-0.0692236
0.166546
-0.0344009
0.210926
0.242292
-0.139922
-0.00177097
0.132589
-0.146705
0.00580234
-0.152659
0.0146229
-0.155119
0.0271735
-0.150661
0.0449762
-0.136659
0.0680686
-0.113189
0.098298
-0.0813072
0.134664
-0.0412634
0.170882
0.201029
-0.132707
0.00390173
0.127034
-0.137323
0.0104182
-0.140906
0.018206
-0.142121
0.0283884
-0.139262
0.0421179
-0.129977
0.0587831
-0.111636
0.0799574
-0.0834063
0.106434
-0.0453987
0.132874
0.15563
-0.126342
0.00793674
0.122307
-0.128873
0.0129493
-0.129938
0.0192713
-0.128387
0.0268376
-0.123441
0.0371716
-0.113736
0.0490778
-0.097324
0.0635456
-0.0727701
0.0818796
-0.0397674
0.0998715
0.115862
-0.121593
0.0105786
0.118951
-0.122399
0.0137549
-0.121538
0.0184109
-0.118256
0.0235559
-0.111884
0.0307995
-0.101625
0.038819
-0.0861152
0.0480354
-0.0641927
0.0599571
-0.0374723
0.0731511
0.0783902
-0.133365
0.00643489
0.137508
-0.128064
0.0084546
-0.120759
0.011106
-0.111335
0.0141311
-0.0982478
0.0177128
-0.0816056
0.0221768
-0.0612237
0.0276535
-0.0349844
0.0337178
-0.00625686
0.0444235
0.0721334
-0.251509
0.257944
-0.243055
-0.231949
-0.217818
-0.200105
-0.177928
-0.150275
-0.116557
-0.0721334
-0.0344516
0.135986
0.0359017
-0.0293722
0.138003
-0.0239476
0.136496
-0.0186727
0.132802
-0.0137975
0.127714
-0.00942076
0.122658
-0.00556307
0.118449
-0.00290176
0.11629
-0.00263386
0.13724
0.25531
-0.0319824
0.133903
0.0340651
-0.0277129
0.133733
-0.0228741
0.131657
-0.0178365
0.127764
-0.0131412
0.123019
-0.00892982
0.118446
-0.00522945
0.114749
-0.00274623
0.113807
-0.00238641
0.136881
0.252924
-0.0290653
0.131318
0.031651
-0.0250837
0.129751
-0.0207421
0.127316
-0.0162295
0.123252
-0.0119666
0.118756
-0.00810109
0.114581
-0.00469667
0.111344
-0.00246386
0.111574
-0.00216114
0.136578
0.250763
-0.026214
0.128633
0.0288985
-0.0224913
0.126029
-0.0185415
0.123366
-0.0145143
0.119225
-0.0107086
0.11495
-0.00721653
0.111088
-0.00411495
0.108243
-0.00213871
0.109598
-0.00187892
0.136318
0.248884
-0.023607
0.126206
0.0260339
-0.0202227
0.122644
-0.0166245
0.119768
-0.0129847
0.115585
-0.00953823
0.111504
-0.00635709
0.107907
-0.00353092
0.105416
-0.00177906
0.107846
-0.00155256
0.136092
0.247331
-0.0210738
0.124118
0.0231627
-0.0181023
0.119673
-0.0148591
0.116525
-0.0115668
0.112292
-0.00842816
0.108365
-0.00552078
0.105
-0.00294887
0.102845
-0.00138824
0.106285
-0.00119134
0.135895
0.24614
-0.018589
0.122354
0.0203524
-0.0160223
0.117106
-0.0131362
0.113639
-0.0101854
0.109342
-0.00734195
0.105522
-0.0046956
0.102354
-0.00236487
0.100514
-0.000970212
0.10489
-0.000800869
0.135725
0.245339
-0.0162076
0.120917
0.0176452
-0.0140135
0.114912
-0.0114623
0.111087
-0.00883629
0.106716
-0.00627731
0.102963
-0.00388277
0.0999591
-0.00178072
0.0984118
-0.000532184
0.103642
-0.000385007
0.135578
0.244954
-0.0139506
0.119802
0.0150657
-0.0121059
0.113067
-0.00986267
0.108844
-0.00753636
0.104389
-0.00524564
0.100672
-0.00309051
0.0978039
-0.00120254
0.0965238
-8.88073e-05
0.102528
5.28941e-05
0.135436
0.245007
-0.0118131
0.118983
0.0126321
-0.0103011
0.111555
-0.00834521
0.106888
-0.00629508
0.102339
-0.00425594
0.0986331
-0.00232636
0.0958744
-0.000636578
0.0948341
0.000402732
0.101489
0.000499405
0.13534
0.245506
-0.00979818
0.118408
0.0103725
-0.00860201
0.110359
-0.00691403
0.1052
-0.00511954
0.100545
-0.00331694
0.0968305
-0.00159892
0.0941563
-9.23975e-05
0.0933275
0.000867534
0.100529
0.000956319
0.135251
0.246463
-0.00789944
0.118028
0.00827975
-0.00699677
0.109456
-0.00555829
0.103762
-0.0040022
0.0989886
-0.00242331
0.0952516
-0.000906837
0.0926399
0.000429013
0.0919917
0.00131719
0.0996407
0.00141605
0.135152
0.247879
-0.00613205
0.117803
0.00635665
-0.00549128
0.108816
-0.00428444
0.102555
-0.0029514
0.0976556
-0.00158155
0.0938818
-0.000249401
0.0913077
0.000920904
0.0908214
0.00175444
0.0988072
0.00187223
0.135034
0.249751
-0.00449691
0.117708
0.00459227
-0.00407898
0.108398
-0.00309383
0.10157
-0.00197175
0.0965335
-0.000796558
0.0927066
0.000354303
0.0901568
0.00137907
0.0897966
0.00217101
0.0980153
0.00231933
0.134886
0.25207
-0.00299165
0.117728
0.00297204
-0.00274998
0.108156
-0.00198864
0.100808
-0.00106726
0.0956121
-6.48715e-05
0.0917042
0.00090536
0.0891866
0.00179946
0.0889025
0.00256069
0.097254
0.00274914
0.134698
0.25482
-0.00164619
0.117888
0.0014859
-0.00150331
0.108013
-0.000977095
0.100282
-0.000239988
0.094875
0.000569624
0.0908946
0.00140214
0.0883541
0.00217885
0.0881258
0.00291966
0.0965132
0.00315514
0.134462
0.257975
-0.000437717
0.118321
4.48936e-06
-0.000328658
0.107904
-7.70915e-05
0.100031
0.000498139
0.0942998
0.00114519
0.0902475
0.00184198
0.0876573
0.00251478
0.087453
0.00324602
0.095782
0.00352876
0.134179
0.261503
0.000687239
0.118824
-0.00118985
0.000731197
0.10786
0.000788915
0.0999729
0.00115803
0.0939306
0.00164683
0.0897587
0.00222144
0.0870827
0.00280604
0.0868684
0.00353838
0.0950496
0.00385804
0.13386
0.265361
0.00203041
0.119359
-0.00256613
0.00182272
0.108068
0.00160069
0.100195
0.00175868
0.0937727
0.00208467
0.0894327
0.00254401
0.0866234
0.0030564
0.086356
0.00380611
0.0942999
0.00414682
0.133519
0.269508
0.0025108
0.120289
-0.00344032
0.00250584
0.108073
0.00217651
0.100524
0.00218709
0.0937621
0.00239595
0.0892239
0.0027738
0.0862455
0.00324132
0.0858885
0.00401951
0.0935217
0.00438091
0.133158
0.273889
-0.0868794
0.101774
0.105395
-0.0665951
0.0877886
-0.0530534
0.0869825
-0.0400269
0.0807356
-0.0286139
0.0778108
-0.0181525
0.0757841
-0.00924382
0.0769799
-0.00241048
0.0866884
0.00045855
0.130289
0.274348
-0.091999
0.0861042
0.107669
-0.0732413
0.0690309
-0.0587369
0.072478
-0.0441821
0.0661809
-0.0315058
0.0651345
-0.0194954
0.0637737
-0.009281
0.0667654
-0.00208795
0.0794953
0.000171321
0.128029
0.274519
-0.0926511
0.0680962
0.110659
-0.0770797
0.0534595
-0.0620167
0.057415
-0.0470248
0.0511889
-0.0334923
0.0516021
-0.0206011
0.0508826
-0.00969584
0.0558601
-0.00238487
0.0721844
-8.27146e-05
0.125727
0.274436
-0.0943755
0.0509054
0.111566
-0.0799165
0.0390005
-0.064322
0.0418206
-0.0492624
0.0361292
-0.0347655
0.0371052
-0.0215464
0.0376634
-0.0103111
0.0446249
-0.00267133
0.0645446
1.08749e-05
0.123045
0.274447
-0.0961219
0.0338377
0.11319
-0.0822106
0.0250892
-0.0666496
0.0262596
-0.051385
0.0208646
-0.0359683
0.0216885
-0.0228356
0.0245308
-0.0118873
0.0336766
-0.00452989
0.0571872
-0.00101478
0.11953
0.273432
-0.0994425
0.0191729
0.114107
-0.0854534
0.0111001
-0.0695034
0.0103096
-0.0533575
0.00471869
-0.0372306
0.0055616
-0.0241601
0.0114602
-0.0139604
0.0234769
-0.00746774
0.0506945
-0.00363677
0.115699
0.269796
-0.103675
0.00535754
0.117491
-0.0902573
-0.00231788
-0.0739292
-0.00601852
-0.0572484
-0.0119621
-0.0416452
-0.0100416
-0.0298468
-0.000338193
-0.0218737
0.0155038
-0.0180294
0.0468503
-0.0125691
0.110238
0.257227
-0.112246
-0.00514755
0.122751
-0.100747
-0.0138166
-0.0868114
-0.0199543
-0.0741492
-0.0246243
-0.0637997
-0.020391
-0.0547678
-0.00937011
-0.0476637
0.00839962
-0.0423859
0.0415725
-0.0317245
0.0995771
0.225502
-0.12694
-0.00989442
0.131687
-0.123166
-0.0175908
-0.120185
-0.0229352
-0.121768
-0.0230421
-0.126645
-0.0155132
-0.131101
-0.00491445
-0.130643
0.0079411
-0.117477
0.0284073
-0.0819642
0.0640641
0.143538
-0.159955
0.15006
-0.177545
-0.200481
-0.223523
-0.239036
-0.24395
-0.236009
-0.207602
-0.143538
0.00173725
0.108673
-0.00501571
-0.000478638
0.109884
-0.00166144
0.111842
-0.00274913
0.112654
-0.00373487
0.114175
-0.00466888
0.115041
-0.00530825
0.11813
-0.00543745
0.12288
-0.00431353
0.130563
0.145747
0.0031501
0.112525
-0.00700208
0.000650206
0.112384
-0.000925311
0.113417
-0.00218399
0.113913
-0.00325867
0.11525
-0.0041902
0.115973
-0.0047913
0.118731
-0.00486171
0.122951
-0.0037612
0.129463
0.141985
0.00488289
0.116572
-0.00892985
0.00219489
0.115072
0.000142074
0.11547
-0.00128125
0.115336
-0.00245759
0.116426
-0.00343128
0.116947
-0.0040426
0.119342
-0.00412208
0.12303
-0.00316423
0.128505
0.138821
0.0066023
0.120819
-0.0108492
0.00370149
0.117973
0.00153104
0.117641
-0.000295637
0.117163
-0.00150425
0.117635
-0.00254283
0.117985
-0.00319377
0.119993
-0.00334511
0.123181
-0.00257886
0.127739
0.136242
0.0083113
0.125301
-0.0127938
0.00519335
0.121091
0.00286694
0.119967
0.000951437
0.119078
-0.000471352
0.119058
-0.00156074
0.119075
-0.00227235
0.120705
-0.00254136
0.12345
-0.00200891
0.127206
0.134233
0.0100942
0.129972
-0.0147649
0.00675009
0.124435
0.00426897
0.122448
0.00228376
0.121063
0.000764225
0.120577
-0.00051014
0.120349
-0.00129327
0.121488
-0.00171912
0.123876
-0.00145598
0.126943
0.132777
0.0119598
0.134755
-0.0167425
0.00840011
0.127995
0.00576683
0.125081
0.00369071
0.123139
0.00210398
0.122164
0.000723298
0.12173
-0.000277692
0.122489
-0.000885615
0.124484
-0.000920177
0.126978
0.131857
0.0138834
0.139562
-0.0186904
0.0101342
0.131744
0.00735312
0.127863
0.00517928
0.125313
0.0034957
0.123848
0.00202212
0.123203
0.000854346
0.123657
-7.07443e-05
0.125409
-0.000400832
0.127308
0.131456
0.015836
0.144278
-0.0205518
0.0119375
0.135643
0.00901008
0.13079
0.00673105
0.127592
0.00493362
0.125645
0.00333535
0.124801
0.00197561
0.125017
0.000863411
0.126521
0.00011941
0.128052
0.131576
0.0177843
-0.0222477
0.0137977
0.0107194
0.00832482
0.00639487
0.00466265
0.00309056
0.00172837
0.000617023
-0.000556345
-0.000813119
-0.00116561
-0.000763449
-0.00147688
-0.000103959
-0.00131382
0.000949077
-0.000592064
0.00233853
0.000707524
0.00402077
0.00254602
0.00593461
0.00480892
0.00800556
0.00726019
0.0101204
0.0119499
-0.000643942
-0.000169177
-0.00136965
-3.77416e-05
-0.00181722
0.000343611
-0.001818
0.000949855
-0.00128985
0.00181038
-0.000206154
0.00293707
0.00140346
0.004325
0.00346555
0.00594347
0.00585795
0.00772797
0.00933766
-0.000667459
0.000498282
-0.00138764
0.00068244
-0.00180458
0.000760548
-0.00175793
0.000903209
-0.0011746
0.00122706
-1.98545e-05
0.00178232
0.00170168
0.00260346
0.00397523
0.00366992
0.00677704
0.00492616
0.00615305
-0.000616665
0.00111495
-0.00119073
0.0012565
-0.00137391
0.000943736
-0.00101641
0.000545699
-5.31961e-05
0.000263847
0.00152513
0.000203992
0.00374493
0.000383671
0.00661402
0.000800827
0.0101602
0.00138001
0.00203749
-0.000493572
0.00160852
-0.000778909
0.00154184
-0.000521719
0.000686545
0.000410544
-0.000386564
0.00205481
-0.00138042
0.0044133
-0.0021545
0.00746914
-0.00267217
0.0112206
-0.00295061
0.0156691
-0.00306853
-0.00306315
-0.000310392
0.00191891
-0.000181788
0.00141323
0.000692567
-0.00018781
0.00241254
-0.00210653
0.00497034
-0.00393822
0.00830853
-0.00549269
0.012356
-0.00671969
0.017057
-0.00765153
0.0223398
-0.00835135
-0.00890981
-8.25683e-05
0.00200148
0.000553676
0.00077699
0.00216887
-0.001803
0.00479413
-0.00473179
0.00833488
-0.00747897
0.0126456
-0.00980341
0.0175767
-0.0116508
0.0230004
-0.0130752
0.028789
-0.0141399
-0.0150195
0.000173019
0.00182846
0.0013785
-0.000428489
0.00379398
-0.00421848
0.00732563
-0.00826344
0.0117467
-0.0119
0.0168022
-0.0148589
0.0222666
-0.0171152
0.0279586
-0.0187672
0.0337389
-0.0199202
-0.0208041
0.000442784
0.00138567
0.00225107
-0.00223678
0.00545581
-0.00742321
0.0097738
-0.0125814
0.0148159
-0.0169421
0.0202285
-0.0202715
0.0257469
-0.0226336
0.031192
-0.0242123
0.0364583
-0.0251865
-0.0258111
0.000725015
0.00066066
0.00313628
-0.00464804
0.00704094
-0.0113279
0.0119113
-0.0174518
0.0172074
-0.0222383
0.0225327
-0.0255968
0.0276499
-0.0277508
0.032443
-0.0290054
0.0368739
-0.0296174
-0.0298525
0.00102682
-0.00036616
0.00402128
-0.0076425
0.00846733
-0.0157739
0.0135795
-0.022564
0.0187364
-0.0273951
0.0235853
-0.0304457
0.0279839
-0.0321494
0.0319123
-0.0329338
0.0354014
-0.0331066
-0.0329279
0.00133555
-0.00170171
0.00482583
-0.0111328
0.00956594
-0.020514
0.0145745
-0.0275725
0.0192568
-0.0320774
0.023382
-0.0345709
0.0269316
-0.035699
0.0299679
-0.0359702
0.0325585
-0.0356972
-0.0351137
0.00164314
-0.00334485
0.00549825
-0.0149879
0.0102543
-0.0252701
0.0148587
-0.0321769
0.0188479
-0.0360667
0.0221489
-0.0378719
0.0248493
-0.0383993
0.0270521
-0.038173
0.0288202
-0.0374653
-0.0364726
0.00192991
-0.00527475
0.00597371
-0.0190317
0.0104786
-0.029775
0.0144663
-0.0361646
0.0176655
-0.0392659
0.0201477
-0.0403542
0.0220624
-0.040314
0.023511