/*--------------------------------*- C++ -*----------------------------------*\
  =========                 |
  \\      /  F ield         | OpenFOAM: The Open Source CFD Toolbox
   \\    /   O peration     | Website:  https://openfoam.org
    \\  /    A nd           | Version:  7
     \\/     M anipulation  |
\*---------------------------------------------------------------------------*/
FoamFile
{
    version     2.0;
    format      ascii;
    class       volVectorField;
    location    "12";
    object      U;
}
// * * * * * * * * * * * * * * * * * * * * * * * * * * * * * * * * * * * * * //

dimensions      [0 1 -1 0 0 0 0];

internalField   nonuniform List<vector> 
2000
(
(0.0042988 0.000828108 -1.02208e-21)
(0.023525 0.0531774 0)
(0.0590539 0.127972 0)
(0.0976968 0.208538 -5.92346e-21)
(0.13287 0.282276 2.35136e-21)
(0.160012 0.341768 4.92675e-22)
(0.177695 0.384743 -4.14524e-21)
(0.186792 0.412416 0)
(0.188903 0.427724 0)
(0.187884 0.433734 0)
(0.00435792 -0.00489322 0)
(0.0178801 0.0373463 -4.43371e-21)
(0.0442396 0.104224 4.08779e-21)
(0.074313 0.18044 8.01077e-21)
(0.103643 0.254346 0)
(0.128198 0.31783 8.63176e-21)
(0.145917 0.367004 -8.0265e-21)
(0.156695 0.401479 0)
(0.161192 0.423031 1.90748e-20)
(0.162291 0.43434 -3.7283e-20)
(0.00517716 -0.00971342 0)
(0.014546 0.0233206 3.68045e-20)
(0.0330183 0.0819518 0)
(0.0548847 0.152262 3.30485e-20)
(0.0776249 0.224002 0)
(0.09818 0.289198 -3.20329e-20)
(0.114427 0.342974 0)
(0.125641 0.383543 3.55818e-20)
(0.131744 0.411414 -3.3325e-20)
(0.134301 0.428598 -3.50432e-20)
(0.00647584 -0.0136076 -9.65863e-21)
(0.0128368 0.0112483 -1.81774e-20)
(0.0246529 0.0616408 -8.71508e-21)
(0.0390865 0.124996 -1.59841e-20)
(0.0551356 0.192578 -1.57622e-20)
(0.0708135 0.257138 1.54004e-20)
(0.0843375 0.313469 1.54675e-20)
(0.0947347 0.358799 -1.83279e-21)
(0.101498 0.392471 3.22426e-20)
(0.104589 0.415541 3.50482e-20)
(0.00795022 -0.0165325 -9.89869e-21)
(0.012032 0.00118708 -1.95008e-20)
(0.0182628 0.0435321 -3.71184e-20)
(0.0262553 0.0993106 1.68837e-20)
(0.036055 0.161211 0)
(0.0465911 0.222994 0)
(0.0565959 0.279663 -3.3253e-20)
(0.0651433 0.32794 -3.37388e-20)
(0.0716218 0.36631 3.25493e-20)
(0.0741689 0.394557 1.02214e-19)
(0.00927402 -0.0184381 1.04198e-20)
(0.0114282 -0.00688385 1.02138e-20)
(0.0129557 0.0276611 -5.75437e-20)
(0.0155632 0.075541 8.89232e-20)
(0.0199241 0.130704 -1.64389e-20)
(0.0256102 0.18797 0)
(0.0318472 0.242878 0)
(0.0379251 0.292071 1.63046e-19)
(0.0433637 0.33359 -1.61732e-19)
(0.0443745 0.365653 3.31927e-20)
(0.0101104 -0.0192822 8.7608e-20)
(0.0104013 -0.0130376 0)
(0.00796317 0.0139429 7.57913e-20)
(0.00622551 0.0537834 -7.11348e-20)
(0.00615494 0.10154 0)
(0.00768688 0.15301 3.406e-20)
(0.0104115 0.204384 -9.75684e-20)
(0.0138973 0.252526 -1.31008e-19)
(0.017894 0.295423 6.24233e-20)
(0.0166942 0.329439 6.46992e-20)
(0.0101382 -0.0190506 -1.78436e-19)
(0.00847314 -0.0173758 -2.13871e-20)
(0.00275713 0.00227498 -4.08019e-20)
(-0.00231096 0.0340668 -9.41779e-20)
(-0.00573049 0.0740416 -3.61352e-20)
(-0.00742868 0.118849 -3.60922e-20)
(-0.00760362 0.165323 -1.97979e-21)
(-0.00639947 0.210701 0)
(-0.00383591 0.253173 0)
(-0.00720688 0.287281 -2.3593e-21)
(0.00909593 -0.0177873 9.08306e-20)
(0.00537351 -0.0200097 -8.87571e-20)
(-0.00286958 -0.00735635 5.98915e-20)
(-0.0102286 0.0165452 1.33891e-19)
(-0.0158899 0.0486217 -3.61184e-20)
(-0.0198029 0.0862555 3.36054e-20)
(-0.0220875 0.126847 3.419e-20)
(-0.0226271 0.168057 0)
(-0.0211142 0.208308 0)
(-0.0257455 0.240502 3.18507e-21)
(0.0068369 -0.0156169 -1.18984e-20)
(0.00109774 -0.0210446 1.11422e-19)
(-0.00874977 -0.0148182 -2.08831e-20)
(-0.0172657 0.00165152 0)
(-0.024014 0.0260607 0)
(-0.0290965 0.0563986 7.22601e-20)
(-0.0326702 0.0905263 0)
(-0.0344834 0.126391 -7.22271e-20)
(-0.0335629 0.162254 -2.79415e-21)
(-0.0356071 0.190349 6.68439e-20)
(0.169588 0.429493 1.82827e-21)
(0.137809 0.403602 -1.86163e-21)
(0.107414 0.386349 -2.13614e-21)
(0.0896557 0.374443 -2.26531e-21)
(0.0678724 0.367038 -2.41846e-21)
(0.0588182 0.363888 -3.20878e-24)
(0.0370881 0.363941 1.23161e-21)
(0.0313208 0.367444 3.84543e-21)
(0.00965374 0.370856 0)
(0.00788383 0.378904 -2.63484e-21)
(0.153892 0.43594 5.81467e-21)
(0.128463 0.411836 -8.06877e-21)
(0.101437 0.393552 1.44458e-20)
(0.085898 0.380049 2.26933e-21)
(0.0660423 0.371645 4.6205e-21)
(0.0584878 0.368148 7.22746e-21)
(0.0380789 0.368133 -2.50451e-21)
(0.032757 0.371349 -2.55785e-21)
(0.0114685 0.374562 5.08686e-21)
(0.00857983 0.381683 2.62872e-21)
(0.136402 0.439106 0)
(0.118705 0.418788 -7.46451e-21)
(0.0956291 0.400251 -4.1896e-21)
(0.082308 0.385184 0)
(0.0642423 0.375774 -1.39071e-20)
(0.0580227 0.371971 4.55595e-21)
(0.038858 0.37197 4.71538e-21)
(0.0339642 0.375072 1.47243e-20)
(0.0130643 0.378273 -5.07033e-21)
(0.00917565 0.384726 1.00691e-20)
(0.117124 0.437994 0)
(0.108409 0.423943 7.53005e-21)
(0.0899289 0.406218 0)
(0.078892 0.389829 1.75312e-20)
(0.0625022 0.379465 -1.7618e-20)
(0.0574268 0.375377 -9.35566e-21)
(0.0394074 0.37544 -1.86695e-22)
(0.0349369 0.378592 -1.45009e-20)
(0.0144572 0.381994 -2.42654e-21)
(0.00969248 0.38805 -1.24714e-20)
(0.0961874 0.431819 5.2188e-21)
(0.0976196 0.427304 -1.89519e-20)
(0.0843896 0.411567 1.11801e-21)
(0.075729 0.394127 -1.64247e-20)
(0.0608928 0.382862 0)
(0.0567271 0.378469 -9.1676e-21)
(0.0397151 0.378612 -1.59621e-22)
(0.0356287 0.381906 1.89179e-20)
(0.0155713 0.385631 2.39123e-21)
(0.0101012 0.391459 -2.40051e-21)
(0.0739917 0.419336 -4.77797e-20)
(0.0861495 0.427702 3.39871e-20)
(0.0787491 0.415489 1.61557e-20)
(0.072786 0.397828 -1.61384e-20)
(0.0594785 0.385909 -8.53446e-21)
(0.0559896 0.381174 0)
(0.0398299 0.381394 -1.81231e-20)
(0.0361499 0.384987 9.01117e-21)
(0.0166004 0.389312 9.24456e-21)
(0.0104967 0.395241 9.24133e-21)
(0.0510271 0.401205 -6.10589e-21)
(0.0745686 0.426753 0)
(0.0732907 0.418851 0)
(0.0702108 0.401427 0)
(0.058355 0.388963 -8.66164e-21)
(0.0552833 0.383866 1.71659e-20)
(0.0397334 0.384087 1.79044e-20)
(0.0362322 0.38784 -2.68613e-20)
(0.0170416 0.392601 4.51754e-21)
(0.0106521 0.39856 -1.36294e-20)
(0.0279998 0.374629 3.46203e-20)
(0.0617793 0.420333 2.96845e-20)
(0.0670367 0.418998 -2.9385e-20)
(0.0677252 0.403896 3.30634e-20)
(0.057487 0.391382 -4.10036e-20)
(0.0546853 0.385887 0)
(0.0396779 0.386152 -8.5825e-21)
(0.0367093 0.39054 1.75777e-22)
(0.0182223 0.396455 -8.65395e-21)
(0.011132 0.403131 -8.63601e-21)
(0.00628884 0.347861 -2.95288e-20)
(0.0507377 0.416332 0)
(0.0615722 0.42011 -3.53909e-20)
(0.0658462 0.407075 6.38776e-20)
(0.0571797 0.394632 -2.39477e-20)
(0.0544104 0.388978 -4.15178e-21)
(0.0392535 0.388873 8.56405e-21)
(0.0355352 0.392735 5.33862e-23)
(0.0169428 0.398486 1.27468e-20)
(0.0106382 0.40501 1.26948e-20)
(-0.0153904 0.303731 -2.69031e-20)
(0.0347958 0.39751 2.61503e-20)
(0.0531329 0.414258 3.70216e-21)
(0.0629158 0.407274 0)
(0.0562256 0.395378 0)
(0.0539132 0.389375 4.03314e-21)
(0.03993 0.389847 1.62217e-20)
(0.0383071 0.395886 -1.59361e-20)
(0.021039 0.404326 -3.98859e-21)
(0.012124 0.412697 3.92385e-21)
(-0.049616 0.26865 0)
(0.0189149 0.387318 0)
(0.0414334 0.412884 0)
(0.0620156 0.414327 0)
(0.0619761 0.407945 0)
(0.0573885 0.403967 0)
(0.0343899 0.399142 0)
(0.0196273 0.395282 0)
(-0.000247093 0.396719 0)
(0.0051778 0.40205 0)
(-0.0243546 0.261132 0)
(0.00648003 0.336223 0)
(0.018087 0.378556 0)
(0.0405461 0.393258 0)
(0.0382607 0.393782 0)
(0.0440342 0.400543 0)
(0.0419647 0.413189 0)
(0.0477497 0.426507 0)
(0.0269624 0.436314 0)
(0.0131674 0.443549 0)
(0.077557 0.33532 0)
(0.0473708 0.340049 0)
(0.0330838 0.36515 0)
(0.0537976 0.392923 0)
(0.0608583 0.411234 0)
(0.0578909 0.41781 0)
(0.0305755 0.415665 0)
(0.0196545 0.418003 0)
(0.00514125 0.414678 0)
(0.00566642 0.409659 0)
(0.180085 0.407644 0)
(0.134191 0.387511 0)
(0.0918479 0.371261 0)
(0.0689431 0.365104 0)
(0.0574907 0.380228 0)
(0.0730974 0.411507 0)
(0.0716048 0.434538 0)
(0.0662137 0.454281 0)
(0.0447196 0.468569 0)
(0.0214928 0.478377 0)
(0.249432 0.45771 0)
(0.211614 0.44585 0)
(0.177516 0.433132 0)
(0.153436 0.425484 0)
(0.114316 0.419431 0)
(0.0831266 0.422074 0)
(0.0524703 0.430132 0)
(0.0406155 0.437142 0)
(0.0248853 0.444574 0)
(0.0156067 0.456271 0)
(0.288051 0.473615 0)
(0.262846 0.467787 0)
(0.217088 0.439215 0)
(0.183507 0.424152 0)
(0.156797 0.433774 0)
(0.141458 0.454029 0)
(0.111238 0.475295 0)
(0.0865806 0.496158 0)
(0.050107 0.514146 0)
(0.0219667 0.534666 0)
(0.304359 0.485699 0)
(0.306014 0.516811 0)
(0.285429 0.517506 0)
(0.245631 0.496788 0)
(0.187197 0.477442 0)
(0.145775 0.474268 0)
(0.103656 0.477654 0)
(0.0762366 0.485697 0)
(0.0391448 0.49557 0)
(0.0155548 0.51255 0)
(0.301024 0.450151 0)
(0.298933 0.483982 0)
(0.283893 0.499278 0)
(0.272735 0.512519 0)
(0.238844 0.522003 0)
(0.204682 0.537506 0)
(0.15805 0.555279 0)
(0.118819 0.573852 0)
(0.0683943 0.589317 0)
(0.024636 0.603643 0)
(0.304994 0.453117 0)
(0.335666 0.53654 0)
(0.315163 0.555943 0)
(0.286194 0.552786 0)
(0.241654 0.546237 0)
(0.201353 0.546903 0)
(0.152139 0.554725 0)
(0.111571 0.567018 0)
(0.0654793 0.580152 0)
(0.0254357 0.591714 0)
(0.236499 0.314441 0)
(0.305915 0.456641 0)
(0.32436 0.541078 0)
(0.321299 0.586099 0)
(0.289374 0.611584 0)
(0.252427 0.631531 0)
(0.198823 0.651526 0)
(0.148027 0.670282 0)
(0.0872675 0.687516 0)
(0.0331471 0.703763 0)
(-0.0464207 0.17441 2.8767e-20)
(0.0500495 0.248059 -2.79221e-20)
(0.161459 0.346348 3.03135e-21)
(0.238843 0.413552 0)
(0.280264 0.450154 0)
(0.298284 0.452284 1.50763e-21)
(0.298191 0.444267 -3.89773e-21)
(0.279207 0.388306 3.83808e-21)
(0.250279 0.34736 2.02846e-22)
(0.181886 0.201771 -1.99444e-22)
(-0.0142483 0.152024 -3.22883e-20)
(0.099195 0.2625 0)
(0.196686 0.364594 1.83346e-20)
(0.256436 0.423424 -3.8254e-20)
(0.284925 0.448198 2.07299e-20)
(0.29441 0.440532 -1.53061e-21)
(0.285521 0.419143 2.175e-21)
(0.260663 0.353805 2.57131e-21)
(0.225136 0.30315 -1.42048e-22)
(0.159745 0.15815 -2.96084e-22)
(0.0294916 0.157485 3.83503e-20)
(0.14596 0.289312 -2.37205e-20)
(0.224452 0.38203 2.35045e-20)
(0.268634 0.42724 -1.61226e-20)
(0.286832 0.439918 1.22879e-20)
(0.288397 0.422576 0)
(0.272048 0.389383 -2.1798e-21)
(0.241481 0.316358 -8.96593e-23)
(0.199231 0.256429 -8.22435e-22)
(0.137282 0.114712 1.16906e-22)
(0.083297 0.188279 -6.52714e-21)
(0.188767 0.318497 0)
(0.247103 0.39517 0)
(0.276253 0.425998 0)
(0.284445 0.426649 9.23965e-21)
(0.278009 0.399234 -5.96024e-21)
(0.254317 0.354356 2.79164e-22)
(0.218495 0.274615 -9.66776e-22)
(0.17226 0.208057 -1.47195e-22)
(0.115458 0.0727184 3.41841e-22)
(0.141734 0.231356 5.09346e-23)
(0.223804 0.34406 -1.82295e-20)
(0.262641 0.402178 -8.56186e-21)
(0.278708 0.41859 8.55517e-21)
(0.278097 0.407399 -3.23362e-21)
(0.264082 0.36995 0)
(0.23387 0.314555 -1.93171e-21)
(0.193718 0.229954 2.25363e-21)
(0.145452 0.159142 -9.83329e-22)
(0.0946692 0.0334291 -1.98359e-22)
(0.195175 0.274769 -4.41049e-20)
(0.249476 0.362523 7.22658e-21)
(0.271505 0.40197 1.63731e-21)
(0.276653 0.404821 7.94623e-21)
(0.26793 0.382276 0)
(0.246692 0.33521 0)
(0.210813 0.270794 0)
(0.1675 0.183323 1.13022e-21)
(0.119202 0.110673 0)
(0.0725941 -0.0019232 0)
(0.237555 0.311073 0)
(0.266187 0.372243 1.34745e-20)
(0.274306 0.394321 -8.86624e-21)
(0.270304 0.384641 -6.0277e-21)
(0.254162 0.351374 6.05785e-21)
(0.226337 0.295511 1.88783e-21)
(0.185933 0.224029 -2.11566e-21)
(0.140884 0.135953 -4.02276e-21)
(0.0941529 0.0642006 3.80235e-22)
(0.0558541 -0.0327057 1.77834e-22)
(0.266822 0.336133 0)
(0.275069 0.372895 -4.6128e-21)
(0.27194 0.379484 -1.79711e-21)
(0.260114 0.358288 0)
(0.2372 0.315179 1.03648e-21)
(0.203619 0.251762 -3.23401e-21)
(0.160005 0.175466 2.22796e-21)
(0.114816 0.0891739 4.26647e-22)
(0.0712935 0.0212369 -3.18917e-22)
(0.0416235 -0.0588844 -1.11354e-22)
(0.284044 0.348947 4.57212e-21)
(0.277544 0.365122 3.75767e-21)
(0.265233 0.358019 -1.16746e-21)
(0.246507 0.326237 6.90003e-22)
(0.21755 0.274431 1.21396e-21)
(0.179282 0.205068 1.41446e-21)
(0.133917 0.126391 -3.4662e-22)
(0.090255 0.0442352 -2.39638e-22)
(0.0514552 -0.0174409 3.19958e-22)
(0.0297424 -0.0808379 5.42276e-24)
(0.291854 0.350914 -9.80355e-22)
(0.274882 0.349948 1.00375e-21)
(0.254915 0.330607 -8.29731e-22)
(0.230068 0.289225 -6.88844e-22)
(0.195902 0.230147 4.86117e-22)
(0.154181 0.156716 -9.39882e-22)
(0.108551 0.0781171 4.8835e-22)
(0.0678972 0.00222 9.69653e-23)
(0.0350703 -0.0513153 0)
(0.0202617 -0.0990792 -5.43295e-24)
(0.292815 0.344167 9.10424e-22)
(0.268108 0.328334 -9.3147e-22)
(0.241739 0.298063 -7.17728e-22)
(0.211535 0.248244 -5.96248e-22)
(0.173083 0.183535 -4.52656e-22)
(0.12924 0.10805 6.50059e-23)
(0.0847432 0.0319081 1.72406e-22)
(0.0483159 -0.035915 3.52857e-22)
(0.0222028 -0.0800407 0)
(0.0131802 -0.114069 -2.5544e-23)
(0.288724 0.33039 0)
(0.258067 0.301163 -3.01154e-21)
(0.226488 0.261386 5.09846e-21)
(0.191735 0.20449 5.9705e-22)
(0.149994 0.135895 9.10063e-22)
(0.105362 0.060379 1.12754e-21)
(0.0632374 -0.01115 -3.06102e-22)
(0.0319504 -0.0695434 -2.17589e-22)
(0.0126425 -0.103714 2.64596e-22)
(0.00822368 -0.126386 2.54794e-23)
(0.280735 0.310725 0)
(0.245516 0.269426 -3.00497e-21)
(0.20988 0.221749 -1.34838e-21)
(0.17145 0.15925 0)
(0.127511 0.0885047 -2.50146e-21)
(0.0832469 0.0148693 8.65237e-22)
(0.0445694 -0.0502622 6.2132e-22)
(0.0189906 -0.0984148 1.29673e-21)
(0.00603712 -0.122822 -2.63732e-22)
(0.00498112 -0.136701 1.34538e-22)
(0.26968 0.286162 0)
(0.231214 0.234282 3.02925e-21)
(0.192606 0.180382 0)
(0.151416 0.113742 3.69445e-21)
(0.106392 0.042517 -3.71414e-21)
(0.0633416 -0.0275082 -1.21675e-21)
(0.0290587 -0.0849469 1.17348e-22)
(0.00939086 -0.122605 -1.26656e-21)
(0.00192792 -0.138123 -2.44701e-22)
(0.00301002 -0.145691 -2.13522e-22)
(0.25635 0.257773 2.56761e-20)
(0.21603 0.196987 -9.85279e-21)
(0.175435 0.138457 -9.23556e-22)
(0.132309 0.0690455 -4.32602e-21)
(0.0869667 -0.00113071 0)
(0.0460944 -0.0661336 -1.17196e-21)
(0.0168211 -0.115029 2.66701e-22)
(0.00287338 -0.14249 1.6925e-21)
(-0.000232759 -0.150523 7.85911e-23)
(0.00189696 -0.153974 -7.84896e-23)
(0.241725 0.226753 1.46948e-21)
(0.20096 0.158781 1.49111e-20)
(0.159137 0.0970284 4.1847e-21)
(0.114506 0.026119 -4.18335e-21)
(0.0696388 -0.0416906 -1.50394e-21)
(0.031837 -0.100608 0)
(0.00772647 -0.140569 -1.90438e-21)
(-0.000933782 -0.158684 1.02999e-21)
(-0.00103546 -0.160969 6.16431e-22)
(0.00130056 -0.162077 1.44207e-22)
(0.226892 0.194352 -3.19143e-21)
(0.186695 0.120831 0)
(0.144019 0.0570504 0)
(0.0983574 -0.0143439 0)
(0.0547999 -0.0787814 -1.21388e-21)
(0.0204697 -0.130783 2.71513e-21)
(0.00149415 -0.161898 1.89433e-21)
(-0.00283439 -0.171942 -2.38251e-21)
(-0.00102658 -0.170329 1.53087e-22)
(0.000972802 -0.170426 -2.94246e-22)
(0.211888 0.162004 -7.20985e-21)
(0.172587 0.0841981 1.02696e-20)
(0.129856 0.0191977 -1.01781e-20)
(0.0842212 -0.0519443 6.61565e-21)
(0.0425523 -0.112167 -8.02263e-21)
(0.0118368 -0.15672 0)
(-0.0022956 -0.179416 -1.00096e-21)
(-0.00350017 -0.183078 6.49255e-25)
(-0.000615373 -0.17945 -4.59945e-22)
(0.000757894 -0.17935 -1.43716e-22)
(0.195513 0.131774 -3.3767e-21)
(0.157853 0.04946 0)
(0.116405 -0.0163755 -9.56846e-21)
(0.0721423 -0.0865813 1.49305e-20)
(0.0330159 -0.141825 -5.08749e-21)
(0.0057578 -0.178605 -6.05099e-22)
(-0.00447131 -0.193668 9.98698e-22)
(-0.00322194 -0.192888 1.39656e-22)
(-0.00010651 -0.18894 8.98795e-22)
(0.000579153 -0.189071 2.88857e-22)
(0.183717 0.105573 -1.37957e-20)
(0.14691 0.016905 1.34134e-20)
(0.104933 -0.0497582 1.25139e-21)
(0.0616627 -0.118514 0)
(0.025691 -0.167923 0)
(0.00215838 -0.196561 6.2234e-22)
(-0.00562231 -0.205205 1.80463e-21)
(-0.0027829 -0.202173 -1.7724e-21)
(0.000261413 -0.199196 -1.52216e-22)
(0.00043822 -0.1997 1.48831e-22)
(0.191229 0.0491997 0)
(0.139952 -0.0513262 0)
(0.0861571 -0.121396 0)
(0.0346334 -0.188007 0)
(0.00413368 -0.223 0)
(-0.0063788 -0.231195 0)
(-0.00519813 -0.22742 0)
(-0.000168757 -0.224775 0)
(0.00132316 -0.22632 0)
(1.97813e-05 -0.227066 0)
(0.0780881 -0.204441 0)
(0.00188945 -0.304862 0)
(-0.00198799 -0.302577 0)
(-0.00173215 -0.316671 0)
(0.00623879 -0.301839 0)
(0.00432297 -0.292949 0)
(0.000389847 -0.284808 0)
(-0.00154098 -0.285587 0)
(-0.000525736 -0.287679 0)
(1.19214e-05 -0.286479 0)
(0.0776114 -0.3129 0)
(0.0388415 -0.362209 0)
(0.0473232 -0.320414 0)
(0.0244928 -0.339556 0)
(0.0216237 -0.328094 0)
(0.00689957 -0.339173 0)
(0.000407052 -0.33652 0)
(-0.00180145 -0.337576 0)
(0.000880998 -0.336623 0)
(0.000411891 -0.336301 0)
(0.0391582 -0.36414 0)
(0.0270582 -0.396329 0)
(0.0288669 -0.371369 0)
(0.00759893 -0.401246 0)
(0.01337 -0.386223 0)
(-0.00120683 -0.401336 0)
(0.00239934 -0.391253 0)
(0.000537479 -0.393808 0)
(0.00211763 -0.390787 0)
(-8.93571e-05 -0.391613 0)
(0.0463015 -0.415788 0)
(0.0335856 -0.451138 0)
(0.0231709 -0.441912 0)
(0.00909065 -0.46328 0)
(0.0130263 -0.449734 0)
(0.000683723 -0.46317 0)
(0.00727837 -0.450552 0)
(-0.000217412 -0.459835 0)
(0.00285562 -0.453819 0)
(-0.000429714 -0.456459 0)
(0.0299583 -0.494269 0)
(0.0169232 -0.532952 0)
(0.0157172 -0.514824 0)
(0.010968 -0.532595 0)
(0.00924328 -0.520778 0)
(0.0014577 -0.533001 0)
(0.00598215 -0.524439 0)
(-0.00121505 -0.533709 0)
(0.00427943 -0.525248 0)
(-0.00131261 -0.530427 0)
(0.0230598 -0.587783 0)
(0.0168438 -0.622486 0)
(0.0144217 -0.599861 0)
(0.00696915 -0.625216 0)
(0.00582102 -0.60861 0)
(0.00253071 -0.62443 0)
(0.00397393 -0.614659 0)
(-0.000105933 -0.623013 0)
(0.00344016 -0.615878 0)
(-0.00191126 -0.621125 0)
(0.0177353 -0.71293 0)
(0.0117579 -0.745513 0)
(0.00958335 -0.725629 0)
(0.00605033 -0.748273 0)
(0.00499164 -0.731003 0)
(0.00146266 -0.749312 0)
(0.00257761 -0.736137 0)
(7.75624e-05 -0.747491 0)
(0.00181596 -0.738494 0)
(-0.00119058 -0.743624 0)
(0.0110011 -0.875483 0)
(0.00742361 -0.895396 0)
(0.00574336 -0.883603 0)
(0.00307439 -0.89987 0)
(0.00263889 -0.890999 0)
(0.00123371 -0.902574 0)
(0.00123942 -0.893072 0)
(0.000374833 -0.902375 0)
(0.000827983 -0.893799 0)
(-0.000922751 -0.90006 0)
(0.00284609 -1.00054 0)
(0.0018189 -1.01026 0)
(0.00172658 -1.00915 0)
(0.00114076 -1.01635 0)
(0.000558498 -1.01396 0)
(0.000715768 -1.01892 0)
(0.00109775 -1.0161 0)
(-0.000102526 -1.02057 0)
(-0.000473855 -1.01552 0)
(-0.000169032 -1.01887 0)
(0.181779 0.0348816 1.73366e-20)
(0.0892611 -0.207596 -1.76265e-20)
(0.0681895 -0.324735 2.2383e-21)
(0.0410575 -0.377949 0)
(0.0511605 -0.432483 0)
(0.0330197 -0.510691 2.30713e-21)
(0.025639 -0.60562 -9.54937e-21)
(0.0193767 -0.728161 9.53229e-21)
(0.0117718 -0.883933 2.48503e-21)
(0.00373265 -0.999345 -2.4819e-21)
(0.176243 0.0125379 -2.21939e-20)
(0.0935261 -0.217498 0)
(0.0641733 -0.328876 1.46775e-20)
(0.0423946 -0.381822 -3.32643e-20)
(0.0530261 -0.437363 2.08854e-20)
(0.0345077 -0.515344 -2.07457e-21)
(0.0268885 -0.610541 4.5106e-21)
(0.0201343 -0.732336 9.22203e-21)
(0.0120912 -0.884202 2.52075e-21)
(0.00410907 -0.996977 2.54132e-21)
(0.170047 -0.00613432 2.69655e-20)
(0.097116 -0.231492 -1.72449e-20)
(0.0614187 -0.335683 1.70729e-20)
(0.0449068 -0.386582 -1.74003e-20)
(0.0549968 -0.441772 1.29636e-20)
(0.0363723 -0.518723 0)
(0.0284277 -0.614233 -4.52191e-21)
(0.0213354 -0.735287 2.63702e-22)
(0.0126817 -0.882441 -4.77987e-21)
(0.00444806 -0.992735 -4.89908e-21)
(0.165586 -0.0192972 -4.32401e-21)
(0.0995419 -0.239612 0)
(0.059987 -0.341416 0)
(0.0486406 -0.392124 0)
(0.057291 -0.446051 1.38707e-20)
(0.0387011 -0.521313 -9.19274e-21)
(0.0302794 -0.617457 -3.99029e-24)
(0.0229707 -0.737801 -5.23634e-21)
(0.0136313 -0.881017 -2.73057e-21)
(0.00483732 -0.988602 -2.96641e-21)
(0.163764 -0.0291393 -1.38733e-21)
(0.101634 -0.242462 -1.35803e-20)
(0.0598382 -0.344372 -8.85737e-21)
(0.0532345 -0.397238 8.85213e-21)
(0.0599646 -0.449699 -4.6165e-21)
(0.0415145 -0.523124 0)
(0.0324153 -0.620127 -5.02794e-21)
(0.0248683 -0.739958 1.08333e-20)
(0.0148613 -0.880285 -5.55855e-21)
(0.00532322 -0.985251 5.76512e-21)
(0.164641 -0.0353231 -3.89247e-20)
(0.104428 -0.242254 5.13517e-21)
(0.0613046 -0.345352 -1.05057e-22)
(0.0584164 -0.401316 9.15054e-21)
(0.0629862 -0.452148 0)
(0.044794 -0.523921 0)
(0.0348118 -0.621899 0)
(0.0268819 -0.741439 5.80223e-21)
(0.0162594 -0.879627 0)
(0.00588852 -0.982396 0)
(0.168428 -0.0373404 0)
(0.108669 -0.239119 1.3959e-20)
(0.0646921 -0.345255 -9.27403e-21)
(0.064157 -0.404388 -9.91221e-21)
(0.0663772 -0.453163 9.96429e-21)
(0.0485185 -0.523498 5.47587e-21)
(0.0374744 -0.622522 -5.50079e-21)
(0.0289495 -0.74197 -2.07913e-20)
(0.017738 -0.87844 1.46937e-21)
(0.00648969 -0.979478 -5.09791e-21)
(0.175464 -0.0351576 0)
(0.114913 -0.232442 -4.69196e-21)
(0.0700643 -0.344041 -2.41637e-21)
(0.0705288 -0.406465 0)
(0.0702286 -0.452753 2.70983e-21)
(0.0526834 -0.521773 -8.31412e-21)
(0.0404387 -0.621855 8.81995e-21)
(0.0311087 -0.741364 3.05714e-21)
(0.0193074 -0.87633 -3.38204e-21)
(0.00710413 -0.976049 6.75775e-21)
(0.185881 -0.0289591 5.65089e-21)
(0.12369 -0.221904 4.88431e-21)
(0.0773487 -0.341154 -1.26853e-21)
(0.0775848 -0.407316 1.33456e-21)
(0.0746412 -0.450965 2.706e-21)
(0.0572971 -0.51877 4.34862e-21)
(0.0437512 -0.619858 -1.58569e-21)
(0.0334055 -0.739659 -1.67577e-21)
(0.0209879 -0.873321 3.39325e-21)
(0.00773256 -0.971973 1.85232e-21)
(0.199472 -0.0191968 -1.31674e-21)
(0.135426 -0.207325 1.32023e-21)
(0.0865151 -0.335987 -1.24612e-21)
(0.0853533 -0.406605 -1.33297e-21)
(0.0796876 -0.447779 1.47997e-21)
(0.0623692 -0.514526 -2.98736e-21)
(0.0474692 -0.616448 2.41725e-21)
(0.0359289 -0.736785 8.39453e-22)
(0.0228641 -0.86937 0)
(0.00839153 -0.967239 -1.85635e-21)
(0.21567 -0.00652444 1.37223e-21)
(0.150425 -0.188707 -1.37539e-21)
(0.0976686 -0.328004 -1.34311e-21)
(0.0938502 -0.404055 -1.44427e-21)
(0.0854111 -0.443152 -1.54781e-21)
(0.0679013 -0.509108 -7.08678e-23)
(0.051635 -0.61164 8.66175e-22)
(0.0386921 -0.732913 2.71108e-21)
(0.0249345 -0.864726 0)
(0.00909725 -0.962002 -2.03485e-21)
(0.233603 0.00811794 0)
(0.168745 -0.166341 -5.46054e-21)
(0.111181 -0.316498 9.65289e-21)
(0.103081 -0.399421 1.44684e-21)
(0.0918385 -0.437089 3.23905e-21)
(0.0738909 -0.502507 5.04174e-21)
(0.0563154 -0.60533 -1.73455e-21)
(0.0417971 -0.727802 -1.83287e-21)
(0.0272971 -0.859171 4.075e-21)
(0.00985808 -0.956225 2.03e-21)
(0.252339 0.0237136 0)
(0.190145 -0.140514 -5.85753e-21)
(0.127703 -0.300641 -2.8129e-21)
(0.11297 -0.392552 0)
(0.0989996 -0.429742 -1.00207e-20)
(0.0803296 -0.494821 3.41207e-21)
(0.0615119 -0.597706 3.7751e-21)
(0.0452131 -0.721741 1.1803e-20)
(0.0298659 -0.853051 -4.06185e-21)
(0.0106788 -0.950068 8.85252e-21)
(0.27095 0.0392216 0)
(0.213869 -0.11196 5.90646e-21)
(0.14801 -0.279842 0)
(0.123323 -0.383133 1.33436e-20)
(0.10694 -0.421174 -1.34113e-20)
(0.0872708 -0.485929 -7.46975e-21)
(0.0673521 -0.588606 -4.94974e-23)
(0.0491171 -0.713988 -1.21043e-20)
(0.0328053 -0.84581 -2.00935e-21)
(0.0115669 -0.943263 -1.10042e-20)
(0.28858 0.0536738 5.89905e-20)
(0.238741 -0.0819058 -2.11313e-20)
(0.172681 -0.253944 3.02628e-22)
(0.133961 -0.370536 -1.30957e-20)
(0.11563 -0.411646 0)
(0.0946916 -0.476174 -7.78819e-21)
(0.0737706 -0.578444 -4.40917e-22)
(0.0534056 -0.70541 1.65666e-20)
(0.0358436 -0.838269 2.28507e-21)
(0.0125121 -0.936134 -2.29314e-21)
(0.30462 0.0663715 4.2906e-21)
(0.263414 -0.0516442 3.57712e-20)
(0.20149 -0.223223 1.37621e-20)
(0.144987 -0.353916 -1.37589e-20)
(0.125037 -0.400949 -7.7622e-21)
(0.102839 -0.465078 0)
(0.0810798 -0.566121 -1.71562e-20)
(0.0584016 -0.694795 8.54132e-21)
(0.0393578 -0.829157 9.07482e-21)
(0.0135826 -0.928059 9.86355e-21)
(0.318725 0.0770283 -8.689e-21)
(0.286707 -0.0222585 0)
(0.232882 -0.188532 0)
(0.1573 -0.332782 0)
(0.134867 -0.389851 -8.36794e-21)
(0.111592 -0.453644 1.61036e-20)
(0.0887727 -0.553533 1.75009e-20)
(0.0636306 -0.684421 -2.72653e-20)
(0.0428452 -0.82041 4.91231e-21)
(0.0146676 -0.919915 -1.46348e-20)
(0.330775 0.0857465 -2.03393e-20)
(0.307837 0.00287592 3.07758e-20)
(0.264228 -0.151582 -3.05197e-20)
(0.172841 -0.306396 3.22566e-20)
(0.1456 -0.376508 -4.04012e-20)
(0.121812 -0.439648 0)
(0.0977513 -0.537896 -9.23974e-21)
(0.0699337 -0.670626 -3.94924e-22)
(0.0471023 -0.809067 -1.02014e-20)
(0.0160518 -0.910298 -1.04929e-20)
(0.339876 0.0909133 -9.64135e-21)
(0.326577 0.023571 0)
(0.293306 -0.113483 -3.66307e-20)
(0.193862 -0.27706 6.59803e-20)
(0.156065 -0.364354 -2.48883e-20)
(0.131703 -0.428108 -4.51703e-21)
(0.10638 -0.525155 9.2201e-21)
(0.076033 -0.659801 -4.97521e-22)
(0.0509923 -0.799775 1.48424e-20)
(0.017214 -0.901312 1.551e-20)
(0.345529 0.0923502 -4.17789e-20)
(0.343534 0.0406503 4.0167e-20)
(0.316862 -0.0757607 4.21923e-21)
(0.224234 -0.238078 0)
(0.169778 -0.343382 0)
(0.145767 -0.409607 4.37666e-21)
(0.117478 -0.505243 1.91328e-20)
(0.0842059 -0.641728 -1.84893e-20)
(0.0562725 -0.785527 -5.0029e-21)
(0.0191767 -0.889743 4.87163e-21)
(0.347633 0.112567 0)
(0.379075 0.0674322 0)
(0.347374 -0.0311959 0)
(0.27978 -0.189705 0)
(0.196185 -0.320956 0)
(0.16623 -0.399106 0)
(0.139376 -0.485588 0)
(0.100165 -0.622412 0)
(0.0662555 -0.765198 0)
(0.0215274 -0.867003 0)
(0.371611 0.0772391 0)
(0.401419 0.0498651 0)
(0.396068 -0.00528648 0)
(0.358971 -0.119328 0)
(0.276457 -0.256472 0)
(0.214428 -0.36714 0)
(0.176959 -0.459357 0)
(0.132694 -0.587927 0)
(0.085449 -0.722732 0)
(0.0320462 -0.814264 0)
(0.371589 0.0572287 0)
(0.402294 0.0357322 0)
(0.41396 0.000749815 0)
(0.408182 -0.0731338 0)
(0.356848 -0.183547 0)
(0.286937 -0.303589 0)
(0.228063 -0.415837 0)
(0.168893 -0.542609 0)
(0.104794 -0.671145 0)
(0.0383972 -0.751922 0)
(0.361988 0.0330344 0)
(0.387399 0.0123722 0)
(0.405048 -0.0131349 0)
(0.416929 -0.0600653 0)
(0.399843 -0.135024 0)
(0.350623 -0.233183 0)
(0.288624 -0.345939 0)
(0.211716 -0.468501 0)
(0.12851 -0.588766 0)
(0.039757 -0.664844 0)
(0.347135 0.0124848 0)
(0.366042 -0.00739156 0)
(0.380802 -0.0301249 0)
(0.393984 -0.0644581 0)
(0.393927 -0.115245 0)
(0.368124 -0.183443 0)
(0.323422 -0.272833 0)
(0.24751 -0.377601 0)
(0.15389 -0.483208 0)
(0.0491966 -0.568287 0)
(0.331327 -0.00370716 0)
(0.34452 -0.0220437 0)
(0.353895 -0.0434112 0)
(0.360401 -0.0721321 0)
(0.360815 -0.111176 0)
(0.343209 -0.159717 0)
(0.312623 -0.223289 0)
(0.251929 -0.302037 0)
(0.160534 -0.378899 0)
(0.0666839 -0.44264 0)
(0.316917 -0.0148341 0)
(0.325519 -0.0295156 0)
(0.329533 -0.0470617 0)
(0.328426 -0.0690135 0)
(0.322487 -0.0983179 0)
(0.301416 -0.132798 0)
(0.270569 -0.175094 0)
(0.222457 -0.228534 0)
(0.138314 -0.284447 0)
(0.0606355 -0.342179 0)
(0.304103 -0.0279316 0)
(0.312146 -0.0382978 0)
(0.3098 -0.0528869 0)
(0.304822 -0.0694351 0)
(0.294041 -0.0931368 0)
(0.271304 -0.119173 0)
(0.23855 -0.14941 0)
(0.196379 -0.189615 0)
(0.121313 -0.225419 0)
(0.0734559 -0.232474 0)
(0.334532 -0.0210644 0)
(0.33935 -0.0268768 0)
(0.312763 -0.035386 0)
(0.296629 -0.04464 0)
(0.267419 -0.0565585 0)
(0.230084 -0.070188 0)
(0.176732 -0.0862914 0)
(0.130058 -0.103572 0)
(0.0490656 -0.130489 0)
(-0.0185524 -0.179869 0)
(0.643772 -0.0152136 0)
(0.633054 -0.0197205 0)
(0.600467 -0.0251743 0)
(0.574959 -0.0315778 0)
(0.530012 -0.0389181 0)
(0.481804 -0.0491448 0)
(0.416068 -0.0618219 0)
(0.339355 -0.0786141 0)
(0.229049 -0.11044 0)
(0.163653 -0.168343 0)
(0.362349 0.0956066 5.32888e-20)
(0.374389 0.0693078 -5.16623e-20)
(0.371073 0.0556451 7.14422e-21)
(0.359261 0.0349872 0)
(0.34315 0.0177648 0)
(0.326709 0.00276217 8.02896e-21)
(0.312794 -0.0088218 -3.31161e-20)
(0.303752 -0.0225377 3.24356e-20)
(0.352968 -0.0172044 8.24895e-21)
(0.659671 -0.0126688 -8.42737e-21)
(0.360661 0.088954 -5.77428e-20)
(0.366323 0.0668035 0)
(0.362229 0.0551677 4.7153e-20)
(0.351003 0.0360301 -1.09205e-19)
(0.336172 0.0200965 6.99825e-20)
(0.321203 0.00542896 -7.4359e-21)
(0.308823 -0.00633814 1.51215e-20)
(0.302849 -0.0203356 3.07263e-20)
(0.359561 -0.0156441 7.69074e-21)
(0.665694 -0.0115954 7.63515e-21)
(0.357992 0.0842954 6.82236e-20)
(0.356782 0.0656458 -5.04432e-20)
(0.351018 0.0550743 4.99908e-20)
(0.339936 0.0371511 -5.61897e-20)
(0.326755 0.0221924 4.14488e-20)
(0.313866 0.00772541 0)
(0.303535 -0.00420465 -1.51581e-20)
(0.30151 -0.018345 -1.1232e-22)
(0.365136 -0.0142143 -1.54023e-20)
(0.671373 -0.0105676 -1.54713e-20)
(0.356994 0.08126 -1.12968e-20)
(0.351231 0.0658754 0)
(0.343769 0.055763 0)
(0.331973 0.0387177 0)
(0.319444 0.0243139 4.33107e-20)
(0.307758 0.00985037 -2.89503e-20)
(0.298853 -0.00229157 -1.94956e-22)
(0.300442 -0.0164614 -1.55018e-20)
(0.370188 -0.012952 -7.73656e-21)
(0.676899 -0.00964333 -7.70832e-21)
(0.35565 0.0794994 2.71009e-21)
(0.346966 0.0671356 -3.41581e-20)
(0.338469 0.0572175 -2.63005e-20)
(0.326053 0.0408348 2.6292e-20)
(0.313748 0.0266619 -1.4172e-20)
(0.302698 0.012023 0)
(0.294765 -0.000411437 -1.50838e-20)
(0.299569 -0.0145772 3.07432e-20)
(0.374822 -0.0118481 -1.53671e-20)
(0.682121 -0.0088411 1.55932e-20)
(0.353378 0.0791639 -8.90552e-20)
(0.342047 0.0692201 9.4845e-21)
(0.332881 0.0592611 -1.5006e-21)
(0.320241 0.0433729 2.61451e-20)
(0.308255 0.0292216 0)
(0.297791 0.0142919 0)
(0.290767 0.00150143 0)
(0.298608 -0.0126653 1.5237e-20)
(0.378886 -0.0108781 0)
(0.686874 -0.00815418 0)
(0.350722 0.0804391 0)
(0.336698 0.0721257 3.6166e-20)
(0.326765 0.0618369 -2.44755e-20)
(0.314048 0.0462231 -2.72901e-20)
(0.302475 0.0319245 2.74359e-20)
(0.29267 0.0166288 1.4693e-20)
(0.286612 0.0034425 -1.46207e-20)
(0.297376 -0.0107343 -5.32715e-20)
(0.38221 -0.0100146 3.82002e-21)
(0.691084 -0.00756566 -1.16226e-20)
(0.347968 0.0833392 0)
(0.331444 0.0758582 -1.17251e-20)
(0.32057 0.0649676 -6.29425e-21)
(0.307753 0.0493598 0)
(0.296546 0.0347476 7.19188e-21)
(0.287384 0.0190206 -2.14895e-20)
(0.282297 0.00540544 2.24045e-20)
(0.295793 -0.0087878 7.69973e-21)
(0.384681 -0.00923 -7.67373e-21)
(0.694735 -0.00706375 1.56015e-20)
(0.345047 0.0877908 1.04444e-20)
(0.326357 0.0803683 1.20872e-20)
(0.314482 0.0686567 -2.77838e-21)
(0.301556 0.0527806 3.31825e-21)
(0.290628 0.0376977 6.9586e-21)
(0.282035 0.0214766 1.08228e-20)
(0.277861 0.00739775 -3.6976e-21)
(0.293846 -0.00682023 -3.77574e-21)
(0.386244 -0.00850381 7.69899e-21)
(0.697854 -0.00663549 3.86448e-21)
(0.341787 0.0937173 -2.80899e-21)
(0.321295 0.0855871 2.82788e-21)
(0.308429 0.0728743 -3.13358e-21)
(0.295437 0.0564703 -3.31403e-21)
(0.284743 0.0407781 3.51461e-21)
(0.276646 0.0240068 -7.14571e-21)
(0.273305 0.00942201 5.55611e-21)
(0.291441 -0.00481889 1.90599e-21)