/*--------------------------------*- C++ -*----------------------------------*\
  =========                 |
  \\      /  F ield         | OpenFOAM: The Open Source CFD Toolbox
   \\    /   O peration     | Website:  https://openfoam.org
    \\  /    A nd           | Version:  7
     \\/     M anipulation  |
\*---------------------------------------------------------------------------*/
FoamFile
{
    version     2.0;
    format      ascii;
    class       volVectorField;
    location    "32.1";
    object      U;
}
// * * * * * * * * * * * * * * * * * * * * * * * * * * * * * * * * * * * * * //

dimensions      [0 1 -1 0 0 0 0];

internalField   nonuniform List<vector> 
2000
(
(0.00144314 -0.0205271 3.45859e-22)
(0.00403737 -0.0250069 0)
(0.00739156 -0.0100407 0)
(0.0104879 0.0157767 1.46654e-21)
(0.0129183 0.0471635 -4.94299e-22)
(0.0143737 0.0808467 7.47771e-24)
(0.0148188 0.114896 8.45308e-22)
(0.0144197 0.148117 0)
(0.0133241 0.179537 0)
(0.0116803 0.208155 0)
(0.00289885 -0.0210704 0)
(0.00578875 -0.0266103 1.1248e-21)
(0.00835686 -0.0125206 -1.03727e-21)
(0.0103894 0.0127805 -2.00191e-21)
(0.0117812 0.0441094 0)
(0.0123137 0.0781071 -1.53675e-21)
(0.0119417 0.112669 1.42907e-21)
(0.0108016 0.146457 0)
(0.00903202 0.178443 -2.15892e-21)
(0.00672176 0.207663 3.9457e-21)
(0.0044132 -0.0213711 0)
(0.00778873 -0.0280617 -7.47283e-21)
(0.00976988 -0.015234 0)
(0.0109292 0.00904273 -5.81989e-21)
(0.0114756 0.0398107 0)
(0.0112943 0.0737136 4.59684e-21)
(0.010329 0.108509 0)
(0.0086738 0.142711 -3.89713e-21)
(0.00645864 0.175223 3.6499e-21)
(0.00369442 0.205078 2.61195e-21)
(0.00593885 -0.0214112 1.87918e-21)
(0.00998764 -0.0293128 3.9989e-21)
(0.0115987 -0.0181047 1.55701e-21)
(0.0120803 0.00463248 3.24375e-21)
(0.0119603 0.0342877 2.37944e-21)
(0.0112503 0.0676188 -2.62791e-21)
(0.00989657 0.102311 -1.83069e-21)
(0.00794384 0.136744 3.26672e-22)
(0.00550319 0.169733 -2.71413e-21)
(0.00250409 0.200256 -2.60739e-21)
(0.00743472 -0.0211856 1.66258e-21)
(0.0123496 -0.0303004 2.83893e-21)
(0.0138325 -0.0210028 4.32072e-21)
(0.0138405 -0.000289546 -2.22079e-21)
(0.0132158 0.0276678 0)
(0.0121246 0.0598624 0)
(0.0105475 0.0940111 2.3993e-21)
(0.00849005 0.128405 1.98607e-21)
(0.00602914 0.161769 -1.26838e-21)
(0.00300091 0.192975 -3.33943e-21)
(0.00887299 -0.0206944 -1.35091e-21)
(0.0148622 -0.0309464 -1.04142e-21)
(0.0164937 -0.0237451 4.76574e-21)
(0.0162505 -0.00545745 -7.12287e-21)
(0.0152712 0.0202259 1.40857e-21)
(0.0139031 0.0506376 0)
(0.0122081 0.0836556 0)
(0.0101902 0.117581 -5.38926e-21)
(0.00788849 0.151087 4.72125e-21)
(0.00499889 0.182899 -8.86687e-22)
(0.0102404 -0.0199389 -8.43901e-21)
(0.0175535 -0.0311826 0)
(0.0196468 -0.0261068 -7.15176e-21)
(0.019406 -0.0104941 5.59818e-21)
(0.0182251 0.012426 0)
(0.0166501 0.0403798 -9.93291e-22)
(0.0148753 0.071528 1.63851e-21)
(0.0129698 0.104321 2.1192e-21)
(0.0109655 0.137494 -4.79268e-22)
(0.00830827 0.169627 -4.73386e-22)
(0.0115429 -0.0189451 1.51883e-20)
(0.0204847 -0.030949 1.38923e-21)
(0.0234064 -0.0278317 1.46234e-21)
(0.0234562 -0.0149255 3.06438e-21)
(0.0222474 0.00493025 6.17306e-22)
(0.0205258 0.0298363 -6.08921e-22)
(0.0186575 0.0582995 -1.48373e-21)
(0.0168604 0.0890548 0)
(0.0152487 0.121068 0)
(0.0128666 0.152818 3.64378e-22)
(0.0128346 -0.0177716 -6.74933e-21)
(0.0237535 -0.0301906 3.84359e-21)
(0.0279152 -0.0286674 -3.15407e-21)
(0.0285799 -0.018236 -3.0821e-21)
(0.0275502 -0.001456 3.65608e-22)
(0.0257591 0.0200549 -8.05138e-22)
(0.0237636 0.0451142 2.24116e-22)
(0.0220121 0.0727821 0)
(0.0208812 0.102365 0)
(0.0189641 0.132351 5.37524e-22)
(0.014215 -0.0164882 5.65684e-22)
(0.0274871 -0.028877 -4.43692e-21)
(0.0333168 -0.0284115 5.46543e-22)
(0.03494 -0.0199607 0)
(0.0343242 -0.00591881 0)
(0.0325623 0.0122468 1.42808e-21)
(0.0303798 0.0335356 0)
(0.0284517 0.0572059 -3.34742e-21)
(0.0276856 0.0827057 -2.27481e-22)
(0.027244 0.108328 3.19737e-21)
(0.00921221 0.263885 -9.51038e-23)
(-0.00953678 0.342826 9.61943e-23)
(-0.0164744 0.403259 -4.85401e-23)
(-0.0235093 0.445886 -1.5557e-22)
(-0.0236853 0.477637 -2.9404e-22)
(-0.0172828 0.509787 -3.68717e-23)
(-0.0155132 0.560696 1.73122e-22)
(-0.00138932 0.650487 6.81211e-22)
(-0.0120022 0.801422 0)
(0.00683823 0.968475 -5.33493e-22)
(0.00233167 0.264978 -5.5355e-22)
(-0.015277 0.344471 -4.39889e-23)
(-0.0213832 0.403964 2.10661e-22)
(-0.0270425 0.445399 1.55853e-22)
(-0.0262244 0.475924 4.77274e-22)
(-0.0193407 0.507309 9.72339e-22)
(-0.0171154 0.557757 -3.90846e-22)
(-0.00289806 0.648538 -4.61014e-22)
(-0.0125433 0.799717 9.08947e-22)
(0.00602378 0.966924 5.3222e-22)
(-0.0025571 0.264244 0)
(-0.0194124 0.3446 2.06872e-23)
(-0.0250649 0.403602 -1.18194e-22)
(-0.0296641 0.444224 0)
(-0.0282156 0.473717 -1.57018e-21)
(-0.0210801 0.50439 4.60475e-22)
(-0.0185171 0.554213 6.38916e-22)
(-0.00430992 0.64579 2.4344e-21)
(-0.013023 0.797649 -9.0601e-22)
(0.00531332 0.965362 1.88195e-21)
(-0.00550246 0.261637 0)
(-0.022041 0.343253 -2.08668e-23)
(-0.0276265 0.40222 0)
(-0.0314802 0.442356 1.54099e-21)
(-0.0297142 0.471079 -1.54872e-21)
(-0.0225132 0.501015 -1.29047e-21)
(-0.0197394 0.550052 -1.23596e-22)
(-0.00560243 0.641915 -2.38643e-21)
(-0.0134416 0.7945 -3.84767e-22)
(0.00461935 0.962898 -2.30626e-21)
(-0.00661073 0.257096 6.61159e-22)
(-0.0232861 0.340629 3.65015e-22)
(-0.0291931 0.400127 5.53067e-22)
(-0.0326027 0.440115 -9.59185e-22)
(-0.0307822 0.468261 0)
(-0.0236756 0.497391 -1.23823e-21)
(-0.0208306 0.545517 -1.77869e-22)
(-0.00681442 0.637558 2.97738e-21)
(-0.0138038 0.791466 4.10133e-22)
(0.00402009 0.960761 -4.1158e-22)
(-0.00601979 0.250479 4.62172e-23)
(-0.0232355 0.336427 3.48681e-22)
(-0.0298347 0.396853 9.93788e-22)
(-0.033083 0.437165 -9.92991e-22)
(-0.0314396 0.465066 -8.62334e-22)
(-0.0245583 0.493399 0)
(-0.0217684 0.540298 -2.59523e-21)
(-0.00791075 0.631856 1.2976e-21)
(-0.0141555 0.786676 1.46568e-21)
(0.00335134 0.95731 1.57555e-21)
(-0.00396079 0.241713 -1.08962e-22)
(-0.0220869 0.331395 0)
(-0.0297159 0.39349 0)
(-0.0330468 0.434425 0)
(-0.0317504 0.462116 -1.06813e-21)
(-0.0252159 0.489563 1.92661e-21)
(-0.0226034 0.535188 2.53413e-21)
(-0.00895536 0.626558 -4.03498e-21)
(-0.0144461 0.783011 7.34403e-22)
(0.002828 0.954865 -2.28757e-21)
(-0.000563322 0.230159 7.6615e-22)
(-0.019782 0.32358 1.31878e-21)
(-0.0287319 0.387808 -1.30633e-21)
(-0.0324209 0.430247 2.97612e-21)
(-0.0316883 0.458377 -3.77642e-21)
(-0.0255918 0.48512 0)
(-0.0232768 0.528926 -1.13954e-21)
(-0.00990487 0.618844 5.52283e-23)
(-0.0148308 0.77612 -1.3085e-21)
(0.00211995 0.950356 -1.41271e-21)
(0.00369934 0.217298 -9.77787e-22)
(-0.0169611 0.317559 0)
(-0.0273867 0.38463 -2.44395e-21)
(-0.0315276 0.428071 5.1573e-21)
(-0.0313568 0.456056 -2.09327e-21)
(-0.025775 0.481867 -4.93966e-22)
(-0.0238176 0.524288 1.13713e-21)
(-0.0107848 0.613945 5.51059e-24)
(-0.0150461 0.772833 1.87961e-21)
(0.00169913 0.948048 2.04456e-21)
(0.0102808 0.194776 -1.11499e-21)
(-0.0122654 0.301206 1.08039e-21)
(-0.0246552 0.373804 2.21904e-22)
(-0.0298401 0.421234 0)
(-0.0306886 0.451031 0)
(-0.0256977 0.476486 4.74211e-22)
(-0.0242848 0.516123 2.16025e-21)
(-0.0116826 0.602882 -2.10089e-21)
(-0.0156015 0.762762 -5.83095e-22)
(0.00088461 0.942261 5.62658e-22)
(0.0133969 0.194677 0)
(-0.00464786 0.308179 0)
(-0.0201801 0.379834 0)
(-0.0261449 0.424313 0)
(-0.0280552 0.45109 0)
(-0.0247266 0.47419 0)
(-0.0242502 0.511975 0)
(-0.0131013 0.599536 0)
(-0.0156562 0.760132 0)
(0.000310989 0.938448 0)
(0.017414 0.217179 0)
(0.00837652 0.323001 0)
(-0.0071721 0.389083 0)
(-0.0155058 0.42886 0)
(-0.0205418 0.453168 0)
(-0.020517 0.474126 0)
(-0.0224692 0.509133 0)
(-0.0150921 0.593927 0)
(-0.0176473 0.752077 0)
(-0.00124315 0.927748 0)
(0.020721 0.23547 0)
(0.0160102 0.338643 0)
(0.00255921 0.402248 0)
(-0.00635093 0.436382 0)
(-0.013456 0.456132 0)
(-0.0158734 0.474002 0)
(-0.0193557 0.50707 0)
(-0.0142258 0.59044 0)
(-0.0156251 0.74612 0)
(-0.00156689 0.917616 0)
(0.0223729 0.244371 0)
(0.0236488 0.346328 0)
(0.0124375 0.411705 0)
(0.0026434 0.445332 0)
(-0.00672223 0.463281 0)
(-0.0121441 0.479263 0)
(-0.0179501 0.510054 0)
(-0.0162879 0.59073 0)
(-0.0179785 0.743523 0)
(-0.00267827 0.90991 0)
(0.0215927 0.250605 0)
(0.0254719 0.351511 0)
(0.0187299 0.420646 0)
(0.0104096 0.454478 0)
(0.00116176 0.470427 0)
(-0.00485941 0.483693 0)
(-0.0114185 0.511084 0)
(-0.011041 0.587255 0)
(-0.0145229 0.734945 0)
(-0.00256984 0.89863 0)
(0.0227015 0.251111 0)
(0.0274647 0.352059 0)
(0.0228548 0.427027 0)
(0.0140144 0.463141 0)
(0.00367887 0.47892 0)
(-0.00382294 0.491352 0)
(-0.0117158 0.517782 0)
(-0.0130838 0.592112 0)
(-0.014855 0.734631 0)
(-0.00313367 0.889934 0)
(0.0207571 0.247646 0)
(0.0275434 0.350274 0)
(0.0270693 0.432254 0)
(0.0205895 0.473059 0)
(0.0109181 0.489077 0)
(0.00339228 0.49913 0)
(-0.00478767 0.521601 0)
(-0.00810838 0.590712 0)
(-0.013146 0.728846 0)
(-0.00323072 0.881884 0)
(0.0205876 0.246021 0)
(0.0242112 0.348711 0)
(0.0238061 0.434732 0)
(0.018764 0.479085 0)
(0.0106787 0.496584 0)
(0.0037984 0.506645 0)
(-0.00381055 0.529035 0)
(-0.00633547 0.59689 0)
(-0.0102305 0.728559 0)
(-0.00273735 0.872805 0)
(0.0182144 0.239222 0)
(0.0236112 0.34563 0)
(0.0255741 0.438005 0)
(0.0214263 0.486167 0)
(0.0139528 0.504818 0)
(0.00715278 0.513797 0)
(-0.000867519 0.533461 0)
(-0.00498373 0.597756 0)
(-0.00967706 0.726554 0)
(-0.00318047 0.868319 0)
(0.00903811 0.236738 0)
(0.0115384 0.341266 0)
(0.0149909 0.436064 0)
(0.014556 0.489281 0)
(0.0114316 0.510924 0)
(0.00825117 0.521192 0)
(0.00335439 0.541775 0)
(-0.000184448 0.605286 0)
(-0.00557448 0.727955 0)
(-0.00223724 0.860281 0)
(0.0306277 0.11997 1.92082e-21)
(0.0344349 0.15474 -1.88989e-21)
(0.0357814 0.181536 1.14142e-22)
(0.0330166 0.197913 0)
(0.0280469 0.208551 0)
(0.024243 0.210323 -5.21979e-23)
(0.0200272 0.207038 2.15625e-22)
(0.0182577 0.202603 -2.11745e-22)
(0.0150225 0.194218 -3.75816e-23)
(0.00843675 0.190835 3.66497e-23)
(0.0422987 0.100356 -2.20135e-21)
(0.0426225 0.135969 0)
(0.0407684 0.163602 3.19629e-22)
(0.0353776 0.180628 -3.30096e-22)
(0.0285978 0.191253 -1.95166e-22)
(0.0232767 0.19262 5.09506e-23)
(0.0185215 0.189209 -1.49008e-22)
(0.0163505 0.183692 -2.38754e-22)
(0.0133206 0.175176 -3.05061e-23)
(0.00793434 0.171264 -1.57645e-23)
(0.0535364 0.0914816 2.49505e-21)
(0.0504114 0.125011 -7.83892e-22)
(0.0455738 0.150022 7.76375e-22)
(0.037701 0.165011 3.54123e-22)
(0.0290495 0.173765 -2.48085e-22)
(0.0222058 0.173829 0)
(0.0168365 0.169999 1.49353e-22)
(0.0142832 0.163508 -1.49697e-23)
(0.0116019 0.155377 1.02334e-22)
(0.00740224 0.150921 5.4299e-23)
(0.063743 0.0874214 -3.90584e-22)
(0.0572099 0.116528 0)
(0.0496743 0.136803 0)
(0.0395556 0.148419 0)
(0.0292298 0.154496 -6.10195e-22)
(0.0210574 0.153061 3.96305e-22)
(0.0151403 0.148822 -3.03173e-23)
(0.0122895 0.141674 1.32499e-22)
(0.00998668 0.134308 4.12423e-23)
(0.00687398 0.129288 1.4251e-23)
(0.0724203 0.0831079 -5.02891e-22)
(0.0624416 0.106008 -7.56828e-22)
(0.0525471 0.12069 2.11541e-22)
(0.0405441 0.12873 -2.11385e-22)
(0.02889 0.132178 2.11005e-22)
(0.0197198 0.1296 0)
(0.0134143 0.125218 2.02391e-22)
(0.0103996 0.117897 -2.98362e-22)
(0.0084841 0.111522 1.3916e-22)
(0.0063049 0.105988 -5.59318e-23)
(0.0789322 0.074877 -1.70688e-21)
(0.065889 0.0908417 5.14694e-22)
(0.0541997 0.100049 2.82881e-22)
(0.0407796 0.105031 -3.3231e-22)
(0.0281762 0.106366 0)
(0.0183194 0.103251 0)
(0.0117553 0.0990842 0)
(0.00867925 0.0921066 -1.80729e-22)
(0.00710519 0.0868142 0)
(0.00567021 0.080936 0)
(0.0829975 0.0609948 0)
(0.0676578 0.0704496 -1.98243e-22)
(0.0548459 0.0748812 1.66154e-22)
(0.0404937 0.0776089 5.89002e-22)
(0.0273086 0.0774493 -5.92018e-22)
(0.0170233 0.0743759 -2.77387e-22)
(0.0102847 0.0707397 3.18291e-22)
(0.00719501 0.0645447 6.65238e-22)
(0.00586589 0.0603412 -5.43203e-23)
(0.0049745 0.0544018 3.56295e-23)
(0.08474 0.0416356 0)
(0.0680391 0.0458083 3.26422e-23)
(0.0547483 0.0463272 1.05676e-22)
(0.0398966 0.0475564 0)
(0.0264507 0.0463945 -1.56836e-22)
(0.0159412 0.0437724 4.99797e-22)
(0.00907925 0.0408705 -3.71396e-22)
(0.0059823 0.0357701 -7.48775e-23)
(0.00478144 0.0326352 6.00626e-23)
(0.00426975 0.0269824 -5.81563e-23)
(0.084499 0.018271 1.79996e-22)
(0.0673579 0.0186977 -1.55554e-22)
(0.0541221 0.0160343 -5.6504e-24)
(0.0391442 0.0163121 -8.40184e-23)
(0.02569 0.014449 -1.74933e-22)
(0.0151251 0.0124925 -2.50153e-22)
(0.00816982 0.010422 6.85145e-23)
(0.00505588 0.00659767 4.9621e-23)
(0.00385859 0.00449855 -6.0259e-23)
(0.00354192 -0.000513281 -1.39577e-23)
(0.082687 -0.00715912 4.21134e-24)
(0.0658981 -0.00899658 -4.25657e-24)
(0.0531158 -0.0143526 5.71271e-23)
(0.0383267 -0.014693 8.38902e-23)
(0.0250535 -0.0171002 -8.79648e-23)
(0.0145831 -0.0183277 1.73612e-22)
(0.00756553 -0.0195462 -9.81612e-23)
(0.00442009 -0.0220324 -1.97788e-23)
(0.0031251 -0.0231677 0)
(0.00277377 -0.0272446 1.39813e-23)
(0.079738 -0.0328917 -2.2315e-24)
(0.0639128 -0.0357152 2.25306e-24)
(0.0518566 -0.0434717 5.55738e-23)
(0.0374785 -0.0442308 8.26607e-23)
(0.0245448 -0.0470952 8.74374e-23)
(0.0142989 -0.0476287 -4.00872e-24)
(0.00726141 -0.0480308 -3.88874e-23)
(0.0040645 -0.0492424 -7.96294e-23)
(0.0026074 -0.0495243 0)
(0.00218509 -0.0525379 1.20645e-23)
(0.0760766 -0.0575317 0)
(0.0616244 -0.0604078 1.49085e-22)
(0.0504268 -0.0703287 -3.06869e-22)
(0.0366325 -0.0713875 -8.27814e-23)
(0.024161 -0.0746301 -1.71312e-22)
(0.0142492 -0.0745773 -2.47753e-22)
(0.00722675 -0.0742513 6.84785e-23)
(0.00395475 -0.0743767 4.969e-23)
(0.00226791 -0.0739647 -5.96053e-23)
(0.00169821 -0.0759875 -1.2031e-23)
(0.0720711 -0.0802365 0)
(0.0592014 -0.0825269 3.97017e-23)
(0.0488647 -0.0943128 1.01295e-22)
(0.0358392 -0.0956343 0)
(0.0238863 -0.0991349 4.98225e-22)
(0.0144021 -0.0986843 -1.6535e-22)
(0.00740956 -0.0977683 -1.45899e-22)
(0.00403786 -0.0971083 -3.065e-22)
(0.00206829 -0.0962076 5.94106e-23)
(0.00130298 -0.0974374 -4.08015e-23)
(0.0679908 -0.10062 0)
(0.0567663 -0.101973 -4.00294e-23)
(0.0472089 -0.115183 0)
(0.0351323 -0.116834 -5.86958e-22)
(0.0237011 -0.120422 5.90016e-22)
(0.0147103 -0.119849 2.79505e-22)
(0.00774613 -0.118512 -2.10589e-23)
(0.00424857 -0.117436 3.00197e-22)
(0.00196774 -0.116259 5.68558e-23)
(0.000994036 -0.116929 5.97934e-23)
(0.0640367 -0.118656 2.05178e-21)
(0.0544263 -0.119005 -7.22636e-22)
(0.0455117 -0.133011 -2.63519e-22)
(0.0345233 -0.135196 3.63464e-22)
(0.0235853 -0.138654 0)
(0.0151097 -0.138302 2.64792e-22)
(0.00816538 -0.136713 -5.33288e-23)
(0.00451637 -0.135594 -3.97196e-22)
(0.00192573 -0.134314 -1.83961e-23)
(0.00075302 -0.134636 1.83802e-23)
(0.0603392 -0.134541 9.22335e-22)
(0.0522888 -0.134133 8.52939e-22)
(0.0438414 -0.148101 -2.86966e-22)
(0.0340083 -0.15117 2.86804e-22)
(0.0235211 -0.154249 2.4681e-22)
(0.0155297 -0.154484 0)
(0.00860228 -0.152774 4.25752e-22)
(0.00478138 -0.151934 -2.3074e-22)
(0.0019133 -0.150654 -1.39996e-22)
(0.000562456 -0.150797 -3.15236e-23)
(0.0569944 -0.148523 -4.39763e-22)
(0.0504869 -0.148008 0)
(0.0422936 -0.160891 0)
(0.0335776 -0.165307 0)
(0.0235002 -0.167742 2.31057e-22)
(0.0159117 -0.168901 -4.77231e-22)
(0.00901187 -0.167149 -4.14004e-22)
(0.00500515 -0.166822 5.17219e-22)
(0.00191678 -0.165582 -3.29903e-23)
(0.000410812 -0.165673 6.38508e-23)
(0.0539256 -0.160747 -1.31373e-21)
(0.0490401 -0.161297 3.82353e-22)
(0.0409127 -0.171867 -3.78778e-22)
(0.0331834 -0.178131 -6.7485e-22)
(0.0235203 -0.179678 8.57563e-22)
(0.0162271 -0.182017 0)
(0.00938696 -0.180254 1.94467e-22)
(0.00518042 -0.18058 -9.0177e-24)
(0.00193843 -0.179375 9.32708e-23)
(0.000291878 -0.179512 2.6235e-23)
(0.0504568 -0.171058 -5.35074e-22)
(0.0474564 -0.17458 0)
(0.03952 -0.181538 1.64119e-23)
(0.0326514 -0.190083 -5.88391e-22)
(0.02354 -0.190554 3.32787e-22)
(0.0164591 -0.19421 9.35684e-23)
(0.00975277 -0.192427 -1.94025e-22)
(0.00533665 -0.193466 -3.10461e-23)
(0.00199653 -0.192274 -1.79355e-22)
(0.000201239 -0.192542 -5.40719e-23)
(0.0471291 -0.178773 -2.02996e-21)
(0.0456665 -0.188283 1.9785e-21)
(0.0382606 -0.19049 4.46583e-23)
(0.0319341 -0.201525 0)
(0.0234656 -0.200809 0)
(0.0165014 -0.205777 -9.64507e-23)
(0.0100064 -0.203936 -3.1233e-22)
(0.00543746 -0.205677 3.06416e-22)
(0.00206739 -0.204473 2.68938e-23)
(0.00012991 -0.204967 -2.62874e-23)
(0.0506044 -0.188362 0)
(0.0469814 -0.220354 0)
(0.0390032 -0.210823 0)
(0.0315305 -0.227811 0)
(0.023244 -0.224566 0)
(0.0158391 -0.23265 0)
(0.00969664 -0.230689 0)
(0.00500905 -0.234 0)
(0.00194062 -0.232513 0)
(4.49454e-05 -0.233505 0)
(0.0428643 -0.238127 0)
(0.0354282 -0.270203 0)
(0.0312365 -0.257657 0)
(0.0242688 -0.274975 0)
(0.0189066 -0.269854 0)
(0.0127933 -0.279029 0)
(0.00833037 -0.276003 0)
(0.00442689 -0.280052 0)
(0.00199308 -0.277657 0)
(0.000114257 -0.279147 0)
(0.0398366 -0.289046 0)
(0.0310866 -0.321087 0)
(0.0269447 -0.30642 0)
(0.0200014 -0.324799 0)
(0.0157373 -0.317547 0)
(0.010521 -0.327691 0)
(0.00728162 -0.323015 0)
(0.00401525 -0.327811 0)
(0.00202017 -0.324167 0)
(0.000160292 -0.326361 0)
(0.0351876 -0.344078 0)
(0.0264989 -0.376183 0)
(0.02298 -0.359405 0)
(0.0164896 -0.37891 0)
(0.0133356 -0.369327 0)
(0.00883067 -0.380705 0)
(0.00653782 -0.374239 0)
(0.00372873 -0.380007 0)
(0.00207824 -0.374889 0)
(0.000194334 -0.378144 0)
(0.0304026 -0.407232 0)
(0.022513 -0.43974 0)
(0.019341 -0.420999 0)
(0.013678 -0.441807 0)
(0.0113207 -0.430081 0)
(0.00748724 -0.442997 0)
(0.00591715 -0.434727 0)
(0.00343039 -0.44173 0)
(0.00207544 -0.435065 0)
(0.000184215 -0.439665 0)
(0.0256879 -0.484183 0)
(0.0186707 -0.516601 0)
(0.0160332 -0.496969 0)
(0.0112155 -0.518875 0)
(0.00952126 -0.505696 0)
(0.00625038 -0.520104 0)
(0.0052114 -0.510365 0)
(0.00291622 -0.518744 0)
(0.00189323 -0.510811 0)
(9.78338e-05 -0.516982 0)
(0.0201091 -0.578613 0)
(0.0148598 -0.608427 0)
(0.0127029 -0.591062 0)
(0.00885299 -0.612192 0)
(0.0075183 -0.599588 0)
(0.0048025 -0.614245 0)
(0.00400165 -0.604338 0)
(0.00192707 -0.613473 0)
(0.0012616 -0.605224 0)
(-0.000118644 -0.612575 0)
(0.0162152 -0.684 0)
(0.0114094 -0.706729 0)
(0.00936056 -0.69557 0)
(0.00604287 -0.712099 0)
(0.00506698 -0.703268 0)
(0.00282741 -0.715283 0)
(0.00219829 -0.707519 0)
(0.000466896 -0.715339 0)
(0.000271162 -0.708568 0)
(-0.000360483 -0.715502 0)
(0.00901772 -0.774769 0)
(0.0058696 -0.786384 0)
(0.00480081 -0.784154 0)
(0.00307268 -0.793853 0)
(0.00254469 -0.790894 0)
(0.00114829 -0.797503 0)
(0.000629712 -0.793469 0)
(-0.000462176 -0.797559 0)
(-0.000381801 -0.793581 0)
(-0.000368132 -0.79771 0)
(0.00151973 -0.822505 0)
(0.00105519 -0.831579 0)
(0.00098786 -0.833603 0)
(0.000861952 -0.838699 0)
(0.000669345 -0.838407 0)
(0.000301561 -0.841215 0)
(2.04235e-05 -0.83936 0)
(-0.000294681 -0.840685 0)
(-0.000269363 -0.83859 0)
(-0.000135873 -0.84034 0)
(0.0490739 -0.208431 3.49712e-21)
(0.0444424 -0.258037 -3.4327e-21)
(0.0422392 -0.30865 5.32855e-22)
(0.0375963 -0.363814 0)
(0.0329892 -0.427129 0)
(0.0281066 -0.503569 8.19947e-22)
(0.0227172 -0.595053 -3.87698e-21)
(0.0176041 -0.692349 3.85875e-21)
(0.0110113 -0.777464 1.16003e-21)
(0.00329727 -0.818587 -1.14741e-21)
(0.0489229 -0.216224 -4.09206e-21)
(0.0454716 -0.264937 0)
(0.0433731 -0.314753 3.8901e-21)
(0.0387222 -0.369619 -9.34905e-21)
(0.0341724 -0.43285 6.37482e-21)
(0.0292223 -0.50906 -7.38493e-22)
(0.0238634 -0.599408 1.82199e-21)
(0.0182345 -0.694865 4.05096e-21)
(0.0119025 -0.777008 1.22988e-21)
(0.00409702 -0.818124 1.24146e-21)
(0.0493868 -0.223966 4.90928e-21)
(0.0470765 -0.271864 -4.02449e-21)
(0.0448949 -0.320477 3.98633e-21)
(0.040186 -0.374634 -5.46204e-21)
(0.03562 -0.437505 4.01769e-21)
(0.0305473 -0.51328 0)
(0.0250483 -0.602451 -1.82655e-21)
(0.0189764 -0.696329 1.58915e-22)
(0.0125008 -0.775515 -2.15596e-21)
(0.00449452 -0.817921 -2.35367e-21)
(0.0504184 -0.23089 -8.07433e-22)
(0.0491427 -0.278375 0)
(0.0468124 -0.326028 0)
(0.0420297 -0.379543 0)
(0.0373738 -0.442031 5.0246e-21)
(0.032111 -0.517289 -3.38432e-21)
(0.0263548 -0.605293 -5.2982e-23)
(0.0198502 -0.697355 -2.4269e-21)
(0.0128995 -0.774081 -1.25051e-21)
(0.00459094 -0.816616 -1.36345e-21)
(0.0520686 -0.236937 3.73422e-22)
(0.0515868 -0.283861 -2.64103e-21)
(0.0490594 -0.330755 -2.60706e-21)
(0.0442016 -0.383859 2.60548e-21)
(0.0393977 -0.446108 -1.61804e-21)
(0.0338909 -0.520928 0)
(0.0278255 -0.607886 -2.14692e-21)
(0.0208682 -0.698118 4.96934e-21)
(0.013308 -0.772771 -2.57119e-21)
(0.00461198 -0.814291 2.64509e-21)
(0.0544138 -0.242222 -7.1424e-21)
(0.0544391 -0.28822 5.02628e-22)
(0.0516345 -0.334317 -4.53384e-22)
(0.0466662 -0.387107 2.76395e-21)
(0.0416522 -0.449223 0)
(0.0358548 -0.523712 0)
(0.0294544 -0.60979 0)
(0.0220336 -0.698422 2.71978e-21)
(0.0138631 -0.771309 0)
(0.00470241 -0.811435 0)
(0.0574921 -0.246664 0)
(0.0577547 -0.291492 3.55447e-21)
(0.0545889 -0.336709 -2.4362e-21)
(0.0494387 -0.389164 -3.48899e-21)
(0.0441382 -0.451152 3.5072e-21)
(0.0379986 -0.525361 2.34966e-21)
(0.0312295 -0.610708 -2.3019e-21)
(0.0233359 -0.698044 -9.75974e-21)
(0.0145885 -0.769486 6.92666e-22)
(0.00489432 -0.8084 -2.50941e-21)
(0.0613204 -0.250086 0)
(0.0615626 -0.293631 -1.12155e-21)
(0.0579693 -0.337959 -7.32945e-22)
(0.0525523 -0.390056 0)
(0.046885 -0.451885 1.1312e-21)
(0.0403473 -0.525819 -3.40746e-21)
(0.0331642 -0.61054 4.01011e-21)
(0.024778 -0.696851 1.48408e-21)
(0.0154633 -0.767185 -1.67839e-21)
(0.00517231 -0.805265 3.31389e-21)
(0.0659179 -0.252334 8.54161e-22)
(0.0658749 -0.294554 1.35797e-21)
(0.0617994 -0.338029 -2.49146e-22)
(0.0560295 -0.389787 4.71848e-22)
(0.0499229 -0.451448 1.04537e-21)
(0.0429319 -0.525135 1.86059e-21)
(0.035279 -0.609351 -7.37216e-22)
(0.0263585 -0.694884 -8.22985e-22)
(0.0164469 -0.764422 1.68394e-21)
(0.00550202 -0.802001 9.40095e-22)
(0.0713068 -0.253285 -2.84175e-22)
(0.0707012 -0.294202 2.86363e-22)
(0.0660916 -0.336856 -3.89171e-22)
(0.0598802 -0.388322 -4.71278e-22)
(0.053271 -0.449828 6.19111e-22)
(0.0457775 -0.523313 -1.27188e-21)
(0.0376055 -0.607143 1.1382e-21)
(0.0281048 -0.692136 4.19695e-22)
(0.0175433 -0.761175 0)
(0.00588199 -0.798508 -9.4216e-22)
(0.077509 -0.252851 2.99704e-22)
(0.0760471 -0.29258 -3.02156e-22)
(0.0708549 -0.334412 -4.42414e-22)
(0.0641094 -0.385638 -5.35663e-22)
(0.0569432 -0.447008 -6.59358e-22)
(0.0488967 -0.520386 -6.77757e-23)
(0.0401472 -0.604014 4.08213e-22)
(0.030007 -0.688735 1.35861e-21)
(0.0187313 -0.757528 0)
(0.00629279 -0.794785 -1.05879e-21)
(0.0845386 -0.251006 0)
(0.0819086 -0.28975 -1.63146e-21)
(0.0760992 -0.330706 3.03099e-21)
(0.0687214 -0.381749 5.36612e-22)
(0.0609479 -0.442974 1.34705e-21)
(0.0523039 -0.516292 2.2902e-21)
(0.0429394 -0.599836 -8.33736e-22)
(0.0321149 -0.684543 -9.28238e-22)
(0.0200587 -0.753381 2.1336e-21)
(0.00676645 -0.79076 1.05629e-21)
(0.092391 -0.247832 0)
(0.0882773 -0.285801 -1.57184e-21)
(0.0818291 -0.325839 -9.46963e-22)
(0.0737185 -0.376707 0)
(0.065303 -0.437786 -4.3318e-21)
(0.0560006 -0.511155 1.44516e-21)
(0.0459497 -0.594839 1.83223e-21)
(0.0343747 -0.679774 6.08771e-21)
(0.0214721 -0.748894 -2.1267e-21)
(0.00726003 -0.786523 4.71159e-21)
(0.101049 -0.243467 0)
(0.0951407 -0.280792 1.58537e-21)
(0.0880501 -0.319868 0)
(0.0791109 -0.370577 5.43474e-21)
(0.0700121 -0.431449 -5.46258e-21)
(0.060014 -0.504806 -3.61318e-21)
(0.0492625 -0.588693 -1.10311e-22)
(0.036893 -0.674039 -6.32628e-21)
(0.0230639 -0.74381 -1.0507e-21)
(0.00784341 -0.781924 -5.86051e-21)
(0.110485 -0.238113 9.9361e-21)
(0.102498 -0.27475 -3.8705e-21)
(0.0947263 -0.313111 9.24548e-22)
(0.0848952 -0.363394 -4.86073e-21)
(0.0751098 -0.424076 0)
(0.0643279 -0.49752 -3.82429e-21)
(0.0527848 -0.581888 -4.39481e-22)
(0.0395247 -0.667956 8.65826e-21)
(0.0246846 -0.738518 1.23257e-21)
(0.00840682 -0.777178 -1.23704e-21)
(0.120667 -0.231916 -2.34062e-21)
(0.110312 -0.267769 8.1258e-21)
(0.101888 -0.305326 5.14372e-21)
(0.0911659 -0.354889 -5.14019e-21)
(0.0806094 -0.415406 -3.38906e-21)
(0.0690287 -0.488852 0)
(0.056679 -0.57365 -8.89709e-21)
(0.0425097 -0.660661 4.45337e-21)
(0.0265797 -0.732437 4.89578e-21)
(0.00912002 -0.771954 5.40535e-21)
(0.131507 -0.22535 -1.42718e-21)
(0.118648 -0.259871 0)
(0.109503 -0.296768 0)
(0.0978018 -0.345885 0)
(0.0863922 -0.406364 -4.09933e-21)
(0.073934 -0.480065 7.47501e-21)
(0.0606549 -0.565574 9.1222e-21)
(0.0454571 -0.653665 -1.46211e-20)
(0.0283741 -0.726497 2.69908e-21)
(0.00971256 -0.766744 -8.02752e-21)
(0.142985 -0.218034 -1.14964e-21)
(0.127645 -0.250324 9.27629e-21)
(0.117554 -0.287026 -9.18761e-21)
(0.10496 -0.335394 1.36678e-20)
(0.0927236 -0.395426 -1.72909e-20)
(0.07944 -0.468981 0)
(0.0652734 -0.555002 -4.82756e-21)
(0.0490439 -0.644529 -2.57554e-22)
(0.0306784 -0.71926 -5.66808e-21)
(0.0106071 -0.760772 -5.84302e-21)
(0.154546 -0.211815 -1.5089e-21)
(0.136877 -0.241783 0)
(0.125514 -0.27875 -1.35173e-20)
(0.11208 -0.326578 2.63612e-20)
(0.0989247 -0.386556 -1.04154e-20)
(0.0847011 -0.460389 -2.2399e-21)
(0.0695056 -0.547072 4.81737e-21)
(0.0521454 -0.637491 -3.39197e-22)
(0.0325355 -0.713048 8.21143e-21)
(0.011133 -0.755195 8.64482e-21)
(0.167674 -0.201077 -7.40226e-21)
(0.148165 -0.228613 7.24255e-21)
(0.135047 -0.265546 1.37841e-21)
(0.12079 -0.312394 0)
(0.106674 -0.371749 0)
(0.0915332 -0.445421 2.15914e-21)
(0.0753115 -0.533038 1.02963e-20)
(0.0567101 -0.625835 -1.00074e-20)
(0.0355122 -0.704349 -2.84131e-21)
(0.0123596 -0.748214 2.78566e-21)
(0.179853 -0.205784 0)
(0.171726 -0.224882 0)
(0.152581 -0.262617 0)
(0.136377 -0.307756 0)
(0.120297 -0.365553 0)
(0.103131 -0.437472 0)
(0.0846666 -0.522933 0)
(0.0635403 -0.613416 0)
(0.0395155 -0.690372 0)
(0.012945 -0.73433 0)
(0.206735 -0.184376 0)
(0.212239 -0.208563 0)
(0.182134 -0.250437 0)
(0.166922 -0.294497 0)
(0.147528 -0.352531 0)
(0.127286 -0.423246 0)
(0.105143 -0.505928 0)
(0.0794777 -0.591824 0)
(0.0500767 -0.663269 0)
(0.0181511 -0.701986 0)
(0.242334 -0.160814 0)
(0.252084 -0.184146 0)
(0.212289 -0.226446 0)
(0.201675 -0.269463 0)
(0.177486 -0.327807 0)
(0.154111 -0.396341 0)
(0.127291 -0.475903 0)
(0.0959136 -0.558155 0)
(0.0596853 -0.627209 0)
(0.0192277 -0.667174 0)
(0.285762 -0.142003 0)
(0.296769 -0.164327 0)
(0.25197 -0.208775 0)
(0.246559 -0.251086 0)
(0.215216 -0.30881 0)
(0.189405 -0.374021 0)
(0.156987 -0.449458 0)
(0.118881 -0.525013 0)
(0.0748507 -0.58628 0)
(0.0273166 -0.618234 0)
(0.339076 -0.119833 0)
(0.349632 -0.142671 0)
(0.301027 -0.184859 0)
(0.2973 -0.222067 0)
(0.256411 -0.275992 0)
(0.228078 -0.335838 0)
(0.18725 -0.405525 0)
(0.140893 -0.474901 0)
(0.0872345 -0.53297 0)
(0.0272185 -0.567735 0)
(0.406614 -0.106766 0)
(0.414408 -0.128934 0)
(0.363891 -0.166949 0)
(0.36056 -0.20064 0)
(0.309868 -0.252229 0)
(0.279791 -0.306113 0)
(0.228532 -0.368785 0)
(0.172608 -0.428168 0)
(0.108036 -0.47528 0)
(0.0405404 -0.496965 0)
(0.485114 -0.082252 0)
(0.487545 -0.101671 0)
(0.437081 -0.133464 0)
(0.42803 -0.162398 0)
(0.365984 -0.207035 0)
(0.332785 -0.250553 0)
(0.263576 -0.30219 0)
(0.196498 -0.351041 0)
(0.118687 -0.395917 0)
(0.0336342 -0.426494 0)
(0.584424 -0.0721406 0)
(0.57839 -0.0879941 0)
(0.529374 -0.113624 0)
(0.508158 -0.137252 0)
(0.441006 -0.172994 0)
(0.399718 -0.205363 0)
(0.312854 -0.246511 0)
(0.239183 -0.285314 0)
(0.148042 -0.320673 0)
(0.062567 -0.32865 0)
(0.671586 -0.0379766 0)
(0.653621 -0.0460384 0)
(0.599281 -0.0620725 0)
(0.56356 -0.0756842 0)
(0.48968 -0.096951 0)
(0.431908 -0.114312 0)
(0.328528 -0.140501 0)
(0.242989 -0.163419 0)
(0.124673 -0.193476 0)
(0.0085944 -0.237635 0)
(0.854134 -0.0191445 0)
(0.829601 -0.0231373 0)
(0.7841 -0.0297731 0)
(0.741363 -0.0361414 0)
(0.674889 -0.04515 0)
(0.606607 -0.0541394 0)
(0.507904 -0.0677746 0)
(0.404935 -0.0832434 0)
(0.267328 -0.111245 0)
(0.17277 -0.164269 0)
(0.216155 -0.183356 6.41296e-21)
(0.247935 -0.160378 -6.32045e-21)
(0.284248 -0.137094 1.34387e-21)
(0.325168 -0.119393 0)
(0.376396 -0.0997054 0)
(0.440813 -0.0883661 2.50978e-21)
(0.517319 -0.0670574 -1.25299e-20)
(0.610994 -0.0591935 1.24529e-20)
(0.69837 -0.0297569 3.74442e-21)
(0.873377 -0.0160166 -3.7563e-21)
(0.226666 -0.174194 -4.04537e-21)
(0.257909 -0.1507 0)
(0.294076 -0.127733 9.93466e-21)
(0.334772 -0.110494 -2.49553e-20)
(0.385917 -0.0917767 1.75521e-20)
(0.450077 -0.0811505 -2.2861e-21)
(0.526469 -0.0610482 5.10489e-21)
(0.618879 -0.0539554 1.18409e-20)
(0.706979 -0.0264066 3.45738e-21)
(0.879636 -0.0146963 3.33922e-21)
(0.235822 -0.163783 4.42561e-21)
(0.265506 -0.140602 -8.1431e-21)
(0.300763 -0.118349 8.06651e-21)
(0.341046 -0.101687 -1.37597e-20)
(0.392067 -0.0839832 9.87427e-21)
(0.45624 -0.0741266 0)
(0.532577 -0.0552678 -5.11752e-21)
(0.624365 -0.0489931 -9.45424e-23)
(0.713672 -0.0233063 -6.29058e-21)
(0.884579 -0.0134425 -6.64754e-21)
(0.245671 -0.152663 -8.72156e-22)
(0.274884 -0.130208 0)
(0.30911 -0.108872 0)
(0.348641 -0.092877 0)
(0.399181 -0.0762485 1.17312e-20)
(0.463081 -0.0672214 -8.06023e-21)
(0.539083 -0.0496663 -4.04289e-22)
(0.630146 -0.0442812 -6.01557e-21)
(0.720405 -0.0204479 -3.1695e-21)
(0.889573 -0.0122604 -3.2432e-21)
(0.254928 -0.141222 2.78737e-21)
(0.284687 -0.119754 -2.97964e-21)
(0.3178 -0.0993721 -5.08469e-21)
(0.356808 -0.0841108 5.08182e-21)
(0.406879 -0.068596 -3.61905e-21)
(0.470515 -0.0604435 0)
(0.546164 -0.0442255 -4.97514e-21)
(0.636467 -0.0397691 1.14562e-20)
(0.727414 -0.017779 -5.80635e-21)
(0.894756 -0.0111394 6.47519e-21)
(0.263097 -0.129529 -5.09611e-21)
(0.293615 -0.109282 -8.81422e-22)
(0.325542 -0.089893 -1.40928e-21)
(0.364148 -0.0755056 4.8723e-21)
(0.41386 -0.0611012 0)
(0.477403 -0.0538604 0)
(0.552873 -0.0389855 0)
(0.642577 -0.0354571 5.37255e-21)
(0.734161 -0.0152714 0)
(0.89973 -0.0100737 0)
(0.270141 -0.117507 0)
(0.301293 -0.0987325 4.44411e-21)
(0.33238 -0.0804057 -3.2475e-21)
(0.370291 -0.0670298 -6.02977e-21)
(0.419575 -0.0537746 6.06131e-21)
(0.483098 -0.0474989 4.34872e-21)
(0.558531 -0.0339688 -4.01327e-21)
(0.647841 -0.0313597 -1.8431e-20)
(0.740141 -0.0129219 1.29671e-21)
(0.904106 -0.00906484 -4.55027e-21)
(0.275927 -0.105089 0)
(0.307781 -0.0880667 -1.20344e-21)
(0.338313 -0.0708789 -9.22599e-22)
(0.375396 -0.0585888 0)
(0.424048 -0.0465629 1.98289e-21)
(0.487522 -0.0413248 -5.58996e-21)
(0.562965 -0.0291479 7.0703e-21)
(0.651985 -0.0274645 2.82015e-21)
(0.745076 -0.0107172 -2.80207e-21)
(0.907704 -0.00810705 6.07692e-21)
(0.280244 -0.0922283 -6.35782e-23)