/*--------------------------------*- C++ -*----------------------------------*\
  =========                 |
  \\      /  F ield         | OpenFOAM: The Open Source CFD Toolbox
   \\    /   O peration     | Website:  https://openfoam.org
    \\  /    A nd           | Version:  7
     \\/     M anipulation  |
\*---------------------------------------------------------------------------*/
FoamFile
{
    version     2.0;
    format      ascii;
    class       volScalarField;
    location    "5.8";
    object      p;
}
// * * * * * * * * * * * * * * * * * * * * * * * * * * * * * * * * * * * * * //

dimensions      [0 2 -2 0 0 0 0];

internalField   nonuniform List<scalar> 
18000
(
0.703075
0.703143
0.70326
0.703406
0.703607
0.703892
0.704321
0.704957
0.705843
0.707003
0.708449
0.710185
0.712222
0.714559
0.71718
0.720061
0.723171
0.726484
0.729969
0.733597
0.73733
0.741129
0.74496
0.74879
0.752594
0.756349
0.760035
0.763641
0.767143
0.770439
0.702296
0.702288
0.70238
0.702507
0.702696
0.702969
0.703385
0.704001
0.704857
0.705979
0.707377
0.709051
0.711005
0.713241
0.715745
0.718493
0.721459
0.724614
0.727928
0.731372
0.734911
0.73851
0.742135
0.745755
0.749347
0.752889
0.756364
0.759763
0.763058
0.766173
0.701501
0.70142
0.701486
0.701596
0.701777
0.702046
0.702459
0.703064
0.703899
0.704989
0.706342
0.707958
0.709835
0.711974
0.714361
0.716976
0.719795
0.722789
0.725929
0.729184
0.732523
0.735913
0.739322
0.742723
0.746093
0.749412
0.752665
0.755843
0.758917
0.761838
0.700666
0.700517
0.700567
0.700667
0.700848
0.701122
0.70154
0.702144
0.702966
0.70403
0.705344
0.706905
0.708709
0.710753
0.713025
0.715508
0.718178
0.721008
0.723968
0.727028
0.73016
0.733333
0.736519
0.739692
0.74283
0.745916
0.748935
0.751879
0.754719
0.757429
0.699818
0.699608
0.699643
0.699735
0.69992
0.700205
0.700633
0.701241
0.702056
0.703099
0.704379
0.705888
0.70762
0.709571
0.71173
0.714082
0.716604
0.719266
0.72204
0.7249
0.727819
0.730769
0.733724
0.736661
0.739559
0.742401
0.745174
0.747873
0.750465
0.75295
0.698945
0.698676
0.698699
0.698788
0.698982
0.699284
0.699727
0.700345
0.701161
0.702191
0.703439
0.704899
0.706562
0.708423
0.710473
0.712696
0.715067
0.717558
0.720142
0.722798
0.725499
0.72822
0.730938
0.733631
0.736279
0.738867
0.741384
0.743825
0.74616
0.748404
0.69805
0.697727
0.697741
0.697832
0.698038
0.69836
0.698824
0.699459
0.700281
0.701301
0.702522
0.703934
0.70553
0.707305
0.709249
0.711343
0.713562
0.715879
0.718271
0.720719
0.723197
0.725684
0.728159
0.730601
0.732992
0.735317
0.737568
0.739741
0.74181
0.7438
0.697128
0.69676
0.696767
0.696861
0.697082
0.697428
0.697919
0.698576
0.699409
0.700423
0.701619
0.702987
0.704521
0.706214
0.708054
0.710019
0.712084
0.714225
0.716424
0.71866
0.720913
0.723162
0.725389
0.727574
0.729701
0.731755
0.733732
0.73563
0.737424
0.739148
0.696175
0.69577
0.695772
0.695872
0.696111
0.696485
0.697008
0.697691
0.698539
0.699551
0.700725
0.702053
0.703528
0.705143
0.70688
0.708717
0.710627
0.712593
0.714596
0.716619
0.718644
0.720653
0.722628
0.724552
0.726409
0.728188
0.729884
0.731501
0.733016
0.734462
0.695189
0.694754
0.694753
0.694862
0.695122
0.695527
0.696085
0.696799
0.697664
0.698678
0.699834
0.701127
0.702548
0.704086
0.705722
0.70743
0.709189
0.710979
0.712786
0.714595
0.716391
0.718158
0.719879
0.721538
0.723122
0.724622
0.726035
0.727366
0.728599
0.729759
0.694166
0.693709
0.693707
0.693827
0.694111
0.69455
0.695146
0.695893
0.69678
0.697798
0.698942
0.700203
0.701574
0.703038
0.704573
0.706156
0.707764
0.70938
0.710991
0.712587
0.714153
0.715677
0.717143
0.718536
0.719845
0.721065
0.722194
0.723239
0.72419
0.725057
0.693102
0.692632
0.692631
0.692766
0.693075
0.693551
0.694187
0.69497
0.69588
0.696907
0.698042
0.699276
0.700599
0.701992
0.70343
0.704889
0.706348
0.707793
0.70921
0.710594
0.711932
0.713213
0.714423
0.71555
0.716586
0.717526
0.718371
0.719132
0.719805
0.720377
0.691995
0.691518
0.691523
0.691673
0.692012
0.692526
0.693205
0.694024
0.694961
0.695999
0.697128
0.698338
0.699617
0.700941
0.702286
0.703625
0.704939
0.706214
0.707441
0.708615
0.709727
0.710767
0.711723
0.712585
0.713349
0.714014
0.714578
0.715058
0.715462
0.715742
0.690842
0.690365
0.690378
0.690547
0.690917
0.691472
0.692194
0.693052
0.694016
0.695068
0.696194
0.697384
0.698622
0.699882
0.701135
0.702358
0.703529
0.704639
0.70568
0.70665
0.70754
0.708342
0.709046
0.709647
0.710144
0.710536
0.710826
0.711033
0.711177
0.711174
0.689641
0.689171
0.689194
0.689385
0.689788
0.690385
0.69115
0.692048
0.693042
0.694109
0.695235
0.696407
0.697607
0.698806
0.699973
0.701082
0.702116
0.703065
0.703927
0.704697
0.70537
0.70594
0.706397
0.706742
0.706976
0.707102
0.707125
0.70707
0.706969
0.706695
0.688392
0.687931
0.687967
0.688182
0.68862
0.68926
0.69007
0.691008
0.692032
0.693116
0.694245
0.695403
0.696568
0.697709
0.698792
0.699792
0.700694
0.701489
0.702177
0.702755
0.703218
0.70356
0.703778
0.703872
0.703851
0.703721
0.703489
0.703182
0.702854
0.702328
0.687094
0.686645
0.686696
0.686937
0.687412
0.688094
0.688949
0.689927
0.690982
0.692085
0.693219
0.694366
0.6955
0.696584
0.697587
0.698484
0.699259
0.699907
0.700429
0.700822
0.701082
0.701205
0.701189
0.701042
0.700776
0.700401
0.699926
0.699383
0.698843
0.698088
0.685745
0.685311
0.68538
0.685648
0.68616
0.686886
0.687784
0.688801
0.689889
0.691013
0.692154
0.693293
0.694396
0.695427
0.696354
0.697151
0.697806
0.698315
0.698679
0.698895
0.69896
0.698871
0.698632
0.698255
0.697756
0.697149
0.696446
0.695682
0.694949
0.693992
0.684345
0.683928
0.684015
0.684314
0.684864
0.685631
0.686571
0.687628
0.688748
0.689895
0.691047
0.692178
0.693253
0.694234
0.695087
0.695789
0.696331
0.696708
0.696921
0.696968
0.696847
0.696557
0.696106
0.695511
0.694792
0.693969
0.693054
0.692086
0.691178
0.690046
0.682894
0.682493
0.682601
0.682932
0.683521
0.684329
0.68531
0.686405
0.687557
0.688729
0.689893
0.691018
0.692066
0.692997
0.69378
0.694393
0.694827
0.695079
0.69515
0.695036
0.694738
0.694257
0.693606
0.692807
0.691884
0.690861
0.689752
0.688599
0.687531
0.686253
0.681389
0.681004
0.681135
0.6815
0.682127
0.682977
0.683997
0.685129
0.686315
0.687512
0.688688
0.689808
0.690829
0.691712
0.692427
0.692954
0.693286
0.69342
0.693355
0.693089
0.692622
0.691961
0.691124
0.690135
0.689024
0.687818
0.686535
0.685215
0.684005
0.682609
0.679828
0.679459
0.679614
0.680015
0.680682
0.681572
0.682631
0.683799
0.685017
0.68624
0.687428
0.688541
0.689535
0.690371
0.69102
0.691465
0.6917
0.69172
0.691526
0.691114
0.690487
0.689657
0.688645
0.687482
0.686198
0.684827
0.683389
0.681922
0.680589
0.679104
0.67821
0.677855
0.678036
0.678474
0.679181
0.680112
0.681209
0.682412
0.683661
0.684908
0.686107
0.687212
0.688178
0.688966
0.689551
0.689917
0.690057
0.689968
0.689647
0.689095
0.688317
0.687327
0.686152
0.684826
0.683385
0.681864
0.68029
0.678699
0.677262
0.675718
0.676533
0.676192
0.676399
0.676874
0.677622
0.678593
0.679728
0.680965
0.682244
0.683513
0.68472
0.685814
0.686749
0.68749
0.688011
0.688298
0.688345
0.688147
0.687704
0.687016
0.686091
0.684948
0.683619
0.68214
0.680554
0.678899
0.677205
0.675512
0.673994
0.672425
0.674795
0.674466
0.6747
0.675213
0.676002
0.677013
0.678185
0.679455
0.680763
0.682051
0.683261
0.68434
0.685242
0.685932
0.686388
0.686596
0.686549
0.686243
0.685677
0.684855
0.683787
0.682496
0.681016
0.679392
0.677668
0.675888
0.67409
0.672314
0.670743
0.669191
0.672992
0.672676
0.672937
0.673488
0.674319
0.675369
0.676576
0.677878
0.679212
0.680515
0.681724
0.682782
0.683646
0.684282
0.684671
0.684797
0.684654
0.684238
0.683549
0.682592
0.681381
0.679941
0.678312
0.676543
0.674683
0.672782
0.670887
0.669045
0.667448
0.665965
0.67112
0.670818
0.671108
0.671699
0.67257
0.673658
0.6749
0.676231
0.677587
0.6789
0.6801
0.681132
0.681952
0.68253
0.682846
0.682886
0.682643
0.682114
0.681298
0.680204
0.678846
0.677255
0.675474
0.673555
0.671552
0.669524
0.667527
0.665625
0.664022
0.662668
0.669176
0.668891
0.669212
0.669843
0.670754
0.671879
0.673152
0.67451
0.675883
0.677198
0.678383
0.679381
0.680151
0.680664
0.680901
0.680849
0.6805
0.679852
0.678905
0.677668
0.676159
0.674411
0.672469
0.670388
0.668227
0.66605
0.663929
0.661953
0.660357
0.659202
0.667154
0.666891
0.667246
0.667919
0.66887
0.670028
0.67133
0.672709
0.674093
0.675403
0.676564
0.67752
0.678231
0.678671
0.678821
0.678669
0.678207
0.677433
0.67635
0.674965
0.673299
0.671387
0.669274
0.667014
0.664664
0.662291
0.659979
0.657857
0.656265
0.655432
0.665053
0.664819
0.66521
0.665926
0.666915
0.668104
0.66943
0.670825
0.672212
0.673506
0.674634
0.675538
0.676181
0.676538
0.676592
0.676331
0.675748
0.674842
0.673615
0.672078
0.670251
0.66817
0.665877
0.663419
0.660845
0.658201
0.655548
0.652995
0.650915
0.649843
0.78085
0.794768
0.80367
0.811257
0.816101
0.819841
0.822181
0.823611
0.824225
0.824206
0.823644
0.822613
0.821178
0.819412
0.81737
0.815075
0.812585
0.809946
0.80716
0.804245
0.80122
0.798094
0.794888
0.791631
0.788328
0.785036
0.781788
0.778695
0.776038
0.774093
0.776275
0.790056
0.79911
0.806958
0.81204
0.815974
0.818464
0.820021
0.820736
0.820796
0.820293
0.819335
0.817969
0.816272
0.814271
0.812035
0.809603
0.807005
0.804266
0.801402
0.798411
0.795327
0.792153
0.788918
0.785645
0.782363
0.779132
0.776046
0.773378
0.771434
0.771562
0.785231
0.794446
0.802587
0.807935
0.812082
0.814736
0.816429
0.817246
0.817388
0.816945
0.816058
0.814761
0.813132
0.811174
0.808999
0.806626
0.804072
0.80138
0.798569
0.795615
0.792576
0.789438
0.786229
0.782989
0.779722
0.776511
0.773434
0.770756
0.768812
0.766692
0.780289
0.789682
0.798146
0.80378
0.808168
0.810999
0.81283
0.813752
0.813981
0.81361
0.812788
0.811555
0.809983
0.808086
0.80597
0.803651
0.80115
0.798505
0.795741
0.792834
0.789835
0.78674
0.783568
0.780359
0.777119
0.773925
0.770858
0.768174
0.766223
0.761667
0.775226
0.784808
0.793632
0.79958
0.804233
0.807256
0.809228
0.810257
0.810575
0.810283
0.809521
0.80835
0.806833
0.805005
0.802946
0.80068
0.798236
0.79564
0.792921
0.790067
0.787109
0.784059
0.780931
0.777754
0.77455
0.771373
0.768317
0.765632
0.763668
0.756488
0.770038
0.779817
0.789045
0.795339
0.800278
0.803507
0.805627
0.806767
0.807174
0.80696
0.806259
0.805151
0.80369
0.801927
0.799925
0.797713
0.795326
0.792784
0.790112
0.787311
0.7844
0.781396
0.778315
0.775176
0.772009
0.768855
0.765813
0.763127
0.761148
0.751159
0.764724
0.774707
0.784381
0.791055
0.796304
0.799753
0.802029
0.803284
0.803777
0.803642
0.803002
0.801957
0.800554
0.798853
0.796911
0.794753
0.792423
0.789936
0.787314
0.784567
0.781706
0.778751
0.77572
0.772623
0.769497
0.76637
0.763343
0.76066
0.758666
0.745681
0.759287
0.769477
0.779641
0.786729
0.792311
0.795995
0.798433
0.799806
0.800387
0.80033
0.799752
0.79877
0.797425
0.795784
0.793903
0.791801
0.789528
0.787097
0.784527
0.781834
0.779028
0.776126
0.773147
0.770095
0.767013
0.763918
0.760908
0.75823
0.756221
0.740065
0.753729
0.764131
0.774823
0.782359
0.788299
0.792233
0.794841
0.796335
0.797005
0.797025
0.79651
0.795591
0.794305
0.792724
0.790904
0.788859
0.786641
0.784268
0.781752
0.779115
0.776365
0.773519
0.770596
0.767593
0.764558
0.761499
0.75851
0.755838
0.753814
0.734325
0.74806
0.758673
0.769928
0.777947
0.784269
0.788469
0.791253
0.792872
0.793633
0.793729
0.793278
0.79242
0.791194
0.789672
0.787913
0.785926
0.783765
0.781448
0.778989
0.776409
0.773718
0.770931
0.768066
0.765116
0.762129
0.759112
0.756149
0.753482
0.751445
0.728482
0.742294
0.753112
0.764958
0.773492
0.780221
0.784702
0.787672
0.789419
0.790272
0.790444
0.790057
0.789261
0.788094
0.786631
0.784932
0.783003
0.780898
0.778638
0.776236
0.773717
0.771086
0.768361
0.765557
0.762664
0.759729
0.756757
0.753823
0.751165
0.749114
0.722561
0.736449
0.747462
0.759918
0.768998
0.776156
0.780935
0.784099
0.785978
0.786925
0.787172
0.786849
0.786113
0.785006
0.783601
0.781961
0.78009
0.778042
0.775838
0.773495
0.771038
0.76847
0.765808
0.763069
0.760237
0.757357
0.754435
0.751534
0.748888
0.746823
0.716595
0.73055
0.741739
0.754814
0.764467
0.772074
0.777169
0.780535
0.78255
0.783592
0.783914
0.783654
0.782977
0.78193
0.780583
0.779
0.777186
0.775195
0.773049
0.770766
0.768373
0.765868
0.763273
0.7606
0.757834
0.755013
0.752146
0.749282
0.74665
0.744572
0.710618
0.724625
0.735966
0.749655
0.759904
0.767977
0.773404
0.776981
0.779136
0.780275
0.780671
0.780474
0.779856
0.778867
0.777578
0.776051
0.774294
0.772359
0.770272
0.768049
0.765722
0.763281
0.760755
0.758151
0.755454
0.752697
0.749889
0.747068
0.744453
0.742363
0.704672
0.718708
0.730169
0.744452
0.755312
0.763867
0.769642
0.773438
0.775739
0.776975
0.777445
0.777309
0.77675
0.77582
0.774587
0.773113
0.771413
0.769534
0.767506
0.765344
0.763084
0.760709
0.758253
0.755722
0.753097
0.750408
0.747664
0.744891
0.742298
0.740198
0.698797
0.712837
0.724377
0.739221
0.750698
0.759746
0.765883
0.769907
0.772358
0.77369
0.774235
0.774162
0.77366
0.772788
0.77161
0.770187
0.768542
0.766719
0.764753
0.76265
0.760458
0.758151
0.755767
0.753311
0.750762
0.748144
0.745471
0.742752
0.740187
0.738077
0.69304
0.70705
0.718623
0.733979
0.74607
0.755619
0.762129
0.766389
0.768994
0.770425
0.771044
0.771032
0.770587
0.769771
0.768646
0.767273
0.765683
0.763916
0.76201
0.759968
0.757843
0.755607
0.753295
0.750915
0.748446
0.745906
0.743307
0.740651
0.738121
0.736005
0.687444
0.70139
0.712942
0.728747
0.741436
0.75149
0.75838
0.762886
0.765649
0.76718
0.767873
0.767923
0.767532
0.76677
0.765696
0.764372
0.762835
0.761124
0.759278
0.757297
0.755239
0.753075
0.750835
0.748533
0.746148
0.74369
0.741173
0.738589
0.736102
0.733982
0.682054
0.695895
0.707371
0.723546
0.736808
0.747364
0.754641
0.759399
0.762325
0.763957
0.764723
0.764834
0.764497
0.763784
0.76276
0.761484
0.76
0.758342
0.756555
0.754637
0.752644
0.750553
0.748387
0.746164
0.743865
0.741495
0.739068
0.736565
0.734132
0.732014
0.676908
0.690605
0.701943
0.718399
0.732198
0.743246
0.750913
0.75593
0.759023
0.76076
0.761598
0.761769
0.761481
0.760815
0.759838
0.75861
0.757176
0.755571
0.753842
0.751987
0.750058
0.74804
0.745948
0.743805
0.741595
0.73932
0.736991
0.734581
0.732214
0.730104
0.672041
0.685553
0.696694
0.71333
0.72762
0.739141
0.747199
0.752478
0.755742
0.757587
0.758497
0.758727
0.758485
0.757863
0.756932
0.755749
0.754364
0.752811
0.751138
0.749346
0.74748
0.745534
0.743516
0.741454
0.739338
0.737163
0.73494
0.732636
0.730351
0.728259
0.667483
0.680767
0.691654
0.708362
0.723087
0.735058
0.743502
0.749046
0.752485
0.75444
0.755421
0.755708
0.75551
0.75493
0.754041
0.752902
0.751563
0.750061
0.748443
0.746713
0.744909
0.743033
0.74109
0.739111
0.73709
0.735022
0.732915
0.730731
0.728547
0.726484
0.663256
0.67627
0.686848
0.703519
0.718615
0.731004
0.739823
0.745634
0.749252
0.751319
0.752371
0.752714
0.752557
0.752016
0.751168
0.750068
0.748775
0.747323
0.745757
0.744087
0.742343
0.740537
0.738669
0.736774
0.734851
0.732895
0.730912
0.728866
0.726804
0.724788
0.659375
0.672075
0.682298
0.698823
0.714217
0.726989
0.736168
0.742246
0.746044
0.748225
0.749347
0.749745
0.749628
0.749122
0.748312
0.747249
0.745999
0.744595
0.74308
0.741467
0.739782
0.738044
0.736251
0.73444
0.732616
0.730777
0.72893
0.727037
0.725126
0.723181
0.655855
0.668191
0.678016
0.694294
0.70991
0.723022
0.732543
0.738885
0.742864
0.745159
0.746353
0.746803
0.746723
0.74625
0.745473
0.744446
0.743236
0.741878
0.740411
0.738852
0.737224
0.735553
0.733834
0.732108
0.730384
0.728667
0.726963
0.725244
0.723513
0.721674
0.652711
0.664621
0.674012
0.689954
0.705715
0.719116
0.728955
0.735557
0.739714
0.742126
0.743391
0.74389
0.743845
0.743399
0.742653
0.741658
0.740487
0.739172
0.737749
0.736242
0.73467
0.733062
0.731417
0.729775
0.728152
0.726559
0.725008
0.72348
0.721967
0.720284
0.649964
0.661358
0.670291
0.685821
0.70165
0.715285
0.725415
0.732266
0.736599
0.739127
0.740463
0.741008
0.740993
0.740572
0.739853
0.738888
0.737751
0.736475
0.735094
0.733636
0.732118
0.730571
0.728997
0.72744
0.725916
0.724448
0.723056
0.721739
0.720487
0.719031
0.647661
0.658397
0.666843
0.681872
0.697672
0.711475
0.72187
0.72897
0.733484
0.736137
0.737547
0.738137
0.738151
0.737753
0.737059
0.736122
0.735017
0.733778
0.732437
0.731026
0.72956
0.728073
0.726569
0.725095
0.72367
0.722327
0.721099
0.720011
0.719067
0.717941
0.645821
0.655665
0.663592
0.678001
0.69365
0.707557
0.718204
0.72557
0.730286
0.733084
0.734583
0.735227
0.735275
0.734907
0.734239
0.733333
0.73226
0.731058
0.729758
0.728394
0.72698
0.725553
0.724121
0.722728
0.7214
0.720183
0.719122
0.718277
0.717692
0.717048
0.644506
0.653049
0.660518
0.674399
0.689906
0.703871
0.714704
0.72228
0.727162
0.73008
0.731653
0.732341
0.732419
0.732075
0.731428
0.730551
0.729507
0.72834
0.727077
0.725756
0.724392
0.72302
0.721655
0.720339
0.719103
0.718003
0.717104
0.716506
0.716324
0.716371
0.640263
0.644689
0.651245
0.664944
0.680922
0.695339
0.706576
0.714468
0.719529
0.722497
0.724025
0.724626
0.724624
0.724226
0.723551
0.722675
0.721651
0.720521
0.719316
0.71807
0.716806
0.715556
0.714345
0.713212
0.712203
0.711396
0.710909
0.710977
0.711986
0.714624
0.620953
0.628264
0.637533
0.651252
0.665849
0.67878
0.68905
0.696549
0.701631
0.704839
0.706695
0.707629
0.70794
0.70783
0.707423
0.706805
0.706032
0.705153
0.704201
0.70321
0.702207
0.701225
0.700294
0.699459
0.69878
0.698357
0.698345
0.699048
0.700972
0.70481
0.601338
0.612231
0.623523
0.636597
0.64959
0.661147
0.670619
0.677835
0.68299
0.68647
0.688685
0.689991
0.69066
0.690883
0.69079
0.690469
0.689983
0.689382
0.688702
0.687979
0.687242
0.686524
0.685861
0.685299
0.684902
0.684775
0.685072
0.686093
0.688366
0.692602
0.582221
0.595078
0.607188
0.619594
0.631561
0.642335
0.651381
0.6585
0.663807
0.667587
0.670164
0.671846
0.672881
0.673454
0.673695
0.673694
0.673515
0.67321
0.672815
0.672368
0.671898
0.671439
0.671027
0.67071
0.670546
0.670638
0.671131
0.672307
0.67468
0.679035
0.56294
0.576591
0.589001
0.601044
0.612451
0.622748
0.631519
0.638601
0.644078
0.648165
0.651119
0.653198
0.654625
0.655577
0.65618
0.656524
0.656675
0.656683
0.656587
0.656422
0.656219
0.656011
0.655832
0.655728
0.655753
0.656003
0.65661
0.657843
0.66018
0.664484
0.543171
0.557139
0.569671
0.581506
0.592542
0.60249
0.611058
0.618134
0.623784
0.628171
0.631501
0.633987
0.635825
0.637176
0.638161
0.638869
0.639365
0.639699
0.63991
0.640032
0.640096
0.640131
0.640171
0.640256
0.640438
0.640805
0.641474
0.642702
0.64493
0.649091
0.522897
0.536974
0.549508
0.561162
0.571922
0.581623
0.590064
0.597169
0.602993
0.607668
0.611357
0.61424
0.616487
0.618241
0.619614
0.620692
0.621539
0.622204
0.622724
0.623134
0.623461
0.623734
0.623981
0.624241
0.624561
0.625019
0.625723
0.626913
0.628993
0.632949
0.502108
0.516179
0.528631
0.540118
0.550683
0.560225
0.568604
0.575768
0.581768
0.586714
0.590741
0.594003
0.596643
0.598789
0.600544
0.601989
0.603183
0.604175
0.605002
0.605696
0.606281
0.606784
0.607231
0.607659
0.608106
0.608649
0.609378
0.610519
0.612432
0.61614
0.480794
0.494794
0.507129
0.518476
0.528907
0.538355
0.546716
0.553958
0.560133
0.565334
0.569679
0.573297
0.57631
0.578833
0.580957
0.582757
0.584289
0.585599
0.586724
0.587693
0.588529
0.589256
0.589897
0.590486
0.591058
0.591682
0.592437
0.593533
0.595279
0.598703
0.458965
0.47286
0.485071
0.496301
0.50664
0.516037
0.524409
0.531743
0.53809
0.543534
0.548177
0.552127
0.555493
0.558373
0.56085
0.56299
0.564847
0.566464
0.567876
0.569109
0.570185
0.571129
0.571959
0.572707
0.573404
0.574112
0.574899
0.575955
0.577547
0.580693
0.436635
0.450406
0.462496
0.473628
0.483904
0.493279
0.501684
0.509119
0.515635
0.52131
0.526232
0.530494
0.53419
0.537406
0.540216
0.542681
0.544849
0.54676
0.548444
0.549929
0.551236
0.552385
0.553395
0.554296
0.555114
0.555906
0.55673
0.557758
0.559214
0.562066
0.413814
0.427452
0.439426
0.450476
0.46071
0.470084
0.478539
0.486082
0.492764
0.498657
0.50384
0.508392
0.512396
0.515928
0.519051
0.521822
0.524284
0.526474
0.528418
0.530143
0.53167
0.533017
0.534202
0.535251
0.536187
0.53706
0.53792
0.538926
0.54027
0.542876
0.390512
0.40401
0.415875
0.426856
0.437064
0.446453
0.45497
0.462625
0.469468
0.475568
0.480994
0.485815
0.490105
0.49393
0.497346
0.500405
0.503143
0.505594
0.507783
0.509735
0.511468
0.512999
0.514346
0.515533
0.516581
0.517537
0.51844
0.519429
0.520659
0.522984
0.366735
0.380087
0.39185
0.402774
0.41297
0.422386
0.430972
0.43874
0.44574
0.452034
0.457684
0.462755
0.467308
0.471402
0.47509
0.478413
0.481408
0.484104
0.486524
0.48869
0.490619
0.492327
0.493828
0.495142
0.496288
0.497308
0.498242
0.499221
0.500384
0.502496
0.342489
0.355687
0.367357
0.378237
0.388431
0.397881
0.406539
0.414419
0.421568
0.428044
0.433902
0.4392
0.443992
0.448332
0.452265
0.455831
0.459062
0.461983
0.464614
0.466974
0.46908
0.470946
0.472589
0.474029
0.475279
0.476374
0.477339
0.478284
0.479327
0.481172
0.317779
0.330815
0.342404
0.35325
0.363448
0.372938
0.381668
0.389655
0.396945
0.403586
0.409633
0.415135
0.420142
0.424701
0.428854
0.432637
0.43608
0.439204
0.44203
0.444573
0.446845
0.448857
0.450621
0.452153
0.453469
0.454608
0.455602
0.456554
0.457565
0.459203
0.292614
0.305477
0.316997
0.32782
0.338027
0.347555
0.356353
0.364442
0.37186
0.378652
0.384865
0.390547
0.395741
0.400491
0.404834
0.408805
0.412431
0.415732
0.418723
0.421421
0.423838
0.425986
0.427877
0.42952
0.430917
0.432093
0.433068
0.433944
0.43483
0.436214
0.26701
0.279682
0.29115
0.30196
0.312175
0.321734
0.330594
0.338773
0.346306
0.353229
0.359586
0.36542
0.37077
0.375679
0.380179
0.384308
0.388089
0.391542
0.394681
0.397515
0.400049
0.402291
0.404253
0.405953
0.407406
0.408638
0.409661
0.410548
0.411383
0.412531
0.241008
0.253459
0.26489
0.275689
0.285902
0.29548
0.304388
0.312645
0.320276
0.32731
0.333784
0.339739
0.345212
0.350243
0.354864
0.359109
0.363005
0.36657
0.36982
0.372766
0.375416
0.377773
0.37983
0.381586
0.383041
0.384225
0.385166
0.385954
0.386687
0.387579
0.214694
0.226873
0.238264
0.249039
0.259225
0.2688
0.277741
0.286059
0.293768
0.300887
0.307446
0.313483
0.319038
0.324148
0.32885
0.333178
0.337157
0.340804
0.344126
0.347126
0.349814
0.352203
0.354305
0.356127
0.357661
0.358907
0.359862
0.360593
0.361211
0.361845
0.188239
0.200053
0.211358
0.22206
0.232171
0.241709
0.25066
0.259018
0.26678
0.273953
0.280562
0.286644
0.292238
0.29738
0.302108
0.306459
0.310464
0.31415
0.317528
0.3206
0.323354
0.325776
0.327861
0.329621
0.331076
0.332248
0.333136
0.333782
0.334279
0.33458
0.161949
0.173226
0.184313
0.19483
0.204783
0.214231
0.223158
0.231528
0.239312
0.246499
0.25311
0.259183
0.264762
0.269885
0.274592
0.278921
0.282899
0.286547
0.289876
0.292903
0.295641
0.298094
0.300246
0.302073
0.30355
0.304681
0.305474
0.305986
0.306331
0.306355
0.136279
0.146745
0.157348
0.167479
0.177138
0.186412
0.195264
0.203606
0.211374
0.218539
0.225111
0.231127
0.236626
0.241652
0.246257
0.250494
0.25441
0.258023
0.261326
0.264301
0.266938
0.269251
0.271263
0.272989
0.274413
0.275506
0.276225
0.276579
0.276674
0.276235
0.111777
0.121069
0.130785
0.140213
0.149369
0.158339
0.167027
0.175273
0.182956
0.190027
0.196491
0.20238
0.207734
0.2126
0.217028
0.221073
0.224787
0.228215
0.23138
0.23429
0.236923
0.239242
0.241222
0.242861
0.244171
0.245165
0.245801
0.246036
0.245917
0.245092
0.0889755
0.0966969
0.10504
0.113361
0.121718
0.130179
0.138565
0.146617
0.154149
0.161073
0.167366
0.173044
0.17815
0.182753
0.186937
0.190769
0.194283
0.197487
0.200383
0.202992
0.205349
0.207467
0.209326
0.210882
0.212099
0.212967
0.213441
0.213441
0.212948
0.211514
0.0682744
0.0740992
0.080613
0.0873949
0.0945881
0.102228
0.110038
0.117663
0.124866
0.131516
0.137543
0.142924
0.147681
0.151888
0.15565
0.159079
0.162261
0.165233
0.167977
0.170451
0.172625
0.174511
0.176139
0.17752
0.178628
0.179438
0.179876
0.179748
0.178871
0.17686
0.0498416
0.0536542
0.0580535
0.0629132
0.0685789
0.0750509
0.0819401
0.088853
0.095522
0.10174
0.10735
0.112291
0.116591
0.120337
0.123623
0.12653
0.129146
0.131556
0.133809
0.135902
0.137793
0.139439
0.140827
0.141954
0.142813
0.143417
0.143743
0.143523
0.142274
0.139539
0.0335528
0.0355151
0.0378399
0.0405408
0.0443393
0.0491336
0.0544752
0.0601011
0.0658179
0.0713287
0.076318
0.0806114
0.0842218
0.087286
0.0899635
0.0923746
0.0945836
0.0966002
0.0984114
0.100024
0.101468
0.102764
0.103905
0.104849
0.10554
0.105971
0.106194
0.105976
0.104511
0.101306
0.0189223
0.0194341
0.0199574
0.0207467
0.023056
0.0260734
0.0294139
0.0331687
0.0373052
0.0415364
0.0454902
0.0488718
0.0515532
0.0536022
0.0552294
0.0566745
0.0580856
0.0594654
0.0607298
0.0618123
0.0627204
0.0635066
0.0642075
0.064811
0.065255
0.0654864
0.0655637
0.0654311
0.0641365
0.0607645
0.00569333
0.00465112
0.000808839
-2.39787e-05
0.0024106
0.00420419
0.00555813
0.0071748
0.0092098
0.011489
0.0137582
0.0157803
0.0173985
0.0185839
0.0194268
0.020072
0.0206468
0.0212116
0.0217555
0.0222393
0.0226434
0.0229793
0.0232653
0.0235068
0.0236823
0.0237356
0.0236668
0.0236407
0.0232976
0.020955
0.622447
0.606609
0.588574
0.569849
0.550669
0.530846
0.510506
0.489686
0.46838
0.446597
0.424352
0.401647
0.378492
0.354895
0.330869
0.306434
0.281613
0.256467
0.231064
0.205535
0.180069
0.154949
0.13058
0.107393
0.0858175
0.0661747
0.0486169
0.0330464
0.0189728
0.00602875
0.62046
0.603155
0.58465
0.56565
0.546399
0.526585
0.506284
0.48552
0.464278
0.442564
0.420395
0.39777
0.374698
0.351191
0.327257
0.302923
0.278207
0.253181
0.227913
0.202545
0.17728
0.152411
0.128358
0.105545
0.084383
0.0651639
0.0480011
0.0327575
0.0189115
0.00609635
0.617702
0.599429
0.580663
0.561507
0.542215
0.522416
0.502149
0.481432
0.460249
0.438601
0.416504
0.393957
0.37097
0.347552
0.323712
0.299479
0.274873
0.249967
0.224837
0.199631
0.174563
0.149934
0.12617
0.103686
0.0828875
0.0640562
0.0472833
0.0323876
0.0187922
0.00613179
0.614547
0.595659
0.576682
0.557403
0.538074
0.518294
0.498065
0.477395
0.456269
0.434684
0.412657
0.390185
0.36728
0.343951
0.320202
0.296067
0.271567
0.246781
0.221787
0.196743
0.171877
0.147495
0.124031
0.101893
0.0814727
0.0630295
0.0466282
0.0320519
0.0186815
0.00615275
0.611087
0.591837
0.572713
0.553353
0.533995
0.514234
0.494044
0.47342
0.452347
0.430822
0.408861
0.386462
0.363635
0.34039
0.316731
0.292692
0.268298
0.243629
0.218772
0.193891
0.16923
0.145102
0.121945
0.100161
0.0801274
0.0620761
0.0460372
0.0317573
0.018586
0.00616355
0.607388
0.587974
0.568766
0.549357
0.529979
0.510241
0.490086
0.469507
0.448485
0.427016
0.405118
0.382789
0.360037
0.336872
0.3133
0.289356
0.265065
0.240512
0.215793
0.191078
0.166626
0.142758
0.119915
0.0984927
0.0788489
0.0611871
0.0455
0.0314952
0.0185022
0.00616516
0.603512
0.58408
0.564844
0.545419
0.526027
0.506314
0.486195
0.465655
0.444682
0.423268
0.40143
0.379167
0.356486
0.333399
0.309911
0.286059
0.261869
0.237431
0.212852
0.188305
0.164067
0.140467
0.117946
0.096892
0.0776398
0.0603628
0.045014
0.0312629
0.0184289
0.00615952
0.599512
0.580167
0.560952
0.541539
0.522142
0.502452
0.482368
0.461868
0.440941
0.419579
0.397799
0.375597
0.352985
0.329972
0.306566
0.282801
0.258712
0.234389
0.209949
0.185575
0.161557
0.138231
0.116041
0.0953617
0.0765018
0.0596032
0.0445782
0.0310593
0.0183655
0.00614949
0.595434
0.576249
0.557093
0.537717
0.518324
0.498657
0.478607
0.458145
0.437262
0.415951
0.394224
0.372082
0.349536
0.326594
0.303265
0.279586
0.255596
0.231388
0.207088
0.182889
0.159095
0.136052
0.114201
0.0939014
0.075434
0.0589062
0.0441896
0.0308826
0.0183106
0.00613647
0.59132
0.572341
0.553274
0.533954
0.514576
0.49493
0.474912
0.454488
0.433648
0.412383
0.390708
0.368624
0.346141
0.323267
0.300011
0.276415
0.252523
0.228429
0.204269
0.180249
0.156684
0.13393
0.112424
0.0925092
0.0744339
0.058268
0.0438441
0.0307297
0.0182625
0.00611983
0.587201
0.568454
0.549499
0.530249
0.510895
0.491272
0.471286
0.450897
0.430097
0.408878
0.387252
0.365223
0.342801
0.319991
0.296806
0.273291
0.249495
0.225514
0.201495
0.177656
0.154326
0.131868
0.110712
0.0911837
0.0734968
0.0576869
0.0435378
0.0305976
0.0182202
0.00610206
0.583103
0.5646
0.545774
0.526604
0.507283
0.487685
0.467728
0.447372
0.426611
0.405434
0.383857
0.361882
0.339516
0.316768
0.293652
0.270216
0.246514
0.222645
0.198768
0.175114
0.152024
0.129867
0.109066
0.0899252
0.0726232
0.0571579
0.0432674
0.0304839
0.0181826
0.00608437
0.579047
0.560788
0.542104
0.523021
0.50374
0.484168
0.464239
0.443914
0.423189
0.402055
0.380524
0.358599
0.336288
0.313599
0.29055
0.267192
0.243581
0.219825
0.196093
0.172628
0.149783
0.127932
0.107489
0.0887352
0.0718125
0.0566791
0.0430302
0.0303864
0.0181494
0.00606763
0.57505
0.55703
0.538494
0.519504
0.500269
0.480722
0.460821
0.440526
0.419834
0.398741
0.377253
0.355376
0.333117
0.310486
0.287503
0.26422
0.2407
0.217055
0.193471
0.170201
0.147606
0.126067
0.105984
0.0876158
0.0710642
0.0562487
0.0428239
0.0303033
0.0181197
0.00605241
0.571126
0.553336
0.53495
0.516055
0.496871
0.477351
0.457476
0.437208
0.416549
0.395494
0.374046
0.352214
0.330004
0.30743
0.284511
0.261301
0.23787
0.214339
0.190907
0.167836
0.145497
0.124275
0.104553
0.0865673
0.0703773
0.0558642
0.0426458
0.0302328
0.0180931
0.00603911
0.567286
0.549714
0.53148
0.512678
0.493548
0.474055
0.454206
0.433964
0.413335
0.392314
0.370904
0.349114
0.326953
0.304433
0.281575
0.258436
0.235094
0.211677
0.1884
0.165533
0.143455
0.122555
0.103197
0.085589
0.0697496
0.0555226
0.0424929
0.030173
0.0180695
0.006028
0.563538
0.546173
0.528086
0.509376
0.490302
0.470836
0.451011
0.430795
0.410193
0.389204
0.367829
0.346079
0.323963
0.301494
0.278696
0.255626
0.232373
0.209072
0.185952
0.163293
0.141482
0.120908
0.101913
0.0846788
0.069178
0.0552204
0.042362
0.0301223
0.0180491
0.00601931
0.559892
0.542719
0.524774
0.506151
0.487133
0.467696
0.447895
0.427702
0.407125
0.386165
0.364823
0.34311
0.321037
0.298615
0.275874
0.252871
0.229707
0.206523
0.183562
0.161116
0.139577
0.119334
0.100702
0.0838341
0.0686593
0.0549541
0.0422505
0.0300794
0.0180377
0.00601334
0.556355
0.539359
0.52155
0.503008
0.484045
0.464636
0.444857
0.424685
0.404132
0.383198
0.361887
0.340208
0.318175
0.295798
0.273111
0.250175
0.227098
0.204033
0.181234
0.159004
0.137742
0.117832
0.0995612
0.0830528
0.0681908
0.0547208
0.0421561
0.0300431
0.0180426
0.00600987