/*--------------------------------*- C++ -*----------------------------------*\
  =========                 |
  \\      /  F ield         | OpenFOAM: The Open Source CFD Toolbox
   \\    /   O peration     | Website:  https://openfoam.org
    \\  /    A nd           | Version:  7
     \\/     M anipulation  |
\*---------------------------------------------------------------------------*/
FoamFile
{
    version     2.0;
    format      ascii;
    class       surfaceScalarField;
    location    "5.8";
    object      phi;
}
// * * * * * * * * * * * * * * * * * * * * * * * * * * * * * * * * * * * * * //

dimensions      [0 3 -1 0 0 0 0];

internalField   nonuniform List<scalar> 
35640
(
-1.67517e-06
-8.35771e-05
8.52523e-05
-7.27659e-06
4.65158e-05
-4.09144e-05
-1.61225e-05
0.000411082
-0.000402236
-2.64193e-05
0.000920215
-0.000909919
-3.60526e-05
0.00151861
-0.00150898
-4.29123e-05
0.0021712
-0.00216434
-4.50869e-05
0.00285471
-0.00285254
-4.09612e-05
0.00355302
-0.00355714
-2.92298e-05
0.00425462
-0.00426635
-8.86122e-06
0.00495074
-0.00497111
2.08776e-05
0.00563413
-0.00566387
6.04528e-05
0.00629842
-0.00633799
0.000110145
0.00693781
-0.0069875
0.000170055
0.00754705
-0.00760696
0.000240139
0.00812139
-0.00819147
0.000320243
0.00865661
-0.00873672
0.000410121
0.00914922
-0.0092391
0.000509447
0.00959638
-0.00969571
0.000617838
0.00999603
-0.0101044
0.000734869
0.0103469
-0.0104639
0.000860094
0.0106483
-0.0107735
0.000993073
0.0109004
-0.0110333
0.00113336
0.0111038
-0.011244
0.00128052
0.0112595
-0.0114067
0.00143412
0.0113691
-0.0115227
0.00159372
0.0114341
-0.0115937
0.00175879
0.0114563
-0.0116214
0.00192863
0.0114374
-0.0116073
0.00210215
0.0113811
-0.0115546
0.0112923
0.00227771
-0.0114678
-3.73984e-06
-7.98376e-05
-1.37295e-05
5.6505e-05
-2.85257e-05
0.000425878
-4.58598e-05
0.00093755
-6.33257e-05
0.00153608
-7.86583e-05
0.00218653
-8.97905e-05
0.00286585
-9.49667e-05
0.00355819
-9.27536e-05
0.00425241
-8.20406e-05
0.00494003
-6.20128e-05
0.00561411
-3.21178e-05
0.00626852
7.9913e-06
0.0068977
5.84861e-05
0.00749656
0.000119397
0.00806047
0.000190615
0.0085854
0.000271936
0.0090679
0.000363082
0.00950524
0.000463719
0.00989539
0.000573466
0.0102371
0.000691902
0.0105298
0.000818589
0.0107737
0.000953077
0.0109693
0.00109491
0.0111177
0.0012436
0.0112204
0.00139861
0.0112791
0.00155925
0.0112957
0.00172464
0.011272
0.00189349
0.0112123
0.0111219
0.0020639
-5.66889e-06
-7.41688e-05
-1.96992e-05
7.05357e-05
-3.99462e-05
0.000446125
-6.37194e-05
0.000961323
-8.83254e-05
0.00156069
-0.000111312
0.00220952
-0.000130466
0.002885
-0.000143953
0.00357168
-0.000150252
0.00425871
-0.000148159
0.00493794
-0.000136775
0.00560272
-0.000115474
0.00624722
-8.38474e-05
0.00686607
-4.16712e-05
0.00745438
1.11154e-05
0.00800769
7.44556e-05
0.00852205
0.000148206
0.00899415
0.000232129
0.00942131
0.000325911
0.00980161
0.000429192
0.0101338
0.000541582
0.0104175
0.000662664
0.0106526
0.000791992
0.0108399
0.000929077
0.0109806
0.00107338
0.0110761
0.00122424
0.0111283
0.00138084
0.0111391
0.00154212
0.0111108
0.00170656
0.0110478
0.0109564
0.00187205
-7.4125e-06
-6.67565e-05
-2.52302e-05
8.83533e-05
-5.049e-05
0.000471385
-8.00489e-05
0.000990882
-0.000110969
0.00159161
-0.00014067
0.00223922
-0.000166834
0.00291116
-0.000187527
0.00359237
-0.000201162
0.00427234
-0.00020647
0.00494325
-0.00020248
0.00559873
-0.000188503
0.00623325
-0.000164097
0.00684167
-0.000128992
0.00741927
-8.30769e-05
0.00796177
-2.63736e-05
0.00846535
4.09951e-05
0.00892678
0.00011882
0.00934349
0.000206822
0.00971361
0.000304673
0.010036
0.000412012
0.0103101
0.000528433
0.0105362
0.000653494
0.0107149
0.000786692
0.0108474
0.000927425
0.0109354
0.00107496
0.0109807
0.00122834
0.0109857
0.00138631
0.0109528
0.00154714
0.010887
0.010795
0.00170849
-9.03643e-06
-5.77199e-05
-3.02375e-05
0.000109554
-5.9903e-05
0.000501051
-9.4493e-05
0.00102547
-0.000130847
0.00162796
-0.000166229
0.00227461
-0.000198269
0.0029432
-0.000224962
0.00361907
-0.000244658
0.00429204
-0.000256032
0.00495462
-0.000258073
0.00560077
-0.000250044
0.00622522
-0.000231448
0.00682307
-0.00020199
0.00738982
-0.000161541
0.00792132
-0.000110095
0.00841391
-4.77483e-05
0.00886443
2.53143e-05
0.00927043
0.000108836
0.00963009
0.00020252
0.00994229
0.000306031
0.0102066
0.000418991
0.0104232
0.000540972
0.0105929
0.000671465
0.0107169
0.000809843
0.010797
0.000955296
0.0108353
0.00110674
0.0108343
0.00126277
0.0107968
0.00142143
0.0107283
0.0106363
0.00158015
-1.04594e-05
-4.72608e-05
-3.46435e-05
0.000133739
-6.81106e-05
0.000534518
-0.00010692
0.00106428
-0.000147725
0.00166877
-0.000187695
0.00231458
-0.000224399
0.00297991
-0.000255779
0.00365045
-0.000280151
0.00431641
-0.000296152
0.00497062
-0.000302727
0.00560735
-0.000299103
0.00622159
-0.000284758
0.00680873
-0.000259377
0.00736444
-0.00022281
0.00788476
-0.000175032
0.00836613
-0.000116131
0.00880553
-4.62794e-05
0.00920057
3.42979e-05
0.00954951
0.000125333
0.00985126
0.000226521
0.0101054
0.000337518
0.0103122
0.000457928
0.0104725
0.000587261
0.0105876
0.000724887
0.0106594
0.000869944
0.0106902
0.00102127
0.0106829
0.0011773
0.0106407
0.00133589
0.0105697
0.010478
0.00149418
-1.17046e-05
-3.55561e-05
-3.84143e-05
0.000160449
-7.49887e-05
0.000571092
-0.000117143
0.00110644
-0.000161368
0.00171299
-0.000204735
0.00235794
-0.000244788
0.00301996
-0.000279452
0.00368511
-0.000307006
0.00434396
-0.00032606
0.00498968
-0.000335538
0.00561682
-0.000334644
0.0062207
-0.000322835
0.00679692
-0.000299782
0.00734138
-0.000265324
0.0078503
-0.000219434
0.00832024
-0.000162193
0.00874829
-9.37586e-05
0.00913214
-1.43353e-05
0.00947008
7.58402e-05
0.00976108
0.0001765
0.0100048
0.00028735
0.0102014
0.000408043
0.0103518
0.000538136
0.0104575
0.000677027
0.0105205
0.000823851
0.0105434
0.000977394
0.0105294
0.00113597
0.0104822
0.00129726
0.0104084
0.0103172
0.00145805
-1.27523e-05
-2.28036e-05
-4.15001e-05
0.000189197
-8.04658e-05
0.000610058
-0.00012504
0.00115101
-0.000171574
0.00175953
-0.000217084
0.00240345
-0.000259101
0.00306198
-0.000295537
0.00372155
-0.000324665
0.00437309
-0.000345086
0.0050101
-0.000355706
0.00562744
-0.000355715
0.00622071
-0.000344562
0.00678576
-0.000321913
0.00731873
-0.000287599
0.00781598
-0.000241599
0.00827424
-0.000183994
0.00869069
-0.000114932
0.00906308
-3.4597e-05
0.00938975
5.68043e-05
0.00966968
0.00015905
0.00990251
0.000271906
0.0100885
0.000395095
0.0102286
0.000528254
0.0103243
0.000670844
0.0103779
0.000822054
0.0103922
0.000980663
0.0103708
0.00114492
0.0103179
0.00131231
0.0102411
0.0101503
0.00147928
-1.35984e-05
-9.20501e-06
-4.38818e-05
0.00021948
-8.44909e-05
0.000650668
-0.000130527
0.00119705
-0.000178226
0.00180722
-0.000224567
0.00244979
-0.000267082
0.00310449
-0.000303697
0.00375816
-0.000332694
0.00440209
-0.000352674
0.00503008
-0.000362541
0.00563731
-0.000361481
0.00621965
-0.000348942
0.00677323
-0.000324585
0.00729438
-0.000288249
0.00777965
-0.000239917
0.00822591
-0.000179675
0.00863044
-0.000107665
0.00899107
-2.40569e-05
0.00930614
7.09747e-05
0.00957465
0.000177256
0.00979623
0.000294623
0.00997114
0.000422893
0.0101003
0.000561808
0.0101854
0.00071094
0.0102288
0.000869581
0.0102335
0.00103658
0.0102038
0.00121015
0.0101443
0.00138766
0.0100635
0.00997281
0.0015651
-1.42391e-05
5.03434e-06
-4.55504e-05
0.000250792
-8.70503e-05
0.000692168
-0.000133578
0.00124357
-0.00018127
0.00185492
-0.000227089
0.00249561
-0.000268584
0.00314599
-0.000303714
0.00379329
-0.000330784
0.00442916
-0.00034841
0.0050477
-0.000355505
0.00564441
-0.000351262
0.0062154
-0.00033513
0.00675709
-0.000306771
0.00726602
-0.000266035
0.00773891
-0.000212917
0.00817279
-0.000147507
0.00856504
-6.99457e-05
0.0089135
1.96096e-05
0.00921658
0.000121003
0.00947325
0.000234122
0.00968311
0.000358876
0.00984639
0.000495186
0.00996402
0.000642923
0.0100377
0.000801818
0.0100699
0.00097132
0.010064
0.00115041
0.0100247
0.00133737
0.00995738
0.00152945
0.00987148
0.00978005
0.0017222
-1.46743e-05
1.97088e-05
-4.65173e-05
0.000282635
-8.81662e-05
0.000733817
-0.000134219
0.00128963
-0.000180729
0.00190143
-0.000224656
0.00253954
-0.000263579
0.00318491
-0.000295505
0.00382522
-0.000318779
0.00445243
-0.000332047
0.00506097
-0.000334241
0.0056466
-0.000324567
0.00620573
-0.000302476
0.006735
-0.000267643
0.00723119
-0.000219928
0.0076912
-0.000159337
0.0081122
-8.59667e-05
0.00849167
3.69762e-08
0.0088275
9.85195e-05
0.0091181
0.000209357
0.00936242
0.000332473
0.00955999
0.000467856
0.00971101
0.000615534
0.00981635
0.000775522
0.00987769
0.000947738
0.00989765
0.00113185
0.00987992
0.00132704
0.00982949
0.00153173
0.00975269
0.00174313
0.00966008
0.00956682
0.00195637
-1.4912e-05
3.46208e-05
-4.6812e-05
0.000314536
-8.78947e-05
0.0007749
-0.000132534
0.00133427
-0.000176707
0.0019456
-0.000217376
0.00258021
-0.000252164
0.0032197
-0.000279138
0.0038522
-0.000296698
0.00446999
-0.000303531
0.0050678
-0.0002986
0.00564167
-0.000281128
0.00618826
-0.000250577
0.00670445
-0.000206632
0.00718724
-0.000149166
0.00763373
-7.81943e-05
0.00804122
6.17625e-06
0.00840729
0.00010379
0.00872989
0.000214494
0.0090074
0.000338177
0.00923873
0.000474801
0.00942337
0.000624413
0.00956139
0.000787138
0.00965362
0.000963137
0.00970169
0.00115253
0.00970826
0.00135523
0.00967722
0.00157071
0.00961401
0.00179761
0.00952579
0.00203321
0.00942448
0.0093278
0.00227223
-1.4966e-05
4.9587e-05
-4.6484e-05
0.000346054
-8.63299e-05
0.000814745
-0.000128666
0.0013766
-0.000169388
0.00198632
-0.000205465
0.00261629
-0.00023457
0.00324881
-0.000254843
0.00387247
-0.000264747
0.0044799
-0.000263024
0.00506608
-0.000248676
0.00562732
-0.000220949
0.00616053
-0.00017932
0.00666282
-0.000123487
0.00713141
-5.33323e-05
0.00756358
3.11187e-05
0.00795677
0.000129748
0.00830867
0.000242391
0.00861724
0.000368887
0.0088809
0.000509126
0.00909849
0.000663086
0.00926941
0.000830854
0.00939363
0.00101263
0.00947185
0.00120869
0.00950563
0.00141936
0.0094976
0.0016448
0.00945177
0.00188482
0.00937398
0.00213838
0.00927223
0.00240295
0.00915991
0.00905782
0.00267293
-1.48571e-05
6.44445e-05
-4.56005e-05
0.000376798
-8.36012e-05
0.000852746
-0.00012281
0.00141581
-0.000159034
0.00202255
-0.000189245
0.0026465
-0.00021117
0.00327073
-0.000223021
0.00388432
-0.000223339
0.00448022
-0.000210928
0.00505367
-0.000184837
0.00560123
-0.000144343
0.00612004
-8.89418e-05
0.00660742
-1.83423e-05
0.00706081
6.75616e-05
0.00747767
0.00016874
0.0078556
0.000285064
0.00819234
0.000416354
0.00848595
0.000562435
0.00873482
0.000723186
0.00893774
0.000898575
0.00909402
0.0010887
0.0092035
0.00129379
0.00926676
0.00151421
0.00928521
0.00175041
0.00926139
0.00200284
0.00919935
0.00227163
0.00910519
0.00255613
0.00898772
0.00285413
0.00886191
0.00875208
0.00315987
-1.46119e-05
7.90568e-05
-4.42453e-05
0.000406431
-7.98692e-05
0.00088837
-0.000115216
0.00145116
-0.000145986
0.00205332
-0.000169145
0.00266966
-0.00018247
0.00328406
-0.000184247
0.0038861
-0.000173096
0.00446906
-0.000147896
0.00502847
-0.00010775
0.00556108
-5.1968e-05
0.00606425
1.99277e-05
0.00653552
0.000108217
0.00697252
0.000213002
0.00737289
0.000334242
0.00773435
0.000471798
0.00805479
0.000625476
0.00833227
0.00079508
0.00856522
0.000980456
0.00875237
0.00118154
0.00889293
0.00139839
0.00898665
0.00163123
0.00903392
0.00188044
0.009036
0.00214656
0.00899527
0.00243021
0.00891569
0.00273186
0.00880355
0.00305127
0.00866831
0.0033867
0.00852648
0.00840635
0.00373243
-1.42614e-05
9.33184e-05
-4.25152e-05
0.000434685
-7.53208e-05
0.000921175
-0.000106174
0.00148201
-0.000130649
0.00207779
-0.000145688
0.0026847
-0.000149107
0.00328748
-0.000139262
0.00387625
-0.000114856
0.00444466
-7.4847e-05
0.00498846
-1.83948e-05
0.00550463
5.51442e-05
0.00599071
0.000146224
0.00644445
0.000255109
0.00686363
0.000381893
0.0072461
0.000526531
0.00758972
0.000688871
0.00789244
0.000868701
0.00815245
0.00106579
0.00836813
0.00127994
0.00853822
0.00151102
0.00866185
0.00175902
0.00873864
0.00202409
0.00876886
0.00230654
0.00875355
0.00260692
0.00869489
0.00292594
0.00859667
0.0032643
0.00846519
0.00362221
0.00831039
0.00399846
0.00815023
0.00801721
0.0043876
-1.38399e-05
0.000107158
-4.05164e-05
0.000461362
-7.01615e-05
0.000950821
-9.6008e-05
0.00150786
-0.000113479
0.00209526
-0.000119475
0.00269069
-0.000111831
0.00327983
-8.8966e-05
0.00385339
-4.96619e-05
0.00440535
7.04258e-06
0.00493176
8.19221e-05
0.00542975
0.000175575
0.00589706
0.00028842
0.0063316
0.000420702
0.00673135
0.000572507
0.0070943
0.000743778
0.00741845
0.00093435
0.00770187
0.00114398
0.00794281
0.0013724
0.0081397
0.00161935
0.00829127
0.00188461
0.00839659
0.00216804
0.00845521
0.00246966
0.00846724
0.00278965
0.00843355
0.00312846
0.00835608
0.00348675
0.00823838
0.00386537
0.00808657
0.00426487
0.00791089
0.00468462
0.00773048
0.00758212
0.00511971
-1.33836e-05
0.000120542
-3.83599e-05
0.000486338
-6.46061e-05
0.000977067
-8.50613e-05
0.00152831
-9.49716e-05
0.00210517
-9.1166e-05
0.00268689
-7.14818e-05
0.00326015
-3.43847e-05
0.00381629
2.1268e-05
0.0043497
9.63614e-05
0.00485666
0.000191601
0.00533451
0.000307531
0.00578113
0.000444529
0.0061946
0.000602815
0.00657306
0.000782454
0.00691466
0.000983377
0.00721752
0.00120539
0.00747986
0.00144823
0.00769997
0.00171156
0.00787638
0.00199503
0.0080078
0.0022983
0.00809332
0.0026211
0.00813242
0.00296323
0.0081251
0.00332469
0.0080721
0.00370568
0.00797509
0.00410674
0.00783732
0.00452868
0.00766463
0.0049723
0.00746727
0.00543752
0.00726525
0.00709949
0.00592015
-1.29286e-05
0.000133471
-3.61551e-05
0.000509565
-5.88685e-05
0.00099978
-7.36799e-05
0.00154313
-7.563e-05
0.00210712
-6.14491e-05
0.00267271
-2.89516e-05
0.00322765
2.33644e-05
0.00376398
9.65795e-05
0.00427649
0.000191506
0.00476174
0.000308779
0.00521724
0.000448879
0.00564103
0.000612137
0.00603134
0.000798736
0.00638647
0.00100871
0.00670468
0.00124196
0.00698427
0.00149827
0.00722355
0.0017773
0.00742094
0.00207866
0.00757502
0.00240189
0.00768458
0.00274649
0.00774871
0.00311201
0.0077669
0.00349802
0.0077391
0.00390423
0.00766589
0.00433055
0.00754876
0.00477723
0.00739063
0.00524493
0.00719693
0.00573453
0.00697768
0.00624642
0.00675337
0.00656868
0.00677723
-1.25084e-05
0.000145979
-3.40039e-05
0.00053106
-5.31488e-05
0.00101892
-6.21921e-05
0.00155217
-5.59426e-05
0.00210088
-3.10034e-05
0.00264777
1.48568e-05
0.00318179
8.31294e-05
0.0036957
0.000174844
0.00418477
0.000290749
0.00464583
0.000431406
0.00507658
0.000597229
0.00547521
0.000788489
0.00584008
0.00100532
0.00616964
0.0012477
0.00646229
0.0015155
0.00671647
0.00180844
0.00693061
0.00212611
0.00710327
0.00246802
0.00723311
0.00283357
0.00731903
0.00322211
0.00736018
0.00363293
0.00735607
0.00406535
0.00730668
0.00451874
0.00721249
0.00499267
0.00707484
0.005487
0.00689631
0.00600208
0.00668185
0.00653872
0.00644103
0.00709767
0.00619442
0.00598992
0.00767643
-1.21518e-05
0.000158131
-3.19935e-05
0.000550902
-4.76198e-05
0.00103455
-5.0888e-05
0.00155544
-3.63509e-05
0.00208634
-4.59729e-07
0.00261188
5.90878e-05
0.00312225
0.00014379
0.003611
0.000254641
0.00407392
0.000392334
0.00450814
0.000557358
0.00491156
0.000750053
0.00528251
0.00097062
0.00561952
0.00121912
0.00592114
0.00149548
0.00618593
0.00179948
0.00641246
0.00213078
0.00659932
0.00248886
0.00674519
0.0028731
0.00684887
0.00328276
0.00690937
0.00371696
0.00692597
0.00417476
0.00689828
0.00465515
0.00682628
0.00515717
0.00671048
0.00567994
0.00655206
0.00622291
0.00635334
0.00678601
0.00611874
0.00736988
0.00585717
0.00797544
0.00558886
0.00536429
0.00860107
-1.18807e-05
0.000170012
-3.01892e-05
0.00056921
-4.24144e-05
0.00104678
-3.99969e-05
0.00155302
-1.72151e-05
0.00206356
2.96503e-05
0.00256501
0.000102994
0.0030489
0.000204338
0.00350966
0.000334659
0.0039436
0.000494599
0.0043482
0.00068458
0.00472158
0.000904861
0.00506223
0.00115556
0.00536882
0.00143665
0.00564005
0.00174796
0.00587462
0.0020892
0.00607122
0.0024599
0.00622863
0.00285943
0.00634566
0.003287
0.00642129
0.00374168
0.00645469
0.00422238
0.00644528
0.00472785
0.0063928
0.00525678
0.00629735
0.0058078
0.00615946
0.00637959
0.00598027
0.00697112
0.00576182
0.00758187
0.00550799
0.00821213
0.00522691
0.00886297
0.00493802
0.0046937
0.00953357
-1.17081e-05
0.00018172
-2.86288e-05
0.000586131
-3.76126e-05
0.00105576
-2.96667e-05
0.00154507
1.21411e-06
0.00203268
5.89382e-05
0.00250729
0.000146001
0.00296184
0.000263968
0.00339169
0.000413807
0.00379376
0.000596121
0.00416588
0.000811265
0.00450643
0.00105941
0.00481409
0.00134057
0.00508766
0.00165463
0.00532599
0.0020013
0.00552794
0.00238017
0.00569236
0.00279063
0.00581817
0.0032319
0.00590439
0.00370302
0.00595017
0.00420283
0.00595488
0.00472998
0.00591813
0.00528295
0.00583984
0.00586005
0.00572025
0.0064595
0.00556001
0.00707955
0.00536022
0.00771861
0.00512276
0.00837564
0.00485096
0.00905054
0.00455201
0.00974436
0.0042442
0.00398093
0.0104571
-1.16362e-05
0.000193356
-2.7317e-05
0.000601812
-3.3231e-05
0.00106167
-1.99452e-05
0.00153179
1.88346e-05
0.0019939
8.72069e-05
0.00243892
0.000187778
0.00286127
0.000322165
0.0032573
0.000491341
0.00362458
0.000695873
0.00396135
0.000936046
0.00426626
0.00121194
0.00453819
0.00152347
0.00477613
0.00187038
0.00497908
0.00225228
0.00514604
0.00266859
0.00527605
0.00311856
0.0053682
0.00360122
0.00542172
0.00411542
0.00543597
0.00465977
0.00541053
0.00523265
0.00534525
0.00583223
0.00524026
0.00645646
0.00509602
0.00710313
0.00491333
0.00776998
0.00469337
0.00845486
0.00443788
0.00915609
0.00414973
0.00987303
0.00383506
0.0106066
0.00351062
0.00322982
0.0113577
-1.16551e-05
0.000205011
-2.62222e-05
0.000616379
-2.92146e-05
0.00106467
-1.07554e-05
0.00151333
3.57106e-05
0.00194743
0.000114489
0.00236014
0.000228291
0.00274747
0.000378791
0.0031068
0.000566972
0.0034364
0.000793367
0.00373495
0.00105819
0.00400143
0.00136144
0.00423495
0.00170289
0.00443468
0.00208218
0.00459979
0.00249875
0.00472946
0.00295188
0.00482292
0.00344063
0.00487945
0.00396386
0.00489849
0.00452021
0.00487963
0.00510804
0.0048227
0.00572548
0.0047278
0.00637039
0.00459535
0.00704035
0.00442606
0.00773272
0.00422096
0.00844468
0.00398142
0.00917339
0.00370916
0.0099164
0.00340672
0.0106722
0.00307922
0.0114414
0.00274143
0.00244547
0.0122258
-1.1742e-05
0.000216753
-2.52739e-05
0.00062991
-2.5434e-05
0.00106483
-1.92522e-06
0.00148982
5.20898e-05
0.00189342
0.000141073
0.00227116
0.000267849
0.00262069
0.000434145
0.00294051
0.000640959
0.00322959
0.000888789
0.00348712
0.00117778
0.00371243
0.00150783
0.00390491
0.0018786
0.00406391
0.00228957
0.00418882
0.00274005
0.00427899
0.00322913
0.00433384
0.0037557
0.00435288
0.00431844
0.00433575
0.00491576
0.0042823
0.00554583
0.00419262
0.00620652
0.00406711
0.00689541
0.00390647
0.00760972
0.00371175
0.00834635
0.00348433
0.00910189
0.00322588
0.0098727
0.00293836
0.0106552
0.0026242
0.0114467
0.00228771
0.0122466
0.00194152
0.00163478
0.0130573
-1.18614e-05
0.000228614
-2.43637e-05
0.000642413
-2.16808e-05
0.00106214
6.8862e-06
0.00146125
6.84127e-05
0.00183189
0.000167519
0.00217205
0.000307123
0.00248109
0.000489003
0.00275863
0.000714166
0.00300443
0.000983074
0.00321821
0.0012958
0.0033997
0.00165214
0.00354857
0.00205163
0.00366442
0.00249362
0.00374683
0.00297724
0.00379537
0.00350141
0.00380967
0.00406485
0.00378944
0.00466604
0.00373456
0.00530323
0.00364512
0.00597436
0.00352149
0.00667711
0.00336436
0.00740878
0.00317479
0.00816632
0.00295421
0.00894618
0.00270447
0.00974431
0.00242774
0.0105561
0.00212655
0.0113766
0.0018037
0.0122011
0.00146324
0.0130266
0.00111604
0.000807112
0.0138542
-1.19672e-05
0.000240582
-2.33482e-05
0.000653794
-1.76786e-05
0.00105647
1.61086e-05
0.00142747
8.52977e-05
0.0017627
0.000194641
0.00206271
0.000347139
0.00232859
0.00054461
0.00256116
0.000788063
0.00276097
0.00107792
0.00292836
0.00141418
0.00306344
0.00179653
0.00316622
0.00222439
0.00323656
0.00269695
0.00327427
0.00321317
0.00327915
0.00377181
0.00325103
0.00437141
0.00318984
0.00501026
0.00309571
0.00568642
0.00296896
0.00639768
0.00281023
0.00714151
0.00262053
0.00791504
0.00240126
0.00871496
0.00215429
0.00953742
0.00188201
0.0103778
0.00158735
0.0112306
0.00127382
0.0120888
0.000945413
0.012945
0.000607101
0.0137917
0.000269362
-2.61761e-05
0.0146249
-1.20036e-05
0.000252585
-2.2055e-05
0.000663845
-1.30914e-05
0.00104751
2.62799e-05
0.00138809
0.000103519
0.00168546
0.000223483
0.00194274
0.000389238
0.00216284
0.000602631
0.00234776
0.000864662
0.00249894
0.00117571
0.00261731
0.00153568
0.00270346
0.00194417
0.00275773
0.00240045
0.00278028
0.00290355
0.00277117
0.00345226
0.00273043
0.00404516
0.00265813
0.00468058
0.00255442
0.00535664
0.00241965
0.00607118
0.00225441
0.00682182
0.00205959
0.00760588
0.00183648
0.00842034
0.0015868
0.00926179
0.00131284
0.0101263
0.0010175
0.0110091
0.000704533
0.0119042
0.000378756
0.0128031
4.64488e-05
0.0136941
-0.00028381
0.01456
-0.000596619
-0.000854425
0.0153883
-1.19084e-05
0.000264493
-2.02893e-05
0.000672226
-7.53642e-06
0.00103476
3.80149e-05
0.00134254
0.000123969
0.00159951
0.00025526
0.00181145
0.000435002
0.00198309
0.000665054
0.00211771
0.000946393
0.0022176
0.00127933
0.00228437
0.00166371
0.00231909
0.00209897
0.00232247
0.00258423
0.00229501
0.00311836
0.00223704
0.00369994
0.00214885
0.00432733
0.00203074
0.00499862
0.00188313
0.00571169
0.00170659
0.00646415
0.00150195
0.00725339
0.00127035
0.00807654
0.00101333
0.00893046
0.000732882
0.00981176
0.00043153
0.0107168
0.000112488
0.0116414
-0.00022013
0.0125811
-0.000560881
0.0135296
-0.000902083
0.0144767
-0.00123094
0.0153951
-0.00151497
0.0161882
-0.00164755
0.00291235
0.0601055
-0.0607402
0.00366556
0.0549747
-0.0557279
0.00441544
0.049453
-0.0502028
0.00515121
0.0450451
-0.0457809
0.00580178
0.0421798
-0.0428304
0.00632148
0.0406837
-0.0412034
0.00668662
0.0401734
-0.0405385
0.00689796
0.0402483
-0.0404597
0.00697491
0.0406304
-0.0407073
0.00694425
0.0411741
-0.0411434
0.00683257
0.0418275
-0.0417158
0.00666111
0.0425689
-0.0423974
0.00644472
0.0433809
-0.0431645
0.00619412
0.0442347
-0.0439841
0.00591671
0.0451013
-0.0448239
0.0056179
0.0459582
-0.0456594
0.00530246
0.0467852
-0.0464698
0.00497422
0.0475714
-0.0472432
0.00463627
0.0483105
-0.0479725
0.00429105
0.0489983
-0.0486531
0.00394049
0.04963
-0.0492795
0.00358631
0.0502061
-0.0498519
0.00322929
0.0507254
-0.0503684
0.00287062
0.051184
-0.0508254
0.00251028
0.051585
-0.0512246
0.00214873
0.0519236
-0.051562
0.00178556
0.0522066
-0.0518435
0.00142201
0.0524514
-0.0520878
0.00106063
0.0526709
-0.0523095
0.0528296
-0.0524746
0.00273903
0.0594304
0.00355631
0.0541574
0.00437171
0.0486375
0.00517203
0.0442448
0.00587766
0.0414742
0.00644001
0.0401214
0.00683531
0.0397781
0.00706604
0.0400176
0.00715363
0.0405428
0.00712737
0.0412003
0.00701537
0.0419395
0.00684104
0.0427432
0.00661975
0.0436022
0.00636317
0.0444913
0.0060784
0.045386
0.0057716
0.046265
0.00544736
0.0471094
0.00510958
0.0479092
0.00476133
0.0486587
0.00440559
0.0493541
0.00404379
0.0499918
0.00367808
0.0505718
0.00330946
0.051094
0.00293858
0.0515549
0.00256641
0.0519571
0.00219264
0.0522973
0.00181763
0.0525816
0.00144255
0.0528264
0.0010698
0.0530437
0.0531959
0.00257855
0.0587239
0.00345436
0.0532815
0.00433241
0.0477595
0.00519529
0.0433819
0.00595493
0.0407145
0.00655942
0.0395169
0.00698467
0.0393528
0.00723475
0.0397675
0.00733298
0.0404446
0.00731121
0.0412221
0.007199
0.0420517
0.00702181
0.0429204
0.00679566
0.0438283
0.00653314
0.0447538
0.00624118
0.045678
0.0059265
0.0465797
0.00559359
0.0474424
0.0052464
0.0482564
0.00488796
0.0490172
0.00452174
0.0497203
0.00414875
0.0503648
0.00377149
0.0509491
0.00339124
0.0514742
0.00300814
0.051938
0.00262405
0.0523412
0.00223799
0.0526834
0.00185098
0.0529687
0.00146419
0.0532132
0.00107974
0.0534281
0.0535739
0.00243699
0.0579954
0.00336442
0.0523541
0.00430079
0.0468231
0.00522298
0.0424597
0.00603472
0.0399028
0.00668024
0.0388714
0.00713485
0.0388982
0.00740405
0.0394983
0.00751294
0.0403357
0.00749559
0.0412395
0.0073833
0.042164
0.00720313
0.0431006
0.00697233
0.0440591
0.00670382
0.0450224
0.00640493
0.0459769
0.00608244
0.0469022
0.00574095
0.0477838
0.00538447
0.0486129
0.00501604
0.0493856
0.00463925
0.0500971
0.00425526
0.0507488
0.00386651
0.0513378
0.00347449
0.0518663
0.00307935
0.0523332
0.00268304
0.0527375
0.00228476
0.0530817
0.00188555
0.0533679
0.00148683
0.053612
0.00109049
0.0538244
0.053964
0.00232121
0.0572543
0.00329157
0.0513838
0.00428045
0.0458342
0.00525738
0.0414828
0.00611826
0.0390419
0.00680299
0.0381867
0.00728607
0.0384151
0.00757395
0.0392104
0.0076933
0.0402163
0.00768021
0.0412525
0.00756801
0.0422762
0.0073849
0.0432837
0.00714953
0.0442945
0.00687499
0.0452969
0.00656938
0.0462825
0.00623921
0.0472324
0.00588924
0.0481338
0.00552359
0.0489785
0.00514539
0.0497638
0.00475802
0.0504844
0.00436316
0.0511436
0.00396296
0.051738
0.00355907
0.0522701
0.00315203
0.0527402
0.00274332
0.0531462
0.00233288
0.0534921
0.00192134
0.0537794
0.00151042
0.0540229
0.00110199
0.0542329
0.0543667
0.00223874
0.0565098
0.00324147
0.050381
0.00427522
0.0448005
0.00530082
0.0404572
0.00620683
0.0381359
0.0069283
0.0374652
0.00743848
0.037905
0.00774437
0.0389045
0.00787393
0.0400868
0.00786501
0.0412615
0.00775291
0.0423883
0.0075669
0.0434697
0.00732701
0.0445344
0.00704656
0.0455773
0.00673431
0.0465947
0.00639661
0.0475701
0.0060383
0.0484921
0.00566361
0.0493532
0.00527577
0.0501516
0.00487795
0.0508823
0.00447226
0.0515493
0.0040607
0.0521496
0.00364497
0.0526859
0.003226
0.0531592
0.0028049
0.0535673
0.0023822
0.0539148
0.00195825
0.0542033
0.00153495
0.0544462
0.00111418
0.0546536
0.0547823
0.00219742
0.0557704
0.00322011
0.0493584
0.00428925
0.0437313
0.00535581
0.0393906
0.00630182
0.0371899
0.00705681
0.0367102
0.0075923
0.0373695
0.00791526
0.0385816
0.00805469
0.0399473
0.0080498
0.0412664
0.00793778
0.0425003
0.00774892
0.0436585
0.00750455
0.0447788
0.00721835
0.0458635
0.00689951
0.0469136
0.00655444
0.0479151
0.00618796
0.0488586
0.00580437
0.0497368
0.00540699
0.050549
0.00499888
0.0512904
0.00458241
0.0519658
0.00415957
0.0525724
0.00373208
0.0531134
0.00330114
0.0535902
0.00286769
0.0540008
0.00243264
0.0543499
0.00199621
0.0546398
0.00156035
0.054882
0.00112699
0.055087
0.0552112
0.00220521
0.0550445
0.0032337
0.0483299
0.00432687
0.0426382
0.00542508
0.0382924
0.00640471
0.0362103
0.00718922
0.0359257
0.00774773
0.036811
0.0080866
0.0382427
0.0082354
0.0397985
0.00823438
0.0412674
0.00812241
0.0426123
0.00793075
0.0438502
0.00768195
0.0450276
0.00739014
0.0461554
0.00706482
0.0472389
0.00671252
0.0482674
0.00633804
0.0492331
0.00594568
0.0501292
0.00553889
0.0509558
0.00512065
0.0517086
0.00469348
0.052393
0.00425944
0.0530065
0.00382025
0.0535525
0.00337734
0.0540331
0.00293156
0.0544466
0.0024841
0.0547973
0.00203515
0.0550887
0.00158658
0.0553306
0.00114039
0.0555332
0.0556535
0.00226988
0.0543397
0.00328857
0.0473112
0.00439259
0.0415342
0.00551149
0.0371735
0.00651711
0.0352047
0.00732629
0.0351165
0.00790505
0.0362322
0.00825838
0.0378894
0.00841593
0.039641
0.00841856
0.0412647
0.00830657
0.0427243
0.00811218
0.0440446
0.00785904
0.0452807
0.00756173
0.0464527
0.00723005
0.0475706
0.00687067
0.0486268
0.00648834
0.0496154
0.00608737
0.0505302
0.00567131
0.0513718
0.00524309
0.0521368
0.00480532
0.0528308
0.00436015
0.0534516
0.00390935
0.0540034
0.0034545
0.0544879
0.00299641
0.0549046
0.00253649
0.0552573
0.00207496
0.0555503
0.00161357
0.055792
0.00115432
0.0559924
0.0561097
0.0023987
0.0536632
0.00339097
0.0463189
0.00449095
0.0404342
0.00561805
0.0360464
0.00664072
0.034182
0.00746886
0.0342884
0.00806454
0.0356365
0.00843061
0.0375233
0.00859612
0.0394755
0.00860213
0.0412587
0.00849006
0.0428363
0.00829301
0.0442416
0.00803559
0.0455381
0.00773291
0.0467553
0.00739502
0.0479085
0.0070287
0.0489931
0.00663868
0.0500054
0.00622929
0.0509395
0.00580408
0.0517971
0.00536602
0.0525749
0.00491778
0.053279
0.00446158
0.0539078
0.00399923
0.0544657
0.00353248
0.0549547
0.00306212
0.055375
0.00258971
0.0557297
0.00211556
0.0560244
0.00164125
0.0562663
0.00116875
0.056465
0.0565798
0.00259804
0.0530215
0.0035468
0.0453701
0.00462647
0.0393545
0.00574785
0.0349251
0.00677739
0.0331524
0.00761786
0.0334479
0.00822656
0.0350278
0.00860332
0.0371465
0.00877583
0.039303
0.00878491
0.0412497
0.00867267
0.0429486
0.00847301
0.0444413
0.00821142
0.0457997
0.00790349
0.0470633
0.00755953
0.0482524
0.00718643
0.0493662
0.0067889
0.050403
0.00637126
0.0513572
0.00593705
0.0522313
0.0054893
0.0530226
0.00503072
0.0537376
0.00456358
0.054375
0.00408978
0.0549395
0.00361116
0.0554333
0.0031286
0.0558576
0.00264367
0.0562146
0.00215686
0.0565112
0.00166956
0.0567536
0.00118364
0.0569509
0.0570641
0.00287305
0.0524207
0.00376136
0.0444818
0.0048034
0.0383125
0.00590395
0.0338245
0.00692899
0.0321274
0.00777426
0.0326026
0.00839148
0.0344106
0.00877656
0.0367615
0.00895495
0.0391246
0.00896669
0.0412379
0.00885417
0.0430611
0.00865197
0.0446435
0.00838631
0.0460654
0.00807328
0.0473763
0.00772341
0.0486023
0.0073437
0.049746
0.00693882
0.0508078
0.00651311
0.0517829
0.00607008
0.0526743
0.00561277
0.0534799
0.005144
0.0542063
0.00466602
0.054853
0.00418087
0.0554247
0.00369043
0.0559237
0.00319571
0.0563523
0.00269827
0.056712
0.00219878
0.0570107
0.00169841
0.057254
0.00119895
0.0574503
0.0575628
0.00322726
0.0518664
0.00403898
0.0436701
0.00502559
0.0373258
0.00608928
0.0327608
0.00709743
0.0311192
0.00793909
0.031761
0.00855975
0.0337899
0.00895038
0.0363708
0.00913336
0.0389416
0.00914726
0.041224
0.00903434
0.043174
0.00882966
0.0448482
0.00856004
0.046335
0.00824207
0.0476943
0.00788647
0.0489579
0.00750032
0.0501321
0.00708829
0.0512199
0.00665467
0.0522165
0.00620301
0.053126
0.00573629
0.0539467
0.00525749
0.0546851
0.00476878
0.0553417
0.00427238
0.0559211
0.00377018
0.0564259
0.00326335
0.0568591
0.00275341
0.057222
0.00224123
0.0575229
0.00172775
0.0577675
0.00121464
0.0579634
0.0580761
0.00366234
0.0513639
0.00438269
0.0429498
0.00529617
0.0364124
0.00630646
0.0317505
0.00728455
0.0301411
0.00811341
0.0309321
0.00873182
0.0331715
0.00912487
0.0359778
0.00931094
0.0387555
0.00932643