/*--------------------------------*- C++ -*----------------------------------*\
  =========                 |
  \\      /  F ield         | OpenFOAM: The Open Source CFD Toolbox
   \\    /   O peration     | Website:  https://openfoam.org
    \\  /    A nd           | Version:  7
     \\/     M anipulation  |
\*---------------------------------------------------------------------------*/
FoamFile
{
    version     2.0;
    format      ascii;
    class       volVectorField;
    location    "5.8";
    object      U;
}
// * * * * * * * * * * * * * * * * * * * * * * * * * * * * * * * * * * * * * //

dimensions      [0 1 -1 0 0 0 0];

internalField   nonuniform List<vector> 
18000
(
(3.49735e-05 -0.00256107 8.05316e-21)
(-0.000260671 0.00125207 0)
(-0.000921329 0.0121279 0)
(-0.00172596 0.0273688 0)
(-0.0025348 0.0453216 -2.65041e-21)
(-0.00320858 0.0649352 1.34088e-20)
(-0.00364805 0.085509 -2.7113e-21)
(-0.00379121 0.106556 2.72997e-21)
(-0.00360247 0.127726 0)
(-0.00306446 0.148752 -8.2674e-21)
(-0.00217668 0.169411 -2.76488e-21)
(-0.000948515 0.189509 0)
(0.000602935 0.208869 5.53237e-21)
(0.00245213 0.22733 5.54234e-21)
(0.00457156 0.244747 -1.10852e-20)
(0.00693378 0.260992 -1.10707e-20)
(0.00951113 0.275957 0)
(0.0122769 0.289556 -1.65559e-20)
(0.0152046 0.301726 5.49071e-21)
(0.0182677 0.312427 -1.64569e-20)
(0.0214419 0.32164 5.4531e-21)
(0.0247053 0.329368 0)
(0.0280386 0.335628 -5.3872e-21)
(0.0314248 0.340454 -5.38209e-21)
(0.0348479 0.343887 0)
(0.0382932 0.345976 0)
(0.0417458 0.346771 -1.05902e-20)
(0.0452012 0.346321 -1.05238e-20)
(0.0486442 0.34473 -1.05046e-20)
(0.0518951 0.342135 1.16503e-20)
(4.53262e-05 -0.00245345 1.14799e-20)
(-0.000567238 0.00151453 1.99707e-20)
(-0.00185532 0.0124671 -2.04348e-20)
(-0.00343219 0.0277201 -2.08269e-20)
(-0.00509737 0.0456166 -5.29281e-21)
(-0.00666876 0.065112 1.60534e-20)
(-0.00802235 0.0855166 -2.1634e-20)
(-0.00907879 0.106351 -2.18022e-20)
(-0.00978599 0.127275 2.19307e-20)
(-0.0101175 0.148035 2.20222e-20)
(-0.0100688 0.168417 -1.10478e-20)
(-0.00964221 0.188232 -2.21286e-20)
(-0.00884905 0.207309 -1.10913e-20)
(-0.00771135 0.225493 2.21435e-20)
(-0.00625202 0.242641 -2.21352e-20)
(-0.00449487 0.258628 2.21067e-20)
(-0.00246625 0.27335 -4.41679e-20)
(-0.000192084 0.286722 3.29932e-20)
(0.00230297 0.29868 -2.19231e-20)
(0.00499386 0.309186 1.09561e-20)
(0.00785569 0.318223 -2.17602e-20)
(0.0108649 0.32579 0)
(0.014 0.331906 1.09159e-20)
(0.0172416 0.336604 -2.14436e-20)
(0.0205701 0.339924 2.13342e-20)
(0.0239671 0.341918 0)
(0.027412 0.342636 -1.04872e-20)
(0.0308927 0.342134 1.04242e-20)
(0.0343723 0.340526 4.16037e-20)
(0.037677 0.337962 2.31861e-20)
(5.17355e-05 -0.00233279 -1.83819e-20)
(-0.000872475 0.00181056 -1.99702e-20)
(-0.00276846 0.0128794 3.06458e-20)
(-0.00508905 0.0281609 5.20193e-20)
(-0.0075766 0.0460047 0)
(-0.010005 0.0653773 -2.14196e-20)
(-0.0122247 0.0855981 2.16337e-20)
(-0.0141425 0.106204 6.53482e-20)
(-0.0156946 0.126867 -2.19305e-20)
(-0.0168462 0.147341 -2.20249e-20)
(-0.0175853 0.16742 6.62051e-20)
(-0.0179106 0.186927 2.21285e-20)
(-0.0178283 0.205696 0)
(-0.0173554 0.223575 -4.43039e-20)
(-0.016513 0.240428 6.62138e-20)
(-0.0153224 0.256132 -2.20644e-20)
(-0.0138068 0.270584 2.20472e-20)
(-0.0119906 0.283701 2.20101e-20)
(-0.00989779 0.295423 7.773e-23)
(-0.0075533 0.305712 0)
(-0.00498241 0.314548 6.53099e-20)
(-0.00220906 0.321933 -4.3155e-20)
(0.000743845 0.327886 2.1563e-20)
(0.00385388 0.332438 0)
(0.00709846 0.335633 -2.13342e-20)
(0.010454 0.337521 8.46328e-20)
(0.013895 0.338159 -6.28302e-20)
(0.0174026 0.337607 -2.09398e-20)
(0.0209169 0.33599 2.05683e-20)
(0.02427 0.333472 2.31715e-20)
(5.01809e-05 -0.00212777 0)
(-0.00118881 0.00226529 9.96626e-21)
(-0.00368252 0.0134561 1.08446e-24)
(-0.0067197 0.028758 -5.19895e-20)
(-0.0099866 0.0465321 0)
(-0.0132231 0.0657621 -4.27262e-20)
(-0.016257 0.0857787 0)
(-0.0189795 0.106133 -6.53171e-20)
(-0.0213181 0.126509 2.18734e-20)
(-0.0232308 0.146671 -4.39295e-20)
(-0.0246999 0.166424 -4.41152e-20)
(-0.0257195 0.185598 -2.21064e-20)
(-0.0262931 0.204034 2.20636e-20)
(-0.0264342 0.221585 2.20138e-20)
(-0.0261599 0.238118 -2.2139e-20)
(-0.0254887 0.253515 -4.40404e-20)
(-0.0244433 0.267675 4.38622e-20)
(-0.0230466 0.280517 0)
(-0.0213216 0.291982 0)
(-0.0192923 0.302031 0)
(-0.0169839 0.310648 0)
(-0.0144212 0.317833 0)
(-0.0116285 0.323607 0)
(-0.00863076 0.328 -4.25551e-20)
(-0.0054534 0.331058 -4.24771e-20)
(-0.0021247 0.332834 -1.86197e-22)
(0.00132492 0.33339 -4.19028e-20)
(0.00486902 0.332793 -3.19652e-22)
(0.00842599 0.331178 -4.16679e-20)
(0.0118311 0.328724 9.19796e-20)
(3.52231e-05 -0.0018875 0)
(-0.00152121 0.00278438 8.95223e-20)
(-0.00458999 0.0141138 9.2077e-25)
(-0.00830895 0.0294393 -3.11377e-20)
(-0.0123131 0.0471384 1.05353e-19)
(-0.0163061 0.0662145 6.4081e-20)
(-0.0200961 0.0860142 6.4639e-20)
(-0.0235635 0.106102 0)
(-0.0266269 0.126175 0)
(-0.0292377 0.146009 6.58989e-20)
(-0.0313746 0.165418 4.35517e-23)
(-0.0330287 0.184239 -1.54293e-19)
(-0.0341995 0.202322 1.32226e-19)
(-0.034897 0.219526 -4.41343e-20)
(-0.0351364 0.235722 4.3894e-20)
(-0.0349345 0.250794 4.38537e-20)
(-0.0343121 0.264644 -4.38314e-20)
(-0.033291 0.277194 4.37947e-20)
(-0.0318928 0.288384 8.71575e-20)
(-0.0301413 0.298178 -4.32844e-20)
(-0.0280615 0.30656 -8.62033e-20)
(-0.0256782 0.313531 8.57554e-20)
(-0.023017 0.319111 -8.52738e-20)
(-0.0201047 0.323333 4.25551e-20)
(-0.0169698 0.326245 0)
(-0.0136443 0.327904 0)
(-0.010164 0.328377 3.61927e-22)
(-0.00656291 0.32774 -1.6495e-19)
(-0.00294275 0.326139 8.17992e-20)
(0.00053135 0.323767 -9.18325e-20)
(5.29619e-06 -0.00159965 0)
(-0.00187225 0.0033967 -7.9568e-20)
(-0.00549695 0.0148751 8.1301e-20)
(-0.0098627 0.0302176 0)
(-0.0145546 0.04783 -1.68432e-19)
(-0.0192481 0.0667388 -2.13272e-20)
(-0.0237343 0.0863059 -4.31224e-20)
(-0.0278812 0.106111 -2.16928e-20)
(-0.0316019 0.125866 0)
(-0.0348442 0.145355 -4.38816e-20)
(-0.0375825 0.164402 4.3925e-20)
(-0.0398044 0.182855 8.81234e-20)
(-0.0415075 0.20057 -8.81646e-20)
(-0.0426996 0.21741 0)
(-0.043393 0.233253 -8.80101e-20)
(-0.0436037 0.247986 8.76653e-20)
(-0.043351 0.261512 8.76013e-20)
(-0.0426552 0.273755 1.30797e-19)
(-0.0415369 0.284659 -1.30345e-19)
(-0.0400191 0.294186 1.73014e-19)
(-0.0381267 0.302321 8.62275e-20)
(-0.0358844 0.309066 -8.57552e-20)
(-0.0333182 0.314441 1.70223e-19)
(-0.0304564 0.318483 0)
(-0.0273301 0.321241 8.38432e-20)
(-0.023975 0.322777 1.66839e-19)
(-0.0204315 0.323167 -8.2276e-20)
(-0.0167411 0.322496 8.24376e-20)
(-0.0130242 0.32092 -1.13121e-22)
(-0.00945122 0.318651 -9.14563e-20)
(-4.27479e-05 -0.00127521 -9.14e-21)
(-0.00224646 0.00407532 0)
(-0.00640217 0.0157071 -1.01612e-19)
(-0.0113745 0.0310625 2.06988e-20)
(-0.0167038 0.048578 6.3128e-20)
(-0.0220379 0.067306 2.12871e-20)
(-0.0271537 0.0866289 8.59706e-20)
(-0.0319111 0.106141 0)
(-0.0362187 0.125564 4.36358e-20)
(-0.0400205 0.144695 4.37643e-20)
(-0.0432878 0.16337 -4.39504e-20)
(-0.0460067 0.181442 1.31807e-19)
(-0.0481729 0.198776 0)
(-0.0497917 0.215243 0)
(-0.0508742 0.230723 1.31661e-19)
(-0.0514354 0.245106 -2.18891e-19)
(-0.0514931 0.258299 8.72322e-20)
(-0.051066 0.270227 -8.71112e-20)
(-0.0501738 0.280836 -8.65352e-20)
(-0.0488392 0.290088 -2.58868e-19)
(-0.047086 0.297968 -2.84224e-22)
(-0.0449385 0.304478 8.51587e-20)
(-0.0424229 0.309642 -1.69575e-19)
(-0.0395681 0.313496 8.40616e-20)
(-0.0364072 0.316094 -3.7537e-22)
(-0.0329791 0.317504 -8.32479e-20)
(-0.029329 0.317811 8.26286e-20)
(-0.0255052 0.31711 0)
(-0.0216444 0.315571 8.08481e-20)
(-0.0179288 0.313424 2.78111e-22)
(-0.000110091 -0.000920941 -1.82557e-20)
(-0.00264472 0.00480855 1.98238e-20)
(-0.00730579 0.0165962 -1.21638e-19)
(-0.0128422 0.031955 -6.19561e-20)
(-0.0187532 0.0493625 8.39268e-20)
(-0.0246639 0.067899 -1.27538e-19)
(-0.0303401 0.0869666 -4.3028e-20)
(-0.0356348 0.106174 -8.65342e-20)
(-0.0404533 0.125256 8.7045e-20)
(-0.0447377 0.144022 -1.74928e-19)
(-0.0484575 0.162315 -8.76438e-20)
(-0.0515973 0.179999 -1.17487e-22)
(-0.0541515 0.196946 4.39739e-20)
(-0.0561239 0.213032 -1.31545e-19)
(-0.057525 0.228142 -1.75265e-19)
(-0.0583685 0.24217 -4.49038e-23)
(-0.0586706 0.255026 -2.17464e-22)
(-0.0584488 0.266636 8.67085e-20)
(-0.0577224 0.276946 8.65347e-20)
(-0.0565128 0.285919 -1.09748e-23)
(-0.0548429 0.29354 -2.67052e-22)
(-0.052736 0.299813 8.45814e-20)
(-0.0502176 0.30476 8.46256e-20)
(-0.0473175 0.308421 -5.24177e-23)
(-0.0440693 0.310854 -2.5002e-19)
(-0.0405145 0.312134 1.64971e-19)
(-0.0367029 0.312355 1.64184e-19)
(-0.0326892 0.311628 -1.62404e-19)
(-0.028624 0.310136 -8.08475e-20)
(-0.0247082 0.308131 -8.99962e-20)
(-0.000197964 -0.000542007 -1.63972e-19)
(-0.00306814 0.00558156 -1.97954e-20)
(-0.00820679 0.0175217 1.01324e-19)
(-0.0142619 0.0328744 8.2625e-20)
(-0.0206965 0.050162 -8.39261e-20)
(-0.0271166 0.0684955 8.49957e-20)
(-0.0332796 0.0872981 -4.29215e-20)
(-0.0390341 0.106193 1.29751e-19)
(-0.0442835 0.124929 -8.70443e-20)
(-0.0489694 0.143323 8.74086e-20)
(-0.05306 0.161231 4.38083e-20)
(-0.0565393 0.178523 -4.39522e-20)
(-0.059401 0.19508 -2.63134e-19)
(-0.0616484 0.210783 1.75251e-19)
(-0.0632913 0.225522 8.75586e-20)
(-0.0643423 0.239195 0)
(-0.064816 0.251714 0)
(-0.0647291 0.263007 -4.16478e-22)
(-0.0641003 0.27302 -8.61052e-20)
(-0.0629496 0.281716 0)
(-0.0612986 0.289079 0)
(-0.0591693 0.295114 -8.48617e-20)
(-0.0565866 0.299843 0)
(-0.0535792 0.303308 -1.66727e-19)
(-0.0501813 0.305572 0)
(-0.0464359 0.306718 -8.24425e-20)
(-0.0423971 0.306852 1.63291e-19)
(-0.0381257 0.306098 -1.61521e-19)
(-0.0337827 0.304662 0)
(-0.0295963 0.302819 0)
(-0.000306713 -0.000145859 1.4574e-19)
(-0.00351644 0.00637905 0)
(-0.00910342 0.0184645 -2.0225e-20)
(-0.0156298 0.0337983 2.06098e-20)
(-0.0225275 0.050953 -1.25488e-19)
(-0.029387 0.0690727 2.93317e-23)
(-0.0359603 0.0876024 -4.28262e-20)
(-0.0420934 0.10618 0)
(-0.0476897 0.124566 0)
(-0.0526911 0.142587 -4.36581e-20)
(-0.0570661 0.160109 4.37012e-20)
(-0.0607982 0.177011 -8.76761e-20)
(-0.0638818 0.193179 8.77502e-20)
(-0.0663198 0.208502 0)
(-0.0681213 0.222873 0)
(-0.0692977 0.236196 0)
(-0.0698632 0.248384 8.65021e-20)
(-0.0698335 0.259366 -1.96297e-22)
(-0.0692261 0.269087 8.63109e-20)
(-0.0680597 0.277512 -1.7077e-19)
(-0.0663543 0.284624 8.50868e-20)
(-0.0641308 0.290425 -4.21906e-19)
(-0.0614126 0.294939 1.17279e-22)
(-0.058227 0.298209 1.66726e-19)
(-0.0546075 0.300302 -5.4441e-22)
(-0.0505981 0.301311 1.63505e-19)
(-0.0462569 0.301353 -1.6182e-19)
(-0.04165 0.30057 -1.6092e-19)
(-0.0369448 0.299194 3.46684e-22)
(-0.0324063 0.297531 -1.7692e-19)
(-0.000436037 0.000260617 -1.81777e-20)
(-0.00398845 0.00718616 0)
(-0.00999369 0.0194051 4.03893e-20)
(-0.0169426 0.0347044 -4.11577e-20)
(-0.0242408 0.0517121 3.76325e-19)
(-0.0314675 0.0696071 3.15354e-23)
(-0.0383717 0.0878567 -4.2767e-20)
(-0.0447992 0.106113 4.31545e-20)
(-0.0506547 0.124148 -2.16785e-19)
(-0.0558818 0.1418 0)
(-0.06045 0.158939 0)
(-0.0643437 0.175455 -8.72709e-20)
(-0.0675579 0.19124 8.76809e-20)
(-0.070096 0.20619 -8.74742e-20)
(-0.0719664 0.220202 8.71033e-20)
(-0.0731798 0.233184 0)
(-0.0737498 0.245052 -3.46442e-19)
(-0.0736914 0.255734 1.7224e-19)
(-0.0730208 0.265177 8.58613e-20)
(-0.0717553 0.273343 2.55889e-19)
(-0.0699136 0.280214 0)
(-0.067515 0.285791 1.68546e-19)
(-0.0645811 0.290097 1.66843e-19)
(-0.061137 0.293177 1.65522e-19)
(-0.0572153 0.295102 -7.45979e-22)
(-0.0528603 0.295971 -1.62469e-19)
(-0.0481332 0.295915 1.61817e-19)
(-0.0431051 0.295098 0)
(-0.0379453 0.293782 3.87536e-22)
(-0.0329646 0.292315 3.52628e-19)
(-0.000585337 0.000670839 -1.45082e-19)
(-0.00448241 0.00798825 0)
(-0.0108751 0.020324 -1.61163e-19)
(-0.0181968 0.0355704 -2.0537e-19)
(-0.025832 0.0524152 -1.25385e-19)
(-0.0333522 0.070074 4.23087e-20)
(-0.0405059 0.0880369 4.36402e-23)
(-0.0471411 0.10597 -4.30454e-20)
(-0.0531649 0.123657 2.2651e-22)
(-0.0585243 0.140942 8.70925e-20)
(-0.0631904 0.157706 8.7207e-20)
(-0.0671497 0.173845 -8.72043e-20)
(-0.0703983 0.189258 8.72681e-20)
(-0.0729402 0.203847 -2.61704e-19)
(-0.0747834 0.217514 2.60938e-19)
(-0.0759385 0.230169 1.73411e-19)
(-0.0764184 0.241731 4.32268e-19)
(-0.0762376 0.25213 -8.63191e-20)
(-0.0754109 0.261312 -1.70886e-19)
(-0.0739545 0.269236 -4.75223e-22)
(-0.0718856 0.275884 -1.69054e-19)
(-0.0692219 0.281254 5.02722e-19)
(-0.065983 0.285366 -3.33354e-19)
(-0.0621922 0.288266 3.29512e-19)
(-0.0578799 0.290028 -1.63928e-19)
(-0.0530905 0.290758 3.24137e-19)
(-0.0478883 0.290599 5.08482e-22)
(-0.042348 0.28974 -3.17907e-19)
(-0.0366363 0.288481 3.1416e-19)
(-0.0311186 0.28722 1.74032e-19)
(-0.000753602 0.00107855 1.45082e-19)
(-0.00499623 0.00877177 0)
(-0.0117453 0.0212027 3.62325e-19)
(-0.0193899 0.0363745 1.23234e-19)
(-0.0272976 0.0530383 0)
(-0.0350367 0.0704483 0)
(-0.0423573 0.0881174 0)
(-0.0491115 0.105727 0)
(-0.0552106 0.123068 8.65925e-20)
(-0.0606057 0.139995 8.68428e-20)
(-0.0652711 0.156394 -1.74384e-19)
(-0.0691958 0.172169 1.74592e-19)
(-0.0723778 0.187224 2.61641e-19)
(-0.0748218 0.201467 8.73303e-20)
(-0.0765362 0.214806 8.67123e-20)
(-0.0775313 0.227154 -2.59952e-19)
(-0.0778198 0.238431 -3.45049e-19)
(-0.0774153 0.248569 -1.71851e-19)
(-0.0763319 0.257511 1.70883e-19)
(-0.0745846 0.265218 -3.39513e-19)
(-0.0721892 0.271666 1.68244e-19)
(-0.0691623 0.27685 -3.34589e-19)
(-0.0655215 0.28079 1.65409e-19)
(-0.061288 0.283528 -4.92856e-22)
(-0.0564907 0.285139 -1.62727e-19)
(-0.0511732 0.285735 -3.23e-19)
(-0.0454026 0.285471 3.1972e-19)
(-0.0392572 0.284561 0)
(-0.0328955 0.283351 -4.44246e-22)
(-0.0267443 0.282303 -3.46594e-19)
(-0.000939581 0.00147802 1.80905e-20)
(-0.00552753 0.00952409 0)
(-0.0126019 0.0220239 -1.609e-19)
(-0.0205194 0.0370957 4.09772e-20)
(-0.0286356 0.0535578 -4.16087e-20)
(-0.0365187 0.0707044 0)
(-0.0439231 0.0880721 -4.26294e-20)
(-0.0507065 0.105356 4.29237e-20)
(-0.0567862 0.122357 8.64892e-20)
(-0.0621185 0.138934 -2.60188e-19)
(-0.0666818 0.154982 -8.70914e-20)
(-0.0704684 0.170408 -1.51633e-22)
(-0.0734788 0.185124 -1.23637e-22)
(-0.075719 0.199041 -1.73967e-19)
(-0.0771979 0.212073 -8.69908e-20)
(-0.0779259 0.224137 0)
(-0.0779156 0.235154 3.73773e-23)
(-0.0771798 0.245056 1.71455e-19)
(-0.0757321 0.253788 -1.70116e-19)
(-0.0735869 0.261306 0)
(-0.0707589 0.267583 0)
(-0.0672637 0.272612 0)
(-0.0631175 0.276407 0)
(-0.0583401 0.279009 -6.73658e-22)
(-0.0529589 0.28049 0)
(-0.0470168 0.280965 0)
(-0.0405836 0.280599 1.58424e-19)
(-0.0337414 0.279631 1.56722e-19)
(-0.0266347 0.278461 1.5546e-19)
(-0.019756 0.277625 -5.40145e-22)
(-0.00114191 0.00186423 1.80591e-20)
(-0.00607392 0.010234 -3.9215e-20)
(-0.0134428 0.0227717 2.40599e-19)
(-0.021584 0.0377147 -4.08917e-20)
(-0.0298451 0.0539511 4.15697e-20)
(-0.0377979 0.0708172 4.15122e-23)
(-0.0452031 0.0878742 1.27507e-19)
(-0.0519259 0.104831 -1.71424e-19)
(-0.0578909 0.121496 2.58847e-19)
(-0.0630607 0.137734 1.17019e-22)
(-0.0674188 0.153444 -8.6844e-20)
(-0.0709616 0.16854 1.73864e-19)
(-0.0736927 0.182937 -1.73821e-19)
(-0.0756198 0.196552 1.73563e-19)
(-0.0767527 0.209302 0)
(-0.0771024 0.221108 1.72463e-19)
(-0.0766812 0.231894 0)
(-0.0755019 0.241591 3.82773e-22)
(-0.0735776 0.250144 -1.69604e-19)
(-0.0709223 0.257507 -1.68395e-19)
(-0.0675506 0.26365 1.67081e-19)
(-0.0634774 0.26856 -1.65673e-19)
(-0.0587184 0.272247 -1.64182e-19)
(-0.0532927 0.274747 -3.25905e-19)
(-0.0472268 0.276128 -1.60995e-19)
(-0.0405635 0.276505 1.59703e-19)
(-0.0333752 0.276048 -3.16422e-19)
(-0.0257491 0.275021 -1.56717e-19)
(-0.0178103 0.273881 0)
(-0.0101158 0.273252 -1.70273e-19)
(-0.00135922 0.0022331 0)
(-0.00663312 0.0108922 1.5643e-19)
(-0.0142664 0.0234323 -1.20291e-19)
(-0.0225828 0.0382137 -2.03977e-19)
(-0.0309263 0.054197 0)
(-0.0388756 0.0707625 0)
(-0.0461996 0.0874969 -2.55024e-19)
(-0.0527728 0.104123 3.42462e-19)
(-0.0585283 0.120455 -2.58588e-19)
(-0.063436 0.136364 0)
(-0.0674854 0.151753 8.68243e-20)
(-0.0706779 0.166537 -8.70665e-20)
(-0.0730208 0.180638 2.62797e-22)
(-0.0745238 0.193976 -8.70551e-20)
(-0.0751983 0.206472 -8.63962e-20)
(-0.075056 0.21805 -3.19873e-22)
(-0.0741096 0.228636 1.71302e-19)
(-0.0723719 0.238163 1.70693e-19)
(-0.0698562 0.246573 1.41675e-22)
(-0.0665767 0.253819 3.3648e-19)
(-0.0625481 0.259868 -3.33938e-19)
(-0.0577858 0.264701 3.31017e-19)
(-0.0523057 0.268324 1.64178e-19)
(-0.0461274 0.270765 1.62615e-19)
(-0.0392778 0.272087 7.07411e-22)
(-0.0317999 0.2724 0)
(-0.0237697 0.271878 1.57154e-19)
(-0.0152805 0.270798 -4.66206e-19)
(-0.00643379 0.269681 1.53379e-19)
(0.00215549 0.269254 1.68653e-19)
(-0.00159026 0.00258151 -1.07814e-19)
(-0.00720311 0.011491 -3.51635e-19)
(-0.0150713 0.0239942 -8.43998e-24)
(-0.0235158 0.0385771 2.79411e-22)
(-0.0318807 0.054276 -1.24091e-19)
(-0.0397548 0.0705174 0)
(-0.0469174 0.0869141 -8.46035e-20)
(-0.0532537 0.103202 -5.13077e-19)
(-0.0587064 0.119203 2.582e-19)
(-0.0632538 0.134793 -1.72701e-19)
(-0.0668921 0.149875 2.59869e-19)
(-0.0696287 0.164368 -8.66658e-20)
(-0.0714748 0.178196 1.73555e-19)
(-0.0724432 0.191283 -4.32914e-19)
(-0.072547 0.203555 2.59069e-19)
(-0.0717992 0.214936 -6.61953e-23)
(-0.0702134 0.225356 -5.1327e-19)
(-0.067803 0.234748 1.70176e-19)
(-0.0645819 0.243054 -1.68901e-19)
(-0.0605652 0.250224 0)
(-0.0557686 0.256222 1.66058e-19)
(-0.0502085 0.261026 0)
(-0.0439027 0.264634 -1.63248e-19)
(-0.0368723 0.267067 1.61643e-19)
(-0.0291459 0.268381 1.60277e-19)
(-0.0207677 0.268677 1.57809e-19)
(-0.0118179 0.268125 0)
(-0.00239795 0.267013 0)
(0.00741725 0.265921 -3.06195e-19)
(0.0169683 0.26569 4.99524e-19)
(-0.001834 0.00290734 1.07897e-19)
(-0.00778219 0.0120247 1.95141e-19)
(-0.0158566 0.0244479 -1.59447e-19)
(-0.0243832 0.038792 3.25405e-19)
(-0.0327101 0.0541715 4.16624e-20)
(-0.0404394 0.0700612 4.19595e-20)
(-0.0473629 0.0861013 4.10501e-22)
(-0.0533776 0.102042 -1.70465e-19)
(-0.058437 0.117711 -8.5835e-20)
(-0.0625286 0.132986 2.73474e-22)
(-0.0656564 0.147775 -2.71504e-22)
(-0.067834 0.161996 -2.59738e-19)
(-0.0690776 0.175574 -8.64988e-20)
(-0.0694032 0.188438 2.92111e-22)
(-0.0688268 0.200514 1.7219e-19)
(-0.0673632 0.21173 1.71477e-19)
(-0.0650272 0.222018 3.58258e-22)
(-0.0618335 0.231312 -1.69527e-19)
(-0.0577977 0.239553 1.68564e-19)
(-0.0529362 0.24669 -1.672e-19)
(-0.0472668 0.252683 -3.31605e-19)
(-0.040808 0.257506 -1.64249e-19)
(-0.0335803 0.261152 3.25063e-19)
(-0.025608 0.263635 0)
(-0.0169228 0.264998 -1.58893e-19)
(-0.007571 0.265335 -3.1488e-19)
(0.00236238 0.264803 -3.11034e-19)
(0.0127655 0.263694 1.54312e-19)
(0.0235913 0.26264 -4.55887e-19)
(0.0341561 0.262606 1.65226e-19)
(-0.00208972 0.00320943 -1.79046e-19)
(-0.00836904 0.0124897 3.89291e-20)
(-0.0166217 0.0247867 1.59448e-19)
(-0.0251852 0.0388483 -1.21934e-19)
(-0.0334166 0.0538698 4.1383e-20)
(-0.0409338 0.0693764 -1.04048e-22)
(-0.0475431 0.0850366 4.22508e-19)
(-0.053155 0.100615 1.70602e-19)
(-0.0577344 0.115947 1.71676e-19)
(-0.0612791 0.130912 2.5864e-19)
(-0.0638012 0.145417 -2.59179e-19)
(-0.0653215 0.159381 1.73065e-19)
(-0.0658616 0.172731 3.45979e-19)
(-0.0654418 0.185396 1.72671e-19)
(-0.0640811 0.197305 -7.03509e-23)
(-0.0617972 0.208388 -3.42693e-19)
(-0.058607 0.218578 3.41025e-19)
(-0.0545274 0.227809 2.41405e-22)
(-0.0495761 0.236024 -1.68115e-19)
(-0.0437722 0.243169 1.66755e-19)
(-0.0371363 0.249202 1.65546e-19)
(-0.0296902 0.254095 -1.63457e-19)
(-0.0214582 0.257833 -3.24366e-19)
(-0.0124695 0.260423 1.51414e-22)
(-0.00275988 0.261899 1.59301e-19)
(0.00762109 0.26234 1.5707e-19)
(0.0185837 0.261891 3.0946e-19)
(0.0300039 0.260832 -3.05319e-19)
(0.0418609 0.259842 0)
(0.053473 0.260018 1.63255e-19)
(-0.00235707 0.00348755 3.09688e-22)
(-0.00896271 0.0128841 0)
(-0.0173658 0.0250067 -1.19041e-19)
(-0.0259221 0.0387394 -4.05059e-20)
(-0.0340016 0.0533611 -1.64534e-19)
(-0.0412417 0.0684493 0)
(-0.0474651 0.0837025 -2.53301e-19)
(-0.0525968 0.0989005 8.50084e-20)
(-0.0566143 0.113885 0)
(-0.0595261 0.128538 -1.71843e-19)
(-0.0613535 0.142765 0)
(-0.0621247 0.156485 -2.58866e-19)
(-0.0618674 0.169625 2.58619e-19)
(-0.060607 0.182113 -1.72397e-19)
(-0.0583665 0.193881 -1.71537e-19)
(-0.055167 0.204859 0)
(-0.0510288 0.214982 0)
(-0.0459718 0.224185 1.68936e-19)
(-0.0400169 0.232409 -5.05092e-24)
(-0.033187 0.239602 1.66011e-19)
(-0.0255063 0.245719 -1.64826e-19)
(-0.0170013 0.250728 3.26557e-19)
(-0.00770161 0.25461 -1.61559e-19)
(0.00235821 0.257365 0)
(0.0131367 0.259017 4.73735e-19)
(0.0245804 0.25963 -7.79653e-19)
(0.0365953 0.259331 1.54701e-19)
(0.0490444 0.258383 1.52551e-19)
(0.0619298 0.257495 1.4987e-19)
(0.0746014 0.257901 3.2142e-19)
(-0.00263607 0.00374234 -1.42266e-19)
(-0.0095625 0.013208 3.09662e-19)
(-0.0180881 0.0251066 1.58793e-19)
(-0.0265929 0.0384622 3.63548e-19)
(-0.0344653 0.05264 4.51849e-19)
(-0.0413651 0.0672717 8.33525e-20)
(-0.0471338 0.0820869 -4.20593e-19)
(-0.0517122 0.0968813 0)
(-0.055091 0.111504 -3.41532e-19)
(-0.0572903 0.125838 -1.71221e-19)
(-0.0583412 0.139788 0)
(-0.0582795 0.153271 -1.71864e-19)
(-0.05714 0.166213 -4.47807e-23)
(-0.0549536 0.178543 -5.15323e-19)
(-0.0517486 0.190191 1.71534e-19)
(-0.0475504 0.20109 1.70643e-19)
(-0.0423835 0.211174 -3.38848e-19)
(-0.0362719 0.220378 -3.37016e-19)
(-0.0292412 0.228645 3.98142e-23)
(-0.0213188 0.235921 -2.00965e-22)
(-0.012534 0.24216 0)
(-0.00291893 0.247329 -1.62538e-19)
(0.00749046 0.251403 -1.60224e-19)
(0.0186528 0.254376 0)
(0.0305204 0.256263 0)
(0.0430353 0.257115 4.65982e-19)
(0.0561004 0.257037 -4.59329e-19)
(0.0695663 0.256265 0)
(0.0834526 0.255525 4.46996e-19)
(0.0971711 0.256193 -3.19133e-19)
(-0.00292713 0.00397517 6.56297e-22)
(-0.0101678 0.0134631 -3.09673e-19)
(-0.018787 0.025088 -3.9563e-20)
(-0.0271953 0.0380177 -4.0383e-19)
(-0.0348055 0.0517064 -2.4642e-19)
(-0.0413032 0.0658414 8.31844e-20)
(-0.046551 0.0801844 1.68393e-19)
(-0.0505068 0.0945484 4.23357e-19)
(-0.0531754 0.10879 3.41533e-19)
(-0.0545892 0.122793 3.43064e-19)
(-0.0547893 0.136461 0)
(-0.0538202 0.14971 6.48381e-22)
(-0.0517238 0.162462 0)
(-0.0485376 0.174646 3.43507e-19)
(-0.0442959 0.186192 0)
(-0.0390296 0.197031 -1.70261e-19)
(-0.0327684 0.207098 1.70017e-19)
(-0.0255416 0.216329 0)
(-0.0173804 0.224667 0)
(-0.00831799 0.232056 -4.95479e-19)
(0.00161006 0.238452 1.63846e-19)
(0.0123648 0.243818 0)
(0.0239029 0.248127 3.20898e-19)
(0.0361756 0.251367 3.17527e-19)
(0.049128 0.253543 -6.26256e-19)
(0.0626973 0.254694 6.18496e-19)
(0.0767847 0.254904 3.80301e-22)
(0.0912306 0.254376 3.00641e-19)
(0.106066 0.253835 -2.98194e-19)
(0.120791 0.2548 0)
(-0.00323095 0.00418788 3.55553e-19)
(-0.0107779 0.0136526 -3.8584e-20)
(-0.0194597 0.0249549 -3.1543e-19)
(-0.0277248 0.0374108 0)
(-0.0350165 0.0505655 -3.26948e-19)
(-0.0410506 0.0641631 0)
(-0.0457129 0.0779984 -4.18993e-19)
(-0.0489799 0.0919027 -2.54169e-19)
(-0.0508717 0.10574 -3.40184e-19)
(-0.0514331 0.119396 0)
(-0.050716 0.132773 8.58214e-20)
(-0.0487738 0.145783 8.67113e-20)
(-0.0456563 0.158348 -1.71465e-19)
(-0.0414084 0.170393 -3.42105e-19)
(-0.0360711 0.181847 -1.70224e-19)
(-0.0296817 0.192641 -6.78968e-19)
(-0.0222762 0.202709 3.38096e-19)
(-0.0138903 0.211987 4.96464e-23)
(-0.00456168 0.220418 1.05042e-22)
(0.00566956 0.227947 4.95124e-19)
(0.0167605 0.234528 0)
(0.0286645 0.240123 0)
(0.0413299 0.244705 -8.87854e-22)
(0.0546995 0.248254 3.05143e-22)
(0.0687108 0.250769 -3.11195e-19)
(0.0832953 0.252276 -3.0755e-19)
(0.0983536 0.252836 1.04215e-21)
(0.113719 0.252617 -3.00628e-19)
(0.129428 0.252326 -2.95644e-19)
(0.145092 0.253619 1.11971e-21)
(-0.00354832 0.00438247 0)
(-0.0113915 0.0137804 3.07447e-19)
(-0.0201016 0.0247136 2.7604e-19)
(-0.0281738 0.0366504 4.01446e-20)
(-0.0350887 0.0492284 6.5314e-19)
(-0.0405963 0.0622494 -8.28279e-20)
(-0.0446086 0.0755422 6.69243e-19)
(-0.0471224 0.0889565 3.37089e-19)
(-0.0481739 0.102365 5.10101e-19)
(-0.0478211 0.115655 2.55754e-19)
(-0.0461268 0.128727 8.56475e-20)
(-0.0431539 0.141491 4.28864e-19)
(-0.0389607 0.153866 2.09028e-22)
(-0.0336 0.165774 1.71327e-19)
(-0.0271204 0.177143 3.40916e-19)
(-0.0195664 0.187901 3.39294e-19)
(-0.0109808 0.197982 0)
(-0.00140689 0.207323 0)
(0.00911043 0.215865 0)
(0.0205234 0.223554 0)
(0.032781 0.230345 3.24892e-19)
(0.0458279 0.236199 0)
(0.0596034 0.241085 -2.63144e-22)
(0.074041 0.244983 6.28617e-19)
(0.0890694 0.247883 3.109e-19)
(0.104613 0.249797 3.06927e-19)
(0.120572 0.250769 6.0505e-19)
(0.136776 0.250922 0)
(0.15326 0.250929 -5.88027e-19)
(0.169764 0.252576 6.20181e-19)
(-0.00387995 0.00456087 2.8238e-19)
(-0.0120061 0.0138511 -3.07453e-19)
(-0.0207061 0.0243724 0)
(-0.0285309 0.0357491 -3.20079e-19)
(-0.0350068 0.0477124 -8.23071e-20)
(-0.0399221 0.0601213 -2.47365e-19)
(-0.0432185 0.0728396 -7.51441e-19)
(-0.0449144 0.0857361 -9.25062e-22)
(-0.0450633 0.0986921 -2.54019e-19)
(-0.043737 0.111596 -5.96058e-19)
(-0.0410097 0.124348 -8.53213e-20)
(-0.0369543 0.136857 -3.41538e-19)
(-0.0316379 0.149036 -3.41307e-19)
(-0.0251219 0.160807 0)
(-0.0174628 0.172092 -3.39304e-19)
(-0.00871282 0.18282 -5.06631e-19)
(0.00107731 0.192924 1.67992e-19)
(0.0118568 0.202339 -3.33037e-19)
(0.0235728 0.211007 -3.30232e-19)
(0.0361694 0.218875 0)
(0.049587 0.225897 -6.4865e-19)
(0.0637609 0.232036 0)
(0.0786208 0.237259 -6.34325e-19)
(0.0940898 0.241543 -3.12778e-19)
(0.110086 0.244873 -6.18395e-19)
(0.126524 0.24725 3.04777e-19)
(0.143301 0.248695 -9.03759e-19)
(0.160242 0.249289 2.96348e-19)
(0.177377 0.249646 1.43035e-21)
(0.194587 0.251665 -3.05647e-19)
(-0.00422624 0.00472464 -2.82386e-19)
(-0.0126181 0.0138694 3.8289e-20)
(-0.0212633 0.0239412 2.73855e-19)
(-0.0287803 0.0347232 3.20086e-19)
(-0.0347492 0.0460402 -3.25403e-19)
(-0.0390019 0.0578083 8.18303e-22)
(-0.0415124 0.0699261 3.33556e-19)
(-0.0423229 0.0822815 -6.72177e-19)
(-0.0415053 0.0947647 -8.3872e-20)
(-0.0391461 0.107267 7.64659e-19)
(-0.0353311 0.119686 -5.1096e-19)
(-0.0301436 0.13193 8.52718e-19)
(-0.02366 0.143909 8.52326e-19)
(-0.0159505 0.155541 -1.69989e-19)
(-0.00707993 0.166746 3.39301e-19)
(0.00289125 0.17745 5.06171e-19)
(0.0139045 0.187584 1.67011e-19)
(0.025901 0.197085 1.0034e-21)
(0.0388199 0.205893 1.65484e-19)
(0.052597 0.213957 1.63406e-19)
(0.0671639 0.221232 -1.60252e-19)
(0.0824466 0.22768 1.59956e-19)
(0.0983641 0.233272 -3.15119e-19)
(0.114828 0.237982 3.12511e-19)
(0.131742 0.241791 1.3951e-21)
(0.149009 0.244691 3.03033e-19)
(0.166514 0.246683 1.46571e-21)
(0.184075 0.247799 -2.95933e-19)
(0.201705 0.248575 3.69663e-22)
(0.219441 0.250986 0)
(-0.00458697 0.00487485 0)
(-0.0132219 0.0138397 0)
(-0.0217603 0.0234312 -3.52131e-19)
(-0.0289013 0.0335918 3.98366e-20)
(-0.0342878 0.0442398 0)
(-0.0378003 0.0553476 3.29064e-19)
(-0.0394486 0.0668482 8.31663e-20)
(-0.0393007 0.078648 2.51956e-19)
(-0.0374482 0.0906458 3.37929e-19)
(-0.0339927 0.102736 -3.39493e-19)
(-0.0290324 0.114817 3.40419e-19)
(-0.0226612 0.126792 -3.40739e-19)
(-0.0149653 0.138571 -3.40487e-19)
(-0.00602374 0.150066 0)
(0.00408996 0.161196 0)
(0.0153072 0.171885 0)
(0.0275613 0.182061 -3.34544e-19)
(0.0407857 0.191661 4.97678e-19)
(0.0549116 0.200627 -1.64409e-19)
(0.0698667 0.208906 0)
(0.085574 0.216456 4.8338e-19)
(0.10195 0.223242 -1.59339e-19)
(0.118902 0.229235 3.15111e-19)
(0.136329 0.234413 -6.19745e-19)
(0.154119 0.238756 6.13971e-19)
(0.172153 0.24225 -1.18441e-21)
(0.190296 0.244878 3.02533e-22)
(0.208346 0.246626 2.9439e-19)
(0.22628 0.247921 6.46291e-22)
(0.244294 0.250769 3.01723e-19)
(-0.00496101 0.00501173 3.50455e-20)
(-0.0138096 0.0137661 -3.80764e-20)
(-0.0221801 0.0228539 7.79704e-20)
(-0.0288677 0.0323761 -4.76501e-19)
(-0.0335871 0.0423438 8.07681e-20)
(-0.036273 0.052784 0)
(-0.0369741 0.0636626 3.31037e-19)
(-0.0357864 0.074904 -3.33991e-19)
(-0.0328223 0.0864157 0)
(-0.0281997 0.0980948 4.2243e-19)
(-0.0220296 0.109841 -8.47148e-20)
(-0.0144168 0.121555 0)
(-0.00545763 0.133142 -1.69647e-19)
(0.00475976 0.144512 3.38303e-19)
(0.0161531 0.155581 -1.68474e-19)
(0.0286456 0.16627 1.67565e-19)
(0.0421625 0.176507 -3.32964e-19)
(0.0566293 0.186227 1.93599e-22)
(0.0719696 0.19537 2.63112e-22)
(0.0881034 0.203887 -1.61311e-19)
(0.104945 0.211738 -3.20284e-19)
(0.122403 0.218889 8.67035e-22)
(0.140372 0.225317 1.19776e-21)
(0.158738 0.231004 3.09729e-19)
(0.17737 0.235936 -3.04378e-19)
(0.196119 0.240103 3.01575e-19)
(0.214814 0.243482 -5.93147e-19)
(0.233207 0.24602 -3.7288e-22)
(0.251206 0.248022 -5.75929e-19)
(0.269127 0.251458 2.99075e-19)
(-0.00534575 0.00513431 0)
(-0.0143702 0.013651 -3.03172e-19)
(-0.0225013 0.0222203 0)
(-0.0286476 0.0310987 9.29739e-22)
(-0.0326045 0.040388 8.06677e-20)
(-0.0343665 0.0501674 1.49992e-22)
(-0.0340244 0.0604345 -6.61006e-19)
(-0.0317047 0.07113 2.50696e-19)
(-0.0275416 0.0821701 0)
(-0.0216703 0.093455 -4.22209e-19)
(-0.0142154 0.104884 8.44897e-20)
(-0.00529316 0.116357 0)
(0.00498972 0.127774 -1.6916e-19)
(0.0165355 0.139044 1.68618e-19)
(0.0292531 0.150078 1.67455e-19)
(0.0430571 0.160795 3.34102e-19)
(0.0578646 0.17112 -1.65994e-19)
(0.0735931 0.180987 0)
(0.0901584 0.190337 0)
(0.107473 0.199119 3.2356e-19)
(0.125443 0.207295 -3.18883e-19)
(0.143968 0.214836 3.15982e-19)
(0.162935 0.221723 3.12292e-19)
(0.182217 0.227949 3.06897e-19)
(0.201665 0.233513 -3.03777e-19)
(0.221101 0.238426 2.99852e-19)
(0.240299 0.242691 2.9431e-19)
(0.258909 0.246262 -2.91113e-19)
(0.276658 0.249411 1.07529e-21)
(0.293689 0.254009 5.91642e-19)
(-0.00573879 0.00524227 3.48427e-20)
(-0.0148914 0.0134974 2.65406e-19)
(-0.0226997 0.0215426 0)
(-0.0282048 0.0297839 3.16654e-19)
(-0.0312917 0.0384112 0)
(-0.0320202 0.047553 0)
(-0.0305265 0.057236 2.47664e-19)
(-0.0269696 0.0674161 -1.72441e-22)
(-0.0215072 0.0780172 8.36366e-20)
(-0.0142928 0.0889425 8.41792e-20)
(-0.00546558 0.100091 -2.53027e-19)
(0.00484594 0.11136 1.68666e-19)
(0.016524 0.122647 0)
(0.0294608 0.133857 0)
(0.0435555 0.144896 -3.35438e-19)
(0.0587135 0.15568 0)
(0.074843 0.166133 -1.6523e-19)
(0.0918529 0.176183 1.64096e-19)
(0.109651 0.185772 1.6227e-19)
(0.12814 0.194848 -4.02161e-22)
(0.147221 0.203371 -1.59162e-19)
(0.166783 0.211317 0)
(0.18671 0.21867 -3.09394e-19)
(0.206869 0.225433 3.06343e-19)
(0.227107 0.231627 0)
(0.247244 0.2373 0)
(0.267037 0.242525 0)
(0.286082 0.247393 0)
(0.303808 0.252429 -2.84159e-19)
(0.319002 0.259355 5.85093e-19)