/*--------------------------------*- C++ -*----------------------------------*\
  =========                 |
  \\      /  F ield         | OpenFOAM: The Open Source CFD Toolbox
   \\    /   O peration     | Website:  https://openfoam.org
    \\  /    A nd           | Version:  7
     \\/     M anipulation  |
\*---------------------------------------------------------------------------*/
FoamFile
{
    version     2.0;
    format      ascii;
    class       volScalarField;
    location    "95";
    object      p;
}
// * * * * * * * * * * * * * * * * * * * * * * * * * * * * * * * * * * * * * //

dimensions      [0 2 -2 0 0 0 0];

internalField   nonuniform List<scalar> 
2000
(
0.00721172
0.00728623
0.00742759
0.00760448
0.00779329
0.00797902
0.00815129
0.00830492
0.00843904
0.00853937
0.00723635
0.00735049
0.00750691
0.00769858
0.00790168
0.00810097
0.00828533
0.00844888
0.0085908
0.00868936
0.00724017
0.00740196
0.0075738
0.00777891
0.00799365
0.00820302
0.00839584
0.00856609
0.00871378
0.00880926
0.00722753
0.00744289
0.00763017
0.00784654
0.00806916
0.00828381
0.00847989
0.00865176
0.00880104
0.00889072
0.00720474
0.00747752
0.00767898
0.00790336
0.00812897
0.00834289
0.00853562
0.00870239
0.00884699
0.00892642
0.00717979
0.00751062
0.00772382
0.00795194
0.00817478
0.00838106
0.00856288
0.00871673
0.00884871
0.00891175
0.00716167
0.00754738
0.00776876
0.00799552
0.00820926
0.00840058
0.0085636
0.00869638
0.00880711
0.00884659
0.0071601
0.00759344
0.00781831
0.00803801
0.00823614
0.00840542
0.00854229
0.00864664
0.0087286
0.00873786
0.00718499
0.00765466
0.00787739
0.00808392
0.00826018
0.00840128
0.00850635
0.00857783
0.0086286
0.0086046
0.00724593
0.00773689
0.00795119
0.00813833
0.00828694
0.00839481
0.00846444
0.00850231
0.00852726
0.00848448
0.0086507
0.00933524
0.0100384
0.0112704
0.0125957
0.0142137
0.0152753
0.0169428
0.0167678
0.0180325
0.00873361
0.00936403
0.00988132
0.0109362
0.0121132
0.0136054
0.0145822
0.0161155
0.016069
0.0171443
0.00877309
0.00937735
0.00972885
0.0106129
0.0116489
0.0130237
0.0139206
0.0153606
0.0153763
0.0163247
0.00876348
0.00936285
0.0095779
0.0103009
0.0112037
0.0124683
0.0132948
0.0146582
0.014697
0.015581
0.00870292
0.00930838
0.00942315
0.00999961
0.0107779
0.0119397
0.012704
0.0139992
0.0140553
0.0149129
0.00859422
0.00920529
0.00925728
0.00970723
0.0103718
0.0114369
0.0121432
0.0133719
0.0134462
0.0143022
0.00844589
0.0090506
0.00907256
0.00942074
0.00998524
0.0109616
0.0116174
0.0127887
0.012892
0.0137549
0.00826507
0.00883683
0.00885751
0.00913631
0.00961595
0.010505
0.011109
0.0122138
0.0123473
0.0132465
0.00804132
0.00855145
0.00858965
0.0088408
0.0092747
0.010097
0.0106665
0.0117156
0.011886
0.0128055
0.00787023
0.00832435
0.00835892
0.00854709
0.00890768
0.00964297
0.0101658
0.0111301
0.0113674
0.0123705
0.00841499
0.00885794
0.00910038
0.00923091
0.00933133
0.00966707
0.0099981
0.010665
0.0108568
0.011551
0.00670261
0.00711649
0.00748316
0.0078115
0.00811823
0.0085208
0.00888298
0.00942113
0.00957049
0.00998078
0.00543163
0.00581211
0.00615396
0.00644808
0.00672957
0.00711808
0.00748455
0.00797726
0.00811092
0.00840383
0.00412632
0.00450658
0.00489894
0.00522877
0.00550616
0.0058464
0.00616569
0.00659221
0.00670505
0.00693866
0.00289788
0.00324402
0.0036696
0.00406076
0.00438749
0.0047163
0.00499537
0.00534965
0.00543921
0.00563117
0.00182643
0.00212658
0.00254536
0.00296717
0.00334025
0.00368703
0.00395933
0.00426369
0.00433355
0.00448101
0.000955346
0.00120715
0.00159441
0.00200462
0.00237939
0.00272228
0.00298558
0.00325599
0.00331785
0.00343697
0.000308037
0.00050838
0.000844546
0.00121408
0.00155445
0.00186246
0.00209703
0.00232906
0.00237251
0.00245356
-3.6251e-05
6.79052e-05
0.000325137
0.000607611
0.000856562
0.00107699
0.00123827
0.00141164
0.00143178
0.00148532
-0.000560864
-0.00027503
-3.43788e-05
0.000154692
0.000289987
0.000398901
0.000460238
0.000542736
0.000517812
0.000515034
0.00789183
0.00647583
0.00525666
0.00399467
0.00281909
0.0017871
0.000949483
0.000302651
-7.85796e-06
-0.00053645
0.0076087
0.00625696
0.00505136
0.00382463
0.00269652
0.00170951
0.000911911
0.000295397
5.18924e-06
-0.000457337
0.00733282
0.00605866
0.00486664
0.00367713
0.00259019
0.00164682
0.000886459
0.000302781
2.51095e-05
-0.000362673
0.00711917
0.00592224
0.00474129
0.00358434
0.00253454
0.00162363
0.000891386
0.000331979
5.67211e-05
-0.000275461
0.00696826
0.00583209
0.00466102
0.00353301
0.00251341
0.00163005
0.000919894
0.000378224
9.81194e-05
-0.000196787
0.00688231
0.00578438
0.00462196
0.00351677
0.00252186
0.00166079
0.000967194
0.000437455
0.000146731
-0.000126056
0.00687666
0.00577679
0.00462226
0.00353332
0.00255763
0.00171313
0.00103047
0.000506755
0.000200397
-6.34999e-05
0.00692992
0.00580647
0.00465854
0.00357922
0.00261734
0.00178393
0.00110679
0.000583441
0.000257249
-8.95985e-06
0.00703402
0.00586991
0.00472645
0.00365055
0.00269726
0.00186984
0.00119319
0.000665072
0.000315718
3.82822e-05
0.00717881
0.00596259
0.00482102
0.00374323
0.00279361
0.0019676
0.0012869
0.000749588
0.000374574
7.91924e-05
0.00735155
0.00607774
0.00493596
0.00385249
0.00290232
0.00207398
0.00138537
0.000835274
0.000432879
0.000114699
0.0075429
0.00621011
0.00506653
0.00397498
0.00302038
0.00218663
0.00148677
0.000920994
0.000490081
0.000145652
0.0077471
0.0063574
0.00520988
0.00410902
0.00314608
0.00230418
0.00159004
0.00100617
0.000545984
0.000172893
0.00795853
0.00651756
0.00536308
0.00425292
0.00327787
0.00242549
0.00169441
0.0010905
0.000600563
0.000197118
0.00817246
0.00668953
0.0055237
0.00440531
0.00341458
0.0025497
0.00179941
0.00117385
0.000653909
0.000218891
0.00838452
0.00687277
0.00568962
0.00456485
0.00355532
0.00267611
0.00190474
0.00125622
0.000706176
0.000238664
0.00858817
0.0070653
0.00585825
0.00472964
0.00369909
0.00280399
0.00201016
0.00133765
0.000757551
0.000256834
0.00877926
0.0072704
0.0060321
0.00490132
0.00384751
0.00293445
0.00211655
0.00141879
0.000808506
0.000273811
0.00897427
0.00751459
0.00622877
0.00509157
0.00400911
0.00307301
0.00222739
0.0015017
0.000860014
0.000289706
0.00910491
0.00775108
0.00642016
0.00527531
0.00416854
0.00320776
0.00233549
0.00158183
0.000909898
0.0003032
0.00865913
0.00779566
0.0066074
0.00551253
0.0044266
0.00344346
0.00254176
0.00174047
0.00101364
0.000336769
0.00861644
0.00774745
0.00659457
0.00556684
0.00451723
0.00356394
0.00266602
0.00185302
0.00109316
0.000368399
0.00881136
0.00791773
0.0067535
0.00574135
0.00468711
0.00372901
0.00280963
0.0019708
0.00117468
0.000404512
0.00923099
0.0082153
0.0069969
0.00596013
0.00487929
0.0039014
0.00295227
0.0020864
0.00125795
0.000446722
0.00986395
0.00865687
0.00734649
0.00624199
0.00511121
0.00409328
0.0031046
0.00220789
0.00134846
0.000496168
0.0106531
0.00922466
0.00779733
0.006587
0.0053863
0.00430832
0.00327179
0.00233764
0.00144465
0.000547019
0.011503
0.0098572
0.00830467
0.0069689
0.00568851
0.00453837
0.00345016
0.00246999
0.001534
0.000583719
0.0122979
0.0104614
0.00879136
0.00733475
0.00597897
0.00475901
0.00362182
0.00258905
0.00159966
0.000594604
0.0129188
0.010935
0.00917207
0.00762224
0.0062089
0.00493536
0.00375918
0.00267772
0.00163626
0.000585314
0.013261
0.0111933
0.00937912
0.00777919
0.00633583
0.00503412
0.00383676
0.00272496
0.00164962
0.000572464
0.00952551
0.00948338
0.00973935
0.0102332
0.0109386
0.0117978
0.0127317
0.0136269
0.0143472
0.0147536
0.00964863
0.00973678
0.010081
0.0106567
0.0114332
0.0123499
0.013329
0.0142572
0.014999
0.0154186
0.00964447
0.00988247
0.0103488
0.0110409
0.0119231
0.0129322
0.0139833
0.0149543
0.0157115
0.016135
0.00968612
0.0100414
0.0106083
0.0114024
0.0123807
0.0134828
0.0146175
0.015652
0.0164469
0.0168904
0.00976839
0.0102461
0.0109077
0.0117937
0.0128564
0.0140411
0.0152547
0.0163573
0.0172019
0.0176756
0.00986209
0.0104743
0.0112436
0.012227
0.0133765
0.0146416
0.0159286
0.0170946
0.017987
0.0184904
0.00996566
0.0107141
0.0116036
0.012693
0.0139377
0.0152889
0.0166501
0.0178761
0.0188108
0.0193384
0.0100863
0.0109677
0.0119852
0.0131849
0.0145315
0.015975
0.0174148
0.0187014
0.0196758
0.020223
0.0102279
0.0112376
0.0123898
0.0137011
0.0151538
0.016694
0.0182168
0.0195666
0.0205811
0.0211455
0.010392
0.0115225
0.0128169
0.01424
0.0158028
0.0174431
0.0190527
0.020469
0.021526
0.0221066
0.0105801
0.0118183
0.0132641
0.0147983
0.0164762
0.0182201
0.0199211
0.0214074
0.0225101
0.0231066
0.0107906
0.0121205
0.0137269
0.0153705
0.0171696
0.0190215
0.0208199
0.0223809
0.0235334
0.0241462
0.0110162
0.0124259
0.0141972
0.0159513
0.0178778
0.0198439
0.0217468
0.0233892
0.0245968
0.0252273
0.0112422
0.0127354
0.0146629
0.0165354
0.0185933
0.0206825
0.0226973
0.0244344
0.0257022
0.0263537
0.0114254
0.0130619
0.015115
0.0171204
0.0193127
0.0215342
0.0236706
0.0255086
0.0268446
0.0275226
0.0115881
0.013373
0.0155452
0.0176915
0.0200252
0.02239
0.0246596
0.0266074
0.0280214
0.0287326
0.011714
0.0136596
0.0159456
0.0182393
0.0207232
0.0232441
0.0256607
0.0277305
0.0292328
0.0299854
0.0117777
0.0139189
0.0163077
0.0187541
0.021395
0.0240841
0.0266624
0.0288705
0.0304751
0.0312802
0.0117555
0.0141437
0.0166289
0.0192392
0.0220507
0.0249233
0.027677
0.0300355
0.0317525
0.0326217
0.0115955
0.0142847
0.0168576
0.0196199
0.0225989
0.0256681
0.0286266
0.0311751
0.0330406
0.0339995
0.0121753
0.0155999
0.0184869
0.021569
0.0248354
0.0281891
0.0314267
0.0342441
0.0363363
0.0374509
0.0154271
0.018763
0.0218634
0.025443
0.0292335
0.0331196
0.0368369
0.040038
0.0423898
0.0436245
0.0190624
0.022562
0.0260112
0.0301316
0.0344584
0.0388907
0.0430625
0.0465932
0.0491497
0.0504941
0.0229339
0.0268109
0.0308123
0.0355504
0.0404502
0.0454392
0.0500226
0.0538131
0.0564852
0.0578292
0.027071
0.031426
0.0360662
0.0414592
0.0469578
0.0524973
0.0574422
0.0614264
0.0641468
0.0655313
0.0315519
0.0363966
0.0417276
0.0477933
0.0539112
0.06
0.0652752
0.0693813
0.0719629
0.0729935
0.0359232
0.0413629
0.0473411
0.0540109
0.0607152
0.0673001
0.0728716
0.0770512
0.0793722
0.080326
0.0403741
0.0461611
0.0527667
0.0600666
0.0674012
0.0745233
0.0805272
0.0849496
0.0868032
0.0856585
0.0426564
0.0492431
0.0564433
0.0642682
0.0720854
0.079585
0.085795
0.0902058
0.0908928
0.0924227
0.0460596
0.0527313
0.0603587
0.0686528
0.0771611
0.0853948
0.092922
0.099278
0.10121
0.0843433
0.0111403
0.0143047
0.0176001
0.0211638
0.0248572
0.0291614
0.0328673
0.0374558
0.0390862
0.0424218
0.0107649
0.0140878
0.0173114
0.0208392
0.0243785
0.0285479
0.0319899
0.0364709
0.0378255
0.0411078
0.0105841
0.0140747
0.0172743
0.0207678
0.0242275
0.0282255
0.0314709
0.0356671
0.0368992
0.0399387
0.0103771
0.0139295
0.0170964
0.0205227
0.0239345
0.0277706
0.0308914
0.0348006
0.0360775
0.0387521
0.0101558
0.0136974
0.0168213
0.0201728
0.0235108
0.0271915
0.0302453
0.0338658
0.0352673
0.0375731
0.00993732
0.0134396
0.0165294
0.019817
0.0230745
0.0266061
0.0295976
0.0329612
0.0344698
0.0364648
0.00971996
0.0131674
0.0162373
0.0194759
0.0226666
0.0260717
0.0289898
0.0321485
0.0337103
0.0354616
0.00950421
0.0128833
0.0159433
0.0191447
0.0222843
0.0255907
0.0284361
0.0314339
0.0330172
0.0345728
0.00929524
0.0125949
0.015652
0.0188264
0.0219262
0.025158
0.0279402
0.0308075
0.0323962
0.033812
0.00909857
0.0123105
0.0153718
0.0185298
0.0215996
0.024776
0.0275073
0.0302654
0.0318529
0.0331752
0.00891856
0.0120375
0.0151102
0.0182631
0.021314
0.0244508
0.0271439
0.0298104
0.0313947
0.032653
0.00875215
0.011777
0.0148703
0.0180292
0.0210747
0.0241869
0.0268558
0.0294464
0.0310267
0.0322376
0.00859064
0.0115282
0.0146519
0.0178284
0.0208836
0.0239871
0.0266463
0.0291762
0.0307516
0.0319277
0.00842583
0.0112937
0.0144549
0.0176614
0.0207418
0.0238531
0.0265175
0.0290008
0.030568
0.0317237
0.00824768
0.0110756
0.0142778
0.0175283
0.0206493
0.0237857
0.0264702
0.0289212
0.0304748
0.0316316
0.00804334
0.0108723
0.0141168
0.0174266
0.0206044
0.0237835
0.0265035
0.0289364
0.0304626
0.0316549
0.00779965
0.0106787
0.0139656
0.0173518
0.0206038
0.0238445
0.026618
0.0290493
0.0305335
0.0318095
0.00750367
0.0104859
0.0138167
0.0172964
0.02064
0.0239596
0.0268051
0.0292516
0.0306558
0.0320997
0.00710889
0.0102639
0.0136605
0.0172583
0.0207178
0.0241401
0.0270812
0.0295658
0.0308735
0.0325539
0.00664924
0.00997764
0.0134498
0.0171754
0.0207636
0.0243038
0.0273677
0.0299217
0.0310638
0.03315
0.00758628
0.0110397
0.0144066
0.0181898
0.0219666
0.0256541
0.0288642
0.0315402
0.0325185
0.0349962
0.00952888
0.0132544
0.0168953
0.0210522
0.0252201
0.0292983
0.0328862
0.0358894
0.0371871
0.0393682
0.0123758
0.0164077
0.0204363
0.0250937
0.0297655
0.0343933
0.0385005
0.041894
0.0437658
0.04568
0.0158683
0.0202775
0.0247856
0.0300719
0.0354356
0.0408563
0.0457544
0.0498842
0.0527959
0.0550348
0.01956
0.0244178
0.0295297
0.0355914
0.041851
0.048347
0.0544409
0.0599377
0.0645641
0.0685618
0.0234185
0.028695
0.0345413
0.0415031
0.0488698
0.056769
0.0646404
0.0726838
0.0810041
0.0896134
0.0264189
0.0323147
0.0389669
0.0468833
0.0555833
0.0653274
0.0757971
0.0880946
0.103325
0.122367
0.0298557
0.0362704
0.0437613
0.0527111
0.0629237
0.0749824
0.0892062
0.108643
0.137481
0.178323
0.0305876
0.0371042
0.0448854
0.0544289
0.0661747
0.0813472
0.101969
0.133363
0.185221
0.265999
0.0330531
0.0407914
0.0501296
0.0619371
0.077413
0.0985018
0.128991
0.177602
0.26276
0.395384
0.00761053
0.00941615
0.0117517
0.0146515
0.0175596
0.0210343
0.0233594
0.0266465
0.0272205
0.0291472
0.00750055
0.0093265
0.0115801
0.0143454
0.0170379
0.0203197
0.022389
0.0255609
0.0259997
0.0280042
0.00752406
0.00930575
0.0114843
0.0141492
0.0167183
0.0197952
0.0216865
0.0246527
0.024903
0.027151
0.00762059
0.00928184
0.0113201
0.0138404
0.0162676
0.019153
0.0209051
0.0236828
0.0237555
0.0260476
0.00775059
0.00925925
0.0111218
0.013475
0.0157268
0.0184164
0.0200225
0.022648
0.0225614
0.0247108
0.00790155
0.00924588
0.0109233
0.0131021
0.0151811
0.0176711
0.019121
0.0216172
0.0213874
0.0233351
0.00806467
0.00924351
0.0107334
0.0127169
0.0146599
0.016949
0.0182544
0.0206319
0.0202827
0.022063
0.00823051
0.00925257
0.0105501
0.0123378
0.0141379
0.0162427
0.0174419
0.0196914
0.0192633
0.0209316
0.00838967
0.00927279
0.0103727
0.0119709
0.0136129
0.0155317
0.0166979
0.018769
0.0183329
0.0199118
0.00853281
0.00930195
0.0102018
0.0116152
0.0130963
0.0148533
0.0159845
0.0178434
0.0175002
0.0189565
0.0073529
0.00784647
0.00804556
0.00820703
0.00832248
0.0083924
0.00842261
0.00842292
0.00841789
0.00837895
0.00752017
0.00799161
0.00816693
0.00829611
0.0083732
0.00840082
0.00838679
0.00834173
0.00828857
0.00820081
0.0077511
0.00817571
0.00831982
0.00841112
0.00844594
0.00842854
0.00836821
0.00827642
0.00817596
0.00804204
0.00804903
0.00840249
0.00850864
0.0085573
0.00854694
0.00848321
0.00837648
0.00823887
0.00809293
0.00791676
0.00841549
0.00867452
0.00873655
0.00873849
0.00868088
0.00857053
0.00841843
0.00823677
0.00804724
0.0078359
0.00884856
0.00899206
0.00900452
0.00895637
0.00885016
0.00869352
0.00849763
0.00827396
0.00804303
0.00781875
0.00934264
0.00935233
0.00931088
0.00920999
0.00905441
0.0088522
0.00861425
0.00835293
0.00808621
0.00780075
0.00988875
0.00974919
0.00965102
0.00949551
0.00929039
0.00904394
0.00876647
0.0084702
0.00816914
0.0078464
0.0104701
0.0101762
0.0100173
0.00980608
0.00955193
0.00926309
0.00894896
0.00862066
0.00828862
0.00793973
0.0110663
0.0106173
0.0103981
0.0101318
0.00983016
0.0095014
0.00915379
0.00879688
0.00843809
0.00806943
0.0116453
0.0110528
0.0107783
0.0104601
0.0101142
0.00974899
0.00937155
0.00898983
0.00860899
0.00822621
0.0122149
0.0114784
0.0111486
0.0107803
0.0103931
0.0099951
0.00959193
0.0091896
0.00879175
0.00840053
0.012747
0.0118738
0.0114923
0.0110784
0.0106548
0.010229
0.009805
0.00938676
0.00897714
0.00858337
0.0132161
0.0122204
0.011794
0.0113413
0.0108878
0.0104404
0.0100012
0.00957229
0.00915641
0.00876621
0.0136019
0.0125016
0.0120393
0.0115566
0.0110813
0.0106198
0.010172
0.00973811
0.00932161
0.00894139
0.0138863
0.0127027
0.0122156
0.0117137
0.0112265
0.0107592
0.0103101
0.00987752
0.00946592
0.00910209
0.0140543
0.0128115
0.0123127
0.0118043
0.0113162
0.0108527
0.0104105
0.00998561
0.00958395
0.0092418
0.014095
0.0128188
0.0123229
0.0118222
0.0113458
0.0108966
0.0104702
0.01006
0.00967113
0.00935152
0.0140018
0.012719
0.0122419
0.0117645
0.0113133
0.0108898
0.0104883
0.010098
0.00971778
0.00941306
0.0137728
0.0125105
0.0120685
0.0116308
0.0112196
0.0108347
0.0104688
0.0101047
0.00973112
0.0094329
0.0134095
0.0121948
0.0118037
0.0114224
0.0110674
0.0107383
0.0104308
0.0101373
0.00986892
0.00971157
0.0129112
0.0117744
0.0114505
0.0111408
0.0108552
0.0105924
0.0103497
0.0101253
0.00993422
0.0098264
0.0122924
0.0112599
0.011016
0.0107901
0.0105839
0.0103941
0.0102184
0.010058
0.00992522
0.00984013
0.01157
0.010664
0.0105097
0.0103773
0.0102586
0.0101481
0.0100443
0.00995066
0.00987684
0.00982865
0.0107632
0.010002
0.00994372
0.00991178
0.00988738
0.00986228
0.00983583
0.00981318
0.00980233
0.00980346
0.00989341
0.00929081
0.00933208
0.00940503
0.00947984
0.00954512
0.0096008
0.00965324
0.00970936
0.0097673
0.00898421
0.0085492
0.00869018
0.00886965
0.00904659
0.00920585
0.00934752
0.00947869
0.00960592
0.00972726
0.00805904
0.0077957
0.00803373
0.00831859
0.0085984
0.00885368
0.00908405
0.00929691
0.00949898
0.00968979
0.00714118
0.00704783
0.00737785
0.00776436
0.00814554
0.00849713
0.00881762
0.00911415
0.00939377
0.009659
0.0062617
0.0063259
0.00673837
0.00721936
0.00769771
0.00814384
0.00855428
0.00893526
0.00929394
0.00963711
0.00546525
0.00566
0.00613572
0.00669856
0.00726571
0.00780164
0.00829972
0.00876428
0.00920182
0.00962469
0.00470741
0.00503367
0.00556652
0.00620436
0.00685301
0.00747362
0.00805611
0.00860239
0.00911709
0.009619
0.00401282
0.00446227
0.00504485
0.005744
0.0064654
0.0071637
0.00782552
0.00845014
0.00903862
0.00961381
0.00339848
0.00395719
0.00457743
0.00532539
0.00610766
0.00687443
0.00760875
0.00830672
0.00896486
0.0096004
0.00287063
0.0035231
0.00416876
0.00495216
0.00578257
0.00660746
0.00740616
0.00817033
0.00889097
0.00959526
0.00243155
0.00316155
0.00382131
0.00462655
0.00549185
0.00636356
0.00721755
0.00804061
0.00881578
0.00957279
0.00208115
0.00287219
0.0035357
0.00434963
0.00523636
0.00614299
0.00704257
0.00791695
0.00873832
0.00953279
0.00181695
0.00265284
0.00331092
0.00412122
0.00501614
0.00594566
0.00688115
0.00780038
0.00866201
0.00947795
0.00163449
0.00249986
0.0031446
0.00394006
0.00483041
0.00577087
0.00673297
0.00769307
0.00859709
0.00942242
0.00152818
0.00240867
0.00303332
0.00380395
0.00467754
0.00561692
0.00659529
0.00759137
0.00855367
0.00940586
0.00149011
0.00237301
0.00297205
0.0037091
0.00455452
0.00548149
0.00646913
0.00751172
0.00863567
0.00977985
0.00150399
0.00238281
0.00295428
0.00365156
0.00445733
0.00535451
0.00632488
0.00735689
0.00847535
0.00960246
0.00157005
0.00243601
0.0029772
0.00362913
0.00438462
0.00523483
0.006164
0.00715435
0.00821838
0.00928484
0.00168281
0.00252743
0.00303658
0.00363977
0.00433805
0.00513055
0.00600651
0.00694915
0.00796499
0.00898231
0.00183444
0.00265091
0.00312769
0.00368126
0.00431917
0.00504827
0.00586418
0.0067539
0.00772086
0.00869414
0.00201756
0.00280074
0.0032459
0.00375091
0.00432801
0.00499097
0.00574199
0.00657249
0.00748431
0.00841309
0.00222547
0.00297167
0.00338668
0.00384553
0.00436339
0.00495978
0.00564321
0.00640981
0.00726094
0.00814245
0.00245205
0.00315877
0.0035455
0.0039615
0.00442325
0.0049546
0.0055698
0.00626979
0.00705608
0.00788684
0.00269194
0.0033575
0.0037179
0.00409484
0.00450464
0.00497401
0.00552208
0.00615434
0.00687288
0.00764962
0.00294189
0.00356551
0.00390118
0.00424265
0.00460489
0.00501612
0.00549927
0.00606398
0.00671298
0.00743294
0.00320068
0.00378338
0.00409591
0.00440511
0.00472393
0.00508092
0.00550177
0.00599972
0.00657791
0.00723805
0.00345654
0.00399946
0.00429089
0.00457173
0.00485238
0.00516053
0.0055235
0.00595739
0.00646513
0.00706227
0.00370994
0.00421452
0.00448622
0.00474177
0.0049887
0.00525294
0.00556234
0.0059351
0.00637309
0.00690332
0.00396056
0.00442797
0.00468089
0.00491352
0.00513053
0.00535538
0.0056155
0.00593026
0.0062996
0.00675876
0.00420773
0.00463869
0.00487337
0.00508492
0.00527527
0.00546496
0.00568003
0.00594017
0.00624227
0.00662586
0.00445135
0.00484604
0.00506274
0.00525461
0.00542105
0.00557941
0.00575363
0.00596271
0.00619923
0.00650196
0.00469181
0.00504994
0.00524876
0.00542206
0.00556694
0.0056975
0.00583507
0.00599721
0.00617061
0.00638617
0.00492973
0.0052506
0.00543176
0.00558763
0.00571321
0.00581937
0.00592455
0.0060446
0.00615868
0.0062786
0.00516558
0.00544841
0.00561255
0.00575268
0.00586192
0.00594797
0.00602584
0.00610873
0.006166
0.00617206
0.00539924
0.00564356
0.00579205
0.00591927
0.00601717
0.00609166
0.00615536
0.0062204
0.00625513
0.00617442
0.00563037
0.00583605
0.00597076
0.00608856
0.00618151
0.00625677
0.00633168
0.0064389
0.00664205
0.00698709
0.00585965
0.00602579
0.00614832
0.00625982
0.00635164
0.00643032
0.00651215
0.00662676
0.00683094
0.00713495
0.0060827
0.00621108
0.00632364
0.00643173
0.00652513
0.0066079
0.00669281
0.00680234
0.00697461
0.00720486
0.00629561
0.00638996
0.00649526
0.00660286
0.00670078
0.00679002
0.00687973
0.00698707
0.00713796
0.00732274
0.00649608
0.00655898
0.00666141
0.0067714
0.00687666
0.00697495
0.00707157
0.00717877
0.00731394
0.00746824
0.00667833
0.00671837
0.0068192
0.00693503
0.00705025
0.00715982
0.00726531
0.00737441
0.00749839
0.00763147
0.00683903
0.00686462
0.00696734
0.00709139
0.00721888
0.0073417
0.00745811
0.00757189
0.00768992
0.00780894
0.00697529
0.00699585
0.00710368
0.00723832
0.00737983
0.00751758
0.00764679
0.00776806
0.00788512
0.00799534
0.00708481
0.00711086
0.00722663
0.00737374
0.00753058
0.00768429
0.00782767
0.00795878
0.00807899
0.00818405
0.00716487
0.00720829
0.00733498
0.00749609
0.007669
0.0078389
0.00799697
0.00813927
0.00826567
0.00836788
)
;

boundaryField
{
    inlet
    {
        type            zeroGradient;
    }
    outlet
    {
        type            fixedValue;
        value           uniform 0;
    }
    cylinder
    {
        type            zeroGradient;
    }
    top
    {
        type            symmetryPlane;
    }
    bottom
    {
        type            symmetryPlane;
    }
    defaultFaces
    {
        type            empty;
    }
}


// ************************************************************************* //
