/*--------------------------------*- C++ -*----------------------------------*\
  =========                 |
  \\      /  F ield         | OpenFOAM: The Open Source CFD Toolbox
   \\    /   O peration     | Website:  https://openfoam.org
    \\  /    A nd           | Version:  7
     \\/     M anipulation  |
\*---------------------------------------------------------------------------*/
FoamFile
{
    version     2.0;
    format      ascii;
    class       volVectorField;
    location    "95";
    object      U;
}
// * * * * * * * * * * * * * * * * * * * * * * * * * * * * * * * * * * * * * //

dimensions      [0 1 -1 0 0 0 0];

internalField   nonuniform List<vector> 
2000
(
(-7.81865e-05 -0.00472294 -1.75096e-22)
(5.4666e-05 -0.0111951 0)
(0.000489264 -0.014977 0)
(0.00117532 -0.0165036 -8.98425e-22)
(0.00206919 -0.0160526 2.92424e-22)
(0.00314972 -0.0138081 1.20344e-23)
(0.0044157 -0.00989795 -5.03458e-22)
(0.0058736 -0.00442836 0)
(0.00753118 0.00249195 0)
(0.00929299 0.0107376 0)
(0.0003777 -0.00459341 0)
(0.00132961 -0.0112144 -6.85131e-22)
(0.00248892 -0.0151849 6.31828e-22)
(0.00368871 -0.0169188 1.20016e-21)
(0.00489618 -0.0167007 0)
(0.00610029 -0.0147301 1.09986e-21)
(0.00731246 -0.0111446 -1.0228e-21)
(0.00855674 -0.00604475 0)
(0.00987217 0.000487501 1.88575e-21)
(0.0111722 0.00836649 -3.63211e-21)
(0.000871377 -0.00454127 0)
(0.00277405 -0.011326 5.47748e-21)
(0.00481254 -0.015443 0)
(0.00667271 -0.0173297 4.90146e-21)
(0.00833329 -0.0172869 0)
(0.00979465 -0.0155371 -4.4269e-21)
(0.0110814 -0.0122338 0)
(0.0122344 -0.0074779 4.02647e-21)
(0.0133239 -0.0013291 -3.77104e-21)
(0.0142697 0.00615819 -3.70626e-21)
(0.00143116 -0.00458471 -1.42378e-21)
(0.00442382 -0.0115494 -2.73465e-21)
(0.00747979 -0.0157609 -1.28181e-21)
(0.0101258 -0.017733 -2.40575e-21)
(0.0123572 -0.017794 -2.30521e-21)
(0.0141912 -0.0161956 2.17658e-21)
(0.0156692 -0.0131124 2.09246e-21)
(0.0168495 -0.00865163 -2.25409e-23)
(0.0178324 -0.00285558 3.8086e-21)
(0.0185437 0.0042419 3.70457e-21)
(0.00208843 -0.00473335 -1.39902e-21)
(0.00631365 -0.0118893 -2.79521e-21)
(0.0105001 -0.0161351 -5.31334e-21)
(0.0140241 -0.0181191 2.44307e-21)
(0.0169086 -0.0182078 0)
(0.0191969 -0.0166866 0)
(0.0209542 -0.0137548 -4.30339e-21)
(0.0222593 -0.00952956 -4.08666e-21)
(0.0232403 -0.00403925 3.86192e-21)
(0.023831 0.00269264 1.11589e-20)
(0.00287453 -0.0049841 1.42541e-21)
(0.00847128 -0.0123305 1.45534e-21)
(0.0138662 -0.0165463 -7.89291e-21)
(0.0183162 -0.0184705 1.25328e-20)
(0.021888 -0.0185169 -2.33571e-21)
(0.024664 -0.017008 0)
(0.026743 -0.0141684 0)
(0.0282305 -0.0101261 2.03597e-20)
(0.0292806 -0.00489558 -1.92798e-20)
(0.0298355 0.00150478 3.66325e-21)
(0.00381654 -0.0053196 1.11245e-20)
(0.0109111 -0.0128377 0)
(0.0175485 -0.0169597 1.05431e-20)
(0.0229198 -0.018762 -1.00045e-20)
(0.0271561 -0.0187128 0)
(0.0303942 -0.0171732 4.55412e-21)
(0.0327791 -0.0143924 -1.2777e-20)
(0.0344521 -0.0105077 -1.62722e-20)
(0.0355931 -0.00551565 7.63936e-21)
(0.0361489 0.000577976 7.4247e-21)
(0.00493286 -0.00570893 -2.22683e-20)
(0.0136278 -0.0133576 -2.84245e-21)
(0.0214907 -0.0173272 -5.36361e-21)
(0.0277215 -0.0189621 -1.26006e-20)
(0.032539 -0.0187894 -4.82127e-21)
(0.0361517 -0.0172074 -4.55779e-21)
(0.0387636 -0.0144894 2.85893e-23)
(0.0405633 -0.0107813 0)
(0.041763 -0.00605638 0)
(0.0423074 -0.000279353 3.96736e-23)
(0.00622932 -0.00611 1.1144e-20)
(0.0165915 -0.013823 -1.13597e-20)
(0.0256082 -0.0175922 7.9675e-21)
(0.0325798 -0.0190377 1.77442e-20)
(0.0378389 -0.0187441 -4.73526e-21)
(0.0416824 -0.0171427 4.54535e-21)
(0.0443839 -0.0145294 4.29278e-21)
(0.0461901 -0.0110641 0)
(0.0473623 -0.00669848 0)
(0.0478549 -0.0013231 -1.72538e-22)
(0.0076966 -0.0064738 -1.40755e-21)
(0.019744 -0.0141603 1.42558e-20)
(0.0297878 -0.0176974 -2.66885e-21)
(0.0373316 -0.01896 0)
(0.0428495 -0.0185812 0)
(0.0467413 -0.0170149 9.0212e-21)
(0.0493564 -0.0145742 0)
(0.0510007 -0.0114404 -7.93806e-21)
(0.0519961 -0.00757522 7.4224e-24)
(0.0523572 -0.00281549 7.1156e-21)
(0.0127496 0.0317496 1.38057e-22)
(0.0226556 0.0809639 -1.39596e-22)
(0.0311331 0.135031 -1.55957e-22)
(0.0333693 0.185887 -1.75405e-22)
(0.0301594 0.235449 -2.13684e-22)
(0.0267833 0.287597 -8.09131e-24)
(0.0164869 0.348449 1.11543e-22)
(0.0138671 0.435562 4.02612e-22)
(-0.003898 0.570031 0)
(0.00394656 0.729944 -2.93709e-22)
(0.0130573 0.028659 5.35894e-22)
(0.0205044 0.0767432 -5.9914e-22)
(0.0288818 0.132283 1.06813e-21)
(0.0315178 0.184934 1.7569e-22)
(0.0287238 0.23574 3.79113e-22)
(0.0256451 0.288704 6.52198e-22)
(0.015815 0.350068 -2.42205e-22)
(0.0132678 0.437491 -2.70441e-22)
(-0.00373694 0.571263 5.18862e-22)
(0.00355819 0.729544 2.93016e-22)
(0.0147049 0.0255787 0)
(0.0190877 0.0719073 -5.86624e-22)
(0.0269889 0.128519 -3.09085e-22)
(0.029915 0.183011 0)
(0.0274848 0.235181 -1.16871e-21)
(0.0246849 0.289043 3.65795e-22)
(0.0152677 0.350924 4.07696e-22)
(0.01275 0.438578 1.45859e-21)
(-0.00355072 0.572013 -5.1718e-22)
(0.00321557 0.728974 1.05819e-21)
(0.0177239 0.0226744 0)
(0.0185422 0.0666752 5.91534e-22)
(0.025482 0.1238 0)
(0.0285527 0.180108 1.37183e-21)
(0.026429 0.233763 -1.37896e-21)
(0.0238872 0.288615 -8.30311e-22)
(0.01483 0.351012 -4.69756e-23)
(0.0123232 0.438832 -1.43277e-21)
(-0.00334252 0.57211 -2.32681e-22)
(0.00289739 0.728066 -1.30036e-21)
(0.0220061 0.0200704 3.30749e-23)
(0.018999 0.061295 -1.69489e-21)
(0.024404 0.118236 4.42683e-23)
(0.0274259 0.176239 -1.24674e-21)
(0.025542 0.231484 0)
(0.0232353 0.287434 -7.95176e-22)
(0.0144877 0.350386 -6.66419e-23)
(0.0119745 0.438416 1.79593e-21)
(-0.00313053 0.57184 2.35575e-22)
(0.00260474 0.727103 -2.36443e-22)
(0.0272695 0.0178235 -4.58262e-21)
(0.0205274 0.0560122 2.90471e-21)
(0.023812 0.111988 1.2275e-21)
(0.0265336 0.17144 -1.22691e-21)
(0.0248113 0.228349 -6.58062e-22)
(0.0227181 0.285497 0)
(0.0142398 0.349005 -1.59159e-21)
(0.0117121 0.437134 8.02562e-22)
(-0.00291036 0.570693 8.65572e-22)
(0.00231562 0.725698 9.06101e-22)
(0.0330586 0.0159197 -5.51084e-22)
(0.0230626 0.0510425 0)
(0.0237619 0.105268 0)
(0.02588 0.165778 0)
(0.024222 0.224385 -7.00356e-22)
(0.0223166 0.282897 1.35635e-21)
(0.0140639 0.347105 1.55286e-21)
(0.0114955 0.435544 -2.42642e-21)
(-0.00271256 0.569653 4.26097e-22)
(0.00205447 0.724522 -1.31942e-21)
(0.0387759 0.0142582 3.45102e-21)
(0.0263413 0.0464496 2.38072e-21)
(0.0242662 0.0982798 -2.35891e-21)
(0.0254689 0.159373 2.47739e-21)
(0.0237702 0.219562 -3.07371e-21)
(0.0220312 0.279418 0)
(0.0139824 0.344192 -7.00551e-22)
(0.011379 0.432584 3.42429e-23)
(-0.00249662 0.567039 -7.66995e-22)
(0.00177598 0.722569 -8.18761e-22)
(0.0437033 0.0124811 -2.92943e-21)
(0.0298758 0.0418559 0)
(0.0252572 0.0908202 -2.65507e-21)
(0.0252814 0.152196 4.75826e-21)
(0.0234175 0.214239 -1.76759e-21)
(0.0218199 0.27592 -3.21104e-22)
(0.0139241 0.341732 6.99025e-22)
(0.0112266 0.430742 1.03422e-23)
(-0.00235934 0.566006 1.11042e-21)
(0.00154204 0.721461 1.18758e-21)
(0.0469765 0.0104827 -2.38677e-21)
(0.0330196 0.0372991 2.33503e-21)
(0.0265896 0.0827595 2.97009e-22)
(0.0254116 0.143149 0)
(0.0231974 0.206195 0)
(0.0217353 0.269388 3.17438e-22)
(0.0140499 0.335846 1.33328e-21)
(0.0113256 0.424706 -1.29514e-21)
(-0.00211509 0.56094 -3.48929e-22)
(0.00125515 0.718725 3.37264e-22)
(0.0486622 0.0112897 0)
(0.0372902 0.0358308 0)
(0.0289493 0.0771948 0)
(0.0262974 0.137547 0)
(0.0234595 0.203351 0)
(0.0212296 0.269346 0)
(0.0136073 0.337628 0)
(0.0104499 0.427803 0)
(-0.00223855 0.563106 0)
(0.000774348 0.717525 0)
(0.050279 0.0243004 0)
(0.0408112 0.0523694 0)
(0.0307758 0.0894871 0)
(0.0259262 0.143822 0)
(0.0227435 0.207546 0)
(0.0202142 0.273945 0)
(0.0130839 0.343815 0)
(0.00951614 0.4352 0)
(-0.00199524 0.568593 0)
(0.000394593 0.716698 0)
(0.0475691 0.0273841 0)
(0.0417714 0.0598438 0)
(0.0326267 0.0976349 0)
(0.026214 0.149771 0)
(0.0221294 0.212458 0)
(0.0191413 0.278942 0)
(0.0124474 0.349581 0)
(0.00863599 0.441199 0)
(-0.00184212 0.572704 0)
(8.81554e-05 0.715662 0)
(0.0430503 0.029072 0)
(0.0400942 0.0654208 0)
(0.0330243 0.104359 0)
(0.0264686 0.15512 0)
(0.0217552 0.217194 0)
(0.0182917 0.284437 0)
(0.0119232 0.356647 0)
(0.00798067 0.449123 0)
(-0.00149351 0.578465 0)
(-6.02188e-05 0.715165 0)
(0.0380485 0.0291431 0)
(0.0370385 0.069371 0)
(0.0320055 0.110247 0)
(0.026157 0.160211 0)
(0.0213613 0.22124 0)
(0.0176298 0.288444 0)
(0.011492 0.361302 0)
(0.00737948 0.453934 0)
(-0.00137478 0.581648 0)
(-0.000251602 0.714192 0)
(0.0327826 0.0278235 0)
(0.0333234 0.0715841 0)
(0.030007 0.114962 0)
(0.0251037 0.165203 0)
(0.02062 0.225948 0)
(0.0169409 0.293773 0)
(0.0111836 0.368113 0)
(0.0070262 0.461618 0)
(-0.00097205 0.587116 0)
(-0.000286252 0.713655 0)
(0.0274482 0.0253146 0)
(0.0294036 0.0723048 0)
(0.0277273 0.118451 0)
(0.0238871 0.169352 0)
(0.0197994 0.229511 0)
(0.0162115 0.296964 0)
(0.0107765 0.371488 0)
(0.00660345 0.464903 0)
(-0.000901542 0.589158 0)
(-0.000404115 0.71273 0)
(0.022034 0.0214855 0)
(0.0252867 0.0712617 0)
(0.024942 0.120294 0)
(0.0222376 0.173041 0)
(0.0188335 0.234168 0)
(0.0155379 0.302719 0)
(0.010529 0.378786 0)
(0.00640045 0.472997 0)
(-0.000452906 0.594778 0)
(-0.000359877 0.712258 0)
(0.0173299 0.0180719 0)
(0.0222731 0.0703716 0)
(0.0232098 0.121874 0)
(0.0212363 0.175446 0)
(0.0181465 0.236305 0)
(0.01496 0.304535 0)
(0.0101748 0.380653 0)
(0.00610426 0.474681 0)
(-0.000447327 0.595791 0)
(-0.000428706 0.711665 0)
(0.0116523 0.00761127 0)
(0.0171084 0.0631702 0)
(0.020267 0.119864 0)
(0.0200338 0.177767 0)
(0.017797 0.241142 0)
(0.0148307 0.311174 0)
(0.010292 0.389044 0)
(0.00612335 0.483879 0)
(0.000123844 0.602034 0)
(-0.000314322 0.711333 0)
(0.0544529 0.00178599 2.10404e-21)
(0.0531809 0.00716253 -2.06735e-21)
(0.0482384 0.00739859 1.81676e-22)
(0.0426409 0.00645376 0)
(0.0368032 0.0043153 0)
(0.0307925 0.00127484 5.81799e-23)
(0.0247909 -0.00252791 -8.19657e-23)
(0.0188262 -0.00728527 8.05397e-23)
(0.0132945 -0.0115341 -8.56311e-24)
(0.00707797 -0.0206677 8.41091e-24)
(0.0553986 -0.00212308 -2.76991e-21)
(0.0525018 2.55901e-06 0)
(0.0468965 -0.00118301 1.03049e-21)
(0.0411098 -0.00321307 -2.06027e-21)
(0.0352114 -0.00616657 1.03443e-21)
(0.0291882 -0.00978615 -5.68441e-23)
(0.0231761 -0.0139974 5.76891e-23)
(0.0172497 -0.0190047 2.84822e-23)
(0.0115713 -0.0235079 -1.55323e-23)
(0.00575553 -0.0318134 -1.83439e-23)
(0.0555854 -0.00603994 3.128e-21)
(0.0513866 -0.0067848 -1.47027e-21)
(0.0454148 -0.00941808 1.45616e-21)
(0.0395121 -0.0125831 -8.27606e-22)
(0.0335813 -0.0163792 6.47176e-22)
(0.0275423 -0.0205789 0)
(0.0215307 -0.0251618 -5.7821e-23)
(0.0156585 -0.0303074 1.16458e-24)
(0.00994729 -0.0348905 -9.58278e-25)
(0.00461475 -0.0421281 2.57055e-23)
(0.0551012 -0.010472 -4.77266e-22)
(0.0498611 -0.0136666 0)
(0.0437543 -0.0175734 0)
(0.0378168 -0.0217637 0)
(0.0319039 -0.0263073 4.34245e-22)
(0.0258812 -0.0309987 -2.69073e-22)
(0.019901 -0.0358604 1.89259e-23)
(0.0141023 -0.0410135 -3.88441e-24)
(0.00847406 -0.0454929 3.49396e-24)
(0.00361535 -0.0515874 1.15394e-23)
(0.0539107 -0.0155275 -3.19477e-22)
(0.0478671 -0.0207492 -1.28161e-21)
(0.0418085 -0.0257177 -5.30171e-22)
(0.0359199 -0.0307521 5.29797e-22)
(0.0300807 -0.0358941 -1.631e-22)
(0.0241442 -0.0409472 0)
(0.0182583 -0.0459617 -5.84661e-23)
(0.0125923 -0.0509888 3.82901e-23)
(0.00716269 -0.0552055 -1.53717e-23)
(0.00278822 -0.0601864 -1.52022e-23)
(0.052107 -0.0211534 -3.54346e-21)
(0.0455039 -0.027967 5.82063e-22)
(0.0396322 -0.0338007 1.45114e-22)
(0.0338572 -0.0394768 5.22112e-22)
(0.0281518 -0.0450538 0)
(0.022359 -0.0503236 0)
(0.0166283 -0.0553585 0)
(0.0111593 -0.0601418 3.06156e-23)
(0.00601936 -0.0639815 0)
(0.00212861 -0.0679422 0)
(0.0497224 -0.0272713 0)
(0.042873 -0.0351825 1.02194e-21)
(0.0372933 -0.0417189 -6.59659e-22)
(0.0316894 -0.0478372 -3.88319e-22)
(0.0261703 -0.053692 3.90316e-22)
(0.0205717 -0.0590385 8.83554e-23)
(0.0150499 -0.0639738 -1.08265e-22)
(0.00983375 -0.0684239 -1.27757e-22)
(0.00504331 -0.0718222 1.04501e-23)
(0.00161362 -0.0748925 3.49812e-24)
(0.0468449 -0.0336499 0)
(0.0400569 -0.0422638 -3.62553e-22)
(0.0348493 -0.0493569 -1.47889e-22)
(0.0294688 -0.0557327 0)
(0.0241812 -0.061726 5.57048e-23)
(0.0188225 -0.0670274 -2.00429e-22)
(0.0135545 -0.0717667 9.66657e-23)
(0.00863511 -0.0758285 8.01136e-24)
(0.00422521 -0.0787666 -9.42272e-24)
(0.00121835 -0.0810905 -2.39272e-24)
(0.0436107 -0.0401284 4.77561e-22)
(0.0371294 -0.049089 3.29789e-22)
(0.0323513 -0.0566113 -1.10322e-22)
(0.0272433 -0.0630826 5.84859e-23)
(0.0222241 -0.0690983 8.47748e-23)
(0.0171447 -0.0742582 8.96324e-23)
(0.0121647 -0.0787339 -2.01145e-23)
(0.00757167 -0.0823858 -1.15711e-23)
(0.00354929 -0.0848807 9.45355e-24)
(0.000919307 -0.0866009 9.74702e-25)
(0.0401328 -0.0465788 -1.01039e-22)
(0.0341548 -0.0555672 1.01969e-22)
(0.0298462 -0.0634064 -7.47448e-23)
(0.0250565 -0.0698379 -5.83974e-23)
(0.0203334 -0.0757837 3.79304e-23)
(0.0155643 -0.0807342 -6.91269e-23)
(0.0108944 -0.0849067 2.838e-23)
(0.0066424 -0.088156 3.24937e-24)
(0.00299619 -0.0902484 0)
(0.000695062 -0.0914949 -9.7681e-25)
(0.0365324 -0.0529042 1.03282e-22)
(0.0312012 -0.0616461 -1.04199e-22)
(0.0273831 -0.069701 -7.83086e-23)
(0.0229521 -0.0759859 -6.18246e-23)
(0.0185397 -0.0817908 -3.96438e-23)
(0.0141018 -0.0864909 5.74207e-24)
(0.00975049 -0.0903449 1.42993e-23)
(0.00584012 -0.0932197 2.34676e-23)
(0.00254607 -0.0949626 0)
(0.000527277 -0.095848 -2.16438e-24)
(0.0329324 -0.0590493 0)
(0.0283417 -0.0673116 -3.5093e-22)
(0.0250104 -0.0754865 5.93527e-22)
(0.0209709 -0.081548 6.19159e-23)
(0.0168688 -0.0871574 9.83693e-23)
(0.0127708 -0.0915906 1.06507e-22)
(0.00873417 -0.0951286 -2.32952e-23)
(0.00515402 -0.0976699 -1.43658e-23)
(0.00218057 -0.0991195 1.70948e-23)
(0.00040143 -0.0997368 2.15929e-24)
(0.0294312 -0.0649983 0)
(0.0256353 -0.0725859 -4.02959e-22)
(0.0227617 -0.0807822 -1.61929e-22)
(0.0191398 -0.0865743 0)
(0.0153356 -0.0919445 -2.72685e-22)
(0.011576 -0.0961139 1.0311e-22)
(0.00784058 -0.0993498 6.44136e-23)
(0.00457076 -0.101605 1.10838e-22)
(0.00188336 -0.102814 -1.7039e-23)
(0.00030631 -0.103238 1.22188e-23)
(0.0260978 -0.0707634 0)
(0.023123 -0.0775244 4.06301e-22)
(0.0206555 -0.0856297 0)
(0.017471 -0.0911377 4.80065e-22)
(0.0139445 -0.0962301 -4.82553e-22)
(0.0105131 -0.100153 -1.32681e-22)
(0.0070602 -0.103106 2.70202e-23)
(0.00407583 -0.105121 -1.14465e-22)
(0.00164045 -0.106136 -2.11436e-23)
(0.000233271 -0.106425 -1.86744e-23)
(0.0229797 -0.0763725 4.12715e-21)
(0.0208367 -0.0822125 -1.55024e-21)
(0.0187045 -0.0900869 -1.46141e-22)
(0.0159679 -0.0953263 -6.36857e-22)
(0.0126956 -0.100102 0)
(0.00957404 -0.103804 -1.40223e-22)
(0.00638208 -0.106495 4.4486e-23)
(0.00365557 -0.108315 1.69838e-22)
(0.0014406 -0.109174 7.09462e-24)
(0.000175963 -0.109372 -7.09224e-24)
(0.0201015 -0.081852 3.3908e-22)
(0.0188018 -0.0867599 2.41414e-21)
(0.0169222 -0.0942216 6.63284e-22)
(0.0146299 -0.0992349 -6.62872e-22)
(0.0115882 -0.103654 -2.34388e-22)
(0.00874983 -0.107164 0)
(0.00579614 -0.109611 -2.28422e-22)
(0.00329847 -0.111273 1.22401e-22)
(0.00127541 -0.112006 6.33279e-23)
(0.000129968 -0.112149 1.59362e-23)
(0.0174749 -0.0872065 -5.7525e-22)
(0.0170474 -0.0912957 0)
(0.0153338 -0.0981087 0)
(0.0134586 -0.102958 0)
(0.0106255 -0.106977 -1.86835e-22)
(0.00803454 -0.110322 4.20746e-22)
(0.00529535 -0.112542 2.34009e-22)
(0.00299621 -0.114078 -2.79177e-22)
(0.00113922 -0.114708 1.62234e-23)
(9.23407e-05 -0.114822 -3.18486e-23)
(0.0150905 -0.0923993 -1.31061e-21)
(0.0155798 -0.0959584 1.78908e-21)
(0.0139588 -0.101826 -1.77218e-21)
(0.0124441 -0.106585 1.15484e-21)
(0.00980474 -0.110161 -1.4015e-21)
(0.00741845 -0.113365 0)
(0.00487133 -0.115367 -1.39668e-22)
(0.00274095 -0.116804 -5.23299e-24)
(0.00102752 -0.11735 -5.28029e-23)
(6.08526e-05 -0.117457 -1.76408e-23)
(0.0127685 -0.0973106 -6.21741e-22)
(0.0142116 -0.10088 0)
(0.0127095 -0.105457 -1.75118e-21)
(0.0114945 -0.110193 2.73124e-21)
(0.00906805 -0.11329 -9.40975e-22)
(0.00685676 -0.116367 -1.02092e-22)
(0.00449519 -0.118161 1.39349e-22)
(0.00251465 -0.119518 1.76585e-23)
(0.000932359 -0.119995 1.08121e-22)
(3.47936e-05 -0.120116 3.50955e-23)
(0.0105378 -0.101631 -2.50494e-21)
(0.0128702 -0.106183 2.45077e-21)
(0.011599 -0.109113 2.25003e-22)
(0.0106053 -0.113868 0)
(0.00840759 -0.116452 0)
(0.00634773 -0.119409 1.05077e-22)
(0.00416417 -0.120996 2.57237e-22)
(0.00231766 -0.122287 -2.52469e-22)
(0.000855717 -0.122706 -1.92131e-23)
(2.41634e-05 -0.122859 1.88139e-23)
(0.00977685 -0.108769 0)
(0.0129045 -0.118876 0)
(0.0112733 -0.11774 0)
(0.0100965 -0.122742 0)
(0.00794858 -0.124199 0)
(0.00590898 -0.126966 0)
(0.00386874 -0.128094 0)
(0.00215045 -0.12925 0)
(0.000822688 -0.129516 0)
(5.376e-05 -0.129706 0)
(0.0102772 -0.130046 0)
(0.00953202 -0.14154 0)
(0.00797603 -0.137358 0)
(0.00682816 -0.142427 0)
(0.00523823 -0.142086 0)
(0.00388716 -0.144534 0)
(0.00250219 -0.144743 0)
(0.00141274 -0.145691 0)
(0.000541402 -0.145614 0)
(5.38605e-05 -0.145832 0)
(0.0109461 -0.156844 0)
(0.0089877 -0.169374 0)
(0.00729451 -0.162869 0)
(0.00583272 -0.168301 0)
(0.00439745 -0.166415 0)
(0.00317085 -0.168912 0)
(0.00204208 -0.168315 0)
(0.00117256 -0.16929 0)
(0.000480982 -0.168874 0)
(6.47125e-05 -0.169184 0)
(0.0113351 -0.190019 0)
(0.00852414 -0.203477 0)
(0.00683375 -0.195469 0)
(0.00509942 -0.201553 0)
(0.00385125 -0.198442 0)
(0.00266723 -0.201306 0)
(0.00176052 -0.199999 0)
(0.00100974 -0.201197 0)
(0.000452391 -0.200426 0)
(6.50986e-05 -0.200909 0)
(0.0113493 -0.229593 0)
(0.00811673 -0.243154 0)
(0.00649117 -0.234813 0)
(0.00455445 -0.241418 0)
(0.00348414 -0.237618 0)
(0.00228436 -0.240938 0)
(0.00156855 -0.239114 0)
(0.000860272 -0.240636 0)
(0.000423047 -0.239544 0)
(4.75925e-05 -0.240269 0)
(0.0107098 -0.27319 0)
(0.00747275 -0.285459 0)
(0.00598492 -0.27824 0)
(0.00400836 -0.284717 0)
(0.00311051 -0.281032 0)
(0.00191605 -0.284531 0)
(0.00136251 -0.282558 0)
(0.000669058 -0.284292 0)
(0.000352378 -0.283033 0)
(7.94718e-06 -0.283962 0)
(0.00927536 -0.316043 0)
(0.00640202 -0.325797 0)
(0.0051279 -0.320911 0)
(0.00333085 -0.326417 0)
(0.00260254 -0.323662 0)
(0.00150463 -0.326803 0)
(0.00108129 -0.325144 0)
(0.000433643 -0.326776 0)
(0.000232843 -0.325611 0)
(-3.856e-05 -0.326561 0)
(0.00712539 -0.352587 0)
(0.00488853 -0.359407 0)
(0.0039076 -0.357286 0)
(0.00248923 -0.3613 0)
(0.0019423 -0.359909 0)
(0.00105728 -0.362245 0)
(0.000745882 -0.361221 0)
(0.000213256 -0.362433 0)
(0.000108349 -0.361591 0)
(-6.54399e-05 -0.362331 0)
(0.00446356 -0.378543 0)
(0.00304609 -0.382942 0)
(0.00243203 -0.383128 0)
(0.0015299 -0.385729 0)
(0.00118994 -0.385586 0)
(0.000615429 -0.387049 0)
(0.000419647 -0.386679 0)
(6.81069e-05 -0.387375 0)
(2.62176e-05 -0.386912 0)
(-5.91775e-05 -0.387334 0)
(0.0015199 -0.391818 0)
(0.00102896 -0.394905 0)
(0.000824935 -0.396357 0)
(0.000513758 -0.398133 0)
(0.00040053 -0.398706 0)
(0.000200144 -0.399627 0)
(0.000133395 -0.399654 0)
(9.35657e-06 -0.400015 0)
(-4.47221e-08 -0.399802 0)
(-2.37763e-05 -0.400005 0)
(0.0101119 -0.117101 2.87362e-21)
(0.0116315 -0.13989 -2.819e-21)
(0.0127744 -0.168045 3.60958e-22)
(0.0133088 -0.201759 0)
(0.0132488 -0.240617 0)
(0.0123857 -0.282042 4.20404e-22)
(0.0106644 -0.321686 -1.81021e-21)
(0.0081874 -0.354866 1.78392e-21)
(0.00514258 -0.378171 4.84741e-22)
(0.00175035 -0.390027 -4.77068e-22)
(0.0104705 -0.1216 -3.41046e-21)
(0.0123957 -0.144389 0)
(0.013651 -0.172578 2.47426e-21)
(0.0142042 -0.206139 -5.71783e-21)
(0.0140851 -0.244481 3.67592e-21)
(0.0131168 -0.284968 -3.91856e-22)
(0.0112731 -0.323398 8.75042e-22)
(0.00865716 -0.355383 1.85031e-21)
(0.00544544 -0.377775 5.212e-22)
(0.00185039 -0.389147 5.06026e-22)
(0.01104 -0.126226 3.96827e-21)
(0.0134143 -0.149067 -2.71725e-21)
(0.0147199 -0.177132 2.69145e-21)
(0.0152565 -0.210386 -3.02679e-21)
(0.0150461 -0.248091 2.23726e-21)
(0.013943 -0.287568 0)
(0.011945 -0.324785 -8.77153e-22)
(0.00915873 -0.35563 4.44662e-23)
(0.00575743 -0.377187 -9.71697e-22)
(0.00194806 -0.388125 -9.92487e-22)
(0.0118687 -0.130403 -6.39265e-22)
(0.0146401 -0.153342 0)
(0.0159588 -0.18132 0)
(0.0164579 -0.214294 0)
(0.0161368 -0.251392 2.49739e-21)
(0.014881 -0.289907 -1.67165e-21)
(0.0127037 -0.325971 -1.28666e-23)
(0.00971625 -0.355727 -1.03752e-21)
(0.00609745 -0.376479 -5.32943e-22)
(0.00205208 -0.386992 -5.71109e-22)
(0.013021 -0.134228 5.48737e-23)
(0.0160667 -0.157107 -1.91894e-21)
(0.0173562 -0.184949 -1.46715e-21)
(0.0177962 -0.217646 1.46621e-21)
(0.0173486 -0.254184 -8.14446e-22)
(0.0159289 -0.291833 0)
(0.0135563 -0.326862 -9.63598e-22)
(0.0103441 -0.355635 2.11528e-21)
(0.0064808 -0.375649 -1.0829e-21)
(0.00217061 -0.385764 1.11702e-21)
(0.0145281 -0.137748 -5.07915e-21)
(0.017714 -0.160404 5.48247e-22)
(0.0189292 -0.188006 -1.12068e-22)
(0.0192797 -0.220385 1.50453e-21)
(0.018685 -0.256379 0)
(0.0170869 -0.293245 0)
(0.0145027 -0.327368 0)
(0.0110448 -0.35529 1.13366e-21)
(0.00691179 -0.374665 0)
(0.00230706 -0.384437 0)
(0.0164013 -0.140874 0)
(0.0195951 -0.163203 2.0916e-21)
(0.0206986 -0.190483 -1.41495e-21)
(0.0209253 -0.222511 -1.69705e-21)
(0.0201598 -0.257975 1.70587e-21)
(0.0183631 -0.29413 1.02836e-21)
(0.0155461 -0.327464 -1.01888e-21)
(0.0118188 -0.354665 -4.04955e-21)
(0.00738983 -0.373509 2.88245e-22)
(0.00246208 -0.383001 -9.89436e-22)
(0.0186507 -0.143505 0)
(0.0217158 -0.165435 -6.78248e-22)
(0.0226779 -0.192342 -3.83903e-22)
(0.0227457 -0.224012 0)
(0.0217865 -0.258977 5.00508e-22)
(0.0197685 -0.294501 -1.50719e-21)
(0.0166935 -0.327159 1.68925e-21)
(0.012669 -0.35376 6.04548e-22)
(0.00791515 -0.372174 -6.62036e-22)
(0.00263613 -0.381447 1.31249e-21)
(0.0212876 -0.145564 6.03692e-22)
(0.0240817 -0.16705 7.35319e-22)
(0.0248764 -0.193542 -1.61295e-22)
(0.0247491 -0.224866 2.20955e-22)
(0.0235749 -0.259379 4.73395e-22)
(0.0213125 -0.294365 7.99856e-22)
(0.0179526 -0.326466 -3.02226e-22)
(0.0136005 -0.352583 -3.27444e-22)
(0.00849003 -0.370659 6.64216e-22)
(0.0028303 -0.379768 3.60346e-22)
(0.0243219 -0.146989 -1.68442e-22)
(0.0266981 -0.168021 1.70069e-22)
(0.0273023 -0.194056 -1.97317e-22)
(0.0269416 -0.225055 -2.20662e-22)
(0.0255327 -0.259172 2.64937e-22)
(0.0230022 -0.293721 -5.4179e-22)
(0.0193303 -0.325385 4.62711e-22)
(0.0146192 -0.351138 1.65991e-22)
(0.00911791 -0.368964 0)
(0.00304598 -0.377961 -3.61155e-22)
(0.0277607 -0.147738 1.72142e-22)
(0.0295678 -0.168342 -1.73853e-22)
(0.0299631 -0.193876 -2.11334e-22)
(0.0293283 -0.224583 -2.3831e-22)
(0.0276662 -0.258358 -2.76539e-22)
(0.0248436 -0.292574 -2.04506e-23)
(0.0208323 -0.323922 1.62902e-22)
(0.0157299 -0.349425 5.27771e-22)
(0.00980189 -0.367088 0)
(0.00328423 -0.376023 -3.9454e-22)
(0.0316092 -0.147797 0)
(0.0326914 -0.16801 -8.04816e-22)
(0.032863 -0.193009 1.46151e-21)
(0.0319125 -0.223454 2.38705e-22)
(0.0299817 -0.256943 5.59231e-22)
(0.0268427 -0.290925 9.2492e-22)
(0.0224653 -0.322074 -3.30496e-22)
(0.0169385 -0.347442 -3.58216e-22)
(0.0105456 -0.365027 7.94165e-22)
(0.00354597 -0.373949 3.93624e-22)
(0.0358702 -0.147199 0)
(0.0360691 -0.16702 -7.87875e-22)
(0.0360017 -0.191493 -4.40224e-22)
(0.0346968 -0.221691 0)
(0.0324831 -0.254953 -1.76642e-21)
(0.0290035 -0.288794 5.88929e-22)
(0.024232 -0.319858 7.09408e-22)
(0.0182472 -0.34519 2.29897e-21)
(0.0113508 -0.362776 -7.91584e-22)
(0.00383107 -0.371729 1.71085e-21)
(0.0405387 -0.146074 0)
(0.0397026 -0.165342 7.94561e-22)
(0.0393709 -0.189373 0)
(0.0376847 -0.219303 2.24121e-21)
(0.0351735 -0.252398 -2.25272e-21)
(0.0313318 -0.286182 -1.39808e-21)
(0.0261428 -0.317268 -3.44823e-23)
(0.0196662 -0.342659 -2.36738e-21)
(0.0122219 -0.360328 -3.9461e-22)
(0.00414053 -0.369353 -2.12805e-21)
(0.0455652 -0.144427 5.65906e-21)
(0.0436189 -0.163008 -2.17281e-21)
(0.0429496 -0.186674 2.59876e-22)
(0.0408803 -0.216316 -2.0695e-21)
(0.0380519 -0.249301 0)
(0.0338306 -0.283109 -1.45862e-21)
(0.0281985 -0.314319 -1.28571e-22)
(0.0211958 -0.339877 3.21543e-21)
(0.0131601 -0.357698 4.42102e-22)
(0.00447377 -0.366829 -4.43826e-22)
(0.0509154 -0.142214 -6.31821e-22)
(0.0478071 -0.160141 4.09142e-21)
(0.046728 -0.183447 2.15208e-21)
(0.04428 -0.212792 -2.15064e-21)
(0.0411176 -0.245696 -1.31773e-21)
(0.0365029 -0.27959 0)
(0.0304041 -0.31101 -3.28131e-21)
(0.022843 -0.33683 1.64585e-21)
(0.014173 -0.354875 1.76308e-21)
(0.00483248 -0.364147 1.89658e-21)
(0.0565202 -0.139548 -7.76194e-22)
(0.0522569 -0.156778 0)
(0.0506928 -0.179747 0)
(0.0478763 -0.208791 0)
(0.0443672 -0.241654 -1.53413e-21)
(0.0393453 -0.275704 2.8469e-21)
(0.0327516 -0.307421 3.34364e-21)
(0.0245965 -0.333575 -5.27619e-21)
(0.0152507 -0.351889 9.46882e-22)
(0.00521096 -0.361319 -2.81689e-21)
(0.0622753 -0.136573 -1.12662e-21)
(0.0569601 -0.152955 4.0704e-21)
(0.0548224 -0.175614 -4.03163e-21)
(0.051658 -0.204306 5.30544e-21)
(0.0478022 -0.237095 -6.68003e-21)
(0.0423752 -0.271309 0)
(0.0352756 -0.303386 -1.74844e-21)
(0.0264991 -0.329978 -7.35606e-23)
(0.0164284 -0.348663 -1.96946e-21)
(0.0056218 -0.358293 -2.00871e-21)
(0.068046 -0.133472 -8.2214e-22)
(0.0619226 -0.148827 0)
(0.0590901 -0.171275 -5.44365e-21)
(0.0555818 -0.199707 1.03312e-20)
(0.0513624 -0.232548 -4.01536e-21)
(0.0455047 -0.267025 -8.23257e-22)
(0.037861 -0.299482 1.74461e-21)
(0.0284299 -0.326443 -9.10623e-23)
(0.0176155 -0.345404 2.87291e-21)
(0.00602694 -0.35518 2.97266e-21)
(0.0739994 -0.129138 -3.74001e-21)
(0.067722 -0.143267 3.66727e-21)
(0.0639153 -0.165321 5.79406e-22)
(0.0599819 -0.193317 0)
(0.0553756 -0.226106 0)
(0.0491022 -0.260959 8.14765e-22)
(0.040911 -0.294155 3.7654e-21)
(0.0307656 -0.32197 -3.68679e-21)
(0.0190783 -0.341613 -1.0135e-21)
(0.0065278 -0.35169 9.96672e-22)
(0.0840272 -0.128842 0)
(0.0809033 -0.140828 0)
(0.074458 -0.163263 0)
(0.0693067 -0.190805 0)
(0.063466 -0.222832 0)
(0.0558882 -0.256557 0)
(0.0463089 -0.288471 0)
(0.0346963 -0.315142 0)
(0.0214694 -0.334092 0)
(0.00726521 -0.344021 0)
(0.101131 -0.118331 0)
(0.102865 -0.134387 0)
(0.0930997 -0.158915 0)
(0.0868262 -0.18592 0)
(0.0787418 -0.216691 0)
(0.0687729 -0.248365 0)
(0.0566034 -0.277912 0)
(0.0422118 -0.302244 0)
(0.0260741 -0.319044 0)
(0.00895934 -0.327187 0)
(0.122256 -0.108179 0)
(0.12618 -0.126365 0)
(0.113313 -0.15106 0)
(0.106258 -0.176726 0)
(0.0953721 -0.205717 0)
(0.0825982 -0.234817 0)
(0.0673535 -0.26189 0)
(0.0498298 -0.284461 0)
(0.0305687 -0.300761 0)
(0.0101557 -0.309802 0)
(0.148359 -0.100857 0)
(0.152828 -0.119475 0)
(0.136554 -0.143113 0)
(0.128671 -0.167365 0)
(0.114311 -0.194622 0)
(0.0985134 -0.221152 0)
(0.0797566 -0.245756 0)
(0.0586757 -0.265888 0)
(0.0359234 -0.27955 0)
(0.0124533 -0.28541 0)
(0.17887 -0.0920292 0)
(0.181742 -0.109103 0)
(0.161798 -0.130347 0)
(0.152324 -0.152084 0)
(0.133283 -0.176176 0)
(0.113837 -0.199075 0)
(0.0907969 -0.22084 0)
(0.0659067 -0.239304 0)
(0.0397519 -0.253593 0)
(0.0125892 -0.263312 0)
(0.213221 -0.084783 0)
(0.21377 -0.0997156 0)
(0.190274 -0.119173 0)
(0.178746 -0.138449 0)
(0.154435 -0.159712 0)
(0.131727 -0.179855 0)
(0.10425 -0.199697 0)
(0.0753687 -0.216153 0)
(0.0454929 -0.227465 0)
(0.0167099 -0.229733 0)
(0.249225 -0.0705921 0)
(0.243819 -0.0821335 0)
(0.217499 -0.0979745 0)
(0.201863 -0.112607 0)
(0.171562 -0.129194 0)
(0.144781 -0.144887 0)
(0.11094 -0.160863 0)
(0.0773877 -0.175154 0)
(0.0439619 -0.18974 0)
(0.0101584 -0.20798 0)
(0.283388 -0.0620676 0)
(0.274426 -0.069699 0)
(0.247016 -0.0829801 0)
(0.227552 -0.0941057 0)
(0.194548 -0.108856 0)
(0.165094 -0.122818 0)
(0.127626 -0.138843 0)
(0.0908535 -0.154142 0)
(0.0530645 -0.169171 0)
(0.0277471 -0.164009 0)
(0.321857 -0.0349252 0)
(0.310139 -0.0382493 0)
(0.268743 -0.0462356 0)
(0.243253 -0.0515673 0)
(0.197579 -0.0602338 0)
(0.159333 -0.0671727 0)
(0.107916 -0.0758047 0)
(0.0577287 -0.0844376 0)
(0.0117861 -0.102819 0)
(-0.0432568 -0.154666 0)
(0.600544 -0.0184404 0)
(0.581503 -0.0213839 0)
(0.542888 -0.025613 0)
(0.512922 -0.0297887 0)
(0.465572 -0.035818 0)
(0.422203 -0.0427796 0)
(0.361393 -0.0531458 0)
(0.294826 -0.0689608 0)
(0.207443 -0.0985824 0)
(0.14981 -0.157379 0)
(0.0999016 -0.115919 3.81476e-21)
(0.119042 -0.105288 -3.75617e-21)
(0.140475 -0.0954375 6.32941e-22)
(0.166038 -0.0882983 0)
(0.196628 -0.0800446 0)
(0.229712 -0.0735819 9.96667e-22)
(0.265411 -0.0610388 -4.78672e-21)
(0.298072 -0.0544096 4.7173e-21)
(0.348122 -0.0303932 1.35081e-21)
(0.621199 -0.0161825 -1.37343e-21)
(0.105493 -0.11026 -3.49917e-21)
(0.124542 -0.0996126 0)
(0.145711 -0.0901384 4.5781e-21)
(0.170965 -0.083206 -1.11317e-20)
(0.201538 -0.0752669 7.55239e-21)
(0.2346 -0.0691819 -9.3699e-22)
(0.270322 -0.0572526 2.03388e-21)
(0.303316 -0.0513845 4.6348e-21)
(0.357835 -0.0286325 1.24782e-21)
(0.629353 -0.0152249 1.28251e-21)
(0.110342 -0.104055 4.02522e-21)
(0.129278 -0.0936747 -4.21077e-21)
(0.150056 -0.0847422 4.17088e-21)
(0.175126 -0.0780824 -5.93162e-21)
(0.205444 -0.0705462 4.29097e-21)
(0.238625 -0.0649144 0)
(0.274243 -0.0536534 -2.03874e-21)
(0.308119 -0.0485297 -5.32464e-23)
(0.366451 -0.0270266 -2.3644e-21)
(0.637145 -0.0143083 -2.53942e-21)
(0.114963 -0.0974404 -6.90741e-22)
(0.134132 -0.0875785 0)
(0.154605 -0.0792946 0)
(0.179574 -0.0729447 0)
(0.209596 -0.0658681 4.89626e-21)
(0.242838 -0.0607496 -3.34232e-21)
(0.278159 -0.0502165 -1.46488e-22)
(0.312995 -0.0457804 -2.3563e-21)
(0.374485 -0.0255668 -1.19624e-21)
(0.644732 -0.0134752 -1.23666e-21)
(0.119072 -0.0905154 7.4701e-22)
(0.138651 -0.0814091 -2.20808e-21)
(0.158937 -0.0738362 -2.39121e-21)
(0.183821 -0.0678441 2.38971e-21)
(0.213677 -0.0612675 -1.53174e-21)
(0.246986 -0.0566727 0)
(0.281988 -0.0469262 -1.97257e-21)
(0.317802 -0.0431135 4.44587e-21)
(0.382063 -0.0242255 -2.2308e-21)
(0.652015 -0.0127374 2.45638e-21)
(0.12252 -0.0833085 -5.18599e-21)
(0.142574 -0.0751903 2.05199e-22)
(0.162742 -0.068374 -4.07805e-22)
(0.187518 -0.0628027 2.33027e-21)
(0.217271 -0.0567695 0)
(0.250672 -0.0526989 0)
(0.285499 -0.0437786 0)
(0.322226 -0.0405382 2.11089e-21)
(0.389113 -0.0229884 0)
(0.658882 -0.0120887 0)
(0.125232 -0.0758487 0)
(0.145854 -0.0689216 2.67691e-21)
(0.165976 -0.0628994 -1.86456e-21)
(0.190623 -0.0578145 -2.68589e-21)
(0.220272 -0.0523663 2.69984e-21)
(0.253754 -0.0488368 1.77301e-21)
(0.288565 -0.0407633 -1.66229e-21)
(0.326113 -0.0380665 -7.25082e-21)
(0.395501 -0.0218502 5.11806e-22)