/*--------------------------------*- C++ -*----------------------------------*\
  =========                 |
  \\      /  F ield         | OpenFOAM: The Open Source CFD Toolbox
   \\    /   O peration     | Website:  https://openfoam.org
    \\  /    A nd           | Version:  7
     \\/     M anipulation  |
\*---------------------------------------------------------------------------*/
FoamFile
{
    version     2.0;
    format      ascii;
    class       volScalarField;
    location    "2.7";
    object      p;
}
// * * * * * * * * * * * * * * * * * * * * * * * * * * * * * * * * * * * * * //

dimensions      [0 2 -2 0 0 0 0];

internalField   nonuniform List<scalar> 
32000
(
1.08402
1.08302
1.08316
1.08358
1.08431
1.08527
1.0864
1.08764
1.08896
1.09034
1.09177
1.09326
1.09485
1.09655
1.09839
1.10037
1.10248
1.10472
1.10706
1.1095
1.112
1.11457
1.1172
1.11986
1.12255
1.12524
1.12791
1.13054
1.13313
1.13565
1.1381
1.14046
1.14274
1.14493
1.14703
1.14903
1.15094
1.15277
1.15451
1.156
1.08115
1.08031
1.08051
1.08096
1.08171
1.08267
1.08376
1.08494
1.08619
1.08748
1.0888
1.09016
1.0916
1.09315
1.09483
1.09665
1.09861
1.1007
1.10291
1.10521
1.1076
1.11007
1.1126
1.11519
1.11782
1.12047
1.12311
1.12572
1.12829
1.13081
1.13325
1.13561
1.13789
1.14008
1.14217
1.14417
1.14607
1.14789
1.14961
1.15109
1.07819
1.07755
1.07781
1.0783
1.07907
1.08002
1.08109
1.08221
1.08338
1.08457
1.08577
1.087
1.08829
1.08968
1.0912
1.09286
1.09466
1.0966
1.09866
1.10083
1.1031
1.10547
1.10791
1.11043
1.113
1.11561
1.11822
1.12081
1.12337
1.12587
1.12831
1.13068
1.13295
1.13514
1.13723
1.13923
1.14113
1.14293
1.14465
1.14612
1.0752
1.07473
1.07505
1.07559
1.07638
1.07733
1.07837
1.07944
1.08052
1.08161
1.08269
1.08378
1.08493
1.08616
1.08752
1.08901
1.09064
1.09242
1.09433
1.09637
1.09853
1.10079
1.10314
1.10559
1.1081
1.11067
1.11325
1.11582
1.11837
1.12086
1.1233
1.12566
1.12794
1.13013
1.13223
1.13422
1.13611
1.13791
1.13962
1.14109
1.07219
1.0719
1.07228
1.07287
1.07368
1.07463
1.07563
1.07664
1.07764
1.07862
1.07958
1.08053
1.08153
1.0826
1.08379
1.0851
1.08657
1.08819
1.08995
1.09186
1.09389
1.09604
1.09831
1.10068
1.10314
1.10567
1.10822
1.11077
1.1133
1.11579
1.11822
1.12059
1.12287
1.12506
1.12716
1.12915
1.13104
1.13283
1.13453
1.136
1.06916
1.06905
1.06948
1.07012
1.07095
1.07189
1.07286
1.07381
1.07473
1.07561
1.07644
1.07726
1.0781
1.07901
1.08003
1.08118
1.08247
1.08393
1.08554
1.08731
1.08921
1.09126
1.09344
1.09574
1.09815
1.10063
1.10314
1.10567
1.10819
1.11067
1.1131
1.11546
1.11775
1.11995
1.12205
1.12404
1.12592
1.12771
1.1294
1.13086
1.06611
1.06618
1.06667
1.06736
1.06821
1.06914
1.07009
1.07099
1.07182
1.07259
1.0733
1.07398
1.07467
1.07542
1.07627
1.07724
1.07837
1.07966
1.08111
1.08273
1.08451
1.08645
1.08855
1.09078
1.09313
1.09556
1.09804
1.10055
1.10304
1.10552
1.10794
1.11031
1.1126
1.1148
1.1169
1.11889
1.12077
1.12254
1.12422
1.12568
1.06306
1.06332
1.06387
1.0646
1.06547
1.06641
1.06732
1.06816
1.06892
1.06958
1.07017
1.07071
1.07125
1.07184
1.07251
1.07332
1.07427
1.0754
1.07669
1.07817
1.07982
1.08165
1.08366
1.08582
1.08811
1.09049
1.09294
1.09541
1.09789
1.10035
1.10278
1.10514
1.10744
1.10964
1.11173
1.11372
1.11559
1.11735
1.11902
1.12047
1.06002
1.06046
1.06107
1.06185
1.06275
1.06368
1.06457
1.06536
1.06603
1.06659
1.06706
1.06746
1.06785
1.06828
1.06879
1.06942
1.0702
1.07116
1.0723
1.07363
1.07515
1.07688
1.0788
1.08088
1.08311
1.08544
1.08785
1.09029
1.09275
1.0952
1.09762
1.09998
1.10227
1.10446
1.10656
1.10853
1.11039
1.11214
1.11379
1.11523
1.057
1.05762
1.05829
1.05912
1.06004
1.06097
1.06183
1.06257
1.06317
1.06363
1.06398
1.06425
1.06449
1.06476
1.0651
1.06557
1.06618
1.06697
1.06795
1.06913
1.07053
1.07215
1.07398
1.07599
1.07815
1.08043
1.08279
1.0852
1.08764
1.09007
1.09248
1.09483
1.09711
1.0993
1.10138
1.10335
1.1052
1.10693
1.10856
1.10999
1.054
1.0548
1.05553
1.05641
1.05735
1.05828
1.05912
1.05981
1.06035
1.06072
1.06095
1.06109
1.06118
1.0613
1.06148
1.06178
1.06223
1.06285
1.06366
1.0647
1.06598
1.06749
1.06923
1.07115
1.07325
1.07547
1.07778
1.08016
1.08257
1.08498
1.08737
1.08971
1.09198
1.09416
1.09622
1.09818
1.10001
1.10172
1.10333
1.10474
1.05104
1.05201
1.05279
1.05372
1.05469
1.05562
1.05644
1.05709
1.05756
1.05785
1.05797
1.05798
1.05794
1.0579
1.05793
1.05807
1.05835
1.0588
1.05946
1.06036
1.06151
1.06291
1.06455
1.0664
1.06842
1.07058
1.07284
1.07518
1.07756
1.07995
1.08232
1.08464
1.08689
1.08905
1.0911
1.09303
1.09484
1.09652
1.0981
1.09949
1.04811
1.04924
1.05008
1.05106
1.05205
1.05299
1.05379
1.05442
1.05483
1.05503
1.05506
1.05495
1.05477
1.05459
1.05447
1.05444
1.05456
1.05485
1.05536
1.05612
1.05715
1.05844
1.05998
1.06173
1.06368
1.06578
1.06799
1.07029
1.07263
1.07499
1.07734
1.07963
1.08185
1.08399
1.08601
1.08792
1.0897
1.09135
1.0929
1.09426
1.04522
1.04651
1.04741
1.04843
1.04944
1.05039
1.05119
1.05178
1.05215
1.05228
1.0522
1.05198
1.05168
1.05136
1.05109
1.05092
1.05088
1.05101
1.05137
1.05199
1.0529
1.05407
1.05551
1.05718
1.05905
1.06108
1.06324
1.06549
1.0678
1.07012
1.07243
1.07469
1.07688
1.07898
1.08098
1.08286
1.08461
1.08622
1.08773
1.08905
1.04238
1.04381
1.04476
1.04583
1.04687
1.04783
1.04863
1.0492
1.04952
1.04958
1.04943
1.0491
1.04868
1.04823
1.04782
1.0475
1.04731
1.04729
1.04751
1.04799
1.04877
1.04983
1.05117
1.05275
1.05453
1.0565
1.0586
1.0608
1.06306
1.06534
1.06761
1.06983
1.07199
1.07405
1.07601
1.07785
1.07956
1.08112
1.08258
1.08388
1.03958
1.04114
1.04215
1.04326
1.04433
1.04531
1.04611
1.04666
1.04695
1.04696
1.04672
1.0463
1.04577
1.0452
1.04466
1.04419
1.04385
1.04369
1.04377
1.04413
1.04478
1.04573
1.04696
1.04844
1.05015
1.05204
1.05408
1.05623
1.05844
1.06067
1.06289
1.06507
1.06717
1.0692
1.07111
1.07291
1.07456
1.07608
1.07748
1.07873
1.03683
1.0385
1.03956
1.04073
1.04183
1.04283
1.04363
1.04418
1.04443
1.04439
1.04409
1.04359
1.04295
1.04227
1.0416
1.041
1.04052
1.04023
1.04017
1.0404
1.04092
1.04176
1.04288
1.04427
1.04589
1.04771
1.04969
1.05178
1.05393
1.05611
1.05827
1.0604
1.06245
1.06443
1.06629
1.06803
1.06963
1.07108
1.07243
1.07363
1.03413
1.0359
1.03701
1.03822
1.03936
1.04038
1.0412
1.04174
1.04198
1.0419
1.04154
1.04096
1.04023
1.03943
1.03864
1.03792
1.03731
1.03689
1.0367
1.0368
1.03721
1.03793
1.03894
1.04024
1.04178
1.04353
1.04543
1.04745
1.04954
1.05165
1.05376
1.05583
1.05783
1.05974
1.06155
1.06323
1.06477
1.06615
1.06743
1.06858
1.03147
1.03332
1.03448
1.03574
1.03692
1.03797
1.03881
1.03935
1.03957
1.03946
1.03905
1.03841
1.03759
1.0367
1.03579
1.03495
1.03422
1.03367
1.03336
1.03334
1.03363
1.03423
1.03515
1.03635
1.0378
1.03947
1.0413
1.04325
1.04527
1.04732
1.04936
1.05136
1.0533
1.05515
1.05689
1.0585
1.05997
1.06129
1.06249
1.06358
1.02885
1.03077
1.03198
1.03329
1.03451
1.03559
1.03645
1.037
1.03721
1.03708
1.03663
1.03593
1.03504
1.03404
1.03303
1.03208
1.03123
1.03057
1.03015
1.03001
1.03018
1.03067
1.03148
1.03259
1.03396
1.03555
1.03731
1.03918
1.04113
1.0431
1.04507
1.04701
1.04887
1.05065
1.05232
1.05386
1.05525
1.05649
1.05762
1.05864
1.02627
1.02825
1.0295
1.03086
1.03212
1.03324
1.03412
1.03468
1.03489
1.03475
1.03427
1.03351
1.03255
1.03147
1.03037
1.0293
1.02835
1.02758
1.02704
1.02679
1.02685
1.02724
1.02795
1.02897
1.03026
1.03177
1.03344
1.03523
1.0371
1.039
1.04089
1.04275
1.04454
1.04624
1.04784
1.04929
1.0506
1.05176
1.05281
1.05377
1.02372
1.02574
1.02704
1.02845
1.02976
1.03091
1.03181
1.03239
1.03261
1.03246
1.03195
1.03115
1.03013
1.02897
1.02777
1.02661
1.02556
1.02469
1.02404
1.02368
1.02364
1.02393
1.02454
1.02547
1.02668
1.0281
1.02969
1.0314
1.03319
1.03501
1.03682
1.0386
1.04031
1.04193
1.04344
1.04481
1.04603
1.0471
1.04807
1.04896
1.02119
1.02325
1.02458
1.02604
1.0274
1.02859
1.02953
1.03013
1.03035
1.0302
1.02967
1.02883
1.02776
1.02653
1.02525
1.02399
1.02285
1.02188
1.02114
1.02068
1.02053
1.02072
1.02125
1.02209
1.02321
1.02455
1.02606
1.02769
1.02939
1.03112
1.03285
1.03454
1.03616
1.0377
1.03912
1.04041
1.04154
1.04252
1.0434
1.04422
1.01869
1.02076
1.02214
1.02365
1.02505
1.02628
1.02725
1.02787
1.02811
1.02795
1.02742
1.02655
1.02542
1.02413
1.02277
1.02143
1.0202
1.01914
1.01831
1.01776
1.01752
1.01762
1.01806
1.01882
1.01985
1.0211
1.02253
1.02407
1.02569
1.02733
1.02897
1.03057
1.03211
1.03355
1.03489
1.03609
1.03713
1.03802
1.03881
1.03955
1.01621
1.01828
1.0197
1.02125
1.0227
1.02398
1.02498
1.02563
1.02588
1.02572
1.02517
1.02427
1.0231
1.02176
1.02033
1.01891
1.0176
1.01646
1.01555
1.01492
1.01459
1.01461
1.01496
1.01563
1.01658
1.01775
1.01909
1.02055
1.02208
1.02364
1.02519
1.02669
1.02814
1.02949
1.03073
1.03184
1.0328
1.0336
1.0343
1.03497
1.01373
1.01581
1.01725
1.01885
1.02035
1.02167
1.0227
1.02338
1.02364
1.02349
1.02293
1.02201
1.0208
1.0194
1.01791
1.01642
1.01504
1.01382
1.01284
1.01213
1.01173
1.01167
1.01194
1.01253
1.0134
1.01449
1.01574
1.01711
1.01855
1.02002
1.02148
1.02289
1.02424
1.02551
1.02666
1.02768
1.02855
1.02926
1.02987
1.03046
1.01126
1.01332
1.01479
1.01643
1.01798
1.01934
1.02041
1.02111
1.02139
1.02124
1.02068
1.01973
1.01849
1.01704
1.01549
1.01394
1.0125
1.01122
1.01017
1.0094
1.00893
1.00879
1.00899
1.0095
1.01029
1.01129
1.01246
1.01375
1.0151
1.01648
1.01784
1.01916
1.02042
1.0216
1.02266
1.02359
1.02438
1.02501
1.02553
1.02605
1.00878
1.01083
1.01232
1.014
1.01559
1.017
1.0181
1.01882
1.01912
1.01898
1.0184
1.01744
1.01616
1.01467
1.01307
1.01147
1.00996
1.00863
1.00753
1.00669
1.00616
1.00596
1.00609
1.00653
1.00723
1.00816
1.00925
1.01045
1.01171
1.01299
1.01427
1.0155
1.01667
1.01776
1.01873
1.01958
1.02029
1.02084
1.02129
1.02174
1.00629
1.00831
1.00983
1.01154
1.01318
1.01462
1.01576
1.01651
1.01682
1.01667
1.01609
1.01511
1.0138
1.01227
1.01062
1.00897
1.00742
1.00605
1.0049
1.00401
1.00343
1.00316
1.00323
1.0036
1.00423
1.00507
1.00608
1.00719
1.00837
1.00956
1.01075
1.01189
1.01297
1.01398
1.01487
1.01564
1.01627
1.01676
1.01714
1.01753
1.00377
1.00577
1.0073
1.00905
1.01073
1.01221
1.01338
1.01415
1.01447
1.01433
1.01373
1.01273
1.0114
1.00983
1.00814
1.00646
1.00487
1.00346
1.00227
1.00134
1.00071
1.00039
1.0004
1.0007
1.00126
1.00202
1.00295
1.00398
1.00506
1.00617
1.00727
1.00833
1.00933
1.01025
1.01107
1.01177
1.01233
1.01276
1.01308
1.01343
1.00122
1.0032
1.00475
1.00653
1.00824
1.00976
1.01096
1.01175
1.01207
1.01193
1.01132
1.0103
1.00894
1.00734
1.00563
1.00391
1.00229
1.00085
0.999633
0.99867
0.997999
0.997639
0.99759
0.997828
0.998313
0.999001
0.999841
1.00078
1.00179
1.00281
1.00382
1.0048
1.00572
1.00657
1.00732
1.00796
1.00847
1.00884
1.00912
1.00943
0.998636
1.00059
1.00215
1.00395
1.0057
1.00726
1.00848
1.00929
1.00962
1.00946
1.00884
1.00781
1.00642
1.0048
1.00306
1.00132
0.999685
0.998223
0.99698
0.995991
0.995287
0.994888
0.994789
0.994966
0.995381
0.995992
0.99675
0.997609
0.998526
0.999464
1.00039
1.00129
1.00214
1.00292
1.00361
1.0042
1.00467
1.00501
1.00526
1.00555
0.996002
0.997932
0.999504
1.00133
1.00311
1.0047
1.00595
1.00676
1.00709
1.00693
1.0063
1.00524
1.00384
1.00219
1.00043
0.998683
0.997037
0.995563
0.994304
0.993296
0.992566
0.992131
0.991986
0.992105
0.992453
0.992987
0.993664
0.994438
0.995271
0.996126
0.996974
0.997796
0.998575
0.999292
0.999932
1.00048
1.00092
1.00125
1.00149
1.00178
0.993312
0.995224
0.996807
0.998658
1.00047
1.00208
1.00334
1.00417
1.0045
1.00433
1.00368
1.0026
1.00118
0.999519
0.997751
0.995995
0.994346
0.992867
0.9916
0.990578
0.989827
0.989362
0.989173
0.989237
0.989518
0.989977
0.990572
0.991263
0.992011
0.992783
0.993553
0.994302
0.995013
0.995674
0.99627
0.996789
0.99722
0.997548
0.997809
0.998126
0.99056
0.99246
0.994054
0.995926
0.997758
0.999389
1.00067
1.0015
1.00183
1.00164
1.00098
0.999881
0.998442
0.996775
0.995005
0.993252
0.991607
0.99013
0.988862
0.987832
0.987065
0.986572
0.986342
0.986353
0.986568
0.986953
0.987468
0.988074
0.988736
0.989426
0.990117
0.990793
0.991441
0.992049
0.992608
0.993108
0.993541
0.993893
0.994197
0.994575
0.98774
0.989636
0.991241
0.993134
0.994986
0.996632
0.997921
0.998751
0.999072
0.998875
0.99819
0.997078
0.995629
0.993958
0.992193
0.990451
0.988818
0.98735
0.986086
0.985053
0.984274
0.983755
0.983488
0.983446
0.983597
0.983908
0.984342
0.984863
0.985439
0.986044
0.986655
0.987258
0.987841
0.988398
0.988924
0.989413
0.98986
0.990252
0.990628
0.991109
0.984848
0.986749
0.988367
0.990278
0.992147
0.993803
0.995096
0.995923
0.996232
0.996019
0.995317
0.994191
0.992735
0.991068
0.989316
0.987591
0.985977
0.984525
0.98327
0.982238
0.98145
0.980909
0.980604
0.98051
0.980598
0.980835
0.981188
0.981623
0.982111
0.982628
0.983157
0.983682
0.984197
0.984701
0.985192
0.985671
0.986138
0.986586
0.987059
0.987689
0.981879
0.983795
0.985427
0.987356
0.989237
0.990899
0.992191
0.99301
0.993305
0.993075
0.992357
0.991221
0.989764
0.988106
0.986374
0.984674
0.983084
0.981653
0.980412
0.979386
0.97859
0.978029
0.977687
0.977541
0.977565
0.977729
0.978
0.978347
0.978745
0.979172
0.979612
0.980053
0.980493
0.980934
0.98138
0.98184
0.982323
0.982837
0.983443
0.98428
0.978832
0.980773
0.982419
0.984364
0.986255
0.987919
0.989206
0.990013
0.99029
0.990042
0.989311
0.988169
0.986716
0.985075
0.983369
0.9817
0.98014
0.978735
0.977512
0.976494
0.975694
0.975112
0.974733
0.974536
0.974496
0.974585
0.974773
0.975031
0.975336
0.975669
0.976014
0.976364
0.976716
0.977077
0.977453
0.977861
0.978326
0.978894
0.97969
0.980902
0.975708
0.977682
0.979343
0.981303
0.9832
0.984863
0.986141
0.986932
0.987189
0.986924
0.986182
0.985038
0.983597
0.98198
0.980307
0.978674
0.977149
0.975773
0.974572
0.973565
0.972761
0.972159
0.971743
0.971493
0.971388
0.971401
0.971505
0.971672
0.971882
0.972117
0.972363
0.972611
0.972861
0.973118
0.973387
0.973681
0.974026
0.97448
0.975184
0.976718
1.16029
1.16746
1.17175
1.17627
1.17966
1.18273
1.18537
1.1878
1.19004
1.19206
1.19389
1.19562
1.19719
1.19859
1.19982
1.20094
1.20195
1.20285
1.20369
1.20446
1.20519
1.20585
1.20643
1.20696
1.20744
1.20783
1.20812
1.20829
1.20834
1.20825
1.20797
1.20754
1.20688
1.20606
1.20499
1.20383
1.20237
1.20106
1.19926
1.19873
1.15535
1.16306
1.16768
1.17245
1.17601
1.17923
1.18198
1.18449
1.18677
1.18889
1.19081
1.19258
1.19416
1.19562
1.19692
1.19806
1.19909
1.20003
1.20091
1.20173
1.20247
1.20315
1.20377
1.20433
1.20483
1.20524
1.20555
1.20574
1.20579
1.20571
1.20545
1.20501
1.20437
1.20354
1.20248
1.20133
1.19988
1.19857
1.19678
1.19626
1.15033
1.15861
1.16355
1.1686
1.17234
1.1757
1.17858
1.18116
1.18348
1.1857
1.18771
1.18951
1.19111
1.19264
1.194
1.19518
1.19622
1.19721
1.19813
1.19898
1.19975
1.20045
1.20111
1.2017
1.20222
1.20266
1.20299
1.2032
1.20325
1.20318
1.20295
1.20251
1.20188
1.20105
1.20001
1.19887
1.19744
1.19613
1.19436
1.19385
1.14523
1.15411
1.15937
1.16471
1.16864
1.17215
1.17514
1.17781
1.18021
1.18249
1.18456
1.18641
1.18808
1.18964
1.19105
1.19227
1.19336
1.19438
1.19533
1.19623
1.19703
1.19776
1.19846
1.19907
1.19961
1.20008
1.20042
1.20065
1.20073
1.20067
1.20045
1.20003
1.19942
1.1986
1.19758
1.19645
1.19504
1.19374
1.19199
1.1915
1.14007
1.14957
1.15515
1.16079
1.16492
1.16858
1.17167
1.17444
1.17693
1.17926
1.18139
1.1833
1.18503
1.18664
1.18808
1.18935
1.19049
1.19156
1.19254
1.19346
1.1943
1.19507
1.1958
1.19644
1.19701
1.19749
1.19786
1.19811
1.19821
1.19817
1.19797
1.19757
1.19698
1.19619
1.19519
1.19407
1.19268
1.1914
1.18967
1.1892
1.13484
1.14497
1.15088
1.15685
1.16118
1.16499
1.16819
1.17106
1.17363
1.17602
1.17821
1.18018
1.18198
1.18362
1.1851
1.18643
1.18762
1.18872
1.18974
1.19069
1.19158
1.19238
1.19314
1.19381
1.1944
1.19491
1.1953
1.19558
1.19571
1.19569
1.19551
1.19514
1.19456
1.1938
1.19283
1.19173
1.19036
1.1891
1.18739
1.18694
1.12956
1.14034
1.14659
1.15287
1.15741
1.16137
1.16469
1.16766
1.17032
1.17277
1.17502
1.17705
1.1789
1.18059
1.18212
1.18349
1.18474
1.18588
1.18694
1.18792
1.18885
1.18969
1.19048
1.19119
1.1918
1.19234
1.19275
1.19306
1.19321
1.19322
1.19306
1.19272
1.19218
1.19144
1.1905
1.18943
1.18808
1.18685
1.18516
1.18473
1.12423
1.13567
1.14226
1.14887
1.15362
1.15774
1.16118
1.16425
1.167
1.16951
1.17182
1.17391
1.17582
1.17756
1.17913
1.18056
1.18185
1.18303
1.18413
1.18515
1.18612
1.187
1.18782
1.18856
1.1892
1.18976
1.19021
1.19054
1.19073
1.19077
1.19064
1.19032
1.18981
1.18911
1.18821
1.18716
1.18584
1.18463
1.18297
1.18256
1.11886
1.13098
1.13791
1.14485
1.14981
1.15409
1.15766
1.16083
1.16366
1.16624
1.16862
1.17077
1.17273
1.17452
1.17614
1.17761
1.17895
1.18018
1.18131
1.18238
1.18338
1.18431
1.18516
1.18593
1.1866
1.18719
1.18767
1.18803
1.18825
1.18832
1.18822
1.18795
1.18747
1.18681
1.18594
1.18492
1.18364
1.18247
1.18082
1.18043
1.11346
1.12625
1.13354
1.14081
1.14598
1.15043
1.15412
1.15739
1.16032
1.16297
1.16541
1.16761
1.16963
1.17147
1.17314
1.17466
1.17604
1.17732
1.1785
1.1796
1.18065
1.18162
1.1825
1.1833
1.18401
1.18463
1.18514
1.18553
1.18579
1.18589
1.18583
1.18559
1.18515
1.18453
1.1837
1.18272
1.18148
1.18034
1.17872
1.17835
1.10804
1.12148
1.12915
1.13676
1.14214
1.14676
1.15058
1.15395
1.15696
1.15969
1.1622
1.16446
1.16653
1.16842
1.17014
1.1717
1.17314
1.17445
1.17567
1.17682
1.17791
1.17892
1.17983
1.18067
1.18142
1.18207
1.18261
1.18304
1.18333
1.18347
1.18344
1.18324
1.18285
1.18227
1.18149
1.18056
1.17935
1.17824
1.17666
1.17631
1.1026
1.1167
1.12475
1.13269
1.13829
1.14307
1.14703
1.15051
1.15361
1.15641
1.15898
1.1613
1.16343
1.16536
1.16713
1.16875
1.17022
1.17158
1.17284
1.17404
1.17516
1.17622
1.17717
1.17804
1.17882
1.17951
1.18009
1.18055
1.18087
1.18106
1.18107
1.18092
1.18056
1.18004
1.1793
1.17842
1.17726
1.17619
1.17464
1.17431
1.09717
1.11195
1.12034
1.12861
1.13443
1.13938
1.14347
1.14706
1.15025
1.15313
1.15577
1.15814
1.16033
1.16231
1.16413
1.16579
1.16731
1.16871
1.17001
1.17126
1.17242
1.17351
1.1745
1.17541
1.17623
1.17695
1.17757
1.17806
1.17843
1.17865
1.17871
1.1786
1.1783
1.17783
1.17715
1.17632
1.1752
1.17417
1.17267
1.17235
1.09175
1.1072
1.11594
1.12452
1.13057
1.13569
1.13991
1.14361
1.14689
1.14985
1.15255
1.15498
1.15722
1.15926
1.16113
1.16284
1.1644
1.16584
1.16718
1.16847
1.16967
1.17081
1.17183
1.17278
1.17364
1.17439
1.17505
1.17558
1.17598
1.17625
1.17636
1.1763
1.17605
1.17564
1.17501
1.17424
1.17318
1.1722
1.17073
1.17044
1.08635
1.10245
1.11153
1.12044
1.1267
1.13199
1.13635
1.14016
1.14354
1.14657
1.14934
1.15183
1.15413
1.15622
1.15813
1.15988
1.16148
1.16297
1.16435
1.16568
1.16692
1.1681
1.16916
1.17015
1.17105
1.17183
1.17253
1.1731
1.17355
1.17386
1.17401
1.17402
1.17382
1.17347
1.17291
1.1722
1.17119
1.17026
1.16883
1.16857
1.08097
1.09769
1.10714
1.11635
1.12283
1.12829
1.1328
1.13672
1.14019
1.1433
1.14613
1.14868
1.15103
1.15317
1.15514
1.15692
1.15857
1.1601
1.16152
1.16289
1.16417
1.16539
1.16649
1.16751
1.16845
1.16928
1.17001
1.17063
1.17112
1.17148
1.17168
1.17174
1.1716
1.17132
1.17082
1.17018
1.16923
1.16836
1.16698
1.16674
1.07563
1.09294
1.10276
1.11227
1.11896
1.1246
1.12924
1.13329
1.13685
1.14003
1.14293
1.14554
1.14794
1.15013
1.15214
1.15397
1.15565
1.15723
1.15869
1.1601
1.16142
1.16267
1.16382
1.16488
1.16586
1.16672
1.16749
1.16815
1.1687
1.1691
1.16936
1.16948
1.16941
1.16919
1.16877
1.1682
1.16731
1.1665
1.16517
1.16495
1.07033
1.0882
1.0984
1.1082
1.1151
1.12092
1.1257
1.12986
1.13351
1.13677
1.13973
1.14241
1.14486
1.1471
1.14915
1.15102
1.15275
1.15436
1.15587
1.15732
1.15867
1.15996
1.16115
1.16224
1.16326
1.16417
1.16498
1.16568
1.16627
1.16673
1.16704
1.16723
1.16722
1.16708
1.16673
1.16624
1.16543
1.16467
1.16339
1.16321
1.06509
1.0835
1.09406
1.10413
1.11125
1.11724
1.12217
1.12644
1.13018
1.13352
1.13655
1.13929
1.14179
1.14408
1.14617
1.14808
1.14985
1.1515
1.15304
1.15453
1.15593
1.15724
1.15848
1.15961
1.16066
1.16161
1.16246
1.16321
1.16385
1.16437
1.16473
1.16498
1.16505
1.16499
1.16472
1.16431
1.16358
1.16289
1.16167
1.16152
1.05991
1.07883
1.08975
1.10008
1.10741
1.11358
1.11866
1.12304
1.12687
1.13029
1.13337
1.13618
1.13873
1.14106
1.1432
1.14515
1.14695
1.14865
1.15023
1.15175
1.15318
1.15453
1.1558
1.15697
1.15806
1.15905
1.15995
1.16074
1.16144
1.162
1.16243
1.16275
1.16289
1.16291
1.16273
1.16241
1.16176
1.16116
1.15999
1.15988
1.05481
1.07423
1.08548
1.09605
1.10359
1.10994
1.11516
1.11966
1.12358
1.12707
1.13022
1.13308
1.13569
1.13806
1.14025
1.14223
1.14407
1.1458
1.14741
1.14897
1.15044
1.15182
1.15313
1.15434
1.15545
1.15649
1.15743
1.15827
1.15902
1.15964
1.16013
1.16052
1.16075
1.16086
1.16076
1.16054
1.15998
1.15946
1.15836
1.15828
1.04977
1.06971
1.08126
1.09205
1.09979
1.10632
1.11168
1.11629
1.1203
1.12387
1.12708
1.13
1.13266
1.13508
1.1373
1.13932
1.14119
1.14296
1.14461
1.14619
1.1477
1.14911
1.15045
1.1517
1.15285
1.15393
1.15492
1.1558
1.1566
1.15728
1.15784
1.1583
1.15861
1.15881
1.15881
1.1587
1.15824
1.15781
1.15677
1.15674
1.04481
1.06527
1.07708
1.08807
1.09602
1.10272
1.10822
1.11295
1.11705
1.12069
1.12396
1.12694
1.12965
1.13211
1.13437
1.13643
1.13833
1.14012
1.14181
1.14342
1.14496
1.1464
1.14778
1.14907
1.15025
1.15137
1.1524
1.15333
1.15418
1.15493
1.15555
1.15609
1.15648
1.15678
1.15688
1.15688
1.15653
1.1562
1.15524
1.15524
1.03994
1.0609
1.07295
1.08413
1.09228
1.09915
1.1048
1.10964
1.11382
1.11753
1.12087
1.1239
1.12665
1.12915
1.13146
1.13354
1.13547
1.1373
1.13902
1.14066
1.14223
1.1437
1.1451
1.14643
1.14765
1.14881
1.14988
1.15086
1.15177
1.15257
1.15326
1.15387
1.15436
1.15475
1.15496
1.15508
1.15485
1.15463
1.15376
1.1538
1.03517
1.05659
1.06888
1.08022
1.08857
1.09562
1.10141
1.10635
1.11062
1.11441
1.1178
1.12088
1.12368
1.12622
1.12855
1.13066
1.13263
1.13449
1.13623
1.1379
1.1395
1.141
1.14243
1.1438
1.14505
1.14625
1.14736
1.14839
1.14935
1.15021
1.15097
1.15166
1.15224
1.15274
1.15306
1.1533
1.1532
1.1531
1.15233
1.15241
1.03049
1.0521
1.06485
1.07635
1.0849
1.09212
1.09805
1.1031
1.10746
1.11131
1.11475
1.11789
1.12073
1.12331
1.12567
1.12781
1.12979
1.13168
1.13346
1.13515
1.13677
1.1383
1.13976
1.14116
1.14245
1.14369
1.14484
1.14592
1.14693
1.14785
1.14869
1.14946
1.15013
1.15073
1.15117
1.15154
1.15158
1.15162
1.15095
1.15108
1.02592
1.04784
1.06088
1.07252
1.08127
1.08866
1.09473
1.09988
1.10433
1.10824
1.11174
1.11493
1.1178
1.12041
1.1228
1.12496
1.12698
1.12889
1.13069
1.1324
1.13405
1.1356
1.13709
1.13853
1.13985
1.14112
1.14232
1.14344
1.1445
1.14549
1.1464
1.14725
1.14801
1.14872
1.14929
1.1498
1.15
1.15017
1.14962
1.14982
1.02148
1.04369
1.05696
1.06873
1.07768
1.08524
1.09145
1.09671
1.10123
1.10521
1.10876
1.11199
1.11491
1.11754
1.11995
1.12214
1.12418
1.12611
1.12794
1.12967
1.13134
1.13292
1.13443
1.13589
1.13724
1.13855
1.1398
1.14096
1.14208
1.14313
1.1441
1.14504
1.1459
1.14671
1.14742
1.14808
1.14844
1.14877
1.14835
1.14862
1.01719
1.03962
1.0531
1.06499
1.07414
1.08187
1.08821
1.09357
1.09817
1.10222
1.10582
1.10909
1.11204
1.1147
1.11712
1.11933
1.12139
1.12335
1.12519
1.12694
1.12863
1.13023
1.13177
1.13325
1.13464
1.13598
1.13727
1.13848
1.13964
1.14076
1.14181
1.14282
1.14378
1.14471
1.14555
1.14637
1.1469
1.14741
1.14715
1.14749
1.01305
1.03564
1.0493
1.06131
1.07066
1.07855
1.08502
1.09048
1.09516
1.09927
1.10292
1.10623
1.1092
1.11188
1.11432
1.11655
1.11863
1.1206
1.12246
1.12423
1.12593
1.12755
1.12911
1.13062
1.13204
1.13341
1.13473
1.13599
1.13721
1.13838
1.13951
1.1406
1.14166
1.14271
1.14368
1.14467
1.14539
1.1461
1.146
1.14645
1.00907
1.03175
1.04557
1.05768
1.06723
1.07528
1.08189
1.08744
1.0922
1.09636
1.10005
1.1034
1.10639
1.10908
1.11154
1.11379
1.11588
1.11786
1.11974
1.12152
1.12324
1.12487
1.12645
1.12798
1.12944
1.13084
1.1322
1.1335
1.13477
1.136
1.1372
1.13838
1.13953
1.1407
1.14182
1.14297
1.14389
1.14482
1.14493
1.14549
1.0052
1.02795
1.04192
1.05413
1.06387
1.07207
1.07881
1.08446
1.08929
1.09351
1.09724
1.10061
1.10361
1.10633
1.10879
1.11105
1.11316
1.11514
1.11704
1.11882
1.12056
1.1222
1.1238
1.12535
1.12683
1.12826
1.12966
1.13101
1.13232
1.13362
1.13488
1.13614
1.1374
1.13869
1.13995
1.14128
1.14242
1.14359
1.14393
1.14463
1.00155
1.02425
1.03834
1.05064
1.06058
1.06893
1.0758
1.08154
1.08644
1.09071
1.09447
1.09786
1.10088
1.1036
1.10607
1.10834
1.11045
1.11245
1.11435
1.11614
1.11788
1.11954
1.12116
1.12271
1.12422
1.12568
1.12711
1.12851
1.12987
1.13122
1.13255
1.1339
1.13525
1.13666
1.13808
1.13959
1.14095
1.1424
1.14301
1.14388
0.998088
1.02064
1.03485
1.04724
1.05737
1.06586
1.07285
1.07868
1.08364
1.08796
1.09175
1.09516
1.09818
1.10091
1.10339
1.10565
1.10778
1.10977
1.11168
1.11347
1.11522
1.11689
1.11851
1.12008
1.12162
1.1231
1.12456
1.126
1.1274
1.12882
1.13022
1.13165
1.1331
1.13463
1.13619
1.1379
1.13949
1.14124
1.14217
1.14326
0.994837
1.01714
1.03145
1.04393
1.05424
1.06287
1.06997
1.0759
1.08092
1.08527
1.08908
1.0925
1.09552
1.09825
1.10073
1.103
1.10512
1.10712
1.10902
1.11082
1.11257
1.11424
1.11588
1.11746
1.11901
1.12052
1.12201
1.12349
1.12493
1.12641
1.12787
1.12938
1.13093
1.13258
1.13429
1.13619
1.13804
1.14011
1.14142
1.14278
0.99183
1.01374
1.02815
1.04074
1.05122
1.05998
1.06719
1.07319
1.07827
1.08265
1.08648
1.08989
1.09292
1.09564
1.09811
1.10037
1.1025
1.10449
1.10638
1.10818
1.10992
1.1116
1.11324
1.11483
1.1164
1.11793
1.11945
1.12097
1.12246
1.12399
1.12552
1.12711
1.12875
1.13052
1.13237
1.13446
1.13657
1.139
1.14075
1.14248
0.989099
1.01048
1.025
1.03769
1.04832
1.0572
1.06451
1.07059
1.07571
1.08011
1.08394
1.08735
1.09036
1.09307
1.09554
1.09779
1.09991
1.10188
1.10377
1.10557
1.1073
1.10897
1.11062
1.11221
1.11379
1.11535
1.11688
1.11844
1.11997
1.12155
1.12315
1.12481
1.12655
1.12843
1.13044
1.13272
1.1351
1.13791
1.14017
1.14238
0.986635
1.00728
1.02191
1.03469
1.04546
1.05445
1.06187
1.06801
1.07317
1.07759
1.08142
1.08481
1.08781
1.09051
1.09296
1.0952
1.0973
1.09927
1.10114
1.10292
1.10464
1.10632
1.10796
1.10956
1.11115
1.11272
1.11429
1.11588
1.11745
1.11908
1.12074
1.12248
1.12431
1.12631
1.12846
1.13093
1.13358
1.13681
1.13967
1.14252
0.984248
1.00389
1.01863
1.03153
1.04244
1.05156
1.05908
1.0653
1.07051
1.07496
1.07879
1.08217
1.08517
1.08785
1.09029
1.09252
1.09461
1.09656
1.09842
1.1002
1.10191
1.10359
1.10523
1.10684
1.10844
1.11004
1.11163
1.11325
1.11487
1.11656
1.11828
1.1201
1.12202
1.12412
1.12642
1.12907
1.13201
1.13566
1.13923
1.14296
0.982294
1.0008
1.01562
1.02857
1.03956
1.04876
1.05635
1.06262
1.06786
1.07231
1.07615
1.07952
1.08251
1.08519
1.08762
1.08985
1.09193
1.09388
1.09572
1.09749
1.0992
1.10088
1.10252
1.10414
1.10574
1.10736
1.10898
1.11063
1.11229
1.11402
1.11581
1.11769
1.1197
1.1219
1.12432
1.12715
1.13035
1.13443
1.13876
1.14364
0.976423
0.993613
1.00847
1.02143
1.03248
1.04179
1.04943
1.05565
1.06078
1.0651
1.06885
1.07216
1.0751
1.07775
1.08015
1.08234
1.08437
1.08627
1.08807
1.0898
1.09147
1.09311
1.09473
1.09635
1.09797
1.09961
1.10127
1.10297
1.10473
1.10655
1.10847
1.11051
1.1127
1.11513
1.11783
1.12104
1.12486
1.12999
1.13645
1.14521
0.958817
0.975346
0.98971
1.00226
1.0131
1.02239
1.03017
1.03664
1.04206
1.04668
1.05068
1.05422
1.05737
1.06021
1.0628
1.06518
1.0674
1.06948
1.07147
1.07338
1.07524
1.07706
1.07886
1.08066
1.08247
1.08429
1.08614
1.08803
1.08998
1.092
1.09412
1.09637
1.0988
1.10148
1.1045
1.1081
1.1125
1.11859
1.1266
1.13735
0.940955
0.956753
0.970531
0.982707
0.993344
1.0026
1.01049
1.01716
1.02283
1.0277
1.03195
1.0357
1.03907
1.04211
1.0449
1.04748
1.0499
1.05218
1.05437
1.05648
1.05854
1.06056
1.06257
1.06456
1.06657
1.06859
1.07064
1.07273
1.07488
1.07711
1.07944
1.08192
1.08458
1.08752
1.09083
1.09476
1.09956
1.10616
1.11477
1.12627
0.922676
0.937813
0.95105
0.962899
0.973363
0.982576
0.990533
0.99735
1.00321
1.00829
1.01274
1.0167
1.02027
1.02352
1.02651
1.02929
1.0319
1.03438
1.03677
1.03908
1.04134
1.04357
1.04578
1.04798
1.0502
1.05243
1.05469
1.05699
1.05936
1.06181
1.06436
1.06707
1.06997
1.07317
1.07674
1.08096
1.08603
1.09285
1.10159
1.11329
0.904047
0.918565
0.931296
0.942826
0.953112
0.962262
0.970258
0.977191
0.983216
0.988486
0.993146
0.997319
1.0011
1.00456
1.00775
1.01074
1.01356
1.01625
1.01884
1.02135
1.02382
1.02626
1.02868
1.0311
1.03352
1.03596
1.03844
1.04096
1.04355
1.04622
1.049
1.05193
1.05506
1.05848
1.06228
1.06669
1.07191
1.07878
1.08742
1.09903
0.884986
0.898952
0.911213
0.922432
0.93254
0.941617
0.949635
0.956665
0.962839
0.968291
0.97315
0.977531
0.981523
0.985197
0.98861
0.991813
0.994847
0.997749
1.00055
1.00328
1.00596
1.00861
1.01125
1.01388
1.01652
1.01918
1.02187
1.0246
1.0274
1.03028
1.03326
1.0364
1.03973
1.04334
1.0473
1.05185
1.05714
1.06397
1.07242
1.08386
0.865445
0.878929
0.890763
0.901694
0.911634
0.920641
0.928676
0.93579
0.942099
0.94772
0.952769
0.957353
0.961558
0.96545
0.969085
0.972509
0.975766
0.97889
0.981913
0.984864
0.987764
0.990631
0.993481
0.996327
0.999179
1.00205
1.00494
1.00789
1.01088
1.01396
1.01713
1.02045
1.02395
1.02771
1.0318
1.03643
1.04174
1.04849
1.05673
1.06798
0.845386
0.858456
0.869914
0.880585
0.890375
0.899319
0.907366
0.914555
0.920989
0.92677
0.932002
0.936784
0.941199
0.945311
0.94917
0.952822
0.956306
0.959658
0.962909
0.966084
0.969206
0.972292
0.975359
0.97842
0.981482
0.984557
0.987655
0.990792
0.993977
0.997236
1.00058
1.00406
1.0077
1.01158
1.01576
1.02045
1.02575
1.0324
1.04043
1.05148
0.82478
0.837502
0.848635
0.859078
0.868735
0.877624
0.885683
0.892941
0.899492
0.905425
0.910833
0.91581
0.920433
0.924764
0.928849
0.932731
0.936448
0.940032
0.943513
0.946916
0.950262
0.95357
0.956855
0.960128
0.963398
0.966674
0.969967
0.973291
0.976655
0.980084
0.983588
0.987209
0.990971
0.994955
0.999208
1.00393
1.0092
1.01573
1.02355
1.03438
0.80361
0.816043
0.826899
0.837145
0.846688
0.85553
0.863603
0.870928
0.877591
0.883671
0.889251
0.894417
0.899247
0.903795
0.908106
0.91222
0.91617
0.919989
0.923702
0.927335
0.930907
0.934438
0.93794
0.941424
0.944897
0.948372
0.951855
0.95536
0.958895
0.962483
0.966132
0.969882
0.973753
0.977824
0.982134
0.986868
0.992102
0.998516
1.00611
1.01671
0.781863
0.79406
0.804684
0.814762
0.824209
0.833015
0.841108
0.8485
0.855271
0.861494
0.867241
0.872594
0.877625
0.882388
0.886924
0.891268
0.895453
0.899507
0.903453
0.907317
0.911117
0.914871
0.918589
0.922281
0.925957
0.929626
0.933295
0.936976
0.940677
0.944415
0.9482
0.952069
0.956039
0.960186
0.964542
0.969282
0.974469
0.980755
0.988126
0.998463
0.759533
0.771537
0.781971
0.791909
0.801277
0.810059
0.818176
0.825637