/*--------------------------------*- C++ -*----------------------------------*\
  =========                 |
  \\      /  F ield         | OpenFOAM: The Open Source CFD Toolbox
   \\    /   O peration     | Website:  https://openfoam.org
    \\  /    A nd           | Version:  7
     \\/     M anipulation  |
\*---------------------------------------------------------------------------*/
FoamFile
{
    version     2.0;
    format      ascii;
    class       surfaceScalarField;
    location    "2.7";
    object      phi;
}
// * * * * * * * * * * * * * * * * * * * * * * * * * * * * * * * * * * * * * //

dimensions      [0 3 -1 0 0 0 0];

internalField   nonuniform List<scalar> 
63520
(
-1.97903e-05
0.000815203
-0.000795412
-6.63777e-05
0.00213352
-0.00208694
-0.000133588
0.00321925
-0.00315204
-0.000215766
0.00407957
-0.00399739
-0.000307572
0.00473891
-0.00464711
-0.00040391
0.00522599
-0.00512965
-0.000500051
0.00556859
-0.00547245
-0.000591709
0.00579121
-0.00569955
-0.000675103
0.00591466
-0.00583127
-0.000746972
0.00595577
-0.00588391
-0.000804556
0.00592803
-0.00587044
-0.000845581
0.00584226
-0.00580123
-0.000868202
0.00570729
-0.00568467
-0.000870964
0.00553057
-0.00552781
-0.000852767
0.00531863
-0.00533682
-0.000812834
0.00507745
-0.00511738
-0.000750698
0.00481266
-0.0048748
-0.00066618
0.0045296
-0.00461412
-0.000559373
0.00423343
-0.00434024
-0.000430636
0.00392909
-0.00405783
-0.000280572
0.00362127
-0.00377133
-0.000110005
0.00331436
-0.00348492
8.00196e-05
0.00301242
-0.00320245
0.000288267
0.00271916
-0.0029274
0.000513358
0.00243778
-0.00266287
0.000753791
0.00217107
-0.00241151
0.00100796
0.00192132
-0.00217549
0.0012742
0.00169032
-0.00195655
0.0015508
0.00147939
-0.00175599
0.00183607
0.00128941
-0.00157468
0.00212834
0.0011208
-0.00141308
0.00242599
0.000973637
-0.00127129
0.00272748
0.000847626
-0.00114912
0.00303135
0.000742221
-0.00104609
0.00333623
0.000656674
-0.000961553
0.00364084
0.000590144
-0.000894754
0.00394395
0.000541812
-0.000844923
0.00424432
0.000510943
-0.000811314
0.00454063
0.000499365
-0.000795669
0.000512768
0.00483108
-0.000803226
-1.72743e-05
0.000832476
-5.84126e-05
0.00217466
-0.000118277
0.00327911
-0.000192073
0.00415336
-0.000275037
0.00482187
-0.000362479
0.00531343
-0.000449908
0.00565602
-0.000533179
0.00587448
-0.000608556
0.00599004
-0.000672799
0.00602002
-0.000723154
0.00597838
-0.000757324
0.00587643
-0.000773423
0.00572339
-0.000769956
0.0055271
-0.000745793
0.00529446
-0.000700119
0.00503177
-0.000632431
0.00474497
-0.000542527
0.0044397
-0.000430487
0.00412139
-0.000296641
0.00379525
-0.000141583
0.00346621
3.38496e-05
0.00313892
0.000228617
0.00281766
0.000441493
0.00250628
0.000671083
0.00220819
0.000915858
0.0019263
0.00117419
0.00166298
0.0014444
0.00142011
0.00172477
0.00119902
0.00201358
0.0010006
0.00230915
0.00082524
0.00260984
0.000672948
0.0029141
0.000543362
0.00322048
0.00043584
0.00352763
0.000349528
0.00383429
0.000283486
0.00413927
0.000236829
0.0044414
0.000208811
0.00473943
0.000201333
0.000220493
0.00503171
-1.46745e-05
0.000847151
-5.00352e-05
0.00221002
-0.000102087
0.00333117
-0.000166881
0.00421816
-0.000240259
0.00489525
-0.00031796
0.00539113
-0.000395738
0.00573379
-0.000469637
0.00594838
-0.000536
0.0060564
-0.000591621
0.00607564
-0.00063374
0.0060205
-0.000660036
0.00590272
-0.000668611
0.00573197
-0.000657947
0.00551644
-0.000626879
0.00526339
-0.000574575
0.00497947
-0.000500514
0.00467091
-0.00040447
0.00434366
-0.000286501
0.00400342
-0.000146938
0.00365568
1.3627e-05
0.00330565
0.000194369
0.00295818
0.000394236
0.00261779
0.000611983
0.00228853
0.000846201
0.00197397
0.00109536
0.00167714
0.00135782
0.00140052
0.00163188
0.00114605
0.00191579
0.00091511
0.00220783
0.000708556
0.00250631
0.000526761
0.00280959
0.000369665
0.00311613
0.000236826
0.00342447
0.000127494
0.0037333
4.07016e-05
0.00404138
-2.45958e-05
0.00434759
-6.93778e-05
0.00465082
-9.44237e-05
0.00494993
-9.77748e-05
-7.29677e-05
0.00524339
-1.19668e-05
0.000859117
-4.13338e-05
0.00223939
-8.51854e-05
0.00337502
-0.00014044
0.00427341
-0.000203558
0.00495837
-0.00027072
0.00545829
-0.000337987
0.00580106
-0.000401578
0.00601197
-0.000457936
0.00611276
-0.000503908
0.00612161
-0.000536761
0.00605335
-0.000554174
0.00592014
-0.00055423
0.00573202
-0.000535393
0.0054976
-0.000496491
0.00522449
-0.000436673
0.00491965
-0.000355398
0.00458964
-0.000252439
0.0042407
-0.000127854
0.00387883
1.80366e-05
0.00350979
0.000184642
0.00313904
0.000371117
0.00277171
0.000576402
0.00241251
0.00079925
0.00206569
0.00103824
0.00173498
0.00129182
0.00142356
0.00155834
0.001134
0.00183607
0.000868317
0.00212328
0.000627903
0.00241823
0.000413609
0.00271922
0.000225771
0.00302462
6.42629e-05
0.0033329
-7.14553e-05
0.00364264
-0.000182245
0.00395253
-0.000269185
0.00426138
-0.000333449
0.00456813
-0.00037613
0.00487176
-0.000398059
0.00517126
-0.000397266
-0.000366941
0.00546523
-9.22199e-06
0.000868339
-3.2396e-05
0.00226256
-6.77205e-05
0.00341034
-0.000112957
0.00431865
-0.000165211
0.00501062
-0.000221117
0.0055142
-0.00027705
0.00585699
-0.000329424
0.00606434
-0.000374837
0.00615817
-0.000410197
0.00615697
-0.000432792
0.00607595
-0.000440319
0.00592766
-0.000430868
0.00572257
-0.000402899
0.00546963
-0.000355223
0.00517682
-0.000286994
0.00485142
-0.00019768
0.00450032
-8.70429e-05
0.00413006
4.486e-05
0.00374693
0.000197692
0.00335696
0.000370849
0.00296589
0.000563482
0.00257908
0.000774521
0.00220147
0.0010027
0.00183751
0.00124658
0.0014911
0.0015046
0.00116554
0.00177509
0.000863512
0.00205633
0.000587079
0.00234657
0.000337666
0.00264407
0.000116108
0.00294714
-7.73041e-05
0.00325418
-0.000242774
0.00356366
-0.000380938
0.00387419
-0.000492775
0.0041845
-0.000579493
0.00449346
-0.000642408
0.00480006
-0.000682734
0.00510338
-0.00070138
0.00540253
-0.000696408
-0.000660708
0.00569629
-6.43057e-06
0.00087477
-2.32716e-05
0.00227941
-4.98171e-05
0.00343689
-8.466e-05
0.00435349
-0.000125528
0.00505149
-0.000169523
0.00555819
-0.000213374
0.00590085
-0.000253708
0.00610468
-0.000287273
0.00619174
-0.000311068
0.00618076
-0.000322442
0.00608732
-0.000319114
0.00592434
-0.000299181
0.00570264
-0.000261117
0.00543157
-0.000203753
0.00511945
-0.000126241
0.00477391
-2.80566e-05
0.00440214
9.10216e-05
0.00401098
0.000230921
0.00360703
0.000391292
0.00319659
0.000571514
0.00278566
0.000770721
0.00237987
0.000987822
0.00198437
0.00122153
0.0016038
0.00147041
0.00124222
0.00173287
0.000903078
0.00200724
0.000589143
0.00229179
0.000302531
0.00258477
4.46833e-05
0.00288446
-0.000183584
0.00318919
-0.000382029
0.00349735
-0.000550939
0.00380748
-0.000691061
0.0041182
-0.000803493
0.00442829
-0.000889586
0.00473668
-0.000950797
0.00504243
-0.000988491
0.00534473
-0.00100368
0.00564282
-0.000994492
-0.000953599
0.00593571
-3.64056e-06
0.00087841
-1.40771e-05
0.00228984
-3.16578e-05
0.00345447
-5.5786e-05
0.00437762
-8.48254e-05
0.00508053
-0.000116349
0.00558972
-0.000147431
0.00593193
-0.000174949
0.00613219
-0.000195826
0.00621261
-0.00020717
0.0061921
-0.000206396
0.00608655
-0.000191268
0.00590921
-0.000159919
0.00567129
-0.000110848
0.0053825
-4.28973e-05
0.0050515
4.47534e-05
0.00468626
0.000152604
0.00429428
0.000280857
0.00388273
0.00042942
0.00345847
0.000597914
0.0030281
0.000785692
0.00259789
0.000991866
0.00217369
0.00121533
0.00176091
0.00145477
0.00136435
0.00170873
0.00098826
0.00197562
0.000636189
0.00225376
0.000311009
0.00254141
1.48773e-05
0.00283685
-0.000250753
0.00313835
-0.000485091
0.00344428
-0.000687957
0.00375307
-0.00085973
0.00406328
-0.00100127
0.00437358
-0.00111379
0.00468281
-0.00119882
0.00498996
-0.00125795
0.00529419
-0.00129271
0.00559475
-0.00130425
0.00589106
-0.00129079
-0.00124487
0.00618233
-9.06141e-07
0.000879316
-4.90608e-06
0.00229384
-1.34126e-05
0.00346297
-2.66074e-05
0.00439081
-4.34617e-05
0.00509738
-6.20215e-05
0.00560828
-7.97364e-05
0.00594964
-9.37467e-05
0.0061462
-0.000101159
0.00622003
-9.92182e-05
0.00619016
-8.54283e-05
0.00607276
-5.76163e-05
0.0058814
-1.39614e-05
0.00562763
4.70016e-05
0.00532154
0.000126392
0.00497211
0.000224994
0.00458766
0.000343279
0.004176
0.000481418
0.00374459
0.00063928
0.00330061
0.000816451
0.00285093
0.00101225
0.00240208
0.00122577
0.00196018
0.00145587
0.00153081
0.00170122
0.001119
0.00196035
0.000729134
0.00223164
0.000364895
0.00251343
2.92279e-05
0.00280397
-0.000275671
0.00310157
-0.000548345
0.00340451
-0.000788038
0.0037112
-0.000994642
0.00402011
-0.00116864
0.00432983
-0.00131099
0.00463913
-0.00142309
0.00494687
-0.00150657
0.00525214
-0.00156322
0.00555416
-0.00159473
0.00585231
-0.0016024
0.00614614
-0.00158462
-0.00153383
0.0064351
1.79302e-06
0.000877523
4.14575e-06
0.00229149
4.73183e-06
0.00346239
2.60518e-06
0.00439294
-1.80336e-06
0.00510179
-7.01272e-06
0.00561348
-1.08501e-05
0.00595348
-1.07384e-05
0.00614609
-3.99254e-06
0.00621328
1.19903e-05
0.00617418
3.95975e-05
0.00604515
8.09205e-05
0.00584007
0.000137716
0.00557084
0.000211396
0.00524786
0.00030303
0.00488048
0.000413358
0.00447733
0.000542806
0.00404655
0.000691499
0.0035959
0.000859261
0.00313285
0.00104563
0.00266455
0.0012499
0.00219781
0.00147112
0.00173896
0.00170811
0.00129381
0.00195954
0.000867573
0.00222389
0.000464781
0.00249956
8.92266e-05
0.00278486
-0.000256075
0.00307809
-0.000568899
0.00337754
-0.000847794
0.00368155
-0.00109205
0.00398856
-0.00130165
0.00429709
-0.00147717
0.00460581
-0.00161971
0.00491351
-0.00173079
0.00521917
-0.00181223
0.00552193
-0.00186598
0.0058211
-0.00189391
0.00611619
-0.0018975
0.00640688
-0.00187531
-0.00181983
0.00669287
4.38034e-06
0.000873143
1.29834e-05
0.00228288
2.25948e-05
0.00345278
3.157e-05
0.00438396
3.97657e-05
0.0050936
4.81921e-05
0.00560506
5.86417e-05
0.00594303
7.33925e-05
0.00613134
9.49024e-05
0.00619177
0.000125602
0.00614348
0.000167749
0.006003
0.000223336
0.00578449
0.000294039
0.00550014
0.0003812
0.0051607
0.000485825
0.00477585
0.000608597
0.00435456
0.000749886
0.00390526
0.000909757
0.00343603
0.00108798
0.00295462
0.00128404
0.00246849
0.00149719
0.00198467
0.00172643
0.00150972
0.00197056
0.00104968
0.0022282
0.000609932
0.00249783
0.00019515
0.00277783
-0.000190774
0.00306653
-0.000544769
0.00336222
-0.000864589
0.00366323
-0.00114881
0.00396795
-0.00139677
0.00427485
-0.00160855
0.00458253
-0.00178484
0.00488971
-0.00192689
0.00519527
-0.00203635
0.00549827
-0.00211522
0.00579793
-0.00216564
0.00609367
-0.00218964
0.00638508
-0.00218891
0.00667202
-0.00216225
-0.00210224
0.00695443
6.84756e-06
0.000866295
2.15175e-05
0.00226821
4e-05
0.00343429
6.00087e-05
0.00436395
8.08579e-05
0.00507275
0.000103097
0.00558282
0.000128136
0.00591799
0.000157937
0.00610154
0.000194717
0.00615499
0.000240714
0.00609748
0.000298038
0.00594568
0.000368558
0.00571397
0.000453855
0.00541484
0.000555189
0.00505936
0.000673486
0.00465755
0.000809358
0.00421869
0.000963107
0.00375151
0.00113473
0.00326441
0.00132392
0.00276543
0.00153013
0.00226228
0.00175254
0.00176226
0.0019901
0.00127216
0.00224158
0.000798201
0.00250556
0.000345949
0.00278051
-7.97959e-05
0.00306479
-0.000475058
0.00335674
-0.000836718
0.00365468
-0.00116253
0.00395696
-0.00145109
0.00426203
-0.00170184
0.00456842
-0.00191494
0.00487479
-0.00209121
0.00517994
-0.00223204
0.00548285
-0.00233926
0.00578265
-0.00241503
0.00607867
-0.00246165
0.00637041
-0.00248139
0.00665761
-0.00247611
0.00694024
-0.00244488
-0.00238051
0.00721851
9.17335e-06
0.000857122
2.96647e-05
0.00224772
5.67766e-05
0.00340718
8.76503e-05
0.00433308
0.000121093
0.0050393
0.000157207
0.0055467
0.000197019
0.00587818
0.000242173
0.00605639
0.000294622
0.00610254
0.000356394
0.00603571
0.000429428
0.00587265
0.00051546
0.00562793
0.000615955
0.00531434
0.000732071
0.00494325
0.000864644
0.00452498
0.0010142
0.00406913
0.00118097
0.00358475
0.00136486
0.00308052
0.00156549
0.00256479
0.00178225
0.00204553
0.00201425
0.00153026
0.0022604
0.00102601
0.00251941
0.000539189
0.00278984
7.55208e-05
0.00307013
-0.000360081
0.00335863
-0.000763566
0.0036537
-0.00113178
0.00395367
-0.0014625
0.00425696
-0.00175438
0.00456204
-0.00200692
0.00486752
-0.00222042
0.00517215
-0.00239584
0.00547482
-0.00253471
0.00577459
-0.00263903
0.0060707
-0.00271114
0.00636258
-0.00275353
0.00664985
-0.00276865
0.00693232
-0.00275859
0.00721015
-0.00272271
-0.00265415
0.00748379
1.13353e-05
0.000845786
3.73467e-05
0.00222171
7.27671e-05
0.00337176
0.000114237
0.00429161
0.000160101
0.00499344
0.000210034
0.00549677
0.000264689
0.00582352
0.000325378
0.0059957
0.000393777
0.00603414
0.00047169
0.0059578
0.000560866
0.00578347
0.000662888
0.00552591
0.000779087
0.00519815
0.000910507
0.00481183
0.00105788
0.0043776
0.00122164
0.00390537
0.00140191
0.00340448
0.00159852
0.00288392
0.001811
0.00235231
0.00203867
0.00181787
0.00228056
0.00128836
0.00253554
0.000771034
0.00280224
0.000272483
0.0030792
-0.000201438
0.00336483
-0.000645711
0.00365749
-0.00105623
0.00395553
-0.00142983
0.00425734
-0.0017643
0.00456135
-0.00205839
0.00486611
-0.00231169
0.00517032
-0.00252463
0.00547281
-0.00269832
0.00577256
-0.00283446
0.00606876
-0.00293523
0.00636074
-0.00300312
0.00664804
-0.00304083
0.00693039
-0.003051
0.00720773
-0.00303593
0.00748035
-0.00299532
-0.00292273
0.00774893
1.3315e-05
0.000832471
4.44951e-05
0.00219053
8.78261e-05
0.00332843
0.000139529
0.00423991
0.000197533
0.00493543
0.000261115
0.00543319
0.000330559
0.00575408
0.000406842
0.00591941
0.000491355
0.00594963
0.000585657
0.0058635
0.000691295
0.00567783
0.000809679
0.00540753
0.000941991
0.00506583
0.00108914
0.00466467
0.00125176
0.00421499
0.00143015
0.00372697
0.00162434
0.00321029
0.00183405
0.00267421
0.00205875
0.00212762
0.00229763
0.00157898
0.00254968
0.00103631
0.00281366
0.000507048
0.00308819
-2.0466e-06
0.00337174
-0.000484988
0.00366271
-0.000936677
0.00395944
-0.00135296
0.00426031
-0.0017307
0.00456373
-0.00206772
0.0048682
-0.00236286
0.00517235
-0.00261584
0.00547494
-0.00282722
0.0057749
-0.00299829
0.00607136
-0.00313092
0.00636358
-0.00322745
0.00665104
-0.00329058
0.00693338
-0.00332318
0.00721045
-0.00332807
0.0074823
-0.00330778
0.00774935
-0.00326237
-0.00318591
0.00801253
1.50966e-05
0.000817375
5.10498e-05
0.00215458
0.000101825
0.00327765
0.000163307
0.00417843
0.000233068
0.00486567
0.000310014
0.00535624
0.000394072
0.00567002
0.000485888
0.0058276
0.000586555
0.00584896
0.000697377
0.00575267
0.000819682
0.00555553
0.00095469
0.00527252
0.00110342
0.0049171
0.00126664
0.00450145
0.00144484
0.00403679
0.00163822
0.00353359
0.00184667
0.00300183
0.00206982
0.00245106
0.00230702
0.00189042
0.00255737
0.00132862
0.00281978
0.000773903
0.00309294
0.000233889
0.00337539
-0.000284497
0.00366557
-0.000775164
0.00396184
-0.00123295
0.00426255
-0.00165368
0.00456609
-0.00203424
0.00487091
-0.00237254
0.00517558
-0.00266753
0.00547881
-0.00291906
0.00577945
-0.00312787
0.00607656
-0.0032954
0.00636936
-0.00342372
0.00665726
-0.00351536
0.00693986
-0.00357318
0.00721692
-0.00360023
0.00748839
-0.00359954
0.00775446
-0.00357385
0.00801568
-0.00352359
-0.00344342
0.00827319
1.66669e-05
0.000800708
5.69607e-05
0.00211428
0.000114654
0.00321996
0.000185382
0.0041077
0.000266419
0.00478463
0.000356336
0.00526633
0.000454719
0.00557164
0.000561884
0.00572043
0.000678626
0.00573222
0.000805979
0.00562532
0.000945039
0.00541647
0.00109682
0.00512074
0.00126218
0.00475175
0.00144171
0.00432192
0.00163576
0.00384274
0.00184439
0.00332496
0.00206738
0.00277885
0.00230422
0.00221422
0.00255415
0.00164048
0.0028162
0.00106658
0.00308913
0.000500966
0.00337158
-4.85575e-05
0.00366201
-0.000574929
0.00395881
-0.00107197
0.00426033
-0.00153446
0.00456491
-0.00195825
0.00487095
-0.00234028
0.00517696
-0.00267855
0.00548157
-0.00297214
0.00578358
-0.00322107
0.00608197
-0.00342625
0.0063759
-0.00358933
0.00666473
-0.00371255
0.006948
-0.00379863
0.00722545
-0.00385063
0.00749696
-0.00387175
0.00776261
-0.0038652
0.0080227
-0.00383394
0.00827788
-0.00377877
-0.00369506
0.00852952
1.80166e-05
0.000782691
6.21891e-05
0.00207011
0.000126225
0.00315592
0.000205597
0.00402832
0.000297344
0.00469289
0.000399739
0.00516393
0.000512047
0.00545933
0.000634264
0.00559822
0.000766882
0.0055996
0.000910661
0.00548154
0.00106645
0.00526067
0.00123506
0.00495213
0.00141714
0.00456967
0.00161312
0.00412594
0.0018232
0.00363266
0.00204728
0.00310088
0.002285
0.00254113
0.00253573
0.00196349
0.00279859
0.00137762
0.00307247
0.000792704
0.00335605
0.000217384
0.00364786
-0.000340365
0.0039463
-0.000873365
0.00424969
-0.00137536
0.00455637
-0.00184113
0.00486466
-0.00226655
0.00517301
-0.00264863
0.00547998
-0.00298552
0.00578427
-0.00327644
0.00608479
-0.00352159
0.00638063
-0.00372209
0.00667109
-0.00387979
0.00695567
-0.00399713
0.00723406
-0.00407702
0.00750612
-0.00412269
0.00777188
-0.00413751
0.00803154
-0.00412486
0.0082855
-0.0040879
0.00853454
-0.00402782
-0.00394072
0.0087802
1.91396e-05
0.000763552
6.67089e-05
0.00202254
0.000136472
0.00308616
0.000223831
0.00394096
0.000325649
0.00459107
0.000439941
0.00504964
0.000565675
0.0053336
0.00070254
0.00546135
0.000850727
0.00545142
0.00101072
0.00532155
0.00118312
0.00508828
0.0013685
0.00476675
0.0015673
0.00437087
0.00177979
0.00391345
0.00200599
0.00340647
0.00224564
0.00286123
0.00249823
0.00228853
0.00276299
0.00169873
0.0030389
0.00110171
0.00332472
0.000506888
0.00361901
-7.69088e-05
0.0039202
-0.000641558
0.00422662
-0.00117978
0.00453653
-0.00168528
0.00484823
-0.00215283
0.00516007
-0.00257839
0.00547052
-0.00295908
0.00577819
-0.00329319
0.00608189
-0.00358014
0.00638063
-0.00382033
0.00667364
-0.0040151
0.00696036
-0.00416651
0.00724044
-0.00427721
0.00751372
-0.0043503
0.00778021
-0.00438918
0.00804008
-0.00439738
0.00829364
-0.00437842
0.00854142
-0.00433567
0.0087843
-0.00427069
-0.00418039
0.00902398
2.00336e-05
0.000743518
7.05066e-05
0.00197207
0.000145357
0.00301131
0.000240003
0.00384632
0.000351192
0.00447988
0.000476726
0.0049241
0.000615303
0.00519502
0.000766318
0.00531034
0.00092967
0.00528807
0.00110556
0.00514566
0.00129434
0.0048995
0.00149634
0.00456475
0.0017118
0.0041554
0.00194078
0.00368447
0.00218312
0.00316413
0.00243839
0.00260595
0.00270592
0.002021
0.00298478
0.00141987
0.00327381
0.00081269
0.0035716
0.000209091
0.00387662
-0.000381924
0.00418716
-0.000952104
0.00450148
-0.0014941
0.00481778
-0.00200158
0.00513434
-0.00246939
0.00544951
-0.00289356
0.0057618
-0.00327137
0.0060699
-0.0036013
0.00637272
-0.00388296
0.0066694
-0.00411701
0.0069593
-0.004305
0.00724203
-0.00444923
0.00751739
-0.00455257
0.00778538
-0.00461829
0.00804616
-0.00464997
0.00830005
-0.00465126
0.00854748
-0.00462586
0.00878909
-0.00457728
0.00902584
-0.00450745
-0.00441415
0.0092596
2.07003e-05
0.000722818
7.35823e-05
0.00191919
0.000152868
0.00293203
0.000254075
0.00374511
0.000373894
0.00436006
0.000509957
0.00478804
0.000660723
0.00504425
0.000825313
0.00514575
0.00100334
0.00511004
0.00119474
0.00495426
0.00139959
0.00469465
0.00161798
0.00434635
0.00184994
0.00392345
0.00209532
0.00343909
0.00235375
0.0029057
0.00262464
0.00233507
0.00290712
0.00173852
0.0032001
0.00112689
0.00350224
0.000510551
0.003812
-0.000100669
0.00412769
-0.000697609
0.0044475
-0.00127191
0.00476957
-0.00181617
0.00509208
-0.00232409
0.00541325
-0.00279057
0.00573148
-0.00321179
0.00604532
-0.00358521
0.00635354
-0.00390952
0.00665517
-0.00418459
0.00694949
-0.00441132
0.00723601
-0.00459153
0.00751451
-0.00472773
0.00778495
-0.00482301
0.00804751
-0.00488085
0.0083025
-0.00490495
0.00855037
-0.00489913
0.00879169
-0.00486718
0.00902719
-0.00481278
0.00925795
-0.0047382
-0.00464214
0.00948593
2.11454e-05
0.000701673
7.595e-05
0.00186438
0.000159021
0.00284895
0.000266054
0.00363808
0.000393737
0.00423238
0.000539578
0.0046422
0.000701829
0.004882
0.00087936
0.00496822
0.00107151
0.00491788
0.00127795
0.00474782
0.0014985
0.00447411
0.001733
0.00411185
0.00198124
0.0036752
0.00224286
0.00317748
0.00251728
0.00263127
0.00280372
0.00204863
0.00310111
0.00144112
0.00340816
0.00081983
0.00372337
0.000195349
0.00404501
-0.00042231
0.00437124
-0.00102384
0.00470014
-0.00160081
0.00502976
-0.00214579
0.0053582
-0.00265253
0.0056837
-0.00311607
0.00600466
-0.00353275
0.00631969
-0.00390025
0.00662768
-0.00421752
0.00692779
-0.00448469
0.00721942
-0.00470296
0.0075023
-0.0048744
0.00777634
-0.00500177
0.0080417
-0.00508837
0.00829871
-0.00513786
0.00854785
-0.0051541
0.00878972
-0.005141
0.00902501
-0.00510247
0.00925455
-0.00504232
0.00947949
-0.00496314
-0.00486455
0.0097019
2.1379e-05
0.000680294
7.76378e-05
0.00180812
0.000163862
0.00276273
0.000275991
0.00352595
0.000410767
0.0040976
0.000565618
0.00448735
0.000738621
0.004709
0.000928419
0.00477842
0.0011341
0.0047122
0.00135507
0.00452686
0.00159088
0.0042383
0.00184114
0.00386159
0.0021054
0.00341095
0.00238306
0.00289982
0.00267333
0.002341
0.00297519
0.00174677
0.00328739
0.00112893
0.00360841
0.000498806
0.00393655
-0.000132788
0.00426991
-0.000755671
0.00460649
-0.00136042
0.00494422
-0.00193855
0.00528108
-0.00248264
0.00561511
-0.00298657
0.00594455
-0.00344551
0.00626783
-0.00385603
0.00658366
-0.00421608
0.00689103
-0.00452488
0.00718923
-0.00478289
0.00747787
-0.0049916
0.00775681
-0.00515334
0.00802618
-0.00527114
0.00828631
-0.0053485
0.0085377
-0.00538925
0.00878099
-0.00539739
0.00901692
-0.00537693
0.0092463
-0.00533185
0.00947006
-0.00526608
0.00968942
-0.0051825
-0.00508167
0.00990654
2.14151e-05
0.000658879
7.86876e-05
0.00175085
0.000167461
0.00267396
0.000283983
0.00340943
0.000425096
0.00395649
0.000588191
0.00432425
0.000771207
0.00452599
0.000972585
0.00457704
0.00119118
0.0044936
0.00142613
0.0042919
0.00167676
0.00398767
0.00194241
0.00359594
0.00222238
0.00313098
0.00251583
0.00260636
0.00282175
0.00203509
0.00313887
0.00142965
0.00346571
0.000802093
0.00380052
0.000163989
0.00414139
-0.000473655
0.00448622
-0.0011005
0.00483285
-0.00170704
0.00517906
-0.00228477
0.00552276
-0.00282634
0.00586194
-0.00332575
0.00619485
-0.00377841
0.00651998
-0.00418116
0.00683612
-0.00453222
0.00714242
-0.00483118
0.00743833
-0.0050788
0.00772362
-0.00527689
0.00799836
-0.00542808
0.00826285
-0.00553563
0.00851762
-0.00560327
0.00876334
-0.00563497
0.00900081
-0.00563485
0.00923089
-0.00560702
0.00945453
-0.00555549
0.00967275
-0.00548429
0.00988681
-0.00539657
-0.00529381
0.010099
2.12714e-05
0.000637607
7.91548e-05
0.00169297
0.000169919
0.00258319
0.00029017
0.00328918
0.000436899
0.00380976
0.000607499
0.00415365
0.000799803
0.00433368
0.00101208
0.00436476
0.00124296
0.00426272
0.00149136
0.00404351
0.00175633
0.0037227
0.00203697
0.0033153
0.00233232
0.00283562
0.00264131
0.00229738
0.00296264
0.00171376
0.0032948
0.00109748
0.00363604
0.000460848
0.0039844
-0.000184366
0.0043377
-0.000826954
0.00469365
-0.00145646
0.0050499
-0.0020633
0.00540414
-0.002639
0.00575416
-0.00317635
0.00609794
-0.00366954
0.00643375
-0.00411423
0.00676017
-0.00450757
0.0070761
-0.00484816
0.00738084
-0.00513592
0.00767401
-0.00537198
0.0079556
-0.00555848
0.00822586
-0.00569834
0.00848529
-0.00579506
0.0087346
-0.00585258
0.00897463
-0.00587501
0.00920634
-0.00586656
0.00943072
-0.0058314
0.00964883
-0.0057736
0.00986175
-0.00569721
0.0100708
-0.00560565
-0.00550129
0.0102783
2.09693e-05
0.000616638
7.91065e-05
0.00163483
0.000171356
0.00249094
0.00029473
0.0031658
0.000446407
0.00365808
0.00062382
0.00397624
0.000824727
0.00413278
0.00104725
0.00414224
0.00128982
0.00402015
0.00155113
0.0037822
0.00182998
0.00344386
0.00212521
0.00302007
0.00243562
0.00252522
0.00275983
0.00197317
0.00309629
0.00137729
0.00344321
0.000750563
0.00379857
0.000105493
0.00416011
-0.000545912
0.00452544
-0.00119228
0.00489205
-0.00182306
0.0052574
-0.00242866
0.00561907
-0.00300067
0.00597477
-0.00353205
0.0063225
-0.00401726
0.00666055
-0.00445228
0.00698761
-0.00483463
0.00730273
-0.00516327
0.00760537
-0.00543856
0.00789536
-0.00566198
0.00817288
-0.005836
0.00843839
-0.00596384
0.00869259
-0.00604926
0.00893637
-0.00609635
0.00917073
-0.00610937
0.00939678
-0.0060926
0.00961563
-0.00605025
0.00982843
-0.00598639
0.0100363
-0.00590513
0.0102408
-0.00581006
-0.00570446
0.0104439
2.05336e-05
0.000596104
7.86198e-05
0.00157674
0.000171918
0.00239764
0.00029788
0.00303984
0.000453909
0.00350205
0.000637508
0.00379264
0.000846392
0.00392389
0.00107856
0.00391007
0.00133227
0.00376644
0.00160598
0.00350849
0.00189826
0.00315157
0.00220771
0.00271062
0.00253281
0.00220012
0.00287193
0.00163405
0.0032232
0.00102602
0.00358454
0.000389228
0.00395361
-0.00026358
0.0043279
-0.0009202
0.00470473
-0.00156912
0.00508139
-0.00219972
0.00545518
-0.00280245
0.00582355
-0.00336903
0.00618418
-0.00389268
0.00653507
-0.00436816
0.00687461
-0.00479183
0.0072016
-0.00516161
0.00751525
-0.00547693
0.00781522
-0.00573853
0.00810156
-0.00594832
0.00837465
-0.00610909
0.00863516
-0.00622435
0.00888398
-0.00629809
0.00912218
-0.00633456
0.00935093
-0.00633812
0.00957146
-0.00631313
0.00978499
-0.00626378
0.00999275
-0.00619416
0.010196
-0.00610835
0.0103961
-0.00601016
-0.00590369
0.0105953
1.99924e-05
0.000576112
7.77808e-05
0.00151895
0.000171765
0.00230366
0.000299866
0.00291174
0.000459738
0.00334218
0.00064898
0.0036034
0.000865291
0.00370758
0.00110657
0.00366879
0.00137092
0.00350209
0.00165658
0.00322283
0.00196189
0.00284626
0.00228516
0.00238735
0.00262461
0.00186067
0.00297828
0.00128038
0.00334399
0.000660313
0.00371932
1.39e-05
0.00410162
-0.000645885
0.00448808
-0.00130666
0.00487577
-0.00195681
0.00526174
-0.00258569
0.00564315
-0.00318386
0.00601736
-0.00374324
0.00638203
-0.00425735
0.00673521
-0.00472134
0.00707539
-0.005132
0.00740151
-0.00548773
0.007713
-0.00578842
0.00800971
-0.00603525
0.00829192
-0.00623053
0.00856023
-0.00637739
0.0088155
-0.00647963
0.00905884
-0.00654142
0.00929146
-0.00656718
0.00951469
-0.00656135
0.00972987
-0.0065283
0.00993832
-0.00647223
0.0101413
-0.00639718
0.0103402
-0.00630724
0.0105364
-0.00620633
-0.00609939
0.0107321
1.93757e-05
0.000556736
7.66821e-05
0.00146165
0.000171075
0.00220927
0.00030096
0.00278185
0.000464263
0.00317888
0.000658701
0.00340896
0.000881984
0.0034843
0.00113193
0.00341885
0.00140649
0.00322753
0.0017037
0.00292561
0.00202167
0.0025283
0.00235841
0.00205061
0.00271185
0.00150723
0.00307968
0.000912548
0.00345938
0.000280612
0.00384818
-0.000374905
0.00424312
-0.00104082
0.00464104
-0.00170459
0.00503878
-0.00235454
0.00543317
-0.00298009
0.00582124
-0.00357193
0.00620029
-0.00412229
0.00656799
-0.00462505
0.00692247
-0.00507582
0.00726236
-0.00547189
0.00758679
-0.00581216
0.00789539
-0.00609701
0.00818825
-0.00632811
0.00846586
-0.00650814
0.00872906
-0.00664058
0.0089789
-0.00672948
0.00921668
-0.0067792
0.00944377
-0.00679427
0.00966162
-0.0067792
0.00987165
-0.00673834
0.0100753
-0.00667587
0.0102739
-0.00659578
0.0104688
-0.00650213
0.0106614
-0.00639894
-0.00629193
0.010854
1.87147e-05
0.000538021
7.54207e-05
0.00140494
0.000170033
0.00211465
0.00030145
0.00265044
0.00046788
0.00301245
0.000667177
0.00320966
0.000897079
0.00325439
0.00115534
0.00316059
0.00143976
0.00294311
0.00174819
0.00261717
0.00207848
0.00219802
0.00242835
0.00170073
0.00279539
0.00114019
0.00317694
0.000530993
0.00357012
-0.000112563
0.00397178
-0.000776567
0.0043786
-0.00144764
0.00478714
-0.00211313
0.00519396
-0.00276136
0.00559573
-0.00338185
0.00598935
-0.00396555
0.0063721
-0.00450504
0.00674172
-0.00499467
0.00709644
-0.00543055
0.00743506
-0.00581051
0.00775693
-0.00613403
0.0080619
-0.00640199
0.00835032
-0.00661653
0.00862291
-0.00678072
0.0088807
-0.00689838
0.00912497
-0.00697375
0.00935717
-0.0070114
0.00957881
-0.00701591
0.00979145
-0.00699183
0.00999661
-0.0069435
0.0101957
-0.00687502
0.0103903
-0.00679031
0.0105815
-0.00669339
0.010771
-0.00658839
-0.00648172
0.0109608
1.80408e-05
0.00051998
7.4096e-05
0.00134889
0.000168832
0.00201992
0.000301633
0.00251763
0.000470997
0.00284309
0.00067493
0.00300573
0.000911207
0.00301812
0.00117752
0.00289428
0.00147154
0.00264909
0.00179092
0.0022978
0.00213322
0.00185571
0.00249588
0.00133808
0.00287611
0.000759962
0.00327089
0.000136216
0.00367692
-0.000518597
0.0040907
-0.00119034
0.00450853
-0.00186547
0.00492668
-0.00253128
0.00534147
-0.00317615
0.00574941
-0.00378979
0.00614734
-0.00436348
0.00653256
-0.00489026
0.00690288
-0.00536499
0.00725671
-0.00578437
0.00759304
-0.00614685
0.00791147
-0.00645245
0.0082121
-0.00670262
0.00849551
-0.00689994
0.00876267
-0.00704788
0.00901483
-0.00715053
0.00925344
-0.00721237
0.0094801
-0.00723806
0.00969644
-0.00723225
0.0099041
-0.00719949
0.0101047
-0.00714406
0.0102996
-0.00706999
0.0104904
-0.00698112
0.0106785
-0.0068814
0.0108651
-0.00677505
-0.0066691
0.0110525
1.73852e-05
0.000502595
7.28067e-05
0.00129346
0.00016766
0.00192507
0.000301804
0.00238349
0.000474026
0.00267086
0.000682487
0.00279727
0.000925005
0.0027756
0.00119922
0.00262007
0.00150265
0.00234565
0.00183275
0.0019677
0.0021868
0.00150166
0.00256189
0.000962989
0.00295486
0.000366991
0.00336228
-0.000271203
0.00378045
-0.000936764
0.00420545
-0.00161535
0.00463327
-0.00229329
0.00505986
-0.00295788
0.00548134
-0.00359764
0.00589411
-0.00420256
0.00629499
-0.00476436
0.00668133
-0.0052766
0.00705108
-0.00573475
0.00740285
-0.00613614
0.00773588
-0.00647987
0.00805
-0.00676657
0.00834559
-0.00699822
0.0086235
-0.00717785
0.0088849
-0.00730929
0.00913125
-0.00739689
0.00936418
-0.0074453
0.0095854
-0.00745927
0.00979664
-0.00744349
0.00999959
-0.00740245
0.0101959
-0.00734035
0.010387
-0.00726114
0.0105745
-0.00716857
0.0107596
-0.00706651
0.0109438
-0.00695929
-0.00685458
0.0111293
1.67779e-05
0.000485817
7.16486e-05
0.00123859
0.000166703
0.00183001
0.000302252
0.00224794
0.000477368
0.00249575
0.000690361
0.00258428
0.00093909
0.00252687
0.00122113
0.00233803
0.00153387
0.00203291
0.00187451
0.00162706
0.00224004
0.00113614
0.00262718
0.000575848
0.00303237
-3.82003e-05
0.00345175
-0.000690583
0.0038812
-0.00136621
0.00431641
-0.00205056
0.00475302
-0.00272989
0.00518674
-0.00339159
0.0056135
-0.0040244
0.00602964
-0.0046187
0.006432
-0.00516672
0.00681805
-0.00566264
0.00718592
-0.00610262
0.00753446
-0.00648468
0.00786316