/*--------------------------------*- C++ -*----------------------------------*\
  =========                 |
  \\      /  F ield         | OpenFOAM: The Open Source CFD Toolbox
   \\    /   O peration     | Website:  https://openfoam.org
    \\  /    A nd           | Version:  7
     \\/     M anipulation  |
\*---------------------------------------------------------------------------*/
FoamFile
{
    version     2.0;
    format      ascii;
    class       volScalarField;
    location    "40";
    object      p;
}
// * * * * * * * * * * * * * * * * * * * * * * * * * * * * * * * * * * * * * //

dimensions      [0 2 -2 0 0 0 0];

internalField   nonuniform List<scalar> 
2000
(
-0.00241981
-0.00151482
-0.000744089
2.8963e-05
0.000664857
0.00109496
0.00130534
0.00132307
0.00120746
0.00103815
-0.00294477
-0.00198502
-0.00122494
-0.000474361
0.000126147
0.000502092
0.000631239
0.000530813
0.000247539
-0.000145215
-0.00353615
-0.00250802
-0.00175753
-0.00102789
-0.00045896
-0.000129261
-6.78715e-05
-0.000267053
-0.000692431
-0.00128422
-0.0041819
-0.00306903
-0.002325
-0.00161393
-0.00107397
-0.000785791
-0.000782914
-0.00106531
-0.00160882
-0.00237231
-0.00486563
-0.00364945
-0.00290675
-0.00221153
-0.00170009
-0.00145346
-0.00150632
-0.001863
-0.0025052
-0.0034117
-0.00556588
-0.00422729
-0.00347903
-0.00279691
-0.00231606
-0.0021163
-0.00222969
-0.00266034
-0.00338947
-0.00441252
-0.00625618
-0.00477808
-0.0040161
-0.00334454
-0.0028987
-0.00275583
-0.00294168
-0.00345508
-0.00426999
-0.00539176
-0.00690511
-0.00527547
-0.00449135
-0.00382843
-0.00342334
-0.00334935
-0.00362316
-0.00423517
-0.00514779
-0.00636617
-0.00747703
-0.00569217
-0.00487843
-0.00422326
-0.00386418
-0.00386739
-0.0042375
-0.00495625
-0.00598076
-0.00731919
-0.00793332
-0.00600048
-0.00515178
-0.00450544
-0.00419671
-0.00427792
-0.00473342
-0.00552858
-0.00661882
-0.00805751
0.000752263
0.00229253
0.00659569
0.013089
0.0201542
0.0273902
0.0333078
0.0390167
0.0420099
0.0446384
-0.000937645
-0.000284398
0.00324079
0.00920554
0.0159157
0.0229683
0.028759
0.0344362
0.0374541
0.0400748
-0.00258728
-0.00275434
-2.73102e-05
0.00538151
0.0117464
0.0186325
0.0243424
0.0300201
0.0330679
0.0357119
-0.00418691
-0.00507811
-0.00316455
0.00165981
0.00768161
0.0144039
0.0200627
0.0257505
0.0288672
0.0315532
-0.00573154
-0.00722728
-0.00613149
-0.00190871
0.00376967
0.0103304
0.0159584
0.0216668
0.0248868
0.0276206
-0.00721953
-0.0091875
-0.00889795
-0.00528899
2.41964e-05
0.00640672
0.0120053
0.0177411
0.0210882
0.0238933
-0.00864566
-0.0109662
-0.011439
-0.00842219
-0.00347935
0.00271311
0.00828119
0.0140477
0.0175164
0.0203923
-0.00999031
-0.0125831
-0.013745
-0.0113369
-0.00681208
-0.00084332
0.00468425
0.0104849
0.0140882
0.0170718
-0.0112606
-0.0140787
-0.0157295
-0.013863
-0.00976479
-0.00406871
0.00138354
0.00718794
0.0108963
0.0139657
-0.0124937
-0.0154757
-0.0175716
-0.0163508
-0.0127485
-0.00735895
-0.0019744
0.00384909
0.00774676
0.0109715
-0.0119068
-0.0151444
-0.0183322
-0.0190364
-0.0171907
-0.0131768
-0.0083423
-0.00292382
0.00122587
0.00437045
-0.0180423
-0.0207908
-0.0230857
-0.0238573
-0.0228489
-0.0199931
-0.0160337
-0.0111514
-0.00724188
-0.00418269
-0.0203596
-0.0226701
-0.0247581
-0.0256682
-0.0251771
-0.0231293
-0.0203375
-0.0161224
-0.0128689
-0.0102697
-0.0205422
-0.0217174
-0.0233008
-0.0240245
-0.0237655
-0.0224014
-0.0203931
-0.0176661
-0.0152106
-0.0132499
-0.0190733
-0.019011
-0.0198273
-0.0202649
-0.0201076
-0.0191963
-0.0178447
-0.0160456
-0.014421
-0.0131677
-0.0160333
-0.0155159
-0.0156441
-0.0157701
-0.0156231
-0.0150264
-0.0142042
-0.0130378
-0.0119878
-0.0110762
-0.0120527
-0.0113335
-0.0111868
-0.0112257
-0.0111286
-0.0107388
-0.0102671
-0.00959982
-0.00903232
-0.00837577
-0.00791706
-0.00721006
-0.0069605
-0.00698229
-0.00697335
-0.00678563
-0.00658529
-0.00629715
-0.00617454
-0.00583066
-0.00391126
-0.00347407
-0.0034048
-0.00350899
-0.00355245
-0.00344882
-0.00337588
-0.00327882
-0.00345612
-0.00335875
-0.000732935
-0.000467385
-0.000491694
-0.000653557
-0.000797696
-0.000839979
-0.000919813
-0.000885746
-0.00111266
-0.00106591
-0.0107428
-0.0159639
-0.0184972
-0.0192176
-0.0182092
-0.0157119
-0.0121904
-0.00820589
-0.00418623
-0.0010244
-0.0110523
-0.0158478
-0.0182006
-0.0189145
-0.0179474
-0.015517
-0.0120799
-0.00815882
-0.00420253
-0.00100123
-0.0113542
-0.0157479
-0.0179772
-0.0186582
-0.0176838
-0.0152998
-0.0118297
-0.00809756
-0.00421629
-0.00107895
-0.0114946
-0.0155107
-0.0176588
-0.0183416
-0.01738
-0.0150698
-0.0117441
-0.00804737
-0.00423947
-0.00114992
-0.0114369
-0.0151474
-0.0172439
-0.0179514
-0.0170223
-0.0148021
-0.0115762
-0.00797622
-0.00425818
-0.00121212
-0.0111285
-0.0146337
-0.0167122
-0.0174735
-0.0165943
-0.0144849
-0.0113727
-0.00786169
-0.00426847
-0.00126709
-0.010534
-0.0139463
-0.01604
-0.01689
-0.01608
-0.0141075
-0.0111301
-0.00774506
-0.00426883
-0.00131617
-0.00961335
-0.0130611
-0.0152131
-0.0161828
-0.0154939
-0.0136682
-0.010848
-0.00761169
-0.00425257
-0.00134908
-0.00838465
-0.0119949
-0.0142314
-0.0153518
-0.0148103
-0.0131588
-0.0105189
-0.0074425
-0.00421324
-0.00135957
-0.00689997
-0.0107545
-0.0131049
-0.0144053
-0.0140362
-0.0125828
-0.0101435
-0.00724278
-0.00416377
-0.00135585
-0.00522023
-0.00937229
-0.0118555
-0.0133602
-0.0131849
-0.0119462
-0.00972294
-0.00700869
-0.00408696
-0.00133602
-0.00339368
-0.00788682
-0.0105111
-0.0122369
-0.0122729
-0.0112594
-0.00926323
-0.00674247
-0.00398398
-0.00130101
-0.001462
-0.00632663
-0.00910178
-0.0110559
-0.0113188
-0.0105355
-0.00877404
-0.00645045
-0.00385899
-0.00125431
0.0005351
-0.004716
-0.00765502
-0.00983662
-0.0103395
-0.00978546
-0.00826237
-0.00613614
-0.00371342
-0.00119853
0.00256502
-0.0030727
-0.00619489
-0.00859596
-0.0093493
-0.00901962
-0.00773472
-0.00580367
-0.00354964
-0.00113605
0.00459657
-0.00141212
-0.00474353
-0.00734912
-0.00835978
-0.00824709
-0.00719704
-0.00545751
-0.0033705
-0.00106892
0.00658839
0.0002479
-0.00331918
-0.00610863
-0.0073799
-0.00747632
-0.00665472
-0.00510191
-0.00317873
-0.000998687
0.0085429
0.00193167
-0.00190963
-0.00487291
-0.00641279
-0.00671609
-0.00611535
-0.00474284
-0.0029779
-0.000926335
0.0105904
0.00376381
-0.000452516
-0.00361446
-0.00544591
-0.00596566
-0.00558409
-0.00438719
-0.00277193
-0.000851604
0.0123585
0.00558074
0.000967089
-0.00237134
-0.00446604
-0.0051937
-0.00502523
-0.00401189
-0.00254689
-0.000771936
0.0136359
0.00851202
0.00374455
0.000322003
-0.00209339
-0.00326568
-0.00353191
-0.00296937
-0.00191454
-0.000587888
0.0153176
0.0107538
0.00644767
0.00321703
0.000731746
-0.000745242
-0.00147724
-0.00143503
-0.000922905
-0.000188597
0.0179068
0.013413
0.00913533
0.00586231
0.00318801
0.0014146
0.000300491
-5.94289e-05
1.63306e-05
0.000227335
0.0206436
0.0160579
0.0117037
0.00828338
0.00537285
0.00330049
0.00185523
0.0011793
0.000917736
0.000673391
0.0235842
0.0187279
0.0141817
0.0105263
0.00734
0.00497077
0.0032385
0.00231908
0.00180523
0.00115688
0.0267111
0.0214639
0.016606
0.012622
0.00913882
0.00648394
0.00450932
0.00339577
0.00268238
0.00165695
0.0299557
0.0242022
0.0189151
0.0145616
0.010814
0.00790046
0.00572198
0.00441248
0.00347329
0.00204424
0.0329228
0.0263295
0.020911
0.0163429
0.0123808
0.0092369
0.00686846
0.00528567
0.00396626
0.0020938
0.0354497
0.0292406
0.0231832
0.0179789
0.0136749
0.0103277
0.00776984
0.00583033
0.00402173
0.0018069
0.0375712
0.0297193
0.0235132
0.0184485
0.0142782
0.0109486
0.00829645
0.00610296
0.00397601
0.00158244
0.0174172
0.0189924
0.0213362
0.0239987
0.0270814
0.0304213
0.0338069
0.0381903
0.0392874
0.0435725
0.01891
0.0207804
0.0231687
0.0259141
0.0291263
0.0326027
0.0361555
0.0403747
0.0418647
0.0454776
0.0201222
0.0224258
0.0250795
0.0281316
0.0316256
0.0353661
0.039191
0.0429728
0.0451973
0.0472247
0.0212645
0.0238242
0.0267161
0.0300959
0.0338829
0.0379016
0.0419987
0.0456889
0.0483834
0.0495818
0.0224644
0.0252257
0.028296
0.0319332
0.0359493
0.0401857
0.0445039
0.0483636
0.0513217
0.0524932
0.0236959
0.0267209
0.0300005
0.0338647
0.0380669
0.0424717
0.0469576
0.0510436
0.054191
0.0556763
0.0249308
0.0282739
0.0318363
0.0359497
0.0403479
0.0449228
0.0495614
0.0538415
0.0571555
0.058948
0.0261783
0.0298554
0.0337565
0.0381469
0.0427758
0.0475544
0.0523692
0.056821
0.0602869
0.0622677
0.0274578
0.0314651
0.0357389
0.0404151
0.0453048
0.0503193
0.0553477
0.0599808
0.0635906
0.0656666
0.0287841
0.0331048
0.0377832
0.0427367
0.0479101
0.0531764
0.0584513
0.0632901
0.0670463
0.0691807
0.0301694
0.0347621
0.0398902
0.0451015
0.0505846
0.0561061
0.0616553
0.0667237
0.0706372
0.0728284
0.0316158
0.0364066
0.0420486
0.0474892
0.0533212
0.0590977
0.0649487
0.0702666
0.0743538
0.0766113
0.0330911
0.0380111
0.044226
0.0498775
0.056101
0.0621522
0.0683356
0.0739202
0.0782021
0.0805327
0.0345422
0.0395653
0.0463736
0.052251
0.0588941
0.0652759
0.0718095
0.0776822
0.0821887
0.0846045
0.0359077
0.0410717
0.0484377
0.0546088
0.0616533
0.0685114
0.0753807
0.0815635
0.0863093
0.0888168
0.0371182
0.0425334
0.0503525
0.0569727
0.0644232
0.0717357
0.0789894
0.0855269
0.0905406
0.0931579
0.0381054
0.0439429
0.0521854
0.0592888
0.0671582
0.0749252
0.0826349
0.0895762
0.0948881
0.0976416
0.0387709
0.0453202
0.0538301
0.0614254
0.069737
0.0779959
0.0862276
0.0936422
0.0993178
0.102257
0.0391066
0.0467116
0.0553219
0.0634502
0.0722344
0.0810378
0.0898313
0.0977648
0.103853
0.107038
0.0388557
0.0475119
0.056252
0.0649115
0.0741742
0.0835812
0.0930458
0.101678
0.108372
0.11194
0.0406743
0.0515312
0.0606218
0.0702812
0.0805
0.0911247
0.10191
0.111936
0.119861
0.124277
0.0524416
0.0625026
0.0718736
0.0829679
0.0948093
0.107401
0.120304
0.132347
0.141881
0.147105
0.0645305
0.0750445
0.0855463
0.0983448
0.112009
0.12689
0.142051
0.156102
0.167142
0.173215
0.0765219
0.088107
0.100475
0.115345
0.131318
0.148982
0.166585
0.182748
0.195256
0.201966
0.0885895
0.10168
0.116279
0.133507
0.152262
0.173026
0.193191
0.211579
0.225468
0.233011
0.101219
0.115995
0.133036
0.152882
0.174761
0.198711
0.22149
0.242091
0.257036
0.264691
0.113965
0.130667
0.150164
0.172759
0.197828
0.224724
0.250106
0.27261
0.288082
0.296483
0.126625
0.14514
0.167074
0.192383
0.220465
0.249952
0.278076
0.302278
0.317678
0.324185
0.136338
0.156396
0.180244
0.207648
0.237989
0.269472
0.300033
0.325729
0.341358
0.348541
0.143294
0.164228
0.189329
0.218129
0.249972
0.283062
0.315883
0.344902
0.3643
0.355513
0.0366611
0.0477908
0.0586367
0.0699853
0.0811941
0.0932644
0.10486
0.11695
0.125977
0.132682
0.0360733
0.0475243
0.0580047
0.0690519
0.0799011
0.0916416
0.102731
0.114437
0.122855
0.129279
0.0363012
0.0483067
0.0587338
0.0696563
0.0802916
0.0916968
0.102355
0.113466
0.121031
0.126957
0.0361062
0.0483276
0.0587205
0.0696231
0.0801201
0.0912778
0.101593
0.112213
0.119164
0.12464
0.0357067
0.0479267
0.0582047
0.0690054
0.0793178
0.0902072
0.100186
0.110403
0.116969
0.122113
0.0352869
0.0474771
0.057703
0.0683437
0.0784334
0.0890057
0.0986194
0.108448
0.114712
0.119602
0.0348333
0.047011
0.0573335
0.0678357
0.0777435
0.0880209
0.0972845
0.106752
0.112716
0.117387
0.034329
0.0465348
0.0570225
0.0674466
0.077252
0.0873094
0.0962961
0.105461
0.111151
0.11562
0.0337957
0.0460988
0.0567379
0.0671294
0.0769125
0.086817
0.0956354
0.104527
0.110051
0.114311
0.0332667
0.0457349
0.0565161
0.0669148
0.0767026
0.0865024
0.0952695
0.103856
0.109393
0.113403
0.0327762
0.0454565
0.0563889
0.0668333
0.0766373
0.0863856
0.0951329
0.103497
0.109071
0.112869
0.0323068
0.0452339
0.0563465
0.0668796
0.0767271
0.0864763
0.0952173
0.103464
0.109045
0.112702
0.0318042
0.0450164
0.0563574
0.0670297
0.0769671
0.0867741
0.0955379
0.103751
0.109328
0.112898
0.0312458
0.0447869
0.0564056
0.0672677
0.0773484
0.0872688
0.0960976
0.10434
0.109926
0.113449
0.0306252
0.0445465
0.0564867
0.067588
0.0778688
0.0879556
0.0969027
0.10523
0.110847
0.114348
0.029909
0.0442729
0.056576
0.0679682
0.0785056
0.0888077
0.0979295
0.106391
0.11207
0.115582
0.029075
0.0439672
0.056668
0.068405
0.0792604
0.0898337
0.0991967
0.107833
0.113604
0.117144
0.0279879
0.0435209
0.0566656
0.0688107
0.0800438
0.0909409
0.100615
0.109481
0.115401
0.119026
0.0268041
0.0430857
0.0566702
0.0692635
0.0809297
0.0922014
0.102252
0.111384
0.117495
0.121231
0.0246956
0.0419665
0.0561254
0.0692589
0.0814274
0.0931502
0.103706
0.113263
0.11974
0.123753
0.0242394
0.0420396
0.0570488
0.0712383
0.0845488
0.0972039
0.108822
0.11912
0.126391
0.130741
0.0341297
0.0515131
0.0663976
0.0814242
0.0959039
0.109977
0.123221
0.13496
0.143335
0.147974
0.0462237
0.0641651
0.0796051
0.0958941
0.111707
0.127582
0.142803
0.156396
0.166106
0.171167
0.0585036
0.0773317
0.0942037
0.112446
0.130325
0.148978
0.166961
0.183212
0.194999
0.200898
0.070523
0.0904357
0.109296
0.12994
0.150717
0.173139
0.194778
0.214983
0.230096
0.237671
0.0820674
0.103234
0.12469
0.148099
0.172641
0.199531
0.225863
0.251743
0.272194
0.283606
0.0924299
0.115374
0.139536
0.166009
0.194925
0.226619
0.258853
0.292217
0.321003
0.340889
0.10196
0.12669
0.153608
0.183396
0.216835
0.253539
0.293091
0.335929
0.377566
0.415146
0.107763
0.134128
0.16325
0.195715
0.232844
0.274481
0.32229
0.376853
0.438723
0.508361
0.111306
0.140241
0.171272
0.20617
0.246607
0.293374
0.349555
0.418468
0.509248
0.625222
0.0177931
0.0263713
0.0361853
0.0466093
0.0570254
0.0683682
0.0774282
0.0870523
0.0925186
0.0939121
0.0158101
0.0240438
0.0332751
0.0434229
0.0532094
0.0642336
0.0726218
0.0822181
0.0871398
0.0892569
0.0144233
0.0225164
0.0316054
0.0417561
0.0513406
0.0618297
0.0695507
0.0786955
0.082814
0.0867732
0.0128262
0.0204522
0.0292713
0.0391459
0.0488208
0.0588006
0.0660503
0.074648
0.0781509
0.0831365
0.0111313
0.018023
0.0263443
0.0357445
0.045203
0.0548025
0.0617093
0.0697861
0.0728435
0.0778685
0.00942479
0.0154942
0.0232258
0.0321208
0.0410803
0.050279
0.0569476
0.0644846
0.0672093
0.0717269
0.00770172
0.0129123
0.0200337
0.0284591
0.0369245
0.0455744
0.0521634
0.0591234
0.0616536
0.0655474
0.00596037
0.0102752
0.0167551
0.0247249
0.0328014
0.0409375
0.0473954
0.0538557
0.056402
0.0597568
0.00421231
0.00760458
0.0133964
0.0208935
0.0286399
0.0363838
0.0426555
0.0487171
0.0514597
0.0544073
0.00247184
0.00493308
0.00999514
0.0169967
0.0244134
0.031868
0.0379503
0.0437672
0.0466813
0.0493984
-0.00823027
-0.00617051
-0.00528535
-0.00465292
-0.00440102
-0.00456013
-0.00508503
-0.00591196
-0.00695942
-0.00811367
-0.00830701
-0.00616441
-0.0052506
-0.0046435
-0.00445953
-0.00470349
-0.00530253
-0.00617302
-0.00722501
-0.00836014
-0.00812509
-0.00595378
-0.00502138
-0.00445353
-0.00435052
-0.00468882
-0.00537067
-0.00629724
-0.00737119
-0.00851114
-0.00764208
-0.00550512
-0.00456782
-0.00405547
-0.00404669
-0.00448798
-0.00526002
-0.00625227
-0.00736115
-0.00851828
-0.00681735
-0.00478438
-0.00385995
-0.00342079
-0.00351814
-0.00406829
-0.00493435
-0.00599779
-0.00715236
-0.00834347
-0.00561858
-0.00376169
-0.00287194
-0.00252447
-0.00273791
-0.00339959
-0.00435958
-0.00549502
-0.00670123
-0.00793757
-0.00402538
-0.00241504
-0.00158643
-0.00135003
-0.00168803
-0.00246162
-0.00351249
-0.004718
-0.00597692
-0.00726218
-0.00203172
-0.000734418
1.85644e-06
0.000106254
-0.00036446
-0.00124925
-0.00238595
-0.00365953
-0.00496712
-0.00629664
0.000347219
0.00127037
0.0018846
0.00183283
0.00121998
0.00022379
-0.000996771
-0.00232581
-0.00367848
-0.0050531
0.00305182
0.00356053
0.00403523
0.00380004
0.00303792
0.00192999
0.00063021
-0.000750725
-0.0021405
-0.00355059
0.00597217
0.00609842
0.00638081
0.00596259
0.00504649
0.00382707
0.00245175
0.001024
-0.000394497
-0.00183307
0.00915474
0.0088409
0.00889462
0.00826786
0.00719108
0.00586116
0.00441467
0.00294654
0.00150857
4.82175e-05
0.0124904
0.0117052
0.0115038
0.0106535
0.00941401
0.00797687
0.00646461
0.00496311
0.00351507
0.00204078
0.0158699
0.0146053
0.0141311
0.0130513
0.0116525
0.0101149
0.00854464
0.00701825
0.00557079
0.00409332
0.0191881
0.0174524
0.0166982
0.0153927
0.013844
0.012217
0.0105997
0.00905889
0.00762455
0.00615892
0.0223393
0.0201563
0.0191287
0.0176117
0.0159298
0.0142292
0.012579
0.0110363
0.00962938
0.00819468
0.0252208
0.0226314
0.0213523
0.0196494
0.017858
0.0161046
0.014439
0.0129085
0.0115426
0.0101571
0.0277396
0.024801
0.0233082
0.0214564
0.0195866
0.0178061
0.0161463
0.014642
0.0133235
0.0119974
0.0298156
0.0266004
0.0249474
0.0229957
0.021086
0.019308
0.0176754
0.0162017
0.0149141
0.013663
0.0313851
0.0279794
0.026234
0.0242433
0.0223422
0.0206045
0.0190235
0.0175738
0.0162864
0.0151651
0.0324027
0.0289027
0.0271433
0.0251857
0.0233566
0.0217238
0.0202795
0.0189805
0.0178756
0.0173261
0.0328383
0.029346
0.0276568
0.0258056
0.0241067
0.0226208
0.0213379
0.0202067
0.0192623
0.0188339
0.0326792
0.0293027
0.0277679
0.0260934
0.0245765
0.0232718
0.0221681
0.021214
0.0204185
0.0200316
0.03194
0.0287844
0.0274839
0.0260528
0.0247681
0.023682
0.0227858
0.0220342
0.0214191
0.0211217
0.0306582
0.0278194
0.0268265
0.0257012
0.0246977
0.0238692
0.0232125
0.0226907
0.0222874
0.0221345
0.028891
0.0264512
0.0258301
0.025068
0.0243921
0.023859
0.0234731
0.0232068
0.0230399
0.0230688
0.0267111
0.0247357
0.0245394
0.0241908
0.0238847
0.0236819
0.0235957
0.0236086
0.0236999
0.023938
0.0242017
0.022737
0.0230053
0.0231116
0.0232119
0.0233699
0.0236087
0.0239217
0.0242912
0.0247635
0.0214522
0.0205223
0.0212809
0.0218736
0.0224095
0.0229535
0.0235383
0.0241688
0.0248337
0.0255633
0.0185704
0.0181645
0.0194205
0.0205187
0.0215112
0.0224598
0.0234066
0.024368
0.0253418
0.0263497
0.0156971
0.0157535
0.0174846
0.0190898
0.0205492
0.0219138
0.0232327
0.0245336
0.0258248
0.0271281
0.0127783
0.0133018
0.0155022
0.0176139
0.0195448
0.021331
0.0230275
0.0246717
0.0262828
0.0278931
0.00990404
0.01087
0.0135151
0.0161194
0.0185176
0.0207241
0.0227975
0.0247832
0.0267087
0.0286266
0.00714889
0.00851163
0.0115598
0.0146295
0.0174811
0.0200996
0.0225431
0.0248626
0.027089
0.0293017
0.00455688
0.00626707
0.00966408
0.0131616
0.0164443
0.0194595
0.0222609
0.0249016
0.0274087
0.0298886
0.00216571
0.00417286
0.00784166
0.011729
0.0154125
0.0188026
0.0219446
0.0248913
0.027655
0.0303574
-1.22354e-06
0.00225127
0.00611653
0.0103407
0.0143883
0.018126
0.0215876
0.0248253
0.0278273
0.0306885
-0.00192967
0.000508469
0.00451356
0.00900607
0.0133713
0.0174253
0.0211813
0.0246953
0.027936
0.0308809
-0.00361149
-0.00104333
0.00303773
0.00773133
0.0123624
0.0166969
0.0207212
0.0244959
0.0280201
0.0310391
-0.005044
-0.00239603
0.00169492
0.00651949
0.0113596
0.0159325
0.0201932
0.0242003
0.0279863
0.0313658
-0.00623446
-0.00354931
0.000489406
0.00537324
0.010361
0.0151264
0.0195923
0.0238113
0.0279609
0.032153
-0.00722099
-0.00451703
-0.000579008
0.00429562
0.00936398
0.0142589
0.0188612
0.0231734
0.0273292
0.0314176
-0.00798689
-0.00529329
-0.00150402
0.0032941
0.00837505
0.0133355
0.0180149
0.0223753
0.0265014
0.030442
-0.00853678
-0.00588244
-0.00228259
0.00237909
0.00741215
0.0123887
0.017115
0.0215328
0.0257027
0.0296217
-0.00888685
-0.00629519
-0.00291423
0.00156137
0.00649432
0.0114462
0.0161964
0.020667
0.0248993
0.0288489
-0.00905516
-0.00654458
-0.00340107
0.000849041
0.0056358
0.0105242
0.0152708
0.0197744
0.0240544
0.0280498
-0.00906027
-0.0066452
-0.00374807
0.000246949
0.00484724
0.00963427
0.0143485
0.0188643
0.0231763
0.0272195
-0.00892194
-0.00661358
-0.0039632
-0.000243054
0.00413729
0.00878809
0.0134419
0.0179503
0.0222815
0.0263689
-0.00866006
-0.00646805
-0.0040576
-0.000622346
0.00351228
0.0079959
0.0125621
0.0170436
0.0213817
0.0255094
-0.00828374
-0.0062207
-0.00404115
-0.000894131
0.00297548
0.00726463
0.0117169
0.0161515
0.0204845
0.0246504
-0.00778433
-0.00586557
-0.00390897
-0.00105095
0.0025375
0.00660595
0.0109167
0.0152823
0.019596
0.0237971
-0.00724731
-0.0054644
-0.00370506
-0.00111931
0.0021869
0.00601816
0.0101639
0.0144381
0.0187149
0.0229402
-0.00667188
-0.00502034
-0.00343661
-0.00110531
0.00192145
0.00550228
0.0094599
0.013618
0.0178349
0.0220611
-0.00606402
-0.00454138
-0.00311375
-0.00101794
0.00173589
0.00505653
0.00880413
0.0128196
0.01695
0.0211476
-0.00543747
-0.00404054
-0.00274963
-0.000868048
0.0016238
0.00467899
0.00819697
0.0120424
0.0160565
0.0201917
-0.00480631
-0.00353022
-0.00235681
-0.000666581
0.00157819
0.00436735
0.00763922
0.0112874
0.0151513
0.0191801
-0.00418384
-0.00302158
-0.00194695
-0.000424403
0.00159129
0.00411834
0.00713147
0.0105568
0.0142335
0.0181004
-0.00358332
-0.0025254
-0.00153147
-0.000152802
0.0016542
0.00392728
0.00667344
0.009854
0.0133075
0.0169409
-0.0030181
-0.00205245
-0.00112204
0.00013612
0.00175651
0.0037878
0.0062636
0.00918441
0.0123925
0.0157226
-0.00250135
-0.00161368
-0.000730965
0.00042886
0.00188551
0.00369074
0.00589593
0.008543
0.0115163
0.0145023
-0.00204598
-0.00122061
-0.000371941
0.000709298
0.00202429
0.00362162
0.00555958
0.0079127
0.0107309
0.0136367
-0.00166741
-0.000886887
-5.96772e-05
0.000961311
0.00215595
0.00356375
0.00524064
0.00725294
0.00968993
0.0123272
-0.00137269
-0.000620292
0.000194652
0.00116984
0.00226308
0.0035009
0.00493505
0.00662585
0.0086717
0.0109757
-0.00116875
-0.000429436
0.000379414
0.00131967
0.00232823
0.00341732
0.00463419
0.00604139
0.00774204
0.0096899
-0.0010608
-0.000321692
0.000484517
0.0013971
0.00233422
0.00329364
0.00431609
0.00546532
0.00684585
0.00844078
-0.00105132
-0.000301916
0.000502662
0.00139144
0.00226644
0.00311137
0.00395864
0.00486997
0.00594795
0.00720344
-0.00114028
-0.00037227
0.000429745
0.00129599
0.00211505
0.00285751
0.00354668
0.00424
0.0050352
0.00596761
-0.00132566
-0.000532415
0.000264883
0.00110832
0.00187573
0.00252581
0.00307252
0.00356751
0.00410128
0.0047288
-0.00160357
-0.000779447
1.0412e-05
0.000830123
0.00154941
0.00211643
0.00253569
0.00285174
0.00314606
0.0034881
-0.00196966
-0.00110861
-0.000328308
0.000467213
0.00114217
0.00163554
0.00194246
0.00209921
0.00217679
0.00225322
)
;

boundaryField
{
    inlet
    {
        type            zeroGradient;
    }
    outlet
    {
        type            fixedValue;
        value           uniform 0;
    }
    cylinder
    {
        type            zeroGradient;
    }
    top
    {
        type            symmetryPlane;
    }
    bottom
    {
        type            symmetryPlane;
    }
    defaultFaces
    {
        type            empty;
    }
}


// ************************************************************************* //
