/*--------------------------------*- C++ -*----------------------------------*\
  =========                 |
  \\      /  F ield         | OpenFOAM: The Open Source CFD Toolbox
   \\    /   O peration     | Website:  https://openfoam.org
    \\  /    A nd           | Version:  7
     \\/     M anipulation  |
\*---------------------------------------------------------------------------*/
FoamFile
{
    version     2.0;
    format      ascii;
    class       volVectorField;
    location    "40";
    object      U;
}
// * * * * * * * * * * * * * * * * * * * * * * * * * * * * * * * * * * * * * //

dimensions      [0 1 -1 0 0 0 0];

internalField   nonuniform List<vector> 
2000
(
(0.000242492 5.88051e-05 5.87507e-23)
(0.00434719 -0.00651769 0)
(0.0124248 -0.0117063 0)
(0.0219073 -0.0127374 4.82997e-23)
(0.0321219 -0.00859584 5.11275e-23)
(0.0425529 0.000827521 2.1629e-23)
(0.0528437 0.0151718 -7.4808e-23)
(0.0627206 0.0338089 0)
(0.0719484 0.0559541 0)
(0.0803184 0.0807141 0)
(0.000557669 -0.000880252 0)
(0.00595697 -0.0096714 1.48894e-22)
(0.0151751 -0.0166378 -1.37303e-22)
(0.0251481 -0.0191502 -3.49251e-23)
(0.0351933 -0.0162626 0)
(0.0449013 -0.00791222 7.59318e-23)
(0.0540671 0.00555025 -7.0609e-23)
(0.0625687 0.0235442 0)
(0.0702701 0.0453308 1.16743e-23)
(0.0769901 0.0700616 5.5372e-23)
(0.00111455 -0.00196845 0)
(0.00833622 -0.0129063 -2.05772e-21)
(0.0191557 -0.0214081 0)
(0.0299643 -0.0251583 -8.2856e-22)
(0.0400783 -0.0233601 0)
(0.0492122 -0.0160473 2.45638e-22)
(0.0573333 -0.00357838 0)
(0.0644933 0.0135294 -2.22256e-22)
(0.0706901 0.034623 2.08152e-22)
(0.0757777 0.0589439 7.58417e-22)
(0.00198459 -0.003222 7.07019e-22)
(0.011607 -0.0161891 8.86783e-22)
(0.0245017 -0.0259066 4.6031e-22)
(0.0364954 -0.0305639 4.0546e-22)
(0.0469267 -0.0295981 3.90785e-22)
(0.0556561 -0.0231976 -3.50762e-23)
(0.0628418 -0.0117627 -1.95793e-22)
(0.0687263 0.00425288 -6.08381e-23)
(0.073472 0.0243219 -5.81909e-22)
(0.0769877 0.0478334 -7.58371e-22)
(0.00325161 -0.0046521 9.44794e-22)
(0.0158956 -0.019481 1.21271e-21)
(0.0313278 -0.0300266 1.92737e-21)
(0.0448313 -0.0351851 -8.04855e-22)
(0.0558111 -0.0347067 0)
(0.0643069 -0.0289945 0)
(0.070689 -0.0185361 8.3978e-22)
(0.0754021 -0.00374155 9.52152e-22)
(0.0787948 0.0150136 -1.28606e-21)
(0.0808613 0.0373278 -4.89077e-21)
(0.0050099 -0.00626151 -9.54456e-22)
(0.02132 -0.0227309 -5.1816e-22)
(0.0397009 -0.0336657 4.24127e-21)
(0.0549674 -0.0388704 -4.65511e-21)
(0.0666623 -0.0384756 7.41857e-22)
(0.0750564 -0.0331469 0)
(0.0807598 -0.0235061 0)
(0.0844307 -0.00995736 -6.71724e-21)
(0.086615 0.00728024 7.32083e-21)
(0.0874297 0.0280673 -1.74048e-21)
(0.00735778 -0.00803238 -1.02228e-20)
(0.0279729 -0.0258629 0)
(0.049612 -0.0367216 -5.09988e-21)
(0.0667664 -0.0415117 3.852e-21)
(0.0792214 -0.0407903 0)
(0.087551 -0.0355112 -1.52859e-21)
(0.0926454 -0.0264639 4.69877e-21)
(0.0953916 -0.0140915 6.4436e-21)
(0.0965363 0.00152459 -3.36629e-21)
(0.0963492 0.0205421 -4.06682e-21)
(0.0103885 -0.00991849 2.1395e-20)
(0.0359019 -0.0287668 1.80526e-21)
(0.060954 -0.0390892 3.29332e-21)
(0.0799395 -0.0430497 6.35702e-21)
(0.0930245 -0.0416521 1.96232e-21)
(0.101179 -0.036134 2.05605e-21)
(0.105621 -0.0274636 6.46924e-22)
(0.10749 -0.0161657 0)
(0.107733 -0.00223131 0)
(0.106775 0.0148161 3.30202e-22)
(0.0141786 -0.0118397 -1.11725e-20)
(0.0450892 -0.0312941 8.6288e-21)
(0.073507 -0.0406601 -4.82523e-21)
(0.0940496 -0.0434738 -9.01844e-21)
(0.107433 -0.0411738 2.34487e-21)
(0.115119 -0.0352421 -1.67565e-21)
(0.118697 -0.0268075 -1.9027e-21)
(0.119584 -0.0165138 0)
(0.118947 -0.00436813 0)
(0.117376 0.0103723 -1.20695e-21)
(0.0187754 -0.0136829 1.54103e-21)
(0.0554325 -0.0332629 -1.06918e-20)
(0.086935 -0.0413295 1.90092e-21)
(0.108542 -0.0428213 0)
(0.121709 -0.039559 0)
(0.128476 -0.0331889 -4.37349e-21)
(0.130804 -0.024938 0)
(0.130336 -0.0155754 5.65415e-21)
(0.128452 -0.00530465 1.10235e-21)
(0.126157 0.00650977 -6.08889e-21)
(0.0967447 0.140402 2.33241e-23)
(0.117821 0.245512 -2.36525e-23)
(0.123273 0.337943 -7.69678e-23)
(0.11826 0.415787 -1.76068e-22)
(0.102906 0.486556 -3.79046e-22)
(0.0881715 0.558146 -2.24907e-23)
(0.0633237 0.639897 2.10141e-22)
(0.0499628 0.736555 8.97632e-22)
(0.0184222 0.853888 0)
(0.0136936 0.984883 -7.0731e-22)
(0.0906402 0.130951 -1.96871e-23)
(0.109791 0.239081 -9.22295e-23)
(0.116347 0.335658 2.20377e-22)
(0.113132 0.416822 1.76385e-22)
(0.0994136 0.489718 4.41277e-22)
(0.0857865 0.56254 1.07445e-21)
(0.0618484 0.644951 -5.03547e-22)
(0.0488026 0.741808 -6.00945e-22)
(0.0181669 0.859071 1.16366e-21)
(0.0132005 0.989052 7.0562e-22)
(0.0859993 0.120602 0)
(0.102292 0.230932 2.45804e-22)
(0.109375 0.331398 -5.04602e-23)
(0.107834 0.416113 0)
(0.0957867 0.491457 -1.41414e-21)
(0.0833603 0.565831 3.08982e-22)
(0.0603687 0.649156 5.58223e-22)
(0.0476742 0.746513 2.70959e-21)
(0.0179055 0.864046 -1.15991e-21)
(0.0127268 0.993219 2.23082e-21)
(0.0830659 0.109626 0)
(0.0954299 0.221204 -2.47898e-22)
(0.102398 0.3252 0)
(0.102324 0.413566 5.96666e-22)
(0.0919477 0.491533 -5.99732e-22)
(0.0808174 0.567589 -1.1115e-21)
(0.0588432 0.651856 -3.21563e-22)
(0.0465954 0.74976 -2.4711e-21)
(0.0177069 0.867715 -3.99549e-22)
(0.0122778 0.996628 -2.71316e-21)
(0.0821378 0.0983885 -6.43721e-22)
(0.0893449 0.210092 1.32762e-21)
(0.0954757 0.317153 3.40873e-22)
(0.0965647 0.409271 5.16345e-22)
(0.0878317 0.490262 0)
(0.0780887 0.568451 -8.48879e-22)
(0.0571917 0.654075 -3.66943e-22)
(0.0454289 0.752935 2.75949e-21)
(0.017398 0.871616 4.27034e-22)
(0.01183 1.00029 -4.28525e-22)
(0.083504 0.0873291 3.41993e-21)
(0.0842182 0.197872 -2.65945e-21)
(0.088709 0.307386 -9.19174e-22)
(0.0905673 0.402969 9.18733e-22)
(0.0833735 0.486879 1.12807e-22)
(0.0751116 0.567157 0)
(0.0554243 0.654072 -1.6165e-21)
(0.0443076 0.753871 7.33071e-22)
(0.0171836 0.873523 1.25333e-21)
(0.0113987 1.0028 1.43009e-21)
(0.0872957 0.076889 6.14397e-22)
(0.0802655 0.184878 0)
(0.082194 0.296185 0)
(0.0843533 0.395418 0)
(0.078597 0.48291 -6.33311e-23)
(0.0718356 0.565929 -4.99171e-23)
(0.0533756 0.654706 1.37424e-21)
(0.0429104 0.755884 -2.5257e-21)
(0.016699 0.876691 6.06214e-22)
(0.0109472 1.00611 -2.01614e-21)
(0.093174 0.06746 -3.30499e-21)
(0.0777039 0.171614 -3.54601e-21)
(0.0760973 0.28333 3.51457e-21)
(0.0779419 0.384976 -2.40203e-21)
(0.0733697 0.475292 2.92494e-21)
(0.0682461 0.560769 0)
(0.0512475 0.651283 -1.94725e-22)
(0.0416961 0.753911 2.19011e-22)
(0.0164497 0.876478 -7.90779e-22)
(0.0105068 1.00755 -9.75378e-22)
(0.0997789 0.0589893 3.05044e-21)
(0.0764704 0.158308 0)
(0.0705652 0.27072 4.59332e-21)
(0.0716308 0.3762 -7.13806e-21)
(0.0680081 0.47046 2.57539e-21)
(0.0642279 0.558969 1.86708e-22)
(0.0485263 0.651608 1.94322e-22)
(0.0398178 0.755785 -1.31463e-23)
(0.0156325 0.879611 9.58486e-22)
(0.0100179 1.01081 1.34416e-21)
(0.103779 0.0498261 4.08812e-21)
(0.075509 0.141779 -3.96893e-21)
(0.0652676 0.251041 -5.69833e-22)
(0.0648322 0.357877 0)
(0.0619819 0.45558 0)
(0.0601023 0.547712 -1.77436e-22)
(0.0461367 0.643093 1.11541e-22)
(0.0386176 0.749728 -1.08254e-22)
(0.0154036 0.876559 -2.64511e-22)
(0.00954267 1.01092 2.56743e-22)
(0.0937346 0.0446779 0)
(0.0673275 0.132478 0)
(0.053265 0.243566 0)
(0.0494038 0.353653 0)
(0.0466164 0.45511 0)
(0.0466451 0.551141 0)
(0.0362496 0.649741 0)
(0.0316776 0.758794 0)
(0.0120108 0.88663 0)
(0.00821161 1.0197 0)
(0.0743353 0.0895158 0)
(0.0435265 0.165505 0)
(0.0260536 0.260275 0)
(0.0197812 0.360301 0)
(0.0181132 0.458356 0)
(0.0217355 0.555382 0)
(0.0179312 0.656306 0)
(0.0196143 0.766703 0)
(0.00600896 0.895007 0)
(0.00578768 1.02401 0)
(0.0519923 0.11671 0)
(0.0215141 0.190738 0)
(0.00193764 0.276361 0)
(-0.00750207 0.366243 0)
(-0.00946657 0.457668 0)
(-0.00387096 0.55346 0)
(-0.00241231 0.656297 0)
(0.00555846 0.771374 0)
(-0.00107828 0.903461 0)
(0.00313987 1.03202 0)
(0.0298963 0.141825 0)
(0.000910067 0.214699 0)
(-0.0194793 0.292748 0)
(-0.0300048 0.373262 0)
(-0.0311846 0.456601 0)
(-0.0237495 0.547551 0)
(-0.0175476 0.649 0)
(-0.00549344 0.766424 0)
(-0.00711928 0.900069 0)
(0.000923598 1.02725 0)
(0.0117834 0.163578 0)
(-0.0134192 0.236288 0)
(-0.0330834 0.307087 0)
(-0.0451167 0.377288 0)
(-0.0472328 0.45137 0)
(-0.0396746 0.536601 0)
(-0.0303005 0.63742 0)
(-0.014608 0.758779 0)
(-0.0117387 0.898238 0)
(-0.000462038 1.02652 0)
(-0.00128844 0.182654 0)
(-0.0230771 0.256968 0)
(-0.040313 0.323603 0)
(-0.0508365 0.386384 0)
(-0.0526653 0.451457 0)
(-0.0456628 0.528299 0)
(-0.0357894 0.624155 0)
(-0.0198069 0.744616 0)
(-0.0145834 0.885424 0)
(-0.00157691 1.01246 0)
(-0.00858497 0.197323 0)
(-0.0258008 0.273822 0)
(-0.0426257 0.33578 0)
(-0.0538437 0.389946 0)
(-0.0565382 0.446806 0)
(-0.0502372 0.517802 0)
(-0.039819 0.612146 0)
(-0.0233559 0.735526 0)
(-0.0166699 0.880655 0)
(-0.00225585 1.00827 0)
(-0.0114033 0.207535 0)
(-0.0226923 0.287844 0)
(-0.0355571 0.350933 0)
(-0.045339 0.40101 0)
(-0.0491885 0.449687 0)
(-0.0454878 0.511246 0)
(-0.0374243 0.598405 0)
(-0.0234906 0.71944 0)
(-0.0169233 0.865173 0)
(-0.00276084 0.991638 0)
(-0.0102207 0.215983 0)
(-0.0203125 0.297866 0)
(-0.0333296 0.358278 0)
(-0.0437017 0.40286 0)
(-0.0481665 0.446582 0)
(-0.0451562 0.504475 0)
(-0.0372718 0.590806 0)
(-0.0234701 0.713631 0)
(-0.0169554 0.861984 0)
(-0.0028082 0.988837 0)
(-0.00192489 0.221441 0)
(-0.00687187 0.310067 0)
(-0.0165299 0.375956 0)
(-0.0269121 0.418362 0)
(-0.0339615 0.453732 0)
(-0.0350392 0.500735 0)
(-0.0313403 0.577589 0)
(-0.02117 0.696808 0)
(-0.0154452 0.845006 0)
(-0.00284895 0.970466 0)
(0.114949 0.0260241 -3.86346e-21)
(0.0928814 0.0581263 3.81695e-21)
(0.0655975 0.0811625 -6.45108e-22)
(0.0398466 0.102982 0)
(0.0192169 0.121836 0)
(0.00403849 0.137909 -5.21585e-22)
(-0.0046619 0.149743 1.33936e-21)
(-0.00870067 0.157092 -1.31555e-21)
(-0.00765679 0.16375 -8.26214e-23)
(-0.00111173 0.166297 8.05365e-23)
(0.116452 0.0232274 3.29716e-21)
(0.0933236 0.0483009 0)
(0.0668383 0.0674984 -4.41666e-21)
(0.0419203 0.0867077 9.89505e-21)
(0.0217213 0.103598 -6.03428e-21)
(0.0065363 0.118055 5.07539e-22)
(-0.00208726 0.12873 -7.66881e-22)
(-0.00676377 0.135122 -9.06488e-22)
(-0.00617879 0.141023 4.21056e-23)
(-0.000637369 0.142417 1.61425e-23)
(0.117758 0.0206013 -4.01772e-21)
(0.0934302 0.0394766 4.53897e-21)
(0.0676665 0.0545091 -4.49451e-21)
(0.0436369 0.0704405 4.79807e-21)
(0.0240113 0.0847265 -3.58895e-21)
(0.00886475 0.0971233 0)
(-9.81948e-05 0.106536 7.68662e-22)
(-0.00502254 0.112162 3.55618e-24)
(-0.00487738 0.117344 2.66408e-22)
(-0.000283253 0.117851 6.5068e-23)
(0.118623 0.0155574 7.53173e-22)
(0.0934844 0.029064 0)
(0.0686121 0.0404366 0)
(0.0453073 0.0532504 0)
(0.0261187 0.0648415 -3.22641e-21)
(0.01101 0.0751971 2.09951e-21)
(0.00144637 0.0832375 -1.13639e-22)
(-0.00345971 0.0881251 3.97148e-22)
(-0.00372958 0.0927213 8.61971e-23)
(4.13987e-05 0.0926126 -1.05996e-23)
(0.118738 0.0075466 -1.09362e-21)
(0.0931267 0.0162872 2.47911e-21)
(0.0693204 0.0244529 2.27755e-21)
(0.0467219 0.03454 -2.27573e-21)
(0.0279662 0.0436203 1.1116e-21)
(0.0129444 0.0521092 0)
(0.0031459 0.0588852 7.52816e-22)
(-0.00192249 0.0631783 -9.11983e-22)
(-0.00267254 0.067283 3.94813e-22)
(0.000315182 0.0667889 -7.61512e-23)
(0.118146 -0.00332667 5.47113e-21)
(0.0923979 0.00121233 -3.37634e-22)
(0.0697507 0.00643838 1.81708e-22)
(0.0478438 0.0141743 -2.1934e-21)
(0.0295429 0.0210129 0)
(0.014665 0.0279317 0)
(0.00471421 0.033631 0)
(-0.000506486 0.0375093 -5.06113e-22)
(-0.00171098 0.0412449 0)
(0.000535945 0.0405467 0)
(0.116844 -0.0166294 0)
(0.091306 -0.0156493 -2.74609e-21)
(0.0698939 -0.0132508 1.90272e-21)
(0.0486975 -0.00755549 2.10236e-21)
(0.0308491 -0.0026993 -2.1131e-21)
(0.0161965 0.00296513 -8.12871e-22)
(0.00616463 0.00781153 9.17777e-22)
(0.000730337 0.0114261 1.81794e-21)
(-0.00083787 0.014889 -1.50886e-22)
(0.000714087 0.0141373 4.18928e-23)
(0.114716 -0.0317517 0)
(0.0898032 -0.0335628 8.45645e-22)
(0.0697339 -0.0339878 4.64102e-22)
(0.0492793 -0.0300603 0)
(0.0319317 -0.0269737 -4.47661e-22)
(0.0175779 -0.0223006 1.37035e-21)
(0.00752545 -0.0181073 -1.01166e-21)
(0.00189303 -0.0146714 -2.00143e-22)
(-6.59654e-05 -0.0114417 1.39229e-22)
(0.000805108 -0.0121069 -8.81939e-23)
(0.111662 -0.047992 -3.57256e-22)
(0.0879035 -0.0517874 -8.16543e-22)
(0.0692731 -0.0550553 1.4659e-22)
(0.0495824 -0.0526344 -2.35407e-22)
(0.0328374 -0.0511514 -4.8345e-22)
(0.0188369 -0.047272 -6.38586e-22)
(0.00881597 -0.0436214 1.67589e-22)
(0.00302606 -0.0403313 1.20122e-22)
(0.000586431 -0.0373419 -1.39684e-22)
(0.000866608 -0.0378218 -2.25524e-23)
(0.107789 -0.0646603 1.35879e-22)
(0.0856379 -0.0696667 -1.37062e-22)
(0.0684829 -0.0757493 2.14035e-22)
(0.0496091 -0.0745877 2.35047e-22)
(0.0335464 -0.0745801 -2.12106e-22)
(0.0199714 -0.0713806 4.21002e-22)
(0.0100245 -0.0682365 -2.38164e-22)
(0.00408172 -0.0651227 -4.90849e-23)
(0.00116491 -0.0624043 0)
(0.000876088 -0.0626541 2.25914e-23)
(0.103337 -0.0811753 -1.12406e-22)
(0.0830207 -0.0866881 1.13293e-22)
(0.0673509 -0.0954949 1.75076e-22)
(0.0493832 -0.0953674 2.02152e-22)
(0.0340449 -0.0967216 2.00247e-22)
(0.0209627 -0.094169 -1.54707e-23)
(0.0111115 -0.0915444 -8.61862e-23)
(0.00503139 -0.0886886 -1.81071e-22)
(0.00167896 -0.0862589 0)
(0.000853773 -0.0862724 2.19279e-23)
(0.0985459 -0.0971081 0)
(0.0801424 -0.102527 5.72718e-22)
(0.0658962 -0.113888 -1.06048e-21)
(0.0489461 -0.114618 -2.02446e-22)
(0.0343196 -0.117205 -3.76267e-22)
(0.021781 -0.115333 -5.37169e-22)
(0.0120256 -0.113254 1.53984e-22)
(0.00583212 -0.110757 1.12477e-22)
(0.00208792 -0.108617 -1.29405e-22)
(0.000806042 -0.108423 -2.18677e-23)
(0.0936092 -0.1122 0)
(0.0771181 -0.117064 3.4517e-22)
(0.0641627 -0.130694 3.08908e-22)
(0.0483433 -0.132194 0)
(0.0343706 -0.135837 1.07528e-21)
(0.022414 -0.134729 -3.52641e-22)
(0.0127473 -0.133202 -3.0552e-22)
(0.00647464 -0.131158 -6.59472e-22)
(0.00239392 -0.129291 1.28982e-22)
(0.00074013 -0.128944 -8.09606e-23)
(0.0886798 -0.126342 0)
(0.0740466 -0.130368 -3.48013e-22)
(0.062206 -0.145827 0)
(0.0476164 -0.148132 -1.28626e-21)
(0.0342175 -0.152587 1.29298e-21)
(0.0228684 -0.152356 5.81269e-22)
(0.0132898 -0.151341 -3.27369e-23)
(0.00697627 -0.149829 6.38141e-22)
(0.00261845 -0.1482 1.20983e-22)
(0.000665671 -0.147769 1.20612e-22)
(0.0838724 -0.139523 1.29896e-21)
(0.0710248 -0.142661 -3.83774e-22)
(0.0600878 -0.159307 -3.53285e-22)
(0.0468016 -0.162605 9.48751e-22)
(0.0338945 -0.167545 0)
(0.0231558 -0.168317 5.40203e-22)
(0.0136765 -0.167725 -1.04e-22)
(0.00735575 -0.166801 -8.26148e-22)
(0.00278101 -0.165361 -3.80874e-23)
(0.000589154 -0.164919 3.80302e-23)
(0.0792644 -0.151749 1.50025e-21)
(0.0681654 -0.154282 2.67642e-22)
(0.0578935 -0.17123 -7.82025e-22)
(0.0459349 -0.175853 7.816e-22)
(0.0334502 -0.180877 5.08139e-22)
(0.023291 -0.182775 0)
(0.0139362 -0.18248 8.55518e-22)
(0.00763212 -0.182181 -4.6425e-22)
(0.0029001 -0.180877 -2.84886e-22)
(0.0005147 -0.180493 -6.64102e-23)
(0.0749532 -0.162969 -5.03734e-22)
(0.0656324 -0.165633 0)
(0.0557562 -0.181728 0)
(0.0450577 -0.188122 0)
(0.0329522 -0.192796 4.54125e-22)
(0.0232973 -0.195925 -9.61059e-22)
(0.0141011 -0.195783 -8.24951e-22)
(0.00782312 -0.196131 1.0321e-21)
(0.00299205 -0.194911 -6.68122e-23)
(0.000445288 -0.194651 1.31808e-22)
(0.0708809 -0.173003 -1.87216e-21)
(0.0634605 -0.177101 3.72441e-24)
(0.0537555 -0.190966 -3.68971e-24)
(0.0441686 -0.199619 -1.48887e-21)
(0.0324743 -0.203539 1.86307e-21)
(0.0232235 -0.207961 0)
(0.0142224 -0.207841 3.75995e-22)
(0.00795573 -0.208844 -2.27974e-23)
(0.0030753 -0.207667 1.81954e-22)
(0.000383762 -0.207588 5.55633e-23)
(0.0661342 -0.181408 -6.73433e-22)
(0.0609822 -0.189 0)
(0.0516431 -0.199182 5.41445e-22)
(0.0430726 -0.210506 -1.75329e-21)
(0.0320035 -0.213363 8.03214e-22)
(0.0231091 -0.219077 1.81216e-22)
(0.0143785 -0.218865 -3.7514e-22)
(0.00808978 -0.220522 -6.22598e-23)
(0.00318283 -0.21936 -3.47204e-22)
(0.000330964 -0.21952 -1.10461e-22)
(0.0610822 -0.187271 -2.7022e-21)
(0.0579226 -0.201562 2.63125e-21)
(0.0494201 -0.20681 9.72722e-24)
(0.041608 -0.220956 0)
(0.0313433 -0.222572 0)
(0.0227579 -0.229485 -1.86962e-22)
(0.0144385 -0.229077 -5.94123e-22)
(0.00817204 -0.231358 5.8274e-22)
(0.00328194 -0.230193 5.2587e-23)
(0.000277035 -0.230671 -5.13678e-23)
(0.0645526 -0.192909 0)
(0.0578688 -0.231455 0)
(0.0486671 -0.224373 0)
(0.0396688 -0.244938 0)
(0.0296559 -0.243766 0)
(0.0209086 -0.253406 0)
(0.0133395 -0.252437 0)
(0.00735883 -0.25605 0)
(0.00295819 -0.254651 0)
(0.000176884 -0.25586 0)
(0.0506669 -0.242695 0)
(0.0427792 -0.277671 0)
(0.0383779 -0.266748 0)
(0.0304923 -0.286522 0)
(0.0241953 -0.282339 0)
(0.0170841 -0.292819 0)
(0.0115111 -0.290374 0)
(0.00645325 -0.294963 0)
(0.00281019 -0.292669 0)
(0.000252904 -0.294552 0)
(0.0455736 -0.291104 0)
(0.0367074 -0.324173 0)
(0.0323895 -0.310816 0)
(0.0250186 -0.330576 0)
(0.0200671 -0.323996 0)
(0.0140314 -0.335292 0)
(0.00983023 -0.33117 0)
(0.00552263 -0.336553 0)
(0.00260623 -0.333049 0)
(0.000228831 -0.33566 0)
(0.0398129 -0.343506 0)
(0.0312118 -0.375899 0)
(0.027399 -0.360252 0)
(0.020638 -0.38057 0)
(0.0167614 -0.371763 0)
(0.0115735 -0.384086 0)
(0.00842863 -0.378164 0)
(0.00474284 -0.384441 0)
(0.00245687 -0.379512 0)
(0.000200765 -0.383047 0)
(0.0343942 -0.404878 0)
(0.026427 -0.437363 0)
(0.0229678 -0.419821 0)
(0.0169801 -0.441051 0)
(0.0139516 -0.430266 0)
(0.00954701 -0.443813 0)
(0.00720419 -0.436136 0)
(0.00405076 -0.443521 0)
(0.00226518 -0.437152 0)
(0.00015249 -0.441908 0)
(0.0291168 -0.480049 0)
(0.0218267 -0.511572 0)
(0.0188913 -0.493893 0)
(0.0137124 -0.515492 0)
(0.0114337 -0.503805 0)
(0.00767281 -0.518235 0)
(0.00593495 -0.509435 0)
(0.00318852 -0.517887 0)
(0.00185583 -0.51052 0)
(2.6092e-05 -0.516616 0)
(0.0226606 -0.568508 0)
(0.017188 -0.596074 0)
(0.0147428 -0.58186 0)
(0.010643 -0.601595 0)
(0.00876595 -0.591305 0)
(0.00566768 -0.604993 0)
(0.00425757 -0.596664 0)
(0.00192877 -0.60518 0)
(0.00103782 -0.598011 0)
(-0.00018616 -0.604761 0)
(0.0179745 -0.658934 0)
(0.0130317 -0.679555 0)
(0.0108325 -0.67167 0)
(0.00725529 -0.686244 0)
(0.00591082 -0.679951 0)
(0.0033383 -0.69029 0)
(0.0023338 -0.684451 0)
(0.000440494 -0.690973 0)
(0.000127876 -0.685629 0)
(-0.000374862 -0.691249 0)
(0.0105063 -0.730406 0)
(0.00715276 -0.740867 0)
(0.00601222 -0.740955 0)
(0.00392881 -0.749344 0)
(0.00322206 -0.748314 0)
(0.0015517 -0.75366 0)
(0.000903108 -0.751212 0)
(-0.000308866 -0.754213 0)
(-0.000290035 -0.75146 0)
(-0.000335874 -0.754327 0)
(0.00219017 -0.765744 0)
(0.00162939 -0.774588 0)
(0.00152733 -0.777753 0)
(0.00123559 -0.782835 0)
(0.000967871 -0.783624 0)
(0.000507154 -0.786347 0)
(0.000191471 -0.785424 0)
(-0.000157115 -0.786574 0)
(-0.000171619 -0.785172 0)
(-0.000107031 -0.786416 0)
(0.0587981 -0.211552 5.61091e-21)
(0.0507863 -0.261018 -5.50487e-21)
(0.047179 -0.309519 8.28469e-22)
(0.0418039 -0.362412 0)
(0.0367535 -0.424051 0)
(0.0313629 -0.498014 1.13339e-21)
(0.0253652 -0.58257 -5.13858e-21)
(0.0194545 -0.664523 5.10346e-21)
(0.0120936 -0.73123 1.45142e-21)
(0.00367611 -0.761321 -1.43297e-21)
(0.0571922 -0.21805 -6.65275e-21)
(0.0513343 -0.266732 0)
(0.0479892 -0.314786 5.88947e-21)
(0.0427699 -0.36763 -1.38843e-20)
(0.0378461 -0.429296 9.23263e-21)
(0.0324145 -0.502822 -1.02165e-21)
(0.0265568 -0.585913 2.4119e-21)
(0.0201296 -0.666199 5.23762e-21)
(0.0128008 -0.73008 1.51646e-21)
(0.00432944 -0.760205 1.5185e-21)
(0.056504 -0.224787 8.19007e-21)
(0.0525314 -0.272673 -6.37317e-21)
(0.0491751 -0.31973 6.31282e-21)
(0.0440675 -0.372061 -7.86828e-21)
(0.0391923 -0.433452 5.81763e-21)
(0.0336745 -0.506339 0)
(0.027725 -0.587931 -2.41793e-21)
(0.0208868 -0.666975 1.69333e-22)
(0.0133379 -0.727991 -2.75434e-21)
(0.00466341 -0.759079 -2.91664e-21)
(0.0566043 -0.23105 -1.37144e-21)
(0.0542511 -0.278601 0)
(0.0507747 -0.324774 0)
(0.0457525 -0.376569 0)
(0.0408412 -0.437591 6.91897e-21)
(0.0351769 -0.509744 -4.63641e-21)
(0.0289713 -0.589852 -3.84308e-23)
(0.0217516 -0.667247 -3.04674e-21)
(0.0137764 -0.725998 -1.56595e-21)
(0.00477311 -0.757088 -1.69463e-21)
(0.0574802 -0.236542 4.24335e-22)
(0.056373 -0.283691 -4.48619e-21)
(0.0527296 -0.329176 -3.88965e-21)
(0.0477785 -0.380635 3.88732e-21)
(0.0427617 -0.441384 -2.25193e-21)
(0.0369036 -0.512887 0)
(0.0303772 -0.591647 -2.78887e-21)
(0.0227518 -0.667199 6.24799e-21)
(0.0142581 -0.724152 -3.21641e-21)
(0.00484009 -0.75437 3.29933e-21)
(0.0591871 -0.241298 -1.23531e-20)
(0.0589005 -0.287688 1.15684e-21)
(0.0550295 -0.33247 -4.56505e-22)
(0.0501033 -0.383703 4.09169e-21)
(0.0449138 -0.444272 0)
(0.0388226 -0.515246 0)
(0.0319593 -0.592865 0)
(0.0239004 -0.666726 3.39917e-21)
(0.0148718 -0.722191 0)
(0.00497231 -0.751285 0)
(0.0617513 -0.245257 0)
(0.0618834 -0.290625 5.62237e-21)
(0.057722 -0.334617 -3.80938e-21)
(0.0527339 -0.385612 -4.86006e-21)
(0.0472967 -0.446005 4.88543e-21)
(0.0409269 -0.516521 3.04105e-21)
(0.0337079 -0.593193 -3.00964e-21)
(0.0251921 -0.665669 -1.2185e-20)
(0.01563 -0.719909 8.66469e-22)
(0.00518994 -0.748054 -3.03853e-21)
(0.0651707 -0.248247 0)
(0.0653539 -0.292492 -1.81761e-21)
(0.060856 -0.335663 -1.09414e-21)
(0.0556998 -0.386396 0)
(0.0499394 -0.446575 1.47873e-21)
(0.043238 -0.516664 -4.47997e-21)
(0.0356281 -0.592535 5.07165e-21)
(0.0266282 -0.663924 1.82996e-21)
(0.0165171 -0.717205 -2.03712e-21)
(0.00547794 -0.744704 4.02187e-21)
(0.0694419 -0.250089 1.60645e-21)
(0.0693253 -0.293217 2.09113e-21)
(0.0644577 -0.335587 -4.419e-22)
(0.0590227 -0.386077 6.57427e-22)
(0.0528734 -0.446024 1.40436e-21)
(0.0457859 -0.515738 2.40572e-21)
(0.037735 -0.590955 -9.22692e-22)
(0.0282072 -0.661515 -1.00812e-21)
(0.0175057 -0.714095 2.04386e-21)
(0.00581251 -0.741199 1.12352e-21)
(0.0745667 -0.250628 -4.76683e-22)
(0.0738062 -0.292744 4.80273e-22)
(0.068539 -0.334322 -5.75475e-22)
(0.0627121 -0.384631 -6.56632e-22)
(0.0561183 -0.44435 8.05514e-22)
(0.0485931 -0.513771 -1.64484e-21)
(0.0400563 -0.588476 1.4171e-21)
(0.0299516 -0.658442 5.10853e-22)
(0.0186017 -0.710573 0)
(0.0061926 -0.737473 -1.126e-21)
(0.08055 -0.249739 5.00015e-22)
(0.0788011 -0.291081 -5.04027e-22)
(0.0731083 -0.331816 -6.41607e-22)
(0.0667704 -0.382041 -7.31441e-22)
(0.0596883 -0.441529 -8.50398e-22)
(0.0516725 -0.510798 -6.84092e-23)
(0.0425994 -0.58518 5.06448e-22)
(0.0318552 -0.654801 1.64741e-21)
(0.0197894 -0.706704 0)
(0.00660771 -0.733526 -1.24773e-21)
(0.0873909 -0.247389 0)
(0.0843055 -0.288288 -2.44332e-21)
(0.0781762 -0.328066 4.46089e-21)
(0.0711999 -0.378322 7.32736e-22)
(0.0635902 -0.437562 1.74629e-21)
(0.0550311 -0.506778 2.87807e-21)
(0.0453961 -0.580981 -1.02716e-21)
(0.0339586 -0.650498 -1.12076e-21)
(0.0211081 -0.70242 2.51728e-21)
(0.00707946 -0.729313 1.24478e-21)
(0.0950766 -0.24367 0)
(0.0903125 -0.284418 -2.42997e-21)
(0.0837472 -0.323169 -1.36055e-21)
(0.0759967 -0.373518 0)
(0.0678448 -0.432473 -5.53186e-21)
(0.0586758 -0.501786 1.85614e-21)
(0.0484237 -0.576029 2.23862e-21)
(0.0362185 -0.645706 7.27536e-21)
(0.0225122 -0.697826 -2.50913e-21)
(0.00758004 -0.724886 5.47675e-21)
(0.103589 -0.238737 0)
(0.0968136 -0.279474 2.45088e-21)
(0.0898223 -0.317207 0)
(0.0811789 -0.367643 7.09378e-21)
(0.0724481 -0.42639 -7.13011e-21)
(0.0626172 -0.49568 -4.41963e-21)
(0.0517417 -0.570089 -9.9185e-23)
(0.0387211 -0.640155 -7.52106e-21)
(0.0240863 -0.692733 -1.25179e-21)
(0.00815553 -0.720128 -6.81318e-21)
(0.112906 -0.232781 1.77675e-20)
(0.103807 -0.273453 -6.79082e-21)
(0.096368 -0.310472 8.67219e-22)
(0.0867169 -0.360763 -6.61883e-21)
(0.0774445 -0.419383 0)
(0.0668735 -0.488643 -4.64501e-21)
(0.0552554 -0.563553 -4.22398e-22)
(0.041349 -0.634243 1.02595e-20)
(0.0257155 -0.687408 1.42418e-21)
(0.00873357 -0.715207 -1.4294e-21)
(0.122991 -0.225982 -2.04927e-21)
(0.111261 -0.266347 1.30401e-20)
(0.103393 -0.302815 6.95363e-21)
(0.0927131 -0.352593 -6.94888e-21)
(0.0828538 -0.411072 -4.25772e-21)
(0.0715136 -0.480374 0)
(0.0591196 -0.555793 -1.05394e-20)
(0.0443058 -0.627339 5.28222e-21)
(0.0275852 -0.681461 5.68284e-21)
(0.00942413 -0.709883 6.16154e-21)
(0.133768 -0.218707 -2.54521e-21)
(0.119221 -0.258251 0)
(0.110851 -0.294453 0)
(0.0990891 -0.343847 0)
(0.0885327 -0.402388 -4.96416e-21)
(0.076349 -0.472041 9.20581e-21)
(0.0630716 -0.548153 1.07686e-20)
(0.0472529 -0.620607 -1.70401e-20)
(0.0293926 -0.67556 3.07878e-21)
(0.010041 -0.704524 -9.15285e-21)
(0.145134 -0.210913 -3.65109e-21)
(0.127801 -0.248386 1.33637e-20)
(0.118751 -0.284841 -1.3236e-20)
(0.105996 -0.333613 1.73468e-20)
(0.0947293 -0.391897 -2.18417e-20)
(0.0817635 -0.461604 0)
(0.0676406 -0.538369 -5.66847e-21)
(0.0507904 -0.612174 -2.6143e-22)
(0.0316461 -0.668651 -6.43094e-21)
(0.0108852 -0.698517 -6.57737e-21)
(0.156731 -0.20407 -2.72658e-21)
(0.136686 -0.23913 0)
(0.126525 -0.2766 -1.80557e-20)
(0.112866 -0.325001 3.41038e-20)
(0.100784 -0.383428 -1.32333e-20)
(0.0869369 -0.453486 -2.68102e-21)
(0.0718424 -0.530872 5.65649e-21)
(0.0538908 -0.605398 -3.22775e-22)
(0.0335205 -0.662495 9.3663e-21)
(0.0114597 -0.692801 9.73431e-21)
(0.169521 -0.193318 -1.23575e-20)
(0.14761 -0.225443 1.20781e-20)
(0.135804 -0.263533 1.90141e-21)
(0.121308 -0.311137 0)
(0.108329 -0.369244 0)
(0.0936406 -0.439446 2.58646e-21)
(0.0775713 -0.518079 1.1899e-20)
(0.058383 -0.594886 -1.1588e-20)
(0.0364239 -0.654357 -3.20219e-21)
(0.0125914 -0.685854 3.14369e-21)
(0.180582 -0.196017 0)
(0.169762 -0.220298 0)
(0.15266 -0.260591 0)
(0.136294 -0.306767 0)
(0.12165 -0.363674 0)
(0.105028 -0.431956 0)
(0.0867769 -0.508189 0)
(0.0651272 -0.582498 0)
(0.0404184 -0.640354 0)
(0.0133879 -0.67172 0)
(0.202794 -0.174454 0)
(0.207163 -0.203832 0)
(0.180833 -0.248935 0)
(0.165669 -0.29414 0)
(0.148253 -0.35127 0)
(0.128576 -0.417809 0)
(0.106614 -0.490452 0)
(0.0803734 -0.559741 0)
(0.0503847 -0.612347 0)
(0.0179387 -0.639122 0)
(0.235558 -0.152566 0)
(0.245863 -0.18239 0)
(0.210774 -0.227578 0)
(0.199447 -0.271213 0)
(0.17746 -0.328332 0)
(0.154363 -0.391967 0)
(0.127673 -0.460818 0)
(0.0958334 -0.526311 0)
(0.0593934 -0.576868 0)
(0.0193364 -0.604862 0)
(0.278105 -0.137145 0)
(0.290292 -0.165964 0)
(0.248981 -0.210433 0)
(0.242426 -0.253087 0)
(0.213545 -0.309616 0)
(0.187474 -0.368801 0)
(0.155026 -0.432917 0)
(0.11656 -0.491927 0)
(0.0729177 -0.535663 0)
(0.0261639 -0.556836 0)
(0.329996 -0.118695 0)
(0.341102 -0.145999 0)
(0.295761 -0.187325 0)
(0.291303 -0.226697 0)
(0.252078 -0.278759 0)
(0.22278 -0.331082 0)
(0.181798 -0.389624 0)
(0.135553 -0.442752 0)
(0.0832117 -0.48418 0)
(0.0261224 -0.508609 0)
(0.395452 -0.107775 0)
(0.403736 -0.133035 0)
(0.3558 -0.170757 0)
(0.349604 -0.206047 0)
(0.299417 -0.25314 0)
(0.268402 -0.298849 0)
(0.21681 -0.351294 0)
(0.162115 -0.395174 0)
(0.1006 -0.428011 0)
(0.037316 -0.441328 0)
(0.469528 -0.0856067 0)
(0.470442 -0.106634 0)
(0.420047 -0.138055 0)
(0.407092 -0.167101 0)
(0.34656 -0.206373 0)
(0.311951 -0.243334 0)
(0.243346 -0.286203 0)
(0.180074 -0.321127 0)
(0.106887 -0.354209 0)
(0.0296709 -0.377828 0)
(0.555842 -0.0741404 0)
(0.546152 -0.0902557 0)
(0.497165 -0.115716 0)
(0.473302 -0.138055 0)
(0.408179 -0.169361 0)
(0.364986 -0.197114 0)
(0.28189 -0.230549 0)
(0.213863 -0.258556 0)
(0.13034 -0.286033 0)
(0.0564479 -0.288517 0)
(0.623741 -0.0393646 0)
(0.603268 -0.0478791 0)
(0.549121 -0.0635895 0)
(0.511968 -0.0755007 0)
(0.439068 -0.0944185 0)
(0.381529 -0.108619 0)
(0.28448 -0.128847 0)
(0.206266 -0.144699 0)
(0.100765 -0.171274 0)
(-0.00228849 -0.215778 0)
(0.808936 -0.0195752 0)
(0.783053 -0.0237144 0)
(0.736932 -0.0299096 0)
(0.693479 -0.0355956 0)
(0.627716 -0.0439323 0)
(0.562297 -0.0518151 0)
(0.470289 -0.0638406 0)
(0.376145 -0.0779689 0)
(0.249953 -0.106194 0)
(0.16727 -0.160115 0)
(0.215551 -0.171927 1.29049e-20)
(0.2416 -0.147185 -1.27006e-20)
(0.274613 -0.127172 2.15766e-21)
(0.315314 -0.113317 0)
(0.365621 -0.0974726 0)
(0.427827 -0.0881856 3.28662e-21)
(0.499556 -0.0693323 -1.56163e-20)
(0.580798 -0.0606949 1.54926e-20)
(0.650385 -0.0308573 4.47453e-21)
(0.829193 -0.01642 -4.49073e-21)
(0.224828 -0.161779 -1.15895e-20)
(0.250301 -0.136108 0)
(0.28315 -0.117123 1.5223e-20)
(0.323841 -0.103915 -3.6815e-20)
(0.374248 -0.0890822 2.48571e-20)
(0.436221 -0.0804557 -2.9996e-21)
(0.507788 -0.0628577 6.56812e-21)
(0.588049 -0.0552764 1.47167e-20)
(0.659141 -0.0274294 4.14927e-21)
(0.836084 -0.0150983 4.0156e-21)
(0.232927 -0.150079 1.35006e-20)
(0.25682 -0.124641 -1.4362e-20)
(0.2887 -0.107004 1.42271e-20)
(0.329068 -0.0945372 -1.9749e-20)
(0.379486 -0.0807848 1.43465e-20)
(0.441495 -0.0729041 0)
(0.513084 -0.0566229 -6.58434e-21)
(0.593024 -0.0501917 -7.0834e-23)
(0.66603 -0.0243125 -7.71611e-21)
(0.841683 -0.0138539 -8.02989e-21)
(0.241998 -0.137528 -2.38502e-21)
(0.264978 -0.112923 0)
(0.295829 -0.0967279 0)
(0.335558 -0.0850925 0)
(0.385676 -0.0725117 1.62888e-20)
(0.447434 -0.065473 -1.10724e-20)
(0.518816 -0.0505833 -3.86621e-22)
(0.598296 -0.0453819 -7.52034e-21)
(0.672796 -0.021468 -3.89719e-21)
(0.847131 -0.0126886 -3.96859e-21)
(0.250698 -0.124602 2.93686e-21)
(0.273127 -0.101194 -7.72785e-21)
(0.303197 -0.0864229 -8.21666e-21)
(0.342531 -0.0756613 8.21192e-21)
(0.392423 -0.0643009 -5.14402e-21)
(0.453954 -0.0581745 0)
(0.5251 -0.0447095 -6.50735e-21)
(0.604066 -0.0407624 1.45137e-20)
(0.679699 -0.018812 -7.33638e-21)
(0.852592 -0.0115837 7.94224e-21)
(0.258496 -0.111383 -1.8022e-20)
(0.280304 -0.0895143 8.06465e-22)
(0.309465 -0.0761682 -1.33353e-21)
(0.34861 -0.0663532 8.07679e-21)
(0.398421 -0.0562421 0)
(0.459911 -0.0510761 0)
(0.530985 -0.0390326 0)
(0.609593 -0.0363199 6.9751e-21)
(0.686293 -0.0163042 0)
(0.857777 -0.0105299 0)
(0.265402 -0.0979047 0)
(0.286472 -0.0778332 9.52925e-21)
(0.314497 -0.0659255 -6.61353e-21)
(0.353415 -0.0571903 -9.27431e-21)
(0.403144 -0.0483564 9.32276e-21)
(0.464672 -0.044208 5.96482e-21)
(0.53581 -0.0335703 -5.65859e-21)
(0.614273 -0.0320683 -2.41207e-20)
(0.692119 -0.0139451 1.7088e-21)
(0.862369 -0.00952682 -5.75852e-21)
(0.271363 -0.0842123 0)
(0.291579 -0.0661128 -2.92582e-21)
(0.318514 -0.0556515 -1.7914e-21)
(0.35709 -0.0481334 0)
(0.406625 -0.0406048 2.79455e-21)
(0.468161 -0.037538 -8.09516e-21)
(0.53941 -0.0283011 9.54193e-21)
(0.617874 -0.0280012 3.63422e-21)
(0.696935 -0.0117293 -3.63763e-21)
(0.866214 -0.00857435 7.69683e-21)
(0.276238 -0.0703171 1.68141e-21)