/*--------------------------------*- C++ -*----------------------------------*\
  =========                 |
  \\      /  F ield         | OpenFOAM: The Open Source CFD Toolbox
   \\    /   O peration     | Website:  https://openfoam.org
    \\  /    A nd           | Version:  7
     \\/     M anipulation  |
\*---------------------------------------------------------------------------*/
FoamFile
{
    version     2.0;
    format      ascii;
    class       volScalarField;
    location    "4.6";
    object      p;
}
// * * * * * * * * * * * * * * * * * * * * * * * * * * * * * * * * * * * * * //

dimensions      [0 2 -2 0 0 0 0];

internalField   nonuniform List<scalar> 
2000
(
0.306097
0.311025
0.314832
0.318836
0.322696
0.326285
0.329567
0.332537
0.335207
0.337568
0.303334
0.308622
0.312626
0.316747
0.320631
0.324162
0.327321
0.330112
0.332539
0.334644
0.300391
0.306145
0.310392
0.314662
0.318593
0.322087
0.325142
0.327772
0.329978
0.331803
0.29727
0.303595
0.308119
0.312561
0.316558
0.320029
0.322996
0.32549
0.327509
0.329041
0.29393
0.300945
0.305779
0.310414
0.314487
0.317947
0.320842
0.323228
0.32511
0.326354
0.290337
0.298174
0.303347
0.308187
0.312341
0.315791
0.318622
0.320929
0.322745
0.323742
0.286468
0.295267
0.300804
0.305852
0.310077
0.313506
0.316269
0.318516
0.320351
0.3212
0.282322
0.292223
0.298136
0.303383
0.307656
0.311035
0.313708
0.315901
0.317868
0.318786
0.277923
0.289052
0.29534
0.300759
0.305037
0.308312
0.310842
0.312989
0.315338
0.316881
0.273323
0.285779
0.292425
0.297972
0.30218
0.305228
0.307429
0.309279
0.311781
0.314354
0.342377
0.350554
0.355005
0.359522
0.362904
0.36575
0.367887
0.369478
0.370462
0.370965
0.339264
0.34748
0.351846
0.356348
0.359744
0.362615
0.364795
0.36643
0.367456
0.368001
0.335958
0.34443
0.348662
0.353148
0.356558
0.359458
0.361688
0.363373
0.364445
0.365034
0.332411
0.341386
0.345452
0.349926
0.353348
0.35628
0.358564
0.360303
0.361426
0.362056
0.328591
0.338311
0.342212
0.346676
0.350114
0.353081
0.355423
0.357219
0.358393
0.359062
0.324508
0.335162
0.33894
0.343397
0.346857
0.349861
0.352263
0.354116
0.355341
0.356043
0.320204
0.331875
0.335621
0.340076
0.343571
0.346616
0.34908
0.35099
0.352264
0.352992
0.315685
0.328273
0.332161
0.336646
0.340209
0.343316
0.345856
0.347829
0.349153
0.3499
0.311211
0.324163
0.328425
0.333009
0.336715
0.33993
0.342574
0.344623
0.346001
0.346762
0.3089
0.320608
0.325064
0.329689
0.333507
0.336764
0.33943
0.341478
0.342849
0.343577
0.312962
0.31779
0.32095
0.324885
0.328169
0.330748
0.332806
0.334368
0.335391
0.335884
0.288886
0.296819
0.302604
0.3083
0.312807
0.316121
0.31861
0.320424
0.321617
0.322189
0.262096
0.272868
0.280987
0.288449
0.294417
0.298816
0.302032
0.304297
0.305744
0.306425
0.232898
0.246033
0.256188
0.265377
0.272899
0.278547
0.282672
0.285591
0.287497
0.288413
0.200622
0.215571
0.227554
0.238422
0.24751
0.254462
0.259531
0.263029
0.265195
0.266215
0.164369
0.180968
0.194608
0.206963
0.217428
0.225615
0.231778
0.236279
0.239317
0.240818
0.125691
0.143164
0.15818
0.171574
0.182859
0.191649
0.198098
0.202565
0.205376
0.206771
0.0823084
0.100756
0.116586
0.130409
0.141995
0.151264
0.158499
0.163948
0.167605
0.169317
0.0428089
0.0584201
0.0730504
0.085187
0.0946939
0.101724
0.106759
0.110307
0.112646
0.113892
-0.00305666
0.0115835
0.0225277
0.0314896
0.0388767
0.0447332
0.0490616
0.0521218
0.054048
0.0548349
0.292094
0.271214
0.247056
0.217872
0.185605
0.14887
0.112173
0.0677535
0.0370022
-0.0170487
0.289787
0.26585
0.24089
0.211018
0.178506
0.141605
0.105453
0.060818
0.0336639
-0.0230068
0.286111
0.259801
0.234105
0.203768
0.171105
0.134208
0.0985327
0.0540836
0.0300224
-0.0286392
0.281123
0.253715
0.227471
0.19681
0.163998
0.127142
0.0918491
0.0478298
0.0264159
-0.034133
0.275647
0.247885
0.221117
0.190164
0.157177
0.120387
0.0853972
0.0420377
0.0227721
-0.0399945
0.270125
0.242423
0.215126
0.18387
0.150676
0.113974
0.0792312
0.0367793
0.0190237
-0.0469048
0.264933
0.237428
0.209601
0.178
0.144557
0.107954
0.0734344
0.0321734
0.0153608
-0.0533558
0.260432
0.233011
0.204639
0.17262
0.138877
0.10237
0.0680766
0.0282842
0.0123439
-0.0519706
0.256927
0.229279
0.200322
0.167793
0.133685
0.0972548
0.0631993
0.0250756
0.0101121
-0.0434751
0.25465
0.226341
0.196719
0.16357
0.129021
0.0926307
0.0588155
0.0224436
0.00842761
-0.0358845
0.253754
0.224298
0.193888
0.159997
0.12492
0.0885118
0.0549252
0.0202355
0.00630698
-0.0291483
0.254333
0.223252
0.191887
0.15712
0.121411
0.0849095
0.0515232
0.0183854
0.00448917
-0.0235082
0.256442
0.223297
0.190776
0.154988
0.118526
0.0818359
0.0486102
0.0169116
0.00309504
-0.0188519
0.260175
0.224451
0.190598
0.153639
0.116282
0.079295
0.0461787
0.0157793
0.00207664
-0.0149826
0.265557
0.226633
0.191318
0.153026
0.114647
0.077263
0.0441853
0.0149388
0.00141867
-0.0117562
0.271587
0.230444
0.192818
0.153034
0.113543
0.0756938
0.0426025
0.0143541
0.00106337
-0.00906995
0.278688
0.235335
0.195288
0.153879
0.113108
0.0746258
0.0414251
0.0140003
0.000954212
-0.00684003
0.287403
0.242705
0.200051
0.156588
0.114034
0.0744481
0.0407916
0.0138879
0.00104443
-0.00498761
0.298321
0.253574
0.20787
0.161695
0.116733
0.0754944
0.0409368
0.0141781
0.00137581
-0.00342927
0.305178
0.26057
0.2124
0.164272
0.117978
0.0761188
0.0413728
0.0150975
0.00219379
-0.00210746
0.302563
0.258712
0.209015
0.159965
0.114329
0.0744519
0.0420938
0.0186175
0.00553536
0.000446894
0.301489
0.255663
0.200409
0.148728
0.10282
0.0649168
0.0362968
0.0174613
0.00720189
0.00186731
0.299883
0.248928
0.192514
0.140524
0.096819
0.0626719
0.037899
0.0214951
0.0110451
0.00332262
0.298924
0.244166
0.186792
0.136083
0.0954243
0.0649087
0.0429843
0.0273921
0.0153415
0.00479304
0.300779
0.24354
0.186204
0.137812
0.100113
0.0718292
0.0505908
0.0339027
0.0194704
0.0062365
0.307693
0.249241
0.192646
0.146223
0.109995
0.0818977
0.0594161
0.0404125
0.0233639
0.00758251
0.32055
0.261927
0.2059
0.159945
0.123081
0.0932456
0.0682871
0.0465922
0.0270179
0.00878156
0.338058
0.279592
0.223216
0.176013
0.136895
0.104315
0.0765611
0.0522961
0.0303786
0.00985571
0.355715
0.297198
0.239853
0.190602
0.148839
0.113638
0.0834793
0.0570714
0.0331861
0.0107833
0.366898
0.308401
0.250242
0.19945
0.155978
0.119236
0.0876684
0.0599487
0.0348538
0.0113454
0.340007
0.339704
0.33706
0.33713
0.340143
0.347543
0.359424
0.374954
0.391002
0.400996
0.351702
0.35099
0.349109
0.349978
0.353764
0.361721
0.3737
0.388793
0.404263
0.413878
0.361981
0.360097
0.358802
0.3604
0.364934
0.373461
0.385719
0.400614
0.415474
0.424698
0.370294
0.369135
0.368283
0.370402
0.375465
0.384305
0.396597
0.411157
0.425369
0.434201
0.379854
0.378014
0.377562
0.380133
0.385618
0.394615
0.406737
0.42078
0.434264
0.442646
0.388411
0.386292
0.386239
0.389227
0.395065
0.40413
0.415974
0.429394
0.442091
0.449966
0.395926
0.39381
0.394147
0.397502
0.40361
0.412656
0.424146
0.436886
0.448768
0.456107
0.402478
0.400544
0.401242
0.404912
0.411205
0.420149
0.431219
0.443246
0.45431
0.46111
0.408065
0.406475
0.40751
0.411448
0.417852
0.426627
0.437229
0.44853
0.458792
0.465065
0.412715
0.4116
0.412953
0.41712
0.423574
0.432132
0.442241
0.452822
0.462312
0.468079
0.416498
0.415942
0.417603
0.421962
0.428421
0.436732
0.44634
0.456222
0.464979
0.470272
0.419504
0.419542
0.421505
0.426026
0.432457
0.440505
0.449622
0.45884
0.466911
0.471762
0.421839
0.422459
0.424725
0.42938
0.43576
0.443543
0.452189
0.460787
0.468222
0.472664
0.423607
0.424758
0.42733
0.432096
0.438414
0.445938
0.454141
0.462168
0.469018
0.473086
0.424907
0.426509
0.429391
0.434248
0.440498
0.447778
0.455574
0.463078
0.469396
0.473119
0.425823
0.427791
0.430982
0.435912
0.442094
0.449147
0.456571
0.463604
0.469437
0.472844
0.426423
0.428683
0.432166
0.437156
0.443272
0.45012
0.457208
0.463817
0.469211
0.472327
0.426726
0.429208
0.43295
0.437991
0.444052
0.450729
0.457531
0.463769
0.46877
0.471618
0.426624
0.429339
0.433304
0.438394
0.444424
0.450978
0.457556
0.46349
0.468152
0.470758
0.426256
0.429542
0.433778
0.438916
0.444863
0.451232
0.457534
0.463133
0.467449
0.469817
0.426876
0.432436
0.437699
0.443045
0.448481
0.453813
0.45873
0.462905
0.466014
0.467697
0.429469
0.434312
0.439343
0.444341
0.449153
0.453584
0.457373
0.460343
0.462378
0.463417
0.431568
0.435704
0.440221
0.44463
0.448699
0.452248
0.455066
0.457052
0.458255
0.458787
0.432584
0.436352
0.440452
0.444337
0.447739
0.450492
0.452434
0.453523
0.453945
0.453976
0.432446
0.436075
0.439868
0.443354
0.446245
0.448363
0.449569
0.44984
0.449449
0.448855
0.431296
0.435017
0.438626
0.441824
0.444343
0.445974
0.446565
0.446058
0.444711
0.443103
0.429364
0.433497
0.437001
0.439979
0.442215
0.443469
0.443538
0.442238
0.439532
0.436152
0.427494
0.432142
0.435499
0.438277
0.44022
0.441075
0.440546
0.438273
0.433435
0.425324
0.427393
0.432159
0.435388
0.438141
0.439851
0.440224
0.438779
0.435237
0.428918
0.412047
0.432483
0.436912
0.440982
0.445352
0.44913
0.45234
0.455582
0.458272
0.443977
0.359259
0.421238
0.424397
0.426726
0.428466
0.429156
0.429214
0.428875
0.428839
0.428904
0.432301
0.418869
0.423034
0.425474
0.427372
0.428196
0.428391
0.428236
0.428505
0.428689
0.431687
0.417091
0.422384
0.42486
0.426751
0.427505
0.427611
0.42735
0.427543
0.427725
0.430383
0.415523
0.42167
0.424167
0.426085
0.426768
0.426797
0.426445
0.426544
0.426672
0.428978
0.414054
0.420821
0.423343
0.42532
0.425956
0.425935
0.425531
0.425579
0.425672
0.427679
0.412721
0.419875
0.422529
0.424516
0.425114
0.425041
0.424591
0.424599
0.424672
0.426448
0.411605
0.418841
0.42173
0.423701
0.424265
0.424134
0.423632
0.423592
0.423641
0.425233
0.410576
0.417762
0.42093
0.422881
0.423422
0.423227
0.422668
0.422573
0.422589
0.424024
0.40961
0.416636
0.420135
0.422069
0.422596
0.422333
0.421708
0.421537
0.42154
0.422828
0.40869
0.415463
0.419355
0.421278
0.421802
0.421468
0.420767
0.420511
0.420487
0.421647
0.40779
0.414246
0.418594
0.420522
0.421056
0.420647
0.419855
0.419501
0.419438
0.420491
0.406873
0.412991
0.417858
0.419813
0.42037
0.419883
0.418985
0.41851
0.418398
0.419369
0.405888
0.411706
0.417143
0.419159
0.419758
0.419192
0.418166
0.417546
0.417375
0.418292
0.404771
0.410402
0.416439
0.418569
0.41923
0.418587
0.417412
0.416613
0.416373
0.417275
0.403446
0.409088
0.415731
0.418043
0.418792
0.41808
0.416734
0.415719
0.415397
0.416337
0.40182
0.407776
0.415002
0.417582
0.418449
0.417681
0.416145
0.414871
0.414452
0.415506
0.399805
0.40648
0.414246
0.417187
0.418207
0.417403
0.415654
0.414071
0.413541
0.414816
0.397273
0.405175
0.41346
0.416869
0.418085
0.417258
0.415247
0.413265
0.412625
0.414306
0.393839
0.40363
0.41253
0.416557
0.418044
0.417233
0.41492
0.412427
0.411647
0.414013
0.389594
0.40164
0.411176
0.415938
0.417849
0.41729
0.414995
0.412259
0.411261
0.414084
0.383183
0.3972
0.407232
0.413475
0.416818
0.417877
0.417483
0.416625
0.416191
0.417088
0.387939
0.399758
0.408792
0.414765
0.417959
0.418809
0.418042
0.416835
0.416292
0.416433
0.391637
0.402488
0.410983
0.416837
0.420014
0.420737
0.419678
0.418077
0.417076
0.416656
0.394664
0.405024
0.413433
0.419468
0.42284
0.423577
0.422345
0.420637
0.419758
0.419236
0.397726
0.407941
0.416503
0.422896
0.426547
0.427218
0.425581
0.423725
0.423798
0.424281
0.400784
0.411124
0.420118
0.427125
0.431232
0.431753
0.429387
0.427404
0.430189
0.434637
0.403581
0.414313
0.424101
0.432167
0.437188
0.437771
0.434514
0.433141
0.442341
0.457625
0.406003
0.417374
0.428275
0.438022
0.444962
0.446957
0.444571
0.446545
0.470641
0.514029
0.407801
0.419892
0.432228
0.444378
0.454792
0.460663
0.461906
0.471375
0.526693
0.632083
0.408995
0.421723
0.435576
0.450749
0.466409
0.48022
0.494963
0.53393
0.650184
0.869118
0.372375
0.380091
0.383891
0.387834
0.391359
0.394593
0.397176
0.399292
0.40062
0.401421
0.367831
0.376841
0.380782
0.385103
0.388721
0.391957
0.394443
0.396426
0.397598
0.398251
0.364872
0.374417
0.378276
0.382743
0.386249
0.389354
0.391691
0.393513
0.394573
0.395117
0.362079
0.372017
0.375671
0.380259
0.383653
0.386652
0.388872
0.390563
0.39155
0.39202
0.359289
0.369105
0.37301
0.377598
0.380903
0.383841
0.385986
0.387583
0.388529
0.388952
0.356529
0.366079
0.370181
0.374759
0.378071
0.38096
0.383056
0.38458
0.385512
0.385911
0.353782
0.363016
0.36726
0.371831
0.375153
0.378002
0.380072
0.381582
0.382498
0.382893
0.351018
0.359912
0.364274
0.368834
0.372168
0.374992
0.377058
0.37857
0.379484
0.379893
0.348214
0.356784
0.361228
0.365776
0.369125
0.371943
0.37402
0.375548
0.376473
0.376906
0.345345
0.353658
0.358135
0.362668
0.366034
0.368861
0.370962
0.372517
0.373466
0.373932
0.268605
0.282447
0.28942
0.295041
0.299094
0.301755
0.303284
0.303886
0.303228
0.299115
0.263882
0.279128
0.286381
0.292025
0.295883
0.298151
0.299102
0.298897
0.297099
0.292565
0.25933
0.275912
0.283379
0.288995
0.292635
0.294544
0.295041
0.294332
0.29218
0.288171
0.255134
0.272901
0.2805
0.286032
0.289433
0.290999
0.291104
0.289999
0.287636
0.283998
0.251492
0.270218
0.277854
0.283244
0.286387
0.287626
0.287386
0.285959
0.283442
0.280008
0.248614
0.268004
0.275573
0.280765
0.283637
0.28457
0.284023
0.28232
0.279648
0.27625
0.24672
0.266414
0.27381
0.278755
0.28135
0.281996
0.281173
0.279211
0.276351
0.272838
0.246036
0.265626
0.272739
0.277394
0.279709
0.280089
0.279007
0.276793
0.273706
0.269964
0.246771
0.265823
0.272548
0.27687
0.278905
0.279032
0.277706
0.275239
0.271893
0.267849
0.248976
0.26711
0.273373
0.277341
0.2791
0.278989
0.277428
0.274709
0.271088
0.266709
0.252441
0.269437
0.275253
0.27889
0.280401
0.280075
0.278295
0.275333
0.271437
0.266727
0.257986
0.273326
0.278571
0.281809
0.283033
0.282469
0.280453
0.277239
0.273069
0.268048
0.265519
0.278756
0.283341
0.286131
0.287035
0.28621
0.283942
0.280472
0.276039
0.27075
0.274952
0.285721
0.289582
0.291877
0.292423
0.291306
0.288766
0.285028
0.280349
0.274861
0.28621
0.294208
0.297284
0.299028
0.299167
0.297716
0.294872
0.290848
0.285927
0.280337
0.299149
0.30414
0.306371
0.307504
0.307178
0.305349
0.302165
0.297828
0.292661
0.286925
0.313544
0.315371
0.316701
0.317163
0.316319
0.314068
0.310515
0.305838
0.300381
0.294475
0.329101
0.327686
0.328074
0.327813
0.326409
0.323704
0.319758
0.314689
0.308781
0.302586
0.345458
0.340818
0.340234
0.33922
0.337239
0.334081
0.329735
0.32416
0.317391
0.310603
0.3622
0.354442
0.352888
0.35112
0.348591
0.345057
0.340443
0.334459
0.326725
0.318954
0.378928
0.368234
0.365725
0.363218
0.360195
0.356431
0.35187
0.346196
0.339147
0.334643
0.39543
0.381909
0.378425
0.375179
0.371687
0.367725
0.36323
0.35795
0.351892
0.348542
0.411067
0.395024
0.390617
0.386668
0.382733
0.37858
0.374114
0.369132
0.363707
0.360575
0.425382
0.407232
0.401993
0.397403
0.393066
0.388741
0.384299
0.37956
0.374575
0.371379
0.438039
0.41825
0.412297
0.407152
0.402473
0.398014
0.393618
0.389118
0.38452
0.381425
0.448782
0.427852
0.421326
0.415733
0.410792
0.406253
0.401935
0.397686
0.393474
0.390499
0.457441
0.435876
0.428937
0.423023
0.417915
0.413361
0.409165
0.405188
0.401376
0.39856
0.463932
0.44223
0.43505
0.428955
0.423784
0.419288
0.415261
0.41158
0.408179
0.405567
0.468257
0.446885
0.439641
0.433511
0.428385
0.424024
0.420216
0.416853
0.413868
0.411498
0.470497
0.449874
0.442742
0.43672
0.431749
0.4276
0.424059
0.421033
0.418463
0.416367
0.470825
0.451297
0.444441
0.438665
0.433951
0.430084
0.426854
0.424181
0.422019
0.420224
0.469476
0.451287
0.444831
0.43942
0.435058
0.431541
0.428667
0.426365
0.424606
0.423136
0.466641
0.449992
0.444051
0.43911
0.435184
0.432079
0.429601
0.427684
0.426319
0.425193
0.46255
0.447588
0.442256
0.437873
0.434453
0.431811
0.429761
0.428244
0.427263
0.426493
0.457444
0.444257
0.439601
0.435844
0.432986
0.430849
0.429257
0.428149
0.427542
0.427131
0.451559
0.440177
0.436243
0.433159
0.430905
0.429305
0.428191
0.427504
0.427258
0.427201
0.445118
0.435521
0.432331
0.429948
0.428324
0.427282
0.426663
0.426405
0.42651
0.426793
0.438323
0.430447
0.428003
0.426331
0.425349
0.424877
0.424763
0.424941
0.425389
0.425986
0.431352
0.4251
0.423385
0.422416
0.422075
0.422174
0.422568
0.423187
0.423977
0.424844
0.424365
0.419607
0.418585
0.418297
0.418585
0.41925
0.420147
0.421221
0.422422
0.423567
0.417468
0.414063
0.413687
0.414045
0.414937
0.416155
0.417554
0.419139
0.421077
0.42276
0.410626
0.4085
0.408748
0.409719
0.411182
0.412914
0.414758
0.416706
0.418927
0.420694
0.404022
0.403033
0.403852
0.405383
0.40737
0.409574
0.411826
0.414098
0.41653
0.418419
0.397727
0.397743
0.399053
0.401084
0.403547
0.406186
0.408824
0.411419
0.414087
0.416175
0.391801
0.39265
0.394384
0.396858
0.399749
0.402786
0.405787
0.40869
0.411595
0.413957
0.386257
0.387777
0.389873
0.39273
0.395998
0.399397
0.402735
0.405926
0.409049
0.41175
0.381094
0.383139
0.385535
0.388717
0.392315
0.396036
0.39968
0.403151
0.406484
0.40927
0.376295
0.378735
0.381374
0.384827
0.388708
0.392714
0.396637
0.400366
0.403901
0.406893
0.37184
0.374551
0.377385
0.381059
0.385179
0.389433
0.393606
0.397572
0.401296
0.404535
0.367789
0.370616
0.37358
0.377422
0.381733
0.386195
0.390587
0.394762
0.398652
0.402144
0.364342
0.36705
0.370031
0.373956
0.378392
0.38301
0.387579
0.391931
0.395958
0.399694
0.360923
0.363551
0.366567
0.370565
0.375104
0.379849
0.384565
0.389067
0.393202
0.397154
0.357617
0.360173
0.363213
0.367262
0.371872
0.376709
0.381539
0.386158
0.390366
0.394492
0.354455
0.356929
0.359974
0.364044
0.368694
0.373588
0.378495
0.383198
0.387439
0.391673
0.351409
0.353799
0.356834
0.360902
0.365563
0.370482
0.37543
0.380184
0.384416
0.388665
0.348447
0.350761
0.353777
0.357828
0.362476
0.367391
0.372348
0.377119
0.381303
0.385462
0.345544
0.347801
0.350795
0.354816
0.359433
0.36432
0.36926
0.37402
0.378125
0.382139
0.342683
0.344907
0.347878
0.351862
0.356436
0.361279
0.366182
0.370911
0.374917
0.378781
0.33985
0.342069
0.345023
0.348967
0.353488
0.358276
0.363125
0.367796
0.371654
0.375254
0.337041
0.339286
0.342226
0.34613
0.350597
0.355332
0.360128
0.364747
0.36858
0.371939
0.334237
0.336543
0.339476
0.343341
0.347757
0.352457
0.357255
0.362097
0.367254
0.372482
0.331324
0.333791
0.336752
0.34059
0.344944
0.349566
0.354266
0.358993
0.364063
0.368787
0.328396
0.331074
0.334075
0.337887
0.342163
0.346666
0.351211
0.355738
0.360467
0.364588
0.325487
0.328405
0.331455
0.335243
0.339433
0.343805
0.348189
0.352535
0.356996
0.360757
0.322604
0.325784
0.328894
0.332666
0.336774
0.341011
0.345232
0.349392
0.353599
0.357116
0.319752
0.323212
0.326396
0.330164
0.334196
0.338302
0.342355
0.346319
0.35027
0.353593
0.316933
0.320687
0.323963
0.327742
0.331709
0.335689
0.339576
0.343339
0.347034
0.350184
0.31414
0.318202
0.32159
0.325399
0.329315
0.33318
0.336905
0.340466
0.343905
0.346883
0.311361
0.315743
0.319268
0.323129
0.327013
0.330775
0.334345
0.337705
0.340888
0.343682
0.308638
0.313326
0.317001
0.320933
0.324802
0.328474
0.331897
0.335061
0.337986
0.340577
)
;

boundaryField
{
    inlet
    {
        type            zeroGradient;
    }
    outlet
    {
        type            fixedValue;
        value           uniform 0;
    }
    cylinder
    {
        type            zeroGradient;
    }
    top
    {
        type            symmetryPlane;
    }
    bottom
    {
        type            symmetryPlane;
    }
    defaultFaces
    {
        type            empty;
    }
}


// ************************************************************************* //
