/*--------------------------------*- C++ -*----------------------------------*\
  =========                 |
  \\      /  F ield         | OpenFOAM: The Open Source CFD Toolbox
   \\    /   O peration     | Website:  https://openfoam.org
    \\  /    A nd           | Version:  7
     \\/     M anipulation  |
\*---------------------------------------------------------------------------*/
FoamFile
{
    version     2.0;
    format      ascii;
    class       surfaceScalarField;
    location    "6";
    object      phi;
}
// * * * * * * * * * * * * * * * * * * * * * * * * * * * * * * * * * * * * * //

dimensions      [0 3 -1 0 0 0 0];

internalField   nonuniform List<scalar> 
3880
(
0.000135179
0.00345311
-0.00358829
0.000503687
0.00813729
-0.00850579
0.00106723
0.0116455
-0.012209
0.0017905
0.0143852
-0.0151085
0.00264068
0.0165888
-0.017439
0.00358671
0.0183946
-0.0193407
0.00459832
0.0198892
-0.0209008
0.00564521
0.0211298
-0.0221767
0.00669629
0.0221545
-0.0232056
0.0229851
0.00771962
-0.0240084
0.000142893
0.00331022
0.000541897
0.00773828
0.00115985
0.0110275
0.00196149
0.0135836
0.0029138
0.0156365
0.00398533
0.0173231
0.00514479
0.0187298
0.0063598
0.0199148
0.00759545
0.0209188
0.0217669
0.00881361
0.000151047
0.00315917
0.000582859
0.00730647
0.00125813
0.0103522
0.00214084
0.0127008
0.00319761
0.0145797
0.00439691
0.0161238
0.00570745
0.0174192
0.00709609
0.0185261
0.00852509
0.0194898
0.0203422
0.00994978
0.000160829
0.00299834
0.000629995
0.0068373
0.00136836
0.00961387
0.00233802
0.0117312
0.00350453
0.0134132
0.00483646
0.0147919
0.00630342
0.0159523
0.00787319
0.0169564
0.00950717
0.0178558
0.0186947
0.0111547
0.000173812
0.00282453
0.000687766
0.00632335
0.00149885
0.00880279
0.00256572
0.0106643
0.0038518
0.0121271
0.00532518
0.0133185
0.00695686
0.0143206
0.00871746
0.0151958
0.0105708
0.0160025
0.0168029
0.0124625
0.000191821
0.00263271
0.000761329
0.00575384
0.00165933
0.00790479
0.00283933
0.00948431
0.004261
0.0107055
0.00589051
0.011689
0.00769957
0.0125115
0.00966296
0.0132324
0.0117513
0.0139142
0.0146417
0.0139126
0.000216769
0.00241594
0.000856011
0.0051146
0.00186002
0.00690077
0.00317554
0.0081688
0.0047567
0.00912431
0.00656542
0.00988027
0.00857155
0.0105054
0.010753
0.0110509
0.0130917
0.0115755
0.0121852
0.0155482
0.000250388
0.00216555
0.000976521
0.00438847
0.00211007
0.00576723
0.00358997
0.0066889
0.00536365
0.00735063
0.00738614
0.00785777
0.00962082
0.00827074
0.0120428
0.00862891
0.014645
0.00897338
0.00940629
0.0174239
0.000293941
0.00187161
0.001126
0.00355641
0.00241546
0.00447777
0.00409357
0.00501078
0.0061017
0.00534251
0.00838779
0.00557168
0.0109047
0.00575379
0.0136125
0.00592118
0.0164967
0.00608915
0.00626298
0.01964
0.000347938
0.00152367
0.00130504
0.00259931
0.00277658
0.00300622
0.00468732
0.00310004
0.00697651
0.00305332
0.00959247
0.00295573
0.0124884
0.00285788
0.0156149
0.0027947
0.0189082
0.00279582
0.0223834
0.00278778
0.00871968
0.0877586
-0.0887587
0.00909443
0.0933532
-0.0937279
0.00868444
0.0968667
-0.0964567
0.00775972
0.0999303
-0.0990056
0.0065247
0.103134
-0.101899
0.00515105
0.106642
-0.105268
0.00376141
0.110293
-0.108904
0.00242923
0.113835
-0.112503
0.00117901
0.116818
-0.115568
0.118602
-0.117423
0.0101561
0.0864162
0.0107904
0.0927188
0.0105098
0.0971473
0.00958322
0.100857
0.00822974
0.104488
0.00664185
0.10823
0.00496027
0.111975
0.00327242
0.115523
0.00161645
0.118474
0.120219
0.0115948
0.0847711
0.0124742
0.0918394
0.0123315
0.0972901
0.011415
0.101773
0.0099515
0.105951
0.00815113
0.11003
0.00617432
0.113952
0.00412543
0.117572
0.00205849
0.120541
0.122277
0.0130496
0.0828763
0.014143
0.0907459
0.0141377
0.0972954
0.013241
0.10267
0.0116781
0.107514
0.009671
0.112037
0.00739962
0.116223
0.00498711
0.119984
0.00250525
0.123023
0.124782
0.0145442
0.0807946
0.0158019
0.0894882
0.0159215
0.0971758
0.0150492
0.103542
0.0133976
0.109166
0.0111927
0.114242
0.00863123
0.118785
0.00585551
0.12276
0.00295637
0.125922
0.127739
0.0161112
0.0785959
0.0174644
0.088135
0.0176807
0.0969594
0.0168294
0.104394
0.0150982
0.110897
0.0127067
0.116633
0.00986306
0.121628
0.00672768
0.125895
0.00341093
0.129239
0.13115
0.017786
0.0763581
0.0191499
0.0867711
0.0194173
0.096692
0.0185728
0.105238
0.0167674
0.112703
0.0142016
0.119199
0.0110871
0.124743
0.00759922
0.129383
0.00386724
0.132971
0.135017
0.0195962
0.0741858
0.0208765
0.0854908
0.0211325
0.096436
0.0202689
0.106102
0.0183898
0.114582
0.0156628
0.121926
0.0122924
0.128113
0.00846342
0.133212
0.00432242
0.137112
0.139339
0.0215859
0.0722399
0.0226699
0.0844067
0.0228312
0.0962748
0.0219085
0.107025
0.0199496
0.11654
0.0170731
0.124803
0.0134643
0.131722
0.00931052
0.137366
0.00477192
0.141651
0.144111
0.0239047
0.0707186
0.0246121
0.0836993
0.0245362
0.0963507
0.0234898
0.108071
0.0214278
0.118602
0.0184049
0.127826
0.0145745
0.135552
0.0101184
0.141822
0.0052041
0.146565
0.149315
0.0693023
0.0864338
-0.0850174
0.0602116
0.09279
0.0543647
0.102198
0.0491783
0.113257
0.0432673
0.124513
0.0362085
0.134885
0.0280754
0.143686
0.0191429
0.150755
0.00969428
0.156013
0.15901
0.103959
0.104602
-0.122127
0.0883855
0.108363
0.0758615
0.114722
0.0651889
0.12393
0.055129
0.134573
0.0449194
0.145094
0.0342583
0.154347
0.0231321
0.161881
0.0116564
0.167489
0.170666
0.129673
0.121898
-0.146969
0.11229
0.125746
0.0960675
0.130945
0.0812721
0.138725
0.0674689
0.148376
0.0541021
0.158461
0.0407807
0.167668
0.0273241
0.175337
0.0137057
0.181108
0.184372
0.147196
0.137106
-0.162404
0.130241
0.142701
0.112793
0.148393
0.0957296
0.155789
0.0792787
0.164827
0.0632913
0.174448
0.047528
0.183431
0.0317963
0.191069
0.0159661
0.196938
0.200338
0.159567
0.150119
-0.172581
0.143806
0.158463
0.126444
0.165754
0.108471
0.173762
0.0903916
0.182906
0.0723091
0.192531
0.0541798
0.201561
0.0360324
0.209216
0.0179518
0.215018
0.21829
0.16852
0.160416
-0.178817
0.15432
0.172663
0.137643
0.182432
0.119537
0.191868
0.100698
0.201745
0.0814591
0.21177
0.0618424
0.221177
0.0417265
0.229332
0.0210769
0.235668
0.239367
0.176251
0.166159
-0.181995
0.164656
0.184258
0.149242
0.197847
0.131302
0.209807
0.111483
0.221565
0.090224
0.233028
0.0680381
0.243363
0.04544
0.25193
0.0226967
0.258411
0.262063
0.178491
0.164138
-0.17647
0.171466
0.191283
0.158502
0.21081
0.142033
0.226276
0.123331
0.240267
0.102569
0.25379
0.0795869
0.266346
0.0544926
0.277025
0.0277817
0.285122
0.289845
0.178796
0.150897
-0.165555
0.180788
0.189291
0.172051
0.219547
0.155375
0.242952
0.13379
0.261853
0.109439
0.27814
0.0834336
0.292351
0.0562755
0.304183
0.0282673
0.31313
0.318112
0.158769
-0.13175
0.174952
0.179511
0.173053
0.157229
0.134087
0.105405
0.0726239
0.0370877
0.0388677
-0.0961944
-0.0276908
0.0464272
-0.129687
0.0506691
-0.15121
0.0527512
-0.164486
0.0532443
-0.173074
0.0523411
-0.177913
0.0491893
-0.178843
0.0438259
-0.171106
0.0344622
-0.156191
-0.121498
0.0403949
-0.106422
-0.0301677
0.0471201
-0.136412
0.0507142
-0.154804
0.0522946
-0.166067
0.0523101
-0.173089
0.0508075
-0.176411
0.0469219
-0.174958
0.0407609
-0.164945
0.0307563
-0.146186
-0.110973
0.0416148
-0.115914
-0.0321223
0.0474503
-0.142247
0.0503873
-0.157741
0.0514574
-0.167137
0.05098
-0.172612
0.0488425
-0.174273
0.0442506
-0.170366
0.0373269
-0.158022
0.0269565
-0.135816
-0.100185
0.042245
-0.124582
-0.0335768
0.0472053
-0.147207
0.0495273
-0.160063
0.0501169
-0.167727
0.0491532
-0.171648
0.0463908
-0.171511
0.0411419
-0.165117
0.0335815
-0.150461
0.0229962
-0.125231
-0.0892703
0.0422043
-0.132314
-0.0344725
0.0463124
-0.151316
0.0480746
-0.161826
0.0482248
-0.167877
0.0467943
-0.170218
0.0434403
-0.168157
0.0376103
-0.159287
0.0295566
-0.142408
0.0189286
-0.114603
-0.0783578
0.0414212
-0.13903
-0.0347053
0.0447374
-0.154632
0.0460108
-0.163099
0.04577
-0.167636
0.0439029
-0.168351
0.0400097
-0.164264
0.033691
-0.152968
0.0252872
-0.134004
0.0148122
-0.104128
-0.067584
0.0398593
-0.144707
-0.0341821
0.0424828
-0.157255
0.0433492
-0.163965
0.0427692
-0.167056
0.0405053
-0.166087
0.0361417
-0.1599
0.029437
-0.146263
0.0208082
-0.125375
0.0106652
-0.0939846
-0.0572003
0.0375277
-0.149387
-0.0328481
0.0395809
-0.159308
0.040125
-0.164509
0.0392587
-0.16619
0.0366482
-0.163476
0.0318986
-0.155151
0.02492
-0.139285
0.0161859
-0.116641
0.00638892
-0.0841876
-0.0477877
0.0344741
-0.153163
-0.0306976
0.0360863
-0.160921
0.0363894
-0.164813
0.0352914
-0.165092
0.032396
-0.160581
0.0273585
-0.150113
0.0202284
-0.132155
0.0115284
-0.107941
0.00209882
-0.074758
-0.0397645
0.030775
-0.156165
-0.0277735
0.03207
-0.162216
0.0322076
-0.16495
0.0309355
-0.163819
0.0278283
-0.157474
0.0226109
-0.144896
0.0154574
-0.125001
0.00695303
-0.0994366
-0.00180011
-0.0660048
-0.0329423
0.0265367
-0.158531
-0.0241702
0.0276247
-0.163304
0.0276646
-0.16499
0.0262791
-0.162434
0.0230412
-0.154236
0.0177545
-0.139609
0.0107009
-0.117948
0.00255155
-0.0912872
-0.00531603
-0.0581372
-0.0270624
0.0218437
-0.160397
-0.0199776
0.0228218
-0.164282
0.0228292
-0.164998
0.021399
-0.161004
0.0181205
-0.150957
0.0128759
-0.134364
0.00603483
-0.111107
-0.00165768
-0.0835947
-0.0087401
-0.0510548
-0.0221329
0.016816
-0.16188
-0.0153334
0.0177663
-0.165232
0.0178021
-0.165033
0.0163989
-0.1596
0.0131705
-0.147729
0.00806995
-0.129264
0.00152952
-0.104566
-0.00566927
-0.0763959
-0.0119642
-0.0447599
-0.018053
0.0115649
-0.163074
-0.0103706
0.0125545
-0.166222
0.0126786
-0.165157
0.0113761
-0.158298
0.00828585
-0.144639
0.0034189
-0.124397
-0.0027419
-0.0984055
-0.00938251
-0.0697553
-0.0149622
-0.0391802
-0.0146985
0.0061971
-0.16405
-0.0052216
0.00727581
-0.1673
0.00755036
-0.165432
0.00642321
-0.157171
0.00355264
-0.141768
-0.00100418
-0.11984
-0.00674083
-0.0926689
-0.0128076
-0.0636886
-0.0177303
-0.0342575
-0.0119416
0.000738537
-0.164775
-1.30365e-05
0.00201744
-0.168579
0.00250544
-0.16592
0.00162694
-0.156292
-0.000953178
-0.139188
-0.00515666
-0.115637
-0.0104371
-0.0873884
-0.0159395
-0.0581861
-0.0202736
-0.0299234
-0.0096587
-0.00447168
-0.165447
0.00514352
-0.00311331
-0.169938
-0.00236067
-0.166673
-0.00293499
-0.155718
-0.00517259
-0.13695
-0.00898177
-0.111827
-0.0138077
-0.0825626
-0.0187795
-0.0532143
-0.0226025
-0.0261004
-0.00773259
-0.00947646
-0.166142
0.0101716
-0.00796559
-0.171448
-0.00693138
-0.167707
-0.00717148
-0.155478
-0.00903972
-0.135082
-0.0124503
-0.108417
-0.0168415
-0.0781714
-0.0213337
-0.0487221
-0.0247312
-0.0227029
-0.00605385
-0.0141735
-0.16701
0.0150413
-0.0125417
-0.17308
-0.0112014
-0.169047
-0.0110623
-0.155617
-0.0125322
-0.133612
-0.0155454
-0.105404
-0.0195354
-0.0741814
-0.0236112
-0.0446463
-0.0266752
-0.019639
-0.00451959
-0.0188664
-0.167906
0.019762
-0.0171486
-0.174798
-0.0153721
-0.170824
-0.0147144
-0.156275
-0.0156883
-0.132638
-0.0182744
-0.102817
-0.0218823
-0.0705735
-0.0256294
-0.0408992
-0.0284468
-0.0168216
-0.00302255
0.0384974
-0.16708
-0.0393233
0.0308261
-0.167127
0.0145772
-0.154575
-0.00953035
-0.132167
-0.0390256
-0.103143
-0.0695535
-0.0722895
-0.0959033
-0.0442237
-0.114585
-0.0222178
-0.123801
-0.00760482
-0.000787588
0.00210386
-0.163062
-0.00612162
-0.013034
-0.151989
-0.0360012
-0.131607
-0.0645158
-0.103653
-0.0938357
-0.0738233
-0.119205
-0.0469202
-0.137476
-0.0259531
-0.147883
-0.0118109
-0.151781
-0.0037068
-0.000279239
-0.0443807
-0.151324
0.0326423
-0.0648765
-0.131493
-0.0918443
-0.10464
-0.119792
-0.0757045
-0.144048
-0.0495679
-0.161722
-0.0292456
-0.172283
-0.0153928
-0.177105
-0.00698886
-0.178451
-0.00236004
-0.000203936
-0.0972951
-0.133079
0.0790505
-0.122048
-0.10674
-0.148261
-0.0784269
-0.171092
-0.0528732
-0.187648
-0.0330125
-0.197606
-0.0192873
-0.20248
-0.0105188
-0.204353
-0.00511563
-0.204874
-0.0018397
-0.000137188
-0.153542
-0.110506
0.130969
-0.178349
-0.0819329
-0.19969
-0.0570858
-0.215169
-0.0373949
-0.224537
-0.0236441
-0.229353
-0.0144715
-0.23154
-0.00833138
-0.232501
-0.00415558
-0.232891
-0.00144933
-7.45104e-05
-0.207602
-0.0868391
0.183935
-0.228908
-0.0606268
-0.244029
-0.0419642
-0.253403
-0.0280209
-0.258502
-0.0185458
-0.261241
-0.0117321
-0.262791
-0.00678183
-0.26364
-0.00330651
-0.263975
-0.00111414
-5.12945e-05
-0.255709
-0.0643193
0.233189
-0.272735
-0.0436009
-0.283452
-0.0312471
-0.289913
-0.02156
-0.293821
-0.0146376
-0.296375
-0.00917788
-0.297946
-0.00521034
-0.298732
-0.00252109
-0.298984
-0.000861995
-4.51487e-05
-0.296534
-0.0430157
0.27523
-0.311081
-0.0290537
-0.320559
-0.0217688
-0.32689
-0.0152289
-0.331215
-0.0103125
-0.334059
-0.00633453
-0.335671
-0.00359828
-0.336418
-0.00177402
-0.336661
-0.000618279
-3.01832e-05
-0.32845
-0.0217416
0.307176
-0.342701
-0.0148026
-0.353048
-0.0114221
-0.360316
-0.00796097
-0.36528
-0.00534827
-0.368357
-0.0032577
-0.370076
-0.00187933
-0.370911
-0.000938851
-0.371206
-0.000323293
-1.19735e-05
-0.346722
0.32498
-0.361524
-0.372947
-0.380907
-0.386256
-0.389513
-0.391393
-0.392332
-0.392655
-0.0335911
-0.0310005
0.0252683
-0.0404496
0.000736909
-0.0451675
0.0373602
-0.0470164
0.0808994
-0.0456191
0.129572
-0.0411122
0.179428
-0.0338968
0.225973
-0.024361
0.265694
-0.0128489
0.295664
0.312131
-0.0359232
-0.023521
0.0284438
-0.0421755
0.00698921
-0.046125
0.0413096
-0.0472986
0.082073
-0.0453459
0.127619
-0.0404713
0.174553
-0.0330922
0.218594
-0.023607
0.256209
-0.0123723
0.284429
0.299759
-0.0380799
-0.0163517
0.0309106
-0.0437429
0.0126522
-0.0471181
0.0446849
-0.0477115
0.0826664
-0.0452794
0.125187
-0.0400613
0.169335
-0.0325031
0.211036
-0.0230264
0.246732
-0.0119991
0.273402
0.28776
-0.0396064
-0.00948536
0.03274
-0.044739
0.0177848
-0.0476389
0.0475848
-0.0477904
0.0828179
-0.0450079
0.122405
-0.0395431
0.163871
-0.0318646
0.203357
-0.0224276
0.237295
-0.0116216
0.262596
0.276138
-0.040481
-0.00295349
0.0339491
-0.0451366
0.0224405
-0.0476224
0.0500706
-0.0474523
0.0826477
-0.0444544
0.119407
-0.0388609
0.158277
-0.0311468
0.195643
-0.0217997
0.227948
-0.0112382
0.252035
0.2649
-0.0407301
0.00324564
0.0345309
-0.0449422
0.0266526
-0.047084
0.0522125
-0.0466953
0.082259
-0.0436022
0.116314
-0.0379943
0.152669
-0.0303349
0.187984
-0.0211359
0.218749
-0.0108477
0.241746
0.254052
-0.0403483
0.00907177
0.0345222
-0.0441719
0.0304762
-0.0460351
0.0540756
-0.0455199
0.0817439
-0.0424404
0.113234
-0.0369291
0.147158
-0.0294178
0.180473
-0.0204309
0.209762
-0.010449
0.231764
0.243603
-0.0393806
0.014505
0.0339474
-0.0428543
0.03395
-0.044493
0.0557143
-0.0439274
0.0811783
-0.0409567
0.110263
-0.035647
0.141848
-0.0283803
0.173206
-0.0196758
0.201058
-0.010039
0.222128
0.233564
-0.0378859
0.0195412
0.0328497
-0.0410408
0.0371048
-0.0424943
0.0571678
-0.0419345
0.0806185
-0.0391478
0.107477
-0.0341331
0.136833
-0.0272053
0.166278
-0.0188586
0.192711
-0.0096122
0.212881
0.223952
-0.0359339
0.0241814
0.0312938
-0.0387988
0.0399697
-0.0400945
0.0584635
-0.0395769
0.0801009
-0.0370273
0.104927
-0.0323825
0.132189
-0.0258797
0.159775
-0.017967
0.184799
-0.00916183
0.204076
0.21479
-0.033611
0.0284324
0.0293599
-0.036212
0.0425707
-0.0373694
0.0596208
-0.0369135
0.0796451
-0.0346313
0.102645
-0.0304093
0.127967
-0.0244021
0.153768
-0.0169942
0.177391
-0.00868278
0.195765
0.206107
-0.0310036
0.032305
0.027131
-0.0333622
0.0449293
-0.0343945
0.0606531
-0.034006
0.0792566
-0.0320008
0.10064
-0.0282308
0.124197
-0.0227714
0.148309
-0.0159307
0.17055
-0.00816708
0.188001
0.19794
-0.0282047
0.0358139
0.0246958
-0.030341
0.0470656
-0.0312603
0.0615723
-0.0309373
0.0789337
-0.0292033
0.0989056
-0.0258922
0.120886
-0.0210104
0.143427
-0.0147834
0.164323
-0.00761456
0.180832
0.190326
-0.0253004
0.0389758
0.0221386
-0.0272324
0.0489976
-0.0280511
0.062391
-0.0277885
0.0786711
-0.0263095
0.0974266
-0.0234462
0.118022
-0.0191497
0.13913
-0.0135645
0.158738
-0.00702749
0.174295
0.183298
-0.0223675
0.0418072
0.019536
-0.0241105
0.0507406
-0.0248423
0.0631228
-0.0246351
0.0784639
-0.0233905
0.096182
-0.0209508
0.115583
-0.0172284
0.135408
-0.0122941
0.153803
-0.00641233
0.168414
0.176886
-0.0194704
0.0443242
0.0169534
-0.0210364
0.0523066
-0.0216954
0.0637818
-0.021541
0.0783095
-0.0205098
0.0951509
-0.0184628
0.113536
-0.0152889
0.132234
-0.0109969
0.149511
-0.00577891
0.163196
0.171107
-0.0166601
0.0465411
0.0144432
-0.0180577
0.0537042
-0.018657
0.0643812
-0.0185549
0.0782074
-0.0177186
0.0943145
-0.0160312
0.111848
-0.0133713
0.129574
-0.00969903
0.145839
-0.00513886
0.158635
0.165968
-0.0139781
0.0484737
0.0120455
-0.0152126
0.0549387
-0.0157616
0.0649302
-0.015711
0.0781568
-0.0150525
0.093656
-0.0136924
0.110488
-0.011508
0.12739
-0.00842327
0.142754
-0.00450338
0.154716
0.161465
-0.0114514
0.0501313
0.00979375
-0.0125206
0.0560079
-0.0130222
0.0654318
-0.0130199
0.0781545
-0.0125234
0.0931595
-0.0114608
0.109426
-0.00971422
0.125643
-0.00718228
0.140222
-0.00387947
0.151413
0.157585
-0.00904236
0.0514529
0.00772075
-0.00991963
0.0568852
-0.0103677
0.0658799
-0.0104112
0.078198
-0.0100711
0.0928194
-0.00929199
0.108647
-0.00796241
0.124314
-0.00596192
0.138222
-0.00326221
0.148713
0.154323
-0.0817138
0.0493907
0.083776
-0.0811952
0.0563666
-0.0803092
0.0649939
-0.0778093
0.075698
-0.0728573
0.0878674
-0.064795
0.100584
-0.0532053
0.112724
-0.0380446
0.123061
-0.0198839
0.130552
0.134439
-0.0749614
0.0456535
0.0786986
-0.0720027
0.0534079
-0.0688977
0.061889
-0.0647248
0.0715251
-0.0588502
0.0819928
-0.0508827
0.0926166
-0.0406953
0.102536
-0.0284545
0.110821
-0.0146431
0.116741
0.119796
-0.0671895
0.0414812
0.0713618
-0.0632195
0.0494378
-0.0589775
0.057647
-0.0539279
0.0664755
-0.0476991
0.075764
-0.0401244
0.0850419
-0.0312556
0.0936677
-0.0213556
0.100921
-0.0108097
0.106195
0.108987
-0.0593774
0.037536
0.0633226
-0.0550336
0.045094
-0.0502096
0.052823
-0.0447065
0.0609724
-0.0383986
0.0694561
-0.0313111
0.0779544
-0.0236267
0.0859832
-0.0156661
0.0929599
-0.00774208
0.0982709
0.101244
-0.0523131
0.0337456
0.0561036
-0.0477277
0.0405086
-0.0424668
0.0475621
-0.036591
0.0550966
-0.0301827
0.0630478
-0.0234406
0.0712123
-0.0166878
0.0792305
-0.0103496
0.0866217
-0.00478502
0.0927063
0.0964595
-0.0479491
0.0295547
0.0521399
-0.0426677
0.0352272
-0.0366136
0.041508
-0.0299788
0.0484618
-0.023012
0.056081
-0.0160856
0.0642859
-0.00972142
0.0728663
-0.00458945
0.0814897
-0.00138208
0.089499
0.0950774
-0.0520275
0.0236823
0.0579
-0.0450184
0.028218
-0.0371412
0.0336308
-0.0285604
0.0398811
-0.0196544
0.047175
-0.0109772
0.0556087
-0.0033807
0.0652698
0.00191672
0.0761923
0.00323242
0.0881833
0.0983098
-0.0789954
0.0150515
0.0876262
-0.0692573
0.0184798
-0.05819
0.0225635
-0.0457932
0.0274843
-0.0323529
0.0337346
-0.0183704
0.0416263
-0.0048859
0.0517853
0.0058063
0.0655001
0.00905409
0.0849355
0.107364
-0.154229
0.00505504
0.164225
-0.142747
0.00699758
-0.129101
0.00891829
-0.113028
0.0114113
-0.0941628
0.0148692
-0.0721802
0.0196437
-0.0468534
0.0264585
-0.0190587
0.0377055
0.00461354
0.0612632
0.111977
-0.299245
0.3043
-0.292247
-0.283329
-0.271917
-0.257048
-0.237405
-0.210946
-0.173241
-0.111977
-0.00465378
0.0823963
0.00603354
-0.00290094
0.0769458
-0.00113515
0.069596
0.000403348
0.0617841
0.00146419
0.0550428
0.00161149
0.0519926
0.000409896
0.0591016
-0.00202873
0.0900648
-0.00363076
0.165827
0.300669
-0.00347151
0.0814093
0.00445842
-0.00209164
0.0755659
-0.00061262
0.0681169
0.000686177
0.0604853
0.00151671
0.0542123
0.0015113
0.051998
0.000298494
0.0603144
-0.00196635
0.0923297
-0.00333791
0.167199
0.297331
-0.0023566
0.0807215
0.0030444
-0.00129304
0.0745023
-9.53541e-05
0.0669192
0.000971317
0.0594186
0.00160066
0.0535829
0.00146557
0.0521331
0.000260242
0.0615197
-0.00181754
0.0944075
-0.00302803
0.168409
0.294303
-0.00137383
0.0802796
0.00181581
-0.00058628
0.0737148
0.000384368
0.0659486
0.00123364
0.0585694
0.00169632
0.0531202
0.00146948
0.0523599
0.000303503
0.0626857
-0.0015863
0.0962973
-0.00266735
0.16949
0.291636
-0.000535026
0.0800298
0.000784803
-9.16168e-06
0.0731889
0.000797611
0.0651418
0.00147127
0.0578957
0.00180479
0.0527867
0.00152485
0.0526399
0.000427602
0.063783
-0.00127363
0.0979985
-0.00225831
0.170475
0.289377
0.000170049
0.0798739
-1.41592e-05
0.00055078
0.0728082
0.00115873
0.0645339
0.0016904
0.0573641
0.00192995
0.0525472
0.00163158
0.0529383
0.000627554
0.064787
-0.000887002
0.0995131
-0.00180679
0.171395
0.28757
0.000735981
0.0798355
-0.000697588
0.000993962
0.0725502
0.00147033
0.0640575
0.00189455
0.0569398
0.00207289
0.0523688
0.00178727
0.0532239
0.000896977
0.0656773
-0.000435247
0.100845
-0.0013188
0.172278
0.286252
0.00117148
0.079817
-0.00115294
0.00135165
0.07237
0.00173315
0.063676
0.00208298
0.05659
0.0022312
0.0522206
0.00198661
0.0534685
0.00122749
0.0664364
6.88946e-05
0.102004
-0.000800044
0.173147
0.285452
0.00148308
0.0797621
-0.00142818
0.00162633
0.0722268
0.00194689
0.0633555
0.00225269
0.0562842
0.00239966
0.0520736
0.0022215
0.0536466
0.00160897
0.0670489
0.000629904
0.102983
-0.000254983
0.174032
0.285197
0.00167875
0.0796237
-0.00154043
0.00181958
0.072086
0.00210962
0.0630654
0.00239894
0.0559949
0.00257079
0.0519018
0.00248168
0.0537357
0.00202855
0.0675021
0.0012199
0.103792
0.000305147
0.174947
0.285502
0.00176022
0.0793693
-0.00150573
0.00192979
0.0719164
0.0022157
0.0627795
0.00251333
0.0556973
0.0027335
0.0516816
0.00275341
0.0537158
0.00247091
0.0677846
0.00183024
0.104432
0.000873026
0.175904
0.286375
0.00174706
0.0789847
-0.00136249
0.00196989
0.0716936
0.00226897
0.0624804
0.00259402
0.0553722
0.00288146
0.0513942
0.00302732
0.05357
0.00292561
0.0678863
0.00245276
0.104905
0.00144752
0.176909
0.287822
0.0016471
0.0784728
-0.00113524
0.00194192
0.0713988
0.00226548
0.0621568
0.00263255
0.0550051
0.00300233
0.0510244
0.00328827
0.053284
0.00337631
0.0677982
0.00307272
0.105209
0.00201847
0.177964
0.289841
0.00147806
0.0778556
-0.000860873
0.00185494
0.0710219
0.00220686
0.0618049
0.00262414
0.0545879
0.00308622
0.0505623
0.00352307
0.0528472
0.00380864
0.0675127
0.00367744
0.10534
0.00257823
0.179063
0.292419
0.00126431
0.0771745
-0.000583146
0.00172215
0.070564
0.00209849
0.0614286
0.00256643
0.0541199
0.00312458
0.0500042
0.00371914
0.0522526
0.00420875
0.0670231
0.00425447
0.105294
0.00311905
0.180198
0.295538
0.00103936
0.0764862
-0.000351091
0.00156211
0.0700413
0.00195064
0.06104
0.00246062
0.0536099
0.00311107
0.0493537
0.00386498
0.0514987
0.00456342
0.0663246
0.00479174
0.105066
0.00363301
0.181357
0.299171
0.000848173
0.0758483
-0.0002103
0.00140022
0.0694892
0.0017799
0.0606604
0.00231279
0.0530771
0.00304241
0.0486241
0.00395031
0.0505908
0.00485973
0.0654152
0.0052771
0.104648
0.0041119
0.182522
0.303283
0.000740422
0.0752939
-0.000186029
0.00126703
0.0689626
0.00160845
0.060319
0.00213412
0.0525514
0.00291839
0.0478398
0.00396539
0.0495438
0.00508394
0.0642967
0.0056975
0.104035
0.00454654
0.183673
0.30783
0.000739816
0.0748289
-0.000274815
0.00119003
0.0685124
0.00145587
0.0600531
0.00193503
0.0520722
0.00273901
0.0470358
0.00390116
0.0483817
0.00522424
0.0629736
0.00604427
0.103215
0.0049294
0.184788
0.312759
0.000900904
0.0743266
-0.000398552
0.00119165
0.0682217
0.00133399
0.0599108
0.00171781
0.0516884
0.00250727
0.0462464
0.00376269
0.0471262
0.0052902
0.0614461
0.0063372
0.102168
0.00527304
0.185852
0.318032
-0.0627297
0.0576225
0.0794338
-0.0479887
0.0534807
-0.0350818
0.0470039
-0.0239222
0.0405288
-0.0144235
0.0367477
-0.00687991
0.0395826
-0.00182979
0.056396
0.000324963
0.100013
0.000282495
0.185895
0.318314
-0.0704885
0.0434323
0.0846787
-0.0564149
0.0394071
-0.0432502
0.0338392
-0.0312695
0.0285481
-0.0206555
0.0261337
-0.0118375
0.0307647
-0.00548448
0.0500429
-0.00189746
0.0964261
-0.000485894
0.184483
0.317829
-0.0755267
0.0306675
0.0882916
-0.0625522
0.0264325
-0.0497125
0.0209995
-0.0373477
0.0161833
-0.0258572
0.0146432
-0.0159487
0.0208562
-0.00845366
0.0425479
-0.00370389
0.0916764
-0.00117747
0.181957
0.316651
-0.0802384
0.0196925
0.0912134
-0.0683934
0.0145875
-0.0560169
0.00862298
-0.0433976
0.00356395
-0.0311066
0.00235224
-0.0201542
0.00990377
-0.011601
0.0339947
-0.00573817
0.0858135
-0.00195512
0.178174
0.314696
-0.0856964
0.0102398
0.0951492
-0.0750523
0.00394341
-0.0632707
-0.00315866
-0.0505292
-0.00917754
-0.0375285
-0.0106485
-0.0255891
-0.00203562
-0.0160263
0.0244319
-0.00899304
0.0787802
-0.00344804
0.172629
0.311248
-0.0926641
0.00239212
0.100512
-0.0835302
-0.00519048
-0.0728651
-0.0138238
-0.0606503
-0.0213923
-0.0475593
-0.0237395
-0.0351103
-0.0144846
-0.0245504
0.0138721
-0.0158245
0.0700543
-0.00702173
0.163826
0.304226
-0.101608
-0.00339761
0.107398
-0.0949342
-0.0118643
-0.0869038
-0.0218541
-0.0772108
-0.0310854
-0.0661997
-0.0347505
-0.0549182
-0.0257662
-0.0437464
0.00270028
-0.0316021
0.05791
-0.0157298
0.147954
0.288496
-0.11265
-0.00615241
0.115405
-0.110232
-0.0142828
-0.107786
-0.0242996
-0.104813
-0.034059
-0.100813
-0.0387498
-0.0950448
-0.0315346
-0.0855432
-0.00680128
-0.0679256
0.0402923
-0.0375924
0.11762
0.250904
-0.12477
-0.00492653
0.123544
-0.128682
-0.0103713
-0.135585
-0.0173965
-0.145064
-0.0245803
-0.155281
-0.0285327
-0.162018
-0.0247973
-0.159793
-0.00902599
-0.139102
0.0196013
-0.0874803
0.0659984
0.163424
-0.134319
0.129393
-0.144691
-0.162087
-0.186667
-0.2152
-0.239997
-0.249023
-0.229422
-0.163424
-0.00311613
0.0818088
0.000741173
-0.00487057
0.0864331
-0.00592248
0.0893435
-0.00660939
0.0919003
-0.00704559
0.0955854
-0.00714512
0.100611
-0.00670602
0.106959
-0.0054605
0.114159
-0.00317704
0.121261
0.126216
-0.00249261
0.0838536
0.000447805
-0.00408802
0.0880285
-0.0050753
0.0903308
-0.00575267
0.0925776
-0.00617944
0.0960121
-0.00627444
0.100706
-0.00586254
0.106547
-0.00473384
0.113031
-0.00272739
0.119255
0.123488
-0.00161553
0.0855439
-7.48468e-05
-0.00304066
0.0894537
-0.00398707
0.0912772
-0.00468136
0.0932719
-0.00513498
0.0964658
-0.00526918
0.10084
-0.00493566
0.106213
-0.00397259
0.112068
-0.00227603
0.117558
0.121212
-0.00058971
0.0870081
-0.000874413
-0.00184678
0.0907107
-0.00274889
0.0921793
-0.00346997
0.093993
-0.00397184
0.0969676
-0.00417828
0.101047
-0.00396286
0.105998
-0.00320217
0.111307
-0.00183353
0.116189
0.119379
0.000542096
0.0881743
-0.00170837
-0.000559075
0.0918119
-0.00138856
0.0930088
-0.00213813
0.0947426
-0.00270467
0.0975342
-0.00301226
0.101354
-0.0029501
0.105936
-0.00242344
0.11078
-0.00139787
0.115164
0.117981
0.00176952
0.089018
-0.00261322
0.00090317
0.0926783
7.52142e-05
0.0938367
-0.000702436
0.0955202
-0.00134421
0.0981759
-0.00177947
0.10179
-0.00190209
0.106058
-0.00163676
0.110515
-0.000967059
0.114494
0.117014
0.00307815
0.089514
-0.00357411
0.00245036
0.0933061
0.0016832
0.0946039
0.000855812
0.0963476
9.68928e-05
0.0989348
-0.000491847
0.102378
-0.000823265
0.10639
-0.000842052
0.110534
-0.000539237
0.114191
0.116475
0.00444823
0.089642
-0.00457622
0.00405773
0.0936966
0.00335402
0.0953076
0.00249585
0.0972058
0.00163024
0.0998005
0.000862478
0.103146
0.000286559
0.106966
-4.83195e-05
0.110869
-0.000114471
0.114257
0.11636
0.00585821
0.0893905
-0.00560668
0.00571441
0.0938404
0.00509087
0.0959311
0.0042027
0.098094
0.0032157
0.100787
0.00225671
0.104105
0.00142414
0.107798
0.000775523
0.111517
0.000316342
0.114717
0.116677
0.00728877
-0.006657
0.00740118
0.00687557
0.00596399
0.00485207
0.00368922
0.00258351
0.00159809
0.000746574
0.00041217
0.0011115
0.00151249
0.00149899
0.0031889
0.00132981
0.00535974
0.000929203
0.007966
0.00044705
0.010968
-4.62849e-05
0.0143487
-0.00052285
0.0181326
-0.00098913
0.0224542
-0.00152582
-0.00244881
0.000485734
0.000625764
0.00174015
0.000244572
0.00363167
-0.000561711
0.00606981
-0.00150893
0.00899279
-0.00247594
0.0123622
-0.00341564
0.016162
-0.0043227
0.0204014
-0.00522854