/*--------------------------------*- C++ -*----------------------------------*\
  =========                 |
  \\      /  F ield         | OpenFOAM: The Open Source CFD Toolbox
   \\    /   O peration     | Website:  https://openfoam.org
    \\  /    A nd           | Version:  7
     \\/     M anipulation  |
\*---------------------------------------------------------------------------*/
FoamFile
{
    version     2.0;
    format      ascii;
    class       volScalarField;
    location    "0.4875";
    object      p;
}
// * * * * * * * * * * * * * * * * * * * * * * * * * * * * * * * * * * * * * //

dimensions      [0 2 -2 0 0 0 0];

internalField   nonuniform List<scalar> 
400
(
2.62089e-06
-0.00590178
-0.0130521
-0.018497
-0.0205193
-0.0183271
-0.0118569
-0.00155501
0.0117823
0.0271132
0.0432287
0.0588268
0.0725994
0.0833417
0.0900923
0.0923056
0.0900614
0.0842888
0.0768965
0.0710238
0.00582662
-0.000245093
-0.00577903
-0.00949178
-0.0105398
-0.00837277
-0.00291726
0.00551182
0.0163196
0.0287037
0.0417155
0.0543262
0.0655046
0.0743117
0.0800138
0.0822099
0.080981
0.076986
0.0712555
0.0652395
0.0133935
0.00496101
-0.00101251
-0.00442908
-0.00528182
-0.0032737
0.00159145
0.00901421
0.0184852
0.0293283
0.0407401
0.05184
0.061735
0.0695999
0.0747691
0.0768394
0.0758008
0.0720571
0.0658315
0.0574344
0.0202041
0.00859173
0.00120092
-0.00268061
-0.00373992
-0.00190444
0.00271192
0.00976445
0.0187592
0.0290725
0.0399681
0.0506286
0.060206
0.0678877
0.0729744
0.0749715
0.0737307
0.0694349
0.0616617
0.0499964
0.0245905
0.00964455
0.000568461
-0.00399029
-0.00531256
-0.00351934
0.0011619
0.00831978
0.0174446
0.0279285
0.039061
0.0500423
0.0600177
0.0681311
0.0735909
0.0757603
0.074325
0.0692653
0.0596117
0.0444077
0.0252955
0.00699674
-0.00382074
-0.00905364
-0.0105175
-0.0085076
-0.00336567
0.004418
0.0142986
0.0256604
0.0377909
0.0498757
0.0610158
0.0702667
0.0766957
0.0794747
0.0780874
0.0723066
0.060655
0.0417302
0.0212437
-0.000440084
-0.0129492
-0.0186975
-0.0200294
-0.0174166
-0.0113228
-0.00232727
0.00897892
0.0219602
0.0358887
0.0499179
0.0630798
0.0743073
0.0824798
0.086522
0.0856599
0.0794158
0.0657675
0.0428757
0.0113312
-0.0138195
-0.0278825
-0.033831
-0.0345948
-0.0308531
-0.023211
-0.0123473
0.001098
0.0164718
0.0330346
0.049909
0.0660512
0.0802501
0.0911545
0.0973751
0.0977963
0.0915963
0.0760766
0.0488747
-0.00573116
-0.0344907
-0.0498658
-0.0555101
-0.0550705
-0.0495013
-0.0395838
-0.0261086
-0.00975796
0.00881609
0.0288873
0.0495718
0.0697665
0.0881134
0.102997
0.112637
0.115459
0.110138
0.0930491
0.0611081
-0.0315587
-0.0641223
-0.0803951
-0.0849485
-0.082387
-0.0740546
-0.0609623
-0.0440241
-0.0239453
-0.00133734
0.0231377
0.048644
0.0740674
0.0979309
0.118341
0.13305
0.139873
0.136741
0.11869
0.0815442
-0.0682826
-0.104869
-0.121297
-0.123506
-0.117467
-0.105092
-0.0876905
-0.066305
-0.0416233
-0.0141486
0.015605
0.046943
0.0788328
0.109754
0.137566
0.159498
0.17258
0.173667
0.1558
0.113056
-0.118895
-0.159637
-0.174832
-0.172643
-0.161083
-0.142883
-0.119723
-0.0927496
-0.0625569
-0.0294331
0.00638107
0.0444723
0.0840407
0.12367
0.161079
0.192987
0.215486
0.223917
0.208348
0.159935
-0.187947
-0.232523
-0.24381
-0.233802
-0.213616
-0.187102
-0.156332
-0.12247
-0.0858724
-0.0464508
-0.00399741
0.0415489
0.0898403
0.139808
0.189269
0.234586
0.270858
0.291443
0.282028
0.228816
-0.283066
-0.329542
-0.331644
-0.308112
-0.274628
-0.236389
-0.195726
-0.15358
-0.109814
-0.0637194
-0.0144121
0.0388871
0.0965707
0.158277
0.222346
0.285198
0.341162
0.381277
0.385108
0.330523
-0.418188
-0.459748
-0.442074
-0.395629
-0.342074
-0.28771
-0.234595
-0.182912
-0.131589
-0.078959
-0.0231808
0.0375153
0.104596
0.178875
0.259878
0.344929
0.428403
0.499306
0.529616
0.483714
-0.619427
-0.636582
-0.578334
-0.494084
-0.411228
-0.335656
-0.267778
-0.20597
-0.147525
-0.0893581
-0.0283875
0.0384025
0.113874
0.200548
0.300046
0.412059
0.532932
0.651421
0.732441
0.720594
-0.9356
-0.878181
-0.741683
-0.598056
-0.47439
-0.372626
-0.288845
-0.21774
-0.153926
-0.0924298
-0.0286777
0.0417506
0.123334
0.220799
0.339
0.482241
0.652263
0.841647
1.01495
1.09628
-1.4806
-1.20196
-0.921
-0.692547
-0.517677
-0.387701
-0.290194
-0.213425
-0.148162
-0.0872102
-0.0245289
0.0455579
0.1291
0.233296
0.36736
0.54312
0.772628
1.06029
1.39818
1.73407
-2.57157
-1.60192
-1.04347
-0.714829
-0.497798
-0.353386
-0.255529
-0.184283
-0.126596
-0.0737843
-0.0192105
0.0430638
0.119761
0.21965
0.356003
0.54982
0.829811
1.23507
1.8811
2.95926
-4.44511
-2.01727
-0.969796
-0.564338
-0.357045
-0.239034
-0.169356
-0.123297
-0.0871847
-0.0533698
-0.016678
0.0275126
0.0842972
0.161192
0.271576
0.441361
0.718803
1.2215
2.38402
4.92939
)
;

boundaryField
{
    movingWall
    {
        type            zeroGradient;
    }
    fixedWalls
    {
        type            zeroGradient;
    }
    frontAndBack
    {
        type            empty;
    }
}


// ************************************************************************* //
