/*--------------------------------*- C++ -*----------------------------------*\
  =========                 |
  \\      /  F ield         | OpenFOAM: The Open Source CFD Toolbox
   \\    /   O peration     | Website:  https://openfoam.org
    \\  /    A nd           | Version:  7
     \\/     M anipulation  |
\*---------------------------------------------------------------------------*/
FoamFile
{
    version     2.0;
    format      ascii;
    class       volScalarField;
    location    "46.2";
    object      p;
}
// * * * * * * * * * * * * * * * * * * * * * * * * * * * * * * * * * * * * * //

dimensions      [0 2 -2 0 0 0 0];

internalField   nonuniform List<scalar> 
2000
(
0.0358626
0.0359551
0.0364612
0.0371489
0.0379509
0.0388143
0.0396982
0.040574
0.0414203
0.0422372
0.035836
0.0360215
0.0365821
0.0373186
0.0381563
0.039039
0.0399203
0.040765
0.0415432
0.0422342
0.0356726
0.0359871
0.0366027
0.0373801
0.0382414
0.0391304
0.0399992
0.04081
0.0415305
0.0421123
0.0353757
0.0358562
0.0365239
0.0373307
0.0381978
0.0390722
0.039909
0.0406715
0.0413324
0.041818
0.0349544
0.0356375
0.0363518
0.0371732
0.038024
0.038857
0.0396335
0.0403216
0.0409062
0.0413011
0.0344325
0.0353371
0.0360953
0.0369153
0.0377247
0.0384851
0.0391668
0.0397451
0.0402205
0.0405167
0.0338269
0.0349721
0.0357662
0.0365664
0.0373078
0.0379617
0.0385105
0.0389386
0.039261
0.0394325
0.0331632
0.0345575
0.0353758
0.036136
0.0367814
0.0372942
0.0376713
0.0379097
0.0380367
0.0380488
0.0324703
0.0341082
0.0349358
0.035634
0.0361546
0.0364911
0.0366568
0.0366657
0.0365649
0.0364059
0.031781
0.0336408
0.03446
0.0350738
0.0354426
0.0355698
0.035482
0.0352035
0.0348003
0.0344293
0.0442732
0.0485613
0.0534011
0.0588442
0.0640531
0.0690607
0.0728846
0.0768712
0.0784812
0.0804455
0.0438193
0.047544
0.0515839
0.0565199
0.0613896
0.0661526
0.0697415
0.0735555
0.075132
0.0769757
0.0431846
0.046555
0.049743
0.0541737
0.0587299
0.0632777
0.0666786
0.0703531
0.0718629
0.0736392
0.0423214
0.0455568
0.0478878
0.0518221
0.0560843
0.0604356
0.0636894
0.0672412
0.0686952
0.0704318
0.0412033
0.044477
0.0460305
0.0494853
0.0534707
0.0576463
0.0607871
0.0642359
0.0656651
0.0673694
0.0398256
0.0432212
0.0441803
0.0471706
0.0508823
0.0548946
0.0579421
0.0613021
0.0627341
0.0644257
0.0382124
0.0417071
0.0423344
0.0449003
0.0483609
0.0522275
0.0552039
0.0584928
0.0599401
0.0616161
0.0364245
0.0398959
0.0404647
0.0426345
0.0458405
0.0495646
0.0524856
0.0557124
0.0571959
0.0588876
0.0345249
0.0377775
0.0385609
0.0405
0.043489
0.0470609
0.0499333
0.0530918
0.0546022
0.0562752
0.0326869
0.0355351
0.0364476
0.0381865
0.0409648
0.0444034
0.0472603
0.0503613
0.0519728
0.0536752
0.0298184
0.0324857
0.0339648
0.0351334
0.0368893
0.0395018
0.0421101
0.0447728
0.0464649
0.047773
0.0196624
0.0214839
0.0230049
0.0249412
0.0273973
0.0303494
0.0330999
0.0356395
0.0373831
0.0384942
0.0100954
0.0113302
0.012526
0.014557
0.0175037
0.0210274
0.0241236
0.0267812
0.0285933
0.0297364
0.00169952
0.00247688
0.00343843
0.0054021
0.00853341
0.0124153
0.0158598
0.0187284
0.0206214
0.0218117
-0.00479737
-0.00443087
-0.00370765
-0.00191579
0.00114465
0.00505753
0.00863312
0.0116485
0.0136792
0.0149605
-0.00894313
-0.00892908
-0.00850423
-0.00696146
-0.004121
-0.000391307
0.00306192
0.00599015
0.00800109
0.00929515
-0.0104802
-0.010791
-0.0107704
-0.00969299
-0.00733175
-0.00397898
-0.000769372
0.00198711
0.00384206
0.00501943
-0.00964123
-0.0100493
-0.0102697
-0.00974721
-0.00815063
-0.00556311
-0.00288379
-0.000409667
0.00115962
0.00219441
-0.00703863
-0.00740389
-0.00773355
-0.00758399
-0.0067145
-0.00505103
-0.00316992
-0.00124944
-0.000115152
0.000683479
-0.00240115
-0.00273815
-0.00316303
-0.0034179
-0.00328796
-0.00266708
-0.00191856
-0.000740416
-0.000309556
0.000118116
0.0266154
0.0174375
0.00880046
0.00118281
-0.00470143
-0.00847344
-0.00984021
-0.00898956
-0.00627407
-0.00215623
0.0246742
0.0157812
0.00756426
0.00040282
-0.00503539
-0.00845729
-0.00960135
-0.00868816
-0.00607317
-0.00205501
0.0228944
0.0145074
0.00667592
-0.000115637
-0.00520367
-0.00834908
-0.00931094
-0.00835382
-0.00584204
-0.00196962
0.0214133
0.0135297
0.00606522
-0.00038668
-0.00516594
-0.00809702
-0.00894316
-0.00798888
-0.00558577
-0.00189358
0.0203072
0.0128547
0.00571765
-0.000444618
-0.00495681
-0.00772541
-0.00850328
-0.00758807
-0.00531133
-0.00181691
0.0196037
0.0124827
0.00563329
-0.000292237
-0.00457831
-0.00723531
-0.00799281
-0.00715814
-0.00501763
-0.00175745
0.0192913
0.012411
0.00581209
7.45549e-05
-0.00405421
-0.00664167
-0.00741857
-0.00669085
-0.00470755
-0.0016938
0.0193609
0.0126281
0.00622462
0.000628876
-0.00338891
-0.00595207
-0.00678453
-0.00618762
-0.00437959
-0.00160608
0.0197966
0.013098
0.00685534
0.00135252
-0.00260032
-0.00517811
-0.00609749
-0.00565114
-0.00403311
-0.00150127
0.0205347
0.0137974
0.00767427
0.00221954
-0.00170958
-0.0043337
-0.00536587
-0.00508509
-0.00366848
-0.00137328
0.0214969
0.014671
0.00863772
0.00319503
-0.00074081
-0.00343444
-0.00459905
-0.00449433
-0.0032879
-0.00122756
0.022632
0.0156746
0.00971104
0.00425317
0.000284973
-0.00249506
-0.00380705
-0.00388507
-0.00289523
-0.00106983
0.0239107
0.0167855
0.0108713
0.00537691
0.00135054
-0.00152848
-0.00299982
-0.00326424
-0.00249534
-0.000906642
0.0253013
0.0179822
0.0120948
0.00654951
0.00244042
-0.000546736
-0.00218655
-0.00263866
-0.00209262
-0.000742827
0.0267773
0.0192491
0.0133605
0.00775633
0.00354151
0.000439408
-0.00137532
-0.00201481
-0.00169104
-0.000581962
0.0283113
0.0205713
0.0146463
0.0089825
0.00464226
0.00142029
-0.000572904
-0.00139849
-0.00129395
-0.00042649
0.0298578
0.0219242
0.0159286
0.0102129
0.00573352
0.00238817
0.000215665
-0.000794326
-0.000903945
-0.000277691
0.0314147
0.0233356
0.0172294
0.0114608
0.00682358
0.00334464
0.000989348
-0.000204837
-0.000522562
-0.000135657
0.0331564
0.0249802
0.0186564
0.0127921
0.0079506
0.00430633
0.00175401
0.000370965
-0.00014882
-6.52073e-08
0.0346499
0.026597
0.0200072
0.0140684
0.00904283
0.00523466
0.0024993
0.000932828
0.000220193
0.000126597
0.0345504
0.0282907
0.0218851
0.0162178
0.0112098
0.00722914
0.00421862
0.00225657
0.00108603
0.000399184
0.0343115
0.0285817
0.022766
0.0176138
0.0129434
0.00910812
0.00603122
0.00380499
0.00217297
0.000839345
0.0354456
0.0298356
0.0241642
0.0191689
0.0145656
0.0107119
0.0074963
0.00503834
0.00305896
0.0012339
0.036831
0.0312124
0.0255976
0.0206488
0.0160222
0.0120893
0.00872501
0.00607963
0.00384319
0.00162411
0.0386453
0.0328202
0.0271242
0.022098
0.0173685
0.01331
0.0097972
0.00700731
0.00458386
0.00202729
0.0408506
0.0346901
0.0287841
0.0235555
0.0186643
0.0144478
0.0107943
0.00787604
0.00529104
0.00242308
0.0433208
0.0367489
0.0305088
0.0249979
0.0199344
0.0155511
0.0117616
0.00868701
0.00589441
0.00268546
0.0456916
0.0384249
0.0320546
0.0263689
0.0211647
0.0166187
0.0126802
0.00936315
0.00623769
0.00267833
0.0476507
0.0405974
0.0337767
0.0276404
0.0221971
0.0174946
0.0133964
0.00977727
0.00625718
0.00243644
0.0492599
0.0410816
0.0341264
0.0280595
0.022695
0.0179926
0.0138118
0.00998797
0.00621871
0.0022627
0.0386433
0.0385463
0.0395186
0.0407814
0.042721
0.0450877
0.0476866
0.0510704
0.0522393
0.0551699
0.0398992
0.0402553
0.0413321
0.0426906
0.0447917
0.0472985
0.0500556
0.0533541
0.0548146
0.0573024
0.0407219
0.0415329
0.0429195
0.0446301
0.0470681
0.049865
0.0529039
0.0559569
0.0578982
0.0594224
0.0416793
0.0427224
0.0443356
0.0464027
0.0491602
0.0522483
0.0555691
0.0586252
0.0608987
0.0619656
0.0427775
0.0440487
0.0458282
0.0481714
0.0511669
0.0544776
0.0580239
0.0612593
0.0637504
0.0648626
0.0438989
0.0454782
0.0474729
0.0500676
0.0532595
0.0567477
0.0604687
0.0639141
0.0665768
0.067929
0.0450198
0.0469403
0.0492234
0.0520935
0.0554938
0.0591656
0.0630498
0.0666779
0.0694908
0.07106
0.0461673
0.0484225
0.0510387
0.054205
0.0578432
0.0617294
0.0657977
0.0695926
0.0725408
0.0742421
0.04736
0.0499357
0.0529113
0.0563737
0.0602729
0.0643995
0.0686821
0.0726518
0.0757285
0.0775004
0.0486032
0.0514805
0.0548442
0.0585888
0.0627674
0.0671451
0.0716677
0.0758303
0.0790385
0.0808579
0.0499012
0.053042
0.0568354
0.0608397
0.065322
0.0699509
0.0747366
0.0791097
0.0824584
0.0843242
0.0512556
0.0545931
0.0588727
0.063107
0.0679294
0.0728067
0.0778804
0.0824791
0.0859816
0.0878995
0.0526408
0.0561143
0.0609269
0.0653726
0.0705712
0.0757136
0.0811006
0.0859391
0.0896128
0.0915886
0.0540102
0.0575989
0.0629535
0.0676249
0.0732203
0.078678
0.0843903
0.0894891
0.0933563
0.0954069
0.0553076
0.0590478
0.0649046
0.0698628
0.0758335
0.0817367
0.0877564
0.0931364
0.0972117
0.0993437
0.0564687
0.0604642
0.0667154
0.0721207
0.0784474
0.0847767
0.0911487
0.0968494
0.10116
0.103388
0.0574321
0.0618255
0.0684818
0.0743132
0.0810234
0.0877776
0.0945649
0.100629
0.105204
0.10755
0.0580952
0.0631976
0.0700645
0.0763382
0.0834587
0.0906697
0.0979306
0.104418
0.109314
0.111821
0.0585276
0.0645033
0.0714978
0.0782604
0.0858186
0.0935327
0.101301
0.108252
0.11351
0.11623
0.0584777
0.0653281
0.0724583
0.0796928
0.087685
0.0959555
0.104334
0.111907
0.117691
0.120738
0.0604227
0.0692324
0.0767298
0.0848918
0.093747
0.103102
0.112636
0.121418
0.128256
0.13202
0.0706537
0.0790691
0.0870115
0.0965934
0.106994
0.118136
0.129518
0.139992
0.148132
0.152537
0.0813989
0.0903827
0.0994513
0.110676
0.122784
0.13595
0.149237
0.161321
0.170616
0.17566
0.092312
0.102375
0.113173
0.126317
0.140473
0.156007
0.171269
0.184962
0.195313
0.200772
0.103442
0.114962
0.127801
0.143069
0.159584
0.177661
0.194896
0.210202
0.221485
0.227516
0.115197
0.128278
0.143337
0.160879
0.179955
0.200557
0.219711
0.236541
0.248423
0.254319
0.127054
0.141876
0.159102
0.178913
0.200532
0.223377
0.24437
0.262425
0.274483
0.28076
0.138785
0.15516
0.174427
0.196413
0.220412
0.245167
0.268114
0.287303
0.298995
0.303264
0.147606
0.16528
0.186089
0.209728
0.235496
0.26172
0.286484
0.306619
0.318006
0.323122
0.153874
0.172229
0.194108
0.218895
0.245871
0.273335
0.300026
0.323212
0.337919
0.326723
0.0576032
0.0671443
0.076674
0.0868288
0.0970326
0.108189
0.119019
0.130273
0.138332
0.144486
0.0572053
0.0670732
0.0762643
0.0861191
0.0959665
0.10679
0.117147
0.128009
0.135388
0.14131
0.0574626
0.0678412
0.0769649
0.0867138
0.0963691
0.106872
0.116788
0.127029
0.133534
0.138956
0.0574158
0.0679939
0.0770286
0.0867469
0.0962626
0.106524
0.116076
0.125818
0.131748
0.136702
0.0572529
0.0677916
0.076687
0.0862857
0.0956073
0.105602
0.114802
0.124157
0.129777
0.1344
0.0570944
0.0675426
0.0763734
0.0857923
0.0948868
0.104569
0.113405
0.122399
0.127799
0.13219
0.0569156
0.0672693
0.0761901
0.0854248
0.0943347
0.103724
0.112221
0.120871
0.126057
0.130255
0.0567105
0.0670304
0.0760166
0.0851546
0.0939502
0.103109
0.111347
0.119682
0.124685
0.12869
0.0565012
0.0668391
0.0758676
0.0849445
0.0936901
0.102669
0.110767
0.118791
0.12371
0.127498
0.0563189
0.0667064
0.0757807
0.0848268
0.0935359
0.102397
0.110415
0.118174
0.123093
0.126638
0.0561937
0.0666442
0.0757795
0.0848255
0.0935081
0.1023
0.110261
0.117838
0.122763
0.126119
0.0561143
0.0666342
0.0758565
0.0849362
0.0936176
0.102386
0.110314
0.117783
0.122701
0.125938
0.0560407
0.0666396
0.07599
0.0851412
0.0938605
0.102654
0.110584
0.118006
0.122919
0.126087
0.0559527
0.0666513
0.0761718
0.0854295
0.0942305
0.103099
0.111071
0.118502
0.123421
0.126553
0.0558357
0.0666748
0.0763987
0.0857968
0.0947272
0.103718
0.111779
0.119269
0.124212
0.127326
0.0556552
0.0667019
0.0766523
0.0862266
0.0953339
0.104489
0.112689
0.120283
0.125274
0.128397
0.0553753
0.0667311
0.0769205
0.0867135
0.0960509
0.105419
0.113816
0.121552
0.126614
0.129763
0.0548974
0.0666945
0.0771337
0.0871908
0.0968055
0.10643
0.115086
0.123012
0.128188
0.131419
0.0542993
0.0666828
0.0773634
0.0877225
0.0976643
0.107589
0.116562
0.124708
0.130034
0.13337
0.053004
0.0661816
0.07718
0.0878904
0.0982031
0.108488
0.117892
0.126399
0.132015
0.135609
0.0535997
0.0675248
0.0789543
0.0903055
0.101412
0.112365
0.122608
0.131695
0.13796
0.141829
0.0640919
0.0768467
0.0877985
0.099796
0.111852
0.124022
0.135667
0.145955
0.15312
0.157136
0.0751683
0.0880083
0.099531
0.112724
0.126037
0.139916
0.15333
0.165209
0.173473
0.177783
0.0857385
0.0993031
0.112338
0.127389
0.142702
0.159167
0.175061
0.189309
0.199385
0.204429
0.0957863
0.110568
0.125713
0.143014
0.161015
0.180855
0.200064
0.217861
0.230971
0.237634
0.105586
0.121903
0.139582
0.159394
0.180771
0.204602
0.228065
0.250921
0.269108
0.279716
0.11462
0.132864
0.152943
0.175537
0.200782
0.228798
0.257609
0.287449
0.31375
0.333125
0.123206
0.143169
0.16562
0.191211
0.220316
0.252749
0.288322
0.32728
0.366364
0.404316
0.128093
0.149497
0.173829
0.201716
0.234098
0.271286
0.314612
0.365074
0.425031
0.496153
0.13159
0.155293
0.181401
0.211548
0.247307
0.289721
0.341381
0.406471
0.496225
0.613909
0.0491127
0.058676
0.0680514
0.0775372
0.0866599
0.0961052
0.103661
0.111952
0.116251
0.117824
0.0479521
0.0574903
0.0665597
0.075633
0.0842781
0.0933832
0.100297
0.108402
0.112165
0.114289
0.0474993
0.0571727
0.0661619
0.0750483
0.083274
0.0918472
0.0981902
0.10582
0.108933
0.112519
0.0469298
0.0563772
0.0651014
0.0738436
0.0817152
0.0897936
0.0956763
0.102791
0.105402
0.109787
0.0463699
0.0552774
0.0635746
0.0719368
0.0794942
0.0870666
0.0925265
0.0991464
0.101347
0.10572
0.0459061
0.0541376
0.0619646
0.069803
0.0770061
0.0840629
0.0891142
0.0952217
0.0970519
0.100969
0.0455205
0.0530004
0.0603458
0.0676868
0.0744452
0.081032
0.0857568
0.0913205
0.0928517
0.0962305
0.0451924
0.0518582
0.0586799
0.0655653
0.0718875
0.0779887
0.0825195
0.0875465
0.0889277
0.0918444
0.0449013
0.0507246
0.0569569
0.0633835
0.0693136
0.0749767
0.0793045
0.0838699
0.0853066
0.0878262
0.044612
0.0496209
0.0551929
0.061136
0.0667009
0.0720008
0.0760827
0.0803052
0.0818646
0.0840485
0.0311317
0.0331763
0.0339681
0.0344779
0.0346753
0.0345732
0.0342074
0.0335972
0.0327656
0.0316718
0.0305712
0.0327451
0.0334899
0.0338811
0.0338994
0.0335697
0.0329434
0.0320536
0.030948
0.0296658
0.0301442
0.0323793
0.033062
0.0333294
0.0331734
0.0326343
0.0317821
0.0306701
0.0293733
0.0279455
0.0298995
0.0321192
0.0327313
0.0328772
0.0325614
0.03184
0.0308006
0.0295135
0.0280694
0.0265053
0.0298869
0.0320113
0.0325492
0.0325817
0.0321249
0.0312507
0.030061
0.0286388
0.0270799
0.0254001
0.0301521
0.0321029
0.0325663
0.0324945
0.0319148
0.0309145
0.0296059
0.0280801
0.0264312
0.0246593
0.0307324
0.0324372
0.0328251
0.032655
0.0319661
0.0308599
0.0294565
0.027851
0.0261321
0.024292
0.031653
0.0330483
0.0333546
0.0330862
0.032295
0.0310962
0.0296142
0.0279465
0.0261748
0.0242924
0.0329212
0.0339547
0.034166
0.0337918
0.0328986
0.031614
0.0300638
0.0283466
0.0265351
0.0246154
0.0345045
0.035146
0.0352484
0.034756
0.033756
0.0323876
0.0307766
0.0290189
0.0271796
0.0252424
0.0363226
0.0365817
0.0365711
0.0359462
0.0348339
0.0333813
0.0317131
0.0299217
0.028066
0.026126
0.038427
0.0382672
0.0380996
0.0373224
0.0360877
0.0345493
0.0328269
0.0310081
0.029147
0.0272136
0.0407314
0.0401309
0.0397781
0.0388305
0.0374668
0.0358428
0.0340701
0.0322305
0.0303743
0.0284565
0.0431469
0.0421011
0.0415415
0.0404111
0.0389161
0.0372098
0.0353925
0.0335399
0.0316995
0.0298087
0.045585
0.0441017
0.0433206
0.0420028
0.0403797
0.0385981
0.036745
0.0348889
0.033077
0.0312284
0.0479531
0.0460525
0.0450462
0.0435456
0.0418042
0.0399587
0.0380813
0.0362331
0.0344641
0.0326765
0.0501586
0.0478744
0.0466526
0.0449845
0.0431414
0.0412479
0.0393607
0.0375328
0.0358195
0.0341092
0.0521143
0.0494944
0.0480814
0.0462723
0.0443514
0.0424303
0.0405506
0.0387538
0.0371
0.0354759
0.0537429
0.0508488
0.0492838
0.047372
0.0454048
0.043481
0.0416261
0.0398622
0.0382521
0.0367373
0.0549801
0.0518858
0.0502218
0.0482576
0.0462859
0.0443926
0.0425854
0.0408523
0.0392659
0.0379133
0.0557774
0.0525665
0.0508669
0.0489109
0.0469891
0.0451816
0.0434941
0.0418977
0.040475
0.0395871
0.0561014
0.0528629
0.0511969
0.0493118
0.0474903
0.0458056
0.04426
0.042815
0.0415237
0.0407117
0.0559328
0.052763
0.0512018
0.0494484
0.0477735
0.0462428
0.0448562
0.0435746
0.0424205
0.0416308
0.0552782
0.0522721
0.0508845
0.0493216
0.0478384
0.046496
0.045295
0.0442007
0.0432188
0.0425241
0.0541662
0.0514117
0.0502615
0.0489448
0.0476974
0.0465789
0.0455927
0.0447099
0.0439267
0.0433795
0.0526441
0.0502177
0.0493617
0.0483422
0.0473723
0.0465115
0.0457681
0.0451198
0.0445559
0.0441826
0.050774
0.0487376
0.0482229
0.0475456
0.0468908
0.0463186
0.0458434
0.0454505
0.045126
0.0449485
0.0486278
0.0470265
0.0468891
0.0465908
0.0462831
0.0460262
0.0458411
0.0457219
0.0456552
0.0456964
0.0462836
0.0451429
0.0454061
0.0455147
0.0455795
0.0456594
0.0457822
0.0459511
0.046157
0.0464379
0.0438359
0.0431504
0.0438214
0.0443532
0.0448084
0.0452406
0.0456843
0.0461519
0.0466412
0.0471794
0.0414086
0.0411281
0.0421884
0.0431443
0.0439976
0.0447909
0.0455631
0.0463355
0.0471141
0.0479229
0.038955
0.0390855
0.0405306
0.0419097
0.0431644
0.0443226
0.0454267
0.0465059
0.0475746
0.0486627
0.0365541
0.0370755
0.0388848
0.0406747
0.0423258
0.0438466
0.0452808
0.0466635
0.048016
0.0493826
0.0342703
0.0351441
0.0372834
0.0394599
0.0414943
0.0433691
0.0451261
0.0468041
0.0484267
0.0500591
0.032138
0.0333277
0.0357503
0.0382811
0.0406781
0.0428923
0.0449601
0.0469209
0.0487941
0.0506658
0.0301934
0.0316574
0.0342933
0.0371498
0.0398822
0.0424161
0.0447786
0.0470073
0.0491086
0.0511768
0.0284543
0.030142
0.0329452
0.0360712
0.0391093
0.041939
0.0445772
0.0470595
0.049372
0.0515768
0.0269317
0.0287923
0.0317137
0.0350582
0.0383594
0.0414584
0.044351
0.0470735
0.0495969
0.0518733
0.0256307
0.0276178
0.030604
0.0341121
0.0376341
0.040972
0.0440991
0.047051
0.049799
0.0521848
0.0245518
0.0266224
0.0296208
0.0332349
0.0369307
0.0404727
0.043808
0.0469698
0.0499584
0.052624
0.0236867
0.025804
0.0287658
0.0324277
0.0362464
0.0399548
0.0434756
0.046846
0.0502041
0.0535513
0.0230008
0.0251482
0.0280361
0.0316908
0.0355764
0.0393969
0.0430415
0.0465052
0.0498971
0.0532174
0.022506
0.0246581
0.027435
0.0310286
0.0349235
0.0387995
0.0425115
0.0460168
0.0493818
0.0526082
0.0221965
0.0243283
0.0269629
0.0304478
0.0343014
0.0381888
0.0419388
0.0454883
0.0488792
0.0520855
0.0220567
0.0241479
0.0266181
0.0299556
0.0337252
0.0375892
0.0413562
0.0449458
0.0483803
0.051607
0.0220703
0.0241047
0.0263972
0.0295572
0.0332064
0.0370152
0.0407769
0.0443915
0.0478612
0.0511234
0.0222206
0.0241858
0.0262944
0.0292551
0.0327532
0.0364775
0.0402113
0.0438352
0.0473294
0.0506291
0.0224905
0.024377
0.0263017
0.0290493
0.0323717
0.0359854
0.0396703
0.0432892
0.0467994
0.0501348
0.0228633
0.0246628
0.0264091
0.0289372
0.0320657
0.0355466
0.0391631
0.0427637
0.0462824
0.0496522
0.0233314
0.0250339
0.0266081
0.028915
0.0318366
0.0351656
0.0386956
0.0422649
0.0457854
0.0491907
0.0239018
0.0254962
0.0269035
0.0289888
0.0316924
0.0348512
0.0382759
0.0417993
0.0453137
0.0487549
0.0245061
0.0259978
0.0272565
0.0291332
0.0316199
0.0345987
0.0379034
0.0413674
0.0448654
0.0483374
0.0251466
0.0265377
0.0276624
0.0293435
0.0316163
0.0344074
0.0375775
0.0409668
0.0444348
0.0479236
0.0258201
0.0271109
0.0281138
0.0296124
0.0316768
0.0342744
0.0372961
0.0405942
0.0440155
0.0475026
0.0265184
0.0277081
0.0286009
0.0299314
0.0317954
0.0341971
0.0370581
0.0402475
0.0436025
0.0470644
0.0272338
0.0283214
0.0291151
0.0302924
0.0319669
0.034173
0.0368633
0.0399265
0.0431919
0.0465963
0.0279607
0.0289447
0.0296494
0.0306888
0.0321864
0.0342007
0.0367126
0.0396335
0.042784
0.0460883
0.0286941
0.0295734
0.0301984
0.0311151
0.03245
0.0342789
0.0366083
0.0393743
0.042387
0.0455358
0.0294299
0.0302034
0.0307577
0.0315669
0.0327547
0.0344075
0.0365539
0.0391601
0.0420308
0.0449794
0.0301641
0.0308314
0.0313238
0.0320406
0.0330978
0.034586
0.0365493
0.0389878
0.04174
0.0444886
0.0308929
0.0314541
0.0318931
0.032532
0.0334756
0.0348138
0.0366005
0.0388747
0.0416507
0.0446164
0.0316101
0.0320656
0.032461
0.033038
0.0338856
0.0350861
0.0366916
0.0387359
0.0412613
0.0440352
0.0323102
0.0326636
0.0330256
0.0335563
0.0343258
0.0354028
0.0368332
0.0386424
0.0408711
0.0433767
0.0329849
0.0332427
0.0335822
0.0340829
0.0347946
0.0357694
0.0370465
0.0386521
0.0406272
0.0428655
0.0336236
0.0337948
0.034124
0.0346118
0.0352871
0.0361849
0.0373348
0.0387633
0.0405112
0.0424957
0.0342123
0.0343113
0.0346425
0.0351339
0.0357941
0.0366397
0.037689
0.038964
0.0405015
0.0422471
0.0347362
0.034781
0.0351268
0.0356373
0.0363019
0.0371192
0.0380942
0.0392411
0.0405889
0.0421105
0.0351785
0.0351919
0.0355641
0.0361074
0.036793
0.037603
0.0385288
0.0395742
0.040757
0.0420719
0.0355227
0.0355312
0.0359405
0.036527
0.0372463
0.0380657
0.038964
0.0399333
0.0409781
0.0421062
0.0357539
0.0357882
0.036243
0.036879
0.0376394
0.0384789
0.0393656
0.0402804
0.041214
0.0421764
)
;

boundaryField
{
    inlet
    {
        type            zeroGradient;
    }
    outlet
    {
        type            fixedValue;
        value           uniform 0;
    }
    cylinder
    {
        type            zeroGradient;
    }
    top
    {
        type            symmetryPlane;
    }
    bottom
    {
        type            symmetryPlane;
    }
    defaultFaces
    {
        type            empty;
    }
}


// ************************************************************************* //
