/*--------------------------------*- C++ -*----------------------------------*\
  =========                 |
  \\      /  F ield         | OpenFOAM: The Open Source CFD Toolbox
   \\    /   O peration     | Website:  https://openfoam.org
    \\  /    A nd           | Version:  7
     \\/     M anipulation  |
\*---------------------------------------------------------------------------*/
FoamFile
{
    version     2.0;
    format      ascii;
    class       volScalarField;
    location    "8.5";
    object      p;
}
// * * * * * * * * * * * * * * * * * * * * * * * * * * * * * * * * * * * * * //

dimensions      [0 2 -2 0 0 0 0];

internalField   nonuniform List<scalar> 
32000
(
0.254084
0.254755
0.255136
0.255509
0.255848
0.256163
0.256451
0.256717
0.25698
0.257262
0.257582
0.257949
0.258374
0.258868
0.259443
0.260113
0.26089
0.261787
0.262818
0.263996
0.26533
0.266824
0.268478
0.270291
0.27226
0.274381
0.276646
0.279047
0.281573
0.284212
0.286954
0.289788
0.292699
0.295674
0.298697
0.301756
0.304838
0.307936
0.311023
0.314036
0.254293
0.25494
0.255295
0.255637
0.255944
0.256229
0.256488
0.256725
0.256961
0.257215
0.257502
0.257836
0.258225
0.258682
0.259219
0.259847
0.260578
0.261424
0.262401
0.263521
0.264791
0.266218
0.2678
0.269535
0.27142
0.273453
0.27563
0.277941
0.280377
0.282927
0.285581
0.288326
0.291151
0.294042
0.296986
0.299967
0.302975
0.306001
0.309014
0.311964
0.254509
0.255127
0.255457
0.255767
0.256043
0.256297
0.256527
0.256736
0.256947
0.257175
0.257434
0.257735
0.258091
0.258513
0.259014
0.259604
0.260294
0.261096
0.262024
0.26309
0.264304
0.265668
0.267181
0.268842
0.270648
0.272599
0.27469
0.276915
0.279264
0.281727
0.284293
0.286952
0.289691
0.292498
0.295358
0.29826
0.301192
0.304144
0.30708
0.309965
0.254721
0.255305
0.255612
0.255894
0.25614
0.256364
0.256567
0.256753
0.256941
0.257146
0.257379
0.257651
0.257976
0.258366
0.258834
0.259389
0.260043
0.260805
0.26169
0.262709
0.26387
0.265176
0.266626
0.268216
0.269948
0.271819
0.273829
0.27597
0.278234
0.280612
0.283093
0.285666
0.28832
0.291041
0.293818
0.296639
0.299493
0.302369
0.305225
0.308043
0.254941
0.255489
0.255773
0.256028
0.256245
0.25644
0.256617
0.256781
0.256949
0.257132
0.257341
0.257586
0.257882
0.258244
0.258681
0.259205
0.259826
0.260554
0.2614
0.262376
0.26349
0.264742
0.266131
0.267656
0.269317
0.271114
0.273046
0.275107
0.27729
0.279585
0.281982
0.28447
0.287038
0.289675
0.292368
0.295107
0.297881
0.30068
0.303454
0.3062
0.255164
0.255672
0.255933
0.256163
0.256352
0.25652
0.256673
0.256817
0.256966
0.25713
0.257316
0.257538
0.25781
0.258146
0.258556
0.259053
0.259646
0.260343
0.261155
0.262094
0.263164
0.264366
0.265699
0.267162
0.268757
0.270484
0.272343
0.274328
0.276433
0.278647
0.280961
0.283365
0.285849
0.288402
0.291011
0.293666
0.29636
0.299079
0.301768
0.30444
0.255395
0.25586
0.256098
0.256302
0.256466
0.256609
0.25674
0.256865
0.256997
0.257142
0.25731
0.257511
0.257762
0.258075
0.258463
0.258936
0.259503
0.260175
0.260959
0.261864
0.262894
0.26405
0.26533
0.266736
0.268269
0.269932
0.271721
0.273634
0.275663
0.277798
0.280032
0.282354
0.284755
0.287223
0.289749
0.292321
0.294931
0.297569
0.300172
0.302768
0.255631
0.256052
0.256267
0.256447
0.256587
0.256707
0.256817
0.256925
0.257041
0.25717
0.257321
0.257506
0.257739
0.258033
0.2584
0.258853
0.259401
0.260051
0.260811
0.261686
0.262681
0.263793
0.265025
0.266379
0.267856
0.269457
0.271182
0.273026
0.274981
0.27704
0.279196
0.281438
0.283757
0.286142
0.288583
0.291071
0.293599
0.296153
0.298668
0.301185
0.255872
0.256247
0.256439
0.256595
0.256714
0.256814
0.256905
0.256997
0.257098
0.257213
0.257351
0.257522
0.257741
0.258019
0.25837
0.258808
0.25934
0.259972
0.260712
0.261562
0.262523
0.263597
0.264786
0.266092
0.267517
0.269062
0.270726
0.272504
0.274389
0.276375
0.278455
0.280619
0.282857
0.28516
0.287517
0.289921
0.292364
0.294833
0.297258
0.299695
0.256118
0.256445
0.256614
0.256748
0.256847
0.256929
0.257003
0.25708
0.257168
0.257272
0.257399
0.257561
0.257768
0.258034
0.258374
0.258799
0.25932
0.25994
0.260663
0.26149
0.262423
0.263463
0.264613
0.265875
0.267253
0.268746
0.270353
0.272069
0.273888
0.275804
0.27781
0.279897
0.282056
0.284278
0.286552
0.288871
0.291229
0.293612
0.295946
0.298301
0.256367
0.256645
0.256791
0.256905
0.256986
0.257052
0.257111
0.257175
0.257252
0.257346
0.257467
0.257621
0.257821
0.258079
0.258411
0.258829
0.259342
0.259953
0.260662
0.261471
0.262379
0.26339
0.264505
0.26573
0.267065
0.26851
0.270064
0.271721
0.273476
0.275325
0.27726
0.279274
0.281355
0.283496
0.285688
0.287922
0.290195
0.292492
0.294734
0.297004
0.256621
0.256846
0.25697
0.257065
0.25713
0.257181
0.257228
0.257281
0.257349
0.257437
0.257553
0.257703
0.257899
0.258153
0.258482
0.258897
0.259407
0.260011
0.260711
0.261504
0.262392
0.263378
0.264464
0.265655
0.266952
0.268354
0.269858
0.27146
0.273155
0.27494
0.276807
0.278749
0.280755
0.282817
0.284927
0.287077
0.289263
0.291473
0.293623
0.295807
0.256878
0.25705
0.257152
0.257228
0.257278
0.257317
0.257354
0.257397
0.257459
0.257543
0.257657
0.257807
0.258002
0.258257
0.258587
0.259004
0.259513
0.260114
0.260806
0.261588
0.262461
0.263426
0.264489
0.265651
0.266914
0.268276
0.269734
0.271284
0.272924
0.274648
0.27645
0.278322
0.280255
0.282239
0.284268
0.286334
0.288436
0.290558
0.292615
0.294712
0.257138
0.257255
0.257335
0.257392
0.25743
0.257458
0.257486
0.257524
0.257581
0.257664
0.257779
0.257931
0.25813
0.25839
0.258726
0.259148
0.259659
0.26026
0.260948
0.261722
0.262584
0.263535
0.264578
0.265716
0.266949
0.268275
0.269691
0.271194
0.272781
0.274448
0.276189
0.277994
0.279855
0.281764
0.283713
0.285696
0.287712
0.289747
0.291713
0.29372
0.257402
0.257461
0.257519
0.257559
0.257584
0.257604
0.257626
0.257659
0.257715
0.257799
0.257916
0.258074
0.258282
0.258552
0.258898
0.259327
0.259844
0.260447
0.261134
0.261905
0.262761
0.263701
0.26473
0.265848
0.267056
0.26835
0.269728
0.271188
0.272726
0.27434
0.276022
0.277763
0.279555
0.28139
0.283261
0.285163
0.287094
0.289043
0.290916
0.292834
0.257668
0.257669
0.257704
0.257726
0.25774
0.257753
0.257771
0.257803
0.257859
0.257946
0.25807
0.258237
0.258456
0.258741
0.2591
0.259541
0.260066
0.260674
0.261364
0.262136
0.262989
0.263924
0.264943
0.266046
0.267233
0.2685
0.269844
0.271264
0.272758
0.274322
0.275948
0.277628
0.279353
0.281117
0.282912
0.284733
0.286582
0.288445
0.290228
0.292055
0.257936
0.257877
0.257889
0.257893
0.257896
0.257904
0.25792
0.257954
0.258013
0.258105
0.258238
0.258418
0.258654
0.258955
0.259331
0.259787
0.260323
0.26094
0.261637
0.262413
0.263269
0.264202
0.265215
0.266308
0.267477
0.268721
0.270036
0.271421
0.272875
0.274392
0.275966
0.277588
0.279249
0.280943
0.282664
0.284408
0.286175
0.287954
0.289648
0.291383
0.258206
0.258085
0.258074
0.258058
0.258052
0.258056
0.258074
0.25811
0.258175
0.258276
0.258421
0.258617
0.258872
0.259194
0.25959
0.260063
0.260614
0.261242
0.26195
0.262735
0.263597
0.264534
0.265545
0.266631
0.267787
0.269012
0.270302
0.271657
0.273074
0.274549
0.276073
0.27764
0.27924
0.280868
0.282518
0.284187
0.285875
0.287571
0.289177
0.29082
0.258476
0.258292
0.258256
0.258222
0.258207
0.258209
0.258229
0.258272
0.258345
0.258457
0.258617
0.258832
0.25911
0.259456
0.259874
0.260367
0.260936
0.261581
0.262302
0.2631
0.263972
0.264916
0.26593
0.267012
0.26816
0.26937
0.27064
0.271968
0.273353
0.274788
0.276267
0.277782
0.279325
0.28089
0.282472
0.284068
0.285679
0.287294
0.288815
0.290366
0.258743
0.258496
0.258435
0.258382
0.258359
0.25836
0.258385
0.258437
0.258521
0.258648
0.258825
0.259063
0.259365
0.259737
0.260181
0.260698
0.261287
0.261952
0.262692
0.263506
0.264391
0.265345
0.266365
0.267449
0.268592
0.269791
0.271045
0.272351
0.273707
0.275107
0.276544
0.278012
0.279501
0.281007
0.282525
0.28405
0.285587
0.287124
0.288562
0.290021
0.259007
0.258695
0.258609
0.258537
0.258506
0.258509
0.258541
0.258603
0.258702
0.258846
0.259044
0.259306
0.259636
0.260037
0.260509
0.261051
0.261666
0.262354
0.263115
0.263949
0.264851
0.265819
0.266849
0.267937
0.269079
0.270272
0.271514
0.272802
0.274133
0.275502
0.276902
0.278326
0.279766
0.281216
0.282673
0.284132
0.285597
0.287059
0.288417
0.289785
0.259264
0.258886
0.258776
0.258686
0.258648
0.258653
0.258694
0.25877
0.258885
0.259049
0.259271
0.25956
0.25992
0.260352
0.260854
0.261425
0.262068
0.262782
0.263569
0.264425
0.265348
0.266333
0.267376
0.268473
0.269618
0.270809
0.272042
0.273316
0.274627
0.275969
0.277336
0.27872
0.280115
0.281514
0.282914
0.284311
0.285708
0.287098
0.28838
0.289658
0.25951
0.259067
0.258933
0.258826
0.258783
0.258791
0.258843
0.258934
0.259069
0.259255
0.259504
0.259823
0.260214
0.260679
0.261213
0.261817
0.26249
0.263234
0.264049
0.264931
0.265878
0.266884
0.267943
0.269052
0.270203
0.271395
0.272625
0.273889
0.275183
0.276503
0.277842
0.279191
0.280545
0.281898
0.283245
0.284584
0.285917
0.287238
0.288448
0.289637
0.259742
0.259235
0.259078
0.258955
0.258908
0.258921
0.258985
0.259094
0.25925
0.259462
0.259739
0.26009
0.260516
0.261014
0.261583
0.262221
0.262929
0.263705
0.264551
0.265462
0.266436
0.267465
0.268545
0.269668
0.27083
0.272027
0.273256
0.274514
0.275797
0.277099
0.278413
0.279732
0.28105
0.282361
0.28366
0.284946
0.286219
0.287476
0.288618
0.289721
0.259956
0.259387
0.259208
0.25907
0.259021
0.259041
0.259119
0.259248
0.259428
0.259666
0.259975
0.260359
0.26082
0.261356
0.261961
0.262636
0.26338
0.264192
0.265071
0.266014
0.267017
0.268073
0.269175
0.270317
0.271493
0.272698
0.27393
0.275186
0.276461
0.27775
0.279044
0.280338
0.281624
0.282898
0.284155
0.285392
0.286611
0.287808
0.288889
0.289908
0.260151
0.259521
0.259321
0.259171
0.25912
0.259149
0.259243
0.259392
0.259598
0.259866
0.260208
0.260628
0.261126
0.261699
0.262344
0.263057
0.263839
0.264688
0.265603
0.266581
0.267616
0.268701
0.269829
0.270992
0.272184
0.273401
0.274641
0.275898
0.277169
0.278448
0.279727
0.281
0.282259
0.283501
0.284722
0.285917
0.287086
0.288229
0.289255
0.290194
0.260322
0.259633
0.259415
0.259254
0.259204
0.259243
0.259352
0.259525
0.259758
0.260058
0.260435
0.260892
0.261429
0.262042
0.262726
0.26348
0.264303
0.265191
0.266144
0.267158
0.268227
0.269344
0.2705
0.271687
0.272898
0.27413
0.27538
0.276642
0.277913
0.279186
0.280454
0.28171
0.282948
0.284164
0.285354
0.286512
0.287639
0.288733
0.28971
0.290573
0.260466
0.259722
0.259488
0.259318
0.25927
0.259319
0.259447
0.259643
0.259906
0.26024
0.260653
0.261149
0.261726
0.262379
0.263105
0.263901
0.264766
0.265696
0.266688
0.26774
0.268845
0.269996
0.271182
0.272394
0.273628
0.274877
0.27614
0.277411
0.278685
0.279956
0.281217
0.282461
0.283682
0.284878
0.286042
0.287169
0.28826
0.289314
0.290249
0.291042
0.260582
0.259785
0.259536
0.25936
0.259317
0.259377
0.259523
0.259744
0.260038
0.260407
0.260859
0.261395
0.262013
0.262708
0.263476
0.264316
0.265223
0.266196
0.26723
0.268321
0.269464
0.270649
0.271866
0.273107
0.274365
0.275635
0.276913
0.278195
0.279476
0.280748
0.282005
0.283241
0.284452
0.285632
0.286777
0.28788
0.288941
0.289962
0.290865
0.291592
0.260665
0.259819
0.259559
0.259379
0.259341
0.259414
0.259579
0.259826
0.260151
0.260558
0.261049
0.261626
0.262285
0.263023
0.263835
0.264719
0.265671
0.266687
0.267763
0.268895
0.270076
0.271297
0.272547
0.273818
0.275101
0.276394
0.27769
0.278986
0.280276
0.281552
0.28281
0.284042
0.285246
0.286416
0.287547
0.288633
0.289672
0.290667
0.291547
0.292217
0.260713
0.259822
0.259553
0.259372
0.259341
0.259428
0.259613
0.259886
0.260244
0.260688
0.26122
0.261838
0.26254
0.263321
0.264177
0.265106
0.266103
0.267163
0.268282
0.269455
0.270675
0.271933
0.273217
0.274518
0.275829
0.277146
0.278462
0.279774
0.281074
0.282358
0.283619
0.284851
0.286052
0.287217
0.28834
0.289416
0.29044
0.291419
0.292286
0.292907
0.260723
0.259791
0.259516
0.259336
0.259314
0.259416
0.259621
0.259921
0.260312
0.260794
0.261367
0.262028
0.262772
0.263597
0.264498
0.265472
0.266514
0.267619
0.268781
0.269996
0.271255
0.27255
0.273868
0.275201
0.27654
0.277882
0.279219
0.280548
0.281861
0.283154
0.28442
0.285656
0.286858
0.288022
0.289143
0.290214
0.291232
0.292204
0.293069
0.293652
0.260691
0.259724
0.259445
0.259269
0.259258
0.259375
0.259602
0.259929
0.260353
0.260873
0.261487
0.26219
0.262977
0.263846
0.264792
0.265812
0.2669
0.268049
0.269255
0.270511
0.271809
0.273141
0.274494
0.275858
0.277226
0.278592
0.279952
0.281297
0.282624
0.283927
0.285201
0.286443
0.287648
0.288815
0.289938
0.291012
0.292031
0.293007
0.293883
0.29444
0.260616
0.259618
0.259338
0.259168
0.259169
0.259304
0.259553
0.259908
0.260365
0.260922
0.261576
0.262322
0.263152
0.264065
0.265056
0.266121
0.267254
0.268448
0.269696
0.270993
0.272331
0.273699
0.275085
0.27648
0.277877
0.279268
0.280649
0.282012
0.283353
0.284666
0.285949
0.287197
0.288408
0.28958
0.290709
0.29179
0.292819
0.293809
0.29471
0.295256
0.260494
0.259472
0.259193
0.259031
0.259046
0.2592
0.259472
0.259855
0.260344
0.260939
0.261633
0.26242
0.263293
0.264249
0.265285
0.266395
0.267573
0.26881
0.2701
0.271438
0.272813
0.274216
0.275635
0.27706
0.278484
0.2799
0.281301
0.28268
0.284034
0.285359
0.28665
0.287904
0.289121
0.290298
0.291436
0.292529
0.293574
0.294589
0.295532
0.296087
0.260323
0.259282
0.259008
0.258855
0.258887
0.25906
0.259356
0.259767
0.26029
0.260921
0.261654
0.262482
0.263397
0.264396
0.265475
0.26663
0.267851
0.26913
0.270461
0.271837
0.273249
0.274686
0.276136
0.27759
0.27904
0.280477
0.281897
0.283291
0.284657
0.28599
0.287288
0.288548
0.289769
0.290952
0.292097
0.293203
0.29427
0.295322
0.296325
0.296916
0.260103
0.259048
0.25878
0.25864
0.258689
0.258884
0.259204
0.259643
0.260198
0.260865
0.261637
0.262504
0.26346
0.264501
0.265623
0.26682
0.268083
0.269403
0.270774
0.272187
0.273633
0.275101
0.27658
0.278061
0.279534
0.280991
0.282427
0.283834
0.285209
0.286549
0.287851
0.289113
0.290335
0.291518
0.292668
0.293786
0.294876
0.29597
0.297055
0.297721
0.259829
0.258767
0.258509
0.258383
0.258451
0.258668
0.259014
0.259481
0.260068
0.26077
0.261578
0.262484
0.26348
0.264561
0.265724
0.266962
0.268265
0.269624
0.271031
0.272479
0.273957
0.275454
0.27696
0.278464
0.279958
0.281432
0.282881
0.284298
0.285679
0.287021
0.288323
0.289582
0.290798
0.291976
0.293122
0.294243
0.29535
0.29649
0.297684
0.298499
0.259503
0.25844
0.258192
0.258083
0.258171
0.258411
0.258782
0.259278
0.259897
0.260632
0.261477
0.262419
0.263453
0.264573
0.265775
0.267051
0.268392
0.269787
0.271228
0.272708
0.274215
0.275739
0.277268
0.278792
0.280303
0.281791
0.283249
0.284672
0.286054
0.287395
0.28869
0.289939
0.291141
0.292301
0.293429
0.294538
0.295647
0.296834
0.29821
0.299363
0.259122
0.258064
0.257829
0.257739
0.257849
0.258112
0.258509
0.259033
0.259682
0.260451
0.261329
0.262307
0.263377
0.264533
0.265772
0.267084
0.268459
0.269888
0.27136
0.272869
0.274401
0.275948
0.277497
0.279038
0.280561
0.282059
0.283522
0.284945
0.286325
0.287657
0.288939
0.290167
0.291343
0.292468
0.293551
0.294606
0.295666
0.29684
0.298323
0.299871
0.324388
0.339202
0.352152
0.362812
0.371282
0.378084
0.383452
0.38779
0.391331
0.394315
0.396861
0.399059
0.400986
0.402716
0.404263
0.40565
0.406894
0.408017
0.409016
0.409897
0.410669
0.411346
0.411916
0.412388
0.412758
0.413023
0.413197
0.413278
0.413257
0.413143
0.412923
0.412616
0.412206
0.411698
0.411087
0.410376
0.409587
0.408681
0.40787
0.40669
0.322413
0.337054
0.350154
0.360876
0.369447
0.376308
0.381729
0.386116
0.3897
0.392712
0.395283
0.39752
0.399486
0.401241
0.402815
0.404241
0.405521
0.406667
0.407688
0.408599
0.409402
0.410099
0.410693
0.411181
0.411568
0.411856
0.412048
0.41214
0.412135
0.412031
0.41183
0.41153
0.411134
0.410638
0.41004
0.409338
0.408558
0.407663
0.40686
0.405688
0.320498
0.334934
0.348173
0.358946
0.367614
0.37453
0.380003
0.384439
0.388066
0.391107
0.393704
0.395978
0.397983
0.399764
0.401367
0.402831
0.404145
0.405316
0.40636
0.407301
0.408134
0.40885
0.409468
0.409973
0.410377
0.410689
0.410897
0.411003
0.411015
0.410922
0.41074
0.410448
0.410066
0.409583
0.408998
0.408305
0.407536
0.406653
0.405859
0.404695
0.318641
0.332844
0.346215
0.357026
0.36578
0.372752
0.378278
0.382757
0.386424
0.389499
0.392129
0.394435
0.396475
0.398288
0.399924
0.401418
0.402763
0.403964
0.405037
0.406004
0.406862
0.4076
0.40824
0.408766
0.409189
0.40952
0.409745
0.409867
0.409895
0.409818
0.409651
0.409374
0.409006
0.408533
0.407959
0.407279
0.406522
0.405651
0.404867
0.403714
0.316846
0.330788
0.344278
0.355114
0.363945
0.370972
0.376552
0.381072
0.384777
0.38789
0.390554
0.39289
0.394963
0.396812
0.398482
0.400004
0.401378
0.402612
0.403717
0.404708
0.405589
0.406351
0.407011
0.407561
0.408003
0.408351
0.408593
0.408733
0.408777
0.408719
0.408565
0.408306
0.40795
0.407489
0.406927
0.40626
0.405515
0.404656
0.403883
0.402741
0.315117
0.328771
0.342361
0.353208
0.362111
0.36919
0.374822
0.379385
0.383128
0.386277
0.388977
0.391345
0.393451
0.395335
0.397039
0.398591
0.399996
0.401262
0.402398
0.403413
0.404318
0.405103
0.405784
0.406357
0.406819
0.407184
0.407444
0.407603
0.407662
0.407622
0.407484
0.407241
0.4069
0.406451
0.405901
0.405248
0.404516
0.403669
0.402907
0.401777
0.313456
0.326796
0.340466
0.351311
0.360279
0.367406
0.37309
0.377695
0.381476
0.384663
0.387398
0.389799
0.391939
0.393859
0.395597
0.39718
0.398616
0.399912
0.401079
0.402119
0.403049
0.403858
0.404559
0.405154
0.405637
0.40602
0.406298
0.406475
0.406552
0.40653
0.406408
0.406181
0.405855
0.405419
0.404883
0.404243
0.403525
0.402691
0.40194
0.400821
0.311865
0.324866
0.338594
0.349422
0.358447
0.36562
0.371354
0.376002
0.379821
0.383046
0.385818
0.388253
0.390427
0.392382
0.394155
0.395769
0.397238
0.398564
0.399761
0.400828
0.401781
0.402615
0.403337
0.403954
0.404458
0.404859
0.405156
0.405352
0.405446
0.405441
0.405336
0.405126
0.404815
0.404394
0.403872
0.403246
0.402542
0.401721
0.400982
0.399872
0.310345
0.322983
0.336747
0.347543
0.356618
0.363831
0.369614
0.374305
0.378165
0.381428
0.384236
0.386707
0.388916
0.390907
0.392715
0.394361
0.395862
0.397217
0.398444
0.399538
0.400515
0.401375
0.402117
0.402757
0.403281
0.403701
0.404017
0.404232
0.404344
0.404357
0.404269
0.404076
0.40378
0.403375
0.402868
0.402257
0.401567
0.400759
0.400031
0.398931
0.308896
0.321152
0.334925
0.345675
0.35479
0.36204
0.36787
0.372605
0.376505
0.379808
0.382653
0.385161
0.387406
0.389432
0.391276
0.392954
0.394488
0.395873
0.397129
0.39825
0.399251
0.400136
0.4009
0.401562
0.402108
0.402547
0.402883
0.403115
0.403246
0.403277
0.403207
0.403031
0.402751
0.402362
0.401871
0.401275
0.400601
0.399806
0.399089
0.397998
0.30752
0.319376
0.33313
0.343819
0.352963
0.360246
0.366122
0.370902
0.374843
0.378186
0.38107
0.383615
0.385897
0.38796
0.38984
0.391551
0.393116
0.394531
0.395816
0.396964
0.397989
0.3989
0.399686
0.400369
0.400937
0.401396
0.401752
0.402003
0.402153
0.402203
0.402149
0.40199
0.401728
0.401356
0.400881
0.400301
0.399642
0.39886
0.398155
0.397072
0.306218
0.317659
0.331364
0.341977
0.351139
0.358449
0.36437
0.369193
0.373177
0.376562
0.379486
0.38207
0.38439
0.38649
0.388406
0.39015
0.391747
0.393193
0.394505
0.395682
0.396731
0.397666
0.398475
0.39918
0.39977
0.400249
0.400625
0.400895
0.401064
0.401132
0.401095
0.400955
0.40071
0.400356
0.399898
0.399334
0.398691
0.397923
0.397228
0.396154
0.304991
0.316003
0.329629
0.340149
0.349317
0.356648
0.362612
0.36748
0.371509
0.374936
0.377902
0.380526
0.382885
0.385022
0.386975
0.388752
0.390382
0.391858
0.393198
0.394402
0.395475
0.396435
0.397267
0.397994
0.398606
0.399104
0.399501
0.399791
0.399978
0.400064
0.400046
0.399925
0.399697
0.399361
0.398922
0.398375
0.397748
0.396993
0.39631
0.395244
0.30384
0.314412
0.327926
0.338336
0.347497
0.354844
0.360848
0.365761
0.369836
0.373309
0.376317
0.378984
0.381383
0.383558
0.385548
0.387359
0.38902
0.390527
0.391895
0.393126
0.394223
0.395207
0.396062
0.396811
0.397445
0.397963
0.398381
0.39869
0.398896
0.399001
0.399002
0.3989
0.398689
0.398373
0.397952
0.397423
0.396812
0.396071
0.395399
0.394342
0.302766
0.31289
0.326256
0.336542
0.345679
0.353037
0.359077
0.364037
0.368159
0.371679
0.374733
0.377444
0.379883
0.382097
0.384124
0.385969
0.387662
0.3892
0.390595
0.391853
0.392975
0.393982
0.394861
0.39563
0.396287
0.396826
0.397263
0.397593
0.397818
0.397941
0.397961
0.39788
0.397687
0.39739
0.396989
0.396478
0.395883
0.395156
0.394496
0.393448
0.301771
0.311441
0.324623
0.334766
0.343864
0.351226
0.3573
0.362306
0.366478
0.370047
0.373149
0.375905
0.378386
0.38064
0.382704
0.384583
0.386309
0.387877
0.3893
0.390585
0.391731
0.392761
0.393664
0.394453
0.395133
0.395693
0.396148
0.396498
0.396744
0.396885
0.396925
0.396863
0.39669
0.396414
0.396033
0.39554
0.394962
0.394249
0.3936
0.392561
0.300854
0.310068
0.323028
0.333011
0.342053
0.349412
0.355516
0.360569
0.364791
0.368412
0.371565
0.374369
0.376893
0.379186
0.381287
0.383202
0.38496
0.386559
0.388009
0.38932
0.390492
0.391544
0.392471
0.39328
0.393981
0.394563
0.395037
0.395407
0.395673
0.395833
0.395892
0.395852
0.395698
0.395443
0.395082
0.394608
0.394047
0.39335
0.392713
0.391682
0.300016
0.308775
0.321474
0.331279
0.340246
0.347594
0.353725
0.358823
0.3631
0.366775
0.36998
0.372834
0.375402
0.377737
0.379875
0.381826
0.383616
0.385246
0.386724
0.38806
0.389257
0.390332
0.391282
0.392111
0.392833
0.393436
0.39393
0.394319
0.394605
0.394784
0.394863
0.394844
0.394711
0.394477
0.394137
0.393683
0.393139
0.392458
0.391832
0.390811
0.29926
0.307564
0.319963
0.329571
0.338445
0.345773
0.351926
0.35707
0.361402
0.365135
0.368396
0.371301
0.373914
0.376291
0.378468
0.380455
0.382277
0.383938
0.385444
0.386806
0.388028
0.389124
0.390098
0.390948
0.391689
0.392313
0.392826
0.393234
0.39354
0.393739
0.393838
0.393841
0.393729
0.393517
0.393198
0.392764
0.392239
0.391573
0.390959
0.389948
0.298584
0.306439
0.318498
0.32789
0.33665
0.34395
0.350119
0.355308
0.359698
0.363491
0.36681
0.369769
0.37243
0.37485
0.377066
0.379089
0.380945
0.382636
0.38417
0.385557
0.386805
0.387922
0.388918
0.38979
0.390549
0.391194
0.391727
0.392153
0.392479
0.392698
0.392816
0.392841
0.392752
0.392561
0.392264
0.391851
0.391346
0.390697
0.390094
0.389092
0.29799
0.305402
0.317084
0.326239
0.334865
0.342124
0.348304
0.353536
0.357986
0.361843
0.365223
0.368239
0.370948
0.373414
0.375669
0.37773
0.379619
0.38134
0.382902
0.384314
0.385587
0.386725
0.387743
0.388637
0.389413
0.390079
0.39063
0.391075
0.391421
0.39166
0.391799
0.391846
0.391779
0.39161
0.391335
0.390945
0.390459
0.389828
0.389237
0.388246
0.297479
0.304457
0.315722
0.324619
0.333089
0.340297
0.346481
0.351756
0.356267
0.360191
0.363635
0.366709
0.36947
0.371982
0.374279
0.376377
0.378299
0.380051
0.38164
0.383078
0.384375
0.385535
0.386573
0.387488
0.388283
0.388968
0.389538
0.390001
0.390366
0.390625
0.390786
0.390854
0.39081
0.390664
0.390413
0.390045
0.38958
0.388966
0.388389
0.387408
0.29705
0.303605
0.314416
0.323034
0.331327
0.33847
0.34465
0.349966
0.35454
0.358533
0.362045
0.365181
0.367996
0.370556
0.372895
0.37503
0.376985
0.378768
0.380384
0.381847
0.383168
0.38435
0.385409
0.386345
0.387156
0.387861
0.388449
0.38893
0.389315
0.389595
0.389776
0.389866
0.389845
0.389722
0.389495
0.389152
0.388707
0.388113
0.387549
0.38658
0.296704
0.302848
0.313171
0.321487
0.32958
0.336644
0.342812
0.348166
0.352805
0.356869
0.360452
0.363653
0.366525
0.369135
0.371517
0.37369
0.375678
0.377492
0.379135
0.380623
0.381967
0.38317
0.384249
0.385206
0.386034
0.386757
0.387364
0.387862
0.388267
0.388568
0.38877
0.388881
0.388884
0.388785
0.388582
0.388264
0.387841
0.387269
0.38672
0.385762
0.29644
0.302187
0.311989
0.319981
0.327852
0.334822
0.340968
0.346357
0.351062
0.3552
0.358858
0.362127
0.365059
0.367721
0.370146
0.372358
0.374379
0.376223
0.377892
0.379405
0.380772
0.381996
0.383094
0.384072
0.384917
0.385657
0.386282
0.386798
0.387223
0.387543
0.387767
0.387899
0.387927
0.387851
0.387674
0.387381
0.386982
0.386432
0.385901
0.384954
0.296259
0.301622
0.310874
0.31852
0.326146
0.333005
0.339119
0.344538
0.349309
0.353523
0.357261
0.360601
0.363596
0.366312
0.368782
0.371033
0.373087
0.374961
0.376656
0.378193
0.379582
0.380828
0.381944
0.382942
0.383804
0.384561
0.385205
0.385737
0.386181
0.386522
0.386766
0.38692
0.386971
0.386921
0.386769
0.386503
0.38613
0.385604
0.385092
0.384157
0.296159
0.301153
0.30983
0.317106
0.324465
0.331195
0.337266
0.342709
0.347546
0.351839
0.35566
0.359075
0.362137
0.364909
0.367425
0.369716
0.371803
0.373706
0.375427
0.376987
0.378398
0.379665
0.3808
0.381815
0.382695
0.383468
0.384131
0.38468
0.385142
0.385503
0.385768
0.385942
0.386018
0.385993
0.385867
0.385629
0.385284
0.384784
0.384294
0.383373
0.296139
0.300777
0.308857
0.315742
0.322814
0.329395
0.33541
0.340872
0.345772
0.350148
0.354054
0.35755
0.360681
0.363512
0.366075
0.368407
0.370527
0.372459
0.374205
0.375788
0.377219
0.378507
0.37966
0.380693
0.38159
0.382378
0.38306
0.383626
0.384105
0.384486
0.384772
0.384967
0.385066
0.385067
0.384968
0.38476
0.384444
0.383973
0.383508
0.382602
0.296198
0.300493
0.30796
0.314432
0.321197
0.327608
0.333553
0.339027
0.343989
0.348448
0.352445
0.356024
0.359227
0.362121
0.364733
0.367106
0.369259
0.371219
0.372989
0.374595
0.376047
0.377354
0.378524
0.379574
0.38049
0.381292
0.381991
0.382574
0.383071
0.38347
0.383776
0.383993
0.384116
0.384142
0.384071
0.383893
0.383611
0.383171
0.382733
0.381845
0.296335
0.300294
0.307137
0.31318
0.319619
0.32584
0.331698
0.337176
0.342197
0.346741
0.35083
0.354498
0.357778
0.360735
0.363399
0.365813
0.367999
0.369986
0.371782
0.373409
0.374881
0.376207
0.377394
0.378459
0.379393
0.380209
0.380924
0.381525
0.382038
0.382456
0.382782
0.383019
0.383166
0.383218
0.383175
0.38303
0.382782
0.382378
0.381971
0.381104
0.296546
0.300176
0.306391
0.311991
0.318085
0.324092
0.329848
0.335319
0.340396
0.345027
0.349211
0.352971
0.356331
0.359356
0.362073
0.364529
0.366747
0.368762
0.370581
0.372229
0.373721
0.375065
0.376269
0.377348
0.378299
0.379129
0.37986
0.380478
0.381007
0.381443
0.381788
0.382046
0.382216
0.382294
0.382281
0.382168
0.381958
0.381594
0.381222
0.380381
0.296831
0.300132
0.305721
0.310868
0.316602
0.322369
0.328007
0.333461
0.338588
0.343304
0.347587
0.351443
0.354888
0.357982
0.360754
0.363252
0.365505
0.367546
0.369388
0.371057
0.372567
0.373928
0.375148
0.376242
0.377208
0.378053
0.378798
0.379434
0.379977
0.380432
0.380796
0.381074
0.381267
0.38137
0.381387
0.381308
0.381138
0.380819
0.380488
0.379677
0.297187
0.300154
0.305125
0.309814
0.315174
0.320676
0.326179
0.331602
0.336774
0.341574
0.345957
0.349915
0.353447
0.356615
0.359444
0.361984
0.364271
0.366338
0.368203
0.369892
0.371419
0.372797
0.374033
0.375139
0.376121
0.37698
0.377739
0.378391
0.378949
0.379421
0.379803
0.380101
0.380316
0.380446
0.380492
0.380449
0.38032
0.380051
0.379769
0.378996
0.297611
0.300232
0.304602
0.308832
0.31381
0.31902
0.324368
0.329747
0.334955
0.339837
0.344323
0.348384
0.352009
0.355252
0.358141
0.360725
0.363046
0.365139
0.367026
0.368734
0.370278
0.371671
0.372922
0.374042
0.375037
0.375911
0.376682
0.37735
0.377923
0.378412
0.378812
0.379128
0.379365
0.37952
0.379597
0.379589
0.379505
0.379289
0.379065
0.37834
0.298101
0.300353
0.30415
0.307928
0.312514
0.317407
0.322579
0.3279
0.333133
0.338093
0.342683
0.346851
0.350573
0.353895
0.356845
0.359473
0.361829
0.363949
0.365857
0.367585
0.369144
0.370552
0.371817
0.372949
0.373957
0.374845
0.375628
0.376312
0.376899
0.377404
0.37782
0.378155
0.378413
0.378592
0.378699
0.378728
0.37869
0.378534
0.378377
0.377714
0.298657
0.300511
0.303765
0.307104
0.311296
0.315843
0.320819
0.326065
0.33131
0.336345
0.341039
0.345317
0.349139
0.352543
0.355556
0.358231
0.360622
0.362768
0.364698
0.366443
0.368018
0.36944
0.370718
0.371862
0.372882
0.373783
0.374578
0.375277
0.375878
0.376396
0.376829
0.377181
0.377459
0.377662
0.377798
0.377864
0.377874
0.377783
0.377704
0.377124
0.299277
0.300697
0.303447
0.306366
0.310163
0.314337
0.319097
0.324247
0.329493
0.334597
0.339395
0.343784
0.34771
0.351199
0.354277
0.356999
0.359426
0.361597
0.363548
0.36531
0.366899
0.368335
0.369624
0.37078
0.371811
0.372725
0.373532
0.374244
0.374858
0.37539
0.375838
0.376206
0.376504
0.37673
0.376894
0.376996
0.377056
0.377034
0.377047
0.376575
0.299917
0.300883
0.303176
0.305706
0.309122
0.312896
0.317421
0.322454
0.327687
0.332851
0.337748
0.342248
0.346278
0.349851
0.352995
0.355767
0.358229
0.360426
0.362398
0.364177
0.36578
0.367228
0.36853
0.369697
0.370739
0.371665
0.372484
0.373209
0.373836
0.37438
0.374842
0.375226
0.375542
0.375791
0.375983
0.376122
0.376231
0.376283
0.3764
0.376077
0.300568
0.301024
0.302889
0.305071
0.308134
0.311486
0.315751
0.320645
0.325844
0.331055
0.336044
0.340652
0.34479
0.348452
0.351668
0.354496
0.356998
0.359227
0.361223
0.363022
0.364642
0.366104
0.367419
0.368599
0.369653
0.370593
0.371424
0.372161
0.372802
0.373359
0.373836
0.374236
0.37457
0.374841
0.37506
0.375235
0.375395
0.375525
0.37576
0.375641
0.301954
0.301445
0.302797
0.304562
0.30722
0.310058
0.313999
0.318704
0.32384
0.329097
0.334198
0.338946
0.343226
0.347011
0.350326
0.353228
0.355784
0.358051
0.360075
0.361895
0.363531
0.365006
0.366332
0.367522
0.368587
0.369537
0.370379
0.371125
0.371777
0.372345
0.372834
0.373248
0.373597
0.373887
0.374131
0.37434
0.374545
0.37475
0.37511
0.375266
0.309872
0.305659
0.305168
0.304958
0.305632
0.306245
0.308753
0.312645
0.317569
0.323088
0.328735
0.334129
0.339022
0.343305
0.34698
0.350111
0.352793
0.355116
0.357157
0.358972
0.360599
0.362063
0.363381
0.364565
0.365628
0.366579
0.367426
0.368178
0.36884
0.369421
0.369928
0.370366
0.370746
0.371077
0.371374
0.371656
0.371962
0.372345
0.373031
0.374123
0.304869
0.302069
0.30097
0.299904
0.299079
0.299025
0.300651
0.304064
0.308956
0.314774
0.320897
0.326806
0.332165
0.336821
0.34077
0.34409
0.346895
0.349299
0.351392
0.353242
0.354893
0.356376
0.357711
0.358913
0.359994
0.360965
0.361833
0.362606
0.363292
0.363896
0.364426
0.36489
0.365297
0.365657
0.365989
0.366315
0.366685
0.367187
0.368098
0.369625
0.296231
0.294798
0.293712
0.292658
0.291499
0.291143
0.292458
0.295734
0.300728
0.306848
0.313385
0.319729
0.325478
0.33045
0.334631
0.338112
0.341021
0.343488