/*--------------------------------*- C++ -*----------------------------------*\
  =========                 |
  \\      /  F ield         | OpenFOAM: The Open Source CFD Toolbox
   \\    /   O peration     | Website:  https://openfoam.org
    \\  /    A nd           | Version:  7
     \\/     M anipulation  |
\*---------------------------------------------------------------------------*/
FoamFile
{
    version     2.0;
    format      ascii;
    class       volVectorField;
    location    "8.5";
    object      U;
}
// * * * * * * * * * * * * * * * * * * * * * * * * * * * * * * * * * * * * * //

dimensions      [0 1 -1 0 0 0 0];

internalField   nonuniform List<vector> 
32000
(
(0.000219439 -0.00475064 -2.20491e-22)
(0.00134923 -0.00969628 0)
(0.00352105 -0.0105725 -1.97639e-21)
(0.00633891 -0.00820747 0)
(0.00974934 -0.00319497 2.06273e-21)
(0.0136651 0.00401041 0)
(0.0180289 0.0130411 2.13411e-21)
(0.0227968 0.0235952 -1.62314e-21)
(0.0279313 0.035426 5.81601e-25)
(0.0333989 0.0483265 6.47882e-25)
(0.0391676 0.0621233 -5.59315e-22)
(0.0452074 0.0766674 2.25804e-21)
(0.0514887 0.0918281 0)
(0.0579808 0.107488 -5.73767e-22)
(0.0646524 0.12354 5.76147e-22)
(0.0714709 0.139881 0)
(0.078402 0.156417 2.91577e-21)
(0.085411 0.173055 -5.85133e-22)
(0.0924618 0.189705 0)
(0.0995171 0.206281 1.18624e-21)
(0.106539 0.222698 1.18921e-21)
(0.113492 0.238875 0)
(0.120337 0.254734 0)
(0.127041 0.270201 0)
(0.133569 0.285207 0)
(0.13989 0.299688 0)
(0.145975 0.313588 0)
(0.151798 0.326855 0)
(0.157334 0.339447 -2.46245e-21)
(0.162567 0.351328 0)
(0.16748 0.362469 2.48569e-21)
(0.172061 0.372851 0)
(0.176303 0.38246 0)
(0.180201 0.391291 0)
(0.183756 0.399341 -2.53086e-21)
(0.186971 0.406612 -1.28096e-21)
(0.189855 0.413102 3.8454e-21)
(0.19243 0.418799 4.88864e-24)
(0.194703 0.423681 2.59067e-21)
(0.196564 0.427682 4.39098e-24)
(0.000311978 -0.00499768 0)
(0.00150016 -0.0103678 3.85642e-21)
(0.00359616 -0.0116276 9.86944e-22)
(0.00623233 -0.00961584 -1.28274e-24)
(0.00937141 -0.00493799 -1.03154e-21)
(0.0129432 0.00194413 0)
(0.0169034 0.010659 2.1343e-21)
(0.021219 0.0209023 -2.1643e-21)
(0.0258615 0.0324272 0)
(0.0308043 0.0450262 -4.4312e-21)
(0.0360229 0.0585266 0)
(0.041493 0.0727812 -6.77131e-21)
(0.0471897 0.0876614 0)
(0.0530874 0.103052 0)
(0.0591596 0.118848 2.30769e-21)
(0.0653775 0.13495 -2.31512e-21)
(0.0717113 0.151266 -2.33133e-21)
(0.0781308 0.167707 0)
(0.0846037 0.184185 7.05693e-21)
(0.0910968 0.200616 -2.35705e-21)
(0.0975769 0.216918 3.95005e-24)
(0.10401 0.233013 -7.1359e-21)
(0.110363 0.248823 -4.77972e-21)
(0.116604 0.264276 -2.41131e-21)
(0.122702 0.279303 7.22495e-21)
(0.128628 0.293841 -7.27425e-21)
(0.134353 0.307831 7.3155e-21)
(0.139853 0.321222 -9.75446e-21)
(0.145105 0.33397 -2.44215e-21)
(0.150092 0.346037 3.35489e-23)
(0.154796 0.357391 -7.38694e-21)
(0.159206 0.36801 -4.95802e-21)
(0.163313 0.377877 1.00203e-20)
(0.167111 0.386982 -1.00138e-20)
(0.170598 0.395319 -2.50247e-21)
(0.173777 0.402885 -1.01462e-20)
(0.176656 0.409674 -1.03601e-23)
(0.179253 0.415667 2.56995e-21)
(0.181565 0.420838 -1.02052e-20)
(0.183476 0.425114 -1.44554e-20)
(0.0004147 -0.00524652 -8.84198e-22)
(0.00167622 -0.0110361 -1.92803e-21)
(0.00370491 -0.0126545 -8.90118e-21)
(0.00616708 -0.0109746 0)
(0.00904339 -0.00661413 1.0322e-21)
(0.0122802 -4.15794e-05 -1.04976e-21)
(0.0158466 0.00836796 -1.28051e-20)
(0.0197214 0.0183086 4.32838e-21)
(0.023885 0.029532 -2.19221e-21)
(0.0283176 0.0418321 1.32902e-20)
(0.0330015 0.0550374 4.47421e-21)
(0.0379178 0.0690016 2.25854e-21)
(0.0430468 0.083598 -9.09242e-21)
(0.048367 0.0987142 0)
(0.0538557 0.114247 0)
(0.0594889 0.130101 4.63765e-21)
(0.0652404 0.146186 1.33373e-23)
(0.0710834 0.162416 -4.66914e-21)
(0.07699 0.178706 -4.70015e-21)
(0.0829306 0.194975 -9.42608e-21)
(0.088875 0.211144 1.42117e-20)
(0.0947932 0.227134 1.71783e-23)
(0.100655 0.242872 -9.25657e-24)
(0.106431 0.258285 4.77867e-21)
(0.112094 0.273306 -9.65035e-21)
(0.117616 0.287872 1.93084e-20)
(0.122971 0.301925 0)
(0.128135 0.315412 4.88294e-21)
(0.133088 0.328287 4.90456e-21)
(0.13781 0.34051 9.86454e-21)
(0.142286 0.35205 3.35403e-23)
(0.146503 0.362879 0)
(0.150452 0.372977 5.01451e-21)
(0.154126 0.382332 -4.93817e-21)
(0.157522 0.390934 -4.9795e-21)
(0.160641 0.398775 1.51803e-20)
(0.16349 0.405844 -1.50791e-20)
(0.166087 0.412118 1.01987e-20)
(0.168414 0.417566 -1.51777e-20)
(0.170351 0.422107 5.66688e-21)
(0.0005267 -0.005468 7.0739e-21)
(0.00187283 -0.0116384 -7.72357e-21)
(0.00383962 -0.0135966 1.58306e-20)
(0.00613312 -0.0122336 0)
(0.00875212 -0.00817929 6.19321e-21)
(0.0116613 -0.00190825 1.05057e-20)
(0.0148432 0.00620077 2.1337e-21)
(0.0182874 0.0158418 1.57803e-24)
(0.0219834 0.0267646 6.57443e-21)
(0.0259192 0.0387648 -2.21688e-21)
(0.030083 0.0516717 1.11809e-20)
(0.0344612 0.065341 -1.35352e-20)
(0.0390387 0.0796482 1.36346e-20)
(0.0437984 0.0944826 -4.57971e-21)
(0.0487211 0.109744 4.59876e-21)
(0.0537862 0.12534 -9.25206e-21)
(0.0589712 0.141182 -1.39537e-20)
(0.0642527 0.157188 4.66427e-21)
(0.069606 0.173275 -4.69987e-21)
(0.0750051 0.189365 1.41265e-20)
(0.0804233 0.205381 -9.46379e-21)
(0.0858333 0.221246 -9.48459e-21)
(0.091208 0.236889 0)
(0.0965212 0.252239 0)
(0.101747 0.267229 -9.59008e-21)
(0.106861 0.281798 -9.65222e-21)
(0.111839 0.295886 -9.66233e-21)
(0.116658 0.30944 0)
(0.121298 0.322415 0)
(0.125741 0.334768 -1.9611e-20)
(0.129972 0.346465 -8.77621e-23)
(0.133978 0.357476 9.89356e-21)
(0.137749 0.367781 -9.8651e-21)
(0.141278 0.377362 -9.99657e-21)
(0.144562 0.386206 9.99017e-21)
(0.147599 0.3943 0)
(0.150395 0.40163 1.00862e-20)
(0.152969 0.408168 -2.02008e-20)
(0.155289 0.413878 2.02247e-20)
(0.157231 0.418676 -2.28594e-20)
(0.000646165 -0.00567891 -3.53349e-21)
(0.00208687 -0.0122092 5.79398e-21)
(0.00399658 -0.0144846 -7.91765e-21)
(0.0061257 -0.0134203 0)
(0.0084926 -0.00965737 -1.03239e-20)
(0.0110797 -0.00367685 -6.3046e-21)
(0.0138843 0.00413961 8.53844e-21)
(0.016907 0.0134854 0)
(0.0201463 0.0241104 -1.31487e-20)
(0.0235975 0.0358113 -4.43183e-21)
(0.0272548 0.0484188 -4.47089e-21)
(0.0311101 0.0617908 9.02586e-21)
(0.0351523 0.0758048 -9.08752e-21)
(0.0393676 0.0903523 4.57018e-21)
(0.0437407 0.105335 0)
(0.0482544 0.120664 1.38819e-20)
(0.0528889 0.136254 4.65582e-21)
(0.0576239 0.152024 -9.34832e-21)
(0.0624381 0.167895 1.87445e-20)
(0.0673085 0.183791 -1.88169e-20)
(0.072211 0.199636 1.88589e-20)
(0.0771214 0.215358 9.4846e-21)
(0.0820154 0.230885 0)
(0.0868695 0.24615 9.5743e-21)
(0.0916605 0.261086 4.08668e-23)
(0.0963652 0.275632 0)
(0.100961 0.289729 9.66237e-21)
(0.105428 0.303325 -9.72255e-21)
(0.109747 0.316372 9.68211e-21)
(0.1139 0.328827 1.95738e-20)
(0.117873 0.340655 -1.9589e-20)
(0.121652 0.351823 1.96386e-20)
(0.125229 0.362309 0)
(0.128595 0.372091 0)
(0.131746 0.381152 1.98765e-20)
(0.134681 0.389478 0)
(0.137406 0.397049 0)
(0.139936 0.403834 -2.01062e-20)
(0.142228 0.409793 2.00319e-20)
(0.144155 0.414838 1.14086e-20)
(0.000771937 -0.00587069 1.77074e-21)
(0.00231452 -0.0127284 0)
(0.00417034 -0.0152979 1.58551e-20)
(0.00613761 -0.0145145 2.02628e-21)
(0.00825523 -0.0110305 2.06791e-21)
(0.0105251 -0.00533157 1.26182e-20)
(0.0129587 0.00219837 1.70843e-20)
(0.0155678 0.0112521 0)
(0.0183601 0.0215805 4.38406e-21)
(0.0213382 0.0329813 1.32916e-20)
(0.0245022 0.0452873 1.78873e-20)
(0.0278488 0.0583583 -4.51149e-21)
(0.0313708 0.0720738 -1.36273e-20)
(0.0350581 0.0863278 0)
(0.0388983 0.101025 1.83885e-20)
(0.042877 0.116078 0)
(0.0469774 0.131405 2.78661e-20)
(0.051182 0.146928 -9.31312e-21)
(0.055472 0.162569 0)
(0.0598272 0.178256 -9.4163e-21)
(0.0642261 0.193915 -2.50932e-23)
(0.0686472 0.209476 -9.42831e-21)
(0.0730691 0.224868 -9.47154e-21)
(0.0774704 0.240027 9.55553e-21)
(0.08183 0.254886 -9.53053e-21)
(0.0861269 0.269386 0)
(0.0903406 0.283469 -9.65868e-21)
(0.094452 0.297081 9.62181e-21)
(0.0984432 0.310174 0)
(0.102298 0.322706 0)
(0.106003 0.334637 0)
(0.109545 0.345937 -1.96703e-20)
(0.112913 0.356578 1.95664e-20)
(0.116101 0.366536 0)
(0.119104 0.375793 -9.91445e-21)
(0.12192 0.384329 0)
(0.124553 0.392121 1.99962e-20)
(0.127021 0.399135 -9.86328e-21)
(0.129267 0.405327 -2.01008e-20)
(0.131161 0.410608 2.25467e-20)
(0.000902741 -0.00604539 1.24128e-20)
(0.0025525 -0.0131991 -1.74155e-20)
(0.0043558 -0.0160393 -2.97386e-20)
(0.00616243 -0.0155196 -1.62174e-20)
(0.00803307 -0.0123013 -4.13453e-21)
(0.00998903 -0.00687467 -8.40929e-21)
(0.0120568 0.000374321 -3.84436e-20)
(0.0142597 0.00913905 -1.29923e-20)
(0.0166142 0.0191717 -2.19162e-20)
(0.0191302 0.0302715 -2.21515e-20)
(0.0218135 0.0422734 -3.13043e-20)
(0.0246654 0.0550397 -1.80343e-20)
(0.0276824 0.0684519 2.5151e-24)
(0.0308573 0.0824064 -1.828e-20)
(0.034181 0.0968107 -1.83885e-20)
(0.0376416 0.11158 -2.77244e-20)
(0.0412246 0.126635 1.85553e-20)
(0.044915 0.141899 -9.30756e-21)
(0.0486964 0.157299 0)
(0.052551 0.172764 1.87715e-20)
(0.0564599 0.188221 0)
(0.0604038 0.203604 3.78105e-20)
(0.0643636 0.218844 0)
(0.0683204 0.233877 -9.53928e-21)
(0.0722549 0.248639 9.58794e-21)
(0.076148 0.263071 -1.90839e-20)
(0.0799811 0.277115 0)
(0.0837365 0.29072 -1.93361e-20)
(0.0873976 0.303835 1.92557e-20)
(0.0909496 0.316418 0)
(0.094379 0.32843 0)
(0.0976737 0.339836 0)
(0.100824 0.350607 -1.95426e-20)
(0.103822 0.360718 0)
(0.106662 0.370147 -1.97842e-20)
(0.109344 0.378871 3.95095e-20)
(0.111872 0.386864 -3.9619e-20)
(0.114261 0.39409 1.96392e-20)
(0.116443 0.400499 3.98126e-20)
(0.118286 0.406005 -2.24539e-20)
(0.00103705 -0.00620075 -1.59589e-20)
(0.0027969 -0.013618 -1.17031e-23)
(0.0045477 -0.0167049 1.58651e-20)
(0.00619358 -0.0164308 3.24438e-20)
(0.00781806 -0.0134657 -4.13625e-21)
(0.00946284 -0.00830329 -1.68358e-20)
(0.0111695 -0.00132992 1.7087e-20)
(0.012973 0.0071484 2.59868e-20)
(0.0148984 0.0168854 8.76615e-21)
(0.016963 0.0276827 2.21531e-20)
(0.019178 0.0393778 1.78873e-20)
(0.0215488 0.0518352 2.70478e-20)
(0.0240755 0.0649387 5.44926e-20)
(0.026754 0.0785875 2.74239e-20)
(0.0295778 0.0926918 0)
(0.032537 0.107169 9.22934e-21)
(0.0356196 0.121942 9.2618e-21)
(0.0388125 0.136938 9.29885e-21)
(0.0421017 0.152085 1.8702e-20)
(0.0454713 0.167314 -9.37766e-21)
(0.0489045 0.182557 0)
(0.0523846 0.197746 -1.61991e-23)
(0.0558944 0.212817 -1.89343e-20)
(0.0594168 0.227706 1.89884e-20)
(0.0629344 0.242352 3.81107e-20)
(0.06643 0.256695 3.82661e-20)
(0.0698866 0.27068 4.50516e-23)
(0.0732881 0.284254 1.92039e-20)
(0.0766193 0.297369 1.92587e-20)
(0.0798663 0.30998 -1.93137e-20)
(0.0830164 0.322047 1.93687e-20)
(0.0860581 0.333535 1.94235e-20)
(0.0889818 0.344413 3.90203e-20)
(0.0917803 0.354654 -1.16783e-22)
(0.0944486 0.364232 5.88188e-20)
(0.096984 0.373123 4.54491e-23)
(0.0993924 0.381298 -1.96785e-20)
(0.101688 0.388717 -1.98142e-20)
(0.103792 0.39533 1.97603e-20)
(0.105568 0.401049 2.24067e-20)
(0.00117352 -0.00633576 1.42116e-20)
(0.00304405 -0.0139825 1.93675e-20)
(0.00474062 -0.0172916 1.19175e-20)
(0.00622443 -0.0172457 -1.21677e-20)
(0.00760271 -0.0145216 -2.06898e-20)
(0.00893828 -0.0096152 1.68338e-20)
(0.0102881 -0.00291288 0)
(0.0116984 0.00528071 1.73334e-20)
(0.0132033 0.0147219 0)
(0.014827 0.0252149 -3.54507e-20)
(0.0165859 0.0366 8.94779e-21)
(0.0184893 0.0487439 -4.50856e-20)
(0.0205406 0.0615333 -1.81636e-20)
(0.0227385 0.0748702 9.14495e-21)
(0.0250788 0.0886673 1.40227e-23)
(0.0275538 0.102845 -9.22666e-21)
(0.0301532 0.117327 -1.85528e-20)
(0.032866 0.132045 -3.72512e-20)
(0.0356798 0.146928 0)
(0.0385806 0.16191 2.98667e-23)
(0.0415538 0.176923 -1.87811e-20)
(0.0445846 0.191905 -1.88789e-20)
(0.0476576 0.206791 1.89344e-20)
(0.0507574 0.221519 -1.90469e-20)
(0.0538683 0.23603 1.90218e-20)
(0.0569748 0.250266 -3.81223e-20)
(0.0600616 0.264172 4.64785e-23)
(0.0631138 0.277695 -3.83268e-20)
(0.0661177 0.290786 -1.92588e-20)
(0.0690605 0.303402 -4.91232e-23)
(0.0719301 0.315502 -9.82022e-23)
(0.0747158 0.32705 -1.94236e-20)
(0.0774084 0.338012 -1.94776e-20)
(0.080001 0.34836 -6.37447e-23)
(0.0824888 0.358067 -1.95819e-20)
(0.0848687 0.367104 -7.43543e-23)
(0.0871471 0.375441 -1.9761e-20)
(0.0893379 0.383037 5.8831e-20)
(0.0913498 0.389838 -1.97604e-20)
(0.0930454 0.395759 -2.24363e-20)
(0.00131077 -0.00644899 -1.42137e-20)
(0.00329035 -0.01429 3.87486e-21)
(0.00492921 -0.0177968 -1.19122e-20)
(0.00624836 -0.0179616 -4.05909e-21)
(0.00737973 -0.0154666 1.65534e-20)
(0.00840762 -0.0108089 -4.21178e-21)
(0.00940431 -0.00437378 4.27527e-21)
(0.0104278 0.00353652 -2.60028e-20)
(0.0115207 0.0126813 8.7705e-21)
(0.012714 0.0228676 1.7727e-20)
(0.0140289 0.0339388 0)
(0.0154785 0.0457646 3.60763e-20)
(0.0170694 0.0582344 0)
(0.0188028 0.0712531 -3.6558e-20)
(0.0206763 0.0847358 -1.838e-20)
(0.0226842 0.0986052 0)
(0.024818 0.112789 0)
(0.0270683 0.127219 3.72466e-20)
(0.0294241 0.141827 1.8719e-20)
(0.0318733 0.15655 -3.75059e-20)
(0.034403 0.171323 1.87749e-20)
(0.0370001 0.186083 0)
(0.0396509 0.200769 -1.89584e-20)
(0.0423413 0.215321 3.79167e-20)
(0.0450574 0.229681 -1.89622e-20)
(0.0477852 0.243792 -1.91161e-20)
(0.0505108 0.257598 1.90502e-20)
(0.0532207 0.27105 0)
(0.0559025 0.284098 3.84585e-20)
(0.0585443 0.296699 -1.91837e-20)
(0.061135 0.30881 -1.93707e-20)
(0.0636644 0.320395 -1.46756e-22)
(0.0661239 0.331421 7.76208e-20)
(0.0685071 0.341855 -5.81881e-20)
(0.0708091 0.351669 0)
(0.0730269 0.360832 -1.95571e-20)
(0.0751669 0.369313 -3.92816e-20)
(0.0772429 0.377069 1.93974e-20)
(0.0791522 0.384045 1.95866e-20)
(0.0807549 0.390158 0)
(0.00144727 -0.00653906 -2.84763e-20)
(0.00353193 -0.0145387 -3.87822e-21)
(0.00510807 -0.0182182 3.18158e-20)
(0.0062591 -0.0185763 -3.2511e-20)
(0.00714209 -0.016299 0)
(0.00786335 -0.0118833 0)
(0.00851073 -0.00571184 -8.55639e-21)
(0.00915367 0.00191605 -2.36072e-24)
(0.0098432 0.0107631 8.77351e-21)
(0.0106166 0.0206401 0)
(0.0114999 0.0313934 0)
(0.0125097 0.0428961 -9.0154e-21)
(0.0136552 0.0550406 8.06242e-24)
(0.0149401 0.0677346 9.14383e-21)
(0.0163639 0.0808959 1.83801e-20)
(0.0179223 0.0944497 0)
(0.0196085 0.108326 1.85726e-20)
(0.0214142 0.122459 -1.85757e-20)
(0.0233302 0.136783 -3.73824e-20)
(0.0253455 0.151235 3.75031e-20)
(0.0274491 0.165755 6.87391e-23)
(0.0296291 0.180281 -1.88208e-20)
(0.0318732 0.194754 1.89495e-20)
(0.0341689 0.209116 -3.78666e-20)
(0.0365037 0.223308 0)
(0.0388648 0.237277 1.90976e-20)
(0.0412398 0.250967 -3.8177e-20)
(0.0436165 0.264329 1.90722e-20)
(0.0459836 0.277315 -1.91887e-20)
(0.0483302 0.28988 -1.92848e-20)
(0.050646 0.301983 -1.94672e-20)
(0.0529214 0.313585 7.72141e-20)
(0.0551486 0.324653 -5.79117e-20)
(0.0573214 0.335153 -3.89164e-20)
(0.059435 0.345054 3.86937e-20)
(0.0614865 0.354325 0)
(0.0634825 0.362933 3.91372e-20)
(0.065436 0.370834 -3.88923e-20)
(0.0672339 0.377972 -1.95868e-20)
(0.0687335 0.384265 0)
(0.00158145 -0.00660482 6.05474e-20)
(0.00376504 -0.0147263 2.71975e-20)
(0.00527197 -0.0185534 -3.18156e-20)
(0.00625033 -0.0190879 2.84452e-20)
(0.00688304 -0.0170175 -4.14528e-21)
(0.00729872 -0.0128374 8.4297e-21)
(0.00760056 -0.00692668 0)
(0.0078693 0.000419067 -8.67586e-21)
(0.00816426 0.00896685 8.77695e-21)
(0.00852874 0.0185313 8.87216e-21)
(0.00899305 0.0289626 -8.94977e-21)
(0.0095771 0.040137 -9.02727e-21)
(0.0102928 0.0519503 9.08392e-21)
(0.0111458 0.0643132 0)
(0.0121371 0.0771461 0)
(0.013264 0.0903766 -1.84935e-20)
(0.0145208 0.103937 1.85372e-20)
(0.0159006 0.117764 -1.86527e-20)
(0.0173951 0.131793 1.86679e-20)
(0.0189952 0.145966 1.8784e-20)
(0.0206906 0.160222 -3.76161e-20)
(0.0224709 0.174502 3.77161e-20)
(0.0243252 0.188749 8.13729e-23)
(0.0262421 0.202906 -1.89048e-20)
(0.0282104 0.216916 0)
(0.0302185 0.230727 1.90849e-20)
(0.0322551 0.244284 1.09752e-22)
(0.0343097 0.25754 -1.90558e-20)
(0.0363717 0.270445 0)
(0.0384311 0.282956 3.85115e-20)
(0.0404783 0.295031 -3.83279e-20)
(0.0425046 0.306632 0)
(0.0445027 0.317722 3.87465e-20)
(0.0464667 0.328269 -3.8533e-20)
(0.0483919 0.33824 0)
(0.0502754 0.347602 0)
(0.0521238 0.356319 0)
(0.0539495 0.364351 -3.90534e-20)
(0.0556296 0.371638 3.88031e-20)
(0.0570174 0.378103 4.4598e-20)
(0.00171169 -0.00664505 -2.85062e-20)
(0.00398575 -0.0148508 -3.1079e-20)
(0.00541557 -0.0188007 -3.9817e-21)
(0.00621608 -0.0194949 1.22032e-20)
(0.00659629 -0.0176211 -1.6585e-20)
(0.00670732 -0.0136708 1.68699e-20)
(0.00666762 -0.00801842 -1.71268e-20)
(0.00656896 -0.000954903 -2.60452e-20)
(0.00647853 0.00729164 0)
(0.00644534 0.0165402 -8.87577e-21)
(0.00650382 0.0266449 8.95342e-21)
(0.00667684 0.0374858 0)
(0.00697861 0.0489621 1.8191e-20)
(0.00741658 0.0609874 -1.82852e-20)
(0.00799315 0.0734849 -5.52066e-20)
(0.0087068 0.0863847 -3.30138e-23)
(0.00955296 0.0996214 3.71294e-20)
(0.0105258 0.113133 -1.86135e-20)
(0.0116182 0.12686 0)
(0.012822 0.140742 0)
(0.014128 0.154724 3.76318e-20)
(0.015527 0.168747 1.88978e-20)
(0.0170091 0.182755 -1.88668e-20)
(0.0185643 0.196694 -1.89921e-20)
(0.0201821 0.210509 3.79783e-20)
(0.0218522 0.224147 -1.89778e-20)
(0.0235646 0.237557 3.82368e-20)
(0.0253098 0.250689 -7.64064e-20)
(0.0270781 0.263497 7.65482e-20)
(0.0288603 0.275937 -7.66867e-20)
(0.0306477 0.287967 7.68216e-20)
(0.032432 0.299548 -7.69518e-20)
(0.0342065 0.310644 3.84034e-20)
(0.0359657 0.32122 3.8734e-20)
(0.037705 0.331243 2.78389e-22)
(0.0394211 0.340678 2.8163e-22)
(0.0411209 0.349491 -3.86061e-20)
(0.0428157 0.357641 1.91026e-22)
(0.0443732 0.365066 -3.86759e-20)
(0.0456427 0.371694 0)
(0.00183632 -0.00665876 3.56865e-21)
(0.00419022 -0.0149109 -3.89009e-21)
(0.00553372 -0.0189586 1.19521e-20)
(0.00615048 -0.0197962 -1.62807e-20)
(0.00627583 -0.018109 8.29684e-21)
(0.00608336 -0.0143833 0)
(0.00570647 -0.00898739 0)
(0.00524759 -0.00220664 3.4723e-20)
(0.00478153 0.00573631 4.39406e-20)
(0.0043626 0.0146654 -8.87654e-21)
(0.00402892 0.0244389 4.48104e-20)
(0.00380611 0.034941 -9.02915e-21)
(0.00371041 0.0460745 0)
(0.0037508 0.0577559 0)
(0.00393083 0.0699112 3.67979e-20)
(0.00425003 0.0824728 0)
(0.00470486 0.0953779 1.85655e-20)
(0.00529036 0.108567 -1.86807e-20)
(0.00600037 0.121981 0)
(0.00682754 0.135564 -3.75495e-20)
(0.0077637 0.149261 -1.87776e-20)
(0.00880044 0.163016 -5.65812e-20)
(0.00992903 0.176775 -1.89519e-20)
(0.0111403 0.190484 1.89112e-20)
(0.012425 0.204091 3.7988e-20)
(0.0137736 0.217542 0)
(0.0151773 0.230789 3.81245e-20)
(0.0166274 0.243784 7.64869e-20)
(0.0181152 0.256479 2.28146e-22)
(0.0196323 0.268832 -3.81967e-20)
(0.0211703 0.2808 -3.84977e-20)
(0.0227219 0.292345 3.83039e-20)
(0.0242807 0.303429 3.86129e-20)
(0.0258414 0.314018 -7.70639e-20)
(0.0273994 0.324077 7.71525e-20)
(0.0289513 0.333572 -3.86528e-20)
(0.0305033 0.342467 3.8515e-20)
(0.0320661 0.350722 7.73682e-20)
(0.0334988 0.358276 3.86405e-20)
(0.0346452 0.36506 4.40907e-20)
(0.00195357 -0.00664501 -2.85936e-20)
(0.00437449 -0.0149052 2.72594e-20)
(0.00562132 -0.0190259 -2.3933e-20)
(0.00604799 -0.0199911 2.44474e-20)
(0.00591612 -0.0184812 4.15216e-20)
(0.00542155 -0.0149752 -3.3787e-20)
(0.00471234 -0.00983443 4.2872e-20)
(0.00390107 -0.00333732 2.60726e-20)
(0.0030698 0.00429954 -6.15333e-20)
(0.0022777 0.0129053 1.77748e-20)
(0.00156626 0.0223431 8.98262e-21)
(0.000963521 0.0325012 1.8081e-20)
(0.00048746 0.043286 1.82215e-20)
(0.000148317 0.0546173 -3.66439e-20)
(-4.93884e-05 0.0664237 3.68467e-20)
(-0.000105237 0.0786402 5.55525e-20)
(-2.18725e-05 0.0912062 -5.57291e-20)
(0.000196502 0.104064 7.46395e-20)
(0.000544433 0.117158 3.74638e-20)
(0.0010153 0.130433 5.63616e-20)
(0.0016017 0.143836 1.88803e-20)
(0.00229609 0.157313 3.77478e-20)
(0.00309063 0.170812 -3.786e-20)
(0.00397708 0.184279 0)
(0.00494685 0.197665 -1.14084e-19)
(0.00599157 0.210918 7.61327e-20)
(0.00710331 0.223989 -3.79242e-20)
(0.00827427 0.236831 -3.79768e-20)
(0.0094965 0.2494 1.10491e-22)
(0.0107621 0.26165 0)
(0.0120633 0.273541 0)
(0.0133934 0.285034 3.83882e-20)
(0.0147464 0.296092 -3.85668e-20)
(0.0161171 0.306679 3.83543e-20)
(0.0175006 0.31676 -3.86432e-20)
(0.0188932 0.3263 -3.86794e-20)
(0.0203008 0.335264 0)
(0.0217325 0.343615 -3.84692e-20)
(0.0230398 0.35129 -3.83893e-20)
(0.0240603 0.358223 -1.32392e-19)
(0.0020617 -0.00660315 2.85931e-20)
(0.00453465 -0.0148328 -2.72575e-20)
(0.00567341 -0.0190021 3.19056e-20)
(0.00590329 -0.0200795 -5.70569e-20)
(0.005512 -0.018738 -4.15268e-20)
(0.00471719 -0.0154475 3.3787e-20)
(0.00368115 -0.0105607 -6.86177e-20)
(0.00252612 -0.00434835 -3.47595e-20)
(0.00134083 0.00297972 4.39691e-20)
(0.000188939 0.0112584 -7.99887e-20)
(-0.000885053 0.0203559 -5.38138e-20)
(-0.00185105 0.0301649 -1.81037e-20)
(-0.00268965 0.0405956 -5.46402e-20)
(-0.00338957 0.0515707 5.49626e-20)
(-0.0039455 0.0630218 -3.68469e-20)
(-0.00435632 0.0748865 -3.7028e-20)
(-0.00462392 0.0871063 0)
(-0.00475186 0.0996258 -3.73348e-20)
(-0.00474505 0.112391 -5.62319e-20)
(-0.00460954 0.12535 1.87703e-20)
(-0.00435207 0.13845 -3.7683e-20)
(-0.00397941 0.15164 0)
(-0.00349861 0.164868 3.78603e-20)
(-0.00291719 0.178084 3.80359e-20)
(-0.00224294 0.191237 -3.79665e-20)
(-0.00148334 0.204279 0)
(-0.000645503 0.217162 0)
(0.000263509 0.229839 0)
(0.00123634 0.242267 1.04357e-23)
(0.00226563 0.254401 0)
(0.00334433 0.266201 -7.67975e-20)
(0.00446603 0.277628 -1.25822e-22)
(0.00562498 0.288644 -7.6941e-20)
(0.006816 0.299215 7.68875e-20)
(0.00803399 0.309305 -3.83447e-20)
(0.00927447 0.318878 3.85148e-20)
(0.0105427 0.327901 0)
(0.0118463 0.336338 7.71731e-20)
(0.0130298 0.344127 -3.83783e-20)
(0.0139231 0.351205 0)
(0.00215892 -0.00653265 3.57971e-21)
(0.00466681 -0.0146931 0)
(0.00568517 -0.0188869 -3.99364e-20)
(0.00571137 -0.0200616 4.89272e-20)
(0.00505875 -0.0188802 2.49475e-20)
(0.00396617 -0.0158013 -3.38266e-20)
(0.00260956 -0.0111677 3.43187e-20)
(0.00112024 -0.00524144 -3.48001e-20)
(-0.00040695 0.00177506 0)
(-0.00190433 0.0097229 3.55619e-20)
(-0.00332478 0.0184758 -3.59154e-20)
(-0.00463651 0.0279307 -2.66074e-23)
(-0.00581901 0.0380019 0)
(-0.00686016 0.0486152 3.67049e-20)
(-0.00775404 0.0597051 -1.84495e-20)
(-0.00849902 0.0712116 3.71336e-20)
(-0.00909638 0.0830786 1.86615e-20)
(-0.00954916 0.0952529 -3.7411e-20)
(-0.00986185 0.107683 0)
(-0.0100401 0.120317 5.65078e-20)
(-0.01009 0.133106 1.89241e-20)
(-0.0100177 0.145999 0)
(-0.00982957 0.158948 0)
(-0.00953249 0.171902 0)
(-0.00913348 0.184812 3.8039e-20)
(-0.00863924 0.197632 0)
(-0.00805615 0.210315 -3.8269e-20)
(-0.00739071 0.222815 7.64459e-20)
(-0.00664968 0.235089 -7.64213e-20)
(-0.00583992 0.247094 0)
(-0.00496798 0.258789 3.83415e-20)
(-0.00403995 0.270137 -3.83775e-20)
(-0.00306148 0.281099 3.84068e-20)
(-0.00203791 0.291641 0)
(-0.00097479 0.301727 0)
(0.000122637 0.311323 3.85612e-20)
(0.00125846 0.320395 -3.83261e-20)
(0.00243875 0.328911 7.71095e-20)
(0.00350177 0.336808 -7.66153e-20)
(0.00426879 0.344027 0)
(0.00224342 -0.00643315 2.51008e-20)
(0.00476712 -0.0144859 7.80587e-21)
(0.00565197 -0.0186808 3.19514e-20)
(0.00546754 -0.0199383 3.26565e-20)
(0.0045521 -0.0189091 -3.32599e-20)
(0.00316495 -0.0160384 3.38266e-20)
(0.00149496 -0.0116574 3.43594e-20)
(-0.000318201 -0.00601864 3.48002e-20)
(-0.00217418 0.000683543 0)
(-0.00400176 0.00829701 3.56091e-20)
(-0.0057516 0.0167011 3.59155e-20)
(-0.00739061 0.0257974 3.62099e-20)
(-0.00889746 0.0355041 0)
(-0.0102595 0.0457503 3.54441e-23)
(-0.0114702 0.0564734 3.6913e-20)
(-0.0125277 0.0676159 -1.85198e-20)
(-0.0134329 0.0791241 -1.85787e-20)
(-0.0141883 0.0909469 5.6153e-20)
(-0.0147982 0.103034 5.3515e-23)
(-0.0152678 0.115337 -1.87637e-20)
(-0.0156029 0.127807 -3.77635e-20)
(-0.0158088 0.140396 0)
(-0.0158915 0.153056 0)
(-0.0158572 0.165739 0)
(-0.0157123 0.178397 0)
(-0.0154628 0.190985 0)
(-0.0151143 0.203456 0)
(-0.0146729 0.215768 3.83539e-20)
(-0.0141449 0.227876 -3.81944e-20)
(-0.0135366 0.239739 0)
(-0.0128542 0.251318 0)
(-0.0121036 0.262574 3.83778e-20)
(-0.0112905 0.27347 0)
(-0.0104206 0.283971 3.85222e-20)
(-0.00949984 0.294043 -3.83018e-20)
(-0.00853466 0.303652 0)
(-0.00752243 0.312765 7.70374e-20)
(-0.00645891 0.321353 -7.65551e-20)
(-0.00551107 0.329354 0)
(-0.00486792 0.336711 0)
(0.0023134 -0.00630454 -2.86825e-20)
(0.00483183 -0.0142114 -7.80975e-21)
(0.00556939 -0.0183844 7.99691e-21)
(0.00516747 -0.019711 -3.26565e-20)
(0.0039883 -0.0188266 0)
(0.00231064 -0.0161608 0)
(0.000335453 -0.0120321 -2.57664e-20)
(-0.00179003 -0.00668228 -8.70743e-21)
(-0.00396058 -0.00029703 -1.76281e-20)
(-0.00610197 0.00697872 -1.78023e-20)
(-0.00816312 0.0150301 -1.79853e-20)
(-0.01011 0.0237636 1.81195e-20)
(-0.0119207 0.0331013 1.82664e-20)
(-0.0135822 0.0429758 -1.83734e-20)
(-0.0150878 0.0533272 0)
(-0.0164354 0.0641005 0)
(-0.0176256 0.0752446 -3.7308e-20)
(-0.0186607 0.0867101 0)
(-0.0195448 0.098449 0)
(-0.0202828 0.110414 3.78527e-20)
(-0.0208799 0.122558 1.30094e-22)
(-0.0213413 0.134835 9.85884e-23)
(-0.0216722 0.147198 -3.80945e-20)
(-0.0218785 0.159601 3.80128e-20)
(-0.0219657 0.171998 3.81848e-20)
(-0.0219392 0.184343 -3.82394e-20)
(-0.0218043 0.196594 0)
(-0.0215665 0.208706 3.83957e-20)
(-0.0212316 0.220637 1.9772e-22)
(-0.0208056 0.232348 -3.82619e-20)
(-0.0202943 0.243798 0)
(-0.0197036 0.254951 0)
(-0.0190393 0.26577 3.8518e-20)
(-0.0183075 0.27622 -3.83057e-20)
(-0.0175151 0.286268 -3.85165e-20)
(-0.0166697 0.29588 3.82885e-20)
(-0.0157706 0.305028 0)
(-0.0148155 0.313682 0)
(-0.0139758 0.321784 0)
(-0.0134522 0.329279 -4.38782e-20)
(0.00236709 -0.00614692 3.59203e-20)
(0.0048573 -0.0138706 -1.56358e-20)
(0.00543332 -0.0179991 8.00286e-21)
(0.00480726 -0.0193817 0)
(0.00336415 -0.018635 4.16465e-20)
(0.00140101 -0.0161713 4.30241e-25)
(-0.0008701 -0.0122945 3.44024e-20)
(-0.00329523 -0.00723497 -2.61432e-20)
(-0.00576496 -0.00116905 3.52742e-20)
(-0.00820268 0.00576596 -1.78197e-20)
(-0.0105559 0.0134612 0)
(-0.0127901 0.0218283 1.81539e-20)
(-0.0148832 0.0307931 -5.48071e-20)
(-0.0168219 0.0402918 0)
(-0.0185996 0.0502671 5.55655e-20)
(-0.0202139 0.0606669 -3.7195e-20)
(-0.0216655 0.071442 -3.73841e-20)
(-0.0229566 0.0825452 1.87437e-20)
(-0.024091 0.0939302 0)
(-0.0250736 0.105551 -3.77646e-20)
(-0.0259091 0.117363 -3.79696e-20)
(-0.0266023 0.129322 -3.78157e-23)
(-0.0271581 0.141381 3.81146e-20)
(-0.0275817 0.153496 3.82342e-20)
(-0.0278783 0.165623 -7.63194e-20)
(-0.0280525 0.177717 3.82397e-20)
(-0.0281093 0.189737 0)
(-0.0280537 0.20164 -3.83846e-20)
(-0.0278912 0.213385 3.84134e-20)
(-0.0276272 0.224932 3.84349e-20)
(-0.0272674 0.236243 -3.84489e-20)
(-0.0268178 0.247282 3.84551e-20)
(-0.0262845 0.258013 0)
(-0.0256741 0.268402 3.85328e-20)
(-0.0249945 0.278417 7.71518e-20)
(-0.0242549 0.288025 -7.65824e-20)
(-0.0234567 0.297201 7.69399e-20)
(-0.0226001 0.305918 3.97232e-22)
(-0.0218596 0.31412 -3.80954e-20)
(-0.0214496 0.321751 8.77969e-20)
(0.00240273 -0.00596066 -2.15571e-20)
(0.00484007 -0.0134644 -4.69501e-20)
(0.00523993 -0.017527 3.20421e-20)
(0.00438347 -0.0189527 -2.45385e-20)
(0.00267701 -0.0183373 -8.31355e-21)
(0.000434491 -0.0160728 8.47403e-21)
(-0.00212208 -0.0124477 -1.71934e-20)
(-0.00483296 -0.00767958 -1.74367e-20)
(-0.00758529 -0.00193504 1.76537e-20)
(-0.0103006 0.00465666 -3.56774e-20)
(-0.0129257 0.011993 -1.59943e-23)
(-0.0154257 0.0199905 1.81513e-20)
(-0.0177784 0.0285792 0)
(-0.0199711 0.0376986 -1.84377e-20)
(-0.021997 0.0472945 -1.8525e-20)
(-0.0238538 0.057317 3.72348e-20)
(-0.0255423 0.0677192 0)
(-0.0270648 0.0784558 0)
(-0.028425 0.0894823 3.77925e-20)
(-0.0296275 0.100755 -3.77975e-20)
(-0.0306768 0.11223 0)
(-0.0315776 0.123863 3.81382e-20)
(-0.0323341 0.135612 -3.79636e-20)
(-0.0329514 0.147433 -7.64491e-20)
(-0.0334338 0.159282 -1.66123e-22)
(-0.0337857 0.171118 3.8303e-20)
(-0.0340115 0.182898 -7.67126e-20)
(-0.0341159 0.194582 3.83849e-20)
(-0.0341039 0.20613 -3.84138e-20)
(-0.0339808 0.217504 1.24977e-22)
(-0.033752 0.228666 7.27312e-23)
(-0.0334237 0.239581 -3.84554e-20)
(-0.0330024 0.250214 -3.84959e-20)
(-0.0324954 0.260533 -3.84786e-20)
(-0.0319117 0.270507 2.64805e-23)
(-0.0312625 0.280105 0)
(-0.0305516 0.289302 -3.83761e-20)
(-0.0297818 0.298078 7.6828e-20)
(-0.0291297 0.306379 -1.14603e-19)
(-0.0288255 0.314149 3.91292e-22)
(0.00241866 -0.00574634 -7.1963e-21)
(0.00477688 -0.0129947 6.2626e-20)
(0.00498579 -0.0169704 -3.20398e-20)
(0.00389318 -0.0184273 2.45356e-20)
(0.00192488 -0.0179369 -6.66934e-20)
(-0.000589784 -0.0158689 8.47877e-21)
(-0.0034201 -0.0124949 -3.44422e-20)
(-0.00640155 -0.00801919 0)
(-0.00941862 -0.00259766 0)
(-0.0123917 0.0036487 -3.5718e-20)
(-0.0152671 0.0106239 1.80336e-20)
(-0.0180101 0.0182494 1.60092e-23)
(-0.020599 0.0264596 1.83052e-20)
(-0.0230213 0.0351972 0)
(-0.0252706 0.0444109 -5.5714e-20)
(-0.0273448 0.0540533 1.86364e-20)
(-0.0292448 0.0640796 -3.75241e-20)
(-0.0309732 0.0744464 0)
(-0.0325336 0.0851108 0)
(-0.0339306 0.0960306 2.96216e-23)
(-0.0351686 0.107164 -3.79729e-20)
(-0.0362517 0.118468 3.81781e-20)
(-0.0371843 0.129901 -3.83034e-20)
(-0.0379705 0.141421 3.82212e-20)
(-0.0386146 0.152986 4.27426e-23)
(-0.0391203 0.164556 4.6712e-23)
(-0.0394918 0.176089 3.84194e-20)
(-0.0397333 0.187546 -3.85297e-20)
(-0.0398495 0.198889 0)
(-0.0398452 0.21008 -3.86234e-20)
(-0.0397262 0.221083 3.84394e-20)
(-0.0394986 0.231865 0)
(-0.0391693 0.242391 3.84962e-20)
(-0.0387465 0.252631 -3.87105e-20)
(-0.0382407 0.262555 3.82948e-20)
(-0.0376649 0.272136 0)
(-0.0370262 0.28135 1.1533e-19)
(-0.0363298 0.290183 -7.6472e-20)
(-0.0357538 0.298583 0)
(-0.0355458 0.306492 4.39226e-20)
(0.00241327 -0.00550476 5.76511e-20)
(0.00466472 -0.0124635 -3.13244e-20)
(0.00466784 -0.0163324 -8.01579e-21)
(0.00333397 -0.0178091 8.18766e-21)
(0.00110639 -0.0174376 3.33561e-20)
(-0.00167194 -0.0155635 0)
(-0.00476299 -0.01244 3.44424e-20)
(-0.0079985 -0.00825707 5.24012e-20)
(-0.0112612 -0.00315963 1.76695e-20)
(-0.0144707 0.00274 1.78435e-20)
(-0.0175738 0.00935245 1.80312e-20)
(-0.0205361 0.0166045 -5.45862e-20)
(-0.0233365 0.0244345 1.8325e-20)
(-0.025963 0.0327886 7.39148e-20)
(-0.0284098 0.0416184 1.85349e-20)
(-0.0306752 0.050879 1.86633e-20)
(-0.0327605 0.0605274 3.75244e-20)
(-0.0346684 0.0705221 0)
(-0.0364029 0.0808219 0)
(-0.0379681 0.0913861 7.60295e-20)
(-0.0393686 0.102174 -1.52546e-19)
(-0.0406083 0.113145 -3.29047e-23)
(-0.0416912 0.124258 0)
(-0.0426213 0.135472 0)
(-0.0434021 0.146748 3.84046e-20)
(-0.0440373 0.158044 0)
(-0.0445304 0.169323 0)
(-0.0448854 0.180546 -3.86987e-20)