/*--------------------------------*- C++ -*----------------------------------*\
  =========                 |
  \\      /  F ield         | OpenFOAM: The Open Source CFD Toolbox
   \\    /   O peration     | Website:  https://openfoam.org
    \\  /    A nd           | Version:  7
     \\/     M anipulation  |
\*---------------------------------------------------------------------------*/
FoamFile
{
    version     2.0;
    format      ascii;
    class       surfaceScalarField;
    location    "58.8";
    object      phi;
}
// * * * * * * * * * * * * * * * * * * * * * * * * * * * * * * * * * * * * * //

dimensions      [0 3 -1 0 0 0 0];

internalField   nonuniform List<scalar> 
3880
(
-4.58874e-05
-0.000856113
0.000902
-7.11413e-05
-0.00161025
0.0016355
-2.89928e-05
-0.0017695
0.00172735
0.000114756
-0.00148302
0.00133927
0.000386813
-0.000828493
0.000556436
0.000806032
0.000149711
-0.00056893
0.00138099
0.00141845
-0.00199341
0.0021074
0.00294214
-0.00366855
0.00296628
0.00467467
-0.00553354
0.00655377
0.00392267
-0.00751017
-5.48435e-05
-0.000801269
-9.33421e-05
-0.00157175
-6.93876e-05
-0.00179346
5.09002e-05
-0.00160331
0.000296157
-0.00107375
0.000690136
-0.000244268
0.00124866
0.000859934
0.00197538
0.00221542
0.00285758
0.00379246
0.00554946
0.0038619
-5.71473e-05
-0.000744122
-9.64239e-05
-0.00153247
-7.58554e-05
-0.00181402
3.48513e-05
-0.00171402
0.000262967
-0.00130187
0.000634415
-0.000615716
0.00117055
0.000323802
0.00188314
0.00150283
0.00276769
0.00290791
0.00452208
0.00379507
-5.10476e-05
-0.000693075
-7.54071e-05
-0.00150811
-3.86244e-05
-0.00185081
8.28262e-05
-0.00183547
0.000311658
-0.0015307
0.000672247
-0.000976305
0.00118857
-0.000192525
0.0018792
0.000812203
0.00274908
0.00203803
0.00349417
0.00377699
-3.53776e-05
-0.000657697
-2.68652e-05
-0.00151662
4.93564e-05
-0.00192703
0.00020777
-0.00199388
0.00046351
-0.00178644
0.000835753
-0.00134855
0.0013474
-0.000704169
0.00202062
0.000138979
0.00286976
0.00118889
0.00247852
0.00388541
-9.47937e-06
-0.000648218
5.00684e-05
-0.00157617
0.000190357
-0.00206732
0.000415241
-0.00221877
0.000730273
-0.00210147
0.0011466
-0.00176488
0.00168196
-0.00123952
0.00235852
-0.000537583
0.00319748
0.000349929
0.00147094
0.00420505
2.57376e-05
-0.000673955
0.000153253
-0.00170369
0.000380431
-0.00229449
0.000700122
-0.00253846
0.00110791
-0.00250925
0.00160546
-0.00226243
0.00220244
-0.00183651
0.00291682
-0.00125196
0.0037732
-0.000506446
0.000450308
0.00479383
6.83468e-05
-0.000742302
0.000277061
-0.0019124
0.000608463
-0.0026259
0.00104486
-0.00297485
0.00157267
-0.00303707
0.00218442
-0.00287418
0.00288052
-0.00253261
0.0036713
-0.00204274
0.00457979
-0.00141494
-0.000612717
0.00564281
0.000116094
-0.000858396
0.000413045
-0.00220935
0.000856965
-0.00306982
0.00142017
-0.00353806
0.00208159
-0.00369849
0.00282652
-0.00361911
0.00364697
-0.00335306
0.00454298
-0.00293875
0.00552852
-0.00240047
-0.00173878
0.00665458
0.000165659
-0.00102405
0.000550536
-0.00259423
0.00110369
-0.00362297
0.00178804
-0.00422241
0.0025771
-0.00448755
0.00345274
-0.00449474
0.00440347
-0.00430379
0.00542237
-0.00395764
0.00650241
-0.00348052
0.00766957
-0.00290594
0.00633771
0.0395774
-0.0419925
0.00751299
0.0662096
-0.0673849
0.00747885
0.0873579
-0.0873238
0.00686498
0.106797
-0.106183
0.00598571
0.127597
-0.126718
0.00492459
0.151148
-0.150087
0.00370674
0.178002
-0.176784
0.00229862
0.209609
-0.208201
0.000943314
0.251545
-0.250189
0.300715
-0.299772
0.00673974
0.0366996
0.00847819
0.0644712
0.00878535
0.0870508
0.00834097
0.107241
0.00752698
0.128411
0.0064355
0.15224
0.00508313
0.179354
0.00342446
0.211268
0.00162627
0.253343
0.302341
0.0070299
0.0334648
0.00937484
0.0621262
0.0100644
0.0863612
0.00981265
0.107493
0.0090718
0.129152
0.00795251
0.153359
0.0064644
0.180842
0.00455495
0.213177
0.0023116
0.255586
0.304653
0.00719834
0.0300434
0.0101642
0.0591603
0.0112802
0.0852452
0.0112497
0.107523
0.0105948
0.129807
0.00945541
0.154498
0.00783585
0.182462
0.00567928
0.215334
0.00299161
0.258274
0.307645
0.00726839
0.0266604
0.0108103
0.0556185
0.0123969
0.0836586
0.0126232
0.107297
0.0120719
0.130358
0.0109239
0.155646
0.00918337
0.184203
0.00678538
0.217732
0.003662
0.261397
0.311307
0.00730153
0.023564
0.0112811
0.0516389
0.0133806
0.081559
0.013903
0.106775
0.0134756
0.130785
0.0123328
0.156789
0.0104855
0.18605
0.00785919
0.220358
0.00431465
0.264942
0.315621
0.00737892
0.0209789
0.0115664
0.0474514
0.014203
0.0789223
0.0150665
0.105911
0.0147939
0.131058
0.0136767
0.157906
0.0117393
0.187987
0.00889706
0.2232
0.00494751
0.268891
0.320569
0.00756466
0.019057
0.0116857
0.0433304
0.0148367
0.0757713
0.0160705
0.104677
0.0159773
0.131151
0.0149057
0.158978
0.0129031
0.18999
0.00987537
0.226228
0.00554895
0.273218
0.326118
0.00786704
0.0178446
0.0116751
0.0395223
0.0152902
0.0721562
0.0169562
0.103011
0.0170886
0.131019
0.0160808
0.159986
0.0140235
0.192047
0.0108112
0.22944
0.00612363
0.277905
0.332241
0.00830808
0.0172061
0.0116236
0.0362068
0.0154589
0.0683209
0.0175322
0.100938
0.0179521
0.130599
0.0170603
0.160877
0.0150339
0.194074
0.0116632
0.232811
0.00669964
0.282869
0.338941
0.0201164
0.027587
-0.0304973
0.0144371
0.041886
0.0143628
0.0683952
0.0141304
0.10117
0.0127339
0.131995
0.0105653
0.163046
0.00782684
0.196812
0.00454531
0.236092
0.00140705
0.286007
0.340348
0.0259092
0.0348403
-0.0331626
0.0179484
0.0498468
0.015031
0.0713126
0.0139612
0.10224
0.0120861
0.133871
0.00971667
0.165415
0.00709568
0.199433
0.00409579
0.239092
0.00125755
0.288845
0.341606
0.0292582
0.0388562
-0.0332741
0.0219093
0.0571957
0.0168961
0.0763259
0.0147338
0.104403
0.0126253
0.135979
0.0100072
0.168034
0.00710318
0.202337
0.00398188
0.242214
0.00122363
0.291604
0.342829
0.030075
0.0405048
-0.0317235
0.0245272
0.0627434
0.0187261
0.0821269
0.0151458
0.107983
0.0123851
0.13874
0.00969913
0.170719
0.00692776
0.205108
0.00396091
0.24518
0.00127752
0.294287
0.344107
0.0291143
0.0405561
-0.0291657
0.0256936
0.0661642
0.020681
0.0871395
0.0168049
0.111859
0.0135625
0.141982
0.0103304
0.173952
0.00715217
0.208287
0.00402666
0.248306
0.00131179
0.297002
0.345418
0.0266102
0.0393772
-0.0254312
0.0250307
0.0677437
0.0209064
0.0912637
0.0168111
0.115954
0.0134589
0.145334
0.0103682
0.177042
0.00731457
0.21134
0.00424371
0.251377
0.0014936
0.299752
0.346912
0.0231671
0.037036
-0.0208259
0.0237044
0.0672063
0.0216106
0.0933575
0.018179
0.119386
0.0145111
0.149002
0.0108835
0.18067
0.00747463
0.214749
0.00426821
0.254583
0.00151487
0.302505
0.348427
0.0189122
0.033847
-0.0157233
0.0206042
0.0655143
0.0198032
0.0941586
0.0174192
0.12177
0.0145017
0.15192
0.0112846
0.183887
0.00793277
0.218101
0.00464291
0.257873
0.00174808
0.3054
0.350175
0.0155595
0.0295479
-0.0112603
0.0191344
0.0619394
0.0200142
0.0932789
0.0181841
0.1236
0.0150117
0.155092
0.0114667
0.187432
0.00793494
0.221633
0.00463992
0.261168
0.00175785
0.308282
0.351933
0.0105871
-0.00621952
0.0149784
0.0177406
0.0178836
0.0158092
0.0124293
0.00873313
0.00510749
0.00205531
0.0107908
-0.0323721
-0.00891602
0.0111669
-0.0335386
0.0106506
-0.0327578
0.0096878
-0.0307607
0.00847025
-0.0279481
0.00711151
-0.0240725
0.00570305
-0.0194174
0.00433615
-0.0143564
0.00290994
-0.00983414
-0.00510417
0.0100717
-0.0333601
-0.00908367
0.00982607
-0.033293
0.00895973
-0.0318914
0.00778695
-0.0295879
0.00643622
-0.0265974
0.00499647
-0.0226327
0.00354654
-0.0179675
0.0021713
-0.0129812
0.000756748
-0.00841959
-0.00407684
0.00894529
-0.0336227
-0.00868272
0.0082293
-0.032577
0.00710358
-0.0307657
0.00576415
-0.0282485
0.0043055
-0.0251388
0.00280476
-0.021132
0.00133783
-0.0165006
4.66108e-06
-0.011648
-0.00133319
-0.00708174
-0.00313763
0.00741161
-0.0333124
-0.00772192
0.00635383
-0.0315192
0.00504922
-0.0294611
0.00359876
-0.026798
0.00207701
-0.023617
0.000553044
-0.019608
-0.000893779
-0.0150538
-0.00220154
-0.0103402
-0.00337708
-0.00590619
-0.00231695
0.00552754
-0.0325609
-0.00627908
0.00423547
-0.0302271
0.00281981
-0.0280454
0.00130957
-0.0252878
-0.000233961
-0.0220735
-0.00172477
-0.0181172
-0.00311799
-0.0136605
-0.00434205
-0.00911616
-0.005366
-0.00488224
-0.00164542
0.00338243
-0.0314786
-0.00446469
0.00194334
-0.028788
0.000466009
-0.0265681
-0.00104611
-0.0237757
-0.00255355
-0.0205661
-0.00399872
-0.016672
-0.00530319
-0.0123561
-0.00641039
-0.00800895
-0.00727042
-0.00402222
-0.00113122
0.00107386
-0.030155
-0.00239741
-0.000444396
-0.0272698
-0.0019176
-0.0250949
-0.00341446
-0.0222788
-0.00486629
-0.0191142
-0.00622208
-0.0153163
-0.00741118
-0.011167
-0.00837914
-0.00704099
-0.00907074
-0.00333062
-0.000769578
-0.00130056
-0.0286779
-0.000176629
-0.00283225
-0.0257381
-0.00429396
-0.0236332
-0.00573928
-0.0208335
-0.00710676
-0.0177468
-0.00835009
-0.0140729
-0.00940669
-0.0101104
-0.0102237
-0.00622402
-0.0107517
-0.00280258
-0.000546687
-0.00365549
-0.0270764
0.00205406
-0.00517314
-0.0242204
-0.0065894
-0.0222169
-0.00795821
-0.0194647
-0.00922445
-0.0164805
-0.0103419
-0.0129554
-0.0112586
-0.00919372
-0.0119238
-0.00555884
-0.0123018
-0.00242455
-0.000442582
-0.0059109
-0.0254233
0.00425777
-0.0073883
-0.022743
-0.00874253
-0.0208627
-0.0100192
-0.0181881
-0.011176
-0.0153237
-0.0121632
-0.0119682
-0.0129419
-0.00841506
-0.0134646
-0.00503608
-0.0137133
-0.00217586
-0.00043344
-0.00800085
-0.0237656
0.00634317
-0.00941986
-0.021324
-0.0107035
-0.0195791
-0.0118798
-0.0170118
-0.012927
-0.0142765
-0.0137881
-0.0111071
-0.0144394
-0.0077638
-0.0148375
-0.00463792
-0.0149825
-0.00203086
-0.000493398
-0.00988298
-0.0221403
0.00825769
-0.0112284
-0.0199786
-0.0124379
-0.0183696
-0.0135114
-0.0159382
-0.014455
-0.0133329
-0.0152012
-0.0103609
-0.0157423
-0.00722273
-0.0160397
-0.00434048
-0.0161095
-0.00196112
-0.000595877
-0.0115238
-0.0205766
0.00996007
-0.0127844
-0.018718
-0.0139212
-0.0172328
-0.0148957
-0.0149638
-0.0157473
-0.0124813
-0.0163961
-0.00971205
-0.0168495
-0.00676936
-0.0170742
-0.00411578
-0.0170982
-0.00193716
-0.000714548
-0.0129055
-0.0190946
0.0114235
-0.0140732
-0.0175503
-0.0151429
-0.0161631
-0.0160273
-0.0140794
-0.0168022
-0.0117064
-0.017376
-0.00913824
-0.0177672
-0.00637814
-0.017949
-0.00393401
-0.0179561
-0.00193003
-0.000823924
-0.0140236
-0.0177026
0.0126316
-0.0150935
-0.0164804
-0.0161036
-0.015153
-0.0169121
-0.0132709
-0.0176275
-0.010991
-0.0181516
-0.00861413
-0.0185075
-0.00602229
-0.0186762
-0.00376525
-0.018694
-0.00191225
-0.000899701
-0.0148846
-0.0163932
0.0135752
-0.0158562
-0.0155088
-0.0168137
-0.0141955
-0.0175649
-0.0125197
-0.0182382
-0.0103177
-0.0187392
-0.00811309
-0.0190862
-0.00567529
-0.0192707
-0.00358078
-0.0193247
-0.00185824
-0.000918906
-0.0155015
-0.0151406
0.0142489
-0.0163812
-0.0146291
-0.0172901
-0.0132866
-0.018006
-0.0118038
-0.0186539
-0.00966986
-0.0191582
-0.00760875
-0.0195217
-0.00531182
-0.0197488
-0.00335367
-0.0198627
-0.00174437
-0.000859897
-0.0158749
-0.013915
0.0146493
-0.0166839
-0.0138201
-0.0175469
-0.0124236
-0.0182546
-0.0110962
-0.0188947
-0.00902975
-0.0194281
-0.00707534
-0.0198323
-0.00490762
-0.020127
-0.00305894
-0.0203228
-0.00154858
-0.000702206
-0.0159954
-0.0127038
0.0147842
-0.0167843
-0.0130312
-0.0176045
-0.0116034
-0.0183325
-0.0103682
-0.0189832
-0.00837898
-0.0195694
-0.00648915
-0.0200367
-0.00444032
-0.0204217
-0.00267396
-0.0207199
-0.00125034
-0.000426187
-0.0159573
-0.0114575
0.014711
-0.0167868
-0.0122017
-0.0175259
-0.0108644
-0.0182743
-0.00961971
-0.0189447
-0.00770866
-0.019597
-0.00583685
-0.0201485
-0.00388875
-0.0206458
-0.00217671
-0.0210717
-0.000824441
-1.59642e-05
-0.0687698
-0.010094
0.0674063
-0.0719132
-0.00905828
-0.0747368
-0.00804081
-0.0776094
-0.00674713
-0.0798937
-0.00542428
-0.0817533
-0.00397726
-0.0829604
-0.00268169
-0.0836604
-0.00147668
-0.0838917
-0.000593136
-2.85693e-05
-0.0824819
-0.00881651
0.0812043
-0.084438
-0.00710213
-0.0861717
-0.00630711
-0.0879688
-0.00495001
-0.0893577
-0.00403542
-0.090481
-0.00285389
-0.0911759
-0.00198687
-0.091566
-0.00108654
-0.0916656
-0.000493516
-3.89422e-05
-0.0968428
-0.0079319
0.0959582
-0.0978807
-0.00606424
-0.0989645
-0.00522329
-0.100027
-0.00388785
-0.100879
-0.00318317
-0.101557
-0.00217567
-0.101955
-0.0015888
-0.102164
-0.000877908
-0.102195
-0.000462663
-4.10665e-05
-0.113613
-0.00744551
0.113127
-0.114255
-0.00542239
-0.114929
-0.0045498
-0.115568
-0.00324828
-0.116088
-0.00266305
-0.116504
-0.00175999
-0.116743
-0.0013502
-0.116876
-0.000744254
-0.116888
-0.000450609
-3.60544e-05
-0.134121
-0.00686835
0.133544
-0.134651
-0.00489236
-0.135167
-0.00403397
-0.135633
-0.00278185
-0.136018
-0.00227813
-0.136333
-0.00144496
-0.136538
-0.00114545
-0.13668
-0.000602815
-0.136731
-0.000398889
-8.19079e-06
-0.158203
-0.00603488
0.15737
-0.158859
-0.00423647
-0.159432
-0.00346157
-0.159912
-0.00230156
-0.16031
-0.00188029
-0.160633
-0.00112197
-0.160885
-0.000893779
-0.161097
-0.000390188
-0.161231
-0.000265284
3.40299e-05
-0.183423
-0.00490028
0.182288
-0.184361
-0.00329756
-0.18516
-0.00266312
-0.185729
-0.00173291
-0.186202
-0.0014066
-0.186558
-0.000765902
-0.186877
-0.000575531
-0.187131
-0.000135814
-0.187309
-8.72133e-05
8.10198e-05
-0.206113
-0.00321744
0.204431
-0.207093
-0.00231844
-0.2079
-0.0018554
-0.208474
-0.00115878
-0.208972
-0.000908728
-0.209309
-0.000428927
-0.209607
-0.000278071
-0.209792
4.91026e-05
-0.209918
3.90995e-05
9.40376e-05
-0.221521
-0.0017649
0.220068
-0.22276
-0.00107939
-0.223763
-0.000852226
-0.224401
-0.000520822
-0.224883
-0.000426489
-0.225134
-0.000177842
-0.225314
-9.84711e-05
-0.225341
7.60722e-05
-0.225358
5.58693e-05
6.01603e-05
-0.230036
0.228272
-0.231116
-0.231968
-0.232489
-0.232915
-0.233093
-0.233192
-0.233116
-0.23306
-0.0164198
0.0687462
0.0150799
-0.0171604
0.0819449
-0.0176029
0.0964007
-0.0177074
0.113231
-0.017334
0.133171
-0.0161259
0.156162
-0.0137433
0.179905
-0.0100202
0.200707
-0.00533246
0.215381
0.222939
-0.015489
0.0695876
0.0146476
-0.0161335
0.0825894
-0.0165024
0.0967697
-0.0165182
0.113247
-0.016057
0.132709
-0.0148082
0.154913
-0.0124948
0.177592
-0.00905687
0.19727
-0.00478052
0.211104
0.218159
-0.0146826
0.0703043
0.013966
-0.0152221
0.0831288
-0.0155005
0.0970481
-0.0154521
0.113199
-0.0149494
0.132207
-0.0137171
0.153681
-0.0115167
0.175391
-0.00832488
0.194078
-0.0043755
0.207155
0.213783
-0.0137597
0.0709664
0.0130975
-0.014213
0.0835822
-0.0143937
0.0972287
-0.0142719
0.113077
-0.013731
0.131666
-0.0125284
0.152478
-0.0104653
0.173328
-0.00753965
0.191152
-0.00394888
0.203564
0.209834
-0.012688
0.0715659
0.0120885
-0.0130701
0.0839642
-0.013172
0.0973307
-0.0129913
0.112896
-0.012428
0.131102
-0.0112734
0.151324
-0.00936761
0.171423
-0.00672164
0.188506
-0.00351035
0.200353
0.206324
-0.0114997
0.0720914
0.0109742
-0.0118018
0.0842663
-0.0118336
0.0973625
-0.0116095
0.112672
-0.0110427
0.130536
-0.00995825
0.150239
-0.00823159
0.169696
-0.00588123
0.186156
-0.00306351
0.197535
0.20326
-0.0102249
0.0725347
0.00978164
-0.0104392
0.0844806
-0.0104002
0.0973234
-0.0101407
0.112413
-0.00958471
0.12998
-0.00859006
0.149245
-0.00706231
0.168168
-0.00502372
0.184117
-0.00260977
0.195121
0.200651
-0.00888461
0.0728827
0.00853656
-0.00901006
0.0846061
-0.00889988
0.0972133
-0.00860973
0.112123
-0.00807414
0.129444
-0.00718385
0.148354
-0.00586967
0.166854
-0.00415494
0.182402
-0.00215134
0.193118
0.198499
-0.00750066
0.0731176
0.00726581
-0.00753928
0.0846447
-0.00735818
0.0970322
-0.00704242
0.111807
-0.00653418
0.128936
-0.00575846
0.147579
-0.00466688
0.165762
-0.00328244
0.181018
-0.0016917
0.191527
0.196807
-0.00609593
0.0732165
0.00599698
-0.00605367
0.0846024
-0.00579822
0.0967767
-0.00546291
0.111471
-0.00498612
0.128459
-0.00433226
0.146925
-0.00346768
0.164898
-0.00241494
0.179965
-0.0012353
0.190347
0.195572
-0.0047056
0.0731585
0.00476357
-0.00458698
0.0844838
-0.00425062
0.0964404
-0.00389873
0.11112
-0.0034537
0.128014
-0.00292486
0.146396
-0.00228669
0.16426
-0.00156201
0.179241
-0.000786828
0.189572
0.194785
-0.00337012
0.0729456
0.00358307
-0.00316152
0.0842752
-0.00275266
0.0960315
-0.00237814
0.110745
-0.00196686
0.127603
-0.00155497
0.145984
-0.00113707
0.163842
-0.000733255
0.178837
-0.000351605
0.18919
0.194434
-0.00213038
0.072593
0.00248293
-0.00181284
0.0839577
-0.00134895
0.0955676
-0.000944967
0.110341
-0.000573159
0.127231
-0.000273241
0.145684
-7.12416e-05
0.16364
3.35726e-05
0.178732
5.18061e-05
0.189172
0.194486
-0.00101905
0.0721353
0.00147678
-0.000567443
0.0835061
-0.000101333
0.0951015
0.000388634
0.109851
0.000762733
0.126857
0.000979366
0.145467
0.000996692
0.163622
0.000808705
0.17892
0.000455971
0.189525
0.194942
-8.82612e-05
0.0716602
0.000563416
0.000587288
0.0828305
0.00117979
0.094509
0.00168746
0.109343
0.00203715
0.126507
0.00215663
0.145348
0.00198798
0.163791
0.00152521
0.179383
0.000831391
0.190219
0.195773
0.000894338
0.0710349
-0.000269077
0.00165598
0.0820689
0.00230633
0.0938587
0.00285069
0.108799
0.00318965
0.126168
0.00322978
0.145308
0.00289545
0.164125
0.00218206
0.180096
0.00117439
0.191226
0.196947
0.00171365
0.0703241
-0.00100288
0.00259248
0.08119
0.00330155
0.0931496
0.00388993
0.108211
0.00423013
0.125828
0.0042093
0.145329
0.00373083
0.164604
0.0027894
0.181038
0.00149138
0.192524
0.198439
0.00239719
0.0695985
-0.00167157
0.00338736
0.0801999
0.00414623
0.0923907
0.00477181
0.107585
0.00511434
0.125485
0.00504525
0.145398
0.00444697
0.165202
0.00331112
0.182173
0.00176132
0.194074
0.2002
0.00301779
0.068887
-0.00230627
0.00410816
0.0791095
0.00492029
0.0915786
0.00558487
0.106921
0.00593844
0.125132
0.00583175
0.145504
0.00512349
0.16591
0.00380356
0.183493
0.00201587
0.195862
0.202216
0.00335053
0.0684603
-0.00292384
0.00448305
0.077977
0.00534458
0.090717
0.00603766
0.106227
0.006406
0.124764
0.00629194
0.145618
0.0055309
0.166671
0.00410408
0.18492
0.00216351
0.197802
0.204379
-0.0518385
0.0625259
0.0577729
-0.0467649
0.0729034
-0.0431387
0.0870908
-0.0393663
0.102455
-0.0352369
0.120634
-0.0302678
0.140649
-0.0241067
0.16051
-0.0167705
0.177584
-0.00857065
0.189603
0.195809
-0.0627956
0.0577312
0.0675902
-0.0582934
0.0684013
-0.0540125
0.0828099
-0.0492345
0.0976771
-0.0440658
0.115465
-0.037763
0.134347
-0.0300295
0.152777
-0.0209285
0.168483
-0.0108199
0.179494
0.184989
-0.0755554
0.0530193
0.0802674
-0.0709083
0.0637542
-0.0657596
0.0776612
-0.0600175
0.091935
-0.0535787
0.109027
-0.0455609
0.126329
-0.0359574
0.143173
-0.024836
0.157362
-0.012577
0.167235
0.172412
-0.0910175
0.0485174
0.0955193
-0.0857263
0.058463
-0.0797452
0.0716802
-0.0729879
0.0851777
-0.064959
0.100998
-0.0549176
0.116287
-0.0431699
0.131426
-0.0297975
0.143989
-0.0153426
0.15278
0.157069
-0.108297
0.0431419
0.113672
-0.102304
0.0524702
-0.0952681
0.0646444
-0.0867997
0.0767094
-0.0764175
0.0906155
-0.0638709
0.103741
-0.0496403
0.117195
-0.0336835
0.128032
-0.016769
0.135865
0.1403
-0.129038
0.037665
0.134515
-0.121828
0.0452598
-0.113246
0.0560627
-0.102572
0.0660347
-0.0897376
0.0777816
-0.0747805
0.0887837
-0.0578911
0.100306
-0.0392712
0.109413
-0.0200652
0.116659
0.120235
-0.149509
0.0304777
0.156696
-0.140739
0.0364907
-0.129994
0.045317
-0.116629
0.0526696
-0.10104
0.062193
-0.0829697
0.0707135
-0.0625712
0.079907
-0.0406025
0.0874439
-0.0189262
0.0949831
0.101309
-0.171719
0.022969
0.179228
-0.161382
0.0261535
-0.148651
0.032586
-0.133297
0.0373157
-0.115535
0.0444305
-0.0948949
0.0500734
-0.0720604
0.0570725
-0.0481324
0.0635159
-0.0253388
0.0721896
0.07597
-0.187382
0.011021
0.19933
-0.174183
0.0129539
-0.157855
0.0162578
-0.139116
0.0185766
-0.117115
0.0224302
-0.092355
0.0253132
-0.0648235
0.029541
-0.0351732
0.0338656
-0.0059416
0.042958
0.0700284
-0.271925
0.282946
-0.258971
-0.242713
-0.224136
-0.201706
-0.176393
-0.146852
-0.112986
-0.0700284
0.000506413
0.0597434
-0.00247696
-0.00101732
0.0691139
-0.00220695
0.081457
-0.00311111
0.0964234
-0.00366166
0.114223
-0.00381459
0.134668
-0.00347243
0.156354
-0.00267963
0.178435
-0.00245538
0.199106
0.28049
0.000970248
0.0616109
-0.00283774
-0.000639836
0.070724
-0.00188698
0.0827042
-0.00282139
0.0973578
-0.00341641
0.114818
-0.00359353
0.134845
-0.00332293
0.156083
-0.00256331
0.177676
-0.00222224
0.198765
0.278268
0.00147611
0.063352
-0.00321722
-0.000123887
0.072324
-0.00131447
0.0838948
-0.00223761
0.098281
-0.00285499
0.115435
-0.00306706
0.135057
-0.00289523
0.155911
-0.00223234
0.177013
-0.00199537
0.198528
0.276273
0.00197129
0.0649968
-0.00361607
0.000438981
0.0738563
-0.00069805
0.0850318
-0.00157652
0.0991595
-0.00216976
0.116028
-0.0024253
0.135313
-0.00232679
0.155813
-0.00181851
0.176505
-0.00169743
0.198407
0.274575
0.00245807
0.0665658
-0.004027
0.00102438
0.07529
-9.17383e-05
0.0861479
-0.000897398
0.0999651
-0.00145451
0.116585
-0.00173434
0.135593
-0.00170143
0.15578
-0.00134776
0.176151
-0.0013512
0.19841
0.273224
0.00296777
0.0680374
-0.00443937
0.00165111
0.0766066
0.000640622
0.0871584
-0.000167634
0.100773
-0.000676019
0.117094
-0.000980826
0.135897
-0.00101436
0.155813
-0.000824932
0.175961
-0.000965818
0.198551
0.272258
0.00350267
0.0693804
-0.00484574
0.00232141
0.0777879
0.00141296
0.0880668
0.000695541
0.101491
0.000186633
0.117603
-0.000165196
0.136249
-0.000237981
0.155886
-0.000257845
0.175981
-0.000540371
0.198834
0.271718
0.0040549
0.0705649
-0.00523939
0.0030233
0.0788195
0.00222254
0.0888676
0.00159707
0.102116
0.00111922
0.118081
0.000773504
0.136595
0.00057719
0.156082
0.000399639
0.176159
-6.37315e-05
0.199297
0.271654
0.00461829
0.0715579
-0.00561121
0.00374434
0.0796935
0.00305921
0.0895527
0.00252705
0.102648
0.0020949
0.118513
0.00173987
0.13695
0.00143638
0.156386
0.00110344
0.176492
0.000393851
0.200007
0.272048
0.0051802
0.0723261
-0.00594841
0.00447188
0.0804018
0.00391121
0.0901134
0.00347803
0.103082
0.00309891
0.118892
0.00273089
0.137318
0.00233268
0.156784
0.00182148
0.177003
0.000882301
0.200946
0.27293
0.00571938
0.0728369
-0.00623024
0.00518599
0.0809352
0.00475937
0.09054
0.00443012
0.103411
0.00410952
0.119212
0.0037342
0.137693
0.00324382
0.157275
0.00255392
0.177693
0.00138704
0.202113
0.274317
0.00622761
0.0730633
-0.00645395
0.00587827
0.0812845
0.00559298
0.0908253
0.00537339
0.10363
0.00511727
0.119469
0.0047422
0.138068
0.00416282
0.157854
0.00329837
0.178557
0.00190079
0.20351
0.276218
0.00668164
0.0729887
-0.00660704
0.00652418
0.081442
0.00638652
0.090963
0.00628094
0.103736
0.006097
0.119653
0.00573195
0.138433
0.00507219
0.158514
0.00404156
0.179588
0.00241601
0.205136
0.278634
0.0070621
0.0726111
-0.00668449
0.00710616
0.0813979
0.00711922
0.0909499
0.00713074
0.103724
0.00702811
0.119755
0.00668302
0.138779
0.00595526
0.159241
0.00477023
0.180773
0.00292428
0.206982
0.281558
0.00735435
0.0719426
-0.00668585
0.00760886
0.0811434
0.00777172
0.090787
0.00790281
0.103593
0.00789153
0.119766
0.00757832
0.139092
0.00680008
0.16002
0.00547564
0.182097
0.00342174
0.209036
0.28498
0.00754832
0.0710126
-0.00661838
0.00801878
0.0806729
0.00832673
0.0904791
0.00857696
0.103343
0.00866263
0.119681
0.00839388
0.139361
0.00758569
0.160828
0.00614043
0.183543
0.00389592
0.21128
0.288876
0.00764367
0.0698683
-0.00649934
0.00833039
0.0799862
0.00877749
0.090032
0.00914607
0.102975
0.00933605
0.119491
0.00912784
0.139569
0.00831181
0.161644
0.00676582
0.185089
0.00434859
0.213698
0.293225
0.00764143
0.0685822
-0.00635536
0.00852646
0.0791012
0.00910017
0.0894583
0.00957643
0.102498
0.00986847
0.119199
0.00973014
0.139707
0.00893034
0.162444
0.00731805
0.186701
0.00475722
0.216258
0.297982
0.00759873
0.0672095
-0.00622603
0.00867287
0.078027
0.00936456
0.0887666
0.00994172
0.101921
0.010337
0.118803
0.0102777
0.139766
0.00950407
0.163217
0.00783535
0.18837
0.00514021
0.218954
0.303122
0.00732681
0.065968
-0.00608527
0.00847568
0.0768782
0.00930515
0.0879371
0.00997492
0.101251
0.0104799
0.118299
0.0105211
0.139725
0.00984188
0.163896
0.00817626
0.190035
0.00545017
0.22168
0.308572
-0.0361277
0.061487
0.0406087
-0.0307053
0.0714558
-0.0262122
0.0834441
-0.0217709
0.0968101
-0.0173784
0.113906
-0.0127431
0.13509
-0.00783795
0.158991
-0.00326136
0.185459
-0.00100552
0.219424
0.307567
-0.051686
0.0563868
0.0567861
-0.0461263
0.0658961
-0.0404244
0.0777421
-0.0343939
0.0907796
-0.0282781
0.10779
-0.0215729
0.128385
-0.0143137
0.151732
-0.00732824
0.178473
-0.00302705
0.215123
0.30454
-0.0686053
0.0508671
0.0741251
-0.0622145
0.0595052
-0.0553063
0.070834
-0.0479362
0.0834094
-0.0402075
0.100062
-0.0312798
0.119457
-0.0215124
0.141965
-0.01188
0.168841
-0.00483062
0.208073
0.299709
-0.0873079
0.0451632
0.0930117
-0.079864
0.0520613
-0.0720107
0.0629807
-0.0633938
0.0747926
-0.0537235
0.0903912
-0.0422271
0.107961
-0.0296796
0.129417
-0.0171267
0.156288
-0.00712465
0.198071
0.292584
-0.108364
0.0383038
0.115224
-0.100485
0.0441818
-0.091881
0.0543771
-0.081566
0.0644776
-0.0694842
0.0783094
-0.0552543
0.0937307
-0.03972
0.113883
-0.0236973
0.140265
-0.0100085
0.184382
0.282576
-0.133505
0.0315727
0.140237
-0.12464
0.0353162
-0.114547
0.0442846
-0.102141
0.0520712
-0.0877365
0.0639049
-0.0709769
0.0769711
-0.0523489
0.0952548
-0.0326424
0.120559
-0.0148482
0.166588
0.267728
-0.161794
0.0229261
0.17044
-0.152484
0.0260063
-0.14111
0.0329115
-0.127316
0.0382768
-0.111286
0.0478751
-0.0921631
0.057848
-0.0705693
0.0736611
-0.0469773
0.0969668
-0.0231805
0.142791
0.244547
-0.195775
0.0143384
0.204363
-0.185426
0.0156577
-0.172834
0.0203188
-0.1581
0.023543
-0.140575
0.03035
-0.119993
0.0372662
-0.0967026
0.0503706
-0.070297
0.0705612
-0.0396806
0.112175
0.204867
-0.247097
0.00537867
0.256057
-0.237615
0.00617578
-0.225577
0.00828113
-0.212128
0.010094
-0.195436
0.0136577
-0.176102
0.0179326
-0.151883
0.0261514
-0.120545
0.0392234
-0.0743218
0.0659513
0.130545
-0.318012
0.323391
-0.311837
-0.303555
-0.293461
-0.279804
-0.261871
-0.23572
-0.196496
-0.130545
0.00272365
0.0425509
-0.00466581
0.000117808
0.059392
-0.001801
0.0760439
-0.00348321
0.0946939
-0.00478623
0.116527
-0.00575851
0.141209
-0.00606761
0.170749
-0.0059956
0.204291
-0.00426745
0.254328
0.319124
0.00271827
0.0441454
-0.00431283
0.000488114
0.0616221
-0.00146332
0.0779953
-0.00314396
0.0963746
-0.00447243
0.117855
-0.00544092
0.142177
-0.00581755
0.171126
-0.00575253
0.204226
-0.00414335
0.252719
0.31498
0.00289085
0.0453272
-0.00407263
0.000976915
0.0635361
-0.000866858
0.0798391
-0.00247103
0.0979787
-0.00377467
0.119159
-0.00473115
0.143134
-0.00517632
0.171571
-0.00512808
0.204177
-0.00379493
0.251386
0.311185
0.00313798
0.0461214
-0.00393215
0.00151635
0.0651577
-0.000210701
0.0815661
-0.00167964
0.0994477
-0.00291763
0.120397
-0.00387575
0.144092
-0.0043716
0.172067
-0.00442399
0.20423
-0.00335436
0.250316
0.307831
0.00344416
0.0465436
-0.00386643
0.0021352
0.0664667
0.000606418
0.0830949
-0.000811108
0.100865
-0.00197224
0.121558
-0.00292605
0.145046
-0.00348026
0.172621
-0.00365921
0.204409
-0.0028528
0.24951
0.304978
0.00382587
0.0465718
-0.00385405
0.00285816
0.0674344
0.00154168
0.0844114
0.000166906
0.10224
-0.000914123
0.122639
-0.00187317
0.146005
-0.00250658
0.173255
-0.00282617
0.204728
-0.0023023
0.248986
0.302676
0.00428421
0.046164
-0.00387641
0.00367895
0.0680396
0.00258148
0.0855089
0.00138364
0.103438
0.000277205
0.123745
-0.000718444
0.147
-0.00142166
0.173958
-0.00192241
0.205229
-0.0017094
0.248773
0.300966
0.00479509
0.0452826
-0.00391372
0.00457896
0.0682558
0.00371517
0.0863726
0.0026564
0.104497
0.00161427
0.124787
0.000579499
0.148035
-0.000200759
0.174738
-0.00096019
0.205989
-0.00107592
0.248889
0.299891
0.00533048
0.0438975
-0.00394536
0.00553567
0.0680506
0.00492322
0.0869851
0.00400539
0.105414
0.00301466
0.125778
0.00199632
0.149053
0.00103984
0.175695
6.10975e-07
0.207028
-0.000400122
0.24929
0.29949
0.005858
-0.00395295
0.00652371
0.006185
0.00541669
0.00447717
0.00344365
0.002354
0.00118097
0.000281345
0.00021409
-0.00123815
0.000678415
-0.00305856
0.00132421
-0.00426876
0.00210548
-0.00500368
0.00299215
-0.00537422
0.00396652
-0.00546911
0.00502163
-0.0053589
0.00616386
-0.00509988
0.00743023
-0.00474689
-0.00439173
0.000254657
-0.0014928
0.00078058
-0.00358448
0.0014906
-0.00497878
0.00232945
-0.00584253
0.00326342
-0.0063082
0.00427472
-0.00648041
0.00535766
-0.00644185
0.00651682
-0.00625904
0.00776296
-0.00599303
-0.00571244
0.000285427
-0.00177823
0.000848408
-0.00414746
0.00158404
-0.00571441
0.00242856
-0.00668705
0.00334537
-0.00722501
0.00431664
-0.00745168
0.00533693
-0.00746214
0.00640772
-0.00732982
0.00752882
-0.00711413
-0.00686634
0.00030295
-0.00208118
0.000872647
-0.00471716
0.00158898
-0.00643074
0.00238209
-0.00748017
0.00321473
-0.00805765
0.00407107
-0.00830802
0.00494816
-0.00833923
0.00584907
-0.00823073
0.00677548
-0.00804054
-0.00781278
0.000304412
-0.00238559
0.000846905
-0.00525965
0.00149707
-0.0070809
0.00218316
-0.00816626
0.0028709
-0.00874539
0.00354954
-0.00898665
0.0042215
-0.0090112
0.00489501
-0.00890424
0.0055785
-0.00872402
-0.00851336
0.000287853
-0.00267344
0.000768225
-0.00574002
0.00130771
-0.00762039
0.00183832
-0.00869687
0.00233292
-0.00923999
0.00278861
-0.00944234
0.00321501
-0.0094376
0.00362653
-0.00931575
0.00403809
-0.00913559
-0.00893997
0.000252391
-0.00292584
0.000637394
-0.00612502
0.00102782
-0.00801081
0.00136554
-0.00903459
0.00163423
-0.00950868
0.00184046
-0.00964857
0.00200098
-0.00959813
0.00213499
-0.00944976
0.00226063
-0.00926123
-0.00907675
0.000198376
-0.00312421
0.000458856
-0.0063855
0.000670594
-0.00822255
0.00079093
-0.00915493
0.000816626
-0.00953438
0.000763618
-0.00959556
0.000654328
-0.00948884
0.000510405
-0.00930583
0.000349172
-0.0091
-0.0089042
0.000127441
-0.00325165
0.000240179
-0.00649824
0.000253813
-0.00823619
0.000145014
-0.00904613
-7.57826e-05
-0.00931358
-0.000384418
-0.00928692
-0.000755434
-0.00911782
-0.0011674
-0.00889386
-0.00160464
-0.00866277
-0.00845477
4.23993e-05
-0.00329405
-7.80996e-06
-0.00644803
-0.000202238
-0.00804176
-0.000540548
-0.00870782
-0.00100017
-0.00885396
-0.00155178
-0.00873531
-0.00216901
-0.00850059
-0.00283261
-0.00823026
-0.00353037
-0.00796501
-0.00772737
-3.80343e-05
-0.00325602
-0.000254231
-0.00623184
-0.00065446
-0.00764153
-0.00121499
-0.00814728
-0.00190102
-0.00816794
-0.00267949
-0.00795684
-0.00352511
-0.00765498
-0.0044217