/*--------------------------------*- C++ -*----------------------------------*\
  =========                 |
  \\      /  F ield         | OpenFOAM: The Open Source CFD Toolbox
   \\    /   O peration     | Website:  https://openfoam.org
    \\  /    A nd           | Version:  7
     \\/     M anipulation  |
\*---------------------------------------------------------------------------*/
FoamFile
{
    version     2.0;
    format      ascii;
    class       volScalarField;
    location    "0.1625";
    object      p;
}
// * * * * * * * * * * * * * * * * * * * * * * * * * * * * * * * * * * * * * //

dimensions      [0 2 -2 0 0 0 0];

internalField   nonuniform List<scalar> 
400
(
8.4558e-06
-0.00588883
-0.0130327
-0.0184721
-0.0204909
-0.0182975
-0.0118286
-0.0015302
0.0118017
0.0271261
0.0432347
0.0588265
0.0725939
0.0833332
0.0900831
0.0922983
0.090058
0.0842908
0.0769041
0.0710351
0.00583077
-0.000236064
-0.00576523
-0.00947392
-0.0105191
-0.00835089
-0.00289581
0.00553132
0.016336
0.028716
0.0417234
0.0543299
0.065505
0.0743103
0.0800122
0.0822099
0.0809841
0.0769931
0.0712669
0.0652544
0.0133922
0.00496553
-0.00100324
-0.00441614
-0.00526623
-0.00325671
0.00160864
0.00903051
0.0184997
0.0293404
0.0407494
0.0518466
0.0617395
0.0696033
0.0747727
0.0768445
0.0758086
0.0720685
0.0658472
0.057455
0.0201975
0.00859245
0.00120681
-0.00267099
-0.00372754
-0.00189033
0.00272676
0.00977915
0.018773
0.029085
0.0399789
0.0506377
0.0602137
0.0678947
0.0729817
0.0749803
0.0737422
0.0694501
0.0616816
0.0500224
0.0245807
0.00964302
0.000572335
-0.00398269
-0.00530207
-0.00350678
0.00117571
0.00833408
0.0174587
0.0279421
0.0390736
0.0500539
0.0600285
0.0681414
0.0736016
0.0757724
0.0743396
0.0692836
0.0596351
0.0444382
0.0252855
0.00699503
-0.00381716
-0.00904648
-0.0105074
-0.00849525
-0.00335162
0.00443309
0.0143141
0.0256758
0.0378059
0.0498901
0.0610296
0.0702802
0.0767095
0.0794897
0.0781046
0.0723272
0.0606806
0.0417632
0.0212364
-0.000439703
-0.0129441
-0.0186892
-0.0200183
-0.0174031
-0.0113073
-0.00231032
0.00899674
0.0219784
0.0359067
0.0499354
0.0630967
0.0743238
0.0824964
0.0865395
0.0856792
0.079438
0.0657943
0.0429093
0.0113297
-0.013815
-0.0278741
-0.0338199
-0.0345813
-0.0308374
-0.0231931
-0.0123276
0.00111889
0.0164933
0.033056
0.04993
0.0660715
0.0802698
0.0911739
0.0973948
0.0978172
0.0916193
0.0761032
0.048907
-0.00572454
-0.0344803
-0.0498528
-0.0554951
-0.0550536
-0.0494824
-0.0395628
-0.0260857
-0.00973357
0.00884129
0.0289126
0.0495966
0.0697903
0.0881361
0.103019
0.112658
0.115481
0.110161
0.0930747
0.0611376
-0.0315425
-0.0641051
-0.0803769
-0.0849292
-0.0823663
-0.0740322
-0.060938
-0.0439978
-0.0239175
-0.0013085
0.0231667
0.0486724
0.0740946
0.0979566
0.118365
0.133073
0.139895
0.136764
0.118714
0.0815697
-0.0682565
-0.104845
-0.121274
-0.123482
-0.117442
-0.105066
-0.0876632
-0.0662758
-0.0415925
-0.0141167
0.0156371
0.0469745
0.0788628
0.109782
0.137592
0.159522
0.172603
0.173689
0.155821
0.113077
-0.11886
-0.159607
-0.174804
-0.172616
-0.161056
-0.142855
-0.119694
-0.0927184
-0.0625239
-0.029399
0.00641541
0.0445059
0.0840726
0.1237
0.161106
0.193012
0.215508
0.223938
0.208366
0.15995
-0.187906
-0.232489
-0.24378
-0.233773
-0.213588
-0.187073
-0.156302
-0.122438
-0.0858387
-0.0464158
-0.00396214
0.0415833
0.0898729
0.139838
0.189296
0.23461
0.270879
0.291461
0.282043
0.228826
-0.283021
-0.329506
-0.331612
-0.308084
-0.274601
-0.236362
-0.195698
-0.153549
-0.109781
-0.0636849
-0.0143773
0.0389211
0.0966027
0.158306
0.222372
0.285221
0.341182
0.381293
0.38512
0.330529
-0.418144
-0.459714
-0.442045
-0.395603
-0.342051
-0.287687
-0.23457
-0.182884
-0.131559
-0.0789265
-0.0231476
0.0375478
0.104626
0.178902
0.259902
0.344949
0.42842
0.49932
0.529625
0.483716
-0.619388
-0.636552
-0.57831
-0.494064
-0.41121
-0.335638
-0.267759
-0.205947
-0.147498
-0.0893287
-0.0283568
0.0384327
0.113902
0.200573
0.300068
0.412077
0.532946
0.651432
0.732447
0.720592
-0.935569
-0.878157
-0.741665
-0.598043
-0.47438
-0.372615
-0.288831
-0.217722
-0.153904
-0.0924041
-0.0286499
0.0417786
0.12336
0.220823
0.339019
0.482257
0.652275
0.841656
1.01496
1.09628
-1.48057
-1.20194
-0.92099
-0.692541
-0.517673
-0.387697
-0.290187
-0.213413
-0.148145
-0.087188
-0.0245036
0.0455844
0.129126
0.23332
0.36738
0.543136
0.77264
1.06029
1.39819
1.73407
-2.57156
-1.60191
-1.04347
-0.71483
-0.497802
-0.353389
-0.255528
-0.184276
-0.126583
-0.0737651
-0.0191866
0.0430905
0.119789
0.219676
0.356026
0.549839
0.829826
1.23508
1.88111
2.95926
-4.4451
-2.01726
-0.969798
-0.564346
-0.357056
-0.239045
-0.169363
-0.123297
-0.0871764
-0.0533532
-0.0166541
0.0275418
0.0843292
0.161224
0.271607
0.441387
0.718824
1.22152
2.38403
4.9294
)
;

boundaryField
{
    movingWall
    {
        type            zeroGradient;
    }
    fixedWalls
    {
        type            zeroGradient;
    }
    frontAndBack
    {
        type            empty;
    }
}


// ************************************************************************* //
