/*--------------------------------*- C++ -*----------------------------------*\
  =========                 |
  \\      /  F ield         | OpenFOAM: The Open Source CFD Toolbox
   \\    /   O peration     | Website:  https://openfoam.org
    \\  /    A nd           | Version:  7
     \\/     M anipulation  |
\*---------------------------------------------------------------------------*/
FoamFile
{
    version     2.0;
    format      ascii;
    class       volVectorField;
    location    "0.1625";
    object      U;
}
// * * * * * * * * * * * * * * * * * * * * * * * * * * * * * * * * * * * * * //

dimensions      [0 1 -1 0 0 0 0];

internalField   nonuniform List<vector> 
400
(
(0.000259303 -0.000254409 0)
(0.000148846 0.000103972 0)
(-0.0011748 0.000550629 0)
(-0.00347852 0.0008674 0)
(-0.00637164 0.00102628 0)
(-0.00946083 0.00104218 0)
(-0.0123919 0.000940043 0)
(-0.014872 0.000746141 0)
(-0.0166751 0.000485224 0)
(-0.0176431 0.000180906 0)
(-0.0176871 -0.000142797 0)
(-0.0167908 -0.000459976 0)
(-0.0150174 -0.000741887 0)
(-0.0125145 -0.000956948 0)
(-0.00951823 -0.0010719 0)
(-0.00634971 -0.00105476 0)
(-0.00339846 -0.000880749 0)
(-0.00108372 -0.000542892 0)
(0.000203865 -8.43275e-05 0)
(0.000272923 0.000265505 0)
(-6.73176e-05 -0.000174838 0)
(-0.00160075 0.00163711 0)
(-0.0056909 0.00359987 0)
(-0.0117116 0.00501208 0)
(-0.0188756 0.00571818 0)
(-0.0263745 0.00573514 0)
(-0.033434 0.00514897 0)
(-0.0393841 0.00407437 0)
(-0.0436959 0.00263576 0)
(-0.0459962 0.000962427 0)
(-0.0460785 -0.000809903 0)
(-0.0439133 -0.00253619 0)
(-0.0396587 -0.00406118 0)
(-0.033668 -0.00522276 0)
(-0.0264879 -0.00586164 0)
(-0.0188389 -0.00583991 0)
(-0.0115605 -0.00507226 0)
(-0.00551197 -0.00357272 0)
(-0.00148363 -0.00155333 0)
(-3.35804e-05 0.000232241 0)
(-0.000511625 0.00108887 0)
(-0.00369111 0.00573516 0)
(-0.0105803 0.0102154 0)
(-0.0199749 0.0133936 0)
(-0.0307359 0.0149305 0)
(-0.0417816 0.0148232 0)
(-0.0520682 0.0132418 0)
(-0.0606833 0.0104453 0)
(-0.0669019 0.00673504 0)
(-0.0702117 0.00243649 0)
(-0.0703297 -0.00210411 0)
(-0.0672169 -0.00651835 0)
(-0.0610917 -0.010418 0)
(-0.0524373 -0.0134067 0)
(-0.0419972 -0.0151074 0)
(-0.0307461 -0.0152096 0)
(-0.0198134 -0.013542 0)
(-0.0103558 -0.0101705 0)
(-0.00352926 -0.00555109 0)
(-0.000460523 -0.000946184 0)
(-0.000905229 0.00347518 0)
(-0.00566359 0.0122151 0)
(-0.0152886 0.0199047 0)
(-0.0278926 0.0251728 0)
(-0.0419466 0.0275687 0)
(-0.0561269 0.0271095 0)
(-0.0691877 0.024084 0)
(-0.080051 0.0189343 0)
(-0.0878662 0.0121831 0)
(-0.0920329 0.00440078 0)
(-0.0922174 -0.00380364 0)
(-0.0883678 -0.0117839 0)
(-0.08073 -0.018862 0)
(-0.0698583 -0.0243505 0)
(-0.0566171 -0.0275987 0)
(-0.0421565 -0.0280728 0)
(-0.0278332 -0.0254726 0)
(-0.0150813 -0.0198756 0)
(-0.00547786 -0.0119238 0)
(-0.000838996 -0.00322091 0)
(-0.00124951 0.0068688 0)
(-0.00750088 0.0209398 0)
(-0.0197891 0.0324815 0)
(-0.0355058 0.0400636 0)
(-0.0526975 0.0432463 0)
(-0.0697981 0.0421496 0)
(-0.0853898 0.0372392 0)
(-0.0982761 0.029183 0)
(-0.107528 0.018758 0)
(-0.112492 0.00680696 0)
(-0.1128 -0.00577407 0)
(-0.108381 -0.0180357 0)
(-0.0994761 -0.028981 0)
(-0.0866638 -0.0375935 0)
(-0.0708736 -0.0429005 0)
(-0.0533833 -0.0440838 0)
(-0.0357552 -0.0406387 0)
(-0.0197197 -0.0325645 0)
(-0.00733539 -0.0205789 0)
(-0.00117408 -0.00649 0)
(-0.00157109 0.0112022 0)
(-0.00927522 0.0318513 0)
(-0.0241919 0.0479098 0)
(-0.0429704 0.0580171 0)
(-0.0632063 0.0618775 0)
(-0.0830871 0.0598231 0)
(-0.101045 0.0525772 0)
(-0.115802 0.0410859 0)
(-0.12639 0.0264114 0)
(-0.132135 0.00968355 0)
(-0.132646 -0.00790852 0)
(-0.127822 -0.0251075 0)
(-0.117872 -0.0405852 0)
(-0.10335 -0.0529673 0)
(-0.0851985 -0.0609065 0)
(-0.064781 -0.0632183 0)
(-0.0438508 -0.0590856 0)
(-0.0244592 -0.0483026 0)
(-0.00920985 -0.0315365 0)
(-0.00150003 -0.0107157 0)
(-0.00189604 0.0164588 0)
(-0.0110703 0.0449406 0)
(-0.028632 0.066177 0)
(-0.0504457 0.0789884 0)
(-0.0736316 0.0833705 0)
(-0.0961356 0.0800013 0)
(-0.116271 0.0699606 0)
(-0.132723 0.0545351 0)
(-0.144532 0.0350995 0)
(-0.151038 0.0130724 0)
(-0.151844 -0.0100779 0)
(-0.146812 -0.0328034 0)
(-0.136083 -0.0534514 0)
(-0.120134 -0.0702728 0)
(-0.0998557 -0.0814903 0)
(-0.0766401 -0.0854537 0)
(-0.0524003 -0.0808894 0)
(-0.0295231 -0.0672194 0)
(-0.0112283 -0.0449075 0)
(-0.00185288 -0.0159332 0)
(-0.00224764 0.0226712 0)
(-0.0129652 0.0602564 0)
(-0.0332317 0.0872924 0)
(-0.0580448 0.102909 0)
(-0.0840207 0.107574 0)
(-0.108886 0.102474 0)
(-0.130889 0.0891687 0)
(-0.148747 0.069352 0)
(-0.161572 0.0447333 0)
(-0.168769 0.0170043 0)
(-0.169962 -0.0121252 0)
(-0.164971 -0.040861 0)
(-0.153832 -0.0672596 0)
(-0.136878 -0.0891989 0)
(-0.114861 -0.104423 0)
(-0.0891084 -0.1107 0)
(-0.0616254 -0.106119 0)
(-0.0351226 -0.089504 0)
(-0.0135173 -0.0609047 0)
(-0.00226779 -0.0222523 0)
(-0.00264954 0.029917 0)
(-0.0150378 0.0779007 0)
(-0.0380949 0.11127 0)
(-0.0658134 0.129647 0)
(-0.094274 0.134212 0)
(-0.121036 0.126875 0)
(-0.144372 0.109817 0)
(-0.163135 0.0852155 0)
(-0.176604 0.0551233 0)
(-0.184319 0.0214678 0)
(-0.185967 -0.0138679 0)
(-0.18133 -0.0489236 0)
(-0.170303 -0.0815351 0)
(-0.152991 -0.109242 0)
(-0.129887 -0.129281 0)
(-0.102113 -0.138717 0)
(-0.0716379 -0.134775 0)
(-0.0414359 -0.115374 0)
(-0.0162028 -0.0798354 0)
(-0.00278214 -0.0298553 0)
(-0.00313384 0.038322 0)
(-0.0173832 0.0980217 0)
(-0.0433198 0.138089 0)
(-0.0737216 0.15893 0)
(-0.10411 0.162785 0)
(-0.131975 0.152566 0)
(-0.155765 0.13125 0)
(-0.174615 0.101569 0)
(-0.188102 0.0659098 0)
(-0.195999 0.0263669 0)
(-0.198114 -0.015109 0)
(-0.194207 -0.0565147 0)
(-0.184001 -0.0955844 0)
(-0.167283 -0.129606 0)
(-0.144132 -0.155317 0)
(-0.11526 -0.168974 0)
(-0.0823872 -0.166672 0)
(-0.0485979 -0.145008 0)
(-0.0194222 -0.102082 0)
(-0.00344341 -0.039001 0)
(-0.00375572 0.0480818 0)
(-0.020147 0.120813 0)
(-0.0490228 0.167638 0)
(-0.0816509 0.19024 0)
(-0.113006 0.192435 0)
(-0.140699 0.178505 0)
(-0.163576 0.15242 0)
(-0.181266 0.117521 0)
(-0.193804 0.0764854 0)
(-0.201316 0.0314686 0)
(-0.203809 -0.0156597 0)
(-0.201055 -0.0630254 0)
(-0.192586 -0.108439 0)
(-0.177785 -0.149092 0)
(-0.156144 -0.181309 0)
(-0.127698 -0.200476 0)
(-0.0935781 -0.201279 0)
(-0.056686 -0.178435 0)
(-0.0233465 -0.128072 0)
(-0.00432351 -0.0500423 0)
(-0.00461998 0.0595129 0)
(-0.023576 0.146522 0)
(-0.0553556 0.19963 0)
(-0.0893396 0.222659 0)
(-0.120079 0.22177 0)
(-0.145639 0.203082 0)
(-0.165603 0.171752 0)
(-0.180351 0.131742 0)
(-0.190566 0.0859215 0)
(-0.196849 0.0363486 0)
(-0.199484 -0.015377 0)
(-0.19831 -0.0677269 0)
(-0.19268 -0.118826 0)
(-0.181521 -0.16601 0)
(-0.163576 -0.205391 0)
(-0.137886 -0.231533 0)
(-0.104524 -0.23747 0)
(-0.0656777 -0.215364 0)
(-0.0282136 -0.158238 0)
(-0.00554447 -0.0634698 0)
(-0.00592907 0.0731581 0)
(-0.0280887 0.175448 0)
(-0.0624788 0.233432 0)
(-0.0962197 0.254615 0)
(-0.123819 0.248618 0)
(-0.144376 0.223932 0)
(-0.158665 0.187031 0)
(-0.168115 0.142402 0)
(-0.174218 0.0929251 0)
(-0.178139 0.0403509 0)
(-0.180503 -0.0142108 0)
(-0.181276 -0.0698163 0)
(-0.179691 -0.125186 0)
(-0.174246 -0.178131 0)
(-0.162847 -0.224894 0)
(-0.143247 -0.259471 0)
(-0.113868 -0.273172 0)
(-0.0753341 -0.254883 0)
(-0.0343655 -0.192924 0)
(-0.00732424 -0.0799997 0)
(-0.00806384 0.0899721 0)
(-0.0343436 0.207878 0)
(-0.0703868 0.26773 0)
(-0.10099 0.283481 0)
(-0.121549 0.269715 0)
(-0.133106 0.237766 0)
(-0.138184 0.195346 0)
(-0.139502 0.147187 0)
(-0.13942 0.0958736 0)
(-0.139654 0.0425932 0)
(-0.141168 -0.0122502 0)
(-0.144106 -0.0685142 0)
(-0.147705 -0.125788 0)
(-0.150185 -0.182744 0)
(-0.148708 -0.236271 0)
(-0.139601 -0.280353 0)
(-0.119043 -0.304878 0)
(-0.0848918 -0.294955 0)
(-0.0422513 -0.232167 0)
(-0.010047 -0.10072 0)
(-0.0116772 0.111591 0)
(-0.0431778 0.243782 0)
(-0.0782981 0.299862 0)
(-0.100609 0.304981 0)
(-0.108348 0.280389 0)
(-0.105759 0.240333 0)
(-0.0975835 0.193244 0)
(-0.0878449 0.143519 0)
(-0.0795894 0.0930106 0)
(-0.0748823 0.0420726 0)
(-0.0749022 -0.00974872 0)
(-0.0799857 -0.0632279 0)
(-0.0895467 -0.119001 0)
(-0.101854 -0.176955 0)
(-0.113727 -0.23526 0)
(-0.120315 -0.288817 0)
(-0.115259 -0.327068 0)
(-0.0922792 -0.331576 0)
(-0.0522153 -0.275148 0)
(-0.014313 -0.127263 0)
(-0.0176169 0.140743 0)
(-0.0548959 0.281874 0)
(-0.082863 0.324505 0)
(-0.0880986 0.312384 0)
(-0.0751484 0.274415 0)
(-0.0526612 0.226748 0)
(-0.0275513 0.177274 0)
(-0.00462474 0.129123 0)
(0.0129753 0.0828991 0)
(0.0233073 0.0379305 0)
(0.0252614 -0.00709302 0)
(0.0183703 -0.053781 0)
(0.00284754 -0.103775 0)
(-0.0201197 -0.158336 0)
(-0.0477954 -0.217499 0)
(-0.0750782 -0.278322 0)
(-0.0936337 -0.331685 0)
(-0.0922114 -0.357426 0)
(-0.0634733 -0.318939 0)
(-0.020715 -0.16205 0)
(-0.0260061 0.182264 0)
(-0.0664835 0.317039 0)
(-0.0735204 0.330964 0)
(-0.0481425 0.295341 0)
(-0.0056838 0.244225 0)
(0.0410947 0.192402 0)
(0.0845196 0.145068 0)
(0.120393 0.102986 0)
(0.146549 0.065142 0)
(0.161887 0.0298853 0)
(0.165776 -0.00468811 0)
(0.157765 -0.0406548 0)
(0.137559 -0.0802806 0)
(0.105266 -0.125953 0)
(0.0620814 -0.179748 0)
(0.0116127 -0.242008 0)
(-0.0380177 -0.307763 0)
(-0.072006 -0.359657 0)
(-0.0709853 -0.35576 0)
(-0.0285834 -0.209054 0)
(-0.031743 0.241377 0)
(-0.0630334 0.333926 0)
(-0.0219682 0.299645 0)
(0.0505731 0.240042 0)
(0.127407 0.182991 0)
(0.196823 0.135429 0)
(0.254161 0.0974312 0)
(0.298075 0.0668737 0)
(0.328647 0.0413667 0)
(0.346287 0.0187789 0)
(0.351191 -0.00280542 0)
(0.34311 -0.0252853 0)
(0.321268 -0.0508152 0)
(0.284431 -0.0820767 0)
(0.231339 -0.122461 0)
(0.161937 -0.175643 0)
(0.0798253 -0.243223 0)
(-0.00334797 -0.318149 0)
(-0.0573615 -0.36674 0)
(-0.0309149 -0.270212 0)
(0.00230813 0.28637 0)
(0.0143151 0.294061 0)
(0.139841 0.210077 0)
(0.264884 0.143063 0)
(0.364203 0.096868 0)
(0.440146 0.0655017 0)
(0.496554 0.0440239 0)
(0.536696 0.0287351 0)
(0.563274 0.0171019 0)
(0.578135 0.00743491 0)
(0.582208 -0.00149892 0)
(0.575516 -0.0108055 0)
(0.557116 -0.0217543 0)
(0.524928 -0.0361743 0)
(0.475544 -0.0570153 0)
(0.404351 -0.0890448 0)
(0.305597 -0.139241 0)
(0.174279 -0.215448 0)
(0.0352043 -0.310937 0)
(0.0120832 -0.304779 0)
(0.293148 0.148893 0)
(0.389649 0.127926 0)
(0.557568 0.075801 0)
(0.674739 0.0433816 0)
(0.743789 0.025238 0)
(0.787082 0.0149509 0)
(0.815457 0.0089863 0)
(0.83393 0.0053494 0)
(0.845356 0.00292495 0)
(0.85134 0.00109782 0)
(0.852632 -0.000501832 0)
(0.849346 -0.00217117 0)
(0.840966 -0.00424077 0)
(0.826108 -0.00726043 0)
(0.802023 -0.0122932 0)
(0.763553 -0.0214604 0)
(0.699428 -0.0389168 0)
(0.584439 -0.0723429 0)
(0.409338 -0.128341 0)
(0.302176 -0.152205 0)
)
;

boundaryField
{
    movingWall
    {
        type            fixedValue;
        value           uniform (1 0 0);
    }
    fixedWalls
    {
        type            noSlip;
    }
    frontAndBack
    {
        type            empty;
    }
}


// ************************************************************************* //
