/*--------------------------------*- C++ -*----------------------------------*\
  =========                 |
  \\      /  F ield         | OpenFOAM: The Open Source CFD Toolbox
   \\    /   O peration     | Website:  https://openfoam.org
    \\  /    A nd           | Version:  7
     \\/     M anipulation  |
\*---------------------------------------------------------------------------*/
FoamFile
{
    version     2.0;
    format      ascii;
    class       volScalarField;
    location    "0.9";
    object      p;
}
// * * * * * * * * * * * * * * * * * * * * * * * * * * * * * * * * * * * * * //

dimensions      [0 2 -2 0 0 0 0];

internalField   nonuniform List<scalar> 
32000
(
2.60139
2.60053
2.60167
2.60386
2.60639
2.60903
2.61213
2.6161
2.6211
2.62707
2.63383
2.64113
2.64873
2.65641
2.664
2.67137
2.67846
2.68524
2.6917
2.69784
2.70368
2.70923
2.71454
2.71965
2.72461
2.72943
2.73416
2.7388
2.74338
2.7479
2.75239
2.75685
2.76131
2.76575
2.7702
2.77464
2.77909
2.78356
2.78803
2.79244
2.59237
2.59171
2.59293
2.59516
2.59766
2.60024
2.60325
2.60711
2.61203
2.61795
2.62468
2.63199
2.63961
2.64732
2.65493
2.66233
2.66944
2.67623
2.6827
2.68883
2.69465
2.70019
2.70548
2.71056
2.71547
2.72025
2.72492
2.72951
2.73403
2.73848
2.7429
2.7473
2.75168
2.75605
2.76042
2.76478
2.76915
2.77353
2.77791
2.78222
2.58315
2.58275
2.58407
2.58636
2.58884
2.59135
2.59428
2.59805
2.60288
2.60874
2.61545
2.62275
2.63038
2.63811
2.64575
2.65317
2.6603
2.6671
2.67356
2.67968
2.68548
2.691
2.69626
2.70131
2.70618
2.71091
2.71553
2.72006
2.72451
2.7289
2.73325
2.73758
2.74188
2.74618
2.75046
2.75474
2.75902
2.76331
2.76759
2.7718
2.57383
2.57371
2.57511
2.57746
2.57992
2.58238
2.58522
2.5889
2.59365
2.59946
2.60613
2.61341
2.62106
2.6288
2.63646
2.6439
2.65104
2.65784
2.66429
2.6704
2.67618
2.68167
2.68691
2.69191
2.69674
2.70142
2.70598
2.71045
2.71483
2.71915
2.72343
2.72768
2.73191
2.73612
2.74032
2.74452
2.74871
2.7529
2.75708
2.76119
2.56444
2.56459
2.56607
2.56846
2.57092
2.57331
2.57608
2.57967
2.58434
2.59009
2.59673
2.60401
2.61165
2.61941
2.62709
2.63454
2.64169
2.64848
2.65492
2.661
2.66676
2.67222
2.67742
2.68238
2.68716
2.69179
2.69629
2.70069
2.705
2.70925
2.71345
2.71763
2.72177
2.7259
2.73002
2.73412
2.73822
2.74231
2.74639
2.7504
2.55498
2.5554
2.55696
2.5594
2.56186
2.56419
2.56687
2.57038
2.57498
2.58068
2.58728
2.59454
2.60218
2.60995
2.61764
2.6251
2.63224
2.63903
2.64544
2.6515
2.65723
2.66265
2.66781
2.67273
2.67746
2.68202
2.68646
2.69079
2.69503
2.6992
2.70333
2.70742
2.71148
2.71552
2.71955
2.72356
2.72756
2.73155
2.73553
2.73943
2.54546
2.54615
2.5478
2.55028
2.55272
2.555
2.5576
2.56104
2.56556
2.57121
2.57778
2.58502
2.59266
2.60043
2.60812
2.61559
2.62272
2.62949
2.63588
2.6419
2.64759
2.65297
2.65809
2.66296
2.66763
2.67214
2.67651
2.68076
2.68492
2.68902
2.69306
2.69706
2.70104
2.70499
2.70892
2.71283
2.71673
2.72063
2.7245
2.7283
2.5359
2.53686
2.53858
2.5411
2.54354
2.54576
2.54828
2.55164
2.5561
2.5617
2.56824
2.57546
2.58309
2.59086
2.59856
2.60601
2.61313
2.61987
2.62623
2.63222
2.63786
2.6432
2.64826
2.65308
2.65769
2.66213
2.66642
2.6706
2.67469
2.6787
2.68265
2.68657
2.69045
2.69431
2.69814
2.70196
2.70576
2.70955
2.71331
2.717
2.52631
2.52752
2.52933
2.53188
2.5343
2.53647
2.53892
2.5422
2.54661
2.55215
2.55866
2.56587
2.57349
2.58126
2.58894
2.59638
2.60348
2.61019
2.61651
2.62245
2.62805
2.63334
2.63834
2.6431
2.64764
2.65201
2.65623
2.66033
2.66433
2.66826
2.67212
2.67595
2.67973
2.68349
2.68723
2.69094
2.69464
2.69832
2.70197
2.70554
2.51669
2.51815
2.52004
2.52262
2.52501
2.52714
2.52952
2.53273
2.53708
2.54258
2.54906
2.55626
2.56387
2.57162
2.57928
2.5867
2.59377
2.60045
2.60672
2.61262
2.61816
2.62339
2.62833
2.63302
2.6375
2.64179
2.64593
2.64995
2.65386
2.6577
2.66147
2.6652
2.66889
2.67255
2.67618
2.67978
2.68337
2.68695
2.69048
2.69393
2.50705
2.50874
2.51072
2.51333
2.5157
2.51777
2.52009
2.52324
2.52753
2.533
2.53945
2.54663
2.55422
2.56196
2.5696
2.57699
2.58402
2.59065
2.59688
2.60272
2.6082
2.61336
2.61824
2.62286
2.62726
2.63147
2.63553
2.63946
2.64329
2.64703
2.65071
2.65434
2.65792
2.66148
2.665
2.6685
2.67198
2.67544
2.67885
2.68218
2.49739
2.49932
2.50137
2.50402
2.50636
2.50838
2.51064
2.51372
2.51797
2.5234
2.52984
2.53699
2.54457
2.55228
2.55989
2.56724
2.57423
2.58081
2.58698
2.59276
2.59817
2.60327
2.60808
2.61262
2.61694
2.62107
2.62504
2.62888
2.63261
2.63626
2.63984
2.64337
2.64685
2.65029
2.65371
2.65709
2.66046
2.6638
2.66709
2.6703
2.48772
2.48988
2.492
2.49468
2.497
2.49896
2.50116
2.50419
2.50839
2.5138
2.52022
2.52735
2.53491
2.54259
2.55017
2.55747
2.56441
2.57093
2.57704
2.58275
2.58809
2.59312
2.59785
2.60231
2.60654
2.61058
2.61447
2.61822
2.62185
2.6254
2.62888
2.6323
2.63567
2.63901
2.64231
2.64558
2.64882
2.65205
2.65521
2.65829
2.47804
2.48043
2.48261
2.48532
2.48761
2.48952
2.49166
2.49465
2.49882
2.5042
2.5106
2.51772
2.52525
2.5329
2.54043
2.54769
2.55456
2.56102
2.56705
2.57269
2.57797
2.58291
2.58756
2.59193
2.59608
2.60003
2.60382
2.60747
2.61101
2.61445
2.61782
2.62114
2.6244
2.62762
2.6308
2.63395
2.63708
2.64018
2.64322
2.64616
2.46834
2.47096
2.4732
2.47593
2.4782
2.48006
2.48215
2.4851
2.48924
2.49461
2.501
2.5081
2.51561
2.52321
2.5307
2.53789
2.54469
2.55108
2.55704
2.5626
2.56779
2.57266
2.57721
2.5815
2.58555
2.58941
2.59311
2.59666
2.6001
2.60343
2.60669
2.60989
2.61304
2.61615
2.61921
2.62224
2.62524
2.62822
2.63112
2.63392
2.45862
2.46148
2.46378
2.46653
2.46876
2.47058
2.47263
2.47555
2.47967
2.48503
2.49141
2.4985
2.50597
2.51354
2.52096
2.52808
2.53481
2.54112
2.547
2.55248
2.55759
2.56236
2.56683
2.57102
2.57498
2.57874
2.58234
2.58579
2.58912
2.59234
2.59549
2.59858
2.60161
2.60459
2.60753
2.61043
2.61331
2.61616
2.61892
2.62158
2.4489
2.45197
2.45434
2.4571
2.45931
2.46108
2.4631
2.46599
2.47011
2.47547
2.48184
2.48892
2.49636
2.50387
2.51123
2.51828
2.52493
2.53114
2.53694
2.54233
2.54735
2.55203
2.55641
2.5605
2.56437
2.56803
2.57152
2.57487
2.57808
2.5812
2.58423
2.5872
2.59011
2.59297
2.59579
2.59856
2.6013
2.60402
2.60664
2.60915
2.43916
2.44245
2.44488
2.44765
2.44983
2.45157
2.45356
2.45645
2.46057
2.46593
2.4723
2.47936
2.48677
2.49423
2.50151
2.50848
2.51504
2.52117
2.52687
2.53217
2.5371
2.54168
2.54596
2.54995
2.55372
2.55728
2.56067
2.5639
2.56701
2.57
2.57292
2.57577
2.57856
2.5813
2.58398
2.58662
2.58923
2.59181
2.59428
2.59664
2.42941
2.43291
2.4354
2.43817
2.44033
2.44204
2.44401
2.4469
2.45104
2.45641
2.46279
2.46983
2.4772
2.4846
2.49181
2.49869
2.50515
2.51119
2.5168
2.52201
2.52683
2.53132
2.53549
2.53938
2.54304
2.5465
2.54978
2.5529
2.55589
2.55877
2.56157
2.5643
2.56696
2.56957
2.57213
2.57463
2.57711
2.57955
2.58187
2.58406
2.41965
2.42335
2.42589
2.42867
2.43081
2.4325
2.43447
2.43737
2.44152
2.44692
2.45331
2.46033
2.46766
2.475
2.48212
2.48891
2.49528
2.50122
2.50673
2.51184
2.51656
2.52094
2.525
2.52879
2.53235
2.5357
2.53886
2.54187
2.54475
2.54751
2.55019
2.5528
2.55533
2.55781
2.56024
2.56261
2.56494
2.56724
2.56941
2.57144
2.40987
2.41377
2.41636
2.41915
2.42127
2.42294
2.42491
2.42784
2.43203
2.43746
2.44386
2.45087
2.45815
2.46542
2.47246
2.47915
2.48542
2.49126
2.49667
2.50167
2.50629
2.51056
2.51451
2.51819
2.52164
2.52488
2.52793
2.53083
2.53359
2.53623
2.53879
2.54127
2.54368
2.54603
2.54832
2.55056
2.55275
2.5549
2.55691
2.55878
2.40007
2.40417
2.4068
2.4096
2.4117
2.41337
2.41536
2.41833
2.42257
2.42803
2.43444
2.44144
2.44867
2.45587
2.46282
2.46941
2.47558
2.48132
2.48662
2.49151
2.49602
2.50017
2.50402
2.50759
2.51092
2.51405
2.51699
2.51977
2.52241
2.52494
2.52738
2.52974
2.53202
2.53424
2.53639
2.53849
2.54055
2.54255
2.5444
2.5461
2.39026
2.39454
2.39722
2.40002
2.4021
2.40378
2.40581
2.40883
2.41313
2.41864
2.42506
2.43204
2.43923
2.44635
2.45321
2.4597
2.46577
2.4714
2.47659
2.48137
2.48576
2.4898
2.49353
2.49699
2.50021
2.50322
2.50604
2.50871
2.51123
2.51365
2.51596
2.5182
2.52035
2.52244
2.52447
2.52643
2.52834
2.5302
2.53189
2.53343
2.38042
2.38489
2.38761
2.39041
2.39249
2.39418
2.39625
2.39934
2.40371
2.40927
2.41572
2.42268
2.42982
2.43686
2.44363
2.45002
2.45598
2.4615
2.46658
2.47124
2.47551
2.47943
2.48305
2.48639
2.4895
2.49239
2.4951
2.49765
2.50006
2.50236
2.50455
2.50666
2.50869
2.51065
2.51255
2.51438
2.51615
2.51787
2.5194
2.52079
2.37056
2.37521
2.37797
2.38078
2.38285
2.38457
2.38671
2.38988
2.39433
2.39995
2.40642
2.41336
2.42045
2.42741
2.43408
2.44037
2.44622
2.45163
2.45659
2.46113
2.46528
2.46908
2.47258
2.47581
2.4788
2.48158
2.48417
2.4866
2.48889
2.49107
2.49315
2.49513
2.49704
2.49888
2.50065
2.50235
2.50399
2.50557
2.50695
2.50818
2.36067
2.36551
2.3683
2.37112
2.37319
2.37495
2.37716
2.38043
2.38497
2.39066
2.39715
2.40408
2.41111
2.418
2.42457
2.43075
2.4365
2.44179
2.44663
2.45105
2.45507
2.45875
2.46213
2.46524
2.46811
2.47077
2.47325
2.47556
2.47774
2.4798
2.48176
2.48362
2.48541
2.48713
2.48877
2.49035
2.49186
2.49331
2.49455
2.49564
2.35077
2.35578
2.35861
2.36143
2.36352
2.36533
2.36763
2.37101
2.37565
2.38141
2.38793
2.39484
2.40182
2.40862
2.4151
2.42118
2.42681
2.43198
2.4367
2.44099
2.44489
2.44845
2.45171
2.4547
2.45745
2.45999
2.46234
2.46454
2.4666
2.46855
2.47039
2.47214
2.47381
2.47541
2.47694
2.47839
2.47978
2.48111
2.48222
2.48318
2.34084
2.34603
2.34889
2.35172
2.35383
2.3557
2.35811
2.36161
2.36637
2.3722
2.37875
2.38565
2.39257
2.39929
2.40568
2.41164
2.41716
2.42221
2.4268
2.43096
2.43474
2.43817
2.44131
2.44418
2.44681
2.44922
2.45146
2.45354
2.45548
2.45731
2.45904
2.46067
2.46223
2.46372
2.46513
2.46648
2.46776
2.46898
2.46997
2.47081
2.3309
2.33626
2.33915
2.34199
2.34412
2.34607
2.34861
2.35225
2.35712
2.36304
2.36962
2.3765
2.38337
2.39001
2.3963
2.40215
2.40755
2.41247
2.41694
2.42097
2.42462
2.42793
2.43094
2.43369
2.43619
2.43848
2.44059
2.44256
2.44439
2.4461
2.44771
2.44923
2.45068
2.45206
2.45337
2.45461
2.45579
2.45691
2.4578
2.45854
2.32094
2.32647
2.32939
2.33224
2.33441
2.33646
2.33913
2.34292
2.34792
2.35392
2.36054
2.36741
2.37422
2.38078
2.38697
2.39271
2.39799
2.40278
2.40712
2.41102
2.41454
2.41773
2.42061
2.42323
2.4256
2.42777
2.42976
2.4316
2.43331
2.43491
2.4364
2.43781
2.43915
2.44043
2.44164
2.44279
2.44388
2.44491
2.44572
2.44639
2.31097
2.31667
2.31962
2.32248
2.3247
2.32685
2.32967
2.33363
2.33877
2.34486
2.35152
2.35837
2.36513
2.37161
2.37769
2.38332
2.38847
2.39314
2.39734
2.40111
2.40451
2.40756
2.41032
2.4128
2.41504
2.41708
2.41895
2.42067
2.42226
2.42374
2.42511
2.42641
2.42765
2.42882
2.42993
2.431
2.43202
2.43298
2.43373
2.43435
2.30099
2.30686
2.30983
2.31272
2.31499
2.31727
2.32026
2.32439
2.32968
2.33586
2.34255
2.34939
2.3561
2.36249
2.36848
2.37399
2.37901
2.38355
2.38761
2.39125
2.39452
2.39744
2.40006
2.40241
2.40452
2.40643
2.40817
2.40977
2.41123
2.41258
2.41384
2.41503
2.41615
2.41723
2.41825
2.41924
2.42019
2.4211
2.42181
2.42241
2.29101
2.29704
2.30004
2.30296
2.3053
2.30771
2.31088
2.3152
2.32064
2.32692
2.33365
2.34047
2.34713
2.35344
2.35932
2.36472
2.36961
2.37401
2.37794
2.38145
2.38458
2.38737
2.38986
2.39207
2.39404
2.39582
2.39743
2.39889
2.40022
2.40144
2.40258
2.40365
2.40467
2.40564
2.40657
2.40749
2.40839
2.40925
2.40995
2.41055
2.28103
2.28722
2.29025
2.2932
2.29562
2.29819
2.30155
2.30606
2.31166
2.31804
2.32482
2.33163
2.33823
2.34446
2.35024
2.35551
2.36028
2.36454
2.36833
2.37171
2.3747
2.37736
2.3797
2.38177
2.3836
2.38524
2.38671
2.38804
2.38923
2.39032
2.39133
2.39228
2.39317
2.39404
2.39488
2.39573
2.39657
2.39741
2.39813
2.39876
2.27107
2.27741
2.28047
2.28346
2.28598
2.2887
2.29228
2.297
2.30276
2.30924
2.31605
2.32285
2.3294
2.33555
2.34122
2.34638
2.35101
2.35513
2.35879
2.36203
2.36489
2.3674
2.3696
2.37152
2.37321
2.37471
2.37604
2.37721
2.37826
2.37921
2.38008
2.38089
2.38166
2.38241
2.38316
2.38392
2.38472
2.38554
2.38629
2.38699
2.26112
2.26762
2.27071
2.27374
2.27637
2.27928
2.28307
2.288
2.29393
2.30052
2.30737
2.31416
2.32066
2.32672
2.33229
2.33732
2.34182
2.34581
2.34933
2.35242
2.35514
2.35751
2.35955
2.36133
2.36288
2.36422
2.3654
2.36642
2.36731
2.36811
2.36883
2.3695
2.37012
2.37074
2.37137
2.37204
2.37278
2.37357
2.37436
2.37518
2.2512
2.25786
2.26098
2.26406
2.26681
2.26991
2.27394
2.27909
2.28519
2.29189
2.29878
2.30555
2.312
2.31798
2.32344
2.32835
2.33271
2.33656
2.33994
2.3429
2.34547
2.34768
2.34958
2.3512
2.3526
2.35379
2.3548
2.35566
2.35639
2.35702
2.35758
2.35807
2.35854
2.359
2.3595
2.36005
2.3607
2.36146
2.36229
2.36327
2.24132
2.24812
2.25128
2.25443
2.25731
2.26062
2.26489
2.27027
2.27654
2.28334
2.29028
2.29704
2.30343
2.30933
2.31468
2.31946
2.32369
2.3274
2.33064
2.33345
2.33588
2.33794
2.33968
2.34115
2.34239
2.34341
2.34426
2.34494
2.3455
2.34595
2.34632
2.34663
2.34691
2.34718
2.3475
2.34789
2.34842
2.34912
2.35004
2.35136
2.23149
2.23844
2.24164
2.24486
2.24788
2.25141
2.25593
2.26154
2.268
2.27491
2.28188
2.28863
2.29496
2.30077
2.30601
2.31067
2.31477
2.31834
2.32143
2.3241
2.32637
2.32828
2.32986
2.33117
2.33225
2.33311
2.33377
2.33427
2.33464
2.3349
2.33507
2.33516
2.33522
2.33526
2.33533
2.33548
2.33579
2.33634
2.3374
2.33944
2.22171
2.2288
2.23204
2.23535
2.23853
2.24229
2.24708
2.25293
2.25956
2.26657
2.27359
2.28033
2.2866
2.29233
2.29745
2.30199
2.30595
2.30938
2.31233
2.31485
2.31697
2.31871
2.32014
2.32129
2.32219
2.32287
2.32335
2.32367
2.32384
2.32389
2.32384
2.32369
2.32349
2.32324
2.32298
2.32275
2.32259
2.32258
2.32323
2.32565
2.80766
2.83565
2.86215
2.88995
2.91816
2.94697
2.97647
3.00652
3.03723
3.06855
3.10047
3.13301
3.16613
3.19961
3.23342
3.26792
3.30343
3.3399
3.37738
3.4159
3.45539
3.49587
3.53741
3.57998
3.62353
3.66815
3.71375
3.76045
3.80807
3.85698
3.90639
3.95782
4.00856
4.06315
4.11428
4.17309
4.22309
4.28822
4.33287
4.41266
2.7973
2.82595
2.85253
2.88053
2.9089
2.93771
2.96732
2.99738
3.0281
3.05946
3.09132
3.12394
3.15702
3.19042
3.22419
3.25874
3.29429
3.33077
3.36827
3.40679
3.44628
3.48675
3.52829
3.57084
3.61439
3.65899
3.70458
3.75128
3.79888
3.84778
3.89719
3.94859
3.99934
4.05389
4.10503
4.16384
4.21382
4.27897
4.32363
4.40332
2.78675
2.81607
2.84276
2.87097
2.89948
2.92832
2.95801
2.98808
3.01883
3.05022
3.08204
3.11472
3.14778
3.18108
3.21481
3.24942
3.285
3.32149
3.35902
3.39755
3.43703
3.47751
3.51904
3.56157
3.60513
3.64971
3.69529
3.742
3.78959
3.83848
3.88788
3.93927
3.99003
4.04455
4.0957
4.15453
4.20449
4.26967
4.31436
4.39397
2.77602
2.80602
2.83282
2.86128
2.88988
2.91882
2.94854
2.97865
3.00941
3.04082
3.07265
3.10532
3.13843
3.17159
3.20529
3.23998
3.27559
3.31209
3.34965
3.38817
3.42764
3.46814
3.50967
3.55219
3.59575
3.64032
3.68589
3.7326
3.78018
3.82907
3.87847
3.92986
3.98062
4.03515
4.0863
4.14513
4.19512
4.26031
4.30503
4.38468
2.76511
2.79581
2.82274
2.85143
2.88012
2.90918
2.93892
2.96909
2.99986
3.03126
3.06313
3.09576
3.12896
3.16196
3.19565
3.2304
3.26604
3.30255
3.34015
3.37867
3.41813
3.45866
3.50018
3.5427
3.58624
3.63081
3.67639
3.72309
3.77067
3.81956
3.86896
3.92037
3.97112
4.02568
4.07683
4.13567
4.18569
4.2509
4.29567
4.37539
2.75401
2.78543
2.8125
2.84144
2.87023
2.89939
2.92916
2.95938
2.99016
3.02157
3.05347
3.08608
3.11935
3.15221
3.18588
3.22069
3.25637
3.2929
3.33052
3.36905
3.4085
3.44906
3.49057
3.53308
3.57662
3.62118
3.66677
3.71348
3.76106
3.80996
3.85935
3.91078
3.96154
4.01612
4.06729
4.12614
4.1762
4.24144
4.28626
4.36605
2.74275
2.7749
2.80211
2.83131
2.8602
2.88946
2.91927
2.94953
2.98033
3.01175
3.04367
3.07626
3.1096
3.14233
3.17599
3.21087
3.24658
3.28313
3.32077
3.3593
3.39875
3.43933
3.48084
3.52334
3.56688
3.61145
3.65705
3.70376
3.75134
3.80025
3.84965
3.9011
3.95187
4.00649
4.05767
4.11656
4.16665
4.23194
4.2768
4.35666
2.73133
2.76422
2.79157
2.82103
2.85003
2.87939
2.90924
2.93954
2.97037
3.00179
3.03373
3.06631
3.0997
3.13234
3.16601
3.20093
3.23667
3.27324
3.3109
3.34943
3.38888
3.42948
3.47099
3.51349
3.55704
3.6016
3.64722
3.69393
3.74152
3.79044
3.83986
3.89133
3.94213
3.99677
4.04798
4.10691
4.15704
4.22239
4.2673
4.34723
2.71976
2.7534
2.7809
2.81062
2.83974
2.86919
2.89909
2.92942
2.96027
2.9917
3.02366
3.05623
3.08957
3.12224
3.15594
3.19089
3.22664
3.26325
3.30092
3.33945
3.37891
3.41951
3.46103
3.50353
3.54708
3.59165
3.63729
3.684
3.7316
3.78054
3.82998
3.88147
3.9323
3.98698
4.03822
4.09721
4.14738
4.21279
4.25776
4.33776
2.70804
2.74244
2.77009
2.80008
2.82932
2.85885
2.88881
2.91917
2.95005
2.98149
3.01345
3.04603
3.07925
3.11202
3.14578
3.18074
3.2165
3.25315
3.29082
3.32935
3.36883
3.40943
3.45095
3.49345
3.53701
3.5816
3.62725
3.67397
3.72158
3.77054
3.82002
3.87153
3.92239
3.97712
4.0284
4.08744
4.13766
4.20314
4.24817
4.32825
2.69618
2.73135
2.75916
2.78942
2.81878
2.84839
2.8784
2.9088
2.93969
2.97115
3.00312
3.0357
3.06886
3.10169
3.13552
3.17048
3.20625
3.24293
3.28061
3.31914
3.35864
3.39924
3.44077
3.48327
3.52684
3.57145
3.6171
3.66384
3.71147
3.76046
3.80996
3.8615
3.9124
3.96718
4.0185
4.07762
4.12788
4.19344
4.23854
4.3187
2.68419
2.72014
2.74811
2.77864
2.80812
2.83781
2.86787
2.89829
2.92922
2.96068
2.99267
3.02526
3.05837
3.09125
3.12514
3.16011
3.19589
3.23261
3.27029
3.30882
3.34834
3.38895
3.43047
3.47298
3.51656
3.56119
3.60686
3.65361
3.70126
3.75027
3.79981
3.85139
3.90234
3.95717
4.00854
4.06774
4.11805
4.1837
4.22887
4.30912
2.67208
2.7088
2.73694
2.76774
2.79734
2.82711
2.85722
2.88767
2.91863
2.9501
2.98211
3.01471
3.04777
3.08072
3.11467
3.14965
3.18543
3.22219
3.25987
3.2984
3.33794
3.37854
3.42008
3.46259
3.50619
3.55083
3.59651
3.64329
3.69096
3.74
3.78959
3.8412
3.8922
3.94709
3.99851
4.05779
4.10817
4.17391
4.21916
4.2995
2.65985
2.69735
2.72566
2.75673
2.78645
2.81629
2.84645
2.87694
2.90792
2.93941
2.97143
3.00405
3.03709
3.07009
3.10409
3.13908
3.17488
3.21167
3.24935
3.28788
3.32744
3.36804
3.40958
3.4521
3.49572
3.54038
3.58607
3.63287
3.68057
3.72964
3.77927
3.83093
3.88198
3.93695
3.98842
4.04779
4.09823
4.16408
4.2094
4.28985
2.64751
2.6858
2.71429
2.74562
2.77545
2.80537
2.83557
2.86609
2.8971
2.92861
2.96064
2.99328
3.02631
3.05936
3.09342
3.12842
3.16423
3.20105
3.23873
3.27726
3.31684
3.35744
3.39898
3.44151
3.48515
3.52983
3.57553
3.62236
3.67009
3.71919
3.76887
3.82058
3.87168
3.92673
3.97826
4.03773
4.08823
4.1542
4.19959
4.28016
2.63508
2.67415
2.70282
2.7344
2.76435
2.79433
2.82458
2.85513
2.88617
2.91771
2.94976
2.98242
3.01544
3.04855
3.08265
3.11768
3.15349
3.19034
3.22801
3.26655
3.30614
3.34674
3.38829
3.43083
3.47448
3.51918
3.5649
3.61176
3.65953
3.70866
3.75839
3.81015
3.86131
3.91644
3.96803
4.0276
4.07818
4.14427
4.18975
4.27043
2.62255
2.66241
2.69127
2.7231
2.75314
2.7832
2.81349
2.84408
2.87515
2.90671
2.93878
2.97146
3.00449
3.03766
3.0718
3.10684
3.14267
3.17952
3.2172
3.25575
3.29535
3.33594
3.3775
3.42005
3.46372
3.50845
3.55417
3.60107
3.64887
3.69804
3.74783
3.79965
3.85085
3.90608
3.95774
4.01741
4.06807
4.13429
4.17985
4.26066
2.60994
2.65059
2.67963
2.7117
2.74184
2.77196
2.8023
2.83293
2.86403
2.89563
2.92771
2.9604
2.99346
3.02669
3.06087
3.09592
3.13178
3.16862
3.2063
3.24487
3.28447
3.32505
3.36663
3.40919
3.45286
3.49762
3.54336
3.59028
3.63813
3.68733
3.73718
3.78907
3.84033
3.89564
3.94738
4.00717
4.05791
4.12427
4.16992
4.25085
2.59726
2.6387
2.66792
2.70021
2.73044
2.76063
2.79101
2.82169
2.85283
2.88446
2.91656
2.94927
2.98236
3.01566
3.04987
3.08492
3.1208
3.15764
3.19531
3.23389
3.2735
3.31408
3.35566
3.39824
3.44192
3.4867
3.53246
3.57941
3.62731
3.67655
3.72645
3.77841
3.82973
3.88514
3.93695
3.99686
4.04769
4.1142
4.15993
4.24101
2.5845
2.62674
2.65615
2.68864
2.71895
2.7492
2.77963
2.81037
2.84155
2.87321
2.90534
2.93806
2.97119
3.00455
3.03879
3.07385
3.10973
3.14657
3.18425
3.22284
3.26244
3.30302
3.34461
3.3872
3.43089
3.4757
3.52148
3.56846
3.61641
3.66568
3.71564
3.76768
3.81905
3.87457
3.92646
3.98649
4.03741
4.10407
4.14991
4.23112
2.5717
2.61472
2.64431
2.67698
2.70736
2.73767
2.76816
2.79897
2.8302
2.8619
2.89404
2.92677
2.95995
2.99338
3.02764
3.06271
3.0986
3.13542
3.1731
3.2117
3.25131
3.29188
3.33348
3.37609
3.41978
3.46461
3.51041
3.55742
3.60542
3.65474
3.70476
3.75687
3.80831
3.86392
3.91591
3.97607
4.02708
4.0939
4.13984
4.2212
2.55884
2.60266
2.63241
2.66523
2.69567
2.72605
2.75661
2.78749
2.81878
2.85052
2.88269
2.91542
2.94864
2.98214
3.01642
3.0515
3.08739
3.12421
3.16188
3.20048
3.24009
3.28066
3.32226
3.36489
3.40859
3.45344
3.49927
3.54631
3.59436
3.64372
3.69379
3.74598
3.79749
3.85321
3.90529
3.96559
4.01669
4.08369
4.12974
4.21123
2.54595
2.59054
2.62045
2.6534
2.68388
2.71434
2.74498
2.77595
2.80731
2.83909
2.87127
2.90401
2.93728
2.97085
3.00514
3.04022
3.07611
3.11292
3.15059
3.18919
3.2288
3.26936
3.31097
3.35362
3.39732
3.44219
3.48805
3.53511
3.58322
3.63263
3.68275
3.73503
3.78661
3.84242
3.8946
3.95505
4.00624
4.07342
4.11959
4.20123
2.53303
2.57839
2.60843
2.64147
2.672
2.70254
2.73328
2.76435
2.79578
2.8276
2.85981
2.89255
2.92586
2.95951
2.99381
3.02889
3.06477
3.10157
3.13923
3.17783
3.21743
3.25799
3.2996
3.34227
3.38597
3.43087
3.47676
3.52384
3.572
3.62147
3.67164
3.72399
3.77566
3.83157
3.88385
3.94445
3.99574
4.0631
4.1094
4.19119
2.52011
2.5662
2.59635
2.62944
2.66001
2.69066
2.72151
2.7527
2.78421
2.81607
2.8483
2.88104
2.91439
2.94811
2.98241
3.01749
3.05337
3.09016
3.12781
3.1664
3.206
3.24655
3.28817
3.33085
3.37456
3.41946
3.46539
3.5125
3.56071
3.61024
3.66046
3.71289
3.76464
3.82066
3.87303
3.93379
3.98519
4.05273
4.09918
4.18112
2.5072
2.55396
2.5842
2.6173
2.64793
2.6787
2.70969
2.74101
2.77261
2.80451
2.83676
2.86949
2.90287
2.93666
2.97097
3.00605
3.04192
3.07869
3.11633
3.15491
3.1945
3.23505
3.27666
3.31936
3.36307
3.40799
3.45396
3.50109
3.54934
3.59893
3.6492
3.70171
3.75355
3.80967
3.86215
3.92308
3.97459
4.04231
4.08891
4.17101
2.49433
2.54167
2.57197
2.60505
2.63575
2.66667
2.69782
2.72928
2.76098
2.79292
2.82518
2.8579
2.89131
2.92517
2.95948
2.99456
3.03041
3.06717
3.10479
3.14336
3.18293
3.22348
3.26509
3.3078
3.35152
3.39644
3.44245
3.48961
3.5379
3.58756
3.63788
3.69046
3.7424
3.79863
3.8512
3.9123
3.96393
4.03184
4.0786
4.16088
2.4815
2.52931
2.55963
2.59267
2.62348
2.65459
2.68593
2.71755
2.74933
2.7813
2.81358
2.84628
2.8797
2.91363
2.94794
2.98302
3.01886
3.0556
3.09321
3.13175
3.17131
3.21185
3.25345
3.29618
3.3399
3.38483
3.43088
3.47807
3.5264
3.57612
3.6265
3.67914
3.73118
3.78752
3.84019
3.90146
3.95323
4.02133
4.06825
4.15071
2.46874
2.51686
2.54716
2.58017
2.61114
2.64247
2.67403
2.7058
2.73767
2.76968
2.80196
2.83464
2.86807
2.90206
2.93637
2.97145
3.00727
3.04399
3.08157
3.12009
3.15964
3.20018
3.24176
3.28449
3.32823
3.37315
3.41925
3.46647
3.51482
3.56461
3.61505
3.66776
3.7199
3.77635
3.82912
3.89057
3.94248
4.01077
4.05786
4.14051
2.45607
2.50428
2.53454
2.56754
2.59873
2.63033
2.66213
2.69406
2.726
2.75804
2.79033
2.82299
2.8564
2.89045
2.92476
2.95984
2.99565
3.03233
3.0699
3.10839
3.14792
3.18845
3.23002
3.27275
3.3165
3.36142
3.40755
3.45481
3.50319
3.55303
3.60354
3.65632
3.70855
3.76512
3.81799
3.87961
3.93167
4.00017
4.04744
4.13029
2.44348
2.49152
2.52175
2.55478
2.58627
2.61819
2.65025
2.68233
2.71435
2.74641
2.77869
2.81132
2.84471
2.87882
2.91312
2.9482
2.98399
3.02065
3.05819
3.09665
3.13615
3.17667
3.21822
3.26095
3.30472
3.34963
3.39579
3.44309
3.49149
3.54139
3.59197
3.64481
3.69713
3.75382
3.8068
3.86859
3.92082
3.98952
4.03697
4.12004
2.43098
2.47854
2.50876
2.54193
2.57381
2.60607
2.63839
2.67062
2.7027
2.73477
2.76705
2.79964
2.833
2.86716
2.90146
2.93654
2.97231
3.00893
3.04644
3.08487
3.12434
3.16486
3.20639
3.2491
3.29289
3.33779
3.38397
3.43132
3.47974
3.52969
3.58033
3.63325
3.68565
3.74246
3.79556
3.85751
3.9099
3.97883
4.02648
4.10977
2.41855
2.46529
2.49561
2.52902
2.56136
2.594
2.62658
2.65894
2.69107
2.72315
2.75541
2.78797
2.82128
2.85549
2.88978
2.92486
2.96061
2.99718
3.03466
3.07306
3.1125
3.153
3.19451
3.23721
3.28101
3.3259
3.37209
3.41948
3.46793
3.51793
3.56864
3.62163
3.6741
3.73104
3.78426
3.84637
3.89894
3.96809
4.01596
4.09947
2.40616
2.45176
2.4823
2.51609
2.54897
2.58199
2.6148
2.64727
2.67945
2.71154
2.74378
2.7763
2.80955
2.84381
2.87809
2.91316
2.94889
2.98541
3.02286
3.06122
3.10062
3.14111
3.18259
3.22527
3.26908
3.31397
3.36017
3.4076
3.45607
3.50611
3.55689
3.60995
3.6625
3.71956
3.77291
3.83518
3.88792
3.95731
4.00542
4.08916
2.39377
2.43796
2.46892
2.50321
2.53667
2.57005
2.60307
2.63564
2.66786
2.69994
2.73216
2.76463
2.7978
2.83211
2.86638
2.90145
2.93715
2.97362
3.01103
3.04936
3.08871
3.12918
3.17064
3.21329
3.25711
3.302
3.34819
3.39566
3.44416
3.49424
3.54507
3.59821
3.65084
3.70801
3.76149
3.82392
3.87685
3.94647
3.99486
4.07884
2.38135
2.42401
2.45562
2.4905
2.52455
2.55826
2.59145
2.62408
2.65633
2.6884
2.72058
2.75301
2.78606
2.82043
2.85469
2.88974
2.92542
2.96182
2.9992
3.03749
3.07679
3.11723
3.15867
3.20129
3.24511
3.29
3.33618
3.38367
3.43221
3.48233
3.53321
3.58642
3.63914
3.69641
3.75002
3.81262
3.86572
3.93558
3.98428
4.06851
2.36895
2.41015
2.4426
2.47812
2.51271
2.54668
2.57999
2.61266
2.64491
2.67698
2.70911
2.74148
2.77439
2.80881
2.84304
2.87807
2.91372
2.95005
2.98738
3.02564
3.06488
3.10527
3.1467
3.18928
3.23308
3.27798
3.32415
3.37166
3.42023
3.47038
3.52131
3.57458
3.62739
3.68476
3.7385
3.80125
3.85456
3.92464
3.97368
4.05819
2.35666
2.39619
2.42953
2.46568
2.50078
2.53496
2.56837
2.60109
2.63337
2.66543
2.69755
2.72991
2.76284
2.7972
2.83133
2.86631
2.90192
2.93817
2.97545
3.01366
3.05285
3.09319
3.1346
3.17715
3.22093
3.26583
3.312
3.35951
3.40813
3.4583
3.50929
3.56263
3.61554
3.673
3.72688
3.7898
3.84331
3.91362
3.96306
4.04788
2.3442
2.38142
2.41558
2.45234
2.48796
2.52239
2.55595
2.58878
2.62114
2.65326
2.6854
2.71777
2.75077
2.78513
2.81925
2.85417
2.88974
2.92594
2.96314
3.00133
3.04048
3.08076
3.12216
3.16471
3.20847
3.25339
3.29956
3.3471
3.39577
3.44599
3.49705
3.55046
3.60349
3.66106
3.71509
3.77818
3.83194
3.90248
3.95241
4.03758
2.33277
2.36832
2.40293
2.43999
2.47599
2.51061
2.54429
2.5772
2.6096
2.64173
2.67382
2.70603
2.7384
2.77311
2.80775
2.84267
2.87822
2.91441
2.95152
2.98967
3.0288
3.069
3.11037
3.15291
3.19663
3.24155
3.28771
3.33524
3.38395
3.43419
3.4853
3.53875
3.59187
3.64948
3.70366
3.76682
3.82085
3.89147
3.94195
4.02742
2.30479
2.3422
2.37766
2.41476
2.45103
2.48562
2.5192
2.55199
2.5842
2.61606
2.64778
2.67952
2.71133
2.74547
2.78039
2.81524
2.8505
2.88655
2.92333
2.96115
3.00009
3.03997
3.08108
3.12342
3.16697
3.21168
3.25765
3.30499
3.35359
3.40374
3.45484
3.50815
3.56136
3.6188
3.67322
3.73627
3.79084
3.86139
3.91303
3.999
2.25971
2.29717
2.33201
2.36958
2.4064
2.44109
2.47455
2.50715
2.53912
2.57077
2.60235
2.63417
2.66662
2.69957
2.73329
2.76752
2.80253
2.83827
2.87493
2.91259
2.95123
2.991
3.03193
3.07406
3.1174
3.162
3.20785
3.25504
3.30352
3.35351
3.40457
3.45777
3.51099
3.56834
3.62287
3.68592
3.74085
3.81165
3.86438
3.95101
2.21456
2.25137
2.28621
2.32373
2.3606
2.39535
2.42881
2.46132
2.49313
2.52456
2.55591
2.58742
2.6193
2.65191
2.68511
2.71896
2.75364
2.78912
2.82557
2.86303
2.90147
2.94108
2.98184
3.02379
3.06697
3.11143
3.15716
3.20423
3.2526
3.30249
3.3535
3.40662
3.45988
3.5172
3.57188
3.63497
3.69029
3.76129
3.81477
3.90169
2.16876
2.20484
2.23932
2.2767
2.31361
2.34845
2.38193
2.41436
2.44602
2.47725
2.50836
2.5396
2.57127
2.60325
2.63597
2.66944
2.70375
2.73895
2.77514
2.81232
2.85061
2.89002
2.93059
2.97238
3.01541
3.05972
3.10533
3.1523
3.20059
3.25041
3.30139
3.35448
3.40781
3.46514
3.52003
3.58318
3.63891
3.70996
3.764
3.85089
2.12257
2.15783
2.19182
2.22889
2.26564
2.30042
2.33386
2.36623
2.39775
2.42878
2.45964
2.49056
2.52179
2.55346
2.5858
2.6189
2.65286
2.68775
2.72365
2.76059
2.79866
2.83787
2.87826
2.91988
2.96275
3.00693
3.05242
3.09929
3.14751
3.19728
3.24825
3.30133
3.35473
3.4121
3.46719
3.53042
3.58648
3.65756
3.71199
3.79881
2.07567
2.11006
2.14337
2.18002
2.21659
2.25128
2.28467
2.31697
2.34837
2.37922
2.40982
2.44044
2.47131
2.50263
2.53459
2.56732
2.60092
2.63549
2.67108
2.70777
2.7456
2.78459
2.82479
2.86624
2.90897
2.95301
2.99839
3.04518
3.09334
3.14307
3.19403
3.24712
3.3006
3.35805
3.41331
3.47666
3.53299
3.60415
3.65889
3.74574
2.02797
2.06149
2.09405
2.13021
2.16653
2.20107
2.23436
2.26658
2.29786
2.32853
2.3589
2.38923
2.41977
2.45074
2.48232
2.51467
2.54792
2.58215
2.61743
2.65384
2.69141
2.73018
2.77018
2.81146
2.85403
2.89794
2.94322
2.98993
3.03804
3.08774
3.1387
3.19183
3.2454
3.30295
3.35838
3.42188
3.47846
3.54975
3.60476
3.69174
1.97935
2.01204
2.0438
2.07938
2.1154
2.14975
2.18292
2.21505
2.24621
2.27671
2.30686
2.33691
2.36713
2.39775
2.42896
2.46093
2.49381
2.52768
2.56265
2.59876
2.63606
2.67459
2.71438
2.75547
2.79789
2.84168
2.88685
2.93348
2.98154
3.03122
3.08221
3.13538
3.18904
3.2467
3.30231
3.36599
3.42281
3.4943
3.54959
3.63682
1.92978
1.96164
1.99258
2.02754
2.0632
2.09733
2.13034
2.16236
2.1934
2.22374
2.25368
2.28347
2.31338
2.34364
2.37448
2.40607
2.43856
2.47207
2.50669
2.54248
2.5795
2.61777
2.65734
2.69824
2.7405
2.78415
2.82922
2.87577
2.92379
2.97346
3.02447
3.0777
3.13147
3.18926
3.24505
3.30895
3.366
3.43778
3.49336
3.58097
1.8792
1.91025
1.94036
1.97465
2.00992
2.04379
2.07661
2.1085
2.13942
2.1696
2.19933
2.22887
2.25847
2.28839
2.31885
2.35005
2.38214
2.41527
2.44952
2.48498
2.52168
2.55969
2.59902
2.63972
2.6818
2.72531
2.77027
2.81675
2.86472
2.91438
2.96542
3.01871
3.0726
3.13054
3.18652
3.25067
3.30797
3.38012
3.43602
3.52417
1.82759
1.85786
1.88712
1.92072
1.95554
1.98911
2.02172
2.05345
2.08424
2.11427
2.1438
2.17309
2.20239
2.23196
2.26204
2.29284
2.32453
2.35725
2.39111
2.4262
2.46258
2.50029
2.53937
2.57985
2.62175
2.66511
2.70995
2.75634
2.80427
2.85392
2.905
2.95835
3.01236
3.07046
3.12665
3.19109
3.24864
3.32125
3.37748
3.46631
1.77493
1.80443
1.83286
1.86572
1.90006
1.93329
1.96564
1.99721
2.02785
2.05772
2.08706
2.1161
2.1451
2.17433
2.20402
2.23441
2.26567
2.29797
2.33142
2.36613
2.40215
2.43954
2.47834
2.51858
2.56027
2.60347
2.64819
2.69449
2.74237
2.792
2.84312
2.89655
2.95069
3.00895
3.06537
3.13011
3.18793
3.26107
3.31765
3.40728
1.72124
1.74996
1.77755
1.80966
1.84347
1.87631
1.90838
1.93974
1.97023
1.99993
2.02907
2.05787
2.08657
2.11546
2.14477
2.17473
2.20555
2.2374
2.27041
2.3047
2.34034
2.37739
2.41588
2.45585
2.49733
2.54034
2.58492
2.63112
2.67894
2.72856
2.77971
2.83321
2.88748
2.94591
3.00257
3.06763
3.12575
3.19946
3.25642