/*--------------------------------*- C++ -*----------------------------------*\
  =========                 |
  \\      /  F ield         | OpenFOAM: The Open Source CFD Toolbox
   \\    /   O peration     | Website:  https://openfoam.org
    \\  /    A nd           | Version:  7
     \\/     M anipulation  |
\*---------------------------------------------------------------------------*/
FoamFile
{
    version     2.0;
    format      ascii;
    class       volScalarField;
    location    "8.4";
    object      p;
}
// * * * * * * * * * * * * * * * * * * * * * * * * * * * * * * * * * * * * * //

dimensions      [0 2 -2 0 0 0 0];

internalField   nonuniform List<scalar> 
18000
(
0.406668
0.407694
0.408347
0.408984
0.409508
0.40993
0.410286
0.41062
0.410972
0.411384
0.411898
0.412558
0.41341
0.414495
0.41584
0.417465
0.419385
0.421609
0.424142
0.426982
0.430115
0.43352
0.43717
0.441036
0.445087
0.449291
0.453616
0.458031
0.462491
0.46693
0.406247
0.407222
0.407829
0.408413
0.408883
0.40925
0.409551
0.409827
0.410117
0.410464
0.410908
0.411491
0.412255
0.41324
0.414474
0.415977
0.417767
0.419852
0.422236
0.424918
0.427887
0.431124
0.434605
0.438301
0.442186
0.446227
0.450397
0.454663
0.458973
0.463281
0.40584
0.406755
0.407309
0.407837
0.408254
0.408569
0.408819
0.409043
0.409278
0.409566
0.409948
0.410463
0.41115
0.412047
0.413181
0.414575
0.416246
0.418203
0.42045
0.422985
0.425798
0.428874
0.43219
0.435721
0.439441
0.443321
0.447334
0.451447
0.455602
0.459772
0.405433
0.406278
0.406782
0.407254
0.407622
0.407891
0.408096
0.408274
0.408461
0.408698
0.409027
0.409483
0.410104
0.410923
0.411969
0.413265
0.414829
0.416669
0.418788
0.421185
0.423851
0.426773
0.42993
0.433301
0.436859
0.44058
0.444434
0.448391
0.452385
0.456411
0.405042
0.40581
0.406262
0.406679
0.406998
0.407224
0.407388
0.407525
0.40767
0.407865
0.408148
0.408554
0.409117
0.409869
0.410839
0.41205
0.413519
0.415252
0.417253
0.419521
0.422049
0.424825
0.427831
0.431046
0.434447
0.438008
0.441703
0.445502
0.449331
0.453207
0.404662
0.405346
0.405745
0.40611
0.406382
0.406568
0.406695
0.406797
0.406908
0.407068
0.407314
0.407678
0.408192
0.408888
0.409795
0.410933
0.412317
0.413954
0.415847
0.417997
0.420396
0.423035
0.425896
0.428961
0.432208
0.435612
0.439148
0.442786
0.446446
0.450167
0.404299
0.404892
0.405238
0.40555
0.405777
0.405927
0.406022
0.406095
0.40618
0.406312
0.406528
0.406858
0.407334
0.407986
0.408841
0.409917
0.411227
0.412778
0.414573
0.416615
0.418895
0.421405
0.424129
0.427051
0.430148
0.433396
0.436773
0.440249
0.443738
0.447299
0.403952
0.404448
0.40474
0.405
0.405185
0.405301
0.40537
0.405421
0.405486
0.405599
0.405792
0.406098
0.406546
0.407165
0.407979
0.409004
0.41025
0.411725
0.413434
0.415377
0.417548
0.419938
0.422534
0.425318
0.428269
0.431365
0.434583
0.437897
0.441213
0.44461
0.403621
0.404015
0.404253
0.404461
0.404605
0.404691
0.404739
0.404775
0.404828
0.404928
0.405108
0.405398
0.405829
0.406426
0.407209
0.408193
0.409386
0.410797
0.412429
0.414284
0.416356
0.418636
0.421111
0.423765
0.426575
0.429521
0.432583
0.435734
0.438877
0.442107
0.403304
0.403591
0.403774
0.403931
0.404038
0.404099
0.404131
0.404158
0.404205
0.404301
0.404477
0.404762
0.405185
0.40577
0.406533
0.407486
0.408637
0.409994
0.411561
0.413338
0.41532
0.4175
0.419863
0.422392
0.425067
0.427867
0.430775
0.433765
0.436734
0.439794
0.403001
0.403175
0.403303
0.403411
0.403483
0.403523
0.403546
0.40357
0.403619
0.403718
0.403898
0.404187
0.404613
0.405196
0.405949
0.406882
0.408003
0.409317
0.410828
0.412537
0.41444
0.416529
0.418788
0.421201
0.423746
0.426405
0.429162
0.431992
0.434789
0.437677
0.402707
0.402765
0.402838
0.402899
0.40294
0.402963
0.402981
0.40301
0.403067
0.403178
0.403371
0.403674
0.404112
0.404703
0.405456
0.40638
0.40748
0.408762
0.410229
0.411881
0.413715
0.415722
0.417886
0.420189
0.422611
0.425134
0.427744
0.430417
0.433044
0.435758
0.402418
0.402357
0.402376
0.402392
0.402406
0.402417
0.402437
0.402475
0.402548
0.402679
0.402894
0.40322
0.40368
0.404288
0.405052
0.405977
0.407067
0.408327
0.40976
0.411366
0.413141
0.415076
0.417153
0.419354
0.42166
0.424053
0.426521
0.42904
0.431501
0.43404
0.402131
0.401947
0.401915
0.401888
0.401878
0.401883
0.401909
0.401963
0.402059
0.402217
0.402462
0.40282
0.403312
0.403947
0.404731
0.405667
0.406758
0.408006
0.409416
0.410987
0.412715
0.414586
0.416584
0.418692
0.42089
0.42316
0.425491
0.427861
0.430161
0.432525
0.401839
0.40153
0.401449
0.401382
0.401354
0.401357
0.401393
0.40147
0.401596
0.401789
0.402072
0.402471
0.403003
0.403674
0.404488
0.405444
0.406545
0.407793
0.409191
0.410738
0.412428
0.414246
0.416175
0.418197
0.420294
0.422449
0.42465
0.426878
0.429023
0.431214
0.401537
0.401103
0.400974
0.400872
0.400828
0.400833
0.400887
0.400992
0.401154
0.401388
0.401719
0.402167
0.402747
0.403463
0.404315
0.405301
0.406423
0.407681
0.409078
0.410611
0.412272
0.414046
0.415915
0.417861
0.419867
0.421914
0.423993
0.426086
0.428083
0.430104
0.401218
0.400659
0.400486
0.400352
0.400297
0.400308
0.400383
0.400522
0.400726
0.40101
0.401395
0.4019
0.402537
0.403305
0.404203
0.405229
0.406381
0.40766
0.409066
0.410596
0.412238
0.413977
0.415795
0.417674
0.419597
0.421546
0.423512
0.425478
0.427338
0.429194
0.400877
0.400194
0.399979
0.399816
0.399754
0.399777
0.399878
0.400054
0.400307
0.400647
0.401094
0.401664
0.402364
0.403192
0.404144
0.405217
0.406409
0.407718
0.409143
0.410679
0.412311
0.414025
0.415801
0.417623
0.419473
0.421335
0.423197
0.425047
0.42678
0.428477
0.400506
0.399701
0.399448
0.399261
0.399195
0.399232
0.399363
0.399582
0.399889
0.400292
0.400807
0.401448
0.402218
0.403113
0.404127
0.405255
0.406495
0.407843
0.409296
0.410846
0.412477
0.414174
0.415918
0.417693
0.419481
0.421266
0.423036
0.424781
0.426401
0.427947
0.400096
0.399174
0.398885
0.398678
0.398614
0.398668
0.398833
0.399099
0.399464
0.399936
0.400527
0.401245
0.40209
0.403057
0.404139
0.40533
0.406625
0.40802
0.409509
0.41108
0.412719
0.414408
0.416129
0.417867
0.419604
0.421324
0.423014
0.424667
0.426187
0.427594
0.399638
0.398604
0.398285
0.398062
0.398002
0.398079
0.39828
0.398596
0.399025
0.399571
0.400242
0.401041
0.401967
0.403011
0.404167
0.405426
0.406783
0.408232
0.409763
0.411364
0.413017
0.414706
0.416413
0.418124
0.419822
0.421488
0.423111
0.424686
0.426123
0.427404
0.399125
0.397985
0.397639
0.397406
0.397354
0.397456
0.397696
0.398067
0.398563
0.399187
0.399941
0.400826
0.401836
0.402962
0.404196
0.405529
0.406954
0.408462
0.41004
0.411676
0.41335
0.415046
0.416748
0.418441
0.420109
0.421734
0.423305
0.424818
0.426191
0.427362
0.398547
0.39731
0.396942
0.396701
0.396662
0.396792
0.397075
0.397502
0.398068
0.398772
0.399613
0.400587
0.401684
0.402895
0.404212
0.405623
0.407119
0.408689
0.410319
0.411994
0.413694
0.415403
0.417107
0.41879
0.420439
0.422035
0.423568
0.425036
0.426365
0.427448
0.397897
0.396572
0.396185
0.395942
0.395919
0.39608
0.396408
0.396894
0.397532
0.398319
0.399248
0.400311
0.401497
0.402796
0.404197
0.405688
0.407258
0.408894
0.410578
0.412295
0.414025
0.415752
0.417462
0.419142
0.42078
0.422358
0.423866
0.425308
0.426616
0.427635
0.397165
0.395764
0.395364
0.395122
0.395118
0.395312
0.395686
0.396233
0.396945
0.397815
0.398833
0.399986
0.401262
0.40265
0.404137
0.40571
0.407354
0.409055
0.410796
0.412556
0.414317
0.416063
0.417783
0.419464
0.421097
0.422666
0.424161
0.425594
0.426907
0.427892
0.396346
0.39488
0.394471
0.394236
0.394253
0.394482
0.394905
0.395513
0.396299
0.397252
0.398357
0.3996
0.400966
0.402442
0.404014
0.405668
0.407387
0.409154
0.410949
0.412752
0.414543
0.416309
0.418038
0.419721
0.421351
0.422915
0.424408
0.425847
0.427192
0.42818
0.395433
0.393916
0.393503
0.393278
0.39332
0.393585
0.394057
0.394727
0.395587
0.396621
0.397812
0.399142
0.400595
0.402158
0.403814
0.405547
0.407338
0.409168
0.411015
0.412858
0.414677
0.416458
0.418193
0.419876
0.4215
0.423059
0.424551
0.426008
0.42741
0.428451
0.394419
0.392866
0.392455
0.392245
0.392314
0.392617
0.393137
0.393869
0.3948
0.395913
0.397186
0.3986
0.400138
0.401784
0.403521
0.40533
0.407189
0.409077
0.410972
0.412849
0.414691
0.416482
0.418216
0.419889
0.421498
0.423042
0.424526
0.425999
0.427482
0.428653
0.3933
0.391727
0.391325
0.391134
0.391231
0.391572
0.392142
0.392933
0.393933
0.39512
0.396472
0.397966
0.399584
0.401308
0.40312
0.404998
0.406919
0.40886
0.410795
0.412701
0.414557
0.416349
0.418071
0.41972
0.421295
0.422802
0.424256
0.425734
0.427339
0.428807
0.392075
0.390498
0.39011
0.389943
0.390071
0.39045
0.391068
0.391916
0.39298
0.394238
0.395662
0.39723
0.398921
0.400718
0.402597
0.404537
0.406511
0.408496
0.410463
0.412388
0.414248
0.416029
0.417724
0.419327
0.420838
0.422261
0.423621
0.425023
0.426634
0.428382
0.481952
0.503057
0.519699
0.532244
0.541186
0.547691
0.552329
0.555675
0.558045
0.559719
0.560858
0.561568
0.56193
0.562015
0.561865
0.561494
0.56094
0.560222
0.559342
0.558301
0.557098
0.555749
0.554259
0.552651
0.550922
0.549103
0.547214
0.545288
0.543546
0.541988
0.47835
0.499219
0.51609
0.528765
0.537846
0.54446
0.549188
0.552615
0.555068
0.556817
0.558017
0.558803
0.559243
0.559398
0.559298
0.558983
0.558483
0.557809
0.556969
0.555967
0.554802
0.553482
0.552021
0.550427
0.548721
0.546907
0.545036
0.543116
0.541371
0.539814
0.47485
0.495412
0.512488
0.525273
0.534491
0.541218
0.546036
0.549549
0.552088
0.553914
0.555177
0.556038
0.556556
0.556781
0.556734
0.556477
0.556032
0.555405
0.554606
0.553643
0.552516
0.551228
0.549797
0.54822
0.546539
0.544734
0.542882
0.540971
0.539222
0.537668
0.471457
0.491641
0.508899
0.521776
0.531128
0.537962
0.542873
0.546477
0.5491
0.551007
0.552346
0.55328
0.553868
0.55416
0.554178
0.55398
0.553589
0.553008
0.552253
0.551328
0.550239
0.548984
0.547584
0.546034
0.544376
0.542591
0.540751
0.53885
0.537101
0.535546
0.468176
0.487914
0.505326
0.518277
0.527755
0.534697
0.539704
0.5434
0.546107
0.548098
0.549521
0.550526
0.551183
0.55154
0.551628
0.55149
0.551152
0.55062
0.549909
0.549024
0.547972
0.546751
0.545383
0.543866
0.542231
0.540472
0.538645
0.536754
0.535007
0.533449
0.465015
0.484241
0.501771
0.514777
0.524376
0.531423
0.53653
0.54032
0.543114
0.54519
0.546696
0.547774
0.548502
0.548925
0.549082
0.549006
0.54872
0.548239
0.547574
0.54673
0.545716
0.544533
0.543197
0.541714
0.540104
0.538372
0.536561
0.534683
0.53294
0.531379
0.461976
0.480629
0.498237
0.511276
0.520991
0.528144
0.533352
0.537239
0.540122
0.542284
0.543875
0.545027
0.545828
0.546318
0.546541
0.546528
0.546296
0.545866
0.545248
0.544446
0.543472
0.542328
0.541027
0.539578
0.537997
0.536294
0.534501
0.532637
0.5309
0.529336
0.459065
0.477088
0.494729
0.507779
0.517602
0.524859
0.53017
0.534156
0.537132
0.539381
0.541058
0.542286
0.54316
0.543719
0.544008
0.544058
0.543881
0.543502
0.542931
0.542173
0.54124
0.540136
0.538873
0.537459
0.535909
0.534237
0.532465
0.530615
0.528885
0.52732
0.456283
0.473625
0.491249
0.504288
0.514208
0.521569
0.526985
0.531073
0.534145
0.536483
0.538247
0.539552
0.5405
0.541129
0.541484
0.541597
0.541476
0.541148
0.540625
0.539913
0.539021
0.537958
0.536734
0.535358
0.533841
0.532199
0.530453
0.528619
0.526897
0.525332
0.453633
0.470249
0.487803
0.500805
0.510811
0.518274
0.523798
0.52799
0.531162
0.533591
0.535442
0.536826
0.537849
0.538549
0.538969
0.539146
0.53908
0.538805
0.53833
0.537663
0.536815
0.535793
0.53461
0.533274
0.531791
0.530183
0.528464
0.526648
0.524935
0.52337
0.45112
0.466968
0.484394
0.497334
0.507411
0.514974
0.520608
0.524908
0.528182
0.530706
0.532646
0.53411
0.535209
0.535979
0.536465
0.536705
0.536696
0.536473
0.536045
0.535425
0.534621
0.533643
0.532502
0.531207
0.529761
0.528187
0.526498
0.524704
0.523
0.521437
0.448747
0.463793
0.481027
0.493877
0.50401
0.511669
0.517415
0.521826
0.525207
0.527828
0.52986
0.531405
0.53258
0.533422
0.533974
0.534275
0.534322
0.534152
0.533772
0.533198
0.532441
0.531507
0.53041
0.529157
0.527751
0.526213
0.524557
0.522786
0.521093
0.519531
0.446517
0.460732
0.477708
0.490436
0.500607
0.508359
0.514218
0.518745
0.522237
0.52496
0.527084
0.528713
0.529964
0.530877
0.531495
0.531857
0.53196
0.531841
0.531511
0.530984
0.530274
0.529385
0.528333
0.527124
0.525759
0.52426
0.52264
0.520894
0.519214
0.517654
0.444433
0.457795
0.474443
0.487017
0.497203
0.505042
0.511018
0.515665
0.519273
0.522102
0.52432
0.526033
0.527361
0.528346
0.52903
0.529452
0.529611
0.529543
0.529262
0.528782
0.528121
0.527277
0.52627
0.525107
0.523788
0.522329
0.520747
0.51903
0.517364
0.515807
0.442499
0.45499
0.471241
0.483622
0.4938
0.50172
0.507814
0.512586
0.516315
0.519254
0.521568
0.523368
0.524774
0.52583
0.52658
0.52706
0.527274
0.527258
0.527026
0.526593
0.525981
0.525182
0.524223
0.523108
0.521835
0.520419
0.518878
0.517193
0.515544
0.51399
0.44072
0.452329
0.468108
0.480255
0.490399
0.498391
0.504604
0.509507
0.513362
0.516416
0.518829
0.520718
0.522201
0.52333
0.524145
0.524681
0.524951
0.524985
0.524803
0.524417
0.523854
0.523102
0.522191
0.521124
0.5199
0.518528
0.517032
0.515383
0.513756
0.512205
0.439098
0.44982
0.465055
0.476924
0.487001
0.495056
0.501388
0.506428
0.510417
0.513589
0.516104
0.518083
0.519646
0.520846
0.521725
0.522317
0.522641
0.522725
0.522594
0.522254
0.521739
0.521036
0.520172
0.519155
0.517982
0.516658
0.515208
0.513601
0.511998
0.510452
0.437636
0.447474
0.462091
0.473633
0.48361
0.491717
0.498167
0.503348
0.507477
0.510773
0.513395
0.515465
0.517108
0.518379
0.519321
0.519968
0.520345
0.520479
0.520396
0.520103
0.519636
0.518982
0.518167
0.5172
0.516079
0.514806
0.513407
0.511847
0.510274
0.508733
0.436338
0.445298
0.459227
0.470392
0.48023
0.488373
0.494939
0.500268
0.504545
0.50797
0.510701
0.512866
0.514589
0.515928
0.516932
0.517634
0.518063
0.518246
0.518212
0.517965
0.517544
0.516941
0.516174
0.515257
0.51419
0.512972
0.511628
0.51012
0.508583
0.507051
0.435206
0.443303
0.456475
0.467207
0.476865
0.485028
0.491706
0.497186
0.501619
0.505179
0.508025
0.510286
0.512088
0.513496
0.51456
0.515316
0.515797
0.516026
0.516039
0.515839
0.515464
0.51491
0.514192
0.513325
0.512314
0.511154
0.509871
0.508421
0.506928
0.505409
0.434242
0.441496
0.453846
0.464089
0.473523
0.481682
0.488466
0.494101
0.498698
0.502401
0.505367
0.507725
0.509607
0.511082
0.512205
0.513014
0.513544
0.513819
0.513879
0.513726
0.513396
0.512889
0.51222
0.511404
0.51045
0.509352
0.508134
0.50675
0.505311
0.50381
0.433447
0.439882
0.451352
0.461046
0.470209
0.478339
0.485219
0.491012
0.495781
0.499635
0.502725
0.505184
0.507146
0.508688
0.509869
0.510728
0.511306
0.511627
0.511731
0.511624
0.511338
0.510878
0.510257
0.509494
0.508598
0.507564
0.506416
0.505107
0.503733
0.502258
0.432822
0.438464
0.449003
0.458091
0.466932
0.475002
0.481966
0.48792
0.492869
0.496881
0.5001
0.502664
0.504705
0.506314
0.507551
0.508459
0.509084
0.509449
0.509595
0.509533
0.509289
0.508875
0.508303
0.507592
0.506755
0.505789
0.504715
0.503492
0.502196
0.500758
0.432368
0.437244
0.446808
0.455235
0.463703
0.471678
0.478708
0.484824
0.489959
0.494139
0.497493
0.500164
0.502286
0.50396
0.505252
0.506207
0.506876
0.507286
0.507472
0.507453
0.50725
0.506881
0.506356
0.505698
0.50492
0.504025
0.503031
0.501902
0.500701
0.499317
0.432085
0.43622
0.444775
0.452493
0.460534
0.468373
0.475449
0.481725
0.487054
0.491408
0.494904
0.497685
0.49989
0.501628
0.502973
0.503974
0.504685
0.505136
0.505361
0.505382
0.50522
0.504894
0.504416
0.50381
0.503092
0.502268
0.501361
0.500337
0.499251
0.497943
0.431977
0.435386
0.442909
0.449878
0.45744
0.465093
0.472194
0.478625
0.484152
0.488689
0.492333
0.495228
0.497516
0.499317
0.500714
0.501758
0.502511
0.503001
0.503262
0.503322
0.503198
0.502914
0.502482
0.501928
0.501269
0.500518
0.4997
0.498793
0.497844
0.496645
0.432047
0.434735
0.441214
0.447402
0.454437
0.461849
0.468948
0.475528
0.481255
0.485983
0.489783
0.492794
0.495167
0.49703
0.498476
0.499562
0.500353
0.500879
0.501175
0.50127
0.501184
0.50094
0.500552
0.500049
0.499449
0.498771
0.498046
0.497266
0.496481
0.495437
0.432271
0.434246
0.43969
0.445077
0.451546
0.458652
0.465719
0.472436
0.478362
0.483285
0.487245
0.490375
0.492833
0.494758
0.496252
0.497379
0.498205
0.498765
0.499094
0.499224
0.499173
0.498968
0.498623
0.498169
0.497627
0.497022
0.496392
0.495748
0.495156
0.494337
0.432589
0.433834
0.438286
0.442878
0.448751
0.45548
0.46247
0.469301
0.475418
0.480543
0.484671
0.487929
0.490479
0.492471
0.494016
0.495185
0.496049
0.496644
0.497007
0.49717
0.497155
0.496989
0.496687
0.496281
0.495796
0.495263
0.49473
0.49423
0.49386
0.493365
0.433588
0.433611
0.437041
0.440796
0.446
0.452238
0.459082
0.466011
0.47234
0.477705
0.482042
0.485458
0.488121
0.490192
0.491793
0.493007
0.493907
0.494535
0.494929
0.495123
0.495141
0.495009
0.494747
0.494386
0.493954
0.493488
0.493046
0.49269
0.492569
0.492538
0.441443
0.436239
0.435971
0.436052
0.438185
0.442395
0.448725
0.456171
0.463458
0.469799
0.474902
0.478832
0.481799
0.484035
0.485723
0.48699
0.487924
0.488583
0.489012
0.489246
0.489315
0.489246
0.489065
0.488801
0.488493
0.488187
0.487972
0.487995
0.488599
0.490322
0.429391
0.427193
0.425288
0.423041
0.42292
0.426193
0.432624
0.440862
0.449206
0.45652
0.462363
0.466791
0.470072
0.472504
0.474322
0.475687
0.476706
0.477448
0.477963
0.478289
0.478458
0.478499
0.478439
0.478313
0.478164
0.478052
0.478087
0.478465
0.479623
0.482125
0.411471
0.411924
0.410268
0.408089
0.407586
0.410719
0.417507
0.42644
0.435599
0.443653
0.450069
0.454889
0.45842
0.461004
0.462917
0.464352
0.46543
0.466233
0.466815
0.467216
0.467469
0.467603
0.467647
0.467635
0.467612
0.467641
0.467832
0.468375
0.469709
0.472382
0.391665
0.39413
0.393661
0.392712
0.392908
0.396398
0.403534
0.412893
0.422531
0.431051
0.437865
0.442985
0.446716
0.449424
0.451416
0.452906
0.454034
0.45489
0.455531
0.455999
0.456328
0.456545
0.456679
0.456763
0.456838
0.456966
0.457247
0.457856
0.459195
0.461839
0.372102
0.37641
0.377696
0.378475
0.379978
0.38413
0.391464
0.4008
0.410389
0.41893
0.425841
0.431089
0.434939
0.437742
0.439803
0.441349
0.442529
0.443437
0.444136
0.444667
0.445064
0.445353
0.445562
0.445719
0.445865
0.446054
0.446377
0.44699
0.448252
0.45076
0.353799
0.359715
0.36286
0.365423
0.368439
0.373397
0.380788
0.389729
0.398833
0.407022
0.413768
0.418999
0.422909
0.425796
0.42794
0.429561
0.430809
0.431783
0.432545
0.43314
0.433601
0.433952
0.434221
0.434434
0.434627
0.434848
0.43518
0.435762
0.436913
0.439244
0.336804
0.343921
0.348653
0.352795
0.357221
0.36295
0.370322
0.378737
0.387202
0.394894
0.401366
0.406517
0.410471
0.413457
0.415714
0.417442
0.418787
0.419848
0.420689
0.421355
0.421881
0.422291
0.422611
0.422866
0.423089
0.423324
0.423645
0.424178
0.425207
0.427346
0.320748
0.328659
0.334592
0.339979
0.345518
0.351851
0.359182
0.367128
0.375017
0.382246
0.388454
0.393529
0.39754
0.400651
0.403055
0.404926
0.406401
0.407575
0.408515
0.409268
0.409866
0.410337
0.410706
0.410997
0.411241
0.41148
0.411781
0.412259
0.413168
0.415117
0.305262
0.313664
0.320435
0.326709
0.333016
0.339758
0.347054
0.354655
0.362105
0.368971
0.374972
0.380001
0.384088
0.387346
0.389925
0.39197
0.393604
0.39492
0.395983
0.396839
0.397523
0.398062
0.398483
0.398811
0.399075
0.399316
0.399593
0.400013
0.400804
0.402559
0.290074
0.298756
0.306071
0.312927
0.319725
0.326727
0.333993
0.341349
0.348482
0.355083
0.360937
0.36595
0.370128
0.373544
0.376312
0.378551
0.380368
0.381848
0.383055
0.384033
0.384818
0.385438
0.38592
0.386289
0.386576
0.386819
0.387075
0.387442
0.388125
0.389688
0.274994
0.28381
0.291452
0.298675
0.305782
0.31294
0.320167
0.32734
0.334242
0.340651
0.346405
0.351422
0.355693
0.359268
0.362227
0.364667
0.366679
0.368338
0.369703
0.370819
0.37172
0.372434
0.372988
0.373409
0.373727
0.373977
0.374214
0.374528
0.375105
0.376475
0.25989
0.268743
0.276571
0.284021
0.291317
0.298555
0.305732
0.312758
0.319485
0.325753
0.331437
0.336467
0.340829
0.344551
0.347692
0.350329
0.352535
0.354378
0.35591
0.357174
0.358202
0.359021
0.359658
0.360141
0.360497
0.360765
0.360994
0.361267
0.361754
0.362933
0.244672
0.253502
0.261428
0.269012
0.276415
0.283685
0.290802
0.297707
0.304298
0.310458
0.316089
0.321135
0.325575
0.329427
0.332734
0.335553
0.337945
0.339967
0.341666
0.343081
0.344243
0.345177
0.345909
0.346463
0.346867
0.347156
0.347379
0.347613
0.348015
0.349006
0.229274
0.238045
0.246016
0.253674
0.261132
0.268401
0.275457
0.282261
0.288741
0.294813
0.300402
0.305459
0.309965
0.313927
0.317377
0.320357
0.322919
0.325108
0.326968
0.32853
0.329824
0.330874
0.331703
0.332337
0.332801
0.333129
0.333364
0.333577
0.333911
0.334722
0.213651
0.222338
0.230329
0.238025
0.245503
0.252754
0.259751
0.266465
0.272853
0.278851
0.284402
0.289464
0.294019
0.298069
0.301637
0.304756
0.307466
0.309806
0.311812
0.313514
0.314937
0.316103
0.317032
0.317746
0.318268
0.318631
0.318877
0.31907
0.319346
0.31998
0.197776
0.206367
0.214369
0.222082
0.229558
0.236779
0.243716
0.250352
0.256658
0.262591
0.268103
0.273161
0.277748
0.281864
0.285525
0.288756
0.29159
0.294059
0.296193
0.298017
0.299555
0.300828
0.301855
0.302656
0.30325
0.303665
0.303936
0.304125
0.30436
0.304832
0.181649
0.190134
0.198147
0.205864
0.213319
0.220497
0.227375
0.23394
0.240173
0.246043
0.251512
0.256556
0.261158
0.265317
0.269045
0.272361
0.275293
0.277868
0.280112
0.282046
0.283688
0.285055
0.286164
0.287034
0.287684
0.288138
0.28843
0.288611
0.288808
0.289111
0.16531
0.17367
0.18169
0.189395
0.196808
0.203931
0.210748
0.217244
0.223407
0.229212
0.234632
0.239647
0.244244
0.248422
0.252189
0.255563
0.258565
0.261216
0.26354
0.265557
0.267284
0.268738
0.26993
0.270875
0.271588
0.272089
0.272407
0.27259
0.27276
0.272917
0.148846
0.157042
0.165046
0.172708
0.18005
0.187102
0.19385
0.200278
0.206368
0.212103
0.217465
0.222437
0.227009
0.23118
0.234958
0.23836
0.241404
0.244111
0.246497
0.248575
0.250359
0.251865
0.253106
0.254097
0.254849
0.255378
0.255706
0.255873
0.256002
0.255985
0.132407
0.140363
0.148285
0.155848
0.163077
0.170033
0.176702
0.183053
0.189064
0.194718
0.200004
0.20491
0.20943
0.213566
0.217326
0.220721
0.22377
0.226492
0.228905
0.231023
0.232857
0.234416
0.235707
0.23674
0.237529
0.238086
0.238428
0.238587
0.23868
0.238511
0.116196
0.123786
0.131504
0.138877
0.145934
0.152756
0.159325
0.165587
0.171506
0.177066
0.182258
0.187077
0.191519
0.195589
0.199297
0.202658
0.205687
0.208399
0.210804
0.212916
0.214747
0.216309
0.217609
0.218653
0.219448
0.220003
0.220326
0.220445
0.22047
0.220094
0.100447
0.107493
0.114825
0.121877
0.128677
0.135314
0.141748
0.147894
0.153697
0.159134
0.1642
0.168898
0.173228
0.177194
0.180807
0.184083
0.187044
0.189709
0.192089
0.194192
0.196021
0.197582
0.198884
0.199933
0.200735
0.201294
0.201607
0.201687
0.201633
0.20107
0.0853747
0.0916708
0.0983875
0.104951
0.111386
0.117764
0.124013
0.130009
0.135669
0.140959
0.145875
0.15042
0.154598
0.158421
0.161906
0.165067
0.16792
0.170478
0.17276
0.17478
0.176545
0.178056
0.179315
0.180324
0.181089
0.181612
0.181882
0.181888
0.181704
0.18086
0.0711388
0.0764776
0.0823405
0.0882293
0.0941667
0.100186
0.106168
0.111944
0.117399
0.122488
0.127203
0.131545
0.135517
0.139137
0.142429
0.14542
0.148133
0.15058
0.152768
0.154705
0.156398
0.15785
0.159064
0.160037
0.160773
0.16127
0.161509
0.161447
0.161111
0.160007
0.0578189
0.062039
0.0668405
0.0718678
0.0771538
0.0826926
0.0883158
0.0938038
0.0990039
0.103848
0.108314
0.112402
0.116121
0.119491
0.122536
0.125281
0.127753
0.129978
0.131975
0.133751
0.135305
0.136635
0.137741
0.138622
0.139278
0.139713
0.139897
0.139744
0.139191
0.1377
0.0454263
0.0484534
0.0520514
0.0560464
0.0605108
0.0654028
0.0704984
0.075542
0.0803626
0.0848671
0.0890037
0.0927534
0.0961306
0.099174
0.101925
0.104414
0.106658
0.108673
0.110476
0.112078
0.113484
0.114692
0.115697
0.116491
0.117072
0.117453
0.117615
0.117413
0.11664
0.114806
0.0339147
0.0357911
0.0381251
0.0409437
0.0444581
0.04859
0.0530304
0.057501
0.0618291
0.065897
0.0696192
0.0729523
0.0758977
0.0784926
0.080793
0.0828547
0.0847178
0.0864004
0.0879081
0.0892456
0.0904165
0.0914209
0.0922547
0.0929057
0.0933624
0.093642
0.0937578
0.0935291
0.0925333
0.0902707
0.023201
0.0240757
0.0251901
0.0266985
0.0290931
0.0322234
0.0357191
0.0393584
0.0429943
0.0464615
0.0496225
0.0524192
0.0548634
0.0570007
0.0588824
0.0605523
0.0620438
0.0633799
0.0645751
0.0656375
0.0665693
0.067368
0.0680303
0.0685462
0.0688935
0.0690806
0.0691685
0.0690097
0.0679363
0.065452
0.0131441
0.0132128
0.013189
0.0135701
0.0151705
0.0173067
0.0196576
0.0222288
0.0249399
0.0275757
0.0299303
0.0319091
0.0335381
0.0349098
0.0361126
0.0371914
0.0381589
0.0390214
0.0397885
0.0404696
0.041067
0.0415764
0.0419936
0.0423146
0.0425167
0.0425791
0.0425751
0.0425098
0.0416392
0.0391765
0.00385213
0.00276582
-0.000230115
-0.000945952
0.000888407
0.00230463
0.00345807
0.00481208
0.00639337
0.00800357
0.00944625
0.0106179
0.0115178
0.0122121
0.012775
0.0132548
0.0136746
0.0140443
0.0143715
0.0146629
0.01492
0.0151396
0.0153182
0.0154569
0.0155465
0.0155452
0.0154612
0.0154605
0.0152998
0.013677
0.426358
0.413402
0.396381
0.377814
0.359964
0.343145
0.327178
0.311775
0.296696
0.281784
0.266925
0.252023
0.237014
0.221849
0.2065
0.19096
0.17524
0.159395
0.143508
0.127714
0.112189
0.0971276
0.0827217
0.0691044
0.056355
0.0444842
0.0334314
0.0230959
0.0133401
0.00414
0.424761
0.410117
0.392993
0.374375
0.356643
0.339962
0.324117
0.308829
0.293857
0.279043
0.264275
0.249458
0.234529
0.219442
0.204169
0.188708
0.173069
0.157319
0.141546
0.125894
0.110545
0.0956906
0.0815164
0.0681417
0.0556354
0.0439953
0.033146
0.0229732
0.0133366
0.00420485
0.42318
0.406303
0.389137
0.37063
0.353153
0.336705
0.321035
0.305885
0.29103
0.276317
0.261639
0.246906
0.232058
0.217049
0.201853
0.18647
0.170914
0.155257
0.139594
0.124074
0.108883
0.0942114
0.0802421
0.0670879
0.0548143
0.0434087
0.0327778
0.0227875
0.0132848
0.00425014
0.421005
0.402224
0.385213
0.366902
0.349696
0.333484
0.317988
0.302976
0.288237
0.273624
0.259036
0.244385
0.229617
0.214685
0.199564
0.184259
0.168787
0.153225
0.137676
0.122294
0.10727
0.0927905
0.0790323
0.0661002
0.0540535
0.0428695
0.0324406
0.0226174
0.0132349
0.00428387
0.418349
0.398034
0.381279
0.363208
0.346271
0.330294
0.314973
0.300101
0.285477
0.270963
0.256464
0.241895
0.227205
0.212348
0.197302
0.182074
0.166685
0.15122
0.135788
0.120549
0.105698
0.091417
0.0778761
0.0651702
0.0533495
0.0423789
0.0321381
0.0224667
0.0131907
0.00430788
0.415267
0.393791
0.377333
0.359548
0.342878
0.327137
0.311991
0.297258
0.28275
0.268335
0.253924
0.239437
0.224823
0.21004
0.195067
0.179916
0.164611
0.149244
0.133932
0.118841
0.104168
0.09009
0.0767699
0.0642914
0.0526934
0.041928
0.0318631
0.0223301
0.0131499
0.00432335
0.411755
0.38953
0.373378
0.355925
0.339519
0.324016
0.309045
0.294449
0.280057
0.265741
0.251418
0.237011
0.222472
0.207762
0.192861
0.177786
0.162566
0.147299
0.132111
0.117172
0.102682
0.0888122
0.075716
0.0634651
0.0520849
0.0415151
0.0316137
0.0222059
0.0131118
0.00433201
0.407837
0.385284
0.369424
0.352342
0.336199
0.320929
0.306134
0.291676
0.277399
0.263182
0.248947
0.234619
0.220154
0.205515
0.190685
0.175685
0.160551
0.145386
0.130327
0.115545
0.101243
0.0875854
0.0747158
0.0626922
0.0515243
0.0411403
0.0313896
0.022094
0.0130767
0.00433552
0.403563
0.381073
0.36548
0.348801
0.332922
0.317879
0.30326
0.28894
0.274778
0.26066
0.246511
0.232261
0.217869
0.2033
0.18854
0.173614
0.158567
0.143508
0.12858
0.113961
0.0998515
0.0864108
0.0737696
0.0619717
0.0510099
0.0408019
0.0311893
0.021994
0.0130445
0.00433559
0.398997
0.376908
0.361561
0.345301
0.32969
0.314868
0.300424
0.286241
0.272194
0.258174
0.244112
0.22994
0.215619
0.201118
0.186427
0.171575
0.156617
0.141666
0.126874
0.112422
0.09851
0.085289
0.0728769
0.0613019
0.0505394
0.0404976
0.0310108
0.0219047
0.0130148
0.00433245
0.394209
0.372791
0.357678
0.341842
0.326504
0.311898
0.297626
0.28358
0.269647
0.255726
0.241749
0.227654
0.213404
0.198971
0.184347
0.16957
0.154702
0.139862
0.125209
0.110929
0.0972195
0.0842205
0.0720367
0.0606802
0.0501102
0.0402241
0.0308516
0.0218248
0.0129873
0.0043271
0.389275
0.368722
0.353842
0.338425
0.323364
0.308969
0.294868
0.280958
0.267139
0.253315
0.239424
0.225406
0.211225
0.196858
0.182301
0.167599
0.152823
0.138098
0.12359
0.109486
0.0959818
0.0832059
0.0712483
0.060105
0.0497192
0.0399789
0.0307097
0.0217532
0.012962
0.00432053
0.384262
0.364699
0.350063
0.335053
0.320272
0.306083
0.29215
0.278375
0.26467
0.250944
0.237137
0.223194
0.209082
0.19478
0.180291
0.165666
0.150983
0.136376
0.122017
0.108095
0.0947987
0.0822462
0.0705115
0.0595749
0.0493644
0.0397596
0.0305834
0.0216891
0.0129387
0.00431343
0.379235
0.360723
0.346346
0.331729
0.317229
0.303242
0.289475
0.275834
0.26224
0.248611
0.234888
0.22102
0.206975
0.192738
0.178318
0.163769
0.149183
0.134697
0.120493
0.106758
0.0936718
0.081342
0.0698259
0.059089
0.0490439
0.0395641
0.0304712
0.0216316
0.0129174
0.00430629
0.374247
0.356795
0.342698
0.328454
0.314235
0.300446
0.286842
0.273334
0.259852
0.246319
0.232678
0.218884
0.204906
0.190733
0.176381
0.161912
0.147424
0.133065
0.11902
0.105475
0.0926019
0.0804936
0.069191
0.0586456
0.0487555
0.0393899
0.0303715
0.0215798
0.0128978
0.0042994
0.369339
0.35292
0.339123
0.325231
0.311291
0.297697
0.284255
0.270878
0.257506
0.244067
0.230508
0.216785
0.202874
0.188765
0.174483
0.160093
0.145708
0.13148
0.1176
0.104249
0.0915892
0.0797003
0.0686052
0.0582426
0.0484967
0.0392349
0.0302826
0.0215328
0.0128799
0.00429295
0.364543
0.349104
0.335621
0.322064
0.308397
0.294997
0.281712
0.268466
0.255202
0.241857
0.228378
0.214726
0.20088
0.186836
0.172622
0.158315
0.144035
0.129943
0.116232
0.103079
0.0906331
0.0789608
0.0680664
0.0578772
0.0482645
0.0390965
0.0302029
0.0214901
0.0128633
0.00428706
0.359881
0.345351
0.332194
0.318953
0.305555
0.292345
0.279217
0.266099
0.252942
0.239689
0.226289
0.212707
0.198926
0.184944
0.1708
0.156578
0.142407
0.128456
0.114918
0.101964
0.0897328
0.0782735
0.0675722
0.0575465
0.0480564
0.0389726
0.0301312
0.0214509
0.0128481
0.00428179
0.355369
0.341668
0.328844
0.315903
0.302765
0.289743
0.276768
0.263777
0.250727
0.237564
0.224242
0.210728
0.197011
0.183091
0.169018
0.154883