/*--------------------------------*- C++ -*----------------------------------*\
  =========                 |
  \\      /  F ield         | OpenFOAM: The Open Source CFD Toolbox
   \\    /   O peration     | Website:  https://openfoam.org
    \\  /    A nd           | Version:  7
     \\/     M anipulation  |
\*---------------------------------------------------------------------------*/
FoamFile
{
    version     2.0;
    format      ascii;
    class       surfaceScalarField;
    location    "8.4";
    object      phi;
}
// * * * * * * * * * * * * * * * * * * * * * * * * * * * * * * * * * * * * * //

dimensions      [0 3 -1 0 0 0 0];

internalField   nonuniform List<scalar> 
35640
(
1.83203e-05
-0.000300901
0.000282581
6.62308e-05
-0.000627037
0.000579125
0.000140528
-0.00070678
0.000632484
0.000239341
-0.000597032
0.000498219
0.000361638
-0.00033847
0.000216172
0.000506867
3.846e-05
-0.000183689
0.000674713
0.000509989
-0.000677835
0.000864932
0.00105716
-0.00124738
0.00107724
0.00166476
-0.00187707
0.00131125
0.00232026
-0.00255426
0.00156634
0.00301307
-0.00326816
0.00184165
0.00373391
-0.00400921
0.002136
0.00447441
-0.00476876
0.0024479
0.00522681
-0.00553871
0.00277552
0.00598375
-0.00631137
0.00311669
0.00673818
-0.00707935
0.00346897
0.00748332
-0.0078356
0.00382965
0.00821272
-0.0085734
0.00419586
0.00892028
-0.00928648
0.0045646
0.00960039
-0.00996913
0.00493289
0.010248
-0.0106163
0.0052978
0.0108588
-0.0112237
0.00565657
0.011429
-0.0117878
0.00600666
0.0119559
-0.012306
0.00634583
0.0124374
-0.0127765
0.00667226
0.0128721
-0.0131985
0.00698455
0.0132591
-0.0135713
0.00728189
0.0135975
-0.0138948
0.00756403
0.0138858
-0.0141679
0.0141191
0.00783146
-0.0143865
1.74476e-05
-0.00031835
6.2726e-05
-0.000672315
0.000132544
-0.000776599
0.000225102
-0.00068959
0.000339499
-0.000452867
0.000475309
-9.73501e-05
0.000632362
0.000352936
0.000810554
0.000878968
0.00100974
0.00146558
0.00122963
0.00210036
0.00146978
0.00277292
0.00172947
0.00347422
0.00200774
0.00419615
0.00230329
0.00493125
0.00261455
0.00567249
0.00293961
0.00641311
0.00327629
0.00714664
0.00362216
0.00786685
0.00397461
0.00856783
0.0043309
0.0092441
0.00468821
0.00989068
0.0050438
0.0105032
0.00539499
0.0110778
0.0057393
0.0116116
0.00607455
0.0121021
0.00639886
0.0125477
0.00671077
0.0129471
0.00700934
0.0132989
0.00729418
0.013601
0.0138479
0.00756538
1.64808e-05
-0.00033483
5.88858e-05
-0.00071472
0.000123903
-0.000841616
0.000209857
-0.000775544
0.000316037
-0.000559047
0.000442199
-0.000223512
0.000588333
0.000206803
0.000754455
0.000712846
0.000940546
0.00127949
0.00114646
0.00189445
0.00137186
0.00254752
0.0016162
0.00322988
0.00187864
0.0039337
0.00215812
0.00465178
0.00245323
0.00537738
0.0027623
0.00610403
0.00308342
0.00682553
0.00341439
0.00753587
0.00375285
0.00822938
0.00409625
0.0089007
0.004442
0.00954493
0.00478752
0.0101577
0.00513025
0.0107351
0.00546782
0.011274
0.00579804
0.0117719
0.00611906
0.0122267
0.00642939
0.0126368
0.00672798
0.0130003
0.00701427
0.0133147
0.0135741
0.007288
1.54126e-05
-0.000350243
5.45986e-05
-0.000753906
0.000114409
-0.000901426
0.000193378
-0.000854513
0.000291014
-0.000656682
0.000407256
-0.000339755
0.000542274
7.1785e-05
0.000696241
0.000558879
0.00086926
0.00110647
0.0010613
0.00170241
0.00127215
0.00233666
0.00150139
0.00300065
0.00174832
0.00368677
0.00201202
0.00438808
0.00229128
0.00509812
0.00258464
0.00581068
0.00289037
0.0065198
0.00320651
0.00721973
0.0035309
0.00790499
0.00386122
0.00857037
0.00419508
0.00921107
0.00453004
0.0098227
0.00486369
0.0104014
0.00519374
0.010944
0.00551808
0.0114476
0.00583487
0.0119099
0.00614258
0.0123291
0.00644012
0.0127028
0.00672673
0.0130281
0.013299
0.00700184
1.41787e-05
-0.000364421
4.98303e-05
-0.000789557
0.000104044
-0.00095564
0.00017562
-0.000926089
0.00026433
-0.000745391
0.000370359
-0.000445784
0.000494051
-5.19069e-05
0.000635739
0.000417191
0.000795666
0.00094654
0.000973919
0.00152416
0.00117039
0.00214019
0.00138476
0.00278628
0.00161649
0.00345505
0.00186475
0.00413982
0.00212852
0.00483435
0.00240648
0.00553272
0.0026971
0.00622918
0.00299861
0.00691822
0.00330905
0.00759455
0.00362629
0.00825313
0.00394813
0.00888923
0.00427227
0.00949856
0.00459645
0.0100772
0.00491847
0.0106219
0.00523631
0.0111297
0.00554814
0.0115981
0.00585244
0.0120248
0.00614804
0.0124072
0.00643404
0.0127421
0.0130235
0.00670953
1.27979e-05
-0.000377219
4.45581e-05
-0.000821317
9.27417e-05
-0.00100382
0.000156502
-0.000989849
0.000235907
-0.000824797
0.000331397
-0.000541274
0.000443526
-0.000164036
0.000572803
0.000287914
0.0007196
0.000799743
0.000884119
0.00135964
0.00106636
0.00195795
0.00126612
0.00258652
0.00148294
0.00323823
0.00171613
0.00390662
0.00196478
0.00458571
0.00222773
0.00526976
0.00250361
0.0059533
0.00279082
0.00663101
0.00308756
0.0072978
0.00339191
0.00794878
0.00370178
0.00857936
0.00401506
0.00918528
0.00432962
0.00976269
0.00464335
0.0103082
0.00495431
0.0108188
0.00526072
0.0112917
0.00556105
0.0117245
0.00585407
0.0121141
0.00613872
0.0124574
0.0127485
0.00641377
1.12375e-05
-0.000388457
3.87525e-05
-0.000848832
8.04878e-05
-0.00104556
0.000136002
-0.00104536
0.000205711
-0.000894506
0.000290346
-0.000625909
0.00039068
-0.000264369
0.000507398
0.000171196
0.000641019
0.000666122
0.000791863
0.00120879
0.000960033
0.00178978
0.00114541
0.00240115
0.00134763
0.00303601
0.00156612
0.00368813
0.00180008
0.00435175
0.00204848
0.00502136
0.00231006
0.00569171
0.00258339
0.00635768
0.00286683
0.00701437
0.00315859
0.00765702
0.00345676
0.00828119
0.00375935
0.00888269
0.00406434
0.0094577
0.00436976
0.0100028
0.00467372
0.0105148
0.00497448
0.0109909
0.00527052
0.0114284
0.00556054
0.0118241
0.00584331
0.0121746
0.0124745
0.00611732
9.49451e-06
-0.000397951
3.24097e-05
-0.000871747
6.72716e-05
-0.00108042
0.000114122
-0.00109221
0.000173763
-0.000954146
0.000247234
-0.00069938
0.000335548
-0.000352683
0.000439578
6.71668e-05
0.00055999
0.00054571
0.000697219
0.00107156
0.000851469
0.00163553
0.00102271
0.00222991
0.00121066
0.00284805
0.00141485
0.00348394
0.00163457
0.00413203
0.0018689
0.00478704
0.00211671
0.0054439
0.00237668
0.00609772
0.00264731
0.00674373
0.00292695
0.00737738
0.00321382
0.00799432
0.00350607
0.00859045
0.00380178
0.00916199
0.00409907
0.00970547
0.00439614
0.0102177
0.00469127
0.0106958
0.00498295
0.0111368
0.00526979
0.0115373
0.00555041
0.011894
0.0122019
0.00582296
7.56325e-06
-0.000405514
2.55293e-05
-0.000889713
5.31111e-05
-0.001108
9.08997e-05
-0.00113
0.000140122
-0.00100337
0.000202149
-0.000761407
0.000278248
-0.000428781
0.000369484
-2.40695e-05
0.000476673
0.000438521
0.000600369
0.000947869
0.000740872
0.00149502
0.000898234
0.00207255
0.00107227
0.00267401
0.00126258
0.00329363
0.00146855
0.00392606
0.00168935
0.00456624
0.00192395
0.00520929
0.00217116
0.00585051
0.00242958
0.00648531
0.00269769
0.00710928
0.00297382
0.00771818
0.00325624
0.00830803
0.00354313
0.00887509
0.00383271
0.00941589
0.00412322
0.00992723
0.00441299
0.010406
0.00470046
0.0108493
0.00498418
0.0112536
0.00526259
0.0116156
0.011931
0.00553354
5.44574e-06
-0.00041096
1.81271e-05
-0.000902394
3.80449e-05
-0.00112792
6.64047e-05
-0.00115836
0.000104896
-0.00104186
0.000155239
-0.00081175
0.000218966
-0.000492507
0.00029734
-0.000102443
0.000391327
0.000344534
0.000501602
0.000837595
0.000628558
0.00136807
0.000772332
0.00192877
0.00093282
0.00251352
0.0011097
0.00311675
0.00130243
0.00373333
0.00151028
0.00435839
0.00173231
0.00498726
0.00196741
0.00561541
0.00221431
0.00623841
0.00247158
0.00685201
0.00273767
0.00745209
0.00301093
0.00803478
0.00328965
0.00859637
0.00357212
0.00913343
0.00385662
0.00964273
0.0041415
0.0101212
0.00442517
0.0105656
0.00470608
0.0109726
0.00498247
0.0113392
0.0116616
0.0052519
3.14931e-06
-0.000414109
1.02298e-05
-0.000909474
2.21337e-05
-0.00113982
4.07422e-05
-0.00117697
6.82378e-05
-0.00106935
0.000106708
-0.00085022
0.000157958
-0.000543757
0.000223451
-0.000167935
0.000304305
0.000263681
0.000401311
0.000740588
0.00051496
0.00125442
0.000645469
0.00179827
0.000792814
0.00236618
0.000956745
0.00295282
0.0011368
0.00355327
0.00133232
0.00416287
0.00154245
0.00477713
0.00176618
0.00539168
0.00200232
0.00600227
0.00224954
0.00660479
0.00250639
0.00719525
0.00277129
0.00776987
0.00304265
0.00832502
0.00331877
0.0088573
0.003598
0.0093635
0.00387869
0.00984048
0.00415919
0.0102851
0.00443783
0.010694
0.00471264
0.0110644
0.0113933
0.00498088
6.85144e-07
-0.000414794
1.87805e-06
-0.000910667
5.46174e-06
-0.00114341
1.40495e-05
-0.00118556
3.03456e-05
-0.00108565
5.68179e-05
-0.000876693
9.55477e-05
-0.000582486
0.000148199
-0.000220586
0.000216043
0.000195838
0.000299988
0.000656643
0.000400617
0.00115379
0.00051823
0.00168065
0.000652879
0.00223153
0.000804385
0.00280131
0.000972357
0.0033853
0.00115621
0.00397902
0.00135517
0.00457816
0.00156831
0.00517854
0.00179452
0.00577606
0.00203256
0.00636674
0.00228106
0.00694675
0.00253855
0.00751238
0.00280345
0.00806011
0.00307417
0.00858658
0.00334905
0.00908862
0.00362643
0.0095631
0.0039046
0.0100069
0.00418173
0.0104169
0.00445565
0.0107905
0.0111256
0.00472333
-1.93319e-06
-0.000412861
-6.87801e-06
-0.000905722
-1.1866e-05
-0.00113842
-1.35046e-05
-0.00118392
-8.54223e-06
-0.00109061
5.87774e-06
-0.000891112
3.2115e-05
-0.000608723
7.20351e-05
-0.000260506
0.000127059
0.000140814
0.000198212
0.00058549
0.000286167
0.00106583
0.000391307
0.00157551
0.000513757
0.00210908
0.000653407
0.00266166
0.000809935
0.00322877
0.00098283
0.00380613
0.0011714
0.0043896
0.00137478
0.00497516
0.00159195
0.00555889
0.00182175
0.00613694
0.00206289
0.00670561
0.00231397
0.00726131
0.00257348
0.0078006
0.00283985
0.00832021
0.00311146
0.00881701
0.00338658
0.00928798
0.00366345
0.00973008
0.00394007
0.0101402
0.00421403
0.0105165
0.0108577
0.00448201
-4.68467e-06
-0.000408176
-1.59743e-05
-0.000894432
-2.97242e-05
-0.00112467
-4.17221e-05
-0.00117192
-4.81488e-05
-0.00108419
-4.57544e-05
-0.000893506
-3.19021e-05
-0.000622575
-4.5255e-06
-0.000287882
3.79443e-05
9.83444e-05
9.66424e-05
0.000526792
0.000172336
0.000990138
0.000265486
0.00148236
0.00037629
0.00199828
0.000504706
0.00253325
0.000650481
0.003083
0.000813176
0.00364343
0.000992168
0.0042106
0.00118667
0.00478065
0.00139575
0.00534981
0.00161831
0.00591438
0.00185314
0.00647078
0.0020989
0.00701554
0.00235415
0.00754534
0.00261736
0.00805701
0.00288687
0.0085475
0.00316096
0.00901388
0.00343773
0.00945331
0.00371504
0.00986293
0.00399022
0.0102414
0.0105882
0.00425963
-7.54782e-06
-0.000400628
-2.5337e-05
-0.000876642
-4.79689e-05
-0.00110204
-7.03771e-05
-0.00114951
-8.81616e-05
-0.0010664
-9.76783e-05
-0.000883989
-9.60158e-05
-0.000624237
-8.09099e-05
-0.000302988
-5.06484e-05
6.80832e-05
-3.9885e-06
0.000480132
5.99279e-05
0.000926222
0.00014164
0.00140065
0.000241415
0.0018985
0.000359278
0.00241539
0.000495047
0.00294723
0.000648349
0.00349013
0.000818634
0.00404032
0.00100519
0.0045941
0.00120715
0.00514785
0.00142352
0.00569802
0.00165314
0.00624116
0.00189474
0.00677394
0.00214694
0.00729314
0.00240822
0.00779572
0.00267695
0.00827877
0.00295134
0.0087395
0.00322938
0.00917527
0.00350874
0.00958356
0.00378653
0.00996357
0.010316
0.00405878
-1.04962e-05
-0.000390132
-3.48818e-05
-0.000852257
-6.64382e-05
-0.00107048
-9.92185e-05
-0.00111673
-0.000128236
-0.00103738
-0.000149454
-0.00086277
-0.000159693
-0.000613999
-0.000156494
-0.000306186
-0.000138008
4.95975e-05
-0.000102887
0.000445011
-5.01838e-05
0.000873518
2.07172e-05
0.00132975
0.00011015
0.00180907
0.000218209
0.00230733
0.000344775
0.00282066
0.000489546
0.00334536
0.000652042
0.00387782
0.000831624
0.00441451
0.0010275
0.00495197
0.00123875
0.00548677
0.00146429
0.00601562
0.00170293
0.0065353
0.00195332
0.00704275
0.00221399
0.00753505
0.0024833
0.00800946
0.00275941
0.00846339
0.0030402
0.00889448
0.00332318
0.00930059
0.00360516
0.00968159
0.0100392
0.00388191
-1.35002e-05
-0.000376632
-4.4515e-05
-0.000821242
-8.49535e-05
-0.00103004
-0.000127972
-0.00107371
-0.000167997
-0.000997358
-0.000200608
-0.000830159
-0.000222359
-0.000592247
-0.000230608
-0.000297936
-0.000223373
4.23626e-05
-0.000199203
0.00042084
-0.000157064
0.000831379
-9.62673e-05
0.00126895
-1.64123e-05
0.00172921
8.26586e-05
0.00220826
0.000200894
0.00270242
0.000338055
0.0032082
0.000493731
0.00372214
0.000667356
0.00424089
0.000858217
0.00476111
0.00106546
0.00527953
0.00128809
0.00579299
0.00152497
0.00629842
0.00177482
0.0067929
0.00203621
0.00727367
0.0023075
0.00773816
0.00258681
0.00818407
0.00287194
0.00860935
0.00316019
0.00901234
0.00344815
0.00939362
0.00975612
0.00373128
-1.6527e-05
-0.000360105
-5.41337e-05
-0.000783635
-0.000103322
-0.000980854
-0.000156343
-0.00102069
-0.000207045
-0.000946656
-0.000250631
-0.000786572
-0.000283403
-0.000559475
-0.000302541
-0.000278798
-0.000305935
4.57566e-05
-0.000292033
0.000406939
-0.000259721
0.000799066
-0.000208236
0.00121747
-0.000137114
0.00165809
-4.61363e-05
0.00211728
6.47087e-05
0.00259158
0.000195245
0.00307766
0.000345128
0.00357226
0.000513862
0.00407215
0.000700807
0.00457416
0.000905182
0.00507516
0.00112607
0.0055721
0.00136241
0.00606208
0.00161299
0.00654232
0.00187643
0.00701023
0.0021511
0.00746349
0.00243512
0.00790005
0.00272619
0.00831828
0.00302149
0.00871705
0.00331735
0.00909775
0.00946454
0.00360893
-1.9541e-05
-0.000340564
-6.36278e-05
-0.000739549
-0.000121336
-0.000923146
-0.000184017
-0.000958012
-0.000244954
-0.000885718
-0.000298989
-0.000732537
-0.000342179
-0.000516285
-0.000371541
-0.000249436
-0.00038484
5.90556e-05
-0.000380427
0.000402526
-0.000357108
0.000775747
-0.000314053
0.00117441
-0.000250735
0.00159477
-0.000166873
0.00203342
-6.23995e-05
0.00248711
6.2569e-05
0.00295269
0.00020775
0.00342708
0.000372712
0.00390719
0.000556885
0.00438999
0.000759559
0.00487248
0.000979893
0.00535177
0.00121691
0.00582507
0.00146946
0.00628976
0.00173623
0.00674346
0.00201566
0.00718406
0.00230586
0.00760985
0.00260449
0.00801965
0.00290862
0.00841292
0.0032144
0.00879198
0.00916227
0.00351666
-2.25041e-05
-0.00031806
-7.28801e-05
-0.000689173
-0.000138778
-0.000857248
-0.000210665
-0.000886125
-0.000281279
-0.000815103
-0.000345119
-0.000668697
-0.000398014
-0.00046339
-0.000436822
-0.000210628
-0.000459195
8.14282e-05
-0.000463388
0.00040672
-0.000448131
0.000760489
-0.000412527
0.00113881
-0.000355988
0.00153823
-0.000278177
0.00195561
-0.000178972
0.0023879
-5.84349e-05
0.00283216
8.32065e-05
0.00328544
0.00024558
0.00374482
0.000428174
0.0042074
0.000630347
0.00467031
0.000851329
0.00513079
0.00109022
0.00558618
0.00134596
0.00603402
0.00161731
0.00647211
0.00190278
0.00689858
0.00220054
0.00731209
0.00250828
0.00771191
0.002823
0.00809821
0.00314069
0.00847428
0.008847
0.00345596
-2.53761e-05
-0.000292684
-8.17681e-05
-0.000632781
-0.000155421
-0.000783595
-0.000235943
-0.000805603
-0.000315557
-0.000735489
-0.000388437
-0.000595817
-0.000450201
-0.000401625
-0.000497564
-0.000163265
-0.000528064
0.000111929
-0.000539871
0.000418526
-0.000531636
0.000752255
-0.000502402
0.00110957
-0.000451519
0.00148735
-0.000378597
0.00188268
-0.000283463
0.00229277
-0.000166133
0.00271483
-2.6783e-05
0.00314609
0.000134258
0.00358378
0.000316532
0.00402512
0.000519451
0.00446739
0.000742306
0.00490793
0.000984268
0.00534422
0.00124437
0.00577392
0.00152146
0.00619502
0.00181416
0.00660588
0.00212074
0.0070055
0.00243898
0.00739368
0.0027659
0.00777129
0.00309745
0.00814273
0.00851644
0.00342801
-2.81154e-05
-0.000264568
-9.01652e-05
-0.000570731
-0.000171031
-0.000702729
-0.000259499
-0.000717134
-0.000347311
-0.000647678
-0.00042834
-0.000514788
-0.000498013
-0.000331952
-0.000552911
-0.000108367
-0.000590473
0.000149491
-0.00060878
0.000436832
-0.000606415
0.000749889
-0.000582355
0.00108551
-0.000535895
0.00144089
-0.000466594
0.00181338
-0.000374231
0.0022004
-0.00025878
0.00259937
-0.000120379
0.00300769
4.06812e-05
0.00342272
0.000223976
0.00384183
0.000428956
0.00426241
0.000654958
0.00468193
0.000901209
0.00509797
0.00116681
0.00550832
0.00145073
0.0059111
0.00175171
0.00630491
0.00206818
0.00668903
0.00239807
0.00706378
0.00273856
0.0074308
0.00308565
0.00779564
0.00816846
0.00343363
-3.06796e-05
-0.000233889
-9.79429e-05
-0.000503468
-0.000185369
-0.000615303
-0.000280973
-0.00062153
-0.000376051
-0.000552599
-0.000464207
-0.000426632
-0.000540696
-0.000255463
-0.000601979
-4.70836e-05
-0.000645402
0.000192914
-0.000668967
0.000460397
-0.000671189
0.000752111
-0.000650985
0.00106531
-0.000607594
0.0013975
-0.000540524
0.00174631
-0.000449514
0.00210939
-0.000334498
0.00248436
-0.000195586
0.00286877
-3.30423e-05
0.00326017
0.000152723
0.00365606
0.000361179
0.00405396
0.000591684
0.00445143
0.000843492
0.00484616
0.00111576
0.00523605
0.00140752
0.00561933
0.00171768
0.00599475
0.00204484
0.00636187
0.00238721
0.00672142
0.00274224
0.00707577
0.00310617
0.00743171
0.00780128
0.00347335
-3.30262e-05
-0.000200863
-0.000104972
-0.000431522
-0.000198196
-0.000522079
-0.000300003
-0.000519723
-0.000401286
-0.000451317
-0.000495409
-0.000332509
-0.000577478
-0.000173393
-0.000643851
1.92893e-05
-0.000691789
0.000240852
-0.000719225
0.000487832
-0.000724609
0.000757495
-0.0007068
0.0010475
-0.000664983
0.00135568
-0.00059862
0.00167995
-0.000507406
0.00201818
-0.000391245
0.00236819
-0.000250222
0.00272775
-8.45924e-05
0.00309454
0.000105237
0.00346623
0.000318728
0.00384047
0.000555222
0.00421493
0.000813962
0.00458742
0.00109411
0.00495591
0.00139473
0.00531871
0.00171483
0.00567465
0.00205324
0.00602346
0.00240847
0.00636618
0.00277844
0.0067058
0.00315987
0.00705028
0.0074137
0.00354745
-3.51131e-05
-0.000165749
-0.000111127
-0.000355508
-0.000209278
-0.000423927
-0.000316231
-0.00041277
-0.000422522
-0.000345026
-0.000521309
-0.000233722
-0.000607574
-8.71272e-05
-0.000677585
8.93005e-05
-0.000728533
0.0002918
-0.000758289
0.000517588
-0.000765246
0.000764452
-0.000748208
0.00103046
-0.000706308
0.00131378
-0.000638963
0.0016126
-0.000545829
0.00192505
-0.000426777
0.00224914
-0.000281878
0.00258285
-0.000111382
0.00292405
8.42895e-05
0.00327056
0.000304565
0.00362019
0.000548736
0.00397076
0.000815976
0.00432018
0.00110537
0.00466651
0.00141596
0.00500812
0.00174674
0.00534387
0.00209669
0.00567352
0.00246468
0.0059982
0.00284922
0.00632126
0.0032479
0.0066516
0.00700539
0.00365621
-3.68999e-05
-0.00012885
-0.000116284
-0.000276123
-0.000218387
-0.000321824
-0.000329305
-0.000301852
-0.000439273
-0.000235058
-0.000541274
-0.000131721
-0.000630192
1.79041e-06
-0.000702222
0.00016133
-0.000754497
0.000344075
-0.00078484
0.00054793
-0.000791592
0.000771204
-0.000773508
0.00101237
-0.000729677
0.00126995
-0.000659469
0.0015424
-0.000562501
0.00182808
-0.000438617
0.00212526
-0.00028787
0.0024321
-0.000110513
0.00274669
9.30124e-05
0.00306703
0.000322084
0.00339112
0.000575906
0.00371694
0.000853528
0.00404256
0.00115388
0.00436616
0.0014758
0.00468619
0.00181815
0.00500152
0.00217987
0.0053118
0.00256004
0.00561803
0.00295788
0.00592341
0.00337233
0.00623715
0.0065773
0.00380042
-3.83484e-05
-9.05011e-05
-0.00012033
-0.000194141
-0.000225306
-0.000216848
-0.000338891
-0.000188267
-0.000451068
-0.000122882
-0.000554683
-2.81053e-05
-0.000644544
9.16506e-05
-0.000716792
0.000233579
-0.000768519
0.000395802
-0.000797508
0.000576919
-0.000802063
0.000775758
-0.000780895
0.000991207
-0.000733054
0.00122211
-0.000657869
0.00146721
-0.00055492
0.00172513
-0.000424022
0.00199436
-0.000265208
0.00227329
-7.87286e-05
0.00256021
0.000134956
0.00285335
0.000375168
0.00315091
0.00064101
0.0034511
0.000931362
0.0037522
0.0012449
0.00405262
0.00158014
0.00435095
0.00193551
0.00464615
0.00230957
0.00493775
0.00270125
0.00522635
0.00311027
0.00551439
0.00353738
0.00581005
0.00613207
0.0039826
-3.94246e-05
-5.10765e-05
-0.00012316
-0.000110406
-0.000229837
-0.000110171
-0.000344677
-7.34273e-05
-0.000457462
-1.00963e-05
-0.00056094
7.53729e-05
-0.000649862
0.000180573
-0.000720338
0.000304055
-0.000769431
0.000444895
-0.000794898
0.000602387
-0.000795018
0.000775878
-0.000768472
0.000964661
-0.000714275
0.00116791
-0.000631724
0.00138466
-0.000520364
0.00161377
-0.000379979
0.00185397
-0.000210578
0.00210389
-1.23947e-05
0.00236203
0.000214108
0.00262685
0.000468216
0.0028968
0.000748948
0.00317037
0.00105502
0.00344613
0.00138483
0.00372281
0.00173642
0.00399937
0.00210754
0.00427503
0.00249584
0.00454945
0.0028993
0.00482288
0.00331721
0.00509648
0.00375194
0.00537532
0.00567378
0.00421024
-4.00991e-05
-1.09774e-05
-0.000124684
-2.5821e-05
-0.000231804
-3.05085e-06
-0.000346379
4.11472e-05
-0.000458046
0.000101571
-0.000559486
0.000176813
-0.000645416
0.000266503
-0.000711931
0.000370569
-0.00075608
0.000489044
-0.000775613
0.00062192
-0.000768793
0.000769058
-0.000734285
0.000930153
-0.000671083
0.00110471
-0.000578456
0.00129203
-0.000455925
0.00149124
-0.00030324
0.00170129
-0.000120378
0.00192103
9.24624e-05
0.00214919
0.000334846
0.00238446
0.000606075
0.00262557
0.000905152
0.00287129
0.00123072
0.00312056
0.00158099
0.00337255
0.0019536
0.00362675
0.00234556
0.00388307
0.0027532
0.00414181
0.00317252
0.00440356
0.00360007
0.00466894
0.00403649
0.0049389
0.00520446
0.0045058
-4.03482e-05
2.93708e-05
-0.000124825
5.86562e-05
-0.000231058
0.000103182
-0.000343754
0.000153843
-0.000452459
0.000210277
-0.000549817
0.00027417
-0.000630532
0.000347218
-0.000690698
0.000430734
-0.000727369
0.000525715
-0.000738298
0.000632848
-0.000721748
0.000752508
-0.000676384
0.000884789
-0.000601191
0.00102952
-0.000495427
0.00118627
-0.000358593
0.0013544
-0.000190412
0.00153311
9.18077e-06
0.00172143
0.00024004
0.00191833
0.000501799
0.0021227
0.000793848
0.00233352
0.0011153
0.00254984
0.00146492
0.00277094
0.00184106
0.00299642
0.00224144
0.00322636
0.00266305
0.00346146
0.00310185
0.00370301
0.00355281
0.0039526
0.0040095
0.00421225
0.00446501
0.00448338
0.00493429
0.00473519
0.00801641
0.0817283
-0.0819132
0.00782016
0.0827329
-0.0825367
0.00747709
0.0800933
-0.0797503
0.0071118
0.0761452
-0.07578
0.00679869
0.0719717
-0.0716586
0.00655157
0.0681553
-0.0679082
0.00635703
0.0648867
-0.0646922
0.00619351
0.0621555
-0.061992
0.00604136
0.0599073
-0.0597551
0.00588707
0.0580818
-0.0579275
0.00572274
0.0566489
-0.0564846
0.00554518
0.055577
-0.0553995
0.00535351
0.0548373
-0.0546456
0.00514798
0.0543846
-0.054179
0.00492922
0.054166
-0.0539472
0.00469752
0.0541287
-0.053897
0.00445363
0.0542227
-0.0539788
0.00419839
0.0544053
-0.0541501
0.00393246
0.0546478
-0.0543819
0.00365727
0.054922
-0.0546468
0.00337346
0.055214
-0.0549302
0.00308254
0.0555059
-0.055215
0.00278504
0.0557917
-0.0554942
0.00248216
0.0560585
-0.0557557
0.00217387
0.0563046
-0.0559963
0.00186083
0.0565202
-0.0562071
0.00154234
0.0567112
-0.0563927
0.00121867
0.0568772
-0.0565535
0.000890996
0.0570248
-0.0566971
0.0571101
-0.0567821
0.00787316
0.0814205
0.00777095
0.0828352
0.00749406
0.0803702
0.00717159
0.0764677
0.00688571
0.0722576
0.00665687
0.0683841
0.00647576
0.0650678
0.0063227
0.0623085
0.00617852
0.0600515
0.00602954
0.0582308
0.00586791
0.0568106
0.00569091
0.055754
0.00549766
0.0550306
0.00528913
0.0545931
0.00506572
0.0543894
0.00482835
0.0543661
0.00457792
0.0544731
0.0043152
0.054668
0.00404139
0.0549216
0.00375753
0.0552058
0.00346487
0.0555066
0.00316447
0.0558063
0.00285738
0.0560988
0.00254429
0.0563716
0.00222585
0.056623
0.00190207
0.0568439
0.00157289
0.0570404
0.00123837
0.0572117
0.000899748
0.0573634
0.0574491
0.0077165
0.080992
0.00770932
0.0828424
0.00750031
0.0805792
0.00722225
0.0767458
0.00696484
0.072515
0.00675538
0.0685936
0.00658877
0.0652344
0.00644737
0.0624499
0.00631235
0.0601865
0.00616987
0.0583733
0.00601196
0.0569685
0.00583628
0.0559297
0.005642
0.0552248
0.0054308
0.0548043
0.005203
0.0546172
0.00496005
0.054609
0.00470315
0.05473
0.00443291
0.0549383
0.00415115
0.0552034
0.00385854
0.0554984
0.00355693
0.0558082
0.00324692
0.0561163
0.00293015
0.0564156
0.00260677
0.056695
0.0022781
0.0569517
0.00194352
0.0571785
0.00160359
0.0573803
0.0012582
0.0575571
0.000908563
0.057713
0.0577991
0.00754801
0.0804458
0.00763609
0.0827543
0.00749601
0.0807193
0.00726359
0.0769782
0.00703571
0.0727428
0.00684662
0.0687827
0.00669563
0.0653854
0.00656713
0.0625784
0.00644255
0.0603111
0.00630781
0.058508
0.00615472
0.0571216
0.0059811
0.0561033
0.00578649
0.0554194
0.00557291
0.0550179
0.00534107
0.054849
0.00509268
0.0548574
0.00482924
0.0549935
0.00455158
0.0552159
0.00426169
0.0554933
0.00396037
0.0557997
0.00364958
0.056119
0.00332999
0.0564359
0.00300332
0.0567423
0.00266971
0.0570286
0.00233055
0.0572909
0.00198526
0.0575238
0.00163445
0.0577311
0.00127812
0.0579134
0.000917478
0.0580737
0.0581604
0.00736941
0.0797859
0.00755222
0.0825715
0.00748142
0.0807901
0.00729555
0.0771641
0.00709803
0.0729404
0.00693017
0.0689505
0.00679592
0.0655197
0.00668161
0.0626927
0.00656878
0.0604239
0.00644306
0.0586337
0.00629598
0.0572686
0.00612526
0.056274
0.00593103
0.0556137
0.00571538
0.0552335
0.00547982
0.0550846
0.00522617
0.055111
0.00495621
0.0552634
0.00467119
0.055501
0.00437304
0.0557914
0.00406301
0.0561098
0.00374289
0.0564392
0.00341367
0.0567651
0.00307691
0.057079
0.00273306
0.0573725
0.00238324
0.0576407
0.00202726
0.0578798
0.00166548
0.0580929
0.00129814
0.0582807
0.000926494
0.0584453
0.0585329
0.00718252
0.0790172
0.0074589
0.0822951
0.00745706
0.0807919
0.00731811
0.077303
0.00715151
0.073107
0.00700565
0.0690964
0.0068892
0.0656361
0.0067904
0.0627915
0.00669075
0.0605236
0.0065754
0.0587491
0.0064355
0.0574085
0.00626862
0.0564409
0.00607542
0.0558069
0.0058582
0.0554508
0.00561919
0.0553236
0.00536046
0.0553698
0.00508406
0.0555398
0.00479169
0.0557933
0.00448528
0.0560978
0.00416643
0.0564286
0.0038369
0.0567687
0.00349795
0.057104
0.00315101
0.057426
0.0027968
0.0577267
0.00243626
0.0580012
0.00206949
0.0582466
0.0016967
0.0584657
0.0013183
0.0586591
0.000935597
0.058828
0.0589168
0.00698935
0.0781452
0.00735744
0.081927
0.00742354
0.0807258
0.0073314
0.0773952
0.00719597
0.0732424
0.00707275
0.0692196
0.00697511
0.0657338
0.0068931
0.0628735
0.00680812
0.0606085
0.00670453
0.0588527
0.00657304
0.05754
0.00641098
0.056603
0.00621952
0.0559983
0.00600126
0.055669
0.00575909
0.0555658
0.00549549
0.0556334
0.00521278
0.0558226
0.00491305
0.0560931
0.00459839
0.0564125
0.00427064
0.0567564
0.00393163
0.0571077
0.00358284
0.0574528
0.00322563
0.0577832
0.00286095
0.0580914
0.00248962
0.0583726
0.00211197
0.0586242
0.00172813
0.0588495
0.00133861
0.0590487
0.000944793
0.0592218
0.0593121
0.00679207
0.0771761
0.0072493
0.0814698
0.00738169
0.0805934
0.00733572
0.0774411
0.00723135
0.0733468
0.00713123
0.0693197
0.0070533
0.0658117
0.00698938
0.0629375
0.00692055
0.0606774
0.00683018
0.0589431
0.00670837
0.0576618
0.00655215
0.0567592
0.00636315
0.0561873
0.00614442
0.0558878
0.00589943
0.0558108
0.00563119
0.0559016
0.00534229
0.0561114
0.00503525
0.0564001
0.00471234
0.0567354
0.00437566
0.057093
0.00402709
0.0574563
0.00366836
0.0578116
0.00330081
0.0581507
0.00292553
0.0584666
0.00254334
0.0587548
0.00215472
0.0590128
0.00175978
0.0592445
0.00135907
0.0594494
0.000954092
0.0596268
0.0597188
0.00659296
0.0761166
0.00713612
0.0809266
0.00733246
0.0803971
0.00733152
0.0774421
0.00725774
0.0734206
0.00718091
0.0693966
0.00712351
0.0658691
0.00707892
0.062982
0.00702774
0.0607285
0.00695207
0.0590187
0.00684124
0.0577727
0.00669192
0.0569085
0.00650616
0.0563731
0.00628752
0.0561064
0.00604009
0.0560582
0.00576746
0.0561743
0.00547254
0.0564064
0.00515827
0.0567144
0.00482711
0.0570666
0.00448146
0.0574387
0.00412329
0.0578144
0.00375451
0.0581804
0.00337655
0.0585287
0.00299058
0.0588526
0.00259744
0.0591479
0.00219776
0.0594125
0.00179167
0.0596506
0.00137972
0.0598613
0.000963508
0.060043
0.0601372
0.00639443
0.0749741
0.00701968
0.0803014
0.00727703
0.0801397
0.00731943
0.0773997
0.00727536
0.0734646
0.00722178
0.0694501
0.00718555
0.0659053
0.00716146
0.0630061
0.00712939
0.0607606
0.0070699
0.0590782
0.00697139
0.0578712
0.00683004
0.0570499
0.00664834
0.0565548
0.00643039
0.0563244
0.00618093
0.0563076
0.00590418
0.056451
0.00560342
0.0567071
0.00528202
0.0570358
0.00494265
0.057406
0.00458803
0.0577933
0.00422022
0.0581822
0.00384132
0.0585593
0.00345285
0.0589172
0.00305612
0.0592493
0.00265195
0.0595521
0.00224111
0.0598233
0.0018238
0.0600679
0.00140058
0.0602845
0.000973057
0.0604706
0.0605671
0.00619901
0.073756
0.0069019
0.0795985
0.00721677
0.0798249
0.00730029
0.0773162
0.00728464
0.0734803
0.00725394
0.0694808
0.00723933
0.0659199
0.00723679
0.0630087
0.00722523
0.0607722
0.00718341
0.05912
0.00709855
0.057956
0.0069663
0.0571821
0.0067895
0.0567316
0.00657284
0.056541
0.0063218
0.0565587
0.00604123
0.0567316
0.00573484
0.0570135
0.00540644
0.0573642
0.00505893
0.0577535
0.00469533
0.0581569
0.00431787
0.0585597
0.00392879
0.0589483
0.00352974
0.0593162
0.00312214
0.0596569
0.00270687
0.0599673
0.0022848
0.0602454
0.00185621
0.0604965
0.00142167
0.0607191
0.000982764
0.0609095
0.0610087
0.00600929
0.07247
0.00678483
0.0788229
0.00715322
0.0794565
0.00727513
0.0771943
0.0072862
0.0734692
0.00727766
0.0694894
0.00728488
0.0659127
0.00730477
0.0629888
0.00731503
0.0607619
0.00729233
0.0591427
0.00722246
0.0580259
0.00710044
0.0573042
0.0069294
0.0569026
0.00671469
0.0567557
0.00646253
0.0568108
0.00617847
0.0570156
0.00586669
0.0573253
0.00553143
0.0576994
0.00517589
0.058109
0.00480331
0.0585295
0.00441621
0.0589468
0.00401689
0.0593477
0.00360722
0.0597259
0.00318867
0.0600755
0.00276224
0.0603938
0.00232885
0.0606788
0.00188892
0.0609364
0.001443
0.061165
0.000992651
0.0613598
0.0614621
0.00582794
0.0711241
0.00667066
0.0779802
0.00708816
0.079039
0.00724523
0.0770372
0.00728086
0.0734336
0.00729338
0.0694769
0.00732233
0.0658838
0.00736534
0.0629458
0.0073986
0.0607287
0.00739642
0.0591449
0.00734285
0.0580795
0.00723221
0.0574148
0.00706782
0.057067
0.00685573
0.0569678
0.00660294
0.0570636
0.00631573
0.0573028
0.00599882
0.0576422
0.00565688
0.0580414
0.00529343
0.0584725
0.00491194
0.058911
0.00451521
0.0593435
0.00410563
0.0597572
0.00368528
0.0601462
0.00325572
0.0605051
0.00281805