/*--------------------------------*- C++ -*----------------------------------*\
  =========                 |
  \\      /  F ield         | OpenFOAM: The Open Source CFD Toolbox
   \\    /   O peration     | Website:  https://openfoam.org
    \\  /    A nd           | Version:  7
     \\/     M anipulation  |
\*---------------------------------------------------------------------------*/
FoamFile
{
    version     2.0;
    format      ascii;
    class       surfaceScalarField;
    location    "86.1";
    object      phi;
}
// * * * * * * * * * * * * * * * * * * * * * * * * * * * * * * * * * * * * * //

dimensions      [0 3 -1 0 0 0 0];

internalField   nonuniform List<scalar> 
3880
(
-1.93853e-05
-0.00050047
0.000519855
-1.82163e-05
-0.00120585
0.00120468
1.53545e-05
-0.00161927
0.0015857
8.73389e-05
-0.00178209
0.00171011
0.000203533
-0.00172217
0.00160597
0.000370782
-0.00145862
0.00129137
0.000596435
-0.00100521
0.000779561
0.000886366
-0.000373536
8.36049e-05
0.00124232
0.000424339
-0.000780295
0.00137453
0.00165903
-0.00179123
-7.98584e-06
-0.000492484
1.63156e-05
-0.00123015
7.92489e-05
-0.00168221
0.000183226
-0.00188607
0.000331511
-0.00187045
0.000529572
-0.00165668
0.000784428
-0.00126007
0.0011027
-0.000691808
0.0014879
3.91437e-05
0.000925224
0.0019372
7.90307e-06
-0.000500387
6.30577e-05
-0.0012853
0.000165494
-0.00178464
0.00031301
-0.00203359
0.00050565
-0.00206309
0.000746693
-0.00189772
0.00104205
-0.00155543
0.00139847
-0.00104823
0.00182102
-0.000383405
0.000436706
0.00230954
2.73892e-05
-0.000527776
0.000120483
-0.0013784
0.000271256
-0.00193541
0.000472546
-0.00223488
0.000720803
-0.00231135
0.00101668
-0.0021936
0.00136443
-0.00190318
0.00177034
-0.00145414
0.00224042
-0.000853481
-0.000100068
0.00277719
5.00412e-05
-0.000577817
0.000186128
-0.00151448
0.000391623
-0.00214091
0.000654101
-0.00249736
0.000966359
-0.00262361
0.00132636
-0.0025536
0.00173654
-0.00231336
0.00220237
-0.00191996
0.00273016
-0.00138127
-0.000694457
0.00332455
7.47133e-05
-0.00065253
0.0002565
-0.00169627
0.000519613
-0.00240402
0.000846326
-0.00282407
0.00122599
-0.00300327
0.00165415
-0.00298176
0.00213166
-0.00279088
0.00266323
-0.00245153
0.00325518
-0.00197323
-0.00135231
0.00391304
0.00010006
-0.00075259
0.000327283
-0.00192349
0.000646519
-0.00272326
0.00103484
-0.00321239
0.00147849
-0.00344691
0.00197105
-0.00347432
0.00251229
-0.00333212
0.0031067
-0.00304594
0.003761
-0.00262752
-0.00207168
0.00448036
0.000124565
-0.000877155
0.00039361
-0.00219254
0.000762536
-0.00309218
0.00120344
-0.0036533
0.0016998
-0.00394327
0.00224369
-0.00401821
0.00283427
-0.0039227
0.00347659
-0.00368827
0.00417923
-0.00333016
-0.00283954
0.0049471
0.000146626
-0.00102378
0.000450397
-0.00249631
0.000857569
-0.00349936
0.00133566
-0.00413138
0.00186582
-0.00447343
0.00243893
-0.00459132
0.00305359
-0.00453735
0.00371554
-0.00435021
0.00443721
-0.00405183
-0.00363271
0.00523038
0.000164638
-0.00118842
0.000492693
-0.00282436
0.000922085
-0.00392875
0.00141651
-0.00462581
0.00195552
-0.00501244
0.00252921
-0.00516501
0.00313541
-0.00514355
0.00377899
-0.00499379
0.00447521
-0.00474806
0.00526739
-0.0044249
0.00293299
0.0138504
-0.0151244
0.00430544
0.0334156
-0.0347881
0.00489349
0.0540966
-0.0546847
0.00479859
0.0731858
-0.0730909
0.00427863
0.0919168
-0.0913969
0.00347898
0.111688
-0.110888
0.00249596
0.134115
-0.133132
0.00135781
0.164267
-0.163129
0.000406349
0.209656
-0.208704
0.264007
-0.263601
0.00325149
0.0125362
0.00488346
0.0317837
0.00576135
0.0532187
0.00585844
0.0730887
0.0054303
0.092345
0.0046365
0.112482
0.00358402
0.135167
0.00230491
0.165546
0.00100179
0.210959
0.265009
0.00359295
0.0112527
0.0054287
0.0299479
0.00660242
0.052045
0.00690811
0.072783
0.00658225
0.0926709
0.00579812
0.113266
0.00467566
0.13629
0.00324833
0.166974
0.00160322
0.212604
0.266612
0.00396382
0.0100661
0.00592681
0.0279849
0.0073922
0.0505796
0.0079235
0.0722517
0.00771408
0.0928803
0.00694643
0.114034
0.00575775
0.137478
0.0041827
0.168549
0.00219793
0.214589
0.26881
0.00436811
0.00902255
0.00636997
0.0259831
0.00810836
0.0488412
0.00888119
0.0714789
0.00880544
0.092956
0.00806548
0.114774
0.00681727
0.138727
0.005098
0.170268
0.00278068
0.216906
0.271591
0.00479954
0.00813605
0.00675606
0.0240265
0.00873235
0.046865
0.00975921
0.070452
0.00983667
0.0928786
0.00913833
0.115472
0.00784031
0.140025
0.00598331
0.172125
0.00334421
0.219545
0.274935
0.00523395
0.00738246
0.00708386
0.0221766
0.00925067
0.0446981
0.0105381
0.0691646
0.0107907
0.0926259
0.0101521
0.11611
0.00881777
0.141359
0.00683284
0.17411
0.00388782
0.22249
0.278823
0.00562054
0.00670901
0.00734427
0.0204529
0.00965309
0.0423893
0.0112007
0.0676171
0.0116468
0.0921798
0.0110845
0.116673
0.00972863
0.142715
0.00763013
0.176208
0.00439906
0.225721
0.283222
0.00587906
0.00606033
0.00750938
0.0188226
0.00992489
0.0399738
0.0117385
0.0658035
0.0124115
0.0915067
0.0119511
0.117133
0.0105909
0.144075
0.00838772
0.178411
0.00488732
0.229222
0.288109
0.00597103
0.00535669
0.00761577
0.0171779
0.0100861
0.0375034
0.0121116
0.0637781
0.013009
0.0906093
0.0126741
0.117468
0.0113567
0.145393
0.00905449
0.180714
0.00535792
0.232918
0.293467
0.0187994
0.00974386
-0.0231865
0.0145161
0.0214611
0.0124025
0.039617
0.0112642
0.0649164
0.00983829
0.0920353
0.00790687
0.119399
0.00540216
0.147897
0.00243434
0.183681
7.62851e-05
0.235277
0.293543
0.0196147
0.0128148
-0.0226856
0.0153768
0.025699
0.0124332
0.0425605
0.010888
0.0664616
0.0094259
0.0934973
0.00752066
0.121305
0.00505357
0.150364
0.00222151
0.186514
2.24909e-05
0.237476
0.293566
0.0191697
0.0144359
-0.0207909
0.0158236
0.0290451
0.0126472
0.0457369
0.0106186
0.0684902
0.00895189
0.0951641
0.00706062
0.123196
0.00470082
0.152724
0.00200786
0.189207
-3.25486e-05
0.239516
0.293533
0.0178259
0.0150885
-0.0184785
0.0154357
0.0314354
0.012605
0.0485676
0.0104238
0.0706713
0.00860525
0.0969827
0.00669721
0.125104
0.0044183
0.155003
0.00189266
0.191732
-8.59762e-06
0.241417
0.293525
0.0161115
0.0150497
-0.0160727
0.0145173
0.0330296
0.0121822
0.0509028
0.0101013
0.0727522
0.00827378
0.0988102
0.00637384
0.127004
0.00415702
0.15722
0.00174158
0.194148
-4.73629e-05
0.243206
0.293477
0.0142005
0.0144175
-0.0135683
0.0132913
0.0339388
0.0114457
0.0527484
0.00961189
0.074586
0.00791678
0.100505
0.0061071
0.128814
0.00398307
0.159344
0.00169706
0.196434
6.29461e-06
0.244897
0.293484
0.012249
0.01323
-0.0110615
0.0120081
0.0341797
0.0106628
0.0540936
0.00906307
0.0761857
0.00750047
0.102068
0.00579987
0.130514
0.00378107
0.161363
0.00158473
0.19863
-1.9496e-05
0.246501
0.293464
0.0102557
0.0115338
-0.00855962
0.010571
0.0338645
0.00974359
0.054921
0.00850299
0.0774264
0.00713728
0.103434
0.00556818
0.132083
0.00365534
0.163276
0.00158866
0.200697
5.45876e-05
0.248035
0.293519
0.00872353
0.00915052
-0.00634021
0.0096483
0.0329397
0.00917128
0.0553981
0.00808937
0.0785083
0.00681952
0.104703
0.00534138
0.133561
0.00350742
0.16511
0.00151006
0.202694
3.99846e-05
0.249505
0.293559
0.00632857
-0.00355713
0.00818768
0.00852502
0.00783895
0.00672765
0.0052835
0.00353069
0.00156795
0.000159158
0.00515457
-0.0233809
-0.00496021
0.00472293
-0.022254
0.00399313
-0.0200611
0.00318331
-0.0176687
0.00234921
-0.0152386
0.00150888
-0.012728
0.000666587
-0.0102192
-0.000144618
-0.00774841
-0.00106404
-0.00542079
-0.00281949
0.00425624
-0.0232188
-0.00441833
0.00358348
-0.0215812
0.00273021
-0.0192078
0.00184415
-0.0167827
0.000954828
-0.0143493
7.38989e-05
-0.011847
-0.000797184
-0.00934808
-0.00163903
-0.00690657
-0.00251723
-0.00454259
-0.00214229
0.0032068
-0.0227605
-0.00366505
0.00233301
-0.0207074
0.00138376
-0.0182585
0.000435995
-0.0158349
-0.000490521
-0.0134228
-0.00139127
-0.0109463
-0.00226434
-0.008475
-0.00309471
-0.00607619
-0.0039009
-0.0037364
-0.00155691
0.00200409
-0.0220631
-0.00270153
0.000985463
-0.0196888
-3.2118e-05
-0.017241
-0.00101145
-0.0148556
-0.00195491
-0.0124793
-0.0028528
-0.0100484
-0.00370109
-0.00762671
-0.00448642
-0.00529086
-0.00519488
-0.00302794
-0.00107956
0.000665094
-0.0211715
-0.00155666
-0.000443148
-0.0185806
-0.00148569
-0.0161984
-0.00247944
-0.0138618
-0.00341202
-0.0115467
-0.00428032
-0.00918011
-0.00507801
-0.00682902
-0.00579052
-0.00457836
-0.00638505
-0.00243341
-0.000713979
-0.000762358
-0.020138
-0.00027118
-0.0019186
-0.0174243
-0.00296083
-0.0151562
-0.00393484
-0.0128878
-0.00483074
-0.0106508
-0.00564531
-0.00836554
-0.00637044
-0.00610388
-0.00699016
-0.00395864
-0.0074648
-0.00195877
-0.000455525
-0.00223661
-0.018985
0.00108359
-0.00339638
-0.0162646
-0.00441137
-0.0141412
-0.00534195
-0.0119572
-0.0061798
-0.00981298
-0.00692156
-0.00762378
-0.00755885
-0.0054666
-0.00807519
-0.00344229
-0.00843299
-0.00160098
-0.000293665
-0.00369764
-0.01776
0.00247264
-0.00483065
-0.0151315
-0.00579831
-0.0131735
-0.00666696
-0.0110886
-0.00743156
-0.00904838
-0.00808821
-0.00696713
-0.00863013
-0.00492468
-0.00904167
-0.00303075
-0.00929278
-0.00134987
-0.000214182
-0.00509634
-0.0165031
0.00383948
-0.0061803
-0.0140476
-0.00708706
-0.0122668
-0.0078815
-0.0102941
-0.00856453
-0.00836535
-0.00913107
-0.00640059
-0.0095778
-0.00447794
-0.00989096
-0.00271759
-0.0100505
-0.00119036
-0.000200974
-0.00639083
-0.015249
0.00513673
-0.00741158
-0.0130268
-0.00825028
-0.0114281
-0.0089646
-0.00957979
-0.00956456
-0.00776539
-0.0100429
-0.00592225
-0.0104013
-0.00411952
-0.0106284
-0.00249051
-0.0107143
-0.00110449
-0.000237338
-0.00754925
-0.0140252
0.00632542
-0.00849943
-0.0120766
-0.0092691
-0.0106584
-0.00990322
-0.00894567
-0.0104247
-0.00724388
-0.0108227
-0.00552424
-0.0111049
-0.00383735
-0.0112621
-0.0023333
-0.0112934
-0.00107316
-0.000306753
-0.00855518
-0.0128515
0.00738153
-0.00943055
-0.0112013
-0.0101347
-0.00995427
-0.0106932
-0.00838714
-0.0111453
-0.00679181
-0.011475
-0.00519451
-0.0116962
-0.00361615
-0.0118017
-0.0022278
-0.0117975
-0.00107738
-0.000393283
-0.00939823
-0.0117412
0.00828785
-0.0101982
-0.0104013
-0.0108441
-0.00930836
-0.0113358
-0.00789539
-0.0117308
-0.00639688
-0.0120074
-0.00491787
-0.0121848
-0.00343872
-0.0122575
-0.00215515
-0.012236
-0.00109887
-0.000481738
-0.0100775
-0.0106998
0.00903621
-0.0108038
-0.00967508
-0.0114011
-0.00871105
-0.0118379
-0.00745862
-0.0121897
-0.00604507
-0.01243
-0.00467752
-0.0125814
-0.00328735
-0.0126398
-0.0020968
-0.0126181
-0.00112053
-0.000557709
-0.0105989
-0.00972504
0.00962411
-0.0112548
-0.00901914
-0.0118139
-0.00815201
-0.0122097
-0.00706283
-0.0125328
-0.0057219
-0.0127543
-0.00445608
-0.012897
-0.00314463
-0.0129587
-0.00203507
-0.0129528
-0.00112644
-0.00060749
-0.0109723
-0.00880487
0.0100521
-0.0115635
-0.0084279
-0.0120935
-0.00762204
-0.0124637
-0.00669258
-0.0127722
-0.00541341
-0.0129918
-0.00423651
-0.0131423
-0.00299407
-0.013224
-0.00195341
-0.0132486
-0.00110181
-0.000617976
-0.0112089
-0.00791718
0.0103212
-0.011745
-0.00789181
-0.0122522
-0.0071148
-0.0126131
-0.00633174
-0.0129199
-0.00510655
-0.0131539
-0.00400256
-0.0133277
-0.00282022
-0.0134448
-0.00183639
-0.0135138
-0.0010328
-0.000576536
-0.0113126
-0.00703691
0.0104323
-0.0118112
-0.0073932
-0.0123002
-0.00662584
-0.0126688
-0.00596312
-0.0129869
-0.00478847
-0.0132507
-0.00373873
-0.0134625
-0.00260843
-0.0136294
-0.00166946
-0.0137561
-0.000906142
-0.000470862
-0.0112801
-0.00615034
0.0103935
-0.0117736
-0.00689963
-0.0122483
-0.0061512
-0.0126416
-0.00556983
-0.0129836
-0.00444642
-0.0132918
-0.00343054
-0.0135553
-0.00234487
-0.0137859
-0.00143893
-0.013983
-0.000709064
-0.000288761
-0.0111575
-0.00523918
0.0102463
-0.011678
-0.00637908
-0.0121253
-0.00570389
-0.0125456
-0.00514955
-0.012921
-0.00407103
-0.0132841
-0.00306744
-0.0136132
-0.00201577
-0.0139209
-0.00113122
-0.0142026
-0.000427339
-1.87485e-05
-0.0497413
-0.00505617
0.0495583
-0.0509694
-0.00515096
-0.0522838
-0.0043895
-0.0535909
-0.00384252
-0.0546776
-0.00298425
-0.0555243
-0.00222082
-0.0560976
-0.00144244
-0.0564208
-0.000808037
-0.0565413
-0.000306821
-2.3081e-05
-0.0588602
-0.00502334
0.0588274
-0.0596249
-0.00438629
-0.0603687
-0.00364568
-0.0611931
-0.00301815
-0.0618713
-0.00230596
-0.062403
-0.00168914
-0.0627534
-0.00109206
-0.0629393
-0.000622164
-0.0629996
-0.000246486
-2.85064e-05
-0.0701225
-0.00510446
0.0702036
-0.0704922
-0.0040166
-0.0708801
-0.00325769
-0.0713708
-0.00252751
-0.0717601
-0.00191666
-0.0720882
-0.00136105
-0.0722867
-0.000893561
-0.0723928
-0.00051608
-0.0724149
-0.000224372
-3.15421e-05
-0.0840755
-0.00515225
0.0841233
-0.0843015
-0.00379066
-0.0845139
-0.00304527
-0.0848234
-0.00221797
-0.0850474
-0.00169273
-0.0852599
-0.00114856
-0.0853733
-0.000780074
-0.0854456
-0.000443872
-0.0854541
-0.000215854
-2.93771e-05
-0.100743
-0.00498092
0.100572
-0.100997
-0.00353622
-0.101201
-0.00284138
-0.101456
-0.00196349
-0.101629
-0.00151985
-0.101803
-0.0009742
-0.101895
-0.000687629
-0.101973
-0.000365783
-0.101996
-0.000193404
-1.5108e-05
-0.119051
-0.00449803
0.118568
-0.119453
-0.0031346
-0.119773
-0.00252171
-0.120059
-0.00167704
-0.120266
-0.00131271
-0.12045
-0.000790629
-0.120566
-0.000571557
-0.120671
-0.000260327
-0.120722
-0.000142751
7.82515e-06
-0.136952
-0.00368417
0.136138
-0.137546
-0.00254017
-0.138028
-0.00204041
-0.138383
-0.00132214
-0.138658
-0.00103775
-0.138862
-0.000586367
-0.139013
-0.00042071
-0.139129
-0.000144007
-0.139196
-7.54055e-05
2.91787e-05
-0.152092
-0.00260064
0.151008
-0.152855
-0.00177688
-0.153472
-0.00142302
-0.153888
-0.000906607
-0.154216
-0.000709511
-0.154425
-0.000377422
-0.154584
-0.000261328
-0.154676
-5.28238e-05
-0.15473
-2.09054e-05
3.53147e-05
-0.162748
-0.00134298
0.161491
-0.163617
-0.000907975
-0.164314
-0.000726376
-0.164763
-0.000457521
-0.165115
-0.000357801
-0.16531
-0.000181902
-0.16545
-0.000121427
-0.165494
-8.36725e-06
-0.165516
6.09062e-07
2.36625e-05
-0.168179
0.166836
-0.169087
-0.169813
-0.170271
-0.170628
-0.17081
-0.170932
-0.17094
-0.17094
-0.0114271
0.0505612
0.0104242
-0.012152
0.0595522
-0.0127412
0.0707928
-0.0130549
0.0844371
-0.0128705
0.100387
-0.0119265
0.117624
-0.0100571
0.134269
-0.00728893
0.14824
-0.00383245
0.158034
0.163003
-0.0108422
0.0513182
0.0100853
-0.0115183
0.0602283
-0.0120384
0.0713129
-0.012266
0.0846647
-0.0120074
0.100128
-0.0110421
0.116659
-0.00924576
0.132472
-0.00666324
0.145657
-0.00349027
0.154861
0.159513
-0.0102861
0.0520173
0.00958699
-0.0108973
0.0608395
-0.0113391
0.0717547
-0.0114913
0.0848169
-0.0111823
0.0998194
-0.0102248
0.115702
-0.00852096
0.130769
-0.00611989
0.143256
-0.00319899
0.15194
0.156314
-0.00963718
0.0526924
0.008962
-0.0101877
0.06139
-0.010548
0.072115
-0.0106267
0.0848956
-0.0102765
0.0994692
-0.0093415
0.114767
-0.00774726
0.129174
-0.0055447
0.141054
-0.00289209
0.149288
0.153422
-0.00887961
0.053335
0.00823701
-0.00937196
0.0618823
-0.00965891
0.072402
-0.00967608
0.0849128
-0.00930057
0.0990937
-0.00840584
0.113872
-0.00693761
0.127706
-0.00494718
0.139063
-0.00257437
0.146915
0.150848
-0.00803234
0.0539349
0.00743249
-0.00845985
0.0623099
-0.00867719
0.0726193
-0.00864381
0.0848794
-0.00825901
0.0987089
-0.00742283
0.113036
-0.00609738
0.126381
-0.00433215
0.137298
-0.00224873
0.144831
0.148599
-0.00711326
0.0544833
0.0065649
-0.00747109
0.0626677
-0.00762027
0.0727685
-0.00754434
0.0848035
-0.00716315
0.0983277
-0.00640087
0.112273
-0.00523254
0.125212
-0.0037037
0.135769
-0.00191735
0.143045
0.146682
-0.00613704
0.0549696
0.00565072
-0.00642415
0.0629548
-0.00650768
0.072852
-0.00639627
0.0846921
-0.006029
0.0979604
-0.00535236
0.111597
-0.0043517
0.124212
-0.00306704
0.134485
-0.00158271
0.141561
0.145099
-0.00511999
0.055382
0.00470755
-0.00533754
0.0631723
-0.0053584
0.0728729
-0.00521817
0.0845519
-0.00487312
0.0976154
-0.00429075
0.111014
-0.00346456
0.123385
-0.00242824
0.133448
-0.00124776
0.14038
0.143851
-0.00407968
0.0557079
0.00375383
-0.00423129
0.063324
-0.00419133
0.0728329
-0.00402813
0.0843887
-0.00371127
0.0972985
-0.00322891
0.110532
-0.00258073
0.122737
-0.00179352
0.132661
-0.000915576
0.139502
0.142936
-0.0030443
0.0559395
0.00281264
-0.00313023
0.0634099
-0.0030301
0.0727328
-0.00284778
0.0842063
-0.00256188
0.0970126
-0.00218189
0.110152
-0.00171158
0.122267
-0.00117026
0.13212
-0.000589906
0.138922
0.142346
-0.00203419
0.0560793
0.00189446
-0.00204914
0.0634248
-0.00189482
0.0725785
-0.0016935
0.084005
-0.00143946
0.0967586
-0.00115971
0.109872
-0.000863631
0.121971
-0.00056389
0.13182
-0.000273198
0.138631
0.142072
-0.00108056
0.0561417
0.00101815
-0.00101387
0.0633581
-0.000817259
0.0723818
-0.000596144
0.0837839
-0.000376664
0.0965391
-0.000194429
0.10969
-6.7189e-05
0.121844
-2.33137e-06
0.131755
2.17922e-05
0.138607
0.142094
-0.000217821
0.0561705
0.000189019
-5.83854e-05
0.0631987
0.000179136
0.0721443
0.000441881
0.0835212
0.000644025
0.0963369
0.000744082
0.10959
0.000718141
0.12187
0.000567339
0.131906
0.000316054
0.138858
0.14241
0.000631614
0.0561179
-0.000579051
0.000874531
0.0629558
0.00116052
0.0718583
0.00143405
0.0832476
0.00160957
0.0961614
0.00162511
0.109575
0.00144994
0.122045
0.00109033
0.132265
0.000588182
0.139361
0.142998
0.00140812
0.0559995
-0.00128971
0.00171648
0.0626474
0.00204196
0.0715329
0.00233645
0.0829531
0.00249302
0.0960049
0.00243535
0.109632
0.00212486
0.122355
0.00157319
0.132817
0.000838581
0.140095
0.143837
0.00209655
0.0558473
-0.00194439
0.0024708
0.0622732
0.00283131
0.0711723
0.0031473
0.0826372
0.00329142
0.0958607
0.00317211
0.109752
0.0027413
0.122786
0.00201498
0.133543
0.00106692
0.141043
0.144904
0.00270636
0.0556931
-0.00255212
0.00313601
0.0618435
0.00352464
0.0707837
0.00385762
0.0823042
0.00399164
0.0957267
0.00382
0.109923
0.00328442
0.123322
0.00240403
0.134424
0.00126674
0.14218
0.146171
0.00325444
0.0555683
-0.00312967
0.0037229
0.0613751
0.00413884
0.0703678
0.00448943
0.0819536
0.00462032
0.0955958
0.00440677
0.110137
0.00377842
0.12395
0.00275744
0.135445
0.00144689
0.143491
0.147618
0.00365858
0.0555824
-0.00367269
0.0041242
0.0609095
0.00456509
0.0699269
0.00492395
0.0815947
0.00505196
0.0954678
0.00481239
0.110376
0.00412273
0.12464
0.00300403
0.136564
0.00156929
0.144926
0.149187
-0.0368277
0.051189
0.041221
-0.0334195
0.0575013
-0.0311657
0.067673
-0.0287861
0.0792152
-0.0259307
0.0926124
-0.022273
0.106719
-0.01769
0.120057
-0.0122815
0.131155
-0.00628413
0.138928
0.142903
-0.0450759
0.0473705
0.0488944
-0.0419577
0.0543832
-0.0391327
0.064848
-0.0358992
0.0759818
-0.0321333
0.0888465
-0.0274208
0.102006
-0.0216726
0.114308
-0.0150113
0.124494
-0.00770452
0.131622
0.135198
-0.0543988
0.0437508
0.0580185
-0.0512177
0.0512021
-0.0477413
0.0613716
-0.0436453
0.0718857
-0.0387939
0.0839951
-0.0327878
0.0959999
-0.0256858
0.107206
-0.0176463
0.116454
-0.00894329
0.122919
0.126255
-0.0656246
0.0402838
0.0690916
-0.0619523
0.0475298
-0.0576563
0.0570756
-0.0525795
0.0668088
-0.0464711
0.0778867
-0.0389921
0.0885209
-0.0303585
0.0985729
-0.0207789
0.106875
-0.0105943
0.112734
0.115661
-0.0781677
0.0362656
0.082186
-0.0736795
0.0430415
-0.0683111
0.0517073
-0.0618561
0.0603538
-0.0540529
0.0700836
-0.0447699
0.0792379
-0.0343909
0.088194
-0.0231488
0.0956326
-0.0114911
0.101076
0.10417
-0.0925838
0.0322372
0.0966122
-0.0869745
0.0374322
-0.0803274
0.0450602
-0.0722664
0.0522928
-0.0626842
0.0605014
-0.051648
0.0682016
-0.0394856
0.0760316
-0.0264983
0.0826453
-0.0134104
0.0879884
0.0907591
-0.106315
0.0263458
0.112207
-0.0994943
0.030611
-0.0912671
0.036833
-0.0811357
0.0421614
-0.0694274
0.0487932
-0.0561528
0.054927
-0.0416637
0.0615425
-0.0264788
0.0674604
-0.0118565
0.0733661
0.0789026
-0.120892
0.0205678
0.12667
-0.112927
0.0226461
-0.103322
0.0272276
-0.0918484
0.0306881
-0.0788605
0.0358053
-0.064167
0.0402335
-0.048298
0.0456735
-0.0318181
0.0509805
-0.0167797
0.0583277
0.0621229
-0.135103
0.0100007
0.14567
-0.123852
0.0113952
-0.110499
0.013875
-0.0955215
0.0157105
-0.0783411
0.0186249
-0.0593093
0.0212017
-0.0383634
0.0247275
-0.0164318
0.029049
0.00394211
0.0379538
0.066065
-0.238603
0.248603
-0.227207
-0.213332
-0.197622
-0.178997
-0.157795
-0.133068
-0.104019
-0.066065
0.00194178
0.0426768
-0.00339749
0.000640799
0.0501954
-0.000346527
0.0590058
-0.00102035
0.0697654
-0.00143001
0.0825956
-0.00157746
0.0967597
-0.0013521
0.111982
-0.00101306
0.126331
-0.00170433
0.146361
0.246899
0.0022909
0.0440919
-0.00370606
0.00101968
0.0514666
-9.75412e-06
0.0600352
-0.000694721
0.0704504
-0.00114551
0.0830464
-0.00132434
0.0969385
-0.00117748
0.111835
-0.000889099
0.126042
-0.00150404
0.146976
0.245395
0.00271149
0.0454069
-0.00402646
0.00147912
0.052699
0.000503001
0.0610114
-0.000243564
0.071197
-0.000707381
0.0835102
-0.000927525
0.0971586
-0.000847259
0.111754
-0.000666106
0.125861
-0.00130264
0.147613
0.244092
0.00313472
0.0466231
-0.0043509
0.00194743
0.0538863
0.00100371
0.0619551
0.000259544
0.0719411
-0.000210784
0.0839806
-0.000473958
0.0974218
-0.000439207
0.11172
-0.000390555
0.125813
-0.00104402
0.148266
0.243048
0.00355202
0.0477374
-0.00466633
0.00242829
0.05501
0.00152646
0.0628569
0.00082025
0.0726473
0.000339546
0.0844613
-2.55205e-06
0.0977639
3.29823e-05
0.111684
-7.97115e-05
0.125925
-0.000739778
0.148926
0.242308
0.00397713
0.0487224
-0.00496216
0.0029391
0.056048
0.00208733
0.0637087
0.00141799
0.0733167
0.000947615
0.0849316
0.000625448
0.0980861
0.00052046
0.111789
0.000344369
0.126101
-0.000394846
0.149665
0.241913
0.00440912
0.0495443
-0.00523098
0.00347803
0.0569791
0.00268597
0.0645007
0.00205878
0.0739439
0.00159936
0.0853911
0.00126232
0.0984231
0.0010722
0.111979
0.000802633
0.126371
2.50081e-06
0.150465
0.241916
0.00484232
0.0501682
-0.00546622
0.00403559
0.0577858
0.00331342
0.0652229
0.00273493
0.0745224
0.00229002
0.085836
0.00193655
0.0987766
0.00166652
0.112249
0.00128991
0.126748
0.000371589
0.151384
0.242288
0.00526834
0.0505603
-0.00566044
0.00460102
0.0584532
0.00395905
0.0658649
0.00343575
0.0750457
0.00301164
0.0862601
0.00264237
0.0991459
0.00229411
0.112597
0.00180728
0.127234
0.000786652
0.152404
0.243074
0.00567455
0.050691
-0.00580533
0.00516234
0.0589654
0.00461169
0.0664155
0.00414996
0.0755074
0.00375412
0.0866559
0.00336965
0.0995303
0.00294662
0.11302
0.00234941
0.127832
0.00122284
0.153531
0.244297
0.00604297
0.0505381
-0.00589002
0.00570227
0.0593061
0.00525589
0.0668619
0.00486136
0.0759019
0.00450011
0.0870172
0.00410412
0.0999263
0.00361179
0.113513
0.00290647
0.128537
0.00167063
0.154767
0.245968
0.0063656
0.0500893
-0.00591678
0.0062134
0.0594583
0.00588343
0.0671919
0.00556242
0.0762229
0.00524169
0.0873379
0.0048399
0.100328
0.00428407
0.114069
0.00347421
0.129347
0.00212698
0.156114
0.248095
0.00662485
0.0493469
-0.0058825
0.0066775
0.0594056
0.00647428
0.0673951
0.00623375
0.0764635
0.0059601
0.0876116
0.00556069
0.100728
0.00494934
0.11468
0.00404186
0.130254
0.00258478
0.157571
0.250679
0.00680948
0.0483294
-0.00579197
0.00707982
0.0591353
0.00701278
0.0674621
0.0068596
0.0766166
0.00664016
0.087831
0.00625271
0.101115
0.00559585
0.115337
0.0046006
0.13125
0.00303753
0.159134
0.253717
0.00691168
0.047073
-0.00565531
0.00740767
0.0586393
0.00748458
0.0673852
0.00742492
0.0766763
0.00726744
0.0879885
0.0069024
0.10148
0.00621239
0.116027
0.00514191
0.13232
0.00347926
0.160797
0.257196
0.00692937
0.045632
-0.00548833
0.00765143
0.0579172
0.00787701
0.0671596
0.00791607
0.0766372
0.00782852
0.088076
0.00749618
0.101812
0.00678725
0.116736
0.00565677
0.133451
0.00390165
0.162552
0.261098
0.00686922
0.0440734
-0.00531059
0.0078055
0.056981
0.00818008
0.0667851
0.00832224
0.0764951
0.00831172
0.0880866
0.00802398
0.1021
0.00731264
0.117447
0.00613966
0.134624
0.00430043
0.164391
0.265398
0.00674685
0.0424639
-0.00513738
0.00786801
0.0558598
0.00838756
0.0662655
0.00863273
0.0762499
0.00870234
0.088017
0.00846867
0.102334
0.00777102
0.118145
0.00657754
0.135817
0.00466216
0.166307
0.27006
0.00656427
0.0408494
-0.00494981
0.00783774
0.0545863
0.00850645
0.0655968
0.00885861
0.0758977
0.00901425
0.0878613
0.00884624
0.102502
0.00817632
0.118815
0.00698116
0.137012
0.00499297
0.168295
0.275053
0.00628922
0.0391879
-0.00462769
0.00763126
0.0532443
0.00844425
0.0647838
0.00889971
0.0754423
0.00914734
0.0876137
0.0090563
0.102593
0.00844938
0.119422
0.00727623
0.138185
0.00528678
0.170284
0.28034
-0.0175771
0.0390274
0.0177376
-0.0156229
0.0512901
-0.0129761
0.062137
-0.00998623
0.0724525
-0.00691335
0.0845408
-0.00363397
0.0993134
-0.000243481
0.116031
0.00227689
0.135665
0.00176317
0.170798
0.282103
-0.0307091
0.0375362
0.0322002
-0.0278984
0.0484795
-0.0239902
0.0582288
-0.019583
0.0680453
-0.0149566
0.0799144
-0.00993495
0.0942918
-0.00474912
0.110845
-0.000554588
0.13147
0.000450824
0.169793
0.282554
-0.0450323
0.0352105
0.047358
-0.0410957
0.0445429
-0.0358134
0.0529464
-0.030025
0.0622568
-0.0238337
0.0737232
-0.0169365
0.0873945
-0.00969955
0.103608
-0.00351038
0.125281
-0.00086305
0.167145
0.281691
-0.0606178
0.0320064
0.0638219
-0.0552778
0.0392028
-0.0488237
0.0464924
-0.0417716
0.0552047
-0.0338767
0.0658283
-0.0249064
0.0784242
-0.0154835
0.0941855
-0.00717529
0.116973
-0.00251393
0.162484
0.279177
-0.0777087
0.0274185
0.0822966
-0.071174
0.0326682
-0.0639031
0.0392214
-0.0554639
0.0467656
-0.0456741
0.0560385
-0.0345758
0.0673259
-0.0229168
0.0825265
-0.012235
0.106291
-0.00490664
0.155156
0.274271
-0.0969818
0.0222662
0.102134
-0.0895751
0.0252614
-0.0813133
0.0309597
-0.071253
0.0367053
-0.0596837
0.0444692
-0.0466539
0.0542961
-0.0329827
0.0688553
-0.0198703
0.0931788
-0.00925884
0.144544
0.265012
-0.119124
0.0154119
0.125978
-0.111262
0.0173999
-0.102206
0.0219039
-0.0912092
0.0257081
-0.078802
0.0320621
-0.0645916
0.0400856
-0.0494112
0.0536749
-0.0337551
0.0775227
-0.0181732
0.128962
0.246839
-0.149909
0.00837062
0.156951
-0.141602
0.00909241
-0.131835
0.0121373
-0.120505
0.0143778
-0.107618
0.0191755
-0.0929719
0.0254391
-0.0768231
0.0375261
-0.0589747
0.0596743
-0.0362041
0.106192
0.210634
-0.206666
0.00216481
0.212872
-0.200224
0.00265021
-0.192086
0.00399922
-0.183113
0.00540445
-0.172142
0.00820496
-0.159158
0.0124551
-0.142193
0.0205609
-0.11775
0.0352312
-0.0761342
0.0645762
0.1345
-0.287582
0.289747
-0.284932
-0.280933
-0.275529
-0.267324
-0.254869
-0.234308
-0.199076
-0.1345
0.00217626
0.018584
-0.00302262
0.000611927
0.0337646
-0.000991673
0.0489616
-0.00242387
0.0652541
-0.00358566
0.0834584
-0.00454351
0.103092
-0.0051456
0.12658
-0.00558857
0.157394
-0.00456134
0.211845
0.285186
0.00191932
0.0190956
-0.00243099
0.000655702
0.0350282
-0.000806247
0.0504235
-0.00218419
0.0666321
-0.00333861
0.0846128
-0.00428346
0.104037
-0.00490154
0.127198
-0.00536215
0.157854
-0.00427676
0.210759
0.280909
0.00176413
0.0193408
-0.00200925
0.000789293
0.036003
-0.000496709
0.0517095
-0.00176249
0.0678979
-0.00286348
0.0857138
-0.003779
0.104952
-0.00442534
0.127844
-0.00485941
0.158288
-0.00390905
0.209809
0.277
0.00169152
0.0193598
-0.00171053
0.00099172
0.0367028
-0.000121179
0.0528224
-0.00125131
0.069028
-0.00227664
0.0867391
-0.00316784
0.105843
-0.00383235
0.128509
-0.00428422
0.15874
-0.00348806
0.209013
0.273512
0.00169616
0.0191654
-0.00150178
0.00127331
0.0371257
0.000375765
0.0537199
-0.000655581
0.0700593
-0.00160286
0.0876864
-0.00246835
0.106709
-0.00315522
0.129196
-0.00364447
0.159229
-0.00302069
0.208389
0.270491
0.00177446
0.0187579
-0.001367
0.00163738
0.0372628
0.000962373
0.054395
8.52903e-06
0.0710132
-0.000829218
0.0885241
-0.00167716
0.107557
-0.00239206
0.129911
-0.00293922
0.159777
-0.00251405
0.207964
0.267977
0.00191867
0.0181374
-0.00129809
0.00207717
0.0371043
0.00163347
0.0548386
0.00087346
0.0717732
4.56274e-05
0.089352
-0.000799619
0.108402
-0.00153767
0.130649
-0.00217212
0.160411
-0.00197436
0.207766
0.266003
0.00211823
0.0173103
-0.00129111
0.00258121
0.0366413
0.00237786
0.055042
0.00177463
0.0723764
0.00101702
0.0901096
0.000150517
0.109269
-0.000589939
0.131389
-0.00135493
0.161176
-0.00140615
0.207817
0.264597
0.00236128
0.0162948
-0.00134579
0.00313403
0.0358685
0.00318083
0.0549952
0.00273909
0.0728182
0.00205595
0.0907927
0.00124063
0.110084
0.000412502
0.132217
-0.000508293
0.162097
-0.000811478
0.208121
0.263785
0.00263628
-0.00146593
0.00371675
0.00402726
0.0037545
0.00315033
0.00234602
0.00143159
0.000399477
-0.000184501
0.000177718
-0.00136614
0.000516541
-0.00316319
0.000947733
-0.00435994
0.00143271
-0.00511079
0.00195081
-0.00553054
0.00249263
-0.00570684
0.00305614
-0.00570705
0.00364496
-0.00558262
0.00427031
-0.00537341
-0.0051148
0.000181407
-0.00154754
0.000514261
-0.00349604
0.000925189
-0.00477087
0.00137473
-0.00556033
0.00184332
-0.00599913
0.00232358
-0.00618709
0.00281542
-0.00619889
0.00332333
-0.00609052
0.00385483
-0.00590491
-0.0056783
0.00017661
-0.00172415
0.00048597
-0.0038054
0.000853206
-0.0051381
0.00124021
-0.00594733
0.00163023
-0.00638916
0.00201921
-0.00657607
0.00241023
-0.00658992
0.00281004
-0.00649033
0.00322633
-0.0063212
-0.00611702
0.000162454
-0.00188661
0.000430261
-0.00407321
0.000730915
-0.00543876
0.00103018
-0.00624659
0.00131572
-0.0066747
0.00158772
-0.00684807
0.00185288
-0.00685508
0.00212066
-0.00675812
0.00240073
-0.00660127
-0.00641783
0.000138562
-0.00202517
0.000347323
-0.00428197
0.000560596
-0.00565203
0.000750612
-0.0064366
0.000910825
-0.00683492
0.00104613
-0.00698338
0.00116677
-0.00697572
0.00128457
-0.00687592
0.00141068
-0.00672737
-0.0065638
0.000105105
-0.00213028
0.00023897
-0.00441583
0.000347468
-0.00576053
0.000411732
-0.00650087
0.000431959
-0.00685514
0.00041778
-0.0069692
0.00038243
-0.00694037
0.000339442
-0.00683293
0.000300494
-0.00668843
-0.00653449
6.28393e-05
-0.00219311
0.000108524
-0.00446152
9.92169e-05
-0.00575122
2.69089e-05
-0.00642856
-0.000100985
-0.00672725
-0.00027051
-0.00679967
-0.000466302
-0.00674458
-0.000674422
-0.00662481
-0.000883598
-0.00647925
-0.0063345
1.30383e-05
-0.00220615
-3.93144e-05
-0.00440917
-0.00017467
-0.00561587
-0.000388555
-0.00621468
-0.000666484
-0.00644932
-0.000991
-0.00647516
-0.00134567
-0.0063899
-0.00171705
-0.00625343
-0.00209499
-0.00610131
-0.00595684
-4.27873e-05
-0.00216337
-0.000199227
-0.00425273
-0.000463708
-0.00535139
-0.000818698
-0.00585969
-0.00124307
-0.00602494
-0.00171685
-0.00600139
-0.00222351