/*--------------------------------*- C++ -*----------------------------------*\
  =========                 |
  \\      /  F ield         | OpenFOAM: The Open Source CFD Toolbox
   \\    /   O peration     | Website:  https://openfoam.org
    \\  /    A nd           | Version:  7
     \\/     M anipulation  |
\*---------------------------------------------------------------------------*/
FoamFile
{
    version     2.0;
    format      ascii;
    class       volScalarField;
    location    "8.8";
    object      p;
}
// * * * * * * * * * * * * * * * * * * * * * * * * * * * * * * * * * * * * * //

dimensions      [0 2 -2 0 0 0 0];

internalField   nonuniform List<scalar> 
32000
(
0.232655
0.233338
0.233736
0.234134
0.234503
0.234851
0.235168
0.23546
0.235744
0.23604
0.236364
0.236728
0.237142
0.237618
0.238169
0.238808
0.239549
0.240405
0.241394
0.242528
0.243818
0.245269
0.246883
0.248659
0.250597
0.252692
0.254939
0.257329
0.259852
0.262497
0.265254
0.268111
0.271055
0.274071
0.277145
0.280263
0.283411
0.286582
0.289748
0.292846
0.232881
0.233541
0.233915
0.234282
0.23462
0.234937
0.235225
0.235487
0.235743
0.236009
0.2363
0.236629
0.237007
0.237444
0.237955
0.238551
0.239244
0.240048
0.240979
0.242052
0.243275
0.244655
0.246192
0.247886
0.249736
0.25174
0.253894
0.25619
0.258618
0.261169
0.263833
0.266598
0.269452
0.272381
0.275372
0.278409
0.281482
0.28458
0.287671
0.290705
0.233113
0.233747
0.234095
0.234433
0.234739
0.235023
0.235281
0.235515
0.235744
0.235983
0.236244
0.23654
0.236883
0.237285
0.237758
0.238314
0.238964
0.239721
0.240602
0.241618
0.242781
0.244095
0.245561
0.247177
0.248944
0.250861
0.252925
0.25513
0.257467
0.259927
0.2625
0.265174
0.267939
0.27078
0.273685
0.276641
0.279635
0.282658
0.285672
0.28864
0.23334
0.233941
0.234268
0.234578
0.234854
0.235108
0.235338
0.235547
0.235752
0.235966
0.2362
0.236465
0.236776
0.237145
0.237584
0.238104
0.238715
0.239431
0.240265
0.241232
0.24234
0.243593
0.244991
0.246534
0.248222
0.250057
0.252036
0.254153
0.256402
0.258773
0.261256
0.263841
0.266517
0.26927
0.272089
0.274961
0.277876
0.280822
0.283755
0.286653
0.233572
0.234141
0.234446
0.23473
0.234976
0.2352
0.235402
0.235588
0.23577
0.235961
0.236169
0.236407
0.236688
0.237027
0.237434
0.237921
0.238498
0.239177
0.239971
0.240892
0.24195
0.243147
0.244482
0.245956
0.24757
0.249327
0.251225
0.253259
0.255423
0.257708
0.260103
0.2626
0.265187
0.267854
0.270587
0.273375
0.276208
0.279075
0.281925
0.284751
0.233809
0.234341
0.234623
0.234881
0.2351
0.235295
0.235472
0.235635
0.235797
0.235966
0.236151
0.236363
0.236619
0.23693
0.23731
0.237767
0.238314
0.238961
0.239719
0.240601
0.241613
0.242757
0.244033
0.245443
0.246989
0.248673
0.250494
0.25245
0.254532
0.256732
0.259042
0.261453
0.263954
0.266533
0.26918
0.271884
0.274635
0.277421
0.280186
0.282937
0.234052
0.234544
0.234804
0.235036
0.235229
0.235398
0.23555
0.235693
0.235835
0.235984
0.236148
0.236338
0.236571
0.236859
0.237213
0.237646
0.238166
0.238785
0.239513
0.240359
0.241329
0.242425
0.243646
0.244997
0.246479
0.248095
0.249845
0.251725
0.253729
0.255848
0.258075
0.260402
0.262818
0.265311
0.267872
0.270491
0.273158
0.275862
0.27854
0.281215
0.234301
0.234751
0.234988
0.235196
0.235363
0.235508
0.235638
0.235761
0.235885
0.236015
0.236161
0.236333
0.236546
0.236813
0.237146
0.237557
0.238056
0.238651
0.239353
0.240168
0.2411
0.242151
0.243323
0.244619
0.246042
0.247596
0.249279
0.251087
0.253016
0.255057
0.257204
0.259449
0.261781
0.26419
0.266666
0.269199
0.271783
0.274403
0.276992
0.279588
0.234555
0.234961
0.235175
0.235359
0.235503
0.235626
0.235735
0.235839
0.235946
0.236061
0.236191
0.236347
0.236544
0.236793
0.237109
0.237502
0.237984
0.238561
0.23924
0.240027
0.240925
0.241936
0.243063
0.24431
0.24568
0.247176
0.248796
0.250537
0.252394
0.25436
0.25643
0.258595
0.260845
0.263171
0.265563
0.268011
0.27051
0.273045
0.275545
0.27806
0.234813
0.235174
0.235365
0.235526
0.235649
0.235752
0.235842
0.235929
0.236019
0.23612
0.236238
0.236382
0.236566
0.236801
0.237103
0.237483
0.237951
0.238513
0.239175
0.239938
0.240806
0.241782
0.242869
0.244071
0.245392
0.246834
0.248396
0.250074
0.251863
0.253759
0.255754
0.257842
0.260012
0.262256
0.264564
0.266928
0.269342
0.271792
0.274201
0.276634
0.235077
0.235389
0.235557
0.235697
0.235801
0.235885
0.235957
0.236028
0.236105
0.236195
0.236302
0.236437
0.236611
0.236837
0.237129
0.2375
0.237959
0.23851
0.239157
0.2399
0.240742
0.241687
0.242739
0.243902
0.24518
0.246573
0.248081
0.249699
0.251425
0.253252
0.255177
0.25719
0.259283
0.261446
0.263672
0.265952
0.268281
0.270645
0.272963
0.275312
0.235345
0.235606
0.235752
0.23587
0.235957
0.236024
0.236081
0.236138
0.236204
0.236284
0.236384
0.236513
0.236681
0.2369
0.237187
0.237554
0.238007
0.238551
0.239186
0.239913
0.240734
0.241654
0.242675
0.243804
0.245043
0.246392
0.247849
0.249412
0.251078
0.252842
0.254698
0.256639
0.258657
0.260742
0.262887
0.265083
0.267328
0.269607
0.271834
0.274098
0.235617
0.235826
0.235949
0.236047
0.236117
0.236169
0.236213
0.236259
0.236315
0.236388
0.236484
0.236609
0.236774
0.236993
0.237279
0.237645
0.238096
0.238635
0.239261
0.239976
0.240781
0.24168
0.242677
0.243776
0.24498
0.246289
0.247701
0.249213
0.250823
0.252526
0.254318
0.256191
0.258136
0.260145
0.26221
0.264324
0.266485
0.268678
0.270814
0.272992
0.235895
0.236048
0.236148
0.236226
0.236281
0.23632
0.236353
0.236389
0.236438
0.236506
0.2366
0.236725
0.236892
0.237113
0.237403
0.237771
0.238224
0.238761
0.239382
0.240088
0.240881
0.241765
0.242742
0.243817
0.244992
0.246266
0.247636
0.2491
0.250658
0.252306
0.254037
0.255844
0.257719
0.259654
0.261641
0.263674
0.265752
0.267861
0.269906
0.271998
0.236177
0.236273
0.236349
0.236408
0.236447
0.236475
0.236499
0.236528
0.236572
0.236639
0.236733
0.236861
0.237033
0.237261
0.237559
0.237934
0.23839
0.238928
0.239547
0.240249
0.241035
0.241908
0.242871
0.243927
0.245076
0.246319
0.247651
0.249074
0.250584
0.25218
0.253854
0.255599
0.257407
0.25927
0.261181
0.263135
0.265131
0.267156
0.269112
0.271117
0.236464
0.2365
0.236552
0.236591
0.236616
0.236634
0.236651
0.236676
0.236717
0.236784
0.236881
0.237015
0.237197
0.237437
0.237745
0.23813
0.238593
0.239135
0.239756
0.240458
0.241242
0.242109
0.243062
0.244103
0.245232
0.246447
0.247748
0.249132
0.2506
0.252147
0.253768
0.255454
0.257197
0.258991
0.260829
0.262706
0.264622
0.266565
0.268433
0.270351
0.236754
0.236729
0.236756
0.236774
0.236787
0.236797
0.236809
0.236831
0.236873
0.236942
0.237045
0.237189
0.237383
0.237638
0.237961
0.238358
0.238831
0.23938
0.240008
0.240714
0.2415
0.242365
0.243313
0.244344
0.245457
0.24665
0.247923
0.249274
0.250703
0.252206
0.253777
0.255407
0.257089
0.258817
0.260584
0.262387
0.264226
0.266088
0.26787
0.2697
0.237047
0.236959
0.236961
0.236957
0.236958
0.236961
0.236971
0.236993
0.237037
0.237111
0.237223
0.23738
0.237591
0.237864
0.238205
0.238618
0.239104
0.239664
0.240302
0.241016
0.241808
0.242677
0.243624
0.244648
0.24575
0.246925
0.248174
0.249497
0.250892
0.252355
0.253879
0.255457
0.257082
0.258747
0.260447
0.262177
0.263941
0.265725
0.267423
0.269166
0.237342
0.237189
0.237164
0.23714
0.237128
0.237126
0.237136
0.237161
0.23721
0.237293
0.237416
0.23759
0.23782
0.238114
0.238476
0.238907
0.239409
0.239985
0.240636
0.241363
0.242164
0.24304
0.243991
0.245014
0.246107
0.24727
0.248501
0.249799
0.251164
0.252591
0.254073
0.255603
0.257173
0.258779
0.260415
0.262077
0.263768
0.265476
0.267092
0.268748
0.237637
0.237417
0.237366
0.23732
0.237297
0.237292
0.237303
0.237333
0.237391
0.237484
0.237622
0.237815
0.238068
0.238386
0.23877
0.239223
0.239745
0.24034
0.241009
0.241751
0.242567
0.243454
0.244411
0.245437
0.246527
0.247681
0.248898
0.250177
0.251516
0.252911
0.254355
0.25584
0.257361
0.258911
0.260487
0.262083
0.263705
0.26534
0.266877
0.268446
0.23793
0.237642
0.237564
0.237496
0.237463
0.237456
0.23747
0.237509
0.237577
0.237684
0.23784
0.238055
0.238333
0.238676
0.239086
0.239564
0.24011
0.240727
0.241417
0.24218
0.243013
0.243915
0.244883
0.245914
0.247006
0.248156
0.249364
0.250628
0.251945
0.253312
0.254722
0.256167
0.257643
0.259142
0.260661
0.262196
0.263751
0.265315
0.266777
0.26826
0.238218
0.237861
0.237755
0.237667
0.237624
0.237616
0.237637
0.237685
0.237767
0.237891
0.238068
0.238307
0.238612
0.238984
0.239422
0.239927
0.240501
0.241144
0.241859
0.242645
0.243499
0.244419
0.245402
0.246443
0.24754
0.248691
0.249893
0.251146
0.252447
0.25379
0.25517
0.256581
0.258015
0.259467
0.260934
0.262412
0.263904
0.265401
0.266791
0.26819
0.238497
0.238071
0.237939
0.237831
0.23778
0.237772
0.2378
0.237861
0.237958
0.238102
0.238303
0.238569
0.238903
0.239306
0.239775
0.24031
0.240914
0.241587
0.24233
0.243143
0.244021
0.244963
0.245964
0.247019
0.248125
0.24928
0.250482
0.251728
0.253016
0.254341
0.255697
0.257077
0.258474
0.259884
0.261303
0.262727
0.264161
0.265594
0.266917
0.268233
0.238764
0.238269
0.238111
0.237984
0.237926
0.237921
0.237959
0.238034
0.23815
0.238316
0.238542
0.238838
0.239204
0.239639
0.240141
0.24071
0.241346
0.242052
0.242827
0.243669
0.244575
0.245542
0.246564
0.247637
0.248756
0.249919
0.251124
0.252368
0.253648
0.254959
0.256295
0.257649
0.259015
0.260388
0.261764
0.263139
0.264518
0.265892
0.267152
0.268388
0.239015
0.238454
0.238271
0.238126
0.238063
0.238062
0.23811
0.238202
0.238338
0.238529
0.238784
0.239111
0.23951
0.239979
0.240517
0.241122
0.241794
0.242535
0.243344
0.244219
0.245156
0.246151
0.247198
0.248292
0.249428
0.250603
0.251815
0.253061
0.254337
0.255639
0.25696
0.258292
0.259631
0.260972
0.26231
0.263642
0.264971
0.266291
0.267493
0.268651
0.239248
0.238621
0.238415
0.238254
0.238187
0.238191
0.238252
0.238362
0.238522
0.238739
0.239025
0.239385
0.239819
0.240325
0.2409
0.241543
0.242254
0.243032
0.243878
0.244788
0.245759
0.246786
0.247861
0.248978
0.250134
0.251325
0.252548
0.2538
0.255077
0.256374
0.257684
0.259
0.260317
0.26163
0.262936
0.26423
0.265515
0.266786
0.267936
0.269019
0.23946
0.238768
0.238541
0.238366
0.238297
0.238308
0.238382
0.238512
0.238697
0.238944
0.239262
0.239657
0.240128
0.240672
0.241286
0.241969
0.242721
0.243539
0.244424
0.245372
0.246379
0.247439
0.248545
0.24969
0.250869
0.252078
0.253316
0.254578
0.25586
0.257156
0.258459
0.259763
0.261063
0.262355
0.263634
0.264896
0.266143
0.26737
0.268475
0.269488
0.239647
0.238894
0.238647
0.23846
0.23839
0.238409
0.238498
0.238649
0.238861
0.239139
0.239492
0.239924
0.240433
0.241016
0.241672
0.242397
0.24319
0.244051
0.244977
0.245965
0.24701
0.248107
0.249246
0.25042
0.251625
0.252856
0.254112
0.255387
0.256677
0.257976
0.259277
0.260574
0.261863
0.263139
0.264397
0.265633
0.266847
0.268038
0.269105
0.270052
0.239807
0.238995
0.23873
0.238534
0.238465
0.238492
0.238598
0.238771
0.239012
0.239323
0.239712
0.240182
0.240731
0.241355
0.242052
0.242821
0.243658
0.244563
0.245531
0.246561
0.247646
0.248781
0.249955
0.251161
0.252394
0.253651
0.254928
0.25622
0.257522
0.258827
0.26013
0.261425
0.262707
0.263972
0.265216
0.266432
0.26762
0.268782
0.269818
0.270705
0.239935
0.239068
0.238788
0.238585
0.238518
0.238556
0.238678
0.238875
0.239145
0.239492
0.239919
0.240427
0.241017
0.241683
0.242423
0.243237
0.24412
0.245069
0.246082
0.247154
0.248281
0.249455
0.250666
0.251906
0.25317
0.254455
0.255755
0.257066
0.258383
0.259699
0.261007
0.262304
0.263585
0.264845
0.266079
0.267282
0.268452
0.269592
0.270607
0.271439
0.240029
0.239111
0.238819
0.238611
0.238548
0.238597
0.238737
0.238958
0.239259
0.239641
0.240107
0.240656
0.241287
0.241996
0.242781
0.243639
0.244569
0.245564
0.246622
0.247739
0.248908
0.250122
0.251371
0.252647
0.253944
0.255258
0.256584
0.257917
0.259252
0.260581
0.261899
0.263201
0.264485
0.265745
0.266976
0.268172
0.269332
0.270458
0.271461
0.272247
0.240086
0.239121
0.238819
0.238608
0.238552
0.238613
0.238772
0.239018
0.23935
0.239768
0.240274
0.240864
0.241536
0.242289
0.243119
0.244024
0.245001
0.246043
0.247146
0.248308
0.24952
0.250775
0.252064
0.253376
0.254708
0.256053
0.257407
0.258763
0.260117
0.261462
0.262792
0.264104
0.265395
0.266659
0.267893
0.26909
0.270246
0.271368
0.27237
0.273118
0.240101
0.239095
0.238786
0.238576
0.238527
0.238602
0.23878
0.239052
0.239416
0.23987
0.240415
0.241047
0.241762
0.242558
0.243434
0.244386
0.24541
0.246499
0.247649
0.248855
0.250111
0.251408
0.252736
0.254086
0.255452
0.256829
0.258212
0.259593
0.260968
0.26233
0.263675
0.265
0.266301
0.267574
0.268816
0.270019
0.271181
0.272309
0.27332
0.274041
0.240074
0.239031
0.238718
0.23851
0.238471
0.23856
0.238759
0.239057
0.239453
0.239943
0.240528
0.241201
0.241958
0.242799
0.243721
0.24472
0.245791
0.246927
0.248123
0.249375
0.250674
0.252012
0.25338
0.254767
0.256169
0.257578
0.258989
0.260396
0.261792
0.263173
0.264535
0.265875
0.267188
0.268474
0.269729
0.270944
0.272119
0.273263
0.274298
0.275004
0.24
0.238926
0.238612
0.238408
0.23838
0.238486
0.238706
0.239031
0.239458
0.239985
0.240609
0.241322
0.242122
0.243007
0.243975
0.245021
0.246139
0.247322
0.248564
0.24986
0.251202
0.252582
0.253988
0.255412
0.256848
0.258289
0.259729
0.261161
0.262579
0.263979
0.265359
0.266713
0.268042
0.269342
0.270611
0.271845
0.273041
0.274212
0.275287
0.275994
0.239877
0.238778
0.238465
0.238269
0.238254
0.238378
0.23862
0.238972
0.239431
0.239993
0.240655
0.241409
0.242251
0.243179
0.244192
0.245285
0.246449
0.247678
0.248965
0.250305
0.251689
0.253108
0.254552
0.256013
0.257482
0.258954
0.26042
0.261876
0.263315
0.264735
0.266131
0.267501
0.268843
0.270158
0.271445
0.2727
0.273923
0.275133
0.276266
0.276998
0.239704
0.238586
0.238277
0.23809
0.23809
0.238232
0.238498
0.238877
0.239367
0.239965
0.240664
0.241457
0.24234
0.243312
0.244369
0.245507
0.246717
0.24799
0.249321
0.250702
0.252127
0.253584
0.255065
0.25656
0.258061
0.259561
0.261053
0.262531
0.26399
0.265426
0.266837
0.268221
0.269575
0.270902
0.272205
0.273481
0.274736
0.275995
0.277209
0.277999
0.239478
0.238348
0.238045
0.237869
0.237885
0.238048
0.238337
0.238743
0.239265
0.239897
0.240632
0.241464
0.242387
0.243401
0.244501
0.245683
0.246936
0.248252
0.249625
0.251047
0.252509
0.254003
0.255518
0.257045
0.258576
0.260102
0.261617
0.263115
0.26459
0.266041
0.267464
0.268856
0.270218
0.271553
0.272866
0.27416
0.275444
0.276759
0.278086
0.279001
0.239198
0.238062
0.237767
0.237605
0.237639
0.237823
0.238136
0.23857
0.239122
0.239787
0.240558
0.241427
0.242389
0.243443
0.244585
0.245808
0.247102
0.248459
0.249871
0.251331
0.25283
0.254358
0.255904
0.25746
0.259018
0.260567
0.262102
0.263616
0.265105
0.266566
0.267995
0.269391
0.270753
0.272087
0.273399
0.274699
0.276005
0.277386
0.278903
0.28012
0.238863
0.237728
0.237443
0.237296
0.23735
0.237555
0.237893
0.238354
0.238936
0.239634
0.240439
0.241344
0.242343
0.243435
0.244616
0.245878
0.247211
0.248606
0.250055
0.25155
0.253082
0.25464
0.256216
0.257798
0.259378
0.260947
0.262498
0.264025
0.265522
0.266988
0.268417
0.269807
0.27116
0.272476
0.273765
0.275039
0.276329
0.277739
0.279419
0.281047
0.303498
0.318882
0.332447
0.343656
0.352655
0.359912
0.365681
0.370351
0.374171
0.377379
0.380104
0.382444
0.384486
0.38631
0.387936
0.389392
0.390702
0.391886
0.392944
0.393884
0.394717
0.395455
0.396088
0.396625
0.397062
0.397394
0.397637
0.397786
0.397836
0.397791
0.397644
0.397409
0.397073
0.396638
0.396103
0.395468
0.394755
0.393924
0.393183
0.392071
0.30146
0.316682
0.330412
0.341699
0.35081
0.358134
0.363962
0.368686
0.372551
0.375788
0.378538
0.380916
0.382994
0.384842
0.386495
0.38799
0.389332
0.39054
0.391621
0.392591
0.393454
0.394213
0.39487
0.395424
0.395878
0.396234
0.396495
0.396656
0.396722
0.396689
0.39656
0.396332
0.396011
0.395589
0.395066
0.39444
0.393736
0.392916
0.392183
0.391077
0.299486
0.314511
0.328397
0.339749
0.348969
0.356356
0.362242
0.36702
0.370929
0.374194
0.37697
0.379387
0.381501
0.383372
0.385054
0.386586
0.387961
0.389192
0.390298
0.391298
0.39219
0.39297
0.393651
0.394222
0.394693
0.395073
0.395351
0.395526
0.395609
0.395588
0.395478
0.39526
0.394952
0.394544
0.394033
0.393418
0.392723
0.391916
0.391191
0.390093
0.297576
0.312372
0.326408
0.33781
0.347128
0.354579
0.360524
0.365349
0.369299
0.372599
0.375407
0.377854
0.380002
0.381905
0.383617
0.385178
0.386584
0.387845
0.388979
0.390005
0.390922
0.391725
0.392428
0.393021
0.393512
0.393911
0.394206
0.394398
0.394497
0.394493
0.394398
0.394195
0.393901
0.393503
0.393004
0.392401
0.391718
0.390923
0.390207
0.38912
0.295735
0.31027
0.324444
0.335881
0.345288
0.352802
0.358806
0.363676
0.367665
0.371003
0.373845
0.376321
0.3785
0.380437
0.382181
0.383769
0.385204
0.386497
0.387662
0.388712
0.389654
0.39048
0.391205
0.391822
0.392333
0.392749
0.393061
0.393272
0.393387
0.393402
0.393321
0.393136
0.392854
0.392468
0.391981
0.391391
0.39072
0.389936
0.389232
0.388156
0.293966
0.30821
0.322503
0.333961
0.343452
0.351025
0.357087
0.362001
0.36603
0.369405
0.372281
0.374787
0.376998
0.378968
0.380745
0.382361
0.383826
0.38515
0.386346
0.387421
0.388388
0.389237
0.389984
0.390623
0.391155
0.391589
0.391919
0.392149
0.392281
0.392314
0.392249
0.39208
0.391813
0.391439
0.390964
0.390387
0.38973
0.388958
0.388265
0.387199
0.292272
0.306194
0.320589
0.332052
0.34162
0.349248
0.355367
0.360325
0.364393
0.367805
0.370715
0.373252
0.375495
0.377499
0.379308
0.380954
0.38245
0.383804
0.38503
0.386132
0.387122
0.387997
0.388764
0.389427
0.389979
0.390432
0.390781
0.39103
0.391179
0.391229
0.391181
0.391028
0.390776
0.390416
0.389954
0.389391
0.388748
0.387988
0.387306
0.38625
0.290655
0.304227
0.318702
0.330154
0.339793
0.347471
0.353645
0.358648
0.362755
0.366204
0.369148
0.371717
0.373992
0.37603
0.377872
0.379548
0.381076
0.382459
0.383715
0.384843
0.385859
0.386758
0.387547
0.388233
0.388806
0.389277
0.389646
0.389913
0.39008
0.390149
0.390117
0.389981
0.389745
0.389399
0.388951
0.388402
0.387772
0.387025
0.386354
0.385308
0.289117
0.302312
0.316846
0.328271
0.33797
0.345695
0.351921
0.356969
0.361115
0.364601
0.367579
0.370182
0.37249
0.374562
0.376437
0.378144
0.379703
0.381116
0.382401
0.383556
0.384597
0.385522
0.386333
0.387041
0.387635
0.388126
0.388514
0.388801
0.388986
0.389073
0.389058
0.388939
0.388718
0.388387
0.387955
0.38742
0.386805
0.386071
0.385411
0.384373
0.287659
0.300453
0.31502
0.326402
0.336153
0.343918
0.350197
0.355288
0.359475
0.362998
0.366011
0.368647
0.370988
0.373094
0.375003
0.376741
0.378331
0.379774
0.381089
0.382271
0.383337
0.384288
0.385121
0.385851
0.386467
0.386978
0.387386
0.387692
0.387896
0.388001
0.388004
0.387902
0.387697
0.387383
0.386966
0.386446
0.385845
0.385124
0.384475
0.383446
0.286283
0.298654
0.313229
0.324549
0.334342
0.342142
0.34847
0.353605
0.357833
0.361393
0.364442
0.367112
0.369488
0.371627
0.373571
0.375341
0.376962
0.378435
0.379778
0.380989
0.382079
0.383055
0.383912
0.384664
0.385303
0.385834
0.386262
0.386587
0.38681
0.386934
0.386954
0.386869
0.386681
0.386384
0.385983
0.385479
0.384893
0.384185
0.383547
0.382525
0.28499
0.296919
0.311472
0.322714
0.332537
0.340365
0.346741
0.35192
0.356189
0.359787
0.362873
0.365578
0.367989
0.370163
0.372141
0.373943
0.375596
0.377099
0.37847
0.379709
0.380823
0.381826
0.382705
0.38348
0.384141
0.384692
0.385141
0.385486
0.385728
0.38587
0.385908
0.385841
0.38567
0.385391
0.385007
0.384518
0.383949
0.383253
0.382627
0.381612
0.283782
0.295252
0.309754
0.320899
0.330739
0.33859
0.34501
0.350233
0.354544
0.358181
0.361304
0.364045
0.366492
0.368701
0.370714
0.372548
0.374233
0.375766
0.377165
0.378432
0.379571
0.380598
0.381502
0.382299
0.382983
0.383554
0.384024
0.384388
0.384649
0.38481
0.384866
0.384818
0.384664
0.384403
0.384037
0.383565
0.383011
0.382328
0.381713
0.380707
0.28266
0.293656
0.308075
0.319105
0.328948
0.336815
0.343277
0.348543
0.352896
0.356574
0.359736
0.362514
0.364997
0.367242
0.369289
0.371157
0.372873
0.374436
0.375863
0.377158
0.378322
0.379374
0.380301
0.38112
0.381827
0.382419
0.382909
0.383294
0.383574
0.383753
0.383828
0.383799
0.383663
0.383421
0.383074
0.382619
0.382081
0.381411
0.380808
0.379809
0.281625
0.292136
0.306437
0.317334
0.327165
0.335041
0.341541
0.34685
0.351247
0.354966
0.358168
0.360985
0.363505
0.365785
0.367868
0.369769
0.371516
0.37311
0.374565
0.375887
0.377076
0.378153
0.379104
0.379944
0.380675
0.381287
0.381798
0.382203
0.382503
0.3827
0.382794
0.382785
0.382667
0.382445
0.382117
0.38168
0.381157
0.380501
0.379909
0.378919
0.280678
0.290696
0.304844
0.315588
0.32539
0.333268
0.339802
0.345155
0.349595
0.353358
0.356601
0.359458
0.362016
0.364332
0.36645
0.368384
0.370163
0.371788
0.373271
0.37462
0.375835
0.376935
0.377911
0.378772
0.379525
0.380159
0.380689
0.381115
0.381435
0.381651
0.381764
0.381776
0.381676
0.381474
0.381166
0.380747
0.380241
0.379598
0.379018
0.378036
0.27982
0.289338
0.303297
0.313869
0.323625
0.331497
0.338061
0.343455
0.347941
0.351748
0.355035
0.357933
0.360529
0.362882
0.365035
0.367003
0.368814
0.37047
0.371982
0.373358
0.374598
0.375722
0.376721
0.377603
0.378379
0.379035
0.379585
0.38003
0.38037
0.380605
0.380737
0.38077
0.38069
0.380509
0.38022
0.37982
0.379331
0.378703
0.378134
0.377161
0.279052
0.288068
0.301798
0.312179
0.32187
0.329727
0.336316
0.341752
0.346283
0.350138
0.353469
0.35641
0.359045
0.361436
0.363624
0.365626
0.36747
0.369156
0.370697
0.3721
0.373366
0.374512
0.375536
0.376439
0.377236
0.377914
0.378483
0.378948
0.379309
0.379563
0.379715
0.379769
0.379709
0.379549
0.37928
0.378899
0.378428
0.377815
0.377258
0.376293
0.278374
0.286887
0.300351
0.31052
0.320127
0.32796
0.334569
0.340045
0.344623
0.348526
0.351904
0.354889
0.357564
0.359993
0.362217
0.364255
0.366131
0.367848
0.369417
0.370847
0.372139
0.373308
0.374356
0.37528
0.376097
0.376797
0.377386
0.37787
0.378251
0.378524
0.378696
0.378771
0.378733
0.378593
0.378346
0.377985
0.377531
0.376934
0.376388
0.375432
0.277787
0.285801
0.298958
0.308895
0.318398
0.326196
0.33282
0.338333
0.34296
0.346913
0.350339
0.35337
0.356086
0.358554
0.360815
0.362889
0.364797
0.366546
0.368143
0.369599
0.370918
0.372108
0.37318
0.374126
0.374962
0.375684
0.376293
0.376796
0.377196
0.377489
0.377681
0.377778
0.377761
0.377643
0.377417
0.377076
0.376641
0.37606
0.375525
0.37458
0.277291
0.28481
0.297621
0.307306
0.316683
0.324435
0.331067
0.336616
0.341292
0.345297
0.348774
0.351852
0.354611
0.35712
0.359419
0.361528
0.36347
0.365249
0.366875
0.368357
0.369702
0.370915
0.372009
0.372978
0.373832
0.374575
0.375203
0.375725
0.376145
0.376458
0.37667
0.376789
0.376794
0.376697
0.376493
0.376174
0.375758
0.375194
0.37467
0.373736
0.276886
0.283918
0.296345
0.305756
0.314985
0.322679
0.329312
0.334895
0.339621
0.343679
0.347209
0.350336
0.353139
0.35569
0.358028
0.360173
0.362148
0.363958
0.365613
0.367121
0.368492
0.369727
0.370843
0.371834
0.372707
0.37347
0.374117
0.374657
0.375097
0.375431
0.375663
0.375803
0.37583
0.375756
0.375575
0.375278
0.374881
0.374336
0.373824
0.372899
0.276572
0.283128
0.295132
0.304248
0.313306
0.32093
0.327555
0.33317
0.337945
0.342059
0.345643
0.348821
0.351671
0.354265
0.356642
0.358824
0.360832
0.362674
0.364357
0.365891
0.367287
0.368545
0.369681
0.370695
0.371586
0.372369
0.373035
0.373593
0.374053
0.374406
0.37466
0.374821
0.374871
0.374819
0.374662
0.374387
0.374011
0.373485
0.372987
0.372072
0.276348
0.282441
0.293984
0.302784
0.311649
0.319188
0.325797
0.33144
0.336264
0.340435
0.344077
0.347308
0.350207
0.352846
0.355263
0.357481
0.359522
0.361396
0.363107
0.364667
0.366087
0.367368
0.368525
0.369561
0.37047
0.371272
0.371957
0.372533
0.373012
0.373386
0.37366
0.373842
0.373916
0.373887
0.373753
0.373503
0.373148
0.372642
0.372158
0.371254
0.276214
0.281858
0.292906
0.301369
0.310016
0.317457
0.324039
0.329706
0.334579
0.338808
0.342509
0.345797
0.348746
0.351432
0.35389
0.356145
0.35822
0.360124
0.361863
0.363449
0.364893
0.366196
0.367374
0.368431
0.369358
0.370178
0.370882
0.371476
0.371975
0.372368
0.372663
0.372866
0.372963
0.372958
0.372848
0.372623
0.372291
0.371806
0.371339
0.370446
0.276169
0.281381
0.291899
0.300004
0.30841
0.315737
0.322282
0.327967
0.332888
0.337177
0.34094
0.344287
0.34729
0.350023
0.352523
0.354816
0.356924
0.35886
0.360626
0.362237
0.363704
0.365031
0.366228
0.367305
0.368251
0.369089
0.369812
0.370422
0.37094
0.371354
0.371669
0.371893
0.372014
0.372032
0.371947
0.371748
0.37144
0.370979
0.37053
0.369649
0.27621
0.281009
0.290967
0.298693
0.306834
0.314031
0.320528
0.326225
0.331192
0.335541
0.339369
0.342778
0.345837
0.34862
0.351163
0.353495
0.355636
0.357602
0.359395
0.361032
0.362521
0.36387
0.365087
0.366184
0.367148
0.368002
0.368744
0.369372
0.369908
0.370341
0.370678
0.370922
0.371066
0.371108
0.371049
0.370877
0.370596
0.370159
0.369732
0.368863
0.276337
0.28074
0.290112
0.297438
0.305293
0.312342
0.318777
0.324479
0.32949
0.3339
0.337796
0.341269
0.344388
0.347223
0.34981
0.352181
0.354356
0.356352
0.358171
0.359832
0.361344
0.362715
0.363951
0.365067
0.366049
0.366919
0.36768
0.368325
0.368879
0.369331
0.369688
0.369953
0.37012
0.370187
0.370154
0.370009
0.369757
0.369348
0.368944
0.36809
0.276547
0.280572
0.289334
0.296243
0.303788
0.310673
0.317032
0.322732
0.327782
0.332255
0.336221
0.339761
0.342942
0.345832
0.348464
0.350875
0.353083
0.355108
0.356954
0.358639
0.360173
0.361565
0.36282
0.363954
0.364954
0.36584
0.366618
0.36728
0.367852
0.368323
0.3687
0.368985
0.369176
0.369267
0.369261
0.369146
0.368924
0.368545
0.368167
0.367331
0.276838
0.280502
0.288635
0.295112
0.302325
0.309027
0.315296
0.320983
0.32607
0.330605
0.334642
0.338254
0.341499
0.344445
0.347125
0.349577
0.351818
0.353873
0.355744
0.357453
0.359009
0.36042
0.361694
0.362845
0.363863
0.364764
0.36556
0.366239
0.366827
0.367317
0.367713
0.368018
0.368232
0.368348
0.368369
0.368285
0.368097
0.367751
0.367403
0.366587
0.277206
0.280524
0.288016
0.294047
0.300908
0.307409
0.313573
0.319236
0.324354
0.328951
0.333061
0.336747
0.340059
0.343065
0.345795
0.348287
0.350562
0.352645
0.354542
0.356273
0.35785
0.359281
0.360573
0.36174
0.362776
0.363692
0.364503
0.3652
0.365803
0.366312
0.366727
0.367053
0.367289
0.367431
0.367479
0.367426
0.367274
0.366966
0.366651
0.365859
0.277646
0.280633
0.287476
0.293053
0.299541
0.305821
0.311864
0.31749
0.322635
0.327292
0.331476
0.33524
0.338623
0.341691
0.344471
0.347005
0.349314
0.351425
0.353347
0.355101
0.356698
0.358148
0.359458
0.360639
0.361692
0.362623
0.36345
0.364163
0.364782
0.365308
0.365742
0.366087
0.366346
0.366513
0.36659
0.366569
0.366454
0.366189
0.365913
0.36515
0.278156
0.280822
0.287015
0.292131
0.298228
0.304269
0.310176
0.31575
0.320914
0.325628
0.329888
0.333733
0.33719
0.340322
0.343155
0.345731
0.348074
0.350213
0.35216
0.353936
0.355552
0.357021
0.358347
0.359544
0.360613
0.361558
0.362399
0.363129
0.363763
0.364306
0.364758
0.365123
0.365403
0.365595
0.3657
0.365713
0.365638
0.365419
0.365189
0.364463
0.27873
0.281082
0.286633
0.291286
0.296976
0.302757
0.308511
0.314018
0.319191
0.32396
0.328297
0.332225
0.33576
0.338959
0.341846
0.344464
0.346843
0.349009
0.350981
0.352778
0.354414
0.355899
0.357242
0.358453
0.359537
0.360497
0.361351
0.362097
0.362746
0.363306
0.363775
0.364158
0.36446
0.364676
0.36481
0.364857
0.364824
0.364656
0.364479
0.363799
0.279361
0.281402
0.286327
0.290521
0.295788
0.301291
0.306876
0.312297
0.317469
0.322288
0.326703
0.330717
0.334332
0.3376
0.340544
0.343206
0.345621
0.347815
0.34981
0.351629
0.353282
0.354785
0.356143
0.357368
0.358465
0.35944
0.360307
0.361069
0.361732
0.362307
0.362793
0.363194
0.363516
0.363755
0.363918
0.364
0.36401
0.363898
0.363784
0.363163
0.280049
0.281774
0.286099
0.289842
0.29467
0.299877
0.305276
0.31059
0.31575
0.320614
0.325106
0.329207
0.332907
0.336247
0.339249
0.341956
0.344407
0.346629
0.348648
0.350487
0.352158
0.353677
0.35505
0.356288
0.357399
0.358387
0.359266
0.360043
0.36072
0.36131
0.361811
0.362229
0.362571
0.362833
0.363023
0.36314
0.363196
0.363145
0.363104
0.362561
0.280784
0.282192
0.285948
0.289253
0.293631
0.29852
0.303719
0.308904
0.314038
0.318941
0.323509
0.327699
0.331486
0.334901
0.337963
0.340717
0.343203
0.345454
0.347496
0.349355
0.351042
0.352576
0.353963
0.355214
0.356337
0.357339
0.35823
0.359021
0.359711
0.360314
0.36083
0.361265
0.361624
0.361909
0.362126
0.362278
0.36238
0.362394
0.362437
0.361998
0.281514
0.282622
0.285859
0.288748
0.29267
0.297222
0.30221
0.307243
0.312338
0.317272
0.321913
0.326191
0.330065
0.333554
0.336678
0.339478
0.342001
0.344279
0.346344
0.348222
0.349926
0.351475
0.352876
0.354139
0.355274
0.356289
0.357192
0.357996
0.358699
0.359315
0.359846
0.360296
0.360673
0.360979
0.361223
0.361409
0.361559
0.361642
0.361782
0.361482
0.282206
0.283007
0.285765
0.288271
0.291739
0.295941
0.300713
0.305571
0.310609
0.315564
0.32027
0.324634
0.328597
0.332163
0.335352
0.338205
0.340768
0.343078
0.34517
0.34707
0.348793
0.350358
0.351773
0.35305
0.354199
0.355227
0.356144
0.356961
0.357678
0.358307
0.358852
0.359317
0.359711
0.360038
0.360309
0.360529
0.360726
0.360882
0.361132
0.361024
0.283619
0.28374
0.28591
0.287954
0.290895
0.294682
0.299185
0.303801
0.308746
0.313709
0.318489
0.32296
0.327042
0.330716
0.333997
0.336922
0.33954
0.341893
0.344016
0.34594
0.347683
0.349264
0.350693
0.351983
0.353142
0.354182
0.35511
0.355937
0.356666
0.357305
0.357862
0.35834
0.35875
0.359096
0.359389
0.359642
0.359882
0.360109
0.360473
0.360624
0.292073
0.289429
0.289526
0.289529
0.290161
0.29197
0.295022
0.298445
0.302936
0.307935
0.313073
0.318058
0.32268
0.326829
0.330477
0.333659
0.336436
0.338879
0.341049
0.342993
0.344746
0.346329
0.34776
0.349052
0.350215
0.351261
0.352196
0.35303
0.35377
0.354424
0.354998
0.3555
0.355939
0.356323
0.356667
0.356989
0.357325
0.357719
0.358386
0.359414
0.289546
0.287403
0.28722
0.286281
0.285463
0.285779
0.28752
0.290518
0.294732
0.299824
0.305312
0.310754
0.315831
0.320368
0.324316
0.327711
0.330633
0.333172
0.335404
0.337389
0.339171
0.340776
0.342226
0.343535
0.344716
0.345779
0.346732
0.347586
0.348346
0.349019
0.349614
0.350137
0.350599
0.351009
0.351384
0.351745
0.352137
0.35264
0.353511
0.354948
0.283007
0.28201
0.28158
0.280562
0.279302
0.27887
0.279882
0.282483
0.2866
0.291866
0.297716
0.303601
0.30911
0.314015
0.318246
0.32184
0.324894
0.327513