/*--------------------------------*- C++ -*----------------------------------*\
  =========                 |
  \\      /  F ield         | OpenFOAM: The Open Source CFD Toolbox
   \\    /   O peration     | Website:  https://openfoam.org
    \\  /    A nd           | Version:  7
     \\/     M anipulation  |
\*---------------------------------------------------------------------------*/
FoamFile
{
    version     2.0;
    format      ascii;
    class       volScalarField;
    location    "9.4";
    object      p;
}
// * * * * * * * * * * * * * * * * * * * * * * * * * * * * * * * * * * * * * //

dimensions      [0 2 -2 0 0 0 0];

internalField   nonuniform List<scalar> 
32000
(
0.193474
0.194177
0.194619
0.195072
0.19549
0.195876
0.196226
0.196552
0.196871
0.197198
0.197537
0.197892
0.198275
0.198706
0.199205
0.19979
0.200474
0.201269
0.202186
0.20324
0.204446
0.205815
0.207353
0.209063
0.210943
0.212991
0.2152
0.217566
0.22008
0.222734
0.225518
0.22842
0.231428
0.234526
0.237699
0.240932
0.244212
0.247526
0.250848
0.254111
0.193723
0.194413
0.194838
0.195265
0.195654
0.196007
0.196325
0.196621
0.196911
0.197207
0.197513
0.197833
0.198178
0.198569
0.199024
0.199562
0.200194
0.200931
0.201786
0.202772
0.203904
0.205193
0.206644
0.208262
0.210046
0.211993
0.2141
0.216361
0.218771
0.221319
0.223999
0.226799
0.229707
0.232709
0.235791
0.238937
0.242135
0.245372
0.248616
0.25181
0.193977
0.194649
0.195053
0.195455
0.195814
0.196135
0.196422
0.196689
0.196951
0.197218
0.197492
0.197778
0.198088
0.198441
0.198857
0.199352
0.199936
0.200621
0.201419
0.202344
0.203409
0.204624
0.205995
0.207526
0.209218
0.21107
0.213079
0.21524
0.217548
0.219995
0.222573
0.225273
0.228081
0.230987
0.233976
0.237033
0.240147
0.243303
0.246466
0.249589
0.194226
0.194871
0.195257
0.195636
0.195967
0.196259
0.196517
0.196757
0.196993
0.197232
0.197477
0.197732
0.19801
0.198329
0.198709
0.199164
0.199705
0.200343
0.20109
0.20196
0.202963
0.204109
0.205405
0.206854
0.20846
0.210222
0.212138
0.214204
0.216414
0.218762
0.221241
0.223841
0.226552
0.229362
0.232258
0.235225
0.238252
0.241326
0.244403
0.247451
0.194479
0.195096
0.195463
0.195819
0.196123
0.196387
0.196617
0.196831
0.197042
0.197254
0.197471
0.197697
0.197945
0.198234
0.198581
0.198999
0.199501
0.200097
0.200799
0.201618
0.202565
0.203647
0.204873
0.206247
0.207773
0.20945
0.211278
0.213252
0.215368
0.217621
0.220003
0.222507
0.225122
0.227837
0.230639
0.233515
0.236454
0.239443
0.242433
0.245403
0.194734
0.195318
0.195666
0.195999
0.196278
0.196514
0.19672
0.196909
0.197094
0.197282
0.197473
0.197673
0.197895
0.198156
0.198473
0.198859
0.199326
0.199885
0.200546
0.201319
0.202213
0.203238
0.2044
0.205705
0.207156
0.208755
0.210499
0.212386
0.214412
0.216573
0.218862
0.221271
0.223792
0.226413
0.229122
0.231907
0.234757
0.23766
0.240559
0.24345
0.194994
0.195542
0.195871
0.19618
0.196435
0.196647
0.196828
0.196994
0.197155
0.197319
0.197487
0.197664
0.197861
0.198097
0.198388
0.198746
0.199183
0.199709
0.200333
0.201064
0.201911
0.202882
0.203986
0.205229
0.206612
0.208137
0.209802
0.211606
0.213546
0.215619
0.217818
0.220136
0.222565
0.225093
0.22771
0.230403
0.233164
0.23598
0.238788
0.241597
0.195259
0.19577
0.196077
0.196363
0.196595
0.196783
0.196942
0.197085
0.197225
0.197367
0.197513
0.197669
0.197845
0.19806
0.198328
0.198661
0.199072
0.199569
0.200161
0.200854
0.201658
0.202583
0.203634
0.204819
0.206139
0.207596
0.209187
0.210913
0.212773
0.214761
0.216874
0.219104
0.221442
0.223879
0.226404
0.229007
0.231678
0.234406
0.237122
0.239847
0.19553
0.196
0.196285
0.196548
0.196757
0.196924
0.197061
0.197184
0.197303
0.197426
0.197553
0.19769
0.197848
0.198044
0.198292
0.198606
0.198995
0.199467
0.20003
0.20069
0.201457
0.202339
0.203344
0.204477
0.205739
0.207132
0.208655
0.210309
0.212091
0.214
0.21603
0.218174
0.220425
0.222773
0.225208
0.227721
0.230303
0.232943
0.235565
0.238206
0.195807
0.196234
0.196495
0.196734
0.196923
0.197068
0.197186
0.197289
0.197391
0.197496
0.197607
0.197727
0.19787
0.198051
0.198284
0.198581
0.198952
0.199404
0.199941
0.200572
0.201306
0.202152
0.203116
0.204202
0.205412
0.206747
0.208207
0.209792
0.211502
0.213335
0.215286
0.217349
0.219515
0.221776
0.224123
0.226546
0.22904
0.231592
0.23412
0.236676
0.196091
0.196472
0.196709
0.196924
0.197091
0.197216
0.197316
0.197403
0.197489
0.197579
0.197675
0.197782
0.197912
0.198081
0.198302
0.198588
0.198945
0.199379
0.199895
0.200502
0.201208
0.202023
0.20295
0.203994
0.205157
0.206439
0.207841
0.209363
0.211006
0.212768
0.214644
0.216628
0.218713
0.22089
0.223151
0.225486
0.227893
0.230357
0.232791
0.235261
0.196384
0.196716
0.196927
0.197117
0.197261
0.197368
0.197451
0.197524
0.197596
0.197673
0.197757
0.197853
0.197974
0.198135
0.198349
0.198626
0.198973
0.199393
0.199892
0.200479
0.201163
0.20195
0.202846
0.203854
0.204975
0.206209
0.207558
0.209023
0.210603
0.212298
0.214104
0.216013
0.21802
0.220115
0.222292
0.224542
0.226862
0.229239
0.231581
0.233964
0.196685
0.196965
0.197149
0.197312
0.197435
0.197524
0.197593
0.197653
0.197714
0.19778
0.197854
0.197942
0.198057
0.198214
0.198424
0.198697
0.199036
0.199446
0.199932
0.200504
0.201169
0.201935
0.202805
0.203782
0.204865
0.206057
0.207358
0.20877
0.210294
0.211927
0.213666
0.215504
0.217436
0.219453
0.221548
0.223715
0.225951
0.228242
0.230492
0.232788
0.196994
0.19722
0.197375
0.197511
0.197612
0.197685
0.197741
0.197791
0.197843
0.197899
0.197965
0.198048
0.19816
0.198317
0.198528
0.198799
0.199134
0.199537
0.200015
0.200576
0.201228
0.201978
0.202827
0.203777
0.204829
0.205983
0.207242
0.208606
0.210077
0.211653
0.21333
0.215102
0.216962
0.218904
0.220921
0.223006
0.225159
0.227367
0.229525
0.231735
0.197312
0.19748
0.197605
0.197713
0.197793
0.19785
0.197896
0.197938
0.197981
0.198031
0.198091
0.198172
0.198286
0.198445
0.19866
0.198933
0.199267
0.199668
0.200141
0.200696
0.20134
0.202078
0.20291
0.203839
0.204864
0.205986
0.207208
0.20853
0.209954
0.211477
0.213096
0.214805
0.216598
0.218468
0.22041
0.222417
0.224489
0.226615
0.228684
0.230808
0.197638
0.197745
0.197839
0.197918
0.197977
0.198021
0.198057
0.198093
0.19813
0.198175
0.198233
0.198315
0.198433
0.198599
0.198819
0.199097
0.199434
0.199836
0.20031
0.200863
0.201504
0.202235
0.203056
0.203968
0.204971
0.206067
0.207256
0.208541
0.209923
0.211398
0.212964
0.214614
0.216343
0.218145
0.220015
0.221947
0.223942
0.225987
0.22797
0.230008
0.19797
0.198014
0.198076
0.198125
0.198164
0.198196
0.198225
0.198256
0.198289
0.198332
0.19839
0.198477
0.198602
0.198777
0.199006
0.199291
0.199635
0.200043
0.200521
0.201078
0.20172
0.202448
0.203263
0.204163
0.20515
0.206223
0.207386
0.208639
0.209982
0.211414
0.212931
0.214526
0.216196
0.217934
0.219736
0.221596
0.223517
0.225484
0.227383
0.229336
0.198309
0.198286
0.198315
0.198335
0.198355
0.198375
0.198399
0.198426
0.198458
0.198501
0.198564
0.198658
0.198793
0.198979
0.19922
0.199516
0.19987
0.200287
0.200775
0.20134
0.201987
0.202717
0.20353
0.204423
0.205398
0.206454
0.207595
0.208821
0.210131
0.211524
0.212996
0.214542
0.216157
0.217835
0.219573
0.221365
0.223214
0.225106
0.226923
0.228792
0.198651
0.19856
0.198556
0.198547
0.198547
0.198558
0.198577
0.198603
0.198636
0.198683
0.198753
0.198857
0.199005
0.199205
0.199459
0.199769
0.200137
0.200569
0.20107
0.201647
0.202304
0.20304
0.203855
0.204746
0.205713
0.206758
0.207882
0.209085
0.210367
0.211726
0.213158
0.214659
0.216223
0.217846
0.219524
0.221252
0.223032
0.224853
0.226591
0.228378
0.198996
0.198833
0.198796
0.198758
0.198742
0.198742
0.198758
0.198785
0.198822
0.198876
0.198956
0.199073
0.199236
0.199452
0.199723
0.20005
0.200436
0.200886
0.201405
0.201999
0.202669
0.203416
0.204236
0.20513
0.206095
0.207133
0.208244
0.209429
0.210688
0.212018
0.213416
0.214876
0.216394
0.217967
0.219588
0.221256
0.222972
0.224725
0.226387
0.228093
0.19934
0.199104
0.199035
0.198969
0.198936
0.198928
0.198943
0.198972
0.199015
0.199078
0.199171
0.199305
0.199486
0.199721
0.200011
0.200358
0.200765
0.201237
0.201778
0.202393
0.203081
0.203841
0.204672
0.205572
0.20654
0.207575
0.208678
0.209851
0.211091
0.212398
0.213766
0.215191
0.216668
0.218194
0.219765
0.221376
0.223031
0.224719
0.22631
0.227937
0.199681
0.199372
0.19927
0.199177
0.199128
0.199114
0.199127
0.199161
0.199213
0.199289
0.199398
0.19955
0.199752
0.200008
0.20032
0.20069
0.201122
0.20162
0.202187
0.202826
0.203536
0.204315
0.20516
0.206071
0.207045
0.208082
0.209183
0.210347
0.211575
0.212863
0.214206
0.215601
0.217042
0.218527
0.220051
0.22161
0.223209
0.224836
0.226359
0.227909
0.200016
0.199632
0.199499
0.199381
0.199318
0.199297
0.199312
0.199351
0.199414
0.199506
0.199634
0.199807
0.200032
0.200311
0.200648
0.201044
0.201505
0.202033
0.20263
0.203297
0.204032
0.204833
0.205696
0.206621
0.207606
0.20865
0.209753
0.210915
0.212135
0.21341
0.214734
0.216103
0.217513
0.218961
0.220443
0.221955
0.223502
0.225072
0.226532
0.228007
0.200343
0.199884
0.199721
0.199579
0.199502
0.199478
0.199494
0.199541
0.199617
0.199726
0.199876
0.200073
0.200323
0.200629
0.200993
0.201419
0.201911
0.202473
0.203104
0.203802
0.204566
0.205392
0.206277
0.207221
0.208221
0.209276
0.210386
0.21155
0.212768
0.214034
0.215344
0.216692
0.218076
0.219492
0.220937
0.222408
0.223907
0.225425
0.226827
0.228228
0.200659
0.200126
0.199934
0.199769
0.199681
0.199653
0.199671
0.199728
0.199819
0.199949
0.200123
0.200346
0.200624
0.200959
0.201353
0.201811
0.202339
0.202937
0.203604
0.204338
0.205133
0.205987
0.206898
0.207864
0.208883
0.209954
0.211076
0.212248
0.213468
0.214731
0.21603
0.217363
0.218726
0.220116
0.22153
0.222963
0.22442
0.22589
0.227239
0.228571
0.20096
0.200354
0.200136
0.199949
0.199851
0.19982
0.199843
0.19991
0.200019
0.200171
0.200371
0.200624
0.200931
0.201297
0.201724
0.202218
0.202783
0.203421
0.204128
0.204899
0.205729
0.206615
0.207555
0.208547
0.209589
0.21068
0.211819
0.213003
0.21423
0.215494
0.216788
0.218111
0.219458
0.220828
0.222216
0.223617
0.225036
0.226464
0.227766
0.22903
0.201244
0.200567
0.200323
0.200117
0.20001
0.199978
0.200006
0.200086
0.200214
0.20039
0.200619
0.200902
0.201242
0.20164
0.202103
0.202635
0.20324
0.20392
0.204669
0.205481
0.206348
0.207269
0.208241
0.209263
0.210333
0.211448
0.212608
0.213809
0.215047
0.216316
0.217611
0.218928
0.220266
0.221621
0.222988
0.224364
0.225751
0.227141
0.228401
0.229602
0.201508
0.20076
0.200493
0.200271
0.200156
0.200124
0.200159
0.200253
0.200401
0.200604
0.200863
0.201179
0.201552
0.201986
0.202486
0.203058
0.203707
0.204431
0.205224
0.206078
0.206986
0.207944
0.208952
0.210007
0.211108
0.212251
0.213436
0.214658
0.215911
0.217191
0.218491
0.219809
0.221142
0.222488
0.223842
0.225197
0.226557
0.227917
0.229142
0.230283
0.201747
0.200932
0.200644
0.200406
0.200285
0.200255
0.200299
0.200408
0.200578
0.200809
0.201099
0.201449
0.201858
0.202329
0.202868
0.203483
0.204177
0.204948
0.205787
0.206685
0.207635
0.208634
0.209681
0.210772
0.211907
0.213083
0.214296
0.215542
0.216816
0.21811
0.219421
0.220745
0.22208
0.223423
0.224768
0.226109
0.227449
0.228784
0.229981
0.231067
0.201959
0.20108
0.200772
0.200521
0.200396
0.200368
0.200423
0.200549
0.200742
0.201001
0.201324
0.201709
0.202155
0.202665
0.203247
0.203906
0.204647
0.205466
0.206352
0.207296
0.20829
0.209333
0.210421
0.211552
0.212725
0.213935
0.21518
0.216454
0.217751
0.219065
0.220391
0.221727
0.22307
0.224415
0.225759
0.227092
0.228419
0.229736
0.230912
0.231948
0.202139
0.2012
0.200875
0.200611
0.200484
0.200461
0.200528
0.200671
0.200889
0.201178
0.201535
0.201956
0.20244
0.202991
0.203616
0.204322
0.205111
0.205979
0.206913
0.207905
0.208946
0.210033
0.211165
0.212339
0.213552
0.2148
0.216079
0.217385
0.218709
0.220046
0.221393
0.222745
0.224101
0.225456
0.226803
0.228137
0.229457
0.230764
0.231929
0.232919
0.202286
0.20129
0.200949
0.200675
0.200546
0.20053
0.20061
0.200773
0.201016
0.201336
0.201727
0.202185
0.202708
0.203301
0.203972
0.204726
0.205565
0.206482
0.207465
0.208505
0.209594
0.210729
0.211907
0.213126
0.214381
0.215669
0.216985
0.218324
0.219679
0.221043
0.222414
0.223788
0.225162
0.226532
0.227891
0.229231
0.230554
0.231859
0.233022
0.233975
0.202394
0.201347
0.200991
0.200709
0.200581
0.200572
0.200666
0.200851
0.20112
0.201471
0.201897
0.202392
0.202956
0.203592
0.204309
0.205112
0.206001
0.206969
0.208002
0.209092
0.21023
0.211413
0.212639
0.213904
0.215203
0.216533
0.217888
0.219262
0.22065
0.222045
0.223444
0.224843
0.226241
0.227631
0.229008
0.230364
0.231697
0.233011
0.234183
0.235106
0.202462
0.201367
0.200999
0.200711
0.200584
0.200585
0.200695
0.200901
0.201199
0.201581
0.202042
0.202574
0.203179
0.203859
0.204624
0.205476
0.206416
0.207434
0.208518
0.209657
0.210845
0.212078
0.213353
0.214665
0.216009
0.217382
0.218777
0.220189
0.221611
0.223039
0.224469
0.225898
0.227323
0.22874
0.230142
0.23152
0.232874
0.234208
0.235403
0.236305
0.202486
0.201349
0.200971
0.200678
0.200555
0.200566
0.200692
0.200922
0.201248
0.201662
0.202157
0.202728
0.203373
0.204098
0.20491
0.205813
0.206803
0.207872
0.209005
0.210194
0.211433
0.212716
0.21404
0.215399
0.21679
0.218207
0.219643
0.221093
0.222551
0.224013
0.225476
0.226937
0.228394
0.229842
0.231274
0.232683
0.234068
0.235436
0.23667
0.237565
0.202463
0.20129
0.200904
0.200608
0.200491
0.200513
0.200657
0.20091
0.201264
0.20171
0.20224
0.202848
0.203535
0.204305
0.205165
0.206117
0.207157
0.208276
0.209459
0.210697
0.211985
0.213318
0.214691
0.216099
0.217536
0.218997
0.220474
0.221963
0.223458
0.224955
0.226452
0.227947
0.229438
0.23092
0.232389
0.233836
0.235262
0.236678
0.237972
0.238878
0.202391
0.201187
0.200796
0.2005
0.200389
0.200424
0.200586
0.200864
0.201246
0.201723
0.202287
0.202933
0.203661
0.204475
0.205382
0.206383
0.207473
0.20864
0.209872
0.211159
0.212496
0.213878
0.2153
0.216755
0.218238
0.219742
0.22126
0.222787
0.224319
0.225851
0.227383
0.228912
0.230437
0.231955
0.233463
0.234955
0.236433
0.237914
0.239295
0.240239
0.202268
0.20104
0.200646
0.200352
0.200248
0.200296
0.200478
0.20078
0.20119
0.201697
0.202295
0.202979
0.203747
0.204605
0.205558
0.206607
0.207744
0.208959
0.210238
0.211573
0.212958
0.214388
0.215857
0.217359
0.218886
0.220432
0.22199
0.223555
0.225121
0.226688
0.228252
0.229814
0.231372
0.232925
0.234473
0.236013
0.23755
0.239114
0.240622
0.241662
0.202091
0.200845
0.200451
0.20016
0.200065
0.200128
0.20033
0.200656
0.201093
0.201631
0.202262
0.202982
0.20379
0.20469
0.205689
0.206783
0.207967
0.209227
0.210552
0.211933
0.213365
0.214841
0.216356
0.217902
0.219472
0.221058
0.222654
0.224254
0.225854
0.227452
0.229047
0.230637
0.232223
0.233806
0.235389
0.236975
0.238576
0.240249
0.241976
0.243266
0.201859
0.200602
0.20021
0.199924
0.199839
0.199919
0.200141
0.200491
0.200954
0.201522
0.202185
0.20294
0.203786
0.204728
0.20577
0.206909
0.208136
0.20944
0.210809
0.212234
0.21371
0.21523
0.216788
0.218375
0.219986
0.22161
0.223241
0.224873
0.226504
0.22813
0.22975
0.231363
0.232969
0.23457
0.236173
0.237786
0.239438
0.241222
0.243223
0.244971
0.265316
0.281811
0.296535
0.308804
0.318827
0.326962
0.333532
0.338894
0.343318
0.347014
0.350131
0.352801
0.355118
0.357143
0.358947
0.360564
0.362003
0.363289
0.364453
0.365502
0.366439
0.367271
0.367997
0.36862
0.369145
0.369583
0.369928
0.370175
0.370335
0.370396
0.370372
0.370247
0.370032
0.369719
0.369314
0.368808
0.368228
0.367531
0.366912
0.36592
0.263128
0.279479
0.294398
0.306776
0.316934
0.32516
0.331805
0.337226
0.341696
0.345431
0.348588
0.351285
0.35363
0.355694
0.357527
0.35916
0.360631
0.361953
0.363141
0.364212
0.365175
0.366031
0.366779
0.367425
0.367972
0.368424
0.368781
0.369052
0.369226
0.369308
0.369292
0.369188
0.368984
0.368684
0.368289
0.367793
0.367222
0.366535
0.365925
0.364941
0.261011
0.277177
0.292284
0.304757
0.315044
0.323358
0.330079
0.335558
0.340073
0.343847
0.347043
0.349768
0.352141
0.354242
0.356105
0.357756
0.359259
0.360615
0.361829
0.362922
0.363909
0.364789
0.365561
0.366229
0.3668
0.367265
0.367638
0.367931
0.36812
0.368223
0.368216
0.368132
0.367941
0.367654
0.367268
0.366783
0.366223
0.365546
0.364944
0.363968
0.258962
0.27491
0.290198
0.302748
0.313157
0.321557
0.328354
0.33389
0.338451
0.342263
0.345492
0.34825
0.350653
0.352785
0.354677
0.356358
0.357889
0.359273
0.360514
0.361633
0.362643
0.363548
0.364341
0.365032
0.365623
0.366109
0.366501
0.36681
0.367017
0.367136
0.367147
0.367077
0.366901
0.366627
0.366253
0.36578
0.36523
0.364564
0.363971
0.363002
0.256991
0.272682
0.28814
0.30075
0.311274
0.319758
0.326628
0.332222
0.336829
0.340679
0.343938
0.346732
0.349166
0.351324
0.353247
0.354961
0.356521
0.357929
0.359199
0.360344
0.361378
0.362306
0.363122
0.363835
0.364446
0.364955
0.365368
0.365692
0.365918
0.366052
0.366084
0.366026
0.365865
0.365604
0.365244
0.364784
0.364243
0.363589
0.363005
0.362042
0.255102
0.270497
0.286109
0.298763
0.309397
0.31796
0.324903
0.330554
0.335206
0.339094
0.342385
0.345213
0.347678
0.349864
0.351818
0.353565
0.355152
0.356587
0.357883
0.359055
0.360113
0.361065
0.361904
0.36264
0.363271
0.363802
0.364236
0.364576
0.364821
0.364972
0.365023
0.36498
0.364835
0.364587
0.36424
0.363794
0.363264
0.362621
0.362046
0.36109
0.253299
0.268358
0.284109
0.296789
0.307528
0.316165
0.323179
0.328885
0.333583
0.337509
0.340832
0.343693
0.346189
0.348404
0.350388
0.352167
0.353783
0.355245
0.356567
0.357767
0.358849
0.359824
0.360687
0.361446
0.362099
0.362652
0.363106
0.363464
0.363728
0.363896
0.363966
0.363939
0.36381
0.363576
0.363241
0.362811
0.362291
0.36166
0.361095
0.360146
0.251585
0.266272
0.282143
0.29483
0.305666
0.314372
0.321455
0.327216
0.33196
0.335923
0.33928
0.342172
0.3447
0.346944
0.348959
0.35077
0.352415
0.353904
0.355253
0.356479
0.357586
0.358585
0.359472
0.360253
0.360928
0.361503
0.361978
0.362355
0.362638
0.362825
0.362913
0.362902
0.362789
0.36257
0.362249
0.361833
0.361325
0.360706
0.360152
0.359209
0.249962
0.264243
0.280212
0.292889
0.303813
0.312583
0.319734
0.325547
0.330337
0.334338
0.337728
0.340652
0.343211
0.345485
0.34753
0.349373
0.351046
0.352564
0.353939
0.355192
0.356324
0.357347
0.358258
0.359062
0.35976
0.360356
0.360853
0.36125
0.361551
0.361757
0.361864
0.361868
0.361772
0.361569
0.361262
0.360861
0.360367
0.359759
0.359216
0.35828
0.248432
0.262275
0.278321
0.290967
0.30197
0.310797
0.318013
0.323879
0.328714
0.332753
0.336177
0.339132
0.341723
0.344027
0.346102
0.347976
0.349679
0.351225
0.352627
0.353906
0.355064
0.356111
0.357046
0.357873
0.358594
0.359212
0.35973
0.360147
0.360467
0.360692
0.360818
0.360839
0.360759
0.360573
0.360281
0.359895
0.359415
0.358818
0.358286
0.357358
0.246998
0.260372
0.276471
0.289067
0.300138
0.309016
0.316295
0.322212
0.327093
0.331169
0.334627
0.337614
0.340235
0.34257
0.344675
0.346581
0.348312
0.349888
0.351316
0.352622
0.353806
0.354876
0.355836
0.356686
0.357431
0.35807
0.35861
0.359048
0.359387
0.35963
0.359775
0.359814
0.359751
0.359581
0.359305
0.358935
0.35847
0.357884
0.357363
0.356443
0.245662
0.258541
0.274666
0.28719
0.298319
0.30724
0.314579
0.320546
0.325472
0.329587
0.33308
0.336098
0.338749
0.341115
0.34325
0.345187
0.346948
0.348552
0.350007
0.351339
0.35255
0.353644
0.354629
0.355502
0.35627
0.356932
0.357492
0.357952
0.35831
0.358572
0.358736
0.358792
0.358746
0.358594
0.358335
0.35798
0.357531
0.356957
0.356447
0.355535
0.244425
0.256785
0.272908
0.285339
0.296513
0.30547
0.312866
0.318881
0.323853
0.328007
0.331534
0.334584
0.337266
0.339663
0.341828
0.343796
0.345585
0.347218
0.348701
0.350059
0.351297
0.352415
0.353425
0.354321
0.355112
0.355796
0.356378
0.356858
0.357236
0.357517
0.3577
0.357774
0.357746
0.357613
0.357371
0.357031
0.356599
0.356037
0.355537
0.354634
0.243289
0.25511
0.2712
0.283517
0.294722
0.303706
0.311155
0.317218
0.322236
0.326428
0.32999
0.333072
0.335785
0.338214
0.340409
0.342408
0.344226
0.345887
0.347398
0.348782
0.350047
0.351189
0.352224
0.353143
0.353958
0.354664
0.355267
0.355768
0.356165
0.356466
0.356668
0.35676
0.356751
0.356636
0.356412
0.356088
0.355673
0.355123
0.354633
0.353739
0.242256
0.25352
0.269545
0.281726
0.292946
0.301949
0.309448
0.315557
0.320621
0.324852
0.328449
0.331564
0.334307
0.336768
0.338993
0.341022
0.342869
0.344559
0.346099
0.347509
0.3488
0.349967
0.351026
0.35197
0.352807
0.353536
0.354159
0.354681
0.355097
0.355418
0.35564
0.355751
0.35576
0.355664
0.35546
0.355152
0.354752
0.354216
0.353736
0.35285
0.241327
0.252019
0.267945
0.279968
0.291188
0.3002
0.307744
0.313898
0.319008
0.323277
0.32691
0.330058
0.332832
0.335325
0.337579
0.339639
0.341516
0.343235
0.344804
0.34624
0.347558
0.348749
0.349833
0.350801
0.351661
0.352412
0.353055
0.353598
0.354034
0.354374
0.354615
0.354746
0.354775
0.354698
0.354513
0.354221
0.353838
0.353315
0.352844
0.351968
0.240504
0.250613
0.266404
0.278246
0.289448
0.298459
0.306044
0.31224
0.317396
0.321705
0.325373
0.328554
0.33136
0.333885
0.33617
0.33826
0.340167
0.341914
0.343514
0.344976
0.34632
0.347536
0.348644
0.349637
0.350519
0.351291
0.351955
0.352518
0.352975
0.353334
0.353595
0.353745
0.353794
0.353737
0.353572
0.353297
0.35293
0.352421
0.35196
0.351091
0.239785
0.249305
0.264923
0.276563
0.287728
0.296728
0.304349
0.310584
0.315786
0.320134
0.323839
0.327054
0.329891
0.332448
0.334764
0.336884
0.338823
0.340599
0.342227
0.343716
0.345085
0.346328
0.347459
0.348477
0.349381
0.350175
0.350859
0.351443
0.351919
0.352298
0.352578
0.352749
0.352819
0.352781
0.352636
0.352379
0.352028
0.351533
0.351082
0.350222
0.239174
0.248099
0.263507
0.274922
0.286029
0.295008
0.302657
0.308931
0.314178
0.318565
0.322308
0.325556
0.328427
0.331015
0.333362
0.335512
0.337482
0.339287
0.340945
0.342461
0.343856
0.345125
0.346279
0.347321
0.348247
0.349063
0.349767
0.350371
0.350867
0.351266
0.351566
0.351758
0.351848
0.35183
0.351706
0.351467
0.351132
0.350652
0.350212
0.34936
0.238669
0.247001
0.262156
0.273326
0.284353
0.2933
0.300971
0.307281
0.312571
0.316998
0.320779
0.324063
0.326967
0.329587
0.331966
0.334146
0.336147
0.33798
0.339667
0.34121
0.34263
0.343926
0.345104
0.346169
0.347117
0.347954
0.348679
0.349302
0.349819
0.350237
0.350557
0.35077
0.350881
0.350884
0.350781
0.350561
0.350243
0.349778
0.34935
0.348505
0.238271
0.246013
0.260875
0.271778
0.282702
0.291606
0.299291
0.305633
0.310967
0.315433
0.319253
0.322573
0.325511
0.328164
0.330574
0.332784
0.334816
0.336678
0.338394
0.339964
0.34141
0.342732
0.343933
0.345021
0.345991
0.346848
0.347594
0.348237
0.348773
0.349212
0.349551
0.349787
0.349918
0.349943
0.349861
0.349661
0.34936
0.34891
0.348495
0.347658
0.237979
0.245139
0.259664
0.270281
0.281078
0.289927
0.297617
0.303987
0.309364
0.31387
0.317731
0.321086
0.32406
0.326746
0.329188
0.331429
0.33349
0.335381
0.337125
0.338723
0.340194
0.341542
0.342766
0.343877
0.344869
0.345747
0.346512
0.347175
0.347731
0.34819
0.348549
0.348807
0.348959
0.349006
0.348945
0.348766
0.348483
0.34805
0.347648
0.34682
0.237792
0.244381
0.258527
0.268839
0.279483
0.288264
0.295951
0.302344
0.307763
0.312309
0.31621
0.319603
0.322612
0.325332
0.327806
0.330078
0.33217
0.33409
0.335862
0.337488
0.338983
0.340357
0.341604
0.342737
0.343752
0.344649
0.345434
0.346115
0.346692
0.347171
0.34755
0.34783
0.348004
0.348073
0.348034
0.347876
0.347613
0.347196
0.346809
0.34599
0.237709
0.243742
0.257466
0.267453
0.27792
0.286618
0.294293
0.300704
0.306164
0.310749
0.314692
0.318123
0.321169
0.323923
0.32643
0.328734
0.330855
0.332804
0.334604
0.336257
0.337777
0.339176
0.340447
0.341601
0.342637
0.343554
0.344359
0.345059
0.345655
0.346154
0.346554
0.346856
0.347052
0.347143
0.347126
0.346991
0.346749
0.34635
0.345978
0.34517
0.237728
0.243223
0.256483
0.266126
0.27639
0.284992
0.292645
0.299067
0.304567
0.30919
0.313176
0.316646
0.31973
0.32252
0.32506
0.327395
0.329546
0.331524
0.333352
0.335032
0.336576
0.337999
0.339295
0.340469
0.341527
0.342463
0.343286
0.344006
0.344622
0.345141
0.345561
0.345884
0.346102
0.346216
0.346221
0.34611
0.345891
0.345512
0.345155
0.344358
0.237847
0.242826
0.25558
0.264861
0.274898
0.283388
0.291006
0.297434
0.302972
0.307634
0.311663
0.315173
0.318296
0.321122
0.323695
0.326063
0.328243
0.330251
0.332106
0.333813
0.335381
0.336828
0.338147
0.339342
0.340421
0.341375
0.342217
0.342956
0.343591
0.34413
0.34457
0.344915
0.345155
0.345292
0.34532
0.345233
0.345038
0.344681
0.344341
0.343557
0.238063
0.242549
0.254759
0.263662
0.273444
0.281807
0.289379
0.295806
0.30138
0.306079
0.310153
0.313704
0.316868
0.31973
0.322337
0.324737
0.326947
0.328984
0.330867
0.3326
0.334192
0.335663
0.337005
0.338219
0.339318
0.340292
0.341152
0.341909
0.342564
0.343122
0.343583
0.343948
0.344209
0.34437
0.344422
0.34436
0.344191
0.343858
0.343536
0.342765
0.238373
0.242393
0.254022
0.262531
0.272032
0.280253
0.287766
0.294184
0.29979
0.304527
0.308645
0.312239
0.315445
0.318344
0.320985
0.323418
0.325658
0.327725
0.329634
0.331393
0.33301
0.334503
0.335867
0.337101
0.338219
0.339212
0.34009
0.340865
0.34154
0.342116
0.342598
0.342984
0.343266
0.34345
0.343527
0.343491
0.343349
0.343043
0.342741
0.341985
0.238774
0.242355
0.253368
0.261471
0.270666
0.278727
0.286167
0.292567
0.298203
0.302976
0.307139
0.310778
0.314026
0.316964
0.319641
0.322106
0.324377
0.326472
0.328408
0.330193
0.331835
0.333349
0.334736
0.335988
0.337125
0.338136
0.339032
0.339825
0.340519
0.341114
0.341616
0.342022
0.342325
0.342532
0.342634
0.342625
0.342512
0.342236
0.341956
0.341217
0.239262
0.242433
0.2528
0.260483
0.269347
0.277231
0.284585
0.290958
0.296619
0.301427
0.305636
0.30932
0.312613
0.31559
0.318303
0.320802
0.323103
0.325227
0.32719
0.329
0.330666
0.332201
0.333609
0.334881
0.336035
0.337065
0.337979
0.338789
0.339503
0.340115
0.340636
0.341062
0.341386
0.341615
0.341744
0.341763
0.341679
0.341435
0.341183
0.340463
0.239832
0.242621
0.252317
0.259572
0.268082
0.27577
0.283023
0.289358
0.295039
0.29988
0.304135
0.307867
0.311205
0.314223
0.316972
0.319504
0.321837
0.323989
0.325978
0.327814
0.329504
0.33106
0.332488
0.333779
0.334951
0.335998
0.33693
0.337757
0.33849
0.339119
0.339658
0.340103
0.340448
0.3407
0.340854
0.340903
0.340851
0.340643
0.34042
0.339723
0.240481
0.242915
0.251919
0.258738
0.266873
0.274347
0.281483
0.28777
0.293464
0.298336
0.302637
0.306416
0.309801
0.312861
0.315648
0.318215
0.320578
0.322759
0.324775
0.326636
0.328349
0.329925
0.331374
0.332683
0.333871
0.334936
0.335886
0.336729
0.33748
0.338126
0.338683
0.339146
0.339512
0.339785
0.339966
0.340045
0.340027
0.339857
0.33967
0.338999
0.241202
0.243306
0.251606
0.257985
0.265725
0.272965
0.279969
0.286196
0.291896
0.296796
0.301141
0.304969
0.308402
0.311505
0.314332
0.316933
0.319328
0.321537
0.323579
0.325464
0.3272
0.328797
0.330265
0.331593
0.332797
0.333879
0.334846
0.335706
0.336473
0.337135
0.337709
0.33819
0.338576
0.338871
0.339078
0.339188
0.339206
0.339077
0.338931
0.338294
0.24199
0.243784
0.251377
0.257317
0.264642
0.27163
0.278485
0.284638
0.290335
0.29526
0.299648
0.303525
0.307007
0.310156
0.313022
0.315659
0.318086
0.320323
0.322391
0.324301
0.326059
0.327677
0.329162
0.330508
0.331728
0.332827
0.333811
0.334686
0.33547
0.336147
0.336737
0.337235
0.337641
0.337957
0.33819
0.338332
0.338387
0.338304
0.338206
0.33761
0.242838
0.244341
0.251231
0.256736
0.263628
0.270343
0.277033
0.283099
0.288783
0.293728
0.298157
0.302085
0.305617
0.308812
0.31172
0.314393
0.316851
0.319118
0.321211
0.323145
0.324925
0.326562
0.328065
0.329429
0.330664
0.33178
0.332779
0.33367
0.334469
0.335162
0.335766
0.33628
0.336705
0.337043
0.337301
0.337475
0.33757
0.337536
0.337493
0.336952
0.243742
0.244968
0.251168
0.256247
0.26269
0.26911
0.275618
0.281582
0.287242
0.2922
0.296669
0.300647
0.304232
0.307475
0.310425
0.313135
0.315625
0.31792
0.320039
0.321996
0.323798
0.325455
0.326974
0.328355
0.329605
0.330737
0.331752
0.332657
0.33347
0.334178
0.334797
0.335326
0.33577
0.336128
0.336412
0.336617
0.336753
0.336773
0.336793
0.336322
0.244698
0.245658
0.251191
0.255854
0.261835
0.267937
0.274246
0.280092
0.285714
0.290681
0.295185
0.299216
0.302853
0.306145
0.309139
0.311886
0.314409
0.316732
0.318876
0.320856
0.322678
0.324354
0.325889
0.327287
0.328551
0.329698
0.330728
0.331647
0.332473
0.333196
0.333828
0.334372
0.334834
0.335212
0.335521
0.335757
0.335935
0.336012
0.336105
0.335726
0.245644
0.246363
0.251279
0.255549
0.261061
0.266827
0.272917
0.278634
0.284203
0.289172
0.293709
0.297789
0.301478
0.304819
0.307858
0.310641
0.313196
0.315547
0.317715
0.319717
0.321559
0.323253
0.324805
0.326218
0.327497
0.328659
0.329703
0.330636
0.331474
0.332211
0.332856
0.333415
0.333894
0.334293
0.334626
0.334893
0.335112
0.33525
0.335426
0.335172
0.246518
0.247012
0.251348
0.255258
0.260309
0.265731
0.27159
0.277172
0.282677
0.287642
0.292205
0.296334
0.300075
0.303465
0.306549
0.30937
0.311959
0.31434
0.316535
0.318561
0.320425
0.322138
0.323706
0.325136
0.326431
0.327608
0.328667
0.329616
0.330466
0.331216
0.331876
0.33245
0.332945
0.333365
0.333721
0.334019
0.33428
0.334482
0.334753
0.334667
0.248084
0.248105
0.251724
0.255172
0.259679
0.264686
0.270266
0.275674
0.281079
0.286018
0.290602
0.294782
0.298588
0.302047
0.305196
0.308074
0.310712
0.313135
0.315364
0.317418
0.319306
0.32104
0.322626
0.324072
0.325382
0.326572
0.327645
0.328606
0.329467
0.330229
0.330901
0.331488
0.331998
0.332435
0.332814
0.333139
0.333438
0.333702
0.334073
0.334215
0.257585
0.255861
0.257232
0.258635
0.260679
0.263509
0.267448
0.271699
0.276371
0.281027
0.285635
0.290044
0.294174
0.297974
0.30143
0.304555
0.307376
0.309929
0.312249
0.314365
0.316297
0.318064
0.319675
0.321142
0.322473
0.323678
0.324765
0.325743
0.326617
0.327397
0.328088
0.328699
0.329238
0.329714
0.330139
0.330528
0.330912
0.331324
0.331955
0.332871
0.25957
0.25684
0.258127
0.258439
0.258689
0.259719
0.262124
0.265783
0.269611
0.273942
0.27854
0.283138
0.287547
0.291641
0.295357
0.29869
0.301667
0.304332
0.306732
0.308905
0.31088
0.312679
0.314316
0.315806
0.317159
0.318383
0.319489
0.320485
0.321377
0.322174
0.322883
0.323512
0.32407
0.324567
0.325016
0.325438
0.325868
0.326371
0.32717
0.328443
0.256921
0.255841
0.25672
0.256563
0.255306
0.255243
0.256378
0.259105
0.262593
0.266727
0.271384
0.276221
0.280954
0.285376