/*--------------------------------*- C++ -*----------------------------------*\
  =========                 |
  \\      /  F ield         | OpenFOAM: The Open Source CFD Toolbox
   \\    /   O peration     | Website:  https://openfoam.org
    \\  /    A nd           | Version:  7
     \\/     M anipulation  |
\*---------------------------------------------------------------------------*/
FoamFile
{
    version     2.0;
    format      ascii;
    class       volVectorField;
    location    "9.4";
    object      U;
}
// * * * * * * * * * * * * * * * * * * * * * * * * * * * * * * * * * * * * * //

dimensions      [0 1 -1 0 0 0 0];

internalField   nonuniform List<vector> 
32000
(
(0.000222679 -0.00557516 -1.67894e-22)
(0.00140454 -0.012077 0)
(0.00372551 -0.0144324 -1.50797e-21)
(0.00680831 -0.0134267 0)
(0.0106083 -0.00963908 1.57647e-21)
(0.0150395 -0.00351378 0)
(0.0200422 0.00458946 1.63323e-21)
(0.025568 0.0143789 -1.24287e-21)
(0.0315743 0.0256118 6.88222e-25)
(0.0380219 0.0380865 7.17442e-25)
(0.0448744 0.0516326 -4.28826e-22)
(0.0520976 0.066103 1.73241e-21)
(0.0596579 0.0813681 0)
(0.0675197 0.0973107 -4.40477e-22)
(0.075645 0.113822 4.42303e-22)
(0.0839939 0.130798 0)
(0.0925243 0.14814 2.24043e-21)
(0.101192 0.165747 -4.49735e-22)
(0.109951 0.183523 0)
(0.118755 0.201371 9.13605e-22)
(0.127552 0.219194 9.16125e-22)
(0.136293 0.236898 0)
(0.144927 0.254388 0)
(0.153406 0.271574 0)
(0.161681 0.28837 0)
(0.169706 0.304692 0)
(0.17744 0.320466 0)
(0.184842 0.335623 0)
(0.19188 0.3501 -1.92292e-21)
(0.198523 0.363845 0)
(0.204747 0.376815 1.95148e-21)
(0.210532 0.388976 0)
(0.215865 0.400302 0)
(0.220737 0.410777 0)
(0.225146 0.420394 -2.01156e-21)
(0.229095 0.429148 -1.02442e-21)
(0.232591 0.43704 3.08218e-21)
(0.235656 0.444058 4.87752e-24)
(0.238308 0.450177 2.09274e-21)
(0.240433 0.455298 4.44601e-24)
(0.000333975 -0.00582971 0)
(0.00161646 -0.0127889 2.94155e-21)
(0.0039084 -0.015576 7.52521e-22)
(0.00685261 -0.0149822 -1.61414e-24)
(0.0104185 -0.0115949 -7.885e-22)
(0.0145349 -0.00586223 0)
(0.0191534 0.00185303 1.63452e-21)
(0.0242358 0.0112574 -1.65835e-21)
(0.0297484 0.0221072 0)
(0.0356603 0.0342011 -3.39774e-21)
(0.0419418 0.0473699 0)
(0.0485648 0.0614689 -5.19554e-21)
(0.0555015 0.0763705 0)
(0.0627217 0.0919603 0)
(0.0701928 0.108133 1.77202e-21)
(0.0778812 0.124788 -1.77772e-21)
(0.0857506 0.141831 -1.79122e-21)
(0.093762 0.159165 0)
(0.101876 0.176699 5.42647e-21)
(0.110049 0.194339 -1.81307e-21)
(0.118238 0.211992 3.3214e-24)
(0.126399 0.229568 -5.49778e-21)
(0.134484 0.246974 -3.68651e-21)
(0.14245 0.264123 -1.86452e-21)
(0.150253 0.28093 5.58745e-21)
(0.157849 0.297312 -5.63857e-21)
(0.1652 0.313195 5.6844e-21)
(0.172267 0.328507 -7.58596e-21)
(0.179017 0.343185 -1.90069e-21)
(0.185422 0.357175 3.48558e-23)
(0.191455 0.370429 -5.78118e-21)
(0.197097 0.382908 -3.89421e-21)
(0.202332 0.394585 7.90723e-21)
(0.207149 0.405436 -7.91412e-21)
(0.211543 0.415449 -1.97991e-21)
(0.215514 0.424615 -8.08349e-21)
(0.219067 0.432925 -1.02338e-23)
(0.222222 0.440363 2.06498e-21)
(0.224983 0.446891 -8.19822e-21)
(0.227222 0.452402 -1.15568e-20)
(0.000456065 -0.00608499 -6.74246e-22)
(0.00185621 -0.0134964 -1.47038e-21)
(0.00413129 -0.0166908 -6.79748e-21)
(0.00694941 -0.0164872 0)
(0.010294 -0.0134796 7.89648e-22)
(0.0141087 -0.00812276 -8.03078e-22)
(0.0183581 -0.000781643 -9.80529e-21)
(0.0230147 0.00824832 3.31551e-21)
(0.0280525 0.0187242 -1.68071e-21)
(0.0334486 0.0304447 1.01912e-20)
(0.0391803 0.0432412 3.43229e-21)
(0.045225 0.0569708 1.73317e-21)
(0.0515601 0.0715085 -6.97863e-21)
(0.0581611 0.0867428 0)
(0.0650005 0.102572 0)
(0.072049 0.118898 3.56169e-21)
(0.0792756 0.135631 1.13497e-23)
(0.086647 0.152678 -3.58696e-21)
(0.0941281 0.169952 -3.61361e-21)
(0.101682 0.187363 -7.24779e-21)
(0.10927 0.204822 1.09365e-20)
(0.116851 0.222242 1.60059e-23)
(0.124385 0.239534 -7.8193e-24)
(0.131832 0.256613 3.68638e-21)
(0.139151 0.273394 -7.4647e-21)
(0.146303 0.289799 1.49445e-20)
(0.153251 0.305751 0)
(0.159959 0.321178 3.79805e-21)
(0.166396 0.336018 3.82357e-21)
(0.172532 0.350212 7.71094e-21)
(0.178343 0.363712 3.4842e-23)
(0.183808 0.376474 0)
(0.188909 0.388465 3.95562e-21)
(0.193635 0.39966 -3.88333e-21)
(0.197979 0.41004 -3.93144e-21)
(0.201936 0.419591 1.20811e-20)
(0.205512 0.428297 -1.19952e-20)
(0.208724 0.436134 8.17155e-21)
(0.211562 0.443059 -1.2153e-20)
(0.213886 0.448949 4.49545e-21)
(0.000587519 -0.00631773 5.39507e-21)
(0.00211949 -0.014148 -5.89658e-21)
(0.00438684 -0.0177298 1.20927e-20)
(0.00708756 -0.0178991 0)
(0.0102209 -0.0152572 4.73902e-21)
(0.0137458 -0.0102647 8.04326e-21)
(0.0176393 -0.0032875 1.6326e-21)
(0.0218844 0.00537582 2.00762e-24)
(0.0264643 0.0154826 5.04161e-21)
(0.031363 0.0268325 -1.69942e-21)
(0.0365644 0.0392582 8.57874e-21)
(0.0420518 0.0526182 -1.03878e-20)
(0.0478075 0.0667904 1.04647e-20)
(0.0538116 0.0816657 -3.51564e-21)
(0.0600406 0.0971446 3.53025e-21)
(0.0664704 0.113134 -7.10334e-21)
(0.0730744 0.129546 -1.07155e-20)
(0.0798238 0.146293 3.58239e-21)
(0.0866881 0.163291 -3.61219e-21)
(0.0936352 0.180454 1.08604e-20)
(0.100631 0.197697 -7.28111e-21)
(0.107639 0.214935 -7.29784e-21)
(0.114623 0.232084 0)
(0.121548 0.249061 0)
(0.128377 0.265785 -7.4018e-21)
(0.135074 0.282176 -7.46889e-21)
(0.141604 0.29816 -7.48065e-21)
(0.147934 0.313665 0)
(0.154035 0.328628 0)
(0.159878 0.342988 -1.52912e-20)
(0.165438 0.356694 -8.81967e-23)
(0.170695 0.369701 7.75949e-21)
(0.175632 0.381972 -7.74038e-21)
(0.180234 0.393477 -7.88956e-21)
(0.184493 0.404193 7.90111e-21)
(0.188403 0.4141 0)
(0.191969 0.423177 8.03231e-21)
(0.195205 0.431393 -1.61258e-20)
(0.198088 0.438696 1.61898e-20)
(0.200467 0.444954 -1.81775e-20)
(0.000727478 -0.00654251 -2.69362e-21)
(0.00240333 -0.0147712 4.42386e-21)
(0.00467085 -0.0187186 -6.04943e-21)
(0.00726188 -0.0192403 0)
(0.0101917 -0.0169468 -7.90084e-21)
(0.0134359 -0.0123037 -4.8275e-21)
(0.0169846 -0.00567952 6.54102e-21)
(0.0208311 0.00262623 0)
(0.0249676 0.0123708 -1.00829e-20)
(0.0293855 0.023355 -3.39983e-21)
(0.0340751 0.035413 -3.42998e-21)
(0.0390249 0.0484052 6.92751e-21)
(0.0442216 0.0622114 -6.97522e-21)
(0.0496497 0.0767251 3.50802e-21)
(0.0552901 0.0918499 0)
(0.0611221 0.107496 1.0658e-20)
(0.0671236 0.123578 3.57567e-21)
(0.0732697 0.140014 -7.17997e-21)
(0.0795341 0.156722 1.43988e-20)
(0.0858886 0.173619 -1.44594e-20)
(0.092303 0.190626 1.44944e-20)
(0.0987462 0.20766 7.29785e-21)
(0.105186 0.224641 0)
(0.111591 0.241489 7.38171e-21)
(0.117926 0.258123 3.94555e-23)
(0.12416 0.274467 0)
(0.130262 0.290448 7.48068e-21)
(0.1362 0.305995 -7.54356e-21)
(0.141947 0.321042 7.51217e-21)
(0.147475 0.33553 1.52497e-20)
(0.152761 0.349404 -1.52833e-20)
(0.157784 0.362619 1.53572e-20)
(0.162527 0.375134 0)
(0.166975 0.386915 0)
(0.171119 0.397934 1.56793e-20)
(0.174951 0.408167 0)
(0.178474 0.417588 0)
(0.181705 0.426158 -1.60187e-20)
(0.184602 0.43382 1.59768e-20)
(0.187008 0.440433 9.06114e-21)
(0.000874738 -0.00675145 1.35138e-21)
(0.00270448 -0.0153498 0)
(0.00497764 -0.0196393 1.2124e-20)
(0.00746361 -0.0204944 1.55089e-21)
(0.0101958 -0.0185335 1.58471e-21)
(0.0131666 -0.0142269 9.66946e-21)
(0.0163793 -0.00794586 1.30957e-20)
(0.0198379 9.7754e-06 0)
(0.0235442 0.00939775 3.3631e-21)
(0.0274965 0.0200199 1.01994e-20)
(0.031691 0.031712 1.37279e-20)
(0.0361213 0.0443366 -3.46287e-21)
(0.0407788 0.0577756 -1.04604e-20)
(0.0456514 0.0719251 0)
(0.0507237 0.0866914 1.41147e-20)
(0.0559789 0.101988 0)
(0.0613982 0.117733 2.13911e-20)
(0.0669604 0.133846 -7.14979e-21)
(0.0726426 0.150251 0)
(0.0784204 0.166868 -7.23389e-21)
(0.0842676 0.18362 -2.23852e-23)
(0.0901569 0.20043 -7.24151e-21)
(0.09606 0.217219 -7.28363e-21)
(0.101948 0.23391 7.36108e-21)
(0.107791 0.250426 -7.3418e-21)
(0.11356 0.266693 0)
(0.119226 0.282637 -7.47121e-21)
(0.124762 0.29819 7.44267e-21)
(0.130141 0.313286 0)
(0.135337 0.327865 0)
(0.140329 0.341872 0)
(0.145096 0.355258 -1.5379e-20)
(0.14962 0.36798 1.52978e-20)
(0.153888 0.380001 0)
(0.157888 0.391291 -7.81305e-21)
(0.161614 0.401819 0)
(0.165066 0.411554 1.58637e-20)
(0.16826 0.420455 -7.80384e-21)
(0.171144 0.428453 -1.60477e-20)
(0.173547 0.435405 1.78193e-20)
(0.00102828 -0.00694613 9.47953e-21)
(0.0030193 -0.0158857 -1.33129e-20)
(0.00530173 -0.0204942 -2.27454e-20)
(0.00768595 -0.0216627 -1.24155e-20)
(0.0102242 -0.0200182 -3.16756e-21)
(0.0129265 -0.0160359 -6.44232e-21)
(0.0158104 -0.0100884 -2.94717e-20)
(0.0188907 -0.00247553 -9.96499e-21)
(0.0221781 0.00656089 -1.68136e-20)
(0.0256783 0.0168242 -1.69973e-20)
(0.0293933 0.0281522 -2.40264e-20)
(0.0333215 0.0404094 -1.38432e-20)
(0.0374581 0.05348 1.74266e-24)
(0.0417948 0.0672627 -1.40312e-20)
(0.0463195 0.0816665 -1.41146e-20)
(0.0510184 0.0966078 -2.12786e-20)
(0.055876 0.112008 1.42397e-20)
(0.0608739 0.12779 -7.14406e-21)
(0.0659926 0.14388 0)
(0.0712108 0.160203 1.44101e-20)
(0.0765061 0.176685 0)
(0.0818543 0.193251 2.9051e-20)
(0.0872306 0.209826 0)
(0.0926091 0.226337 -7.34291e-21)
(0.0979638 0.242709 7.39451e-21)
(0.103268 0.258869 -1.47058e-20)
(0.108496 0.274746 0)
(0.113623 0.290272 -1.49652e-20)
(0.118624 0.305383 1.4903e-20)
(0.123476 0.320018 0)
(0.128157 0.334122 0)
(0.132649 0.347643 0)
(0.136934 0.360537 -1.52618e-20)
(0.140999 0.372765 0)
(0.144831 0.384291 -1.55699e-20)
(0.148424 0.395082 3.11398e-20)
(0.151778 0.405103 -3.13204e-20)
(0.154909 0.414306 1.55093e-20)
(0.157752 0.422619 3.16689e-20)
(0.160126 0.42989 -1.77093e-20)
(0.00118681 -0.00712479 -1.21876e-20)
(0.00334434 -0.0163756 -1.38321e-23)
(0.00563749 -0.0212785 1.21364e-20)
(0.00792096 -0.0227407 2.48424e-20)
(0.010267 -0.0213974 -3.16992e-21)
(0.0127045 -0.0177272 -1.29091e-20)
(0.0152651 -0.0121042 1.31003e-20)
(0.0179749 -0.0048279 1.99325e-20)
(0.0208537 0.00386118 6.72499e-21)
(0.0239142 0.0137683 1.70019e-20)
(0.027164 0.0247332 1.37291e-20)
(0.0306061 0.0366227 2.07624e-20)
(0.0342397 0.0493235 4.18289e-20)
(0.0380594 0.0627368 2.10494e-20)
(0.0420562 0.0767743 0)
(0.0462191 0.0913552 7.08401e-21)
(0.0505352 0.106404 7.10555e-21)
(0.054989 0.121846 7.13434e-21)
(0.0595634 0.137611 1.43528e-20)
(0.0642403 0.153627 -7.20221e-21)
(0.0690003 0.169824 0)
(0.073822 0.186129 -1.94537e-23)
(0.0786837 0.202472 -1.4544e-20)
(0.0835627 0.218781 1.45953e-20)
(0.0884356 0.234984 2.9329e-20)
(0.093279 0.251011 2.94833e-20)
(0.0980696 0.266792 3.76515e-23)
(0.102785 0.282262 1.48272e-20)
(0.107402 0.297356 1.48932e-20)
(0.111901 0.312013 -1.49625e-20)
(0.11626 0.326179 1.50351e-20)
(0.120462 0.339801 1.51105e-20)
(0.12449 0.352832 3.04503e-20)
(0.128332 0.365232 -1.2386e-22)
(0.131975 0.376961 4.61316e-20)
(0.135412 0.387984 4.47381e-23)
(0.138644 0.39826 -1.55137e-20)
(0.141688 0.407739 -1.56971e-20)
(0.144464 0.416341 1.56727e-20)
(0.146784 0.423913 1.76481e-20)
(0.00134916 -0.007286 1.08626e-20)
(0.00367592 -0.0168162 1.48125e-20)
(0.00597912 -0.021989 9.12541e-21)
(0.00816089 -0.0237252 -9.31705e-21)
(0.0103149 -0.0226678 -1.58587e-20)
(0.0124895 -0.0192984 1.29061e-20)
(0.014731 -0.0139919 0)
(0.0170769 -0.00704646 1.33005e-20)
(0.0195561 0.001299 0)
(0.0221882 0.0108518 -2.72102e-20)
(0.0249862 0.021454 6.86872e-21)
(0.0279577 0.032975 -3.461e-20)
(0.031105 0.0453042 -1.39426e-20)
(0.0344261 0.0583453 7.01841e-21)
(0.0379142 0.0720125 9.98394e-24)
(0.0415611 0.0862279 -7.08068e-21)
(0.0453559 0.100918 -1.42366e-20)
(0.0492856 0.116013 -2.85809e-20)
(0.0533355 0.131444 0)
(0.05749 0.147142 2.14886e-23)
(0.0617323 0.16304 -1.44108e-20)
(0.0660437 0.17907 -1.44944e-20)
(0.070405 0.195163 1.45441e-20)
(0.0747961 0.21125 -1.46501e-20)
(0.0791966 0.227262 1.46249e-20)
(0.0835857 0.243131 -2.93448e-20)
(0.0879426 0.258791 3.94191e-23)
(0.092247 0.274175 -2.9575e-20)
(0.0964786 0.289222 -1.48933e-20)
(0.100618 0.303871 -4.403e-23)
(0.104647 0.318066 -1.00055e-22)
(0.108548 0.331755 -1.51106e-20)
(0.112306 0.34489 -1.51885e-20)
(0.115909 0.357429 -7.18846e-23)
(0.119345 0.369329 -1.53495e-20)
(0.122607 0.380551 -8.31278e-23)
(0.125697 0.391052 -1.55982e-20)
(0.128631 0.400778 4.64192e-20)
(0.131316 0.409646 -1.56728e-20)
(0.133559 0.417498 -1.76734e-20)
(0.00151406 -0.00742821 -1.08654e-20)
(0.00401036 -0.017205 2.96373e-21)
(0.00632064 -0.0226223 -9.11801e-21)
(0.00839802 -0.0246128 -3.10921e-21)
(0.0103586 -0.0238266 1.26893e-20)
(0.0122707 -0.0207474 -3.23098e-21)
(0.0141962 -0.0157498 3.27968e-21)
(0.0161839 -0.0091303 -1.99542e-20)
(0.0182715 -0.00112573 6.73123e-21)
(0.0204856 0.00807375 1.36073e-20)
(0.0228444 0.0183131 0)
(0.0253598 0.0294645 2.76952e-20)
(0.0280372 0.0414198 0)
(0.0308771 0.0540854 -2.80592e-20)
(0.0338753 0.0673783 -1.41048e-20)
(0.0370257 0.0812233 0)
(0.0403194 0.0955496 0)
(0.0437451 0.110289 2.85719e-20)
(0.0472905 0.125377 1.43579e-20)
(0.0509423 0.140747 -2.87684e-20)
(0.0546855 0.156335 1.44013e-20)
(0.0585037 0.172075 0)
(0.0623801 0.187902 -1.45561e-20)
(0.0662972 0.203749 2.91142e-20)
(0.070237 0.21955 -1.45684e-20)
(0.0741808 0.23524 -1.47133e-20)
(0.0781106 0.250753 1.46626e-20)
(0.0820079 0.266027 0)
(0.0858547 0.280998 2.97031e-20)
(0.0896333 0.295609 -1.48256e-20)
(0.093327 0.309803 -1.50257e-20)
(0.0969202 0.323528 -1.46129e-22)
(0.100399 0.336736 6.04171e-20)
(0.10375 0.34938 -4.53665e-20)
(0.106965 0.361419 0)
(0.110036 0.37281 -1.53485e-20)
(0.112966 0.383506 -3.09368e-20)
(0.11577 0.393452 1.52411e-20)
(0.118345 0.402559 1.54815e-20)
(0.120489 0.41067 0)
(0.00168008 -0.00754994 -2.17854e-20)
(0.00434376 -0.0175389 -2.96766e-21)
(0.00665616 -0.0231748 2.43767e-20)
(0.00862463 -0.0254001 -2.49249e-20)
(0.0103888 -0.0248711 0)
(0.012038 -0.022072 0)
(0.0136496 -0.0173765 -6.56705e-21)
(0.0152837 -0.0110789 -2.92034e-24)
(0.016987 -0.00341327 6.7348e-21)
(0.0187929 0.00543342 0)
(0.0207246 0.0153091 0)
(0.0227977 0.026089 -6.92138e-21)
(0.0250208 0.0376677 5.26426e-24)
(0.0273966 0.0499544 7.01759e-21)
(0.0299234 0.0628689 1.41048e-20)
(0.0325965 0.0763383 0)
(0.0354088 0.0902944 1.42457e-20)
(0.0383508 0.104672 -1.42504e-20)
(0.041412 0.119408 -2.86674e-20)
(0.0445808 0.134441 2.87583e-20)
(0.047844 0.149708 5.44782e-23)
(0.0511873 0.165146 -1.44339e-20)
(0.0545958 0.180692 1.45428e-20)
(0.0580543 0.196283 -2.90679e-20)
(0.0615467 0.211856 0)
(0.0650569 0.227346 1.46895e-20)
(0.0685685 0.242691 -2.93811e-20)
(0.0720654 0.257828 1.46859e-20)
(0.0755316 0.272699 -1.4811e-20)
(0.0789509 0.287245 -1.49156e-20)
(0.0823083 0.301409 -1.51126e-20)
(0.0855897 0.315141 5.98936e-20)
(0.0887821 0.32839 -4.49921e-20)
(0.0918744 0.34111 -3.03581e-20)
(0.0948573 0.353257 3.01844e-20)
(0.0977239 0.364786 0)
(0.100478 0.375648 3.07771e-20)
(0.103137 0.385787 -3.05844e-20)
(0.105583 0.395109 -1.54816e-20)
(0.107609 0.403458 0)
(0.00184578 -0.00764965 4.63364e-20)
(0.00467218 -0.017815 2.08372e-20)
(0.00697953 -0.0236433 -2.43766e-20)
(0.00883305 -0.0260843 2.18065e-20)
(0.0103967 -0.0257986 -3.18195e-21)
(0.0117816 -0.0232702 6.46805e-21)
(0.0130805 -0.0188709 0)
(0.0143652 -0.012892 -6.66108e-21)
(0.0156911 -0.00556391 6.73869e-21)
(0.0170979 0.00292969 6.81235e-21)
(0.018614 0.0124402 -6.87193e-21)
(0.0202583 0.0228462 -6.93015e-21)
(0.0220423 0.0340452 6.97362e-21)
(0.0239709 0.0459493 0)
(0.0260441 0.0584808 0)
(0.0282588 0.0715695 -1.41864e-20)
(0.0306093 0.0851496 1.42199e-20)
(0.0330877 0.0991586 -1.43024e-20)
(0.035685 0.113536 1.4314e-20)
(0.0383911 0.128223 1.44003e-20)
(0.0411941 0.143158 -2.88386e-20)
(0.0440814 0.158282 2.89198e-20)
(0.0470401 0.173535 6.80232e-23)
(0.0500566 0.188856 -1.4503e-20)
(0.0531168 0.204182 0)
(0.0562065 0.219454 1.46715e-20)
(0.0593113 0.234611 9.94067e-23)
(0.0624171 0.249591 -1.46641e-20)
(0.0655093 0.264337 0)
(0.0685738 0.278792 2.97609e-20)
(0.071597 0.292901 -2.96191e-20)
(0.0745661 0.306611 0)
(0.0774696 0.319873 3.01208e-20)
(0.0802973 0.33264 -2.99547e-20)
(0.0830408 0.344866 0)
(0.0856938 0.356504 0)
(0.0882614 0.367504 0)
(0.0907604 0.377809 -3.07563e-20)
(0.0930628 0.387321 3.05591e-20)
(0.0949543 0.395887 3.50244e-20)
(0.00200951 -0.00772575 -2.18207e-20)
(0.00499144 -0.0180305 -2.38087e-20)
(0.00728472 -0.0240249 -3.05343e-21)
(0.00901577 -0.0266623 9.3612e-21)
(0.0103738 -0.0266067 -1.27268e-20)
(0.0114921 -0.0243404 1.29494e-20)
(0.0124792 -0.0202321 -1.31494e-20)
(0.0134181 -0.0145693 -2.0003e-20)
(0.014373 -0.00757826 0)
(0.0153898 0.000561286 -6.81585e-21)
(0.0165014 0.00970471 6.87546e-21)
(0.0177302 0.0197339 0)
(0.01909 0.0305496 1.39629e-20)
(0.0205878 0.0420669 -1.40352e-20)
(0.0222251 0.0542108 -4.23596e-20)
(0.0240001 0.0669135 -2.1823e-23)
(0.0259084 0.0801117 2.84762e-20)
(0.0279433 0.0937455 -1.42737e-20)
(0.0300971 0.107757 0)
(0.0323607 0.122089 0)
(0.0347236 0.136684 2.88404e-20)
(0.0371746 0.151484 1.44881e-20)
(0.0397022 0.166431 -1.44643e-20)
(0.0422945 0.181467 -1.45725e-20)
(0.0449391 0.196534 2.91497e-20)
(0.0476233 0.211571 -1.45708e-20)
(0.0503346 0.22652 2.94089e-20)
(0.0530605 0.241323 -5.87999e-20)
(0.0557882 0.255923 5.89824e-20)
(0.058505 0.270265 -5.91741e-20)
(0.0611989 0.284293 5.93748e-20)
(0.0638584 0.297956 -5.95836e-20)
(0.0664733 0.311205 2.9764e-20)
(0.0690345 0.323991 3.0151e-20)
(0.0715345 0.336268 2.89714e-22)
(0.0739676 0.347987 2.97473e-22)
(0.07634 0.359099 -3.02012e-20)
(0.0786687 0.369544 2.08143e-22)
(0.0808149 0.379223 -3.04211e-20)
(0.0825579 0.387985 0)
(0.00216959 -0.00777682 2.73395e-21)
(0.00529726 -0.0181828 -2.98298e-21)
(0.00756554 -0.0243165 9.16788e-21)
(0.00916538 -0.0271315 -1.24927e-20)
(0.0103119 -0.0272934 6.36775e-21)
(0.0111609 -0.0252811 0)
(0.0118364 -0.0214594 0)
(0.0124332 -0.0161109 2.66661e-20)
(0.0130234 -0.009457 3.3752e-20)
(0.013659 -0.00167296 -6.81771e-21)
(0.0143773 0.00710075 3.44133e-20)
(0.0152037 0.0167498 -6.9334e-21)
(0.0161541 0.0271783 0)
(0.0172373 0.0383044 0)
(0.0184562 0.0500557 2.82359e-20)
(0.0198102 0.0623669 0)
(0.0212956 0.0751774 1.42392e-20)
(0.0229071 0.0884296 -1.43189e-20)
(0.0246378 0.102068 0)
(0.0264794 0.116037 -2.87746e-20)
(0.0284226 0.130283 -1.43915e-20)
(0.0304574 0.144749 -4.33609e-20)
(0.0325735 0.15938 -1.4531e-20)
(0.0347602 0.17412 1.44997e-20)
(0.0370068 0.188912 2.91437e-20)
(0.039302 0.203699 0)
(0.0416348 0.218424 2.92908e-20)
(0.0439942 0.233032 5.88449e-20)
(0.0463688 0.247466 2.13623e-22)
(0.0487475 0.261673 -2.94355e-20)
(0.0511196 0.275598 -2.97607e-20)
(0.053475 0.28919 2.96108e-20)
(0.0558045 0.3024 2.99654e-20)
(0.0581004 0.315181 -5.9871e-20)
(0.0603559 0.327483 6.00763e-20)
(0.0625659 0.339258 -3.01839e-20)
(0.0647376 0.350456 3.01007e-20)
(0.0668883 0.361017 6.07104e-20)
(0.0688688 0.370841 3.03871e-20)
(0.0704517 0.379779 3.4464e-20)
(0.00232418 -0.00780148 -2.19261e-20)
(0.00558523 -0.0182693 2.0913e-20)
(0.00781586 -0.0245155 -1.83718e-20)
(0.00927465 -0.0274897 1.87707e-20)
(0.010203 -0.0278569 3.18866e-20)
(0.0107797 -0.0260915 -2.59534e-20)
(0.0111441 -0.0225525 3.29357e-20)
(0.0114023 -0.017517 2.00325e-20)
(0.0116341 -0.0112009 -4.72712e-20)
(0.0118976 -0.00377441 1.36562e-20)
(0.0122337 0.00462668 6.90258e-21)
(0.0126708 0.0138919 1.38824e-20)
(0.0132267 0.0239289 1.3988e-20)
(0.0139116 0.034659 -2.81254e-20)
(0.0147296 0.0460125 2.82734e-20)
(0.0156809 0.0579268 4.2612e-20)
(0.016763 0.0703437 -4.27392e-20)
(0.0179711 0.083208 5.72206e-20)
(0.019299 0.0964663 2.87122e-20)
(0.0207393 0.110066 4.31895e-20)
(0.0222835 0.123954 1.44655e-20)
(0.0239225 0.138077 2.89278e-20)
(0.0256471 0.152381 -2.90169e-20)
(0.0274478 0.166813 0)
(0.029315 0.181318 -8.7524e-20)
(0.0312389 0.195841 5.844e-20)
(0.0332097 0.210328 -2.91114e-20)
(0.0352175 0.224724 -2.91751e-20)
(0.0372525 0.238974 9.79904e-23)
(0.0393048 0.253026 0)
(0.041365 0.266827 0)
(0.0434243 0.280327 2.96797e-20)
(0.0454746 0.293476 -2.99107e-20)
(0.0475092 0.306227 2.97458e-20)
(0.049522 0.31853 -3.01031e-20)
(0.0515087 0.330337 -3.02051e-20)
(0.0534772 0.341597 0)
(0.0554448 0.352252 -3.01215e-20)
(0.0572525 0.362201 -3.01093e-20)
(0.0586664 0.371295 -1.03527e-19)
(0.00247135 -0.00779842 2.19241e-20)
(0.00585081 -0.0182879 -2.09129e-20)
(0.00802954 -0.0246198 2.44882e-20)
(0.00933655 -0.027735 -4.38156e-20)
(0.0100398 -0.028296 -3.18928e-20)
(0.010341 -0.0267706 2.59534e-20)
(0.0103948 -0.0235112 -5.27222e-20)
(0.0103181 -0.0187881 -2.67056e-20)
(0.0101984 -0.0128109 3.37812e-20)
(0.0100989 -0.00574433 -6.14539e-20)
(0.0100644 0.00228081 -4.13327e-20)
(0.0101254 0.0111582 -1.39027e-20)
(0.0103017 0.0207992 -4.19475e-20)
(0.0106047 0.0311283 4.21878e-20)
(0.0110393 0.0420787 -2.82736e-20)
(0.0116067 0.0535905 -2.84041e-20)
(0.0123048 0.0656079 0)
(0.0131294 0.0780782 -2.86212e-20)
(0.0140751 0.0909499 -4.30944e-20)
(0.0151349 0.104172 1.43839e-20)
(0.016301 0.117695 -2.8873e-20)
(0.017565 0.131466 0)
(0.0189187 0.145434 2.90171e-20)
(0.0203535 0.159548 2.91666e-20)
(0.0218608 0.173755 -2.91107e-20)
(0.023432 0.188002 0)
(0.0250584 0.202236 0)
(0.0267312 0.216404 0)
(0.0284417 0.230454 1.99617e-24)
(0.0301813 0.244333 0)
(0.0319418 0.257991 -5.92873e-20)
(0.0337153 0.271379 -1.27664e-22)
(0.0354949 0.284446 -5.9609e-20)
(0.0372748 0.297145 5.96643e-20)
(0.0390496 0.309428 -2.97862e-20)
(0.0408153 0.321245 3.00295e-20)
(0.0425806 0.332545 0)
(0.0443627 0.343274 6.05089e-20)
(0.0459933 0.353327 -3.01053e-20)
(0.0472315 0.36256 0)
(0.00260911 -0.00776651 2.74748e-21)
(0.00608938 -0.0182366 0)
(0.00820052 -0.0246272 -3.06806e-20)
(0.00934429 -0.0278657 3.75829e-20)
(0.00981529 -0.0286096 1.91744e-20)
(0.00983791 -0.0273182 -2.59993e-20)
(0.00958199 -0.0243357 2.63721e-20)
(0.00917458 -0.0199248 -2.67496e-20)
(0.00871047 -0.0142881 0)
(0.00825774 -0.00758406 2.73237e-20)
(0.00786437 6.15517e-05 -2.75939e-20)
(0.00756315 0.00854685 -2.40103e-23)
(0.0073751 0.0177872 0)
(0.00731276 0.0277102 2.81761e-20)
(0.0073818 0.0382523 -1.41609e-20)
(0.00758391 0.0493561 2.84823e-20)
(0.00791757 0.0609683 1.43092e-20)
(0.00837899 0.0730383 -2.86806e-20)
(0.00896297 0.0855168 0)
(0.00966313 0.0983551 4.32997e-20)
(0.0104722 0.111504 1.45002e-20)
(0.0113824 0.124916 0)
(0.0123861 0.138539 0)
(0.0134757 0.152325 0)
(0.0146434 0.166223 2.91749e-20)
(0.0158814 0.180182 0)
(0.017182 0.19415 -2.94027e-20)
(0.0185376 0.208077 5.87638e-20)
(0.0199403 0.221911 -5.87918e-20)
(0.0213826 0.235602 0)
(0.0228572 0.2491 2.95857e-20)
(0.0243574 0.262357 -2.96561e-20)
(0.0258771 0.275323 2.9738e-20)
(0.0274113 0.287951 0)
(0.028955 0.300193 0)
(0.0305048 0.311999 3.00801e-20)
(0.0320696 0.32332 -2.98967e-20)
(0.033666 0.334103 6.04542e-20)
(0.0351177 0.344243 -6.00666e-20)
(0.0361758 0.3536 0)
(0.00273536 -0.00770477 1.92845e-20)
(0.00629628 -0.0181138 5.99616e-21)
(0.00832285 -0.0245364 2.45468e-20)
(0.00929138 -0.027881 2.51041e-20)
(0.00952293 -0.0287973 -2.5561e-20)
(0.00926439 -0.0277344 2.59993e-20)
(0.00870003 -0.0250266 2.64182e-20)
(0.00796679 -0.020928 2.67497e-20)
(0.00716609 -0.0156335 0)
(0.00637043 -0.00929491 2.73705e-20)
(0.00563064 -0.00203256 2.7594e-20)
(0.00498131 0.00605638 2.78126e-20)
(0.00444465 0.0148913 0)
(0.00403398 0.0244033 3.02982e-23)
(0.00375551 0.0345318 2.83271e-20)
(0.00361132 0.0452221 -1.42094e-20)
(0.00360025 0.0564233 -1.42484e-20)
(0.00371875 0.0680871 4.30474e-20)
(0.00396182 0.0801662 3.77273e-23)
(0.00432344 0.0926137 -1.43771e-20)
(0.00479673 0.105383 -2.89354e-20)
(0.00537447 0.118426 0)
(0.00604959 0.131697 0)
(0.0068151 0.145146 0)
(0.00766394 0.158725 0)
(0.0085891 0.172384 0)
(0.00958371 0.186075 0)
(0.0106409 0.199748 2.94969e-20)
(0.0117537 0.213353 -2.93742e-20)
(0.0129155 0.226841 0)
(0.01412 0.240163 0)
(0.0153612 0.253272 2.96564e-20)
(0.0166337 0.266119 0)
(0.0179332 0.278658 2.99069e-20)
(0.0192552 0.290841 -2.97357e-20)
(0.0205962 0.302618 0)
(0.0219654 0.313942 6.02249e-20)
(0.0233785 0.324762 -5.98478e-20)
(0.0246516 0.334974 0)
(0.0255275 0.344439 0)
(0.00284798 -0.00761244 -2.20364e-20)
(0.00646687 -0.0179184 -6.00403e-21)
(0.00839073 -0.0243466 6.14792e-21)
(0.00917171 -0.0277803 -2.51041e-20)
(0.00915685 -0.0288592 0)
(0.00861502 -0.0280196 0)
(0.00774429 -0.0255846 -1.98103e-20)
(0.00669086 -0.0217987 -6.69583e-21)
(0.0055622 -0.0168483 -1.35525e-20)
(0.00443469 -0.0108782 -1.36807e-20)
(0.00336158 -0.00400277 -1.38198e-20)
(0.00237899 0.00368561 1.3923e-20)
(0.00150999 0.0121105 1.40339e-20)
(0.000768449 0.0212067 -1.41025e-20)
(0.000160955 0.0309165 0)
(-0.000310203 0.0411879 0)
(-0.000645997 0.0519727 -2.86133e-20)
(-0.000849875 0.0632245 0)
(-0.000926723 0.0748981 0)
(-0.000882333 0.0869485 2.90149e-20)
(-0.000723246 0.0993306 9.98244e-23)
(-0.000456291 0.111999 7.9809e-23)
(-8.80582e-05 0.124908 -2.9206e-20)
(0.000374956 0.138012 2.91433e-20)
(0.000926264 0.151263 2.92956e-20)
(0.0015595 0.164614 -2.93541e-20)
(0.00226847 0.178016 0)
(0.00304701 0.191423 2.95324e-20)
(0.00388902 0.204786 1.8517e-22)
(0.00478856 0.218057 -2.94624e-20)
(0.00573998 0.231189 0)
(0.00673798 0.244135 0)
(0.00777793 0.256848 2.98436e-20)
(0.00885578 0.269281 -2.9679e-20)
(0.00996735 0.281388 -2.9965e-20)
(0.0111089 0.29312 2.97877e-20)
(0.0122893 0.304431 0)
(0.0135234 0.315273 0)
(0.0146205 0.325542 0)
(0.0153142 0.335102 -3.42818e-20)
(0.0029448 -0.00748893 2.7634e-20)
(0.00659652 -0.0176497 -1.20267e-20)
(0.00839862 -0.0240572 6.15589e-21)
(0.0089796 -0.0275638 0)
(0.00871177 -0.0287959 3.20416e-20)
(0.00788526 -0.0281747 2.76853e-25)
(0.00671113 -0.026011 2.64674e-20)
(0.00534408 -0.0225382 -2.01081e-20)
(0.00389703 -0.0179338 2.71279e-20)
(0.00244965 -0.012335 -1.37031e-20)
(0.00105719 -0.0058501 0)
(-0.000243077 0.00143371 1.39476e-20)
(-0.00142747 0.0094443 -4.21008e-20)
(-0.00248183 0.0181199 0)
(-0.00339936 0.0274061 4.26535e-20)
(-0.00417771 0.0372538 -2.85493e-20)
(-0.00481787 0.0476169 -2.86775e-20)
(-0.00532325 0.0584512 1.43761e-20)
(-0.00569874 0.0697135 0)
(-0.00594998 0.0813607 -2.89463e-20)
(-0.00608328 0.0933495 -2.91062e-20)
(-0.00610514 0.105636 -2.67848e-23)
(-0.00602177 0.118177 2.92286e-20)
(-0.0058393 0.130927 2.93308e-20)
(-0.00556375 0.143841 -5.855e-20)
(-0.00520094 0.156874 2.93544e-20)
(-0.00475648 0.169978 0)
(-0.0042359 0.183108 -2.9521e-20)
(-0.00364471 0.196217 2.95734e-20)
(-0.00298822 0.209259 2.96252e-20)
(-0.00227153 0.222187 -2.96761e-20)
(-0.00149936 0.234956 2.97261e-20)
(-0.000675939 0.24752 0)
(0.000194951 0.259833 2.99177e-20)
(0.00110908 0.271849 6.00627e-20)
(0.0020623 0.283521 -5.95853e-20)
(0.00306279 0.294804 6.01425e-20)
(0.00412424 0.305655 4.55975e-22)
(0.00504983 0.31597 -2.98124e-20)
(0.00556303 0.325612 6.86355e-20)
(0.00302366 -0.00733389 -1.65831e-20)
(0.00668075 -0.0173074 -3.61422e-20)
(0.00834122 -0.0236685 2.46675e-20)
(0.00870983 -0.0272323 -1.88904e-20)
(0.00818309 -0.0286084 -6.38705e-21)
(0.0070714 -0.0282012 6.52109e-21)
(0.00559788 -0.0263072 -1.32263e-20)
(0.00392492 -0.023148 -1.34166e-20)
(0.00217012 -0.0188912 1.3579e-20)
(0.000415876 -0.0136664 -2.7439e-20)
(-0.00128103 -0.00757531 -7.85623e-24)
(-0.00288251 -0.000699737 1.39535e-20)
(-0.00436459 0.00689252 0)
(-0.00571304 0.0151434 -1.41583e-20)
(-0.00692102 0.0240016 -1.42177e-20)
(-0.00798629 0.0334208 2.8575e-20)
(-0.00890997 0.0433574 0)
(-0.00969561 0.0537693 0)
(-0.0103481 0.064615 2.89802e-20)
(-0.010873 0.0758532 -2.8984e-20)
(-0.0112766 0.0874426 0)
(-0.011565 0.0993411 2.92485e-20)
(-0.0117441 0.111506 -2.91052e-20)
(-0.0118199 0.123896 -5.86556e-20)
(-0.0117979 0.136465 -1.42478e-22)
(-0.0116835 0.14917 2.94123e-20)
(-0.0114819 0.161967 -5.89544e-20)
(-0.0111979 0.17481 2.95213e-20)
(-0.0108367 0.187654 -2.95738e-20)
(-0.0104031 0.200455 1.21706e-22)
(-0.00990175 0.213168 7.10334e-23)
(-0.0093369 0.225747 -2.97265e-20)
(-0.00871256 0.238148 -2.98199e-20)
(-0.0080325 0.250328 -2.98614e-20)
(-0.00730124 0.262239 3.14242e-23)
(-0.00652359 0.273838 0)
(-0.00569246 0.285081 -2.99741e-20)
(-0.00479573 0.295929 6.02116e-20)
(-0.00403529 0.306279 -8.98493e-20)
(-0.00369901 0.315994 4.90782e-22)
(0.00308241 -0.00714717 -5.54248e-21)
(0.00671519 -0.0168919 4.82292e-20)
(0.00821361 -0.0231815 -2.46655e-20)
(0.00835772 -0.026787 1.88857e-20)
(0.00756694 -0.0282985 -5.13454e-20)
(0.00617063 -0.0281009 6.52733e-21)
(0.00440296 -0.0264749 -2.65161e-20)
(0.00243298 -0.0236296 0)
(0.00038227 -0.019722 0)
(-0.0016647 -0.0148735 -2.74822e-20)
(-0.0036501 -0.00917888 1.38666e-20)
(-0.00553538 -0.00271471 1.63076e-23)
(-0.00729655 0.00445577 1.40704e-20)
(-0.00891959 0.0122782 0)
(-0.0103978 0.0207046 -4.2786e-20)
(-0.0117291 0.0296913 1.4309e-20)
(-0.012915 0.0391971 -2.88015e-20)
(-0.0139591 0.0491818 0)
(-0.0148665 0.0596061 0)
(-0.0156429 0.0704303 1.69047e-23)
(-0.0162942 0.0816146 -2.91267e-20)
(-0.0168265 0.093119 2.92944e-20)
(-0.0172455 0.104903 -2.9395e-20)
(-0.0175569 0.116924 2.93319e-20)
(-0.0177658 0.129141 3.35669e-23)
(-0.0178775 0.141511 3.78881e-23)
(-0.0178964 0.153991 2.95345e-20)
(-0.0178272 0.166537 -2.96613e-20)
(-0.0176745 0.179107 0)
(-0.0174428 0.191657 -2.98108e-20)
(-0.0171365 0.204142 2.96687e-20)
(-0.0167594 0.216519 0)
(-0.0163156 0.228746 2.98203e-20)
(-0.0158089 0.240779 -3.01149e-20)
(-0.0152446 0.252575 2.97322e-20)
(-0.0146283 0.264088 0)
(-0.0139545 0.27528 9.01652e-20)
(-0.0132129 0.286115 -5.98138e-20)
(-0.0126097 0.296491 0)
(-0.0124451 0.306271 3.43889e-20)
(0.00311896 -0.00692889 4.44508e-20)
(0.00669572 -0.0164039 -2.41307e-20)
(0.00801128 -0.0225975 -6.17534e-21)
(0.00791922 -0.0262299 6.30775e-21)
(0.00686021 -0.0278685 2.56857e-20)
(0.00518107 -0.027876 0)
(0.00312578 -0.0265165 2.65163e-20)
(0.000869043 -0.0239849 4.03535e-20)
(-0.00146446 -0.0204275 1.36022e-20)
(-0.00378879 -0.0159569 1.37293e-20)
(-0.00604558 -0.010661 1.38734e-20)
(-0.00819622 -0.00461073 -4.19708e-20)
(-0.010217 0.00213522 1.40894e-20)
(-0.0120942 0.00952631 5.6806e-20)
(-0.0138216 0.0175177 1.42359e-20)
(-0.0153975 0.0260685 1.43335e-20)
(-0.0168235 0.0351398 2.88018e-20)
(-0.0181039 0.0446935 0)
(-0.0192438 0.054692 0)
(-0.0202489 0.0650975 5.8336e-20)
(-0.0211251 0.075872 -1.17078e-19)
(-0.0218783 0.0869767 -2.0455e-23)
(-0.0225141 0.0983725 0)
(-0.0230381 0.11002 0)
(-0.0234551 0.121877 2.94992e-20)
(-0.0237699 0.133904 0)
(-0.0239868 0.146059 0)
(-0.0241099 0.158301 -2.98311e-20)
(-0.0241438 0.170586 -5.95872e-20)
(-0.0240925 0.182874 0)
(-0.02396 0.195121 -5.97568e-20)
(-0.0237503 0.207286 -1.19776e-19)
(-0.0234675 0.219328 5.96276e-20)