-0.362837 	0.362837 	0.5 	0.2787
-0.380512 	0.380512 	0.5 	0.277748
-0.398188 	0.398188 	0.5 	0.277112
-0.415863 	0.415863 	0.5 	0.276617
-0.433538 	0.433538 	0.5 	0.276356
-0.451213 	0.451213 	0.5 	0.276303
-0.468888 	0.468888 	0.5 	0.276414
-0.486563 	0.486563 	0.5 	0.276643
-0.504238 	0.504238 	0.5 	0.276944
-0.521913 	0.521913 	0.5 	0.277273
-0.539588 	0.539588 	0.5 	0.277594
-0.557263 	0.557263 	0.5 	0.277878
-0.574938 	0.574938 	0.5 	0.2781
-0.592613 	0.592613 	0.5 	0.278244
-0.610288 	0.610288 	0.5 	0.278296
-0.627963 	0.627963 	0.5 	0.278246
-0.645638 	0.645638 	0.5 	0.278089
-0.663313 	0.663313 	0.5 	0.277825
-0.680988 	0.680988 	0.5 	0.277453
-0.698663 	0.698663 	0.5 	0.276973
-0.716338 	0.716338 	0.5 	0.276387
-0.734013 	0.734013 	0.5 	0.275698
-0.751688 	0.751688 	0.5 	0.274912
-0.769363 	0.769363 	0.5 	0.274031
-0.787038 	0.787038 	0.5 	0.273059
-0.804713 	0.804713 	0.5 	0.272002
-0.822388 	0.822388 	0.5 	0.270862
-0.840063 	0.840063 	0.5 	0.269642
-0.857738 	0.857738 	0.5 	0.268346
-0.875413 	0.875413 	0.5 	0.266973
-0.893088 	0.893088 	0.5 	0.265527
-0.910763 	0.910763 	0.5 	0.264004
-0.928438 	0.928438 	0.5 	0.262402
-0.946113 	0.946113 	0.5 	0.260713
-0.963788 	0.963788 	0.5 	0.258924
-0.981463 	0.981463 	0.5 	0.257021
-0.999138 	0.999138 	0.5 	0.254963
-1.01681 	1.01681 	0.5 	0.252528
-1.03449 	1.03449 	0.5 	0.249438
-1.05216 	1.05216 	0.5 	0.24704
-1.061 	1.061 	0.5 	0.245911
-1.12274 	1.12274 	0.5 	0.240109
-1.18448 	1.18448 	0.5 	0.240699
-1.24621 	1.24621 	0.5 	0.229211
-1.30795 	1.30795 	0.5 	0.217348
-1.36969 	1.36969 	0.5 	0.215661
-1.43142 	1.43142 	0.5 	0.203306
-1.49316 	1.49316 	0.5 	0.200676
-1.5549 	1.5549 	0.5 	0.197405
-1.61664 	1.61664 	0.5 	0.185743
-1.67838 	1.67838 	0.5 	0.182014
