0.362837 	0.362837 	0.5 	0.203325
0.380512 	0.380512 	0.5 	0.206163
0.398188 	0.398188 	0.5 	0.20809
0.415863 	0.415863 	0.5 	0.210242
0.433538 	0.433538 	0.5 	0.21236
0.451213 	0.451213 	0.5 	0.214447
0.468888 	0.468888 	0.5 	0.216481
0.486563 	0.486563 	0.5 	0.218448
0.504238 	0.504238 	0.5 	0.220342
0.521913 	0.521913 	0.5 	0.222163
0.539588 	0.539588 	0.5 	0.22391
0.557263 	0.557263 	0.5 	0.225581
0.574938 	0.574938 	0.5 	0.227173
0.592613 	0.592613 	0.5 	0.228687
0.610288 	0.610288 	0.5 	0.230124
0.627963 	0.627963 	0.5 	0.231487
0.645638 	0.645638 	0.5 	0.232782
0.663313 	0.663313 	0.5 	0.234012
0.680988 	0.680988 	0.5 	0.235179
0.698663 	0.698663 	0.5 	0.236285
0.716338 	0.716338 	0.5 	0.237329
0.734013 	0.734013 	0.5 	0.238314
0.751688 	0.751688 	0.5 	0.23924
0.769363 	0.769363 	0.5 	0.240113
0.787038 	0.787038 	0.5 	0.240936
0.804713 	0.804713 	0.5 	0.241713
0.822388 	0.822388 	0.5 	0.242447
0.840063 	0.840063 	0.5 	0.243142
0.857738 	0.857738 	0.5 	0.243803
0.875413 	0.875413 	0.5 	0.244436
0.893088 	0.893088 	0.5 	0.245051
0.910763 	0.910763 	0.5 	0.245663
0.928438 	0.928438 	0.5 	0.246294
0.946113 	0.946113 	0.5 	0.246977
0.963788 	0.963788 	0.5 	0.247767
0.981463 	0.981463 	0.5 	0.248732
0.999138 	0.999138 	0.5 	0.250001
1.01681 	1.01681 	0.5 	0.252217
1.03449 	1.03449 	0.5 	0.257015
1.05216 	1.05216 	0.5 	0.262295
1.061 	1.061 	0.5 	0.246064
1.12274 	1.12274 	0.5 	0.261576
1.19698 	1.19698 	0.5 	0.255865
1.25871 	1.25871 	0.5 	0.251218
1.33295 	1.33295 	0.5 	0.245605
1.39469 	1.39469 	0.5 	0.246947
1.46893 	1.46893 	0.5 	0.242131
1.53066 	1.53066 	0.5 	0.245722
1.6049 	1.6049 	0.5 	0.240624
1.66664 	1.66664 	0.5 	0.24378
