/*--------------------------------*- C++ -*----------------------------------*\
  =========                 |
  \\      /  F ield         | OpenFOAM: The Open Source CFD Toolbox
   \\    /   O peration     | Website:  https://openfoam.org
    \\  /    A nd           | Version:  7
     \\/     M anipulation  |
\*---------------------------------------------------------------------------*/
FoamFile
{
    version     2.0;
    format      ascii;
    class       surfaceScalarField;
    location    "39";
    object      phi;
}
// * * * * * * * * * * * * * * * * * * * * * * * * * * * * * * * * * * * * * //

dimensions      [0 3 -1 0 0 0 0];

internalField   nonuniform List<scalar> 
3880
(
0.000138894
-0.000504378
0.000365484
0.000557455
-0.00175768
0.00133912
0.00122359
-0.00259521
0.00192907
0.00210481
-0.00281178
0.00193057
0.00317245
-0.00237436
0.00130672
0.00439832
-0.00132495
9.90776e-05
0.00575117
0.000259676
-0.00161253
0.00719657
0.00228423
-0.00372963
0.00870013
0.00464367
-0.00614723
0.00722685
0.0102296
-0.00875631
0.000149126
-0.000653504
0.000579431
-0.00218799
0.00124668
-0.00326246
0.00211593
-0.00368103
0.00316333
-0.00342176
0.00436982
-0.00253145
0.00571421
-0.00108471
0.00716992
0.000828515
0.00870674
0.00310686
0.00564072
0.0102929
0.00016259
-0.000816094
0.000610005
-0.0026354
0.00128296
-0.00393541
0.00214171
-0.00453978
0.0031658
-0.00444585
0.00434549
-0.00371114
0.00567161
-0.00241082
0.00712826
-0.00062814
0.00869127
0.00154385
0.00400251
0.0103295
0.000181323
-0.000997417
0.000654911
-0.00310899
0.00134334
-0.00462383
0.00219911
-0.00539556
0.00320261
-0.00544935
0.00435224
-0.00486077
0.00565172
-0.0037103
0.0070989
-0.00207532
0.00867786
-3.51141e-05
0.00231978
0.0103606
0.000207135
-0.00120455
0.000719126
-0.00362098
0.00143734
-0.00534205
0.00230345
-0.00626166
0.00329548
-0.00644138
0.00441735
-0.00598264
0.00568505
-0.004978
0.00711171
-0.00350198
0.00869675
-0.00162016
0.000603545
0.010413
0.000241181
-0.00144573
0.000805492
-0.00418529
0.00157029
-0.00610685
0.00246373
-0.0071551
0.00345838
-0.00743602
0.0045604
-0.00708466
0.00579594
-0.00621355
0.00719469
-0.00490073
0.00877218
-0.00319765
-0.00113609
0.0105118
0.000283609
-0.00172934
0.000913525
-0.00481521
0.0017407
-0.00693403
0.00267808
-0.00809248
0.00369056
-0.0084485
0.00478336
-0.00817746
0.00598944
-0.00741962
0.00735383
-0.00626512
0.00891238
-0.0047562
-0.00288928
0.0106656
0.000333358
-0.0020627
0.00103877
-0.00552062
0.00193892
-0.00783418
0.00293103
-0.00908459
0.00397161
-0.00948908
0.0050625
-0.00926836
0.00623946
-0.00859658
0.00756
-0.00758566
0.0090834
-0.0062796
-0.00463864
0.0108328
0.000388154
-0.00245085
0.00117285
-0.00630531
0.00214737
-0.0088087
0.00319409
-0.0101313
0.00426174
-0.0105567
0.0053468
-0.0103534
0.00648219
-0.00973198
0.00773158
-0.00883505
0.00918055
-0.00772857
-0.00634122
0.0108831
0.000444658
-0.00289551
0.00130424
-0.0071649
0.00234265
-0.00984711
0.0034301
-0.0112188
0.00450982
-0.0116364
0.00557142
-0.011415
0.00663506
-0.0107956
0.00774771
-0.0099477
0.00899963
-0.00898048
0.0106294
-0.00797101
0.0127828
0.0493236
-0.0518769
0.0141467
0.0860464
-0.0874103
0.014201
0.118359
-0.118413
0.0132343
0.146134
-0.145167
0.0115742
0.171948
-0.170288
0.00945318
0.198506
-0.196385
0.00708253
0.228634
-0.226263
0.00459388
0.263345
-0.260856
0.00212435
0.304719
-0.30225
0.350131
-0.348006
0.0132232
0.0463933
0.0150697
0.0841999
0.0155632
0.117865
0.0148834
0.146813
0.0133524
0.173479
0.0112166
0.200642
0.00869737
0.231153
0.00589404
0.266148
0.00289453
0.307719
0.353025
0.0135797
0.043143
0.0158876
0.0818919
0.0168247
0.116928
0.0164567
0.147181
0.015083
0.174853
0.0129596
0.202766
0.0103025
0.23381
0.00718938
0.269261
0.00366367
0.311245
0.356689
0.0138455
0.0396581
0.0165794
0.079158
0.0179556
0.115552
0.0179177
0.147219
0.0167289
0.176041
0.0146435
0.204851
0.0118705
0.236583
0.00846874
0.272663
0.00442622
0.315287
0.361115
0.0140224
0.0360487
0.0171322
0.0760483
0.0189331
0.113751
0.0192412
0.146911
0.0182674
0.177015
0.0162514
0.206867
0.0133891
0.239445
0.00971791
0.276334
0.0051728
0.319832
0.366288
0.0141206
0.0324399
0.017541
0.0726279
0.0197386
0.111554
0.0203944
0.146255
0.0196532
0.177757
0.0177349
0.208785
0.0148165
0.242364
0.0109155
0.280235
0.00589688
0.324851
0.372185
0.0141559
0.0289496
0.0178079
0.0689758
0.0203736
0.108988
0.02139
0.145239
0.0209084
0.178238
0.019118
0.210576
0.016168
0.245314
0.0120585
0.284345
0.00658764
0.330322
0.378772
0.0141371
0.0256453
0.0179341
0.0651788
0.020802
0.10612
0.0221424
0.143899
0.02192
0.17846
0.0202914
0.212204
0.0173617
0.248244
0.0131141
0.288593
0.00724015
0.336196
0.386013
0.0140068
0.0225217
0.0179521
0.0612334
0.0211505
0.102922
0.0228421
0.142207
0.0228839
0.178419
0.0214075
0.213681
0.0184897
0.251161
0.014101
0.292981
0.00784316
0.342453
0.393856
0.0136438
0.0195073
0.0176774
0.0571997
0.0210861
0.0995131
0.0230952
0.140198
0.0234851
0.178029
0.0222465
0.214919
0.0194907
0.253917
0.0150092
0.297463
0.00848487
0.348978
0.402341
0.0246305
0.0315554
-0.0366786
0.0156352
0.0661951
0.01045
0.104698
0.00843032
0.142218
0.00793664
0.178522
0.00749824
0.215358
0.0066411
0.254774
0.00486223
0.299242
0.00208669
0.351753
0.404427
0.0155064
0.0446029
-0.0285539
0.00546415
0.0762373
-0.000652515
0.110815
-0.00335705
0.144922
-0.00339428
0.17856
-0.00194715
0.213911
-0.000131722
0.252959
0.000644949
0.298465
0.000265095
0.352133
0.404692
0.00793438
0.0563595
-0.0196911
-0.0022877
0.0864594
-0.00911127
0.117638
-0.0123287
0.14814
-0.0122513
0.178482
-0.0097988
0.211458
-0.00630957
0.24947
-0.00339167
0.295547
-0.00174894
0.35049
0.402943
0.00149403
0.0663262
-0.0114607
-0.00835725
0.0963107
-0.0152641
0.124545
-0.0183113
0.151187
-0.0177134
0.177884
-0.0143388
0.208084
-0.00972415
0.244855
-0.00566831
0.291491
-0.00289842
0.347721
0.400045
-0.00296653
0.074288
-0.00499534
-0.0112683
0.104612
-0.0177719
0.131049
-0.0210334
0.154448
-0.0206889
0.17754
-0.0172415
0.204636
-0.0121465
0.23976
-0.00726036
0.286605
-0.00357658
0.344037
0.396468
-0.00578336
0.0803539
-0.000282525
-0.0126399
0.111469
-0.0180884
0.136498
-0.0207743
0.157134
-0.0203622
0.177128
-0.0171607
0.201435
-0.0123958
0.234995
-0.00773529
0.281945
-0.00392207
0.340224
0.392546
-0.00616174
0.0846088
0.00190684
-0.0116526
0.11696
-0.0168395
0.141684
-0.0198573
0.160152
-0.0199555
0.177226
-0.0172051
0.198684
-0.0126435
0.230434
-0.00798364
0.277285
-0.0040546
0.336295
0.388492
-0.00542403
0.0872453
0.00278761
-0.00905921
0.120595
-0.0130084
0.145634
-0.0157708
0.162914
-0.0164723
0.177928
-0.0148004
0.197012
-0.0113725
0.227006
-0.00748261
0.273395
-0.00390846
0.33272
0.384583
-0.00376644
0.0892252
0.00178646
-0.00712422
0.123953
-0.0112492
0.149759
-0.0143893
0.166054
-0.0155059
0.179044
-0.0142168
0.195723
-0.0110271
0.223816
-0.00720797
0.269576
-0.00375132
0.329264
0.380832
0.000323213
-0.000695977
-0.001475
-0.00479791
-0.00826382
-0.0105246
-0.0109129
-0.00930578
-0.00663033
-0.00347208
0.0102527
-0.0376195
-0.00931186
0.0110033
-0.0293044
0.0118544
-0.0205422
0.0129637
-0.01257
0.0142068
-0.00623845
0.0154616
-0.00153736
0.0164668
0.000901659
0.0173379
0.00191656
0.0180138
0.00111058
-0.00101406
0.00963547
-0.0382814
-0.0089736
0.0101207
-0.0297896
0.0108068
-0.0212282
0.0117213
-0.0134845
0.0127552
-0.00727233
0.0137792
-0.00256137
0.0145755
0.000105355
0.0152449
0.0012472
0.0156925
0.000662903
-0.0011439
0.0088494
-0.0386226
-0.00850817
0.00904804
-0.0299882
0.00953345
-0.0217137
0.0102409
-0.014192
0.0110586
-0.00809005
0.0118565
-0.00335921
0.0124896
-0.000527771
0.0129749
0.000761871
0.0132528
0.000385021
-0.00113189
0.00769988
-0.0386873
-0.00763516
0.00767314
-0.0299615
0.00796904
-0.0220096
0.00847472
-0.0146976
0.00908717
-0.00870249
0.0096958
-0.00396785
0.0101723
-0.00100429
0.0105294
0.000404812
0.0106889
0.000225492
-0.00102625
0.00608624
-0.0385157
-0.00625788
0.00589164
-0.0297669
0.00603953
-0.0221575
0.00637818
-0.0150363
0.00682358
-0.00914789
0.00728087
-0.00442513
0.00765143
-0.00137485
0.00792192
0.000134323
0.00801228
0.000135131
-0.000869946
0.00400951
-0.0381351
-0.00439007
0.00368774
-0.0294451
0.00373055
-0.0222003
0.00394963
-0.0152554
0.0042795
-0.00947775
0.0046407
-0.00478634
0.00494956
-0.00168371
0.00518433
-0.000100445
0.00524549
7.39634e-05
-0.000699627
0.00155413
-0.0375747
-0.0021145
0.00113362
-0.0290246
0.00109946
-0.0221661
0.00124604
-0.015402
0.00150904
-0.00974076
0.00182756
-0.00510486
0.00211979
-0.00197594
0.00235571
-0.000336367
0.00242149
8.18902e-06
-0.000545312
-0.00118381
-0.0368473
0.000456384
-0.00167851
-0.0285299
-0.00175514
-0.0220895
-0.00164042
-0.0155167
-0.00140038
-0.0099808
-0.00107815
-0.00542708
-0.000769376
-0.00228471
-0.000504532
-0.000601211
-0.00042638
-6.99633e-05
-0.00044093
-0.00409641
-0.035923
0.00317213
-0.00460918
-0.0280171
-0.00470005
-0.0219986
-0.00460083
-0.0156159
-0.00434971
-0.0102319
-0.0040027
-0.00577409
-0.0036535
-0.00263391
-0.00335659
-0.000898126
-0.00321607
-0.000210478
-0.000377488
-0.00696053
-0.0348796
0.00591712
-0.00749211
-0.0274856
-0.00759836
-0.0218924
-0.00749535
-0.0157189
-0.00722443
-0.0105029
-0.00684059
-0.00615792
-0.00645123
-0.00302327
-0.0061169
-0.00123245
-0.00593335
-0.000394037
-0.000374074
-0.00966447
-0.033777
0.00856185
-0.0102114
-0.0269386
-0.0103377
-0.0217661
-0.0102217
-0.0158349
-0.00993439
-0.0107901
-0.00951955
-0.00657276
-0.00910166
-0.00344116
-0.0087395
-0.00159462
-0.00852067
-0.000612863
-0.00042813
-0.0121404
-0.0326553
0.0110188
-0.012681
-0.0263981
-0.0128334
-0.0216136
-0.0127021
-0.0159662
-0.0124121
-0.0110801
-0.0119823
-0.00700254
-0.0115556
-0.00386789
-0.0111818
-0.00196846
-0.0109408
-0.000853786
-0.000527683
-0.0143243
-0.0315503
0.0132193
-0.0148455
-0.0258769
-0.0150298
-0.0214293
-0.0148892
-0.0161069
-0.0146147
-0.0113546
-0.0141923
-0.00742498
-0.0137801
-0.00428008
-0.0134148
-0.00233371
-0.0131693
-0.00109929
-0.000653882
-0.0161869
-0.0304858
0.0151223
-0.0166779
-0.0253859
-0.0169011
-0.0212062
-0.0167635
-0.0162445
-0.0165229
-0.0115952
-0.016133
-0.00781486
-0.0157584
-0.00465472
-0.0154238
-0.00266829
-0.015194
-0.00132905
-0.000783106
-0.017725
-0.0294667
0.0167059
-0.0181755
-0.0249354
-0.0184438
-0.0209378
-0.0183267
-0.0163616
-0.018136
-0.0117858
-0.017804
-0.00814686
-0.0174881
-0.0049707
-0.0172068
-0.00294955
-0.0170148
-0.00152105
-0.000888784
-0.0189526
-0.028473
0.0179589
-0.0193551
-0.0245329
-0.0196699
-0.0206231
-0.0195947
-0.0164368
-0.0194659
-0.0119146
-0.0192158
-0.00839692
-0.0189775
-0.00520903
-0.0187725
-0.00315457
-0.0186412
-0.00165231
-0.000942862
-0.0198883
-0.0274577
0.018873
-0.0202442
-0.024177
-0.0205974
-0.0202698
-0.0205897
-0.0164446
-0.0205314
-0.0119729
-0.0203857
-0.00854261
-0.0202426
-0.00535209
-0.0201368
-0.00326036
-0.0200899
-0.00169925
-0.000916797
-0.020525
-0.0263732
0.0194405
-0.0208621
-0.0238399
-0.0212422
-0.0198898
-0.0213332
-0.0163536
-0.0213547
-0.0119514
-0.0213346
-0.00856268
-0.0213042
-0.00538248
-0.0213205
-0.00324407
-0.0213821
-0.00163772
-0.000782145
-0.0208314
-0.0252115
0.0196697
-0.0212255
-0.0234458
-0.0216214
-0.0194939
-0.0218434
-0.0161315
-0.0219565
-0.0118383
-0.022082
-0.00843721
-0.0221832
-0.00528124
-0.0223453
-0.00308203
-0.0225407
-0.00144227
-0.000510559
-0.0208028
-0.0240595
0.0196509
-0.0213365
-0.0229121
-0.021708
-0.0191224
-0.0220786
-0.015761
-0.0223119
-0.011605
-0.022611
-0.00813807
-0.0228817
-0.00501055
-0.0232227
-0.00274108
-0.0235916
-0.00107331
-7.6076e-05
-0.0844267
-0.0213804
0.0817476
-0.0890088
-0.01833
-0.0923192
-0.015812
-0.0953891
-0.0126911
-0.0972956
-0.00969846
-0.0986056
-0.00682804
-0.0991554
-0.00446085
-0.0993969
-0.00249957
-0.0994129
-0.00105726
-8.91662e-05
-0.103648
-0.0187327
0.101
-0.106726
-0.015252
-0.109162
-0.0133762
-0.111499
-0.0103541
-0.113037
-0.00816042
-0.114183
-0.00568209
-0.11475
-0.00389314
-0.11506
-0.00218942
-0.115118
-0.000999853
-9.0609e-05
-0.122443
-0.0163775
0.120088
-0.124775
-0.0129204
-0.126839
-0.011312
-0.128637
-0.00855571
-0.129926
-0.00687174
-0.130874
-0.004734
-0.131384
-0.00338299
-0.131671
-0.0019027
-0.131719
-0.000952044
-8.34755e-05
-0.142943
-0.0143611
0.140927
-0.144861
-0.0110019
-0.146605
-0.00956884
-0.148061
-0.00709973
-0.149157
-0.00577526
-0.149952
-0.00393889
-0.150405
-0.00292967
-0.150655
-0.0016532
-0.150694
-0.000913236
-7.48783e-05
-0.167143
-0.0123632
0.165145
-0.168834
-0.00931074
-0.170357
-0.00804622
-0.171606
-0.00585098
-0.172581
-0.00480013
-0.173285
-0.00323494
-0.173728
-0.00248657
-0.173989
-0.00139224
-0.174072
-0.000830471
-4.55743e-05
-0.196619
-0.0102651
0.194521
-0.198221
-0.00770857
-0.199728
-0.00653864
-0.200933
-0.00464614
-0.201887
-0.00384672
-0.202584
-0.00253735
-0.203103
-0.00196786
-0.203473
-0.00102237
-0.203691
-0.000612525
2.17537e-05
-0.230444
-0.00783815
0.228017
-0.232602
-0.00554982
-0.234386
-0.0047552
-0.235618
-0.00341354
-0.236587
-0.00287792
-0.237345
-0.00177989
-0.237988
-0.00132446
-0.238515
-0.000495907
-0.238872
-0.000255331
0.000107563
-0.26696
-0.00544561
0.264568
-0.268212
-0.00429759
-0.269427
-0.00354083
-0.270537
-0.0023035
-0.271575
-0.0018401
-0.272373
-0.000981436
-0.273047
-0.000650346
-0.273526
-1.7146e-05
-0.273829
4.7995e-05
0.000168222
-0.290956
-0.00270925
0.288219
-0.293764
-0.0014894
-0.296028
-0.00127635
-0.297437
-0.000894601
-0.29851
-0.000767653
-0.299078
-0.000413381
-0.299506
-0.000221827
-0.299625
0.00010161
-0.299687
0.000110412
0.000101882
-0.307967
0.305258
-0.309456
-0.310733
-0.311627
-0.312395
-0.312808
-0.31303
-0.312929
-0.312818
-0.0225711
0.0836251
0.0206935
-0.0234126
0.101842
-0.0236526
0.120328
-0.0233617
0.140636
-0.0225654
0.164349
-0.0209318
0.192887
-0.0183439
0.225429
-0.0122406
0.258464
-0.00753339
0.283512
0.297724
-0.0214013
0.0847369
0.0202895
-0.0220867
0.102527
-0.0221865
0.120427
-0.0217641
0.140213
-0.0208427
0.163428
-0.0191667
0.191211
-0.0164607
0.222723
-0.0119554
0.253959
-0.00661562
0.278172
0.291109
-0.0203766
0.0855951
0.0195184
-0.0208961
0.103047
-0.0208738
0.120405
-0.020388
0.139728
-0.0194423
0.162482
-0.017814
0.189583
-0.0151683
0.220077
-0.0111089
0.249899
-0.00599797
0.273061
0.285111
-0.0192208
0.0863326
0.0184833
-0.0195783
0.103404
-0.0194181
0.120245
-0.0188563
0.139166
-0.0178858
0.161511
-0.0163047
0.188001
-0.0137851
0.217558
-0.0101144
0.246229
-0.00536079
0.268308
0.27975
-0.0179142
0.0869843
0.0172625
-0.0181387
0.103629
-0.0178621
0.119968
-0.0172341
0.138538
-0.016245
0.160522
-0.0147149
0.186471
-0.0123607
0.215203
-0.00903178
0.2429
-0.004747
0.264023
0.275003
-0.0164593
0.0875358
0.0159078
-0.0165556
0.103725
-0.0161845
0.119597
-0.01551
0.137863
-0.0145193
0.159532
-0.0130585
0.18501
-0.0108977
0.213043
-0.00790735
0.23991
-0.00414669
0.260262
0.270856
-0.0148875
0.0879666
0.0144567
-0.0148504
0.103688
-0.0143923
0.119139
-0.013683
0.137154
-0.012706
0.158555
-0.011336
0.18364
-0.00939152
0.211098
-0.00676293
0.237281
-0.00354134
0.257041
0.267315
-0.0132325
0.0882569
0.0129422
-0.0130627
0.103518
-0.0125195
0.118596
-0.0117792
0.136414
-0.0108241
0.1576
-0.00956091
0.182377
-0.00785001
0.209387
-0.00560769
0.235039
-0.00292671
0.25436
0.264388
-0.011525
0.0883845
0.0113974
-0.0112297
0.103223
-0.0106023
0.117968
-0.00983342
0.135645
-0.00890365
0.15667
-0.00775714
0.181231
-0.00629043
0.207921
-0.0044479
0.233196
-0.00230659
0.252218
0.262082
-0.00979347
0.0883207
0.00985727
-0.00938566
0.102815
-0.00867047
0.117253
-0.0078773
0.134852
-0.00697301
0.155766
-0.00595024
0.180208
-0.00473338
0.206704
-0.00329406
0.231757
-0.00168935
0.250614
0.260392
-0.00807384
0.0880291
0.00836546
-0.00757207
0.102313
-0.00675752
0.116439
-0.00594544
0.13404
-0.00506221
0.154882
-0.00416563
0.179311
-0.00319806
0.205736
-0.00215691
0.230716
-0.00108172
0.249538
0.25931
-0.00642911
0.0875112
0.00694693
-0.00582545
0.10171
-0.00491556
0.115529
-0.00407978
0.133204
-0.00321507
0.154018
-0.00243498
0.178531
-0.0017038
0.205005
-0.00105043
0.230062
-0.000489726
0.248978
0.258821
-0.00490939
0.0867835
0.00563712
-0.00418728
0.100987
-0.00319564
0.114537
-0.00232709
0.132335
-0.00148522
0.153176
-0.000811726
0.177858
-0.00030934
0.204503
-3.18458e-05
0.229785
5.98843e-05
0.248886
0.258881
-0.00354389
0.0858731
0.00445427
-0.0026795
0.100123
-0.00163617
0.113494
-0.000728784
0.131428
3.88153e-05
0.152408
0.000726954
0.17717
0.00105392
0.204176
0.00100288
0.229836
0.000608333
0.249281
0.259489
-0.00235184
0.0848202
0.00340481
-0.00132089
0.0990921
-0.000287342
0.11246
0.000781224
0.130359
0.00166651
0.151523
0.00221936
0.176617
0.00234631
0.204049
0.00196463
0.230217
0.00112393
0.250121
0.260613
-0.00134264
0.0836798
0.00248303
-0.000163276
0.0979127
0.00106839
0.111228
0.00219122
0.129237
0.00306544
0.150649
0.00355665
0.176126
0.00351541
0.20409
0.00283826
0.230895
0.00159011
0.251369
0.262203
-0.00051751
0.0825295
0.00166775
0.000979148
0.096416
0.00226332
0.109944
0.00343412
0.128066
0.00432706
0.149756
0.00478322
0.175669
0.00460514
0.204268
0.003662
0.231838
0.00203306
0.252998
0.264236
0.000132853
0.0814717
0.000924948
0.00190539
0.0946435
0.00322845
0.108621
0.00444816
0.126846
0.00535995
0.148844
0.00579242
0.175237
0.00550932
0.204551
0.00435071
0.232996
0.00239916
0.25495
0.266635
0.000978368
0.0803095
0.000183889
0.00278107
0.0928408
0.00415318
0.107249
0.0054195
0.12558
0.00635861
0.147905
0.00677875
0.174817
0.00639898
0.204931
0.00503018
0.234365
0.00276556
0.257214
0.269401
0.00125429
0.0795645
-0.000509305
0.00313275
0.0909623
0.00456102
0.105821
0.00585756
0.124283
0.00682243
0.14694
0.00726234
0.174377
0.00686258
0.205331
0.00540036
0.235827
0.002953
0.259662
0.272354
-0.0713002
0.07105
0.0798147
-0.0630638
0.082726
-0.0571623
0.0999193
-0.0509905
0.118111
-0.0447823
0.140732
-0.0380727
0.167667
-0.0302889
0.197547
-0.0211395
0.226678
-0.0108125
0.249335
0.261541
-0.0828737
0.0641914
0.0897323
-0.0757372
0.0755895
-0.0691667
0.0933487
-0.0619644
0.110909
-0.0549335
0.133701
-0.0469961
0.15973
-0.0376022
0.188153
-0.0264744
0.21555
-0.0138479
0.236708
0.247693
-0.0962083
0.0573691
0.103031
-0.0892611
0.0686423
-0.0820089
0.0860965
-0.0741871
0.103087
-0.0661258
0.12564
-0.0564258
0.15003
-0.0449923
0.176719
-0.0314344
0.201992
-0.01598
0.221254
0.231713
-0.112825
0.0509466
0.119247
-0.105763
0.0615806
-0.0981317
0.0784651
-0.0897108
0.0946664
-0.0802599
0.116189
-0.0685329
0.138303
-0.054768
0.162954
-0.0384121
0.185636
-0.020069
0.202911
0.211644
-0.132388
0.0440459
0.139288
-0.125335
0.0545285
-0.116983
0.0701124
-0.107133
0.0848163
-0.0953676
0.104424
-0.0809307
0.123866
-0.064168
0.146192
-0.0442907
0.165759
-0.0222334
0.180854
0.189411
-0.157834
0.037864
0.164016
-0.150014
0.0467083
-0.140328
0.0604265
-0.12857
0.0730576
-0.114312
0.0901659
-0.097108
0.106662
-0.0768846
0.125968
-0.0531741
0.142049
-0.0278283
0.155508
0.161583
-0.185347
0.0301758
0.193036
-0.176314
0.0376748
-0.164616
0.0487287
-0.150296
0.0587378
-0.132751
0.0726203
-0.111544
0.0854557
-0.0862462
0.10067
-0.0575776
0.11338
-0.0279479
0.125878
0.133635
-0.21803
0.0221535
0.226052
-0.207301
0.0269452
-0.193574
0.0350022
-0.176629
0.0417929
-0.155822
0.0518132
-0.130693
0.0603272
-0.101231
0.0712077
-0.0691874
0.0813367
-0.0365911
0.0932817
0.0970436
-0.243411
0.0107289
0.254836
-0.229757
0.0132905
-0.212235
0.0174804
-0.191294
0.0208524
-0.16558
0.0260994
-0.135572
0.0303187
-0.100821
0.0364572
-0.0613099
0.0418253
-0.0197952
0.0517671
0.0772484
-0.315339
0.326068
-0.302049
-0.284568
-0.263716
-0.237617
-0.207298
-0.170841
-0.129015
-0.0772484
-0.00200723
0.0817357
8.62048e-05
-0.00364943
0.0913745
-0.00492474
0.104306
-0.00587694
0.1202
-0.0064533
0.139865
-0.00660246
0.164165
-0.00609757
0.192531
-0.00482221
0.224777
-0.00363957
0.253653
0.322429
-0.00151747
0.0838824
-0.000629182
-0.00334066
0.0931977
-0.0047195
0.105685
-0.00569915
0.121179
-0.00631087
0.140476
-0.00645763
0.164312
-0.00600849
0.192081
-0.00475248
0.223521
-0.00332421
0.252225
0.319104
-0.000805409
0.0859826
-0.00129485
-0.00263198
0.0950243
-0.0040284
0.107081
-0.00500989
0.122161
-0.00564878
0.141115
-0.00581164
0.164475
-0.00546037
0.19173
-0.00430036
0.222361
-0.00304104
0.250966
0.316063
-0.000158593
0.0881005
-0.00195931
-0.00190744
0.0967731
-0.0032119
0.108386
-0.00416262
0.123111
-0.00478066
0.141733
-0.00498742
0.164682
-0.00470925
0.191452
-0.00373118
0.221383
-0.0026763
0.249911
0.313387
0.0005431
0.0902105
-0.00265308
-0.00120248
0.0985187
-0.00242207
0.109605
-0.00331616
0.124006
-0.00389346
0.142311
-0.00411422
0.164902
-0.00389991
0.191238
-0.00310367
0.220587
-0.00226607
0.249073
0.311121
0.00129576
0.0922832
-0.00336846
-0.000434497
0.100249
-0.00156311
0.110734
-0.00240334
0.124846
-0.00294512
0.142852
-0.00317391
0.165131
-0.00304308
0.191107
-0.00242081
0.219965
-0.0018198
0.248472
0.309301
0.00209741
0.0942855
-0.00409968
0.000469467
0.101877
-0.000607029
0.11181
-0.00139121
0.12563
-0.00189931
0.143361
-0.00214004
0.165372
-0.00210117
0.191068
-0.00167374
0.219537
-0.00133373
0.248132
0.307967
0.00294335
0.0961856
-0.00484349
0.00146146
0.103359
0.000438685
0.112833
-0.000301602
0.12637
-0.00076324
0.143822
-0.0010196
0.165628
-0.00106099
0.191109
-0.000867055
0.219343
-0.000804775
0.24807
0.307163
0.00381929
0.0979573
-0.00559098
0.00247037
0.104708
0.00153742
0.113766
0.000887984
0.12702
0.000455985
0.144254
0.000157875
0.165926
8.45047e-05
0.191183
-3.8266e-05
0.219466
-0.000228685
0.24826
0.306934
0.00471653
0.0995664
-0.00632564
0.0035009
0.105923
0.00265874
0.114608
0.00209821
0.12758
0.00170627
0.144646
0.00141979
0.166213
0.00117718
0.191425
0.000902706
0.21974
0.00034221
0.248821
0.307276
0.00561997
0.100962
-0.00701546
0.00453622
0.107007
0.00379021
0.115354
0.00331294
0.128057
0.0029708
0.144988
0.00267034
0.166513
0.0023222
0.191774
0.00182057
0.220242
0.000916118
0.249725
0.308192
0.00651506
0.102098
-0.00765095
0.0055699
0.107952
0.00492279
0.116001
0.00452809
0.128452
0.00423564
0.145281
0.00392757
0.166821
0.00347771
0.192223
0.00274672
0.220973
0.00150552
0.250966
0.309698
0.00736932
0.10294
-0.00821122
0.00657233
0.108749
0.00602507
0.116549
0.00571132
0.128766
0.00547312
0.145519
0.00516648
0.167128
0.00461983
0.19277
0.00367366
0.221919
0.00209738
0.252543
0.311795
0.00816317
0.103457
-0.00868039
0.00752245
0.10939
0.00707102
0.117
0.00683451
0.129002
0.00665741
0.145696
0.0063579
0.167428
0.00572644
0.193402
0.00458066
0.223065
0.00267849
0.254445
0.314474
0.00887921
0.10362
-0.00904251
0.00840483
0.109864
0.00804214
0.117363
0.00787727
0.129167
0.00776458
0.145809
0.00748429
0.167708
0.00679017
0.194096
0.00546083
0.224394
0.00324856
0.256657
0.317722
0.00949113
0.103416
-0.00928723
0.00919207
0.110163
0.00891005
0.117645
0.00880918
0.129268
0.00876068
0.145857
0.00850791
0.167961
0.00777364
0.19483
0.00628332
0.225885
0.0037888
0.259152
0.321511
0.0100021
0.102831
-0.00941654
0.00989916
0.110266
0.00968701
0.117857
0.00963966
0.129316
0.00965586
0.145841
0.00944377
0.168173
0.00869065
0.195583
0.00706306
0.227512
0.00430902
0.261906
0.32582
0.0103367
0.101934
-0.00944026
0.0104363
0.110167
0.0102943
0.117999
0.0102917
0.129318
0.0103668
0.145766
0.0102016
0.168338
0.00945725
0.196327
0.0077386
0.229231
0.00477204
0.264872
0.330592
0.0107096
0.100652
-0.00942725
0.0110218
0.109855
0.0109109
0.11811
0.0109222
0.129307
0.0110415
0.145647
0.010924
0.168455
0.010192
0.197059
0.00838432
0.231039
0.00521274
0.268044
0.335805
0.0106039
0.0993785
-0.00933051
0.0110678
0.109391
0.0110698
0.118108
0.0111066
0.12927
0.0112781
0.145475
0.0112263
0.168507
0.01059
0.197696
0.00878275
0.232846
0.00553998
0.271287
0.341345
-0.0486298
0.0942334
0.0537749
-0.0424351
0.103196
-0.037365
0.113038
-0.0321602
0.124065
-0.0267123
0.140027
-0.0209953
0.16279
-0.0149688
0.191669
-0.00886946
0.226746
-0.00420038
0.266618
0.337144
-0.0687838
0.0879223
0.075095
-0.0621677
0.0965799
-0.055084
0.105954
-0.0471832
0.116164
-0.039423
0.132267
-0.0314317
0.154799
-0.0228296
0.183067
-0.0140651
0.217982
-0.00666482
0.259217
0.33048
-0.0918487
0.0805252
0.0992458
-0.0830202
0.0877514
-0.0729475
0.0958812
-0.0629767
0.106194
-0.053593
0.122883
-0.0430975
0.144303
-0.0316708
0.171641
-0.0197966
0.206108
-0.00907956
0.2485
0.3214
-0.116307
0.0717216
0.12511
-0.104172
0.0756166
-0.0922968
0.0840061
-0.0809177
0.0948145
-0.0693111
0.111277
-0.0559421
0.130934
-0.0416984
0.157397
-0.0263682
0.190777
-0.011974
0.234106
0.309426
-0.140303
0.0603856
0.151639
-0.127094
0.0624078
-0.114963
0.0718757
-0.101636
0.0814876
-0.0875426
0.0971829
-0.0716228
0.115014
-0.054206
0.13998
-0.0345358
0.171107
-0.0153534
0.214924
0.294073
-0.167187
0.0491807
0.178392
-0.153835
0.0490562
-0.140899
0.0589397
-0.125841
0.0664297
-0.10962
0.0809617
-0.0908346
0.0962289
-0.0693659
0.118511
-0.0449639
0.146705
-0.0207666
0.190726
0.273306
-0.198768
0.0358134
0.212136
-0.186359
0.0366469
-0.172467
0.0450474
-0.15628
0.050243
-0.13784
0.0625222
-0.115825
0.0742134
-0.089962
0.0926486
-0.0604696
0.117213
-0.0290235
0.15928
0.244283
-0.238705
0.0235767
0.250942
-0.225544
0.0234856
-0.209995
0.0294992
-0.192353
0.0326007
-0.171408
0.0415771
-0.146422
0.049227
-0.116909
0.0631364
-0.0828089
0.0831123
-0.0438918
0.120363
0.200391
-0.289779
0.0102975
0.303058
-0.276699
0.0104062
-0.26044
0.0132402
-0.242805
0.0149658
-0.220863
0.0196353
-0.195506
0.0238695
-0.164581
0.0322118
-0.125889
0.0444197
-0.0736377
0.0681121
0.126753
-0.353613
0.363911
-0.343207
-0.329967
-0.315001
-0.295366
-0.271497
-0.239285
-0.194865
-0.126753
0.00717978
0.0553556
-0.00876046
0.00407495
0.0781998
0.000806528
0.102514
-0.00152166
0.127438
-0.00319009
0.153307
-0.00457366
0.179775
-0.00526986
0.212832
-0.00543456
0.251106
-0.00371693
0.30134
0.360194
0.00743113
0.0567772
-0.00885271
0.00465019
0.0809807
0.00170628
0.105458
-0.000776139
0.129921
-0.0025409
0.155072
-0.00402011
0.181255
-0.00488798
0.2137
-0.00509987
0.251318
-0.00355523
0.299796
0.356639
0.00798018
0.0577264
-0.00892942
0.00558524
0.0833757
0.0028871
0.108156
0.000399414
0.132408
-0.00142624
0.156897
-0.00299256
0.182821
-0.00402011
0.214727
-0.00430843
0.251606
-0.00318517
0.298672
0.353454
0.00854937
0.058211
-0.00903399
0.00657674
0.0853483
0.00414359
0.110589
0.00183229
0.13472
-0.000211746
0.158941
-0.00180688
0.184416
-0.00294768
0.215868
-0.00343144
0.25209
-0.00272715
0.297968
0.350726
0.00913634
0.0582574
-0.0091827
0.00759897
0.0868857
0.00544563
0.112743
0.00327548
0.13689
0.00129538
0.160921
-0.000571969
0.186283
-0.00177783
0.217074
-0.0025045
0.252817
-0.00216746
0.297631
0.348559
0.00976516
0.0578633
-0.00937104
0.00868445
0.0879664
0.00683268
0.114595
0.00480558
0.138917
0.0028559
0.162871
0.000911738
0.188228
-0.000523664
0.218509
-0.00151843
0.253812
-0.00154296
0.297655
0.347016
0.0104205
0.0570249
-0.00958209
0.00981858
0.0885683
0.00829945
0.116114
0.00643115
0.140785
0.00450482
0.164798
0.00254061
0.190192
0.000882734
0.220167
-0.00047805
0.255172
-0.000862368
0.29804
0.346154
0.0110743
0.0557434
-0.00979284
0.0109651
0.0886775
0.00980849
0.11727
0.0081238
0.14247
0.00623453
0.166687
0.00421298
0.192213
0.00236782
0.222012
0.000738113
0.256802
-0.000116845
0.298895
0.346037
0.0117
0.0540239
-0.00998041
0.0120879
0.0882896
0.0113165
0.118042
0.00984487
0.143942
0.00800979
0.168522
0.00593665
0.194287
0.00389901
0.22405
0.00202119
0.25868
0.000608142
0.300308
0.346645
0.0122756
-0.0101286
0.0131549
0.0127834
0.0115581
0.00979204
0.00769314
0.00547986
0.00330345
0.00136129
0.00050038
-0.00339589
0.00142074
-0.00808526
0.00249811
-0.0109245
0.00359643
-0.0123171
0.00465962
-0.0126996
0.00567427
-0.0124297
0.00664422
-0.0117656
0.00757659
-0.0108801
0.00847689
-0.00988078
-0.00880598
0.000542575
-0.00393847
0.00149756
-0.00904024
0.00257924
-0.0120062
0.00365141
-0.0133892
0.00466622
-0.0137144
0.00561822
-0.0133817
0.00651532
-0.0126627
0.00736527
-0.01173
0.00817441
-0.0106899
-0.00960518
0.000571053
-0.00450952
0.00152721
-0.0099964
0.00256771
-0.0130467
0.00356452
-0.0143861
0.00448554
-0.0146355
0.00534078
-0.0142369
0.00615159
-0.0134735
0.00693799
-0.0125164
0.00771701
-0.0114689
-0.0103963
0.00058039
-0.00508991
0.00149707
-0.0109131
0.00244492
-0.0139945
0.00331243
-0.0152536
0.00408817
-0.0154112
0.00480009
-0.0149488
0.0054837
-0.0141571
0.00616978
-0.0132025
0.00688146
-0.0121806
-0.01115
0.000565961
-0.00565587
0.00139841
-0.0117455
0.00220123
-0.0147973
0.00288703
-0.0159394
0.00346742
-0.0159916
0.00398734
-0.0154687
0.00449369
-0.0146634
0.00502442
-0.0137332
0.00560657
-0.0127628
-0.0118013
0.000524468
-0.00618034
0.0012276
-0.0124487
0.00183733
-0.0154071
0.00229645
-0.0163985
0.00263961
-0.0163347
0.00292559
-0.0157547
0.00320845
-0.0149463
0.00352927
-0.0140541
0.00391679
-0.0131503
-0.0122746
0.000454427
-0.00663477
0.000986601
-0.0129808
0.00136386
-0.0157843
0.00156296
-0.0165976
0.00163945
-0.0164112
0.00166158
-0.0157768
0.00168618
-0.0149709
0.00175256
-0.0141204
0.00188868
-0.0132864
-0.0125004
0.000356478
-0.00699124
0.000682835
-0.0133072
0.000799699
-0.0159012
0.000718951
-0.0165168
0.000513112
-0.0162054
0.000254795
-0.0155185
-1.91823e-06
-0.0147142
-0.000217195
-0.0139051
-0.000371624
-0.013132
-0.0124157
0.000233391
-0.00722463
0.000328207
-0.013402
0.000169234
-0.0157422
-0.000198033
-0.0161496
-0.000688384
-0.0157151
-0.0012295
-0.0149774
-0.00177162
-0.0141721
-0.00228627
-0.0133905
-0.00275625
-0.012662
-0.0119998
8.95251e-05
-0.00731416
-6.09974e-05
-0.0132515
-0.000500391
-0.0153028
-0.00114882
-0.0155011
-0.00191562
-0.0149482
-0.00273241
-0.0141606
-0.00355727
-0.0133472
-0.00436818
-0.0125796
-0.00515508
-0.0118751
-0.0112378
-3.7019e-05
-0.00727714
-0.000430712
-0.0128578
-0.00114204
-0.0145915
-0.00206232
-0.0145809
-0.00309498
-0.0139156
-0.0041772
-0.0130784
-0.00527502
-0.0122494
-0.00637324
-0.0114814
-0.00746765
-0.0107807
-0.0101436
-0.000194504
-0.00708264
-0.000834163
-0.0122181
-0.00180326
-0.0136224
-0.00297092
-0.0134132
-0.00424195
-0.0126446
-0.00556179
-0.0117586
-0.00690455
-0.0109067
-0.00826086
-0.0101251
-0.00963043
-0.00941112
-0.00875521
-0.00035236
-0.00673028
-0.00122644
-0.0113441
-0.00243192
-0.0124169
-0.00382079