/*--------------------------------*- C++ -*----------------------------------*\
  =========                 |
  \\      /  F ield         | OpenFOAM: The Open Source CFD Toolbox
   \\    /   O peration     | Website:  https://openfoam.org
    \\  /    A nd           | Version:  7
     \\/     M anipulation  |
\*---------------------------------------------------------------------------*/
FoamFile
{
    version     2.0;
    format      ascii;
    class       volVectorField;
    location    "39";
    object      U;
}
// * * * * * * * * * * * * * * * * * * * * * * * * * * * * * * * * * * * * * //

dimensions      [0 1 -1 0 0 0 0];

internalField   nonuniform List<vector> 
2000
(
(0.000975896 -0.0042986 2.28707e-22)
(0.00636696 -0.0152438 0)
(0.0155381 -0.0220597 0)
(0.0255675 -0.022785 8.80376e-22)
(0.0358808 -0.0170766 -2.33836e-22)
(0.0460368 -0.00536383 -8.51852e-25)
(0.0557264 0.011555 4.19225e-22)
(0.0647203 0.0326932 0)
(0.0728378 0.0569842 0)
(0.0799693 0.0833134 0)
(0.00159473 -0.00562135 0)
(0.00837932 -0.0188671 7.84473e-22)
(0.0184364 -0.0273422 -7.23398e-22)
(0.0285961 -0.029375 -1.15284e-21)
(0.0383765 -0.0247267 0)
(0.0475035 -0.0138673 -9.71509e-22)
(0.0558404 0.00242541 9.0341e-22)
(0.0633032 0.0232006 0)
(0.0697909 0.0473949 -1.89808e-21)
(0.0752016 0.0738721 3.73445e-21)
(0.00247635 -0.0069712 0)
(0.0111285 -0.0223559 -6.99832e-21)
(0.0224437 -0.0322525 0)
(0.0329981 -0.0354144 -5.15194e-21)
(0.0424225 -0.0317686 0)
(0.0506319 -0.0218503 4.19318e-21)
(0.0576854 -0.00640598 0)
(0.0636638 0.0136916 -4.06313e-21)
(0.0685746 0.0374383 3.8053e-21)
(0.0723259 0.0637175 4.27161e-21)
(0.00366733 -0.00834611 1.99288e-21)
(0.014699 -0.0256561 3.37618e-21)
(0.0276668 -0.0366658 1.59404e-21)
(0.0389009 -0.0407011 2.5635e-21)
(0.0481718 -0.0379217 2.3908e-21)
(0.0556055 -0.0289664 -2.0031e-21)
(0.0614758 -0.0145557 -2.03645e-21)
(0.0660473 0.00454996 9.01808e-23)
(0.0694618 0.0274728 -4.04399e-21)
(0.0716455 0.0531961 -4.27194e-21)
(0.00522513 -0.00974918 2.19297e-21)
(0.0191812 -0.0287218 3.61514e-21)
(0.0342017 -0.0404696 6.33493e-21)
(0.0464015 -0.0450444 -2.86803e-21)
(0.0557296 -0.0429056 0)
(0.0625495 -0.0348435 0)
(0.0673667 -0.0215781 4.48439e-21)
(0.0706397 -0.00374236 4.45252e-21)
(0.0726786 0.0179877 -4.51624e-21)
(0.0734362 0.0427798 -1.46094e-20)
(0.00721872 -0.0111859 -2.17238e-21)
(0.024663 -0.0315107 -1.69872e-21)
(0.0421093 -0.0435665 1.05165e-20)
(0.0555241 -0.0482839 -1.45589e-20)
(0.0650941 -0.0464783 2.61026e-21)
(0.0714565 -0.0391401 0)
(0.0753684 -0.0270303 0)
(0.077495 -0.0106659 -2.29526e-20)
(0.0783175 0.0095307 2.30466e-20)
(0.0778422 0.0330153 -4.8919e-21)
(0.00972445 -0.0126518 -1.93817e-20)
(0.0312149 -0.0339724 0)
(0.0513885 -0.0458743 -1.36045e-20)
(0.066182 -0.050308 1.17333e-20)
(0.0761039 -0.048482 0)
(0.0821156 -0.0416221 -4.93063e-21)
(0.0852518 -0.0305782 1.40266e-20)
(0.0863955 -0.0157936 1.88515e-20)
(0.0862097 0.00258614 -9.09811e-21)
(0.0847616 0.0244241 -9.91474e-21)
(0.012819 -0.0141234 3.93552e-20)
(0.0388731 -0.0360389 3.99262e-21)
(0.0619533 -0.0473254 7.16564e-21)
(0.0781514 -0.0510679 1.54459e-20)
(0.0884071 -0.0488787 5.38501e-21)
(0.0940721 -0.0422297 5.03559e-21)
(0.0964921 -0.0321021 2.10142e-22)
(0.0967893 -0.0189318 0)
(0.0958139 -0.00261397 0)
(0.0936789 0.0172237 6.13346e-22)
(0.0165689 -0.0155506 -1.99739e-20)
(0.0476207 -0.0376172 1.68974e-20)
(0.0736179 -0.0478643 -1.08013e-20)
(0.0910671 -0.0505821 -2.15442e-20)
(0.10147 -0.0477621 5.59262e-21)
(0.106636 -0.0410994 -5.05043e-21)
(0.10825 -0.0317293 -4.87082e-21)
(0.107703 -0.020174 0)
(0.106077 -0.00622108 0)
(0.103551 0.0110042 -9.8898e-22)
(0.0210195 -0.0168542 2.57263e-21)
(0.057371 -0.0385887 -2.09786e-20)
(0.0860922 -0.0474498 3.76059e-21)
(0.104446 -0.0489329 0)
(0.114641 -0.0453442 0)
(0.118991 -0.0385308 -1.01187e-20)
(0.119496 -0.0297554 0)
(0.117759 -0.019707 1.02568e-20)
(0.115105 -0.0083825 1.06566e-21)
(0.112196 0.00507757 -1.01676e-20)
(0.0941155 0.144706 -1.25626e-22)
(0.11146 0.247763 1.27389e-22)
(0.116485 0.338027 8.39903e-23)
(0.113123 0.41579 -8.92207e-24)
(0.100123 0.488461 -2.08855e-22)
(0.0871539 0.563708 -2.31149e-23)
(0.0634061 0.649433 1.24215e-22)
(0.0507321 0.748522 6.57999e-22)
(0.019229 0.866678 0)
(0.0140414 0.996857 -5.63085e-22)
(0.0865213 0.13647 -5.71355e-22)
(0.102034 0.242139 5.3263e-22)
(0.107744 0.335659 -8.88408e-22)
(0.105893 0.41622 8.93809e-24)
(0.0945586 0.49094 1.00248e-22)
(0.0829278 0.567571 5.60539e-22)
(0.060524 0.654119 -3.37158e-22)
(0.0486687 0.753566 -4.42675e-22)
(0.0184974 0.871855 8.62939e-22)
(0.0134402 1.00113 5.61739e-22)
(0.0801852 0.127207 0)
(0.0931095 0.234939 8.39589e-22)
(0.0989378 0.331485 2.68391e-22)
(0.0983933 0.414975 0)
(0.0886919 0.491948 -3.92093e-22)
(0.0784883 0.570185 -3.31292e-23)
(0.0575002 0.657772 2.16562e-22)
(0.0465548 0.757908 1.74626e-21)
(0.0177197 0.876697 -8.60153e-22)
(0.0128431 1.0053 1.65812e-21)
(0.0753643 0.117123 0)
(0.0848096 0.22628 -8.46749e-22)
(0.0901518 0.325561 0)
(0.0906394 0.411992 -7.15159e-22)
(0.0824951 0.491268 7.18838e-22)
(0.0737822 0.571149 -4.41938e-22)
(0.0542788 0.659768 -3.28132e-22)
(0.0443596 0.760638 -1.5141e-21)
(0.0169226 0.880111 -2.36669e-22)
(0.012255 1.00863 -1.99866e-21)
(0.0723624 0.106509 -8.02318e-22)
(0.0772846 0.216308 2.89991e-21)
(0.0814897 0.317995 2.89341e-22)
(0.0826575 0.407412 1.73898e-21)
(0.0759569 0.489236 0)
(0.0687904 0.571082 -1.89907e-22)
(0.050852 0.661081 -3.8967e-22)
(0.0420445 0.763113 1.49309e-21)
(0.0160023 0.883624 2.84725e-22)
(0.0116497 1.0121 -2.85717e-22)
(0.0714984 0.0957241 7.3896e-21)
(0.0707151 0.205223 -5.29944e-21)
(0.0730937 0.308891 -2.09099e-21)
(0.0745299 0.400991 2.08995e-21)
(0.0690833 0.485151 7.30193e-22)
(0.0634743 0.568795 0)
(0.0471734 0.660054 -3.64878e-22)
(0.039631 0.763178 9.94313e-23)
(0.0150889 0.884998 6.64006e-22)
(0.0110543 1.01431 8.97811e-22)
(0.0730275 0.0851723 1.04954e-21)
(0.0653114 0.193255 0)
(0.0650945 0.298564 0)
(0.0663246 0.393536 0)
(0.0619421 0.480519 5.47141e-22)
(0.0578662 0.566472 -1.27593e-21)
(0.0432329 0.659478 1.43366e-22)
(0.0369916 0.764155 -7.49925e-22)
(0.0139284 0.887506 3.38328e-22)
(0.0104121 1.01719 -1.22361e-21)
(0.0768888 0.0752991 -5.82497e-21)
(0.0613068 0.180776 -5.54724e-21)
(0.0576944 0.286679 5.49776e-21)
(0.0581584 0.383417 -4.63799e-21)
(0.0545051 0.472444 5.69403e-21)
(0.0519412 0.560238 0)
(0.0390669 0.654766 3.80708e-22)
(0.034349 0.760953 1.94917e-22)
(0.012904 0.886455 -2.73204e-22)
(0.00978843 1.01811 -4.92494e-22)
(0.0821442 0.0660097 5.01928e-21)
(0.0587304 0.168002 0)
(0.0510441 0.275276 6.77932e-21)
(0.050271 0.375141 -1.11676e-20)
(0.0470794 0.467181 4.08348e-21)
(0.0457586 0.557356 4.5603e-22)
(0.0345094 0.653712 -3.79921e-22)
(0.0312335 0.7615 -3.88232e-23)
(0.0113811 0.888688 1.7605e-22)
(0.00907905 1.02067 6.2892e-22)
(0.0857342 0.0555701 5.69206e-21)
(0.0567681 0.151615 -5.51981e-21)
(0.0449486 0.256966 -7.93886e-22)
(0.0423564 0.357876 0)
(0.0392941 0.45233 0)
(0.0394535 0.545045 -4.33574e-22)
(0.0300294 0.643681 -8.57162e-22)
(0.0285161 0.753873 8.31548e-22)
(0.0103391 0.884495 -5.58447e-23)
(0.00840401 1.02005 5.41976e-23)
(0.0759023 0.0512582 0)
(0.0471042 0.1456 0)
(0.0300948 0.253282 0)
(0.0232613 0.356156 0)
(0.0196275 0.452352 0)
(0.021551 0.546982 0)
(0.0162295 0.647271 0)
(0.0188343 0.759257 0)
(0.00524405 0.8919 0)
(0.00650815 1.02654 0)
(0.0565713 0.0992615 0)
(0.0238197 0.179465 0)
(0.00324167 0.271625 0)
(-0.00705305 0.364627 0)
(-0.0103323 0.455323 0)
(-0.00564344 0.548033 0)
(-0.00469773 0.647511 0)
(0.00487929 0.760749 0)
(-0.00186982 0.894188 0)
(0.0035247 1.02663 0)
(0.0369988 0.129971 0)
(0.00462896 0.207289 0)
(-0.0172184 0.289984 0)
(-0.0296536 0.372361 0)
(-0.0333772 0.454399 0)
(-0.0276317 0.542163 0)
(-0.0223143 0.640662 0)
(-0.00844428 0.757616 0)
(-0.00905071 0.89556 0)
(0.00123317 1.02933 0)
(0.019083 0.156958 0)
(-0.010898 0.233211 0)
(-0.0328836 0.308469 0)
(-0.0453419 0.381081 0)
(-0.048016 0.453739 0)
(-0.0409042 0.534174 0)
(-0.0321996 0.62901 0)
(-0.0160228 0.746491 0)
(-0.0133606 0.886856 0)
(-0.00040771 1.01935 0)
(0.00540019 0.17946 0)
(-0.0191177 0.255533 0)
(-0.0392062 0.324214 0)
(-0.0519599 0.386945 0)
(-0.0553342 0.449818 0)
(-0.0488752 0.522906 0)
(-0.0390663 0.615051 0)
(-0.021565 0.734876 0)
(-0.0160838 0.880766 0)
(-0.0012818 1.01487 0)
(-0.00377092 0.198244 0)
(-0.023963 0.275774 0)
(-0.0410857 0.340797 0)
(-0.0516887 0.396868 0)
(-0.0543114 0.451458 0)
(-0.0484188 0.516204 0)
(-0.0390624 0.602672 0)
(-0.0230499 0.720812 0)
(-0.0171168 0.866669 0)
(-0.00200725 0.999021 0)
(-0.00798757 0.21111 0)
(-0.022115 0.291126 0)
(-0.0376704 0.35271 0)
(-0.048717 0.400901 0)
(-0.0526179 0.447494 0)
(-0.0481967 0.506114 0)
(-0.0393987 0.590274 0)
(-0.0239685 0.710878 0)
(-0.0175912 0.86114 0)
(-0.00231531 0.994454 0)
(-0.00907787 0.219257 0)
(-0.0176176 0.302802 0)
(-0.0287813 0.366575 0)
(-0.0379335 0.41244 0)
(-0.0425811 0.452727 0)
(-0.0406799 0.503054 0)
(-0.0346636 0.579984 0)
(-0.0222929 0.697102 0)
(-0.0167148 0.846368 0)
(-0.00258642 0.977992 0)
(-0.00583027 0.225506 0)
(-0.012838 0.311147 0)
(-0.0237729 0.373443 0)
(-0.0338194 0.414426 0)
(-0.0395443 0.450026 0)
(-0.0388199 0.496713 0)
(-0.0335616 0.572404 0)
(-0.0216005 0.69122 0)
(-0.0160399 0.843288 0)
(-0.00247103 0.975325 0)
(0.00200386 0.227371 0)
(-0.00016879 0.319126 0)
(-0.0074461 0.38852 0)
(-0.0170459 0.430275 0)
(-0.0250313 0.460216 0)
(-0.0282506 0.497819 0)
(-0.0273425 0.564093 0)
(-0.0195009 0.677552 0)
(-0.0146766 0.827884 0)
(-0.00266541 0.957996 0)
(0.0979798 0.027792 -4.40895e-21)
(0.0764432 0.0654656 4.35341e-21)
(0.0519113 0.0925415 -6.28729e-22)
(0.0301054 0.116536 0)
(0.0133025 0.136233 0)
(0.0015041 0.152078 -4.49535e-22)
(-0.00463753 0.162565 1.1031e-21)
(-0.00704386 0.168273 -1.08326e-21)
(-0.00441588 0.173088 -6.18801e-23)
(0.00168472 0.172718 6.02995e-23)
(0.101661 0.0244935 4.32396e-21)
(0.0791463 0.055017 0)
(0.0548332 0.0782677 -4.16774e-21)
(0.0331478 0.0996766 9.18101e-21)
(0.0162168 0.117472 -5.46649e-21)
(0.00391156 0.131732 4.37259e-22)
(-0.00244855 0.141212 -6.53861e-22)
(-0.00552462 0.146135 -7.40437e-22)
(-0.00352445 0.150357 4.03582e-23)
(0.00171382 0.149078 1.02297e-23)
(0.10437 0.0226573 -5.04524e-21)
(0.0807649 0.0462945 4.56074e-21)
(0.0569875 0.0649838 -4.51622e-21)
(0.0357433 0.0829665 4.39184e-21)
(0.0188872 0.0981527 -3.30784e-21)
(0.00624739 0.110378 0)
(-0.000716112 0.118722 6.5538e-22)
(-0.00416526 0.123003 -3.37174e-24)
(-0.00277081 0.12665 2.09693e-22)
(0.00172009 0.124754 5.35562e-23)
(0.106571 0.0188062 8.7911e-22)
(0.0821685 0.0363806 0)
(0.0590404 0.050845 0)
(0.0381267 0.0654294 0)
(0.0212938 0.0778361 -2.91575e-21)
(0.00836974 0.0880012 1.88629e-21)
(0.000634621 0.0950994 -1.08348e-22)
(-0.00295475 0.098755 3.26078e-22)
(-0.00211173 0.101949 7.06686e-23)
(0.00168118 0.0997155 -5.99206e-24)
(0.107922 0.0118238 -7.88046e-22)
(0.0830207 0.0240403 2.74452e-21)
(0.060709 0.0347677 2.19482e-21)
(0.0401335 0.0463271 -2.19311e-21)
(0.023372 0.0561067 1.01565e-21)
(0.0102505 0.0643809 0)
(0.0020798 0.0703345 6.56722e-22)
(-0.00176121 0.0735019 -7.73473e-22)
(-0.00149972 0.0763558 3.34026e-22)
(0.00162038 0.0740183 -6.51373e-23)
(0.108429 0.00157315 6.366e-21)
(0.0833381 0.00907731 -5.69721e-22)
(0.0619489 0.0164415 8.40377e-23)
(0.041745 0.0254052 -2.13198e-21)
(0.0251287 0.032843 0)
(0.0119036 0.0395438 0)
(0.00340775 0.0445469 0)
(-0.000675811 0.0474197 -4.41887e-22)
(-0.0009338 0.0500826 0)
(0.00154631 0.0478165 0)
(0.108103 -0.0115544 0)
(0.0831349 -0.00806744 -2.85307e-21)
(0.0627727 -0.00383668 1.95458e-21)
(0.0430022 0.00291332 1.99956e-21)
(0.0265995 0.00830794 -2.00978e-21)
(0.0133719 0.0137872 -7.37621e-22)
(0.00465243 0.0180826 8.39829e-22)
(0.000279199 0.0208333 1.60089e-21)
(-0.000368932 0.0234146 -1.31627e-22)
(0.0014781 0.0213575 3.86471e-23)
(0.106884 -0.0268844 0)
(0.0824046 -0.0266021 9.00582e-22)
(0.0631894 -0.0254009 4.72021e-22)
(0.0439347 -0.020537 0)
(0.0278236 -0.016925 -4.1216e-22)
(0.0147063 -0.0123636 1.28082e-21)
(0.00584058 -0.00856779 -9.10779e-22)
(0.00122614 -0.00583569 -1.71686e-22)
(8.24846e-05 -0.00328018 1.21099e-22)
(0.00136473 -0.00500502 -7.88197e-23)
(0.104663 -0.0436212 -5.01686e-22)
(0.0811841 -0.0456563 -8.60291e-22)
(0.063222 -0.0474392 1.76284e-22)
(0.0445499 -0.0441601 -2.32841e-22)
(0.0288391 -0.0421289 -4.60265e-22)
(0.0159351 -0.0382639 -5.95534e-22)
(0.00699051 -0.0348496 1.54047e-22)
(0.00217479 -0.0320707 1.08185e-22)
(0.000470253 -0.0295848 -1.21495e-22)
(0.0012596 -0.0309116 -2.03215e-23)
(0.101512 -0.0609402 1.60441e-22)
(0.0795214 -0.0644568 -1.61853e-22)
(0.0628765 -0.0691494 2.20546e-22)
(0.0448618 -0.0671823 2.32486e-22)
(0.0296676 -0.0665817 -2.02673e-22)
(0.0170676 -0.0632866 3.98804e-22)
(0.00810766 -0.0602192 -2.18697e-22)
(0.00308996 -0.0574379 -4.31113e-23)
(0.000922167 -0.0550695 0)
(0.00113143 -0.0559563 2.03565e-23)
(0.0976781 -0.0781588 -1.38628e-22)
(0.0774382 -0.0823891 1.39734e-22)
(0.0621506 -0.0898722 1.86385e-22)
(0.0449053 -0.0889765 2.04778e-22)
(0.0303027 -0.0896823 1.93228e-22)
(0.018091 -0.0869232 -1.64373e-23)
(0.00915089 -0.0842285 -8.15311e-23)
(0.00394718 -0.0815455 -1.66764e-22)
(0.00132884 -0.0793363 0)
(0.00100321 -0.0798013 1.98902e-23)
(0.0934089 -0.0947705 0)
(0.0750301 -0.0990578 6.42435e-22)
(0.0610685 -0.109146 -1.16915e-21)
(0.0447265 -0.109132 -2.05077e-22)
(0.0307313 -0.111016 -3.7332e-22)
(0.0189732 -0.108835 -5.17262e-22)
(0.0100621 -0.106562 1.44231e-22)
(0.00469675 -0.104103 1.03328e-22)
(0.0016638 -0.102079 -1.17985e-22)
(0.000879007 -0.102185 -1.98354e-23)
(0.0889135 -0.110466 0)
(0.0724221 -0.114304 4.46135e-22)
(0.0596782 -0.126705 3.36071e-22)
(0.0443727 -0.127473 0)
(0.030951 -0.13037 1.06187e-21)
(0.019695 -0.128866 -3.53961e-22)
(0.0108138 -0.127048 -2.94558e-22)
(0.00532098 -0.124937 -6.19003e-22)
(0.00192687 -0.123105 1.17599e-22)
(0.000761576 -0.122939 -7.42615e-23)
(0.084366 -0.125116 0)
(0.0697254 -0.128186 -4.49812e-22)
(0.0580393 -0.14246 0)
(0.0438866 -0.144032 -1.32637e-21)
(0.0309765 -0.147717 1.33329e-21)
(0.0202564 -0.147021 5.64459e-22)
(0.01141 -0.14565 -4.09965e-23)
(0.00582865 -0.143992 6.01227e-22)
(0.0021315 -0.142335 1.13599e-22)
(0.000654707 -0.141996 1.10941e-22)
(0.0798988 -0.138712 6.4341e-23)
(0.067046 -0.140933 7.88951e-23)
(0.0562163 -0.15645 -2.81406e-22)
(0.0433042 -0.158996 1.06584e-21)
(0.0308361 -0.163166 0)
(0.0206616 -0.163422 5.30149e-22)
(0.0118651 -0.162436 -1.11099e-22)
(0.00623105 -0.161309 -7.87797e-22)
(0.00229085 -0.159796 -3.55689e-23)
(0.000559582 -0.15938 3.55196e-23)
(0.0756018 -0.151281 1.33755e-21)
(0.0645021 -0.152903 -4.17186e-22)
(0.0542952 -0.168794 -9.15368e-22)
(0.0426591 -0.172635 9.14866e-22)
(0.0305717 -0.176914 5.34256e-22)
(0.0209194 -0.178258 0)
(0.0122009 -0.177553 8.3652e-22)
(0.00654169 -0.177009 -4.53218e-22)
(0.00241869 -0.175599 -2.71869e-22)
(0.000476113 -0.175197 -6.24672e-23)
(0.0715728 -0.162796 -3.28086e-22)
(0.0622539 -0.164525 0)
(0.0524035 -0.179656 0)
(0.0419879 -0.185227 0)
(0.0302442 -0.189201 4.667e-22)
(0.0210467 -0.191746 -9.99731e-22)
(0.0124444 -0.191195 -8.1086e-22)
(0.00677434 -0.191266 1.00513e-21)
(0.00252757 -0.189917 -6.36752e-23)
(0.000404079 -0.189607 1.24811e-22)
(0.067751 -0.173097 -1.42926e-21)
(0.0603384 -0.176217 -4.77918e-22)
(0.0506238 -0.189223 4.73464e-22)
(0.041292 -0.197009 -1.69391e-21)
(0.0299272 -0.200283 2.10642e-21)
(0.0210896 -0.204099 0)
(0.012642 -0.203577 3.79396e-22)
(0.00695203 -0.204281 -1.89667e-23)
(0.00263252 -0.202957 1.76689e-22)
(0.000344043 -0.20281 5.34212e-23)
(0.0632924 -0.181751 -4.80575e-22)
(0.0581526 -0.188321 0)
(0.0487568 -0.197747 9.69388e-22)
(0.0404087 -0.208168 -2.35521e-21)
(0.0296242 -0.21043 9.9587e-22)
(0.0211007 -0.215521 1.93226e-22)
(0.0128745 -0.214919 -3.78533e-22)
(0.00713202 -0.216259 -6.1379e-23)
(0.00276348 -0.214939 -3.40363e-22)
(0.000295346 -0.215022 -1.06938e-22)
(0.0585529 -0.187853 -1.91931e-21)
(0.055415 -0.201086 1.86905e-21)
(0.046791 -0.205657 -5.04776e-23)
(0.0391641 -0.218886 0)
(0.0291287 -0.219946 0)
(0.0208882 -0.226225 -1.99294e-22)
(0.0130236 -0.22544 -6.06242e-22)
(0.00726862 -0.227393 5.94673e-22)
(0.00289006 -0.226067 5.18948e-23)
(0.000246668 -0.226463 -5.06983e-23)
(0.0615683 -0.193861 0)
(0.0552994 -0.231423 0)
(0.0459977 -0.223772 0)
(0.0372786 -0.243463 0)
(0.0275405 -0.241818 0)
(0.0192057 -0.250833 0)
(0.0120921 -0.249509 0)
(0.00659972 -0.252792 0)
(0.00264975 -0.251234 0)
(0.000159357 -0.252358 0)
(0.0490613 -0.243605 0)
(0.0411175 -0.278184 0)
(0.0365502 -0.266686 0)
(0.0287639 -0.285963 0)
(0.022629 -0.281339 0)
(0.0158293 -0.291319 0)
(0.01061 -0.288576 0)
(0.00593474 -0.292874 0)
(0.00261238 -0.290463 0)
(0.000246088 -0.292271 0)
(0.0442607 -0.292392 0)
(0.0353719 -0.325214 0)
(0.0309891 -0.311344 0)
(0.0237233 -0.330753 0)
(0.0189409 -0.323757 0)
(0.0131395 -0.334686 0)
(0.00921792 -0.330318 0)
(0.0051851 -0.335484 0)
(0.00248316 -0.331903 0)
(0.000228199 -0.334456 0)
(0.0387998 -0.345011 0)
(0.0302035 -0.37721 0)
(0.0263697 -0.361139 0)
(0.0197051 -0.38121 0)
(0.0159738 -0.37205 0)
(0.010963 -0.384133 0)
(0.00803462 -0.378012 0)
(0.00452976 -0.384148 0)
(0.00238711 -0.379163 0)
(0.00020409 -0.382659 0)
(0.0336197 -0.406453 0)
(0.0256903 -0.438817 0)
(0.0222229 -0.420912 0)
(0.016328 -0.442003 0)
(0.0134097 -0.430913 0)
(0.00914521 -0.444336 0)
(0.00695815 -0.436479 0)
(0.00392562 -0.443791 0)
(0.00223707 -0.437359 0)
(0.000157546 -0.442097 0)
(0.0285379 -0.481809 0)
(0.0212983 -0.513372 0)
(0.0183616 -0.495288 0)
(0.0132706 -0.516898 0)
(0.0110729 -0.504893 0)
(0.00742643 -0.519325 0)
(0.0057963 -0.510318 0)
(0.00313489 -0.518778 0)
(0.00186193 -0.511308 0)
(3.32066e-05 -0.517427 0)
(0.0222343 -0.571097 0)
(0.0168242 -0.598907 0)
(0.0143818 -0.584195 0)
(0.0103612 -0.604105 0)
(0.0085409 -0.593441 0)
(0.00553129 -0.607264 0)
(0.00419335 -0.59868 0)
(0.00192092 -0.607297 0)
(0.00105761 -0.59997 0)
(-0.000183142 -0.606814 0)
(0.0177465 -0.6634 0)
(0.0128134 -0.684278 0)
(0.0106115 -0.675949 0)
(0.00707327 -0.690723 0)
(0.00576879 -0.684102 0)
(0.00325446 -0.69462 0)
(0.00229415 -0.688548 0)
(0.000434945 -0.695209 0)
(0.000131768 -0.689708 0)
(-0.000377645 -0.695476 0)
(0.0103224 -0.737124 0)
(0.00697699 -0.747605 0)
(0.00584246 -0.747449 0)
(0.00379893 -0.755918 0)
(0.00311942 -0.754705 0)
(0.00148787 -0.760138 0)
(0.000859488 -0.757542 0)
(-0.000331571 -0.76062 0)
(-0.000304407 -0.757762 0)
(-0.000339223 -0.760743 0)
(0.00206788 -0.773719 0)
(0.00153556 -0.782565 0)
(0.0014389 -0.785575 0)
(0.00118269 -0.790629 0)
(0.000921615 -0.791282 0)
(0.000480879 -0.793997 0)
(0.000167424 -0.792966 0)
(-0.000171565 -0.794122 0)
(-0.000182101 -0.792653 0)
(-0.000108205 -0.793948 0)
(0.0566407 -0.213209 4.65592e-21)
(0.0495599 -0.26253 -4.56805e-21)
(0.0460914 -0.311254 7.18781e-22)
(0.0409663 -0.364219 0)
(0.0360854 -0.425877 0)
(0.0308521 -0.50008 1.03943e-21)
(0.0249945 -0.585559 -4.78756e-21)
(0.0192212 -0.66931 4.75626e-21)
(0.0119511 -0.738216 1.36992e-21)
(0.00361411 -0.769363 -1.35279e-21)
(0.055321 -0.219857 -5.48312e-21)
(0.0502362 -0.268401 0)
(0.0469943 -0.31663 5.1977e-21)
(0.042002 -0.369513 -1.23575e-20)
(0.0372208 -0.431195 8.31442e-21)
(0.0319323 -0.504989 -9.36664e-22)
(0.0262083 -0.589039 2.2456e-21)
(0.0198948 -0.671123 4.92043e-21)
(0.0126785 -0.737128 1.43979e-21)
(0.00429615 -0.768331 1.44509e-21)
(0.0549013 -0.226641 6.81011e-21)
(0.0515422 -0.274392 -5.53902e-21)
(0.0482733 -0.321599 5.48657e-21)
(0.0433652 -0.373961 -7.11919e-21)
(0.038608 -0.435382 5.25566e-21)
(0.0332199 -0.508575 0)
(0.0273952 -0.591168 -2.25122e-21)
(0.0206569 -0.67202 1.66336e-22)
(0.0132262 -0.735075 -2.59544e-21)
(0.00464353 -0.767316 -2.76577e-21)
(0.0552552 -0.23298 -1.14921e-21)
(0.0533622 -0.280369 0)
(0.0499667 -0.326664 0)
(0.0451118 -0.378488 0)
(0.0402966 -0.439551 6.37312e-21)
(0.0347487 -0.512048 -4.27703e-21)
(0.028658 -0.593192 -4.21154e-23)
(0.0215306 -0.672395 -2.88341e-21)
(0.0136668 -0.733127 -1.48494e-21)
(0.00475398 -0.765404 -1.6125e-21)
(0.0563633 -0.238555 4.71292e-22)
(0.055582 -0.285516 -3.82941e-21)
(0.0520166 -0.331097 -3.49387e-21)
(0.0471969 -0.382581 3.49178e-21)
(0.0422567 -0.443383 -2.0679e-21)
(0.0365011 -0.51526 0)
(0.0300798 -0.595085 -2.6162e-21)
(0.0225408 -0.672441 5.91243e-21)
(0.0141473 -0.731338 -3.04878e-21)
(0.00481701 -0.762728 3.13426e-21)
(0.0582804 -0.243373 -1.05522e-20)
(0.0582068 -0.289557 9.09468e-22)
(0.0544117 -0.334419 -4.76244e-22)
(0.0495786 -0.385674 3.69257e-21)
(0.0444483 -0.446307 0)
(0.0384452 -0.517686 0)
(0.0316774 -0.596393 0)
(0.0236995 -0.672054 3.22504e-21)
(0.0147611 -0.729434 0)
(0.004946 -0.759667 0)
(0.0610364 -0.247372 0)
(0.0612884 -0.292521 4.98704e-21)
(0.0571981 -0.336581 -3.38838e-21)
(0.0522643 -0.387599 -4.47434e-21)
(0.0468702 -0.44807 4.49771e-21)
(0.0405737 -0.519019 2.85932e-21)
(0.0334408 -0.596799 -2.82328e-21)
(0.0250008 -0.671072 -1.15673e-20)
(0.0155218 -0.727203 8.22015e-22)
(0.00516265 -0.756456 -2.9084e-21)
(0.0646339 -0.250383 0)
(0.0648604 -0.294398 -1.60289e-21)
(0.0604241 -0.337632 -9.90124e-22)
(0.0552844 -0.388389 0)
(0.0495516 -0.448661 1.38659e-21)
(0.0429084 -0.519206 -4.19597e-21)
(0.0353752 -0.596204 4.80015e-21)
(0.0264464 -0.669387 1.74291e-21)
(0.0164137 -0.724542 -1.9487e-21)
(0.00545153 -0.753127 3.84719e-21)
(0.0690731 -0.252231 1.37018e-21)
(0.0689371 -0.295118 1.87864e-21)
(0.0641155 -0.337549 -3.83719e-22)
(0.0586613 -0.388066 6.07003e-22)
(0.0525243 -0.448121 1.30792e-21)
(0.0454792 -0.518312 2.26436e-21)
(0.0374959 -0.594671 -8.76257e-22)
(0.0280345 -0.667026 -9.62621e-22)
(0.0174079 -0.721466 1.95515e-21)
(0.00578777 -0.749644 1.07902e-21)
(0.074359 -0.252763 -4.20415e-22)
(0.0735274 -0.294625 4.23585e-22)
(0.0682843 -0.336267 -5.23129e-22)
(0.062405 -0.386605 -6.0627e-22)
(0.055808 -0.446448 7.57375e-22)
(0.0483094 -0.516362 -1.5488e-21)
(0.0398309 -0.592223 1.34764e-21)
(0.0297888 -0.663984 4.88521e-22)
(0.0185104 -0.71797 0)
(0.00617003 -0.745937 -1.08139e-21)
(0.0804998 -0.251852 4.43074e-22)
(0.0786354 -0.292928 -4.46633e-22)
(0.072939 -0.333734 -5.88118e-22)
(0.0665184 -0.38399 -6.80074e-22)
(0.0594169 -0.443621 -8.01801e-22)
(0.0514116 -0.513394 -6.90965e-23)
(0.0423877 -0.588944 4.82377e-22)
(0.0317012 -0.660363 1.57782e-21)
(0.0197041 -0.714121 0)
(0.00658753 -0.742007 -1.20272e-21)
(0.087497 -0.24947 0)
(0.0842562 -0.290088 -2.22363e-21)
(0.0780909 -0.329949 4.07755e-21)
(0.0710039 -0.380234 6.81278e-22)
(0.0633586 -0.439637 1.64609e-21)
(0.0547941 -0.50936 2.73224e-21)
(0.0451983 -0.584744 -9.79913e-22)
(0.0338152 -0.65606 -1.07461e-21)
(0.0210305 -0.709847 2.42631e-21)
(0.00706259 -0.737805 1.19988e-21)
(0.0953392 -0.245711 0)
(0.0903828 -0.286161 -2.19991e-21)
(0.0837448 -0.325008 -1.25182e-21)
(0.0758588 -0.375384 0)
(0.0676528 -0.434524 -5.23353e-21)
(0.0584621 -0.504349 1.75435e-21)
(0.0482397 -0.579782 2.14123e-21)
(0.036084 -0.651263 6.99528e-21)
(0.0224413 -0.705257 -2.41846e-21)
(0.00756686 -0.73339 5.29748e-21)
(0.104008 -0.240728 0)
(0.0970058 -0.281155 2.21884e-21)
(0.0899033 -0.318993 0)
(0.0811008 -0.369457 6.6803e-21)
(0.0722978 -0.428398 -6.7145e-21)
(0.0624298 -0.4982 -4.22585e-21)
(0.0515733 -0.573809 -1.03062e-22)
(0.0385994 -0.645687 -7.24154e-21)
(0.0240247 -0.700147 -1.20474e-21)
(0.0081466 -0.72864 -6.59014e-21)
(0.113482 -0.234716 1.57323e-20)
(0.104123 -0.275066 -6.03069e-21)
(0.0965322 -0.312202 8.92077e-22)
(0.086702 -0.362513 -6.17869e-21)
(0.0773371 -0.421333 0)
(0.0667117 -0.491124 -4.45026e-21)
(0.0551008 -0.567233 -4.29524e-22)
(0.0412397 -0.639751 9.886e-21)
(0.0256604 -0.694809 1.37983e-21)
(0.00872501 -0.723729 -1.38489e-21)
(0.123725 -0.227851 -2.1284e-21)
(0.111702 -0.267892 1.17901e-20)
(0.103645 -0.304471 6.50685e-21)
(0.0927685 -0.354263 -6.50239e-21)
(0.0827871 -0.412955 -4.05026e-21)
(0.0713792 -0.4828 0)
(0.0589833 -0.559402 -1.01596e-20)
(0.0442142 -0.632792 5.09106e-21)
(0.027542 -0.688833 5.5021e-21)
(0.00941958 -0.718404 5.98806e-21)
(0.134659 -0.220512 -2.27521e-21)
(0.119789 -0.25973 0)
(0.111193 -0.296026 0)
(0.0992146 -0.345452 0)
(0.0885053 -0.404211 -4.76242e-21)
(0.0762418 -0.47441 8.79721e-21)
(0.0629522 -0.551702 1.03897e-20)
(0.047174 -0.626018 -1.64876e-20)
(0.0293555 -0.682918 2.99215e-21)
(0.0100351 -0.71305 -8.89517e-21)
(0.146187 -0.212626 -3.03996e-21)
(0.128503 -0.249778 1.23645e-20)
(0.119187 -0.286317 -1.22463e-20)
(0.106197 -0.335135 1.64714e-20)
(0.0947498 -0.393634 -2.07622e-20)
(0.0816906 -0.463871 0)
(0.0675453 -0.541806 -5.47752e-21)
(0.0507323 -0.617489 -2.61995e-22)
(0.0316245 -0.675961 -6.25889e-21)
(0.0108873 -0.707031 -6.41083e-21)
(0.157943 -0.205733 -2.43802e-21)
(0.13751 -0.240482 0)
(0.127047 -0.278018 -1.69763e-20)
(0.113135 -0.326469 3.22707e-20)
(0.100848 -0.385108 -1.25684e-20)
(0.0868929 -0.455692 -2.57992e-21)
(0.0717643 -0.534255 5.46595e-21)
(0.0538439 -0.610674 -3.2694e-22)
(0.0335039 -0.669789 9.10653e-21)
(0.0114586 -0.701317 9.48769e-21)
(0.170959 -0.19482 -1.11951e-20)
(0.148588 -0.226674 1.09426e-20)
(0.136439 -0.264823 1.77724e-21)
(0.121671 -0.312488 0)
(0.108457 -0.370804 0)
(0.0936403 -0.441514 2.4882e-21)
(0.0775239 -0.521299 1.15402e-20)
(0.058362 -0.600019 -1.1236e-20)
(0.0364281 -0.661573 -3.12237e-21)
(0.0126038 -0.694346 3.06492e-21)
(0.1821 -0.19768 0)
(0.17098 -0.221489 0)
(0.153436 -0.261834 0)
(0.136783 -0.308043 0)
(0.121868 -0.365154 0)
(0.105097 -0.433966 0)
(0.0867817 -0.511374 0)
(0.065144 -0.587605 0)
(0.0404407 -0.647546 0)
(0.013384 -0.680208 0)
(0.20451 -0.175637 0)
(0.208672 -0.204667 0)
(0.181774 -0.249891 0)
(0.166363 -0.295171 0)
(0.148648 -0.352609 0)
(0.128829 -0.419802 0)
(0.1068 -0.493722 0)
(0.0805557 -0.564934 0)
(0.0505338 -0.619549 0)
(0.0180168 -0.647523 0)
(0.237405 -0.153278 0)
(0.24749 -0.182691 0)
(0.21181 -0.22805 0)
(0.200368 -0.271851 0)
(0.178062 -0.329379 0)
(0.154837 -0.393751 0)
(0.128062 -0.463944 0)
(0.0961799 -0.53136 0)
(0.0596396 -0.583887 0)
(0.0194039 -0.613088 0)
(0.280036 -0.137407 0)
(0.29205 -0.165915 0)
(0.250243 -0.210718 0)
(0.24367 -0.253538 0)
(0.214434 -0.310545 0)
(0.188322 -0.370576 0)
(0.1558 -0.436113 0)
(0.117254 -0.496991 0)
(0.0734109 -0.542564 0)
(0.0263709 -0.564791 0)
(0.33207 -0.118569 0)
(0.343076 -0.145672 0)
(0.29735 -0.187347 0)
(0.292974 -0.226824 0)
(0.253423 -0.279468 0)
(0.224184 -0.332706 0)
(0.183053 -0.392679 0)
(0.136634 -0.447564 0)
(0.0839521 -0.490691 0)
(0.0263572 -0.516124 0)
(0.397808 -0.10741 0)
(0.406199 -0.132651 0)
(0.358064 -0.170674 0)
(0.352051 -0.2061 0)
(0.301569 -0.253954 0)
(0.270684 -0.300583 0)
(0.218834 -0.35438 0)
(0.16387 -0.399811 0)
(0.101784 -0.434132 0)
(0.0377756 -0.448233 0)
(0.472731 -0.0851074 0)
(0.473988 -0.106198 0)
(0.423433 -0.137823 0)
(0.410686 -0.167173 0)
(0.349878 -0.207186 0)
(0.315402 -0.244887 0)
(0.246319 -0.288976 0)
(0.182569 -0.325204 0)
(0.108517 -0.359521 0)
(0.03023 -0.383689 0)
(0.56071 -0.0738788 0)
(0.55143 -0.0900903 0)
(0.502241 -0.11574 0)
(0.478583 -0.138407 0)
(0.413133 -0.170236 0)
(0.369956 -0.198607 0)
(0.286044 -0.233027 0)
(0.217333 -0.261918 0)
(0.132575 -0.290245 0)
(0.0572927 -0.29318 0)
(0.630718 -0.0391598 0)
(0.61045 -0.0477654 0)
(0.556206 -0.0636323 0)
(0.519117 -0.075782 0)
(0.445899 -0.0950384 0)
(0.388103 -0.109671 0)
(0.29003 -0.130543 0)
(0.210935 -0.146885 0)
(0.103708 -0.173879 0)
(-0.000963409 -0.218257 0)
(0.815106 -0.019529 0)
(0.789282 -0.0237032 0)
(0.743178 -0.0299503 0)
(0.699634 -0.0357056 0)
(0.633577 -0.0441278 0)
(0.567623 -0.0521137 0)
(0.47466 -0.0642822 0)
(0.379497 -0.0784704 0)
(0.251942 -0.106721 0)
(0.167935 -0.160536 0)
(0.217572 -0.173467 1.15414e-20)
(0.243851 -0.148299 -1.13591e-20)
(0.276936 -0.127793 1.99895e-21)
(0.317589 -0.113494 0)
(0.367958 -0.0973046 0)
(0.430401 -0.0877958 3.14618e-21)
(0.502991 -0.0688516 -1.50781e-20)
(0.585816 -0.0604279 1.4962e-20)
(0.657313 -0.0306413 4.35042e-21)
(0.835256 -0.0163721 -4.36565e-21)
(0.226995 -0.163292 -9.9664e-21)
(0.252704 -0.137219 0)
(0.285601 -0.117716 1.42119e-20)
(0.326217 -0.104062 -3.45675e-20)
(0.37667 -0.0889005 2.34949e-20)
(0.438868 -0.0800617 -2.87031e-21)
(0.511298 -0.0623865 6.31351e-21)
(0.593101 -0.055003 1.42285e-20)
(0.666004 -0.0272074 4.03582e-21)
(0.842045 -0.0150512 3.9025e-21)
(0.235219 -0.151573 1.15864e-20)
(0.259333 -0.125764 -1.31665e-20)
(0.291228 -0.107579 1.30429e-20)
(0.33151 -0.0946675 -1.86478e-20)
(0.381965 -0.0805967 1.35234e-20)
(0.444195 -0.0725104 0)
(0.516636 -0.0561588 -6.32911e-21)
(0.598083 -0.0499036 -7.19286e-23)
(0.672812 -0.0240765 -7.47756e-21)
(0.847512 -0.0138055 -7.7978e-21)
(0.244461 -0.139021 -2.0756e-21)
(0.267625 -0.114069 0)
(0.298461 -0.0972934 0)
(0.338084 -0.0852163 0)
(0.388222 -0.0723231 1.54836e-20)
(0.450192 -0.0650823 -1.05407e-20)
(0.522408 -0.0501243 -3.90808e-22)
(0.603371 -0.0450754 -7.27176e-21)
(0.679526 -0.0212119 -3.77736e-21)
(0.852857 -0.0126358 -3.8507e-21)
(0.253358 -0.126119 2.98409e-21)
(0.275917 -0.10237 -6.80474e-21)
(0.305959 -0.0869896 -7.64795e-21)
(0.34516 -0.0757871 7.64356e-21)
(0.395048 -0.0641161 -4.87407e-21)
(0.456777 -0.0577891 0)
(0.528735 -0.0442552 -6.24746e-21)
(0.609167 -0.0404382 1.40089e-20)
(0.686404 -0.0185345 -7.08529e-21)
(0.85825 -0.0115248 7.70224e-21)
(0.261341 -0.112948 -1.55202e-20)
(0.283256 -0.0907298 4.65371e-22)
(0.312364 -0.0767471 -1.35648e-21)
(0.351345 -0.0664889 7.50504e-21)
(0.40113 -0.0560649 0)
(0.462799 -0.0506984 0)
(0.534664 -0.038584 0)
(0.614723 -0.0359816 6.71495e-21)
(0.692981 -0.0160072 0)
(0.863385 -0.0104647 0)
(0.268416 -0.0995435 0)
(0.289602 -0.0790992 8.62757e-21)
(0.317538 -0.0665263 -6.01587e-21)
(0.356256 -0.0573435 -8.71769e-21)
(0.405932 -0.0481907 8.76325e-21)
(0.467621 -0.0438413 5.69712e-21)
(0.539528 -0.033129 -5.38543e-21)
(0.619422 -0.0317188 -2.32011e-20)
(0.698787 -0.0136321 1.64228e-21)
(0.867926 -0.00945662 -5.56748e-21)
(0.274536 -0.0859506 0)
(0.294892 -0.0674417 -2.62122e-21)
(0.321709 -0.0562821 -1.6431e-21)
(0.360036 -0.0483099 0)
(0.40949 -0.0404538 2.66009e-21)
(0.471161 -0.037185 -7.68266e-21)
(0.543162 -0.027868 9.14048e-21)
(0.623034 -0.0276432 3.50411e-21)
(0.703576 -0.0114025 -3.50663e-21)
(0.871713 -0.00849958 7.4402e-21)
(0.279559 -0.0721773 1.35132e-21)