/*--------------------------------*- C++ -*----------------------------------*\
  =========                 |
  \\      /  F ield         | OpenFOAM: The Open Source CFD Toolbox
   \\    /   O peration     | Website:  https://openfoam.org
    \\  /    A nd           | Version:  7
     \\/     M anipulation  |
\*---------------------------------------------------------------------------*/
FoamFile
{
    version     2.0;
    format      ascii;
    class       volScalarField;
    location    "4.4";
    object      p;
}
// * * * * * * * * * * * * * * * * * * * * * * * * * * * * * * * * * * * * * //

dimensions      [0 2 -2 0 0 0 0];

internalField   nonuniform List<scalar> 
32000
(
0.646217
0.64538
0.645157
0.645012
0.645049
0.645271
0.64568
0.646262
0.646988
0.647846
0.648838
0.649971
0.651248
0.652662
0.654196
0.655842
0.657593
0.659446
0.66139
0.663411
0.665493
0.667623
0.669792
0.671993
0.674217
0.676452
0.678683
0.680897
0.683082
0.685229
0.68733
0.689378
0.691369
0.6933
0.695168
0.696974
0.698716
0.700402
0.702023
0.703446
0.645718
0.644882
0.64466
0.644519
0.644566
0.644798
0.645213
0.645794
0.646514
0.647355
0.648324
0.649428
0.650666
0.652028
0.653501
0.655073
0.656744
0.658509
0.660357
0.662275
0.664247
0.666259
0.668305
0.670381
0.67248
0.674592
0.676701
0.678794
0.680861
0.682892
0.68488
0.686822
0.688712
0.690547
0.692326
0.694046
0.695707
0.697318
0.698865
0.70023
0.645171
0.644351
0.644131
0.643995
0.644054
0.644299
0.644721
0.645302
0.646015
0.646841
0.647787
0.648861
0.650059
0.651368
0.652776
0.654274
0.655861
0.657534
0.659284
0.661095
0.662952
0.664842
0.666761
0.668709
0.670679
0.672662
0.674643
0.676609
0.678552
0.680463
0.682336
0.684168
0.685955
0.687693
0.689381
0.691015
0.692596
0.69413
0.695605
0.69691
0.644579
0.643775
0.643561
0.643434
0.643508
0.643771
0.644204
0.644784
0.645488
0.6463
0.647226
0.64827
0.649425
0.650679
0.65202
0.653442
0.654944
0.656523
0.65817
0.659869
0.661606
0.663369
0.665159
0.666975
0.668813
0.67066
0.672507
0.674341
0.676155
0.677942
0.679698
0.681418
0.683099
0.684739
0.686335
0.687883
0.689382
0.690841
0.692244
0.693489
0.643955
0.643177
0.642972
0.642857
0.642946
0.643224
0.643668
0.644248
0.644941
0.645739
0.646643
0.647655
0.648765
0.649962
0.651236
0.65258
0.653993
0.655475
0.657015
0.658597
0.660209
0.661843
0.663501
0.665182
0.66688
0.668588
0.670295
0.671992
0.673673
0.675333
0.676967
0.678572
0.680145
0.681685
0.683188
0.684651
0.68607
0.687453
0.688787
0.689972
0.643287
0.642539
0.642348
0.642249
0.642355
0.64265
0.643105
0.643685
0.644369
0.645152
0.646034
0.647012
0.648076
0.649216
0.650421
0.651686
0.65301
0.654391
0.655819
0.65728
0.658764
0.660266
0.661789
0.66333
0.664885
0.666447
0.668009
0.669565
0.671109
0.672639
0.674149
0.675636
0.677099
0.678537
0.679946
0.681322
0.682662
0.683972
0.685238
0.686363
0.642582
0.641873
0.641698
0.64162
0.641745
0.642056
0.642521
0.643103
0.64378
0.644547
0.645405
0.646347
0.647363
0.648444
0.649581
0.650766
0.651997
0.653274
0.654587
0.655923
0.657275
0.658643
0.660027
0.661424
0.662831
0.664243
0.665656
0.667066
0.668471
0.669867
0.671249
0.672615
0.673965
0.6753
0.676615
0.677904
0.679165
0.680403
0.681604
0.68267
0.64184
0.641177
0.641023
0.640969
0.641115
0.641443
0.641918
0.642502
0.643172
0.643924
0.644756
0.64566
0.646627
0.64765
0.648717
0.64982
0.650958
0.652127
0.65332
0.654529
0.655749
0.656979
0.65822
0.659468
0.660723
0.661981
0.663242
0.664503
0.665765
0.667023
0.668274
0.669516
0.670752
0.671982
0.673201
0.674405
0.675587
0.676755
0.677895
0.678901
0.641063
0.640453
0.640323
0.640295
0.640464
0.640809
0.641295
0.641882
0.642547
0.643284
0.644089
0.644953
0.645871
0.646834
0.647831
0.648852
0.649893
0.650952
0.652024
0.653103
0.654189
0.655279
0.656373
0.657469
0.658568
0.65967
0.660775
0.661885
0.663
0.664117
0.665233
0.66635
0.66747
0.668593
0.669717
0.670834
0.67194
0.673039
0.67412
0.675069
0.640253
0.639703
0.639598
0.639599
0.639792
0.640154
0.640651
0.641243
0.641904
0.642626
0.643403
0.644228
0.645096
0.646
0.646925
0.647862
0.648805
0.649753
0.650702
0.651652
0.652601
0.653548
0.654492
0.655434
0.656375
0.657318
0.658266
0.659222
0.660187
0.66116
0.662139
0.663128
0.66413
0.665147
0.666175
0.667206
0.668235
0.669268
0.670294
0.671187
0.639411
0.638926
0.63885
0.638881
0.639099
0.639479
0.639988
0.640585
0.641244
0.641951
0.6427
0.643486
0.644305
0.645149
0.646003
0.646854
0.647699
0.648534
0.649361
0.65018
0.650991
0.651793
0.652586
0.653371
0.654153
0.654936
0.655726
0.656526
0.65734
0.658166
0.659007
0.659866
0.66075
0.661659
0.66259
0.663536
0.664489
0.665457
0.666432
0.66727
0.638539
0.638125
0.638079
0.638142
0.638385
0.638785
0.639307
0.639911
0.640566
0.641259
0.641981
0.64273
0.643501
0.644285
0.645066
0.645832
0.646577
0.647301
0.648007
0.648695
0.649367
0.650023
0.650663
0.651291
0.651913
0.652536
0.653167
0.653811
0.654472
0.655151
0.655852
0.656581
0.657345
0.658146
0.658981
0.659841
0.66072
0.661624
0.66255
0.663337
0.63764
0.6373
0.637285
0.637383
0.637653
0.638074
0.63861
0.63922
0.639873
0.640552
0.641249
0.641962
0.642687
0.643411
0.644118
0.644798
0.645445
0.646061
0.646647
0.647205
0.647737
0.648245
0.648733
0.649205
0.649668
0.650131
0.650604
0.651092
0.6516
0.652132
0.652692
0.653291
0.653936
0.654629
0.655367
0.656143
0.656948
0.657789
0.65867
0.659407
0.636713
0.636452
0.636471
0.636605
0.636904
0.637348
0.637898
0.638514
0.639165
0.639832
0.640507
0.641186
0.641865
0.642529
0.643164
0.643759
0.644311
0.64482
0.645287
0.645716
0.646109
0.646471
0.646807
0.647124
0.64743
0.647736
0.648053
0.648386
0.648742
0.649126
0.649547
0.650017
0.650543
0.651129
0.65177
0.652462
0.653193
0.653973
0.654811
0.655502
0.635762
0.63558
0.635635
0.635809
0.636139
0.636606
0.637171
0.637794
0.638444
0.639101
0.639756
0.640405
0.641039
0.641644
0.642207
0.64272
0.643179
0.643584
0.643936
0.644237
0.644493
0.64471
0.644898
0.645062
0.645214
0.645365
0.645528
0.645708
0.645914
0.646152
0.646437
0.646779
0.647188
0.647667
0.648214
0.64882
0.649478
0.650197
0.650995
0.651642
0.634788
0.634686
0.634779
0.634995
0.635359
0.63585
0.636431
0.637062
0.637713
0.638362
0.639001
0.639621
0.640211
0.640759
0.641254
0.641687
0.642057
0.642361
0.642599
0.642775
0.642896
0.642973
0.643015
0.643031
0.643033
0.643034
0.643045
0.643076
0.643134
0.643231
0.643381
0.643599
0.643893
0.644267
0.644719
0.645242
0.645827
0.646484
0.647242
0.647849
0.633793
0.633772
0.633905
0.634165
0.634565
0.635081
0.635679
0.636319
0.636972
0.637617
0.638242
0.638835
0.639385
0.639879
0.640307
0.640665
0.640949
0.641156
0.641283
0.641337
0.641328
0.641269
0.64117
0.641042
0.6409
0.640755
0.64062
0.640504
0.640419
0.640379
0.6404
0.640497
0.640679
0.64095
0.641308
0.641748
0.64226
0.642856
0.643575
0.644145
0.632778
0.632838
0.633013
0.633319
0.633756
0.6343
0.634914
0.635565
0.636223
0.636866
0.63748
0.63805
0.638562
0.639006
0.639373
0.639659
0.63986
0.639972
0.639994
0.63993
0.639796
0.639606
0.639372
0.639108
0.638826
0.638541
0.638265
0.638009
0.637787
0.637616
0.637513
0.637493
0.637566
0.637735
0.638002
0.63836
0.6388
0.639333
0.640013
0.640547
0.631748
0.631886
0.632104
0.632459
0.632934
0.633506
0.634139
0.634802
0.635466
0.63611
0.636716
0.637266
0.637745
0.638142
0.638453
0.638671
0.638794
0.638816
0.638735
0.63856
0.638307
0.637993
0.637632
0.637237
0.636824
0.636405
0.635994
0.635604
0.635252
0.634955
0.634734
0.634602
0.63457
0.634642
0.634819
0.635096
0.635464
0.635935
0.636573
0.637075
0.630703
0.630917
0.631179
0.631583
0.632099
0.632699
0.633353
0.63403
0.634703
0.63535
0.635951
0.636484
0.636934
0.637291
0.63755
0.637706
0.637754
0.637689
0.637511
0.637231
0.636866
0.636436
0.635955
0.635438
0.6349
0.634354
0.633816
0.6333
0.632825
0.632411
0.632077
0.631838
0.631705
0.631683
0.631773
0.631972
0.632268
0.632677
0.633272
0.633742
0.629648
0.629934
0.63024
0.630693
0.631249
0.63188
0.632556
0.633249
0.633934
0.634588
0.635186
0.635706
0.636132
0.636453
0.636666
0.636763
0.636741
0.636594
0.636325
0.635947
0.635479
0.63494
0.634347
0.633716
0.63306
0.632396
0.631739
0.631105
0.630516
0.629992
0.629552
0.629212
0.628983
0.628871
0.628878
0.628999
0.629226
0.629571
0.630122
0.63056
0.628584
0.628937
0.629287
0.629788
0.630385
0.631049
0.63175
0.632462
0.633161
0.633823
0.634422
0.634932
0.635338
0.63563
0.635801
0.635845
0.635757
0.635533
0.63518
0.634712
0.634148
0.633509
0.632812
0.632074
0.63131
0.630535
0.629767
0.629025
0.62833
0.627703
0.627163
0.626729
0.626409
0.626212
0.626139
0.626186
0.626344
0.626626
0.627129
0.627538
0.627515
0.62793
0.628322
0.62887
0.629508
0.630206
0.630934
0.631667
0.632383
0.633057
0.633659
0.634164
0.634555
0.634821
0.634955
0.63495
0.634802
0.634508
0.634078
0.633526
0.632874
0.632142
0.63135
0.630513
0.629648
0.628771
0.627902
0.62706
0.626267
0.625545
0.624914
0.62439
0.623987
0.62371
0.62356
0.623535
0.623627
0.623847
0.6243
0.624678
0.626444
0.626913
0.627346
0.627938
0.628618
0.62935
0.630107
0.630865
0.631601
0.632289
0.632898
0.6334
0.63378
0.634025
0.634127
0.634078
0.633874
0.633517
0.633016
0.632388
0.631656
0.630839
0.629958
0.629031
0.628073
0.627104
0.626141
0.625208
0.624325
0.623516
0.622801
0.622196
0.621714
0.621362
0.62114
0.621048
0.621076
0.621234
0.621636
0.621982
0.625371
0.625888
0.626357
0.626993
0.627713
0.628482
0.62927
0.630055
0.630814
0.631519
0.632137
0.632641
0.633013
0.633241
0.633315
0.633226
0.632972
0.632557
0.631992
0.631296
0.63049
0.629596
0.628634
0.627623
0.626581
0.625527
0.62448
0.623463
0.622499
0.621611
0.620818
0.620139
0.619586
0.619164
0.618875
0.618719
0.618686
0.618784
0.619132
0.619447
0.624296
0.624853
0.625357
0.626033
0.626794
0.6276
0.628422
0.629237
0.630022
0.630745
0.631376
0.631884
0.632252
0.632465
0.632514
0.63239
0.632091
0.631623
0.631001
0.630243
0.629371
0.628406
0.62737
0.626283
0.625164
0.624033
0.622909
0.621817
0.62078
0.61982
0.618958
0.618212
0.617593
0.617108
0.616757
0.61654
0.61645
0.61649
0.616785
0.617068
0.62322
0.623809
0.624343
0.625059
0.625859
0.626703
0.627561
0.628409
0.629222
0.629966
0.630611
0.631126
0.631492
0.631694
0.631721
0.631565
0.631225
0.63071
0.630037
0.629223
0.62829
0.62726
0.626157
0.625
0.623812
0.62261
0.621418
0.620259
0.619155
0.618131
0.617208
0.616401
0.615723
0.61518
0.614772
0.6145
0.614357
0.614343
0.614583
0.614836
0.622138
0.622752
0.623316
0.624068
0.624907
0.625791
0.626687
0.62757
0.628412
0.629179
0.629839
0.630362
0.630728
0.630921
0.630929
0.630744
0.630368
0.629811
0.629091
0.628226
0.627238
0.626149
0.624984
0.623764
0.622512
0.621247
0.619993
0.618773
0.617611
0.61653
0.615551
0.614691
0.613961
0.613365
0.612906
0.612585
0.612393
0.612329
0.612518
0.61274
0.62105
0.621681
0.622272
0.623059
0.623936
0.62486
0.625798
0.626718
0.62759
0.62838
0.629056
0.629588
0.629956
0.630142
0.630133
0.629922
0.629512
0.628917
0.628154
0.627242
0.626203
0.62506
0.623838
0.62256
0.62125
0.619928
0.618617
0.617343
0.616129
0.614999
0.613972
0.613065
0.612287
0.611646
0.611143
0.610779
0.610544
0.610435
0.610575
0.610769
0.619953
0.620596
0.62121
0.62203
0.622944
0.62391
0.62489
0.625848
0.626752
0.627566
0.628258
0.6288
0.629169
0.629349
0.629324
0.629089
0.628648
0.628017
0.627215
0.62626
0.625174
0.62398
0.622705
0.621375
0.620011
0.618636
0.617275
0.615952
0.614693
0.613519
0.61245
0.611502
0.610685
0.610005
0.609464
0.609063
0.608792
0.608645
0.60874
0.608911
0.618843
0.619492
0.620128
0.620978
0.62193
0.622939
0.623961
0.624959
0.625895
0.626733
0.627441
0.627991
0.628362
0.628535
0.628495
0.628237
0.627767
0.627103
0.626263
0.625267
0.624136
0.622895
0.621572
0.620192
0.618779
0.617356
0.615949
0.614584
0.613284
0.612073
0.610969
0.609986
0.609135
0.608422
0.607851
0.60742
0.60712
0.606942
0.606998
0.607151
0.617717
0.618368
0.619023
0.619903
0.620892
0.621943
0.623009
0.624046
0.625015
0.625877
0.626599
0.627156
0.627527
0.627692
0.627637
0.627356
0.626858
0.626161
0.625285
0.624249
0.623076
0.62179
0.620421
0.618996
0.617537
0.616071
0.614623
0.61322
0.611887
0.610644
0.609509
0.608497
0.607618
0.606879
0.606284
0.60583
0.605508
0.605307
0.605334
0.605476
0.616571
0.617221
0.617894
0.618802
0.619828
0.620921
0.62203
0.623106
0.624107
0.624991
0.625726
0.626288
0.626656
0.626812
0.62674
0.626436
0.625911
0.625182
0.62427
0.623196
0.621981
0.620653
0.619241
0.617772
0.616272
0.614766
0.613282
0.611847
0.610484
0.609215
0.608054
0.607018
0.606116
0.605357
0.604742
0.604272
0.603937
0.603723
0.60373
0.603872
0.615399
0.616046
0.616736
0.617673
0.618737
0.61987
0.62102
0.622135
0.623166
0.62407
0.624816
0.62538
0.625744
0.625888
0.625797
0.625469
0.624914
0.624153
0.623206
0.622093
0.620838
0.619469
0.618016
0.616508
0.614969
0.613428
0.611912
0.610449
0.609062
0.607769
0.606587
0.605531
0.604611
0.603835
0.603207
0.602726
0.602385
0.602167
0.602168
0.602324
0.614199
0.614841
0.615549
0.616515
0.617615
0.618787
0.619977
0.621128
0.622187
0.623109
0.623862
0.624426
0.624782
0.624911
0.624798
0.624443
0.623859
0.623065
0.622082
0.62093
0.619636
0.618228
0.616737
0.615191
0.613618
0.612045
0.610502
0.609015
0.607606
0.606294
0.605093
0.604019
0.603083
0.602294
0.601656
0.601169
0.600827
0.600615
0.600624
0.600814
0.612964
0.613602
0.614329
0.615323
0.616459
0.617669
0.618897
0.620081
0.621164
0.6221
0.622858
0.623418
0.623762
0.623872
0.623735
0.623352
0.622736
0.621908
0.620888
0.619698
0.618365
0.61692
0.615392
0.613812
0.612208
0.610607
0.60904
0.607533
0.606106
0.604776
0.603558
0.602467
0.601516
0.600714
0.600066
0.599575
0.599236
0.599039
0.599069
0.599315
0.611689
0.612326
0.613073
0.614096
0.615266
0.616513
0.617775
0.618988
0.620093
0.621039
0.621797
0.62235
0.622679
0.622767
0.622602
0.622187
0.621537
0.620673
0.619616
0.618389
0.617019
0.615537
0.613976
0.612364
0.610731
0.609106
0.607519
0.605994
0.604551
0.603204
0.601969
0.600861
0.599893
0.599075
0.598413
0.597914
0.597579
0.597401
0.597464
0.597791
0.610371
0.611009
0.611777
0.612829
0.614033
0.615314
0.616608
0.617847
0.618967
0.61992
0.620676
0.621217
0.621526
0.621587
0.621391
0.620942
0.620256
0.619355
0.61826
0.616996
0.61559
0.614075
0.612481
0.61084
0.609182
0.607537
0.605932
0.604392
0.602933
0.601571
0.600319
0.599191
0.5982
0.597356
0.59667
0.596153
0.595813
0.595654
0.59577
0.596217
0.609002
0.609646
0.610437
0.61152
0.612756
0.61407
0.615393
0.616653
0.617785
0.618739
0.619488
0.620013
0.620299
0.62033
0.620099
0.619613
0.618889
0.617949
0.616817
0.615516
0.614076
0.612528
0.610905
0.609238
0.607558
0.605895
0.604276
0.602722
0.601249
0.599871
0.598599
0.597446
0.596424
0.595542
0.594813
0.594249
0.593872
0.59371
0.59391
0.594592
0.607584
0.608237
0.609053
0.610167
0.611436
0.61278
0.614127
0.615403
0.616541
0.617493
0.61823
0.618735
0.618993
0.61899
0.618722
0.618196
0.617432
0.616453
0.615282
0.613946
0.612473
0.610896
0.609246
0.607557
0.605859
0.604182
0.60255
0.600984
0.599498
0.598103
0.596809
0.595626
0.594563
0.593628
0.592827
0.592169
0.591667
0.591358
0.591412
0.592185
0.707845
0.715708
0.720284
0.72519
0.728421
0.73137
0.7336
0.735484
0.736992
0.738234
0.739269
0.740115
0.740825
0.741403
0.741848
0.742173
0.74239
0.742522
0.742553
0.7425
0.742345
0.74211
0.741812
0.741436
0.740976
0.740419
0.739756
0.738984
0.738093
0.737084
0.735945
0.734672
0.733264
0.731712
0.730041
0.728248
0.726374
0.724412
0.722563
0.720782
0.704577
0.712765
0.717588
0.722776
0.726183
0.729267
0.731573
0.733533
0.735087
0.736353
0.737401
0.73829
0.739033
0.739619
0.740082
0.740441
0.740683
0.740831
0.740886
0.740845
0.740717
0.74051
0.740225
0.73986
0.739423
0.738884
0.738237
0.737481
0.736605
0.735605
0.734473
0.733209
0.731804
0.730267
0.728601
0.726816
0.72495
0.723002
0.721158
0.719385
0.701185
0.709755
0.71484
0.720328
0.723921
0.727148
0.729536
0.731571
0.733171
0.734464
0.73553
0.736461
0.737233
0.737831
0.738315
0.738705
0.738973
0.739137
0.739216
0.73919
0.73909
0.738911
0.73864
0.738287
0.737873
0.73735
0.73672
0.735978
0.735119
0.734129
0.733008
0.731754
0.730356
0.728837
0.727181
0.725407
0.72355
0.721621
0.719783
0.718017
0.697666
0.706672
0.71205
0.717842
0.721637
0.72501
0.727496
0.729592
0.731238
0.732571
0.733666
0.734624
0.735419
0.736042
0.736551
0.736962
0.737255
0.73744
0.737542
0.737538
0.737461
0.737306
0.737055
0.736724
0.736323
0.735818
0.735205
0.734478
0.733633
0.732657
0.731549
0.730309
0.728924
0.72742
0.72578
0.724023
0.722177
0.720263
0.718436
0.716678
0.69402
0.703521
0.70921
0.715322
0.71933
0.722855
0.725448
0.727602
0.729294
0.730672
0.731802
0.732782
0.733597
0.73425
0.734786
0.735214
0.735531
0.735741
0.735865
0.735888
0.735832
0.735698
0.735471
0.735163
0.734774
0.734288
0.733692
0.732981
0.732151
0.73119
0.730099
0.728874
0.727507
0.726016
0.724396
0.722659
0.720826
0.718927
0.717113
0.715363
0.690253
0.700305
0.706316
0.712772
0.717001
0.720685
0.723387
0.725605
0.727346
0.728767
0.729931
0.730936
0.731773
0.732454
0.733016
0.733463
0.733805
0.734038
0.734185
0.734234
0.734202
0.73409
0.733886
0.733601
0.733228
0.73276
0.732183
0.731487
0.730674
0.729732
0.728657
0.727449
0.726103
0.724629
0.723029
0.721314
0.719495
0.717612
0.715812
0.714067
0.686368
0.697026
0.703368
0.710191
0.71465
0.7185
0.721315
0.723602
0.725393
0.726857
0.728055
0.729085
0.729947
0.730655
0.731242
0.731711
0.732076
0.732333
0.732502
0.732579
0.73257
0.732482
0.732301
0.732039
0.731684
0.731234
0.730676
0.729999
0.729204
0.72828
0.727224
0.726036
0.724712
0.723258
0.721678
0.719987
0.718183
0.716315
0.714531
0.712792
0.682372
0.693688
0.700371
0.707581
0.712278
0.7163
0.719231
0.721592
0.723435
0.724941
0.726175
0.72723
0.728117
0.728852
0.729465
0.729955
0.730344
0.730625
0.730819
0.730922
0.730938
0.730874
0.730716
0.730478
0.730142
0.729711
0.729173
0.728515
0.727738
0.726836
0.725801
0.724633
0.723333
0.721901
0.720343
0.718676
0.716891
0.715039
0.713269
0.711537
0.678274
0.690295
0.697328
0.704941
0.709884
0.714085
0.717137
0.719574
0.721472
0.723021
0.72429
0.725372
0.726286
0.727046
0.727684
0.728197
0.72861
0.728917
0.729134
0.729265
0.729305
0.729266
0.729132
0.728915
0.728602
0.728189
0.727672
0.727035
0.726278
0.725398
0.724386
0.72324
0.721967
0.72056
0.719023
0.717381
0.715616
0.713781
0.712027
0.710301
0.674085
0.686853
0.694242
0.702272
0.707471
0.711855
0.715032
0.717551
0.719505
0.721096
0.722401
0.723511
0.724451
0.725238
0.725899
0.726437
0.726874
0.727207
0.727449
0.727607
0.727673
0.727658
0.727548
0.727353
0.727063
0.726669
0.726174
0.725559
0.724823
0.723966
0.72298
0.721858
0.720611
0.719231
0.717719
0.716102
0.71436
0.712541
0.710805
0.709085
0.669819
0.683368
0.691119
0.699577
0.705038
0.709612
0.712916
0.715521
0.717533
0.719169
0.720509
0.721649
0.722614
0.723427
0.724113
0.724676
0.725137
0.725497
0.725763
0.725948
0.726039
0.726049
0.725965
0.72579
0.725524
0.725151
0.724677
0.724086
0.723373
0.72254
0.721582
0.720487
0.719268
0.717916
0.716429
0.714838
0.713122
0.71132
0.709601
0.707889
0.665494
0.679849
0.687964
0.696855
0.702588
0.707355
0.710792
0.713484
0.715558
0.717239
0.718615
0.719784
0.720775
0.721615
0.722325
0.722913
0.723399
0.723784
0.724077
0.724288
0.724406
0.72444
0.724381
0.724227
0.723985
0.723634
0.723183
0.722617
0.721928
0.721121
0.720193
0.719126
0.717935
0.716613
0.715155
0.713589
0.711901
0.710116
0.708417
0.706714
0.661128
0.676303
0.684783
0.694111
0.70012
0.705084
0.708658
0.711443
0.71358
0.715307
0.71672
0.717919
0.718934
0.719801
0.720536
0.721149
0.721661
0.722072
0.72239
0.722627
0.722773
0.722831
0.722798
0.722665
0.722447
0.722119
0.721691
0.721151
0.720488
0.71971
0.718811
0.717773
0.716613
0.715323
0.713895
0.712354
0.710696
0.708932
0.707252
0.705557
0.656744
0.672741
0.681584
0.691345
0.697637
0.7028
0.706516
0.709396
0.7116
0.713374
0.714824
0.716052
0.717093
0.717987
0.718747
0.719386
0.719922
0.720359
0.720704
0.720967
0.721141
0.721222
0.721215
0.721104
0.720909
0.720606
0.720202
0.719688
0.719052
0.718304
0.717436
0.716429
0.7153
0.714044
0.712648
0.711134
0.709507
0.707766
0.706105
0.70442
0.652365
0.669172
0.678375
0.688561
0.69514
0.700504
0.704366
0.707344
0.709618
0.71144
0.712927
0.714185
0.715252
0.716173
0.716958
0.717623
0.718184
0.718647
0.719019
0.719308
0.719509
0.719614
0.719632
0.719544
0.719372
0.719095
0.718714
0.718229
0.717622
0.716905
0.716069
0.715094
0.713997
0.712776
0.711414
0.709928
0.708335
0.706619
0.704977
0.703301
0.648016
0.665609
0.675162
0.685761
0.69263
0.698197
0.702209
0.705288
0.707634
0.709505
0.711029
0.712318
0.713412
0.71436
0.71517
0.715862
0.716449
0.716937
0.717336
0.717651
0.717878
0.718007
0.718049
0.717987
0.717837
0.717585
0.71723
0.716774
0.716196
0.715511
0.714707
0.713766
0.712704
0.711517
0.710193
0.708738
0.707179
0.70549
0.703867
0.702201
0.643723
0.662063
0.671956
0.682951
0.690109
0.695879
0.700044
0.703227
0.705647
0.707569
0.709131
0.710451
0.711572
0.712548
0.713385
0.714102
0.714715
0.715228
0.715655
0.715994
0.716249
0.716401
0.716467
0.716431
0.716303
0.716078
0.715748
0.715322
0.714775
0.714122
0.713351
0.712445
0.711418
0.710267
0.708983
0.707563
0.706038
0.704379
0.702776
0.701121
0.639512
0.658546
0.668765
0.680133
0.687579
0.693551
0.697872
0.701162
0.703659
0.705633
0.707235
0.708585
0.709736
0.71074
0.711602
0.712344
0.712983
0.713522
0.713975
0.71434
0.714619
0.714796
0.714885
0.714875
0.71477
0.714572
0.714268
0.713873
0.713359
0.712737
0.712
0.711131
0.710141
0.709027
0.707785
0.706402
0.704914
0.703287
0.701706
0.70006
0.635409
0.655071
0.665598
0.677312
0.685041
0.691216
0.695694
0.699095
0.701669
0.703697
0.70534
0.706724
0.707904
0.708935
0.709823
0.710589
0.711253
0.711818
0.712298
0.712686
0.71299
0.713193
0.713304
0.71332
0.713238
0.713067
0.712792
0.712427
0.711946
0.711357
0.710654
0.709823
0.70887
0.707797
0.706597
0.705257
0.703805
0.702212
0.700657
0.69902
0.631438
0.651649
0.662462
0.674492
0.682497
0.688874
0.693511
0.697024
0.699679
0.701763
0.703448
0.704867
0.706077
0.707135
0.708047
0.708837
0.709526
0.710115
0.710622
0.711035
0.711362
0.71159
0.711723
0.711764
0.711707
0.711563
0.711318
0.710983
0.710535
0.70998
0.709311
0.708519
0.707605
0.706574
0.705421
0.704125
0.702712
0.701156
0.699628
0.698001
0.627619
0.648293
0.659365
0.671677
0.679951
0.686527
0.691324
0.694952
0.697689
0.699831
0.701562
0.703016
0.704256
0.705341
0.706276
0.70709
0.707803
0.708416
0.708948
0.709385
0.709735
0.709989
0.710143
0.710209
0.710177
0.710061
0.709846
0.70954
0.709127
0.708606
0.707971
0.707219
0.706346
0.70536
0.704253
0.703005
0.701634
0.700118
0.698621
0.697002
0.623972
0.645011
0.656316
0.668872
0.677404
0.684176
0.689133
0.692877
0.6957
0.697903
0.699681
0.701171
0.702442
0.703552
0.70451
0.705347
0.706084
0.706719
0.707276
0.707738
0.70811
0.708389
0.708564
0.708654
0.708649
0.70856
0.708375
0.7081
0.70772
0.707234
0.706633
0.705922
0.705091
0.704152
0.703093
0.701896
0.700571
0.699098
0.697633
0.696024
0.620512
0.641814
0.65332
0.666081
0.67486
0.681823
0.68694
0.690801
0.693712
0.695978
0.697806
0.699333
0.700633
0.701769
0.702749
0.70361
0.704369
0.705027
0.705607
0.706093
0.706486
0.706789
0.706987
0.7071
0.707122
0.70706
0.706906
0.70666
0.706314
0.705863
0.705296
0.704626
0.70384
0.702949
0.70194
0.700797
0.699524
0.698096
0.696667
0.695069
0.617249
0.638709
0.650383
0.663308
0.67232
0.67947
0.684746
0.688724
0.691727
0.694057
0.695938
0.697501
0.698832
0.699992
0.700994
0.701878
0.702658
0.703338
0.703942
0.704451
0.704864
0.70519
0.705411
0.705547
0.705596
0.70556
0.705436
0.70522
0.704908
0.704491
0.703959
0.703332
0.702591
0.70175
0.700794
0.699708
0.698491
0.697112
0.695721
0.694137
0.614192
0.635702
0.647512
0.660557
0.669788
0.677118
0.682551
0.686649
0.689745
0.692144
0.694077
0.695677
0.697038
0.698223
0.699246
0.700152
0.700953
0.701654
0.702279
0.702811
0.703244
0.703593
0.703836
0.703994
0.704071
0.70406
0.703966
0.70378
0.7035
0.703117
0.702623
0.702038
0.701345
0.700556
0.699655
0.698629
0.697472
0.696147
0.694798
0.693229
0.611343
0.6328
0.64471
0.657833
0.667266
0.67477
0.680357
0.684577
0.687769
0.690238
0.692224
0.693863
0.695253
0.696461
0.697506
0.698433
0.699253
0.699976
0.700621
0.701174
0.701626
0.701997
0.702262
0.702443
0.702545
0.70256
0.702495
0.702339
0.702091
0.701742
0.701286
0.700744
0.7001
0.699364
0.698522
0.697559
0.696466
0.695201
0.693898
0.692346
0.608705
0.630005
0.64198
0.655139
0.664756
0.672427
0.678166
0.682509
0.6858
0.688343
0.690382
0.69206
0.693478
0.69471
0.695774
0.696721
0.697561
0.698304
0.698968
0.699541
0.700012
0.700402
0.70069
0.700892
0.701019
0.701059
0.701023
0.700896
0.700679
0.700365
0.699948
0.699451
0.698856
0.698175
0.697393
0.696497
0.695474
0.694275
0.693023
0.691491
0.606275
0.627321
0.639326
0.65248
0.662263
0.670091
0.675981
0.680447
0.68384
0.686457
0.688552
0.690269
0.691716
0.692969
0.694053
0.695017
0.695876
0.696639
0.69732
0.697913
0.698402
0.698811
0.69912
0.699343
0.699493
0.699558
0.699549
0.699451
0.699266
0.698985
0.698609
0.698156
0.697612
0.696987
0.696269
0.695442
0.694493
0.693367
0.692174
0.690666
0.604048
0.624749
0.636749
0.649858
0.659789
0.667765
0.673802
0.678393
0.681889
0.684583
0.686734
0.688491
0.689966
0.69124
0.692342
0.693323
0.694199
0.694981
0.695678
0.696288
0.696795
0.697221
0.697551
0.697794
0.697967
0.698058
0.698075
0.698004
0.697851
0.697604
0.69727
0.696861
0.696368
0.6958
0.695147
0.694394
0.693524
0.692478
0.691353
0.689874
0.602021
0.622289
0.634251
0.647278
0.657337
0.66545
0.671633
0.676349
0.679949
0.682722
0.68493
0.686726
0.688229
0.689523
0.690642
0.691639
0.692532
0.69333
0.694042
0.694669
0.695192
0.695635
0.695984
0.696247
0.696441
0.696557
0.696599
0.696555
0.696434
0.696221
0.695928
0.695563
0.695122
0.694612
0.694026
0.69335
0.692565
0.691608
0.690561
0.689118
0.600186
0.619939
0.631832
0.644742
0.65491
0.663152
0.669476
0.674318
0.678023
0.680874
0.683141
0.684976
0.686506
0.687819
0.688953
0.689966
0.690875
0.691688
0.692413
0.693056
0.693594
0.694051
0.694419
0.694701
0.694916
0.695055
0.695122
0.695104
0.695015
0.694835
0.694583
0.694263
0.693874
0.693423
0.692905
0.69231
0.691615
0.690756
0.6898
0.688403
0.598539
0.617696
0.629491
0.642255
0.652511
0.660874
0.667334
0.672302
0.676112
0.679044
0.681368
0.683241
0.684798
0.686128
0.687278
0.688305
0.689228
0.690054
0.690792
0.691447
0.692
0.692471
0.692856
0.693158
0.693392
0.693554
0.693644
0.693653
0.693594
0.693447
0.693236
0.69296
0.692624
0.69223
0.691783
0.69127
0.690672
0.689922
0.689072
0.687734
0.597075
0.615555
0.627226
0.63982
0.650145
0.658618
0.665211
0.670305
0.674219
0.677232
0.679614
0.681523
0.683105
0.684452
0.685616
0.686657
0.687592
0.68843
0.689179
0.689845
0.690411
0.690895
0.691296
0.691617
0.691869
0.692052
0.692165
0.6922
0.69217
0.692056
0.691884
0.691653
0.691369
0.691033
0.690657
0.69023
0.689734
0.689104
0.688379
0.687117
0.595788
0.613512
0.625035
0.63744
0.647814
0.656387
0.66311
0.668328
0.672347
0.67544
0.677879
0.679823
0.68143
0.682792
0.68397
0.685024
0.685968
0.686816
0.687574
0.688249
0.688826
0.689322
0.689738
0.690077
0.690345
0.690551
0.690685
0.690744
0.690743
0.690662
0.690528
0.690342
0.690109
0.689832
0.689526
0.689187
0.688799
0.688301
0.687722
0.686561
0.594676
0.611562
0.622919
0.635121
0.645525
0.654188
0.661036
0.666376
0.670499
0.673671
0.676164
0.678144
0.679773
0.681151
0.682341
0.683404
0.684356
0.685212
0.685977
0.686659
0.687247
0.687754
0.688183
0.688538
0.688822
0.689048
0.689202
0.689286
0.689311
0.689264
0.689167
0.689024
0.688843
0.688624
0.68839
0.688138
0.687865
0.68751
0.687102
0.686075
0.593737
0.609704
0.620882
0.632873
0.643289
0.652031
0.658999
0.664456
0.668681
0.67193
0.674474
0.676488
0.678139
0.67953
0.68073
0.681801
0.682757
0.683619
0.684389
0.685077
0.685673
0.68619
0.686631
0.687
0.687299
0.687544
0.687718
0.687824
0.687875
0.687861
0.687802
0.687701
0.68757
0.687408
0.687245
0.687082
0.686925
0.686728
0.686519
0.685671
0.592972
0.607937
0.618929
0.630707
0.641117
0.649927
0.657007
0.662578
0.666898
0.670222
0.672814
0.67486
0.67653
0.677933
0.67914
0.680215
0.681174
0.682038
0.682811
0.683502
0.684105
0.68463
0.68508
0.685463
0.685776
0.686037
0.68623
0.686358
0.686435
0.686453
0.68643
0.68637
0.686288
0.686184
0.686089
0.686014
0.685978
0.685949
0.685971
0.685365
0.592396
0.606229
0.617009
0.628555
0.638941
0.647811
0.655001
0.660688
0.665105
0.668504
0.671147
0.673228
0.674918
0.676333
0.677547
0.678623
0.679583
0.680448
0.681223
0.681915
0.682524
0.683056
0.683516
0.683911
0.684238
0.684515
0.684725
0.684877
0.684979
0.685029
0.685041
0.685022
0.684988
0.68494
0.684913
0.684925
0.68501
0.685162
0.68545
0.685177
0.591974
0.604477
0.615007
0.626302
0.636645
0.645576
0.652885
0.658697
0.66322
0.666703
0.669405
0.671527
0.673246
0.674678
0.675902
0.676983
0.677945
0.678812
0.679589
0.680285
0.680901
0.681441
0.681914
0.682322
0.682665
0.682958
0.683189
0.683364
0.683493
0.683575
0.683624
0.683646
0.683659
0.683667
0.683707
0.683804
0.684009
0.684352
0.684947
0.685132
0.591655
0.602906
0.613293
0.624393
0.634679
0.643621
0.650994
0.656883
0.661474
0.665011
0.667748
0.669892
0.671622
0.673059
0.674288
0.675368
0.676332
0.677199
0.677978
0.678676
0.679298
0.679846
0.680328
0.680747
0.681104
0.681411
0.68166
0.681857
0.682009
0.682121
0.682201
0.682261
0.682314
0.682374
0.682475
0.68265
0.682965
0.683494
0.684416
0.685216
0.588608
0.598443
0.608973
0.620068
0.630392
0.639368
0.646817
0.652807
0.657499
0.661093
0.663805
0.665861
0.66747
0.668792
0.669935
0.670955
0.671879
0.672719
0.673479
0.674163
0.674778
0.675323
0.675809
0.676235
0.67661
0.676934
0.677212
0.677448
0.677648
0.677819
0.677968
0.67811
0.678257
0.678435
0.678673
0.679027
0.679594
0.680569
0.682375
0.685266
0.57964
0.589328
0.599582
0.609866
0.619381
0.627811
0.634995
0.64092
0.645685
0.649445
0.652381
0.654689
0.65655
0.658106
0.659456
0.660659
0.661745
0.662733
0.663633
0.664452
0.665195
0.665867
0.666476
0.667024
0.667516
0.667956
0.668349
0.668699
0.669012
0.669296
0.66956
0.669817
0.670084
0.670388
0.670768
0.671291
0.672083
0.673434
0.675899
0.679787
0.569553
0.579289
0.589098
0.598698
0.607624
0.615675
0.622678
0.628577
0.633433
0.637372
0.640542
0.643109
0.645226
0.64702
0.648585
0.64998
0.651241
0.652391
0.653445
0.654409
0.655293