/*--------------------------------*- C++ -*----------------------------------*\
  =========                 |
  \\      /  F ield         | OpenFOAM: The Open Source CFD Toolbox
   \\    /   O peration     | Website:  https://openfoam.org
    \\  /    A nd           | Version:  7
     \\/     M anipulation  |
\*---------------------------------------------------------------------------*/
FoamFile
{
    version     2.0;
    format      ascii;
    class       surfaceScalarField;
    location    "4.4";
    object      phi;
}
// * * * * * * * * * * * * * * * * * * * * * * * * * * * * * * * * * * * * * //

dimensions      [0 3 -1 0 0 0 0];

internalField   nonuniform List<scalar> 
63520
(
-1.31265e-05
0.000225569
-0.000212442
-4.44333e-05
0.000700448
-0.000669141
-8.94721e-05
0.00119495
-0.00114991
-0.000144541
0.00168237
-0.0016273
-0.000206541
0.00214978
-0.00208778
-0.000272812
0.0025917
-0.00252543
-0.000341054
0.00300637
-0.00293813
-0.000409258
0.00339403
-0.00332582
-0.000475701
0.00375577
-0.00368933
-0.000538879
0.0040929
-0.00402972
-0.000597521
0.00440664
-0.004348
-0.000650566
0.0046978
-0.00464475
-0.000697113
0.00496678
-0.00492023
-0.0007364
0.00521368
-0.00517439
-0.000767812
0.00543837
-0.00540696
-0.000790846
0.00564058
-0.00561755
-0.000805081
0.00582002
-0.00580579
-0.000810178
0.00597647
-0.00597138
-0.000805874
0.00610982
-0.00611412
-0.000791957
0.0062201
-0.00623402
-0.000768261
0.00630757
-0.00633127
-0.000734667
0.00637266
-0.00640626
-0.000691089
0.00641601
-0.00645959
-0.000637472
0.00643845
-0.00649206
-0.000573781
0.00644094
-0.00650463
-0.000500003
0.00642462
-0.0064984
-0.000416145
0.00639071
-0.00647457
-0.000322237
0.00634056
-0.00643446
-0.000218343
0.00627556
-0.00637946
-0.000104559
0.00619718
-0.00631097
1.89713e-05
0.00610691
-0.00623044
0.000152043
0.00600627
-0.00613934
0.000294369
0.00589677
-0.0060391
0.000445559
0.00577994
-0.00593113
0.000605089
0.0056573
-0.00581683
0.000772284
0.00553032
-0.00569752
0.00094628
0.00540049
-0.00557448
0.001126
0.00526909
-0.00544881
0.00131012
0.00513906
-0.00532318
0.00501421
0.00149704
-0.00520113
-1.31281e-05
0.000238697
-4.43046e-05
0.000731624
-8.90884e-05
0.00123973
-0.000143864
0.00173715
-0.000205611
0.00221153
-0.000271743
0.00265783
-0.00034001
0.00307464
-0.000408416
0.00346243
-0.000475246
0.0038226
-0.00053903
0.00415669
-0.000598486
0.0044661
-0.000652522
0.00475183
-0.000700226
0.00501448
-0.00074084
0.00525429
-0.000773734
0.00547126
-0.000798383
0.00566523
-0.000814358
0.005836
-0.000821303
0.00598342
-0.000818925
0.00610744
-0.000806993
0.00620817
-0.000785317
0.00628589
-0.000753747
0.00634109
-0.00071216
0.00637443
-0.000660457
0.00638674
-0.000598554
0.00637904
-0.000526386
0.00635245
-0.000443913
0.00630824
-0.000351115
0.00624776
-0.000248001
0.00617245
-0.000134617
0.0060838
-1.10562e-05
0.00598335
0.000122514
0.0058727
0.000265839
0.00575345
0.00041855
0.00562723
0.000580132
0.00549571
0.000749891
0.00536056
0.000926927
0.00522345
0.00111008
0.00508593
0.00129794
0.00495121
0.00482341
0.00148874
-1.29875e-05
0.000251684
-4.37208e-05
0.000762357
-8.78381e-05
0.00128385
-0.000141825
0.00179113
-0.000202758
0.00227246
-0.000268124
0.0027232
-0.000335742
0.00314226
-0.000403676
0.00353036
-0.00047022
0.00388915
-0.000533908
0.00422037
-0.000593451
0.00452564
-0.000647764
0.00480614
-0.000695927
0.00506264
-0.000737162
0.00529553
-0.000770827
0.00550493
-0.000796391
0.0056908
-0.000813404
0.00585301
-0.000821492
0.00599151
-0.000820354
0.0061063
-0.000809731
0.00619755
-0.000789401
0.00626556
-0.000759186
0.00631088
-0.000718933
0.00633417
-0.000668497
0.00633631
-0.000607751
0.00631829
-0.000536588
0.00628129
-0.000454917
0.00622657
-0.000362666
0.00615551
-0.00025979
0.00606957
-0.00014629
0.0059703
-2.2216e-05
0.00585928
0.000112313
0.00573817
0.000257079
0.00560868
0.000411736
0.00547257
0.000575784
0.00533167
0.000748523
0.00518783
0.000929012
0.00504296
0.00111605
0.0048989
0.00130811
0.00475915
0.00462821
0.0015033
-1.26925e-05
0.000264377
-4.27274e-05
0.000792392
-8.58123e-05
0.00132694
-0.000138539
0.00184386
-0.000198107
0.00233203
-0.000262108
0.0027872
-0.000328432
0.00320858
-0.000395192
0.00359712
-0.000460714
0.00395467
-0.000523554
0.00428321
-0.000582436
0.00458452
-0.000636255
0.00485996
-0.000684088
0.00511048
-0.000725158
0.0053366
-0.000758808
0.00553858
-0.000784487
0.00571648
-0.000801744
0.00587027
-0.000810191
0.00599995
-0.000809498
0.00610561
-0.000799388
0.00618744
-0.000779623
0.0062458
-0.000749995
0.00628125
-0.000710309
0.00629449
-0.000660386
0.00628639
-0.000600064
0.00625797
-0.000529189
0.00621041
-0.000447623
0.006145
-0.000355249
0.00606313
-0.000251982
0.0059663
-0.00013777
0.00585609
-1.26167e-05
0.00573413
0.000123399
0.00560215
0.000270096
0.00546198
0.000427164
0.00531551
0.000594122
0.00516471
0.000770278
0.00501167
0.000954682
0.00485856
0.00114608
0.0047075
0.00134284
0.00456238
0.00442811
0.00154294
-1.22875e-05
0.000276664
-4.13334e-05
0.000821438
-8.29804e-05
0.00136858
-0.000133964
0.00189484
-0.00019161
0.00238967
-0.000253619
0.00284921
-0.000317965
0.00327292
-0.000382838
0.003662
-0.000446606
0.00401844
-0.000507828
0.00434444
-0.000565246
0.00464194
-0.000617766
0.00491248
-0.000664455
0.00515716
-0.000704524
0.00537667
-0.000737313
0.00557137
-0.000762264
0.00574143
-0.000778906
0.00588691
-0.000786839
0.00600789
-0.000785721
0.00610449
-0.000775255
0.00617697
-0.000755182
0.00622573
-0.000725262
0.00625133
-0.000685273
0.0062545
-0.000635006
0.00623612
-0.000574261
0.00619722
-0.000502847
0.006139
-0.000420588
0.00606274
-0.000327327
0.00596987
-0.000222935
0.00586191
-0.00010732
0.00574047
1.95563e-05
0.00560725
0.000157655
0.00546406
0.000306834
0.0053128
0.000466822
0.00515552
0.000637173
0.00499436
0.000817218
0.00483163
0.001006
0.00466977
0.00120224
0.00451127
0.00140423
0.00436039
0.00422257
0.00160977
-1.17478e-05
0.000288412
-3.95404e-05
0.00084923
-7.9376e-05
0.00140842
-0.000128142
0.00194361
-0.000183314
0.00244484
-0.000242721
0.00290862
-0.000304427
0.00333463
-0.000366694
0.00372426
-0.000427943
0.00407968
-0.000486762
0.00440325
-0.000541904
0.00469708
-0.000592277
0.00496286
-0.000636953
0.00520184
-0.000675142
0.00541486
-0.00070617
0.0056024
-0.000729468
0.00576473
-0.000744559
0.005902
-0.000751033
0.00601436
-0.00074853
0.00610199
-0.000736738
0.00616518
-0.000715378
0.00620437
-0.00068419
0.00622014
-0.000642923
0.00621323
-0.00059134
0.00618454
-0.000529214
0.0061351
-0.000456325
0.00606611
-0.000372464
0.00597888
-0.000277442
0.00587485
-0.000171093
0.00575556
-5.32922e-05
0.00562267
7.60331e-05
0.00547792
0.000216882
0.00532321
0.000369158
0.00516053
0.000532626
0.00499205
0.000706881
0.0048201
0.000891291
0.00464722
0.00108493
0.00447614
0.00128648
0.00430971
0.00149419
0.00415267
0.00401104
0.00170572
-1.11028e-05
0.000299515
-3.73806e-05
0.000875508
-7.50239e-05
0.00144606
-0.000121108
0.00198969
-0.000173263
0.002497
-0.000229452
0.0029648
-0.000287844
0.00339302
-0.000346781
0.0037832
-0.000404742
0.00413764
-0.000460344
0.00445886
-0.00051236
0.0047491
-0.000559714
0.00501021
-0.000601477
0.0052436
-0.000636852
0.00545023
-0.00066516
0.00563071
-0.00068583
0.00578539
-0.000698373
0.00591454
-0.000702366
0.00601835
-0.000697439
0.00609706
-0.000683268
0.00615101
-0.000659559
0.00618066
-0.000626029
0.00618661
-0.000582408
0.00616961
-0.000528441
0.00613057
-0.000463878
0.00607053
-0.000388474
0.00599071
-0.000301999
0.00589241
-0.000204241
0.00577709
-9.50106e-05
0.00564633
2.58464e-05
0.00550181
0.00015843
0.00534534
0.000302771
0.00517887
0.000458809
0.00500449
0.000626356
0.0048245
0.000805058
0.0046414
0.000994328
0.00445795
0.00119328
0.00427719
0.00140061
0.00410238
0.00161453
0.00393875
0.00379303
0.00183254
-1.03586e-05
0.000309873
-3.4874e-05
0.000900023
-6.99669e-05
0.00148115
-0.000112915
0.00203264
-0.000161516
0.0025456
-0.000213881
0.00301717
-0.000268289
0.00344743
-0.000323167
0.00383808
-0.000377055
0.00419153
-0.000428614
0.00451042
-0.000476639
0.00479712
-0.000520068
0.00505364
-0.000557977
0.00528151
-0.000589567
0.00548182
-0.000614156
0.00565529
-0.000631165
0.0058024
-0.000640099
0.00592348
-0.000640525
0.00601878
-0.000632068
0.0060886
-0.000614392
0.00613333
-0.000587187
0.00615345
-0.000550157
0.00614958
-0.00050302
0.00612248
-0.000445508
0.00607306
-0.000377354
0.00600238
-0.000298302
0.00591165
-0.00020811
0.00580221
-0.00010655
0.00567553
6.5811e-06
0.0055332
0.000131451
0.00537694
0.000268179
0.00520861
0.000416823
0.00503022
0.000577353
0.00484396
0.000749627
0.00465223
0.000933341
0.00445768
0.00112797
0.00426331
0.00133269
0.00407247
0.00154625
0.00388883
0.00176682
0.00371818
0.00356806
0.00199179
-9.52569e-06
0.000319399
-3.20505e-05
0.000922548
-6.42529e-05
0.00151336
-0.000103631
0.00207202
-0.000148163
0.00259013
-0.000196109
0.00306511
-0.000245871
0.00349719
-0.000295962
0.00388817
-0.000344994
0.00424056
-0.000391673
0.0045571
-0.000434823
0.00484027
-0.0004734
0.00509222
-0.000506489
0.0053146
-0.000533288
0.00550862
-0.000553116
0.00567512
-0.000565388
0.00581468
-0.000569603
0.00592769
-0.000565323
0.0060145
-0.000552166
0.00607545
-0.000529789
0.00611095
-0.000497871
0.00612153
-0.000456109
0.00610782
-0.000404217
0.00607058
-0.000341918
0.00601076
-0.00026894
0.0059294
-0.000185024
0.00582774
-8.99252e-05
0.00570711
1.65864e-05
0.00556902
0.000134716
0.00541507
0.000264637
0.00524702
0.000406476
0.00506677
0.000560302
0.0048764
0.000726113
0.00467815
0.000903807
0.00447454
0.00109313
0.00426836
0.00129365
0.0040628
0.00150459
0.00386153
0.00172477
0.00366865
0.0019524
0.00349054
0.00333569
0.00218476
-8.61436e-06
0.000328013
-2.89417e-05
0.000942875
-5.79412e-05
0.00154236
-9.33439e-05
0.00210742
-0.000133315
0.0026301
-0.00017627
0.00310807
-0.000220737
0.00354166
-0.000265326
0.00393276
-0.000308721
0.00428396
-0.00034968
0.00459805
-0.000387064
0.00487766
-0.000419851
0.005125
-0.000447131
0.00534188
-0.00046811
0.0055296
-0.000482104
0.00568912
-0.000488527
0.0058211
-0.000486872
0.00592604
-0.000476701
0.00600433
-0.000457627
0.00605637
-0.000429301
0.00608263
-0.000391397
0.00608363
-0.000343612
0.00606003
-0.000285662
0.00601263
-0.000217269
0.00594236
-0.000138167
0.0058503
-4.81015e-05
0.00573767
5.31631e-05
0.00560585
0.000165848
0.00545634
0.000290149
0.00529077
0.000426229
0.00511094
0.000574209
0.00491879
0.000734164
0.00471644
0.000906105
0.00450621
0.00108996
0.00429068
0.00128553
0.00407278
0.00149245
0.00385589
0.00171005
0.00364393
0.00193724
0.00344146
0.00217228
0.0032555
0.00309557
0.00241241
-7.63424e-06
0.000335647
-2.55824e-05
0.000960823
-5.10997e-05
0.00156787
-8.21548e-05
0.00213848
-0.000117106
0.00266505
-0.000154527
0.00314549
-0.000193077
0.00358021
-0.000231466
0.00397115
-0.000268456
0.00432095
-0.000302864
0.00463246
-0.000333593
0.00490838
-0.000359643
0.00515105
-0.000380118
0.00536235
-0.00039423
0.00554371
-0.0004013
0.00569619
-0.000400737
0.00582054
-0.000392036
0.00591734
-0.000374757
0.00598705
-0.000348512
0.00603013
-0.00031295
0.00604707
-0.000267748
0.00603843
-0.000212608
0.00600489
-0.000147252
0.00594728
-7.14129e-05
0.00586652
1.51635e-05
0.00576372
0.000112713
0.00564012
0.000221456
0.00549711
0.00034159
0.0053362
0.000473288
0.00515907
0.000616692
0.00496754
0.000771905
0.00476358
0.000938989
0.00454936
0.00111796
0.00432724
0.00130876
0.00409988
0.00151124
0.0038703
0.00172511
0.00364202
0.00194981
0.00341923
0.00218435
0.00320692
0.00242711
0.00301274
0.00284738
0.0026753
-6.59684e-06
0.000342244
-2.20131e-05
0.000976239
-4.38044e-05
0.00158966
-7.01793e-05
0.00216485
-9.96925e-05
0.00269457
-0.000131074
0.00317687
-0.000163115
0.00361225
-0.000194634
0.00400266
-0.000224475
0.00435079
-0.000251519
0.0046595
-0.000274713
0.00493158
-0.000293087
0.00516943
-0.000305762
0.00537503
-0.000311961
0.00554991
-0.000311007
0.00569523
-0.000302314
0.00581185
-0.000285377
0.0059004
-0.000259758
0.00596143
-0.000225071
0.00599544
-0.000180967
0.00600296
-0.000127133
0.00598459
-6.32832e-05
0.00594104
1.08489e-05
0.00587315
9.55128e-05
0.00578186
0.000190939
0.0056683
0.000297338
0.00553372
0.000414899
0.00537955
0.00054379
0.00520731
0.000684147
0.00501871
0.000836077
0.00481561
0.000999651
0.00460001
0.00117491
0.0043741
0.00136184
0.0041403
0.00156042
0.00390131
0.00177051
0.00366021
0.00199189
0.00342064
0.00222411
0.00318702
0.00246632
0.00296471
0.00271704
0.00276202
0.0025909
0.00297352
-5.51534e-06
0.000347759
-1.82762e-05
0.000989
-3.61387e-05
0.00160753
-5.75475e-05
0.00218626
-8.12494e-05
0.00271827
-0.000106129
0.00320175
-0.000131115
0.00363723
-0.000155133
0.00402668
-0.000177113
0.00437277
-0.000196006
0.0046784
-0.00021081
0.00494638
-0.000220588
0.00517921
-0.000224482
0.00537892
-0.000221729
0.00554716
-0.000211662
0.00568516
-0.000193699
0.00579388
-0.00016734
0.00587404
-0.000132151
0.00592624
-8.77512e-05
0.00595104
-3.38023e-05
0.00594901
2.99951e-05
0.0059208
0.00010391
0.00586713
0.00018819
0.00578887
0.000283056
0.00568699
0.000388708
0.00556265
0.000505321
0.00541711
0.000633046
0.00525182
0.000772006
0.00506835
0.000922291
0.00486843
0.00108396
0.00465394
0.00125704
0.00442692
0.00144153
0.00418961
0.00163741
0.00394443
0.0018446
0.00369411
0.00206302
0.00344179
0.00229248
0.00319118
0.00253265
0.00294685
0.00278282
0.00271453
0.00304168
0.00250316
0.00232598
0.00330659
-4.40351e-06
0.000352163
-1.44187e-05
0.000999015
-2.81936e-05
0.0016213
-4.44002e-05
0.00220247
-6.19704e-05
0.00273584
-7.99413e-05
0.00321972
-9.73738e-05
0.00365467
-0.000113305
0.00404261
-0.000126758
0.00438622
-0.000136754
0.00468839
-0.000142348
0.00495198
-0.00014264
0.0051795
-0.000136801
0.00537308
-0.000124086
0.00553444
-0.000103839
0.00566492
-7.54897e-05
0.00576553
-3.85439e-05
0.0058371
7.42306e-06
0.00588027
6.27825e-05
0.00589568
0.000127857
0.00588394
0.000202926
0.00584573
0.000288237
0.00578182
0.000384008
0.0056931
0.000490427
0.00558057
0.000607654
0.00544542
0.00073582
0.00528895
0.000875026
0.00511261
0.00102534
0.00491803
0.00118681
0.00470697
0.00135941
0.00448133
0.00154314
0.0042432
0.00173792
0.00399483
0.00194369
0.00373866
0.00216036
0.00347744
0.00238783
0.00321432
0.00262596
0.00295305
0.00287449
0.00269832
0.00313288
0.00245614
0.00340002
0.00223603
0.00205258
0.00367342
-3.27636e-06
0.000355439
-1.04896e-05
0.00100623
-2.00657e-05
0.00163088
-3.08888e-05
0.00221329
-4.20652e-05
0.00274702
-5.27789e-05
0.00323044
-6.22206e-05
0.00366411
-6.95394e-05
0.00404993
-7.38507e-05
0.00439053
-7.42569e-05
0.0046888
-6.98691e-05
0.00494759
-5.98323e-05
0.00516946
-4.33506e-05
0.0053566
-1.9704e-05
0.0055108
1.17464e-05
0.00563347
5.15586e-05
0.00572572
0.000100214
0.00578844
0.000158125
0.00582236
0.000225647
0.00582816
0.00030308
0.00580651
0.000390681
0.00575813
0.000488666
0.00568383
0.00059722
0.00558454
0.000716486
0.00546131
0.000846579
0.00531533
0.000987577
0.00514795
0.00113953
0.00496067
0.00130243
0.00475513
0.00147626
0.00453313
0.00166095
0.00429664
0.00185641
0.00404775
0.00206251
0.00378873
0.00227912
0.00352205
0.0025061
0.00325046
0.00274334
0.00297708
0.0029907
0.00270569
0.00324801
0.00244101
0.00351486
0.00218929
0.00379035
0.00196054
0.00177069
0.00407224
-2.14962e-06
0.000357589
-6.54038e-06
0.00101062
-1.18553e-05
0.00163619
-1.71716e-05
0.00221861
-2.1756e-05
0.0027516
-2.4931e-05
0.00323361
-2.6012e-05
0.00366519
-2.42586e-05
0.00404818
-1.88828e-05
0.00438516
-9.06792e-06
0.00467899
6.01133e-06
0.00493251
2.71593e-05
0.00514831
5.51324e-05
0.00532863
9.06209e-05
0.00547531
0.000134241
0.00558985
0.000186532
0.00567343
0.000247959
0.00572701
0.000318916
0.00575141
0.000399735
0.00574734
0.000490691
0.00571555
0.000592008
0.00565681
0.000703869
0.00557197
0.000826413
0.005462
0.000959737
0.00532798
0.0011039
0.00517116
0.00125892
0.00499293
0.00142478
0.00479481
0.00160142
0.00457849
0.00178873
0.00434582
0.00198657
0.0040988
0.00219477
0.00383955
0.00241313
0.00357036
0.00264146
0.00329373
0.00287955
0.00301237
0.00312723
0.0027294
0.00338437
0.00244854
0.00365085
0.00217454
0.00392638
0.00191376
0.00421027
0.00167664
0.0014804
0.00450056
-1.03954e-06
0.000358628
-2.62342e-06
0.0010122
-3.66525e-06
0.00163723
-3.41217e-06
0.00221835
-1.27421e-06
0.00274946
3.29803e-06
0.00322904
1.08724e-05
0.00365761
2.20807e-05
0.00403697
3.76134e-05
0.00436962
5.82037e-05
0.0046584
8.46083e-05
0.0049061
0.000117575
0.00511535
0.000157813
0.00528839
0.000205979
0.00542714
0.000262658
0.00553317
0.000328366
0.00560772
0.000403544
0.00565184
0.000488562
0.00566639
0.000583724
0.00565218
0.00068927
0.00561
0.00080539
0.00554069
0.000932223
0.00544514
0.00106986
0.00532436
0.00121834
0.0051795
0.00137766
0.00501184
0.00154777
0.00482281
0.00172859
0.00461398
0.00191998
0.0043871
0.00212176
0.00414405
0.00233369
0.00388686
0.00255554
0.0036177
0.00278703
0.00333888
0.00302786
0.00305289
0.00327777
0.00276246
0.00353652
0.00247065
0.00380395
0.00218111
0.00407995
0.00189854
0.00436435
0.00162936
0.00465667
0.00138433
0.00118184
0.00495522
3.89886e-08
0.000358589
1.209e-06
0.00101103
4.40125e-06
0.00163404
1.02238e-05
0.00221253
1.91431e-05
0.00274054
3.15942e-05
0.00321659
4.8037e-05
0.00364117
6.89977e-05
0.00401601
9.50705e-05
0.00434355
0.000126903
0.00462656
0.000165178
0.00486783
0.000210581
0.00506994
0.000263769
0.0052352
0.000325353
0.00536556
0.000395886
0.00546264
0.00047585
0.00552776
0.000565657
0.00556203
0.000665645
0.0055664
0.000776083
0.00554174
0.000897172
0.00548891
0.00102906
0.0054088
0.00117183
0.00530237
0.00132552
0.00517067
0.00149012
0.00501491
0.00166554
0.00483642
0.00185168
0.00463667
0.00204837
0.0044173
0.00225538
0.00418009
0.00247246
0.00392697
0.0026993
0.00366002
0.00293557
0.00338143
0.00318089
0.00309356
0.0034349
0.00279889
0.00369724
0.00250012
0.0039676
0.00220029
0.00424576
0.00190295
0.00453161
0.00161269
0.00482503
0.00133593
0.00512574
0.00108362
0.000875201
0.00543238
1.06854e-06
0.000357521
4.90554e-06
0.00100719
1.22426e-05
0.0016267
2.35718e-05
0.0022012
3.92585e-05
0.00272486
5.96395e-05
0.00319621
8.50765e-05
0.00361573
0.000115996
0.00398509
0.000152897
0.00430665
0.000196341
0.00458312
0.000246931
0.00481724
0.000305284
0.00501159
0.000371999
0.00516849
0.000447636
0.00528992
0.000532706
0.00537757
0.00062765
0.00543281
0.000732843
0.00545684
0.000848585
0.00545066
0.0009751
0.00541523
0.00111255
0.00535147
0.00126102
0.00526033
0.00142055
0.00514283
0.00159111
0.00500011
0.00177262
0.0048334
0.00196493
0.00464411
0.00216785
0.00443375
0.00238114
0.00420401
0.00260448
0.00395674
0.00283755
0.00369391
0.00307993
0.00341763
0.00333122
0.00313015
0.00359095
0.00283382
0.00385867
0.00253117
0.00413392
0.00222487
0.00441632
0.00191789
0.00470557
0.0016137
0.00500151
0.00131675
0.00530408
0.00103336
0.00561314
0.000774562
0.0005607
0.00592764
2.03542e-06
0.000355485
8.41744e-06
0.00100081
1.97609e-05
0.00161536
3.64719e-05
0.00218449
5.88394e-05
0.00270249
8.71189e-05
0.00316793
0.000121586
0.00358127
0.000162573
0.0039441
0.000210488
0.00425873
0.000265804
0.0045278
0.000329043
0.004754
0.000400746
0.00493989
0.000481447
0.00508779
0.000571649
0.00519972
0.000671811
0.00527741
0.000782328
0.0053223
0.000903528
0.00533563
0.00103566
0.00531852
0.00117891
0.00527198
0.00133337
0.005197
0.00149909
0.00509461
0.00167604
0.00496589
0.00186411
0.00481204
0.00206315
0.00463436
0.00227296
0.0044343
0.00249324
0.00421346
0.00272368
0.00397358
0.00296388
0.00371654
0.00321342
0.00344437
0.00347182
0.00315923
0.00373856
0.0028634
0.00401311
0.00255927
0.00429491
0.00224937
0.00458342
0.00193636
0.00487815
0.00162316
0.00517873
0.00131311
0.00548495
0.00101053
0.00579673
0.000721581
0.00611405
0.000457243
0.000238595
0.00643615
2.92594e-06
0.000352559
1.16996e-05
0.000992038
2.68646e-05
0.0016002
4.87729e-05
0.00216258
7.76629e-05
0.0026736
0.000113728
0.00313186
0.000157168
0.00353783
0.000208233
0.00389304
0.00026724
0.00419973
0.000334575
0.00446047
0.000410676
0.0046779
0.000496004
0.00485456
0.000591021
0.00499277
0.000696166
0.00509458
0.000811837
0.00516173
0.000938375
0.00519576
0.00107605
0.00519796
0.00122506
0.00516951
0.00138554
0.00511151
0.00155751
0.00502503
0.00174096
0.00491116
0.00193579
0.00477106
0.00214183
0.00460599
0.00235886
0.00441733
0.00258657
0.00420659
0.00282461
0.00397542
0.00307256
0.00372562
0.00332996
0.00345914
0.00359629
0.00317804
0.00387099
0.00288454
0.00415345
0.00258094
0.00444305
0.00226968
0.00473914
0.00195328
0.00504109
0.00163441
0.00534833
0.00131592
0.00566038
0.00100107
0.00597694
0.000693975
0.00629791
0.000400604
0.00662335
0.000131801
-9.08193e-05
0.00695277
3.72806e-06
0.000348831
1.47117e-05
0.000981054
3.34706e-05
0.00158144
6.03358e-05
0.00213572
9.55222e-05
0.00263841
0.000139179
0.00308821
0.000191446
0.00348556
0.000252497
0.00383199
0.000322564
0.00412966
0.000401949
0.00438108
0.000491
0.00458885
0.000590096
0.00475546
0.000699622
0.00488325
0.000819944
0.00497425
0.000951393
0.00503029
0.00109425
0.00505291
0.00124871
0.00504349
0.00141492
0.0050033
0.00159294
0.00493349
0.00178274
0.00483523
0.00198423
0.00470967
0.00219725
0.00455805
0.00242154
0.0043817
0.0026568
0.00418207
0.00290265
0.00396074
0.00315865
0.00371942
0.00342431
0.00345997
0.00369906
0.00318438
0.00398231
0.00289479
0.00427342
0.00259343
0.00457168
0.00228267
0.0048764
0.00196496
0.00518684
0.00164284
0.00550228
0.00131897
0.00582204
0.000996161
0.00614554
0.000677562
0.00647241
0.00036711
0.00680248
7.05301e-05
0.00713585
-0.000201563
-0.000427199
0.00747223
4.43159e-06
0.000344399
1.74194e-05
0.000968066
3.95063e-05
0.00155935
7.1038e-05
0.00210418
0.000112232
0.00259722
0.000163213
0.00303722
0.000224073
0.0034247
0.000294919
0.00376114
0.000375907
0.00404867
0.000467252
0.00428974
0.000569216
0.00448688
0.00068209
0.00464259
0.000806176
0.00475916
0.000941764
0.00483867
0.00108911
0.00488294
0.00124841
0.0048936
0.00141981
0.00487209
0.00160337
0.00481973
0.00179909
0.00473778
0.00200687
0.00462745
0.00222653
0.00449
0.00245785
0.00432673
0.00270048
0.00413906
0.00295405
0.0039285
0.0032181
0.0036967
0.0034921
0.00344542
0.00377547
0.0031766
0.00406757
0.00289228
0.00436771
0.00259464
0.00467518
0.00228597
0.00498919
0.00196866
0.00530894
0.0016452
0.00563363
0.00131816
0.00596243
0.000990166
0.00629459
0.000664008
0.00662941
0.000342737
0.00696642
3.0105e-05
0.00730538
-0.000268431
0.00764638
-0.000542562
-0.000770136
0.00798931
5.02857e-06
0.00033937
1.97947e-05
0.0009533
4.49123e-05
0.00153423
8.07768e-05
0.00206832
0.000127634
0.00255036
0.000185603
0.00297926
0.00025474
0.00335556
0.000335099
0.00368078
0.000426763
0.00395701
0.000529866
0.00418664
0.00064458
0.00437217
0.00077111
0.00451606
0.00090967
0.0046206
0.00106046
0.00468787
0.00122366
0.00471974
0.0013994
0.00471787
0.00158772
0.00468377
0.00178863
0.00461883
0.00200203
0.00452438
0.00222776
0.00440172
0.00246556
0.00425219
0.00271513
0.00407717
0.00297605
0.00387814
0.00324784
0.0036567
0.00352998
0.00341456
0.00382186
0.00315355
0.0041228
0.00287566
0.00443209
0.00258299
0.00474896
0.00227777
0.00507259
0.00196234
0.00540213
0.00163912
0.0057367
0.00131064
0.0060754
0.000979464
0.00641731
0.000648248
0.00676159
0.000319732
0.00710745
-3.11926e-06
0.00745429
-0.000316736
0.0078018
-0.000615943
0.00815003
-0.000890795
-0.00111913
0.00849903
5.51357e-06
0.000333856
2.18174e-05
0.000936996
4.9644e-05
0.00150641
8.94739e-05
0.00202849
0.000141605
0.00249823
0.000206165
0.0029147
0.000283194
0.00327853
0.000372699
0.00359128
0.000474699
0.00385501
0.000589248
0.00407209
0.000716435
0.00424498
0.000856372
0.00437612
0.00100918
0.00446779
0.00117499
0.00452207
0.00135387
0.00454086
0.00154586
0.00452588
0.00175095
0.00447868
0.00196903
0.00440074
0.00219996
0.00429346
0.00244346
0.00415822
0.00269923
0.00399643
0.00296684
0.00380955
0.00324583
0.00359915
0.00353564
0.0033669
0.00383563
0.00311456
0.00414513
0.00284405
0.00446339
0.00255741
0.00478959
0.00225679
0.00512289
0.00194447
0.00546238
0.00162284
0.00580713
0.00129437
0.00615616
0.000961602
0.00650849
0.000627134
0.00686313
0.000293611
0.00721911
-3.62516e-05
0.00757557
-0.000359572
0.00793178
-0.000672954
0.00828736
-0.000971517
0.00864229
-0.00124573
-0.00147358
0.00899674
5.88384e-06
0.000327972
2.34759e-05
0.000919403
5.36744e-05
0.00147621
9.70779e-05
0.00198509
0.000154056
0.00244125
0.000224767
0.00284398
0.000309242
0.00319406
0.000407454
0.00349307
0.000519366
0.0037431
0.000644957
0.00394649
0.000784233
0.00410571
0.000937216
0.00422314
0.00110394
0.00430106
0.00128443
0.00434158
0.00147868
0.00434662
0.00168663
0.00431792
0.00190818
0.00425712
0.00214316
0.00416576
0.0023913
0.00404531
0.00265229
0.00389723
0.0029257
0.00372301
0.00321106
0.0035242
0.00350779
0.00330242
0.00381527
0.00305942
0.00413278
0.00279705
0.00445955
0.00251728
0.00479476
0.0022222
0.0051375
0.00191404
0.00548684
0.00159513
0.00584178
0.0012679
0.0062013
0.000934851
0.00656434
0.000598566
0.00692981
0.000261661
0.00729664
-7.32168e-05
0.00766377
-0.00040338
0.00803022
-0.000726024
0.00839519
-0.00103792
0.00875817
-0.0013345
0.00911912
-0.00160667
-0.00183274
0.00947827
6.13926e-06
0.000321833
2.47677e-05
0.000900775
5.69949e-05
0.00144398
0.000103567
0.00193851
0.000164945
0.00237987
0.000241331
0.0027676
0.000332762
0.00310263
0.000439188
0.00338664
0.00056052
0.00362176
0.000696671
0.00381034
0.000847565
0.00395481
0.00101314
0.00405757
0.00119333
0.00412087
0.00138808
0.00414684
0.00159728
0.00413742
0.00182078
0.00409442
0.0020584
0.00401951
0.00230986
0.0039143
0.00257482
0.00378035
0.00285288
0.00361917
0.00314354
0.00343235
0.00344623
0.0032215
0.00376031
0.00298835
0.00408504
0.00273468
0.00441965
0.00246244
0.00476328
0.00217365
0.005115
0.00187048
0.00547384
0.00155521
0.00583874
0.00123023
0.00620864
0.000897999
0.00658241
0.000561088
0.00695888
0.000222097
0.00733687
-0.000116338
0.00771522
-0.000451567
0.00809278
-0.000780933
0.00846847
-0.00110171
0.00884138
-0.00141084
0.00921093
-0.00170405
0.009577
-0.00197274
-0.00219567
0.00993994
6.28236e-06
0.00031555
2.57003e-05
0.000881357
5.96167e-05
0.00141006
0.000108952
0.00188918
0.000174272
0.00231455
0.000255841
0.00268603
0.000353714
0.00300476
0.000467822
0.00327253
0.000598037
0.00349155
0.000744208
0.00366417
0.000906187
0.00379283
0.00108383
0.00387993
0.00127697
0.00392772
0.00148547
0.00393835
0.00170911
0.00391377
0.00194768
0.00385585
0.00220087
0.00376632
0.00246834
0.00364684
0.00274965
0.00349903
0.00304432
0.0033245
0.00335176
0.00312491
0.00367133
0.00290194
0.00400228
0.00265739
0.00434383
0.00239314
0.00469507
0.00211119
0.00505508
0.00181364
0.00542283
0.00150273
0.00579725
0.0011808
0.00617719
0.000850285
0.00656146
0.000513724
0.00694884
0.00017371
0.00733806
-0.000167119
0.00772783
-0.00050611
0.00811688
-0.000840619
0.00850397
-0.00116802
0.00888794
-0.00148568
0.0092678
-0.0017907
0.00964286
-0.00207911
0.010013
-0.00234286
-0.0025613
0.0103786
6.3185e-06
0.000309232
2.62912e-05
0.000861384
6.15708e-05
0.00137478
0.000113273
0.00183747
0.000182087
0.00224574
0.000268348
0.00259977
0.000372139
0.00290097
0.000493383
0.00315129
0.000631918
0.00335302
0.000787541
0.00350855
0.000960032
0.00362034
0.00114916
0.0036908
0.0013547
0.00372219
0.00157638
0.00371666
0.00181393
0.00367622
0.00206702
0.00360277
0.00233526
0.00349807
0.00261822
0.00336388
0.00291538
0.00320187
0.00322616
0.00301372
0.0035499
0.00280117
0.00388585
0.00256598
0.00423321
0.00231003
0.00459107
0.00203528
0.00495847
0.00174379
0.00533435
0.00143776
0.00571761
0.00111948
0.00610704
0.000791364
0.0065014
0.000455925
0.00689938
0.000115743
0.00729963
-0.000226542
0.00770078
-0.000568263
0.00810142
-0.000906753
0.00850018
-0.00123938
0.00889573
-0.00156357
0.00928683
-0.00187677
0.00967241
-0.00217627
0.0100517
-0.00245842
0.0104246
-0.00271573
-0.00292831
0.0107916
6.25603e-06
0.000302976
2.6568e-05
0.000841072
6.29081e-05
0.00133844
0.000116608
0.00178378
0.000188489
0.00217386
0.00027897
0.00250929
0.000388168
0.00279177
0.000516009
0.00302345
0.000662305
0.00320672
0.000826806
0.00334405
0.00100923
0.00343792
0.00120927
0.00349075
0.00142662
0.00350484
0.00166092
0.00348236
0.00191181
0.00342533
0.00217887
0.00333571
0.00246163
0.00321532
0.00275956
0.00306595
0.00307206
0.00288937
0.00339845
0.00268733
0.003738
0.00246162
0.00408987
0.00221411
0.00445315
0.00194675
0.00482685
0.00166158
0.00520989
0.00136075
0.00560111
0.00104653
0.00599929
0.000721299
0.00640311
0.000387548
0.00681119
4.78466e-05
0.00722209
-0.000295162
0.00763434
-0.000638796
0.00804644
-0.000980362
0.00845688
-0.00131719
0.00886417
-0.00164668
0.00926691
-0.0019663
0.00966376
-0.00227363
0.0100536
-0.00256614
0.0104357
-0.00284051
0.0108099
-0.00308987
-0.00329524
0.0111768
6.1064e-06
0.00029687
2.65676e-05
0.000820611
6.36988e-05
0.00130131
0.000119062
0.00172841
0.000193623
0.0020993
0.000287889
0.00241502
0.000402021
0.00267764
0.000535951
0.00288952
0.000689477
0.00305319
0.000862309
0.00317122
0.00105411
0.00324612
0.0012645
0.00328035
0.0014931
0.00327624
0.00173948
0.00323598
0.00200318
0.00316164
0.00228369
0.0030552
0.00258045
0.00291855
0.00289286
0.00275354
0.00322022
0.00256201
0.00356178
0.00234577
0.00391668
0.00210672
0.004284
0.00184679
0.00466273
0.00156802
0.00505177
0.00127254
0.00544993
0.000962596
0.00585592
0.00064054
0.00626837
0.000308844
0.00668585
-2.99284e-05
0.00710683
-0.000373131
0.00752973
-0.000718067
0.00795295
-0.00106201
0.00837485
-0.00140226
0.00879381
-0.00173615
0.00920825
-0.00206112
0.00961667
-0.00237473
0.0100177
-0.00267468
0.0104102
-0.00295866
0.0107934
-0.00322371
0.0111672
-0.0034636
-0.00366045
0.0115324
5.88406e-06
0.000290985
2.63357e-05
0.000800159
6.40312e-05
0.00126362
0.000120774
0.00167167
0.000197682
0.00202239
0.000295353
0.00231735
0.000413998
0.00255899
0.000553568
0.00274995
0.000713848
0.00289291
0.000894518
0.00299055
0.00109519
0.00304545
0.00131544
0.00306011
0.00155479
0.00303689
0.00181275
0.00297802
0.00208877
0.00288561
0.00238227
0.00276169
0.0026926
0.00260821
0.00301906
0.00242709
0.00336087
0.0022202
0.00371716
0.00198948
0.00408699
0.00173688
0.00446933
0.00146445