0.05 	0.0003125 	0.005 	-0.00219982 	3.49817e-07 	0
0.05 	0.0009375 	0.005 	-0.00646971 	2.38814e-06 	0
0.05 	0.0015625 	0.005 	-0.0106177 	6.86122e-06 	0
0.05 	0.0021875 	0.005 	-0.014651 	1.33696e-05 	0
0.05 	0.0028125 	0.005 	-0.0185759 	2.17016e-05 	0
0.05 	0.0034375 	0.005 	-0.0223988 	3.17496e-05 	0
0.05 	0.0040625 	0.005 	-0.0261256 	4.34077e-05 	0
0.05 	0.0046875 	0.005 	-0.029762 	5.65777e-05 	0
0.05 	0.0053125 	0.005 	-0.0333133 	7.1175e-05 	0
0.05 	0.0059375 	0.005 	-0.0367848 	8.71283e-05 	0
0.05 	0.0065625 	0.005 	-0.0401813 	0.000104379 	0
0.05 	0.0071875 	0.005 	-0.0435076 	0.000122878 	0
0.05 	0.0078125 	0.005 	-0.0467681 	0.000142591 	0
0.05 	0.0084375 	0.005 	-0.049967 	0.000163492 	0
0.05 	0.0090625 	0.005 	-0.0531084 	0.000185567 	0
0.05 	0.0096875 	0.005 	-0.0561961 	0.000208812 	0
0.05 	0.0103125 	0.005 	-0.0592338 	0.000233231 	0
0.05 	0.0109375 	0.005 	-0.0622249 	0.000258841 	0
0.05 	0.0115625 	0.005 	-0.0651727 	0.000285665 	0
0.05 	0.0121875 	0.005 	-0.0680803 	0.000313739 	0
0.05 	0.0128125 	0.005 	-0.0709506 	0.000343104 	0
0.05 	0.0134375 	0.005 	-0.0737866 	0.000373811 	0
0.05 	0.0140625 	0.005 	-0.0765907 	0.000405921 	0
0.05 	0.0146875 	0.005 	-0.0793655 	0.000439501 	0
0.05 	0.0153125 	0.005 	-0.0821133 	0.000474627 	0
0.05 	0.0159375 	0.005 	-0.0848363 	0.000511382 	0
0.05 	0.0165625 	0.005 	-0.0875366 	0.000549859 	0
0.05 	0.0171875 	0.005 	-0.0902161 	0.000590155 	0
0.05 	0.0178125 	0.005 	-0.0928766 	0.000632376 	0
0.05 	0.0184375 	0.005 	-0.0955197 	0.000676635 	0
0.05 	0.0190625 	0.005 	-0.098147 	0.000723053 	0
0.05 	0.0196875 	0.005 	-0.10076 	0.000771756 	0
0.05 	0.0203125 	0.005 	-0.10336 	0.000822876 	0
0.05 	0.0209375 	0.005 	-0.105948 	0.000876554 	0
0.05 	0.0215625 	0.005 	-0.108524 	0.000932934 	0
0.05 	0.0221875 	0.005 	-0.111091 	0.000992168 	0
0.05 	0.0228125 	0.005 	-0.113649 	0.00105441 	0
0.05 	0.0234375 	0.005 	-0.116198 	0.00111983 	0
0.05 	0.0240625 	0.005 	-0.118739 	0.00118859 	0
0.05 	0.0246875 	0.005 	-0.121273 	0.00126087 	0
0.05 	0.0253125 	0.005 	-0.123799 	0.00133683 	0
0.05 	0.0259375 	0.005 	-0.126319 	0.00141666 	0
0.05 	0.0265625 	0.005 	-0.128831 	0.00150056 	0
0.05 	0.0271875 	0.005 	-0.131336 	0.0015887 	0
0.05 	0.0278125 	0.005 	-0.133834 	0.00168127 	0
0.05 	0.0284375 	0.005 	-0.136325 	0.00177848 	0
0.05 	0.0290625 	0.005 	-0.138808 	0.00188052 	0
0.05 	0.0296875 	0.005 	-0.141282 	0.00198759 	0
0.05 	0.0303125 	0.005 	-0.143747 	0.00209989 	0
0.05 	0.0309375 	0.005 	-0.146201 	0.00221761 	0
0.05 	0.0315625 	0.005 	-0.148645 	0.00234097 	0
0.05 	0.0321875 	0.005 	-0.151076 	0.00247015 	0
0.05 	0.0328125 	0.005 	-0.153494 	0.00260536 	0
0.05 	0.0334375 	0.005 	-0.155897 	0.0027468 	0
0.05 	0.0340625 	0.005 	-0.158284 	0.00289466 	0
0.05 	0.0346875 	0.005 	-0.160652 	0.00304912 	0
0.05 	0.0353125 	0.005 	-0.163001 	0.00321038 	0
0.05 	0.0359375 	0.005 	-0.165327 	0.00337862 	0
0.05 	0.0365625 	0.005 	-0.167629 	0.00355401 	0
0.05 	0.0371875 	0.005 	-0.169905 	0.0037367 	0
0.05 	0.0378125 	0.005 	-0.172151 	0.00392687 	0
0.05 	0.0384375 	0.005 	-0.174365 	0.00412466 	0
0.05 	0.0390625 	0.005 	-0.176545 	0.00433021 	0
0.05 	0.0396875 	0.005 	-0.178686 	0.00454363 	0
0.05 	0.0403125 	0.005 	-0.180787 	0.00476504 	0
0.05 	0.0409375 	0.005 	-0.182843 	0.00499453 	0
0.05 	0.0415625 	0.005 	-0.18485 	0.00523219 	0
0.05 	0.0421875 	0.005 	-0.186806 	0.00547806 	0
0.05 	0.0428125 	0.005 	-0.188705 	0.0057322 	0
0.05 	0.0434375 	0.005 	-0.190543 	0.00599462 	0
0.05 	0.0440625 	0.005 	-0.192317 	0.00626531 	0
0.05 	0.0446875 	0.005 	-0.194021 	0.00654425 	0
0.05 	0.0453125 	0.005 	-0.195651 	0.00683138 	0
0.05 	0.0459375 	0.005 	-0.1972 	0.00712662 	0
0.05 	0.0465625 	0.005 	-0.198664 	0.00742985 	0
0.05 	0.0471875 	0.005 	-0.200038 	0.00774093 	0
0.05 	0.0478125 	0.005 	-0.201314 	0.00805968 	0
0.05 	0.0484375 	0.005 	-0.202488 	0.00838588 	0
0.05 	0.0490625 	0.005 	-0.203552 	0.00871927 	0
0.05 	0.0496875 	0.005 	-0.2045 	0.00905958 	0
0.05 	0.0503125 	0.005 	-0.205326 	0.00940646 	0
0.05 	0.0509375 	0.005 	-0.206021 	0.00975953 	0
0.05 	0.0515625 	0.005 	-0.206579 	0.0101184 	0
0.05 	0.0521875 	0.005 	-0.206992 	0.0104825 	0
0.05 	0.0528125 	0.005 	-0.207252 	0.0108515 	0
0.05 	0.0534375 	0.005 	-0.20735 	0.0112246 	0
0.05 	0.0540625 	0.005 	-0.207278 	0.0116014 	0
0.05 	0.0546875 	0.005 	-0.207028 	0.0119811 	0
0.05 	0.0553125 	0.005 	-0.206589 	0.012363 	0
0.05 	0.0559375 	0.005 	-0.205954 	0.0127463 	0
0.05 	0.0565625 	0.005 	-0.205112 	0.0131303 	0
0.05 	0.0571875 	0.005 	-0.204053 	0.0135139 	0
0.05 	0.0578125 	0.005 	-0.202767 	0.0138964 	0
0.05 	0.0584375 	0.005 	-0.201243 	0.0142766 	0
0.05 	0.0590625 	0.005 	-0.199472 	0.0146535 	0
0.05 	0.0596875 	0.005 	-0.197441 	0.015026 	0
0.05 	0.0603125 	0.005 	-0.19514 	0.0153929 	0
0.05 	0.0609375 	0.005 	-0.192556 	0.0157531 	0
0.05 	0.0615625 	0.005 	-0.189679 	0.0161053 	0
0.05 	0.0621875 	0.005 	-0.186496 	0.0164481 	0
0.05 	0.0628125 	0.005 	-0.182995 	0.0167802 	0
0.05 	0.0634375 	0.005 	-0.179163 	0.0171002 	0
0.05 	0.0640625 	0.005 	-0.174987 	0.0174066 	0
0.05 	0.0646875 	0.005 	-0.170455 	0.0176981 	0
0.05 	0.0653125 	0.005 	-0.165554 	0.0179731 	0
0.05 	0.0659375 	0.005 	-0.160269 	0.0182301 	0
0.05 	0.0665625 	0.005 	-0.154588 	0.0184675 	0
0.05 	0.0671875 	0.005 	-0.148497 	0.018684 	0
0.05 	0.0678125 	0.005 	-0.141982 	0.0188778 	0
0.05 	0.0684375 	0.005 	-0.135029 	0.0190475 	0
0.05 	0.0690625 	0.005 	-0.127625 	0.0191916 	0
0.05 	0.0696875 	0.005 	-0.119754 	0.0193087 	0
0.05 	0.0703125 	0.005 	-0.111404 	0.0193973 	0
0.05 	0.0709375 	0.005 	-0.102561 	0.0194559 	0
0.05 	0.0715625 	0.005 	-0.0932093 	0.0194834 	0
0.05 	0.0721875 	0.005 	-0.083336 	0.0194785 	0
0.05 	0.0728125 	0.005 	-0.0729271 	0.0194401 	0
0.05 	0.0734375 	0.005 	-0.061969 	0.019367 	0
0.05 	0.0740625 	0.005 	-0.050448 	0.0192585 	0
0.05 	0.0746875 	0.005 	-0.0383509 	0.0191136 	0
0.05 	0.0753125 	0.005 	-0.0256647 	0.0189319 	0
0.05 	0.0759375 	0.005 	-0.0123766 	0.0187127 	0
0.05 	0.0765625 	0.005 	0.00152567 	0.0184559 	0
0.05 	0.0771875 	0.005 	0.0160541 	0.0181613 	0
0.05 	0.0778125 	0.005 	0.0312201 	0.0178291 	0
0.05 	0.0784375 	0.005 	0.0470345 	0.0174594 	0
0.05 	0.0790625 	0.005 	0.0635078 	0.0170531 	0
0.05 	0.0796875 	0.005 	0.0806496 	0.0166107 	0
0.05 	0.0803125 	0.005 	0.0984689 	0.0161334 	0
0.05 	0.0809375 	0.005 	0.116974 	0.0156226 	0
0.05 	0.0815625 	0.005 	0.136172 	0.0150797 	0
0.05 	0.0821875 	0.005 	0.156069 	0.0145067 	0
0.05 	0.0828125 	0.005 	0.176671 	0.0139058 	0
0.05 	0.0834375 	0.005 	0.197982 	0.0132793 	0
0.05 	0.0840625 	0.005 	0.220006 	0.0126301 	0
0.05 	0.0846875 	0.005 	0.242744 	0.0119609 	0
0.05 	0.0853125 	0.005 	0.266198 	0.0112752 	0
0.05 	0.0859375 	0.005 	0.290366 	0.0105764 	0
0.05 	0.0865625 	0.005 	0.315247 	0.00986812 	0
0.05 	0.0871875 	0.005 	0.340838 	0.00915443 	0
0.05 	0.0878125 	0.005 	0.367133 	0.00843941 	0
0.05 	0.0884375 	0.005 	0.394126 	0.00772733 	0
0.05 	0.0890625 	0.005 	0.421809 	0.0070226 	0
0.05 	0.0896875 	0.005 	0.450173 	0.0063297 	0
0.05 	0.0903125 	0.005 	0.479205 	0.00565317 	0
0.05 	0.0909375 	0.005 	0.508892 	0.00499751 	0
0.05 	0.0915625 	0.005 	0.539219 	0.0043672 	0
0.05 	0.0921875 	0.005 	0.57017 	0.00376657 	0
0.05 	0.0928125 	0.005 	0.601725 	0.00319978 	0
0.05 	0.0934375 	0.005 	0.633865 	0.00267077 	0
0.05 	0.0940625 	0.005 	0.666566 	0.00218312 	0
0.05 	0.0946875 	0.005 	0.699805 	0.00174008 	0
0.05 	0.0953125 	0.005 	0.733556 	0.00134439 	0
0.05 	0.0959375 	0.005 	0.767791 	0.000998275 	0
0.05 	0.0965625 	0.005 	0.802481 	0.000703353 	0
0.05 	0.0971875 	0.005 	0.837596 	0.000460552 	0
0.05 	0.0978125 	0.005 	0.873103 	0.000269918 	0
0.05 	0.0984375 	0.005 	0.908969 	0.000130408 	0
0.05 	0.0990625 	0.005 	0.945159 	4.1522e-05 	0
0.05 	0.0996875 	0.005 	0.981637 	4.90491e-06 	0
