/*--------------------------------*- C++ -*----------------------------------*\
  =========                 |
  \\      /  F ield         | OpenFOAM: The Open Source CFD Toolbox
   \\    /   O peration     | Website:  https://openfoam.org
    \\  /    A nd           | Version:  7
     \\/     M anipulation  |
\*---------------------------------------------------------------------------*/
FoamFile
{
    version     2.0;
    format      ascii;
    class       volScalarField;
    location    "11.7";
    object      p;
}
// * * * * * * * * * * * * * * * * * * * * * * * * * * * * * * * * * * * * * //

dimensions      [0 2 -2 0 0 0 0];

internalField   nonuniform List<scalar> 
2000
(
0.0480032
0.0512991
0.0534059
0.0567289
0.061839
0.0686793
0.0767273
0.0852961
0.093777
0.101925
0.0502927
0.0531148
0.0547676
0.0573232
0.0614049
0.0671395
0.0741914
0.0819864
0.089933
0.0977436
0.0525478
0.0549053
0.0562023
0.058174
0.0614285
0.0661971
0.0722957
0.0792735
0.0865945
0.0939392
0.0547849
0.0566823
0.0577052
0.0592559
0.0618852
0.0658594
0.0710979
0.0772623
0.0838947
0.0906507
0.0570172
0.0584584
0.0592806
0.0605558
0.0627541
0.0661244
0.070639
0.0760461
0.0819698
0.0880327
0.0592492
0.0602455
0.0609394
0.0620722
0.0640207
0.0669816
0.0709378
0.0756923
0.0809342
0.0862224
0.0614681
0.0620459
0.0626889
0.0638041
0.0656692
0.0684088
0.0719861
0.0762317
0.0808656
0.0853231
0.063635
0.0638409
0.0645169
0.0657348
0.0676685
0.0703618
0.073741
0.0776497
0.0818012
0.0854262
0.0656764
0.0655833
0.0663798
0.0678142
0.0699538
0.072759
0.0761119
0.0798709
0.0837321
0.0866184
0.0674887
0.0671953
0.0681999
0.0699444
0.0724075
0.0754636
0.0789449
0.0827281
0.0865723
0.0892488
0.117755
0.133783
0.143557
0.150298
0.154901
0.158586
0.16097
0.162893
0.163793
0.164361
0.113678
0.130135
0.139963
0.146811
0.151496
0.155279
0.157741
0.159749
0.160713
0.161322
0.10981
0.126583
0.136387
0.143374
0.148141
0.152018
0.154563
0.156649
0.157673
0.158324
0.106312
0.123155
0.132856
0.140005
0.144848
0.148811
0.151446
0.153599
0.154674
0.155361
0.103404
0.119899
0.12942
0.13673
0.141626
0.145671
0.148398
0.150606
0.151716
0.152427
0.101246
0.116777
0.126103
0.133556
0.138473
0.1426
0.145421
0.147676
0.148806
0.14953
0.0999869
0.113815
0.123014
0.130513
0.135411
0.139619
0.14253
0.144816
0.145933
0.146642
0.0994636
0.110809
0.120129
0.127556
0.132423
0.136705
0.139709
0.14203
0.143134
0.143821
0.0998015
0.108131
0.117655
0.12475
0.129579
0.133921
0.137008
0.139315
0.140328
0.140932
0.0994436
0.105234
0.115131
0.121939
0.12677
0.131124
0.134325
0.136695
0.137707
0.138265
0.105425
0.103063
0.110668
0.116065
0.120872
0.125203
0.128326
0.13013
0.130498
0.130659
0.109555
0.101446
0.106266
0.108902
0.11199
0.114866
0.117459
0.120018
0.121985
0.12367
0.0994288
0.0978933
0.0995216
0.101416
0.104113
0.106845
0.108907
0.110426
0.112145
0.113446
0.0847074
0.0870018
0.0896234
0.092344
0.0951607
0.0978168
0.100156
0.101765
0.103147
0.104123
0.0700354
0.0742132
0.0781231
0.0825008
0.0864822
0.0891882
0.0906797
0.0918348
0.0928872
0.0938979
0.0562259
0.0615856
0.0660436
0.0706905
0.0750756
0.0786664
0.0808319
0.0820405
0.082885
0.0835381
0.0428246
0.0483413
0.0532939
0.0583065
0.0627365
0.066037
0.0683364
0.0697418
0.0704865
0.0707869
0.0291926
0.0342787
0.0390593
0.0439141
0.0483108
0.0515219
0.0537336
0.0551797
0.0560851
0.0565003
0.0161172
0.0202572
0.0241931
0.0278105
0.0312217
0.0339999
0.0357617
0.036724
0.0374118
0.0379273
0.00159417
0.00544661
0.0082321
0.0100572
0.0116888
0.0132347
0.0143022
0.0148121
0.015075
0.015353
0.101957
0.104291
0.0923172
0.0770611
0.0630714
0.0499432
0.0381595
0.0253619
0.0142218
-0.000953709
0.104334
0.102421
0.0889169
0.0734136
0.0597796
0.047085
0.0358514
0.0235593
0.0134656
-0.00174857
0.10579
0.0989143
0.0846985
0.0696473
0.0565767
0.0444128
0.0337502
0.022049
0.0127793
-0.00243984
0.104898
0.0947269
0.0801931
0.0658498
0.0533869
0.0418023
0.0316855
0.0206456
0.0121028
-0.00311273
0.101702
0.0901797
0.0755386
0.062019
0.0502354
0.0392784
0.029709
0.0193952
0.0114865
-0.00364872
0.0967098
0.0852819
0.0709211
0.0582231
0.0471327
0.0368324
0.0278135
0.0182621
0.0109601
-0.00343649
0.0907714
0.0800947
0.0664335
0.0545181
0.0440983
0.0344719
0.0260124
0.0172234
0.0105147
-0.00246872
0.0845851
0.0747944
0.0621238
0.0509608
0.0411662
0.0322139
0.0243199
0.0162565
0.0100538
-0.00129576
0.0786075
0.0696164
0.0580337
0.0475944
0.0383763
0.0300867
0.0227583
0.0153698
0.00955186
-0.00018417
0.0731247
0.0647652
0.0542037
0.0444477
0.0357652
0.0281191
0.0213507
0.0146065
0.00907363
0.000701584
0.0682872
0.0603675
0.0506595
0.0415316
0.033354
0.0263297
0.02011
0.013955
0.00866495
0.00133834
0.0641541
0.0565115
0.0474452
0.0388708
0.0311622
0.0247411
0.0190443
0.0134063
0.0083323
0.00175907
0.0607447
0.0532668
0.0446359
0.0365107
0.0292062
0.0233974
0.0181624
0.0129595
0.00806829
0.00201547
0.0580486
0.0506607
0.0422813
0.034487
0.0274981
0.0223288
0.0174655
0.0126163
0.00786606
0.00216221
0.0560112
0.0486572
0.0403795
0.0328271
0.0262404
0.0213639
0.0169474
0.0123732
0.00772132
0.00224528
0.0544986
0.0471507
0.0388928
0.031563
0.0252532
0.020661
0.0166033
0.0122215
0.00762878
0.00229663
0.053388
0.0461244
0.037868
0.0306513
0.0245517
0.0201904
0.0164123
0.0121936
0.00757843
0.00233461
0.0529318
0.0459014
0.0374343
0.0301105
0.0241243
0.0199119
0.0163095
0.0121808
0.00755946
0.00236759
0.0533742
0.0465739
0.0377119
0.0299916
0.0239288
0.0197793
0.0163339
0.0122349
0.00756636
0.00239846
0.0521714
0.046418
0.0381071
0.0303401
0.0240952
0.0197857
0.0164145
0.0124011
0.00760725
0.0024258
0.0438288
0.0419261
0.0379688
0.0330023
0.026911
0.02138
0.0167508
0.0123623
0.00758431
0.00253932
0.048266
0.0361033
0.0292007
0.025518
0.0223277
0.0191339
0.0156781
0.0117281
0.00707323
0.00229711
0.0531336
0.0453616
0.0380013
0.0322993
0.0262858
0.0212414
0.0166985
0.0121191
0.00731191
0.00240005
0.0549216
0.0455477
0.0373192
0.0313266
0.0257655
0.0210965
0.0166893
0.0121131
0.00739837
0.00258996
0.0581652
0.048836
0.040607
0.0337812
0.0275386
0.0225792
0.0174257
0.0125291
0.00774623
0.00289982
0.0598273
0.0503516
0.0420488
0.0351769
0.0289862
0.0235629
0.0179313
0.0129745
0.00822753
0.00338332
0.0621556
0.0523959
0.0439034
0.0366866
0.0302464
0.0242773
0.0185075
0.0135119
0.00866906
0.00376679
0.0642263
0.0542109
0.0455972
0.0382605
0.0314613
0.0249801
0.0191701
0.0139266
0.00904668
0.0041094
0.0655204
0.0563899
0.0477904
0.0398
0.0323025
0.0257376
0.0198042
0.0142208
0.00956325
0.00446754
0.0671857
0.0573904
0.0485459
0.0404009
0.0329246
0.0262743
0.0201764
0.0145923
0.00971195
0.00412307
0.0610725
0.0645717
0.0619778
0.0623384
0.0648454
0.0663121
0.0691144
0.0720083
0.0721105
0.0746598
0.065367
0.0683239
0.0653662
0.06582
0.0679934
0.0693549
0.0725885
0.0757733
0.0767669
0.0791578
0.0690416
0.069362
0.0670701
0.0689568
0.0712831
0.0728982
0.0766356
0.0801965
0.0832214
0.0856028
0.0717203
0.0709404
0.0686734
0.0716382
0.0743592
0.0765253
0.0806066
0.08451
0.0889971
0.0917527
0.0758392
0.0733721
0.0710483
0.0743796
0.0773782
0.08014
0.0844508
0.0885676
0.0936617
0.0968605
0.0797669
0.0759778
0.073935
0.0774438
0.0806021
0.0838444
0.0883308
0.0925673
0.0977393
0.101199
0.0834692
0.0785919
0.0769105
0.0807359
0.0841312
0.087745
0.0923747
0.0967277
0.101841
0.105372
0.0872311
0.0813435
0.0798722
0.0841207
0.0879237
0.0918667
0.0966229
0.101145
0.106293
0.109835
0.0911909
0.0843202
0.0829068
0.0875775
0.0919196
0.0961748
0.101065
0.105815
0.111151
0.114755
0.0953667
0.0875371
0.086096
0.0911481
0.0960988
0.100623
0.105681
0.110686
0.116338
0.120092
0.0999308
0.0909872
0.0894897
0.0948635
0.100469
0.105176
0.110457
0.115717
0.121777
0.125743
0.104991
0.0946788
0.0931519
0.098717
0.105017
0.109822
0.115372
0.120891
0.127433
0.131629
0.11061
0.0987007
0.0971767
0.102674
0.109682
0.11457
0.12041
0.126262
0.13332
0.137734
0.116708
0.103135
0.101615
0.10672
0.114397
0.119421
0.125551
0.131905
0.139446
0.144068
0.123178
0.108002
0.106394
0.110919
0.119115
0.12436
0.130796
0.137924
0.145827
0.150675
0.129849
0.113254
0.111356
0.115357
0.123778
0.129315
0.136305
0.144172
0.152423
0.157557
0.136528
0.119021
0.116326
0.120064
0.128376
0.134206
0.142219
0.150624
0.159262
0.164746
0.143104
0.125555
0.121212
0.124948
0.132839
0.139208
0.14813
0.157108
0.166266
0.172197
0.149755
0.13223
0.126003
0.129936
0.137323
0.144388
0.154091
0.1637
0.173493
0.17996
0.155988
0.139089
0.131041
0.134413
0.141382
0.14918
0.159564
0.169941
0.180653
0.18792
0.16649
0.156978
0.148631
0.149011
0.1541
0.163048
0.1743
0.186536
0.199128
0.208005
0.181272
0.178146
0.174749
0.175753
0.18114
0.190628
0.203275
0.218356
0.233877
0.244535
0.19958
0.201233
0.202829
0.206447
0.213653
0.22454
0.23871
0.256258
0.274136
0.285618
0.216327
0.221723
0.227723
0.235729
0.24669
0.260853
0.277808
0.29805
0.317835
0.329905
0.230986
0.239007
0.248511
0.260422
0.275267
0.29324
0.313346
0.335763
0.356975
0.369844
0.242985
0.252865
0.264891
0.279631
0.297287
0.318055
0.340421
0.363593
0.38482
0.396757
0.251848
0.263157
0.276882
0.293434
0.312675
0.334762
0.357984
0.380459
0.400281
0.411454
0.258483
0.270646
0.28557
0.303505
0.32389
0.346666
0.370188
0.391773
0.409258
0.416665
0.260655
0.273775
0.289648
0.308653
0.329717
0.353063
0.37714
0.397908
0.412911
0.421325
0.264721
0.278152
0.294532
0.313873
0.335904
0.360158
0.384774
0.407796
0.424746
0.414965
0.171541
0.182467
0.19802
0.212886
0.226487
0.237749
0.24594
0.252372
0.254124
0.257812
0.174791
0.185719
0.20004
0.2136
0.226199
0.236629
0.244175
0.250181
0.251696
0.255243
0.177951
0.189963
0.203614
0.215968
0.22726
0.236473
0.243094
0.248328
0.249664
0.252873
0.179577
0.192172
0.205494
0.217217
0.227659
0.235995
0.241924
0.246517
0.247788
0.250505
0.180649
0.193249
0.206173
0.217465
0.227351
0.235112
0.24058
0.244714
0.245966
0.248193
0.181642
0.194199
0.206633
0.21746
0.226832
0.234117
0.239215
0.24298
0.244211
0.246027
0.182424
0.195095
0.207119
0.217487
0.226346
0.233176
0.237929
0.24136
0.242563
0.24405
0.182904
0.195768
0.20751
0.217495
0.225886
0.2323
0.236734
0.239859
0.24104
0.242255
0.183137
0.1962
0.207742
0.217421
0.225412
0.231467
0.235621
0.238472
0.239644
0.24062
0.18321
0.196458
0.207849
0.217271
0.224922
0.230672
0.234585
0.237191
0.238369
0.239123
0.183189
0.196592
0.207874
0.217075
0.224434
0.229924
0.233631
0.236029
0.237191
0.237754
0.183062
0.196589
0.207828
0.216845
0.223959
0.229232
0.232761
0.234982
0.236109
0.236507
0.182767
0.19641
0.207698
0.216577
0.223499
0.228597
0.231973
0.234038
0.235132
0.235378
0.182281
0.196061
0.20749
0.216276
0.223059
0.228019
0.231265
0.233189
0.234255
0.234362
0.181614
0.195583
0.207217
0.215949
0.222642
0.227496
0.230634
0.232433
0.233462
0.233461
0.180717
0.195012
0.206875
0.215599
0.222257
0.227017
0.230079
0.231762
0.232733
0.232671
0.179558
0.194402
0.206451
0.215232
0.221891
0.226594
0.229597
0.23117
0.232054
0.232015
0.177891
0.193715
0.205884
0.214851
0.221539
0.226223
0.229179
0.23065
0.231384
0.231492
0.176038
0.192984
0.205249
0.214454
0.221208
0.225899
0.228824
0.230204
0.230757
0.231151
0.173063
0.191666
0.204299
0.2139
0.220817
0.225578
0.228505
0.229796
0.230012
0.230947
0.167728
0.189096
0.202493
0.212887
0.220156
0.225072
0.228063
0.229469
0.229391
0.230918
0.178249
0.194634
0.205772
0.215154
0.221442
0.225667
0.228026
0.229142
0.229036
0.230157
0.186594
0.20015
0.209994
0.218018
0.223245
0.226599
0.228142
0.228777
0.228564
0.229044
0.191925
0.203893
0.213164
0.220087
0.22456
0.227119
0.227984
0.228301
0.228356
0.228839
0.195596
0.206618
0.215386
0.221384
0.225116
0.226859
0.227207
0.227546
0.228381
0.230604
0.198359
0.208702
0.216917
0.222012
0.224721
0.225579
0.225652
0.226722
0.230179
0.237415
0.20007
0.210195
0.217828
0.221675
0.222633
0.222065
0.22216
0.22548
0.235095
0.254563
0.201715
0.211654
0.21891
0.221555
0.221038
0.219897
0.220036
0.228121
0.251478
0.297367
0.202111
0.211812
0.217791
0.217656
0.214579
0.213407
0.218777
0.237969
0.287253
0.380588
0.204306
0.216142
0.224973
0.227478
0.226335
0.229738
0.245834
0.285386
0.371553
0.52151
0.155567
0.166895
0.175297
0.182013
0.186449
0.190383
0.192309
0.194449
0.194951
0.19654
0.151901
0.163582
0.171977
0.178785
0.183199
0.187327
0.189215
0.191449
0.191921
0.193256
0.149795
0.161815
0.170238
0.17671
0.180776
0.184649
0.186374
0.18849
0.188867
0.189945
0.146765
0.159225
0.167753
0.174262
0.178165
0.181813
0.183465
0.185438
0.185763
0.186625
0.143066
0.155891
0.164553
0.171113
0.175171
0.178713
0.180405
0.182281
0.182622
0.183331
0.139129
0.152344
0.16115
0.167685
0.171904
0.175448
0.177257
0.17906
0.179465
0.18008
0.135017
0.148739
0.157728
0.164247
0.168532
0.172092
0.174068
0.175806
0.176311
0.17687
0.130737
0.14505
0.15426
0.160809
0.165148
0.168691
0.170802
0.172579
0.17316
0.173698
0.12636
0.141288
0.150726
0.157329
0.161749
0.165303
0.167513
0.169319
0.170032
0.170556
0.121996
0.13751
0.147148
0.153814
0.158328
0.161933
0.164232
0.166083
0.166904
0.167442
0.0689474
0.0685715
0.0698465
0.0719743
0.0748471
0.0782625
0.0820049
0.0859648
0.0901885
0.0944209
0.0699245
0.0695966
0.0711725
0.0737152
0.0770312
0.0808435
0.0848763
0.0889246
0.0928246
0.0963408
0.07031
0.0701729
0.0720511
0.0749824
0.0787053
0.082876
0.087143
0.0912138
0.0946943
0.0969996
0.0700424
0.0702472
0.0724032
0.075651
0.0796776
0.0840851
0.0884514
0.0924238
0.0955622
0.0968428
0.0691241
0.0698243
0.0722251
0.075695
0.079878
0.0843288
0.088587
0.0922521
0.0949962
0.0956682
0.0676092
0.0689611
0.0715819
0.075177
0.0793559
0.0836406
0.0875622
0.0907208
0.0929191
0.0933251
0.0655802
0.0677418
0.070565
0.074203
0.0782307
0.0821612
0.0855563
0.088086
0.0896235
0.089865
0.0631399
0.0662329
0.0692523
0.0728604
0.0766178
0.0800572
0.0828123
0.0846645
0.0855487
0.0855434
0.0603721
0.064477
0.067681
0.0712023
0.0746134
0.0774964
0.0795901
0.0807868
0.0811119
0.0807587
0.0573364
0.0624902
0.0658572
0.0692646
0.0723169
0.0746622
0.0761564
0.0767862
0.076665
0.0759408
0.0540827
0.0602596
0.0637806
0.0671025
0.0698596
0.0717617
0.0727725
0.0729579
0.072488
0.071437
0.0507213
0.0578607
0.0615557
0.064868
0.0674383
0.0690228
0.0696744
0.0695266
0.0687774
0.0674595
0.0473758
0.0553511
0.0593032
0.0627332
0.0652494
0.0666421
0.0670394
0.0666372
0.0656469
0.0641097
0.0442173
0.0528535
0.0572229
0.0609184
0.0634964
0.0647903
0.0650003
0.064382
0.0631575
0.0614261
0.0414533
0.0505613
0.0555556
0.0596444
0.062354
0.0635949
0.0636451
0.0628168
0.0613445
0.0594195
0.0393029
0.0487277
0.0545435
0.0591027
0.061958
0.0631423
0.0630217
0.0619656
0.0602248
0.0580785
0.0379809
0.0476401
0.054403
0.0594442
0.0624101
0.0634931
0.0631495
0.0618062
0.0597376
0.0572907
0.0376927
0.0475779
0.0553082
0.060777
0.0637895
0.0647155
0.0640795
0.0623255
0.0597133
0.0566999
0.0386295
0.0487704
0.0573794
0.063161
0.0661476
0.0668936
0.0659629
0.063724
0.0602792
0.0561172
0.0409606
0.0513734
0.0606748
0.0666003
0.0694747
0.0700493
0.068935
0.0664132
0.0624485
0.0578569
0.044847
0.0554714
0.0651977
0.0710576
0.0736711
0.0740453
0.0728272
0.0703668
0.0669179
0.0637563
0.0504919
0.0610922
0.0709067
0.0764714
0.0785806
0.0786717
0.0772452
0.0747411
0.0716623
0.0691316
0.0578749
0.0681582
0.0776989
0.0825938
0.0842149
0.0838149
0.0820615
0.0793908
0.0763139
0.0736904
0.0669199
0.0765897
0.0854488
0.0894314
0.0903283
0.0893272
0.0871282
0.0841597
0.0808763
0.0779097
0.0775168
0.0862812
0.0939392
0.0968227
0.0968288
0.0951198
0.0923786
0.0890142
0.0854419
0.0822221
0.0895689
0.0968139
0.103043
0.104636
0.103628
0.101128
0.0977786
0.0939572
0.0900314
0.0865126
0.102653
0.108003
0.112571
0.112743
0.110645
0.107307
0.103314
0.0990044
0.0946912
0.0908266
0.116401
0.119618
0.122333
0.121016
0.117802
0.11362
0.108987
0.104196
0.0995026
0.0952841
0.130413
0.131364
0.13213
0.129319
0.125017
0.120027
0.114795
0.109567
0.104534
0.0999759
0.144211
0.142908
0.141747
0.13751
0.132198
0.126479
0.120727
0.115139
0.109834
0.10496
0.15727
0.153915
0.15097
0.14544
0.13924
0.132908
0.126747
0.120912
0.115434
0.110301
0.169453
0.164148
0.159594
0.15295
0.146023
0.139224
0.132788
0.126837
0.121317
0.116023
0.180366
0.173336
0.167429
0.159894
0.15243
0.145329
0.138768
0.132839
0.127413
0.122077
0.189663
0.181233
0.174287
0.166121
0.15833
0.151105
0.144576
0.138812
0.133613
0.128365
0.197063
0.187629
0.180003
0.171488
0.163594
0.15643
0.150087
0.144625
0.139789
0.134764
0.202348
0.192356
0.184437
0.175871
0.168101
0.161181
0.155174
0.150144
0.145797
0.141118
0.205368
0.195291
0.187485
0.179169
0.171751
0.165252
0.15972
0.155235
0.151489
0.147268
0.206047
0.19637
0.189083
0.181315
0.174467
0.168558
0.163627
0.15978
0.156721
0.15306
0.204389
0.195581
0.189207
0.182273
0.176203
0.171043
0.166829
0.163682
0.161362
0.158395
0.200471
0.192969
0.187878
0.182046
0.176939
0.172664
0.169253
0.166789
0.1652
0.163316
0.194433
0.18863
0.185161
0.180675
0.176703
0.173458
0.171
0.169322
0.168454
0.168644
0.186437
0.182697
0.181148
0.178217
0.175509
0.173353
0.17185
0.170941
0.170673
0.171494
0.176789
0.17537
0.175976
0.174766
0.17342
0.172389
0.171842
0.171728
0.172043
0.173245
0.165825
0.166883
0.16981
0.170452
0.170549
0.170683
0.171108
0.171831
0.172812
0.174363
0.153895
0.157491
0.162839
0.165427
0.167032
0.16837
0.169785
0.171361
0.17307
0.175066
0.141356
0.147464
0.155258
0.159849
0.16301
0.165583
0.167999
0.170426
0.172874
0.175406
0.128565
0.137065
0.147259
0.153872
0.158615
0.162439
0.165862
0.169125
0.17229
0.175379
0.115859
0.12654
0.139021
0.147636
0.153961
0.159037
0.163459
0.167537
0.171388
0.175022
0.103539
0.116102
0.130701
0.141257
0.149144
0.155457
0.160861
0.165729
0.170234
0.174399
0.0919201
0.105898
0.122428
0.134829
0.144237
0.151758
0.158118
0.163749
0.168879
0.173565
0.0814758
0.0960549
0.114317
0.128418
0.139289
0.147977
0.155262
0.161626
0.167351
0.17255
0.0717933
0.0868438
0.106443
0.122098
0.134351
0.14415
0.152317
0.15938
0.165663
0.171354
0.0630362
0.078432
0.0988537
0.115925
0.129452
0.140289
0.149289
0.157012
0.163812
0.169961
0.0553533
0.0707708
0.0917104
0.109931
0.124593
0.136388
0.146166
0.154511
0.161785
0.168346
0.0487908
0.0639199
0.0850401
0.104129
0.119764
0.13243
0.142926
0.151857
0.15957
0.166482
0.043345
0.057945
0.078862
0.0985269
0.114957
0.128389
0.139543
0.149013
0.157147
0.164325
0.0389879
0.052879
0.0732083
0.0931375
0.110174
0.124251
0.135976
0.145926
0.154462
0.16186
0.0356718
0.0487273
0.0681134
0.08798
0.105412
0.120001
0.132211
0.14258
0.151446
0.15919
0.0333327
0.0454746
0.0636076
0.0830795
0.100669
0.115616
0.128208
0.138926
0.148041
0.155983
0.0318952
0.0430863
0.0597159
0.0784703
0.0959664
0.111099
0.123952
0.134958
0.144323
0.15216
0.0312693
0.0415084
0.0564565
0.0741941
0.0913382
0.10647
0.119419
0.130504
0.139986
0.147321
0.0313078
0.0406485
0.0538315
0.0702963
0.0868335
0.101778
0.114691
0.125705
0.13512
0.14272
0.0319614
0.040442
0.0518416
0.0668269
0.0825215
0.0971123
0.109932
0.120937
0.130418
0.138448
0.0331401
0.0408005
0.0504694
0.0638323
0.0784787
0.0925617
0.105232
0.116276
0.125882
0.134177
0.0347346
0.0416223
0.0496795
0.0613467
0.0747703
0.088183
0.100597
0.111624
0.121308
0.129753
0.0366396
0.0428067
0.0494171
0.0593845
0.0714465
0.0840207
0.0960346
0.106939
0.116631
0.125179
0.0387594
0.0442597
0.0496113
0.0579407
0.0685507
0.0801311
0.0915955
0.102266
0.111891
0.120494
0.0410106
0.0458964
0.050182
0.0569931
0.0661207
0.0765831
0.0873556
0.097676
0.107156
0.115753
0.0433257
0.0476431
0.0510468
0.0565047
0.0641847
0.0734495
0.0834031
0.0932536
0.102498
0.111022
0.0456623
0.049449
0.0521333
0.0564265
0.0627524
0.0707922
0.0798263
0.0890898
0.0980036
0.106382
)
;

boundaryField
{
    inlet
    {
        type            zeroGradient;
    }
    outlet
    {
        type            fixedValue;
        value           uniform 0;
    }
    cylinder
    {
        type            zeroGradient;
    }
    top
    {
        type            symmetryPlane;
    }
    bottom
    {
        type            symmetryPlane;
    }
    defaultFaces
    {
        type            empty;
    }
}


// ************************************************************************* //
