/*--------------------------------*- C++ -*----------------------------------*\
  =========                 |
  \\      /  F ield         | OpenFOAM: The Open Source CFD Toolbox
   \\    /   O peration     | Website:  https://openfoam.org
    \\  /    A nd           | Version:  7
     \\/     M anipulation  |
\*---------------------------------------------------------------------------*/
FoamFile
{
    version     2.0;
    format      ascii;
    class       volScalarField;
    location    "4.2";
    object      p;
}
// * * * * * * * * * * * * * * * * * * * * * * * * * * * * * * * * * * * * * //

dimensions      [0 2 -2 0 0 0 0];

internalField   nonuniform List<scalar> 
18000
(
1.02263
1.02149
1.02148
1.02174
1.02235
1.02323
1.0244
1.02588
1.02765
1.02972
1.03204
1.03461
1.0374
1.0404
1.04357
1.04688
1.0503
1.05379
1.05733
1.06089
1.06445
1.06797
1.07144
1.07485
1.07818
1.08141
1.08455
1.0876
1.09054
1.09323
1.02039
1.0193
1.01932
1.01962
1.02025
1.02114
1.02229
1.02371
1.0254
1.02735
1.02953
1.03191
1.03449
1.03725
1.04015
1.04318
1.04631
1.04951
1.05276
1.05603
1.05931
1.06257
1.06579
1.06896
1.07207
1.07512
1.07808
1.08098
1.08378
1.08636
1.01802
1.017
1.01707
1.01741
1.01807
1.01897
1.02011
1.02148
1.02308
1.0249
1.02692
1.02912
1.03148
1.03398
1.03661
1.03935
1.04218
1.04507
1.04801
1.05098
1.05396
1.05694
1.0599
1.06284
1.06573
1.06858
1.07137
1.07411
1.07678
1.07925
1.01552
1.0146
1.01471
1.01511
1.0158
1.01672
1.01784
1.01917
1.02068
1.02238
1.02424
1.02624
1.02837
1.03061
1.03295
1.03539
1.0379
1.04047
1.04309
1.04574
1.04842
1.0511
1.0538
1.05648
1.05916
1.06181
1.06443
1.06702
1.06955
1.07193
1.01294
1.01213
1.01229
1.01274
1.01347
1.0144
1.01551
1.01679
1.01822
1.01978
1.02147
1.02327
1.02516
1.02714
1.02919
1.03131
1.0335
1.03573
1.03801
1.04033
1.04269
1.04507
1.04749
1.04992
1.05237
1.05483
1.05728
1.05972
1.06213
1.0644
1.01027
1.00957
1.00979
1.01029
1.01106
1.01201
1.01311
1.01434
1.01567
1.01711
1.01863
1.02022
1.02187
1.02357
1.02532
1.02712
1.02898
1.03087
1.0328
1.03478
1.0368
1.03888
1.041
1.04318
1.0454
1.04765
1.04993
1.05224
1.05453
1.05671
1.00753
1.00696
1.00724
1.00779
1.00859
1.00956
1.01064
1.01183
1.01307
1.01438
1.01572
1.0171
1.0185
1.01992
1.02137
1.02285
1.02436
1.0259
1.02747
1.0291
1.03079
1.03255
1.03438
1.03629
1.03827
1.04032
1.04243
1.0446
1.04679
1.04888
1.00473
1.0043
1.00463
1.00523
1.00607
1.00705
1.00813
1.00926
1.01042
1.01159
1.01276
1.01392
1.01507
1.01621
1.01736
1.01851
1.01967
1.02085
1.02207
1.02334
1.02469
1.02612
1.02766
1.02929
1.03104
1.03289
1.03483
1.03686
1.03895
1.04097
1.00188
1.0016
1.00198
1.00263
1.0035
1.00449
1.00556
1.00665
1.00772
1.00875
1.00975
1.01069
1.01159
1.01247
1.01331
1.01413
1.01494
1.01576
1.01662
1.01754
1.01854
1.01965
1.02088
1.02225
1.02375
1.0254
1.02717
1.02907
1.03107
1.03302
0.998976
0.998851
0.999288
0.999987
1.00089
1.0019
1.00295
1.00399
1.00498
1.00588
1.0067
1.00744
1.0081
1.0087
1.00924
1.00974
1.01021
1.01067
1.01117
1.01173
1.0124
1.01318
1.01412
1.01521
1.01648
1.01791
1.01952
1.02128
1.0232
1.02509
0.99604
0.996072
0.99656
0.997306
0.998235
0.99926
1.00031
1.00131
1.00221
1.00299
1.00364
1.00418
1.00461
1.00494
1.00519
1.00536
1.00549
1.00561
1.00576
1.00598
1.00631
1.00678
1.00742
1.00825
1.00927
1.0105
1.01194
1.01357
1.01541
1.01724
0.993077
0.993264
0.993803
0.994595
0.995555
0.996597
0.997638
0.9986
0.999425
1.00009
1.00058
1.00092
1.00113
1.0012
1.00117
1.00104
1.00084
1.00062
1.00043
1.00031
1.00032
1.00049
1.00084
1.00141
1.0022
1.00323
1.0045
1.006
1.00775
1.00952
0.990094
0.990435
0.991021
0.991858
0.99285
0.99391
0.994948
0.995876
0.99663
0.997182
0.997532
0.997692
0.997683
0.997516
0.997209
0.996783
0.996277
0.995738
0.995223
0.994788
0.994486
0.994359
0.994439
0.994753
0.995323
0.996158
0.997256
0.998619
1.00028
1.00199
0.987099
0.987586
0.98822
0.9891
0.990126
0.991207
0.992245
0.993145
0.993836
0.994289
0.994503
0.994496
0.994288
0.993894
0.993332
0.99263
0.991831
0.99099
0.990171
0.989437
0.988845
0.988441
0.98826
0.988334
0.988686
0.989329
0.990261
0.991484
0.993045
0.9947
0.984098
0.98472
0.9854
0.986324
0.987386
0.988491
0.989534
0.990412
0.991049
0.991413
0.991506
0.991347
0.990957
0.990352
0.989553
0.988593
0.987522
0.986401
0.985301
0.98429
0.983428
0.982765
0.982339
0.982184
0.982328
0.982785
0.983554
0.984635
0.986087
0.987676
0.981098
0.981841
0.982564
0.983533
0.984632
0.985764
0.986817
0.98768
0.988273
0.988561
0.988547
0.988252
0.987697
0.986899
0.985883
0.984687
0.983365
0.981988
0.98063
0.979365
0.978254
0.97735
0.976694
0.976325
0.976272
0.976549
0.977158
0.978095
0.979428
0.980945
0.978101
0.978949
0.979715
0.980728
0.981867
0.98303
0.984097
0.984953
0.98551
0.985734
0.985629
0.985215
0.984512
0.983539
0.982325
0.980914
0.979365
0.977756
0.976164
0.974667
0.973328
0.972201
0.971333
0.970763
0.970522
0.970629
0.971082
0.971875
0.973078
0.974513
0.975111
0.976047
0.976854
0.977912
0.979092
0.980288
0.981374
0.982228
0.98276
0.982933
0.982751
0.982234
0.9814
0.98027
0.978877
0.977271
0.975519
0.9737
0.971898
0.97019
0.968643
0.967312
0.966246
0.965488
0.965073
0.965017
0.965318
0.965968
0.967034
0.968378
0.972128
0.973134
0.97398
0.975083
0.976307
0.977538
0.978646
0.979503
0.980018
0.980153
0.979909
0.979304
0.978354
0.977083
0.975528
0.973747
0.971811
0.969805
0.967814
0.965916
0.964178
0.962658
0.96141
0.96048
0.959901
0.959691
0.959847
0.960355
0.961279
0.962523
0.969151
0.970208
0.971092
0.972242
0.97351
0.974778
0.975909
0.976775
0.977281
0.977388
0.977094
0.976411
0.975358
0.97396
0.97226
0.970321
0.96822
0.966045
0.963883
0.961812
0.9599
0.958208
0.956793
0.955703
0.954972
0.954619
0.954637
0.955008
0.955787
0.956928
0.966175
0.967266
0.968186
0.969383
0.970697
0.972003
0.973159
0.974035
0.974538
0.974626
0.97429
0.97354
0.972394
0.97088
0.969047
0.966964
0.964714
0.962386
0.960068
0.957839
0.955769
0.95392
0.952352
0.951115
0.950246
0.949759
0.949648
0.949889
0.950526
0.951561
0.963194
0.964303
0.965259
0.966503
0.967862
0.969206
0.970389
0.971277
0.97178
0.971851
0.97148
0.970668
0.969435
0.967813
0.965858
0.963643
0.961256
0.958788
0.956327
0.953953
0.951737
0.949745
0.948038
0.94667
0.945674
0.945065
0.944835
0.944956
0.945458
0.946391
0.960202
0.961315
0.962305
0.963595
0.964999
0.96638
0.967588
0.968488
0.968991
0.969048
0.968641
0.96777
0.966453
0.964729
0.962659
0.960321
0.957806
0.955207
0.952614
0.950107
0.947758
0.945635
0.943803
0.942315
0.941205
0.940485
0.940148
0.940161
0.940542
0.941383
0.957189
0.958295
0.959318
0.960652
0.9621
0.963516
0.964746
0.965656
0.966156
0.966196
0.965752
0.964819
0.963419
0.961596
0.959416
0.956961
0.954324
0.951602
0.948885
0.946255
0.943784
0.941543
0.939597
0.938
0.936787
0.935968
0.935534
0.935454
0.935732
0.936498
0.954146
0.955238
0.956293
0.957668
0.959156
0.960603
0.961851
0.962766
0.96326
0.963276
0.962788
0.961789
0.960303
0.958381
0.956093
0.953525
0.950773
0.947935
0.945102
0.942358
0.939775
0.937426
0.935376
0.93368
0.932371
0.93146
0.93094
0.930781
0.930977
0.931694
0.951063
0.952136
0.953221
0.954636
0.95616
0.957632
0.95889
0.959804
0.960283
0.960268
0.959726
0.958654
0.957079
0.955056
0.952662
0.949984
0.947122
0.944174
0.941234
0.938384
0.935699
0.933249
0.931101
0.929309
0.927907
0.926908
0.926306
0.926077
0.926212
0.926915
0.947926
0.948981
0.950096
0.951549
0.953105
0.954594
0.955854
0.956758
0.957212
0.957154
0.956548
0.955393
0.953723
0.951598
0.949097
0.946314
0.943347
0.940297
0.937258
0.934311
0.93153
0.928985
0.92674
0.92485
0.923349
0.922253
0.921564
0.921268
0.921361
0.922087
0.944724
0.945765
0.946911
0.9484
0.949982
0.951479
0.952732
0.953614
0.954031
0.953916
0.953234
0.951988
0.950217
0.947987
0.945382
0.942496
0.939431
0.936288
0.933158
0.930124
0.927254
0.924615
0.92227
0.920271
0.918652
0.917434
0.916633
0.916256
0.916325
0.917117
0.941446
0.942481
0.943661
0.945184
0.946784
0.948279
0.949513
0.950361
0.950727
0.950542
0.949772
0.948426
0.946549
0.944212
0.941504
0.938522
0.935366
0.932139
0.92893
0.925816
0.922863
0.920132
0.91768
0.915552
0.913781
0.912387
0.911401
0.910874
0.910932
0.91192
0.938084
0.939126
0.94034
0.941894
0.943505
0.944988
0.94619
0.94699
0.94729
0.94702
0.946151
0.944698
0.942711
0.940269
0.937462
0.934389
0.931154
0.927854
0.924576
0.921392
0.918362
0.91554
0.912973
0.910697
0.90873
0.907081
0.905759
0.904806
0.904403
0.90537
1.10157
1.11507
1.12308
1.13029
1.13471
1.13791
1.13979
1.14076
1.14101
1.14069
1.13992
1.13876
1.1373
1.1356
1.1337
1.13164
1.12947
1.12726
1.12498
1.12264
1.12024
1.11778
1.11525
1.11269
1.11002
1.10739
1.10468
1.10226
1.10007
1.09907
1.09459
1.1088
1.11732
1.12496
1.12968
1.13304
1.13505
1.13614
1.13649
1.13624
1.13552
1.13444
1.13305
1.13142
1.12956
1.12755
1.12543
1.12324
1.12099
1.11869
1.1163
1.11386
1.11133
1.10876
1.10609
1.10343
1.1007
1.09825
1.09602
1.095
1.08735
1.1024
1.11147
1.11958
1.12461
1.12815
1.13028
1.1315
1.13195
1.13177
1.13112
1.13011
1.12879
1.12722
1.12541
1.12345
1.12138
1.11924
1.11702
1.11475
1.11238
1.10996
1.10744
1.10486
1.10219
1.09952
1.09678
1.09431
1.09204
1.09099
1.07983
1.09586
1.10554
1.11414
1.11948
1.12322
1.12551
1.12684
1.12738
1.1273
1.12672
1.12578
1.12452
1.12301
1.12126
1.11935
1.11734
1.11523
1.11305
1.11082
1.10847
1.10607
1.10357
1.101
1.09834
1.09567
1.09291
1.09043
1.08812
1.08704
1.07207
1.0892
1.09954
1.10865
1.11431
1.11827
1.12071
1.12216
1.1228
1.12281
1.12231
1.12144
1.12024
1.11879
1.11711
1.11526
1.11329
1.11124
1.10909
1.10689
1.10458
1.10221
1.09972
1.09718
1.09452
1.09186
1.0891
1.0866
1.08427
1.08315
1.06408
1.08241
1.09345
1.10311
1.10911
1.1133
1.1159
1.11747
1.11821
1.11831
1.1179
1.11709
1.11596
1.11457
1.11295
1.11116
1.10925
1.10724
1.10514
1.10297
1.1007
1.09836
1.0959
1.09338
1.09074
1.0881
1.08534
1.08284
1.08049
1.07933
1.05591
1.07552
1.08729
1.09752
1.10388
1.10831
1.11108
1.11278
1.11362
1.11381
1.11348
1.11274
1.11168
1.11034
1.10879
1.10707
1.10521
1.10325
1.1012
1.09907
1.09684
1.09453
1.09211
1.08962
1.08701
1.08438
1.08164
1.07913
1.07676
1.07557
1.04757
1.06853
1.08106
1.0919
1.09864
1.10331
1.10625
1.10807
1.10902
1.1093
1.10906
1.10839
1.1074
1.10612
1.10464
1.10297
1.10117
1.09926
1.09726
1.09518
1.09299
1.09072
1.08834
1.08589
1.08331
1.08071
1.07799
1.07548
1.0731
1.07188
1.03912
1.06147
1.07478
1.08624
1.09337
1.09829
1.10141
1.10336
1.10442
1.10479
1.10463
1.10404
1.10311
1.10191
1.10048
1.09888
1.09713
1.09529
1.09333
1.0913
1.08916
1.08693
1.0846
1.08219
1.07964
1.07709
1.07439
1.07188
1.0695
1.06826
1.03061
1.05434
1.06846
1.08055
1.08808
1.09326
1.09656
1.09865
1.09981
1.10028
1.1002
1.09969
1.09883
1.09769
1.09633
1.0948
1.09311
1.09132
1.08942
1.08743
1.08534
1.08317
1.08088
1.07852
1.07602
1.0735
1.07084
1.06835
1.06596
1.06469
1.02209
1.04718
1.06211
1.07483
1.08278
1.08822
1.09171
1.09394
1.09521
1.09578
1.09578
1.09534
1.09456
1.09349
1.09219
1.09072
1.08909
1.08736
1.08551
1.08358
1.08154
1.07942
1.07719
1.07488
1.07243
1.06996
1.06734
1.06488
1.06249
1.0612
1.01362
1.04001
1.05575
1.0691
1.07746
1.08318
1.08686
1.08923
1.09061
1.09128
1.09137
1.091
1.09029
1.08929
1.08806
1.08665
1.08508
1.0834
1.08161
1.07974
1.07776
1.0757
1.07352
1.07128
1.06889
1.06647
1.06389
1.06146
1.05907
1.05777
1.00527
1.03285
1.04939
1.06335
1.07214
1.07813
1.08202
1.08453
1.08603
1.08679
1.08696
1.08667
1.08603
1.08509
1.08393
1.08259
1.08108
1.07946
1.07772
1.07591
1.074
1.07199
1.06988
1.0677
1.06537
1.06302
1.0605
1.0581
1.05573
1.0544
0.997084
1.02572
1.04304
1.05759
1.06682
1.07309
1.07718
1.07983
1.08145
1.08231
1.08256
1.08235
1.08178
1.08092
1.07982
1.07854
1.07709
1.07553
1.07385
1.0721
1.07025
1.06831
1.06626
1.06415
1.0619
1.05961
1.05715
1.05481
1.05245
1.05111
0.989129
1.01865
1.03673
1.05183
1.06149
1.06804
1.07235
1.07515
1.07689
1.07784
1.07818
1.07804
1.07754
1.07675
1.07571
1.0745
1.07311
1.07161
1.06999
1.0683
1.06652
1.06464
1.06267
1.06063
1.05845
1.05624
1.05386
1.05157
1.04923
1.04789
0.981446
1.01166
1.03046
1.04608
1.05617
1.06301
1.06753
1.07049
1.07234
1.07339
1.07381
1.07375
1.07332
1.0726
1.07162
1.07047
1.06914
1.0677
1.06615
1.06452
1.0628
1.061
1.0591
1.05714
1.05504
1.05291
1.05061
1.04839
1.04609
1.04474
0.974069
1.00479
1.02425
1.04035
1.05085
1.05798
1.06272
1.06584
1.06781
1.06895
1.06946
1.06947
1.06911
1.06846
1.06755
1.06645
1.06518
1.0638
1.06231
1.06075
1.05911
1.05737
1.05555
1.05368
1.05167
1.04963
1.04742
1.04528
1.04303
1.04167
0.967024
0.998042
1.01811
1.03464
1.04555
1.05298
1.05794
1.06121
1.0633
1.06454
1.06512
1.06521
1.06493
1.06434
1.06349
1.06245
1.06123
1.05992
1.0585
1.057
1.05542
1.05377
1.05202
1.05023
1.04831
1.04637
1.04427
1.04222
1.04003
1.03869
0.960324
0.991451
1.01205
1.02896
1.04026
1.04799
1.05317
1.05661
1.05882
1.06015
1.06081
1.06098
1.06076
1.06023
1.05944
1.05846
1.0573
1.05605
1.05469
1.05326
1.05175
1.05017
1.0485
1.0468
1.04499
1.04315
1.04116
1.03923
1.03712
1.03579
0.953975
0.985035
1.00609
1.02332
1.035
1.04303
1.04844
1.05204
1.05437
1.05579
1.05653
1.05676
1.05661
1.05614
1.05541
1.05448
1.05339
1.05219
1.0509
1.04953
1.04809
1.04659
1.045
1.04339
1.04168
1.03997
1.0381
1.0363
1.03429
1.03299
0.947975
0.978811
1.00023
1.01773
1.02976
1.03809
1.04374
1.0475
1.04995
1.05146
1.05228
1.05258
1.05248
1.05207
1.05139
1.05052
1.04948
1.04835
1.04711
1.04582
1.04444
1.04302
1.04151
1.04
1.0384
1.03681
1.03508
1.03343
1.03155
1.03029
0.942322
0.972793
0.994489
1.0122
1.02457
1.03319
1.03907
1.043
1.04557
1.04717
1.04805
1.04842
1.04838
1.04802
1.0474
1.04658
1.04559
1.04452
1.04334
1.04211
1.0408
1.03946
1.03804
1.03662
1.03513
1.03368
1.03211
1.03063
1.0289
1.0277
0.937009
0.966994
0.988871
1.00674
1.01942
1.02834
1.03445
1.03854
1.04123
1.04291
1.04386
1.04429
1.0443
1.044
1.04342
1.04265
1.04172
1.0407
1.03958
1.03842
1.03717
1.03591
1.03457
1.03325
1.03188
1.03057
1.02916
1.02788
1.02635
1.02524
0.932033
0.961425
0.983386
1.00135
1.01433
1.02354
1.02987
1.03412
1.03693
1.03869
1.03971
1.04019
1.04026
1.03999
1.03947
1.03874
1.03786
1.0369
1.03584
1.03473
1.03355
1.03236
1.0311
1.02988
1.02864
1.02748
1.02626
1.0252
1.0239
1.02292
0.927398
0.956095
0.97804
0.996068
1.00931
1.01879
1.02534
1.02976
1.03268
1.03452
1.03559
1.03613
1.03624
1.03602
1.03553
1.03485
1.03402
1.0331
1.0321
1.03105
1.02993
1.02881
1.02764
1.02652
1.02541
1.0244
1.02337
1.02257
1.02155
1.02076
0.923109
0.951015
0.97285
0.990896
1.00438
1.01412
1.02088
1.02545
1.02848
1.0304
1.03153
1.03211
1.03226
1.03207
1.03162
1.03098
1.03019
1.02933
1.02837
1.02737
1.02632
1.02527
1.02419
1.02317
1.02217
1.02133
1.02051
1.01998
1.01931
1.01877
0.919181
0.946187
0.967828
0.985858
0.999548
1.00953
1.0165
1.02122
1.02434
1.02633
1.02751
1.02813
1.02831
1.02815
1.02774
1.02713
1.02639
1.02556
1.02465
1.0237
1.02271
1.02172
1.02072
1.01981
1.01894
1.01826
1.01766
1.01744
1.01717
1.017
0.915639
0.941547
0.962889
0.980873
0.994755
1.00497
1.01214
1.01701
1.02023
1.02229
1.02351
1.02416
1.02437
1.02424
1.02386
1.02328
1.02258
1.02179
1.02092
1.02003
1.01909
1.01817
1.01725
1.01644
1.01569
1.01517
1.0148
1.01492
1.01513
1.01547
0.912361
0.936881
0.957826
0.975752
0.989827
1.00029
1.00768
1.01272
1.01605
1.01818
1.01946
1.02015
1.02039
1.02029
1.01994
1.0194
1.01873
1.01799
1.01716
1.01632
1.01544
1.01459
1.01375
1.01303
1.01241
1.01206
1.01192
1.01239
1.01317
1.01424
0.909333
0.932494
0.953111
0.970951
0.985118
0.995736
1.00329
1.00846
1.01189
1.01409
1.01542
1.01614
1.01641
1.01634
1.01602
1.01552
1.01488
1.01418
1.0134
1.0126
1.01177
1.01098
1.01023
1.0096
1.00909
1.00889
1.00898
1.00982
1.01123
1.01332
0.898811
0.921185
0.941805
0.959674
0.973853
0.984547
0.992191
0.997412
1.00083
1.00301
1.00431
1.00501
1.00527
1.00521
1.0049
1.00442
1.00382
1.00315
1.00243
1.00171
1.00099
1.00034
0.99976
0.999346
0.999129
0.999307
0.999987
1.0018
1.00514
1.01097
0.876435
0.898338
0.918073
0.934737
0.948123
0.958601
0.966427
0.972034
0.975935
0.978593
0.980352
0.981469
0.982115
0.982415
0.982457
0.982317
0.982043
0.981688
0.981277
0.98086
0.980452
0.980114
0.979872
0.979825
0.980027
0.98071
0.982054
0.984825
0.989641
0.997391
0.852946
0.874183
0.892834
0.908547
0.921442
0.931844
0.939874
0.945855
0.950218
0.953356
0.955583
0.957144
0.958213
0.958919
0.959352
0.959591
0.959681
0.959679
0.959612
0.959531
0.959455
0.959451
0.959546
0.959849
0.960419
0.9615
0.963278
0.966533
0.971901
0.980305
0.828245
0.848723
0.866475
0.881574
0.894191
0.904577
0.912797
0.919109
0.923884
0.927466
0.930142
0.932143
0.933639
0.93476
0.935597
0.936226
0.936697
0.937067
0.937362
0.937636
0.937907
0.938244
0.938674
0.939307
0.940199
0.941592
0.943653
0.947128
0.952578
0.961095
0.802626
0.822398
0.839441
0.854069
0.866454
0.876814
0.885195
0.891808
0.896972
0.900986
0.904109
0.906556
0.90849
0.910038
0.911287
0.912318
0.913179
0.913929
0.914593
0.915225
0.915844
0.916516
0.917267
0.918202
0.919372
0.921007
0.923243
0.926778
0.932064
0.940388
0.776126
0.795301
0.811762
0.82599
0.838169
0.848501
0.857025
0.863914
0.869442
0.873873
0.877437
0.88033
0.882707
0.884688
0.886359
0.887798
0.889054
0.890185
0.891216
0.892202
0.893158
0.894151
0.895199
0.896406
0.897811
0.899631
0.901969
0.905472
0.910498
0.918517
0.748753
0.767428
0.783404
0.797298
0.809311
0.819632
0.828293
0.83544
0.841313
0.846144
0.850136
0.853469
0.856284
0.858699
0.860791
0.862641
0.864291
0.8658
0.867192
0.868522
0.869802
0.871096
0.872418
0.873866
0.875469
0.877431
0.879825
0.883255
0.888001
0.895688
0.720517
0.738768
0.754344
0.767973
0.779865
0.790198
0.799
0.806396
0.812598
0.817812
0.822216
0.825977
0.829223
0.832063
0.834574
0.836828
0.838866
0.840746
0.842492
0.844154
0.845743
0.847319
0.848894
0.850558
0.852333
0.854409
0.856835
0.860179
0.864655
0.872009
0.691432
0.709324
0.724576
0.738001
0.749814
0.760181
0.769128
0.776765
0.783283
0.788863
0.793665
0.797839
0.801505
0.804763
0.807684
0.810334
0.812753
0.814997
0.817085
0.819068
0.820952
0.822795
0.824605
0.826466
0.828395
0.830567
0.833013
0.836269
0.84049
0.847507
0.661516
0.679104
0.694094
0.707366
0.719135
0.729554
0.73865
0.746523
0.753343
0.759274
0.764459
0.769033
0.773106
0.776771
0.780092
0.78313
0.785922
0.788521
0.790942
0.793234
0.795402
0.797499
0.799531
0.801577
0.803646
0.805904
0.808364
0.811532
0.815511
0.822188
0.630789
0.648113
0.662891
0.676051
0.687803
0.69829
0.707541
0.715645
0.722756
0.729025
0.734578
0.739537
0.744002
0.748061
0.751768
0.755184
0.758341
0.761285
0.764031
0.766622
0.769064
0.771405
0.773649
0.775868
0.778067
0.7804
0.782868
0.785946
0.789693
0.79602
0.599269
0.616361
0.630964
0.644041
0.655799
0.666368
0.67578
0.68411
0.691503
0.698096
0.704001
0.709328
0.71417
0.718606
0.722688
0.726471
0.729979
0.733257
0.736317
0.7392
0.741907
0.744484
0.746932
0.749318
0.751642
0.754048
0.756524
0.759517
0.763037
0.769008
0.566976
0.583854
0.598307
0.611325
0.623107
0.633771
0.643346
0.651898
0.659562
0.666465
0.672706
0.678384
0.683585
0.688383
0.692824
0.696958
0.700804
0.704404
0.707767
0.71093
0.713893
0.716697
0.719339
0.72188
0.724317
0.726784
0.729261
0.73217
0.735478
0.74107
0.533919
0.550595
0.564919
0.577895
0.589713
0.60048
0.610219
0.618988
0.626913
0.634111
0.640671
0.646683
0.652225
0.657365
0.662147
0.666613
0.670782
0.67469
0.678343
0.681775
0.684983
0.688006
0.690838
0.693535
0.696091
0.698625
0.701109
0.703932
0.707026
0.712263
0.500118
0.516593
0.530797
0.543741
0.555606
0.56648
0.576381
0.585362
0.593535
0.601013
0.607876
0.614202
0.620063
0.625524
0.630624
0.635402
0.639875
0.644073
0.648
0.651685
0.655124
0.658349
0.661353
0.664185
0.666835
0.669418
0.671904
0.674657
0.677568
0.682382
0.465585
0.481852
0.49594
0.508859
0.520776
0.531757
0.541817
0.551001
0.55941
0.567151
0.574296
0.580916
0.587072
0.59283
0.598223
0.603289
0.608042
0.612508
0.616689
0.620613
0.624273
0.627698
0.630878
0.633855
0.636611
0.639245
0.641719
0.644374
0.647101
0.65161
0.430331
0.446373
0.460349
0.473246
0.485215
0.4963
0.506513
0.51589
0.524521
0.532506
0.539911
0.546798
0.553224
0.559249
0.564907
0.570232
0.575236
0.579943
0.584353
0.588489
0.59234
0.59593
0.599247
0.602331
0.605171
0.607862
0.61036
0.612959
0.615492
0.61949
0.394364
0.410158
0.424023
0.436901
0.44892
0.460101
0.470456
0.480014
0.488849
0.497058
0.5047
0.511827
0.518491
0.52475
0.530636
0.536185
0.541407
0.546327
0.550944
0.555279
0.559318
0.563081
0.566546
0.569737
0.572625
0.575295
0.577719
0.580216
0.582674
0.586466
0.357697
0.373208
0.386969
0.399828
0.411888
0.423152
0.433637
0.443362
0.452384
0.460794
0.468644
0.475978
0.482844
0.489297
0.495371
0.501103
0.506501
0.51159
0.516365
0.520841
0.525007
0.528882
0.532453
0.535752
0.538757
0.541528
0.54399
0.546367
0.548477
0.551634
0.32035
0.335534
0.349199
0.362039
0.374123
0.385452
0.39605
0.405926
0.415117
0.4237
0.431724
0.439227
0.446252
0.452853
0.459066
0.464932
0.470463
0.475688
0.480603
0.48522
0.489519
0.493496
0.497116
0.500396
0.503321
0.505983
0.508361
0.510723
0.512949
0.515961
0.282388
0.297177
0.310754
0.323562
0.335636
0.346998
0.357689
0.3677
0.377038
0.385764
0.393924
0.401554
0.408692
0.415387
0.421681
0.427614
0.433205
0.438481
0.443441
0.448104
0.452463
0.456533
0.460286
0.463716
0.466752
0.469405
0.471606
0.473604
0.475358
0.477777
0.243995
0.258275
0.271727
0.284448
0.296448
0.307799
0.318557
0.328684
0.338144
0.346977
0.35523
0.362937
0.370126
0.376851
0.383159
0.389103
0.394712
0.400014
0.405004
0.40968
0.414007
0.417984
0.421599
0.424892
0.427867
0.430576
0.43293
0.435048
0.436795
0.438785
0.20559
0.219141
0.23231
0.244801
0.256608
0.267875
0.278663
0.288884
0.298439
0.307344
0.315647
0.323377
0.330553
0.337226
0.343451
0.349285
0.35477
0.359958
0.364872
0.369541
0.373939
0.378028
0.381714
0.384937
0.387651
0.389941
0.391825
0.393526
0.395015
0.396532
0.167969
0.1804
0.192899
0.204842
0.216241
0.227304
0.238062
0.248332
0.257935
0.266856
0.275145
0.282826
0.289911
0.296456
0.302528
0.308198
0.313509
0.318499
0.323176
0.327563
0.331669
0.335519
0.339105
0.34241
0.345344
0.347845
0.349766
0.351193
0.35215
0.352963
0.132287
0.14303
0.154193
0.165029
0.175639
0.186274
0.196872
0.207107
0.216699
0.225589
0.233809
0.241361
0.24824
0.254505
0.260243
0.265564
0.270563
0.275327
0.27988
0.284196
0.288175
0.291735
0.294843
0.297574
0.300007
0.302206
0.304023
0.305351
0.306003
0.305927
0.0997975
0.108231
0.117242
0.126233
0.135492
0.145278
0.155384
0.165333
0.174746
0.183486
0.191532
0.198861
0.205455
0.211367
0.216676
0.221482
0.225893
0.230032
0.234005
0.23789
0.241674
0.245268
0.24851
0.251267
0.253481
0.255245
0.256571
0.257399
0.257499
0.256673
0.0714221
0.0771417
0.0833341
0.0897728
0.0970455
0.105375
0.114406
0.12361
0.132544
0.140939
0.148639
0.155543
0.16162
0.166962
0.171707
0.175997
0.179929
0.183555
0.186897
0.190001
0.192926
0.195726
0.198387
0.200828
0.202922
0.204619
0.205823
0.206301
0.205565
0.203399
0.0472676
0.0503085
0.053578
0.0571005
0.0618755
0.0679492
0.0749083
0.0824271
0.0901706
0.0977609
0.104842
0.111137
0.116504
0.120986
0.12475
0.128024
0.131034
0.133956
0.136867
0.139733
0.142409
0.144752
0.146706
0.148341
0.149753
0.151024
0.1521
0.152594
0.151521
0.148433
0.0265498
0.0273481
0.0280942
0.0290648
0.0317341
0.0353092
0.0394961
0.0443918
0.0498695
0.0555921
0.0611918
0.0663417
0.0707841
0.0743832
0.0771206
0.0791248
0.080666
0.0820959
0.0837083
0.0856049
0.0876428
0.0895448
0.0910716
0.0921713
0.0929343
0.0935071
0.0939913
0.0942517
0.0931042
0.0893822
0.00814062
0.00710611
0.00300845
0.00204385
0.0044225
0.00615627
0.00760658
0.00947457
0.0118564
0.0145856
0.017458
0.0202751
0.022847
0.0250302
0.0267282
0.0279324
0.0287317
0.0292998
0.0298203
0.0304356
0.0311791
0.0319787
0.0327065
0.0332788
0.0336683
0.033881
0.0339371
0.0339831
0.0335116
0.0305674
0.882141
0.859673
0.836006
0.811156
0.785594
0.759164
0.731879
0.703758
0.674798
0.645022
0.614462
0.583121
0.551033
0.51821
0.484678
0.450462
0.415577
0.380061
0.343958
0.307351
0.27037
0.233272
0.196501
0.160769
0.127037
0.0963047
0.0693371
0.0462808
0.0263738
0.00853071
0.876935
0.853879
0.830123
0.805288
0.779823
0.753494
0.726306
0.698282
0.669421
0.639745
0.609287
0.57805
0.546069
0.513358
0.479944
0.445854
0.411104
0.375736
0.339797
0.30338
0.266621
0.22979
0.193358
0.158055
0.124838
0.0946819
0.0682974
0.0457621
0.0262252
0.00859919
0.871491
0.848219
0.8244
0.799581
0.774199
0.747968
0.720874
0.692942
0.664181
0.634605
0.604249
0.573116
0.541245
0.50865
0.475355
0.441395
0.406781
0.371563
0.335789
0.299561
0.263025
0.226459
0.190355
0.155445
0.122683
0.093023
0.0671629
0.0451456
0.0260118
0.0086207
0.865885
0.842607
0.818769
0.793978
0.76867
0.742531
0.715528
0.687685
0.659017
0.629535
0.599276
0.568243
0.536477
0.503997
0.470818
0.436983
0.402503
0.367433
0.331822
0.295779
0.259462
0.223161
0.187384
0.152879
0.120593
0.0914534
0.0661183
0.0445864
0.0258167
0.00862489
0.860222
0.837066
0.813258
0.788506
0.763262
0.737203
0.710285
0.682527
0.653944
0.624548
0.594379
0.563444
0.531778
0.499407
0.466342
0.432628
0.39828
0.363354
0.327904
0.292043
0.255945
0.21991
0.184465
0.15037
0.118568
0.0899602
0.0651555
0.0440896
0.0256492
0.00861871
0.854548
0.831596
0.807861
0.783158
0.757972
0.731988
0.705146
0.677466
0.648961
0.619646
0.589562
0.558719
0.527147
0.49488
0.461925
0.42833
0.394111
0.359325
0.324033
0.288353
0.252474
0.216706
0.1816
0.147923
0.116612
0.0885412
0.0642644
0.0436436
0.0255046
0.00860234
0.848897
0.826195
0.802574
0.777934
0.752798
0.726885
0.700114
0.672502
0.644071
0.614831
0.584827
0.554069
0.522587
0.490418
0.457571
0.42409
0.389996
0.355346
0.320212
0.284712
0.249052
0.213556
0.178794
0.145546
0.114732
0.0872
0.0634437
0.0432449
0.0253812
0.00857975
0.843296
0.820868
0.797389
0.772832
0.747743
0.721891
0.695186
0.667637
0.639274
0.610106
0.580176
0.549497
0.518101
0.486026
0.453281
0.419909
0.385936
0.351421
0.316441
0.28112
0.24568
0.21046
0.176053
0.143242
0.11293
0.085938
0.0626925
0.0428927
0.0252774
0.0085504
0.837767
0.815622
0.792305
0.767847
0.742806
0.717007
0.690362
0.662873
0.634573
0.605471
0.57561
0.545005
0.513692
0.481705
0.449057
0.41579
0.381935
0.34755
0.312721
0.277579
0.242358
0.207421
0.173376
0.14101
0.111207
0.0847535
0.0620076
0.0425841
0.0251908
0.00851554
0.832325
0.810468
0.787323
0.762976
0.737987
0.712234
0.685644
0.65821
0.629969
0.600927
0.57113
0.540597
0.509361
0.477458
0.444901
0.411734
0.377994
0.343737
0.309055
0.274087
0.239088
0.204437
0.170761
0.138848
0.109559
0.0836431
0.0613841
0.0423152
0.0251184
0.00847793
0.826986
0.805414
0.782446
0.758217
0.733283
0.707573
0.681032
0.653648
0.625461
0.596474
0.566738
0.536273
0.505112
0.473286
0.440816
0.407745
0.374116
0.339983
0.305443
0.270649
0.235871
0.201509
0.168207
0.136754
0.107983
0.0826039
0.060818
0.042082
0.0250581
0.00843928
0.82176
0.800466
0.777676
0.753568
0.728694
0.703025
0.676528
0.649188
0.62105
0.592114
0.562436
0.532035
0.500943
0.469191
0.436804
0.403826
0.370303
0.336289
0.301888
0.267266
0.232711
0.198641
0.165718
0.134729
0.106481
0.0816336
0.0603059
0.041881
0.0250085
0.00840111
0.816659
0.795631
0.773016
0.749031
0.72422
0.698589
0.672132
0.64483
0.616736
0.58785
0.558224
0.527883
0.496855
0.465174
0.432868
0.39998
0.366556
0.332658
0.298395
0.263945
0.229613
0.195839
0.163299
0.132779
0.105055
0.0807309
0.0598454
0.0417096
0.0249686
0.00836474
0.811693
0.790916
0.768471
0.744609
0.719863
0.694266
0.667845
0.640576
0.612522
0.583681
0.554104
0.523818
0.492851
0.461238
0.429009
0.396207
0.362878
0.329092
0.294966
0.260689
0.226581
0.193106
0.160955
0.130907
0.103706
0.0798949
0.059434
0.0415653
0.0249447
0.00833127
0.806873
0.78633
0.764047
0.740304
0.715624
0.690059
0.66367
0.636432
0.608412
0.579611
0.550077
0.519841
0.488932
0.457385
0.425228
0.392507
0.35927
0.325593
0.291604
0.2575
0.223619
0.190447
0.158688
0.129114
0.102435
0.0791235
0.0590688
0.0414446
0.0249206
0.00830081
0.802208
0.78188
0.759751
0.736119
0.711506
0.685971
0.65961
0.632398
0.604407
0.575642
0.546145
0.515955
0.4851
0.453614
0.421526
0.388881
0.355732
0.322161
0.288308
0.254376
0.220725
0.187861
0.156497
0.1274
0.101236
0.0784134
0.058746
0.0413444
0.024899
0.0082738
0.797706
0.777572
0.755586
0.732058
0.70751
0.682003
0.655667
0.628478
0.60051
0.571775
0.542312
0.512162
0.481358
0.449928
0.417903
0.38533
0.352266
0.318797
0.285077
0.251317
0.217897
0.185345
0.154381
0.125762
0.100109
0.0777615
0.058462
0.0412619
0.0248808
0.00825059
0.793374
0.773412
0.751558
0.728123
0.703637
0.678158
0.651842
0.624672
0.596723
0.568012
0.538579
0.508465
0.477706
0.446326
0.41436
0.381853
0.348871
0.315501
0.281909
0.24832
0.215134
0.182899
0.152337
0.124197
0.0990492
0.0771645
0.0582135
0.0411946
0.0248652
0.00823137
0.78922
0.769406
0.747671
0.724319
0.699892
0.674436
0.648138
0.620983
0.593048
0.564357
0.534949
0.504867
0.474147
0.442811
0.410898
0.378455
0.34555
0.312274
0.278808
0.245388
0.212437
0.180522
0.150366
0.122706
0.0980555
0.0766199
0.0579977
0.0411404
0.0248514
0.0082162
0.785252
0.765561
0.743931
0.720651
0.696276
0.670841
0.644555
0.61741
0.589487
0.560811
0.531426
0.501369
0.470682
0.439385
0.407522
0.375137
0.342304
0.30912
0.275775
0.242525
0.209809
0.178217
0.148469
0.121287
0.097127
0.0761255
0.0578121
0.0410966
0.0248389
0.00820499
0.781476
0.761884
0.740345
0.717123
0.692793
0.667374
0.641097
0.613958
0.586041
0.557377
0.528009
0.497973
0.467314
0.436052
0.404233
0.371902
0.339138
0.306041
0.272815
0.239735
0.207255
0.175987
0.146648
0.119941
0.096263
0.0756797
0.0576547
0.041062
0.0248272
0.00819757
0.777898
0.75838
0.736917
0.713739
0.689446
0.664037
0.637765
0.610626
0.582713
0.554055
0.5247
0.49468
0.464044
0.432813
0.401034
0.368754
0.336053
0.303041
0.269933
0.237022
0.204778
0.173834
0.144905
0.118669
0.0954631
0.0752804
0.057523
0.0410521
0.0248162
0.00819365
0.774524
0.755055
0.733652
0.710505
0.686239
0.660833
0.634561
0.607419
0.579504
0.550846
0.5215
0.491491
0.460875
0.42967
0.397927
0.365692
0.33305
0.300121
0.267129
0.234387
0.202379
0.17176
0.143241
0.11747
0.0947258
0.0749251
0.057414
0.0410318
0.024805
0.00819296
0.771358
0.751915
0.730556
0.707423
0.683176
0.657766
0.631488
0.604335
0.576415
0.547752
0.518409
0.488408
0.457807
0.426625
0.394911
0.362716
0.33013
0.297282
0.264403
0.23183
0.200058