/*--------------------------------*- C++ -*----------------------------------*\
  =========                 |
  \\      /  F ield         | OpenFOAM: The Open Source CFD Toolbox
   \\    /   O peration     | Website:  https://openfoam.org
    \\  /    A nd           | Version:  7
     \\/     M anipulation  |
\*---------------------------------------------------------------------------*/
FoamFile
{
    version     2.0;
    format      ascii;
    class       volVectorField;
    location    "4.2";
    object      U;
}
// * * * * * * * * * * * * * * * * * * * * * * * * * * * * * * * * * * * * * //

dimensions      [0 1 -1 0 0 0 0];

internalField   nonuniform List<vector> 
18000
(
(-0.00109048 0.015411 1.17063e-20)
(-0.00554679 0.0457208 0)
(-0.0127789 0.0758242 0)
(-0.020708 0.103902 0)
(-0.0287893 0.129477 -3.85225e-21)
(-0.0364863 0.152593 1.94873e-20)
(-0.043465 0.173453 -3.94496e-21)
(-0.0495233 0.19225 3.97217e-21)
(-0.0545457 0.209117 0)
(-0.058476 0.224116 -1.20356e-20)
(-0.0613038 0.237254 -4.028e-21)
(-0.0630452 0.24851 0)
(-0.0637351 0.25786 8.05237e-21)
(-0.0634219 0.265293 8.07264e-21)
(-0.0621581 0.270822 -1.61226e-20)
(-0.0599988 0.274488 -1.60873e-20)
(-0.0569987 0.276365 0)
(-0.0532101 0.276547 -2.40013e-20)
(-0.0486834 0.275155 7.96004e-21)
(-0.0434671 0.272328 -2.37836e-20)
(-0.0376073 0.268217 7.88034e-21)
(-0.031149 0.262982 0)
(-0.024138 0.256791 -7.74518e-21)
(-0.0166234 0.249811 -7.73417e-21)
(-0.00866144 0.242212 0)
(-0.000318803 0.234164 0)
(0.00832423 0.22583 -1.51045e-20)
(0.0171886 0.217368 -1.49816e-20)
(0.0261662 0.209011 -1.49201e-20)
(0.0349013 0.201028 1.65949e-20)
(-0.00151688 0.0165302 1.66565e-20)
(-0.00669947 0.0481671 2.89709e-20)
(-0.0145523 0.0790501 -2.96425e-20)
(-0.0230342 0.107546 -3.02164e-20)
(-0.031615 0.133254 -7.68699e-21)
(-0.0397764 0.15628 2.33009e-20)
(-0.0471973 0.176876 -3.14326e-20)
(-0.0536798 0.195271 -3.16932e-20)
(-0.059103 0.211631 3.18935e-20)
(-0.0634089 0.22605 3.20412e-20)
(-0.0665868 0.238554 -1.60654e-20)
(-0.0686464 0.24914 -3.21908e-20)
(-0.0696177 0.257795 -1.61489e-20)
(-0.0695463 0.264517 3.21856e-20)
(-0.06848 0.269327 -3.21316e-20)
(-0.0664687 0.272269 3.21202e-20)
(-0.0635645 0.273419 -6.40181e-20)
(-0.0598171 0.272874 4.78264e-20)
(-0.0552736 0.270757 -3.16827e-20)
(-0.0499794 0.267207 1.58341e-20)
(-0.0439792 0.262377 -3.13412e-20)
(-0.0373182 0.256433 0)
(-0.030043 0.249545 1.56874e-20)
(-0.022204 0.241892 -3.07694e-20)
(-0.0138605 0.233656 3.05009e-20)
(-0.00508257 0.225024 0)
(0.00404293 0.216185 -1.49202e-20)
(0.0134271 0.207325 1.48479e-20)
(0.0229394 0.198715 5.91023e-20)
(0.0322096 0.190666 3.28917e-20)
(-0.00198198 0.0175287 -2.66919e-20)
(-0.00789143 0.0503675 -2.89703e-20)
(-0.0163037 0.0820186 4.44489e-20)
(-0.0252538 0.110941 7.54243e-20)
(-0.0342352 0.136804 0)
(-0.0427527 0.159766 -3.11039e-20)
(-0.0504991 0.18012 3.14318e-20)
(-0.0572858 0.198137 9.49367e-20)
(-0.0629921 0.214016 -3.18927e-20)
(-0.0675592 0.227872 -3.20389e-20)
(-0.0709707 0.239758 9.62439e-20)
(-0.0732351 0.249687 3.21901e-20)
(-0.0743775 0.257658 0)
(-0.0744378 0.263678 -6.43598e-20)
(-0.0734614 0.267773 9.60964e-20)
(-0.0714948 0.269994 -3.19171e-20)
(-0.0685863 0.270416 3.19524e-20)
(-0.0647828 0.269139 3.18041e-20)
(-0.060129 0.266287 1.16169e-22)
(-0.0546694 0.262 0)
(-0.0484486 0.256434 9.39513e-20)
(-0.0415116 0.249757 -6.20427e-20)
(-0.0339067 0.242147 3.09428e-20)
(-0.0256873 0.233791 0)
(-0.0169153 0.224885 -3.05004e-20)
(-0.00766579 0.215635 1.20581e-19)
(0.00196909 0.206255 -8.94244e-20)
(0.0118941 0.196966 -2.97757e-20)
(0.0219564 0.18808 2.91333e-20)
(0.0317682 0.179958 3.27154e-20)
(-0.00248012 0.0185015 0)
(-0.00912186 0.0525004 1.44351e-20)
(-0.0180471 0.0848592 3.69719e-24)
(-0.0273851 0.114178 -7.535e-20)
(-0.0366617 0.140185 0)
(-0.0454198 0.163088 -6.19321e-20)
(-0.0533711 0.183212 0)
(-0.0603362 0.200866 -9.48515e-20)
(-0.066199 0.216276 3.17575e-20)
(-0.0708995 0.229587 -6.37612e-20)
(-0.0744191 0.24087 -6.41059e-20)
(-0.0767625 0.250157 -3.20888e-20)
(-0.0779518 0.257458 3.20268e-20)
(-0.0780233 0.26279 3.18845e-20)
(-0.0770179 0.266183 -3.2115e-20)
(-0.0749786 0.267691 -6.35773e-20)
(-0.0719519 0.267392 6.3438e-20)
(-0.0679829 0.265387 0)
(-0.0631148 0.261799 0)
(-0.0573917 0.256771 0)
(-0.0508589 0.250461 0)
(-0.0435636 0.243041 0)
(-0.035557 0.234694 0)
(-0.0268961 0.225618 -6.07196e-20)
(-0.0176463 0.216022 -6.05187e-20)
(-0.00788737 0.206128 -2.66391e-22)
(0.00228389 0.196179 -5.94213e-20)
(0.0127662 0.186431 -2.8303e-22)
(0.0233896 0.177243 -5.8922e-20)
(0.0337434 0.169036 1.29763e-19)
(-0.00300935 0.0193643 0)
(-0.0103798 0.0543916 1.29446e-19)
(-0.0197557 0.0874088 4.42624e-24)
(-0.0293975 0.117111 -4.50717e-20)
(-0.03887 0.143273 1.52485e-19)
(-0.0477548 0.166139 9.28775e-20)
(-0.0557875 0.186064 9.36354e-20)
(-0.0628042 0.203385 0)
(-0.0686935 0.218359 0)
(-0.0733954 0.231154 9.56251e-20)
(-0.0768907 0.241864 5.45651e-23)
(-0.0791818 0.250535 -2.23575e-19)
(-0.0802869 0.257191 1.91491e-19)
(-0.080238 0.261856 -6.39477e-20)
(-0.0790739 0.264568 6.33911e-20)
(-0.0768353 0.265382 6.34879e-20)
(-0.0735667 0.264377 -6.30347e-20)
(-0.0693118 0.261657 6.30177e-20)
(-0.0641142 0.257344 1.25054e-19)
(-0.0580192 0.251583 -6.21776e-20)
(-0.0510747 0.244534 -1.23353e-19)
(-0.043331 0.236373 1.22496e-19)
(-0.0348435 0.22729 -1.21599e-19)
(-0.0256746 0.217491 6.0718e-20)
(-0.0158941 0.207196 0)
(-0.00558642 0.196647 0)
(0.00514685 0.186109 5.46439e-22)
(0.0161995 0.175877 -2.33705e-19)
(0.0273909 0.166359 1.15683e-19)
(0.0382813 0.158052 -1.28884e-19)
(-0.00356006 0.0201309 0)
(-0.0116508 0.0560799 -1.15043e-19)
(-0.0214245 0.0896937 1.17433e-19)
(-0.0312916 0.119751 0)
(-0.0408586 0.146067 -2.43636e-19)
(-0.049757 0.168913 -3.0873e-20)
(-0.05775 0.188665 -6.25075e-20)
(-0.0646878 0.205684 -3.14151e-20)
(-0.0704683 0.220254 0)
(-0.0750351 0.232565 -6.35572e-20)
(-0.0783676 0.242731 6.36203e-20)
(-0.0804659 0.250816 1.27655e-19)
(-0.0813459 0.256856 -1.27628e-19)
(-0.0810372 0.260884 0)
(-0.0795756 0.262941 -1.27149e-19)
(-0.0770006 0.263086 1.26208e-19)
(-0.073356 0.261399 1.26208e-19)
(-0.0686856 0.257985 1.8771e-19)
(-0.0630344 0.252969 -1.87151e-19)
(-0.0564507 0.246495 2.47433e-19)
(-0.0489865 0.238726 1.23114e-19)
(-0.0406973 0.229842 -1.22493e-19)
(-0.0316443 0.22004 2.42428e-19)
(-0.0218959 0.209531 0)
(-0.0115287 0.198547 1.18903e-19)
(-0.000631666 0.187345 2.36356e-19)
(0.0106887 0.176212 -1.16358e-19)
(0.0223222 0.165479 1.1671e-19)
(0.0340834 0.155607 -2.96791e-22)
(0.0454989 0.147178 -1.27977e-19)
(-0.00412603 0.0207793 -1.31923e-20)
(-0.0129242 0.0575118 0)
(-0.0230384 0.0916487 -1.4676e-19)
(-0.0330525 0.122033 2.98867e-20)
(-0.0426191 0.148504 9.12742e-20)
(-0.0514198 0.171348 3.07661e-20)
(-0.0592498 0.190958 1.24261e-19)
(-0.0659786 0.207713 0)
(-0.071515 0.221916 6.3124e-20)
(-0.0758061 0.233782 6.32045e-20)
(-0.0788323 0.243443 -6.35273e-20)
(-0.080593 0.250979 1.90363e-19)
(-0.0811023 0.25644 0)
(-0.0803871 0.259865 0)
(-0.0784825 0.261302 1.89422e-19)
(-0.0754278 0.260813 -3.14802e-19)
(-0.0712667 0.258478 1.25075e-19)
(-0.0660446 0.254405 -1.24996e-19)
(-0.0598095 0.248718 -1.23624e-19)
(-0.0526149 0.241564 -3.69524e-19)
(-0.0445183 0.233109 -4.57248e-22)
(-0.0355818 0.223537 1.21002e-19)
(-0.0258745 0.213047 -2.40879e-19)
(-0.0154725 0.201861 1.19075e-19)
(-0.0044596 0.190216 -8.1925e-22)
(0.00706873 0.178381 -1.17903e-19)
(0.0190007 0.166663 1.16892e-19)
(0.0312227 0.155423 0)
(0.0435516 0.145178 1.13986e-19)
(0.0554762 0.136605 2.64688e-22)
(-0.00469815 0.0212982 -2.63109e-20)
(-0.0141851 0.058667 2.85784e-20)
(-0.0245865 0.0932462 -1.75316e-19)
(-0.0346737 0.123919 -8.93105e-20)
(-0.0441468 0.15054 1.21059e-19)
(-0.0527418 0.173401 -1.841e-19)
(-0.0602894 0.1929 -6.224e-20)
(-0.0666796 0.209428 -1.2494e-19)
(-0.0718348 0.223307 1.25665e-19)
(-0.0757084 0.234771 -2.52644e-19)
(-0.0782829 0.243971 -1.26406e-19)
(-0.0795577 0.251002 -4.00231e-22)
(-0.0795462 0.255925 6.3319e-20)
(-0.0782747 0.258791 -1.89196e-19)
(-0.0757781 0.25965 -2.5183e-19)
(-0.0720963 0.258568 1.9607e-22)
(-0.0672744 0.255629 -3.58137e-22)
(-0.0613611 0.250939 1.23767e-19)
(-0.0544094 0.244627 1.2362e-19)
(-0.0464792 0.23684 2.64405e-22)
(-0.0376354 0.227747 -1.64867e-22)
(-0.0279486 0.217535 1.19777e-19)
(-0.0174967 0.20641 1.20046e-19)
(-0.00636581 0.194595 -3.02956e-22)
(0.00535196 0.182336 -3.53403e-19)
(0.017554 0.169909 2.32762e-19)
(0.0301216 0.157634 2.31464e-19)
(0.0429375 0.145899 -2.28951e-19)
(0.0558274 0.135273 -1.13982e-19)
(0.0682423 0.126532 -1.2458e-19)
(-0.00526782 0.0216817 -2.35819e-19)
(-0.0154196 0.0595249 -2.85018e-20)
(-0.0260574 0.0944545 1.45982e-19)
(-0.0361484 0.125372 1.19118e-19)
(-0.0454412 0.152134 -1.21057e-19)
(-0.0537278 0.175026 1.22657e-19)
(-0.0608767 0.194443 -6.19255e-20)
(-0.0668017 0.210784 1.8729e-19)
(-0.0714403 0.224384 -1.25662e-19)
(-0.0747551 0.235492 1.26143e-19)
(-0.0767318 0.244278 6.3266e-20)
(-0.0773718 0.250852 -6.3362e-20)
(-0.076689 0.255287 -3.78008e-19)
(-0.0747102 0.257641 2.51858e-19)
(-0.0714716 0.257972 1.25661e-19)
(-0.067015 0.256347 0)
(-0.0613881 0.252856 0)
(-0.0546448 0.247605 -9.79871e-22)
(-0.0468451 0.240724 -1.22026e-19)
(-0.0380562 0.232363 0)
(-0.0283523 0.222694 0)
(-0.0178141 0.211907 -1.20234e-19)
(-0.00653031 0.200212 0)
(0.00540288 0.187836 -2.34888e-19)
(0.0178831 0.175029 0)
(0.0307992 0.162071 -1.16217e-19)
(0.0440249 0.14929 2.29728e-19)
(0.0574375 0.13709 -2.27234e-19)
(0.0708779 0.126087 0)
(0.0837625 0.117161 0)
(-0.00582605 0.021924 2.09581e-19)
(-0.0166135 0.0600704 0)
(-0.0274406 0.0952494 -2.90981e-20)
(-0.0374725 0.126357 2.96516e-20)
(-0.0465052 0.153244 -1.80528e-19)
(-0.0543873 0.176174 6.2954e-23)
(-0.0610273 0.195537 -6.16976e-20)
(-0.0663648 0.21173 0)
(-0.0703555 0.225096 0)
(-0.0729728 0.235899 -6.28273e-20)
(-0.0742083 0.244323 6.28893e-20)
(-0.0740665 0.250492 -1.25892e-19)
(-0.0725639 0.254492 1.2652e-19)
(-0.0697296 0.256389 0)
(-0.0656018 0.256246 0)
(-0.0602256 0.254138 0)
(-0.053654 0.250155 1.23011e-19)
(-0.0459472 0.244405 -6.17277e-22)
(-0.0371733 0.237022 1.22656e-19)
(-0.0274087 0.228157 -2.4141e-19)
(-0.0167384 0.217986 1.20132e-19)
(-0.0052544 0.206703 -5.94752e-19)
(0.00694269 0.194519 6.70867e-22)
(0.0197451 0.181666 2.34877e-19)
(0.0330399 0.168395 -9.85408e-22)
(0.046706 0.154987 2.29724e-19)
(0.060608 0.141769 -2.26949e-19)
(0.0746165 0.129158 -2.25925e-19)
(0.0885927 0.117804 6.40898e-22)
(0.101926 0.108686 -2.42889e-19)
(-0.00636397 0.022023 -2.60826e-20)
(-0.0177529 0.0602946 0)
(-0.028727 0.0956122 5.80381e-20)
(-0.038644 0.126847 -5.91421e-20)
(-0.0473452 0.153831 5.41215e-19)
(-0.0547352 0.176802 6.31785e-23)
(-0.0607636 0.196133 -6.15338e-20)
(-0.0653986 0.212214 6.20811e-20)
(-0.0686159 0.225392 -3.11628e-19)
(-0.0704027 0.23594 0)
(-0.0707585 0.244056 0)
(-0.0696935 0.249876 -1.25006e-19)
(-0.0672284 0.253498 1.25712e-19)
(-0.063396 0.254997 -1.2491e-19)
(-0.0582385 0.254443 1.24379e-19)
(-0.0518059 0.251916 0)
(-0.0441581 0.247508 -4.92141e-19)
(-0.0353634 0.241332 2.4381e-19)
(-0.0254993 0.233522 1.21323e-19)
(-0.0146529 0.224235 3.61088e-19)
(-0.0029209 0.213647 0)
(0.00959189 0.201956 2.37412e-19)
(0.0227725 0.189377 2.34483e-19)
(0.0365011 0.176143 2.32352e-19)
(0.0506528 0.162506 -1.629e-21)
(0.0650965 0.148744 -2.27381e-19)
(0.0796869 0.135181 2.26938e-19)
(0.0942854 0.122233 0)
(0.108777 0.110574 6.52969e-22)
(0.12254 0.101275 4.82377e-19)
(-0.00687382 0.0219805 -2.07727e-19)
(-0.0188254 0.0601942 0)
(-0.0299089 0.0955308 -2.31099e-19)
(-0.039663 0.126818 -2.94718e-19)
(-0.0479706 0.153862 -1.80261e-19)
(-0.0547908 0.176867 6.07972e-20)
(-0.0601147 0.196181 6.16745e-23)
(-0.0639412 0.212181 -6.1854e-20)
(-0.0662686 0.225214 6.94925e-22)
(-0.0671002 0.235558 1.24903e-19)
(-0.0664463 0.24342 1.24707e-19)
(-0.0643249 0.24895 -1.24231e-19)
(-0.0607635 0.252255 1.24798e-19)
(-0.0558002 0.253419 -3.72816e-19)
(-0.0494831 0.25252 3.71188e-19)
(-0.0418691 0.249643 2.45936e-19)
(-0.0330264 0.244885 6.12289e-19)
(-0.0230331 0.238361 -1.22809e-19)
(-0.0119775 0.230208 -2.40694e-19)
(4.15413e-05 0.220586 -1.33851e-21)
(0.0129147 0.209675 -2.37301e-19)
(0.026524 0.197675 7.04803e-19)
(0.0407433 0.184803 -4.67575e-19)
(0.0554402 0.171295 4.60884e-19)
(0.0704782 0.157401 -2.29504e-19)
(0.0857155 0.143396 4.53117e-19)
(0.100997 0.129595 9.75969e-22)
(0.116173 0.116403 -4.44652e-19)
(0.131154 0.104509 4.3948e-19)
(0.145326 0.0950588 2.36937e-19)
(-0.00734875 0.0218009 2.07726e-19)
(-0.0198205 0.0597731 0)
(-0.0309804 0.0950006 5.19262e-19)
(-0.0405319 0.126254 1.7687e-19)
(-0.0483939 0.153309 0)
(-0.0545774 0.176328 0)
(-0.0591153 0.195631 0)
(-0.0620387 0.211576 0)
(-0.0633707 0.224503 1.24414e-19)
(-0.0631338 0.23469 1.24472e-19)
(-0.0613516 0.242353 -2.49724e-19)
(-0.0580527 0.247651 2.49645e-19)
(-0.0532735 0.250701 3.72697e-19)
(-0.0470599 0.251597 1.2441e-19)
(-0.0394679 0.250424 1.22401e-19)
(-0.0305631 0.247271 -3.68652e-19)
(-0.0204237 0.242241 -4.8759e-19)
(-0.00913877 0.235452 -2.42586e-19)
(0.00319138 0.227046 2.40682e-19)
(0.016455 0.217184 -4.76639e-19)
(0.0305298 0.206049 2.35921e-19)
(0.0452839 0.193844 -4.68158e-19)
(0.0605785 0.180788 2.30799e-19)
(0.0762687 0.167118 -1.40498e-21)
(0.0922061 0.153084 -2.27049e-19)
(0.108239 0.138955 -4.50796e-19)
(0.124202 0.125033 4.46258e-19)
(0.139934 0.111709 0)
(0.155369 0.0996693 -6.29842e-22)
(0.169931 0.0901217 -4.70341e-19)
(-0.00778292 0.0214916 2.58483e-20)
(-0.0207295 0.0590416 0)
(-0.0319381 0.0940242 -2.30446e-19)
(-0.0412551 0.125147 5.87063e-20)
(-0.0486296 0.15215 -5.96102e-20)
(-0.0541217 0.175153 0)
(-0.0578047 0.19444 -6.10942e-20)
(-0.0597434 0.210346 6.15153e-20)
(-0.0599883 0.223197 1.23777e-19)
(-0.0585834 0.233271 -3.72037e-19)
(-0.0555686 0.240787 -1.24289e-19)
(-0.0509861 0.245912 1.33222e-23)
(-0.0448835 0.24877 -4.3451e-22)
(-0.0373171 0.249465 -2.47004e-19)
(-0.0283527 0.248089 -1.23356e-19)
(-0.0180667 0.244737 0)
(-0.00654865 0.239517 6.46336e-22)
(0.00610018 0.232552 2.41388e-19)
(0.0197665 0.223985 -2.38922e-19)
(0.0343251 0.21398 0)
(0.0496403 0.202725 0)
(0.065567 0.190422 0)
(0.0819534 0.177294 0)
(0.0986429 0.163578 -1.44861e-21)
(0.115475 0.149523 0)
(0.13229 0.135392 0)
(0.148913 0.121474 2.20462e-19)
(0.165169 0.108139 2.18324e-19)
(0.181016 0.096059 2.17187e-19)
(0.19594 0.0864911 -6.25076e-22)
(-0.00817247 0.0210635 2.57698e-20)
(-0.0215464 0.0580152 -5.605e-20)
(-0.0327803 0.0926122 3.43871e-19)
(-0.0418384 0.123496 -5.84835e-20)
(-0.0486938 0.150371 5.95089e-20)
(-0.0534516 0.173313 6.5523e-23)
(-0.0562244 0.192566 1.82395e-19)
(-0.0571118 0.208438 -2.45153e-19)
(-0.0561934 0.221238 3.69874e-19)
(-0.0535371 0.231236 3.76177e-22)
(-0.0492026 0.238653 -1.23547e-19)
(-0.043248 0.243659 2.47252e-19)
(-0.0357352 0.246388 -2.46652e-19)
(-0.0267329 0.246949 2.45694e-19)
(-0.0163192 0.245442 0)
(-0.00458299 0.241969 2.42882e-19)
(0.00837351 0.236642 0)
(0.0224359 0.229588 1.09377e-21)
(0.0374773 0.220954 -2.37072e-19)
(0.0533591 0.210907 -2.34881e-19)
(0.0699317 0.199635 2.32623e-19)
(0.0870376 0.187344 -2.30327e-19)
(0.104513 0.174257 -2.28016e-19)
(0.122189 0.160611 -4.5281e-19)
(0.139895 0.146653 -2.23432e-19)
(0.157462 0.132642 2.21978e-19)
(0.174709 0.118855 -4.40063e-19)
(0.191449 0.105634 -2.18311e-19)
(0.207652 0.09363 0)
(0.222907 0.0841389 -2.29839e-19)
(-0.00851538 0.0205299 0)
(-0.0222677 0.0567156 2.2314e-19)
(-0.0335071 0.0907829 -1.71905e-19)
(-0.0422885 0.12131 -2.91366e-19)
(-0.0486024 0.14797 0)
(-0.0525949 0.17079 0)
(-0.0544162 0.189977 -3.64773e-19)
(-0.0542011 0.205808 4.89531e-19)
(-0.0520602 0.218569 -3.69191e-19)
(-0.0480874 0.22852 0)
(-0.0423646 0.235879 1.23926e-19)
(-0.0349694 0.240818 -1.23797e-19)
(-0.0259801 0.243475 8.03383e-22)
(-0.0154804 0.243967 -1.23412e-19)
(-0.00356262 0.242401 -1.21476e-19)
(0.00967027 0.238884 -9.45236e-22)
(0.0241023 0.233532 2.40104e-19)
(0.0396053 0.226478 2.39151e-19)
(0.0560386 0.217871 7.151e-22)
(0.0732499 0.20788 4.69299e-19)
(0.0910768 0.196695 -4.645e-19)
(0.109349 0.184523 4.60098e-19)
(0.127892 0.171587 2.28003e-19)
(0.146525 0.158126 2.257e-19)
(0.165069 0.144383 1.3467e-21)
(0.183346 0.130612 0)
(0.201168 0.117078 2.18363e-19)
(0.218338 0.104098 -6.48482e-19)
(0.234834 0.09229 2.12691e-19)
(0.250373 0.0829872 2.26662e-19)
(-0.00881142 0.0199059 -1.53364e-19)
(-0.0228929 0.0551695 -5.01346e-19)
(-0.0341206 0.088562 -5.17175e-23)
(-0.0426124 0.118608 6.03143e-22)
(-0.0483703 0.14495 -1.77129e-19)
(-0.0515772 0.167576 0)
(-0.0524192 0.186651 -1.20739e-19)
(-0.0510661 0.202419 -7.32374e-19)
(-0.0476606 0.215142 3.68423e-19)
(-0.0423248 0.225065 -2.45779e-19)
(-0.0351653 0.232398 3.69124e-19)
(-0.0262817 0.237314 -1.23072e-19)
(-0.0157713 0.239954 2.45831e-19)
(-0.00373452 0.240439 -6.10966e-19)
(0.00972002 0.238881 3.65119e-19)
(0.0244741 0.235394 -6.53868e-22)
(0.0403971 0.230099 -7.19022e-19)
(0.0573468 0.22313 2.37383e-19)
(0.0751688 0.214641 -2.35601e-19)
(0.0936975 0.204803 0)
(0.112758 0.193806 2.3026e-19)
(0.132169 0.181858 0)
(0.151743 0.169183 -2.2602e-19)
(0.171292 0.156017 2.23796e-19)
(0.190625 0.142601 2.22061e-19)
(0.209555 0.129186 2.18489e-19)
(0.227893 0.116024 0)
(0.245428 0.103407 0)
(0.26214 0.0919155 -4.26882e-19)
(0.277903 0.0829207 6.71348e-19)
(-0.00906228 0.0192085 1.53498e-19)
(-0.0234237 0.0534076 2.77994e-19)
(-0.0346236 0.0859816 -2.27141e-19)
(-0.0428161 0.115415 4.64096e-19)
(-0.0480095 0.141329 5.96814e-20)
(-0.0504196 0.163673 5.98704e-20)
(-0.0502662 0.182577 7.90474e-22)
(-0.0477542 0.198247 -2.42757e-19)
(-0.0430588 0.21092 -1.22052e-19)
(-0.0363321 0.220822 6.96717e-22)
(-0.0277072 0.228153 -7.14723e-22)
(-0.0173076 0.233082 -3.67593e-19)
(-0.005252 0.235751 -1.21894e-19)
(0.0083405 0.236284 8.02248e-22)
(0.023344 0.2348 2.41793e-19)
(0.0396238 0.231414 2.40111e-19)
(0.0570346 0.226252 9.2407e-22)
(0.0754198 0.219452 -2.36106e-19)
(0.0946115 0.21117 2.34163e-19)
(0.114431 0.201578 -2.32266e-19)
(0.134693 0.190866 -4.59413e-19)
(0.155202 0.179244 -2.2717e-19)
(0.175762 0.166934 4.49342e-19)
(0.196172 0.15417 0)
(0.216234 0.141192 -2.1956e-19)
(0.235752 0.128242 -4.3572e-19)
(0.254532 0.115566 -4.31327e-19)
(0.272357 0.103428 2.13871e-19)
(0.289197 0.0923683 -6.34782e-19)
(0.305101 0.0838019 2.21528e-19)
(-0.00927144 0.0184553 -2.54283e-19)
(-0.0238641 0.0514636 5.5344e-20)
(-0.0350197 0.08308 2.27142e-19)
(-0.0429036 0.111767 -1.73834e-19)
(-0.0475273 0.137134 5.91074e-20)
(-0.0491355 0.1591 -1.42721e-22)
(-0.0479804 0.177759 6.02199e-19)
(-0.0443009 0.193283 2.43113e-19)
(-0.0383049 0.20588 2.44377e-19)
(-0.0301758 0.215756 3.67422e-19)
(-0.0200746 0.223098 -3.6772e-19)
(-0.00814999 0.228067 2.44969e-19)
(0.00545648 0.230805 4.87992e-19)
(0.0206056 0.231437 2.42641e-19)
(0.0371532 0.230083 -6.3348e-22)
(0.0549481 0.226865 -4.79991e-19)
(0.0738294 0.221909 4.75682e-19)
(0.0936266 0.215357 2.28187e-22)
(0.114159 0.207367 -2.33145e-19)
(0.135234 0.19811 2.31256e-19)
(0.156655 0.187779 2.29153e-19)
(0.178215 0.176581 -2.25667e-19)
(0.199706 0.164737 -4.47962e-19)
(0.220917 0.15248 1.74123e-22)
(0.241637 0.140043 2.20177e-19)
(0.261665 0.127665 2.17232e-19)
(0.280801 0.115581 4.2883e-19)
(0.298823 0.104032 -4.22967e-19)
(0.315687 0.0935121 0)
(0.331627 0.085488 2.19508e-19)
(-0.00944388 0.0176644 6.23587e-22)
(-0.0242197 0.0493733 0)
(-0.0353119 0.0799004 -1.69232e-19)
(-0.0428757 0.107709 -5.76422e-20)
(-0.0469242 0.132406 -2.34221e-19)
(-0.0477285 0.153889 0)
(-0.0455714 0.172219 -3.6074e-19)
(-0.0407247 0.187537 1.20995e-19)
(-0.033429 0.200021 0)
(-0.0238989 0.209855 -2.43689e-19)
(-0.0123243 0.217209 0)
(0.00111995 0.222237 -3.6539e-19)
(0.016269 0.225075 3.64396e-19)
(0.0329626 0.225848 -2.42397e-19)
(0.0510378 0.224679 -2.40157e-19)
(0.0703268 0.221688 0)
(0.0906533 0.217007 0)
(0.111833 0.210779 2.34439e-19)
(0.13367 0.203161 -5.10453e-22)
(0.155962 0.194327 2.29085e-19)
(0.178495 0.184468 -2.27827e-19)
(0.201053 0.173789 4.50626e-19)
(0.223414 0.162511 -2.22834e-19)
(0.245353 0.15086 0)
(0.26665 0.139067 6.53956e-19)
(0.287093 0.127361 -1.07691e-18)
(0.306482 0.11597 2.13738e-19)
(0.324591 0.10511 2.11545e-19)
(0.341357 0.0952266 2.08225e-19)
(0.357202 0.0878456 4.33127e-19)
(-0.00958584 0.0168534 -2.01477e-19)
(-0.024497 0.0471731 4.39649e-19)
(-0.0355017 0.0764895 2.25802e-19)
(-0.0427286 0.103291 5.16924e-19)
(-0.0461929 0.127195 6.42879e-19)
(-0.0461899 0.148086 1.18596e-19)
(-0.0430319 0.165997 -5.9814e-19)
(-0.0370225 0.18104 0)
(-0.0284341 0.193364 -4.84648e-19)
(-0.0175124 0.20313 -2.42305e-19)
(-0.00447609 0.210489 0)
(0.0104739 0.215585 -2.42079e-19)
(0.0271492 0.218547 -5.57077e-22)
(0.0453683 0.219499 -7.23143e-19)
(0.0649497 0.218561 2.40151e-19)
(0.0857082 0.215856 2.37709e-19)
(0.107452 0.211515 -4.71683e-19)
(0.129983 0.205683 -4.67611e-19)
(0.15309 0.198516 5.48206e-22)
(0.176555 0.190188 -2.07166e-22)
(0.200153 0.18089 0)
(0.223649 0.170823 -2.23934e-19)
(0.246806 0.160206 -2.20439e-19)
(0.269388 0.149258 0)
(0.291162 0.138205 0)
(0.311906 0.127268 6.43633e-19)
(0.33142 0.11666 -6.3458e-19)
(0.349482 0.10658 0)
(0.366008 0.0974173 6.21471e-19)
(0.3816 0.0907615 -4.29095e-19)
(-0.00970432 0.0160389 1.28013e-21)
(-0.0247025 0.0448992 -4.39597e-19)
(-0.0355886 0.0728967 -5.61682e-20)
(-0.042453 0.0985717 -5.74139e-19)
(-0.0453157 0.121565 -3.50572e-19)
(-0.044496 0.141754 1.18258e-19)
(-0.0403344 0.159154 2.39578e-19)
(-0.0331653 0.173848 6.01094e-19)
(-0.0232916 0.18596 4.84648e-19)
(-0.0109889 0.195623 4.85989e-19)
(0.00349567 0.202974 0)
(0.019936 0.208141 1.44118e-21)
(0.0381203 0.211247 0)
(0.0578465 0.212409 4.81706e-19)
(0.0789136 0.211746 0)
(0.10112 0.209379 -2.36869e-19)
(0.124256 0.205441 2.37115e-19)
(0.148108 0.200074 0)
(0.172449 0.193435 0)
(0.197044 0.185696 -6.8324e-19)
(0.221648 0.177044 2.25911e-19)
(0.24601 0.167681 0)
(0.269877 0.157816 4.41564e-19)
(0.292994 0.147665 4.37347e-19)
(0.315119 0.137442 -8.62836e-19)
(0.336024 0.12736 8.53296e-19)
(0.355508 0.117617 1.02331e-21)
(0.373361 0.108392 4.16377e-19)
(0.389483 0.100019 -4.14164e-19)
(0.404639 0.0941464 0)
(-0.00980655 0.0152358 5.03575e-19)
(-0.0248421 0.042586 -5.46716e-20)
(-0.0355684 0.0691721 -4.47507e-19)
(-0.0420325 0.0936134 0)
(-0.0442641 0.115586 -4.64337e-19)
(-0.042607 0.134971 0)
(-0.0374297 0.15177 -5.94829e-19)
(-0.0290957 0.166042 -3.60817e-19)
(-0.0179372 0.177885 -4.81868e-19)
(-0.00425838 0.187412 0)
(0.011667 0.194737 1.20983e-19)
(0.0295881 0.199975 1.22097e-19)
(0.049271 0.203239 -2.41067e-19)
(0.0704923 0.204642 -4.78626e-19)
(0.0930319 0.204295 -2.37649e-19)
(0.116669 0.20232 -9.44511e-19)
(0.141178 0.198845 4.70035e-19)
(0.166323 0.194011 6.3069e-22)
(0.191859 0.187975 6.14946e-22)
(0.21753 0.180905 6.82865e-19)
(0.243069 0.172984 0)
(0.268205 0.164409 0)
(0.292666 0.155383 -1.33036e-21)
(0.316183 0.146112 6.59008e-22)
(0.338501 0.136802 -4.28313e-19)
(0.359392 0.127649 -4.24448e-19)
(0.378661 0.118839 1.10575e-21)
(0.396117 0.110528 -4.16364e-19)
(0.411649 0.102993 -4.1108e-19)
(0.426168 0.0979337 9.06054e-22)
(-0.00989942 0.0144567 0)
(-0.0249195 0.0402647 4.35567e-19)
(-0.0354324 0.0653651 3.91625e-19)
(-0.0414429 0.0884819 5.69525e-20)
(-0.0429977 0.109338 9.27282e-19)
(-0.0404663 0.127828 -1.1757e-19)
(-0.0342456 0.143943 9.49826e-19)
(-0.0247269 0.157725 4.7789e-19)
(-0.0122703 0.16925 7.22424e-19)
(0.00279333 0.178605 3.61129e-19)
(0.0201651 0.185888 1.20618e-19)
(0.0395706 0.191199 6.02933e-19)
(0.0607536 0.194639 -4.0145e-22)
(0.0834697 0.196311 2.39472e-19)
(0.107478 0.196323 4.75518e-19)
(0.132537 0.19479 4.71843e-19)
(0.158398 0.191839 0)
(0.184805 0.187607 0)
(0.211486 0.182246 0)
(0.238161 0.17592 0)
(0.264539 0.168808 4.46547e-19)
(0.290326 0.1611 0)
(0.31523 0.152989 -6.12302e-22)
(0.338971 0.144673 8.63841e-19)
(0.361289 0.136341 4.27479e-19)
(0.381958 0.128177 4.22658e-19)
(0.400798 0.120348 8.35566e-19)
(0.417643 0.11299 0)
(0.432385 0.106319 -8.16698e-19)
(0.446056 0.102074 8.39013e-19)
(-0.00998877 0.0137112 3.99167e-19)
(-0.0249359 0.0379627 -4.35577e-19)
(-0.0351667 0.0615232 0)
(-0.0406521 0.0832442 -4.53813e-19)
(-0.0414641 0.102907 -1.17077e-19)
(-0.0380009 0.120426 -3.50792e-19)
(-0.0306882 0.13579 -1.06557e-18)
(-0.0199444 0.149026 -1.53794e-21)
(-0.0061562 0.16019 -3.59085e-19)
(0.0103207 0.169348 -8.41791e-19)
(0.0291635 0.17658 -1.20336e-19)
(0.0500745 0.181968 -4.79645e-19)
(0.072775 0.185603 -4.77929e-19)
(0.0969978 0.187579 0)
(0.122478 0.187993 -4.72218e-19)
(0.148951 0.186957 -7.0277e-19)
(0.17614 0.184589 2.32893e-19)
(0.203762 0.181023 -4.59628e-19)
(0.231515 0.176404 -4.54778e-19)
(0.259092 0.170892 0)
(0.286175 0.164658 -8.91156e-19)
(0.312447 0.157881 0)
(0.337602 0.150748 -8.71185e-19)
(0.36135 0.143441 -4.29828e-19)
(0.383436 0.136136 -8.50525e-19)
(0.403645 0.128999 4.20311e-19)
(0.421819 0.122178 -1.24727e-18)
(0.437829 0.115788 4.10103e-19)
(0.451577 0.109987 2.07934e-21)
(0.464191 0.106529 -4.15814e-19)
(-0.0100789 0.0130057 -3.99176e-19)
(-0.0248885 0.0357028 5.42155e-20)
(-0.0347519 0.0576901 3.87804e-19)
(-0.0396198 0.0779666 4.53823e-19)
(-0.0396 0.0963817 -4.61524e-19)
(-0.035123 0.112875 1.46575e-21)
(-0.0266448 0.127439 4.72846e-19)
(-0.0146103 0.14009 -9.51589e-19)
(0.000568037 0.150865 -1.18056e-19)
(0.0185104 0.159813 1.0789e-18)
(0.0388706 0.166993 -7.18615e-19)
(0.0613272 0.172475 1.19726e-18)
(0.0855771 0.176332 1.19253e-18)
(0.111327 0.178648 -2.37546e-19)
(0.138285 0.179512 4.72214e-19)
(0.166154 0.179025 7.01877e-19)
(0.194629 0.177298 2.30383e-19)
(0.223391 0.174457 1.8554e-21)
(0.252109 0.170641 2.28193e-19)
(0.280441 0.165999 2.24738e-19)
(0.308046 0.160695 -2.19578e-19)
(0.33459 0.154898 2.19519e-19)
(0.359757 0.148782 -4.32284e-19)
(0.383259 0.142515 4.29216e-19)
(0.404853 0.136261 2.05744e-21)
(0.424346 0.130165 4.17314e-19)
(0.441611 0.124358 2.09343e-21)
(0.456562 0.118931 -4.09004e-19)
(0.469121 0.113985 1.07031e-21)
(0.480484 0.111264 0)
(-0.0101718 0.0123435 0)
(-0.0247706 0.0335024 0)
(-0.0341625 0.053905 -4.98645e-19)
(-0.0382982 0.0727124 5.64127e-20)
(-0.0373326 0.0898498 0)
(-0.0317333 0.105288 4.66399e-19)
(-0.0219883 0.119026 1.17713e-19)
(-0.00857014 0.131074 3.56538e-19)
(0.00808354 0.141453 4.77491e-19)
(0.0275682 0.150193 -4.78747e-19)
(0.0495132 0.157336 4.78904e-19)
(0.0735712 0.162936 -4.7805e-19)
(0.0994107 0.167052 -4.76288e-19)
(0.126708 0.169752 0)
(0.155137 0.171113 0)
(0.184366 0.171226 0)
(0.214052 0.170192 -4.62387e-19)
(0.243838 0.168126 6.85799e-19)
(0.27336 0.165157 -2.26324e-19)
(0.302249 0.161425 0)
(0.330143 0.157082 6.63177e-19)
(0.356697 0.152287 -2.18525e-19)
(0.381598 0.1472 4.32277e-19)
(0.404573 0.14198 -8.50894e-19)
(0.425401 0.136771 8.43659e-19)
(0.443923 0.131707 -1.20524e-21)
(0.460049 0.126899 9.04285e-22)
(0.473736 0.122417 4.06863e-19)
(0.484935 0.1183 -1.78258e-22)
(0.494876 0.116256 4.10814e-19)
(-0.0102669 0.0117245 4.95136e-20)
(-0.0245704 0.0313733 -5.37953e-20)
(-0.0333671 0.0502011 1.10357e-19)
(-0.0366331 0.06754 -6.74491e-19)
(-0.0345822 0.0833969 1.14365e-19)
(-0.0277248 0.0977772 0)
(-0.0165843 0.110691 4.68311e-19)
(-0.00166213 0.122142 -4.71946e-19)
(0.016577 0.132137 0)
(0.0377021 0.140691 5.94563e-19)
(0.0613147 0.147829 -1.19157e-19)
(0.0870373 0.153585 0)
(0.114505 0.158001 -2.36576e-19)
(0.143356 0.161132 4.71028e-19)
(0.173225 0.163038 -2.34203e-19)
(0.203739 0.163796 2.31563e-19)
(0.234513 0.163496 -4.59538e-19)
(0.265154 0.162239 7.61884e-22)
(0.295265 0.160143 7.43105e-22)
(0.324455 0.157336 -2.21019e-19)
(0.352353 0.153958 -4.39003e-19)
(0.378618 0.150157 1.171e-21)
(0.402951 0.146082 1.61616e-21)
(0.42511 0.14188 4.25086e-19)
(0.444909 0.137686 -4.18714e-19)
(0.462229 0.133622 4.15314e-19)
(0.477018 0.129786 -8.18726e-19)
(0.489272 0.126232 -1.02342e-21)
(0.498973 0.122935 -7.99569e-19)
(0.507331 0.121529 4.08416e-19)
(-0.0103602 0.0111446 0)
(-0.0242708 0.0293209 -4.28356e-19)
(-0.032329 0.0466044 0)
(-0.0345652 0.0625007 1.54419e-21)
(-0.031265 0.0771021 1.14169e-19)
(-0.0229884 0.0904505 1.66598e-22)
(-0.0102981 0.102568 -9.34903e-19)
(0.00627165 0.113453 3.5422e-19)
(0.0262262 0.123102 0)
(0.0491035 0.131511 -5.94143e-19)
(0.0744721 0.138689 1.18731e-19)
(0.101918 0.144648 0)
(0.131035 0.149415 -2.35648e-19)
(0.161418 0.153022 2.34889e-19)
(0.192656 0.155514 2.32285e-19)
(0.224329 0.156953 4.619e-19)
(0.256013 0.157411 -2.29163e-19)
(0.287278 0.156977 0)
(0.317704 0.155754 0)
(0.346891 0.153858 4.43792e-19)
(0.37447 0.151419 -4.36894e-19)
(0.400121 0.148571 4.32923e-19)
(0.423581 0.145457 4.28104e-19)
(0.44465 0.142213 4.21448e-19)
(0.463194 0.138971 -4.17172e-19)
(0.479141 0.135852 4.12938e-19)
(0.492471 0.132958 4.0686e-19)
(0.503183 0.13034 -4.02451e-19)
(0.511234 0.127975 9.62959e-22)
(0.517635 0.127341 8.12317e-19)
(-0.0104472 0.0106002 4.91825e-20)
(-0.0238523 0.0273482 3.75045e-19)
(-0.0310086 0.0431363 0)
(-0.0320339 0.0576395 4.47971e-19)
(-0.027298 0.071037 0)
(-0.017419 0.0834067 0)
(-0.00300445 0.0947827 3.50241e-19)
(0.0153734 0.105159 -6.83601e-23)
(0.0371841 0.114519 1.17944e-19)
(0.0619282 0.122843 1.18188e-19)
(0.0891337 0.130117 -3.54596e-19)
(0.118342 0.136336 2.36149e-19)
(0.149098 0.141502 0)
(0.180948 0.145627 0)
(0.213429 0.148738 -4.64858e-19)
(0.246077 0.150875 0)
(0.278429 0.152096 -2.27351e-19)
(0.31003 0.152473 2.25789e-19)
(0.340448 0.152097 2.22516e-19)
(0.369289 0.15107 -7.43119e-22)
(0.396206 0.149511 -2.18067e-19)
(0.420918 0.147545 0)
(0.443214 0.145306 -4.24324e-19)
(0.462954 0.142925 4.20148e-19)
(0.480073 0.140536 0)
(0.494566 0.138269 0)
(0.506473 0.136252 0)
(0.515822 0.134597 0)
(0.522477 0.133388 -3.95292e-19)
(0.527009 0.134246 8.07071e-19)
(0.0627718 0.174671 -0.0123549)
(0.106555 0.144498 -0.0126621)
(0.147781 0.133295 -0.0127641)
(0.17589 0.134468 -0.0128197)
(0.196501 0.14259 -0.0128019)
(0.208786 0.153371 -0.0127651)
(0.215244 0.16398 -0.012698)
(0.217117 0.173391 -0.0126196)
(0.215815 0.181646 -0.0125302)
(0.21232 0.189244 -0.0124339)
(0.207313 0.19655 -0.012332)
(0.20122 0.203725 -0.0122262)
(0.194266 0.210734 -0.012119)
(0.186647 0.21751 -0.0120109)
(0.178432 0.223957 -0.0119022)
(0.16978 0.230023 -0.0117959)
(0.160682 0.23569 -0.0116954)
(0.151326 0.240943 -0.0115967)
(0.141611 0.245766 -0.0114962)
(0.131793 0.25019 -0.0113925)