/*--------------------------------*- C++ -*----------------------------------*\
  =========                 |
  \\      /  F ield         | OpenFOAM: The Open Source CFD Toolbox
   \\    /   O peration     | Website:  https://openfoam.org
    \\  /    A nd           | Version:  7
     \\/     M anipulation  |
\*---------------------------------------------------------------------------*/
FoamFile
{
    version     2.0;
    format      ascii;
    class       surfaceScalarField;
    location    "7.8";
    object      phi;
}
// * * * * * * * * * * * * * * * * * * * * * * * * * * * * * * * * * * * * * //

dimensions      [0 3 -1 0 0 0 0];

internalField   nonuniform List<scalar> 
63520
(
6.07709e-06
-0.000104864
9.87873e-05
2.23091e-05
-0.000198748
0.000182516
4.75798e-05
-0.000190835
0.000165564
8.12844e-05
-0.000103692
6.99875e-05
0.000123135
4.66165e-05
-8.84673e-05
0.000173015
0.000248071
-0.000297951
0.000230907
0.000491125
-0.000549017
0.000296839
0.000768025
-0.000833957
0.000370852
0.00107255
-0.00114656
0.000452963
0.00139953
-0.00148164
0.000543156
0.00174471
-0.0018349
0.000641371
0.00210445
-0.00220267
0.000747486
0.00247562
-0.00258174
0.000861317
0.00285544
-0.00296927
0.000982615
0.00324136
-0.00336265
0.00111107
0.00363103
-0.00375949
0.00124629
0.00402228
-0.00415749
0.00138781
0.004413
-0.00455452
0.00153514
0.00480121
-0.00494853
0.00168768
0.00518502
-0.00533756
0.00184482
0.00556261
-0.00571975
0.0020059
0.00593225
-0.00609333
0.00217021
0.00629234
-0.00645665
0.00233703
0.00664136
-0.00680819
0.00250565
0.00697793
-0.00714654
0.00267532
0.0073008
-0.00747048
0.00284533
0.00760889
-0.0077789
0.00301499
0.00790125
-0.00807091
0.00318362
0.00817711
-0.00834575
0.00335063
0.00843583
-0.00860284
0.00351542
0.00867697
-0.00884177
0.00367751
0.0089002
-0.00906229
0.00383645
0.00910535
-0.00926429
0.00399189
0.00929234
-0.00944778
0.00414354
0.00946118
-0.00961283
0.00429124
0.00961185
-0.00975955
0.0044349
0.00974424
-0.00988789
0.00457452
0.00985793
-0.00999756
0.0047102
0.0099526
-0.0100883
0.0100273
0.00484203
-0.0101591
5.64361e-06
-0.000110508
2.07996e-05
-0.000213904
4.43602e-05
-0.000214396
7.57502e-05
-0.000135083
0.000114741
7.62499e-06
0.000161274
0.000201538
0.000215377
0.000437021
0.000277112
0.000706289
0.000346562
0.0010031
0.00042378
0.00132231
0.000508784
0.0016597
0.000601546
0.00201169
0.00070198
0.00237519
0.000809941
0.00274748
0.000925218
0.00312608
0.00104753
0.00350872
0.00117654
0.00389327
0.00131183
0.00427771
0.00145293
0.00466011
0.00159932
0.00503863
0.00175042
0.00541151
0.00190561
0.00577706
0.00206425
0.0061337
0.00222566
0.00647995
0.00238915
0.00681444
0.00255402
0.00713593
0.00271959
0.00744332
0.0028852
0.00773565
0.0030502
0.00801211
0.00321398
0.00827205
0.003376
0.00851495
0.00353575
0.00874045
0.00369279
0.00894831
0.00384676
0.00913837
0.00399737
0.00931057
0.00414442
0.00946479
0.00428781
0.00960085
0.00442752
0.00971823
0.00456356
0.00981656
0.00989493
0.00469593
5.20952e-06
-0.000115718
1.92435e-05
-0.000227938
4.1025e-05
-0.000236177
7.00401e-05
-0.000164098
0.00010612
-2.84546e-05
0.000149253
0.000158405
0.000199529
0.000386746
0.000257047
0.00064877
0.000321934
0.000938213
0.000394273
0.00124998
0.000474116
0.00157986
0.000561468
0.00192434
0.000656275
0.00228038
0.000758425
0.00264533
0.000867745
0.00301676
0.000983993
0.00339247
0.00110686
0.0037704
0.00123598
0.00414859
0.00137092
0.00452516
0.0015112
0.00489835
0.00165629
0.00526642
0.00180562
0.00562773
0.00195858
0.00598074
0.00211454
0.00632399
0.00227285
0.00665614
0.00243284
0.00697594
0.00259387
0.00728229
0.00275529
0.00757423
0.00291648
0.00785091
0.00307687
0.00811166
0.0032359
0.00835592
0.00339308
0.00858327
0.00354797
0.00879342
0.0037002
0.00898614
0.00384948
0.00916129
0.0039956
0.00931868
0.00413842
0.00945803
0.00427787
0.00957877
0.00441392
0.00968052
0.00976236
0.00454648
4.78405e-06
-0.000120502
1.76275e-05
-0.000240782
3.75506e-05
-0.000256101
6.41095e-05
-0.000190657
9.7203e-05
-6.15482e-05
0.000136884
0.000118723
0.00018329
0.00034034
0.000236567
0.000595494
0.000296878
0.000877901
0.000364348
0.00118251
0.000439058
0.00150515
0.000521042
0.00184235
0.000610281
0.00219114
0.000706698
0.00254891
0.000810146
0.00291331
0.000920415
0.0032822
0.00103724
0.00365358
0.00116028
0.00402555
0.00128915
0.0043963
0.0014234
0.00476409
0.00156255
0.00512726
0.00170607
0.00548421
0.00185339
0.00583342
0.00200391
0.00617347
0.00215702
0.00650302
0.0023121
0.00682086
0.00246853
0.00712586
0.00262568
0.00741707
0.00278297
0.00769362
0.00293983
0.00795481
0.00309572
0.00820003
0.00325014
0.00842884
0.00340268
0.00864088
0.00355296
0.00883586
0.00370068
0.00901357
0.00384559
0.00917376
0.00398756
0.00931607
0.00412645
0.00943988
0.00426219
0.00954478
0.00962996
0.00439459
4.33862e-06
-0.00012484
1.5941e-05
-0.000252384
3.39343e-05
-0.000274094
5.79706e-05
-0.000214693
8.80178e-05
-9.15954e-05
0.000124192
8.25486e-05
0.000166685
0.000297846
0.000215701
0.000546478
0.000271432
0.000822169
0.000334043
0.0011199
0.000403648
0.00143554
0.000480314
0.00176569
0.000564048
0.00210741
0.0006548
0.00245816
0.000752458
0.00281565
0.000856842
0.00317782
0.000967714
0.00354271
0.00108477
0.00390849
0.00120767
0.0042734
0.00133599
0.00463577
0.00146929
0.00499396
0.00160707
0.00534643
0.00174881
0.00569169
0.00189394
0.00602834
0.00204189
0.00635507
0.00219207
0.00667068
0.00234388
0.00697406
0.00249673
0.00726422
0.00265005
0.0075403
0.00280329
0.00780157
0.00295592
0.0080474
0.00310748
0.00827729
0.00325752
0.00849084
0.00340567
0.00868771
0.00355163
0.00886762
0.00369513
0.00903025
0.003836
0.0091752
0.00397408
0.00930179
0.00410922
0.00940964
0.00949802
0.00424117
3.87944e-06
-0.00012872
1.41867e-05
-0.000262692
3.0183e-05
-0.00029009
5.16239e-05
-0.000236134
7.85595e-05
-0.000118531
0.000111176
4.99317e-05
0.000149721
0.000259302
0.000194449
0.00050175
0.000245595
0.000771023
0.000303359
0.00106213
0.00036789
0.00137101
0.00043928
0.0016943
0.00051757
0.00202912
0.000602737
0.00237299
0.000694693
0.0027237
0.000793289
0.00307922
0.000898316
0.00343768
0.00100951
0.0037973
0.00112654
0.00415637
0.00124904
0.00451327
0.00137659
0.00486641
0.00150874
0.00521428
0.00164499
0.00555544
0.00178481
0.00588852
0.00192765
0.00621222
0.00207297
0.00652536
0.00222019
0.00682684
0.00236875
0.00711566
0.00251809
0.00739096
0.00266768
0.00765198
0.00281701
0.00789807
0.00296561
0.00812869
0.00311306
0.00834339
0.00325897
0.0085418
0.00340303
0.00872356
0.00354496
0.00888832
0.00368455
0.00903561
0.00382161
0.00916473
0.00395592
0.00927533
0.00936679
0.00408714
3.39808e-06
-0.000132118
1.23596e-05
-0.000271653
2.62947e-05
-0.000304025
4.5077e-05
-0.000254917
6.8844e-05
-0.000142298
9.78553e-05
2.09203e-05
0.000132419
0.000224738
0.000172844
0.000461325
0.000219407
0.00072446
0.000272343
0.00100919
0.000331834
0.00131152
0.000398003
0.00162813
0.000470918
0.0019562
0.000550581
0.00229333
0.000636929
0.00263735
0.000729843
0.00298631
0.000829141
0.00333838
0.000934584
0.00369185
0.00104588
0.00404508
0.00116268
0.00439646
0.00128462
0.00474448
0.00141125
0.00508765
0.00154212
0.00542457
0.00167674
0.0057539
0.00181458
0.00607438
0.00195512
0.00638482
0.00209782
0.00668414
0.00224213
0.00697135
0.00238752
0.00724557
0.00253348
0.00750602
0.00267951
0.00775204
0.00282514
0.00798306
0.00296995
0.00819858
0.00311356
0.00839819
0.00325563
0.00858149
0.00339587
0.00874808
0.00353405
0.00889744
0.00366992
0.00902886
0.00380321
0.00914204
0.0092365
0.00393351
2.89055e-06
-0.000135009
1.04584e-05
-0.000279221
2.22747e-05
-0.000315842
3.83391e-05
-0.000270981
5.88859e-05
-0.000162845
8.42542e-05
-4.4482e-06
0.000114814
0.000194178
0.000150929
0.00042521
0.000192918
0.000682471
0.000241054
0.000961058
0.000295549
0.00125702
0.000356559
0.00156712
0.000424175
0.00188859
0.000498424
0.00221908
0.000579271
0.0025565
0.000666619
0.00289896
0.000760313
0.00324469
0.00086014
0.00359203
0.000965838
0.00393938
0.00107709
0.00428521
0.00119355
0.00462802
0.00131482
0.00496638
0.00144045
0.00529893
0.00157
0.00562436
0.00170296
0.00594142
0.00183884
0.00624894
0.00197712
0.00654586
0.00211728
0.00683119
0.00225881
0.00710404
0.0024012
0.00736363
0.00254397
0.00760927
0.00268665
0.00784037
0.00282884
0.0080564
0.00297013
0.0082569
0.00311019
0.00844144
0.0032487
0.00860957
0.00338538
0.00876075
0.00351996
0.00889428
0.0036521
0.00900991
0.00910729
0.0037813
2.3565e-06
-0.000137365
8.48422e-06
-0.000285349
1.81282e-05
-0.000325486
3.14234e-05
-0.000284276
4.87069e-05
-0.000180129
7.04027e-05
-2.61441e-05
9.69463e-05
0.000167634
0.000128753
0.000393403
0.000166189
0.000645035
0.000209562
0.000917685
0.000259118
0.00120747
0.00031504
0.0015112
0.000377444
0.00182618
0.000446382
0.00215014
0.000521842
0.00248104
0.000603752
0.00281705
0.00069198
0.00315646
0.00078634
0.00349767
0.000886597
0.00383912
0.000992465
0.00417934
0.00110362
0.00451687
0.00121968
0.00485032
0.00134024
0.00517837
0.00146488
0.00549972
0.00159312
0.00581317
0.00172449
0.00611757
0.00185849
0.00641186
0.00199464
0.00669505
0.00213242
0.00696626
0.00227135
0.0072247
0.00241095
0.00746967
0.00255078
0.00770054
0.0026904
0.00791677
0.00282943
0.00811787
0.00296749
0.00830337
0.00310427
0.00847279
0.00323944
0.00862558
0.00337268
0.00876104
0.00350358
0.00887901
0.00897929
0.00363159
1.79735e-06
-0.000139162
6.44116e-06
-0.000289993
1.38639e-05
-0.000332909
2.43453e-05
-0.000294758
3.83331e-05
-0.000194117
5.63376e-05
-4.41489e-05
7.88618e-05
0.00014511
0.000106377
0.000365888
0.000139293
0.000612119
0.000177954
0.000879024
0.000222637
0.00116279
0.000273555
0.00146028
0.000330847
0.00176889
0.000394587
0.0020864
0.000464788
0.00241084
0.0005414
0.00274044
0.000624315
0.00307354
0.000713371
0.00340861
0.000808358
0.00374414
0.000909015
0.00407868
0.00101504
0.00441084
0.00112608
0.00473928
0.00124177
0.00506268
0.00136168
0.00537981
0.00148539
0.00568947
0.00161243
0.00599053
0.00174234
0.00628195
0.00187464
0.00656275
0.00200884
0.00683206
0.00214446
0.00708907
0.00228105
0.00733308
0.00241814
0.00756344
0.00255532
0.00777959
0.00269218
0.00798101
0.00282835
0.00816721
0.00296345
0.00833768
0.00309715
0.00849189
0.00322905
0.00862914
0.00335871
0.00874935
0.00885251
0.00348548
1.21345e-06
-0.000140376
4.33315e-06
-0.000293113
9.49289e-06
-0.000338068
1.71254e-05
-0.000302391
2.77939e-05
-0.000204785
4.20997e-05
-5.84547e-05
6.06158e-05
0.000126593
8.38675e-05
0.000342636
0.000112309
0.000583677
0.000146322
0.000845011
0.000186215
0.00112289
0.000232226
0.00141427
0.000284519
0.0017166
0.00034319
0.00202773
0.000408275
0.00234576
0.000479743
0.00266897
0.000557512
0.00299578
0.000641442
0.00332468
0.000731347
0.00365423
0.00082699
0.00398304
0.000928088
0.00430975
0.00103432
0.00463305
0.00114534
0.00495167
0.00126075
0.0052644
0.00138013
0.00557008
0.00150307
0.0058676
0.00162909
0.00615592
0.00175775
0.00643409
0.00188857
0.00670124
0.00202109
0.00695655
0.00215485
0.00719932
0.0022894
0.00742889
0.00242431
0.00764468
0.00255916
0.00784616
0.00269356
0.00803281
0.00282712
0.00820413
0.00295944
0.00835957
0.00309009
0.00849848
0.00321855
0.00862089
0.00872695
0.00334411
6.07462e-07
-0.000140983
2.16756e-06
-0.000294673
5.02866e-06
-0.00034093
9.78589e-06
-0.000307148
1.71242e-05
-0.000212124
2.77368e-05
-6.90675e-05
4.22682e-05
0.000112062
6.1299e-05
0.000323605
8.53284e-05
0.000559648
0.000114773
0.000815566
0.000149973
0.00108769
0.00019119
0.00137305
0.000238612
0.00166918
0.000292359
0.00197398
0.000352483
0.00228563
0.00041898
0.00260247
0.000491786
0.00292297
0.000570786
0.00324568
0.000655813
0.0035692
0.000746654
0.0038922
0.00084305
0.00421335
0.000944704
0.00453139
0.00105128
0.00484509
0.00116243
0.00515326
0.00127774
0.00545477
0.0013968
0.00574853
0.00151919
0.00603353
0.00164446
0.00630883
0.00177215
0.00657355
0.00190181
0.0068269
0.00203298
0.00706815
0.00216521
0.00729666
0.00229807
0.00751182
0.00243113
0.0077131
0.00256397
0.00789997
0.00269617
0.00807193
0.00282728
0.00822846
0.00295682
0.00836894
0.00308421
0.00849351
0.0086025
0.00320866
-1.94059e-08
-0.000140964
-4.90253e-08
-0.000294643
4.8676e-07
-0.000341466
2.35359e-06
-0.000309015
6.36177e-06
-0.000216132
1.32996e-05
-7.60053e-05
2.38853e-05
0.000101476
3.87538e-05
0.000308737
5.84476e-05
0.000539954
8.34197e-05
0.000790594
0.000114039
0.00105707
0.000150593
0.0013365
0.000193291
0.00162648
0.000242273
0.001925
0.000297613
0.00223029
0.000359326
0.00254076
0.00042737
0.00285493
0.000501652
0.0031714
0.000582025
0.00348883
0.000668297
0.00380592
0.000760233
0.00412141
0.000857558
0.00443407
0.000959961
0.00474268
0.0010671
0.00504612
0.0011786
0.00534326
0.00129408
0.00563306
0.0014131
0.0059145
0.00153526
0.00618667
0.0016601
0.00644871
0.00178717
0.00669982
0.00191603
0.00693929
0.00204623
0.00716646
0.00217733
0.00738073
0.00230886
0.00758156
0.0024404
0.00776843
0.00257148
0.00794085
0.00270162
0.00809832
0.00283028
0.00824028
0.00295678
0.008367
0.00847899
0.0030803
-6.63236e-07
-0.000140301
-2.30747e-06
-0.000292999
-4.11519e-06
-0.000339658
-5.14356e-06
-0.000307986
-4.45215e-06
-0.000216824
-1.15594e-06
-7.93016e-05
5.53751e-06
9.47824e-05
1.63177e-05
0.000297957
3.17706e-05
0.000524501
5.23835e-05
0.000769981
7.8554e-05
0.0010309
0.000110592
0.00130446
0.000148729
0.00158834
0.000193125
0.00188061
0.000243874
0.00217954
0.000301011
0.00248362
0.000364513
0.00279142
0.000434308
0.0031016
0.000510269
0.00341287
0.000592225
0.00372397
0.000679964
0.00403368
0.000773231
0.0043408
0.000871737
0.00464418
0.000975159
0.0049427
0.00108315
0.00523527
0.00119533
0.00552087
0.0013113
0.00579853
0.00143066
0.00606732
0.00155296
0.0063264
0.00167778
0.00657501
0.00180466
0.00681241
0.00193315
0.00703797
0.00206279
0.00725109
0.00219313
0.00745122
0.00232369
0.00763787
0.00245398
0.00781057
0.00258344
0.00796885
0.0027115
0.00811223
0.00283741
0.00824109
0.00835615
0.00296025
-1.32234e-06
-0.000138979
-4.59856e-06
-0.000289723
-8.75814e-06
-0.000335498
-1.26748e-05
-0.00030407
-1.52739e-05
-0.000214225
-1.55715e-05
-7.9004e-05
-1.27007e-05
9.19116e-05
-5.91807e-06
0.000291174
5.40404e-06
0.000513179
2.17906e-05
0.000753594
4.36617e-05
0.00100903
7.13509e-05
0.00127677
0.00010511
0.00155458
0.000145119
0.0018406
0.00019149
0.00213317
0.000244277
0.00243084
0.000303478
0.00273222
0.000369036
0.00303604
0.000440848
0.00334106
0.000518763
0.00364605
0.000602588
0.00394985
0.00069209
0.0042513
0.000787001
0.00454927
0.000887018
0.00484268
0.000991813
0.00513048
0.00110103
0.00541166
0.00121429
0.00568527
0.00133118
0.00595042
0.0014513
0.00620628
0.00157421
0.0064521
0.00169947
0.00668715
0.00182662
0.00691082
0.0019552
0.00712251
0.00208472
0.0073217
0.00221468
0.00750791
0.00234454
0.00768071
0.00247372
0.00783967
0.00260154
0.0079844
0.00272722
0.00811541
0.00823362
0.00284975
-1.99346e-06
-0.000136985
-6.91214e-06
-0.000284805
-1.3422e-05
-0.000328989
-2.02081e-05
-0.000297284
-2.60575e-05
-0.000208375
-2.98859e-05
-7.51756e-05
-3.07524e-05
9.2778e-05
-2.78588e-05
0.00028828
-2.0535e-05
0.000505855
-8.22775e-06
0.000741287
9.51238e-06
0.00099129
3.30392e-05
0.00125324
6.2624e-05
0.001525
9.84644e-05
0.00180476
0.000140692
0.00209095
0.000189378
0.00238215
0.000244536
0.00267707
0.000306132
0.00297445
0.000374079
0.00327311
0.000448247
0.00357188
0.000528464
0.00386963
0.000614517
0.00416524
0.000706157
0.00445763
0.000803104
0.00474573
0.000905049
0.00502853
0.00101165
0.00530505
0.00112255
0.00557437
0.00123736
0.00583561
0.00135568
0.00608797
0.00147708
0.0063307
0.00160112
0.00656311
0.00172734
0.0067846
0.00185526
0.00699458
0.00198439
0.00719257
0.00211419
0.00737812
0.00224407
0.00755082
0.00237341
0.00771034
0.00250146
0.00785635
0.00262735
0.00798952
0.00811096
0.00275001
-2.67328e-06
-0.000134312
-9.23733e-06
-0.000278241
-1.80858e-05
-0.00032014
-2.77102e-05
-0.000287659
-3.67556e-05
-0.00019933
-4.40367e-05
-6.78945e-05
-4.85383e-05
9.72796e-05
-4.94085e-05
0.00028915
-4.59365e-05
0.000502383
-3.75383e-05
0.000732889
-2.37409e-05
0.000977493
-4.16979e-06
0.00123367
2.14647e-05
0.00149936
5.33775e-05
0.00177284
9.17171e-05
0.00205261
0.000136571
0.0023373
0.000187971
0.00262567
0.000245898
0.00291652
0.000310287
0.00320872
0.000381027
0.00350115
0.000457964
0.0037927
0.000540905
0.0040823
0.000629622
0.00436891
0.000723857
0.0046515
0.00082332
0.00492907
0.000927689
0.00520068
0.00103662
0.00546544
0.00114974
0.00572249
0.00126666
0.00597105
0.00138697
0.00621039
0.00151023
0.00643986
0.00163597
0.00665886
0.0017637
0.00686685
0.00189292
0.00706336
0.00202304
0.00724799
0.00215346
0.0074204
0.00228347
0.00758033
0.00241227
0.00772755
0.00253893
0.00786287
0.00798763
0.00266226
-3.35832e-06
-0.000130954
-1.15629e-05
-0.000270036
-2.2728e-05
-0.000308975
-3.51467e-05
-0.000275241
-4.73199e-05
-0.000187157
-5.79599e-05
-5.72546e-05
-6.59783e-05
0.000105298
-7.04694e-05
0.000293641
-7.0683e-05
0.000502596
-6.60066e-05
0.000728212
-5.59438e-05
0.00096743
-4.01011e-05
0.00121783
-1.81714e-05
0.00147743
1.0076e-05
0.0017446
4.48053e-05
0.00201788
8.61197e-05
0.00229598
0.000134067
0.00257772
0.000188645
0.00286194
0.000249807
0.00314756
0.000317459
0.00343349
0.000391467
0.00371869
0.000471658
0.00400211
0.000557825
0.00428274
0.000649728
0.00455959
0.000747098
0.0048317
0.000849634
0.00509815
0.000957007
0.00535806
0.00106887
0.00561063
0.00118483
0.00585508
0.00130449
0.00609073
0.00142743
0.00631693
0.00155317
0.00653311
0.00168122
0.00673879
0.00181105
0.00693354
0.00194205
0.00711699
0.00207356
0.00728889
0.00220484
0.00744905
0.00233502
0.00759737
0.00246307
0.00773482
0.00786297
0.00258773
-4.04491e-06
-0.000126909
-1.38774e-05
-0.000260204
-2.73265e-05
-0.000295526
-4.24829e-05
-0.000260084
-5.77013e-05
-0.000171938
-7.15915e-05
-4.33645e-05
-8.29917e-05
0.000116698
-9.09438e-05
0.000301593
-9.46594e-05
0.000506312
-9.34982e-05
0.000727051
-8.69423e-05
0.000960874
-7.45801e-05
0.00120547
-5.60885e-05
0.00145894
-3.12219e-05
0.00171973
1.97824e-07
0.00198646
3.82884e-05
0.00225789
8.31127e-05
0.00253289
0.000134685
0.00281037
0.000192973
0.00308927
0.000257903
0.00336856
0.000329358
0.00364723
0.000407186
0.00392428
0.000491198
0.00419873
0.000581175
0.00446962
0.000676867
0.00473601
0.000777992
0.00499702
0.000884243
0.00525181
0.000995283
0.00549959
0.00111075
0.00573962
0.00123025
0.00597123
0.00135336
0.00619382
0.00147962
0.00640686
0.00160852
0.00660989
0.00173952
0.00680254
0.00187199
0.00698452
0.00200524
0.00715564
0.00213845
0.00731584
0.00227069
0.00746513
0.00240085
0.00760466
0.00773623
0.00252759
-4.72924e-06
-0.00012218
-1.61691e-05
-0.000248765
-3.18593e-05
-0.000279836
-4.9684e-05
-0.00024226
-6.78509e-05
-0.000153771
-8.48672e-05
-2.63482e-05
-9.94986e-05
0.00013133
-0.000110735
0.00031283
-0.000117751
0.000513329
-0.00011988
0.00072918
-0.000116584
0.000957578
-0.000107434
0.00119631
-9.20922e-05
0.0014436
-7.02998e-05
0.00169794
-4.1866e-05
0.00195802
-6.65984e-06
0.00222269
3.53956e-05
0.00249084
8.4329e-05
0.00276144
0.000140124
0.00303348
0.000202723
0.00330596
0.000272028
0.00357793
0.000347902
0.00384841
0.00043018
0.00411645
0.00051866
0.00438114
0.000613112
0.00464156
0.000713275
0.00489686
0.000818861
0.00514623
0.000929553
0.0053889
0.00104501
0.00562416
0.00116484
0.00585139
0.00128864
0.00607001
0.00141596
0.00627954
0.00154629
0.00647956
0.00167906
0.00666976
0.00181364
0.00684994
0.00194929
0.00702
0.00208516
0.00717998
0.00222024
0.00733005
0.00235334
0.00747156
0.00760657
0.002483
-5.40748e-06
-0.000116772
-1.84265e-05
-0.000235746
-3.63041e-05
-0.000261959
-5.67149e-05
-0.000221849
-7.77199e-05
-0.000132766
-9.77237e-05
-6.34464e-06
-0.00011542
0.000149026
-0.000129747
0.000327157
-0.000139846
0.000523427
-0.000145022
0.000734357
-0.00014472
0.000957275
-0.000138493
0.00119009
-0.000125993
0.0014311
-0.000106946
0.00167889
-8.11516e-05
0.00193223
-4.84666e-05
0.00219
-8.80122e-06
0.00245117
3.78864e-05
0.00271475
9.15946e-05
0.00297977
0.00015228
0.00324528
0.000219862
0.00351035
0.000294222
0.00377405
0.000375212
0.00403546
0.00046265
0.0042937
0.000556325
0.00454788
0.000655998
0.00479719
0.0007614
0.00504082
0.000872236
0.00527806
0.000988177
0.00550822
0.00110887
0.0057307
0.0012339
0.00594498
0.00136284
0.0061506
0.00149519
0.00634721
0.00163037
0.00653458
0.00176774
0.00671257
0.00190652
0.00688121
0.00204582
0.00704068
0.00218458
0.0071913
0.00232151
0.00733463
0.00747303
0.00245505
-6.07579e-06
-0.000110697
-2.06384e-05
-0.000221183
-4.06388e-05
-0.000241958
-6.35411e-05
-0.000198947
-8.726e-05
-0.000109047
-0.000110098
1.64931e-05
-0.000130677
0.000169605
-0.000147887
0.000344367
-0.000160833
0.000536373
-0.000168797
0.000742321
-0.000171204
0.000959682
-0.000167594
0.00118648
-0.000157605
0.00142111
-0.000140955
0.00166224
-0.000117431
0.00190871
-8.68799e-05
0.00215945
-4.92012e-05
0.00241349
-4.3405e-06
0.00266989
4.77129e-05
0.00292771
0.00010693
0.00318606
0.000173244
0.00344403
0.000246555
0.00370074
0.000326731
0.00395529
0.000413609
0.00420682
0.000506997
0.00445449
0.000606676
0.00469751
0.000712398
0.0049351
0.00082389
0.00516657
0.000940846
0.00539127
0.00106293
0.00560862
0.00118975
0.00581815
0.0013209
0.00601945
0.00145588
0.00621223
0.00159413
0.00639633
0.00173498
0.00657172
0.00187766
0.00673853
0.00202123
0.00689711
0.00216456
0.00704796
0.0023063
0.00719289
0.00733457
0.00244475
-6.73045e-06
-0.000103966
-2.27933e-05
-0.000205121
-4.48415e-05
-0.00021991
-7.01283e-05
-0.00017366
-9.64237e-05
-8.27521e-05
-0.000121928
4.19977e-05
-0.000145195
0.000192872
-0.000165063
0.000364235
-0.000180606
0.000551917
-0.000191082
0.000752796
-0.000195896
0.000964496
-0.000194577
0.00118516
-0.000186752
0.00141329
-0.000172128
0.00164762
-0.000150483
0.00188706
-0.000121657
0.00213063
-8.55369e-05
0.00237737
-4.2059e-05
0.00262641
8.79887e-06
0.00287686
6.70197e-05
0.00312784
0.000132551
0.0033785
0.000205307
0.00362798
0.000285171
0.00387542
0.000371999
0.00411999
0.000465616
0.00436088
0.000565823
0.0045973
0.000672394
0.00482853
0.000785078
0.00505389
0.000903592
0.00527275
0.00102762
0.00548459
0.00115681
0.00568896
0.00129076
0.0058855
0.001429
0.00607399
0.00157098
0.00625435
0.00171605
0.00642665
0.00186341
0.00659117
0.00201211
0.00674841
0.00216097
0.00689911
0.00230854
0.00704531
0.00719009
0.00245302
-7.36795e-06
-9.65984e-05
-2.488e-05
-0.000187609
-4.88903e-05
-0.0001959
-7.64427e-05
-0.000146108
-0.000105164
-5.40309e-05
-0.000133154
6.99879e-05
-0.000158898
0.000218616
-0.000181187
0.000386524
-0.000199061
0.000569791
-0.000211756
0.000765491
-0.000218661
0.000971401
-0.000219291
0.00118579
-0.000213262
0.00140726
-0.000200275
0.00163463
-0.000180099
0.00186689
-0.000152565
0.00210309
-0.000117552
0.00234236
-7.49878e-05
0.00258385
-2.48402e-05
0.00282671
3.28842e-05
0.00307012
9.81448e-05
0.00331324
0.000170869
0.00355526
0.000250955
0.00379534
0.000338271
0.00403267
0.000432663
0.00426648
0.000533949
0.00449601
0.000641923
0.00472056
0.000756357
0.00493945
0.000876993
0.00515212
0.00100355
0.00535804
0.00113569
0.00555682
0.00127305
0.00574814
0.00141518
0.00593186
0.00156157
0.00610796
0.00171158
0.00627664
0.00186443
0.00643833
0.00201913
0.00659371
0.00217449
0.00674375
0.00232897
0.00689083
0.00703841
0.00248065
-7.98495e-06
-8.86135e-05
-2.68873e-05
-0.000168707
-5.27636e-05
-0.000170024
-8.24509e-05
-0.000116421
-0.000113435
-2.30473e-05
-0.000143716
0.000100269
-0.000171713
0.000246613
-0.000196171
0.000410982
-0.000216098
0.000589718
-0.000230706
0.000780099
-0.000239368
0.000980064
-0.000241589
0.00118801
-0.000236974
0.00140264
-0.000225217
0.00162287
-0.000206079
0.00184775
-0.000179383
0.0020764
-0.000145004
0.00230798
-0.00010286
0.0025417
-5.29121e-05
0.00277676
4.84302e-06
0.00301236
7.0374e-05
0.00324771
0.000143619
0.00348201
0.000224489
0.00371447
0.000312866
0.0039443
0.000408608
0.00417074
0.000511551
0.00439307
0.00062151
0.0046106
0.000738278
0.00482268
0.000861623
0.00502877
0.000991287
0.00522838
0.00112698
0.00542112
0.00126836
0.00560676
0.00141503
0.00578519
0.0015665
0.00595649
0.00172217
0.00612097
0.00188129
0.00627921
0.00204288
0.00643211
0.00220572
0.00658092
0.0023682
0.00672834
0.00687834
0.00252828
-8.57821e-06
-8.00354e-05
-2.88043e-05
-0.000148481
-5.64403e-05
-0.000142388
-8.812e-05
-8.4741e-05
-0.00012119
1.00225e-05
-0.000153555
0.000132635
-0.000183569
0.000276627
-0.000209931
0.000437344
-0.000231617
0.000611404
-0.000247819
0.0007963
-0.000257893
0.000990138
-0.000261332
0.00119145
-0.000257733
0.00139904
-0.000246781
0.00161192
-0.000228233
0.0018292
-0.000201905
0.00205007
-0.000167665
0.00227374
-0.000125426
0.00249946
-7.51416e-05
0.00272648
-1.68025e-05
0.00295402
4.95682e-05
0.00318134
0.000123918
0.00340766
0.000206165
0.00363222
0.000296204
0.00385426
0.000393904
0.00407304
0.000499117
0.00428786
0.000611672
0.00449804
0.000731384
0.00470297
0.000858046
0.00490211
0.000991429
0.00509499
0.00113128
0.00528128
0.00127729
0.00546074
0.00142913
0.00563336
0.00158634
0.00579928
0.00174838
0.00595893
0.00191453
0.00611306
0.00208386
0.00626278
0.00225513
0.00640966
0.00242669
0.00655678
0.00670866
0.00259637
-9.14445e-06
-7.0891e-05
-3.062e-05
-0.000127005
-5.98995e-05
-0.000113109
-9.34175e-05
-5.1223e-05
-0.000128385
4.49899e-05
-0.000162615
0.000166864
-0.000194395
0.000308408
-0.000222384
0.000465333
-0.000245525
0.000634545
-0.000262987
0.000813762
-0.000274114
0.00100126
-0.000278385
0.00119572
-0.00027539
0.00139605
-0.000264806
0.00160134
-0.000246384
0.00181078
-0.000219934
0.00202362
-0.00018532
0.00223913
-0.00014245
0.00245659
-9.12714e-05
0.0026753
-3.17706e-05
0.00289452
3.60357e-05
0.00311353
0.000112101
0.0033316
0.00019635
0.00354797
0.000288685
0.00376192
0.000388985
0.00397274
0.000497111
0.00417973
0.000612906
0.00438224
0.000736202
0.00457968
0.000866814
0.0047715
0.00100454
0.00495726
0.00114917
0.00513665
0.00130044
0.00530948
0.00145805
0.00547575
0.00162163
0.0056357
0.0017907
0.00578986
0.00196461
0.00593914
0.00214248
0.00608492
0.00232308
0.00622906
0.00250475
0.00637511
0.00652821
0.0026852
-9.68031e-06
-6.12107e-05
-3.23236e-05
-0.000104362
-6.31204e-05
-8.23119e-05
-9.8311e-05
-1.60325e-05
-0.000134975
8.16538e-05
-0.000170836
0.000202726
-0.000204123
0.000341694
-0.000233448
0.000494658
-0.000257726
0.000658823
-0.000276105
0.000832141
-0.000287913
0.00101307
-0.000292619
0.00120042
-0.000289803
0.00139323
-0.000279135
0.00159067
-0.000260362
0.00179201
-0.000233287
0.00199654
-0.000197769
0.00220361
-0.000153713
0.00241254
-0.000101062
0.00262265
-3.97996e-05
0.00283326
3.00627e-05
0.00304367
0.000108482
0.00325318
0.000195387
0.00346107
0.000290685
0.00366663
0.000394258
0.00386917
0.000505974
0.00406802
0.000625687
0.00426253
0.000753239
0.00445212
0.000888464
0.00463627
0.00103119
0.00481454
0.00118122
0.00498662
0.00133835
0.00515234
0.00150235
0.00531175
0.0016729
0.00546514
0.00184962
0.00561315
0.00203193
0.00575683
0.00221904
0.00589781
0.00240979
0.00603831
0.00260251
0.00618238
0.0063359
0.00279482
-1.01824e-05
-5.10283e-05
-3.39045e-05
-8.06402e-05
-6.60824e-05
-5.01341e-05
-0.000102768
2.06532e-05
-0.000140915
0.000119801
-0.000178164
0.000239974
-0.000212681
0.000376211
-0.00024304
0.000525018
-0.000268126
0.000683909
-0.000287066
0.000851081
-0.000299174
0.00102518
-0.000303906
0.00120516
-0.000300833
0.00139016
-0.000289619
0.00157946
-0.000270004
0.00177239
-0.000241786
0.00196833
-0.000204821
0.00216665
-0.000159009
0.00236672
-0.000104292
0.00256793
-4.06469e-05
0.00276961
3.19141e-05
0.00297111
0.00011335
0.00317174
0.000203593
0.00337082
0.000302548
0.00356767
0.000410101
0.00376162
0.000526121
0.003952
0.000650464
0.00413819
0.000782979
0.00431961
0.000923509
0.00449574
0.0010719
0.00466615
0.00122798
0.00483053
0.0013916
0.00498873
0.00156256
0.00514079
0.00174065
0.00528706
0.00192555
0.00542824
0.00211682
0.00556556
0.00231378
0.00570085
0.00251535
0.00583674
0.00271992
0.00597781
0.00613077
0.00292506
-1.06475e-05
-4.03808e-05
-3.53521e-05
-5.59356e-05
-6.87646e-05
-1.67217e-05
-0.000106757
5.86451e-05
-0.000146162
0.000159206
-0.00018454
0.000278352
-0.00022
0.000411672
-0.000251079
0.000556096
-0.000276632
0.000709463
-0.000295766
0.000870215
-0.000307778
0.00103719
-0.000312116
0.00120949
-0.00030834
0.00138638
-0.000296107
0.00156722
-0.000275149
0.00175143
-0.000245262
0.00193844
-0.000206294
0.00212768
-0.000158143
0.00231857
-0.000100748
0.00251053
-3.40852e-05
0.00270295
4.18356e-05
0.00289519
0.000126973
0.0030866
0.000221259
0.00327654
0.000324595
0.00346434
0.000436865
0.00364935
0.000557934
0.00383093
0.000687655
0.00400847
0.000825875
0.00418139
0.000972438
0.00434918
0.00112719
0.0045114
0.00129
0.00466773
0.00146072
0.00481801
0.00163921
0.00496229
0.00182534
0.00510093
0.0020189
0.00523468
0.00221957
0.00536488
0.00242682
0.0054936
0.00263972
0.00562384
0.00285675
0.00576078
0.00591203
0.00307548
-1.10722e-05
-2.93087e-05
-3.66558e-05
-3.03522e-05
-7.11461e-05
1.77685e-05
-0.000110244
9.77426e-05
-0.000150669
0.000199631
-0.000189905
0.000317588
-0.00022601
0.000447776
-0.000257479
0.000587566
-0.000283145
0.000735129
-0.000302093
0.000889163
-0.000313606
0.00104871
-0.000317119
0.00121301
-0.000312183
0.00138145
-0.000298447
0.00155349
-0.000275636
0.00172862
-0.00024354
0.00190634
-0.000202003
0.00208614
-0.00015092
0.00226749
-9.02261e-05
0.00244984
-1.98962e-05
0.00263262
6.00603e-05
0.00281523
0.000149602
0.00299706
0.000248655
0.00317748
0.000357119
0.00335587
0.000474871
0.00353159
0.000601766
0.00370403
0.000737649
0.00387258
0.000882354
0.00403669
0.00103572
0.00419582
0.00119758
0.00434954
0.00136779
0.00449751
0.00154625
0.00463956
0.00173284
0.0047757
0.00192748
0.00490628
0.00213008
0.00503209
0.00234045
0.00515451
0.00255825
0.00527581
0.00278275
0.00539935
0.0030126
0.00553092
0.00567918
0.00324545
-1.14535e-05
-1.78552e-05
-3.78047e-05
-4.00117e-06
-7.32059e-05
5.31696e-05
-0.000113197
0.000137733
-0.000154391
0.000240826
-0.000194201
0.000357399
-0.000230635
0.00048421
-0.000262154
0.000619085
-0.000287565
0.00076054
-0.000305935
0.000907533
-0.000316531
0.0010593
-0.000318775
0.00121525
-0.000312211