/*--------------------------------*- C++ -*----------------------------------*\
  =========                 |
  \\      /  F ield         | OpenFOAM: The Open Source CFD Toolbox
   \\    /   O peration     | Website:  https://openfoam.org
    \\  /    A nd           | Version:  7
     \\/     M anipulation  |
\*---------------------------------------------------------------------------*/
FoamFile
{
    version     2.0;
    format      ascii;
    class       volScalarField;
    location    "4.4";
    object      p;
}
// * * * * * * * * * * * * * * * * * * * * * * * * * * * * * * * * * * * * * //

dimensions      [0 2 -2 0 0 0 0];

internalField   nonuniform List<scalar> 
18000
(
0.968054
0.96706
0.967015
0.9672
0.967702
0.968486
0.969552
0.970919
0.972591
0.974561
0.976808
0.979309
0.982045
0.984997
0.988132
0.991419
0.994822
0.998306
1.00184
1.0054
1.00895
1.01248
1.01595
1.01935
1.02266
1.02588
1.029
1.03203
1.03494
1.03761
0.966148
0.965165
0.965143
0.965357
0.965883
0.966674
0.967729
0.969056
0.970658
0.97253
0.974652
0.976996
0.979546
0.982282
0.985178
0.988208
0.991343
0.994553
0.99781
1.00109
1.00436
1.00762
1.01083
1.01399
1.01708
1.02008
1.02301
1.02585
1.0286
1.03114
0.964131
0.963183
0.963188
0.963435
0.963989
0.964794
0.965844
0.967136
0.96867
0.970441
0.972431
0.974613
0.976969
0.979481
0.982129
0.984891
0.987745
0.990666
0.993628
0.996611
0.999597
1.00257
1.00551
1.00842
1.01127
1.01407
1.01679
1.01945
1.02204
1.02444
0.961986
0.961097
0.961142
0.961431
0.96202
0.962846
0.963895
0.965156
0.966623
0.968291
0.970144
0.972158
0.974313
0.976593
0.978983
0.981468
0.984029
0.986646
0.989299
0.991973
0.994656
0.997336
1
1.00265
1.00526
1.00783
1.01036
1.01284
1.01525
1.01752
0.959761
0.958954
0.959039
0.959372
0.959996
0.960843
0.961888
0.963117
0.964515
0.966078
0.967791
0.969631
0.971578
0.97362
0.975744
0.977943
0.980201
0.982502
0.984832
0.987185
0.989552
0.991927
0.994304
0.996678
0.999043
1.00139
1.00372
1.00602
1.00827
1.01039
0.957455
0.956735
0.956865
0.957244
0.957905
0.958774
0.959817
0.961013
0.962344
0.963802
0.965372
0.967032
0.968767
0.970564
0.972419
0.974324
0.976269
0.978243
0.98024
0.98226
0.9843
0.98636
0.988438
0.990535
0.992646
0.994766
0.996887
0.999009
1.00111
1.0031
0.95508
0.954461
0.954638
0.955065
0.955762
0.956652
0.957692
0.958855
0.960119
0.961469
0.962893
0.96437
0.965887
0.967438
0.969019
0.970625
0.972249
0.973887
0.975542
0.977219
0.978923
0.980659
0.982431
0.984243
0.986095
0.987981
0.989897
0.991843
0.993795
0.995657
0.952641
0.952134
0.95236
0.952837
0.953568
0.954478
0.955516
0.956647
0.957842
0.959084
0.960359
0.961651
0.96295
0.964253
0.965558
0.96686
0.968157
0.969453
0.970759
0.972088
0.973449
0.974854
0.976315
0.977837
0.979424
0.981075
0.982784
0.984557
0.98637
0.988111
0.950144
0.94976
0.950035
0.95056
0.951326
0.952256
0.953293
0.954391
0.955518
0.956651
0.957778
0.958885
0.959968
0.961024
0.962051
0.963046
0.964013
0.964966
0.965921
0.966897
0.967912
0.968985
0.970129
0.971358
0.972678
0.974091
0.975595
0.977197
0.97888
0.980507
0.947596
0.947342
0.947666
0.94824
0.949041
0.94999
0.951025
0.952092
0.953151
0.954178
0.955159
0.956085
0.956954
0.957765
0.958514
0.959204
0.959845
0.960455
0.961059
0.961683
0.962353
0.963093
0.963922
0.964857
0.965908
0.967083
0.968384
0.969817
0.971378
0.972899
0.945004
0.944885
0.945258
0.94588
0.946715
0.947683
0.948717
0.949756
0.95075
0.951673
0.952513
0.953263
0.953923
0.954492
0.954969
0.955359
0.955678
0.955951
0.956209
0.956486
0.956816
0.957227
0.957744
0.958387
0.959172
0.960112
0.961211
0.962478
0.96392
0.965345
0.942375
0.942393
0.942815
0.943485
0.944353
0.945342
0.946377
0.947387
0.94832
0.949146
0.949851
0.950432
0.95089
0.951224
0.951435
0.951534
0.951541
0.951486
0.951407
0.951347
0.951346
0.951436
0.951648
0.952005
0.952531
0.953239
0.954138
0.95524
0.956567
0.957901
0.939717
0.93987
0.940342
0.941058
0.941961
0.942971
0.944008
0.944994
0.945871
0.946605
0.947183
0.947603
0.947868
0.947977
0.947935
0.947753
0.94746
0.94709
0.946689
0.946306
0.945987
0.945769
0.945686
0.945768
0.946041
0.946524
0.947227
0.948164
0.949376
0.950627
0.937034
0.93732
0.93784
0.938603
0.939541
0.940574
0.941616
0.942582
0.943408
0.944058
0.944518
0.944788
0.944871
0.944768
0.944485
0.944038
0.943459
0.942791
0.942086
0.941398
0.940778
0.940268
0.939906
0.939724
0.939755
0.940021
0.940532
0.941307
0.942402
0.943572
0.934333
0.934745
0.935312
0.936121
0.937096
0.938154
0.939204
0.940155
0.940937
0.941511
0.941863
0.941995
0.94191
0.941609
0.941101
0.940406
0.93956
0.938614
0.937625
0.936653
0.935753
0.934969
0.934344
0.933914
0.933715
0.933772
0.934099
0.934713
0.935688
0.936778
0.93162
0.932147
0.93276
0.933615
0.934628
0.935714
0.936776
0.937717
0.938463
0.93897
0.939227
0.939234
0.938994
0.938511
0.937794
0.936868
0.935777
0.934574
0.933325
0.932093
0.930933
0.929896
0.929026
0.928364
0.927949
0.92781
0.92796
0.928417
0.929267
0.930277
0.9289
0.929529
0.930186
0.931087
0.93214
0.933256
0.934333
0.93527
0.935987
0.936438
0.936611
0.936507
0.936128
0.935477
0.934569
0.933434
0.932118
0.930683
0.929197
0.927727
0.92633
0.92506
0.923964
0.923087
0.922472
0.922148
0.922132
0.922436
0.923155
0.924082
0.926174
0.926892
0.927592
0.928539
0.929633
0.930781
0.931877
0.932815
0.933509
0.933915
0.934018
0.933817
0.933312
0.93251
0.931429
0.930103
0.928585
0.926941
0.925241
0.923555
0.921943
0.92046
0.919157
0.918083
0.917283
0.916789
0.916615
0.916772
0.917356
0.918197
0.923446
0.924236
0.924977
0.925971
0.927107
0.92829
0.929407
0.93035
0.93103
0.931401
0.931445
0.931159
0.930543
0.929604
0.928366
0.926868
0.925169
0.923337
0.921447
0.919566
0.917758
0.916081
0.914589
0.913336
0.912367
0.911715
0.911394
0.911411
0.911858
0.91261
0.920714
0.921559
0.922341
0.923381
0.924561
0.925779
0.92692
0.927872
0.928545
0.92889
0.928886
0.928526
0.92781
0.926749
0.925369
0.923716
0.921854
0.919854
0.917791
0.915735
0.91375
0.911896
0.910234
0.908818
0.907695
0.906899
0.906443
0.906327
0.90664
0.907302
0.917975
0.918861
0.919681
0.920768
0.921992
0.923247
0.924414
0.925378
0.92605
0.926375
0.926331
0.925906
0.925099
0.923926
0.922417
0.920625
0.918616
0.916464
0.914245
0.91203
0.909883
0.90787
0.906052
0.904489
0.903229
0.902302
0.901723
0.901486
0.901669
0.902246
0.915225
0.916137
0.916993
0.918127
0.919396
0.920689
0.921883
0.922862
0.923534
0.923845
0.923765
0.923281
0.922391
0.921114
0.919487
0.917567
0.915424
0.913133
0.91077
0.908409
0.906115
0.903957
0.901999
0.900304
0.89892
0.897878
0.897188
0.896844
0.896909
0.897407
0.912459
0.913383
0.914275
0.915454
0.916768
0.918099
0.919321
0.920314
0.920988
0.921286
0.921173
0.920631
0.919661
0.918287
0.91655
0.914511
0.912241
0.90982
0.907325
0.904828
0.9024
0.900109
0.898026
0.896213
0.894719
0.893574
0.89279
0.892354
0.892317
0.892751
0.90967
0.910596
0.91152
0.912744
0.914101
0.91547
0.916717
0.917724
0.918399
0.918682
0.918533
0.917933
0.916885
0.915416
0.913573
0.91142
0.909032
0.906488
0.903867
0.901245
0.898692
0.896281
0.894083
0.892164
0.890572
0.889339
0.888473
0.887964
0.887845
0.888235
0.906851
0.90777
0.908725
0.90999
0.91139
0.912793
0.914063
0.91508
0.915753
0.916016
0.915827
0.915165
0.914037
0.912473
0.910527
0.908263
0.905759
0.903097
0.900358
0.897617
0.894949
0.892426
0.890124
0.888108
0.886429
0.885116
0.884182
0.883615
0.883439
0.883813
0.903991
0.904898
0.905882
0.907188
0.908626
0.91006
0.911348
0.91237
0.913034
0.91327
0.913033
0.912303
0.91109
0.909431
0.90738
0.905007
0.902391
0.899616
0.896764
0.893912
0.891135
0.888508
0.886108
0.884
0.882238
0.880852
0.879856
0.879244
0.879033
0.879426
0.90108
0.901974
0.902986
0.904331
0.905805
0.907263
0.908562
0.909582
0.910228
0.910427
0.910132
0.909326
0.908023
0.906264
0.904108
0.901626
0.898901
0.896017
0.893058
0.890102
0.887223
0.884497
0.882001
0.879802
0.877952
0.876487
0.875427
0.874773
0.874545
0.874993
0.898108
0.898991
0.900032
0.901413
0.902918
0.904394
0.905696
0.906704
0.907321
0.907471
0.907107
0.906215
0.904816
0.902953
0.90069
0.898101
0.89527
0.892283
0.889224
0.88617
0.883195
0.880373
0.877779
0.87548
0.873528
0.871961
0.870811
0.870103
0.869875
0.870419
0.895062
0.89594
0.897013
0.898429
0.89996
0.901445
0.90274
0.903724
0.904299
0.904387
0.903942
0.902956
0.901452
0.899482
0.897111
0.894417
0.891484
0.888401
0.88525
0.882106
0.879041
0.876126
0.87343
0.871015
0.868928
0.867209
0.8659
0.865066
0.864848
0.865607
0.891937
0.892821
0.893925
0.895375
0.896924
0.898409
0.899686
0.900634
0.901152
0.901165
0.900627
0.899537
0.897924
0.895843
0.893365
0.890568
0.887541
0.88437
0.881136
0.877912
0.874765
0.87176
0.868957
0.866409
0.86415
0.8622
0.860582
0.859348
0.858694
0.859415
1.0458
1.05901
1.06684
1.07392
1.07817
1.08117
1.0828
1.08348
1.08341
1.08274
1.08159
1.08003
1.07815
1.07602
1.0737
1.07122
1.06863
1.06599
1.06329
1.06054
1.05774
1.05491
1.05205
1.04919
1.04628
1.04344
1.04058
1.03798
1.03568
1.03441
1.03915
1.05297
1.06129
1.06882
1.07337
1.07655
1.0783
1.0791
1.07913
1.07853
1.07744
1.07596
1.07415
1.07209
1.06981
1.06739
1.06486
1.06225
1.05959
1.05689
1.05411
1.0513
1.04845
1.04558
1.04268
1.03981
1.03692
1.03429
1.03194
1.03064
1.03224
1.04679
1.05565
1.06365
1.06852
1.07189
1.07378
1.0747
1.07483
1.07431
1.07328
1.07188
1.07014
1.06815
1.06592
1.06356
1.06108
1.05852
1.0559
1.05324
1.05049
1.04771
1.04487
1.04201
1.0391
1.03622
1.03332
1.03066
1.02826
1.02693
1.02505
1.04047
1.04993
1.05843
1.06363
1.06721
1.06925
1.07029
1.07052
1.07008
1.06913
1.0678
1.06612
1.0642
1.06204
1.05973
1.05731
1.0548
1.05222
1.0496
1.04688
1.04413
1.04131
1.03846
1.03557
1.03269
1.02977
1.02708
1.02465
1.02329
1.01761
1.034
1.04412
1.05316
1.05869
1.0625
1.06471
1.06587
1.06619
1.06585
1.06498
1.06371
1.0621
1.06023
1.05815
1.0559
1.05354
1.05108
1.04855
1.04596
1.04329
1.04057
1.03777
1.03495
1.03207
1.02919
1.02626
1.02356
1.0211
1.0197
1.00994
1.02741
1.03822
1.04784
1.05373
1.05778
1.06015
1.06143
1.06185
1.0616
1.06081
1.05962
1.05808
1.05627
1.05426
1.05207
1.04977
1.04737
1.04488
1.04233
1.03971
1.03702
1.03426
1.03147
1.0286
1.02574
1.02281
1.0201
1.01761
1.01617
1.00206
1.0207
1.03224
1.04247
1.04875
1.05304
1.05558
1.05699
1.05752
1.05735
1.05665
1.05552
1.05405
1.05231
1.05037
1.04825
1.046
1.04365
1.04122
1.03872
1.03614
1.03349
1.03077
1.02801
1.02517
1.02233
1.01941
1.01668
1.01417
1.01271
0.993998
1.01389
1.0262
1.03707
1.04374
1.04829
1.05101
1.05255
1.05317
1.0531
1.05248
1.05142
1.05003
1.04835
1.04647
1.04442
1.04223
1.03995
1.03757
1.03512
1.03258
1.02998
1.02731
1.02459
1.02178
1.01896
1.01605
1.01333
1.0108
1.0093
0.985804
1.00698
1.02009
1.03162
1.03871
1.04352
1.04643
1.0481
1.04883
1.04885
1.04831
1.04733
1.046
1.0444
1.04259
1.0406
1.03847
1.03624
1.03392
1.03152
1.02904
1.02649
1.02386
1.02119
1.01842
1.01563
1.01275
1.01002
1.00748
1.00596
0.977523
1.00002
1.01394
1.02614
1.03366
1.03874
1.04184
1.04365
1.04449
1.0446
1.04414
1.04324
1.04198
1.04045
1.0387
1.03679
1.03472
1.03255
1.03028
1.02794
1.02551
1.02302
1.02044
1.01782
1.01509
1.01235
1.00949
1.00678
1.00423
1.00268
0.969211
0.993007
1.00775
1.02063
1.0286
1.03396
1.03725
1.0392
1.04015
1.04035
1.03998
1.03915
1.03797
1.03651
1.03483
1.03298
1.03097
1.02886
1.02666
1.02437
1.022
1.01957
1.01705
1.01448
1.0118
1.0091
1.00628
1.00358
1.00103
0.999454
0.960928
0.985979
1.00155
1.01511
1.02352
1.02917
1.03266
1.03475
1.03581
1.03612
1.03582
1.03507
1.03396
1.03257
1.03096
1.02918
1.02724
1.02519
1.02304
1.02081
1.0185
1.01613
1.01367
1.01116
1.00854
1.00589
1.00311
1.00045
0.997888
0.996295
0.952741
0.978963
0.995352
1.00957
1.01844
1.02438
1.02808
1.03031
1.03149
1.03189
1.03168
1.031
1.02996
1.02864
1.0271
1.02538
1.02351
1.02152
1.01943
1.01726
1.01502
1.01271
1.01032
1.00787
1.00532
1.00273
0.999996
0.997363
0.994811
0.993199
0.944713
0.971986
0.989169
1.00402
1.01335
1.01959
1.0235
1.02589
1.02717
1.02767
1.02754
1.02694
1.02598
1.02473
1.02325
1.0216
1.01978
1.01786
1.01583
1.01373
1.01155
1.00931
1.00699
1.00461
1.00213
0.999598
0.996927
0.994337
0.991797
0.990168
0.936905
0.965077
0.98302
0.998467
1.00827
1.01481
1.01893
1.02147
1.02287
1.02346
1.02342
1.02289
1.022
1.02082
1.01941
1.01782
1.01607
1.01421
1.01224
1.01021
1.0081
1.00593
1.00368
1.00138
0.998966
0.99651
0.993905
0.991366
0.988847
0.987204
0.929371
0.958265
0.976922
0.992925
1.00318
1.01002
1.01437
1.01706
1.01859
1.01927
1.01931
1.01886
1.01804
1.01693
1.01559
1.01406
1.01237
1.01057
1.00867
1.0067
1.00467
1.00256
1.00039
0.99817
0.995835
0.993458
0.990928
0.988452
0.985963
0.984309
0.922153
0.951577
0.97089
0.987398
0.998101
1.00525
1.00983
1.01268
1.01432
1.0151
1.01522
1.01484
1.01409
1.01306
1.01178
1.01031
1.00868
1.00694
1.00511
1.00321
1.00124
0.999214
0.99712
0.994981
0.992731
0.990442
0.987997
0.985594
0.983148
0.981487
0.915284
0.94504
0.964939
0.981897
0.993031
1.00049
1.0053
1.00831
1.01007
1.01094
1.01114
1.01084
1.01017
1.0092
1.00798
1.00657
1.005
1.00332
1.00156
0.999726
0.997831
0.995881
0.993864
0.991812
0.989652
0.987458
0.98511
0.982793
0.980403
0.978742
0.908784
0.938678
0.959082
0.976431
0.987976
0.995747
1.00079
1.00397
1.00585
1.00681
1.00709
1.00686
1.00626
1.00535
1.00419
1.00284
1.00133
0.99972
0.998018
0.996256
0.994432
0.992561
0.990623
0.988659
0.986596
0.984505
0.982265
0.98005
0.977732
0.976079
0.90266
0.932511
0.953333
0.971007
0.982944
0.991026
0.996304
0.999651
1.00166
1.00271
1.00306
1.00291
1.00237
1.00152
1.00042
0.999127
0.997678
0.996128
0.994489
0.992798
0.991043
0.989251
0.987395
0.98552
0.983559
0.981581
0.979462
0.977366
0.97514
0.973505
0.896916
0.926559
0.947704
0.965636
0.977941
0.986331
0.991849
0.995365
0.997492
0.998636
0.999066
0.998978
0.998497
0.997711
0.996665
0.995428
0.994036
0.992547
0.990971
0.989349
0.987665
0.98595
0.984176
0.982394
0.98054
0.978683
0.976699
0.974742
0.972629
0.971027
0.891546
0.920834
0.942205
0.960326
0.972974
0.981667
0.987426
0.991111
0.993361
0.994595
0.995096
0.995074
0.99465
0.993918
0.992926
0.991743
0.990407
0.988978
0.987463
0.985909
0.984294
0.982655
0.980966
0.979279
0.977537
0.975809
0.973974
0.972176
0.970206
0.968655
0.886544
0.915348
0.936845
0.955088
0.96805
0.977042
0.983039
0.986895
0.989266
0.990589
0.991157
0.991198
0.990827
0.990146
0.989207
0.988073
0.98679
0.98542
0.983965
0.982476
0.980929
0.979367
0.977761
0.976172
0.974546
0.972955
0.971283
0.96967
0.967873
0.966399
0.881906
0.91011
0.931629
0.949935
0.963181
0.972463
0.978695
0.98272
0.985211
0.986619
0.987253
0.987352
0.987031
0.986396
0.985506
0.984419
0.983188
0.981874
0.980477
0.979049
0.97757
0.976082
0.974561
0.973069
0.971563
0.970117
0.968621
0.967218
0.965636
0.964273
0.877632
0.905127
0.926566
0.944879
0.958376
0.967938
0.974399
0.978594
0.981201
0.98269
0.983386
0.983539
0.983265
0.98267
0.981825
0.980781
0.9796
0.978339
0.976997
0.975628
0.974214
0.972799
0.971362
0.969969
0.968585
0.96729
0.965985
0.964819
0.963496
0.962294
0.873725
0.900404
0.921667
0.939938
0.953656
0.96348
0.970163
0.974522
0.977241
0.978809
0.979562
0.979763
0.979529
0.97897
0.978165
0.977162
0.976027
0.974815
0.973525
0.972211
0.970861
0.969516
0.968162
0.966869
0.965608
0.964469
0.963366
0.962465
0.961455
0.960483
0.870195
0.895942
0.916943
0.935132
0.949038
0.959101
0.965995
0.970512
0.973337
0.974979
0.975786
0.976026
0.975827
0.975298
0.974527
0.973562
0.972469
0.971302
0.97006
0.968799
0.967509
0.966232
0.96496
0.963766
0.962627
0.961647
0.960756
0.960148
0.959514
0.958869
0.867069
0.89168
0.912314
0.930381
0.94445
0.954742
0.961848
0.966526
0.969457
0.971174
0.97203
0.972305
0.972135
0.971634
0.970894
0.969965
0.968911
0.967785
0.96659
0.965378
0.964147
0.962937
0.961746
0.960649
0.959632
0.958811
0.95814
0.957852
0.957664
0.957487
0.864248
0.88743
0.907587
0.925504
0.939729
0.95026
0.957595
0.962454
0.965508
0.967311
0.968224
0.968538
0.968399
0.967929
0.967222
0.966331
0.965318
0.964234
0.963088
0.961927
0.960754
0.959612
0.958503
0.957502
0.956606
0.955945
0.955501
0.955553
0.955888
0.956382
0.861672
0.883445
0.903214
0.92097
0.935253
0.945933
0.95343
0.95843
0.961585
0.96346
0.964424
0.964773
0.964665
0.964227
0.96355
0.962696
0.961721
0.960677
0.959575
0.958461
0.957344
0.956266
0.955234
0.954322
0.95354
0.95303
0.952805
0.953205
0.954131
0.955574
0.852175
0.8729
0.892633
0.910391
0.924677
0.935425
0.943017
0.948077
0.951238
0.953086
0.954021
0.954346
0.95423
0.953801
0.953138
0.952318
0.951382
0.950388
0.949355
0.948327
0.94732
0.946379
0.945524
0.944826
0.944325
0.944189
0.944532
0.945877
0.948577
0.953523
0.831336
0.851806
0.870767
0.887196
0.9005
0.910887
0.918575
0.92398
0.927611
0.929946
0.931352
0.932102
0.932383
0.932323
0.932014
0.931532
0.930926
0.930248
0.929528
0.928809
0.928112
0.927488
0.926966
0.926632
0.926544
0.926904
0.927892
0.930148
0.934216
0.940915
0.80919
0.829279
0.847226
0.862588
0.87527
0.88549
0.893331
0.899084
0.903172
0.905996
0.907882
0.909089
0.909801
0.910153
0.91024
0.910139
0.9099
0.909577
0.909201
0.908817
0.90845
0.908155
0.907966
0.907974
0.908245
0.908991
0.910395
0.913105
0.917695
0.925027
0.785769
0.805274
0.822365
0.837062
0.849407
0.859567
0.86757
0.873642
0.878142
0.881417
0.883762
0.885419
0.886567
0.887342
0.887837
0.888132
0.888277
0.888327
0.888313
0.888282
0.888257
0.888297
0.888435
0.888763
0.889344
0.890385
0.892053
0.894968
0.899664
0.907153
0.76141
0.780318
0.796746
0.810963
0.823049
0.833154
0.841296
0.847659
0.852548
0.856261
0.859063
0.861177
0.862771
0.86398
0.864895
0.865596
0.866135
0.866567
0.866921
0.867247
0.867566
0.867937
0.868386
0.869006
0.869851
0.871118
0.872946
0.875919
0.880491
0.887852
0.736174
0.754568
0.770455
0.784276
0.796142
0.8062
0.814468
0.821098
0.826351
0.830488
0.833739
0.836308
0.838354
0.840004
0.841345
0.84246
0.843397
0.844213
0.844934
0.845612
0.846267
0.846953
0.847694
0.848577
0.849647
0.851086
0.853006
0.855952
0.860302
0.867411
0.710089
0.728043
0.743479
0.756976
0.76867
0.778705
0.787099
0.793981
0.799578
0.804119
0.807805
0.810821
0.813313
0.815402
0.817171
0.818699
0.820033
0.821227
0.822311
0.823332
0.824309
0.825292
0.826302
0.82742
0.828681
0.830256
0.832229
0.835111
0.839214
0.846027
0.683171
0.700747
0.715811
0.729052
0.740626
0.750666
0.759193
0.76632
0.772246
0.777172
0.781276
0.784726
0.787655
0.790175
0.792366
0.794301
0.796024
0.79759
0.799027
0.800379
0.801662
0.802925
0.804184
0.805514
0.806943
0.80863
0.810638
0.813445
0.817307
0.823813
0.655438
0.672693
0.687454
0.700501
0.711999
0.722072
0.730739
0.738103
0.744344
0.749638
0.754144
0.758012
0.761365
0.764307
0.766911
0.769244
0.771348
0.773276
0.775054
0.776725
0.7783
0.779827
0.781318
0.782843
0.784425
0.78621
0.788243
0.790975
0.794609
0.800804
0.626916
0.643895
0.658411
0.671315
0.682773
0.692897
0.701711
0.709308
0.715851
0.721498
0.72639
0.730661
0.734424
0.737775
0.74078
0.743501
0.745977
0.748259
0.750367
0.752344
0.754199
0.755977
0.757687
0.759396
0.761119
0.762993
0.765048
0.767709
0.771128
0.777008
0.597624
0.614365
0.628682
0.64148
0.652926
0.663121
0.672088
0.679914
0.686747
0.692733
0.697995
0.702653
0.706811
0.710556
0.713948
0.717045
0.719884
0.722508
0.724937
0.72721
0.729335
0.731353
0.733272
0.735153
0.737007
0.738961
0.741031
0.743621
0.746835
0.752391
0.567583
0.584113
0.598266
0.610987
0.622443
0.632723
0.64185
0.649901
0.657015
0.663324
0.668939
0.673967
0.678502
0.682625
0.686391
0.689853
0.693041
0.695996
0.698735
0.701294
0.70368
0.70593
0.708051
0.710098
0.712079
0.71411
0.716197
0.718717
0.721733
0.726964
0.536812
0.553147
0.567161
0.579827
0.591311
0.601688
0.610978
0.619251
0.626635
0.633254
0.639204
0.644583
0.649477
0.653961
0.658084
0.661895
0.665418
0.668691
0.671729
0.674564
0.677201
0.679673
0.681985
0.684186
0.686279
0.688375
0.690472
0.692925
0.695757
0.700634
0.505323
0.521473
0.535366
0.547994
0.559519
0.57
0.579455
0.587945
0.595588
0.602501
0.60877
0.614483
0.619716
0.62454
0.629001
0.633142
0.636984
0.640561
0.643884
0.646983
0.649861
0.652549
0.655048
0.657403
0.659614
0.661779
0.663888
0.666267
0.668912
0.673473
0.473135
0.489099
0.502883
0.515482
0.527055
0.537647
0.547265
0.555965
0.563856
0.571047
0.577617
0.583643
0.589194
0.594337
0.599114
0.603563
0.607705
0.611568
0.615161
0.618507
0.621609
0.624494
0.62716
0.629648
0.631956
0.634176
0.636297
0.638621
0.6411
0.645256
0.440256
0.456029
0.469709
0.482286
0.493913
0.504615
0.514394
0.523297
0.531423
0.538875
0.545725
0.552041
0.557886
0.563322
0.568389
0.573123
0.577542
0.581669
0.585512
0.589092
0.592411
0.595491
0.598328
0.600956
0.603363
0.605629
0.607737
0.609978
0.612308
0.616198
0.406702
0.422266
0.435846
0.448405
0.460088
0.470897
0.480829
0.489924
0.498271
0.505964
0.513072
0.519653
0.525765
0.531466
0.536794
0.541785
0.546451
0.550815
0.554881
0.558669
0.562172
0.565411
0.568383
0.571121
0.573621
0.575958
0.5781
0.580285
0.582412
0.585811
0.372478
0.387811
0.401296
0.413842
0.425577
0.436484
0.44656
0.455836
0.464386
0.4723
0.47964
0.486458
0.492805
0.498738
0.504291
0.509503
0.514384
0.518958
0.523228
0.52721
0.530898
0.534302
0.53741
0.540239
0.542772
0.545083
0.547162
0.549278
0.551376
0.554582
0.337599
0.352667
0.366066
0.378602
0.39038
0.401373
0.411578
0.42102
0.429756
0.437867
0.445412
0.452434
0.45898
0.465103
0.470842
0.476233
0.481288
0.486028
0.490452
0.494572
0.498384
0.501904
0.505128
0.508079
0.510737
0.51314
0.51523
0.517197
0.518952
0.521599
0.302094
0.316851
0.330174
0.3427
0.354503
0.365561
0.375879
0.385472
0.394373
0.402655
0.41037
0.417556
0.424257
0.430525
0.436402
0.441925
0.447114
0.45199
0.456554
0.46081
0.464742
0.468345
0.471598
0.47452
0.477113
0.479453
0.481524
0.483524
0.485374
0.487818
0.266039
0.280415
0.293666
0.306166
0.31796
0.329051
0.33946
0.349184
0.35823
0.366651
0.374497
0.381806
0.388615
0.394976
0.400931
0.406522
0.411769
0.416699
0.421312
0.425625
0.429635
0.433351
0.436744
0.439795
0.442444
0.444703
0.446545
0.4482
0.449686
0.451657
0.229642
0.243511
0.256641
0.269058
0.280776
0.291852
0.302323
0.312159
0.321323
0.329847
0.33778
0.345158
0.352017
0.358406
0.364377
0.369982
0.375251
0.380208
0.384845
0.389156
0.393117
0.396733
0.40001
0.402986
0.40566
0.408051
0.410063
0.411781
0.413143
0.414639
0.193339
0.20647
0.219303
0.231484
0.243005
0.253988
0.26448
0.274401
0.283655
0.292246
0.300222
0.307619
0.31446
0.320796
0.326683
0.332183
0.337342
0.342207
0.346802
0.351138
0.355182
0.358883
0.362159
0.364982
0.367353
0.369364
0.371021
0.372458
0.373642
0.374669
0.157911
0.169908
0.182045
0.193668
0.204773
0.215539
0.225984
0.235942
0.245235
0.253837
0.261791
0.269133
0.275881
0.28209
0.287829
0.293168
0.298152
0.302815
0.30717
0.311241
0.315042
0.31859
0.321866
0.324833
0.327398
0.329504
0.331059
0.332153
0.332851
0.333284
0.12443
0.134745
0.145541
0.156061
0.166371
0.176688
0.186951
0.196857
0.206133
0.214697
0.222576
0.229781
0.236319
0.242248
0.247666
0.252687
0.257403
0.261886
0.266137
0.270108
0.273707
0.27689
0.279678
0.282158
0.284382
0.28635
0.287893
0.288883
0.289197
0.288736
0.094008
0.102068
0.110754
0.119466
0.128437
0.137894
0.147646
0.157251
0.166338
0.174749
0.182451
0.18943
0.195679
0.201251
0.206233
0.210739
0.214887
0.218801
0.22257
0.226236
0.229751
0.233002
0.235846
0.238212
0.240109
0.24165
0.242822
0.243479
0.243359
0.242198
0.0674219
0.0728715
0.0788367
0.0850756
0.09211
0.100138
0.108833
0.117705
0.126323
0.134392
0.141748
0.148303
0.154046
0.159073
0.163528
0.167546
0.171214
0.174581
0.17768
0.180573
0.183314
0.185928
0.188368
0.190538
0.192332
0.193736
0.194695
0.194969
0.194072
0.191705
0.0447137
0.0476113
0.0507792
0.0542009
0.0588201
0.0646739
0.0713732
0.0786234
0.086099
0.0934
0.100154
0.106097
0.111116
0.115287
0.118801
0.121892
0.124768
0.127572
0.130334
0.132979
0.135371
0.137419
0.139137
0.14062
0.141925
0.143071
0.143981
0.144278
0.143026
0.139785
0.0251278
0.02591
0.0266608
0.0276136
0.0302251
0.0337004
0.0377463
0.0424818
0.0477951
0.0533323
0.0587003
0.0635643
0.0676805
0.0709414
0.073378
0.075175
0.0766398
0.0781074
0.0797859
0.0816619
0.0835314
0.0851476
0.086378
0.087271
0.0879422
0.0884809
0.0889335
0.0891413
0.0879429
0.0841985
0.00767715
0.00664712
0.00254314
0.00159889
0.00403188
0.0057931
0.00722494
0.00905945
0.0114119
0.0141059
0.0169184
0.0196348
0.0220598
0.0240566
0.0255559
0.0265886
0.0272846
0.0278281
0.028383
0.0290413
0.0297834
0.0305118
0.0311219
0.0315779
0.0318879
0.0320534
0.0320824
0.0321209
0.0316863
0.0288327
0.836076
0.815548
0.793207
0.769572
0.745206
0.719986
0.693945
0.667104
0.639471
0.611066
0.581924
0.55205
0.521475
0.490212
0.458285
0.425713
0.392518
0.358737
0.324417
0.289653
0.25458
0.219469
0.184769
0.151162
0.119528
0.0907523
0.0654816
0.0438051
0.0249893
0.0080577
0.831445
0.810151
0.787642
0.76398
0.73969
0.714555
0.688599
0.661846
0.634303
0.605991
0.576945
0.54717
0.516697
0.485541
0.453726
0.421277
0.38821
0.354572
0.32041
0.285829
0.250972
0.216125
0.18176
0.148575
0.117446
0.0892265
0.0645121
0.0433258
0.0248563
0.00812614
0.826508
0.804843
0.782216
0.75854
0.734312
0.70926
0.683386
0.656715
0.629262
0.601042
0.572091
0.542414
0.512045
0.481001
0.4493
0.416973
0.384038
0.350544
0.316541
0.282144
0.247504
0.212917
0.178875
0.146076
0.115389
0.0876515
0.0634439
0.0427508
0.0246597
0.00815018
0.821374
0.799562
0.776867
0.753192
0.729021
0.704047
0.678253
0.651661
0.624292
0.596159
0.567297
0.537715
0.507445
0.47651
0.44492
0.412714
0.379908
0.346556
0.312711
0.278493
0.244067
0.20974
0.176024
0.143623
0.1134
0.0861657
0.0624617
0.0422291
0.0244795
0.0081572
0.816142
0.794335
0.771623
0.747965
0.723841
0.698936
0.673216
0.6467
0.619407
0.591353
0.562576
0.533085
0.50291
0.472078
0.440597
0.408507
0.375828
0.342615
0.308925
0.274884
0.240674
0.20661
0.173223
0.141227
0.111477
0.0847567
0.0615596
0.0417668
0.0243249
0.00815372
0.810866
0.789162
0.76648
0.742852
0.71877
0.693928
0.668276
0.641829
0.614608
0.586628
0.557929
0.528524
0.498439
0.467705
0.43633
0.404354
0.371798
0.33872
0.305184
0.27132
0.237325
0.203527
0.170476
0.138894
0.109624
0.0834212
0.0607269
0.0413527
0.0241912
0.00814019
0.805585
0.784044
0.761436
0.737852
0.713808
0.689025
0.663434
0.637049
0.609894
0.581985
0.55336
0.524035
0.494034
0.463394
0.432121
0.400254
0.367818
0.334873
0.301489
0.267801
0.234022
0.200495
0.167788
0.13663
0.107845
0.0821619
0.0599622
0.0409836
0.0240768
0.00811934
0.80033
0.778986
0.756484
0.732965
0.708956
0.684225
0.65869
0.632362
0.605268
0.577425
0.548869
0.519619
0.489699
0.459147
0.427972
0.39621
0.363891
0.331075
0.297842
0.26433
0.230769
0.197518
0.165164
0.134438
0.106144
0.0809796
0.0592643
0.0406583
0.0239804
0.00809495
0.795125
0.773997
0.751624
0.728187
0.704214
0.679526
0.654043
0.627768
0.600733
0.57295
0.544458
0.515278
0.485436
0.454968
0.423885
0.392223
0.360018
0.327329
0.294243
0.260906
0.227565
0.194596
0.162603
0.132317
0.10452
0.0798725
0.0586298
0.0403741
0.0238996
0.00806348
0.78999
0.769089
0.746859
0.723514
0.699581
0.674931
0.649495
0.62327
0.596288
0.56856
0.540129
0.511015
0.481248
0.450858
0.419862
0.388296
0.356202
0.323637
0.290694
0.257531
0.224411
0.191729
0.160104
0.130265
0.10297
0.0788373
0.0580541
0.040127
0.0238318
0.00802942
0.78494
0.764269
0.742189
0.718945
0.695055
0.670441
0.645047
0.618866
0.591934
0.564257
0.535883
0.506833
0.477136
0.44682
0.415907
0.384433
0.352445
0.32
0.287197
0.254206
0.221309
0.188918
0.157667
0.128281
0.101491
0.0778709
0.0575333
0.0399132
0.0237752
0.00799451
0.779989
0.759544
0.737618
0.714479
0.690637
0.666056
0.6407
0.614558
0.58767
0.560042
0.531722
0.502731
0.4731
0.442853
0.41202
0.380635
0.348748
0.31642
0.283755
0.250937
0.218263
0.186167
0.155295
0.126367
0.100086
0.0769714
0.057064
0.0397295
0.0237281
0.00796016
0.775147
0.754921
0.733149
0.710117
0.686328
0.661776
0.636454
0.610346
0.583499
0.555916
0.527646
0.498711
0.46914
0.438961
0.408204
0.376906
0.345115
0.3129
0.280372
0.247727
0.215279
0.183481
0.152992
0.124526
0.0987544
0.0761375
0.0566439
0.0395732
0.0236894
0.00792759
0.770426
0.750408
0.728788
0.705863
0.682128
0.657604
0.632312
0.606233
0.579422
0.551881
0.523656
0.494773
0.465259
0.435145
0.404461
0.373246
0.341547
0.309441
0.27705
0.244579
0.21236
0.180865
0.150764
0.122763
0.097497
0.075369
0.0562703
0.0394416
0.0236605
0.00789773
0.765836
0.746013
0.724539
0.701719
0.678039
0.65354
0.628276
0.602223
0.575443
0.547939
0.519754
0.490918
0.461459
0.431407
0.400792
0.369655
0.338045
0.306047
0.273793
0.241496
0.209508
0.17832
0.148612
0.121079
0.096314
0.0746629
0.0559402
0.0393317
0.0236394
0.00787106
0.761387
0.741745
0.720409
0.697687
0.674064
0.649589
0.624348
0.598318
0.571564
0.544093
0.515943
0.487149
0.457741
0.427747
0.397196
0.366133
0.33461
0.302716
0.270598
0.238476
0.206723
0.175847
0.146536
0.119471
0.0952033
0.0740158
0.05565
0.0392403
0.0236175
0.00784772
0.757086
0.737608
0.716403
0.693771
0.670204
0.645751
0.62053
0.59452
0.567787
0.540343
0.512224
0.483468
0.454107
0.424166
0.393676
0.362682
0.331242
0.29945
0.267465
0.235519
0.204002
0.173444
0.144534
0.117939
0.0941618
0.0734245
0.0553961
0.0391648
0.0235983
0.00782802
0.752941
0.73361
0.712524
0.689975
0.666461
0.642029
0.616825
0.590831
0.564113
0.536692
0.5086
0.479878
0.450559
0.420666
0.390231
0.359302
0.327942
0.296249
0.264395
0.232623
0.201347
0.171111
0.142604
0.11648
0.0931868
0.0728857
0.0551753
0.0391027
0.0235816
0.00781209
0.74896
0.729756
0.708779
0.686301
0.662838
0.638425
0.613233
0.587251
0.560545
0.533142
0.505074
0.476381
0.447098
0.417247
0.386863
0.355995
0.324712
0.293114
0.261388
0.229792
0.198757
0.168847
0.140748
0.115093
0.0922776
0.0723969
0.0549847
0.0390523
0.0235666
0.00779992
0.745151
0.726053
0.705171
0.682756
0.659337
0.634939
0.609757
0.583781
0.557085
0.529695
0.501647
0.472978
0.443727
0.413913
0.383577
0.352766
0.321555
0.290049
0.258449
0.227028
0.196237
0.166656
0.138965
0.113777
0.0914323
0.0719562
0.0548223
0.0390103
0.0235529
0.00779138
0.741519
0.722508
0.701709
0.679344
0.655962
0.631575
0.606397
0.580425
0.553734
0.526353
0.498322
0.469672
0.440447
0.410667
0.380374
0.349616
0.318473
0.287057
0.255581
0.224337
0.193791
0.164541
0.13726
0.112535
0.0906502
0.0715617
0.0546856
0.0389754
0.0235403
0.00778627
0.738073
0.719126
0.698396
0.676068
0.652716