/*--------------------------------*- C++ -*----------------------------------*\
  =========                 |
  \\      /  F ield         | OpenFOAM: The Open Source CFD Toolbox
   \\    /   O peration     | Website:  https://openfoam.org
    \\  /    A nd           | Version:  7
     \\/     M anipulation  |
\*---------------------------------------------------------------------------*/
FoamFile
{
    version     2.0;
    format      ascii;
    class       surfaceScalarField;
    location    "4.4";
    object      phi;
}
// * * * * * * * * * * * * * * * * * * * * * * * * * * * * * * * * * * * * * //

dimensions      [0 3 -1 0 0 0 0];

internalField   nonuniform List<scalar> 
35640
(
-3.30707e-05
0.000418054
-0.000384983
-0.000108806
0.00130237
-0.00122663
-0.000214448
0.00222517
-0.00211953
-0.000339483
0.00311688
-0.00299185
-0.00047532
0.00395237
-0.00381653
-0.000614811
0.0047254
-0.00458591
-0.000752059
0.00543722
-0.00529997
-0.000882235
0.00609057
-0.00596039
-0.00100145
0.00668765
-0.00656843
-0.00110656
0.00722901
-0.0071239
-0.00119506
0.00771393
-0.00762543
-0.00126502
0.00814083
-0.00807087
-0.00131487
0.00850801
-0.00845815
-0.00134342
0.00881421
-0.00878566
-0.00134973
0.00905887
-0.00905257
-0.00133304
0.00924238
-0.00925907
-0.00129277
0.00936611
-0.00940639
-0.00122843
0.00943232
-0.00949666
-0.00113961
0.00944407
-0.00953288
-0.001026
0.00940513
-0.00951874
-0.000887316
0.00931978
-0.00945846
-0.0007234
0.0091927
-0.00935662
-0.000534246
0.00902887
-0.00921802
-0.000320115
0.00883341
-0.00904754
-8.1628e-05
0.00861158
-0.00885007
0.000180064
0.00836868
-0.00863038
0.000463104
0.00811001
-0.00839305
0.000764771
0.00784064
-0.0081423
0.00108126
0.00756836
-0.00788485
0.00730233
0.00140764
-0.0076287
-3.28014e-05
0.000450855
-0.000107613
0.00137718
-0.000211903
0.00232946
-0.000335551
0.00324053
-0.000470245
0.00408706
-0.000609046
0.00486421
-0.00074613
0.00557431
-0.000876671
0.00622111
-0.000996724
0.0068077
-0.00110314
0.00733543
-0.00119341
0.0078042
-0.00126555
0.00821297
-0.00131797
0.00856044
-0.00134943
0.00884566
-0.00135888
0.00906832
-0.00134548
0.00922898
-0.0013085
0.00932914
-0.0012473
0.00937111
-0.00116125
0.00935803
-0.0010498
0.00929367
-0.000912448
0.00918242
-0.00074878
0.00902903
-0.00055856
0.00883865
-0.000341826
0.00861667
-9.90155e-05
0.00836877
0.000168827
0.00810084
0.000459856
0.00781898
0.000771215
0.00752928
0.00109882
0.00724075
0.00696402
0.00143713
-3.20011e-05
0.000482856
-0.000104636
0.00144982
-0.000205914
0.00243074
-0.000326275
0.00336089
-0.000457754
0.00421854
-0.000593649
0.0050001
-0.000728221
0.00570888
-0.000856728
0.00634962
-0.000975226
0.0069262
-0.00108054
0.00744074
-0.00117013
0.00789379
-0.00124199
0.00828482
-0.00129449
0.00861294
-0.00132633
0.0088775
-0.00133641
0.00907841
-0.00132381
0.00921638
-0.00128765
0.00929297
-0.00122709
0.00931056
-0.00114139
0.00927232
-0.00102976
0.00918205
-0.000891499
0.00904416
-0.000725964
0.0088635
-0.000532697
0.00864538
-0.000311523
0.0083955
-6.2698e-05
0.00811994
0.000212884
0.00782526
0.000513472
0.00751839
0.000836166
0.00720658
0.00117665
0.00690027
0.00661189
0.00152878
-3.05918e-05
0.000513448
-9.99802e-05
0.0015192
-0.000196759
0.00252752
-0.000311945
0.00347608
-0.000438053
0.00434465
-0.000568711
0.00513076
-0.000698343
0.00583851
-0.000822273
0.00647355
-0.000936589
0.00704051
-0.00103811
0.00754227
-0.00112427
0.00797995
-0.00119303
0.00835358
-0.00124277
0.00866268
-0.00127211
0.00890684
-0.00127991
0.00908621
-0.00126514
0.00920161
-0.00122681
0.00925464
-0.00116399
0.00924774
-0.00107574
0.00918406
-0.000961128
0.00906744
-0.000819266
0.0089023
-0.000649344
0.00869357
-0.000450712
0.00844675
-0.000223002
0.00816779
3.37152e-05
0.00786323
0.000318749
0.00754022
0.000630491
0.00720665
0.00096611
0.00687096
0.00132116
0.00654522
0.00624406
0.00168899
-2.87408e-05
0.000542189
-9.37118e-05
0.00158417
-0.000184386
0.00261819
-0.000292489
0.00358418
-0.000411075
0.00446323
-0.000534109
0.00525379
-0.000656262
0.00596067
-0.000772954
0.00659024
-0.000880314
0.00714787
-0.000975163
0.00763712
-0.00105494
0.00805972
-0.00111757
0.00841622
-0.00116139
0.0087065
-0.00118501
0.00893046
-0.00118723
0.00908843
-0.00116694
0.00918131
-0.00112306
0.00921077
-0.00105457
0.00917925
-0.000960426
0.00908991
-0.000839574
0.00894659
-0.000690996
0.00875372
-0.000513759
0.00851634
-0.000307084
0.00824007
-7.04473e-05
0.00793115
0.000196264
0.00759652
0.000492569
0.00724392
0.000817082
0.00688214
0.00116716
0.00652089
0.00153838
0.006174
0.00585878
0.00192365
-2.63615e-05
0.00056855
-8.58856e-05
0.0016437
-0.000168984
0.00270129
-0.000268152
0.00368335
-0.000377063
0.00457215
-0.000490106
0.00536684
-0.000602204
0.00607276
-0.000708902
0.00669694
-0.000806406
0.00724538
-0.000891555
0.00772227
-0.000961769
0.00812994
-0.00101496
0.00846941
-0.00104945
0.00874098
-0.0010638
0.00894482
-0.00105678
0.00908141
-0.00102722
0.00915175
-0.000974001
0.00915755
-0.000896034
0.00910128
-0.000792205
0.00898608
-0.000661403
0.00881579
-0.000502557
0.00859487
-0.000314675
0.00832846
-9.69076e-05
0.0080223
0.000151365
0.00768288
0.00043041
0.00731747
0.000739946
0.00693438
0.00107888
0.00654321
0.00144484
0.00615493
0.00183361
0.00578523
0.00545455
0.00223785
-2.3563e-05
0.000592113
-7.66596e-05
0.0016968
-0.000150746
0.00277538
-0.000239201
0.0037718
-0.000336349
0.00466929
-0.000437016
0.0054675
-0.000536443
0.00617219
-0.000630345
0.00679084
-0.000715
0.00733003
-0.000787273
0.00779454
-0.00084459
0.00818725
-0.000884852
0.00850967
-0.000906344
0.00876247
-0.000907624
0.0089461
-0.000887413
0.0090612
-0.000844528
0.00910886
-0.000777835
0.00909086
-0.000686217
0.00900966
-0.00056855
0.00886842
-0.000423726
0.00867096
-0.000250688
0.00842183
-4.8462e-05
0.00812623
0.000183798
0.00779004
0.000446735
0.00741994
0.000740703
0.0070235
0.0010656
0.00660949
0.00142063
0.00618818
0.00180382
0.00577174
0.00221132
0.00537772
0.00503014
0.00263573
-2.03948e-05
0.000612508
-6.61908e-05
0.00174259
-0.000129975
0.00283916
-0.000206036
0.00384787
-0.000289392
0.00475265
-0.000375365
0.00555348
-0.000459532
0.00625636
-0.000537799
0.00686911
-0.00060655
0.00739879
-0.000662696
0.00785068
-0.000703665
0.00822822
-0.00072735
0.00853336
-0.000732024
0.00876715
-0.000716229
0.0089303
-0.000678672
0.00902364
-0.000618176
0.00904837
-0.000533624
0.00900631
-0.000423918
0.00889995
-0.000287983
0.00873248
-0.000124776
0.00850776
6.66723e-05
0.00823038
0.000287247
0.00790565
0.000537698
0.00753959
0.00081861
0.00713903
0.00113034
0.00671177
0.0014729
0.00626692
0.00184579
0.0058153
0.00224746
0.00537006
0.00267461
0.00495057
0.00458467
0.00312008
-1.69327e-05
0.000629441
-5.46892e-05
0.00178035
-0.000107026
0.0028915
-0.000169165
0.00391001
-0.000236839
0.00482032
-0.000305892
0.00562253
-0.000372263
0.00632273
-0.00043209
0.00692894
-0.000481887
0.00744858
-0.000518621
0.00788742
-0.000539738
0.00824934
-0.000543133
0.00853675
-0.000527073
0.00875109
-0.000490095
0.00889333
-0.000430918
0.00896446
-0.000348398
0.00896585
-0.000241464
0.00889937
-0.000109091
0.00876758
4.97015e-05
0.00857369
0.000235816
0.00832164
0.000450072
0.00801613
0.000693184
0.00766254
0.000965731
0.00726704
0.00126815
0.00683661
0.00160068
0.00637924
0.0019634
0.00590421
0.00235598
0.00542272
0.00277734
0.0049487
0.00322484
0.00450306
0.00411768
0.00369184
-1.32535e-05
0.000642695
-4.23879e-05
0.00180948
-8.23276e-05
0.00293144
-0.000129211
0.00395689
-0.000179487
0.0048706
-0.000229541
0.00567259
-0.000275704
0.00636889
-0.000314378
0.00696761
-0.00034223
0.00747643
-0.000356307
0.0079015
-0.000354092
0.00824712
-0.000333495
0.00851616
-0.000292788
0.00871038
-0.000230517
0.00883105
-0.000145442
0.00887939
-3.64766e-05
0.00885688
9.73637e-05
0.00876553
0.00025699
0.00860795
0.000443218
0.00838746
0.000656771
0.00810809
0.000898252
0.00777464
0.00116813
0.00739266
0.00146674
0.00696843
0.00179427
0.00650909
0.00215078
0.00602273
0.00253623
0.00551875
0.00295042
0.00500852
0.00339266
0.00450646
0.00386102
0.0040347
0.00362903
0.00434967
-9.44046e-06
0.000652135
-2.95498e-05
0.00182959
-5.63628e-05
0.00295825
-8.68882e-05
0.00398741
-0.000118278
0.00490199
-0.000147463
0.00570177
-0.000171189
0.00639262
-0.000186152
0.00698257
-0.000189205
0.00747949
-0.000177503
0.0078898
-0.000148589
0.00821821
-0.000100403
0.00846797
-3.12391e-05
0.00864122
6.03182e-05
0.0087395
0.000175445
0.00876426
0.000315137
0.00871719
0.00048026
0.00860041
0.000671555
0.00841666
0.000889636
0.00816938
0.00113499
0.00786274
0.00140793
0.00750169
0.00170866
0.00709194
0.00203717
0.00663992
0.00239333
0.00615292
0.00277693
0.00563913
0.00318772
0.00510796
0.00362546
0.00457078
0.00408973
0.0040422
0.0045793
0.00354513
0.00311895
0.00508939
-5.58431e-06
0.00065772
-1.64574e-05
0.00184047
-2.96605e-05
0.00297145
-4.29999e-05
0.00400075
-5.42885e-05
0.00491328
-6.09994e-05
0.00570848
-6.03072e-05
0.00639193
-4.92331e-05
0.0069715
-2.4851e-05
0.00745511
1.55446e-05
0.0078494
7.43226e-05
0.00815943
0.000153486
0.00838881
0.000254691
0.00854001
0.000379288
0.0086149
0.000528357
0.00861519
0.000702776
0.00854277
0.000903242
0.00839995
0.00113029
0.00818961
0.00138428
0.00791539
0.00166541
0.00758161
0.0019737
0.0071934
0.00230898
0.00675666
0.00267089
0.00627801
0.00305892
0.00576489
0.00347249
0.00522556
0.00391105
0.00466941
0.00437419
0.00410764
0.00486159
0.00355479
0.00537264
0.00303408
0.00258789
0.0059037
-1.79182e-06
0.000659512
-3.40618e-06
0.00184208
-2.78308e-06
0.00297083
1.58788e-06
0.00399638
1.12954e-05
0.00490357
2.83437e-05
0.00569144
5.51182e-05
0.00636515
9.4246e-05
0.00693237
0.0001484
0.00740095
0.000220107
0.00777769
0.000311609
0.00806793
0.000424819
0.0082756
0.00056131
0.00840352
0.000722329
0.00845388
0.000908834
0.00842869
0.00112154
0.00833007
0.00136093
0.00816055
0.0016273
0.00792324
0.00192073
0.00762196
0.00224108
0.00726126
0.00258801
0.00684647
0.00296098
0.00638369
0.00335923
0.00587976
0.00378185
0.00534227
0.00422785
0.00477957
0.00469628
0.00420098
0.00518645
0.00361746
0.00569799
0.00304325
0.00623068
0.00250138
0.0020365
0.00678207
1.87917e-06
0.000657633
9.3e-06
0.00183466
2.36879e-05
0.00295644
4.59671e-05
0.0039741
7.72098e-05
0.00487233
0.00011893
0.00564972
0.000173072
0.00631101
0.00024189
0.00686355
0.000327769
0.00731507
0.00043301
0.00767245
0.000559689
0.00794125
0.000709587
0.0081257
0.00088415
0.00822896
0.00108448
0.00825355
0.00131138
0.00820179
0.00156535
0.00807609
0.00184664
0.00787925
0.00215526
0.00761463
0.00249094
0.00728628
0.00285322
0.00689898
0.00324137
0.00645832
0.00365444
0.00597061
0.00409127
0.00544293
0.00455052
0.00488302
0.00503077
0.00429932
0.00553067
0.00370108
0.00604913
0.003099
0.00658558
0.00250681
0.00714
0.00194696
0.00146554
0.00771096
5.29347e-06
0.00065234
2.13683e-05
0.00181859
4.91762e-05
0.00292864
8.92196e-05
0.00393406
0.000142152
0.0048194
0.000209041
0.00558283
0.000291399
0.00622866
0.000391095
0.00676386
0.000510185
0.00719598
0.000650703
0.00753193
0.000814511
0.00777744
0.00100321
0.007937
0.00121806
0.0080141
0.00145999
0.00801162
0.00172959
0.00793219
0.00202712
0.00777857
0.00235254
0.00755383
0.00270553
0.00726164
0.00308551
0.00690631
0.00349159
0.0064929
0.00392268
0.00602723
0.00437742
0.00551588
0.00485423
0.00496612
0.00535137
0.00438588
0.00586701
0.00378368
0.00639933
0.00316875
0.00694686
0.00255147
0.00750868
0.001945
0.00808476
0.00137088
0.000875841
0.00867446
8.38096e-06
0.000643959
3.25188e-05
0.00179445
7.31278e-05
0.00288803
0.00013045
0.00387674
0.000204827
0.00474502
0.000296936
0.00549072
0.00040788
0.00611771
0.000539132
0.00663261
0.000692388
0.00704273
0.000869367
0.00735495
0.00107167
0.00757514
0.00130065
0.00770802
0.00155736
0.00775739
0.00184249
0.00772649
0.00215635
0.00761833
0.00249895
0.00743597
0.00286992
0.00718286
0.00326859
0.00686296
0.003694
0.00648089
0.0041449
0.006042
0.00461978
0.00555235
0.00511689
0.00501877
0.00563426
0.00444875
0.00616974
0.00385039
0.00672112
0.00323231
0.00728617
0.00260369
0.00786297
0.00197467
0.00845021
0.00135776
0.00904768
0.000773415
0.000268318
0.0096552
1.1063e-05
0.000632896
4.25019e-05
0.00176301
9.50374e-05
0.00283549
0.000168823
0.00380295
0.000264001
0.00464984
0.000380926
0.00537379
0.000520321
0.00597832
0.00068326
0.00646967
0.00087105
0.00685494
0.00108506
0.00714094
0.00132657
0.00733363
0.00159666
0.00743793
0.00189607
0.00745798
0.00222522
0.00739734
0.00258415
0.0072594
0.0029725
0.00704762
0.00338959
0.00676577
0.00383439
0.00641817
0.00430554
0.00600974
0.00480142
0.00554612
0.00532011
0.00503365
0.00585949
0.00447939
0.00641721
0.00389103
0.00699076
0.00327683
0.00757755
0.00264552
0.00817498
0.00200627
0.00878069
0.00136896
0.00939294
0.000745504
0.0100112
0.000155166
-0.000355959
0.0106355
1.32752e-05
0.000619621
5.11077e-05
0.00172518
0.000114472
0.00277213
0.000203605
0.00371382
0.000318563
0.00453489
0.000459453
0.00523291
0.000626655
0.00581112
0.00082085
0.00627548
0.00104294
0.00663285
0.0012939
0.00688998
0.00157467
0.00705286
0.00188595
0.00712665
0.00222818
0.00711574
0.00260144
0.00702408
0.00300542
0.00685542
0.00343944
0.0066136
0.00390244
0.00630277
0.00439301
0.00592759
0.00490944
0.00549331
0.00544971
0.00500586
0.00601153
0.00447183
0.00659242
0.00389851
0.00718965
0.00329379
0.0078004
0.00266609
0.00842169
0.00202423
0.00905057
0.00137738
0.00968428
0.000735243
0.0103206
0.000109147
0.0109587
-0.000482877
-0.000995671
0.0115984
1.49698e-05
0.000604652
5.81783e-05
0.00168197
0.000131093
0.00269921
0.000234202
0.00361071
0.000367585
0.0044015
0.000531179
0.00506931
0.000725064
0.00561723
0.000949543
0.006051
0.0012051
0.00637729
0.00149231
0.00660277
0.0018117
0.00673348
0.00216358
0.00677476
0.00254803
0.00673129
0.00296476
0.00660736
0.00341308
0.0064071
0.00389196
0.00613472
0.00439996
0.00579477
0.00493533
0.00539223
0.00549595
0.00493269
0.00607946
0.00442235
0.00668322
0.00386807
0.00730436
0.00327736
0.00793985
0.00265831
0.00858646
0.00201947
0.00924091
0.00136978
0.00989987
0.000718423
0.0105602
7.49388e-05
0.0112192
-0.000549881
0.0118755
-0.00113922
-0.00164911
0.012529
1.61195e-05
0.000588532
6.36179e-05
0.00163447
0.000144683
0.00261815
0.000260202
0.00349519
0.000410385
0.00425132
0.000595074
0.00488462
0.000814097
0.00539821
0.0010674
0.00579769
0.00135507
0.00608962
0.00167724
0.0062806
0.002034
0.00637672
0.00242528
0.00638348
0.00285073
0.00630585
0.00330966
0.00614843
0.00380102
0.00591573
0.0043234
0.00561234
0.004875
0.00524316
0.0054537
0.00481353
0.00605705
0.00432934
0.00668231
0.00379709
0.00732649
0.00322389
0.00798638
0.00261748
0.00865855
0.00198614
0.00933944
0.00133859
0.0100254
0.00068386
0.0107126
3.11823e-05
0.0113976
-0.000610056
0.0120773
-0.00122957
0.0127498
-0.00181175
-0.002314
0.0134147
1.67196e-05
0.000571813
6.74022e-05
0.00158379
0.000155157
0.00253039
0.000281407
0.00336894
0.000446581
0.00408614
0.000650499
0.00468071
0.000892788
0.00515592
0.00117308
0.0055174
0.00149105
0.00577165
0.00184642
0.00592523
0.00223884
0.0059843
0.00266781
0.00595451
0.00313255
0.0058411
0.00363199
0.00564899
0.00416469
0.00538303
0.00472887
0.00504817
0.00532237
0.00464965
0.00594273
0.00419317
0.00658715
0.00368492
0.00725253
0.0031317
0.00793552
0.0025409
0.0086325
0.00192049
0.00933966
0.00127898
0.010053
0.000625253
0.0107684
-3.15322e-05
0.0114817
-0.000682129
0.0121889
-0.0013173
0.0128866
-0.00192726
0.0135725
-0.00249763
-0.00298736
0.0142459
1.67902e-05
0.000555022
6.95838e-05
0.001531
0.000162584
0.00243739
0.00029786
0.00323367
0.000476137
0.00390787
0.000697279
0.00445956
0.000960766
0.00489244
0.00126594
0.00521223
0.00161213
0.00542546
0.00199863
0.00553872
0.00242468
0.00555825
0.00288933
0.00548986
0.0033914
0.00533903
0.00392943
0.00511097
0.00450159
0.00481087
0.00510575
0.00444401
0.00573941
0.00401599
0.00639974
0.00353283
0.0070836
0.00300107
0.0077875
0.0024278
0.00850767
0.00182073
0.00924005
0.00118811
0.00998034
0.000538687
0.010724
-0.00011844
0.0114665
-0.000774008
0.0122032
-0.00141877
0.0129295
-0.00204368
0.0136418
-0.00263952
0.0143373
-0.00319318
-0.00366538
0.0150154
1.63765e-05
0.000538646
7.02948e-05
0.00147708
0.00016719
0.0023405
0.000309861
0.00309099
0.000499391
0.00371834
0.000735752
0.0042232
0.00101833
0.00460986
0.00134622
0.00488433
0.00171843
0.00505325
0.00213389
0.00512326
0.00259143
0.00510071
0.00308969
0.0049916
0.00362709
0.00480162
0.00420179
0.00453627
0.00481161
0.00420105
0.00545406
0.00380157
0.00612627
0.00334378
0.00682505
0.00283405
0.00754685
0.00227927
0.00828774
0.00168691
0.00904347
0.00106501
0.00980941
0.000422157
0.0105807
-0.000232609
0.0113523
-0.000889988
0.0121189
-0.00154062
0.0128754
-0.00217532
0.0136171
-0.00278532
0.0143396
-0.00336206
0.0150402
-0.00389381
-0.0043434
0.0157182
1.55488e-05
0.000523097
6.97451e-05
0.00142288
0.000169353
0.00224089
0.000317964
0.00294238
0.000517069
0.00351923
0.000766791
0.00397348
0.00106647
0.00431019
0.00141502
0.00453578
0.00181119
0.00465709
0.00225355
0.00468089
0.00274058
0.00461369
0.00327055
0.00446164
0.0038415
0.00423067
0.00445121
0.00392656
0.00509716
0.0035551
0.00577647
0.00312226
0.0064859
0.00263435
0.00722181
0.00209814
0.00798017
0.00152091
0.00875652
0.000910559
0.00954599
0.000275535
0.0103433
-0.000375189
0.011143
-0.00103228
0.0119392
-0.00168623
0.0127263
-0.00232764
0.0134984
-0.0029475
0.0142506
-0.00353743
0.0149782
-0.00408969
0.0156785
-0.0045941
-0.00501594
0.016351
1.44005e-05
0.000508697
6.82164e-05
0.00136906
0.0001696
0.0021395
0.000322972
0.00278901
0.000530262
0.00331194
0.000791785
0.00371196
0.00110688
0.00399509
0.00147436
0.0041683
0.00189273
0.00423873
0.00236029
0.00421333
0.00287518
0.00409879
0.00343535
0.00390148
0.00403847
0.00362755
0.00468196
0.00328307
0.0053629
0.00287416
0.006078
0.00240716
0.00682354
0.0018888
0.00759538
0.0013263
0.00838886
0.000727429
0.00919887
0.000100546
0.0100198
-0.000545424
0.0108458
-0.00120111
0.0116704
-0.00185688
0.0124872
-0.0025031
0.01329
-0.00313042
0.0140726
-0.00373011
0.0148296
-0.0042944
0.0155564
-0.00481648
0.0162502
-0.00528794
-0.00567697
0.0169113
1.30452e-05
0.000495651
6.60517e-05
0.00131606
0.000168581
0.00203697
0.000325898
0.00263169
0.000540386
0.00309746
0.000812588
0.00343976
0.0011419
0.00366578
0.00152704
0.00378315
0.00196637
0.0037994
0.00245796
0.00372175
0.00299965
0.0035571
0.00358905
0.00331208
0.00422349
0.0029931
0.00489999
0.00260657
0.00561518
0.00215897
0.00636525
0.00165709
0.0071459
0.00110816
0.0079523
0.000519896
0.00877909
-9.93629e-05
0.00962037
-0.000740725
0.0104697
-0.00139479
0.0113204
-0.00205181
0.0121655
-0.00270193
0.0129979
-0.00333548
0.0138108
-0.00394333
0.0145978
-0.00451719
0.0153535
-0.00505003
0.0160731
-0.00553613
0.0167542
-0.00596898
-0.00632003
0.0173972
1.16112e-05
0.00048404
6.364e-05
0.00126403
0.000167044
0.00193357
0.00032792
0.00247082
0.000549114
0.00287626
0.000831416
0.00315746
0.00117431
0.00332289
0.0015765
0.00338096
0.00203621
0.00333969
0.00255131
0.00320665
0.00311937
0.00298904
0.00373766
0.00269378
0.00440311
0.00232765
0.00511226
0.00189742
0.00586117
0.00141005
0.00664539
0.000872871
0.00745989
0.000293662
0.00829901
-0.000319226
0.00915652
-0.000956877
0.0100257
-0.00160985
0.0108992
-0.00226832
0.0117696
-0.00292225
0.0126294
-0.00356172
0.0134711
-0.00417721
0.0142878
-0.00475997
0.0150729
-0.00530232
0.0158209
-0.00579804
0.0165273
-0.00624256
0.0171896
-0.00663123
-0.00693845
0.017808
1.02349e-05
0.000473805
6.13974e-05
0.00121287
0.000165793
0.00182918
0.000330319
0.00230629
0.000558276
0.0026483
0.000850713
0.00286502
0.00120723
0.00296637
0.00162654
0.00296165
0.00210675
0.00285947
0.00264554
0.00266786
0.00324018
0.0023944
0.00388754
0.00204642
0.00458407
0.00163113
0.00532569
0.0011558
0.00610775
0.000627993
0.00692497
5.56442e-05
0.00777142
-0.000552784
0.00864049
-0.00118829
0.00952499
-0.00184137
0.0104172
-0.00250211
0.0113093
-0.00316037
0.0121931
-0.00380606
0.0130608
-0.00442942
0.0139049
-0.00502133
0.0147186
-0.00557361
0.0154955
-0.00607927
0.0162303
-0.00653284
0.0169184
-0.00693066
0.0175571
-0.00726986
-0.00752609
0.0181447
9.05407e-06
0.000464751
5.97458e-05
0.00116217
0.000165646
0.00172327
0.000334403
0.00213753
0.000569748
0.00241296
0.000872985
0.00256178
0.00124384
0.00259552
0.00168103
0.00252446
0.00218254
0.00235795
0.00274581
0.00210458
0.00336774
0.00177247
0.0040447
0.00136946
0.00477248
0.000903344
0.00554623
0.000382046
0.00636042
-0.000186192
0.00720875
-0.000792688
0.00808423
-0.00142826
0.00897921
-0.00208327
0.00988554
-0.0027477
0.0107947
-0.00341132
0.0116983
-0.00406393
0.0125879
-0.00469566
0.0134558
-0.00529728
0.0142949
-0.00586043
0.015099
-0.00637777
0.0158629
-0.0068431
0.0165813
-0.00725125
0.0172486
-0.00759803
0.0178583
-0.00787957
-0.00807835
0.0184106
8.20017e-06
0.00045655
5.90919e-05
0.00111128
0.000167395
0.00161497
0.000341433
0.0019635
0.000585333
0.00216906
0.000900632
0.00224648
0.00128716
0.00220899
0.00174359
0.00206803
0.00226775
0.0018338
0.00285671
0.00151562
0.00350688
0.0011223
0.00421398
0.000662368
0.00497296
0.000144368
0.00577799
-0.000422986
0.00662243
-0.00103064
0.00749886
-0.00166912
0.00839913
-0.00232853
0.00931455
-0.00299869
0.0102361
-0.00366923
0.0111546
-0.00432988
0.0120614
-0.00497073
0.0129483
-0.00558252
0.013808
-0.00615695
0.0146344
-0.00668687
0.015423
-0.00716635
0.0161705
-0.00759056
0.0168746
-0.0079554
0.0175327
-0.00825616
0.018135
-0.00848181
0.0186365
-0.00857986
0.00298691
0.0355296
-0.0371088
0.0046243
0.0293735
-0.0310109
0.00595262
0.0265905
-0.0279188
0.00695397
0.0261995
-0.0272008
0.00763522
0.0272932
-0.0279744
0.00804439
0.0290597
-0.0294689
0.00823773
0.0309201
-0.0311135
0.00827019
0.0326211
-0.0326536
0.00818941
0.0341228
-0.034042
0.00803076
0.0354948
-0.0353362
0.00781836
0.0368047
-0.0365923
0.00756688
0.0380886
-0.0378371
0.00728553
0.0393445
-0.0390631
0.00698017
0.0405623
-0.0402569
0.00665528
0.0417224
-0.0413975
0.00631454
0.0428168
-0.042476
0.00596063
0.0438394
-0.0434855
0.00559657
0.0447876
-0.0444236
0.00522432
0.0456591
-0.0452869
0.00484562
0.046458
-0.0460793
0.0044622
0.0471767
-0.0467933
0.00407503
0.0478242
-0.047437
0.00368521
0.0483917
-0.0480019
0.00329373
0.0488867
-0.0484952
0.00290032
0.0493005
-0.0489071
0.00250581
0.0496419
-0.0492474
0.00210934
0.0499
-0.0495035
0.00171227
0.050103
-0.0497059
0.00131648
0.0502591
-0.0498633
0.050396
-0.0500082
0.00307193
0.0338947
0.00475804
0.0276874
0.00612109
0.0252275
0.00714326
0.0251773
0.00783569
0.0266007
0.00824967
0.0286457
0.00844369
0.0307261
0.00847415
0.0325907
0.00838954
0.0342074
0.00822594
0.0356584
0.00800799
0.0370227
0.00775047
0.0383461
0.00746262
0.0396324
0.00715051
0.0408744
0.0068183
0.0420546
0.00646958
0.0431655
0.0061074
0.0442016
0.00573425
0.0451608
0.00535248
0.0460409
0.00496383
0.0468466
0.00456979
0.0475707
0.00417171
0.0482223
0.00377063
0.0487928
0.00336731
0.04929
0.00296213
0.0497057
0.00255536
0.0500487
0.00214664
0.0503087
0.00173732
0.0505123
0.00132884
0.0506676
0.050797
0.00320295
0.0322206
0.00492002
0.0259703
0.00630649
0.023841
0.00734188
0.0241419
0.00804095
0.0259017
0.00845719
0.0282295
0.00865054
0.0305328
0.00867841
0.0325628
0.00858975
0.034296
0.00842115
0.035827
0.00819766
0.0372462
0.00793418
0.0386096
0.00763996
0.0399266
0.00732116
0.0411932
0.00698174
0.042394
0.00662513
0.0435221
0.00625479
0.0445719
0.00587267
0.0455429
0.00548143
0.0464322
0.00508288
0.0472452
0.00467827
0.0479753
0.00426929
0.0486313
0.00385697
0.0492051
0.00344182
0.0497052
0.00302486
0.0501226
0.00260579
0.0504677
0.00218475
0.0507297
0.00176307
0.050934
0.00134169
0.0510889
0.0512114
0.00338417
0.0305254
0.00511237
0.0242421
0.00650965
0.0224437
0.00755002
0.0231015
0.00825091
0.0252008
0.00866676
0.0278136
0.0088581
0.0303414
0.00888275
0.0325381
0.00878977
0.034389
0.00861613
0.0360007
0.00838718
0.0374751
0.00811784
0.0388789
0.00781742
0.040227
0.00749193
0.0415187
0.00714549
0.0427405
0.00678116
0.0438864
0.00640265
0.0449504
0.00601173
0.0459338
0.00561107
0.0468328
0.00520262
0.0476536
0.00478758
0.0483904
0.00436773
0.0490511
0.00394408
0.0496287
0.00351727
0.050132
0.00308833
0.0505516
0.00265707
0.050899
0.00222363
0.0511632
0.00178936
0.0513683
0.00135505
0.0515233
0.0516395
0.00361927
0.0288298
0.00533704
0.0225243
0.00673136
0.0210494
0.00776787
0.022065
0.00846543
0.0245032
0.00887811
0.0274009
0.00906604
0.0301535
0.00908682
0.0325174
0.00898934
0.0344865
0.00881069
0.0361793
0.00857632
0.0377095
0.00830123
0.039154
0.00799478
0.0405334
0.0076627
0.0418508
0.00730934
0.0430938
0.0069375
0.0442583
0.00655083
0.0453371
0.00615127
0.0463334
0.00574131
0.0472428
0.00532296
0.048072
0.0048976
0.0488157
0.00446686
0.0494819
0.00403188
0.0500637
0.0035935
0.0505703
0.00315249
0.0509926
0.00270908
0.0513424
0.00226318
0.051609
0.00181616
0.0518153
0.00136884
0.0519706
0.0520814
0.00391137
0.0271562
0.00559601
0.0208397
0.00697235
0.019673
0.00799555
0.0210418
0.00868437
0.0238144
0.00909097
0.0269943
0.00927409
0.0299704
0.00929037
0.0325011
0.00918822
0.0345887
0.00900458
0.036363
0.00876487
0.0379492
0.00848416
0.0394347
0.00817183
0.0408458
0.00783336
0.0421892
0.00747317
0.043454
0.00709399
0.0446375
0.00669928
0.0457318
0.00629116
0.0467415
0.00587202
0.0476619
0.00544382
0.0485002
0.00500818
0.0492514
0.00456664
0.0499234
0.00412035
0.05051
0.00367039
0.0510203
0.00321734
0.0514457
0.00276172
0.051798
0.00230333
0.0520674
0.00184346
0.0522752
0.00138298
0.052431
0.0525375
0.00426292
0.0255291
0.00589096
0.0192117
0.00723336
0.0183306
0.00823323
0.020042
0.00890757
0.0231401
0.00930506
0.0265968
0.00948194
0.0297935
0.00949312
0.0324899
0.00938614
0.0346956
0.00919752
0.0365516
0.00895261
0.0381941
0.00866644
0.0397209
0.00834838
0.0411638
0.00800372
0.0425339
0.00763684
0.0438209
0.00725047
0.0450238
0.00684787
0.0461344
0.00643129
0.0471581
0.00600307
0.0480901
0.00556514
0.0489381
0.00511925
0.0496973
0.00466695
0.0503757
0.00420942
0.0509675
0.00374785
0.0514819
0.00328279
0.0519107
0.00281494
0.0522659
0.00234402
0.0525384
0.00187121
0.052748
0.00139745
0.0529048
0.0530078
0.00467546
0.0239737
0.00622329
0.0176638
0.00751499
0.0170389
0.00848106
0.0190759
0.00913489
0.0224862
0.00952012
0.0262116
0.00968929
0.0296243
0.00969479
0.0324844
0.00958283
0.0348076
0.00938928
0.0367451
0.00913932
0.0384441
0.00884788
0.0400123
0.00852424
0.0414875
0.00817361
0.0428845
0.0078002
0.0441943
0.00740681
0.0454172
0.00699648
0.0465447
0.00657155
0.047583
0.00613435
0.0485273
0.00568681
0.0493857
0.00523072
0.0501534
0.00476773
0.0508387
0.00429899
0.0514363
0.00382582
0.0519551
0.00334878
0.0523878
0.00286866
0.052746
0.00238519
0.0530218
0.00189939
0.0532338
0.00141222
0.053392
0.0534925
0.00514941
0.0225161
0.00659388
0.0162194
0.0078177
0.0158151
0.00873915
0.0181544
0.00936616
0.0218592
0.00973588
0.0258419
0.00989585
0.0294644
0.0098951
0.0324851
0.00977802
0.0349247
0.00957962
0.0369435
0.00932475
0.038699
0.00902825
0.0403088
0.00869924
0.0418165
0.00834284
0.0432409
0.00796311
0.0445741
0.00756286
0.0458174
0.00714497
0.0469626
0.00671183
0.0480162
0.00626576
0.0489734
0.00580873
0.0498427
0.0053425
0.0506196
0.00486887
0.0513123
0.00438898
0.0519162
0.00390423
0.0524398
0.00341523
0.0528768
0.00292284
0.0532384
0.00242679
0.0535179
0.00192797
0.0537326
0.00142726
0.0538927
0.0539916
0.00568379
0.021182
0.00700287
0.0149003
0.00814165
0.0146763
0.00900751
0.0172886
0.00960125
0.0212655
0.00995213
0.025491
0.0101013
0.0293151
0.0100938
0.0324927
0.00997145
0.035047
0.00976831
0.0371467
0.00950869
0.0389586
0.00920734
0.0406102
0.00887317
0.0421506
0.00851123
0.0436029
0.00812538
0.0449599
0.00771847
0.0462244
0.0072932
0.0473879
0.00685201
0.0484574
0.0063972
0.0494282
0.00593079
0.0503091
0.00545453
0.0510958
0.00497031
0.0517965
0.00447933
0.0524072
0.00398303
0.0529361
0.00348209
0.0533777
0.00297741
0.0537431
0.00246877
0.0540265
0.00195694
0.0542444
0.00144259
0.054407
0.0545053
0.00627592
0.0199954
0.00744946
0.0137267
0.00848662
0.0136392
0.00928604
0.0164892
0.00983999
0.0207115
0.0101686
0.0251624
0.0103055
0.0291782
0.0102906
0.0325077
0.0101629
0.0351747
0.00995511
0.0373544
0.00969092
0.0392228
0.00938495
0.0409162
0.00904584
0.0424897
0.0086786
0.0439701
0.00828686
0.0453517
0.00787349
0.0466377
0.00744104
0.0478203
0.00699198
0.0489064
0.00652856
0.0498916
0.00605288
0.0507848
0.00556671
0.051582
0.00507197
0.0522913
0.00456996
0.0529092
0.00406213
0.0534439
0.0035493
0.0538905
0.00303234
0.05426
0.0025111
0.0545478
0.00198625
0.0547693
0.00145819
0.0549351
0.0550337
0.00692136
0.0189778
0.00793175
0.0127163
0.00885185
0.0127191
0.00957441
0.0157666
0.0100822
0.0202038
0.0103851
0.0248595
0.0105081
0.0290552
0.0104852
0.0325306
0.0103521
0.0353079
0.0101398
0.0375667
0.00987122
0.0394913
0.00956085
0.0412265
0.00921706
0.0428335
0.00884476
0.0443424
0.00844737
0.0457491
0.00802777
0.0470573
0.00758834
0.0482598
0.0071316
0.0493632
0.00665974
0.0503635
0.00617493
0.0512696
0.00567896
0.052078
0.00517377
0.0527965
0.0046608
0.0534221
0.00414149
0.0539632
0.00361678
0.0544152
0.00308759
0.0547892
0.00255375
0.0550816
0.00201587
0.0553072
0.00147407
0.0554769
0.0555769
0.00761376
0.0181461
0.00844664
0.0118834
0.00923602
0.0119297
0.00987206
0.0151306
0.0103275
0.0197484
0.0106013
0.0245856
0.0107089
0.0289476
0.0106775
0.032562
0.0105388
0.0354466
0.0103221
0.0377834
0.0100494
0.0397641
0.00973484
0.0415411
0.00938662
0.0431818
0.00900953
0.0447195
0.00860676
0.0461518
0.00818115
0.0474829
0.00773497
0.0487059
0.00727075
0.0498274
0.00679062
0.0508436
0.00629683
0.0517634
0.00579118
0.0525836
0.00527564
0.053312
0.00475178
0.053946
0.00422105
0.054494
0.0036845
0.0549518
0.0031431
0.0553306
0.00259667
0.055628
0.0020458
0.055858
0.00149024
0.0560324
0.0561349
0.00834501
0.0175121
0.00898982
0.0112386
0.00963713
0.0112824
0.0101781
0.0145896
0.0105755
0.019351
0.010817
0.024344
0.0109077
0.0288569
0.0108672
0.0326024
0.0107228
0.035591
0.0105019
0.0380043
0.0102252
0.0400408
0.00990671
0.0418595
0.00955433
0.0435341
0.00917273
0.0451011
0.00876485
0.0465597
0.00833348
0.0479143
0.0078808
0.0491586
0.0074093