/*--------------------------------*- C++ -*----------------------------------*\
  =========                 |
  \\      /  F ield         | OpenFOAM: The Open Source CFD Toolbox
   \\    /   O peration     | Website:  https://openfoam.org
    \\  /    A nd           | Version:  7
     \\/     M anipulation  |
\*---------------------------------------------------------------------------*/
FoamFile
{
    version     2.0;
    format      ascii;
    class       volVectorField;
    location    "4.4";
    object      U;
}
// * * * * * * * * * * * * * * * * * * * * * * * * * * * * * * * * * * * * * //

dimensions      [0 1 -1 0 0 0 0];

internalField   nonuniform List<vector> 
18000
(
(-0.000929338 0.0120116 1.10829e-20)
(-0.00486226 0.0378418 0)
(-0.0113002 0.0650055 0)
(-0.0183922 0.0913821 0)
(-0.025646 0.116196 -3.64621e-21)
(-0.0325755 0.139246 1.84459e-20)
(-0.0388754 0.160555 -3.73363e-21)
(-0.0443605 0.180192 3.75938e-21)
(-0.0489246 0.198211 0)
(-0.0525159 0.214618 -1.13923e-20)
(-0.0551232 0.229381 -3.81227e-21)
(-0.0567585 0.242445 0)
(-0.0574513 0.253754 7.62412e-21)
(-0.0572453 0.263262 7.6422e-21)
(-0.056189 0.27095 -1.52681e-20)
(-0.0543329 0.276826 -1.52371e-20)
(-0.0517285 0.280928 0)
(-0.048424 0.283321 -2.27403e-20)
(-0.0444656 0.284097 7.54156e-21)
(-0.0398989 0.283365 -2.25423e-20)
(-0.0347661 0.281255 7.46879e-21)
(-0.0291068 0.277904 0)
(-0.0229609 0.273457 -7.34517e-21)
(-0.0163696 0.268065 -7.33418e-21)
(-0.00937988 0.261879 0)
(-0.00204765 0.255048 0)
(0.00555902 0.247718 -1.4332e-20)
(0.013376 0.240028 -1.4217e-20)
(0.0213187 0.232194 -1.41604e-20)
(0.0290605 0.224464 1.57764e-20)
(-0.00128391 0.013013 1.57754e-20)
(-0.00589782 0.0400328 2.74351e-20)
(-0.0129928 0.0679005 -2.80696e-20)
(-0.0207092 0.0946559 -2.86107e-20)
(-0.0285529 0.119592 -7.27711e-21)
(-0.0360452 0.142562 2.20619e-20)
(-0.0428878 0.163634 -2.97575e-20)
(-0.0488967 0.18291 -3.00038e-20)
(-0.0539597 0.200474 3.01937e-20)
(-0.0580221 0.216359 3.03326e-20)
(-0.0610727 0.230553 -1.52131e-20)
(-0.0631185 0.243014 -3.04813e-20)
(-0.0641843 0.253698 -1.5289e-20)
(-0.0643116 0.26257 3.04842e-20)
(-0.0635442 0.269614 -3.04412e-20)
(-0.0619284 0.274844 3.04238e-20)
(-0.0595131 0.2783 -6.06619e-20)
(-0.0563444 0.28005 4.53167e-20)
(-0.0524648 0.280186 -3.00336e-20)
(-0.0479158 0.278818 1.5008e-20)
(-0.042737 0.276077 -2.97201e-20)
(-0.0369672 0.272101 0)
(-0.0306452 0.267041 1.48749e-20)
(-0.0238124 0.261053 -2.9185e-20)
(-0.0165176 0.2543 2.89394e-20)
(-0.0088196 0.246946 0)
(-0.0007921 0.239159 -1.41612e-20)
(0.00749026 0.231103 1.40905e-20)
(0.0159176 0.223024 5.60942e-20)
(0.0241539 0.215204 3.12854e-20)
(-0.00167357 0.0139219 -2.5276e-20)
(-0.0069691 0.042036 -2.74344e-20)
(-0.0146654 0.0706016 4.20909e-20)
(-0.022929 0.0977426 7.14247e-20)
(-0.0312721 0.122816 0)
(-0.0392282 0.145725 -2.94473e-20)
(-0.0465072 0.166575 2.97569e-20)
(-0.0529302 0.185507 8.98887e-20)
(-0.0583849 0.202633 -3.01931e-20)
(-0.0628158 0.218008 -3.03326e-20)
(-0.0662059 0.23164 9.114e-20)
(-0.0685613 0.243506 3.04807e-20)
(-0.0699025 0.253572 0)
(-0.0702658 0.26181 -6.09647e-20)
(-0.0696937 0.268214 9.10451e-20)
(-0.068229 0.272798 -3.02572e-20)
(-0.0659163 0.275606 3.02785e-20)
(-0.0627989 0.276707 3.01509e-20)
(-0.0589166 0.276192 1.07962e-22)
(-0.0543082 0.274173 0)
(-0.049012 0.27078 8.91052e-20)
(-0.0430647 0.266155 -5.8847e-20)
(-0.0365046 0.260452 2.93512e-20)
(-0.0293743 0.253835 0)
(-0.021724 0.246478 -2.8939e-20)
(-0.0136162 0.238563 1.14439e-19)
(-0.00513003 0.230281 -8.48741e-20)
(0.00365223 0.221827 -2.82594e-20)
(0.0125959 0.213481 2.76559e-20)
(0.0213509 0.205565 3.11326e-20)
(-0.00209319 0.0148287 0)
(-0.00807519 0.0440173 1.36735e-20)
(-0.0163308 0.0732307 2.41534e-24)
(-0.0250671 0.10073 -7.13609e-20)
(-0.0338127 0.125927 0)
(-0.0421264 0.148773 -5.86561e-20)
(-0.0497308 0.169407 0)
(-0.0564533 0.188002 -8.98182e-20)
(-0.0621846 0.204695 3.00747e-20)
(-0.0668679 0.219568 -6.03953e-20)
(-0.0704839 0.232649 -6.07117e-20)
(-0.0730355 0.243929 -3.03996e-20)
(-0.0745414 0.253386 3.03409e-20)
(-0.0750344 0.261 3.02204e-20)
(-0.0745521 0.26677 -3.04296e-20)
(-0.0731342 0.270716 -6.02923e-20)
(-0.0708235 0.27288 6.01395e-20)
(-0.0676605 0.273332 0)
(-0.0636822 0.272164 0)
(-0.0589255 0.269487 0)
(-0.0534275 0.265431 0)
(-0.0472248 0.26014 0)
(-0.0403559 0.253774 0)
(-0.032865 0.246503 -5.76335e-20)
(-0.0248043 0.238514 -5.74413e-20)
(-0.0162399 0.230006 -2.49021e-22)
(-0.00725543 0.221196 -5.64092e-20)
(0.00205954 0.21231 -2.70617e-22)
(0.0115493 0.203672 -5.59312e-20)
(0.0208437 0.195652 1.23532e-19)
(-0.00254395 0.0156571 0)
(-0.0092098 0.0458141 1.22656e-19)
(-0.0179656 0.0756361 3.02753e-24)
(-0.0270953 0.10348 -4.26964e-20)
(-0.0361507 0.128806 1.44452e-19)
(-0.0447156 0.151605 8.79676e-20)
(-0.0525308 0.172044 8.87031e-20)
(-0.059436 0.190324 0)
(-0.0653244 0.20661 0)
(-0.0701391 0.221005 9.05829e-20)
(-0.0738608 0.233556 5.5511e-23)
(-0.0764903 0.24427 -2.11875e-19)
(-0.0780425 0.253136 1.81496e-19)
(-0.0785465 0.260145 -6.06058e-20)
(-0.0780375 0.265299 6.01148e-20)
(-0.0765527 0.268619 6.01807e-20)
(-0.0741322 0.270151 -5.98116e-20)
(-0.0708141 0.269963 5.97841e-20)
(-0.0666339 0.268148 1.18678e-19)
(-0.0616278 0.264815 -5.89969e-20)
(-0.0558332 0.260095 -1.17088e-19)
(-0.0492872 0.254135 1.16286e-19)
(-0.0420298 0.247096 -1.15444e-19)
(-0.0341081 0.239159 5.76323e-20)
(-0.0255771 0.23052 0)
(-0.0165062 0.221396 0)
(-0.00698346 0.212029 5.09617e-22)
(0.00289564 0.202682 -2.21874e-19)
(0.0129592 0.193725 1.09823e-19)
(0.0228103 0.185587 -1.22747e-19)
(-0.0030175 0.0164151 0)
(-0.0103603 0.0474611 -1.09011e-19)
(-0.0195654 0.0778415 1.11289e-19)
(-0.0290131 0.106003 0)
(-0.0382816 0.131456 -2.30828e-19)
(-0.0469916 0.154219 -2.9249e-20)
(-0.0549046 0.174481 -5.92062e-20)
(-0.0618708 0.19247 -2.9763e-20)
(-0.0677913 0.208372 0)
(-0.0726123 0.222313 -6.023e-20)
(-0.0763127 0.234356 6.02898e-20)
(-0.0788912 0.244528 1.20981e-19)
(-0.0803613 0.252828 -1.20977e-19)
(-0.080749 0.259253 0)
(-0.0800864 0.263812 -1.20568e-19)
(-0.0784089 0.266528 1.19742e-19)
(-0.0757546 0.267446 1.19722e-19)
(-0.0721603 0.266636 1.78156e-19)
(-0.0676609 0.264188 -1.77602e-19)
(-0.0622933 0.260213 2.34906e-19)
(-0.0560964 0.25484 1.16887e-19)
(-0.0491095 0.248218 -1.16283e-19)
(-0.041376 0.240513 2.30191e-19)
(-0.0329463 0.23191 0)
(-0.0238801 0.222617 1.12918e-19)
(-0.0142503 0.212867 2.24438e-19)
(-0.00414887 0.202926 -1.105e-19)
(0.0063237 0.193093 1.10804e-19)
(0.0169851 0.183788 -2.83102e-22)
(0.0274048 0.175517 -1.21935e-19)
(-0.00350936 0.0170825 -1.25055e-20)
(-0.0115183 0.0489071 0)
(-0.0211166 0.0797844 -1.39083e-19)
(-0.0308059 0.10824 2.83246e-20)
(-0.0401959 0.133816 8.6482e-20)
(-0.0489448 0.156555 2.91542e-20)
(-0.0568388 0.176665 1.17764e-19)
(-0.0637441 0.194391 0)
(-0.0695706 0.209939 5.98281e-20)
(-0.0742669 0.223456 5.99277e-20)
(-0.0778129 0.235025 -6.02286e-20)
(-0.0802066 0.244685 1.80508e-19)
(-0.0814596 0.252448 0)
(-0.0815949 0.258319 0)
(-0.0806431 0.262312 1.79742e-19)
(-0.0786386 0.264451 -2.98725e-19)
(-0.0756178 0.264784 1.18736e-19)
(-0.0716167 0.263378 -1.18639e-19)
(-0.0666715 0.260324 -1.17398e-19)
(-0.0608217 0.255731 -3.50905e-19)
(-0.0541087 0.249729 -4.20506e-22)
(-0.0465758 0.242468 1.14941e-19)
(-0.0382715 0.234117 -2.28787e-19)
(-0.0292516 0.224867 1.13111e-19)
(-0.0195808 0.214933 -7.54504e-22)
(-0.00933681 0.204562 -1.11964e-19)
(0.00138382 0.194042 1.10997e-19)
(0.0124768 0.183706 0)
(0.0237561 0.174031 1.0822e-19)
(0.0347516 0.165605 2.43595e-22)
(-0.00401188 0.0176472 -2.49468e-20)
(-0.012671 0.0501307 2.70927e-20)
(-0.0226093 0.0814374 -1.66205e-19)
(-0.0324667 0.110152 -8.46653e-20)
(-0.0418867 0.135846 1.14754e-19)
(-0.0505699 0.158575 -1.74502e-19)
(-0.0583304 0.178557 -5.89797e-20)
(-0.0650519 0.19605 -1.18441e-19)
(-0.0706549 0.211279 1.19141e-19)
(-0.0750932 0.224409 -2.39532e-19)
(-0.0783481 0.235539 -1.19884e-19)
(-0.0804179 0.244722 -3.42607e-22)
(-0.0813126 0.251984 6.00752e-20)
(-0.0810537 0.257338 -1.79538e-19)
(-0.0796714 0.260799 -2.39009e-19)
(-0.0771986 0.262397 1.52415e-22)
(-0.0736711 0.262179 -3.30181e-22)
(-0.069126 0.260213 1.17558e-19)
(-0.0636026 0.256589 1.17395e-19)
(-0.0571435 0.251415 2.2595e-22)
(-0.0497948 0.244822 -1.64081e-22)
(-0.0416058 0.23696 1.13827e-19)
(-0.0326314 0.228001 1.14036e-19)
(-0.022935 0.218139 -2.782e-22)
(-0.0125875 0.207595 -3.3571e-19)
(-0.00167238 0.196627 2.21107e-19)
(0.00970808 0.185539 2.19814e-19)
(0.0214458 0.174698 -2.17428e-19)
(0.0333584 0.164633 -1.08217e-19)
(0.0449323 0.156031 -1.18759e-19)
(-0.00451781 0.0181017 -2.23663e-19)
(-0.0138063 0.0511099 -2.70255e-20)
(-0.0240327 0.0827679 1.38405e-19)
(-0.0339878 0.111704 1.12921e-19)
(-0.0433509 0.137506 -1.14752e-19)
(-0.0518672 0.160234 1.16267e-19)
(-0.0593815 0.180112 -5.87091e-20)
(-0.0657969 0.197405 1.77553e-19)
(-0.0710469 0.212353 -1.19139e-19)
(-0.0750923 0.225134 1.19612e-19)
(-0.0779173 0.235865 5.99867e-20)
(-0.0795208 0.244613 -6.01031e-20)
(-0.0799128 0.251415 -3.58772e-19)
(-0.0791146 0.256292 2.3903e-19)
(-0.077156 0.259264 1.19285e-19)
(-0.0740697 0.260363 0)
(-0.069892 0.259638 0)
(-0.0646627 0.257157 -8.78678e-22)
(-0.0584254 0.253008 -1.1599e-19)
(-0.0512275 0.247302 0)
(-0.0431212 0.240167 0)
(-0.0341639 0.231757 -1.14247e-19)
(-0.0244193 0.222243 0)
(-0.0139588 0.211823 -2.23224e-19)
(-0.00286159 0.200721 0)
(0.00878165 0.1892 -1.10399e-19)
(0.0208615 0.177577 2.1818e-19)
(0.0332656 0.166244 -2.15812e-19)
(0.0458217 0.155784 0)
(0.0579732 0.146985 0)
(-0.00501921 0.0184381 1.98781e-19)
(-0.0149114 0.051827 0)
(-0.0253769 0.0837501 -2.75937e-20)
(-0.035364 0.11286 2.81187e-20)
(-0.0445885 0.138755 -1.71201e-19)
(-0.0528414 0.161489 6.04793e-23)
(-0.0600003 0.181285 -5.85026e-20)
(-0.0659902 0.198412 0)
(-0.0707594 0.213116 0)
(-0.0742775 0.225592 -5.96047e-20)
(-0.0765333 0.235968 5.96636e-20)
(-0.0775278 0.244326 -1.19492e-19)
(-0.0772722 0.250714 1.20014e-19)
(-0.0757886 0.255159 0)
(-0.0731071 0.257688 0)
(-0.0692614 0.258338 0)
(-0.0642903 0.257157 1.16909e-19)
(-0.0582376 0.254214 -5.49005e-22)
(-0.0511518 0.249597 1.1655e-19)
(-0.0430871 0.243417 -2.29507e-19)
(-0.0341039 0.235804 1.14197e-19)
(-0.0242688 0.226911 -5.65388e-19)
(-0.0136559 0.216911 6.22331e-22)
(-0.00234656 0.206003 2.23214e-19)
(0.00957071 0.194412 -9.02187e-22)
(0.0219965 0.182404 2.18283e-19)
(0.0348124 0.1703 -2.15579e-19)
(0.0479003 0.15851 -2.14521e-19)
(0.0611052 0.147664 6.43861e-22)
(0.0738305 0.138656 -2.31649e-19)
(-0.0055081 0.0186523 -2.47462e-20)
(-0.0159738 0.0522698 0)
(-0.0266329 0.0843628 5.50481e-20)
(-0.0365921 0.113591 -5.60953e-20)
(-0.0456027 0.139555 5.13284e-19)
(-0.053502 0.162297 6.10546e-23)
(-0.060202 0.18203 -5.83595e-20)
(-0.0656514 0.19902 5.88897e-20)
(-0.0698155 0.213521 -2.95652e-19)
(-0.072675 0.225734 0)
(-0.0742248 0.235802 0)
(-0.0744698 0.243819 -1.18687e-19)
(-0.0734239 0.249841 1.19352e-19)
(-0.0711111 0.253906 -1.18657e-19)
(-0.067563 0.256046 1.18153e-19)
(-0.0628157 0.2563 0)
(-0.0569122 0.254721 -4.67768e-19)
(-0.0499015 0.251376 2.3181e-19)
(-0.0418387 0.246356 1.15354e-19)
(-0.032786 0.239771 3.43337e-19)
(-0.0228136 0.231753 0)
(-0.0119991 0.222455 2.2571e-19)
(-0.000427456 0.212051 2.22943e-19)
(0.0118085 0.20074 2.20888e-19)
(0.0246092 0.188748 -1.52648e-21)
(0.0378654 0.176338 -2.16056e-19)
(0.0514488 0.163829 2.15569e-19)
(0.0652329 0.15164 0)
(0.0790849 0.140439 6.59939e-22)
(0.0923789 0.131223 4.60157e-19)
(-0.00597708 0.018743 -1.9714e-19)
(-0.0169817 0.0524311 0)
(-0.027793 0.0845902 -2.19262e-19)
(-0.0376707 0.113873 -2.79594e-19)
(-0.0463996 0.139872 -1.70968e-19)
(-0.053863 0.162616 5.76724e-20)
(-0.0600078 0.182299 6.29644e-23)
(-0.0648086 0.199181 -5.86796e-20)
(-0.0682494 0.213515 6.07525e-22)
(-0.0703243 0.22551 1.18558e-19)
(-0.0710365 0.235318 1.18429e-19)
(-0.0703966 0.243044 -1.18045e-19)
(-0.0684231 0.248753 1.18522e-19)
(-0.0651432 0.252493 -3.54261e-19)
(-0.0605915 0.2543 3.52777e-19)
(-0.0548083 0.254219 2.33814e-19)
(-0.0478421 0.252303 5.82153e-19)
(-0.0397486 0.248624 -1.16709e-19)
(-0.0305908 0.243272 -2.28936e-19)
(-0.0204408 0.236359 -1.21791e-21)
(-0.00937942 0.228018 -2.25685e-19)
(0.00250395 0.218402 6.70291e-19)
(0.0151118 0.207686 -4.44574e-19)
(0.0283394 0.19607 4.382e-19)
(0.0420754 0.183777 -2.18131e-19)
(0.0561995 0.171066 4.30555e-19)
(0.0705726 0.158248 8.94699e-22)
(0.0850579 0.145741 -4.22237e-19)
(0.0995478 0.13424 4.17206e-19)
(0.113404 0.124834 2.25975e-19)
(-0.00641959 0.0187119 1.97139e-19)
(-0.017925 0.0523095 0)
(-0.0288512 0.0844227 4.92706e-19)
(-0.0386008 0.113684 1.6779e-19)
(-0.0469886 0.139678 0)
(-0.0539427 0.162406 0)
(-0.0594451 0.182045 0)
(-0.0634976 0.198841 0)
(-0.0661054 0.213043 1.18041e-19)
(-0.067278 0.224862 1.18147e-19)
(-0.0670292 0.234458 -2.37097e-19)
(-0.0653774 0.241944 2.37087e-19)
(-0.0623477 0.247395 3.54142e-19)
(-0.0579724 0.250866 1.1822e-19)
(-0.0522909 0.252401 1.16432e-19)
(-0.0453494 0.252048 -3.50485e-19)
(-0.0372032 0.249864 -4.63712e-19)
(-0.0279163 0.245922 -2.30713e-19)
(-0.0175612 0.240316 2.28925e-19)
(-0.00622073 0.233157 -4.534e-19)
(0.00601236 0.22458 2.2443e-19)
(0.019036 0.21474 -4.45264e-19)
(0.0327403 0.203814 2.19502e-19)
(0.0470077 0.191998 -1.37481e-21)
(0.0617145 0.179514 -2.15849e-19)
(0.0767296 0.166614 -4.28318e-19)
(0.0919028 0.153599 4.23935e-19)
(0.107085 0.140875 0)
(0.122193 0.129151 -6.49662e-22)
(0.136602 0.119598 -4.48614e-19)
(-0.00683011 0.0185631 2.45373e-20)
(-0.0187952 0.0519093 0)
(-0.0298034 0.0838577 -2.18681e-19)
(-0.0393853 0.113013 5.57084e-20)
(-0.0473815 0.138946 -5.65663e-20)
(-0.0537627 0.161632 0)
(-0.0585458 0.181224 -5.79811e-20)
(-0.0617612 0.197949 5.83809e-20)
(-0.0634369 0.212048 1.17512e-19)
(-0.0636003 0.22373 -3.53259e-19)
(-0.0622782 0.233159 -1.18062e-19)
(-0.0594992 0.240456 -2.21413e-23)
(-0.0552972 0.245705 -3.85214e-22)
(-0.0497114 0.248966 -2.34801e-19)
(-0.0427884 0.25029 -1.17281e-19)
(-0.0345818 0.249731 0)
(-0.0251556 0.247349 5.70757e-22)
(-0.014583 0.243221 2.29627e-19)
(-0.00294764 0.23744 -2.2732e-19)
(0.00965577 0.230123 0)
(0.0231222 0.221403 0)
(0.0373367 0.211437 0)
(0.0521764 0.200403 0)
(0.0675113 0.188497 -1.36632e-21)
(0.0832056 0.175937 0)
(0.0991172 0.162968 0)
(0.115086 0.149878 2.09395e-19)
(0.130948 0.137054 2.07276e-19)
(0.146646 0.125205 2.06078e-19)
(0.161593 0.115571 -6.58338e-22)
(-0.00720427 0.0183038 2.44666e-20)
(-0.0195862 0.0512406 -5.32033e-20)
(-0.0306475 0.0828992 3.2641e-19)
(-0.0400287 0.111853 -5.55092e-20)
(-0.0475918 0.137661 5.64788e-20)
(-0.0533471 0.160266 6.42832e-23)
(-0.0573457 0.179794 1.73141e-19)
(-0.0596473 0.196454 -2.32737e-19)
(-0.0603048 0.210471 3.51213e-19)
(-0.0593654 0.222049 3.32194e-22)
(-0.0568716 0.231355 -1.17403e-19)
(-0.0528648 0.238513 2.34973e-19)
(-0.0473899 0.243613 -2.34474e-19)
(-0.0404954 0.246722 2.33633e-19)
(-0.0322369 0.247899 0)
(-0.0226776 0.247201 2.31074e-19)
(-0.0118915 0.244693 0)
(3.73426e-05 0.240455 9.98388e-22)
(0.0130134 0.234583 -2.25629e-19)
(0.0269296 0.227195 -2.23539e-19)
(0.0416678 0.218426 2.21369e-19)
(0.0571004 0.208434 -2.19145e-19)
(0.0730919 0.197397 -2.16893e-19)
(0.0895002 0.185511 -4.30577e-19)
(0.106178 0.172992 -2.12385e-19)
(0.122973 0.160075 2.10874e-19)
(0.139717 0.147036 -4.1801e-19)
(0.15623 0.134237 -2.07264e-19)
(0.172475 0.122375 0)
(0.187939 0.112751 -2.19095e-19)
(-0.00753947 0.0179438 0)
(-0.020294 0.0503185 2.11861e-19)
(-0.0313833 0.0815586 -1.63177e-19)
(-0.0405373 0.110208 -2.76598e-19)
(-0.0476341 0.135811 0)
(-0.0527212 0.158284 0)
(-0.055882 0.177722 -3.4627e-19)
(-0.0572069 0.19431 4.64756e-19)
(-0.0567746 0.208257 -3.50601e-19)
(-0.0546542 0.219758 0)
(-0.0509065 0.228977 1.17707e-19)
(-0.0455887 0.236041 -1.17656e-19)
(-0.0387585 0.241044 7.20786e-22)
(-0.0304764 0.244059 -1.17337e-19)
(-0.0208089 0.24515 -1.15591e-19)
(-0.00983085 0.244379 -8.58137e-22)
(0.0023726 0.241818 2.28513e-19)
(0.0157052 0.237547 2.27595e-19)
(0.0300588 0.231667 6.66422e-22)
(0.0453134 0.224296 4.46658e-19)
(0.0613383 0.215571 -4.4202e-19)
(0.0779931 0.205652 4.37793e-19)
(0.0951307 0.194716 2.16881e-19)
(0.112598 0.182959 2.14621e-19)
(0.130236 0.170593 1.28254e-21)
(0.147884 0.157848 0)
(0.165365 0.144984 2.07332e-19)
(0.182487 0.132337 -6.15533e-19)
(0.199224 0.120584 2.01983e-19)
(0.215172 0.111079 2.16086e-19)
(-0.00783476 0.0174953 -1.45662e-19)
(-0.020917 0.0491631 -4.76035e-19)
(-0.0320123 0.0798538 -4.52992e-23)
(-0.0409176 0.108086 5.44293e-22)
(-0.0475229 0.133396 -1.68175e-19)
(-0.0519092 0.155671 0)
(-0.0541916 0.17498 -1.14643e-19)
(-0.0544906 0.191478 -6.95449e-19)
(-0.0529124 0.205356 3.49887e-19)
(-0.0495498 0.216797 -2.33512e-19)
(-0.0444844 0.22596 3.50813e-19)
(-0.0377912 0.232968 -1.16973e-19)
(-0.0295436 0.237921 2.33738e-19)
(-0.0198159 0.240895 -5.81146e-19)
(-0.00868799 0.24196 3.47348e-19)
(0.00375255 0.241182 -5.8381e-22)
(0.0174077 0.238637 -6.84343e-19)
(0.0321682 0.234409 2.25968e-19)
(0.0479131 0.228602 -2.24273e-19)
(0.0645093 0.221334 0)
(0.0818139 0.212746 2.19162e-19)
(0.0996747 0.202996 0)
(0.117933 0.192262 -2.1497e-19)
(0.136426 0.180738 2.12855e-19)
(0.154984 0.168634 2.11079e-19)
(0.173438 0.156175 2.07583e-19)
(0.191606 0.143607 0)
(0.209281 0.131237 0)
(0.226444 0.119713 -4.04923e-19)
(0.242827 0.110449 6.39555e-19)
(-0.0080909 0.016972 1.45787e-19)
(-0.0214562 0.0477989 2.63986e-19)
(-0.0325372 0.0778092 -2.157e-19)
(-0.0411761 0.105507 4.40667e-19)
(-0.0472709 0.130425 5.66379e-20)
(-0.0509329 0.152426 5.68519e-20)
(-0.0523073 0.171551 7.31624e-22)
(-0.0515452 0.187929 -2.30585e-19)
(-0.0487808 0.201727 -1.15966e-19)
(-0.0441324 0.213115 6.2885e-22)
(-0.037704 0.22224 -6.45618e-22)
(-0.029591 0.229226 -3.49519e-19)
(-0.0198846 0.234169 -1.15959e-19)
(-0.00867482 0.237152 7.29741e-22)
(0.00394335 0.238246 2.30097e-19)
(0.017868 0.237523 2.28547e-19)
(0.0329873 0.235061 8.50066e-22)
(0.0491788 0.23095 -2.24791e-19)
(0.0663083 0.225294 2.22926e-19)
(0.0842302 0.218213 -2.2112e-19)
(0.10279 0.209849 -4.37285e-19)
(0.121824 0.20036 -2.16144e-19)
(0.141163 0.189924 4.27504e-19)
(0.160634 0.178735 0)
(0.180059 0.166997 -2.08698e-19)
(0.19926 0.154931 -4.13966e-19)
(0.218051 0.142771 -4.09482e-19)
(0.236213 0.130798 2.03094e-19)
(0.253722 0.119623 -6.02113e-19)
(0.270473 0.110724 2.11017e-19)
(-0.00831031 0.0163888 -2.41555e-19)
(-0.0219144 0.0462534 5.25679e-20)
(-0.0329615 0.0754549 2.15702e-19)
(-0.041318 0.102497 -1.65066e-19)
(-0.0468873 0.126915 5.61135e-20)
(-0.0498084 0.148555 -1.40282e-22)
(-0.0502555 0.16743 5.71906e-19)
(-0.0484096 0.183644 2.30903e-19)
(-0.0444334 0.19734 2.32151e-19)
(-0.038472 0.20867 3.49158e-19)
(-0.0306538 0.21777 -3.49511e-19)
(-0.0210958 0.224755 2.32918e-19)
(-0.00990875 0.229724 4.6418e-19)
(0.00279958 0.232757 2.30892e-19)
(0.0169179 0.233931 -5.63174e-22)
(0.0323289 0.23332 -4.56865e-19)
(0.0489066 0.231006 4.52869e-19)
(0.0665148 0.22708 2.14084e-22)
(0.0850064 0.221649 -2.21977e-19)
(0.104224 0.214835 2.20179e-19)
(0.124001 0.20678 2.18124e-19)
(0.144164 0.197641 -2.14765e-19)
(0.164534 0.187597 -4.26122e-19)
(0.184926 0.176837 2.56195e-22)
(0.205155 0.165565 2.09331e-19)
(0.225034 0.153994 2.06384e-19)
(0.244371 0.142348 4.07098e-19)
(0.262941 0.130884 -4.01527e-19)
(0.280703 0.120169 0)
(0.297731 0.111757 2.08908e-19)
(-0.00849691 0.0157615 5.7312e-22)
(-0.0222963 0.0445568 0)
(-0.0332886 0.0728264 -1.6075e-19)
(-0.0413463 0.0990913 -5.47474e-20)
(-0.0463766 0.122898 -2.22459e-19)
(-0.0485446 0.14408 0)
(-0.0480521 0.16263 -3.42632e-19)
(-0.0451096 0.178625 1.14932e-19)
(-0.0399086 0.192184 0)
(-0.0326217 0.20344 -2.31618e-19)
(-0.0234025 0.212513 0)
(-0.0123908 0.219514 -3.47514e-19)
(0.000281609 0.224533 3.4664e-19)
(0.0144882 0.227654 -2.30642e-19)
(0.0301005 0.228953 -2.28597e-19)
(0.0469853 0.228506 0)
(0.065002 0.226399 0)
(0.084001 0.222724 2.2324e-19)
(0.103822 0.21759 -4.96667e-22)
(0.124297 0.211119 2.18101e-19)
(0.145247 0.203453 -2.16904e-19)
(0.166489 0.194751 4.28825e-19)
(0.187832 0.185186 -2.12038e-19)
(0.209083 0.174949 0)
(0.230043 0.164236 6.21505e-19)
(0.25052 0.153256 -1.02313e-18)
(0.270316 0.142224 2.03061e-19)
(0.289198 0.131372 2.00771e-19)
(0.307105 0.121222 1.97528e-19)
(0.324294 0.113408 4.11898e-19)
(-0.00865588 0.0151057 -1.91452e-19)
(-0.0226076 0.0427408 4.17669e-19)
(-0.033521 0.0699631 2.14479e-19)
(-0.04126 0.0953312 4.91026e-19)
(-0.0457364 0.118413 6.10639e-19)
(-0.0471398 0.139037 1.12653e-19)
(-0.0456993 0.157179 -5.6821e-19)
(-0.0416539 0.17289 0)
(-0.0352239 0.186268 -4.60573e-19)
(-0.0266094 0.197423 -2.30356e-19)
(-0.0159898 0.206462 0)
(-0.00352828 0.213482 -2.30283e-19)
(0.010622 0.218571 -4.8327e-22)
(0.0263151 0.221809 -6.88191e-19)
(0.0434047 0.223272 2.28591e-19)
(0.0617418 0.223038 2.26344e-19)
(0.0811712 0.221193 -4.49165e-19)
(0.10153 0.217831 -4.4531e-19)
(0.122645 0.213061 5.34699e-22)
(0.144336 0.207007 -1.76889e-22)
(0.166412 0.19981 0)
(0.188679 0.191626 -2.13096e-19)
(0.210934 0.182629 -2.09706e-19)
(0.232972 0.173002 0)
(0.254583 0.162941 0)
(0.275563 0.152644 6.1139e-19)
(0.295711 0.142319 -6.02696e-19)
(0.314791 0.132173 0)
(0.332714 0.122679 5.89473e-19)
(0.349921 0.115561 -4.08136e-19)
(-0.0087933 0.0144368 1.17919e-21)
(-0.0228543 0.0408372 -4.17625e-19)
(-0.0336596 0.0669076 -5.33614e-20)
(-0.0410536 0.0912658 -5.45382e-19)
(-0.0449557 0.113512 -3.32996e-19)
(-0.0455799 0.133477 1.12344e-19)
(-0.0431822 0.151123 2.27578e-19)
(-0.0380295 0.166481 5.7116e-19)
(-0.03037 0.179626 4.60572e-19)
(-0.020431 0.190646 4.6197e-19)
(-0.00841776 0.199633 0)
(0.0054835 0.206673 1.31755e-21)
(0.0210982 0.211844 0)
(0.038261 0.215224 4.58455e-19)
(0.0568078 0.216886 0)
(0.0765737 0.216909 -2.25569e-19)
(0.0973887 0.215378 2.25754e-19)
(0.119076 0.212389 0)
(0.14145 0.20805 0)
(0.164316 0.202484 -6.50649e-19)
(0.187471 0.195832 2.15114e-19)
(0.210706 0.188248 0)
(0.233805 0.179902 4.20232e-19)
(0.256546 0.170973 4.15925e-19)
(0.27871 0.161649 -8.20208e-19)
(0.300081 0.152123 8.10723e-19)
(0.320453 0.142589 8.58019e-22)
(0.33959 0.133236 3.95205e-19)
(0.357376 0.124479 -3.92899e-19)
(0.374425 0.118132 0)
(-0.0089157 0.0137688 4.78517e-19)
(-0.023042 0.0388773 -5.19496e-20)
(-0.0337019 0.0637041 -4.25192e-19)
(-0.0407154 0.0869494 0)
(-0.0440139 0.108255 -4.41155e-19)
(-0.0438365 0.127464 0)
(-0.0404665 0.144528 -5.65199e-19)
(-0.0341978 0.159462 -3.4286e-19)
(-0.025306 0.172319 -4.58034e-19)
(-0.0140446 0.183167 0)
(-0.000643512 0.192082 1.15075e-19)
(0.0146883 0.199135 1.16153e-19)
(0.0317556 0.204397 -2.29368e-19)
(0.0503736 0.207941 -4.55631e-19)
(0.0703608 0.209835 -2.2628e-19)
(0.0915361 0.210158 -8.99513e-19)
(0.113714 0.208992 4.47647e-19)
(0.136704 0.206433 5.97185e-22)
(0.160304 0.20259 6.01858e-22)
(0.184304 0.197583 6.50346e-19)
(0.208486 0.191551 0)
(0.232623 0.184646 0)
(0.256483 0.177033 -1.34468e-21)
(0.279828 0.168884 5.2316e-22)
(0.302424 0.160381 -4.07187e-19)
(0.324044 0.151705 -4.03187e-19)
(0.344482 0.143039 1.13972e-21)
(0.363505 0.13455 -3.95191e-19)
(0.380973 0.126595 -3.89933e-19)
(0.397659 0.12107 9.1685e-22)
(-0.00902945 0.013114 0)
(-0.0231746 0.0368901 4.13905e-19)
(-0.0336418 0.0603972 3.72095e-19)
(-0.0402267 0.0824402 5.41139e-20)
(-0.0428792 0.102713 8.81028e-19)
(-0.0418655 0.121076 -1.11714e-19)
(-0.0374968 0.137478 9.02541e-19)
(-0.0300935 0.151921 4.54182e-19)
(-0.0199574 0.164437 6.86708e-19)
(-0.00736698 0.175078 3.43422e-19)
(0.0074244 0.183898 1.14742e-19)
(0.024186 0.190959 5.73678e-19)
(0.0427025 0.196322 -3.13424e-22)
(0.0627702 0.20005 2.27986e-19)
(0.0841899 0.20221 4.52788e-19)
(0.106763 0.202874 4.49381e-19)
(0.130289 0.202125 0)
(0.154557 0.200056 0)
(0.17935 0.196773 0)
(0.204439 0.192395 0)
(0.229584 0.187056 4.25249e-19)
(0.25454 0.180904 0)
(0.279054 0.174099 -4.76681e-22)
(0.302872 0.166807 8.21766e-19)
(0.325746 0.159197 4.06509e-19)
(0.347441 0.151441 4.01719e-19)
(0.36775 0.143705 7.9356e-19)
(0.386455 0.136139 0)
(0.403398 0.129033 -7.7487e-19)
(0.419492 0.124355 7.97072e-19)
(-0.00914021 0.0124823 3.79396e-19)
(-0.0232539 0.0349017 -4.13915e-19)
(-0.0334685 0.0570305 0)
(-0.0395611 0.0777988 -4.31241e-19)
(-0.0415085 0.0969622 -1.11208e-19)
(-0.0396072 0.114404 -3.33361e-19)
(-0.0341967 0.130076 -1.01265e-18)
(-0.0256239 0.14397 -1.43191e-21)
(-0.0142158 0.156101 -3.41423e-19)
(-0.000274335 0.166503 -8.00496e-19)
(0.0159249 0.175214 -1.14453e-19)
(0.0341305 0.182281 -4.56439e-19)
(0.0541072 0.187756 -4.5495e-19)
(0.0756322 0.191694 0)
(0.0984875 0.194154 -4.49761e-19)
(0.122456 0.195205 -6.69482e-19)
(0.147316 0.194925 2.21862e-19)
(0.172839 0.193404 -4.37931e-19)
(0.198784 0.190744 -4.33289e-19)
(0.224898 0.187059 0)
(0.250921 0.182481 -8.48684e-19)
(0.276581 0.177151 0)
(0.301608 0.171221 -8.28965e-19)
(0.32573 0.164849 -4.0877e-19)
(0.348688 0.158192 -8.08644e-19)
(0.370246 0.151409 3.99312e-19)
(0.3902 0.14465 -1.18475e-18)
(0.408354 0.138044 3.89351e-19)
(0.424543 0.131815 1.92492e-21)
(0.439796 0.127981 -3.94713e-19)
(-0.00925237 0.0118807 -3.79404e-19)
(-0.0232783 0.0329344 5.15244e-20)
(-0.0331656 0.0536453 3.68562e-19)
(-0.0386842 0.0730865 4.31251e-19)
(-0.0398479 0.0910829 -4.38564e-19)
(-0.0369864 0.107547 1.34874e-21)
(-0.03047 0.122438 4.49385e-19)
(-0.0206715 0.13574 -9.0458e-19)
(-0.00794247 0.147454 -1.12321e-19)
(0.00739293 0.157597 1.0261e-18)
(0.0250379 0.166193 -6.8374e-19)
(0.0447204 0.173274 1.13938e-18)
(0.0661849 0.178881 1.1353e-18)
(0.0891884 0.183059 -2.26174e-19)
(0.113492 0.185859 4.49757e-19)
(0.138855 0.187344 6.6866e-19)
(0.165034 0.187586 2.19552e-19)
(0.191774 0.18667 1.71991e-21)
(0.218808 0.184691 2.17416e-19)
(0.245856 0.181759 2.14113e-19)
(0.272632 0.177999 -2.09125e-19)
(0.298842 0.173544 2.09038e-19)
(0.324195 0.16854 -4.11421e-19)
(0.348408 0.163133 4.08292e-19)
(0.371218 0.157471 1.93312e-21)
(0.392392 0.151695 3.96603e-19)
(0.411739 0.14594 1.95499e-21)
(0.429091 0.140312 -3.88402e-19)
(0.444287 0.134969 9.16127e-22)
(0.458447 0.13195 0)
(-0.00936846 0.0113135 0)
(-0.0232425 0.0310062 0)
(-0.032711 0.0502795 -4.73903e-19)
(-0.037554 0.0683631 5.36148e-20)
(-0.0378329 0.0851579 0)
(-0.0339155 0.10061 4.43257e-19)
(-0.0262044 0.11469 1.11901e-19)
(-0.0150992 0.127377 3.38948e-19)
(-0.000975304 0.138661 4.54036e-19)
(0.0158208 0.148542 -4.55358e-19)
(0.0349713 0.15703 4.55649e-19)
(0.0561827 0.164144 -4.54983e-19)
(0.0791776 0.169912 -4.5345e-19)
(0.10369 0.174368 0)
(0.129454 0.177553 0)
(0.156206 0.179521 0)
(0.183671 0.180336 -4.40595e-19)
(0.211563 0.180076 6.53502e-19)
(0.239587 0.178828 -2.15669e-19)
(0.267434 0.176695 0)
(0.29479 0.173793 6.31611e-19)
(0.321343 0.17025 -2.08104e-19)
(0.346789 0.166199 4.11412e-19)
(0.37084 0.161779 -8.09385e-19)
(0.393237 0.157126 8.02288e-19)
(0.413759 0.152368 -1.22334e-21)
(0.432237 0.147623 7.51276e-22)
(0.448536 0.142977 3.86402e-19)
(0.462508 0.138516 -4.75731e-23)
(0.475327 0.136268 3.89949e-19)
(-0.00948863 0.0107818 4.70676e-20)
(-0.0231367 0.0291301 -5.11379e-20)
(-0.032077 0.0469661 1.04892e-19)
(-0.0361217 0.0636849 -6.41097e-19)
(-0.0353911 0.0792688 1.087e-19)
(-0.0302968 0.0937011 0)
(-0.0212763 0.106965 4.45223e-19)
(-0.00875699 0.119037 -4.48767e-19)
(0.00686083 0.129897 0)
(0.0252078 0.139532 5.65679e-19)
(0.0459434 0.147937 -1.13377e-19)
(0.0687504 0.155118 0)
(0.093326 0.161086 -2.25313e-19)
(0.119376 0.165864 4.48664e-19)
(0.146605 0.169481 -2.23113e-19)
(0.174716 0.17198 2.20676e-19)
(0.2034 0.173414 -4.37945e-19)
(0.23234 0.173851 7.34323e-22)
(0.261204 0.173369 7.36907e-22)
(0.289659 0.172062 -2.10573e-19)
(0.317369 0.170037 -4.18087e-19)
(0.344008 0.167412 1.27255e-21)
(0.369271 0.164314 1.61829e-21)
(0.392876 0.160872 4.044e-19)
(0.41458 0.157215 -3.98063e-19)
(0.434185 0.153461 3.94731e-19)
(0.451546 0.14972 -7.77817e-19)
(0.466556 0.146054 -8.7428e-22)
(0.479093 0.142485 -7.59015e-19)
(0.490322 0.140982 3.87554e-19)
(-0.00960989 0.0102832 0)
(-0.0229458 0.0273134 -4.0722e-19)
(-0.0312298 0.0437322 0)
(-0.0343322 0.059103 1.4331e-21)
(-0.0324443 0.0734927 1.08527e-19)
(-0.0260273 0.0869234 1.69655e-22)
(-0.0155574 0.0993922 -8.88846e-19)
(-0.00149216 0.110875 3.36827e-19)
(0.0157413 0.121342 0)
(0.035748 0.130768 -5.65296e-19)
(0.0581615 0.139132 1.12987e-19)
(0.0826365 0.146425 0)
(0.108839 0.152642 -2.24461e-19)
(0.136441 0.157791 2.23739e-19)
(0.165112 0.161887 2.2135e-19)
(0.194516 0.164958 4.40203e-19)
(0.224307 0.167046 -2.18413e-19)
(0.254131 0.168206 0)
(0.283629 0.168504 0)
(0.312442 0.168024 4.22846e-19)
(0.340225 0.166864 -4.16089e-19)
(0.36665 0.165134 4.12306e-19)
(0.391424 0.162953 4.07468e-19)
(0.414288 0.160445 4.00863e-19)
(0.435033 0.157736 -3.96795e-19)
(0.453493 0.154946 3.92485e-19)
(0.469548 0.152188 3.86477e-19)
(0.483087 0.149526 -3.82286e-19)
(0.493966 0.146976 9.32671e-22)
(0.503136 0.146364 7.70408e-19)
(-0.00972882 0.00981521 4.67603e-20)
(-0.0226522 0.0255611 3.56535e-19)
(-0.0301327 0.0406006 0)
(-0.032128 0.0546633 4.25831e-19)
(-0.0289125 0.0679017 0)
(-0.0210045 0.0803762 0)
(-0.00892295 0.0920982 3.32995e-19)
(0.00684004 0.103042 -9.11073e-23)
(0.0258271 0.113171 1.12188e-19)
(0.0476129 0.122443 1.12486e-19)
(0.0717995 0.130823 -3.37563e-19)
(0.0980071 0.138285 2.24831e-19)
(0.125864 0.144805 0)
(0.155003 0.150374 0)
(0.18505 0.154989 -4.42983e-19)
(0.215628 0.158663 0)
(0.246354 0.161423 -2.16708e-19)
(0.27684 0.163309 2.1522e-19)
(0.306703 0.164376 2.12047e-19)
(0.335572 0.164696 -7.61904e-22)
(0.363103 0.164359 -2.07752e-19)
(0.388985 0.163466 0)
(0.412952 0.16213 -4.03787e-19)
(0.434792 0.160472 3.99811e-19)
(0.454346 0.15862 0)
(0.471508 0.156707 0)
(0.486216 0.154872 0)
(0.498391 0.153244 0)
(0.507807 0.151956 -3.75268e-19)
(0.514866 0.15291 7.65173e-19)
(0.0536368 0.198112 -0.0117364)
(0.0948304 0.164681 -0.0120302)
(0.135845 0.148637 -0.0121313)
(0.164921 0.145587 -0.0121852)
(0.187119 0.150663 -0.012164)
(0.200941 0.159544 -0.0121225)
(0.208751 0.169097 -0.0120485)
(0.211661 0.177933 -0.0119627)
(0.211114 0.185813 -0.0118659)
(0.208143 0.193085 -0.0117618)
(0.203503 0.200085 -0.0116507)
(0.197675 0.206984 -0.0115354)
(0.190928 0.213755 -0.0114199)
(0.183474 0.220334 -0.0113051)
(0.175396 0.226612 -0.01119)
(0.166853 0.23254 -0.011077)
(0.157861 0.238085 -0.01097)
(0.148585 0.243232 -0.0108648)