/*--------------------------------*- C++ -*----------------------------------*\
  =========                 |
  \\      /  F ield         | OpenFOAM: The Open Source CFD Toolbox
   \\    /   O peration     | Website:  https://openfoam.org
    \\  /    A nd           | Version:  7
     \\/     M anipulation  |
\*---------------------------------------------------------------------------*/
FoamFile
{
    version     2.0;
    format      ascii;
    class       volVectorField;
    location    "90";
    object      U;
}
// * * * * * * * * * * * * * * * * * * * * * * * * * * * * * * * * * * * * * //

dimensions      [0 1 -1 0 0 0 0];

internalField   nonuniform List<vector> 
2000
(
(-0.000107805 -0.00488326 -1.99699e-22)
(1.01597e-05 -0.0115787 0)
(0.000478327 -0.0154502 0)
(0.00124627 -0.0169261 -1.02267e-21)
(0.00226523 -0.01628 3.32479e-22)
(0.00351148 -0.0136928 1.32621e-23)
(0.00498323 -0.00929272 -5.72393e-22)
(0.00668476 -0.00319176 0)
(0.00861672 0.0044874 0)
(0.0106691 0.0135953 0)
(0.000361716 -0.00473427 0)
(0.00133206 -0.0115984 -7.80202e-22)
(0.00255333 -0.0156885 7.19502e-22)
(0.00384592 -0.0174078 1.36619e-21)
(0.00517048 -0.017037 0)
(0.00651396 -0.0147742 1.24942e-21)
(0.00788943 -0.0107574 -1.16188e-21)
(0.00932262 -0.00508987 0)
(0.0108507 0.00213933 2.13783e-21)
(0.012375 0.0108308 -4.1166e-21)
(0.000871512 -0.00466741 0)
(0.00284153 -0.0117158 6.23041e-21)
(0.00499026 -0.0159771 0)
(0.00697294 -0.0178774 5.56919e-21)
(0.00875959 -0.017716 0)
(0.0103485 -0.0157173 -5.02449e-21)
(0.0117676 -0.012037 0)
(0.0130627 -0.0067773 4.56414e-21)
(0.0143077 9.57633e-07 -4.2746e-21)
(0.0154128 0.00823998 -4.19466e-21)
(0.00145281 -0.00470433 -1.61978e-21)
(0.00457937 -0.0119541 -3.11146e-21)
(0.00781402 -0.0163276 -1.45691e-21)
(0.010631 -0.0183312 -2.73551e-21)
(0.0130147 -0.0182956 -2.61738e-21)
(0.0149801 -0.0164794 2.47212e-21)
(0.0165733 -0.0130632 2.37331e-21)
(0.0178605 -0.00815618 -2.53822e-23)
(0.0189511 -0.00179756 4.31422e-21)
(0.0197642 0.00598437 4.1927e-21)
(0.00214051 -0.00485734 -1.59134e-21)
(0.00658559 -0.0123215 -3.17382e-21)
(0.0110383 -0.016738 -6.02672e-21)
(0.0147986 -0.0187593 2.77259e-21)
(0.017877 -0.018759 0)
(0.020315 -0.017036 0)
(0.0221843 -0.0138004 -4.8746e-21)
(0.0235745 -0.00917428 -4.62635e-21)
(0.0246282 -0.00318122 4.36872e-21)
(0.0252767 0.00416753 1.26165e-20)
(0.00297011 -0.00512528 1.61843e-21)
(0.00889304 -0.0128039 1.64905e-21)
(0.0146582 -0.0171901 -8.94081e-21)
(0.0194229 -0.0191447 1.41993e-20)
(0.0232411 -0.0190952 -2.64704e-21)
(0.0261955 -0.0173842 0)
(0.0283946 -0.0142533 0)
(0.0299576 -0.00983992 2.30336e-20)
(0.0310586 -0.00415442 -2.18046e-20)
(0.0316434 0.00280088 4.14353e-21)
(0.00397303 -0.00549121 1.2616e-20)
(0.0115204 -0.0133656 0)
(0.0186441 -0.0176483 1.19484e-20)
(0.0244155 -0.0194625 -1.1334e-20)
(0.0289552 -0.0192978 0)
(0.0324047 -0.0175419 5.15255e-21)
(0.034923 -0.0144671 -1.44493e-20)
(0.0366693 -0.0102256 -1.83991e-20)
(0.0378489 -0.00481266 8.63486e-21)
(0.03842 0.00178305 8.38662e-21)
(0.00517169 -0.0059229 -2.52333e-20)
(0.0144649 -0.0139501 -3.21611e-21)
(0.0229364 -0.0180621 -6.05984e-21)
(0.0296521 -0.0196816 -1.42453e-20)
(0.0348267 -0.019365 -5.45111e-21)
(0.0386799 -0.0175432 -5.14602e-21)
(0.0414359 -0.0145179 4.25905e-23)
(0.0433067 -0.0104555 0)
(0.0445352 -0.00533199 0)
(0.0450865 0.000903213 3.99026e-23)
(0.00657497 -0.00637513 1.26176e-20)
(0.0176967 -0.0144849 -1.28268e-20)
(0.027443 -0.0183713 9.0098e-21)
(0.0349759 -0.0197688 2.0052e-20)
(0.0406341 -0.0192996 -5.34899e-21)
(0.0447354 -0.0174324 5.14378e-21)
(0.0475817 -0.0144948 4.85015e-21)
(0.049449 -0.0106711 0)
(0.0506345 -0.00592111 0)
(0.0511217 -0.000124037 -1.9744e-22)
(0.0081751 -0.00679425 -1.58915e-21)
(0.0211544 -0.0148891 1.60945e-20)
(0.0320397 -0.0185137 -3.01126e-21)
(0.0402048 -0.0196952 0)
(0.0461447 -0.0191123 0)
(0.0502938 -0.0172595 1.01804e-20)
(0.0530396 -0.0144819 0)
(0.0547239 -0.0109862 -8.93902e-21)
(0.0557077 -0.00674559 1.27734e-23)
(0.0560392 -0.0015935 8.00548e-21)
(0.0147905 0.036689 1.56758e-22)
(0.0259329 0.0896646 -1.58515e-22)
(0.0344269 0.146 -1.77493e-22)
(0.0363203 0.198402 -1.99791e-22)
(0.0326764 0.249807 -2.43324e-22)
(0.0290049 0.304078 -8.90865e-24)
(0.0182806 0.366417 1.27328e-22)
(0.0154501 0.452712 4.56959e-22)
(-0.00299514 0.584622 0)
(0.00449834 0.74227 -3.33466e-22)
(0.014747 0.0331469 6.07451e-22)
(0.0234772 0.0851396 -6.80088e-22)
(0.0320202 0.143247 1.21306e-21)
(0.0343489 0.197525 2.00117e-22)
(0.0311358 0.250173 4.31628e-22)
(0.0277825 0.305258 7.41548e-22)
(0.0175394 0.368127 -2.75812e-22)
(0.0147991 0.454761 -3.06763e-22)
(-0.00286223 0.586031 5.92101e-22)
(0.00409897 0.742084 3.32679e-22)
(0.0161343 0.0295924 0)
(0.0217499 0.0798967 -6.63459e-22)
(0.0299805 0.139415 -3.50998e-22)
(0.0326393 0.195641 0)
(0.0298029 0.249658 -1.32959e-21)
(0.0267461 0.305644 4.16166e-22)
(0.0169288 0.369064 4.64803e-22)
(0.014236 0.455983 1.65552e-21)
(-0.00270066 0.586961 -5.90182e-22)
(0.00374442 0.741723 1.20183e-21)
(0.0190242 0.026224 0)
(0.020895 0.0741647 6.69016e-22)
(0.02833 0.134552 0)
(0.0311818 0.192739 1.55827e-21)
(0.0286631 0.248253 -1.56636e-21)
(0.0258795 0.305236 -9.43992e-22)
(0.0164341 0.369217 -5.44034e-23)
(0.0137692 0.456367 -1.62377e-21)
(-0.00251335 0.587222 -2.64453e-22)
(0.00341449 0.741017 -1.47741e-21)
(0.0233411 0.0232004 3.58635e-23)
(0.0210652 0.0682159 -1.91606e-21)
(0.0271055 0.128758 5.22801e-23)
(0.0299693 0.188827 -1.41068e-21)
(0.0277017 0.245956 0)
(0.0251651 0.304055 -9.03625e-22)
(0.0160397 0.368654 -7.51262e-23)
(0.0133835 0.4561 2.0382e-21)
(-0.00232051 0.587134 2.67973e-22)
(0.00311024 0.740259 -2.68957e-22)
(0.0288133 0.0206058 -5.17794e-21)
(0.0223657 0.0623314 3.28097e-21)
(0.0263608 0.122186 1.38677e-21)
(0.0289986 0.183938 -1.38611e-21)
(0.0269055 0.242771 -7.46232e-22)
(0.0245919 0.302082 0)
(0.0157449 0.367301 -1.80815e-21)
(0.013089 0.454934 9.08724e-22)
(-0.00211407 0.586141 9.83816e-22)
(0.00281108 0.739046 1.02785e-21)
(0.0349617 0.0184396 -6.22289e-22)
(0.0247727 0.0567696 0)
(0.026155 0.115051 0)
(0.0282709 0.178129 0)
(0.0262579 0.238735 -7.9367e-22)
(0.0241389 0.299447 1.53755e-21)
(0.0155245 0.365456 1.76397e-21)
(0.0128409 0.453512 -2.75187e-21)
(-0.00193127 0.585296 4.84151e-22)
(0.00253909 0.738065 -1.4975e-21)
(0.0411293 0.0165978 3.89502e-21)
(0.0280478 0.0516319 2.68227e-21)
(0.0265125 0.107578 -2.65776e-21)
(0.0277901 0.171511 2.80006e-21)
(0.0257562 0.233772 -3.47494e-21)
(0.0238082 0.295844 0)
(0.0154043 0.362499 -7.95806e-22)
(0.0127012 0.450629 3.89963e-23)
(-0.00172004 0.582828 -8.72468e-22)
(0.00225266 0.736298 -9.27013e-22)
(0.0465051 0.0146986 -3.30343e-21)
(0.0316902 0.046534 0)
(0.027382 0.0995812 -2.99119e-21)
(0.0275298 0.164121 5.36817e-21)
(0.025361 0.228398 -1.99514e-21)
(0.0235544 0.292353 -3.63399e-22)
(0.0153039 0.360138 7.94077e-22)
(0.0125197 0.448985 1.04834e-23)
(-0.0015981 0.581995 1.26259e-21)
(0.00200678 0.735369 1.34529e-21)
(0.0500985 0.0126125 -2.68645e-21)
(0.0349875 0.0414801 2.62779e-21)
(0.028653 0.0907972 3.3373e-22)
(0.0275922 0.154542 0)
(0.0250936 0.219965 0)
(0.0234411 0.285504 3.58416e-22)
(0.0154034 0.35409 1.50909e-21)
(0.0126095 0.443011 -1.46602e-21)
(-0.00134478 0.577105 -3.94597e-22)
(0.00171446 0.732827 3.8153e-22)
(0.0518629 0.0136748 0)
(0.0393726 0.03982 0)
(0.0309706 0.0848382 0)
(0.028419 0.14898 0)
(0.0252278 0.217389 0)
(0.0227744 0.285727 0)
(0.0148308 0.356065 0)
(0.0116642 0.446303 0)
(-0.00152593 0.579534 0)
(0.00119555 0.731971 0)
(0.0533581 0.0277565 0)
(0.0428802 0.0572748 0)
(0.0325195 0.0972134 0)
(0.0278459 0.155201 0)
(0.0244103 0.221726 0)
(0.0216515 0.29054 0)
(0.0142069 0.362446 0)
(0.010657 0.453977 0)
(-0.00136042 0.585486 0)
(0.000757382 0.73183 0)
(0.0504606 0.0314562 0)
(0.0438287 0.0654977 0)
(0.0341383 0.10572 0)
(0.0278301 0.161333 0)
(0.0235972 0.226868 0)
(0.0204292 0.2957 0)
(0.0134668 0.368262 0)
(0.00970224 0.460046 0)
(-0.00124241 0.589833 0)
(0.000427683 0.731259 0)
(0.0456607 0.0335481 0)
(0.0420867 0.0716387 0)
(0.0343874 0.112725 0)
(0.0278225 0.16681 0)
(0.0230297 0.23185 0)
(0.019438 0.301446 0)
(0.0128462 0.375499 0)
(0.00896289 0.468191 0)
(-0.000917442 0.596011 0)
(0.000266372 0.731372 0)
(0.0403615 0.0339392 0)
(0.038902 0.0761269 0)
(0.0332443 0.118927 0)
(0.0272867 0.171967 0)
(0.0224305 0.235999 0)
(0.0186105 0.305567 0)
(0.0123029 0.380185 0)
(0.00828084 0.47304 0)
(-0.00082709 0.599378 0)
(6.34284e-05 0.730726 0)
(0.0347816 0.0328409 0)
(0.0350088 0.0788146 0)
(0.0310953 0.123972 0)
(0.026046 0.177059 0)
(0.0215487 0.240829 0)
(0.0178104 0.311059 0)
(0.0119057 0.387128 0)
(0.00783786 0.480922 0)
(-0.000474882 0.605245 0)
(-8.73e-08 0.730757 0)
(0.0291462 0.0304393 0)
(0.0309375 0.0799724 0)
(0.0287121 0.127844 0)
(0.0246386 0.181269 0)
(0.0205451 0.24436 0)
(0.0169564 0.314238 0)
(0.0114201 0.390467 0)
(0.00735568 0.484194 0)
(-0.000436329 0.607398 0)
(-0.000134399 0.730076 0)
(0.0234514 0.0265804 0)
(0.0266284 0.0791701 0)
(0.0258162 0.130017 0)
(0.0228908 0.185162 0)
(0.0194819 0.249126 0)
(0.0161947 0.320081 0)
(0.0111029 0.397824 0)
(0.00707465 0.492432 0)
(-2.999e-05 0.613386 0)
(-0.000115527 0.730162 0)
(0.0186128 0.0231066 0)
(0.0236083 0.0786369 0)
(0.0240496 0.131914 0)
(0.0217564 0.187571 0)
(0.0186654 0.251179 0)
(0.0155394 0.321844 0)
(0.0107058 0.399643 0)
(0.00675119 0.494083 0)
(-3.72916e-05 0.614438 0)
(-0.000191911 0.729695 0)
(0.0125082 0.0120033 0)
(0.0183505 0.0713764 0)
(0.0212359 0.130396 0)
(0.0206297 0.19029 0)
(0.018273 0.25612 0)
(0.0153316 0.32848 0)
(0.0107615 0.408004 0)
(0.00669592 0.503365 0)
(0.000501985 0.621027 0)
(-9.8868e-05 0.729931 0)
(0.0582822 0.00353064 2.34758e-21)
(0.0566847 0.00946381 -2.30711e-21)
(0.0514027 0.00998906 2.00849e-22)
(0.0454217 0.00920363 0)
(0.0392165 0.00715896 0)
(0.0328072 0.0041494 6.21443e-23)
(0.0264207 0.000286091 -8.25711e-23)
(0.0201024 -0.00464934 8.11386e-23)
(0.0143025 -0.00911474 -1.02272e-23)
(0.00760599 -0.0188991 1.00465e-23)
(0.0592602 -0.000635921 -3.09969e-21)
(0.0559633 0.00181583 0)
(0.05 0.000769537 1.135e-21)
(0.0438266 -0.0012077 -2.26249e-21)
(0.0375631 -0.00415967 1.1291e-21)
(0.0311379 -0.00782467 -6.07352e-23)
(0.024736 -0.0121631 5.9373e-23)
(0.0184473 -0.0174008 2.44062e-23)
(0.0124553 -0.0221766 -1.77332e-23)
(0.00618716 -0.0311119 -2.00523e-23)
(0.0594478 -0.00486034 3.49596e-21)
(0.0547998 -0.00547538 -1.62976e-21)
(0.0484639 -0.00809768 1.6141e-21)
(0.0421733 -0.0113139 -9.03537e-22)
(0.0358659 -0.0152019 7.07669e-22)
(0.0294225 -0.0195257 0)
(0.0230128 -0.0243021 -5.95087e-23)
(0.0167688 -0.0297217 1.277e-24)
(0.0107133 -0.034616 1.97866e-24)
(0.0049606 -0.0424296 2.90738e-23)
(0.0589381 -0.0097011 -5.32434e-22)
(0.0532075 -0.012926 0)
(0.0467345 -0.0169217 0)
(0.0404118 -0.0212467 0)
(0.0341105 -0.0259622 4.68698e-22)
(0.0276826 -0.0308461 -2.89643e-22)
(0.0212971 -0.0359545 2.06859e-23)
(0.0151181 -0.0414107 -8.5515e-25)
(0.00912909 -0.0462182 4.83855e-24)
(0.00388295 -0.0528136 1.26969e-23)
(0.0576772 -0.0152611 -3.626e-22)
(0.051122 -0.020635 -1.42668e-21)
(0.0446989 -0.0257715 -5.83329e-22)
(0.0384249 -0.0310043 5.82915e-22)
(0.0321974 -0.0363804 -1.76818e-22)
(0.0258533 -0.0416761 0)
(0.0195596 -0.0469735 -6.03162e-23)
(0.0135098 -0.0523153 3.5285e-23)
(0.00771549 -0.0568554 -1.36922e-23)
(0.00298948 -0.0622523 -1.77276e-23)
(0.0557517 -0.0214611 -3.94403e-21)
(0.0486471 -0.0285146 6.51985e-22)
(0.0424201 -0.0345796 1.63962e-22)
(0.036257 -0.0405009 5.74531e-22)
(0.030167 -0.0463575 0)
(0.0239668 -0.0519008 0)
(0.0178305 -0.0572371 0)
(0.0119798 -0.06233 3.03787e-23)
(0.00648151 -0.0664704 0)
(0.00227675 -0.0707623 0)
(0.0532278 -0.0281629 0)
(0.0458877 -0.0364046 1.13232e-21)
(0.0399679 -0.0432222 -7.3029e-22)
(0.0339751 -0.049617 -4.24319e-22)
(0.0280766 -0.0557821 4.26499e-22)
(0.0220743 -0.061416 9.38902e-23)
(0.0161532 -0.0666555 -1.1579e-22)
(0.0105627 -0.0713966 -1.29401e-22)
(0.00542805 -0.0750612 1.04904e-23)
(0.00172094 -0.0783844 4.26857e-24)
(0.0501975 -0.0351468 0)
(0.0429338 -0.0441439 -4.02311e-22)
(0.0374024 -0.0515624 -1.63505e-22)
(0.0316347 -0.0582328 0)
(0.0259755 -0.0645553 5.97818e-23)
(0.0202203 -0.0701444 -2.16858e-22)
(0.014563 -0.0751788 1.01507e-22)
(0.00928136 -0.0795038 7.27059e-24)
(0.004546 -0.0826683 -9.2953e-24)
(0.00129531 -0.0851781 -3.48293e-24)
(0.0467852 -0.0422279 5.32905e-22)
(0.039861 -0.0515904 3.65638e-22)
(0.0347771 -0.0594789 -1.22908e-22)
(0.0292868 -0.0662517 6.43863e-23)
(0.0239068 -0.0726066 9.24501e-23)
(0.0184416 -0.0780448 9.67532e-23)
(0.0130853 -0.0827986 -2.1484e-23)
(0.00814549 -0.086682 -1.21161e-23)
(0.0038186 -0.0893634 9.32571e-24)
(0.000974369 -0.0912148 9.0645e-25)
(0.0431097 -0.0492548 -1.12522e-22)
(0.0367356 -0.0586381 1.13548e-22)
(0.0321408 -0.0668824 -8.27348e-23)
(0.0269779 -0.0736128 -6.42888e-23)
(0.0219072 -0.0799021 4.13663e-23)
(0.0167666 -0.0851157 -7.51364e-23)
(0.0117353 -0.0895457 3.02867e-23)
(0.00715438 -0.0929945 3.25327e-24)
(0.00322483 -0.095237 0)
(0.000734712 -0.0965728 -9.08401e-25)
(0.039302 -0.0561139 1.15127e-22)
(0.03363 -0.0652251 -1.16137e-22)
(0.0295458 -0.0737225 -8.69262e-23)
(0.024755 -0.0802969 -6.83178e-23)
(0.0200098 -0.0864459 -4.33756e-23)
(0.0152172 -0.0913921 6.38345e-24)
(0.0105205 -0.0954821 1.5542e-23)
(0.00630023 -0.0985277 2.51342e-23)
(0.00274286 -0.10039 0)
(0.000556235 -0.101333 -2.26208e-24)
(0.035496 -0.0627396 0)
(0.0306218 -0.0713327 -3.90522e-22)
(0.0270445 -0.0799858 6.60095e-22)
(0.0226624 -0.086323 6.84186e-23)
(0.0182422 -0.0922751 1.08417e-22)
(0.0138084 -0.0969383 1.16508e-22)
(0.00944212 -0.100692 -2.51974e-23)
(0.00557109 -0.103381 -1.53651e-23)
(0.00235242 -0.104924 1.82497e-23)
(0.00042298 -0.105578 2.25675e-24)
(0.0317976 -0.0691115 0)
(0.0277732 -0.0769826 -4.49882e-22)
(0.0246726 -0.0856901 -1.80021e-22)
(0.0207289 -0.091743 0)
(0.01662 -0.0974529 -3.003e-22)
(0.0125446 -0.10184 1.13906e-22)
(0.00849449 -0.105274 7.05972e-23)
(0.00495219 -0.107658 1.2032e-22)
(0.00203558 -0.108942 -1.81901e-23)
(0.000322685 -0.109388 1.31447e-23)
(0.0282807 -0.0752419 0)
(0.0251266 -0.0822342 4.53613e-22)
(0.022449 -0.0908785 0)
(0.018967 -0.0966348 5.32117e-22)
(0.0151473 -0.102061 -5.34876e-22)
(0.0114208 -0.106194 -1.45693e-22)
(0.00766706 -0.10933 3.02835e-23)
(0.00442758 -0.111463 -1.24586e-22)
(0.00177702 -0.112538 -2.29806e-23)
(0.000245967 -0.11284 -2.01231e-23)
(0.0249965 -0.0811617 4.62624e-21)
(0.0227152 -0.0871803 -1.7363e-21)
(0.0203867 -0.0956122 -1.65196e-22)
(0.01738 -0.101094 -7.09581e-22)
(0.0138236 -0.106195 0)
(0.0104277 -0.110105 -1.54466e-22)
(0.00694782 -0.112965 4.94957e-23)
(0.00398229 -0.114896 1.85795e-22)
(0.00156455 -0.115804 7.71971e-24)
(0.000185971 -0.116012 -7.71604e-24)
(0.0219717 -0.0869023 3.87345e-22)
(0.0205657 -0.0919412 2.70385e-21)
(0.0184996 -0.0999641 7.40118e-22)
(0.0159666 -0.105223 -7.3966e-22)
(0.0126481 -0.109952 -2.60586e-22)
(0.00955526 -0.113675 0)
(0.00632585 -0.116279 -2.51764e-22)
(0.00360378 -0.11805 1.34885e-22)
(0.00138908 -0.118823 6.94226e-23)
(0.000137948 -0.118975 1.74746e-23)
(0.0192202 -0.0924725 -6.45931e-22)
(0.0187109 -0.0966592 0)
(0.016815 -0.104015 0)
(0.0147287 -0.109126 0)
(0.0116247 -0.113433 -2.07435e-22)
(0.00879691 -0.117002 4.67492e-22)
(0.00579367 -0.119365 2.5827e-22)
(0.00328304 -0.121013 -3.07738e-22)
(0.00124456 -0.121676 1.78215e-23)
(9.87164e-05 -0.1218 -3.49523e-23)
(0.0167342 -0.0978369 -1.48027e-21)
(0.0171604 -0.101487 2.00541e-21)
(0.015354 -0.10785 -1.98647e-21)
(0.0136554 -0.1129 1.28873e-21)
(0.0107507 -0.116735 -1.56383e-21)
(0.00814206 -0.120176 0)
(0.00534238 -0.12231 -1.54886e-22)
(0.00301158 -0.123862 -6.05083e-24)
(0.00112613 -0.124435 -5.82892e-23)
(6.58078e-05 -0.124556 -1.94932e-23)
(0.0143117 -0.102871 -6.98989e-22)
(0.0157078 -0.10657 0)
(0.014017 -0.111559 -1.96202e-21)
(0.0126432 -0.116633 3.05613e-21)
(0.00996158 -0.11995 -1.05205e-21)
(0.0075408 -0.123283 -1.1373e-22)
(0.00494015 -0.125193 1.54532e-22)
(0.00276957 -0.126671 1.94861e-23)
(0.00102508 -0.127169 1.19531e-22)
(3.82579e-05 -0.127307 3.87932e-23)
(0.0119608 -0.107246 -2.82028e-21)
(0.0142695 -0.11204 2.75873e-21)
(0.0128171 -0.115268 2.52538e-22)
(0.0116855 -0.120416 0)
(0.00924832 -0.123177 0)
(0.00699082 -0.126408 1.17067e-22)
(0.00458359 -0.128095 2.85855e-22)
(0.00255709 -0.129512 -2.80549e-22)
(0.00094312 -0.129945 -2.13051e-23)
(2.67076e-05 -0.130121 2.0859e-23)
(0.0113494 -0.114321 0)
(0.0143823 -0.125154 0)
(0.0125173 -0.123996 0)
(0.0111809 -0.129527 0)
(0.00878128 -0.131054 0)
(0.00653228 -0.134134 0)
(0.00427366 -0.135316 0)
(0.00237892 -0.136608 0)
(0.000909005 -0.136867 0)
(5.85475e-05 -0.137091 0)
(0.0114047 -0.136147 0)
(0.0105115 -0.148389 0)
(0.00883914 -0.143989 0)
(0.00755253 -0.149602 0)
(0.00580587 -0.149181 0)
(0.00431155 -0.151949 0)
(0.00278169 -0.152119 0)
(0.00157617 -0.153206 0)
(0.000607293 -0.153076 0)
(6.14447e-05 -0.153343 0)
(0.0119939 -0.163531 0)
(0.00985773 -0.176853 0)
(0.00803132 -0.169975 0)
(0.006423 -0.175977 0)
(0.00485558 -0.173887 0)
(0.00350394 -0.176727 0)
(0.00226583 -0.176008 0)
(0.00130618 -0.17714 0)
(0.000540709 -0.176622 0)
(7.34956e-05 -0.177001 0)
(0.0122565 -0.197646 0)
(0.00925938 -0.211976 0)
(0.00745218 -0.203447 0)
(0.0055766 -0.210151 0)
(0.00422657 -0.206719 0)
(0.00293427 -0.209967 0)
(0.00194904 -0.208457 0)
(0.0011242 -0.209847 0)
(0.000510135 -0.20892 0)
(7.40681e-05 -0.209505 0)
(0.0121642 -0.238739 0)
(0.00874764 -0.253236 0)
(0.00701673 -0.244277 0)
(0.00494437 -0.251548 0)
(0.00379668 -0.247346 0)
(0.00249947 -0.251098 0)
(0.00172971 -0.249007 0)
(0.000955221 -0.250764 0)
(0.000476473 -0.249471 0)
(5.38204e-05 -0.25034 0)
(0.0114238 -0.284445 0)
(0.00800567 -0.297603 0)
(0.00642758 -0.2898 0)
(0.00432189 -0.296927 0)
(0.00336665 -0.29284 0)
(0.00208173 -0.296781 0)
(0.00149177 -0.294524 0)
(0.00073531 -0.296518 0)
(0.00039239 -0.295038 0)
(7.60008e-06 -0.296144 0)
(0.00986155 -0.329666 0)
(0.00682719 -0.340132 0)
(0.00547936 -0.334831 0)
(0.00356897 -0.340875 0)
(0.00279781 -0.337812 0)
(0.00161898 -0.341334 0)
(0.00116929 -0.339435 0)
(0.000463894 -0.3413 0)
(0.000251427 -0.339939 0)
(-4.62769e-05 -0.341064 0)
(0.00755475 -0.368296 0)
(0.00519209 -0.375597 0)
(0.00415644 -0.373284 0)
(0.00265155 -0.377663 0)
(0.00207361 -0.376106 0)
(0.00112403 -0.378701 0)
(0.00079227 -0.377524 0)
(0.000213377 -0.378894 0)
(0.000107715 -0.377914 0)
(-7.67294e-05 -0.378784 0)
(0.00472167 -0.395671 0)
(0.00322405 -0.400361 0)
(0.00257695 -0.400539 0)
(0.00162166 -0.403347 0)
(0.00126291 -0.403162 0)
(0.000646736 -0.40476 0)
(0.000436967 -0.40432 0)
(5.55196e-05 -0.40509 0)
(1.74267e-05 -0.404551 0)
(-6.86463e-05 -0.40504 0)
(0.00160554 -0.409621 0)
(0.00108668 -0.412905 0)
(0.000872131 -0.414443 0)
(0.000542979 -0.416338 0)
(0.000423769 -0.416935 0)
(0.000208828 -0.417917 0)
(0.000137049 -0.417922 0)
(2.45525e-06 -0.418306 0)
(-4.72713e-06 -0.418058 0)
(-2.74194e-05 -0.418287 0)
(0.0115038 -0.122843 3.25211e-21)
(0.0127764 -0.146211 -3.1899e-21)
(0.0138807 -0.17509 4.0853e-22)
(0.014302 -0.209888 0)
(0.014151 -0.250338 0)
(0.0131836 -0.293826 4.73369e-22)
(0.0113254 -0.335668 -2.03502e-21)
(0.00868001 -0.370724 2.00595e-21)
(0.00544586 -0.395279 5.44626e-22)
(0.00185268 -0.407724 -5.36025e-22)
(0.0118191 -0.127416 -3.85981e-21)
(0.0135598 -0.150771 0)
(0.0147843 -0.179717 2.79411e-21)
(0.0152298 -0.214401 -6.45095e-21)
(0.0150255 -0.254359 4.14244e-21)
(0.0139513 -0.296891 -4.40428e-22)
(0.0119674 -0.337466 9.8203e-22)
(0.00917834 -0.37126 2.07413e-21)
(0.00576917 -0.394856 5.83682e-22)
(0.00196002 -0.406796 5.6674e-22)
(0.0123723 -0.132141 4.49715e-21)
(0.0146176 -0.155541 -3.07687e-21)
(0.0158924 -0.184376 3.04767e-21)
(0.016325 -0.21877 -3.41339e-21)
(0.0160319 -0.258099 2.52415e-21)
(0.0148187 -0.299597 0)
(0.0126748 -0.338903 -9.84404e-22)
(0.00970795 -0.3715 4.99114e-23)
(0.00609937 -0.394222 -1.08878e-21)
(0.00206345 -0.405715 -1.11181e-21)
(0.0132075 -0.1364 -7.25268e-22)
(0.0158979 -0.159912 0)
(0.0171827 -0.188675 0)
(0.0175803 -0.222804 0)
(0.017176 -0.26153 2.81231e-21)
(0.015804 -0.302038 -1.8817e-21)
(0.0134731 -0.340136 -1.38114e-23)
(0.0102949 -0.371585 -1.16255e-21)
(0.00645707 -0.393462 -5.96938e-22)
(0.0021725 -0.40451 -6.39329e-22)
(0.0143905 -0.140294 6.08331e-23)
(0.0173913 -0.163754 -2.18029e-21)
(0.018641 -0.192399 -1.66009e-21)
(0.0189813 -0.226269 1.65903e-21)
(0.018448 -0.26444 -9.179e-22)
(0.0169054 -0.304056 0)
(0.0143704 -0.341068 -1.08164e-21)
(0.0109558 -0.371478 2.37095e-21)
(0.00686012 -0.392574 -1.21352e-21)
(0.00229661 -0.403204 1.2508e-21)
(0.0159544 -0.143875 -5.78134e-21)
(0.0191184 -0.167112 6.28088e-22)
(0.020284 -0.195528 -1.22499e-22)
(0.0205354 -0.229095 1.70286e-21)
(0.0198506 -0.266727 0)
(0.0181222 -0.305536 0)
(0.0153666 -0.341597 0)
(0.011694 -0.371107 1.27046e-21)
(0.00731395 -0.391528 0)
(0.00243987 -0.401795 0)
(0.01791 -0.147053 0)
(0.021093 -0.169956 2.37688e-21)
(0.0221343 -0.198055 -1.60692e-21)
(0.02226 -0.231281 -1.91521e-21)
(0.0213979 -0.268382 1.92517e-21)
(0.0194627 -0.306459 1.15478e-21)
(0.0164646 -0.341692 -1.14481e-21)
(0.0125094 -0.37044 -4.53812e-21)
(0.00781784 -0.390301 3.23062e-22)
(0.00260302 -0.400272 -1.10716e-21)
(0.0202671 -0.149721 0)
(0.0233212 -0.172216 -7.71768e-22)
(0.0242061 -0.199942 -4.3557e-22)
(0.0241688 -0.232815 0)
(0.0231044 -0.269413 5.62489e-22)
(0.0209388 -0.306837 -1.69515e-21)
(0.0176718 -0.341363 1.89448e-21)
(0.0134049 -0.369478 6.77009e-22)
(0.00837163 -0.388885 -7.40957e-22)
(0.00278639 -0.398625 1.46879e-21)
(0.0230371 -0.151796 6.91454e-22)
(0.0258081 -0.173835 8.35952e-22)
(0.0265093 -0.201144 -1.84635e-22)
(0.0262702 -0.233673 2.49768e-22)
(0.0249808 -0.269814 5.33395e-22)
(0.0225605 -0.306682 8.98721e-22)
(0.0189965 -0.340622 -3.38862e-22)
(0.0143859 -0.368227 -3.66679e-22)
(0.0089774 -0.38728 7.43397e-22)
(0.00299099 -0.396847 4.03046e-22)
(0.02623 -0.153214 -1.92404e-22)
(0.0285591 -0.174787 1.94246e-22)
(0.0290521 -0.201632 -2.23923e-22)
(0.0285705 -0.233838 -2.49438e-22)
(0.027035 -0.269576 2.97998e-22)
(0.0243353 -0.305992 -6.09028e-22)
(0.0204461 -0.339474 5.18663e-22)
(0.0154585 -0.366693 1.85795e-22)
(0.00963876 -0.385485 0)
(0.00321832 -0.394935 -4.0395e-22)
(0.029853 -0.153927 1.96794e-22)
(0.0315769 -0.175063 -1.98736e-22)
(0.0318422 -0.201396 -2.3989e-22)
(0.031075 -0.23331 -2.69342e-22)
(0.0292739 -0.2687 -3.1097e-22)
(0.0262696 -0.304771 -2.2491e-23)
(0.0220266 -0.337922 1.82626e-22)
(0.0166277 -0.364877 5.9083e-22)
(0.0103587 -0.383501 0)
(0.00346953 -0.392886 -4.41033e-22)
(0.0339113 -0.153922 0)
(0.0348616 -0.174661 -9.15956e-22)
(0.0348841 -0.200445 1.66144e-21)
(0.033787 -0.232097 2.6979e-22)
(0.0317039 -0.267192 6.29571e-22)
(0.0283693 -0.30302 1.03831e-21)
(0.023745 -0.335965 -3.70339e-22)
(0.0178999 -0.362775 -4.00924e-22)
(0.0111415 -0.381323 8.87756e-22)
(0.00374571 -0.390694 4.40009e-22)
(0.038408 -0.153232 0)
(0.0384135 -0.173575 -8.99994e-22)
(0.0381775 -0.198817 -4.99747e-22)
(0.0367092 -0.230219 0)
(0.0343291 -0.265078 -1.98634e-21)
(0.0306384 -0.300763 6.62776e-22)
(0.0256044 -0.333619 7.94789e-22)
(0.019277 -0.360396 2.57198e-21)
(0.011988 -0.378944 -8.84872e-22)
(0.00404664 -0.388349 1.91126e-21)
(0.0433402 -0.151976 0)
(0.0422338 -0.171807 9.07637e-22)
(0.041713 -0.196555 0)
(0.0398451 -0.227687 2.52693e-21)
(0.0371531 -0.262371 -2.53991e-21)
(0.0330835 -0.297996 -1.56697e-21)
(0.0276136 -0.330876 -3.72819e-23)
(0.0207703 -0.357726 -2.64771e-21)
(0.0129053 -0.376355 -4.4135e-22)
(0.0043731 -0.385839 -2.37733e-21)
(0.0486486 -0.150185 6.51389e-21)
(0.0463485 -0.169363 -2.50031e-21)
(0.0454798 -0.193683 2.83249e-22)
(0.0431977 -0.224525 -2.34378e-21)
(0.0401743 -0.259092 0)
(0.0357074 -0.294744 -1.63436e-21)
(0.0297737 -0.327758 -1.41027e-22)
(0.0223792 -0.354789 3.59582e-21)
(0.0138934 -0.373577 4.9374e-22)
(0.00472411 -0.383175 -4.95659e-22)
(0.0543081 -0.147831 -6.92895e-22)
(0.0507524 -0.166326 4.68796e-21)
(0.0494593 -0.190272 2.43736e-21)
(0.0467644 -0.220801 -2.43573e-21)
(0.043392 -0.255279 -1.48221e-21)
(0.0385138 -0.291019 0)
(0.0320918 -0.324255 -3.67028e-21)
(0.0241128 -0.351566 1.84088e-21)
(0.0149605 -0.370595 1.96943e-21)
(0.00510221 -0.380344 2.1166e-21)
(0.0602519 -0.145009 -8.9536e-22)
(0.0554347 -0.162765 0)
(0.0536335 -0.186379 0)
(0.0505388 -0.216587 0)
(0.0468024 -0.251015 -1.71988e-21)
(0.0414969 -0.286919 3.19654e-21)
(0.0345564 -0.320469 3.7394e-21)
(0.0259548 -0.348133 -5.89546e-21)
(0.016093 -0.367448 1.05676e-21)
(0.00549997 -0.377365 -3.14368e-21)
(0.0663713 -0.14186 -1.32237e-21)
(0.0603866 -0.158721 4.63852e-21)
(0.057981 -0.182028 -4.59432e-21)
(0.054511 -0.211852 5.97834e-21)
(0.0504102 -0.24619 -7.5238e-21)
(0.0446813 -0.282259 0)
(0.0372125 -0.31619 -1.95503e-21)
(0.0279596 -0.344325 -8.1459e-23)
(0.0173351 -0.364039 -2.19724e-21)
(0.00593385 -0.374172 -2.24014e-21)
(0.0725226 -0.138619 -9.4977e-22)
(0.0656046 -0.154398 0)
(0.0624639 -0.177507 -6.16825e-21)
(0.0586253 -0.207052 1.16694e-20)
(0.0541399 -0.241439 -4.52769e-21)
(0.0479582 -0.277777 -9.22309e-22)
(0.0399188 -0.312101 1.95076e-21)
(0.0299804 -0.340616 -1.00402e-22)
(0.0185773 -0.360614 3.20608e-21)
(0.00635738 -0.370897 3.31517e-21)
(0.0788755 -0.134076 -4.30144e-21)
(0.0717153 -0.148528 4.21774e-21)
(0.067542 -0.171242 6.57829e-22)
(0.0632559 -0.200306 0)
(0.0583645 -0.234617 0)
(0.0517495 -0.27134 9.11426e-22)
(0.0431377 -0.306449 4.19785e-21)
(0.0324488 -0.33588 -4.10953e-21)
(0.0201248 -0.35661 -1.12773e-21)
(0.00688934 -0.367212 1.10898e-21)
(0.0890343 -0.1339 0)
(0.0855036 -0.145978 0)
(0.0785646 -0.169187 0)
(0.0730207 -0.197774 0)
(0.066855 -0.231286 0)
(0.0588812 -0.266804 0)
(0.0488161 -0.300533 0)
(0.0365846 -0.328726 0)
(0.0226376 -0.348705 0)
(0.00765531 -0.359151 0)
(0.106569 -0.122583 0)
(0.108498 -0.138997 0)
(0.0980048 -0.164561 0)
(0.0914128 -0.192631 0)
(0.0829279 -0.224894 0)
(0.0724721 -0.258264 0)
(0.0597005 -0.28947 0)
(0.0445493 -0.315154 0)
(0.027534 -0.332831 0)
(0.00947615 -0.341366 0)
(0.128608 -0.111708 0)
(0.132932 -0.130384 0)
(0.119086 -0.156174 0)
(0.111833 -0.182883 0)
(0.100415 -0.213355 0)
(0.0870493 -0.244028 0)
(0.0710561 -0.272616 0)
(0.0526056 -0.29642 0)
(0.0322793 -0.313547 0)
(0.0107127 -0.323021 0)
(0.15589 -0.103961 0)
(0.160914 -0.123105 0)
(0.143409 -0.147825 0)
(0.135491 -0.173096 0)
(0.120389 -0.201792 0)
(0.10389 -0.229701 0)
(0.0842043 -0.255628 0)
(0.0620066 -0.276796 0)
(0.0379994 -0.291115 0)
(0.0131977 -0.29725 0)
(0.18786 -0.0946187 0)
(0.191286 -0.112212 0)
(0.169917 -0.134492 0)
(0.160533 -0.157198 0)
(0.140408 -0.182575 0)
(0.120145 -0.206602 0)
(0.0959315 -0.229516 0)
(0.069719 -0.248861 0)
(0.0420764 -0.263742 0)
(0.0133136 -0.273773 0)
(0.224102 -0.0870644 0)
(0.22502 -0.102491 0)
(0.2 -0.122949 0)
(0.188541 -0.143029 0)
(0.162722 -0.165341 0)
(0.139145 -0.186349 0)
(0.110211 -0.207131 0)
(0.0798044 -0.224213 0)
(0.0482638 -0.23594 0)
(0.0177473 -0.238389 0)
(0.261924 -0.072311 0)
(0.256609 -0.084265 0)
(0.228729 -0.100963 0)
(0.212953 -0.116171 0)
(0.180815 -0.133626 0)
(0.153203 -0.149997 0)
(0.117496 -0.166722 0)
(0.0822859 -0.181455 0)
(0.0469014 -0.196417 0)
(0.0110186 -0.214705 0)
(0.298238 -0.0631858 0)
(0.288824 -0.0711756 0)
(0.260065 -0.0850955 0)
(0.240018 -0.0965711 0)
(0.205116 -0.11197 0)
(0.174602 -0.126291 0)
(0.134876 -0.142755 0)
(0.0963153 -0.158258 0)
(0.0564576 -0.173495 0)
(0.0290288 -0.168742 0)
(0.33629 -0.0353829 0)
(0.323796 -0.0388752 0)
(0.281562 -0.0472366 0)
(0.255361 -0.0527132 0)
(0.208078 -0.0617952 0)
(0.168894 -0.0688291 0)
(0.115265 -0.0777651 0)
(0.0638201 -0.0865369 0)
(0.0154875 -0.105172 0)
(-0.041572 -0.156846 0)
(0.608629 -0.0186321 0)
(0.58911 -0.0215826 0)
(0.549995 -0.0258803 0)
(0.519339 -0.0300541 0)
(0.471079 -0.0361475 0)
(0.426872 -0.0430465 0)
(0.364825 -0.0534051 0)
(0.297412 -0.0690635 0)
(0.208716 -0.0986037 0)
(0.150416 -0.157227 0)
(0.106137 -0.120605 4.40377e-21)
(0.125758 -0.108981 -4.33642e-21)
(0.148006 -0.0983926 7.22307e-22)
(0.17481 -0.0908296 0)
(0.206764 -0.0821244 0)
(0.241605 -0.0753577 1.12064e-21)
(0.278974 -0.0623203 -5.36098e-21)
(0.313496 -0.0551817 5.28453e-21)
(0.362567 -0.030648 1.5087e-21)
(0.629371 -0.0163401 -1.53264e-21)
(0.112086 -0.114805 -4.07406e-21)
(0.131556 -0.103084 0)
(0.15347 -0.0928759 5.20283e-21)
(0.179976 -0.085525 -1.26185e-20)
(0.211935 -0.0771439 8.5374e-21)
(0.246727 -0.0707568 -1.05167e-21)
(0.284123 -0.0583588 2.28287e-21)
(0.318867 -0.0520223 5.17899e-21)
(0.372291 -0.0288048 1.39553e-21)
(0.637539 -0.015366 1.42392e-21)
(0.117279 -0.108418 4.69568e-21)
(0.136529 -0.096913 -4.82624e-21)
(0.158006 -0.0872518 4.78054e-21)
(0.184242 -0.0801875 -6.71609e-21)
(0.215987 -0.0722255 4.86353e-21)
(0.250875 -0.0662951 0)
(0.288203 -0.0545924 -2.28834e-21)
(0.323715 -0.0490556 -5.56036e-23)
(0.380903 -0.0271297 -2.64631e-21)
(0.645314 -0.0144299 -2.8259e-21)
(0.122287 -0.101595 -8.06159e-22)
(0.141679 -0.0905772 0)
(0.162803 -0.0815667 0)
(0.188879 -0.0748277 0)
(0.220319 -0.067349 5.53017e-21)
(0.25522 -0.0619435 -3.77139e-21)
(0.292319 -0.0509936 -1.58904e-22)
(0.328613 -0.0462135 -2.63426e-21)
(0.38893 -0.0256112 -1.3366e-21)
(0.652864 -0.013575 -1.37844e-21)
(0.126782 -0.094443 8.42081e-22)
(0.146508 -0.0841648 -2.56814e-21)
(0.167385 -0.0758712 -2.72931e-21)
(0.193355 -0.0695022 2.72761e-21)
(0.224605 -0.062541 -1.73373e-21)
(0.25954 -0.057691 0)
(0.296351 -0.0475405 -2.21854e-21)
(0.333506 -0.0434539 4.98375e-21)
(0.396492 -0.0242155 -2.50103e-21)
(0.660102 -0.0128077 2.74125e-21)
(0.130602 -0.0869881 -6.05173e-21)
(0.150723 -0.0776981 2.67084e-22)
(0.171412 -0.0701743 -4.50966e-22)
(0.197254 -0.0642374 2.66326e-21)
(0.228385 -0.057838 0)
(0.263417 -0.0535442 0)
(0.300005 -0.0442414 0)
(0.33806 -0.0407867 2.37214e-21)
(0.40349 -0.0229196 0)
(0.666924 -0.0121306 0)
(0.133671 -0.0792542 0)
(0.154276 -0.0711734 3.09031e-21)
(0.174842 -0.0644637 -2.14912e-21)
(0.200521 -0.0590267 -3.0571e-21)
(0.231538 -0.0532356 3.07298e-21)
(0.266659 -0.049509 2.00243e-21)
(0.303183 -0.0410839 -1.88294e-21)
(0.342046 -0.0382242 -8.15604e-21)
(0.409826 -0.0217156 5.76205e-22)
(0.673238 -0.0115291 -1.94115e-21)
(0.135891 -0.0712773 0)
(0.157133 -0.0645865 -9.44327e-22)