/*--------------------------------*- C++ -*----------------------------------*\
  =========                 |
  \\      /  F ield         | OpenFOAM: The Open Source CFD Toolbox
   \\    /   O peration     | Website:  https://openfoam.org
    \\  /    A nd           | Version:  7
     \\/     M anipulation  |
\*---------------------------------------------------------------------------*/
FoamFile
{
    version     2.0;
    format      ascii;
    class       surfaceScalarField;
    location    "3.7";
    object      phi;
}
// * * * * * * * * * * * * * * * * * * * * * * * * * * * * * * * * * * * * * //

dimensions      [0 3 -1 0 0 0 0];

internalField   nonuniform List<scalar> 
35640
(
-4.6249e-05
0.000850588
-0.000804339
-0.00015041
0.00229938
-0.00219521
-0.00029478
0.0035816
-0.00343723
-0.000464739
0.00467069
-0.00450073
-0.000648242
0.00558135
-0.00539785
-0.000835123
0.00633915
-0.00615226
-0.00101695
0.00696815
-0.00678632
-0.00118687
0.00748707
-0.00731715
-0.0013393
0.0079088
-0.00775637
-0.00146977
0.00824177
-0.00811129
-0.00157476
0.00849121
-0.00838622
-0.00165142
0.00866084
-0.00858418
-0.00169743
0.00875394
-0.00870793
-0.00171092
0.00877414
-0.00876065
-0.00169035
0.00872572
-0.00874628
-0.00163449
0.00861381
-0.00866967
-0.00154236
0.00844432
-0.00853645
-0.00141325
0.00822379
-0.0083529
-0.00124674
0.00795932
-0.00812584
-0.00104271
0.00765833
-0.00786236
-0.000801405
0.00732839
-0.00756971
-0.000523418
0.0069771
-0.00725509
-0.000209784
0.00661194
-0.00692557
0.00013799
0.00624021
-0.00658798
0.000517848
0.00586901
-0.00624887
0.000927086
0.00550525
-0.00591449
0.00136217
0.00515578
-0.00559087
0.00181839
0.0048274
-0.00528363
0.00228958
0.00453012
-0.0050013
0.00427712
0.00276718
-0.00475472
-4.29187e-05
0.000893503
-0.000139889
0.00239635
-0.000275076
0.00371679
-0.00043514
0.00483075
-0.000608844
0.00575506
-0.000786526
0.00651683
-0.000959903
0.00714153
-0.00112211
0.00764928
-0.00126758
0.00805427
-0.0013918
0.00836598
-0.00149113
0.00859054
-0.00156259
0.00873231
-0.00160376
0.00879512
-0.00161263
0.008783
-0.00158748
0.00870057
-0.0015269
0.00855323
-0.00142974
0.00834717
-0.00129516
0.00808921
-0.00112259
0.00778675
-0.000911779
0.00744752
-0.000662866
0.00707948
-0.000376417
0.00669065
-5.34348e-05
0.00628896
0.000304599
0.00588217
0.000695667
0.00547794
0.00111708
0.00508383
0.00156538
0.00470749
0.00203599
0.0043568
0.00252269
0.00404342
0.00378321
0.0030166
-3.89046e-05
0.000932407
-0.000127171
0.00248461
-0.000251133
0.00384075
-0.000398858
0.00497847
-0.000560054
0.00591625
-0.000725564
0.00668234
-0.00088737
0.00730333
-0.0010387
0.00780061
-0.00117397
0.00818954
-0.00128857
0.00848059
-0.00137879
0.00868076
-0.00144158
0.0087951
-0.00147438
0.00882792
-0.00147506
0.00878367
-0.00144179
0.0086673
-0.00137303
0.00848448
-0.00126753
0.00824166
-0.00112431
0.00794599
-0.000942712
0.00760515
-0.000722462
0.00722727
-0.000463663
0.00682068
-0.000166857
0.00639385
0.000166949
0.00595515
0.000536257
0.00551286
0.000939049
0.00507515
0.00137273
0.00465014
0.00183397
0.00424625
0.00231836
0.00387241
0.00281986
0.00354192
0.0032736
0.00332947
-3.42696e-05
0.000966676
-0.000112618
0.00256296
-0.000223456
0.00395159
-0.000356511
0.00511153
-0.000502484
0.00606223
-0.000652862
0.00683272
-0.000799964
0.00745043
-0.000937082
0.00793773
-0.00105866
0.00831111
-0.00116009
0.00858202
-0.00123755
0.00875822
-0.00128791
0.00884545
-0.00130854
0.00884855
-0.00129722
0.00877236
-0.00125205
0.00862212
-0.0011714
0.00840383
-0.00105396
0.00812422
-0.000898702
0.00779074
-0.000704964
0.00741142
-0.000472449
0.00699475
-0.000201296
0.00654953
0.000107908
0.00608464
0.000454105
0.00560895
0.000835754
0.00513121
0.00125084
0.00466006
0.00169683
0.00420415
0.00217056
0.00377252
0.0026679
0.00337507
0.00318319
0.00302662
0.00274928
0.00370751
-2.91203e-05
0.000995797
-9.63492e-05
0.00263019
-0.000192295
0.00404754
-0.000308437
0.00522767
-0.000436602
0.00619039
-0.000568929
0.00696505
-0.000698123
0.00757963
-0.000817682
0.00805729
-0.000922075
0.00841551
-0.00100665
0.00866659
-0.00106755
0.00881913
-0.0011016
0.0088795
-0.00110612
0.00885307
-0.00107882
0.00874506
-0.00101777
0.00856107
-0.00092135
0.00830741
-0.000788221
0.00799109
-0.00061738
0.0076199
-0.000408198
0.00720223
-0.000160454
0.00674701
0.000125637
0.00626344
0.000449401
0.00576088
0.00080968
0.00524867
0.00120485
0.00473604
0.00163287
0.00423204
0.00209125
0.00374577
0.002577
0.00328677
0.00308635
0.00286573
0.00361412
0.00249885
0.00221161
0.00415179
-2.35217e-05
0.00101932
-7.85876e-05
0.00268526
-0.000158112
0.00412706
-0.000255324
0.00532489
-0.000363214
0.00629828
-0.000474679
0.00707651
-0.000582881
0.00768783
-0.000681538
0.00815594
-0.000765183
0.00849915
-0.000829182
0.00873059
-0.000869671
0.00885961
-0.000883433
0.00889326
-0.000867767
0.0088374
-0.0008204
0.00869769
-0.000739419
0.00848009
-0.000623228
0.00819122
-0.00047055
0.00783841
-0.000280473
0.00742982
-5.24735e-05
0.00697423
0.000213556
0.00648098
0.000517267
0.00595972
0.000857843
0.0054203
0.00123399
0.00487252
0.00164398
0.00432605
0.00208568
0.00379034
0.00255662
0.00327483
0.00305397
0.00278942
0.00357433
0.00234537
0.00411316
0.00196002
0.0016622
0.00466256
-1.7611e-05
0.00103693
-5.96836e-05
0.00272733
-0.000121452
0.00418883
-0.000197887
0.00540132
-0.000283236
0.00638363
-0.000371191
0.00716447
-0.000455396
0.00777203
-0.000529874
0.00823042
-0.00058928
0.00855856
-0.000629017
0.00877033
-0.000645236
0.00887583
-0.000634735
0.00888276
-0.000594839
0.00879751
-0.00052332
0.00862617
-0.000418334
0.00837511
-0.000278379
0.00805126
-0.000102311
0.00766234
0.000110642
0.00721687
0.000360838
0.00672403
0.000648214
0.0061936
0.000972238
0.0056357
0.00133191
0.00506063
0.00172576
0.00447867
0.00215191
0.0038999
0.00260813
0.00333413
0.0030919
0.00279106
0.00360051
0.0022808
0.00413092
0.00181497
0.00467927
0.00141167
0.00110286
0.00523861
-1.15255e-05
0.00104846
-3.99848e-05
0.00275579
-8.29215e-05
0.00423177
-0.000137033
0.00545543
-0.000197803
0.0064444
-0.000259784
0.00722645
-0.000317187
0.00782944
-0.00036437
0.0082776
-0.000396155
0.00859035
-0.000408046
0.00878222
-0.000396253
0.00886404
-0.000357619
0.00884412
-0.000289539
0.00872943
-0.000189884
0.00852652
-5.69334e-05
0.00824215
0.00011066
0.00788367
0.000313854
0.00745915
0.000553211
0.00697751
0.000828879
0.00644836
0.00114057
0.00588191
0.00148752
0.00528875
0.00186852
0.00467963
0.00228189
0.0040653
0.00272557
0.00345622
0.00319717
0.00286253
0.00369411
0.00229412
0.00421372
0.00176119
0.00475328
0.00127541
0.00530963
0.000855312
0.00053552
0.00587697
-5.38722e-06
0.00105384
-1.98828e-05
0.00277029
-4.32252e-05
0.00425511
-7.37684e-05
0.00548598
-0.000108233
0.00647886
-0.00014207
0.00726029
-0.000170109
0.00785748
-0.000187097
0.00829459
-0.000188097
0.00859135
-0.000168763
0.00876289
-0.000125408
0.00882069
-5.49704e-05
0.00877368
4.50379e-05
0.00862942
0.000176596
0.00839496
0.000341249
0.0080775
0.000540129
0.00768479
0.00077395
0.00722533
0.00104302
0.00670844
0.00134722
0.00614416
0.00168599
0.00554314
0.00205831
0.00491642
0.00246272
0.00427523
0.0028973
0.00363071
0.0033598
0.00299372
0.00384764
0.00237468
0.00435812
0.00178364
0.00488857
0.00123074
0.00543647
0.000727509
0.00599936
0.000292416
-3.78278e-05
0.00657271
6.82009e-07
0.00105316
2.18134e-07
0.00277075
-3.10693e-06
0.00425843
-9.20862e-06
0.00549208
-1.60073e-05
0.00648566
-1.98821e-05
0.00726416
-1.63217e-05
0.00785392
-5.30207e-07
0.0082788
3.21194e-05
0.0085587
8.57647e-05
0.00870924
0.000163938
0.00874251
0.000269548
0.00866807
0.000404906
0.00849406
0.000571804
0.00822806
0.000771555
0.00787775
0.00100502
0.00745132
0.00127263
0.00695772
0.00157438
0.00640669
0.00190985
0.00580869
0.00227816
0.00517482
0.00267801
0.00451657
0.00310766
0.00384558
0.00356496
0.00317341
0.0040474
0.00251127
0.00455224
0.00186985
0.0050766
0.00125928
0.00561775
0.000689589
0.00617331
0.000171953
0.00674137
-0.000275649
-0.000615262
0.00731881
6.53213e-06
0.00104663
1.99052e-05
0.00275738
3.66482e-05
0.00424169
5.54493e-05
0.00547328
7.72525e-05
0.00646386
0.000104751
0.00723667
0.000141741
0.00781693
0.000192499
0.00822804
0.000261274
0.00848992
0.00035193
0.00861859
0.000467776
0.00862667
0.000611508
0.00852434
0.000785221
0.00832035
0.00099046
0.00802282
0.00122825
0.00763996
0.00149915
0.00718043
0.00180324
0.00665363
0.00214019
0.00606974
0.00250923
0.00543965
0.00290916
0.0047749
0.00333833
0.0040874
0.00379473
0.00338919
0.00427594
0.00269219
0.00477925
0.00200797
0.00530167
0.00134742
0.00584017
0.00072078
0.00639191
0.000137851
0.00695453
-0.000390664
0.00752654
-0.000847668
-0.00119477
0.00810605
1.20442e-05
0.00103458
3.87688e-05
0.00273066
7.52575e-05
0.0042052
0.000118991
0.00542954
0.000169867
0.00641298
0.000229662
0.00717687
0.000301429
0.00774516
0.000388865
0.00814061
0.000495765
0.00838302
0.000625644
0.00848871
0.000781523
0.00847079
0.000965826
0.00834004
0.00118038
0.0081058
0.00142641
0.00777678
0.00170465
0.00736173
0.00201527
0.00686981
0.002358
0.00631089
0.00273215
0.00569559
0.00313656
0.00503524
0.00356967
0.00434179
0.00402953
0.00362754
0.0045138
0.00290491
0.00501981
0.00218618
0.00554459
0.00148318
0.00608498
0.00080704
0.00663776
0.000168002
0.00719993
-0.000424325
0.00776909
-0.000959828
0.00834403
-0.0014226
-0.00177491
0.00892417
1.71007e-05
0.00101748
5.64187e-05
0.00269134
0.000111951
0.00414967
0.000180194
0.0053613
0.000260112
0.00633307
0.000352602
0.00708438
0.000459957
0.00763781
0.00058523
0.00801534
0.000731695
0.00823656
0.000902447
0.00831795
0.00110014
0.00827309
0.00132688
0.0081133
0.00158414
0.00784854
0.00187282
0.0074881
0.00219327
0.00704128
0.00254529
0.00651778
0.00292823
0.00592795
0.00334098
0.00528284
0.00378201
0.00459421
0.00424939
0.00387441
0.00474083
0.0031361
0.00525368
0.00239206
0.005785
0.00165486
0.00633159
0.000936599
0.00689007
0.00024856
0.00745706
-0.000398992
0.00802942
-0.000996687
0.00860463
-0.00153504
0.00918151
-0.00199948
-0.00235357
0.00976017
2.15934e-05
0.000995892
7.24966e-05
0.00264044
0.000146009
0.00407616
0.000237887
0.00526942
0.0003463
0.00622465
0.000471327
0.00695936
0.00061449
0.00749465
0.000778153
0.00785167
0.000965004
0.00804971
0.00117765
0.00810531
0.00141831
0.00803243
0.00168868
0.00784293
0.00198987
0.00754735
0.00232238
0.00715558
0.00268617
0.00667749
0.00308063
0.00612332
0.0035047
0.00550388
0.00395688
0.00483066
0.00443523
0.00411586
0.00493746
0.00337217
0.00546093
0.00261264
0.00600268
0.00185031
0.00655947
0.00109807
0.00712785
0.00036821
0.00770429
-0.000327873
0.00828524
-0.000979942
0.00886744
-0.00157889
0.0094483
-0.0021159
0.0100267
-0.00257791
-0.00293046
0.0106036
2.54295e-05
0.000970463
8.66898e-05
0.00257918
0.000176784
0.00398606
0.000290992
0.00515522
0.000426846
0.0060888
0.000583684
0.00680252
0.000762263
0.00731607
0.000964229
0.00764971
0.00119163
0.0078223
0.00144651
0.00785043
0.0017306
0.00774834
0.00204513
0.0075284
0.00239078
0.0072017
0.00276764
0.00677872
0.00317523
0.00626991
0.00361254
0.00568601
0.00407809
0.00503832
0.00456997
0.00433878
0.00508586
0.00359997
0.00562307
0.00283496
0.00617861
0.00205709
0.00674918
0.00127974
0.00733126
0.000515999
0.00792114
-0.000221672
0.00851509
-0.000921823
0.00910945
-0.00157431
0.00970091
-0.00217034
0.0102869
-0.00270184
0.0108663
-0.00315739
-0.0035054
0.0114413
2.85366e-05
0.000941927
9.87463e-05
0.00250897
0.000203736
0.00388107
0.00033858
0.00502037
0.000500343
0.00592704
0.000687714
0.00661515
0.000900712
0.00710307
0.00114025
0.00741017
0.0014077
0.00755485
0.00170449
0.00755364
0.00203179
0.00742105
0.00239033
0.00716986
0.00278032
0.0068117
0.0032014
0.00635764
0.00365265
0.00581865
0.00413266
0.00520601
0.00463953
0.00453146
0.00517093
0.00380738
0.00572413
0.00304676
0.00629608
0.00226302
0.00688338
0.00146979
0.00748238
0.000680737
0.00808923
-9.0851e-05
0.00869997
-0.000832408
0.00931065
-0.00153251
0.00991753
-0.00218118
0.0105172
-0.00277005
0.0111072
-0.00329182
0.0116866
-0.00373682
-0.00407677
0.012258
3.08661e-05
0.000911061
0.000108487
0.00243135
0.000226457
0.0037631
0.000379916
0.00486691
0.000565635
0.00574132
0.000781756
0.00639903
0.00102761
0.00685722
0.00130338
0.0071344
0.00160975
0.00724849
0.00194746
0.00721593
0.00231711
0.0070514
0.00271889
0.00676808
0.00315251
0.00637809
0.00361714
0.00589301
0.00411142
0.00532436
0.00463353
0.0046839
0.00518114
0.00398385
0.00575151
0.00323701
0.0063415
0.00245678
0.00694762
0.00165689
0.00756608
0.000851336
0.00819281
5.40021e-05
0.0088236
-0.000721644
0.0094542
-0.00146301
0.0100805
-0.00215877
0.0106985
-0.00279924
0.011305
-0.00337653
0.0118974
-0.00388425
0.0124751
-0.00431448
-0.00464288
0.0130412
3.2396e-05
0.000878665
0.000115814
0.00234793
0.000244699
0.00363422
0.000414507
0.00469711
0.000621889
0.00553394
0.000864554
0.00615636
0.00114121
0.00658057
0.00145134
0.00682426
0.00179492
0.00690492
0.00217202
0.00683882
0.00258262
0.0066408
0.00302635
0.00632435
0.00350241
0.00590203
0.00400949
0.00538593
0.00454581
0.00478804
0.0051091
0.00412061
0.00569661
0.00339633
0.00630516
0.00262846
0.00693116
0.00183077
0.00757067
0.00101739
0.00821939
0.00020261
0.00887283
-0.00059944
0.00952637
-0.00137518
0.0101754
-0.00211206
0.0108156
-0.00279899
0.0114431
-0.00342666
0.0120544
-0.00398781
0.0126471
-0.00447701
0.0132207
-0.00488802
-0.00520017
0.0137779
3.31331e-05
0.000845532
0.000120725
0.00226034
0.000258388
0.00349655
0.000442136
0.00451336
0.000668657
0.00530742
0.000935349
0.00588967
0.00124038
0.00627554
0.00158258
0.00648206
0.00196123
0.00652627
0.00237575
0.0064243
0.00282548
0.00619106
0.00330951
0.00584032
0.00382649
0.00538504
0.00437468
0.00483774
0.00495182
0.0042109
0.0055552
0.00351723
0.00618162
0.00276991
0.00682741
0.00198267
0.00748847
0.00116972
0.0081603
0.000345557
0.0088381
-0.00047519
0.00951684
-0.00127818
0.0101915
-0.0020498
0.0108571
-0.00277767
0.0115091
-0.00345103
0.0121436
-0.00406114
0.0127573
-0.00460152
0.013348
-0.00506774
0.0139153
-0.00545526
-0.00574719
0.0144623
3.31141e-05
0.000812418
0.000123309
0.00217014
0.000267645
0.00335222
0.000462892
0.00431811
0.000705928
0.00506438
0.000993962
0.00560164
0.00132471
0.00594479
0.00169643
0.00611034
0.00210775
0.00611495
0.00255745
0.0059746
0.00304428
0.00570423
0.00356675
0.00531786
0.00412302
0.00482876
0.00471086
0.00424991
0.00532755
0.00359422
0.00596988
0.0028749
0.00663413
0.00210566
0.00731608
0.00130073
0.00801102
0.000474777
0.00871384
-0.00035726
0.00941909
-0.00118045
0.0101212
-0.0019803
0.0108147
-0.00274329
0.0114943
-0.0034573
0.0121554
-0.00411215
0.0127941
-0.00469983
0.0134074
-0.00521478
0.0139934
-0.00565373
0.0145519
-0.0060138
-0.00628178
0.0150865
3.24066e-05
0.000780012
0.000123758
0.00207879
0.000272785
0.00320319
0.000477184
0.00411371
0.000734156
0.00480741
0.00104084
0.00529495
0.00139462
0.00559102
0.00179323
0.00571173
0.00223473
0.00567345
0.00271732
0.00549201
0.00323917
0.00518238
0.00379824
0.00475878
0.00439221
0.0042348
0.0050183
0.00362381
0.00567331
0.00293921
0.00635345
0.00219476
0.00705439
0.00140472
0.00777123
0.00058388
0.00849857
-0.000252564
0.00923056
-0.00108925
0.00996109
-0.00191098
0.010684
-0.00270323
0.0113934
-0.00345268
0.0120838
-0.00414773
0.0127506
-0.00477894
0.0133901
-0.00533928
0.0139996
-0.0058243
0.0145779
-0.006232
0.0151253
-0.00656116
-0.00680214
0.0156456
3.11078e-05
0.000748904
0.000122354
0.00198754
0.000274314
0.00305123
0.000485737
0.00390229
0.000754265
0.00453888
0.00107708
0.00497214
0.00145133
0.00521677
0.00187435
0.00528871
0.00234369
0.00520411
0.00285703
0.00497867
0.00341199
0.00462742
0.00400603
0.00416474
0.00463625
0.00360457
0.00529937
0.00296069
0.00599154
0.00224704
0.00670832
0.00147798
0.00744464
0.000668401
0.00819479
-0.000166273
0.00895254
-0.00101031
0.00971125
-0.00184795
0.0104641
-0.00266384
0.0112044
-0.00344355
0.011926
-0.00417421
0.0126232
-0.00484497
0.0132916
-0.00544737
0.0139279
-0.00597559
0.0145301
-0.00642648
0.0150975
-0.00679941
0.0156312
-0.00709485
-0.00730654
0.0161356
2.93416e-05
0.000719562
0.000119468
0.00189742
0.000272915
0.00289778
0.000489572
0.00368563
0.000767619
0.00426084
0.00110438
0.00463537
0.00149689
0.00482427
0.00194216
0.00484343
0.00243735
0.00470892
0.00297964
0.00443638
0.00356616
0.0040409
0.00419381
0.00353709
0.00485914
0.00293924
0.0055582
0.00226164
0.00628641
0.00151883
0.00703852
0.000725863
0.00780855
-0.000101629
0.00858987
-0.000947588
0.00937531
-0.00179576
0.0101574
-0.00263006
0.0109287
-0.00343515
0.0116821
-0.00419695
0.0124112
-0.00490329
0.0131106
-0.00554433
0.0137761
-0.00611287
0.014405
-0.00660449
0.014996
-0.00701752
0.0155494
-0.00735277
0.0160669
-0.00761239
-0.00779334
0.0165537
2.72543e-05
0.000692308
0.000115544
0.00180913
0.000269421
0.00274391
0.000489963
0.00346509
0.000775966
0.00397483
0.001125
0.00428634
0.00153405
0.00441522
0.00199994
0.00437754
0.00251947
0.00418939
0.00308941
0.00386645
0.00370637
0.00342394
0.00436667
0.00287679
0.00506617
0.00223973
0.00580016
0.00152766
0.00656316
0.00075583
0.00734891
-5.98886e-05
0.00815039
-0.000903111
0.00895993
-0.00175713
0.00976941
-0.00260524
0.0105706
-0.00343125
0.0113555
-0.00422005
0.0121168
-0.00495821
0.0128481
-0.00563458
0.0135443
-0.00624059
0.014202
-0.00677056
0.0148192
-0.00722164
0.0153954
-0.00759372
0.0159317
-0.00788912
0.0164309
-0.00811156
-0.00826111
0.0168986
2.50086e-05
0.000667299
0.000111077
0.00172306
0.000264771
0.00259021
0.000488374
0.00324148
0.000781352
0.00368186
0.00114158
0.00392612
0.00156611
0.00399069
0.00205161
0.00389203
0.00259461
0.00364639
0.00319144
0.00326961
0.00383817
0.00277721
0.00453045
0.00218451
0.00526333
0.00150686
0.00603111
0.000759875
0.00682724
-4.03088e-05
0.00764432
-0.000876962
0.00847414
-0.00173293
0.00930795
-0.00259093
0.0101367
-0.00343402
0.0109516
-0.00424613
0.0117443
-0.00501273
0.0125074
-0.00572138
0.0132351
-0.00636224
0.0139228
-0.00692833
0.0145679
-0.00741563
0.0151693
-0.00782297
0.0157274
-0.00815183
0.0162442
-0.00840595
0.0167232
-0.00859058
-0.0087088
0.0171709
2.27765e-05
0.000644523
0.000106592
0.00163924
0.00025997
0.00243683
0.000486385
0.00301507
0.000785998
0.00338224
0.00115704
0.00355507
0.00159667
0.00355106
0.00210148
0.00338722
0.00266769
0.00308018
0.00329118
0.00264612
0.00396739
0.002101
0.00469113
0.00146077
0.00545646
0.000741529
0.00625653
-4.01888e-05
0.00708351
-0.000867288
0.00792869
-0.00172215
0.00878267
-0.00258691
0.00963566
-0.00344392
0.0104779
-0.00427625
0.0113001
-0.00506835
0.012094
-0.00580663
0.0128526
-0.00648001
0.0135707
-0.0070803
0.0142447
-0.00760229
0.0148727
-0.00804372
0.0154549
-0.0084051
0.0159924
-0.00868938
0.0164881
-0.00890159
0.0169458
-0.00904832
-0.00913551
0.0173725
2.07307e-05
0.000623792
0.000102617
0.00155736
0.000256034
0.00228342
0.000485602
0.0027855
0.000792169
0.00307568
0.00117434
0.0031729
0.00162941
0.00309599
0.00215385
0.00286278
0.00274357
0.00249046
0.0033939
0.00199579
0.00409947
0.00139544
0.00485408
0.000706156
0.00565057
-5.49659e-05
0.00648074
-0.000870358
0.00733535
-0.0017219
0.00820435
-0.00259114
0.00907716
-0.00345972
0.00994312
-0.00430988
0.010792
-0.00512513
0.0116145
-0.00589083
0.0124026
-0.00659478
0.0131502
-0.00722763
0.013853
-0.00778306
0.0145085
-0.00825778
0.0151161
-0.0086513
0.0156766
-0.00896565
0.0161923
-0.00920503
0.0166661
-0.00937542
0.0171023
-0.00948448
-0.00954029
0.0175071
1.90357e-05
0.000604756
9.9653e-05
0.00147674
0.000253934
0.00212913
0.00048756
0.00255188
0.000802029
0.00276121
0.00119629
0.00277864
0.00166775
0.00262454
0.00221271
0.00231782
0.00282665
0.00187652
0.00350415
0.00131828
0.00423888
0.000660713
0.00502339
-7.83544e-05
0.0058491
-0.00088068
0.00670629
-0.00172755
0.00758425
-0.00259986
0.00847163
-0.00347851
0.00935684
-0.00434493
0.0102286
-0.00518169
0.0110767
-0.00597317
0.011892
-0.00670616
0.0126675
-0.00737023
0.0133979
-0.00795808
0.0140803
-0.00846549
0.0147137
-0.00889111
0.0152985
-0.0092361
0.0158365
-0.00950372
0.0163304
-0.00969891
0.0167831
-0.00982815
0.0171984
-0.00989978
-0.00992194
0.0175801
1.78395e-05
0.000586916
9.81533e-05
0.00139643
0.000254544
0.00197274
0.000493636
0.00231278
0.000817496
0.00243735
0.00122536
0.00237077
0.00171464
0.00213526
0.00228135
0.00175111
0.00292035
0.00123752
0.00362531
0.000613328
0.00438863
-0.000102611
0.00520143
-0.000891157
0.00605354
-0.00173278
0.00693362
-0.00260763
0.00782953
-0.00349578
0.00872879
-0.00437777
0.0096191
-0.00523524
0.010489
-0.00605161
0.0113285
-0.00681264
0.0121293
-0.007507
0.0128855
-0.00812643
0.0135934
-0.00866593
0.0142514
-0.00912348
0.01486
-0.00949972
0.0154212
-0.0097973
0.0159378
-0.0100204
0.0164127
-0.0101738
0.0168472
-0.0102626
0.01724
-0.0102926
-0.0102792
0.0175973
1.72651e-05
0.000569651
9.84985e-05
0.00131519
0.000258597
0.00181265
0.000504968
0.00206641
0.000840131
0.00210219
0.00126349
0.00194741
0.0017723
0.00162645
0.00236212
0.00116129
0.00302694
0.000572693
0.00375925
-0.000118982
0.00455
-0.000893354
0.00538863
-0.00172979
0.00626327
-0.00260743
0.00716105
-0.0035054
0.00806852
-0.00440325
0.00897236
-0.00528161
0.00985996
-0.00612284
0.0107201
-0.00691174
0.0115434
-0.00763599
0.012323
-0.00828653
0.0130541
-0.00885759
0.0137348
-0.00934663
0.0143653
-0.00975393
0.0149476
-0.0100821
0.0154856
-0.0103352
0.0159839
-0.0105187
0.0164475
-0.0106374
0.0168801
-0.0106952
0.0172781
-0.0106906
0.0176006
-0.0106017
0.00478042
0.0200865
-0.0220997
0.00644563
0.0172158
-0.018881
0.00760535
0.0178582
-0.0190179
0.00836426
0.0200642
-0.0208232
0.00880665
0.0228373
-0.0232797
0.00901408
0.025523
-0.0257304
0.00905308
0.0278198
-0.0278588
0.00897616
0.0297271
-0.0296502
0.00882104
0.0313756
-0.0312205
0.00861243
0.0328999
-0.0326913
0.00836516
0.0343685
-0.0341213
0.00808792
0.0358004
-0.0355232
0.00778669
0.0371832
-0.0368819
0.00746529
0.0385032
-0.0381818
0.00712706
0.0397505
-0.0394123
0.00677485
0.0409153
-0.040563
0.00641077
0.0419979
-0.0416338
0.00603727
0.0429965
-0.042623
0.00565556
0.0439112
-0.0435295
0.0052675
0.0447426
-0.0443545
0.00487409
0.0454856
-0.0450922
0.00447615
0.0461505
-0.0457525
0.0040745
0.0467222
-0.0463205
0.00366951
0.0472168
-0.0468119
0.00326097
0.0476161
-0.0472076
0.00284922
0.0479391
-0.0475273
0.00243258
0.0481663
-0.0477497
0.00201244
0.0483249
-0.0479047
0.00158836
0.048429
-0.0480049
0.0485404
-0.0481215
0.00504196
0.0180611
0.00669879
0.015559
0.0078481
0.0167088
0.00859567
0.0193167
0.00902829
0.0224047
0.00922797
0.0253233
0.00926042
0.0277874
0.00917774
0.0298098
0.00901712
0.0315362
0.00880285
0.0331142
0.00855029
0.0346211
0.00826727
0.0360835
0.00795998
0.0374905
0.00763183
0.0388314
0.00728674
0.0400956
0.00692688
0.0412751
0.00655466
0.0423701
0.00617221
0.0433789
0.00578143
0.044302
0.0053834
0.0451406
0.00497962
0.0458894
0.00457098
0.0465591
0.00415812
0.047135
0.00374166
0.0476333
0.00332137
0.0480364
0.00289762
0.0483628
0.00246893
0.048595
0.00203652
0.0487573
0.00160012
0.0488654
0.0489723
0.00534193
0.0160486
0.00697222
0.0139287
0.00810082
0.0155802
0.00883135
0.0185861
0.00925134
0.0219847
0.00944185
0.0251328
0.00946715
0.0277621
0.00937855
0.0298984
0.00921255
0.0317022
0.0089928
0.033334
0.00873497
0.0348789
0.00844632
0.0363721
0.0081332
0.0378036
0.00779853
0.0391661
0.00744663
0.0404475
0.00707921
0.0416425
0.00669901
0.0427503
0.00630767
0.0437703
0.00590788
0.0447018
0.00549991
0.0455486
0.00508582
0.0463035
0.00466651
0.0469784
0.00424244
0.0475591
0.00381452
0.0480612
0.0033825
0.0484685
0.00294669
0.0487986
0.00250595
0.0490358
0.00206115
0.0492021
0.00161225
0.0493143
0.0494174
0.00568054
0.0140756
0.00726565
0.0123436
0.0083631
0.0144828
0.00907079
0.0178785
0.00947534
0.0215801
0.00965529
0.0249528
0.009673
0.0277443
0.00957837
0.029993
0.00940697
0.0318736
0.00918199
0.033559
0.00891898
0.035142
0.00862503
0.0366661
0.00830616
0.0381225
0.00796524
0.039507
0.00760654
0.0408062
0.00723179
0.0420173
0.00684369
0.0431384
0.00644365
0.0441703
0.00603481
0.0451106
0.00561707
0.0459663
0.00519269
0.0467278
0.00476268
0.0474084
0.00432745
0.0479944
0.00388807
0.0485006
0.00344429
0.0489122
0.00299648
0.0492465
0.00254356
0.0494887
0.00208636
0.0496593
0.00162477
0.0497759
0.0498758
0.00605783
0.0121696
0.00757892
0.0108225
0.00863439
0.0134273
0.00931335
0.0171995
0.00969974
0.0211937
0.00986794
0.0247846
0.0098776
0.0277347
0.00977681
0.0300938
0.0096001
0.0320503
0.0093703
0.0337888
0.0091022
0.0354101
0.00880307
0.0369652
0.00847865
0.0384469
0.00813183
0.0398538
0.00776642
0.0411716
0.00738445
0.0423993
0.00698857
0.0435343
0.00658006
0.0445788
0.00616207
0.0455286
0.00573471
0.0463937
0.00530014
0.0471624
0.00485941
0.0478492
0.00441308
0.0484407
0.00396224
0.0489515
0.00350669
0.0493678
0.00304688
0.0497063
0.00258174
0.0499538
0.00211208
0.050129
0.00163764
0.0502503
0.0503476
0.00647335
0.0103588
0.00791157
0.00938427
0.00891413
0.0124247
0.00955859
0.016555
0.00992406
0.0208283
0.0100794
0.0246293
0.0100806
0.0277334
0.00997365
0.0302008
0.00979178
0.0322322
0.00955735
0.0340232
0.00928443
0.035683
0.00898033
0.0372693
0.00865055
0.0387767
0.00829803
0.0402063
0.00792614
0.0415435
0.0075371
0.0427883
0.00713357
0.0439378
0.00671674
0.0449957
0.0062897
0.0459556
0.0058528
0.0468306
0.00540807
0.0476071
0.00495667
0.0483006
0.00449929
0.0488981
0.004037
0.0494137
0.00356967
0.0498351
0.00309788
0.0501781
0.00262048
0.0504312
0.00213829
0.0506111
0.00165091
0.0507377
0.0508331
0.00692616
0.00867124
0.00826303
0.00804741
0.00920172
0.0114861
0.00980599
0.0159508
0.0101478
0.0204864
0.0102892
0.024488
0.0102817
0.0277409
0.0101686
0.0303139
0.00998178
0.032419
0.00974289
0.0342621
0.00946542
0.0359605
0.00915663
0.0375781
0.00882171
0.0391116
0.00846366
0.0405644
0.00808554
0.0419216
0.0076896
0.0431842
0.00727858
0.0443489
0.00685358
0.0454207
0.00641757
0.0463916
0.00597125
0.0472769
0.00551642
0.0480619
0.00505442
0.0487626
0.00458601
0.0493665
0.0041123
0.0498874
0.00363322
0.0503142
0.00314944
0.0506618
0.00265975
0.0509209
0.00216501
0.0511059
0.00166457
0.0512381
0.0513323
0.00741465
0.00713357
0.00863242
0.00682963
0.00949654
0.0106219
0.0100551
0.0153922
0.0103707
0.0201708
0.0104971
0.0243616
0.0104807
0.0277573
0.0103615
0.0304331
0.0101698
0.0326107
0.0099267
0.0345052
0.00964496
0.0362422
0.00933175
0.0378913
0.00899195
0.0394514
0.00862857
0.0409278
0.00824447
0.0423057
0.00784184
0.0435869
0.00742348
0.0447672
0.00699047
0.0458537
0.00654561
0.0468365
0.00608999
0.0477326
0.00562512
0.0485268
0.00515259
0.0492351
0.00467317
0.0498459
0.0041881
0.0503725
0.00369728
0.050805
0.00320151
0.0511576
0.00269953
0.0514229
0.00219222
0.0516132
0.00167862
0.0517517
0.0518453
0.00793615
0.00577013
0.00901853
0.00574724
0.00979788
0.0098426
0.0103053
0.0148848
0.0105922
0.0198839
0.0107026
0.0242512
0.0106771
0.0277828
0.0105519
0.0305583
0.0103557
0.0328068
0.0101086
0.0347524
0.00982285
0.0365279
0.00950549
0.0382086
0.00916107
0.0397958
0.00879261
0.0412962
0.00840278
0.0426955
0.00799367
0.043996
0.00756812
0.0451928
0.00712731
0.0462945
0.00667373
0.0472901
0.00620891
0.0481974
0.00573411
0.0490016
0.00525114
0.049718
0.00476072
0.0503363
0.00426433
0.0508689
0.00376181
0.0513075
0.00325408
0.0516653
0.00273979
0.0519372
0.00221989
0.0521331
0.00169309
0.0522785
0.0523725
0.00848703
0.00460191
0.00941972
0.00481455
0.0101049
0.00915745
0.0105562
0.0144335
0.010812
0.0196281
0.0109057
0.0241575
0.0108708
0.0278176
0.0107397
0.0306894
0.0105393
0.0330073
0.0102883
0.0350034
0.00999889
0.0368173
0.00967766
0.0385299
0.00932891
0.0401445
0.00895563
0.0416695
0.0085603
0.0430909
0.00814497
0.0444113
0.0077124
0.0456253
0.00726399
0.0467429
0.00680184
0.0477522
0.00632794
0.0486713
0.0058433
0.0494863
0.00534998
0.0502114
0.00484862
0.0508377
0.00434094
0.0513766
0.00382677
0.0518217
0.00330711
0.052185
0.0027805
0.0524638
0.00224801
0.0526656
0.00170798
0.0528185
0.0529138
0.00906284
0.00364512
0.0098337
0.00404368
0.0104165
0.00857466
0.0108073
0.0140427
0.0110298
0.0194055
0.0111059
0.0240814
0.0110616
0.0278619
0.0109248
0.0308263
0.0107202
0.0332119
0.0104657
0.0352578
0.0101729
0.0371101
0.00984806
0.0388547
0.00949529
0.0404973
0.00911744
0.0420473
0.00871688
0.0434914
0.0082956
0.0448326
0.00785619
0.0460647
0.00740038
0.0471987
0.00692985
0.0482227
0.00644698
0.0491542
0.00595261
0.0499806
0.00544903
0.0507149
0.00493682
0.0513499
0.00441789
0.0518955
0.00389208
0.0523475
0.00336054
0.0527165
0.00282166
0.0530027
0.00227656
0.0532107
0.00172328
0.0533718
0.0534695
0.00965673
0.00291256
0.0102579
0.00344252
0.0107315
0.0081011
0.0110579
0.0137162
0.0112453
0.0192181
0.0113031
0.0240236
0.0112493
0.0279157
0.0111068
0.0309688
0.0108983
0.0334204
0.0106406
0.0355156
0.0103446
0.0374061
0.0100165
0.0391828
0.00966
0.0408538
0.00927788
0.0424295
0.00887235
0.043897
0.00844539
0.0452596
0.00799938
0.0465107
0.00753635
0.0476618
0.00705765
0.0487014
0.00656597
0.0496458
0.00606198
0.0504846
0.00554823
0.0512287
0.00502524
0.0518729
0.00449512
0.0524256
0.00395771
0.0528849
0.00341433
0.0532599
0.00286324
0.0535538
0.00230554
0.0537684
0.00173899
0.0539384
0.0540396
0.0102634
0.00240932
0.0106887
0.00301723
0.0110483
0.00774154
0.0113074
0.0134571
0.0114581
0.0190675
0.0114971
0.0239846
0.0114337
0.0279791
0.0112857
0.0311168
0.0110735
0.0336325
0.0108128
0.0357764
0.0105139
0.037705
0.0101828
0.0395138
0.00982286
0.0412138
0.00943677
0.0428156
0.00902655
0.0443072
0.00859418
0.0456919
0.00814184
0.0469631
0.0076718
0.0481318
0.00718513
0.0491881
0.00668478
0.0501462
0.00617134
0.0509981
0.00564751
0.0517525
0.00511383
0.0524066
0.00457259
0.0529669
0.00402361
0.0534339
0.00346842
0.0538151
0.00290521
0.054117
0.00233493
0.0543387
0.00175512
0.0545182
0.0546244
0.0108738
0.00213917
0.0111222
0.00276878
0.0113652
0.00749856
0.011555
0.0132672
0.0116678
0.0189547
0.0116876
0.0239648
0.0116146
0.028052
0.0114613
0.0312701
0.0112456
0.0338483
0.0109821
0.0360399
0.0106805
0.0380066
0.0103468
0.0398475
0.00998367
0.0415768
0.00959393
0.0432053
0.00917931
0.0447218
0.00874183
0.0461294
0.00828343
0.0474215
0.0078066
0.0486086
0.00731218
0.0496825
0.00680332
0.050655