/*--------------------------------*- C++ -*----------------------------------*\
  =========                 |
  \\      /  F ield         | OpenFOAM: The Open Source CFD Toolbox
   \\    /   O peration     | Website:  https://openfoam.org
    \\  /    A nd           | Version:  7
     \\/     M anipulation  |
\*---------------------------------------------------------------------------*/
FoamFile
{
    version     2.0;
    format      ascii;
    class       volVectorField;
    location    "49.4";
    object      U;
}
// * * * * * * * * * * * * * * * * * * * * * * * * * * * * * * * * * * * * * //

dimensions      [0 1 -1 0 0 0 0];

internalField   nonuniform List<vector> 
2000
(
(-0.00155788 -0.00242091 -9.50095e-22)
(-0.00401267 -0.00138519 0)
(-0.00538815 0.00296327 0)
(-0.00466737 0.00983304 -4.70587e-21)
(-0.00199938 0.0190366 1.49265e-21)
(0.00242492 0.0305783 4.20336e-23)
(0.00837771 0.0444579 -2.57605e-21)
(0.0155714 0.0605772 0)
(0.0235771 0.0786913 0)
(0.0318638 0.0983597 0)
(-0.00157626 -0.00123196 0)
(-0.00407533 -0.000370879 -3.64727e-21)
(-0.00557792 0.00299144 3.36355e-21)
(-0.00521818 0.00848503 6.27669e-21)
(-0.00317977 0.0160629 0)
(0.000355164 0.0258065 5.61216e-21)
(0.00521452 0.0378015 -5.21879e-21)
(0.0112031 0.0520759 0)
(0.0179905 0.068565 9.56265e-21)
(0.0250486 0.0871003 -1.84452e-20)
(-0.00165576 -8.18519e-05 0)
(-0.00383508 0.000555849 2.92477e-20)
(-0.00487563 0.00300303 0)
(-0.0042685 0.00724862 2.55268e-20)
(-0.00228211 0.0133455 0)
(0.000868554 0.0214027 -2.26007e-20)
(0.0050319 0.0315421 0)
(0.0100823 0.043879 2.03332e-20)
(0.015806 0.0585202 -1.90428e-20)
(0.0216569 0.0756023 -1.86479e-20)
(-0.00173995 0.000909854 -7.68885e-21)
(-0.00315906 0.00124291 -1.45744e-20)
(-0.0030896 0.0029029 -6.79394e-21)
(-0.0015687 0.006123 -1.26145e-20)
(0.00101252 0.011014 -1.19263e-20)
(0.00437211 0.0176644 1.1157e-20)
(0.00834539 0.0261757 1.06404e-20)
(0.0128451 0.0366919 -9.55215e-23)
(0.0177853 0.0494521 1.92028e-20)
(0.022616 0.0648802 1.86413e-20)
(-0.0017426 0.0016258 -7.64747e-21)
(-0.00188772 0.00154845 -1.47602e-20)
(-3.24282e-05 0.00259665 -2.76343e-20)
(0.00308326 0.00508642 1.27418e-20)
(0.00692494 0.00914995 0)
(0.0111236 0.0148168 0)
(0.0154777 0.0221172 -2.17459e-20)
(0.0199073 0.0311558 -2.05754e-20)
(0.0244524 0.0422348 1.94325e-20)
(0.0286327 0.0559895 5.63345e-20)
(-0.00154694 0.00196295 7.65364e-21)
(0.000152831 0.00137165 7.48586e-21)
(0.00445964 0.00200644 -4.10099e-20)
(0.00980859 0.00410082 6.44472e-20)
(0.0155221 0.00777138 -1.19963e-20)
(0.0211406 0.0129616 0)
(0.0264204 0.0195972 0)
(0.0312692 0.0276856 1.0251e-19)
(0.035835 0.0375054 -9.70745e-20)
(0.0398419 0.0497883 1.86113e-20)
(-0.00101819 0.00187328 6.00076e-20)
(0.00315106 0.000652084 0)
(0.0105055 0.00108737 5.48244e-20)
(0.0186222 0.00313061 -5.14593e-20)
(0.0266783 0.0068391 0)
(0.0341411 0.012057 2.29756e-20)
(0.0407404 0.0185972 -6.42648e-20)
(0.0463747 0.0263374 -8.18268e-20)
(0.051268 0.0354512 3.83893e-20)
(0.0555073 0.0466535 3.72741e-20)
(-3.04392e-05 0.0013534 -1.19366e-19)
(0.00727429 -0.000605902 -1.4672e-20)
(0.0181718 -0.000141221 -2.71855e-20)
(0.0294151 0.00216754 -6.38571e-20)
(0.0400617 0.0062811 -2.42801e-20)
(0.0495388 0.0119393 -2.26374e-20)
(0.0575826 0.0188554 4.33445e-22)
(0.0641067 0.0267836 0)
(0.0693828 0.0357407 0)
(0.0739806 0.0463343 -1.48892e-22)
(0.00154738 0.000436209 5.93593e-20)
(0.0126482 -0.0023003 -5.76722e-20)
(0.0274364 -0.0015862 4.07829e-20)
(0.0419368 0.00124576 8.95057e-20)
(0.05514 0.00601621 -2.37469e-20)
(0.0664931 0.0123594 2.30814e-20)
(0.0757904 0.0199206 2.14736e-20)
(0.0829929 0.028387 0)
(0.0883761 0.0376487 0)
(0.0929925 0.04816 -6.7743e-22)
(0.00382529 -0.000790197 -7.28753e-21)
(0.0193367 -0.00425412 7.21925e-20)
(0.0381636 -0.00308737 -1.33813e-20)
(0.0557787 0.000438823 0)
(0.0711946 0.00596001 0)
(0.0839794 0.0130058 4.46296e-20)
(0.0940863 0.0211926 0)
(0.101615 0.030234 -3.87965e-20)
(0.106819 0.0400556 -6.25873e-23)
(0.110755 0.0511151 3.45697e-20)
(0.0521317 0.144597 7.38369e-22)
(0.0781324 0.22629 -7.47438e-22)
(0.0830028 0.291387 -8.5524e-22)
(0.0779485 0.349571 -9.39458e-22)
(0.0659486 0.410094 -1.07223e-21)
(0.0564924 0.478537 -1.85322e-23)
(0.039602 0.55841 5.57101e-22)
(0.033456 0.652468 1.84814e-21)
(0.00846183 0.772163 0)
(0.0105186 0.909122 -1.313e-21)
(0.0423664 0.132767 2.7417e-21)
(0.0712955 0.218486 -3.23418e-21)
(0.0795045 0.289489 5.79532e-21)
(0.0758501 0.350639 9.41101e-22)
(0.0644107 0.412328 1.9799e-21)
(0.0551945 0.481212 3.23144e-21)
(0.0386846 0.561417 -1.16461e-21)
(0.03259 0.655798 -1.23378e-21)
(0.00839562 0.775419 2.44474e-21)
(0.0100626 0.911426 1.30987e-21)
(0.0348482 0.119982 0)
(0.0647459 0.208104 -3.08103e-21)
(0.0763837 0.285694 -1.68475e-21)
(0.0742074 0.350418 0)
(0.0632788 0.413557 -6.01898e-21)
(0.0542433 0.483016 1.93152e-21)
(0.0380019 0.563647 2.07871e-21)
(0.0318866 0.658514 6.86602e-21)
(0.00840417 0.778411 -2.43684e-21)
(0.00965657 0.91367 4.84798e-21)
(0.0308178 0.107154 0)
(0.0586846 0.195304 3.10718e-21)
(0.0736125 0.279871 0)
(0.0729786 0.348797 7.30912e-21)
(0.0625376 0.413687 -7.3467e-21)
(0.0536347 0.483795 -4.15005e-21)
(0.0375739 0.564799 -1.6678e-22)
(0.0313886 0.660109 -6.72172e-21)
(0.00851082 0.780412 -1.11571e-21)
(0.00927838 0.915375 -5.98382e-21)
(0.0315841 0.0953066 4.81364e-22)
(0.0535526 0.180612 -8.75445e-21)
(0.0711714 0.271913 3.31829e-22)
(0.0721086 0.345712 -6.70012e-21)
(0.0621549 0.412865 0)
(0.0533143 0.483896 -4.0149e-21)
(0.0373188 0.565477 -1.84869e-22)
(0.0310078 0.661499 8.61844e-21)
(0.00865389 0.782476 1.11404e-21)
(0.00894398 0.917225 -1.118e-21)
(0.038028 0.085428 -2.357e-20)
(0.0501054 0.164985 1.51635e-20)
(0.0690826 0.2618 6.58473e-21)
(0.0715659 0.340955 -6.58133e-21)
(0.062122 0.410705 -3.52677e-21)
(0.0533294 0.482693 0)
(0.0373371 0.564717 -7.95199e-21)
(0.0308464 0.66128 3.94716e-21)
(0.00889602 0.783037 4.18317e-21)
(0.00861961 0.918302 4.24551e-21)
(0.0500679 0.078236 -2.85742e-21)
(0.0493618 0.149668 0)
(0.0674336 0.249655 0)
(0.0712952 0.334794 0)
(0.0623773 0.408009 -3.63955e-21)
(0.0535348 0.481485 7.15519e-21)
(0.0374205 0.56435 7.79838e-21)
(0.0307064 0.661838 -1.18629e-20)
(0.00911805 0.78453 2.04249e-21)
(0.00834846 0.919941 -6.22752e-21)
(0.0664212 0.0738567 1.7612e-20)
(0.0523029 0.135937 1.26229e-20)
(0.0665005 0.235758 -1.25101e-20)
(0.0713281 0.326252 1.33688e-20)
(0.0629537 0.4029 -1.65911e-20)
(0.0541664 0.477809 0)
(0.0378998 0.561229 -3.615e-21)
(0.0308669 0.659394 1.35675e-22)
(0.00947812 0.783397 -3.79191e-21)
(0.00806004 0.920349 -3.85562e-21)
(0.0847421 0.0714256 -1.48467e-20)
(0.0593788 0.124085 0)
(0.066498 0.221406 -1.4337e-20)
(0.0716054 0.318133 2.57488e-20)
(0.0636696 0.399518 -9.58629e-21)
(0.0546786 0.476615 -1.69305e-21)
(0.0381599 0.561115 3.60741e-21)
(0.0308561 0.660259 3.03397e-23)
(0.00971688 0.785076 5.53394e-21)
(0.00784968 0.922063 5.63683e-21)
(0.101787 0.0699227 -1.22577e-20)
(0.0703479 0.112765 1.20029e-20)
(0.0684583 0.20229 1.56739e-21)
(0.0722431 0.302161 0)
(0.064893 0.388359 0)
(0.0561676 0.468208 1.62675e-21)
(0.039269 0.553845 6.61196e-21)
(0.0314059 0.654305 -6.41983e-21)
(0.0102165 0.781544 -1.6447e-21)
(0.00757364 0.921681 1.59467e-21)
(0.122116 0.080129 0)
(0.0920075 0.115499 0)
(0.0776617 0.192683 0)
(0.0761635 0.297358 0)
(0.0666349 0.391391 0)
(0.0563379 0.475382 0)
(0.0393672 0.562215 0)
(0.0311827 0.663093 0)
(0.0105903 0.789042 0)
(0.00724677 0.926967 0)
(0.12861 0.102472 0)
(0.10878 0.145683 0)
(0.0888881 0.209588 0)
(0.0815585 0.305737 0)
(0.0705593 0.4015 0)
(0.0578109 0.48674 0)
(0.0391508 0.573061 0)
(0.0292956 0.674647 0)
(0.0099081 0.800724 0)
(0.00647528 0.934776 0)
(0.123299 0.110488 0)
(0.11219 0.164151 0)
(0.0937577 0.227623 0)
(0.0825612 0.319605 0)
(0.070619 0.416798 0)
(0.0580118 0.504068 0)
(0.0404219 0.590156 0)
(0.0302313 0.689292 0)
(0.0111026 0.812456 0)
(0.00642596 0.942847 0)
(0.110418 0.11387 0)
(0.105387 0.175276 0)
(0.0922401 0.241876 0)
(0.0814814 0.332482 0)
(0.0690446 0.430021 0)
(0.0551072 0.517271 0)
(0.0370629 0.602869 0)
(0.0269625 0.702861 0)
(0.00992343 0.825594 0)
(0.00568176 0.951477 0)
(0.0932265 0.115007 0)
(0.0914206 0.18202 0)
(0.0826253 0.252752 0)
(0.0742224 0.344356 0)
(0.0644687 0.444496 0)
(0.0536043 0.534451 0)
(0.0376346 0.619126 0)
(0.0272021 0.715666 0)
(0.0102974 0.835808 0)
(0.00545931 0.958782 0)
(0.0732096 0.114623 0)
(0.0740158 0.185139 0)
(0.0701035 0.260589 0)
(0.0644716 0.353654 0)
(0.0553299 0.453975 0)
(0.0446356 0.544486 0)
(0.0307658 0.63058 0)
(0.0227117 0.729003 0)
(0.00867938 0.848485 0)
(0.00467568 0.96709 0)
(0.0525071 0.112728 0)
(0.0536076 0.184059 0)
(0.052986 0.262594 0)
(0.0525902 0.359177 0)
(0.0492886 0.464185 0)
(0.042573 0.557958 0)
(0.0299065 0.64278 0)
(0.021434 0.738007 0)
(0.00805149 0.855846 0)
(0.00427509 0.972396 0)
(0.0337132 0.111345 0)
(0.0350131 0.184681 0)
(0.0351395 0.265119 0)
(0.0352388 0.361069 0)
(0.0336377 0.465476 0)
(0.0303054 0.56188 0)
(0.0223839 0.651138 0)
(0.017071 0.749455 0)
(0.00634355 0.866869 0)
(0.00346835 0.979427 0)
(0.0163003 0.106569 0)
(0.0179199 0.178825 0)
(0.0217581 0.261117 0)
(0.0267662 0.361575 0)
(0.0297225 0.471469 0)
(0.0284431 0.569977 0)
(0.0207836 0.65749 0)
(0.015482 0.753668 0)
(0.00557648 0.870484 0)
(0.00314634 0.981985 0)
(0.000413152 0.109219 0)
(-0.00263884 0.17956 0)
(-0.00165471 0.255711 0)
(0.00419774 0.350551 0)
(0.0122143 0.46079 0)
(0.0176715 0.567374 0)
(0.0153343 0.663123 0)
(0.0122651 0.763332 0)
(0.00434512 0.879903 0)
(0.0024996 0.987661 0)
(0.140446 0.0622028 9.12888e-21)
(0.139282 0.0702703 -9.00389e-21)
(0.129681 0.0713991 6.64391e-22)
(0.113989 0.0708222 0)
(0.0945423 0.0692364 0)
(0.0725492 0.0677943 -1.00084e-23)
(0.0505604 0.0658728 5.57246e-22)
(0.0309741 0.0643557 -5.48579e-22)
(0.014331 0.06102 -1.03678e-22)
(0.000982162 0.062935 1.01977e-22)
(0.142638 0.0541642 -1.25008e-20)
(0.136419 0.0573099 0)
(0.125274 0.0553889 3.32962e-21)
(0.109327 0.0529891 -5.9875e-21)
(0.0904171 0.0500563 2.31945e-21)
(0.0692966 0.0479152 9.83724e-24)
(0.0483315 0.0457578 -2.35374e-22)
(0.0295467 0.0441516 -5.96871e-22)
(0.0137647 0.0412954 -7.64247e-23)
(0.00121735 0.0426181 -2.08135e-23)
(0.142969 0.0451357 1.38075e-20)
(0.13412 0.0442054 -5.6198e-21)
(0.122238 0.0397722 5.56503e-21)
(0.105968 0.0356246 -1.85488e-21)
(0.0872501 0.0311711 1.56001e-21)
(0.0666403 0.0280431 0)
(0.0464172 0.0253163 2.35912e-22)
(0.0283204 0.0234611 1.1289e-23)
(0.0133191 0.0209463 2.69548e-22)
(0.00146251 0.0216174 1.20593e-22)
(0.141792 0.0343489 -2.05548e-21)
(0.130924 0.0298554 0)
(0.118731 0.0233215 0)
(0.102462 0.0177424 0)
(0.0841959 0.0119667 4.17173e-22)
(0.0642353 0.00796553 -1.83926e-22)
(0.0447482 0.00462813 3.85721e-23)
(0.0272812 0.00246395 3.19742e-22)
(0.0129314 0.000119384 9.16931e-23)
(0.001696 0.000107214 1.96857e-23)
(0.139276 0.0220649 -1.71829e-21)
(0.127057 0.0145492 -5.2444e-21)
(0.11486 0.00615665 -1.58773e-21)
(0.098749 -0.000624994 1.58645e-21)
(0.0810604 -0.00756706 -2.31136e-22)
(0.0618471 -0.0122931 0)
(0.0431249 -0.0162053 2.21972e-22)
(0.0263248 -0.0186986 -5.39613e-22)
(0.0125517 -0.0210305 2.56333e-22)
(0.00180996 -0.0216873 -1.12252e-22)
(0.135667 0.00861581 -1.43185e-20)
(0.122682 -0.0013469 2.60857e-21)
(0.110723 -0.011447 8.27827e-22)
(0.0949257 -0.0192417 1.53202e-21)
(0.0778862 -0.0272401 0)
(0.059464 -0.032569 0)
(0.0415135 -0.0370282 0)
(0.0253959 -0.0398681 -2.41923e-22)
(0.0121282 -0.0423164 0)
(0.00190487 -0.0435056 0)
(0.131135 -0.00567264 0)
(0.117888 -0.0174819 3.62447e-21)
(0.106361 -0.0291971 -2.29554e-21)
(0.0909973 -0.0378247 -7.98453e-22)
(0.0746814 -0.0467998 8.02517e-22)
(0.0570771 -0.0526551 -9.07233e-23)
(0.0399088 -0.0576502 4.569e-23)
(0.0244532 -0.0608496 7.67296e-22)
(0.0116336 -0.063495 -7.1617e-23)
(0.00190618 -0.0650673 5.1227e-23)
(0.125827 -0.0204938 0)
(0.112726 -0.0335312 -1.32907e-21)
(0.1018 -0.0468046 -4.73095e-22)
(0.0869619 -0.0560949 0)
(0.0714512 -0.0659885 -1.50597e-25)
(0.0546758 -0.0723222 -1.55026e-22)
(0.038272 -0.0778501 -2.38648e-22)
(0.0234545 -0.0814165 -1.31354e-22)
(0.0110541 -0.0842872 8.50858e-23)
(0.00182637 -0.0860704 -8.89129e-23)
(0.119814 -0.0355598 1.88388e-21)
(0.107263 -0.0492099 1.13079e-21)
(0.0970527 -0.0640073 -4.28389e-22)
(0.0828301 -0.0737992 1.51681e-22)
(0.0681714 -0.0845555 1.37561e-22)
(0.0522373 -0.0913413 3.39664e-23)
(0.0365719 -0.0973915 2.08635e-23)
(0.022376 -0.10132 3.87203e-23)
(0.0103923 -0.104392 -8.53639e-23)
(0.00168478 -0.106216 -1.66692e-23)
(0.113202 -0.0505781 -3.77313e-22)
(0.101556 -0.0643008 3.80839e-22)
(0.0921358 -0.0805685 -2.40051e-22)
(0.0786144 -0.0907249 -1.51445e-22)
(0.064828 -0.102275 5.21325e-23)
(0.0497472 -0.109501 -7.01787e-23)
(0.0347942 -0.116038 -3.34333e-23)
(0.0212154 -0.120307 -2.60821e-23)
(0.00966535 -0.12351 0)
(0.00150382 -0.125233 1.67001e-23)
(0.106268 -0.0652986 3.85007e-22)
(0.0957202 -0.078648 -3.88295e-22)
(0.0871351 -0.0962999 -2.57281e-22)
(0.0743848 -0.106713 -1.70776e-22)
(0.0614429 -0.118954 -6.303e-23)
(0.0472176 -0.126618 2.39606e-23)
(0.0329451 -0.133571 7.68654e-24)
(0.0199886 -0.13814 -2.8858e-23)
(0.00889991 -0.14138 0)
(0.00130486 -0.142902 1.0616e-23)
(0.0993137 -0.0795585 0)
(0.0899431 -0.092154 -1.22237e-21)
(0.0821756 -0.11105 2.02839e-21)
(0.0702412 -0.121654 1.71021e-22)
(0.0580639 -0.134437 2.2215e-22)
(0.0446814 -0.142548 1.43266e-22)
(0.0310503 -0.149806 6.00594e-26)
(0.0187249 -0.154629 2.10191e-23)
(0.00812615 -0.157802 -3.45008e-23)
(0.00110396 -0.159079 -1.05883e-23)
(0.0925183 -0.0932553 0)
(0.0843411 -0.104789 -1.47714e-21)
(0.0773221 -0.124703 -5.40431e-22)
(0.0662427 -0.135495 0)
(0.054731 -0.148611 -5.72831e-22)
(0.0421721 -0.157195 2.49134e-22)
(0.0291475 -0.164614 7.98403e-23)
(0.0174595 -0.169652 3.52895e-25)
(0.00737362 -0.172661 3.43882e-23)
(0.000913193 -0.173696 -1.86935e-23)
(0.085981 -0.106319 0)
(0.0789742 -0.116604 1.4893e-21)
(0.0725986 -0.137187 0)
(0.0624159 -0.148248 1.33727e-21)
(0.0514767 -0.161426 -1.34426e-21)
(0.0397189 -0.170525 -1.97498e-22)
(0.0272786 -0.177942 1.09178e-22)
(0.0162264 -0.183167 -2.37023e-23)
(0.0066673 -0.185932 -2.73075e-25)
(0.000740801 -0.186768 2.38771e-23)
(0.0797828 -0.118701 1.60024e-20)
(0.0739065 -0.127734 -5.99816e-21)
(0.0680395 -0.148477 -7.14757e-22)
(0.0587872 -0.159984 -2.11304e-21)
(0.0483425 -0.172898 0)
(0.0373506 -0.182567 -2.46532e-22)
(0.0254849 -0.189811 1.45385e-22)
(0.0150533 -0.195213 1.3004e-22)
(0.00602512 -0.197675 -8.13491e-25)
(0.000589628 -0.198377 8.1169e-25)
(0.0739782 -0.130343 1.63283e-21)
(0.0692173 -0.138386 9.19951e-21)
(0.0637096 -0.158596 2.25067e-21)
(0.0553911 -0.170816 -2.24942e-21)
(0.045383 -0.18311 -6.68509e-22)
(0.0350971 -0.193402 0)
(0.0238038 -0.200317 -3.66972e-22)
(0.0139605 -0.205896 1.91186e-22)
(0.00545842 -0.208018 5.13678e-23)
(0.000458482 -0.208661 1.19057e-23)
(0.0686645 -0.141141 -2.27806e-21)
(0.0650544 -0.148822 0)
(0.0597394 -0.167615 0)
(0.0522874 -0.180876 0)
(0.0426726 -0.192199 -4.71635e-22)
(0.0329939 -0.203153 1.1391e-21)
(0.0222684 -0.209609 4.06117e-22)
(0.0129621 -0.215372 -4.15362e-22)
(0.0049732 -0.217138 1.50001e-23)
(0.000344048 -0.217798 -2.66209e-23)
(0.0638469 -0.150917 -5.44738e-21)
(0.0614478 -0.159305 6.71155e-21)
(0.0561676 -0.175653 -6.64878e-21)
(0.0494528 -0.190288 3.7179e-21)
(0.0402334 -0.200347 -4.47789e-21)
(0.0310442 -0.211964 0)
(0.0208898 -0.217869 -3.10976e-22)
(0.0120609 -0.223822 -3.38267e-23)
(0.00456869 -0.225235 -7.6731e-23)
(0.000240678 -0.225986 -2.821e-23)
(0.0586111 -0.1593 -2.49447e-21)
(0.0575839 -0.170043 0)
(0.052499 -0.182897 -6.34452e-21)
(0.0464778 -0.199178 9.4917e-21)
(0.037837 -0.207776 -3.17799e-21)
(0.0291087 -0.220007 -2.87484e-22)
(0.0196015 -0.225301 3.10269e-22)
(0.0112257 -0.231438 3.08316e-23)
(0.00422777 -0.232517 1.79879e-22)
(0.000141845 -0.233432 5.70074e-23)
(0.0533157 -0.165488 -1.01508e-20)
(0.0534223 -0.1812 9.89731e-21)
(0.048982 -0.189702 8.50672e-22)
(0.0434465 -0.207729 0)
(0.0355175 -0.214789 0)
(0.0272049 -0.227514 2.9685e-22)
(0.0183853 -0.232147 6.06493e-22)
(0.0104417 -0.238423 -5.947e-22)
(0.00392773 -0.239185 -3.72713e-23)
(6.56855e-05 -0.240339 3.63945e-23)
(0.0579888 -0.173134 0)
(0.0543705 -0.207423 0)
(0.0493115 -0.205379 0)
(0.0421406 -0.227439 0)
(0.0338595 -0.231191 0)
(0.024932 -0.244866 0)
(0.0165806 -0.247842 0)
(0.00905164 -0.254249 0)
(0.00342201 -0.25415 0)
(6.97486e-05 -0.255877 0)
(0.04248 -0.218602 0)
(0.03626 -0.250237 0)
(0.0340403 -0.243889 0)
(0.0278992 -0.26345 0)
(0.0231195 -0.263181 0)
(0.0167472 -0.275121 0)
(0.0114719 -0.275131 0)
(0.00625698 -0.280693 0)
(0.00257274 -0.279074 0)
(0.000143068 -0.281137 0)
(0.0385621 -0.26286 0)
(0.031047 -0.293204 0)
(0.0280186 -0.283159 0)
(0.0217285 -0.301887 0)
(0.0177625 -0.2981 0)
(0.0123824 -0.309337 0)
(0.0086132 -0.306801 0)
(0.00464961 -0.312145 0)
(0.00210859 -0.309182 0)
(0.000137641 -0.311717 0)
(0.0329698 -0.312483 0)
(0.0253274 -0.342206 0)
(0.0226841 -0.328801 0)
(0.0168354 -0.347368 0)
(0.0138977 -0.340425 0)
(0.00938443 -0.351717 0)
(0.00681325 -0.346949 0)
(0.0036727 -0.352619 0)
(0.00188716 -0.348342 0)
(0.000122511 -0.351575 0)
(0.0282057 -0.371154 0)
(0.0211414 -0.40046 0)
(0.0185163 -0.384835 0)
(0.0133105 -0.40362 0)
(0.0110914 -0.394349 0)
(0.00729437 -0.406184 0)
(0.00555417 -0.399646 0)
(0.00293637 -0.406028 0)
(0.00168513 -0.400593 0)
(7.26054e-05 -0.404777 0)
(0.0239625 -0.441325 0)
(0.0174815 -0.4687 0)
(0.0150802 -0.453381 0)
(0.0105106 -0.471677 0)
(0.00885004 -0.461766 0)
(0.00559062 -0.473799 0)
(0.00439197 -0.466482 0)
(0.00211109 -0.473458 0)
(0.00129874 -0.467447 0)
(-6.0519e-05 -0.472512 0)
(0.0189174 -0.519037 0)
(0.0137798 -0.541643 0)
(0.0117132 -0.530172 0)
(0.00802652 -0.545969 0)
(0.00665665 -0.537808 0)
(0.0039486 -0.548549 0)
(0.00300606 -0.542031 0)
(0.00108378 -0.548604 0)
(0.000651536 -0.543104 0)
(-0.000230329 -0.548318 0)
(0.0145226 -0.591846 0)
(0.0103392 -0.60807 0)
(0.00851672 -0.602291 0)
(0.00550996 -0.613456 0)
(0.00444945 -0.608761 0)
(0.00227354 -0.616411 0)
(0.00157671 -0.612061 0)
(6.84423e-05 -0.61676 0)
(2.34343e-05 -0.612836 0)
(-0.000338402 -0.616842 0)
(0.00873725 -0.645659 0)
(0.00591428 -0.654342 0)
(0.00490024 -0.654477 0)
(0.00306499 -0.660847 0)
(0.00247264 -0.66003 0)
(0.0010522 -0.663931 0)
(0.000610546 -0.662103 0)
(-0.000354788 -0.664199 0)
(-0.000225102 -0.662187 0)
(-0.000283229 -0.66414 0)
(0.0023025 -0.672006 0)
(0.00154311 -0.678885 0)
(0.00140633 -0.681588 0)
(0.00096635 -0.685474 0)
(0.00078695 -0.686178 0)
(0.000334503 -0.688142 0)
(0.000150279 -0.687501 0)
(-0.000160924 -0.68827 0)
(-0.000114421 -0.687268 0)
(-9.66262e-05 -0.688082 0)
(0.0521497 -0.186188 1.22347e-20)
(0.0418206 -0.232254 -1.20071e-20)
(0.0397769 -0.277865 1.51812e-21)
(0.0345165 -0.329129 0)
(0.0304172 -0.38831 0)
(0.0261452 -0.456931 1.63274e-21)
(0.02127 -0.53035 -6.86433e-21)
(0.0160753 -0.59627 6.7978e-21)
(0.0100389 -0.645516 1.80961e-21)
(0.00323832 -0.668418 -1.78371e-21)
(0.0505303 -0.192757 -1.45935e-20)
(0.0421159 -0.237969 0)
(0.0404249 -0.283227 1.00436e-20)
(0.0352929 -0.334517 -2.28913e-20)
(0.031437 -0.393541 1.44546e-20)
(0.0271361 -0.461435 -1.48108e-21)
(0.0223022 -0.533211 3.22623e-21)
(0.0167906 -0.597412 6.7021e-21)
(0.0106185 -0.644493 1.8354e-21)
(0.00362617 -0.66718 1.81259e-21)
(0.0494899 -0.199694 1.71782e-20)
(0.0430511 -0.244546 -1.13991e-20)
(0.0414589 -0.289003 1.1291e-20)
(0.0364268 -0.339707 -1.19565e-20)
(0.0327275 -0.398189 8.88441e-21)
(0.028329 -0.465087 0)
(0.0233782 -0.535139 -3.23424e-21)
(0.0175692 -0.597849 1.53194e-22)
(0.0111208 -0.642891 -3.47038e-21)
(0.00384588 -0.665753 -3.55522e-21)
(0.0490343 -0.205516 -2.77766e-21)
(0.0444388 -0.250479 0)
(0.0428583 -0.294444 0)
(0.0379423 -0.34464 0)
(0.0343121 -0.402611 9.63019e-21)
(0.029755 -0.468504 -6.41525e-21)
(0.0245727 -0.536892 -1.80015e-23)
(0.0184399 -0.597917 -3.732e-21)
(0.0115999 -0.641266 -1.89976e-21)
(0.00396438 -0.663776 -2.01397e-21)
(0.0493016 -0.210566 -2.85753e-23)
(0.0462099 -0.255325 -8.38056e-21)
(0.044558 -0.298916 -5.99675e-21)
(0.0397773 -0.348822 5.99305e-21)
(0.0361446 -0.406443 -3.1721e-21)
(0.0313914 -0.471477 0)
(0.0259311 -0.538394 -3.55631e-21)
(0.0194334 -0.597706 7.63662e-21)
(0.0121418 -0.639633 -3.89583e-21)
(0.00408228 -0.661377 3.96007e-21)
(0.0503687 -0.215114 -2.26714e-20)
(0.0484077 -0.259264 2.66114e-21)
(0.0465746 -0.302335 -2.48655e-22)
(0.0419029 -0.351998 6.14877e-21)
(0.038192 -0.409345 0)
(0.0332124 -0.473653 0)
(0.0274568 -0.539322 0)
(0.0205618 -0.597112 4.08002e-21)
(0.0127936 -0.637833 0)
(0.0042534 -0.65875 0)
(0.0522385 -0.219018 0)
(0.0510678 -0.262371 8.94757e-21)
(0.0489646 -0.304788 -6.01029e-21)
(0.044337 -0.354156 -6.68051e-21)
(0.040463 -0.411216 6.71533e-21)
(0.0352192 -0.474867 3.80443e-21)
(0.0291441 -0.53948 -3.79856e-21)
(0.0218225 -0.596016 -1.45664e-20)
(0.0135581 -0.635742 1.03901e-21)
(0.00448468 -0.655986 -3.4827e-21)
(0.054901 -0.222045 0)
(0.0541937 -0.264544 -2.94384e-21)
(0.051768 -0.30627 -1.6e-21)
(0.047105 -0.355323 0)
(0.0429863 -0.412069 1.87051e-21)
(0.0374347 -0.475114 -5.68158e-21)
(0.0310009 -0.538829 6.13832e-21)
(0.0232166 -0.594361 2.15316e-21)
(0.0144246 -0.633306 -2.33788e-21)
(0.00476643 -0.65308 4.62627e-21)
(0.0583564 -0.224031 2.8556e-21)
(0.057781 -0.265675 3.13091e-21)
(0.0550027 -0.306705 -7.3972e-22)
(0.0502192 -0.355476 8.80959e-22)
(0.0457873 -0.411916 1.82375e-21)
(0.0398842 -0.474436 2.97597e-21)
(0.0330419 -0.537415 -1.09331e-21)
(0.0247474 -0.592168 -1.16423e-21)
(0.0153805 -0.630531 2.3456e-21)
(0.00508746 -0.649999 1.26175e-21)
(0.0626072 -0.224863 -7.55619e-22)
(0.0618314 -0.265716 7.61688e-22)
(0.0586793 -0.306019 -8.21637e-22)
(0.0536818 -0.35458 -8.79874e-22)
(0.0488814 -0.410735 9.97127e-22)
(0.042585 -0.472845 -2.02459e-21)
(0.0352868 -0.535257 1.66766e-21)
(0.0264303 -0.589445 5.86534e-22)
(0.0164311 -0.627419 0)
(0.00544848 -0.646712 -1.26454e-21)
(0.0676512 -0.224439 7.74346e-22)
(0.0663474 -0.264681 -7.80919e-22)
(0.062808 -0.304173 -8.77218e-22)
(0.0574921 -0.352619 -9.43978e-22)
(0.0522814 -0.408506 -1.0363e-21)
(0.0455467 -0.470361 -5.56486e-23)
(0.0377435 -0.532397 5.88058e-22)
(0.0282664 -0.58624 1.86743e-21)
(0.0175715 -0.624001 0)
(0.00584547 -0.643215 -1.37108e-21)
(0.0734791 -0.222718 0)
(0.0713237 -0.262606 -3.42406e-21)
(0.0673993 -0.30117 6.14742e-21)
(0.061648 -0.349609 9.45629e-22)
(0.0559953 -0.405226 2.12004e-21)
(0.0487764 -0.466958 3.39057e-21)
(0.0404329 -0.528789 -1.18533e-21)
(0.0302803 -0.582507 -1.26333e-21)
(0.0188246 -0.620242 2.76114e-21)
(0.00629005 -0.639489 1.36786e-21)
(0.0800771 -0.21977 0)
(0.0767513 -0.259515 -3.44614e-21)
(0.0724557 -0.297096 -1.82419e-21)
(0.0661467 -0.34557 0)
(0.0600391 -0.400938 -6.60404e-21)
(0.0522771 -0.462688 2.22095e-21)
(0.043344 -0.524522 2.53763e-21)
(0.0324504 -0.578334 8.06387e-21)
(0.0201658 -0.616191 -2.75219e-21)
(0.00676663 -0.635545 5.89811e-21)
(0.087429 -0.215731 0)
(0.0826192 -0.255398 3.47571e-21)
(0.0779764 -0.292043 0)
(0.0709928 -0.340539 8.6096e-21)
(0.0644104 -0.39569 -8.65374e-21)
(0.056063 -0.457467 -5.01817e-21)
(0.0465127 -0.51946 -7.40123e-23)
(0.0348288 -0.573573 -8.27186e-21)
(0.0216472 -0.611745 -1.37956e-21)
(0.0073021 -0.631308 -7.33624e-21)
(0.0955162 -0.210785 2.689e-20)
(0.0889187 -0.25026 -1.01861e-20)
(0.0839219 -0.286256 6.37862e-22)
(0.0761899 -0.33451 -8.29955e-21)
(0.069138 -0.389541 0)
(0.0601319 -0.451439 -5.21428e-21)
(0.0498862 -0.51384 -3.4392e-22)
(0.0373479 -0.568444 1.12254e-20)
(0.0232054 -0.607047 1.51804e-21)
(0.00785942 -0.626884 -1.5237e-21)
(0.104303 -0.205131 -1.42761e-21)
(0.0956341 -0.244049 1.83606e-20)
(0.0903114 -0.279601 8.61036e-21)
(0.0817966 -0.327312 -8.60457e-21)
(0.0742128 -0.382332 -4.91857e-21)
(0.0645373 -0.444373 0)
(0.0535656 -0.507272 -1.14798e-20)
(0.0401367 -0.562587 5.75546e-21)
(0.0249506 -0.601878 6.06829e-21)
(0.00849486 -0.622133 6.45734e-21)
(0.113728 -0.199094 -3.68508e-21)
(0.10281 -0.236758 0)
(0.097075 -0.272248 0)
(0.0877509 -0.319556 0)
(0.0795521 -0.374701 -5.50867e-21)
(0.0691546 -0.437098 1.04097e-20)
(0.0573667 -0.500655 1.16731e-20)
(0.0429711 -0.556721 -1.82219e-20)
(0.0266917 -0.596639 3.22427e-21)
(0.00910147 -0.61728 -9.59025e-21)
(0.12369 -0.192486 -6.44308e-21)
(0.110539 -0.228187 1.72009e-20)
(0.104163 -0.263893 -1.70369e-20)
(0.0941396 -0.310586 2.01246e-20)
(0.0853307 -0.365555 -2.52162e-20)
(0.0742608 -0.428128 0)
(0.0616741 -0.492421 -6.08554e-21)
(0.046275 -0.549638 -2.25022e-22)
(0.0287726 -0.590668 -6.67707e-21)
(0.00986104 -0.611913 -6.78125e-21)
(0.133767 -0.186325 -3.92939e-21)
(0.118558 -0.220107 0)
(0.111241 -0.256393 -2.17494e-20)
(0.100563 -0.302764 4.00443e-20)
(0.0910573 -0.35792 -1.52993e-20)
(0.0792189 -0.420906 -2.92847e-21)
(0.0657268 -0.485819 6.07259e-21)
(0.0492772 -0.543643 -2.65927e-22)
(0.0305989 -0.585143 9.76993e-21)
(0.0104502 -0.606693 1.0035e-20)
(0.144506 -0.177329 -1.70473e-20)
(0.128249 -0.20838 1.66668e-20)
(0.119558 -0.244845 2.34649e-21)
(0.108257 -0.290404 0)
(0.0980247 -0.345328 0)
(0.0854774 -0.408727 2.83749e-21)
(0.0710764 -0.475032 1.25883e-20)
(0.0534399 -0.534854 -1.22836e-20)
(0.0332591 -0.578133 -3.30699e-21)
(0.0114456 -0.600471 3.24944e-21)
(0.155632 -0.17897 0)
(0.148774 -0.204036 0)
(0.135565 -0.242096 0)
(0.122687 -0.286651 0)
(0.110878 -0.340529 0)
(0.0964836 -0.402065 0)
(0.0799644 -0.466073 0)
(0.0599441 -0.523595 0)
(0.0371342 -0.565433 0)
(0.0123619 -0.587569 0)
(0.178556 -0.161883 0)
(0.184267 -0.191543 0)
(0.163242 -0.233132 0)
(0.15081 -0.276772 0)
(0.136218 -0.329929 0)
(0.118665 -0.388999 0)
(0.0983801 -0.449137 0)
(0.0738797 -0.502031 0)
(0.0460993 -0.539422 0)
(0.0162333 -0.557805 0)
(0.210924 -0.144616 0)
(0.221953 -0.175063 0)
(0.192935 -0.216194 0)
(0.182886 -0.258033 0)
(0.163903 -0.310052 0)
(0.142668 -0.365704 0)
(0.117711 -0.42187 0)
(0.0879071 -0.471337 0)
(0.054246 -0.507227 0)
(0.017732 -0.526832 0)
(0.252341 -0.132599 0)
(0.264967 -0.161639 0)
(0.22943 -0.201602 0)
(0.222754 -0.242235 0)
(0.197269 -0.29276 0)
(0.172418 -0.343684 0)
(0.141796 -0.395039 0)
(0.105768 -0.438914 0)
(0.0657223 -0.46926 0)
(0.0233561 -0.483242 0)
(0.302116 -0.117228 0)
(0.313055 -0.143981 0)
(0.272547 -0.181202 0)
(0.267097 -0.218696 0)
(0.231698 -0.264266 0)
(0.202912 -0.308314 0)
(0.16447 -0.354402 0)
(0.121513 -0.393622 0)
(0.0740823 -0.422877 0)
(0.0232554 -0.440532 0)
(0.362927 -0.107716 0)
(0.369861 -0.131674 0)
(0.325858 -0.165919 0)
(0.318152 -0.198729 0)
(0.271995 -0.238647 0)
(0.240894 -0.276635 0)
(0.193139 -0.31761 0)
(0.142766 -0.349774 0)
(0.0879579 -0.372424 0)
(0.0325401 -0.380496 0)
(0.428363 -0.087157 0)
(0.426872 -0.106464 0)
(0.380108 -0.135093 0)
(0.365434 -0.16082 0)
(0.309281 -0.193652 0)
(0.274694 -0.224106 0)
(0.212391 -0.256993 0)
(0.155025 -0.282532 0)
(0.0910226 -0.30695 0)
(0.0244691 -0.327475 0)
(0.500099 -0.0743931 0)
(0.488447 -0.0888154 0)
(0.442807 -0.11196 0)
(0.417981 -0.131031 0)
(0.357979 -0.157619 0)
(0.316271 -0.180304 0)
(0.242606 -0.206524 0)
(0.181524 -0.228353 0)
(0.109598 -0.250006 0)
(0.0486723 -0.250004 0)
(0.552669 -0.0399033 0)
(0.532161 -0.0471922 0)
(0.479763 -0.0612227 0)
(0.443678 -0.0709355 0)
(0.375447 -0.0869338 0)
(0.321674 -0.0978581 0)
(0.234749 -0.113521 0)
(0.164319 -0.125946 0)
(0.0752053 -0.149314 0)
(-0.0141031 -0.196048 0)
(0.751323 -0.0199969 0)
(0.725897 -0.0237076 0)
(0.680463 -0.0293575 0)
(0.639205 -0.0343981 0)
(0.577191 -0.0419521 0)
(0.517365 -0.0490082 0)
(0.433894 -0.0600491 0)
(0.348735 -0.0739179 0)
(0.234791 -0.102231 0)
(0.161678 -0.157688 0)
(0.185313 -0.157306 1.82128e-20)
(0.211643 -0.13808 -1.79345e-20)
(0.244986 -0.121982 2.67894e-21)
(0.285597 -0.111048 0)
(0.334494 -0.0976989 0)
(0.392534 -0.0894204 3.60063e-21)
(0.455728 -0.0716647 -1.65216e-20)
(0.523029 -0.0616817 1.63587e-20)
(0.579465 -0.0319881 4.58221e-21)
(0.772261 -0.0170089 -4.60771e-21)
(0.193867 -0.148168 -1.84558e-20)
(0.219468 -0.128238 0)
(0.252709 -0.112971 1.8422e-20)
(0.293385 -0.102537 -4.36123e-20)
(0.342415 -0.0899819 2.87006e-20)
(0.400264 -0.082194 -3.30366e-21)
(0.463307 -0.0654944 7.09455e-21)
(0.529923 -0.056602 1.55288e-20)
(0.588758 -0.0288224 4.24555e-21)
(0.779923 -0.0157422 4.13755e-21)
(0.201339 -0.137797 2.15391e-20)
(0.225653 -0.117939 -1.85067e-20)
(0.258125 -0.10383 1.83321e-20)
(0.298495 -0.0939961 -2.28524e-20)
(0.347474 -0.0823219 1.6703e-20)
(0.405308 -0.0751335 0)
(0.468407 -0.0595839 -7.11197e-21)
(0.534973 -0.0518985 -7.12825e-23)
(0.596412 -0.0259933 -8.04241e-21)
(0.786605 -0.0145498 -8.30326e-21)
(0.209224 -0.126676 -3.64266e-21)
(0.233013 -0.107367 0)
(0.264723 -0.094528 0)
(0.304625 -0.0853653 0)
(0.353351 -0.0746641 1.83418e-20)
(0.41094 -0.0681918 -1.24001e-20)
(0.473914 -0.0538896 -3.36393e-22)
(0.540252 -0.0474817 -7.91868e-21)
(0.603699 -0.0234515 -4.05243e-21)
(0.792953 -0.0134462 -4.10785e-21)
(0.216579 -0.11514 2.22798e-21)
(0.240267 -0.0967398 -1.13083e-20)
(0.271292 -0.0851756 -9.98766e-21)
(0.311011 -0.0767397 9.98163e-21)
(0.359604 -0.0670602 -5.85969e-21)
(0.417016 -0.0613842 0)
(0.479856 -0.0483715 -7.04316e-21)
(0.545869 -0.043242 1.53663e-20)
(0.610866 -0.0210932 -7.74212e-21)
(0.799061 -0.012413 8.23937e-21)
(0.223096 -0.10326 -2.80081e-20)
(0.246579 -0.0860968 2.36773e-21)
(0.27683 -0.0758216 -1.08078e-21)
(0.316519 -0.0682212 9.85808e-21)
(0.365113 -0.0595901 0)
(0.422542 -0.0547704 0)
(0.485379 -0.0430447 0)
(0.551211 -0.0391502 7.45561e-21)
(0.617622 -0.0188646 0)
(0.804769 -0.0114325 0)
(0.228781 -0.0910494 0)
(0.251808 -0.0754045 1.26406e-20)
(0.281314 -0.0664455 -8.6486e-21)
(0.3209 -0.0598101 -1.08404e-20)
(0.36946 -0.0522686 1.08969e-20)
(0.42699 -0.0483679 6.57254e-21)
(0.489943 -0.0379224 -6.31489e-21)
(0.555791 -0.0352203 -2.5853e-20)
(0.623631 -0.0167564 1.83778e-21)
(0.809896 -0.0105013 -6.03565e-21)
(0.233554 -0.0785268 0)
(0.255964 -0.0646428 -4.00351e-21)
(0.284847 -0.0570357 -2.26909e-21)
(0.324239 -0.0514579 0)
(0.372687 -0.045053 3.11888e-21)
(0.43035 -0.0421489 -9.12402e-21)
(0.493373 -0.0329816 1.03847e-20)
(0.559494 -0.031445 3.85912e-21)
(0.628714 -0.014767 -3.85572e-21)
(0.814362 -0.00961726 8.07377e-21)
(0.237271 -0.065706 3.05032e-21)
(0.259021 -0.0537985 4.22082e-21)
(0.287383 -0.0475879 -8.67622e-22)