/*--------------------------------*- C++ -*----------------------------------*\
  =========                 |
  \\      /  F ield         | OpenFOAM: The Open Source CFD Toolbox
   \\    /   O peration     | Website:  https://openfoam.org
    \\  /    A nd           | Version:  7
     \\/     M anipulation  |
\*---------------------------------------------------------------------------*/
FoamFile
{
    version     2.0;
    format      ascii;
    class       volVectorField;
    location    "54.3";
    object      U;
}
// * * * * * * * * * * * * * * * * * * * * * * * * * * * * * * * * * * * * * //

dimensions      [0 1 -1 0 0 0 0];

internalField   nonuniform List<vector> 
2000
(
(-0.000755108 -0.00760222 -7.62404e-22)
(-0.00208215 -0.012218 0)
(-0.00274445 -0.0108921 0)
(-0.00189227 -0.00529028 -3.77191e-21)
(0.000465333 0.00380133 1.17839e-21)
(0.00422782 0.0159711 2.15796e-23)
(0.00921574 0.0309045 -2.03251e-21)
(0.0151626 0.0482309 0)
(0.0216527 0.0674417 0)
(0.0282605 0.0878318 0)
(-0.00041211 -0.00676629 0)
(-0.00162007 -0.0114942 -2.93753e-21)
(-0.00257083 -0.0109423 2.70901e-21)
(-0.00232064 -0.00648552 5.0241e-21)
(-0.000827489 0.00120535 0)
(0.00187193 0.01181 4.44739e-21)
(0.00568058 0.0251248 -4.13568e-21)
(0.0104232 0.0409208 0)
(0.015751 0.0588562 7.47987e-21)
(0.0212336 0.078429 -1.44301e-20)
(-0.00013245 -0.00583266 0)
(-0.000983157 -0.0106253 2.3747e-20)
(-0.00181689 -0.0107837 0)
(-0.00175492 -0.00740694 2.06166e-20)
(-0.000746411 -0.00107816 0)
(0.00120351 0.00793706 -1.81114e-20)
(0.00405771 0.0195139 0)
(0.00772474 0.0335533 1.60601e-20)
(0.0119431 0.0498998 -1.50409e-20)
(0.0162486 0.0683069 -1.47323e-20)
(0.000111833 -0.00489097 -6.26732e-21)
(-8.1775e-05 -0.00972123 -1.18022e-20)
(-0.000328635 -0.0104714 -5.52356e-21)
(2.56896e-05 -0.00801808 -1.01791e-20)
(0.00100422 -0.0028889 -9.64086e-21)
(0.00260277 0.00466113 8.92938e-21)
(0.0048174 0.0145401 8.53788e-21)
(0.0076243 0.0267426 3.26423e-23)
(0.0108686 0.0412964 1.52906e-20)
(0.0140324 0.0582389 1.47331e-20)
(0.000374805 -0.00404078 -6.2818e-21)
(0.00120035 -0.00890096 -1.20626e-20)
(0.00205318 -0.0100734 -2.25923e-20)
(0.00322192 -0.00830357 1.03886e-20)
(0.00467645 -0.00409525 0)
(0.00638984 0.00226656 0)
(0.00836634 0.0106701 -1.75397e-20)
(0.0106263 0.0211471 -1.65623e-20)
(0.0131377 0.0338752 1.57029e-20)
(0.0153469 0.0491619 4.53344e-20)
(0.000734662 -0.00337576 6.31191e-21)
(0.00299666 -0.00827513 6.12843e-21)
(0.00547349 -0.00966242 -3.38609e-20)
(0.00798032 -0.00827839 5.29242e-20)
(0.0104237 -0.00462677 -9.82039e-21)
(0.0127429 0.000948442 0)
(0.0149344 0.008269 0)
(0.0170388 0.0173381 8.35684e-20)
(0.019154 0.0284198 -7.88283e-20)
(0.0207664 0.0420269 1.50663e-20)
(0.00129012 -0.00297259 5.00894e-20)
(0.00544455 -0.00792546 0)
(0.010043 -0.00930496 4.51267e-20)
(0.0143619 -0.00798734 -4.2293e-20)
(0.0182522 -0.00449436 0)
(0.0216229 0.000756895 1.89332e-20)
(0.0244617 0.00749528 -5.31564e-20)
(0.0268147 0.0156365 -6.72579e-20)
(0.0289008 0.0254465 3.16526e-20)
(0.0303749 0.0375466 3.05772e-20)
(0.00214978 -0.00286991 -9.99586e-20)
(0.00867448 -0.00789356 -1.21934e-20)
(0.0158187 -0.00904679 -2.27004e-20)
(0.0223201 -0.00749309 -5.31438e-20)
(0.0279915 -0.0037905 -2.01789e-20)
(0.032731 0.00157353 -1.90221e-20)
(0.0365299 0.0082364 -4.04568e-23)
(0.0394392 0.0159945 0)
(0.0417792 0.0250294 0)
(0.0435288 0.0359629 1.48908e-22)
(0.00341509 -0.00306517 4.98701e-20)
(0.0127874 -0.00816768 -4.83951e-20)
(0.0227903 -0.0088944 3.39281e-20)
(0.0316885 -0.00685875 7.46644e-20)
(0.0392919 -0.00267033 -1.9862e-20)
(0.0455211 0.00312742 1.90522e-20)
(0.0503942 0.0101116 1.79293e-20)
(0.0539662 0.0179837 0)
(0.0566006 0.0268139 0)
(0.0587361 0.0371125 -2.83061e-22)
(0.00517535 -0.00351666 -6.18293e-21)
(0.0178342 -0.00866991 6.06085e-20)
(0.0308611 -0.00880789 -1.12554e-20)
(0.0421753 -0.00613341 0)
(0.051641 -0.00132572 0)
(0.0592587 0.00503196 3.7663e-20)
(0.0651296 0.0125058 0)
(0.069355 0.0207983 -3.34656e-20)
(0.072231 0.0299695 -3.01035e-22)
(0.0743318 0.0403225 3.01656e-20)
(0.0448514 0.13438 5.75433e-22)
(0.0632001 0.209904 -5.8239e-22)
(0.0658977 0.26853 -6.74548e-22)
(0.0620666 0.323298 -7.47053e-22)
(0.0532052 0.382679 -8.61764e-22)
(0.0466954 0.450759 -1.95637e-23)
(0.0324999 0.529387 4.5141e-22)
(0.0283962 0.62158 1.51433e-21)
(0.00526575 0.741142 0)
(0.00924579 0.879808 -1.08649e-21)
(0.0355895 0.124777 2.14259e-21)
(0.0567061 0.20412 -2.54369e-21)
(0.0617383 0.266972 4.56847e-21)
(0.0590958 0.323757 7.48344e-22)
(0.0509022 0.383994 1.58967e-21)
(0.0448426 0.452565 2.61433e-21)
(0.031228 0.531655 -9.47584e-22)
(0.0273272 0.624342 -1.01253e-21)
(0.00510644 0.743835 2.01532e-21)
(0.00875709 0.881479 1.0839e-21)
(0.027373 0.1138 0)
(0.0504325 0.196106 -2.42554e-21)
(0.0579347 0.263787 -1.33364e-21)
(0.0565128 0.323009 0)
(0.04893 0.384259 -4.85099e-21)
(0.0432771 0.453421 1.55512e-21)
(0.0301583 0.533078 1.693e-21)
(0.0264084 0.626381 5.64432e-21)
(0.0050189 0.746154 -2.0088e-21)
(0.00831801 0.88298 4.02331e-21)
(0.0209419 0.10207 0)
(0.0443921 0.185816 2.44612e-21)
(0.0544674 0.258878 0)
(0.0542933 0.320991 5.8855e-21)
(0.0472766 0.383437 -5.9158e-21)
(0.0419873 0.453245 -3.38495e-21)
(0.0292836 0.533454 -1.41693e-22)
(0.0256476 0.627379 -5.53928e-21)
(0.00500538 0.747606 -9.17602e-22)
(0.00790485 0.884059 -4.9648e-21)
(0.0173772 0.0904095 3.58385e-22)
(0.0387177 0.173414 -7.00124e-21)
(0.0513131 0.252158 3.07819e-22)
(0.0524045 0.317666 -5.39273e-21)
(0.0459239 0.381624 0)
(0.0409449 0.452264 -3.28659e-21)
(0.0285752 0.533203 -1.73441e-22)
(0.0250158 0.627971 7.10806e-21)
(0.00503432 0.748913 9.25877e-22)
(0.00753291 0.885096 -9.29184e-22)
(0.0178703 0.0797454 -1.91147e-20)
(0.0337559 0.159411 1.22298e-20)
(0.0484535 0.24357 5.33581e-21)
(0.0508231 0.312916 -5.33291e-21)
(0.0448662 0.378618 -2.88712e-21)
(0.0401578 0.450084 0)
(0.0280463 0.531652 -6.57311e-21)
(0.0245305 0.627176 3.26649e-21)
(0.00513064 0.748976 3.47586e-21)
(0.00717001 0.885588 3.55387e-21)
(0.0232267 0.0709571 -2.38412e-21)
(0.0301459 0.144711 0)
(0.0458819 0.233114 0)
(0.0495099 0.306895 0)
(0.0440794 0.374939 -3.01192e-21)
(0.0395771 0.447625 5.8899e-21)
(0.0276483 0.530161 6.46069e-21)
(0.0241274 0.626742 -9.87611e-21)
(0.00522539 0.749571 1.70954e-21)
(0.0068547 0.886306 -5.21285e-21)
(0.0333549 0.0645677 1.47974e-20)
(0.0287907 0.130497 1.04024e-20)
(0.0436949 0.220869 -1.03088e-20)
(0.0484687 0.298979 1.1056e-20)
(0.0435593 0.369357 -1.37353e-20)
(0.0392615 0.44309 0)
(0.0274388 0.526332 -3.02059e-21)
(0.0238903 0.623833 9.6613e-23)
(0.00541855 0.748046 -3.1896e-21)
(0.00652723 0.886221 -3.256e-21)
(0.0470154 0.0602209 -1.268e-20)
(0.0306515 0.117344 0)
(0.0419944 0.207658 -1.19523e-20)
(0.0476828 0.291116 2.14705e-20)
(0.0432825 0.364918 -8.01157e-21)
(0.0390615 0.440405 -1.42177e-21)
(0.0272917 0.52478 3.01421e-21)
(0.0236396 0.623377 1.43736e-23)
(0.00551882 0.748599 4.65371e-21)
(0.00626474 0.88684 4.76122e-21)
(0.0617398 0.05793 -1.06166e-20)
(0.0366056 0.10483 1.0377e-20)
(0.0414878 0.190101 1.31612e-21)
(0.0470531 0.276929 0)
(0.0432304 0.354065 0)
(0.0392786 0.431436 1.37334e-21)
(0.0274369 0.517046 5.62147e-21)
(0.0236941 0.617233 -5.45733e-21)
(0.00584574 0.744875 -1.40415e-21)
(0.00595673 0.886139 1.36103e-21)
(0.0843939 0.0694062 0)
(0.0530025 0.103827 0)
(0.0455638 0.178791 0)
(0.0485324 0.271605 0)
(0.0436362 0.354603 0)
(0.0390215 0.434771 0)
(0.0273501 0.520894 0)
(0.0230203 0.62162 0)
(0.00580969 0.748879 0)
(0.00547392 0.888167 0)
(0.0998249 0.0975069 0)
(0.075696 0.134295 0)
(0.0561688 0.190138 0)
(0.0523115 0.275069 0)
(0.0456615 0.360416 0)
(0.0382999 0.442693 0)
(0.0259765 0.530673 0)
(0.0212394 0.633265 0)
(0.00560044 0.760064 0)
(0.00489974 0.895106 0)
(0.102749 0.10812 0)
(0.0891029 0.155824 0)
(0.0679072 0.206751 0)
(0.0573567 0.283706 0)
(0.0494738 0.368937 0)
(0.0416238 0.451685 0)
(0.0284239 0.53857 0)
(0.0218189 0.640423 0)
(0.00627893 0.76646 0)
(0.00466784 0.898174 0)
(0.0980735 0.112098 0)
(0.0925647 0.170224 0)
(0.0758993 0.223222 0)
(0.0621606 0.295782 0)
(0.0507528 0.380026 0)
(0.0408577 0.463475 0)
(0.0279415 0.551041 0)
(0.0212251 0.653252 0)
(0.00671461 0.77851 0)
(0.00442905 0.906089 0)
(0.08913 0.112171 0)
(0.0888457 0.178593 0)
(0.078098 0.236019 0)
(0.0662606 0.306906 0)
(0.0555521 0.390847 0)
(0.0446747 0.474078 0)
(0.0302719 0.559911 0)
(0.0220185 0.660284 0)
(0.00752434 0.783923 0)
(0.00440415 0.908603 0)
(0.0764498 0.109976 0)
(0.079889 0.182583 0)
(0.0746216 0.246731 0)
(0.0643492 0.31916 0)
(0.0530991 0.403011 0)
(0.0427363 0.487547 0)
(0.0295195 0.574411 0)
(0.0213048 0.675076 0)
(0.00772653 0.797514 0)
(0.00416459 0.917943 0)
(0.0616275 0.105171 0)
(0.0678878 0.180563 0)
(0.0689255 0.250533 0)
(0.0648659 0.32747 0)
(0.0559896 0.413423 0)
(0.0450064 0.497598 0)
(0.0310258 0.582509 0)
(0.0218787 0.680955 0)
(0.00823805 0.801808 0)
(0.00414008 0.920148 0)
(0.0462246 0.0990181 0)
(0.0537719 0.176782 0)
(0.0567053 0.251845 0)
(0.0549628 0.333005 0)
(0.0492397 0.422697 0)
(0.041158 0.511029 0)
(0.0293302 0.598459 0)
(0.0208768 0.697604 0)
(0.00831822 0.816886 0)
(0.00392223 0.930843 0)
(0.032196 0.089718 0)
(0.0430196 0.168491 0)
(0.051581 0.249869 0)
(0.0541713 0.337378 0)
(0.0497426 0.429509 0)
(0.0417129 0.517391 0)
(0.0298626 0.603396 0)
(0.0210485 0.700917 0)
(0.00850007 0.819251 0)
(0.00389499 0.932042 0)
(0.0154677 0.0771548 0)
(0.023926 0.153704 0)
(0.0333869 0.237351 0)
(0.040378 0.332336 0)
(0.0413157 0.433868 0)
(0.0372814 0.529804 0)
(0.0281493 0.620188 0)
(0.0202572 0.718975 0)
(0.0086993 0.83547 0)
(0.00371179 0.9436 0)
(0.104625 0.0562129 8.95591e-21)
(0.110851 0.0686319 -8.81132e-21)
(0.108471 0.0709553 7.79995e-22)
(0.100977 0.0699402 0)
(0.0898699 0.0664862 0)
(0.0751098 0.0621418 2.07169e-22)
(0.0583253 0.0564249 -1.59581e-22)
(0.0413134 0.0499052 1.57047e-22)
(0.0262269 0.0419598 -4.32061e-23)
(0.0111646 0.0309694 4.25903e-23)
(0.109928 0.0504279 -1.1549e-20)
(0.110744 0.0569255 0)
(0.10606 0.0557163 4.38085e-21)
(0.0975716 0.0525468 -8.66172e-21)
(0.0861544 0.0475371 4.23194e-21)
(0.0714811 0.0421913 -2.0371e-22)
(0.0550345 0.0359325 1.29899e-22)
(0.0384025 0.0292164 -7.36847e-23)
(0.0235546 0.0217221 -7.53347e-23)
(0.00953784 0.0112962 -4.5881e-23)
(0.112432 0.0433918 1.29613e-20)
(0.109875 0.0449233 -6.24194e-21)
(0.103962 0.0408419 6.18156e-21)
(0.0947659 0.0356789 -3.32813e-21)
(0.0830097 0.0290369 2.61829e-21)
(0.0682761 0.0225316 0)
(0.0520123 0.0155154 -1.30195e-22)
(0.0356828 0.00849723 -4.53319e-24)
(0.0210363 0.00131539 8.33397e-23)
(0.00779833 -0.00838966 9.0169e-23)
(0.113147 0.0342991 -1.98971e-21)
(0.108001 0.0316157 0)
(0.101311 0.0252356 0)
(0.0916521 0.0184357 0)
(0.0797607 0.0103888 1.54485e-21)
(0.0651222 0.00289516 -9.39748e-22)
(0.0491288 -0.00481671 6.73998e-23)
(0.0331452 -0.0120956 9.44213e-23)
(0.0187512 -0.0190864 4.02974e-23)
(0.00648801 -0.0278928 3.56204e-23)
(0.112211 0.023365 -1.13617e-21)
(0.10519 0.0172286 -5.24999e-21)
(0.0980733 0.00894061 -2.11571e-21)
(0.0881284 0.000800421 2.11408e-21)
(0.0762384 -0.00843467 -5.97624e-22)
(0.0618293 -0.0167144 0)
(0.0462085 -0.0249939 -1.08733e-22)
(0.0306712 -0.0324487 -7.53295e-23)
(0.0166813 -0.0392752 4.9013e-23)
(0.00528284 -0.0470794 -7.66471e-23)
(0.109933 0.0109998 -1.39849e-20)
(0.101665 0.00215099 2.32683e-21)
(0.0943893 -0.0077865 6.25532e-22)
(0.0843103 -0.0170191 2.03145e-21)
(0.0725439 -0.0272664 0)
(0.0584434 -0.0361548 0)
(0.0432689 -0.0448731 0)
(0.0282514 -0.0524155 -9.63625e-24)
(0.0147824 -0.059039 0)
(0.00422725 -0.065796 0)
(0.106556 -0.00237878 0)
(0.0975615 -0.0132457 3.97388e-21)
(0.0903581 -0.0246664 -2.56944e-21)
(0.0802532 -0.0347701 -1.38635e-21)
(0.0687224 -0.0458778 1.39343e-21)
(0.0549978 -0.0552281 2.12828e-22)
(0.0403378 -0.0642742 -2.82151e-22)
(0.0259006 -0.0718135 -3.96093e-23)
(0.0130381 -0.0781632 -1.14293e-24)
(0.00334336 -0.0838676 3.12163e-23)
(0.102272 -0.0163984 0)
(0.0930159 -0.0286403 -1.40537e-21)
(0.0860198 -0.0414268 -5.55031e-22)
(0.0759944 -0.052188 0)
(0.0647953 -0.0640313 1.54517e-22)
(0.0515278 -0.0737225 -5.98434e-22)
(0.0374327 -0.0829906 1.62679e-22)
(0.0236337 -0.090438 -3.18047e-23)
(0.0114467 -0.0964309 1.4796e-23)
(0.00261795 -0.101114 -4.42648e-23)
(0.0972121 -0.0307512 1.76621e-21)
(0.0881198 -0.0437484 1.2348e-21)
(0.081401 -0.0578092 -4.15923e-22)
(0.071578 -0.0690394 2.06497e-22)
(0.0607973 -0.0814969 2.78734e-22)
(0.0480577 -0.091423 2.46642e-22)
(0.0345723 -0.100807 -4.0902e-23)
(0.0214675 -0.10808 -1.10827e-23)
(0.0100091 -0.113636 -1.48444e-23)
(0.00203222 -0.117364 -5.36336e-24)
(0.0915143 -0.0451346 -3.7298e-22)
(0.0829214 -0.0583433 3.76511e-22)
(0.0765744 -0.0735903 -2.75719e-22)
(0.0670589 -0.0851165 -2.06177e-22)
(0.0567598 -0.0980625 1.15422e-22)
(0.0446162 -0.108131 -2.01554e-22)
(0.031781 -0.117521 5.52843e-23)
(0.0194216 -0.124546 -3.40487e-24)
(0.00872529 -0.129601 0)
(0.00156682 -0.132472 5.37376e-24)
(0.085423 -0.0592938 3.75802e-22)
(0.0775546 -0.0722575 -3.79085e-22)
(0.0716484 -0.0885857 -2.81594e-22)
(0.0625333 -0.100254 -2.13808e-22)
(0.0527465 -0.113548 -1.20986e-22)
(0.0412541 -0.123682 2.49861e-23)
(0.0290944 -0.132961 3.61923e-23)
(0.0175171 -0.139685 4.06813e-23)
(0.00759332 -0.144199 0)
(0.00120202 -0.146335 1.29186e-25)
(0.0792137 -0.0730573 0)
(0.0722032 -0.0853797 -1.26273e-21)
(0.0667602 -0.102647 2.13009e-21)
(0.0581227 -0.114333 2.14117e-22)
(0.04884 -0.127813 3.18167e-22)
(0.0380326 -0.137956 3.05691e-22)
(0.0265529 -0.147004 -5.3634e-23)
(0.0157728 -0.153402 -2.30354e-23)
(0.00660823 -0.157361 2.12541e-23)
(0.000918892 -0.158899 -1.28859e-25)
(0.0730794 -0.0863128 0)
(0.066995 -0.097661 -1.43805e-21)
(0.061995 -0.115665 -5.77233e-22)
(0.053907 -0.127293 0)
(0.0450976 -0.140765 -8.58925e-22)
(0.0349954 -0.15089 3.35387e-22)
(0.0241877 -0.159593 1.75796e-22)
(0.0141992 -0.165668 2.40674e-22)
(0.00576192 -0.16908 -2.11848e-23)
(0.000700461 -0.170165 1.75486e-23)
(0.0671474 -0.0989842 0)
(0.0620103 -0.109126 1.44992e-21)
(0.0573973 -0.127574 0)
(0.0499282 -0.139139 1.60873e-21)
(0.0415541 -0.152377 -1.61712e-21)
(0.0321656 -0.162488 -3.74906e-22)
(0.0220178 -0.17074 1.04758e-22)
(0.0127975 -0.176525 -2.55375e-22)
(0.00504361 -0.179417 -4.51734e-23)
(0.000531876 -0.180185 -2.88358e-23)
(0.061522 -0.111022 1.44678e-20)
(0.0573265 -0.119877 -5.43802e-21)
(0.0530138 -0.138358 -5.48783e-22)
(0.0462211 -0.149939 -2.2142e-21)
(0.038243 -0.162687 0)
(0.0295576 -0.172817 -4.06972e-22)
(0.0200543 -0.180526 1.5946e-22)
(0.0115613 -0.186073 4.17464e-22)
(0.00444093 -0.188479 1.44981e-23)
(0.00040035 -0.189057 -1.44688e-23)
(0.0562752 -0.122376 1.16527e-21)
(0.0530221 -0.130085 8.45858e-21)
(0.0489045 -0.148044 2.30325e-21)
(0.0428176 -0.159811 -2.30192e-21)
(0.0352008 -0.171793 -7.75006e-22)
(0.0271803 -0.181993 0)
(0.0183025 -0.189083 -6.37865e-22)
(0.0104799 -0.194457 3.39176e-22)
(0.0039413 -0.196417 1.54369e-22)
(0.000295257 -0.196911 3.86855e-23)
(0.0514907 -0.132965 -2.00544e-21)
(0.0492162 -0.139983 0)
(0.0451722 -0.156705 0)
(0.0397628 -0.168901 0)
(0.0324773 -0.179844 -5.87471e-22)
(0.0250457 -0.190167 1.36108e-21)
(0.0167667 -0.196583 6.63967e-22)
(0.00954207 -0.201845 -7.58708e-22)
(0.00353336 -0.2034 4.02149e-23)
(0.000207873 -0.203901 -7.80637e-23)
(0.0471935 -0.142638 -4.63319e-21)
(0.0459547 -0.149826 6.26031e-21)
(0.0418649 -0.164451 -6.20156e-21)
(0.0370443 -0.177356 3.91225e-21)
(0.0300858 -0.187022 -4.73689e-21)
(0.0231417 -0.197503 0)
(0.0154361 -0.203209 -4.2016e-22)
(0.0087311 -0.208416 -2.38031e-23)
(0.00320487 -0.209608 -1.41626e-22)
(0.000129525 -0.210189 -4.93192e-23)
(0.0427372 -0.151079 -2.17304e-21)
(0.042653 -0.159837 0)
(0.0386256 -0.171445 -6.09371e-21)
(0.0343402 -0.185322 9.40167e-21)
(0.0278284 -0.193539 -3.21424e-21)
(0.0213259 -0.204182 -3.29242e-22)
(0.0142257 -0.209159 4.19205e-22)
(0.00799663 -0.214345 4.97682e-23)
(0.00293043 -0.215213 2.98765e-22)
(5.30981e-05 -0.215939 9.77146e-23)
(0.03827 -0.157581 -8.83934e-21)
(0.0391996 -0.170209 8.62574e-21)
(0.0356049 -0.177969 7.92615e-22)
(0.0316812 -0.192979 0)
(0.0257172 -0.199661 0)
(0.0196044 -0.210424 3.39575e-22)
(0.0131214 -0.214648 7.81579e-22)
(0.00732679 -0.219812 -7.6663e-22)
(0.00269491 -0.22038 -5.56333e-23)
(4.32715e-06 -0.221309 5.43537e-23)
(0.0409406 -0.166183 0)
(0.0396499 -0.194482 0)
(0.035551 -0.192676 0)
(0.0304686 -0.21057 0)
(0.024373 -0.213875 0)
(0.0179244 -0.224895 0)
(0.0118958 -0.227296 0)
(0.00646608 -0.232305 0)
(0.0024599 -0.232092 0)
(5.14912e-05 -0.233466 0)
(0.0301208 -0.206133 0)
(0.0249736 -0.233187 0)
(0.0231827 -0.226521 0)
(0.0186927 -0.242589 0)
(0.0154525 -0.241643 0)
(0.0111047 -0.251031 0)
(0.00764921 -0.250582 0)
(0.00416592 -0.254807 0)
(0.00175807 -0.253312 0)
(0.000103923 -0.254936 0)
(0.0278093 -0.246633 0)
(0.0217948 -0.272583 0)
(0.0193487 -0.262074 0)
(0.0146733 -0.277453 0)
(0.0119966 -0.273125 0)
(0.00824655 -0.282022 0)
(0.0058366 -0.279333 0)
(0.00315731 -0.283465 0)
(0.00151656 -0.280852 0)
(0.00011286 -0.28288 0)
(0.0242586 -0.292578 0)
(0.0180665 -0.318252 0)
(0.0158789 -0.304636 0)
(0.0114829 -0.320109 0)
(0.00954451 -0.31296 0)
(0.00633286 -0.322126 0)
(0.00474131 -0.317539 0)
(0.00256083 -0.322107 0)
(0.00142524 -0.318388 0)
(0.0001039 -0.321032 0)
(0.0214586 -0.34761 0)
(0.0156476 -0.373183 0)
(0.0133573 -0.357802 0)
(0.00935743 -0.373737 0)
(0.0078157 -0.364684 0)
(0.00504193 -0.374551 0)
(0.00397455 -0.36852 0)
(0.00209754 -0.373841 0)
(0.00131252 -0.369156 0)
(5.82334e-05 -0.372636 0)
(0.0188721 -0.413358 0)
(0.0134352 -0.437244 0)
(0.0112634 -0.422591 0)
(0.00763051 -0.438202 0)
(0.00639483 -0.428865 0)
(0.00394115 -0.439016 0)
(0.00319247 -0.432448 0)
(0.001505 -0.438335 0)
(0.00101123 -0.43319 0)
(-5.95728e-05 -0.437402 0)
(0.0154769 -0.484927 0)
(0.0108318 -0.504415 0)
(0.00898967 -0.493605 0)
(0.00592908 -0.50699 0)
(0.00489899 -0.499483 0)
(0.00279553 -0.508513 0)
(0.00218301 -0.502776 0)
(0.000722434 -0.508281 0)
(0.000489117 -0.503615 0)
(-0.000202213 -0.5079 0)
(0.0116347 -0.550142 0)
(0.00809436 -0.563925 0)
(0.00654212 -0.558459 0)
(0.00413383 -0.567908 0)
(0.00330159 -0.563537 0)
(0.00161053 -0.56993 0)
(0.0011188 -0.566095 0)
(-3.27075e-05 -0.569996 0)
(-9.61007e-06 -0.566661 0)
(-0.000283014 -0.569916 0)
(0.00705108 -0.597539 0)
(0.00473427 -0.605356 0)
(0.00381858 -0.604829 0)
(0.00233063 -0.610219 0)
(0.00184334 -0.609102 0)
(0.000729846 -0.612399 0)
(0.000411536 -0.610683 0)
(-0.000335158 -0.612459 0)
(-0.00020103 -0.610696 0)
(-0.000237002 -0.612307 0)
(0.00217261 -0.621003 0)
(0.00134231 -0.626617 0)
(0.00117677 -0.628711 0)
(0.000721022 -0.631842 0)
(0.000599922 -0.632284 0)
(0.000214501 -0.633851 0)
(0.000100863 -0.633239 0)
(-0.000156765 -0.633845 0)
(-9.72521e-05 -0.632967 0)
(-8.60279e-05 -0.633618 0)
(0.0374929 -0.178623 1.02362e-20)
(0.0304125 -0.219398 -1.00443e-20)
(0.0295529 -0.261393 1.26479e-21)
(0.0262838 -0.308934 0)
(0.0239269 -0.364341 0)
(0.0211883 -0.428305 1.36998e-21)
(0.017652 -0.495518 -5.76807e-21)
(0.0132569 -0.554804 5.70485e-21)
(0.00830509 -0.597481 1.52715e-21)
(0.00284248 -0.618114 -1.50436e-21)
(0.0366953 -0.184983 -1.21467e-20)
(0.0309887 -0.225119 0)
(0.0304191 -0.266855 8.3835e-21)
(0.0272402 -0.314426 -1.91415e-20)
(0.0250356 -0.369631 1.21074e-20)
(0.0222156 -0.432784 -1.24833e-21)
(0.0186128 -0.498366 2.72133e-21)
(0.0140014 -0.555858 5.66719e-21)
(0.00886783 -0.596802 1.56596e-21)
(0.0031205 -0.617001 1.53202e-21)
(0.0363617 -0.191581 1.42249e-20)
(0.0321142 -0.231487 -9.45596e-21)
(0.0316489 -0.272612 9.36632e-21)
(0.028518 -0.319709 -9.98755e-21)
(0.0263853 -0.374381 7.4135e-21)
(0.023417 -0.436502 0)
(0.0196494 -0.500396 -2.72806e-21)
(0.014788 -0.556265 1.30217e-22)
(0.00937215 -0.595655 -2.94921e-21)
(0.00330278 -0.615666 -3.01106e-21)
(0.0365217 -0.197153 -2.29524e-21)
(0.0336429 -0.237196 0)
(0.0332148 -0.277986 0)
(0.0301294 -0.324691 0)
(0.027994 -0.378862 8.05506e-21)
(0.0248247 -0.43995 -5.37071e-21)
(0.0208149 -0.502208 -2.07457e-23)
(0.0156526 -0.556407 -3.15363e-21)
(0.00986748 -0.594379 -1.60962e-21)
(0.00343156 -0.613914 -1.70834e-21)
(0.0373061 -0.202012 4.98815e-24)
(0.0355302 -0.241923 -6.88704e-21)
(0.0350599 -0.28246 -4.96833e-21)
(0.0320205 -0.328944 4.96527e-21)
(0.0298243 -0.382746 -2.64843e-21)
(0.0264245 -0.44293 0)
(0.0221363 -0.503726 -2.99128e-21)
(0.016631 -0.556321 6.44783e-21)
(0.0104244 -0.59301 -3.29125e-21)
(0.00356957 -0.61185 3.3572e-21)
(0.0387837 -0.206381 -1.85099e-20)
(0.0378189 -0.245839 2.14784e-21)
(0.037201 -0.285985 -2.32345e-22)
(0.0341723 -0.332264 5.08596e-21)
(0.0318532 -0.38575 0)
(0.0281987 -0.44515 0)
(0.0236132 -0.50469 0)
(0.0177353 -0.555879 3.44168e-21)
(0.0110781 -0.591456 0)
(0.00375037 -0.6096 0)
(0.0409616 -0.210124 0)
(0.0405398 -0.248992 7.33344e-21)
(0.0396862 -0.288631 -4.93332e-21)
(0.0366055 -0.334645 -5.54979e-21)
(0.0340927 -0.387798 5.57872e-21)
(0.0301516 -0.446483 3.19255e-21)
(0.0252433 -0.504951 -3.182e-21)
(0.018963 -0.554969 -1.22849e-20)
(0.011829 -0.589635 8.7598e-22)
(0.00397838 -0.607213 -2.94857e-21)
(0.0438389 -0.213037 0)
(0.0436947 -0.251276 -2.40556e-21)
(0.0425478 -0.290371 -1.31461e-21)
(0.0393447 -0.336099 0)
(0.0365696 -0.388904 1.56646e-21)
(0.0323046 -0.446933 -4.74813e-21)
(0.0270354 -0.504483 5.16455e-21)
(0.0203148 -0.553553 1.81921e-21)
(0.0126685 -0.587504 -1.97754e-21)
(0.00424766 -0.604673 3.91629e-21)
(0.0474235 -0.214978 2.29768e-21)
(0.0472804 -0.252586 2.56108e-21)
(0.0458012 -0.291128 -5.97098e-22)
(0.042402 -0.336596 7.28192e-22)
(0.0393064 -0.389072 1.51805e-21)
(0.0346794 -0.446531 2.49127e-21)
(0.0290036 -0.503327 -9.19549e-22)
(0.0217944 -0.551651 -9.82547e-22)
(0.0135895 -0.585065 1.98407e-21)
(0.00455256 -0.601955 1.06821e-21)
(0.0517238 -0.215844 -6.11949e-22)
(0.0512988 -0.252879 6.1713e-22)
(0.0494575 -0.290832 -6.74311e-22)
(0.0457813 -0.336096 -7.27286e-22)
(0.0423167 -0.38828 8.32261e-22)
(0.0372919 -0.445284 -1.69233e-21)
(0.0311641 -0.501496 1.4035e-21)
(0.0234152 -0.549272 4.95758e-22)
(0.0145974 -0.58232 0)
(0.00489414 -0.599037 -1.07058e-21)
(0.0567423 -0.215546 6.26095e-22)
(0.055751 -0.252159 -6.31663e-22)
(0.0535287 -0.289449 -7.18781e-22)
(0.0494849 -0.334583 -7.79849e-22)
(0.0456124 -0.386515 -8.65018e-22)
(0.0401506 -0.443205 -4.94933e-23)
(0.0335242 -0.499022 4.94084e-22)
(0.0251795 -0.54645 1.57609e-21)
(0.015691 -0.579285 0)
(0.005272 -0.595916 -1.1615e-21)
(0.0624757 -0.214053 0)
(0.0606319 -0.250447 -2.79215e-21)
(0.0580265 -0.286989 5.02268e-21)
(0.0535108 -0.332071 7.81203e-22)
(0.0492019 -0.383771 1.76389e-21)
(0.0432653 -0.440272 2.84034e-21)
(0.0361007 -0.495869 -9.97512e-22)
(0.027108 -0.543147 -1.06689e-21)
(0.0168869 -0.57594 2.33782e-21)
(0.0056923 -0.59258 1.15877e-21)
(0.0689164 -0.211426 0)
(0.0659318 -0.247753 -2.79334e-21)
(0.0629552 -0.283509 -1.49385e-21)
(0.0578651 -0.32857 0)
(0.0530974 -0.380095 -5.50866e-21)
(0.046636 -0.436539 1.84869e-21)
(0.0388871 -0.492108 2.13403e-21)
(0.0291845 -0.539433 6.81238e-21)
(0.0181693 -0.572303 -2.33024e-21)
(0.00614799 -0.58903 5.00096e-21)
(0.0760534 -0.207794 0)
(0.0716443 -0.244051 2.81727e-21)
(0.0683085 -0.27915 0)
(0.0625408 -0.324141 7.14105e-21)
(0.0573013 -0.375488 -7.17765e-21)
(0.0502819 -0.431942 -4.21791e-21)
(0.0419107 -0.487637 -7.12683e-23)
(0.0314544 -0.535199 -6.99191e-21)
(0.0195758 -0.568298 -1.16604e-21)
(0.00665041 -0.585216 -6.22018e-21)
(0.0838733 -0.203339 2.14895e-20)
(0.077751 -0.239392 -8.15425e-21)
(0.0740601 -0.273946 5.87467e-22)
(0.067583 -0.318766 -6.8259e-21)
(0.0618278 -0.369985 0)
(0.0541876 -0.426613 -4.38447e-21)
(0.045139 -0.482631 -3.09578e-22)
(0.0338711 -0.530601 9.48746e-21)
(0.0210643 -0.564046 1.28767e-21)
(0.00717687 -0.581205 -1.2925e-21)
(0.0923231 -0.198299 -1.32866e-21)
(0.0842925 -0.233633 1.47954e-20)
(0.0802059 -0.267827 7.08199e-21)
(0.0729862 -0.31241 -7.07721e-21)
(0.0666796 -0.363555 -4.09862e-21)
(0.0583965 -0.420366 0)
(0.0486462 -0.476807 -9.69288e-21)
(0.0365251 -0.525384 4.85929e-21)
(0.0227136 -0.559397 5.14308e-21)
(0.00776735 -0.576896 5.48465e-21)
(0.101352 -0.192709 -2.93758e-21)
(0.0913114 -0.22688 0)
(0.0866566 -0.261135 0)
(0.0787125 -0.30546 0)
(0.0717991 -0.356695 -4.6234e-21)
(0.0628227 -0.413838 8.70718e-21)
(0.0522949 -0.470848 9.85932e-21)
(0.0392498 -0.520082 -1.54266e-20)
(0.0243849 -0.554636 2.73837e-21)
(0.00834763 -0.572458 -8.14555e-21)
(0.110761 -0.186487 -5.0255e-21)
(0.0988021 -0.2192 1.39952e-20)
(0.0934172 -0.253555 -1.38618e-20)
(0.0848331 -0.297368 1.67038e-20)
(0.0773155 -0.348502 -2.09496e-20)
(0.0676828 -0.405843 0)
(0.0563836 -0.46353 -5.14098e-21)
(0.0423743 -0.513767 -1.94582e-22)
(0.0263422 -0.549251 -5.6745e-21)
(0.00905061 -0.567567 -5.76799e-21)
(0.120264 -0.18062 -3.12928e-21)
(0.106553 -0.211837 0)
(0.100221 -0.246591 -1.78686e-20)
(0.0910177 -0.290172 3.309e-20)
(0.0828259 -0.341525 -1.26832e-20)
(0.0724575 -0.399259 -2.46135e-21)
(0.0602929 -0.45751 5.13e-21)
(0.0452753 -0.508289 -2.33772e-22)
(0.0281104 -0.544186 8.29681e-21)
(0.00962775 -0.562759 8.53544e-21)
(0.130314 -0.172198 -1.36661e-20)
(0.115839 -0.201028 1.3368e-20)
(0.108171 -0.235875 1.92069e-21)
(0.0983401 -0.27883 0)
(0.0894379 -0.330072 0)
(0.0783795 -0.388289 2.39179e-21)
(0.0653431 -0.447863 1.07063e-20)
(0.0491915 -0.50042 -1.04557e-20)
(0.0306013 -0.537837 -2.82894e-21)
(0.0105413 -0.557061 2.78044e-21)
(0.141573 -0.173392 0)
(0.135733 -0.197169 0)
(0.123896 -0.233404 0)
(0.112509 -0.275563 0)
(0.102029 -0.32586 0)
(0.0891043 -0.382313 0)
(0.073969 -0.439684 0)
(0.0554881 -0.490074 0)
(0.0343606 -0.526149 0)
(0.0114823 -0.545168 0)
(0.164863 -0.157449 0)
(0.170222 -0.185954 0)
(0.15133 -0.22534 0)
(0.139948 -0.266757 0)
(0.126657 -0.31627 0)
(0.110493 -0.370232 0)
(0.0915821 -0.423867 0)
(0.0687094 -0.469959 0)
(0.0427965 -0.501977 0)
(0.0150234 -0.517592 0)
(0.196737 -0.141556 0)
(0.207093 -0.17119 0)
(0.180844 -0.210049 0)
(0.171069 -0.249787 0)
(0.153502 -0.29794 0)
(0.133534 -0.348527 0)
(0.109998 -0.398375 0)
(0.0819962 -0.441319 0)
(0.0505147 -0.472076 0)
(0.0165466 -0.488928 0)
(0.237197 -0.130512 0)
(0.249149 -0.15891 0)
(0.216449 -0.196472 0)
(0.209209 -0.234998 0)
(0.185448 -0.281442 0)
(0.161618 -0.327569 0)
(0.132536 -0.372911 0)
(0.0985599 -0.410832 0)
(0.0610752 -0.436632 0)
(0.0216295 -0.44832 0)
(0.285398 -0.116182 0)
(0.295561 -0.142178 0)
(0.257623 -0.17712 0)
(0.25116 -0.212598 0)
(0.218005 -0.254177 0)
(0.189941 -0.293881 0)
(0.153464 -0.33433 0)
(0.112948 -0.36823 0)
(0.068679 -0.393406 0)
(0.0215587 -0.408933 0)
(0.343367 -0.106883 0)
(0.349329 -0.129891 0)
(0.307568 -0.162085 0)
(0.298817 -0.192946 0)
(0.255324 -0.229127 0)
(0.224612 -0.263336 0)
(0.179526 -0.299266 0)
(0.132058 -0.327202 0)
(0.0811282 -0.346623 0)
(0.0300076 -0.353028 0)
(0.404484 -0.0870208 0)
(0.401877 -0.105324 0)
(0.357252 -0.13217 0)
(0.341779 -0.155989 0)
(0.288639 -0.185539 0)
(0.254446 -0.212843 0)
(0.196152 -0.241548 0)
(0.1422 -0.263929 0)
(0.0831545 -0.285575 0)
(0.0219952 -0.305331 0)
(0.469686 -0.0739337 0)
(0.457521 -0.087309 0)
(0.413883 -0.10905 0)
(0.388998 -0.1265 0)
(0.332305 -0.150761 0)
(0.291763 -0.171322 0)
(0.223495 -0.194789 0)
(0.165944 -0.214645 0)
(0.0997867 -0.23444 0)
(0.0450487 -0.233689 0)
(0.516997 -0.0398387 0)
(0.496914 -0.0464275 0)
(0.445564 -0.059533 0)
(0.410488 -0.0682147 0)
(0.345041 -0.0828157 0)
(0.293502 -0.0925161 0)
(0.212021 -0.106417 0)
(0.145132 -0.11777 0)
(0.0637668 -0.140068 0)
(-0.0193861 -0.187928 0)
(0.724672 -0.0200966 0)
(0.699752 -0.0236263 0)
(0.65492 -0.0289804 0)
(0.615104 -0.0337353 0)
(0.555194 -0.0409174 0)
(0.498236 -0.0477265 0)
(0.418836 -0.0584651 0)
(0.337559 -0.0724892 0)
(0.228894 -0.100971 0)
(0.15933 -0.157097 0)
(0.169212 -0.152688 1.44587e-20)
(0.195468 -0.135276 -1.42429e-20)
(0.228528 -0.120232 2.16137e-21)
(0.268457 -0.110063 0)
(0.316061 -0.0974994 0)
(0.371465 -0.0893226 2.99803e-21)
(0.430515 -0.0720779 -1.393e-20)
(0.491596 -0.0617636 1.37808e-20)
(0.543824 -0.0323469 3.88539e-21)
(0.745864 -0.0172162 -3.91203e-21)
(0.177669 -0.143945 -1.4485e-20)
(0.203043 -0.126018 0)
(0.235998 -0.111713 1.49918e-20)
(0.275968 -0.101977 -3.56676e-20)
(0.323686 -0.0901164 2.36119e-20)
(0.378894 -0.0823889 -2.75948e-21)
(0.437815 -0.0661274 5.96308e-21)
(0.498339 -0.056913 1.31624e-20)
(0.553316 -0.0293619 3.60479e-21)
(0.753797 -0.0159917 3.52244e-21)
(0.184981 -0.134146 1.68728e-20)
(0.209245 -0.116308 -1.48613e-20)
(0.241457 -0.103056 1.47208e-20)
(0.281136 -0.0938502 -1.87643e-20)
(0.32875 -0.0827818 1.36886e-20)
(0.3839 -0.0756174 0)
(0.442873 -0.060439 -5.97768e-21)
(0.503462 -0.0524328 -7.39844e-23)
(0.561286 -0.026701 -6.81685e-21)
(0.760873 -0.014835 -7.06456e-21)
(0.192454 -0.123693 -2.85922e-21)
(0.216461 -0.106343 0)
(0.24787 -0.0942471 0)
(0.287184 -0.0856424 0)
(0.334538 -0.075449 1.51627e-20)
(0.389434 -0.0689644 -1.02709e-20)
(0.448288 -0.0549688 -3.10087e-22)
(0.508763 -0.048229 -6.70701e-21)
(0.568809 -0.0243151 -3.42965e-21)
(0.767579 -0.0137648 -3.48161e-21)
(0.199386 -0.112876 1.90868e-21)
(0.223489 -0.0963151 -8.90195e-21)
(0.254174 -0.085382 -8.09054e-21)
(0.293372 -0.0774596 8.08557e-21)
(0.340593 -0.0681739 -4.82395e-21)
(0.39532 -0.062446 0)
(0.454047 -0.0496748 -5.89902e-21)
(0.51431 -0.044192 1.2957e-20)
(0.576115 -0.0221051 -6.5264e-21)
(0.77398 -0.0127665 6.97819e-21)
(0.205527 -0.101745 -2.18932e-20)
(0.229536 -0.0862663 1.73522e-21)
(0.259624 -0.076514 -9.59842e-22)
(0.298689 -0.0693796 7.97236e-21)
(0.345905 -0.0610275 0)
(0.400651 -0.056116 0)
(0.459371 -0.0445668 0)
(0.519559 -0.0402936 6.2653e-21)
(0.582964 -0.020018 0)
(0.779946 -0.0118223 0)
(0.210855 -0.090302 0)
(0.234529 -0.0761924 1.00524e-20)
(0.264113 -0.0676265 -6.89523e-21)
(0.302964 -0.0613765 -8.84705e-21)
(0.350123 -0.05403 8.89311e-21)
(0.404986 -0.0499879 5.46321e-21)
(0.463773 -0.0396552 -5.22383e-21)
(0.524098 -0.0365455 -2.16893e-20)
(0.589073 -0.0180444 1.54046e-21)
(0.785346 -0.0109291 -5.08688e-21)
(0.215282 -0.0785695 0)
(0.238521 -0.0660649 -3.16642e-21)
(0.267618 -0.0587225 -1.81507e-21)
(0.306299 -0.0534196 0)
(0.353299 -0.0471353 2.58029e-21)
(0.408298 -0.0440313 -7.51913e-21)
(0.467129 -0.0349194 8.66295e-21)
(0.52784 -0.0329453 3.24865e-21)
(0.594271 -0.0161768 -3.23601e-21)
(0.79011 -0.0100849 6.80322e-21)