/*--------------------------------*- C++ -*----------------------------------*\
  =========                 |
  \\      /  F ield         | OpenFOAM: The Open Source CFD Toolbox
   \\    /   O peration     | Website:  https://openfoam.org
    \\  /    A nd           | Version:  7
     \\/     M anipulation  |
\*---------------------------------------------------------------------------*/
FoamFile
{
    version     2.0;
    format      ascii;
    class       surfaceScalarField;
    location    "67";
    object      phi;
}
// * * * * * * * * * * * * * * * * * * * * * * * * * * * * * * * * * * * * * //

dimensions      [0 3 -1 0 0 0 0];

internalField   nonuniform List<scalar> 
3880
(
-2.38227e-05
-0.000751625
0.000775448
-1.44239e-05
-0.00161379
0.00160439
5.35563e-05
-0.00199698
0.001929
0.000198115
-0.00199158
0.00184702
0.00043499
-0.00164989
0.00141302
0.000777773
-0.00100487
0.000662084
0.00123559
-8.14884e-05
-0.000376325
0.00181009
0.00109433
-0.00166883
0.00249252
0.00248963
-0.00317206
0.00406032
0.00326121
-0.00482902
-2.14014e-05
-0.000730224
-5.5644e-06
-0.00162963
6.84103e-05
-0.00207096
0.000216211
-0.00213938
0.000453242
-0.00188692
0.000795165
-0.00134679
0.00125528
-0.000541607
0.00184051
0.0005091
0.00254718
0.00178296
0.003251
0.0033565
-1.34217e-05
-0.000716802
1.89197e-05
-0.00166197
0.000111398
-0.00216344
0.000274864
-0.00230285
0.000522299
-0.00213436
0.000869411
-0.0016939
0.0013322
-0.00100439
0.00192246
-8.11692e-05
0.00264265
0.00106277
0.00241487
0.00347878
1.54139e-06
-0.000718343
6.10818e-05
-0.00172151
0.000186058
-0.00228841
0.000380373
-0.00249716
0.000652429
-0.00240642
0.00101576
-0.00205723
0.00148699
-0.00147563
0.00208176
-0.00067594
0.00280851
0.000336021
0.00156319
0.00366019
2.1673e-05
-0.000740016
0.000120972
-0.00182081
0.000293297
-0.00246074
0.000535186
-0.00273905
0.000849091
-0.00272032
0.00124443
-0.00245257
0.00173635
-0.00196755
0.00234223
-0.00128182
0.00307604
-0.000397793
0.000700182
0.00393905
4.82533e-05
-0.00078827
0.000197232
-0.00196979
0.000430393
-0.0026939
0.000735849
-0.00304451
0.00110934
-0.00309382
0.00155497
-0.0028982
0.00208454
-0.00249712
0.00271524
-0.00191252
0.00346507
-0.00114763
-0.000178798
0.00434405
7.97415e-05
-0.000868011
0.000286317
-0.00217636
0.00059042
-0.002998
0.000971687
-0.00342577
0.00141921
-0.00354134
0.00193142
-0.00341041
0.0025158
-0.00308149
0.00318764
-0.00258436
0.0039672
-0.00192718
-0.00108405
0.00487246
0.000114432
-0.000982443
0.000382723
-0.00244465
0.000762325
-0.0033776
0.00122476
-0.00388821
0.00175315
-0.00406974
0.00234075
-0.00399801
0.00299039
-0.00373113
0.00371436
-0.00330833
0.0045336
-0.00274642
-0.00202304
0.00547258
0.000150142
-0.00113258
0.000479366
-0.00277388
0.000931722
-0.00382996
0.00147128
-0.00442776
0.00207633
-0.00467479
0.00273599
-0.00465768
0.0034487
-0.00444383
0.00422224
-0.00408187
0.00507592
-0.0036001
-0.00299165
0.00604453
0.000184345
-0.00131693
0.000568131
-0.00315766
0.00108222
-0.00434405
0.00168419
-0.00502973
0.00234903
-0.00533963
0.00306366
-0.00537231
0.00382372
-0.00520389
0.00463182
-0.00488997
0.00549792
-0.0044662
0.00646823
-0.00396196
0.00530439
0.0285361
-0.0305793
0.00656574
0.0540589
-0.0553203
0.0067127
0.0759374
-0.0760843
0.00624228
0.0956876
-0.0952172
0.00546385
0.116156
-0.115378
0.00447508
0.138704
-0.137715
0.00332179
0.164037
-0.162883
0.00199171
0.194678
-0.193348
0.000763412
0.237334
-0.236105
0.288172
-0.287408
0.00568954
0.0262031
0.00741272
0.0523357
0.00788102
0.0754691
0.00758742
0.0959812
0.00688311
0.11686
0.00587452
0.139713
0.0046044
0.165307
0.00305697
0.196225
0.00141728
0.238973
0.289589
0.00600702
0.0236748
0.00820059
0.0501422
0.00902018
0.0746495
0.00892461
0.0960768
0.00830348
0.117482
0.00727809
0.140738
0.00589101
0.166694
0.00412365
0.197993
0.0020738
0.241023
0.291663
0.00625502
0.02108
0.0088969
0.0475003
0.0100978
0.0734486
0.0102253
0.0959493
0.00970109
0.118006
0.00866743
0.141772
0.00716769
0.168194
0.00518341
0.199977
0.0027243
0.243482
0.294387
0.00645135
0.0185677
0.00947326
0.0444784
0.0110821
0.0718397
0.0114617
0.0955697
0.0110525
0.118415
0.0100228
0.142802
0.00841987
0.169796
0.00622395
0.202173
0.00336363
0.246343
0.297751
0.00662833
0.0162834
0.00990926
0.0411974
0.0119441
0.0698049
0.0126066
0.0949073
0.0123332
0.118688
0.0113223
0.143812
0.00962987
0.171489
0.00723372
0.204569
0.00398514
0.249591
0.301736
0.00681818
0.0143377
0.0101996
0.0378161
0.0126592
0.0673453
0.0136368
0.0939296
0.0135279
0.118797
0.0125563
0.144784
0.0107903
0.173255
0.00820544
0.207154
0.00458563
0.253211
0.306321
0.00702852
0.0127818
0.0103504
0.0344942
0.013207
0.0644886
0.0145208
0.0926158
0.0145988
0.118719
0.0136867
0.145696
0.0118705
0.175071
0.00912234
0.209902
0.00515569
0.257178
0.311477
0.00721487
0.0116114
0.0103657
0.0313434
0.0135817
0.0612725
0.015278
0.0909195
0.0155867
0.118411
0.0147543
0.146529
0.0129001
0.176925
0.00999313
0.212809
0.0056977
0.261473
0.317175
0.00735058
0.0107291
0.0103104
0.0283836
0.0137285
0.0578544
0.0157704
0.0888776
0.0163503
0.117831
0.0156458
0.147233
0.0138306
0.178741
0.0107833
0.215856
0.0062377
0.266019
0.323413
0.0185922
0.0183325
-0.0261957
0.0142504
0.0327255
0.0135534
0.0585514
0.0128544
0.0895766
0.0113869
0.119298
0.0093192
0.149301
0.00673459
0.181325
0.00364782
0.218943
0.000858184
0.268808
0.324271
0.0207446
0.0243533
-0.0267654
0.0149528
0.0385173
0.0128694
0.0606348
0.0119671
0.0904789
0.0105412
0.120724
0.00860424
0.151238
0.00619143
0.183738
0.00332124
0.221813
0.000751721
0.271378
0.325022
0.0218897
0.0282398
-0.0257762
0.016194
0.044213
0.0129049
0.063924
0.0114602
0.0919235
0.00990762
0.122277
0.00792018
0.153225
0.00557264
0.186085
0.00288491
0.224501
0.00059193
0.273671
0.325614
0.0218163
0.0303838
-0.0239602
0.0170216
0.0490077
0.0130938
0.0678518
0.0110704
0.0939469
0.00946792
0.123879
0.00763656
0.155057
0.00539644
0.188326
0.00282173
0.227076
0.000608515
0.275884
0.326223
0.0209769
0.0311609
-0.021754
0.0173742
0.0526104
0.0135076
0.0717184
0.0110665
0.096388
0.00912076
0.125825
0.00714153
0.157036
0.00496612
0.190501
0.0025592
0.229483
0.00052209
0.277921
0.326745
0.0194639
0.030721
-0.0190241
0.0170479
0.0550264
0.0134429
0.0753233
0.0109543
0.0988766
0.00915415
0.127625
0.00725603
0.158934
0.00505116
0.192706
0.00264796
0.231886
0.000612965
0.279956
0.327358
0.0175051
0.0291017
-0.0158858
0.0165716
0.0559599
0.0136413
0.0782537
0.0108815
0.101636
0.00877726
0.129729
0.00683684
0.160874
0.00475812
0.194785
0.00248452
0.23416
0.000569672
0.281871
0.327928
0.0149636
0.0265464
-0.0124083
0.0152211
0.0557024
0.0133267
0.080148
0.0111237
0.103839
0.00920303
0.13165
0.00720713
0.16287
0.00498901
0.197003
0.00266701
0.236482
0.000706683
0.283831
0.328634
0.0131149
0.0229214
-0.00948992
0.0146539
0.0541634
0.0133493
0.0814526
0.0109523
0.106236
0.00883678
0.133765
0.00690731
0.1648
0.00480495
0.199105
0.00257807
0.238709
0.000683516
0.285726
0.329318
0.00999427
-0.00580095
0.0131338
0.0136546
0.0120658
0.00984756
0.00754476
0.00523059
0.0028193
0.000877144
0.00776676
-0.0271997
-0.00676277
0.00790753
-0.0269062
0.00748763
-0.0253563
0.00679623
-0.0232688
0.00592454
-0.0208823
0.00491215
-0.0180117
0.00379173
-0.0147653
0.00265365
-0.0112702
0.00134117
-0.00817744
-0.00470011
0.0070139
-0.0276637
-0.00654985
0.00671985
-0.0266122
0.00602457
-0.024661
0.00514081
-0.0223851
0.00412406
-0.0198656
0.00300532
-0.0168929
0.00181574
-0.0135758
0.000643875
-0.0100983
-0.000672638
-0.00686093
-0.00368342
0.00596872
-0.0276565
-0.00597591
0.00531574
-0.0259592
0.00440381
-0.0237491
0.00336202
-0.0213433
0.00222846
-0.018732
0.0010311
-0.0156956
-0.000196876
-0.0123478
-0.00137051
-0.00892469
-0.00257372
-0.00565772
-0.00275865
0.00462104
-0.0272551
-0.0050225
0.00369171
-0.0250298
0.00262034
-0.0226777
0.00146486
-0.0201878
0.000252269
-0.0175194
-0.000977617
-0.0144657
-0.00219342
-0.011132
-0.00333492
-0.00778319
-0.00440368
-0.00458897
-0.00197951
0.0029975
-0.0265273
-0.00372524
0.0018705
-0.0239028
0.000693874
-0.0215011
-0.00052506
-0.0189689
-0.0017605
-0.016284
-0.00298858
-0.0132376
-0.0041557
-0.00996486
-0.00521274
-0.00672615
-0.00612437
-0.00367734
-0.00136223
0.00115904
-0.0255345
-0.0021519
-9.85633e-05
-0.0226452
-0.00131903
-0.0202806
-0.0025586
-0.0177293
-0.00378242
-0.0150601
-0.00496089
-0.0120591
-0.00604109
-0.00888467
-0.00697811
-0.00578913
-0.00771978
-0.00293567
-0.000905786
-0.000805501
-0.0243493
-0.000379661
-0.00212649
-0.0213242
-0.00336524
-0.0190419
-0.00458666
-0.0165079
-0.00575839
-0.0138884
-0.00685157
-0.010966
-0.0078162
-0.00792004
-0.00861082
-0.00499452
-0.00918246
-0.00236403
-0.000597977
-0.00282791
-0.0230063
0.00148494
-0.00416392
-0.0199882
-0.00537937
-0.0178264
-0.0065488
-0.0153385
-0.00763949
-0.0127977
-0.00862242
-0.00998302
-0.00945427
-0.00708819
-0.0100981
-0.00435073
-0.0105107
-0.00195136
-0.000419383
-0.00481885
-0.0215689
0.00338145
-0.00613344
-0.0186736
-0.0073002
-0.0166596
-0.00839315
-0.0142455
-0.0093837
-0.0118072
-0.0102427
-0.00912405
-0.0109365
-0.00639432
-0.0114339
-0.00385336
-0.0117072
-0.00167812
-0.000346671
-0.00670853
-0.0200901
0.00522973
-0.00797492
-0.0174073
-0.00907613
-0.0155584
-0.0100767
-0.0132449
-0.0109585
-0.0109254
-0.0116908
-0.00839177
-0.0122525
-0.00583256
-0.0126182
-0.00348769
-0.012777
-0.00151933
-0.000355057
-0.00843864
-0.0186139
0.00696238
-0.0096396
-0.0162063
-0.0106668
-0.0145312
-0.0115678
-0.0123439
-0.0123419
-0.0101513
-0.0129546
-0.00777909
-0.0133991
-0.00538804
-0.013655
-0.00323176
-0.013727
-0.00144739
-0.000419859
-0.00997293
-0.0171748
0.00853382
-0.0110955
-0.0150837
-0.0120469
-0.0135798
-0.0128483
-0.0115426
-0.0135236
-0.009476
-0.0140314
-0.00727132
-0.0143795
-0.00503986
-0.0145518
-0.00305956
-0.0145648
-0.00143436
-0.000517303
-0.0112846
-0.0157991
0.00990897
-0.0123213
-0.014047
-0.0132015
-0.0126996
-0.0139103
-0.0108338
-0.0145016
-0.00888467
-0.0149249
-0.00684804
-0.0152013
-0.00476344
-0.0153175
-0.00294331
-0.0152986
-0.00145329
-0.000624854
-0.0123622
-0.0145038
0.0110669
-0.0133099
-0.0130993
-0.0141276
-0.0118819
-0.0147564
-0.010205
-0.015282
-0.00835903
-0.0156446
-0.00648545
-0.0158751
-0.0045329
-0.015963
-0.00285545
-0.0159373
-0.00147904
-0.000721324
-0.0132064
-0.0132943
0.0119969
-0.0140652
-0.0122405
-0.0148318
-0.0111153
-0.0153974
-0.00963943
-0.0158769
-0.00787954
-0.016204
-0.00615831
-0.0164141
-0.00432281
-0.0164998
-0.00276972
-0.0164903
-0.00148857
-0.000786791
-0.0138276
-0.0121619
0.0126952
-0.0146008
-0.0114672
-0.0153271
-0.0103891
-0.0158496
-0.00911688
-0.0163019
-0.00742725
-0.0166187
-0.0058415
-0.0168323
-0.00410922
-0.0169402
-0.00266182
-0.0169679
-0.00146085
-0.000802475
-0.0142411
-0.0110821
0.0131613
-0.0149373
-0.010771
-0.0156307
-0.00969564
-0.0161325
-0.00861508
-0.016575
-0.00698476
-0.0169053
-0.00551116
-0.0171443
-0.00387021
-0.0172966
-0.00250954
-0.0173808
-0.00137662
-0.0007506
-0.0144535
-0.0100237
0.0133951
-0.0150926
-0.010132
-0.0157579
-0.00903034
-0.0162638
-0.0081092
-0.0167133
-0.00653521
-0.0170796
-0.00514485
-0.0173644
-0.00358546
-0.0175814
-0.00229256
-0.0177401
-0.00121793
-0.00061421
-0.0144613
-0.00896732
0.0134049
-0.0150855
-0.00950782
-0.0157263
-0.00838949
-0.0162615
-0.00757404
-0.0167348
-0.0060619
-0.0171575
-0.00472216
-0.0175065
-0.00323643
-0.0178066
-0.00199241
-0.0180566
-0.00096797
-0.000376908
-0.0143247
-0.00788225
0.0132396
-0.014985
-0.00884744
-0.0155786
-0.00779589
-0.016149
-0.00700373
-0.0166575
-0.00555339
-0.0171502
-0.00422946
-0.0175815
-0.00280508
-0.0179827
-0.00159126
-0.0183434
-0.000607232
-2.43939e-05
-0.0631247
-0.00729731
0.0625398
-0.0651013
-0.0068708
-0.0669601
-0.00593712
-0.0688328
-0.00513105
-0.0703253
-0.00406086
-0.0715229
-0.00303189
-0.0723055
-0.00202246
-0.0727562
-0.00114055
-0.0729093
-0.000454191
-3.11613e-05
-0.0742361
-0.00679184
0.0737306
-0.0753844
-0.00572247
-0.0764299
-0.00489166
-0.0775834
-0.0039775
-0.0784947
-0.0031496
-0.0792352
-0.00229137
-0.0797025
-0.00155521
-0.0799611
-0.000881913
-0.0800312
-0.000384137
-3.91635e-05
-0.0868062
-0.00656361
0.086578
-0.0873643
-0.00516439
-0.0879744
-0.00428151
-0.0886514
-0.00330048
-0.0892043
-0.00259677
-0.0896596
-0.00183608
-0.0899331
-0.00128172
-0.0900761
-0.000738837
-0.0900979
-0.000362366
-4.26682e-05
-0.102255
-0.00646793
0.102159
-0.102614
-0.00480532
-0.102984
-0.00391104
-0.103415
-0.00287004
-0.103755
-0.00225655
-0.104049
-0.00154195
-0.104216
-0.00111495
-0.104313
-0.000642136
-0.104322
-0.000353489
-4.02263e-05
-0.121387
-0.00616305
0.121082
-0.121761
-0.00443132
-0.122086
-0.00358534
-0.122443
-0.00251332
-0.122711
-0.0019889
-0.122956
-0.00129644
-0.123105
-0.000966335
-0.123217
-0.000529749
-0.123259
-0.000312298
-1.84641e-05
-0.143496
-0.00552032
0.142853
-0.144046
-0.0038807
-0.144492
-0.00313931
-0.144894
-0.002112
-0.1452
-0.00168219
-0.145468
-0.00102839
-0.145659
-0.000775342
-0.145832
-0.000357096
-0.145931
-0.000212843
1.85757e-05
-0.166096
-0.0044958
0.165072
-0.166883
-0.00309393
-0.167532
-0.00249018
-0.168021
-0.00162304
-0.168412
-0.00129095
-0.168714
-0.000726752
-0.168961
-0.000528561
-0.169161
-0.000156813
-0.169291
-8.26996e-05
5.5936e-05
-0.1857
-0.00311822
0.184322
-0.18666
-0.00213423
-0.187439
-0.00171074
-0.187974
-0.00108807
-0.188411
-0.000853717
-0.188703
-0.000434723
-0.188944
-0.000287934
-0.189093
-8.17294e-06
-0.189186
1.03611e-05
6.59154e-05
-0.199381
-0.00162212
0.197885
-0.200449
-0.00106574
-0.20132
-0.000840237
-0.201882
-0.000525677
-0.20232
-0.000415368
-0.202562
-0.000193263
-0.202734
-0.000116164
-0.202777
3.47772e-05
-0.202799
3.22595e-05
4.32467e-05
-0.206445
0.204823
-0.20751
-0.208351
-0.208876
-0.209292
-0.209485
-0.209601
-0.209566
-0.209534
-0.0145917
0.0636602
0.0134713
-0.0152473
0.0743862
-0.0157176
0.0870483
-0.0159185
0.10236
-0.0156463
0.12081
-0.0145558
0.141762
-0.0123541
0.16287
-0.00899613
0.180964
-0.00475079
0.193639
0.200072
-0.0137799
0.0644115
0.0130285
-0.0143821
0.0749885
-0.014792
0.0874581
-0.0149065
0.102475
-0.0145476
0.120451
-0.0134176
0.140632
-0.0112898
0.160742
-0.00816671
0.177841
-0.0042898
0.189762
0.195782
-0.0130395
0.0650743
0.0123768
-0.0135711
0.0755201
-0.0139078
0.0877948
-0.0139567
0.102524
-0.0135507
0.120045
-0.0124306
0.139512
-0.0104091
0.158721
-0.00750394
0.174936
-0.00393162
0.18619
0.19185
-0.0121955
0.0657051
0.0115646
-0.0126643
0.0759888
-0.0129198
0.0880504
-0.0128988
0.102503
-0.0124524
0.119598
-0.0113576
0.138417
-0.00946359
0.156827
-0.00679782
0.17227
-0.0035531
0.182945
0.188297
-0.0112246
0.0662998
0.0106299
-0.0116392
0.0764034
-0.0118253
0.0882365
-0.0117461
0.102423
-0.0112745
0.119127
-0.0102234
0.137366
-0.00847524
0.155079
-0.00606415
0.169859
-0.00316168
0.180043
0.185136
-0.0101492
0.0668473
0.00960176
-0.0105023
0.0767565
-0.0106244
0.0883585
-0.0104997
0.102299
-0.0100203
0.118647
-0.00903386
0.13638
-0.00745129
0.153496
-0.00531026
0.167718
-0.0027614
0.177494
0.182374
-0.00899329
0.0673378
0.0085028
-0.00927754
0.0770408
-0.00933553
0.0884165
-0.00917303
0.102136
-0.00869997
0.118174
-0.00779649
0.135476
-0.00639739
0.152097
-0.00454054
0.165861
-0.00235455
0.175308
0.18002
-0.00777522
0.0677582
0.00735481
-0.00798834
0.0772539
-0.00798262
0.0884108
-0.00778832
0.101942
-0.00733201
0.117718
-0.00652537
0.13467
-0.00532305
0.150895
-0.00376056
0.164299
-0.00194366
0.173491
0.178076
-0.00651446
0.0680921
0.00618053
-0.00665712
0.0773965
-0.00658863
0.0883423
-0.00636858
0.101722
-0.0059371
0.117287
-0.00523731
0.13397
-0.0042402
0.149897
-0.00297746
0.163036
-0.00153205
0.172046
0.176544
-0.00523119
0.0683196
0.00500369
-0.0053078
0.0774732
-0.00517514
0.0882097
-0.00493572
0.101482
-0.00453451
0.116885
-0.00394856
0.133384
-0.00316097
0.14911
-0.00219898
0.162074
-0.00112363
0.17097
0.17542
-0.00395892
0.0684247
0.0038538
-0.00397041
0.0774846
-0.00377023
0.0880095
-0.00351528
0.101227
-0.00314604
0.116516
-0.00267709
0.132915
-0.00209898
0.148532
-0.00143381
0.161409
-0.000722807
0.170259
0.174698
-0.00272886
0.0684085
0.00274513
-0.00266404
0.0774198
-0.00240393
0.0877494
-0.00213053
0.100954
-0.00179498
0.116181
-0.00143786
0.132558
-0.00106389
0.148158
-0.000690473
0.161036
-0.00033324
0.169902
0.174364
-0.00157925
0.0682861
0.00170163
-0.00142062
0.0772612
-0.00111636
0.0874451
-0.000820039
0.100658
-0.000523067
0.115884
-0.000273532
0.132308
-9.73323e-05
0.147982
-6.30094e-06
0.160944
2.71443e-05
0.169869
0.174391
-0.000545035
0.0680976
0.000733515
-0.000271041
0.0769872
3.05485e-05
0.0871435
0.0004085
0.10028
0.000695697
0.115596
0.000859642
0.132144
0.000860115
0.147981
0.000692927
0.161112
0.00038969
0.170172
0.174781
0.00041448
0.0678477
-0.000164579
0.000826319
0.0765754
0.00122941
0.0867404
0.00159767
0.0999114
0.00185654
0.115338
0.00192614
0.132075
0.00175287
0.148154
0.00133454
0.16153
0.000724836
0.170782
0.175506
0.00133543
0.0674797
-0.000967365
0.00182763
0.0760832
0.00227533
0.0862927
0.00267037
0.0995164
0.00291186
0.115096
0.00290199
0.132085
0.00257254
0.148484
0.00192451
0.162178
0.0010319
0.171674
0.176538
0.00212887
0.0670507
-0.00169993
0.00271601
0.075496
0.00320739
0.0858013
0.00363172
0.0990921
0.0038651
0.114863
0.00379096
0.132159
0.00332418
0.148951
0.00246735
0.163035
0.00131382
0.172828
0.177852
0.00281078
0.0666081
-0.0023682
0.00348522
0.0748216
0.00401291
0.0852737
0.00446025
0.0986447
0.00468672
0.114636
0.00455931
0.132286
0.00397575
0.149534
0.00293829
0.164072
0.00155652
0.17421
0.179408
0.00342964
0.0661798
-0.00300127
0.00417901
0.0740722
0.00474383
0.0847088
0.0052148
0.0981738
0.0054418
0.114409
0.00527172
0.132456
0.0045824
0.150223
0.0033762
0.165278
0.00178125
0.175805
0.181189
0.00380988
0.0659795
-0.00360962
0.00458857
0.0732935
0.00519053
0.0841069
0.00567621
0.0976881
0.00590575
0.11418
0.00571697
0.132645
0.00496859
0.150972
0.00365692
0.16659
0.00191951
0.177542
0.183109
-0.0463694
0.0603582
0.0519908
-0.0417663
0.0686903
-0.0386523
0.0809929
-0.0354527
0.0944885
-0.031859
0.110586
-0.0274045
0.128191
-0.0218208
0.145388
-0.0151718
0.159941
-0.00775737
0.170128
0.175352
-0.0563134
0.0557647
0.060907
-0.0522709
0.0646478
-0.0485331
0.077255
-0.0443571
0.0903125
-0.0397383
0.105967
-0.0340302
0.122483
-0.027011
0.138369
-0.0187816
0.151712
-0.0096822
0.161028
0.165669
-0.0679303
0.0512189
0.0724761
-0.06376
0.0604775
-0.0591948
0.0726899
-0.0540543
0.085172
-0.0482048
0.100118
-0.0409232
0.115201
-0.0322156
0.129661
-0.0222058
0.141702
-0.011248
0.15007
0.154421
-0.0820216
0.0469402
0.0863003
-0.0771961
0.0556519
-0.0717238
0.0672177
-0.0655396
0.0789877
-0.0582029
0.0927809
-0.049081
0.106079
-0.0384416
0.119022
-0.0264484
0.129709
-0.0135698
0.137192
0.140852
-0.0976856
0.0418536
0.102772
-0.092035
0.0500014
-0.0854678
0.0606505
-0.0776772
0.0711972
-0.0681967
0.0833003
-0.0568002
0.0946828
-0.0439459
0.106168
-0.0297307
0.115494
-0.0147872
0.122248
0.126064
-0.11614
0.0366419
0.121351
-0.109277
0.0431386
-0.10126
0.0526337
-0.0914292
0.0613663
-0.0796963
0.0715674
-0.0661108
0.0810973
-0.050928
0.0909848
-0.0344104
0.0989759
-0.0175199
0.105358
0.108544
-0.134045
0.0296372
0.14105
-0.125742
0.0348352
-0.115743
0.0426351
-0.103395
0.0490186
-0.0891296
0.0573015
-0.0727769
0.0647446
-0.0545758
0.0727837
-0.0351532
0.0795533
-0.0161364
0.086341
0.092408
-0.153291
0.0224875
0.16044
-0.143581
0.0251253
-0.131783
0.0308377
-0.117685
0.0349201
-0.101596
0.0412128
-0.0831062
0.0462548
-0.0628775
0.052555
-0.0417918
0.0584676
-0.0219866
0.0665358
0.0704214
-0.167705
0.0107988
0.179394
-0.155048
0.0124675
-0.139659
0.0154486
-0.122231
0.0174923
-0.101986
0.0209679
-0.0793808
0.0236497
-0.0543777
0.0275519
-0.0277539
0.0318439
-0.00206673
0.0408486
0.0683547
-0.258625
0.269424
-0.246158
-0.230709
-0.213217
-0.192249
-0.168599
-0.141047
-0.109203
-0.0683547
0.00148893
0.0537827
-0.00328087
-0.00014088
0.0625368
-0.00121751
0.0735527
-0.00207646
0.0871593
-0.00262049
0.103316
-0.0028146
0.121545
-0.00256533
0.140801
-0.00198024
0.159855
-0.00212519
0.179539
0.267299
0.00189288
0.0555373
-0.00364742
0.000326249
0.0641034
-0.000850132
0.0747291
-0.00174807
0.0880572
-0.00234258
0.103911
-0.00256865
0.121771
-0.00239798
0.14063
-0.0018539
0.159311
-0.00190555
0.179591
0.265393
0.00238087
0.0571773
-0.0040209
0.000884623
0.0655996
-0.000307733
0.0759214
-0.00119735
0.0889468
-0.00181751
0.104531
-0.00208483
0.122039
-0.00200752
0.140553
-0.0015623
0.158866
-0.0016895
0.179718
0.263704
0.00285983
0.0587183
-0.00440082
0.00142338
0.0670361
0.000264969
0.0770798
-0.000599594
0.0898114
-0.00119793
0.105129
-0.00151021
0.122351
-0.00149931
0.140542
-0.00119896
0.158566
-0.0014077
0.179927
0.262296
0.00332733
0.0601687
-0.00477773
0.0019707
0.0683927
0.000889835
0.0781607
-1.29409e-05
0.0907141
-0.000544877
0.105661
-0.000888929
0.122695
-0.000933799
0.140587
-0.000782521
0.158414
-0.00107822
0.180222
0.261218
0.00380821
0.0615017
-0.00514124
0.00255572
0.0696452
0.00155412
0.0791623
0.000756847
0.0915114
0.000174762
0.106243
-0.00021691
0.123087
-0.000300498
0.14067
-0.000320822
0.158435
-0.00070867
0.18061
0.260509
0.00430293
0.0626829
-0.0054841
0.00317713
0.070771
0.00226371
0.0800757
0.00153597
0.0922392
0.000983329
0.106796
0.000576179
0.123494
0.000388792
0.140858
0.000212298
0.158611
-0.000298014
0.181121
0.260211
0.00480311
0.0636795
-0.00579974
0.00382281
0.0717513
0.00300797
0.0808906
0.00235418
0.092893
0.00182958
0.107321
0.00141793
0.123905
0.00112308
0.141152
0.000827569
0.158907
0.000140535
0.181808
0.260352
0.00530273
0.0644567
-0.0060799
0.00448051
0.0725735
0.003774
0.0815971
0.00320227
0.0934647
0.00271459
0.107808
0.00229017
0.12433
0.00190431
0.141538
0.00145767
0.159353
0.00057997
0.182685
0.260931
0.00579039
0.0649802
-0.00631385
0.0051376
0.0732263
0.00454955
0.0821851
0.00406738
0.0939469
0.00362641
0.108249
0.00318893
0.124767
0.00271479
0.142012
0.00211095
0.159957
0.00104856
0.183748
0.26198
0.00624574
0.0652196
-0.00648514
0.00577504
0.073697
0.00531726
0.0826429
0.00493052
0.0943336
0.00454363
0.108636
0.00409825
0.125213
0.00353896
0.142572
0.00277996
0.160716
0.00153069
0.184997
0.263511
0.00666053
0.065153
-0.00659396
0.0063851
0.0739724
0.00606751
0.0829605
0.00578304
0.0946181
0.00545688
0.108962
0.0050107
0.125659
0.00437119
0.143211
0.00346056
0.161627
0.00202176
0.186436
0.265532
0.00701415
0.0647711
-0.00663228
0.00694591
0.0740407
0.00677637
0.08313
0.00660089
0.0947936
0.00634296
0.10922
0.00590579
0.126096
0.0051949
0.143922
0.00414014
0.162682
0.00251434
0.188062
0.268047
0.00729351
0.0640777
-0.00660013
0.00744186
0.0738923
0.00742607
0.0831458
0.0073643
0.0948553
0.007183
0.109401
0.00676582
0.126513
0.00599521
0.144693
0.00480748
0.163869
0.00300094
0.189868
0.271048
0.00748519
0.0630951
-0.00650251
0.00785873
0.0735188
0.00799899
0.0830056
0.00805475
0.0947996
0.00795997
0.109496
0.00757456
0.126899
0.00675976
0.145508
0.00545361
0.165175
0.00347644
0.191845
0.274524
0.00758153
0.0618654
-0.00635185
0.00818457
0.0729158
0.00847927
0.0827109
0.0086546
0.0946242
0.00865402
0.109497
0.00831228
0.12724
0.0074715
0.146348
0.00606487
0.166582
0.00393048
0.19398
0.278455
0.00758432
0.0604504
-0.00616935
0.00841275
0.0720873
0.00885824
0.0822654
0.00915417
0.0943283
0.0092552
0.109396
0.00897257
0.127523
0.00812723
0.147194
0.00663908
0.16807
0.00436145
0.196257
0.282816
0.00750411
0.0589294
-0.00598306
0.00853531
0.0710561
0.00912094
0.0816797
0.00953015
0.0939191
0.00973257
0.109193
0.00951897
0.127737
0.00869041
0.148022
0.00715123
0.169609
0.00475157
0.198657
0.287568
0.00736896
0.0573778
-0.00581742
0.00858892
0.0698362
0.0093111
0.0809575
0.00983088
0.0933993
0.0101379
0.108886
0.0100039
0.127871
0.00920438
0.148822
0.00762803
0.171186
0.00511218
0.201173
0.29268
0.00709123
0.0558945
-0.00560789
0.00836163
0.0685658
0.00922836
0.0800908
0.00985141
0.0927763
0.0102695
0.108468
0.0102342
0.127906
0.00952093
0.149535
0.00795368
0.172753
0.00541999
0.203706
0.2981
-0.0289104
0.0532796
0.0315254
-0.0248623
0.0645176
-0.0210305
0.076259
-0.0171296
0.0888754
-0.0132555
0.104594
-0.00916824
0.123819
-0.00488463
0.145251
-0.00113518
0.169004
0.000175438
0.202396
0.298275
-0.04397
0.0495991
0.0476505
-0.0394704
0.060018
-0.034411
0.0711996
-0.0290024
0.0834667
-0.0234351
0.0990269
-0.0173322
0.117716
-0.010788
0.138707
-0.00474775
0.162963
-0.00175022
0.199398
0.296525
-0.0603199
0.0453684
0.0645507
-0.0548684
0.0545666
-0.0485674
0.0648986
-0.0418056
0.0767049
-0.0346027
0.0918239
-0.0263333
0.109446
-0.0173611
0.129735
-0.0088435
0.154446
-0.00336143
0.193916
0.293164
-0.0783472
0.0406433
0.0830722
-0.0716943
0.0479137
-0.0643668
0.0575712
-0.0563189
0.068657
-0.0471959
0.0827009
-0.0364564
0.0987069
-0.0248308
0.118109
-0.0136244
0.143239
-0.0054492
0.185741
0.287714
-0.0985345
0.034689
0.104489
-0.0910966
0.0404757
-0.0829694
0.0494441
-0.0732706
0.0589581
-0.0618462
0.0712766
-0.0485011
0.0853618
-0.0340599
0.103668
-0.0197036
0.128883
-0.0081771
0.174215
0.279537
-0.12204
0.0285687
0.12816
-0.113608
0.0320437
-0.104117
0.0399528
-0.0923846
0.0472262
-0.0787448
0.0576368
-0.0630423
0.0696593
-0.0458329
0.0864587
-0.0282191
0.111269
-0.012857
0.158853
0.26668
-0.148257
0.0204745
0.156352
-0.139396
0.023182
-0.128762
0.0293193
-0.115714
0.0341774
-0.10071
0.0426334
-0.0830301
0.0519794
-0.0634838
0.0669124
-0.0424377
0.090223
-0.0213701
0.137785
0.24531
-0.180701
0.012377
0.188799
-0.170997
0.0134779
-0.159279
0.0176017
-0.145568
0.0204667
-0.1295
0.0265651
-0.110746
0.0332253
-0.0896873
0.0458535
-0.0661953
0.066731
-0.0384018
0.109991
0.206908
-0.233322
0.00429285
0.241406
-0.224831
0.00498678
-0.214064
0.00683471
-0.202091
0.00849403
-0.187304
0.0117783
-0.170096
0.0160173
-0.148403
0.0241604
-0.119498
0.0378256
-0.0749458
0.0654397
0.131963
-0.307499
0.311792
-0.302513
-0.295678
-0.287184
-0.275406
-0.259388
-0.235228
-0.197402
-0.131963
0.00259946
0.0329919
-0.004066
0.000375337
0.0498746
-0.0015119
0.0664379
-0.00314308
0.0847034
-0.00441939
0.105765
-0.00539071
0.129131
-0.00577415
0.156735
-0.00585416
0.188879
-0.0043272
0.239879
0.307465
0.0024981
0.0340979
-0.00360406
0.000608229
0.0517645
-0.00121752
0.0682637
-0.00282851
0.0863144
-0.00412099
0.107058
-0.00508586
0.130096
-0.00552252
0.157172
-0.0056146
0.188971
-0.00418739
0.238452
0.303278
0.00254863
0.0348384
-0.00328919
0.000969009
0.0533441
-0.000717237
0.0699499
-0.00223556
0.0878327
-0.00349157
0.108314
-0.00443914
0.131044
-0.00493331
0.157666
-0.00503163
0.189069
-0.00382858
0.237249
0.299449
0.00268347
0.0352489
-0.00309392
0.00139512
0.0546324
-0.000154538
0.0714996
-0.00153417
0.0892123
-0.00271912
0.109499
-0.00365975
0.131985
-0.00419654
0.158203
-0.00437149
0.189244
-0.00339409
0.236271
0.296055
0.00289009
0.0353468
-0.002988
0.00190637
0.0556162
0.000567293
0.0728387
-0.000749712
0.0905293
-0.00185663
0.110606
-0.00278668
0.132915
-0.00337492
0.158791
-0.00364841
0.189517
-0.00290398
0.235527
0.293151
0.00317823
0.0351193
-0.00295071
0.00251722
0.0562772
0.00139428
0.0739616
0.000138422
0.0917852
-0.000883741
0.111628
-0.00181315
0.133844
-0.00246635
0.159444
-0.00285744
0.189908
-0.00236824
0.235038
0.290783
0.00354234
0.0345428
-0.0029659
0.00322008
0.0565994
0.00232066
0.074861
0.00124199
0.0928639
0.000210742
0.112659
-0.000742448
0.134797
-0.00145284
0.160154
-0.00199875
0.190454
-0.00179337
0.234832
0.288989
0.00396221
0.0335986
-0.00301803
0.00399849
0.0565632
0.00333483
0.0755247
0.00240056
0.0937981
0.00143604
0.113623
0.000448982
0.135784
-0.000320289
0.160924
-0.0010845
0.191219
-0.00118248
0.23493
0.287807
0.0044145
0.0322761
-0.00309201
0.00483216
0.0561455
0.0044184
0.0759384
0.00363111
0.0945854
0.00272365
0.114531
0.00176246
0.136745
0.000843325
0.161843
-0.000152498
0.192214
-0.000535769
0.235313
0.287271
0.00487239
-0.00317554
0.00569762
0.00555171
0.00491991
0.00407317
0.00310316
0.00206271
0.000929153
0.000137101
0.000215089
-0.00153202
0.000641211
-0.00358379
0.001197
-0.00489984
0.00183507
-0.00566779
0.00252915
-0.00603372
0.00326671
-0.00610987
0.00404446
-0.00598164
0.00486766
-0.00571317
0.0057575
-0.00535604
-0.00496724
0.00023617
-0.00176819
0.000685907
-0.00403352
0.00125689
-0.00547082
0.00189788
-0.00630878
0.00258258
-0.00671842
0.0033003
-0.0068276
0.00404991
-0.00673124
0.00483657
-0.00649983
0.00566935
-0.00618882
-0.00584773
0.00024723
-0.00201542
0.000698101
-0.00448439
0.00125208
-0.0060248
0.0018562
-0.0069129
0.0024859
-0.00734812
0.00313358
-0.00747528
0.00380107
-0.00739873
0.00449465
-0.00719341
0.00522012
-0.00691429
-0.00660352
0.000245945
-0.00226136
0.000672301
-0.00491075
0.00117441
-0.0065269
0.00170054
-0.00743903
0.00222991
-0.00787749
0.00275939
-0.00800476
0.00329485
-0.00793419
0.00384557
-0.00774414
0.00441983
-0.00748855
-0.00720619
0.000230622
-0.00249199
0.00060544
-0.00528557
0.00102118
-0.00694264
0.00143096
-0.00784882
0.00182001
-0.00826653
0.00219089
-0.00837564
0.00255427
-0.00829757
0.00292322
-0.00811309
0.0033099
-0.00787524
-0.00762153
0.000200374
-0.00269236
0.000497197
-0.00558239
0.000795268
-0.00724071
0.00105645
-0.00811
0.00127397
-0.00848405
0.00145685
-0.00855851
0.00162041
-0.00846113
0.00178094
-0.00827362
0.00195313
-0.00804743
-0.00782031
0.000155243
-0.0028476
0.000350074
-0.00577722
0.00050468
-0.00739532
0.00059333
-0.00819865
0.000618635
-0.00850936
0.000595968
-0.00853585
0.000544461
-0.00840963
0.000482336
-0.00821149
0.000424651
-0.00798974
-0.00777532
9.62741e-05
-0.00294388
0.000169162
-0.00585011
0.000161572
-0.00738773
6.29951e-05
-0.00810007
-0.000114057
-0.0083323
-0.000348642
-0.00830126
-0.000619322
-0.00813895
-0.000907849
-0.00792296
-0.00120024
-0.00769735
-0.00749062
2.55463e-05
-0.00296942
-3.80753e-05
-0.00578649
-0.000219072
-0.00720673
-0.000510434
-0.00780871
-0.000890404
-0.00795233
-0.00133401
-0.00785765
-0.00181915
-0.00765381
-0.002329
-0.00741312
-0.00285194
-0.0071744
-0.00696111
-5.48445e-05
-0.00291458
-0.000263516
-0.00557782
-0.000620934
-0.00684931
-0.00110245
-0.0073272
-0.00167801
-0.00737677
-0.00232024
-0.00721542
-0.00300789
-0.00696616
-0.00372655
-0.00669445
-0.00446787
-0.00643309
-0.00619925
-0.000127166