/*--------------------------------*- C++ -*----------------------------------*\
  =========                 |
  \\      /  F ield         | OpenFOAM: The Open Source CFD Toolbox
   \\    /   O peration     | Website:  https://openfoam.org
    \\  /    A nd           | Version:  7
     \\/     M anipulation  |
\*---------------------------------------------------------------------------*/
FoamFile
{
    version     2.0;
    format      ascii;
    class       volScalarField;
    location    "2.5";
    object      p;
}
// * * * * * * * * * * * * * * * * * * * * * * * * * * * * * * * * * * * * * //

dimensions      [0 2 -2 0 0 0 0];

internalField   nonuniform List<scalar> 
32000
(
1.1796
1.17871
1.17898
1.17954
1.18041
1.1815
1.18274
1.18408
1.18549
1.18696
1.18847
1.19004
1.19172
1.19355
1.19554
1.19769
1.2
1.20245
1.20503
1.2077
1.21045
1.21326
1.21612
1.21901
1.22191
1.2248
1.22765
1.23045
1.23317
1.23581
1.23836
1.2408
1.24314
1.24538
1.24751
1.24955
1.25148
1.25334
1.25511
1.25663
1.17626
1.17555
1.17587
1.17646
1.17735
1.17843
1.17963
1.1809
1.18223
1.18358
1.18497
1.1864
1.18793
1.18959
1.19142
1.19341
1.19558
1.19789
1.20034
1.2029
1.20555
1.20828
1.21107
1.21391
1.21677
1.21964
1.22248
1.22526
1.22798
1.23062
1.23316
1.23561
1.23794
1.24017
1.2423
1.24432
1.24625
1.24808
1.24982
1.25134
1.17285
1.17233
1.17271
1.17335
1.17425
1.17532
1.17648
1.17769
1.17892
1.18017
1.18142
1.18271
1.18408
1.18558
1.18724
1.18907
1.19108
1.19325
1.19557
1.19801
1.20057
1.20321
1.20593
1.20872
1.21155
1.21439
1.21722
1.22
1.22271
1.22535
1.22789
1.23033
1.23267
1.23489
1.23701
1.23903
1.24093
1.24275
1.24447
1.24597
1.16941
1.16908
1.16952
1.1702
1.17112
1.17218
1.1733
1.17444
1.17558
1.17671
1.17783
1.17897
1.18018
1.18152
1.18301
1.18467
1.18652
1.18854
1.19073
1.19306
1.19552
1.19808
1.20073
1.20346
1.20626
1.20908
1.21189
1.21466
1.21737
1.22001
1.22255
1.22499
1.22732
1.22955
1.23166
1.23367
1.23556
1.23735
1.23905
1.24053
1.16596
1.16582
1.16631
1.16704
1.16798
1.16903
1.17011
1.17118
1.17222
1.17322
1.17421
1.1752
1.17626
1.17743
1.17874
1.18024
1.18192
1.18379
1.18584
1.18806
1.19041
1.19289
1.19548
1.19816
1.20092
1.20372
1.20651
1.20927
1.21198
1.21461
1.21715
1.21959
1.22192
1.22415
1.22626
1.22825
1.23013
1.23189
1.23357
1.23503
1.16249
1.16253
1.16308
1.16385
1.16481
1.16585
1.1669
1.1679
1.16884
1.16973
1.17058
1.17142
1.17232
1.17332
1.17446
1.17579
1.1773
1.17902
1.18094
1.18303
1.18528
1.18767
1.19019
1.19283
1.19555
1.19832
1.2011
1.20385
1.20654
1.20917
1.21171
1.21415
1.21649
1.21871
1.22081
1.22279
1.22465
1.22639
1.22804
1.22949
1.15901
1.15925
1.15985
1.16067
1.16164
1.16268
1.16369
1.16463
1.16547
1.16624
1.16695
1.16765
1.16838
1.16921
1.17019
1.17134
1.17269
1.17426
1.17603
1.17799
1.18013
1.18244
1.1849
1.18749
1.19018
1.19291
1.19567
1.1984
1.20109
1.20371
1.20624
1.20868
1.21102
1.21323
1.21533
1.21729
1.21913
1.22085
1.22248
1.2239
1.15555
1.15597
1.15663
1.15749
1.15849
1.15952
1.16049
1.16137
1.16212
1.16277
1.16335
1.16389
1.16447
1.16513
1.16593
1.16691
1.1681
1.16951
1.17113
1.17297
1.175
1.17723
1.17962
1.18216
1.18481
1.18751
1.19024
1.19295
1.19563
1.19824
1.20077
1.20321
1.20553
1.20774
1.20982
1.21177
1.21359
1.21528
1.21688
1.21828
1.1521
1.15271
1.15342
1.15433
1.15535
1.15637
1.15732
1.15813
1.1588
1.15934
1.15978
1.16017
1.16059
1.16108
1.16172
1.16253
1.16355
1.1648
1.16628
1.16798
1.16991
1.17205
1.17438
1.17686
1.17946
1.18213
1.18483
1.18752
1.19018
1.19278
1.19531
1.19773
1.20005
1.20224
1.2043
1.20623
1.20803
1.20969
1.21125
1.21263
1.14868
1.14947
1.15024
1.1512
1.15223
1.15326
1.15417
1.15492
1.15551
1.15594
1.15625
1.1565
1.15676
1.15709
1.15756
1.1582
1.15906
1.16015
1.16148
1.16305
1.16487
1.16692
1.16918
1.17161
1.17416
1.17679
1.17945
1.18212
1.18476
1.18735
1.18986
1.19227
1.19457
1.19675
1.19879
1.20069
1.20246
1.20409
1.20562
1.20696
1.14529
1.14626
1.14708
1.14809
1.14915
1.15017
1.15105
1.15176
1.15227
1.15259
1.15278
1.15289
1.15299
1.15316
1.15347
1.15395
1.15464
1.15557
1.15675
1.1582
1.15991
1.16187
1.16406
1.16642
1.16892
1.1715
1.17413
1.17677
1.17939
1.18196
1.18445
1.18684
1.18912
1.19127
1.19329
1.19516
1.1969
1.19849
1.19998
1.20129
1.14194
1.14308
1.14395
1.14501
1.14609
1.14711
1.14798
1.14864
1.14907
1.14931
1.14937
1.14934
1.1493
1.14932
1.14946
1.14978
1.15031
1.15108
1.15212
1.15343
1.15504
1.15691
1.15902
1.16131
1.16375
1.16629
1.16888
1.17148
1.17407
1.17662
1.17908
1.18145
1.1837
1.18582
1.1878
1.18965
1.19134
1.1929
1.19434
1.19561
1.13864
1.13993
1.14087
1.14197
1.14307
1.14409
1.14494
1.14557
1.14594
1.14608
1.14604
1.14588
1.14569
1.14556
1.14555
1.14571
1.14608
1.1467
1.14759
1.14878
1.15027
1.15205
1.15407
1.1563
1.15867
1.16116
1.1637
1.16627
1.16883
1.17134
1.17377
1.17611
1.17832
1.18041
1.18236
1.18416
1.18582
1.18732
1.18871
1.18994
1.13539
1.13683
1.13782
1.13896
1.14009
1.14112
1.14196
1.14255
1.14286
1.14292
1.14278
1.1425
1.14217
1.1419
1.14174
1.14175
1.14196
1.14243
1.14318
1.14424
1.14562
1.1473
1.14924
1.15138
1.1537
1.15612
1.15862
1.16115
1.16367
1.16614
1.16853
1.17082
1.173
1.17504
1.17695
1.17871
1.18032
1.18177
1.1831
1.18429
1.1322
1.13376
1.1348
1.13599
1.13714
1.13818
1.13902
1.13958
1.13985
1.13984
1.13959
1.1392
1.13875
1.13834
1.13803
1.13789
1.13796
1.13828
1.13889
1.13983
1.1411
1.14267
1.14452
1.14659
1.14883
1.1512
1.15364
1.15612
1.1586
1.16102
1.16337
1.16561
1.16774
1.16974
1.1716
1.17331
1.17486
1.17625
1.17753
1.17866
1.12905
1.13074
1.13183
1.13306
1.13424
1.1353
1.13613
1.13667
1.1369
1.13682
1.13649
1.13599
1.13543
1.13488
1.13444
1.13415
1.13407
1.13425
1.13474
1.13555
1.1367
1.13818
1.13993
1.14191
1.14408
1.14638
1.14877
1.1512
1.15362
1.15599
1.15829
1.16048
1.16255
1.1645
1.1663
1.16795
1.16944
1.17077
1.17198
1.17305
1.12595
1.12775
1.12888
1.13016
1.13138
1.13245
1.13329
1.13382
1.13401
1.13387
1.13347
1.13288
1.1322
1.13153
1.13095
1.13053
1.13031
1.13036
1.13071
1.13141
1.13244
1.13381
1.13546
1.13736
1.13945
1.14169
1.14402
1.14639
1.14875
1.15106
1.15329
1.15543
1.15744
1.15933
1.16107
1.16266
1.16408
1.16534
1.16647
1.16749
1.12291
1.12479
1.12598
1.1273
1.12855
1.12965
1.1305
1.13101
1.13117
1.13099
1.13052
1.12984
1.12906
1.12828
1.12757
1.12702
1.12667
1.12659
1.12682
1.12739
1.12832
1.12957
1.13113
1.13294
1.13496
1.13712
1.13938
1.14168
1.14397
1.14622
1.14839
1.15046
1.15241
1.15423
1.15591
1.15742
1.15877
1.15996
1.16101
1.16196
1.1199
1.12187
1.1231
1.12447
1.12576
1.12688
1.12774
1.12826
1.12839
1.12817
1.12764
1.12689
1.12602
1.12512
1.12429
1.12362
1.12315
1.12294
1.12305
1.12351
1.12432
1.12547
1.12693
1.12865
1.13059
1.13268
1.13486
1.13709
1.13931
1.14148
1.14358
1.14558
1.14746
1.14921
1.15081
1.15226
1.15353
1.15463
1.15561
1.15649
1.11694
1.11897
1.12024
1.12166
1.12299
1.12415
1.12502
1.12554
1.12566
1.12541
1.12483
1.12401
1.12305
1.12205
1.12111
1.12031
1.11973
1.11941
1.1194
1.11975
1.12044
1.12149
1.12285
1.12448
1.12634
1.12835
1.13046
1.13261
1.13475
1.13684
1.13887
1.14079
1.1426
1.14427
1.14579
1.14716
1.14835
1.14936
1.15026
1.15107
1.11402
1.11609
1.11741
1.11888
1.12025
1.12144
1.12233
1.12285
1.12297
1.12269
1.12207
1.12119
1.12014
1.11905
1.11801
1.1171
1.11641
1.11598
1.11586
1.11609
1.11668
1.11763
1.11889
1.12044
1.12221
1.12414
1.12617
1.12823
1.13029
1.13231
1.13425
1.13609
1.13782
1.13941
1.14085
1.14213
1.14323
1.14416
1.14497
1.14571
1.11112
1.11323
1.11459
1.11611
1.11753
1.11875
1.11966
1.12019
1.1203
1.12001
1.11936
1.11842
1.1173
1.11612
1.11498
1.11397
1.11317
1.11264
1.11242
1.11255
1.11303
1.11388
1.11505
1.11651
1.1182
1.12004
1.12198
1.12396
1.12593
1.12786
1.12972
1.13148
1.13312
1.13462
1.13598
1.13717
1.13819
1.13903
1.13975
1.14042
1.10825
1.11038
1.11179
1.11336
1.11482
1.11608
1.11701
1.11755
1.11766
1.11735
1.11667
1.11568
1.1145
1.11324
1.11201
1.1109
1.11001
1.10938
1.10906
1.10909
1.10948
1.11023
1.11131
1.11268
1.11428
1.11604
1.11789
1.11978
1.12166
1.12351
1.12527
1.12694
1.12849
1.12991
1.13118
1.13229
1.13322
1.13397
1.13461
1.1352
1.1054
1.10754
1.10898
1.1106
1.11211
1.11341
1.11437
1.11492
1.11503
1.11471
1.114
1.11297
1.11173
1.11039
1.10908
1.10789
1.1069
1.10619
1.10578
1.10572
1.10602
1.10668
1.10767
1.10895
1.11047
1.11213
1.11389
1.11569
1.11749
1.11924
1.12091
1.12249
1.12395
1.12528
1.12646
1.12748
1.12832
1.12899
1.12954
1.13006
1.10256
1.1047
1.10618
1.10785
1.1094
1.11073
1.11172
1.11229
1.1124
1.11207
1.11133
1.11027
1.10897
1.10757
1.10619
1.10492
1.10385
1.10305
1.10257
1.10242
1.10264
1.10321
1.10411
1.10531
1.10673
1.10831
1.10998
1.11169
1.11339
1.11505
1.11663
1.11811
1.11948
1.12072
1.12181
1.12274
1.1235
1.12409
1.12455
1.125
1.09972
1.10186
1.10337
1.10508
1.10668
1.10805
1.10906
1.10964
1.10976
1.10942
1.10866
1.10756
1.10622
1.10477
1.10331
1.10197
1.10083
1.09996
1.0994
1.09918
1.09932
1.09981
1.10063
1.10174
1.10307
1.10456
1.10614
1.10775
1.10936
1.11092
1.11241
1.1138
1.11508
1.11623
1.11724
1.11808
1.11876
1.11927
1.11965
1.12003
1.09688
1.09901
1.10055
1.1023
1.10394
1.10534
1.10639
1.10698
1.1071
1.10676
1.10598
1.10484
1.10346
1.10195
1.10044
1.09903
1.09782
1.09689
1.09627
1.09599
1.09606
1.09647
1.09721
1.09823
1.09948
1.10087
1.10236
1.10388
1.1054
1.10687
1.10826
1.10956
1.11075
1.11181
1.11274
1.1135
1.1141
1.11453
1.11484
1.11515
1.09403
1.09615
1.0977
1.09949
1.10117
1.10261
1.10368
1.10429
1.10442
1.10406
1.10326
1.1021
1.10068
1.09912
1.09755
1.09609
1.09483
1.09385
1.09318
1.09283
1.09283
1.09317
1.09384
1.09478
1.09593
1.09724
1.09863
1.10006
1.10149
1.10286
1.10416
1.10537
1.10648
1.10746
1.10831
1.109
1.10952
1.10988
1.11013
1.11038
1.09116
1.09325
1.09483
1.09665
1.09838
1.09985
1.10094
1.10156
1.10169
1.10132
1.1005
1.09932
1.09786
1.09626
1.09465
1.09314
1.09184
1.09081
1.09009
1.0897
1.08964
1.08992
1.09051
1.09137
1.09243
1.09365
1.09495
1.09629
1.09762
1.0989
1.10012
1.10124
1.10227
1.10317
1.10394
1.10456
1.10503
1.10533
1.10551
1.10571
1.08826
1.09033
1.09192
1.09378
1.09554
1.09704
1.09816
1.09879
1.09891
1.09853
1.0977
1.09648
1.095
1.09336
1.09171
1.09017
1.08883
1.08777
1.08702
1.08658
1.08647
1.08668
1.0872
1.08798
1.08896
1.09009
1.0913
1.09255
1.09379
1.09498
1.09611
1.09715
1.0981
1.09894
1.09964
1.1002
1.10061
1.10087
1.10101
1.10116
1.08532
1.08737
1.08898
1.09086
1.09265
1.09419
1.09532
1.09596
1.09608
1.09568
1.09483
1.09359
1.09208
1.09042
1.08874
1.08717
1.08581
1.08472
1.08394
1.08346
1.08331
1.08347
1.08392
1.08462
1.08552
1.08655
1.08767
1.08883
1.08998
1.09109
1.09213
1.0931
1.09398
1.09475
1.09539
1.09591
1.09628
1.0965
1.09661
1.09674
1.08234
1.08436
1.08598
1.08789
1.08971
1.09127
1.09242
1.09307
1.09318
1.09277
1.0919
1.09064
1.0891
1.08742
1.08572
1.08414
1.08276
1.08166
1.08085
1.08034
1.08015
1.08026
1.08065
1.08127
1.08209
1.08303
1.08406
1.08512
1.08619
1.08721
1.08818
1.08907
1.08988
1.09059
1.09119
1.09167
1.09202
1.09222
1.09232
1.09245
1.0793
1.08131
1.08294
1.08486
1.08671
1.0883
1.08946
1.09011
1.09021
1.08979
1.0889
1.08762
1.08606
1.08437
1.08266
1.08107
1.07969
1.07857
1.07775
1.07722
1.07698
1.07705
1.07737
1.07793
1.07866
1.07951
1.08045
1.08143
1.0824
1.08334
1.08424
1.08506
1.08581
1.08647
1.08703
1.08749
1.08782
1.08803
1.08814
1.08828
1.07619
1.07819
1.07983
1.08178
1.08365
1.08525
1.08643
1.08707
1.08717
1.08673
1.08582
1.08452
1.08296
1.08125
1.07954
1.07795
1.07658
1.07546
1.07462
1.07407
1.07381
1.07383
1.07409
1.07458
1.07523
1.07599
1.07684
1.07772
1.07861
1.07948
1.08029
1.08105
1.08174
1.08236
1.08289
1.08333
1.08368
1.08391
1.08406
1.08425
1.07302
1.07502
1.07667
1.07863
1.08052
1.08214
1.08332
1.08396
1.08405
1.08359
1.08266
1.08135
1.07978
1.07807
1.07637
1.07479
1.07343
1.07231
1.07147
1.07091
1.07062
1.07059
1.0708
1.07121
1.07178
1.07246
1.07322
1.07401
1.07481
1.0756
1.07634
1.07703
1.07767
1.07825
1.07876
1.0792
1.07956
1.07984
1.08005
1.08033
1.06978
1.07178
1.07344
1.07542
1.07732
1.07895
1.08013
1.08077
1.08084
1.08037
1.07943
1.07811
1.07653
1.07483
1.07314
1.07159
1.07024
1.06914
1.06829
1.06772
1.0674
1.06733
1.06749
1.06783
1.06832
1.06891
1.06958
1.07029
1.071
1.0717
1.07236
1.07299
1.07357
1.07411
1.07461
1.07505
1.07545
1.07579
1.0761
1.0765
1.06646
1.06847
1.07014
1.07214
1.07406
1.07568
1.07686
1.07749
1.07755
1.07707
1.07611
1.07478
1.07321
1.07153
1.06986
1.06833
1.06701
1.06592
1.06508
1.0645
1.06416
1.06405
1.06415
1.06443
1.06483
1.06534
1.06592
1.06653
1.06716
1.06777
1.06836
1.06891
1.06944
1.06994
1.07041
1.07087
1.0713
1.07172
1.07215
1.07273
1.06306
1.0651
1.06678
1.06879
1.07071
1.07234
1.07351
1.07413
1.07418
1.07368
1.07271
1.07138
1.06982
1.06816
1.06653
1.06503
1.06374
1.06267
1.06184
1.06125
1.06089
1.06074
1.06079
1.06099
1.06132
1.06175
1.06223
1.06275
1.06328
1.06381
1.06431
1.06479
1.06525
1.06569
1.06613
1.06659
1.06706
1.06756
1.06816
1.06897
1.05958
1.06165
1.06334
1.06537
1.0673
1.06892
1.07008
1.07069
1.07071
1.0702
1.06923
1.06791
1.06637
1.06474
1.06315
1.06169
1.06043
1.05938
1.05856
1.05797
1.05759
1.0574
1.05739
1.05753
1.05778
1.05812
1.05851
1.05894
1.05937
1.0598
1.06021
1.0606
1.06098
1.06136
1.06174
1.06215
1.06262
1.0632
1.06402
1.06526
1.05602
1.05813
1.05984
1.06188
1.06381
1.06542
1.06657
1.06716
1.06717
1.06665
1.06568
1.06437
1.06286
1.06127
1.05972
1.05831
1.05708
1.05606
1.05526
1.05466
1.05426
1.05403
1.05397
1.05403
1.0542
1.05445
1.05476
1.05509
1.05542
1.05575
1.05607
1.05636
1.05664
1.05692
1.0572
1.0575
1.05786
1.05833
1.05907
1.06068
1.26099
1.26824
1.27291
1.2778
1.28164
1.28519
1.28833
1.2913
1.29406
1.29663
1.29899
1.30124
1.30332
1.30523
1.30698
1.3086
1.31012
1.31154
1.31291
1.31423
1.3155
1.31671
1.31786
1.31897
1.32004
1.32102
1.32191
1.32269
1.32334
1.32385
1.32417
1.32433
1.32424
1.324
1.32347
1.32288
1.32191
1.3212
1.31972
1.32003
1.25563
1.26341
1.26845
1.27357
1.27765
1.2813
1.28461
1.28763
1.29049
1.29312
1.29559
1.29788
1.29999
1.30196
1.30377
1.30543
1.30697
1.30843
1.30984
1.31119
1.31249
1.31372
1.31491
1.31605
1.31714
1.31815
1.31906
1.31986
1.32051
1.32102
1.32136
1.32151
1.32143
1.32119
1.32067
1.32009
1.31913
1.31842
1.31697
1.31728
1.2502
1.25852
1.26392
1.26931
1.27362
1.27738
1.28086
1.28394
1.28689
1.28959
1.29215
1.29449
1.29665
1.29866
1.30054
1.30225
1.30381
1.3053
1.30676
1.30815
1.30948
1.31074
1.31197
1.31313
1.31423
1.31528
1.31621
1.31702
1.31768
1.31821
1.31856
1.31872
1.31866
1.31841
1.31792
1.31735
1.3164
1.3157
1.31427
1.3146
1.24464
1.25359
1.25933
1.26503
1.26954
1.27347
1.27706
1.28025
1.28328
1.28605
1.28869
1.29108
1.2933
1.29536
1.29728
1.29903
1.30064
1.30218
1.30367
1.3051
1.30646
1.30775
1.30902
1.31021
1.31134
1.31241
1.31336
1.31419
1.31486
1.31541
1.31578
1.31595
1.31591
1.31568
1.31521
1.31465
1.31372
1.31304
1.31163
1.31198
1.23906
1.24862
1.25468
1.26072
1.26542
1.26954
1.27323
1.27654
1.27964
1.2825
1.28519
1.28765
1.28993
1.29204
1.294
1.29581
1.29747
1.29906
1.30058
1.30204
1.30344
1.30477
1.30607
1.30729
1.30844
1.30953
1.3105
1.31135
1.31206
1.31262
1.31301
1.31321
1.31319
1.31298
1.31254
1.312
1.31109
1.31043
1.30905
1.30942
1.23341
1.2436
1.24999
1.25639
1.26128
1.26558
1.26938
1.27281
1.27599
1.27893
1.28168
1.28421
1.28655
1.28872
1.29072
1.29258
1.29429
1.29592
1.29748
1.29897
1.30042
1.30179
1.30311
1.30437
1.30555
1.30666
1.30765
1.30853
1.30927
1.30985
1.31026
1.31049
1.31049
1.31032
1.3099
1.30938
1.30851
1.30787
1.30651
1.30692
1.2277
1.23854
1.24528
1.25202
1.25711
1.2616
1.26551
1.26906
1.27233
1.27535
1.27817
1.28076
1.28316
1.28538
1.28743
1.28933
1.29111
1.29278
1.29437
1.29591
1.29739
1.2988
1.30015
1.30145
1.30265
1.30379
1.30481
1.30572
1.30648
1.3071
1.30753
1.30779
1.30783
1.30768
1.3073
1.30681
1.30597
1.30536
1.30403
1.30446
1.22195
1.23345
1.24053
1.24762
1.25293
1.2576
1.26164
1.2653
1.26865
1.27175
1.27464
1.27729
1.27976
1.28203
1.28413
1.28609
1.28791
1.28963
1.29126
1.29283
1.29436
1.29581
1.2972
1.29852
1.29976
1.30092
1.30197
1.30291
1.30371
1.30436
1.30482
1.30511
1.30519
1.30508
1.30474
1.30428
1.30348
1.3029
1.30159
1.30205
1.21615
1.22833
1.23576
1.2432
1.24873
1.25358
1.25774
1.26152
1.26497
1.26815
1.2711
1.27382
1.27634
1.27867
1.28082
1.28283
1.2847
1.28647
1.28814
1.28976
1.29132
1.29282
1.29424
1.2956
1.29687
1.29806
1.29915
1.30011
1.30094
1.30163
1.30213
1.30246
1.30257
1.30251
1.30221
1.30179
1.30102
1.30048
1.29921
1.29969
1.21032
1.22305
1.23097
1.23877
1.24451
1.24954
1.25384
1.25773
1.26127
1.26453
1.26756
1.27034
1.27292
1.2753
1.27751
1.27956
1.28149
1.2833
1.28502
1.28668
1.28828
1.28983
1.29128
1.29267
1.29398
1.2952
1.29632
1.29732
1.29819
1.29891
1.29945
1.29982
1.29998
1.29996
1.29971
1.29934
1.29861
1.29811
1.29687
1.29738
1.20447
1.21789
1.22616
1.23431
1.24029
1.24549
1.24993
1.25394
1.25757
1.26091
1.26401
1.26685
1.26949
1.27193
1.27419
1.2763
1.27827
1.28012
1.28189
1.2836
1.28524
1.28683
1.28832
1.28975
1.29109
1.29234
1.2935
1.29454
1.29544
1.2962
1.29679
1.2972
1.29741
1.29744
1.29723
1.29692
1.29624
1.29578
1.29458
1.29511
1.19862
1.21273
1.22135
1.22985
1.23605
1.24143
1.24602
1.25013
1.25387
1.25729
1.26046
1.26337
1.26607
1.26855
1.27087
1.27303
1.27504
1.27695
1.27875
1.28051
1.28219
1.28383
1.28535
1.28682
1.2882
1.28949
1.29069
1.29176
1.2927
1.29351
1.29414
1.2946
1.29486
1.29495
1.29479
1.29453
1.29391
1.29349
1.29234
1.29289
1.19275
1.20755
1.21653
1.22538
1.2318
1.23737
1.24209
1.24633
1.25016
1.25367
1.25691
1.25988
1.26264
1.26518
1.26755
1.26975
1.27182
1.27376
1.27561
1.27742
1.27914
1.28082
1.28239
1.28389
1.28531
1.28663
1.28787
1.28899
1.28997
1.29082
1.2915
1.29202
1.29232
1.29247
1.29238
1.29218
1.29161
1.29124
1.29014
1.29072
1.1869
1.20236
1.21171
1.2209
1.22755
1.2333
1.23817
1.24253
1.24645
1.25005
1.25336
1.25639
1.25921
1.26181
1.26424
1.26648
1.26859
1.27058
1.27247
1.27432
1.27609
1.27781
1.27942
1.28096
1.28242
1.28378
1.28506
1.28622
1.28724
1.28814
1.28887
1.28945
1.28981
1.29003
1.29
1.28986
1.28936
1.28904
1.28798
1.2886
1.18105
1.19716
1.2069
1.21642
1.2233
1.22924
1.23425
1.23873
1.24275
1.24643
1.24982
1.25291
1.25579
1.25844
1.26092
1.26321
1.26536
1.26739
1.26933
1.27123
1.27304
1.27479
1.27645
1.27802
1.27953
1.28093
1.28224
1.28345
1.28452
1.28547
1.28625
1.28689
1.28731
1.2876
1.28765
1.28758
1.28714
1.28688
1.28588
1.28653
1.17523
1.19196
1.2021
1.21195
1.21906
1.22517
1.23033
1.23493
1.23906
1.24281
1.24627
1.24943
1.25237
1.25508
1.2576
1.25994
1.26213
1.26421
1.26619
1.26813
1.26998
1.27177
1.27347
1.27508
1.27664
1.27808
1.27943
1.28068
1.2818
1.2828
1.28364
1.28435
1.28484
1.2852
1.28532
1.28533
1.28496
1.28477
1.28381
1.2845
1.16945
1.18678
1.19731
1.20748
1.21481
1.22111
1.22642
1.23114
1.23537
1.23921
1.24273
1.24596
1.24895
1.25172
1.25429
1.25667
1.2589
1.26103
1.26305
1.26503
1.26692
1.26875
1.2705
1.27215
1.27374
1.27522
1.27661
1.27791
1.27909
1.28015
1.28104
1.28181
1.28238
1.28282
1.28302
1.28311
1.28281
1.2827
1.2818
1.28252
1.1637
1.18162
1.19255
1.20303
1.21058
1.21706
1.22252
1.22737
1.23169
1.23561
1.2392
1.2425
1.24554
1.24836
1.25098
1.2534
1.25568
1.25785
1.25991
1.26193
1.26386
1.26573
1.26752
1.26921
1.27084
1.27237
1.2738
1.27515
1.27638
1.27749
1.27845
1.27929
1.27993
1.28046
1.28075
1.28093
1.28071
1.28067
1.27983
1.28059
1.15801
1.1765
1.18782
1.19858
1.20636
1.21303
1.21864
1.2236
1.22802
1.23203
1.23569
1.23905
1.24215
1.24502
1.24768
1.25014
1.25246
1.25467
1.25678
1.25883
1.26081
1.26271
1.26454
1.26627
1.26794
1.26951
1.27099
1.27239
1.27368
1.27485
1.27587
1.27678
1.27751
1.27812
1.2785
1.27877
1.27865
1.27869
1.27791
1.27872
1.15238
1.17142
1.18313
1.19416
1.20216
1.20901
1.21477
1.21986
1.22437
1.22845
1.23218
1.23561
1.23877
1.24168
1.24439
1.2469
1.24925
1.2515
1.25364
1.25574
1.25775
1.25969
1.26156
1.26333
1.26503
1.26666
1.26818
1.26962
1.27097
1.2722
1.27329
1.27428
1.27509
1.2758
1.27628
1.27665
1.27662
1.27676
1.27605
1.2769
1.14682
1.16639
1.17847
1.18976
1.19798
1.20501
1.21092
1.21613
1.22074
1.2249
1.2287
1.23219
1.2354
1.23836
1.24112
1.24366
1.24606
1.24834
1.25052
1.25265
1.2547
1.25667
1.25858
1.26039
1.26213
1.2638
1.26537
1.26686
1.26827
1.26956
1.27071
1.27179
1.27269
1.27349
1.27408
1.27457
1.27464
1.27487
1.27423
1.27513
1.14133
1.16144
1.17386
1.18539
1.19383
1.20105
1.2071
1.21243
1.21713
1.22137
1.22523
1.22879
1.23205
1.23506
1.23786
1.24044
1.24287
1.24519
1.2474
1.24956
1.25165
1.25365
1.25559
1.25745
1.25922
1.26094
1.26256
1.2641
1.26556
1.26692
1.26815
1.2693
1.2703
1.2712
1.2719
1.27251
1.27269
1.27303
1.27248
1.27342
1.13593
1.15658
1.16931
1.18106
1.18971
1.19711
1.20331
1.20875
1.21354
1.21786
1.22179
1.22541
1.22872
1.23178
1.23461
1.23722
1.23969
1.24204
1.24429
1.24648
1.2486
1.25063
1.25261
1.25451
1.25631
1.25808
1.25975
1.26134
1.26286
1.26428
1.26558
1.26682
1.26791
1.26893
1.26974
1.27047
1.27079
1.27124
1.27078
1.27177
1.13061
1.15181
1.16482
1.17676
1.18562
1.1932
1.19955
1.2051
1.20999
1.21438
1.21838
1.22205
1.22541
1.22851
1.23138
1.23402
1.23652
1.23891
1.24119
1.24341
1.24556
1.24762
1.24962
1.25157
1.25341
1.25521
1.25693
1.25857
1.26015
1.26164
1.26301
1.26434
1.26554
1.26666
1.26759
1.26847
1.26891
1.2695
1.26913
1.27017
1.12539
1.14712
1.16039
1.17251
1.18157
1.18934
1.19583
1.20149
1.20647
1.21093
1.21499
1.21872
1.22212
1.22526
1.22816
1.23084
1.23336
1.23578
1.23809
1.24034
1.24252
1.24461
1.24664
1.24863
1.2505
1.25235
1.25411
1.25581
1.25744
1.259
1.26045
1.26186
1.26316
1.2644
1.26546
1.26648
1.26708
1.2678
1.26754
1.26864
1.12026
1.14251
1.15602
1.1683
1.17757
1.18551
1.19215
1.19792
1.20298
1.20752
1.21163
1.21541
1.21886
1.22203
1.22497
1.22767
1.23022
1.23267
1.23501
1.23728
1.23948
1.2416
1.24366
1.24569
1.2476
1.24948
1.25129
1.25304
1.25473
1.25636
1.25789
1.25939
1.26079
1.26215
1.26335
1.26452
1.26527
1.26615
1.26601
1.26717
1.11525
1.13792
1.15171
1.16414
1.17362
1.18174
1.18852
1.19439
1.19954
1.20414
1.20831
1.21214
1.21563
1.21883
1.22179
1.22452
1.22709
1.22957
1.23194
1.23423
1.23645
1.2386
1.24069
1.24274
1.24469
1.24661
1.24847
1.25026
1.25201
1.25371
1.25532
1.25691
1.25842
1.2599
1.26124
1.26257
1.2635
1.26454
1.26454
1.26578
1.11037
1.13333
1.14746
1.16003
1.16972
1.17801
1.18493
1.1909
1.19613
1.2008
1.20503
1.2089
1.21243
1.21566
1.21864
1.22139
1.22398
1.22648
1.22887
1.23118
1.23343
1.2356
1.23772
1.2398
1.24178
1.24374
1.24564
1.24748
1.24929
1.25105
1.25275
1.25443
1.25605
1.25766
1.25914
1.26064
1.26176
1.26298
1.26314
1.26445
1.10562
1.12892
1.14328
1.15598
1.16587
1.17433
1.18138
1.18746
1.19277
1.1975
1.20178
1.2057
1.20926
1.21251
1.21551
1.21828
1.22089
1.22341
1.22582
1.22815
1.23042
1.23261
1.23475
1.23685
1.23887
1.24086
1.24281
1.2447
1.24657
1.2484
1.25017
1.25194
1.25367
1.25541
1.25705
1.25873
1.26005
1.26147
1.2618
1.26322
1.10104
1.12462
1.13917
1.15199
1.16209
1.17072
1.1779
1.18407
1.18946
1.19426
1.19858
1.20254
1.20612
1.20939
1.2124
1.21519
1.21782
1.22035
1.22279
1.22512
1.22741
1.22962
1.23178
1.23391
1.23596
1.23798
1.23997
1.24191
1.24384
1.24573
1.24759
1.24945
1.25129
1.25316
1.25496
1.25683
1.25836
1.26001
1.26054
1.26207
1.09662
1.12041
1.13514
1.14807
1.15837
1.16716
1.17448
1.18074
1.18621
1.19106
1.19543
1.19942
1.20302
1.2063
1.20933
1.21213
1.21478
1.21732
1.21977
1.22211
1.22441
1.22664
1.22882
1.23096
1.23305
1.2351
1.23713
1.23912
1.2411
1.24306
1.245
1.24696
1.24891
1.25091
1.25287
1.25493
1.25669
1.25859
1.25935
1.26102
1.09239
1.1163
1.13119
1.14422
1.15473
1.16368
1.17112
1.17748
1.18301
1.18792
1.19233
1.19634
1.19996
1.20325
1.20628
1.20909
1.21176
1.2143
1.21676
1.21911
1.22143
1.22366
1.22586
1.22802
1.23014
1.23222
1.23429
1.23633
1.23835
1.24038
1.2424
1.24445
1.24651
1.24865
1.25078
1.25304
1.25504
1.25723
1.25825
1.26008
1.08836
1.11229
1.12732
1.14046
1.15118
1.16026
1.16783
1.17428
1.17988
1.18484
1.18928
1.19331
1.19693
1.20024
1.20327
1.20609
1.20876
1.2113
1.21377
1.21613
1.21845
1.22069
1.2229
1.22508
1.22722
1.22933
1.23144
1.23353
1.2356
1.2377
1.23979
1.24193
1.2441
1.24638
1.24867
1.25115
1.25341
1.2559
1.25723
1.25926
1.08456
1.1084
1.12354
1.13679
1.1477
1.15694
1.16462
1.17116
1.17682
1.18183
1.18628
1.19033
1.19396
1.19726
1.2003
1.20311
1.20579
1.20833
1.2108
1.21316
1.21548
1.21773
1.21996
1.22214
1.2243
1.22645
1.22858
1.23072
1.23284
1.235
1.23717
1.2394
1.24168
1.2441
1.24656
1.24925
1.25178
1.25462
1.25631
1.25859
1.08096
1.1046
1.11987
1.13323
1.14433
1.1537
1.1615
1.16812
1.17384
1.17888
1.18335
1.1874
1.19102
1.19433
1.19736
1.20017
1.20285
1.20539
1.20785
1.21021
1.21252
1.21478
1.21701
1.21921
1.22139
1.22356
1.22572
1.2279
1.23007
1.23229
1.23453
1.23686
1.23925
1.2418
1.24443
1.24733
1.25015
1.25336
1.25549
1.25809
1.07763
1.10093
1.11632
1.12979
1.14107
1.15057
1.15847
1.16517
1.17094
1.176
1.18048
1.18452
1.18815
1.19144
1.19447
1.19727
1.19994
1.20247
1.20492
1.20728
1.20958
1.21184
1.21407
1.21628
1.21847
1.22067
1.22285
1.22507
1.22729
1.22958
1.23189
1.2343
1.2368
1.23948
1.24227
1.2454
1.24852
1.25213
1.25477
1.25777
1.0746
1.09741
1.11293
1.12651
1.13794
1.14756
1.15557
1.16233
1.16814
1.17321
1.17769
1.18172
1.18533
1.18861
1.19162
1.19441
1.19707
1.19958
1.20201
1.20436
1.20666
1.20891
1.21114
1.21335
1.21555
1.21777
1.21998
1.22224
1.2245
1.22684
1.22922
1.23172
1.23433
1.23713
1.2401
1.24344
1.24688
1.25092
1.25415
1.25769
1.07187
1.09395
1.1096
1.1233
1.13487
1.1446
1.1527
1.15952
1.16536
1.17045
1.17492
1.17893
1.18252
1.18577
1.18877
1.19154
1.19418
1.19668
1.19909
1.20142
1.2037
1.20595
1.20818
1.21039
1.2126
1.21484
1.21707
1.21937
1.22167
1.22407
1.22652
1.2291
1.23181
1.23474
1.23787
1.24143
1.24519
1.2497
1.25361
1.25788
1.0692
1.09029
1.10607
1.1199
1.13162
1.14148
1.14969
1.15658
1.16246
1.16756
1.17203
1.17602
1.17959
1.18283
1.18581
1.18858
1.19119
1.19368
1.19607
1.19839
1.20066
1.2029
1.20513
1.20735
1.20957
1.21182
1.21409
1.21642
1.21878
1.22123
1.22375
1.22642
1.22923
1.23229
1.23558
1.23935
1.24343
1.24844
1.25315
1.2584
1.067
1.08692
1.1028
1.11668
1.12849
1.13843
1.1467
1.15364
1.15954
1.16465
1.16911
1.17309
1.17666
1.17989
1.18286
1.18561
1.18822
1.19069
1.19306
1.19538
1.19764
1.19988
1.2021
1.20433
1.20656
1.20883
1.21112
1.21348
1.21588
1.21838
1.22097
1.22372
1.22662
1.22979
1.23322
1.23719
1.24157
1.24707
1.25266
1.25918
1.06055
1.07909
1.09498
1.10886
1.12074
1.13076
1.13904
1.14588
1.15165
1.15663
1.16102
1.16494
1.16846
1.17165
1.17457
1.17728
1.17982
1.18224
1.18455
1.18681
1.18903
1.19123
1.19343
1.19564
1.19788
1.20017
1.20251
1.20492
1.20742
1.21002
1.21276
1.21567
1.21877
1.22219
1.22596
1.23035
1.23545
1.24215
1.25021
1.26098
1.04115
1.05906
1.07448
1.08796
1.09963
1.10966
1.1181
1.12521
1.13126
1.13651
1.14114
1.14526
1.14898
1.15236
1.15547
1.15837
1.16109
1.16369
1.1662
1.16864
1.17105
1.17344
1.17583
1.17824
1.18067
1.18316
1.1857
1.18831
1.19101
1.19384
1.19679
1.19994
1.20331
1.20702
1.21114
1.21599
1.22177
1.22957
1.23937
1.25235
1.02159
1.03876
1.0536
1.06669
1.07816
1.08817
1.09673
1.10404
1.11033
1.11581
1.12065
1.12498
1.1289
1.13248
1.13579
1.13888
1.14181
1.14461
1.14732
1.14997
1.15258
1.15518
1.15778
1.1604
1.16305
1.16574
1.1685
1.17133
1.17425
1.1773
1.18049
1.18389
1.18752
1.19153
1.19598
1.20122
1.20746
1.21583
1.2263
1.24009
1.00168
1.01815
1.03242
1.04517
1.05646
1.06642
1.07505
1.08249
1.08895
1.09462
1.09966
1.10418
1.10829
1.11207
1.11557
1.11887
1.12199
1.12499
1.12791
1.13076
1.13358
1.13639
1.1392
1.14204
1.14491
1.14782
1.1508
1.15386
1.15702
1.16031
1.16375
1.16741
1.17131
1.1756
1.18036
1.18591
1.19245
1.20107
1.21169
1.22572
0.98144
0.997235
1.01098
1.02338
1.03448
1.04437
1.05303
1.06057
1.06719
1.07303
1.07826
1.08298
1.08729
1.09127
1.09498
1.09848
1.10181
1.10502
1.10814
1.11121
1.11424
1.11727
1.1203
1.12335
1.12644
1.12959
1.1328
1.13609
1.13948
1.14301
1.14669
1.15059
1.15475
1.15929
1.16429
1.17006
1.17677
1.18546
1.19598
1.20994
0.960777
0.975966
0.989205
1.00127
1.01217
1.02198
1.03065
1.03828
1.04502
1.05103
1.05644
1.06135
1.06587
1.07006
1.07398
1.0777
1.08125
1.08467
1.08801
1.0913
1.09455
1.0978
1.10105
1.10433
1.10764
1.11101
1.11445
1.11796
1.12158
1.12533
1.12924
1.13336
1.13773
1.14247
1.14765
1.15358
1.16036
1.16901
1.17935
1.19317
0.939631
0.95428
0.967056
0.978804
0.989515
0.999239
1.00791
1.01561
1.02247
1.02863
1.03421
1.03932
1.04404
1.04845
1.05259
1.05652
1.0603
1.06395
1.06751
1.07102
1.0745
1.07797
1.08145
1.08495
1.08849
1.09208
1.09573
1.09947
1.1033
1.10726
1.11136
1.11568
1.12022
1.12513
1.13044
1.13645
1.14325
1.15181
1.16195
1.1756
0.917949
0.932131
0.944492
0.955948
0.966485
0.976129
0.984796
0.992551
0.999523
1.00583
1.01158
1.01688
1.0218
1.02642
1.03078
1.03494
1.03895
1.04283
1.04663
1.05037
1.05408
1.05777
1.06148
1.06521
1.06896
1.07277
1.07663
1.08057
1.0846
1.08875
1.09304
1.09752
1.10222
1.10725
1.11266
1.11872
1.1255
1.13395
1.14388
1.15732
0.895696
0.909478
0.921476
0.932672
0.943049
0.952618
0.961281
0.969087
0.976159
0.982602
0.988515
0.993996
0.999123
1.00395
1.00854
1.01294
1.01717
1.02129
1.02532
1.0293
1.03324
1.03716
1.0411
1.04504
1.04902
1.05304
1.0571
1.06124
1.06546
1.06979
1.07424
1.07887
1.0837
1.08883
1.09431
1.10039
1.10714
1.11546
1.12515
1.13836
0.872851
0.886294
0.897977
0.908942
0.919177
0.92868
0.937339
0.945195
0.952362
0.958936
0.965008
0.97067
0.975995
0.981042
0.985856
0.99048
0.994952
0.999308
1.00358
1.00779
1.01196
1.01612
1.02027
1.02444
1.02863
1.03285
1.03712
1.04145
1.04584
1.05034
1.05494
1.05971
1.06465
1.06987
1.0754
1.0815
1.08819
1.09637
1.10581
1.11876
0.849395
0.862554
0.873968
0.884731
0.894841
0.904287
0.912948
0.920853
0.928113
0.934815
0.941042
0.946881
0.952403
0.957661
0.962698
0.967553
0.972261
0.976855
0.981362
0.985808
0.990216
0.994603
0.998983
1.00337
1.00777
1.01219
1.01665
1.02116
1.02573
1.03039
1.03513
1.04002
1.04506
1.05036
1.05593
1.06203
1.06866
1.07668
1.08586
1.09853
0.825318
0.838239
0.849426
0.860015
0.870017
0.879417
0.888086
0.896043
0.903395
0.910222
0.9166
0.922612
0.928327
0.933793
0.93905
0.944135
0.94908
0.95391
0.958655
0.963337
0.967977
0.972593
0.977195
0.981796
0.986404
0.991029
0.99568
1.00037
1.00511
1.00991
1.01479
1.0198
1.02493
1.0303
1.03591
1.04199
1.04855
1.05641
1.06532
1.0777
0.800613
0.813335
0.824331
0.834772
0.844684
0.85405
0.862733
0.870744
0.878187
0.885138
0.891664
0.897846
0.903749
0.909419