/*--------------------------------*- C++ -*----------------------------------*\
  =========                 |
  \\      /  F ield         | OpenFOAM: The Open Source CFD Toolbox
   \\    /   O peration     | Website:  https://openfoam.org
    \\  /    A nd           | Version:  7
     \\/     M anipulation  |
\*---------------------------------------------------------------------------*/
FoamFile
{
    version     2.0;
    format      ascii;
    class       volScalarField;
    location    "0.125";
    object      p;
}
// * * * * * * * * * * * * * * * * * * * * * * * * * * * * * * * * * * * * * //

dimensions      [0 2 -2 0 0 0 0];

internalField   nonuniform List<scalar> 
400
(
6.99124e-06
-0.00587563
-0.0129989
-0.0184195
-0.0204256
-0.0182277
-0.0117632
-0.00147708
0.0118363
0.0271382
0.043223
0.0587925
0.0725422
0.0832704
0.0900177
0.0922391
0.090013
0.084265
0.0768979
0.0710418
0.00581357
-0.000237929
-0.00575106
-0.00944599
-0.0104814
-0.00830869
-0.00285495
0.00556551
0.0163592
0.0287254
0.0417178
0.0543105
0.0654745
0.0742732
0.0799743
0.0821773
0.080962
0.076985
0.0712737
0.0652742
0.0133541
0.00494799
-0.00100463
-0.00440526
-0.00524633
-0.0032317
0.00163461
0.00905361
0.0185168
0.0293492
0.0407489
0.0518372
0.0617231
0.0695832
0.074753
0.0768299
0.0758033
0.0720756
0.0658692
0.0574943
0.0201408
0.00856191
0.00119415
-0.00267127
-0.00371856
-0.00187529
0.00274462
0.00979685
0.018788
0.0290953
0.0399834
0.0506364
0.0602079
0.0678868
0.0729751
0.0749789
0.0737499
0.0694701
0.0617182
0.0500812
0.0245125
0.00960447
0.000552857
-0.00398956
-0.00529929
-0.00349698
0.00118998
0.00835044
0.017475
0.0279564
0.0390848
0.0500614
0.060033
0.0681447
0.0736064
0.0757824
0.0743584
0.0693147
0.0596838
0.0445124
0.0252158
0.00695559
-0.0038377
-0.00905466
-0.0105058
-0.00848589
-0.00333647
0.00445214
0.0143351
0.025697
0.0378256
0.0499075
0.0610448
0.0702944
0.0767249
0.0795096
0.0781325
0.0723667
0.0607377
0.0418467
0.0211764
-0.000472164
-0.0129594
-0.0186931
-0.0200128
-0.0173895
-0.011287
-0.00228476
0.00902577
0.0220089
0.035937
0.0499641
0.0631233
0.074349
0.0825219
0.0865681
0.0857142
0.0794831
0.0658555
0.0429953
0.0112898
-0.0138331
-0.0278784
-0.0338147
-0.0345674
-0.0308155
-0.023164
-0.0122924
0.0011586
0.0165355
0.0330986
0.0499712
0.0661103
0.0803061
0.0912091
0.0974312
0.0978577
0.0916675
0.0761644
0.0489889
-0.00573617
-0.0344782
-0.0498417
-0.0554769
-0.0550282
-0.0494496
-0.0395226
-0.0260388
-0.00968155
0.00889643
0.0289684
0.0496509
0.0698416
0.0881837
0.103063
0.112702
0.115525
0.11021
0.0931322
0.0612099
-0.0315207
-0.0640794
-0.0803478
-0.084896
-0.0823278
-0.0739872
-0.0608859
-0.0439389
-0.0238529
-0.00124047
0.0232355
0.0487395
0.0741577
0.0980146
0.118418
0.133122
0.139942
0.136811
0.118764
0.0816279
-0.0682004
-0.104795
-0.121227
-0.123435
-0.117392
-0.10501
-0.0876005
-0.0662062
-0.041517
-0.0140374
0.0157173
0.0470524
0.0789359
0.109849
0.137651
0.159575
0.172651
0.173733
0.155863
0.113118
-0.118773
-0.159536
-0.174742
-0.172556
-0.160996
-0.142792
-0.119624
-0.0926417
-0.0624408
-0.0293117
0.00650366
0.0445915
0.0841525
0.123772
0.161169
0.193066
0.215555
0.223977
0.208397
0.159973
-0.187796
-0.232403
-0.243708
-0.233708
-0.213524
-0.187008
-0.156231
-0.122359
-0.0857528
-0.0463251
-0.0038702
0.0416724
0.0899554
0.139912
0.189359
0.234663
0.270922
0.291494
0.282063
0.22883
-0.2829
-0.329415
-0.331539
-0.30802
-0.274542
-0.236302
-0.195633
-0.153475
-0.109698
-0.0635962
-0.0142867
0.0390088
0.0966832
0.158376
0.222431
0.285268
0.341218
0.381317
0.385128
0.330515
-0.418026
-0.459627
-0.441979
-0.39555
-0.342004
-0.28764
-0.234517
-0.182821
-0.131485
-0.078845
-0.023063
0.0376298
0.104701
0.178965
0.259953
0.344988
0.428447
0.499335
0.529623
0.483687
-0.619286
-0.636481
-0.578261
-0.49403
-0.411184
-0.335611
-0.267723
-0.205899
-0.147438
-0.0892584
-0.0282816
0.0385066
0.113969
0.200628
0.30011
0.412106
0.532963
0.651438
0.732436
0.720554
-0.935495
-0.87811
-0.74164
-0.598034
-0.474378
-0.372611
-0.288817
-0.217693
-0.153859
-0.0923468
-0.0285851
0.0418442
0.12342
0.220872
0.339055
0.482279
0.652284
0.841654
1.01494
1.09623
-1.48053
-1.20192
-0.920991
-0.692558
-0.517696
-0.387717
-0.290194
-0.213403
-0.148116
-0.0871433
-0.0244479
0.0456445
0.129183
0.233368
0.367416
0.543157
0.772648
1.06029
1.39817
1.73403
-2.57155
-1.60192
-1.04349
-0.71487
-0.49785
-0.353433
-0.255558
-0.184287
-0.12657
-0.0737314
-0.019136
0.0431512
0.119852
0.219735
0.356074
0.549873
0.829844
1.23508
1.8811
2.95924
-4.4451
-2.01728
-0.96984
-0.564412
-0.357133
-0.23912
-0.169423
-0.123332
-0.0871821
-0.0533287
-0.0166035
0.0276117
0.0844095
0.161306
0.271681
0.441448
0.718866
1.22154
2.38404
4.92939
)
;

boundaryField
{
    movingWall
    {
        type            zeroGradient;
    }
    fixedWalls
    {
        type            zeroGradient;
    }
    frontAndBack
    {
        type            empty;
    }
}


// ************************************************************************* //
