/*--------------------------------*- C++ -*----------------------------------*\
  =========                 |
  \\      /  F ield         | OpenFOAM: The Open Source CFD Toolbox
   \\    /   O peration     | Website:  https://openfoam.org
    \\  /    A nd           | Version:  7
     \\/     M anipulation  |
\*---------------------------------------------------------------------------*/
FoamFile
{
    version     2.0;
    format      ascii;
    class       surfaceScalarField;
    location    "76";
    object      phi;
}
// * * * * * * * * * * * * * * * * * * * * * * * * * * * * * * * * * * * * * //

dimensions      [0 3 -1 0 0 0 0];

internalField   nonuniform List<scalar> 
3880
(
-2.19444e-05
-0.000598863
0.000620807
-1.61192e-05
-0.00139131
0.00138548
3.42656e-05
-0.00182014
0.00176975
0.000139578
-0.00194041
0.00183509
0.000309159
-0.00178728
0.0016177
0.000553028
-0.00138386
0.00113999
0.000880304
-0.000747317
0.000420042
0.00129647
0.000106253
-0.000522417
0.00180015
0.00115768
-0.00166136
0.00238234
0.00237965
-0.00296184
-1.24698e-05
-0.000586393
1.30439e-05
-0.00141682
8.74186e-05
-0.00189451
0.000217082
-0.00207007
0.000409271
-0.00197947
0.000673515
-0.00164811
0.00102013
-0.00109394
0.00145724
-0.000330857
0.00198693
0.000627994
0.00176851
0.00260076
2.68295e-06
-0.000589076
5.68985e-05
-0.00147104
0.000167099
-0.00200471
0.000334121
-0.00223709
0.000561653
-0.002207
0.000857329
-0.00194378
0.00123142
-0.00146803
0.0016939
-0.000793334
0.00225036
7.15254e-05
0.00112204
0.00289683
2.217e-05
-0.000611246
0.000114807
-0.00156367
0.000272443
-0.00216235
0.000489882
-0.00245453
0.000766338
-0.00248346
0.00110641
-0.00228386
0.00151909
-0.0018807
0.00201511
-0.00128936
0.00260316
-0.000516524
0.00044099
0.00328421
4.64455e-05
-0.000657691
0.000185034
-0.00170226
0.000399991
-0.00237731
0.000679311
-0.00273385
0.00101723
-0.00282138
0.00141467
-0.0026813
0.00187842
-0.00234445
0.00241894
-0.00182988
0.00304703
-0.00114461
-0.000280588
0.00376861
7.42744e-05
-0.000731966
0.000264361
-0.00189235
0.000543395
-0.00265634
0.000892397
-0.00308285
0.00130063
-0.00322962
0.00176526
-0.00314593
0.00229049
-0.00286968
0.00288587
-0.00242526
0.00356332
-0.00182205
-0.00104996
0.00433269
0.000104245
-0.000836211
0.000348241
-0.00213634
0.000693528
-0.00300163
0.00111427
-0.00350359
0.00159513
-0.00371048
0.0021299
-0.00368069
0.00272039
-0.00346017
0.00337507
-0.00307995
0.00410653
-0.00255351
-0.00187026
0.00492683
0.000134627
-0.000970838
0.000431072
-0.00243279
0.000839062
-0.00340962
0.00132621
-0.00399074
0.00187322
-0.00425749
0.00247107
-0.00427855
0.00311962
-0.00410871
0.00382655
-0.00378687
0.00460554
-0.00333251
-0.0027347
0.00546999
0.000163467
-0.0011343
0.000506578
-0.0027759
0.000967393
-0.00387043
0.00150754
-0.00453089
0.00210449
-0.00485443
0.00274717
-0.00492123
0.00343369
-0.00479524
0.0041707
-0.00452388
0.00497365
-0.00413546
-0.00362411
0.00586306
0.0001887
-0.001323
0.000568267
-0.00315547
0.00106577
-0.00436794
0.00163779
-0.00510291
0.00225966
-0.00547631
0.00291931
-0.00558088
0.00361358
-0.00548951
0.00434684
-0.00525714
0.00513326
-0.00492188
0.00601831
-0.00450916
0.00404466
0.0198131
-0.0214782
0.00543138
0.0426755
-0.0440622
0.00582281
0.0644801
-0.0648715
0.00554275
0.0842209
-0.0839408
0.00489229
0.104069
-0.103418
0.0039965
0.125412
-0.124516
0.00292657
0.149316
-0.148246
0.00168796
0.17951
-0.178271
0.000587898
0.223338
-0.222238
0.275897
-0.275309
0.00439788
0.018016
0.00614638
0.040927
0.00684585
0.0637806
0.00675114
0.0843156
0.00618323
0.104637
0.00527934
0.126316
0.00411383
0.150481
0.00269352
0.18093
0.00121438
0.224817
0.277112
0.00473675
0.0161761
0.00681493
0.0388488
0.00784122
0.0627543
0.00795092
0.0842059
0.00747513
0.105113
0.0065661
0.127225
0.0053049
0.151743
0.00369873
0.182536
0.00184432
0.226672
0.278956
0.00506814
0.0143922
0.00741275
0.0365042
0.0087802
0.0613869
0.00911558
0.0838705
0.00874582
0.105482
0.00783934
0.128131
0.00648642
0.153096
0.00469636
0.184326
0.00246716
0.228901
0.281423
0.0054049
0.0127559
0.00792233
0.0339868
0.00963548
0.0596737
0.0102193
0.0832867
0.00997325
0.105728
0.0090811
0.129023
0.0076445
0.154532
0.00567499
0.186296
0.00307833
0.231498
0.284502
0.00575706
0.0113315
0.00833556
0.0314083
0.0103829
0.0576264
0.0112371
0.0824324
0.0111355
0.10583
0.0102722
0.129887
0.00876345
0.156041
0.00662308
0.188436
0.00367086
0.23445
0.288172
0.00612036
0.010138
0.00865234
0.0288763
0.0110028
0.055276
0.0121471
0.0812881
0.0122158
0.105761
0.0114006
0.130702
0.00983482
0.157607
0.00753448
0.190737
0.00424335
0.237741
0.292416
0.0064607
0.00914728
0.00887181
0.0264652
0.0114807
0.052667
0.0129264
0.0798425
0.0131859
0.105502
0.0124371
0.131451
0.0108329
0.159211
0.00839188
0.193178
0.00478408
0.241349
0.2972
0.0067012
0.00830914
0.00897793
0.0241885
0.0118029
0.049842
0.0135764
0.078069
0.0140674
0.105011
0.0134087
0.132109
0.0117816
0.160838
0.00920702
0.195752
0.0053002
0.245256
0.3025
0.00679361
0.00753385
0.00901611
0.021966
0.0119603
0.0468978
0.0140133
0.076016
0.0147529
0.104271
0.0142204
0.132642
0.0126319
0.162427
0.00993525
0.198449
0.00580497
0.249386
0.308305
0.019597
0.0132019
-0.025265
0.0152203
0.0263426
0.0136022
0.0485159
0.0124765
0.0771417
0.0108499
0.105898
0.00874745
0.134744
0.00616221
0.165012
0.0031102
0.201501
0.000499583
0.251997
0.308805
0.0205646
0.0174528
-0.0248154
0.0157165
0.0311907
0.0131398
0.0510927
0.0118165
0.078465
0.010259
0.107455
0.00822544
0.136778
0.00570747
0.16753
0.00281572
0.204393
0.000405886
0.254406
0.30921
0.0203824
0.020045
-0.0229747
0.0161353
0.0354378
0.012995
0.054233
0.0112116
0.0802484
0.00954528
0.109121
0.00757872
0.138745
0.0052137
0.169895
0.00250412
0.207102
0.000308472
0.256602
0.309519
0.0192596
0.0214313
-0.0206458
0.0159173
0.0387802
0.012798
0.0573523
0.0108007
0.0822457
0.00908119
0.110841
0.00716838
0.140657
0.00489335
0.17217
0.0023515
0.209644
0.000298296
0.258655
0.309817
0.0177107
0.0218969
-0.0181763
0.0152198
0.041271
0.0124006
0.0601714
0.0103289
0.0843174
0.00855891
0.112611
0.00669074
0.142526
0.00452896
0.174332
0.00213396
0.212039
0.000231879
0.260557
0.310049
0.0158859
0.0215279
-0.0155169
0.0141949
0.042962
0.0117593
0.0626071
0.00987631
0.0862004
0.00825117
0.114236
0.0064613
0.144315
0.00436177
0.176431
0.00207608
0.214325
0.000261605
0.262372
0.310311
0.0139738
0.020333
-0.0127789
0.0131652
0.0437706
0.0111338
0.0646384
0.00928006
0.0880542
0.00772452
0.115792
0.00606939
0.145971
0.00410684
0.178394
0.00192954
0.216502
0.000221015
0.26408
0.310532
0.0118876
0.0184364
-0.00999103
0.0118598
0.0437984
0.0104693
0.066029
0.00896954
0.0895539
0.00754578
0.117215
0.00594783
0.147568
0.00403036
0.180311
0.00194729
0.218585
0.000292313
0.265735
0.310824
0.0104197
0.0156618
-0.00764503
0.011183
0.0430351
0.0100565
0.0671555
0.00853464
0.0910758
0.007164
0.118586
0.00568486
0.149048
0.0038647
0.182131
0.00185871
0.220591
0.000270344
0.267324
0.311094
0.0078595
-0.0044121
0.00998811
0.00996587
0.00875685
0.00734274
0.00576427
0.00395881
0.00193537
0.00039319
0.00627586
-0.0256728
-0.00586805
0.00600219
-0.0245418
0.00536543
-0.0223379
0.00460153
-0.019882
0.00377038
-0.0173451
0.00288924
-0.0146358
0.00196376
-0.0118534
0.00103717
-0.00906444
-8.01926e-05
-0.00652766
-0.00356738
0.00538478
-0.0256667
-0.0053909
0.00480525
-0.0239622
0.00399043
-0.0215231
0.0031034
-0.0189949
0.0021759
-0.0164176
0.00121984
-0.0136798
0.000238412
-0.010872
-0.000722425
-0.00810361
-0.00177708
-0.005473
-0.00274369
0.0042846
-0.0253098
-0.0046415
0.00345053
-0.0231282
0.00249559
-0.0205682
0.00150778
-0.0180071
0.000505822
-0.0154157
-0.000498243
-0.0126757
-0.00149802
-0.00987222
-0.00246533
-0.00713629
-0.00343694
-0.00450139
-0.00201887
0.00297068
-0.0246651
-0.00361538
0.00194709
-0.0221046
0.000892493
-0.0195136
-0.000164724
-0.0169499
-0.00120628
-0.0143741
-0.00222844
-0.0116535
-0.00321401
-0.00888665
-0.00414062
-0.00620967
-0.00500083
-0.00364119
-0.00141918
0.00146247
-0.0237823
-0.00234533
0.000312637
-0.0209547
-0.000796747
-0.0184042
-0.00188387
-0.0158628
-0.00293378
-0.0133242
-0.00393627
-0.010651
-0.00487269
-0.00795022
-0.00572119
-0.00536117
-0.00644831
-0.00291406
-0.000953008
-0.000174766
-0.0227226
-0.000884882
-0.00140613
-0.0197234
-0.00253418
-0.0172761
-0.0036159
-0.0147811
-0.00463661
-0.0123035
-0.00558571
-0.00970194
-0.00644272
-0.00709321
-0.00718536
-0.00461853
-0.00776968
-0.00232974
-0.00061708
-0.00190798
-0.0215116
0.000696933
-0.00315578
-0.0184756
-0.00426728
-0.0161646
-0.00531172
-0.0137366
-0.00627378
-0.0113414
-0.00714258
-0.00883314
-0.00789833
-0.00633746
-0.00851914
-0.00399772
-0.00896228
-0.00188661
-0.000399861
-0.00364388
-0.0201985
0.0023308
-0.00487553
-0.0172439
-0.00594427
-0.0150959
-0.00692627
-0.0127546
-0.00780795
-0.0104597
-0.00857838
-0.00806271
-0.00922109
-0.00569475
-0.00971597
-0.00350284
-0.0100289
-0.00157369
-0.00028462
-0.005324
-0.0188331
0.00395866
-0.00651096
-0.016057
-0.00751837
-0.0140885
-0.00842037
-0.0118526
-0.00920888
-0.00967123
-0.00987245
-0.00739915
-0.0104005
-0.00516669
-0.0107757
-0.00312764
-0.010976
-0.00137337
-0.000251951
-0.0068927
-0.0174579
0.0055175
-0.0080161
-0.0149336
-0.00895136
-0.0131532
-0.00976372
-0.0110403
-0.0104552
-0.00897972
-0.0110127
-0.00684172
-0.0114333
-0.00474602
-0.011703
-0.00285795
-0.0118123
-0.00126408
-0.000281571
-0.00830617
-0.0161076
0.00695583
-0.00935561
-0.0138841
-0.0102156
-0.0122932
-0.0109361
-0.0103198
-0.0115349
-0.00838086
-0.0119948
-0.00638184
-0.0123223
-0.00441853
-0.0125059
-0.00267435
-0.0125474
-0.00122262
-0.000353421
-0.00953998
-0.014808
0.0082404
-0.0105088
-0.0129153
-0.0112961
-0.0115059
-0.0119287
-0.0096872
-0.0124451
-0.0078644
-0.0128217
-0.00600524
-0.0130746
-0.00416568
-0.0131941
-0.00255477
-0.0131909
-0.00122587
-0.000448218
-0.0105776
-0.0135773
0.00934688
-0.0114638
-0.0120292
-0.012186
-0.0107838
-0.0127401
-0.00913308
-0.0131888
-0.00741568
-0.0135005
-0.00569352
-0.0136997
-0.00396649
-0.0137783
-0.0024762
-0.0137525
-0.00125167
-0.000547662
-0.011415
-0.0124251
0.0102627
-0.0122198
-0.0112244
-0.0128876
-0.0101159
-0.0133767
-0.00864398
-0.0137746
-0.00701777
-0.014042
-0.00542616
-0.0142091
-0.00379937
-0.0142692
-0.00241606
-0.0142415
-0.00127942
-0.000634468
-0.0120572
-0.0113512
0.0109834
-0.0127839
-0.0104977
-0.0134095
-0.00949039
-0.0138499
-0.00820351
-0.0142144
-0.0066533
-0.0144586
-0.00518194
-0.0146147
-0.0036433
-0.0146778
-0.00235298
-0.0146671
-0.00129011
-0.000692274
-0.0125161
-0.0103441
0.0115091
-0.0131702
-0.0098436
-0.0137644
-0.0088962
-0.0141745
-0.00779337
-0.0145222
-0.00630568
-0.014764
-0.00494009
-0.0149287
-0.00347857
-0.0150146
-0.00226711
-0.0150385
-0.00126626
-0.00070553
-0.0128062
-0.0093796
0.0118417
-0.0133973
-0.00925246
-0.0139676
-0.00832596
-0.0143667
-0.00739422
-0.0147126
-0.0059598
-0.0149716
-0.00468107
-0.0151632
-0.00328702
-0.0152901
-0.00214019
-0.0153647
-0.0011917
-0.000659365
-0.0129336
-0.00842879
0.0119828
-0.0134805
-0.00870558
-0.0140316
-0.00777484
-0.0144406
-0.00698529
-0.0147993
-0.00560107
-0.0150939
-0.00438646
-0.0153292
-0.0030517
-0.0155141
-0.00195526
-0.0156547
-0.00105113
-0.000539434
-0.0128955
-0.00747465
0.0119414
-0.0134348
-0.00816624
-0.0139707
-0.00723896
-0.01441
-0.00654604
-0.0147959
-0.00521513
-0.015143
-0.00403937
-0.0154378
-0.00275692
-0.0156964
-0.00169666
-0.0159175
-0.000830034
-0.000331702
-0.012744
-0.00649358
0.0117629
-0.0133157
-0.00759454
-0.0138188
-0.0067358
-0.0142922
-0.00607265
-0.0147157
-0.00479165
-0.0151272
-0.00362783
-0.0154972
-0.00238696
-0.0158449
-0.00134895
-0.016163
-0.000511906
-2.33708e-05
-0.0563087
-0.00618276
0.0559979
-0.0578096
-0.0060936
-0.0593347
-0.00521068
-0.0608574
-0.00454998
-0.0621018
-0.00354722
-0.063081
-0.00264865
-0.0637344
-0.00173357
-0.0641052
-0.000978208
-0.0642386
-0.000378432
-2.87331e-05
-0.0661037
-0.00598038
0.0659013
-0.0670198
-0.00517749
-0.0678905
-0.00434
-0.0688584
-0.00358211
-0.0696421
-0.00276351
-0.0702647
-0.00202606
-0.0706682
-0.00133004
-0.0708854
-0.000761037
-0.0709513
-0.000312546
-3.56864e-05
-0.0778752
-0.00594196
0.0778368
-0.0783427
-0.00470998
-0.078836
-0.00384676
-0.0794245
-0.00299361
-0.0798946
-0.00229338
-0.0802859
-0.0016347
-0.0805217
-0.00109433
-0.0806454
-0.000637269
-0.080669
-0.000289005
-3.94295e-05
-0.0925776
-0.00592182
0.0925575
-0.0928874
-0.00440021
-0.0931815
-0.00355262
-0.0935648
-0.00261032
-0.0938487
-0.00200949
-0.0941074
-0.00137605
-0.094248
-0.00095374
-0.0943341
-0.000551145
-0.0943436
-0.000279514
-3.72418e-05
-0.110543
-0.00567639
0.110298
-0.110875
-0.00406828
-0.111147
-0.0032811
-0.111466
-0.00229098
-0.111689
-0.00178668
-0.111905
-0.00115962
-0.112026
-0.000833603
-0.112123
-0.000453253
-0.112155
-0.000248016
-1.88959e-05
-0.130773
-0.005098
0.130195
-0.131265
-0.00357663
-0.131658
-0.00288777
-0.132012
-0.00193679
-0.132272
-0.00152662
-0.132503
-0.000928833
-0.132655
-0.000681246
-0.132795
-0.000313315
-0.132868
-0.000175603
1.16223e-05
-0.150941
-0.00415615
0.149999
-0.151644
-0.00287407
-0.152216
-0.00231504
-0.152645
-0.0015079
-0.152981
-0.00119043
-0.153237
-0.000673274
-0.153434
-0.000484744
-0.15359
-0.000157008
-0.153684
-8.10524e-05
4.06673e-05
-0.16814
-0.00291739
0.166901
-0.16902
-0.00199368
-0.169735
-0.00159983
-0.170222
-0.00102141
-0.17061
-0.000801946
-0.170863
-0.000420483
-0.171062
-0.00028594
-0.17118
-3.9012e-05
-0.171251
-1.01615e-05
4.86422e-05
-0.180203
-0.00150428
0.17879
-0.181186
-0.00101043
-0.181978
-0.000807933
-0.182491
-0.000508418
-0.182895
-0.000398714
-0.183118
-0.000196614
-0.183278
-0.000125953
-0.183324
6.88817e-06
-0.183347
1.28893e-05
3.21457e-05
-0.186336
0.184832
-0.187346
-0.188154
-0.188663
-0.189061
-0.189258
-0.189384
-0.189377
-0.189364
-0.0129691
0.0570227
0.0119443
-0.0136388
0.0665711
-0.0141709
0.0783689
-0.0144422
0.0928288
-0.0142248
0.110081
-0.0132098
0.12918
-0.0111724
0.147962
-0.00811495
0.163843
-0.00427266
0.174948
0.180559
-0.0122745
0.0577528
0.0115443
-0.0129007
0.0671973
-0.0133695
0.0788376
-0.0135536
0.0930129
-0.0132542
0.109781
-0.0122084
0.128134
-0.0102452
0.145999
-0.00739522
0.160993
-0.0038771
0.17143
0.176682
-0.0116292
0.0584175
0.0109646
-0.0121929
0.067761
-0.0125874
0.0792321
-0.0126993
0.0931248
-0.012349
0.109431
-0.0113105
0.127095
-0.00944624
0.144134
-0.00679483
0.158342
-0.00355459
0.168189
0.173127
-0.0108874
0.0590607
0.0102442
-0.0113933
0.0682668
-0.0117075
0.0795463
-0.0117463
0.0931636
-0.0113532
0.109038
-0.0103375
0.12608
-0.00859113
0.142388
-0.00615762
0.155909
-0.00321411
0.165246
0.169913
-0.0100295
0.0596756
0.00941473
-0.0104823
0.0687196
-0.0107253
0.0797893
-0.0107026
0.0931409
-0.0102826
0.108618
-0.00930791
0.125105
-0.00769685
0.140777
-0.00549582
0.153708
-0.00286171
0.162612
0.167051
-0.00907575
0.0602511
0.00850025
-0.00946798
0.0691118
-0.00964374
0.0799651
-0.00957121
0.0930684
-0.00914095
0.108187
-0.00822702
0.124191
-0.00676957
0.139319
-0.00481525
0.151753
-0.00250086
0.160297
0.164551
-0.00804627
0.0607776
0.0075197
-0.00837163
0.0694372
-0.00848072
0.0800742
-0.00836619
0.0929539
-0.00793925
0.107761
-0.00710295
0.123355
-0.00581518
0.138032
-0.00412011
0.150058
-0.00213388
0.158311
0.162417
-0.00695728
0.0612433
0.00649162
-0.0072139
0.0696938
-0.00725775
0.080118
-0.00710789
0.092804
-0.00669485
0.107348
-0.00594901
0.122609
-0.00484278
0.136925
-0.00341585
0.148631
-0.00176329
0.156659
0.160653
-0.00582626
0.0616339
0.00543563
-0.00601498
0.0698825
-0.00599565
0.0800987
-0.00581701
0.0926254
-0.00542626
0.106957
-0.00478026
0.121963
-0.00386318
0.136008
-0.00270913
0.147477
-0.00139225
0.155342
0.159261
-0.00467161
0.0619333
0.00437226
-0.00479662
0.0700075
-0.00471458
0.0800166
-0.00451346
0.0924243
-0.00415093
0.106594
-0.00361116
0.121423
-0.00288714
0.135284
-0.00200689
0.146597
-0.00102419
0.154359
0.158237
-0.00352425
0.0621302
0.00332734
-0.00358597
0.0700693
-0.00344029
0.079871
-0.00322078
0.0922047
-0.00288891
0.106262
-0.00245817
0.120992
-0.00192708
0.134753
-0.00131724
0.145987
-0.000663107
0.153705
0.157574
-0.00240898
0.0622264
0.00231272
-0.00239996
0.0700602
-0.00219733
0.0796683
-0.00195849
0.0919659
-0.00165845
0.105962
-0.00133346
0.120667
-0.000990967
0.134411
-0.00064663
0.145643
-0.000312273
0.153371
0.157262
-0.00135996
0.062237
0.00134942
-0.00126693
0.0699672
-0.00102104
0.0794224
-0.000760473
0.0917053
-0.000495875
0.105698
-0.000272888
0.120444
-0.000112735
0.134251
-2.3271e-05
0.145553
1.1177e-05
0.153336
0.157273
-0.000410281
0.0622016
0.000445628
-0.000216222
0.0697731
3.64754e-05
0.0791697
0.000363538
0.0913783
0.000615265
0.105446
0.000754861
0.120305
0.000750644
0.134255
0.000602259
0.145702
0.000338763
0.1536
0.157612
0.000494415
0.0621004
-0.000393173
0.000791911
0.0694756
0.00112697
0.0788347
0.00144984
0.0910554
0.0016734
0.105222
0.00172344
0.120255
0.00155795
0.13442
0.00118081
0.146079
0.000639974
0.15414
0.158252
0.00134768
0.0619143
-0.00116155
0.00171327
0.0691101
0.00208698
0.078461
0.00243281
0.0907096
0.00263813
0.105017
0.00261182
0.120281
0.00230084
0.134731
0.00171371
0.146666
0.000916618
0.154938
0.159168
0.00209584
0.0616858
-0.0018674
0.00253569
0.0686702
0.00294505
0.0780516
0.00331469
0.0903399
0.00350939
0.104822
0.00341993
0.120371
0.00298026
0.135171
0.00220221
0.147444
0.00116955
0.15597
0.160338
0.00275179
0.0614534
-0.00251942
0.00325688
0.0681651
0.00369445
0.0776141
0.00408199
0.0899524
0.00426762
0.104637
0.00412498
0.120513
0.00357436
0.135722
0.00262934
0.148389
0.00138918
0.15721
0.161727
0.00334577
0.0612474
-0.00313976
0.00390121
0.0676097
0.00436632
0.0771489
0.004772
0.0895467
0.00495567
0.104453
0.00477047
0.120698
0.00412062
0.136371
0.00302155
0.149488
0.00158956
0.158642
0.163316
0.00375423
0.0612257
-0.0037325
0.00431734
0.0670466
0.00480853
0.0766578
0.00522207
0.0891332
0.00540407
0.104271
0.00519561
0.120907
0.00448493
0.137082
0.00328407
0.150689
0.00171931
0.160207
0.165036
-0.0416492
0.0561342
0.0467408
-0.0375915
0.0629889
-0.0349157
0.073982
-0.0321499
0.0863673
-0.0289388
0.10106
-0.0248784
0.116847
-0.0197821
0.131986
-0.0137415
0.144648
-0.00702767
0.153493
0.158008
-0.0506488
0.0518257
0.0549573
-0.0470338
0.0593739
-0.0437741
0.0707223
-0.0400972
0.0826904
-0.0359182
0.096881
-0.0307074
0.111636
-0.0243186
0.125597
-0.0168727
0.137202
-0.00867609
0.145297
0.149332
-0.0609913
0.0476713
0.0651456
-0.057308
0.0556907
-0.0533248
0.0667391
-0.0487396
0.0781052
-0.0434067
0.0915481
-0.0367717
0.105001
-0.0288736
0.117699
-0.0198657
0.128194
-0.0100645
0.135495
0.139268
-0.0735165
0.0437272
0.0774606
-0.0692786
0.0514528
-0.0644283
0.0618888
-0.0588277
0.0725047
-0.0521335
0.0848539
-0.043856
0.0967232
-0.0342421
0.108085
-0.0234946
0.117447
-0.0120149
0.124016
0.127253
-0.0874813
0.039129
0.0920795
-0.0824187
0.0463902
-0.0764789
0.0559489
-0.0693964
0.0654222
-0.0608006
0.076258
-0.0504986
0.0864212
-0.0389239
0.0965105
-0.0262652
0.104788
-0.0130516
0.110802
0.114201
-0.103742
0.0344726
0.108398
-0.0975151
0.0401637
-0.0902159
0.0486498
-0.0813168
0.056523
-0.0707112
0.0656525
-0.0584486
0.0741586
-0.044847
0.0829089
-0.0302024
0.0901435
-0.0153333
0.0959331
0.0988677
-0.119354
0.0279922
0.125835
-0.11181
0.0326199
-0.102734
0.0395733
-0.0915444
0.0453335
-0.0786206
0.0527287
-0.0638912
0.0594291
-0.0476692
0.0666869
-0.0304999
0.0729742
-0.0138314
0.0792646
0.0850363
-0.136049
0.0215152
0.142526
-0.127238
0.0238079
-0.116576
0.0289117
-0.103855
0.0326124
-0.0894061
0.03828
-0.0729326
0.0429556
-0.0550335
0.0487878
-0.0364071
0.0543479
-0.0191771
0.0620346
0.0658592
-0.150086
0.0103914
0.16121
-0.138167
0.0118881
-0.123853
0.0145983
-0.107745
0.0165044
-0.0891476
0.0196825
-0.0684747
0.0222827
-0.045662
0.0259752
-0.0215871
0.030273
0.00122138
0.0392261
0.0670805
-0.247511
0.257902
-0.235623
-0.221024
-0.20452
-0.184838
-0.162555
-0.13658
-0.106307
-0.0670805
0.00182703
0.0483813
-0.00346757
0.000348738
0.0564356
-0.000695857
0.0661902
-0.00146269
0.0782275
-0.00194272
0.0925595
-0.00212124
0.108577
-0.00189555
0.125609
-0.0014468
0.142078
-0.00188779
0.161651
0.256014
0.00221906
0.0499934
-0.00383114
0.000792411
0.0578622
-0.000320639
0.0673033
-0.00112307
0.0790299
-0.00165133
0.0930877
-0.00186456
0.10879
-0.00172148
0.125466
-0.00131746
0.141674
-0.00167797
0.162012
0.254336
0.0026934
0.0515022
-0.00420222
0.00130985
0.0592458
0.000200663
0.0684125
-0.000613702
0.0798443
-0.00116454
0.0936386
-0.00142259
0.109048
-0.00136002
0.125403
-0.00106029
0.141374
-0.00146967
0.162421
0.252867
0.00316499
0.0529136
-0.00457637
0.00182898
0.0605818
0.00076612
0.0694753
-8.54929e-05
0.0806959
-0.000603116
0.0941562
-0.000908567
0.109353
-0.000904033
0.125399
-0.00074147
0.141211
-0.00120054
0.16288
0.251666
0.00362721
0.054228
-0.00494167
0.00235819
0.0618508
0.00134671
0.0704868
0.000546511
0.0814961
-2.06333e-05
0.0947234
-0.000353167
0.109686
-0.000389875
0.125435
-0.000375254
0.141197
-0.00088459
0.16339
0.250782
0.00409859
0.0554164
-0.00528694
0.00292053
0.0630289
0.00196836
0.071439
0.0012168
0.0822476
0.000674573
0.0952656
0.000284888
0.110075
0.000182445
0.125538
1.64573e-05
0.141363
-0.00052816
0.163934
0.250253
0.00457817
0.0564423
-0.00560407
0.00351426
0.0640928
0.00263186
0.0723214
0.0019308
0.0829487
0.00140265
0.0957937
0.00100944
0.110469
0.000793313
0.125754
0.000562269
0.141594
-0.000127795
0.164624
0.250126
0.00505791
0.0572701
-0.00588572
0.00412835
0.0650223
0.00332679
0.0731229
0.00268319
0.0835923
0.00217366
0.0963033
0.00176467
0.110878
0.0014595
0.126059
0.00110419
0.141949
0.00027636
0.165452
0.250402
0.00553124
0.0578623
-0.00612345
0.00475105
0.0658025
0.0040411
0.0738329
0.00346269
0.0841707
0.00297914
0.0967868
0.0025534
0.111303
0.0021627
0.12645
0.00167412
0.142438
0.000703646
0.166423
0.251106
0.00598535
0.0581843
-0.00630732
0.00536966
0.0664182
0.00476275
0.0744398
0.0042571
0.0846764
0.00380828
0.0972356
0.00336674
0.111745
0.00289221
0.126924
0.00226953
0.14306
0.00115434
0.167538
0.25226
0.00640054
0.0582074
-0.00642364
0.00596566
0.0668531
0.00547519
0.0749303
0.00504871
0.0851029
0.0046418
0.0976425
0.00418885
0.112198
0.00363511
0.127478
0.00288034
0.143815
0.0016176
0.1688
0.253878
0.00676828
0.0579131
-0.00647402
0.0065311
0.0670903
0.00616964
0.0752917
0.0058294
0.0854431
0.00547108
0.0980009
0.00501299
0.112656
0.0043859
0.128105
0.00350205
0.144699
0.00208984
0.170213
0.255967
0.00706917
0.0572975
-0.00645351
0.00704587
0.0671136
0.00682394
0.0755137
0.00657747
0.0856896
0.00627516
0.0983032
0.00582095
0.11311
0.00512905
0.128797
0.0041232
0.145705
0.00256362
0.171772
0.258531
0.00729083
0.0563723
-0.00636567
0.00749481
0.0669096
0.00742117
0.0755873
0.00727521
0.0858355
0.00703697
0.0985414
0.00659723
0.11355
0.00585136
0.129543
0.00473404
0.146822
0.00303196
0.173474
0.261563
0.00742371
0.0551682
-0.0062196
0.0078645
0.0664688
0.00794578
0.075506
0.00790581
0.0858755
0.00774059
0.0987066
0.00732684
0.113964
0.00654081
0.130329
0.00532571
0.148037
0.00348926
0.175311
0.265052
0.00746292
0.0537366
-0.00603134
0.00814445
0.0657873
0.00838302
0.0752675
0.0084537
0.0858048
0.00837026
0.0987901
0.00799357
0.11434
0.00718352
0.131139
0.00588727
0.149334
0.00392631
0.177272
0.268979
0.00741203
0.0521483
-0.00582368
0.00832737
0.0648719
0.00872292
0.0748719
0.00890801
0.0856197
0.00891401
0.0987841
0.00858828
0.114666
0.00777336
0.131954
0.00641438
0.150692
0.00434005
0.179346
0.273319
0.00728658
0.0504831
-0.00562138
0.0084099
0.0637486
0.00895584
0.074326
0.00925284
0.0853227
0.00935049
0.0986864
0.00908585
0.114931
0.00828481
0.132755
0.00688886
0.152088
0.00471501
0.18152
0.278034
0.00710519
0.0488059
-0.00542804
0.00840723
0.0624466
0.00910499
0.0736282
0.0095154
0.0849123
0.00970966
0.0984922
0.00951754
0.115123
0.00874403
0.133529
0.00732844
0.153504
0.0050598
0.183789
0.283093
0.00681216
0.0471371
-0.00514333
0.00817609
0.0610826
0.00902657
0.0727777
0.00954694
0.0843919
0.00984557
0.0981935
0.00974183
0.115227
0.00904176
0.134229
0.00763962
0.154906
0.00536156
0.186067
0.288455
-0.0226538
0.045909
0.0238819
-0.0196845
0.0581134
-0.016411
0.0695042
-0.012973
0.0809539
-0.00955781
0.0947784
-0.00597119
0.11164
-0.00226055
0.130518
0.000725772
0.15192
0.00105544
0.185737
0.28951
-0.0368764
0.0434161
0.0393694
-0.0332276
0.0544645
-0.0286995
0.0649762
-0.0237946
0.076049
-0.0187373
0.089721
-0.0132461
0.106149
-0.00746003
0.124732
-0.00239218
0.146852
-0.000510672
0.183855
0.289
-0.0523217
0.0402298
0.055508
-0.0476332
0.0497759
-0.041806
0.059149
-0.0355347
0.0697777
-0.0288544
0.0830408
-0.0213113
0.0986057
-0.013249
0.11667
-0.00595806
0.139561
-0.00201811
0.179915
0.286982
-0.0692805
0.0363252
0.0731851
-0.0632779
0.0437733
-0.0563598
0.0522309
-0.0488084
0.0622264
-0.0402923
0.0745246
-0.0304438
0.0887572
-0.0199244
0.10615
-0.0102025
0.129839
-0.00387777
0.173591
0.283104
-0.088137
0.0311123
0.09335
-0.0811136
0.0367499
-0.0733914
0.0445086
-0.0642998
0.0531347
-0.0536475
0.0638723
-0.0413838
0.0764935
-0.0282902
0.0930566
-0.0157909
0.11734
-0.00644369
0.164244
0.27666
-0.109731
0.0255055
0.115337
-0.101772
0.0287911
-0.0928572
0.035594
-0.0818894
0.0421669
-0.0691976
0.0511806
-0.0547705
0.0620664
-0.0392449
0.077531
-0.0238674
0.101962
-0.010962
0.151338
0.265698
-0.133975
0.0180108
0.14147
-0.12556
0.0203763
-0.115666
0.0256995
-0.103527
0.0300285
-0.0897144
0.0373676
-0.0736666
0.0460186
-0.0563074
0.0601718
-0.0379512
0.0836062
-0.019683
0.13307
0.246015
-0.165364
0.0104244
0.17295
-0.156318
0.0113308
-0.145523
0.0149041
-0.132929
0.0174346
-0.118393
0.0228319
-0.101625
0.0292503
-0.0829648
0.0415119
-0.0623673
0.0630087
-0.0372177
0.10792
0.208797
-0.219772
0.00323369
0.226962
-0.212265
0.00382381
-0.202777
0.00541692
-0.192278
0.00693521
-0.179397
0.00995127
-0.164319
0.0141719
-0.145069
0.0222623
-0.118509
0.0364481
-0.0755318
0.0649433
0.133266
-0.297218
0.300452
-0.293395
-0.287978
-0.281042
-0.271091
-0.256919
-0.234657
-0.198209
-0.133266
0.00241974
0.0249779
-0.0035158
0.000548432
0.0412407
-0.00121936
0.0572758
-0.0027666
0.0747324
-0.00400129
0.0945847
-0.00497387
0.11631
-0.00545547
0.141951
-0.0057082
0.173203
-0.0044009
0.225655
0.296051
0.00222063
0.025716
-0.00295866
0.0006694
0.0427919
-0.000982541
0.0589277
-0.00249037
0.0762402
-0.00372821
0.0958225
-0.00468947
0.117271
-0.00520652
0.142468
-0.00547435
0.173471
-0.00422662
0.224407
0.291825
0.00214841
0.0261356
-0.00256801
0.000902232
0.0440381
-0.000585061
0.060415
-0.00198691
0.077642
-0.00317676
0.0970124
-0.004113
0.118207
-0.00467368
0.143029
-0.00493232
0.173729
-0.00386109
0.223336
0.287963
0.00216277
0.0262772
-0.00230444
0.00120585
0.044995
-0.000122581
0.0617434
-0.00138426
0.0789037
-0.00249797
0.0981261
-0.00341679
0.119126
-0.00400851
0.143621
-0.00431542
0.174036
-0.00343341
0.222454
0.28453
0.00225456
0.0261576
-0.00213489
0.00159455
0.045655
0.000484801
0.0628532
-0.000695514
0.080084
-0.00172912
0.0991597
-0.00262865
0.120026
-0.00325832
0.144251
-0.00363425
0.174412
-0.00295515
0.221775
0.281575
0.00242842
0.0257699
-0.00204071
0.00207613
0.0460073
0.001189
0.0637403
8.5705e-05
0.0811873
-0.00085355
0.100099
-0.00174358
0.120916
-0.00242039
0.144927
-0.00288601
0.174878
-0.00243463
0.221324
0.27914
0.00267457
0.0251051
-0.00200979
0.00264317
0.0460387
0.0019866
0.0643969
0.00106573
0.0821082
0.000133047
0.101032
-0.000766264
0.121815
-0.00148414
0.145645
-0.00207292
0.175466
-0.00187805
0.221129
0.277262
0.00297779
0.0241601
-0.00203283
0.00328193
0.0457346
0.0028663
0.0648125
0.00209753
0.082877
0.00123483
0.101894
0.000309515
0.12274
-0.00044219
0.146397
-0.00120703
0.176231
-0.00128949
0.221211
0.275973
0.0033203
0.0229429
-0.0021031
0.00397479
0.0450801
0.00381158
0.0649757
0.00319808
0.0834905
0.00240072
0.102692
0.00151296
0.123628
0.000640897
0.147269
-0.000315643
0.177188
-0.000669812
0.221565
0.275303
0.00368268
-0.00221789
0.00470052
0.00480473
0.00435436
0.00362764
0.00273985
0.00176278
0.00067944
6.48408e-06
0.000208994
-0.001532
0.000610529
-0.003557
0.0011223
-0.00487971
0.0016976
-0.00567821
0.00231146
-0.00609017
0.00295269
-0.0062221
0.00361884
-0.00615566
0.00431423
-0.00595254
0.00505287
-0.00566052
-0.00532434
0.000218911
-0.00175091
0.000623335
-0.00396143
0.00112367
-0.00538004
0.00167147
-0.00622601
0.00224298
-0.00666169
0.00282953
-0.00680865
0.00343122
-0.00675735
0.0040534
-0.00657472
0.00470446
-0.00631158
-0.00601079
0.00021897
-0.00196988
0.000605393
-0.00434785
0.00106582
-0.00584046
0.00155264
-0.00671283
0.0020453
-0.00715435
0.00253912
-0.00730247
0.003038
-0.00725623
0.00354983
-0.00708655
0.00408279
-0.00684454
-0.00656949
0.000207719
-0.0021776
0.000553857
-0.00469399
0.000945623
-0.00623223
0.00133929
-0.00710649
0.00171946
-0.00753452
0.00208656
-0.00766958
0.00244891
-0.00761857
0.00281771
-0.00745535
0.00320368
-0.00723052
-0.00698119
0.000184301
-0.0023619
0.000467931
-0.00497762
0.000764187
-0.00652849
0.00103648
-0.00737878
0.00127628
-0.00777432
0.0014898
-0.0078831
0.00168975
-0.00781852
0.00189043
-0.00765603
0.00210498
-0.00744507
-0.00722154
0.00014856
-0.00251046
0.000348996
-0.00517805
0.000526691
-0.00670618
0.000655306
-0.0075074
0.000734449
-0.00785346
0.000776195
-0.00792485
0.000796883
-0.00783921
0.000812994
-0.00767214
0.000838621
-0.00747069
-0.0072678
0.000101109
-0.00261157
0.000200535
-0.00527748
0.000241852
-0.0067475
0.00021157
-0.00747712
0.000117993
-0.00775988
-2.16459e-05
-0.00778521
-0.000188043
-0.00767281
-0.000364359
-0.00749582
-0.000536968
-0.00729809
-0.00710783
4.34e-05
-0.00265497
2.79427e-05
-0.00526202
-7.89449e-05
-0.00664061
-0.000275967
-0.00728009
-0.000546262
-0.00748959
-0.00086834
-0.00746313
-0.00122212
-0.00731903
-0.00159121
-0.00712673
-0.00196368
-0.00692561
-0.00674071
-2.31101e-05
-0.00263186
-0.000162247
-0.00512288
-0.000422703
-0.00638015
-0.000787302
-0.00691549
-0.00123134
-0.00704555
-0.00173054
-0.00696393
-0.0022649
-0.00678467
-0.00281985
-0.00657178
-0.00338591
-0.00635956
-0.00616796
-9.4923e-05
-0.00253694
-0.000362359
-0.00485545
-0.000775832
-0.00596668
-0.00130268
-0.00638865
-0.00191159
-0.00643664