/*--------------------------------*- C++ -*----------------------------------*\
  =========                 |
  \\      /  F ield         | OpenFOAM: The Open Source CFD Toolbox
   \\    /   O peration     | Website:  https://openfoam.org
    \\  /    A nd           | Version:  7
     \\/     M anipulation  |
\*---------------------------------------------------------------------------*/
FoamFile
{
    version     2.0;
    format      ascii;
    class       surfaceScalarField;
    location    "20.1";
    object      phi;
}
// * * * * * * * * * * * * * * * * * * * * * * * * * * * * * * * * * * * * * //

dimensions      [0 3 -1 0 0 0 0];

internalField   nonuniform List<scalar> 
3880
(
0.000839503
0.00143121
-0.00227071
0.00306263
0.00711325
-0.00933638
0.00629783
0.0136928
-0.016928
0.009981
0.0201749
-0.0238581
0.0135867
0.0258833
-0.0294891
0.0167693
0.0305006
-0.0336832
0.019378
0.03399
-0.0365987
0.0214085
0.0364741
-0.0385046
0.0229369
0.0381468
-0.0396752
0.0391918
0.0240679
-0.0403228
0.000692197
0.00073901
0.00266333
0.00514212
0.00572331
0.0106328
0.00946827
0.0164299
0.0134209
0.0219307
0.0171755
0.026746
0.0204692
0.0306963
0.023187
0.0337564
0.0253277
0.036006
0.0375685
0.0269511
0.000550554
0.000188456
0.00223618
0.0034565
0.00500494
0.00786407
0.0086177
0.0128172
0.0127059
0.0178425
0.0168763
0.0225756
0.0207985
0.0267741
0.0242498
0.030305
0.0271248
0.033131
0.0352985
0.0293947
0.000418471
-0.000230015
0.0018078
0.00206717
0.00420974
0.00546213
0.00752353
0.00950337
0.0115138
0.0138521
0.0158639
0.0182255
0.0202438
0.0223943
0.0243655
0.0261833
0.0280251
0.0294714
0.0322388
0.0310849
0.000296958
-0.000526973
0.00139528
0.000968852
0.00339452
0.00346289
0.00629283
0.00660506
0.00997744
0.0101675
0.0142403
0.0139627
0.0188139
0.0178206
0.0234111
0.0215861
0.0277736
0.025109
0.0283309
0.0316815
0.00018509
-0.000712063
0.00100691
0.000147032
0.00259823
0.00187157
0.00501885
0.00418443
0.00824845
0.00693794
0.0121856
0.0100256
0.016658
0.0133481
0.0214408
0.0168033
0.0262832
0.0202665
0.0236618
0.0309523
8.17408e-05
-0.000793803
0.000646026
-0.000417253
0.00184367
0.000673926
0.00376788
0.00226022
0.006458
0.00424783
0.00989669
0.0065869
0.0140093
0.00923546
0.018669
0.0121436
0.0236891
0.0152464
0.0184677
0.0288832
-1.26971e-05
-0.000781106
0.000316564
-0.000746515
0.00114728
-0.000156791
0.00258577
0.000821728
0.00470406
0.00212953
0.00754162
0.00374935
0.0111062
0.00567089
0.0153765
0.00787334
0.0202725
0.0103505
0.0130632
0.025677
-9.85074e-05
-0.000682599
2.90772e-05
-0.000874099
0.000531682
-0.000659396
0.00151778
-0.000164369
0.00307008
0.000577232
0.00525837
0.00156106
0.00814882
0.00278044
0.0118128
0.00420938
0.0163235
0.00583976
0.00764923
0.0217375
-0.000164016
-0.000518583
-0.000198946
-0.000839169
3.51398e-05
-0.000893482
0.000628777
-0.000758006
0.00165893
-0.000452919
0.00319345
2.65367e-05
0.00531213
0.000661755
0.00812
0.00140152
0.0118899
0.00206985
0.0171714
0.00236778
0.0200812
0.147349
-0.143362
0.0161812
0.144337
-0.140437
0.0127638
0.139778
-0.136361
0.00959954
0.135731
-0.132567
0.00672678
0.131845
-0.128973
0.00417469
0.129449
-0.126897
0.00199031
0.133792
-0.131608
0.000537343
0.157564
-0.156111
7.89802e-05
0.211912
-0.211453
0.279989
-0.27991
0.0229136
0.151386
0.0186774
0.148573
0.0148705
0.143585
0.0113182
0.139284
0.00808717
0.135076
0.00521053
0.132325
0.00280335
0.1362
0.00125108
0.159116
0.000525007
0.212638
0.280514
0.025703
0.155078
0.0212602
0.153016
0.0170699
0.147776
0.01312
0.143234
0.00951625
0.13868
0.00628488
0.135557
0.00362409
0.13886
0.00191626
0.160824
0.000976405
0.213578
0.28149
0.0283369
0.157826
0.0238783
0.157474
0.019323
0.152331
0.0149845
0.147572
0.0110056
0.142659
0.00740429
0.139158
0.00445022
0.141814
0.0025456
0.162729
0.00140783
0.214715
0.282898
0.0306948
0.158812
0.0265152
0.161654
0.021627
0.157219
0.0169068
0.152292
0.0125444
0.147021
0.00855579
0.143147
0.00527158
0.145099
0.00313106
0.164869
0.00180209
0.216044
0.2847
0.0325772
0.157188
0.0290015
0.16523
0.0238913
0.162329
0.0188545
0.157329
0.0141249
0.151751
0.00974574
0.147526
0.00610201
0.148742
0.00368488
0.167287
0.00216304
0.217566
0.286863
0.0339821
0.152089
0.0314052
0.167807
0.0261803
0.167554
0.0208299
0.162679
0.015716
0.156865
0.0109364
0.152305
0.00690575
0.152773
0.0041762
0.170016
0.00246162
0.219281
0.289325
0.0344847
0.143281
0.0332245
0.169067
0.0282686
0.17251
0.0227777
0.16817
0.0173466
0.162296
0.0121939
0.157458
0.00775856
0.157208
0.00466455
0.17311
0.00273424
0.221211
0.292059
0.0347557
0.130263
0.0350808
0.168742
0.030407
0.177184
0.0246687
0.173909
0.0188758
0.168089
0.0133397
0.162994
0.0084979
0.16205
0.00503454
0.176573
0.0029089
0.223337
0.294968
0.0331641
0.11427
0.0358855
0.16602
0.0323441
0.180725
0.0266924
0.17956
0.0206878
0.174094
0.0147986
0.168883
0.00951032
0.167338
0.00551638
0.180567
0.00313792
0.225715
0.298106
0.02649
0.100281
-0.0125009
0.0302902
0.16222
0.0272038
0.183812
0.0201364
0.186628
0.0110255
0.183204
0.00113872
0.17877
-0.00849296
0.17697
-0.0150165
0.187091
-0.0119242
0.222623
0.286181
0.0161105
0.0963574
-0.012187
0.0188629
0.159468
0.0177542
0.184921
0.0138432
0.190539
0.00782724
0.18922
-8.41701e-05
0.186682
-0.00929255
0.186179
-0.0167176
0.194516
-0.0149571
0.220862
0.271224
0.00955396
0.0977096
-0.0109062
0.0116233
0.157398
0.0111082
0.185436
0.00726949
0.194377
0.00120226
0.195288
-0.00627596
0.19416
-0.0141419
0.194045
-0.0197781
0.200152
-0.0172788
0.218363
0.253945
0.0018238
0.102421
-0.00653482
0.00355823
0.155664
0.00484101
0.184153
0.00478909
0.194429
0.00235147
0.197725
-0.00259926
0.199111
-0.00905255
0.200498
-0.014478
0.205578
-0.0137415
0.217627
0.240204
-0.00102925
0.10753
-0.00408062
0.00103545
0.153599
0.000245464
0.184943
-0.00179692
0.196472
-0.00437427
0.200303
-0.0073503
0.202087
-0.0107178
0.203865
-0.0130035
0.207863
-0.0111012
0.215724
0.229103
-0.00593551
0.116143
-0.00267748
-0.00161069
0.149274
0.00255307
0.180779
0.00390544
0.195119
0.00324411
0.200964
0.00118178
0.204149
-0.00181862
0.206866
-0.00460008
0.210645
-0.0050345
0.216159
0.224068
-0.0028597
0.127542
-0.00853841
-0.00416953
0.150584
-0.00301326
0.179623
-0.00321153
0.195318
-0.00370493
0.201457
-0.00397855
0.204423
-0.0042303
0.207117
-0.00429269
0.210707
-0.00341187
0.215278
0.220656
0.00246487
0.139864
-0.0147876
0.00134463
0.151704
0.0067242
0.174243
0.00917622
0.192866
0.00824407
0.20239
0.00582267
0.206844
0.00321806
0.209722
0.00103834
0.212887
-0.000242941
0.216559
0.220413
0.0118566
0.154028
-0.0260204
-0.00210691
0.165668
-0.00497566
0.177112
-0.00186985
0.18976
0.00109536
0.199424
0.00207053
0.205869
0.00151865
0.210274
0.000343974
0.214061
-0.000445807
0.217349
0.219968
0.033229
-0.0327854
0.0240232
0.0153576
0.0108271
0.00892728
0.00765582
0.00602733
0.00394726
0.001784
0.0117364
-0.0158289
-0.00840841
0.0155791
-0.0160297
0.0188795
-0.0142065
0.022113
-0.00976836
0.0252322
-0.00719981
0.0290592
-0.0065045
0.0324569
-0.0119361
0.0352454
-0.017576
0.0356186
-0.0263936
-0.0303483
0.00982685
-0.0204324
-0.00522332
0.0150814
-0.0212843
0.0192389
-0.018364
0.0228933
-0.0134228
0.0261993
-0.0105058
0.0297688
-0.010074
0.0323863
-0.0145536
0.0338716
-0.0190613
0.0325812
-0.0251032
-0.0271078
0.0109709
-0.0265064
-0.00489696
0.0167404
-0.0270538
0.0209487
-0.0225723
0.024402
-0.0168761
0.0273557
-0.0134595
0.0301428
-0.0128611
0.0315788
-0.0159896
0.0315425
-0.019025
0.0289247
-0.0224854
-0.0233746
0.0141986
-0.0336742
-0.00703074
0.019703
-0.0325582
0.023329
-0.0261983
0.0260599
-0.019607
0.0281787
-0.0155783
0.0297822
-0.0144646
0.029835
-0.0160423
0.0283526
-0.0175426
0.0247959
-0.0189287
-0.0194408
0.0183318
-0.0411164
-0.0108897
0.0228752
-0.0371016
0.025455
-0.0287781
0.027117
-0.021269
0.0281063
-0.0165676
0.0283588
-0.014717
0.0270759
-0.0147595
0.0244318
-0.0148986
0.0203673
-0.0148642
-0.015568
0.0220893
-0.0477775
-0.0154281
0.0251693
-0.0401817
0.0264713
-0.0300801
0.0269479
-0.0217455
0.0267554
-0.0163751
0.0257415
-0.0137031
0.0233785
-0.0123966
0.0199824
-0.0115024
0.0158295
-0.0107113
-0.0119737
0.024408
-0.0527014
-0.0194841
0.0258298
-0.0416035
0.0258617
-0.0301119
0.0252489
-0.0211328
0.0240312
-0.0151574
0.0220234
-0.0116953
0.018958
-0.0093311
0.0152567
-0.0078011
0.0113749
-0.00682956
-0.00881739
0.0246925
-0.0553736
-0.0220204
0.0245525
-0.0414635
0.0235213
-0.0290807
0.0220615
-0.019673
0.0201029
-0.0131987
0.0174677
-0.0090602
0.0141127
-0.00597611
0.0105183
-0.00420666
0.00717323
-0.00348452
-0.00619685
0.022839
-0.0558234
-0.0223891
0.0214482
-0.0400727
0.0196809
-0.0273134
0.0176825
-0.0176746
0.0153108
-0.010827
0.0124281
-0.00617755
0.00916495
-0.00271293
0.00600578
-0.00104749
0.00334548
-0.000824219
-0.00415905
0.0191674
-0.0544862
-0.0205046
0.0169284
-0.0378337
0.0147746
-0.0251597
0.0125418
-0.0154417
0.0100663
-0.00835154
0.00727676
-0.00338798
0.0044098
0.000154031
0.00191415
0.00144815
-9.93438e-05
0.00118927
-0.00276931
0.0142653
-0.0519483
-0.0168033
0.0115667
-0.0351352
0.00931421
-0.0229072
0.00710587
-0.0132334
0.00477785
-0.00602352
0.00235143
-0.000961568
6.92207e-05
0.00243624
-0.00168178
0.00319916
-0.00286184
0.00236933
-0.00176854
0.00876368
-0.048738
-0.011974
0.00595459
-0.0323261
0.0037842
-0.0207368
0.00179109
-0.0112403
-0.000172375
-0.00406005
-0.00210256
0.000968619
-0.00368616
0.00401984
-0.0047397
0.0042527
-0.00527868
0.00290831
-0.00115434
0.00318172
-0.0452153
-0.00670442
0.000571097
-0.0297154
-0.00143014
-0.0187355
-0.00311409
-0.00955633
-0.00465065
-0.00252348
-0.00594954
0.00226751
-0.00682737
0.00489766
-0.00725538
0.00468072
-0.0073337
0.00298663
-0.000826535
-0.00212285
-0.0415661
-0.00152626
-0.00442968
-0.0274086
-0.00609196
-0.0170733
-0.00738723
-0.00826106
-0.00840805
-0.00150266
-0.00910005
0.0029595
-0.0093694
0.00516701
-0.00931896
0.00463028
-0.00910223
0.00276989
-0.00068452
-0.00666837
-0.038101
0.00320325
-0.00867582
-0.0254012
-0.00999972
-0.0157494
-0.0108944
-0.0073664
-0.0114283
-0.000968715
-0.0115921
0.00312332
-0.0113946
0.00496946
-0.0110327
0.00426837
-0.0106646
0.00240186
-0.000643509
-0.0104599
-0.0349139
0.00727275
-0.0120792
-0.0237818
-0.0131011
-0.0147275
-0.0136293
-0.0068382
-0.0137514
-0.000846542
-0.0135154
0.0028873
-0.013014
0.00446799
-0.0124968
0.00375125
-0.0120896
0.00199467
-0.000637316
-0.0134244
-0.0320411
0.0105516
-0.0146663
-0.0225399
-0.0154183
-0.0139755
-0.0156586
-0.00659797
-0.0154718
-0.00103328
-0.0149876
0.00240304
-0.0143392
0.00381958
-0.013795
0.00320706
-0.0134288
0.00162854
-0.000615598
-0.0155716
-0.0294954
0.0130259
-0.0165254
-0.0215861
-0.0170282
-0.0134727
-0.0170893
-0.0065369
-0.0167074
-0.00141514
-0.0161264
0.00182201
-0.0154644
0.00315756
-0.0149876
0.00273025
-0.014717
0.00135795
-0.000538893
-0.0169478
-0.0273286
0.014781
-0.0177509
-0.0207829
-0.0180277
-0.013196
-0.018033
-0.0065316
-0.017574
-0.00187407
-0.0170305
0.00127851
-0.0164575
0.00258454
-0.0161126
0.00238536
-0.0159753
0.00122058
-0.000373818
-0.0175981
-0.0257726
0.0160421
-0.0183784
-0.0200026
-0.0184614
-0.013113
-0.0185207
-0.00647231
-0.0181305
-0.0022643
-0.0177557
0.000903699
-0.0173558
0.00218466
-0.0171944
0.0022239
-0.0172093
0.00123548
-8.33315e-05
-0.0758247
-0.0201525
0.0702047
-0.0821566
-0.0136707
-0.0847278
-0.0105419
-0.0859728
-0.00522732
-0.0840871
-0.00414995
-0.0823396
-0.000843799
-0.0799009
-0.000254098
-0.0782518
0.000574808
-0.0771306
0.000114371
-9.34038e-05
-0.100901
-0.0161617
0.0969097
-0.102724
-0.0118473
-0.103535
-0.00973036
-0.103505
-0.00525825
-0.10267
-0.00498411
-0.101749
-0.00176551
-0.100305
-0.00169741
-0.0995084
-0.000222173
-0.0988063
-0.000587716
-1.06024e-05
-0.118666
-0.0133974
0.115901
-0.1208
-0.00971335
-0.122031
-0.0084985
-0.121955
-0.0053349
-0.122157
-0.00478223
-0.121563
-0.0023594
-0.121105
-0.00215498
-0.120609
-0.000718297
-0.120289
-0.000907253
9.48989e-05
-0.140512
-0.0118048
0.13892
-0.141567
-0.00865838
-0.142579
-0.00748694
-0.142991
-0.00492246
-0.143462
-0.00431147
-0.143314
-0.00250761
-0.143287
-0.00218188
-0.14295
-0.00105499
-0.14297
-0.000887936
9.65269e-05
-0.164799
-0.00975435
0.162748
-0.166063
-0.00739424
-0.167235
-0.00631468
-0.1678
-0.00435809
-0.168362
-0.00374881
-0.168466
-0.00240357
-0.16855
-0.0020985
-0.168417
-0.00118746
-0.168389
-0.000916301
-8.90341e-06
-0.194045
-0.00815027
0.192441
-0.195409
-0.00603001
-0.196596
-0.00512781
-0.197356
-0.00359741
-0.197914
-0.0031909
-0.198146
-0.00217165
-0.198309
-0.00193572
-0.198289
-0.00120785
-0.198326
-0.00087853
-3.85574e-05
-0.230799
-0.00632639
0.228975
-0.232413
-0.00441635
-0.233705
-0.00383545
-0.234514
-0.0027889
-0.235218
-0.00248661
-0.235689
-0.00170031
-0.236109
-0.001516
-0.236455
-0.000861559
-0.236764
-0.00057012
1.68458e-05
-0.278281
-0.00392263
0.275877
-0.279543
-0.00315424
-0.280737
-0.00264112
-0.281721
-0.00180547
-0.282637
-0.00157026
-0.283341
-0.000996655
-0.284044
-0.00081276
-0.284667
-0.00023867
-0.28514
-9.6871e-05
0.000132159
-0.325753
-0.00191626
0.323747
-0.327923
-0.000983851
-0.329717
-0.000847448
-0.33088
-0.000642293
-0.331818
-0.000632786
-0.332455
-0.000359667
-0.333066
-0.000201712
-0.333441
0.000136611
-0.333709
0.00017104
0.000150409
-0.359879
0.357963
-0.360863
-0.361711
-0.362353
-0.362986
-0.363345
-0.363547
-0.36341
-0.363239
-0.0207631
0.0729649
0.0180029
-0.0220614
0.0982081
-0.0223988
0.116239
-0.022285
0.138806
-0.0215522
0.162016
-0.0202035
0.191092
-0.0181309
0.226903
-0.0139434
0.271689
-0.0083286
0.318132
0.349634
-0.0196411
0.0748536
0.0177524
-0.0206749
0.0992419
-0.0209231
0.116487
-0.0206628
0.138546
-0.0198586
0.161211
-0.0184453
0.189679
-0.0162606
0.224718
-0.0124827
0.267911
-0.00721151
0.312861
0.342423
-0.0185549
0.0764309
0.0169776
-0.0194428
0.10013
-0.0195784
0.116623
-0.0192578
0.138225
-0.0184339
0.160387
-0.0170701
0.188315
-0.0149549
0.222603
-0.011522
0.264479
-0.00650595
0.307845
0.335917
-0.0173183
0.0778653
0.015884
-0.0180966
0.100908
-0.018098
0.116624
-0.0176986
0.137826
-0.0168597
0.159549
-0.015542
0.186997
-0.0135364
0.220597
-0.0104185
0.261361
-0.00577192
0.303198
0.330145
-0.0159299
0.0792184
0.0145768
-0.0166195
0.101598
-0.0165051
0.11651
-0.0160363
0.137357
-0.0151937
0.158706
-0.0139226
0.185726
-0.0120503
0.218725
-0.00922551
0.258536
-0.00505897
0.299031
0.325086
-0.0143829
0.0804839
0.0131174
-0.0149889
0.102204
-0.0147825
0.116303
-0.0142645
0.136839
-0.0134353
0.157877
-0.0122241
0.184515
-0.0105054
0.217006
-0.0079809
0.256011
-0.00435824
0.295409
0.320728
-0.0127044
0.0816383
0.01155
-0.013231
0.10273
-0.0129445
0.116017
-0.0123892
0.136284
-0.0115849
0.157072
-0.01045
0.18338
-0.00890384
0.21546
-0.00670286
0.25381
-0.00364789
0.292354
0.31708
-0.0109314
0.0826567
0.00991303
-0.0113899
0.103189
-0.0110281
0.115655
-0.0104389
0.135695
-0.00966305
0.156297
-0.00861583
0.182333
-0.0072565
0.214101
-0.0054019
0.251956
-0.00292246
0.289874
0.314157
-0.00909969
0.0835093
0.0082471
-0.00950629
0.103595
-0.00906943
0.115218
-0.00845012
0.135075
-0.00769877
0.155545
-0.00674732
0.181381
-0.00558144
0.212935
-0.00408733
0.250462
-0.00218543
0.287972
0.311972
-0.00724536
0.0841562
0.00659851
-0.00761687
0.103967
-0.0070947
0.114696
-0.00645869
0.134439
-0.00571843
0.154805
-0.00487333
0.180536
-0.00389833
0.21196
-0.00277344
0.249337
-0.00144812
0.286647
0.310524
-0.00541304
0.0845451
0.00502415
-0.00576544
0.104319
-0.00515697
0.114087
-0.00450692
0.133789
-0.00377022
0.154068
-0.0030266
0.179793
-0.00223166
0.211165
-0.00147556
0.248581
-0.00071783
0.285889
0.309806
-0.00363077
0.0846063
0.00356948
-0.00397364
0.104662
-0.0033018
0.113415
-0.00261466
0.133102
-0.00189408
0.153348
-0.00121864
0.179117
-0.00062696
0.210573
-0.000203782
0.248158
-2.72682e-06
0.285688
0.309803
-0.001947
0.0842607
0.00229261
-0.00227526
0.10499
-0.00158786
0.112728
-0.000810974
0.132325
-0.000177378
0.152714
0.00050227
0.178438
0.000934138
0.210141
0.00103222
0.24806
0.000694736
0.286026
0.310498
-0.000410719
0.0834358
0.00123562
-0.000684948
0.105264
-0.00010186
0.112145
0.000872665
0.131351
0.00157462
0.152012
0.00215792
0.177854
0.00243503
0.209864
0.00221081
0.248284
0.00135686
0.28688
0.311855
0.000937036
0.0820818
0.000417005
0.000768882
0.105433
0.00145701
0.111457
0.00243704
0.130371
0.00316551
0.151284
0.0037023
0.177317
0.0038486
0.209718
0.00333906
0.248793
0.00199993
0.288219
0.313855
0.00205476
0.0801824
-0.000155391
0.00206537
0.105422
0.00277931
0.110743
0.00382429
0.129326
0.00458651
0.150521
0.00509537
0.176809
0.00513155
0.209682
0.00436745
0.249557
0.0025818
0.290004
0.316437
0.00288889
0.0776385
-0.000345009
0.00321636
0.105095
0.00392346
0.110036
0.00504677
0.128202
0.00586368
0.149705
0.00637043
0.176302
0.00633013
0.209722
0.00534828
0.250539
0.00315301
0.2922
0.31959
0.00336401
0.0745383
-0.000263808
0.00415799
0.104301
0.00483461
0.109359
0.00603275
0.127004
0.00690088
0.148836
0.00741527
0.175787
0.00732009
0.209817
0.00616644
0.251693
0.00361965
0.294747
0.323209
0.00355938
0.0708525
0.000126432
0.00504734
0.102813
0.0056915
0.108715
0.00695552
0.12574
0.00788413
0.147908
0.00842619
0.175245
0.00829439
0.209949
0.00698772
0.253
0.00411201
0.297622
0.327321
0.00314613
0.0667965
0.000909935
0.0053152
0.100644
0.00599835
0.108032
0.00733443
0.124404
0.00831696
0.146925
0.00890839
0.174654
0.00878559
0.210072
0.00743862
0.254347
0.00436457
0.300696
0.331686
-0.0654471
0.0602152
0.0720284
-0.0594389
0.0946354
-0.0523411
0.100934
-0.0447897
0.116853
-0.0384581
0.140594
-0.0318629
0.168059
-0.0250596
0.203268
-0.0176208
0.246908
-0.00901187
0.292087
0.322674
-0.0841041
0.0547603
0.089559
-0.0750987
0.08563
-0.0659358
0.0917711
-0.0564222
0.107339
-0.0486244
0.132796
-0.0407579
0.160192
-0.032707
0.195217
-0.023647
0.237848
-0.0128083
0.281249
0.309866
-0.101289
0.0467317
0.109317
-0.0900606
0.074402
-0.0799782
0.0816888
-0.0698759
0.0972369
-0.0597095
0.122629
-0.0507316
0.151214
-0.0406773
0.185163
-0.0289442
0.226115
-0.0149222
0.267227
0.294944
-0.118222
0.035361
0.129593
-0.105705
0.0618846
-0.096147
0.0721309
-0.0863432
0.0874331
-0.0748921
0.111178
-0.0650252
0.141348
-0.052958
0.173096
-0.038087
0.211244
-0.0206346
0.249774
0.274309
-0.139734
0.0218256
0.153269
-0.126108
0.0482587
-0.115871
0.0618936
-0.106045
0.0776074
-0.0937679
0.0989013
-0.0812415
0.128821
-0.0657651
0.157619
-0.0467812
0.19226
-0.0240368
0.22703
0.250272
-0.169255
0.00896316
0.182117
-0.155747
0.0347515
-0.144487
0.0506333
-0.133964
0.0670843
-0.120812
0.0857491
-0.104714
0.112724
-0.0848382
0.137743
-0.0610372
0.168459
-0.033054
0.199047
0.217218
-0.20567
0.000613585
0.21402
-0.192989
0.0220701
-0.179935
0.0375798
-0.166533
0.0536825
-0.150379
0.0695944
-0.129255
0.0915999
-0.10344
0.111929
-0.0723452
0.137364
-0.0360597
0.162761
0.181158
-0.246099
-0.0019237
0.248636
-0.236732
0.0127034
-0.224099
0.0249467
-0.208352
0.0379358
-0.188682
0.0499239
-0.162649
0.0655667
-0.13091
0.0801896
-0.0927052
0.0991595
-0.0502028
0.120259
0.130956
-0.276106
0.00017338
0.274009
-0.269882
0.00647974
-0.25712
0.0121847
-0.238172
0.018987
-0.213628
0.0253799
-0.181511
0.0334504
-0.142457
0.0411357
-0.0947561
0.0514582
-0.0397595
0.0652622
0.0911961
-0.345534
0.345707
-0.339054
-0.32687
-0.307883
-0.282503
-0.249052
-0.207916
-0.156458
-0.0911961
-0.00763365
0.0748665
0.0047955
-0.0101785
0.0921038
-0.0129172
0.112056
-0.0156667
0.132343
-0.0181326
0.155735
-0.0189891
0.182974
-0.01805
0.21308
-0.0126854
0.243272
-0.00727938
0.268603
0.338428
-0.00933521
0.0770349
0.00716684
-0.0122743
0.0950429
-0.0150752
0.114857
-0.0175745
0.134842
-0.0193758
0.157536
-0.0197645
0.183362
-0.0177413
0.211057
-0.0129141
0.238444
-0.00676535
0.262454
0.331663
-0.0111405
0.078722
0.00945336
-0.0140916
0.097994
-0.0167629
0.117528
-0.0190008
0.13708
-0.0203554
0.158891
-0.0201481
0.183155
-0.0175784
0.208488
-0.0124171
0.233283
-0.00641303
0.25645
0.32525
-0.0131107
0.0802576
0.0115752
-0.0159976
0.100881
-0.0183454
0.119876
-0.0201536
0.138888
-0.0209689
0.159706
-0.0201548
0.182341
-0.0170989
0.205432
-0.0117345
0.227919
-0.00594264
0.250658
0.319307
-0.0151979
0.0818979
0.0135576
-0.0179877
0.103671
-0.019911
0.121799
-0.0211951
0.140172
-0.0213978
0.159909
-0.0199654
0.180908
-0.016446
0.201912
-0.0109695
0.222442
-0.00540006
0.245089
0.313907
-0.0172574
0.0837305
0.0154249
-0.0198281
0.106241
-0.0212576
0.123229
-0.021987
0.140901
-0.0215677
0.15949
-0.0195532
0.178894
-0.0156298
0.197989
-0.0101165
0.216929
-0.0048062
0.239778
0.309101
-0.0191526
0.0857308
0.0171523
-0.0213536
0.108442
-0.0222302
0.124105
-0.0223952
0.141066
-0.0213838
0.158478
-0.0188582
0.176368
-0.0146286
0.193759
-0.00916008
0.211461
-0.00416794
0.234786
0.304933
-0.0207511
0.0878096
0.0186723
-0.0224691
0.11016
-0.0227697
0.124406
-0.0223807
0.140677
-0.020828
0.156925
-0.0178771
0.173417
-0.0134497
0.189332
-0.00810767
0.206119
-0.00349156
0.23017
0.301441
-0.0219313
0.089844
0.0198969
-0.0231067
0.111336
-0.0228566
0.124156
-0.0219539
0.139775
-0.0199323
0.154904
-0.0166499
0.170135
-0.0121286
0.184811
-0.00698552
0.200975
-0.00278706
0.225972
0.298654
-0.022599
0.0917001
0.0207429
-0.0232252
0.111962
-0.0224899
0.12342
-0.0211397
0.138425
-0.018743
0.152507
-0.0152271
0.166619
-0.0107107
0.180294
-0.00582447
0.196089
-0.00206609
0.222213
0.296588
-0.0227013
0.0932399
0.0211614
-0.022833
0.112094
-0.0216968
0.122284
-0.0199823
0.13671
-0.0173167
0.149841
-0.0136686
0.162971
-0.00924286
0.175868
-0.0046554
0.191502
-0.00133991
0.218898
0.295248
-0.0222721
0.0943936
0.0211185
-0.0219952
0.111817
-0.0205313
0.12082
-0.0185495
0.134728
-0.0157005
0.146992
-0.012023
0.159294
-0.00775511
0.1716
-0.00349699
0.187244
-0.000620394
0.216021
0.294628
-0.0214091
0.0951798
0.0206229
-0.020786
0.111193
-0.0190917
0.119126
-0.0169205
0.132557
-0.0139756
0.144047
-0.0103473
0.155665
-0.00628525
0.167538
-0.00237489
0.183333
7.0129e-05
0.213576
0.294698
-0.0201545
0.0956363
0.0196981
-0.0192702
0.110309
-0.0174441
0.1173
-0.0151624
0.130276
-0.0122035
0.141089
-0.00869022
0.152152
-0.00486117
0.163709
-0.00131379
0.179786
0.00076976
0.211493
0.295468
-0.0185777
0.0958246
0.0183893
-0.01752
0.109252
-0.0156575
0.115437
-0.0133385
0.127957
-0.0104373
0.138187
-0.00709196
0.148807
-0.00350795
0.160125
-0.000342309
0.17662
0.00143721
0.209713
0.296905
-0.0167731
0.0958293
0.0167684
-0.0156194
0.108098
-0.0138063
0.113624
-0.0115144
0.125665
-0.00872955
0.135403
-0.00558994
0.145667
-0.00225981
0.156795
0.000642968
0.173717
0.00206662
0.208289
0.298971
-0.0148038
0.0957444
0.0148886
-0.0136242
0.106918
-0.0119356
0.111936
-0.00972805
0.123457
-0.00710597
0.132781
-0.00419595
0.142757
-0.00113057
0.15373
0.00154234
0.171045
0.00266133
0.20717
0.301633
-0.0128131
0.0956885
0.012869
-0.0116491
0.105754
-0.0101378
0.110425
-0.00806302
0.121382
-0.00563268
0.13035
-0.00296171
0.140086
-0.000186067
0.150954
0.00231573
0.168543
0.00318736
0.206299
0.30482
-0.0106497
0.0957064
0.0106318
-0.0095902
0.104695
-0.00831032
0.109145
-0.00642338
0.119495
-0.00421926
0.128146
-0.00180504
0.137672
0.000801586
0.148348
0.00304773
0.166297
0.00368999
0.205657
0.30851
-0.00897775
0.0961331
0.00855111
-0.0079467
0.103664
-0.00688891
0.108087
-0.00520684
0.117813
-0.00319906
0.126138
-0.0010043
0.135477
0.0014424
0.145901
0.00352577
0.164213
0.00404312
0.205139
0.312553
-0.120719
0.0882323
0.128619
-0.106906
0.0898504
-0.0952602
0.0964416
-0.0803582
0.102911
-0.0640534
0.109833
-0.0465114
0.117935
-0.0290413
0.128431
-0.0137768
0.148949
-0.00418778
0.19555
0.308365
-0.116622
0.078792
0.126062
-0.102156
0.0753842
-0.0905733
0.0848593
-0.0747047
0.0870426
-0.0589345
0.0940632
-0.0419029
0.100903
-0.0255509
0.112079
-0.011798
0.135196
-0.00359628
0.187348
0.304769
-0.111627
0.067024
0.123395
-0.0981943
0.0619517
-0.0863301
0.0729951
-0.0704066
0.0711192
-0.0553656
0.0790222
-0.0390254
0.0845633
-0.0238075
0.0968609
-0.0111495
0.122538
-0.00348474
0.179684
0.301284
-0.107855
0.0541979
0.120681
-0.0955628
0.0496592
-0.0831127
0.060545
-0.0678366
0.055843
-0.0533561
0.0645418
-0.0378586
0.0690657
-0.023542
0.0825443
-0.0114251
0.110421
-0.00379502
0.172054
0.297489
-0.10551
0.0413907
0.118317
-0.0943614
0.0385104
-0.0813066
0.0474903
-0.0675805
0.0421169
-0.0536068
0.0505681
-0.0390547
0.0545137
-0.0256248
0.0691144
-0.014137
0.0989333
-0.00553481
0.163451
0.291955
-0.104788
0.0304778
0.115701
-0.0945158
0.0282381
-0.081966
0.0349404
-0.0703677
0.0305186
-0.0573882
0.0375886
-0.044066
0.0411915
-0.0312506
0.0562989
-0.0196742
0.0873569
-0.0092585
0.153036
0.282696
-0.108208
0.0197299
0.118956
-0.0993588
0.0193885
-0.0882341
0.0238157
-0.0791471
0.0214316
-0.0682205
0.0266621
-0.0573599
0.0303309
-0.0462064
0.0451454
-0.0342308
0.0753813
-0.0192144
0.138019
0.263482
-0.134301
0.0104688
0.143563
-0.125929
0.0110157
-0.115247
0.013134
-0.106541
0.0127257
-0.0961959
0.0163167
-0.0864807
0.0206157
-0.0758015
0.0344662
-0.0614958
0.0610755
-0.0386701
0.115194
0.224812
-0.206233
0.00347015
0.213231
-0.199161
0.00394414
-0.190501
0.00447385
-0.183088
0.0053125
-0.174278
0.00750698
-0.165177
0.0115147
-0.1512
0.0204887
-0.127494
0.0373705
-0.0826465
0.0703456
0.142165
-0.303122
0.306592
-0.299178
-0.294704
-0.289392
-0.281885
-0.27037
-0.249881
-0.212511
-0.142165
-0.004755
0.127558
0.00581662
-0.00397591
0.125283
-0.0034664
0.122885
-0.00308031
0.120295
-0.00277766
0.118015
-0.00284657
0.11577
-0.00347724
0.119587
-0.00482706
0.144912
-0.00465716
0.213061
0.301935
-0.0028932
0.127406
0.00304544
-0.00266215
0.125052
-0.00251302
0.122736
-0.00240839
0.120191
-0.00234092
0.117947
-0.00257785
0.116007
-0.00335591
0.120365
-0.0046901
0.146247
-0.0041541
0.212525
0.297781
-0.000522102
0.127584
0.000343853
-0.000820315
0.12535
-0.00112159
0.123037
-0.00140162
0.120471
-0.0016501
0.118196
-0.00212223
0.116479
-0.00304261
0.121286
-0.00430926
0.147513
-0.00380977
0.212026
0.293971
0.00195181
0.128269
-0.0026365
0.00112947
0.126173
0.000323795
0.123843
-0.00034803
0.121143
-0.000869163
0.118717
-0.00158216
0.117192
-0.00263869
0.122342
-0.00386022
0.148735
-0.00342232
0.211588
0.290549
0.00432852
0.1295
-0.0055596
0.00307865
0.127422
0.00193767
0.124984
0.000874815
0.122205
-8.01494e-05
0.119672
-0.000980136
0.118092
-0.00215628
0.123518
-0.00334643
0.149925
-0.00299527
0.211237
0.287554
0.00674647
0.131288
-0.00853507
0.00504783
0.129121
0.00353952
0.126492
0.00216123
0.123584
0.000935152
0.120898
-0.000329892
0.119357
-0.00160127
0.12479
-0.00277441
0.151098
-0.0025353
0.210998
0.285018
0.00925809
0.133599
-0.0115689
0.00710577
0.131273
0.00521521
0.128383
0.0034996
0.125299
0.0019719
0.122426
0.000439646
0.120889
-0.000977358
0.126207
-0.00215451
0.152275
-0.00204967
0.210893
0.282969
0.0118602
0.136405
-0.014666
0.00925511
0.133878
0.00697862
0.130659
0.00491445
0.127363
0.0030685
0.124271
0.00132286
0.122635
-0.000295621
0.127825
-0.00149986
0.153479
-0.00154486
0.210938
0.281424
0.0145452
0.139676
-0.0178169
0.0114867
0.136937
0.00882617
0.13332
0.00640676
0.129783
0.00422927
0.126449
0.00223208
0.124632
0.000432641
0.129625
-0.000828326
0.15474
-0.00102493
0.211135
0.280399
0.017297
-0.0209825
0.0137971
0.0107563
0.00797188
0.00544831
0.00318367
0.0012002
-0.000170604
-0.000489273
-0.000203706
-0.000314877
-0.000342068
-0.000700806
-0.000294356
-0.000941194
1.01206e-05
-0.00106248
0.000619451
-0.00106225
0.00157465
-0.000928662
0.00289596
-0.000659557
0.004566
-0.000268525
0.00648548
0.000150373
0.000444856
-0.000209441
-0.000105435
-0.00037637
-0.000533878
-0.000401201
-0.000916363
-0.000236647
-0.00122704
0.000142398
-0.00144129
0.000749168
-0.00153543
0.00158419
-0.00149458
0.00263784
-0.00132217
0.00386293
-0.00107472
-0.000915532
-0.000176204
7.07683e-05
-0.000287442
-0.000422639
-0.000254068
-0.000949736
-4.64557e-05
-0.00143465
0.000342834
-0.00183058
0.000912512
-0.00210511
0.0016576
-0.00223967
0.00257447
-0.00223905
0.00365881
-0.00215906
-0.00215368
-0.000105453
0.000176222
-7.84802e-05
-0.000449612
0.000142088
-0.0011703
0.000573243
-0.0018658
0.00121032
-0.00246766
0.00204025
-0.00293503
0.00304975
-0.00324917
0.00422988
-0.00341918
0.00557477
-0.00350394
-0.00360965
-8.13454e-07
0.000177036
0.000229969
-0.000680395
0.000743185
-0.00168352
0.00154264
-0.00266526
0.00260994
-0.00353496
0.00391678
-0.00424187
0.00543354
-0.00476594
0.00713134
-0.00511698
0.00897586
-0.00534847
-0.00552345
0.000119857
5.71787e-05
0.000604877
-0.00116541
0.00147948
-0.00255813
0.00273161
-0.00391738
0.0043228
-0.00512615
0.00620123
-0.0061203
0.00831213
-0.00687684
0.0105996
-0.00740449
0.0129973
-0.00774615
-0.00795425
0.000251763
-0.000194584
0.00101051
-0.00192416
0.00227074
-0.00381836
0.0039907
-0.00563734
0.00609889
-0.00723434
0.00850949
-0.0085309
0.0111359
-0.00950321
0.0138959
-0.0101645
0.0167044
-0.0105546
-0.010734
0.000383406
-0.000577991
0.00141296
-0.00295371
0.00303951
-0.00544492
0.00517399
-0.00777182
0.00769612
-0.00975647
0.0104766
-0.0113114
0.0133949
-0.0124215
0.016348
-0.0131176
0.0192487
-0.0134554
-0.0135056
0.000507113
-0.0010851
0.00178252
-0.00422911
0.00371526
-0.00737766
0.00614894
-0.0102055
0.00890132
-0.0125089
0.0117968
-0.0142069
0.0146881
-0.0153128
0.0174643
-0.0158938
0.02005
-0.0160411
-0.0158447
0.000616446
-0.00170155
0.00209219
-0.00570486
0.00423383
-0.0095193
0.00680135
-0.012773
0.00954749
-0.015255
0.0122607
-0.0169201
0.0147856
-0.0178377
0.0170253
-0.0181335
0.0189337
-0.0179494
-0.0174157
0.000718269
-0.00241982
0.00233963
-0.00732622
0.00456906
-0.0117487
0.00707854
-0.0152825
0.00957007
-0.0177465
0.0118221
-0.0191721
0.0136997
-0.0197154
0.0151449
-0.0195787
0.0161603
-0.0189648
-0.0180586
0.000787714
-0.00320753
0.00246915
-0.00900765
0.00463989
-0.0139195
0.00689766
-0.0175403
0.00892414
-0.019773
0.0105208
-0.0207688
0.0115992
-0.0207937
0.0121553
-0.0201348
0.0122461
-0.0190556
-0.0177865
0.000824567
-0.0040321
0.00247552
-0.0106586
0.00444704
-0.015891
0.00629501
-0.0193882
0.00771969
-0.0211977
0.00857459
-0.0216237
0.0088308
-0.0210499
0.0085374
-0.0198414
0.00779089
-0.0183091
-0.0167
0.000822576
-0.00485468
0.00235125
-0.0121873
0.00400584
-0.0175456
0.00534286
-0.0207252
0.00611477
-0.0219696
0.00624135
-0.0217503