/*--------------------------------*- C++ -*----------------------------------*\
  =========                 |
  \\      /  F ield         | OpenFOAM: The Open Source CFD Toolbox
   \\    /   O peration     | Website:  https://openfoam.org
    \\  /    A nd           | Version:  7
     \\/     M anipulation  |
\*---------------------------------------------------------------------------*/
FoamFile
{
    version     2.0;
    format      ascii;
    class       volScalarField;
    location    "9.4";
    object      p;
}
// * * * * * * * * * * * * * * * * * * * * * * * * * * * * * * * * * * * * * //

dimensions      [0 2 -2 0 0 0 0];

internalField   nonuniform List<scalar> 
18000
(
0.331212
0.332259
0.332995
0.333759
0.334448
0.335045
0.335551
0.335987
0.336386
0.336786
0.33723
0.33776
0.33842
0.339253
0.340298
0.341589
0.343157
0.345024
0.347207
0.349713
0.35254
0.35568
0.359118
0.362833
0.3668
0.370989
0.375364
0.379887
0.384516
0.389179
0.330823
0.331827
0.332518
0.333226
0.333858
0.334397
0.334843
0.335215
0.335548
0.335881
0.33625
0.336697
0.337264
0.337991
0.338918
0.340079
0.341504
0.343216
0.34523
0.347556
0.350192
0.353136
0.356375
0.359893
0.363668
0.367671
0.371868
0.376224
0.380686
0.385202
0.330447
0.331399
0.332038
0.332688
0.333259
0.333739
0.334125
0.334436
0.33471
0.33498
0.335283
0.335656
0.336139
0.336773
0.337595
0.33864
0.339936
0.341505
0.343364
0.345522
0.347981
0.350739
0.353789
0.357118
0.360704
0.364522
0.368541
0.372726
0.377019
0.381379
0.330069
0.33096
0.331548
0.33214
0.332652
0.333074
0.333404
0.33366
0.333878
0.334092
0.334335
0.334642
0.335053
0.335605
0.336334
0.337276
0.338456
0.339896
0.341613
0.343616
0.34591
0.348495
0.351366
0.354512
0.357916
0.361553
0.365394
0.369406
0.373524
0.377726
0.329702
0.330528
0.331061
0.331595
0.332047
0.332411
0.332686
0.332891
0.333059
0.333222
0.33341
0.33366
0.334007
0.334488
0.335138
0.335989
0.337066
0.33839
0.339977
0.34184
0.343982
0.346405
0.349108
0.352081
0.355309
0.358768
0.362433
0.366273
0.370214
0.374254
0.329345
0.330097
0.330575
0.331048
0.331443
0.33175
0.331974
0.332133
0.332255
0.332371
0.332512
0.332713
0.333007
0.333428
0.33401
0.334781
0.335767
0.336987
0.338459
0.340195
0.342199
0.344474
0.347019
0.349829
0.352888
0.356176
0.359668
0.363336
0.3671
0.370974
0.329003
0.329675
0.330096
0.330507
0.330844
0.331098
0.331274
0.33139
0.331471
0.331546
0.331646
0.331805
0.332056
0.332428
0.332953
0.333656
0.334563
0.335693
0.337063
0.338684
0.340563
0.342703
0.345104
0.34776
0.350659
0.353781
0.357106
0.360605
0.364191
0.367899
0.328679
0.329264
0.329625
0.329973
0.330252
0.330456
0.330589
0.330666
0.330709
0.330749
0.330816
0.330943
0.33116
0.331493
0.331971
0.332617
0.333456
0.334509
0.335791
0.337311
0.339079
0.341097
0.343365
0.345878
0.348626
0.35159
0.354752
0.358088
0.361498
0.365038
0.328373
0.328863
0.329163
0.329447
0.329671
0.329828
0.329921
0.329962
0.329974
0.329985
0.330027
0.330131
0.330322
0.330626
0.331066
0.331667
0.332451
0.33344
0.334645
0.336079
0.337748
0.339656
0.341803
0.344185
0.346791
0.349606
0.352614
0.35579
0.359027
0.362401
0.328086
0.328472
0.32871
0.328932
0.329102
0.329215
0.329271
0.329282
0.329267
0.329258
0.329283
0.329372
0.329547
0.32983
0.330243
0.330809
0.331551
0.332487
0.33363
0.33499
0.336574
0.338384
0.340422
0.342684
0.345159
0.347834
0.350694
0.353715
0.356784
0.359992
0.327816
0.328091
0.328267
0.328426
0.328546
0.328618
0.328642
0.328626
0.328593
0.32857
0.328587
0.328668
0.328835
0.329107
0.329503
0.330047
0.330758
0.331654
0.332747
0.334046
0.335557
0.337282
0.339223
0.341376
0.343731
0.346275
0.348995
0.351867
0.354772
0.357817
0.32756
0.327719
0.327832
0.327931
0.328002
0.328037
0.328032
0.327997
0.327952
0.327924
0.32794
0.328022
0.32819
0.32846
0.32885
0.329382
0.330074
0.330942
0.331997
0.333248
0.334698
0.336352
0.338208
0.340264
0.34251
0.344932
0.347519
0.350249
0.352996
0.355881
0.327317
0.327352
0.327403
0.327443
0.327469
0.32747
0.327442
0.327394
0.327345
0.327319
0.327342
0.327434
0.327611
0.327889
0.328283
0.328814
0.329497
0.330349
0.33138
0.332595
0.333999
0.335592
0.337377
0.339347
0.341494
0.343804
0.346267
0.348862
0.351458
0.354188
0.327082
0.326987
0.326977
0.326961
0.326945
0.326917
0.326871
0.326816
0.326769
0.326754
0.326792
0.326902
0.327099
0.327394
0.327802
0.328342
0.329029
0.329877
0.330895
0.332087
0.333457
0.335004
0.336728
0.338625
0.340684
0.342891
0.345239
0.347707
0.35016
0.352738
0.32685
0.32662
0.32655
0.326481
0.326427
0.326373
0.326315
0.32626
0.326223
0.326226
0.326288
0.326426
0.32665
0.326972
0.327405
0.327964
0.328665
0.329521
0.33054
0.331722
0.33307
0.334582
0.336259
0.338093
0.340075
0.34219
0.344432
0.346784
0.349102
0.351533
0.326615
0.326247
0.326119
0.326
0.325912
0.325838
0.325772
0.325723
0.325704
0.325733
0.325828
0.326001
0.326262
0.32662
0.327086
0.327676
0.328403
0.32928
0.33031
0.331495
0.332832
0.334323
0.335963
0.337747
0.339662
0.341696
0.343844
0.346087
0.348281
0.35057
0.326371
0.325864
0.32568
0.325514
0.325395
0.325305
0.325239
0.325202
0.325207
0.32527
0.325406
0.325624
0.32593
0.326333
0.326843
0.327473
0.328238
0.329146
0.3302
0.331398
0.332738
0.334218
0.335834
0.337578
0.339439
0.341403
0.343467
0.345612
0.347691
0.349845
0.326112
0.325463
0.325227
0.325018
0.324873
0.324772
0.324709
0.324691
0.324728
0.324833
0.325017
0.325287
0.325647
0.326104
0.326666
0.327348
0.328161
0.329112
0.330201
0.331424
0.332777
0.334258
0.335862
0.337578
0.339396
0.341303
0.343293
0.34535
0.347326
0.349351
0.325829
0.32504
0.324753
0.324505
0.324339
0.324232
0.324179
0.324185
0.32426
0.324414
0.324654
0.324984
0.325405
0.325924
0.326548
0.327291
0.328163
0.329168
0.330302
0.331561
0.332939
0.334433
0.336035
0.337736
0.339523
0.341384
0.343313
0.345293
0.347178
0.349082
0.325514
0.324586
0.324253
0.323969
0.323787
0.323679
0.323641
0.323678
0.323798
0.324007
0.324309
0.324704
0.325194
0.325783
0.326479
0.327293
0.328234
0.329302
0.330491
0.331795
0.333209
0.334727
0.336339
0.338037
0.339806
0.341634
0.343513
0.345429
0.347236
0.349029
0.325156
0.324093
0.323718
0.323404
0.32321
0.323107
0.323089
0.323162
0.323332
0.323601
0.323971
0.324439
0.325004
0.32567
0.326445
0.327339
0.328358
0.329498
0.330751
0.332112
0.333571
0.335124
0.336759
0.338465
0.340229
0.342035
0.343878
0.345745
0.347489
0.34918
0.324749
0.323556
0.323142
0.322801
0.3226
0.322507
0.322515
0.322629
0.322853
0.323188
0.32363
0.324175
0.324822
0.325572
0.326434
0.327417
0.328521
0.32974
0.331067
0.332492
0.334008
0.335605
0.337273
0.339
0.340771
0.342571
0.344392
0.346223
0.347922
0.349524
0.32428
0.322966
0.322517
0.322155
0.321951
0.321872
0.32191
0.32207
0.322353
0.322757
0.323276
0.323903
0.324636
0.325477
0.326432
0.327509
0.328705
0.330012
0.331419
0.332917
0.334497
0.336148
0.33786
0.339619
0.341411
0.343218
0.345032
0.346845
0.348518
0.350046
0.323743
0.322315
0.321836
0.321457
0.321255
0.321194
0.321266
0.321475
0.32182
0.322297
0.322896
0.323609
0.324433
0.325369
0.326423
0.3276
0.328894
0.330293
0.331787
0.333365
0.335017
0.336731
0.338495
0.340297
0.342122
0.343951
0.345775
0.347589
0.349259
0.35073
0.323127
0.321596
0.321092
0.320702
0.320506
0.320466
0.320576
0.320836
0.321245
0.321797
0.322479
0.323281
0.324199
0.325234
0.326392
0.327672
0.329067
0.330564
0.332149
0.333813
0.335542
0.337326
0.339151
0.341005
0.342874
0.344739
0.346591
0.348429
0.350121
0.351558
0.322424
0.320803
0.32028
0.319884
0.319698
0.319683
0.319831
0.320145
0.320619
0.321246
0.322013
0.322906
0.32392
0.325057
0.32632
0.327708
0.329207
0.330803
0.332483
0.334236
0.336047
0.337905
0.339797
0.341711
0.343634
0.345549
0.347447
0.349332
0.35108
0.352512
0.321628
0.319932
0.319395
0.318997
0.318825
0.318837
0.319026
0.319393
0.319932
0.320635
0.321486
0.322472
0.323583
0.324823
0.326193
0.327687
0.329291
0.330989
0.332766
0.334609
0.336505
0.338439
0.340401
0.34238
0.344364
0.346339
0.3483
0.350258
0.352101
0.353571
0.320732
0.318978
0.318432
0.318037
0.317882
0.317924
0.318155
0.318573
0.319176
0.319954
0.320889
0.321965
0.323174
0.324517
0.325993
0.327593
0.329301
0.331099
0.332973
0.334907
0.336886
0.338897
0.340929
0.342972
0.345019
0.347061
0.349096
0.351152
0.353142
0.354719
0.319734
0.317938
0.317388
0.317001
0.316865
0.316939
0.317211
0.31768
0.318345
0.319195
0.320211
0.321376
0.322681
0.324125
0.325705
0.327407
0.329216
0.331112
0.333079
0.335102
0.337162
0.339247
0.341345
0.343448
0.345553
0.347657
0.349769
0.351947
0.354172
0.35602
0.318629
0.316809
0.316261
0.315886
0.315773
0.315879
0.316191
0.316709
0.317433
0.318351
0.319445
0.320695
0.322092
0.323633
0.325311
0.327112
0.329016
0.331006
0.333062
0.335168
0.337304
0.339456
0.341611
0.343762
0.345908
0.348053
0.350223
0.352519
0.355015
0.357333
0.405034
0.428551
0.447796
0.462563
0.473528
0.48166
0.487637
0.49205
0.495262
0.497571
0.49918
0.500281
0.500971
0.501322
0.501406
0.501285
0.500985
0.500512
0.499883
0.499095
0.498161
0.497079
0.495861
0.494516
0.493051
0.491475
0.489835
0.488135
0.486579
0.485138
0.401129
0.424502
0.444096
0.459084
0.470239
0.478512
0.484603
0.489098
0.492377
0.494765
0.496459
0.497617
0.498355
0.498767
0.498919
0.498854
0.498603
0.498178
0.497596
0.496848
0.495949
0.494899
0.49371
0.492392
0.490944
0.489388
0.487754
0.486057
0.484498
0.483053
0.397354
0.420492
0.440412
0.455599
0.466938
0.475352
0.48156
0.48614
0.48949
0.491957
0.493739
0.494954
0.495742
0.496216
0.496436
0.496428
0.496227
0.49585
0.495314
0.494608
0.493744
0.49273
0.49157
0.490281
0.488854
0.487319
0.485694
0.484002
0.482443
0.480994
0.393729
0.416527
0.436745
0.452102
0.46363
0.472184
0.478506
0.483179
0.486613
0.489153
0.491005
0.492286
0.493137
0.493675
0.493956
0.494005
0.493857
0.49353
0.493038
0.492376
0.491552
0.490573
0.489446
0.488182
0.48678
0.485263
0.483654
0.481973
0.480414
0.478962
0.390261
0.412616
0.433102
0.448606
0.46032
0.469011
0.475445
0.480218
0.483741
0.486351
0.488265
0.489617
0.490538
0.49114
0.491478
0.491585
0.491492
0.491217
0.49077
0.490153
0.48937
0.488429
0.487335
0.486097
0.484722
0.483224
0.481633
0.479966
0.47841
0.476956
0.386952
0.40877
0.429497
0.445119
0.457013
0.465838
0.472383
0.477255
0.480867
0.483548
0.485528
0.486951
0.48794
0.488607
0.489005
0.489171
0.489134
0.488912
0.48851
0.487939
0.487198
0.486296
0.485236
0.484028
0.482682
0.481206
0.479635
0.477982
0.476431
0.474975
0.38381
0.405001
0.425938
0.441648
0.453713
0.462666
0.469323
0.474293
0.477992
0.480747
0.482795
0.484288
0.485346
0.486077
0.486538
0.486764
0.486782
0.486614
0.48626
0.485735
0.485036
0.484174
0.483152
0.481974
0.480659
0.479208
0.477658
0.476021
0.474476
0.473019
0.38084
0.40132
0.422431
0.438195
0.450421
0.459498
0.466265
0.471332
0.475118
0.477949
0.480066
0.48163
0.482757
0.483554
0.484078
0.484364
0.484438
0.484324
0.484019
0.48354
0.482886
0.482065
0.48108
0.479936
0.478654
0.47723
0.475703
0.474083
0.472545
0.471087
0.37805
0.397739
0.418983
0.434765
0.447142
0.456334
0.463211
0.468375
0.472248
0.475156
0.477342
0.478977
0.480174
0.481037
0.481625
0.481973
0.482103
0.482042
0.481788
0.481356
0.480746
0.479967
0.479022
0.477914
0.476666
0.475273
0.47377
0.472168
0.470639
0.469181
0.375444
0.394271
0.4156
0.431363
0.443877
0.453178
0.460162
0.465423
0.469382
0.472369
0.474625
0.476332
0.477599
0.478527
0.479181
0.47959
0.479778
0.47977
0.479568
0.479182
0.478617
0.477882
0.476978
0.475907
0.474696
0.473335
0.47186
0.470278
0.468758
0.467301
0.373026
0.390928
0.41229
0.427995
0.440629
0.45003
0.457119
0.462479
0.466523
0.469588
0.471916
0.473693
0.475032
0.476026
0.476745
0.477216
0.477462
0.477507
0.477357
0.47702
0.4765
0.47581
0.474949
0.473917
0.472744
0.471418
0.469972
0.468411
0.466902
0.465447
0.3708
0.387724
0.409059
0.424665
0.437401
0.446892
0.454084
0.459543
0.463672
0.466816
0.469216
0.471064
0.472473
0.473535
0.474319
0.474852
0.475157
0.475254
0.475157
0.474868
0.474395
0.47375
0.472934
0.471943
0.47081
0.469522
0.468106
0.466569
0.465072
0.463621
0.368768
0.38467
0.405914
0.421378
0.434194
0.443766
0.451058
0.456616
0.46083
0.464054
0.466526
0.468444
0.469924
0.471053
0.471903
0.472499
0.472861
0.473012
0.472966
0.472727
0.472302
0.471703
0.470933
0.469985
0.468894
0.467645
0.466262
0.464752
0.463268
0.461821
0.366933
0.381782
0.402861
0.418141
0.431012
0.440654
0.448041
0.453701
0.457998
0.461302
0.463848
0.465835
0.467387
0.468583
0.469498
0.470156
0.470576
0.470781
0.470787
0.470599
0.470221
0.469669
0.468946
0.468043
0.466995
0.465788
0.464441
0.46296
0.461492
0.460048
0.365295
0.37907
0.399907
0.41496
0.427858
0.437557
0.445036
0.450797
0.455179
0.458563
0.461183
0.46324
0.464862
0.466126
0.467105
0.467825
0.468301
0.46856
0.468619
0.468482
0.468152
0.467648
0.466972
0.466116
0.465113
0.463951
0.462641
0.461193
0.459742
0.458304
0.363856
0.376549
0.39706
0.411841
0.424734
0.434478
0.442042
0.447907
0.452372
0.455836
0.458531
0.460659
0.462352
0.463683
0.464725
0.465506
0.466039
0.466352
0.466463
0.466377
0.466096
0.465639
0.465012
0.464204
0.463247
0.462132
0.460863
0.459451
0.458022
0.456589
0.362613
0.37423
0.394326
0.408793
0.421645
0.43142
0.439061
0.44503
0.449579
0.453124
0.455894
0.458093
0.459856
0.461255
0.462359
0.4632
0.463789
0.464156
0.464319
0.464284
0.464051
0.463643
0.463064
0.462306
0.461396
0.46033
0.459107
0.457735
0.456332
0.454904
0.361566
0.372125
0.391713
0.405821
0.418592
0.428383
0.436094
0.442167
0.446799
0.450426
0.453272
0.455543
0.457376
0.458843
0.460008
0.460907
0.461552
0.461973
0.462187
0.462203
0.462018
0.461658
0.461128
0.460422
0.45956
0.458546
0.457372
0.456044
0.454672
0.453252
0.360713
0.370244
0.389229
0.402934
0.415582
0.425369
0.433142
0.439319
0.444034
0.447743
0.450665
0.45301
0.454912
0.456446
0.457671
0.458628
0.459329
0.459803
0.460067
0.460134
0.459998
0.459686
0.459205
0.45855
0.457739
0.456778
0.455658
0.454379
0.453044
0.451634
0.36005
0.368597
0.386883
0.400139
0.412619
0.422384
0.430207
0.436487
0.441283
0.445076
0.448075
0.450494
0.452466
0.454065
0.45535
0.456363
0.457119
0.457646
0.45796
0.458077
0.457989
0.457725
0.457292
0.456689
0.45593
0.455026
0.453965
0.452741
0.451448
0.450052
0.359574
0.367192
0.384683
0.397444
0.409709
0.419429
0.42729
0.433671
0.438548
0.442425
0.445503
0.447998
0.450037
0.451702
0.453045
0.454114
0.454924
0.455503
0.455865
0.456031
0.455991
0.455775
0.45539
0.454839
0.454134
0.453289
0.452292
0.451128
0.449886
0.448508
0.359281
0.366034
0.382636
0.394858
0.406856
0.41651
0.424394
0.430874
0.435829
0.439791
0.442949
0.44552
0.447627
0.449356
0.450758
0.451882
0.452744
0.453374
0.453784
0.453997
0.454005
0.453835
0.453497
0.452999
0.45235
0.451566
0.450637
0.449541
0.448359
0.447007
0.359166
0.365127
0.38075
0.39239
0.404068
0.413631
0.42152
0.428096
0.433126
0.437175
0.440416
0.443062
0.445237
0.447029
0.448488
0.449666
0.45058
0.451259
0.451716
0.451975
0.45203
0.451904
0.451615
0.451168
0.450577
0.449856
0.449
0.44798
0.446869
0.445554
0.359223
0.364468
0.379031
0.390049
0.40135
0.410797
0.41867
0.425337
0.430441
0.434577
0.437901
0.440625
0.442867
0.444721
0.446238
0.447467
0.448432
0.449158
0.449661
0.449965
0.450064
0.449983
0.449741
0.449346
0.448812
0.448156
0.447377
0.446443
0.445418
0.444153
0.359448
0.364055
0.377486
0.387844
0.398712
0.40801
0.41585
0.422599
0.427773
0.431998
0.435406
0.438207
0.440517
0.442432
0.444006
0.445285
0.4463
0.447072
0.44762
0.447965
0.448108
0.44807
0.447875
0.447531
0.447056
0.446466
0.445768
0.444929
0.444006
0.442812
0.359842
0.363879
0.37612
0.385785
0.396163
0.405278
0.413064
0.419885
0.425125
0.429437
0.432932
0.43581
0.438189
0.440164
0.441793
0.443121
0.444184
0.445
0.44559
0.445975
0.446162
0.446165
0.446016
0.445722
0.445305
0.444783
0.444169
0.443435
0.442634
0.441541
0.360405
0.363927
0.37494
0.383881
0.393711
0.402606
0.41032
0.417198
0.422499
0.426897
0.430478
0.433434
0.435882
0.437917
0.4396
0.440976
0.442084
0.442943
0.443573
0.443996
0.444224
0.444268
0.444164
0.443919
0.44356
0.443105
0.442577
0.441957
0.441301
0.44035
0.361094
0.364162
0.373947
0.382145
0.391367
0.400003
0.407626
0.414541
0.419896
0.424376
0.428044
0.431079
0.433595
0.435686
0.437422
0.438845
0.439997
0.440896
0.441565
0.442024
0.442292
0.442376
0.442315
0.442118
0.441815
0.441427
0.440987
0.44049
0.440004
0.439255
0.361803
0.36447
0.373075
0.380546
0.389114
0.39745
0.404968
0.411892
0.417291
0.421848
0.425602
0.428714
0.4313
0.43345
0.43524
0.436711
0.437906
0.438845
0.439553
0.440049
0.440356
0.440481
0.440462
0.440313
0.440064
0.439742
0.439389
0.439023
0.438734
0.438274
0.363239
0.365136
0.372426
0.379088
0.386932
0.394913
0.402309
0.409198
0.414625
0.419257
0.423108
0.426315
0.428985
0.431208
0.433059
0.434583
0.435824
0.436804
0.43755
0.438081
0.438424
0.438588
0.438608
0.438504
0.438305
0.438044
0.437773
0.437537
0.437469
0.437423
0.373626
0.372742
0.375606
0.378403
0.382656
0.388398
0.394756
0.401171
0.406626
0.411578
0.415858
0.419461
0.422453
0.42492
0.42695
0.428609
0.429953
0.431017
0.431835
0.432435
0.432846
0.433089
0.433194
0.433188
0.433107
0.432995
0.432928
0.433034
0.433609
0.43513
0.372646
0.370977
0.37267
0.372545
0.373412
0.376528
0.382196
0.387843
0.393362
0.398807
0.403663
0.407773
0.411151
0.413896
0.416125
0.417934
0.419397
0.420565
0.421481
0.422176
0.422683
0.423028
0.423241
0.423355
0.423411
0.423466
0.423617
0.424037
0.425113
0.427342
0.364151
0.365473
0.366249
0.364475
0.363233
0.364369
0.368228
0.373667
0.379708
0.385884
0.391481
0.396198
0.400011
0.403045
0.405459
0.40739
0.408939
0.410177
0.411157
0.411917
0.412492
0.412912
0.413207
0.413412
0.413569
0.413739
0.414019
0.414581
0.415813
0.418197
0.351051
0.354549
0.35525
0.353259
0.350915
0.350562
0.353238
0.358535
0.365291
0.372424
0.378961
0.384436
0.388786
0.392165
0.394789
0.396845
0.398474
0.399771
0.400801
0.401612
0.402241
0.402719
0.403079
0.403353
0.403583
0.403826
0.404173
0.404783
0.406012
0.408364
0.334729
0.339529
0.340824
0.339468
0.337022
0.336097
0.338306
0.343764
0.351232
0.359258
0.366658
0.372835
0.377685
0.381385
0.384197
0.38636
0.388051
0.389388
0.390452
0.391295
0.39196
0.39248
0.392883
0.393202
0.393476
0.393755
0.394123
0.394721
0.395866
0.398084
0.317308
0.322877
0.324999
0.324768
0.323157
0.322606
0.325007
0.330703
0.338569
0.347079
0.354974
0.361584
0.366765
0.370688
0.373635
0.375873
0.377602
0.378961
0.380041
0.380901
0.381586
0.382127
0.382553
0.382894
0.383185
0.383472
0.383828
0.384379
0.385407
0.387448
0.300368
0.306469
0.309481
0.310562
0.310359
0.310848
0.313795
0.319637
0.327489
0.335976
0.343914
0.350629
0.355937
0.359973
0.363
0.365286
0.367041
0.368413
0.3695
0.370368
0.37106
0.371609
0.372043
0.372389
0.372678
0.372952
0.373276
0.373763
0.374662
0.376511
0.284459
0.290995
0.294884
0.297247
0.298592
0.300363
0.303979
0.309878
0.317435
0.325546
0.333194
0.339759
0.345032
0.349096
0.35217
0.354496
0.356279
0.357669
0.358767
0.359642
0.360338
0.360889
0.361323
0.361663
0.36194
0.362191
0.362474
0.362891
0.363664
0.365318
0.26951
0.276381
0.281046
0.284527
0.287262
0.290249
0.294519
0.300447
0.307624
0.315222
0.32243
0.328716
0.333868
0.337917
0.341028
0.343404
0.345233
0.346659
0.347784
0.348675
0.349381
0.349937
0.350368
0.3507
0.35096
0.351183
0.351422
0.351769
0.35242
0.35388
0.255257
0.262345
0.267623
0.271991
0.27583
0.27981
0.284639
0.290604
0.297438
0.304542
0.311302
0.317287
0.322296
0.326324
0.32948
0.331929
0.333832
0.33532
0.336493
0.33742
0.33815
0.338717
0.339151
0.339477
0.339721
0.339919
0.340117
0.340397
0.340936
0.342208
0.241446
0.24864
0.254361
0.259379
0.264021
0.268736
0.273995
0.279996
0.286556
0.293252
0.299629
0.305349
0.310234
0.314251
0.317472
0.320017
0.32202
0.3236
0.324848
0.325833
0.326604
0.327198
0.327645
0.327972
0.328206
0.32838
0.328537
0.328753
0.329189
0.330278
0.22787
0.23509
0.241107
0.246579
0.251774
0.256998
0.262552
0.268565
0.274912
0.281291
0.287366
0.292874
0.297662
0.301686
0.304983
0.307642
0.309768
0.311462
0.31281
0.313876
0.314708
0.315346
0.315819
0.316159
0.316392
0.316549
0.316675
0.316836
0.31718
0.318094
0.214377
0.221569
0.227775
0.233555
0.23912
0.244673
0.250406
0.256404
0.262577
0.26871
0.27455
0.279892
0.284607
0.288648
0.292027
0.294805
0.297065
0.298889
0.300355
0.301521
0.302434
0.303133
0.303649
0.304013
0.304251
0.304397
0.304493
0.304603
0.304863
0.305607
0.200855
0.207986
0.214314
0.220298
0.226101
0.231854
0.237682
0.24364
0.249665
0.255599
0.261251
0.266459
0.271117
0.275174
0.27863
0.281524
0.283916
0.285876
0.287467
0.288744
0.289752
0.290526
0.2911
0.291503
0.291762
0.291911
0.29199
0.29206
0.292248
0.292831
0.187219
0.194275
0.200686
0.206804
0.212752
0.218618
0.224485
0.230387
0.236279
0.242045
0.247539
0.252633
0.257239
0.261306
0.264826
0.267821
0.270336
0.272426
0.274145
0.275539
0.276649
0.277509
0.278149
0.278598
0.278883
0.27904
0.279106
0.279138
0.279262
0.279684
0.173416
0.180394
0.186867
0.193072
0.199101
0.205023
0.210891
0.216726
0.222497
0.228115
0.23347
0.23846
0.243011
0.247075
0.25064
0.253717
0.256338
0.258543
0.260378
0.261884
0.263098
0.264049
0.264766
0.265275
0.265603
0.265781
0.265847
0.265855
0.265928
0.2662
0.159427
0.166324
0.172849
0.179107
0.185172
0.191108
0.196952
0.202715
0.208372
0.213856
0.219083
0.223973
0.228462
0.23251
0.236099
0.239234
0.241937
0.24424
0.24618
0.247789
0.249098
0.250134
0.250922
0.251488
0.251857
0.252057
0.252124
0.252108
0.252133
0.252248
0.145276
0.152081
0.158645
0.164922
0.170984
0.176902
0.182704
0.188392
0.193941
0.1993
0.204404
0.20919
0.213607
0.217619
0.221209
0.224375
0.227133
0.229506
0.231527
0.233222
0.234619
0.23574
0.236606
0.237236
0.237655
0.237888
0.237968
0.237942
0.23793
0.237906
0.131046
0.137722
0.144286
0.150542
0.15656
0.162432
0.168178
0.173786
0.179229
0.184466
0.189448
0.194128
0.198462
0.20242
0.205985
0.209156
0.211943
0.214364
0.216442
0.2182
0.219658
0.22084
0.221762
0.222443
0.222901
0.223158
0.223242
0.223198
0.223145
0.222961
0.116868
0.123341
0.12983
0.136
0.14193
0.147726
0.1534
0.158921
0.164254
0.169365
0.174219
0.178779
0.183012
0.186894
0.190407
0.19355
0.196331
0.198767
0.200879
0.202683
0.204196
0.205434
0.206411
0.207142
0.207644
0.207933
0.208032
0.207979
0.20789
0.207563
0.102915
0.109064
0.115355
0.121351
0.127134
0.132818
0.138397
0.143817
0.149034
0.154016
0.158735
0.163164
0.167279
0.171059
0.174496
0.177585
0.180334
0.182752
0.184856
0.186664
0.18819
0.189449
0.190451
0.191206
0.191727
0.192028
0.192124
0.192046
0.191901
0.191388
0.0893647
0.0950339
0.100961
0.106668
0.11223
0.117752
0.123202
0.128497
0.133577
0.138409
0.142973
0.147247
0.151216
0.154865
0.158186
0.161183
0.163863
0.166239
0.168322
0.170125
0.171657
0.172928
0.173948
0.174727
0.175271
0.175591
0.175692
0.175593
0.175386
0.174705
0.0763668
0.081384
0.0867604
0.0920419
0.0972927
0.102587
0.10786
0.113
0.117924
0.122592
0.126982
0.13108
0.134877
0.138366
0.141544
0.144412
0.146977
0.149251
0.151251
0.152991
0.154477
0.155716
0.156714
0.157476
0.15801
0.158322
0.158407
0.158262
0.157952
0.157027
0.0640181
0.0682271
0.0728749
0.077589
0.0824194
0.0873974
0.0924202
0.097341
0.102055
0.106513
0.110689
0.11457
0.11815
0.121429
0.124418
0.127125
0.129557
0.131724
0.133636
0.135303
0.136734
0.137935
0.138907
0.139653
0.14018
0.140492
0.140574
0.140394
0.139966
0.138817
0.0523602
0.0556522
0.0594293
0.0634398
0.067728
0.0722879
0.0769826
0.0816285
0.0860914
0.0903025
0.094229
0.0978557
0.10118
0.104205
0.106944
0.109409
0.11162
0.113592
0.115338
0.116867
0.118181
0.119285
0.12018
0.120865
0.121343
0.121622
0.121683
0.12145
0.120853
0.119374
0.0413887
0.0437268
0.0465494
0.0497394
0.0533476
0.0573437
0.0615657
0.0658067
0.0699134
0.0737956
0.0773993
0.0807006
0.083704
0.0864295
0.0888976
0.0911227
0.0931166
0.0948929
0.0964652
0.0978443
0.0990359
0.100041
0.100859
0.101485
0.101918
0.102173
0.10224
0.101995
0.101227
0.0994632
0.0310624
0.0324892
0.0343378
0.0366218
0.0394497
0.0427904
0.0464474
0.0501907
0.0538569
0.0573371
0.0605503
0.0634511
0.0660365
0.0683351
0.0703888
0.0722332
0.07389
0.0753704
0.0766821
0.0778325
0.0788266
0.0796653
0.0803464
0.080862
0.0812038
0.0813911
0.0814432
0.0812046
0.0802672
0.0781479
0.0213255
0.0219622
0.0228778
0.0241822
0.0260605
0.0285318
0.0313992
0.0344439
0.037506
0.0404476
0.0431581
0.0455838
0.0477245
0.0496098
0.0512779
0.0527609
0.0540807
0.0552537
0.0562925
0.0572054
0.0579965
0.0586662
0.0592129
0.0596284
0.0598932
0.0600172
0.060065
0.0599164
0.0589442
0.0566657
0.0120761
0.0120707
0.012132
0.0126647
0.0137766
0.0154118
0.0173849
0.0195812
0.021875
0.0240846
0.0260554
0.0277299
0.02914
0.030353
0.0314247
0.0323814
0.033233
0.0339876
0.0346544
0.03524
0.035746
0.0361715
0.036516
0.0367769
0.0369329
0.036964
0.0369432
0.0368918
0.0361261
0.0339042
0.00321953
0.00103337
-0.000129408
0.000353927
0.00111555
0.00202807
0.00303766
0.00427154
0.00567853
0.00707044
0.00828706
0.00926568
0.0100274
0.0106318
0.0111317
0.0115581
0.0119273
0.0122503
0.0125354
0.0127879
0.0130085
0.013195
0.0133458
0.0134629
0.0135382
0.0135323
0.0134534
0.0134631
0.013345
0.0119061
0.363045
0.360905
0.35189
0.337962
0.321968
0.305703
0.290107
0.275332
0.261225
0.247578
0.234219
0.221008
0.207841
0.194641
0.181341
0.167909
0.154338
0.140653
0.126931
0.113288
0.0998702
0.086841
0.0743396
0.0624589
0.0512431
0.0406848
0.0307225
0.0212787
0.0123194
0.00358525
0.362688
0.358707
0.349136
0.334704
0.318616
0.302487
0.287098
0.272525
0.258591
0.245095
0.231867
0.21877
0.205703
0.192594
0.179377
0.166022
0.152531
0.138932
0.125314
0.111798
0.0985333
0.0856805
0.0733708
0.0616878
0.0506672
0.0402944
0.0304955
0.0211811
0.0123289
0.0036733
0.362167
0.356108
0.345785
0.330945
0.314952
0.299098
0.283999
0.269672
0.255939
0.242604
0.229512
0.216532
0.203566
0.190549
0.177413
0.164136
0.150721
0.137205
0.123683
0.11028
0.0971501
0.084452
0.0723143
0.0608162
0.0499882
0.039809
0.0301896
0.0210245
0.0122875
0.00375003
0.361149
0.352987
0.34218
0.327105
0.311297
0.295752
0.280944
0.266862
0.253323
0.240148
0.227188
0.214323
0.201457
0.188529
0.175474
0.162273
0.148937
0.135506
0.122084
0.108803
0.0958162
0.0832792
0.0713164
0.0600012
0.049358
0.0393602
0.0299065
0.0208798
0.0122455
0.00381218
0.359748
0.34952
0.338447
0.323252
0.307671
0.292446
0.277929
0.264085
0.250738
0.23772
0.224892
0.212141
0.199372
0.18653
0.173555
0.160429
0.147172
0.133829
0.120512
0.107357
0.0945193
0.0821499
0.0703673
0.0592373
0.0487758
0.0389503
0.0296497
0.0207497
0.012207
0.00385917
0.357964
0.345808
0.33461
0.319395
0.304075
0.28918
0.27495
0.261341
0.248183
0.235321
0.222624
0.209985
0.197312
0.184555
0.171657
0.158606
0.145427
0.132175
0.118966
0.105942
0.0932581
0.081061
0.0694616
0.0585171
0.0482337
0.0385721
0.0294135
0.0206301
0.0121696
0.00389384
0.355746
0.341905
0.330684
0.31555
0.300514
0.285956
0.272008
0.258632
0.245661
0.232953
0.220384
0.207856
0.195277
0.182603
0.169781
0.156803
0.143704
0.130545
0.117448
0.10456
0.0920347
0.080014
0.0686
0.0578403
0.0477306
0.0382244
0.029197
0.0205199
0.0121331
0.00391875
0.353072
0.337869
0.32669
0.311731
0.296995
0.282775
0.269107
0.255957
0.243172
0.230616
0.218174
0.205754
0.193269
0.180675
0.167929
0.155023
0.142005
0.128941
0.115961
0.103213
0.0908505
0.07901
0.0677827
0.0572064
0.0472654
0.0379061
0.0289999
0.0204187
0.0120981
0.00393601
0.349945
0.333756
0.322647
0.307947
0.293522
0.279638
0.266245
0.253318
0.240715
0.22831
0.215993
0.20368
0.191287
0.178772
0.166099
0.153267
0.14033
0.127365
0.114506
0.101902
0.0897072
0.0780495
0.067009
0.0566137
0.0468359
0.0376151
0.0288206
0.0203259
0.0120651
0.00394732
0.346387
0.329611
0.318574
0.304205
0.2901
0.276545
0.263424
0.250715
0.238292
0.226035
0.213843
0.201635
0.189332
0.176894
0.164294
0.151535
0.138682
0.125819
0.113084
0.10063
0.0886063
0.0771331
0.0662783
0.0560606
0.0464401
0.0373496
0.0286578
0.0202408
0.012034
0.00395576
0.342441
0.325462
0.314491
0.300509
0.286731
0.273499
0.260643
0.248149
0.235902
0.223791
0.211722
0.199617
0.187402
0.175041
0.162513
0.149829
0.137062
0.124303
0.111698
0.099399
0.0875496
0.0762618
0.0655907
0.0555463
0.0460763
0.0371077
0.0285102
0.0201632
0.0120048
0.00395891
0.338165
0.321329
0.310421
0.296862
0.283417
0.270499
0.257904
0.24562
0.233547
0.22158
0.209632
0.197628
0.185499
0.173212
0.160757
0.148149
0.13547
0.122821
0.110351
0.0982105
0.0865383
0.0754362
0.0649464
0.05507
0.0457433
0.0368882
0.0283766
0.0200924
0.0119775
0.00395916
0.333629
0.317223
0.306382
0.293266
0.280161
0.267546
0.255206
0.243128
0.231227
0.219402
0.207572
0.195666
0.183622
0.17141
0.159027
0.146497
0.133909
0.121374
0.109042
0.097066
0.0855733
0.0746567
0.064345
0.0546306
0.0454396
0.0366895
0.0282559
0.0200278
0.0119519
0.0039573
0.328907
0.31315
0.302392
0.289723
0.276962
0.264642
0.252551
0.240676
0.228942
0.217258
0.205543
0.193733
0.181772
0.169633
0.157322
0.144872
0.132379
0.119962
0.107775
0.0959661
0.0846546
0.0739226
0.0637853
0.0542263
0.0451631
0.0365095
0.0281464
0.0199686
0.0119276
0.00395411
0.324071
0.309113
0.298465
0.286237
0.27382
0.261787
0.24994
0.238263
0.226694
0.215146
0.203545
0.191828
0.179948
0.167883
0.155644
0.143275
0.130881
0.118588
0.10655
0.0949112
0.0837817
0.0732326
0.0632654
0.0538546
0.0449111
0.0363459
0.0280465
0.019914
0.0119045
0.00395018
0.319188
0.305117
0.294609
0.282809
0.270736
0.258981
0.247371
0.235889
0.224482
0.213068
0.201577
0.189953
0.178152
0.166158
0.153992
0.141708
0.129417
0.117253
0.105367
0.0939013
0.0829541
0.0725853
0.0627832
0.0535129
0.044681
0.0361967
0.027955
0.0198633
0.0118824
0.00394582
0.314316
0.301166
0.290833
0.279442
0.267709
0.256223
0.244845
0.233555
0.222305
0.211022
0.19964
0.188105
0.176382
0.164459
0.152368
0.140171
0.127988
0.115957
0.104228
0.0929369
0.0821713
0.0719793
0.0623365
0.0531987
0.0444707
0.0360601
0.0278707
0.0198161
0.0118612
0.00394129
0.3095
0.297266
0.287141
0.276136
0.264737
0.253514
0.242362
0.231258
0.220164
0.209009
0.197733
0.186286
0.174638
0.162788
0.150772
0.138667
0.126596
0.114702
0.103133
0.0920186
0.0814333
0.0714135
0.0619235
0.0529102
0.0442783
0.0359349
0.027793
0.019772
0.0118409
0.00393679
0.304778
0.293422
0.283534
0.272894
0.261822
0.250854
0.23992
0.229
0.218057
0.207027
0.195855
0.184494
0.172921
0.161143
0.149205