/*--------------------------------*- C++ -*----------------------------------*\
  =========                 |
  \\      /  F ield         | OpenFOAM: The Open Source CFD Toolbox
   \\    /   O peration     | Website:  https://openfoam.org
    \\  /    A nd           | Version:  7
     \\/     M anipulation  |
\*---------------------------------------------------------------------------*/
FoamFile
{
    version     2.0;
    format      ascii;
    class       volVectorField;
    location    "9.4";
    object      U;
}
// * * * * * * * * * * * * * * * * * * * * * * * * * * * * * * * * * * * * * //

dimensions      [0 1 -1 0 0 0 0];

internalField   nonuniform List<vector> 
18000
(
(0.000455976 -0.00910333 3.79361e-21)
(0.00267668 -0.0197745 0)
(0.00685096 -0.0235196 0)
(0.0122097 -0.0218116 0)
(0.0186418 -0.0156955 -1.26061e-21)
(0.0259805 -0.00596254 6.37941e-21)
(0.0341082 0.00676131 -1.29182e-21)
(0.0429331 0.0219767 1.30068e-21)
(0.0523754 0.039279 0)
(0.0623617 0.0583306 -3.93472e-21)
(0.0728213 0.078842 -1.31632e-21)
(0.0836817 0.100555 0)
(0.0948645 0.123228 2.62465e-21)
(0.106284 0.146632 2.63168e-21)
(0.117848 0.170537 -5.25284e-21)
(0.129458 0.194716 -5.24421e-21)
(0.141007 0.21894 0)
(0.152387 0.242981 -7.8549e-21)
(0.163489 0.266613 2.60864e-21)
(0.174204 0.289621 -7.83772e-21)
(0.184431 0.3118 2.60233e-21)
(0.194077 0.332966 0)
(0.203061 0.352954 -2.57902e-21)
(0.211317 0.371629 -2.60005e-21)
(0.218794 0.388883 0)
(0.225459 0.404636 0)
(0.231294 0.418835 -5.21614e-21)
(0.236309 0.431441 -5.22089e-21)
(0.240522 0.442404 -5.28335e-21)
(0.243852 0.451539 5.59712e-21)
(0.000709421 -0.00959102 5.40755e-21)
(0.0031701 -0.0211023 9.43569e-21)
(0.00729203 -0.0256079 -9.67311e-21)
(0.0123616 -0.0246105 -9.87707e-21)
(0.0183055 -0.0191739 -2.51606e-21)
(0.0249925 -0.0101005 7.62938e-21)
(0.0323355 0.00197597 -1.02935e-20)
(0.0402666 0.0165533 -1.03748e-20)
(0.0487258 0.0332282 1.04327e-20)
(0.0576577 0.0516656 1.04744e-20)
(0.0670086 0.0715817 -5.24073e-21)
(0.0767205 0.0927261 -1.04974e-20)
(0.0867315 0.114868 -5.26435e-21)
(0.0969737 0.137789 1.04809e-20)
(0.107372 0.161272 -1.04615e-20)
(0.117843 0.185103 1.04673e-20)
(0.1283 0.209065 -2.08912e-20)
(0.13865 0.232941 1.56254e-20)
(0.148799 0.256516 -1.03796e-20)
(0.158653 0.279577 5.21262e-21)
(0.16812 0.301925 -1.03488e-20)
(0.177114 0.323373 0)
(0.18556 0.343753 5.29342e-21)
(0.193393 0.362921 -1.03183e-20)
(0.200559 0.380756 1.03294e-20)
(0.20702 0.397166 0)
(0.212756 0.412081 -5.12089e-21)
(0.217767 0.42544 5.11122e-21)
(0.222045 0.437168 2.06861e-20)
(0.225466 0.447043 1.11088e-20)
(0.000987948 -0.0100824 -8.65894e-21)
(0.00372433 -0.0223954 -9.43548e-21)
(0.00781601 -0.0276033 1.45106e-20)
(0.0126162 -0.0272666 2.46688e-20)
(0.0180963 -0.0224694 0)
(0.0241619 -0.0140264 -1.0185e-20)
(0.0307547 -0.00257487 1.02933e-20)
(0.0378331 0.0113806 3.10759e-20)
(0.0453568 0.027437 -1.04326e-20)
(0.0532853 0.0452633 -1.04702e-20)
(0.0615797 0.064581 3.14123e-20)
(0.070197 0.0851471 1.04974e-20)
(0.0790884 0.10674 0)
(0.0881996 0.129151 -2.09556e-20)
(0.0974701 0.152176 3.1281e-20)
(0.106833 0.175612 -1.03946e-20)
(0.116216 0.199255 1.04207e-20)
(0.125542 0.222899 1.04014e-20)
(0.13473 0.246337 5.62887e-23)
(0.1437 0.269367 0)
(0.152369 0.291792 3.10626e-20)
(0.160663 0.313426 -2.05257e-20)
(0.168511 0.3341 1.03323e-20)
(0.17585 0.353664 0)
(0.182628 0.371989 -1.03295e-20)
(0.188806 0.38897 4.11809e-20)
(0.194358 0.404521 -3.0625e-20)
(0.199283 0.418564 -1.0343e-20)
(0.203545 0.430999 1.0153e-20)
(0.206982 0.441574 1.11578e-20)
(0.00128843 -0.0105286 0)
(0.00432429 -0.0235777 4.7125e-21)
(0.00839689 -0.0294455 8.59138e-24)
(0.0129427 -0.0297336 -2.4643e-20)
(0.0179751 -0.0255475 0)
(0.0234409 -0.0177143 -2.02889e-20)
(0.029314 -0.00687339 0)
(0.0355756 0.00646939 -3.10428e-20)
(0.0422045 0.0219114 1.03901e-20)
(0.0491767 0.0391261 -2.08295e-20)
(0.0564663 0.0578407 -2.09215e-20)
(0.0640412 0.0778184 -1.04558e-20)
(0.0718645 0.098846 1.04353e-20)
(0.0798942 0.120724 1.03798e-20)
(0.0880822 0.143259 -1.04542e-20)
(0.0963744 0.166261 -2.07115e-20)
(0.104711 0.189535 2.06667e-20)
(0.113029 0.212886 0)
(0.121261 0.23612 0)
(0.129338 0.25904 0)
(0.137189 0.281457 0)
(0.144748 0.303188 0)
(0.151952 0.324063 0)
(0.158742 0.34393 -2.03587e-20)
(0.165069 0.362652 -2.0519e-20)
(0.170893 0.380115 -1.86888e-22)
(0.176187 0.39622 -2.05411e-20)
(0.180951 0.410872 -4.49142e-22)
(0.185122 0.423949 -2.09564e-20)
(0.188502 0.435171 4.36989e-20)
(0.00160721 -0.0109528 0)
(0.00496187 -0.0246819 4.22984e-20)
(0.00902151 -0.0311551 7.76589e-24)
(0.0133171 -0.0320257 -1.47569e-20)
(0.0179113 -0.0284191 4.99624e-20)
(0.0227934 -0.0211716 3.04271e-20)
(0.0279686 -0.0109265 3.06737e-20)
(0.0334428 0.00181201 0)
(0.0392143 0.0166443 0)
(0.0452727 0.0332476 3.12334e-20)
(0.0516038 0.0513544 6.842e-24)
(0.0581865 0.0707346 -7.2879e-20)
(0.0649935 0.091183 6.23819e-20)
(0.0719924 0.112509 -2.08168e-20)
(0.0791452 0.134528 2.06378e-20)
(0.0864086 0.15706 2.06582e-20)
(0.0937345 0.179922 -2.05718e-20)
(0.101071 0.202929 2.06057e-20)
(0.108362 0.225897 4.10109e-20)
(0.11555 0.248639 -2.03888e-20)
(0.122576 0.27097 -4.06856e-20)
(0.12938 0.292715 4.05925e-20)
(0.135909 0.313704 -4.05132e-20)
(0.142109 0.333783 2.0359e-20)
(0.147934 0.352812 0)
(0.153345 0.370669 0)
(0.158319 0.387243 3.68028e-22)
(0.162855 0.402427 -8.05584e-20)
(0.166866 0.416076 4.02816e-20)
(0.170124 0.427888 -4.39095e-20)
(0.00194137 -0.0113382 0)
(0.00562486 -0.0256774 -3.75919e-20)
(0.0096683 -0.0327054 3.84636e-20)
(0.013713 -0.0341198 0)
(0.0178717 -0.0310651 -7.98629e-20)
(0.0221789 -0.024386 -1.01174e-20)
(0.0266739 -0.0147259 -2.04764e-20)
(0.0313862 -0.00258615 -1.02885e-20)
(0.0363319 0.0116365 0)
(0.041515 0.0276249 -2.07534e-20)
(0.0469321 0.0451177 2.07735e-20)
(0.0525706 0.0638911 4.16159e-20)
(0.0584111 0.0837466 -4.15745e-20)
(0.0644298 0.104502 0)
(0.0705968 0.125981 -4.1398e-20)
(0.0768772 0.148013 4.11382e-20)
(0.0832326 0.170426 4.11571e-20)
(0.0896208 0.193044 6.1384e-20)
(0.0959963 0.215693 -6.12708e-20)
(0.102311 0.238194 8.14154e-20)
(0.108515 0.260371 4.07085e-20)
(0.114559 0.282054 -4.0593e-20)
(0.120396 0.303075 8.07945e-20)
(0.125978 0.323282 0)
(0.131265 0.342532 4.01319e-20)
(0.136219 0.360696 8.04833e-20)
(0.140822 0.377657 -3.96798e-20)
(0.145074 0.393293 4.03051e-20)
(0.148866 0.407443 4.07035e-23)
(0.151941 0.419787 -4.35683e-20)
(0.00228643 -0.0116835 -4.30783e-21)
(0.00630168 -0.0265612 0)
(0.0103195 -0.0340904 -4.80778e-20)
(0.0141048 -0.0360101 9.79749e-21)
(0.0178253 -0.0334824 2.99263e-20)
(0.0215629 -0.0273555 1.00901e-20)
(0.0253904 -0.0182722 4.07345e-20)
(0.0293615 -0.00672978 0)
(0.03351 0.00688112 2.06392e-20)
(0.0378535 0.0222497 2.06501e-20)
(0.0423975 0.0391206 -2.07288e-20)
(0.0471373 0.0572764 6.21065e-20)
(0.0520605 0.0765258 0)
(0.0571493 0.0966933 0)
(0.0623803 0.117612 6.17575e-20)
(0.0677259 0.139118 -1.02657e-19)
(0.0731554 0.161048 4.08631e-20)
(0.0786349 0.183238 -4.08673e-20)
(0.0841271 0.205521 -4.05713e-20)
(0.0895926 0.227727 -1.21659e-19)
(0.0949905 0.249689 -2.08908e-22)
(0.10028 0.271241 4.01777e-20)
(0.105419 0.292221 -8.035e-20)
(0.11037 0.312477 3.99726e-20)
(0.115094 0.331866 -2.43145e-22)
(0.119561 0.350256 -4.00765e-20)
(0.123753 0.367522 4.00307e-20)
(0.127677 0.383533 0)
(0.131199 0.398111 3.96476e-20)
(0.134042 0.410925 5.59129e-22)
(0.00263801 -0.0119821 -8.60708e-21)
(0.00697935 -0.0273206 9.37298e-21)
(0.0109551 -0.0352978 -5.75427e-20)
(0.0144675 -0.0376861 -2.93371e-20)
(0.0177428 -0.0356619 3.97522e-20)
(0.0209115 -0.0300753 -6.04122e-20)
(0.0240812 -0.0215647 -2.03924e-20)
(0.0273292 -0.0106206 -4.09383e-20)
(0.0307066 0.0023737 4.11331e-20)
(0.0342432 0.0171145 -8.25932e-20)
(0.0379531 0.0333533 -4.12948e-20)
(0.041838 0.0508796 -1.04584e-22)
(0.045891 0.0695088 2.06515e-20)
(0.0500994 0.089072 -6.1725e-20)
(0.0544448 0.109409 -8.21581e-20)
(0.0589055 0.130365 1.25973e-23)
(0.0634568 0.151785 -1.19287e-22)
(0.0680712 0.173512 4.05803e-20)
(0.0727185 0.195388 4.05719e-20)
(0.0773667 0.217253 -2.30917e-23)
(0.0819828 0.238945 -2.24384e-22)
(0.0865326 0.260305 3.97858e-20)
(0.0909821 0.281177 4.00693e-20)
(0.0952982 0.301411 4.91829e-23)
(0.0994494 0.320865 -1.19449e-19)
(0.103409 0.339403 7.91092e-20)
(0.107164 0.356895 7.96219e-20)
(0.110726 0.373206 -7.87586e-20)
(0.11394 0.388142 -3.96483e-20)
(0.116509 0.401365 -4.32233e-20)
(0.00299081 -0.0122277 -7.73609e-20)
(0.00764441 -0.0279452 -9.36061e-21)
(0.0115553 -0.0363162 4.79297e-20)
(0.0147766 -0.0391378 3.91193e-20)
(0.017596 -0.0375974 -3.9752e-20)
(0.0201942 -0.0325418 4.02592e-20)
(0.0227137 -0.0246026 -2.03062e-20)
(0.0252549 -0.0142611 6.13844e-20)
(0.0278854 -0.00189155 -4.11332e-20)
(0.0306462 0.012211 4.1248e-20)
(0.0335591 0.0278054 2.06689e-20)
(0.0366313 0.0446885 -2.06714e-20)
(0.0398602 0.0626821 -1.23457e-19)
(0.0432369 0.081624 8.22059e-20)
(0.0467472 0.101361 4.10211e-20)
(0.0503737 0.121745 0)
(0.0540963 0.142629 0)
(0.0578925 0.163863 -2.53576e-22)
(0.0617378 0.185296 -4.03083e-20)
(0.0656068 0.206777 0)
(0.0694726 0.228152 0)
(0.0733074 0.249266 -4e-20)
(0.0770835 0.269971 0)
(0.0807739 0.290119 -7.91678e-20)
(0.0843523 0.309568 0)
(0.0877963 0.328183 -3.95834e-20)
(0.0910995 0.345831 7.91278e-20)
(0.0942772 0.362369 -7.82698e-20)
(0.0971543 0.377595 0)
(0.0994169 0.391169 0)
(0.00333924 -0.0124145 6.87613e-20)
(0.00828288 -0.0284245 0)
(0.0121004 -0.037135 -9.5714e-21)
(0.0150086 -0.0403567 9.75339e-21)
(0.017359 -0.0392826 -5.94021e-20)
(0.0193838 -0.0347519 5.16701e-24)
(0.0212595 -0.0273859 -2.02632e-20)
(0.0231094 -0.0176544 0)
(0.0250164 -0.00592021 0)
(0.0270317 0.00753099 -2.05557e-20)
(0.0291837 0.0224666 2.05757e-20)
(0.0314843 0.0386909 -4.11513e-20)
(0.0339341 0.0560326 4.12565e-20)
(0.0365274 0.0743359 0)
(0.0392529 0.0934542 0)
(0.0420962 0.113245 0)
(0.0450408 0.133569 4.04101e-20)
(0.048068 0.154282 -1.03783e-22)
(0.051158 0.175241 4.04276e-20)
(0.0542903 0.196302 -8.00334e-20)
(0.0574434 0.217317 4.00228e-20)
(0.060595 0.23814 -1.98835e-19)
(0.063723 0.258624 -9.87303e-23)
(0.0668056 0.278628 7.91693e-20)
(0.0698219 0.298011 -4.66775e-22)
(0.0727538 0.316638 7.82408e-20)
(0.0756003 0.334374 -7.81573e-20)
(0.0783815 0.351075 -7.85028e-20)
(0.0809033 0.366528 -1.16804e-22)
(0.0828363 0.380396 -8.45805e-20)
(0.00367698 -0.0125361 -8.58428e-21)
(0.00888009 -0.0287484 0)
(0.0125708 -0.0377447 1.91151e-20)
(0.0151412 -0.041335 -1.94786e-20)
(0.0170085 -0.0407123 1.78119e-19)
(0.0184564 -0.0367033 2.92675e-24)
(0.019695 -0.0299151 -2.02255e-20)
(0.0208693 -0.0208032 2.03637e-20)
(0.0220762 -0.00971758 -1.02211e-19)
(0.0233762 0.00306706 0)
(0.0248031 0.0173274 0)
(0.0263726 0.0328759 -4.09619e-20)
(0.0280881 0.0495481 4.1093e-20)
(0.0299457 0.0671947 -4.09222e-20)
(0.0319363 0.085675 4.07482e-20)
(0.0340477 0.104853 0)
(0.0362658 0.124593 -1.61884e-19)
(0.0385749 0.144761 8.05141e-20)
(0.0409588 0.165218 4.02081e-20)
(0.0434008 0.185826 1.19978e-19)
(0.0458837 0.206445 0)
(0.0483899 0.226933 7.94053e-20)
(0.050902 0.247151 7.87483e-20)
(0.053403 0.26696 7.84471e-20)
(0.0558766 0.286223 -3.02249e-22)
(0.058309 0.304804 -7.8042e-20)
(0.0607043 0.322567 7.81588e-20)
(0.0630866 0.339371 0)
(0.0652443 0.354994 -1.11653e-22)
(0.066833 0.369107 1.6893e-19)
(0.0039973 -0.012587 -6.85951e-20)
(0.00942106 -0.0289081 0)
(0.0129473 -0.0381366 -7.62907e-20)
(0.0151536 -0.0420662 -9.72141e-20)
(0.0165234 -0.0418826 -5.93413e-20)
(0.0173919 -0.0383945 2.00011e-20)
(0.0180012 -0.032191 -1.21739e-24)
(0.0185167 -0.0237105 -2.0327e-20)
(0.0190479 -0.0132884 1.55447e-22)
(0.0196633 -0.00118728 4.0945e-20)
(0.0204014 0.0123799 4.09122e-20)
(0.0212808 0.0272342 -4.0829e-20)
(0.0223064 0.0432183 4.09035e-20)
(0.023476 0.0601893 -1.22407e-19)
(0.0247816 0.0780122 1.21984e-19)
(0.0262126 0.0965565 8.10221e-20)
(0.0277564 0.115693 2.01989e-19)
(0.0293995 0.135291 -4.03201e-20)
(0.0311283 0.155219 -8.00064e-20)
(0.0329291 0.175346 -1.73568e-22)
(0.034788 0.195536 -7.95853e-20)
(0.0366914 0.215654 2.37109e-19)
(0.0386258 0.235565 -1.5772e-19)
(0.0405783 0.255134 1.5654e-19)
(0.0425364 0.274227 -7.82981e-20)
(0.0444903 0.29271 1.55808e-19)
(0.0464484 0.310448 4.43606e-22)
(0.0484382 0.327301 -1.54804e-19)
(0.0502319 0.343044 1.5383e-19)
(0.0514693 0.357356 8.40518e-20)
(0.00429296 -0.0125621 6.85949e-20)
(0.00989053 -0.028896 0)
(0.0132113 -0.038304 1.71543e-19)
(0.0150268 -0.0425452 5.83343e-20)
(0.0158858 -0.0427905 0)
(0.0161741 -0.0398247 0)
(0.0161639 -0.0342143 0)
(0.0160394 -0.0263785 0)
(0.0159212 -0.0166364 4.08385e-20)
(0.0158842 -0.0052369 4.08705e-20)
(0.0159707 0.00761823 -8.18982e-20)
(0.0162014 0.0217589 8.18733e-20)
(0.0165823 0.0370356 1.22481e-19)
(0.0171116 0.0533113 4.0836e-20)
(0.0177824 0.0704571 4.05263e-20)
(0.0185846 0.0883476 -1.21468e-19)
(0.0195068 0.106858 -1.61273e-19)
(0.020537 0.125865 -8.03587e-20)
(0.0216632 0.145241 8.00081e-20)
(0.0228741 0.16486 -1.59401e-19)
(0.0241584 0.184592 7.90586e-20)
(0.0255055 0.204307 -1.58062e-19)
(0.0269052 0.223875 7.84729e-20)
(0.0283477 0.243164 2.85685e-22)
(0.0298241 0.262045 -7.76827e-20)
(0.0313276 0.280385 -1.55682e-19)
(0.0328703 0.298051 1.54589e-19)
(0.0344814 0.314906 0)
(0.0359188 0.330724 1.29128e-22)
(0.0368052 0.345196 -1.67961e-19)
(0.00455637 -0.0124569 8.56502e-21)
(0.0102733 -0.0287058 0)
(0.0133454 -0.0382415 -7.61913e-20)
(0.0147436 -0.0427687 1.93961e-20)
(0.0150806 -0.0434345 -1.96948e-20)
(0.0147907 -0.0409935 0)
(0.014174 -0.035986 -2.0116e-20)
(0.0134312 -0.0288092 2.02548e-20)
(0.0126921 -0.0197641 4.06891e-20)
(0.012037 -0.00908482 -1.22332e-19)
(0.0115109 0.00303882 -4.08505e-20)
(0.0111356 0.0164462 -1.91435e-23)
(0.0109175 0.0309953 -5.79439e-23)
(0.0108551 0.046556 -8.13806e-20)
(0.0109415 0.0630047 -4.06495e-20)
(0.0111671 0.0802212 0)
(0.0115209 0.0980861 -4.58728e-23)
(0.0119919 0.11648 8.02362e-20)
(0.0125693 0.135281 -7.9695e-20)
(0.0132432 0.154367 0)
(0.0140046 0.173614 0)
(0.014845 0.192897 0)
(0.0157568 0.212089 0)
(0.0167327 0.231065 -1.44572e-22)
(0.0177666 0.249695 0)
(0.0188538 0.267852 0)
(0.0200089 0.285406 7.70448e-20)
(0.021262 0.302224 7.67418e-20)
(0.0223574 0.318081 7.68141e-20)
(0.0228987 0.33268 1.64411e-22)
(0.0047797 -0.012268 8.55895e-21)
(0.0105543 -0.0283332 -1.85829e-20)
(0.0133333 -0.037946 1.14014e-19)
(0.0142893 -0.0427351 -1.93702e-20)
(0.0140962 -0.0438143 1.96617e-20)
(0.0132337 -0.0419017 -3.40299e-24)
(0.0120271 -0.0375072 6.01825e-20)
(0.0106909 -0.0310038 -8.08089e-20)
(0.00936272 -0.0226726 1.21804e-19)
(0.00812657 -0.0127319 6.21919e-23)
(0.00702883 -0.001359 -4.07277e-20)
(0.00609187 0.0112953 8.14978e-20)
(0.00532201 0.025097 -8.14e-20)
(0.0047173 0.0399227 8.12269e-20)
(0.00427065 0.0556546 0)
(0.00397226 0.0721771 8.07123e-20)
(0.00381154 0.0893759 0)
(0.00377779 0.107136 7.25413e-23)
(0.00386098 0.12534 -7.97069e-20)
(0.00405226 0.14387 -7.93456e-20)
(0.00434413 0.162608 7.8981e-20)
(0.00472992 0.181431 -7.86176e-20)
(0.00520361 0.20022 -7.82588e-20)
(0.00576014 0.21885 -1.55914e-19)
(0.00639499 0.237198 -7.75611e-20)
(0.00710502 0.255138 7.75301e-20)
(0.00790575 0.272544 -1.53751e-19)
(0.0088266 0.289292 -7.67435e-20)
(0.0095999 0.305157 0)
(0.00980741 0.319856 -8.39289e-20)
(0.00495508 -0.011993 0)
(0.0107192 -0.0277761 7.42115e-20)
(0.0131601 -0.0374165 -5.70107e-20)
(0.0136517 -0.0424448 -9.66449e-20)
(0.0129242 -0.0439311 0)
(0.0114992 -0.0425505 0)
(0.00972359 -0.0387789 -1.20367e-19)
(0.00782332 -0.0329625 1.61493e-19)
(0.00594129 -0.0253612 -1.21678e-19)
(0.00416403 -0.0161765 0)
(0.00253829 -0.00557281 4.07713e-20)
(0.00108615 0.00630945 -4.07871e-20)
(-0.000186706 0.0193446 8.97577e-23)
(-0.00128301 0.033416 -4.07007e-20)
(-0.00221046 0.0484113 -4.04766e-20)
(-0.00297919 0.0642204 -6.04212e-23)
(-0.00359991 0.0807334 8.03472e-20)
(-0.00408328 0.0978392 8.00616e-20)
(-0.00443894 0.115425 -1.14493e-22)
(-0.0046749 0.133378 1.58525e-19)
(-0.00479764 0.151583 -1.58114e-19)
(-0.00481269 0.169922 1.57033e-19)
(-0.00472479 0.18828 7.82608e-20)
(-0.00453768 0.206537 7.79084e-20)
(-0.00425484 0.224573 7.25585e-23)
(-0.0038791 0.242266 0)
(-0.00339551 0.259496 7.70763e-20)
(-0.00277674 0.276144 -2.29702e-19)
(-0.00230097 0.291994 7.50816e-20)
(-0.00241186 0.306773 8.32735e-20)
(0.00507476 -0.0116306 -5.12519e-20)
(0.0107546 -0.0270344 -1.66872e-19)
(0.0128131 -0.0366548 1.01842e-23)
(0.0128214 -0.0419004 1.25027e-22)
(0.01156 -0.0437877 -5.87382e-20)
(0.00958765 -0.0429421 0)
(0.00726891 -0.039802 -3.99731e-20)
(0.00483814 -0.0346846 -2.41851e-19)
(0.0024416 -0.0278275 1.21554e-19)
(0.000166651 -0.0194145 -8.11769e-20)
(-0.00194058 -0.00959673 1.21983e-19)
(-0.00385904 0.00149601 -4.06632e-20)
(-0.00558414 0.0137466 8.13137e-20)
(-0.00711974 0.0270453 -2.02827e-19)
(-0.00847446 0.0412857 1.21344e-19)
(-0.009659 0.0563625 6.86536e-23)
(-0.0106844 0.0721705 -2.40903e-19)
(-0.0115616 0.0886025 8.01291e-20)
(-0.0123 0.10555 -7.95288e-20)
(-0.012907 0.122904 0)
(-0.0133885 0.140554 7.89391e-20)
(-0.0137492 0.158386 0)
(-0.0139931 0.176289 -7.84003e-20)
(-0.0141233 0.194148 7.76296e-20)
(-0.0141429 0.211846 7.74923e-20)
(-0.0140557 0.229265 7.70927e-20)
(-0.0138488 0.246293 0)
(-0.0134984 0.26282 0)
(-0.013292 0.278635 -1.52571e-19)
(-0.0137023 0.293477 2.50779e-19)
(0.0051313 -0.0111812 5.12827e-20)
(0.010648 -0.0261107 9.26616e-20)
(0.0122817 -0.035665 -7.56812e-20)
(0.0117921 -0.0411067 1.54254e-19)
(0.0100027 -0.0433882 1.96946e-20)
(0.00750377 -0.0430793 1.97965e-20)
(0.00467307 -0.0405771 1.25438e-22)
(0.00175029 -0.0361684 -8.03678e-20)
(-0.00111714 -0.0300669 -4.03827e-20)
(-0.00384263 -0.0224388 1.06889e-22)
(-0.00638165 -0.0134213 -9.39368e-23)
(-0.00871488 -0.00313325 -1.21892e-19)
(-0.0108393 0.00831683 -4.05943e-20)
(-0.0127601 0.0208262 5.08779e-23)
(-0.0144872 0.0342945 8.08408e-20)
(-0.0160318 0.0486214 8.0595e-20)
(-0.0174058 0.0637062 9.07967e-24)
(-0.0186203 0.0794457 -8.00023e-20)
(-0.0196847 0.0957355 7.98057e-20)
(-0.020606 0.11247 -7.91604e-20)
(-0.0213896 0.129544 -1.57906e-19)
(-0.02204 0.146847 -7.87655e-20)
(-0.0225608 0.164272 1.56246e-19)
(-0.0229548 0.181708 0)
(-0.0232257 0.199044 -7.74736e-20)
(-0.0233792 0.216167 -1.54187e-19)
(-0.0234061 0.232971 -1.53873e-19)
(-0.0232879 0.249356 7.58798e-20)
(-0.0233194 0.265123 -2.28243e-19)
(-0.0240071 0.280016 8.33304e-20)
(0.00511777 -0.0106464 -8.5271e-20)
(0.0103889 -0.0250102 1.85183e-20)
(0.0115581 -0.0344537 7.56822e-20)
(0.0105608 -0.0400704 -5.78211e-20)
(0.00825548 -0.0427383 1.96042e-20)
(0.00525656 -0.0429653 9.78295e-24)
(0.00195071 -0.0411047 1.99537e-19)
(-0.00142044 -0.0374107 8.04293e-20)
(-0.00471062 -0.032073 8.08206e-20)
(-0.00783554 -0.0252393 1.21599e-19)
(-0.0107532 -0.0170331 -1.21772e-19)
(-0.0134468 -0.00756197 8.12355e-20)
(-0.0159151 0.00307437 1.62385e-19)
(-0.0181651 0.0147803 8.10874e-20)
(-0.0202079 0.0274614 7.68501e-23)
(-0.0220558 0.0410227 -1.61095e-19)
(-0.0237214 0.0553675 1.60752e-19)
(-0.0252161 0.0703967 1.15949e-22)
(-0.0265492 0.0860102 -7.98365e-20)
(-0.0277277 0.102107 7.9191e-20)
(-0.0287567 0.118583 7.89671e-20)
(-0.0296406 0.135336 -7.86555e-20)
(-0.0303829 0.152261 -1.56675e-19)
(-0.0309866 0.169252 -4.02154e-22)
(-0.0314567 0.186203 7.72384e-20)
(-0.0318019 0.203007 7.70943e-20)
(-0.0320183 0.219567 1.53868e-19)
(-0.0320937 0.235794 -1.52207e-19)
(-0.0323294 0.251503 0)
(-0.0332698 0.266439 8.39126e-20)
(0.00502796 -0.0100293 7.0466e-23)
(0.00996856 -0.0237407 0)
(0.010637 -0.0330305 -5.65796e-20)
(0.00912824 -0.0388006 -1.92288e-20)
(0.0063252 -0.0418449 -7.79527e-20)
(0.00285932 -0.0426041 0)
(-0.000879022 -0.0413847 -1.19593e-19)
(-0.00464964 -0.0384074 4.0119e-20)
(-0.0083097 -0.0338371 0)
(-0.0117788 -0.0278031 -8.08707e-20)
(-0.0150185 -0.0204148 0)
(-0.0180147 -0.0117688 -1.21692e-19)
(-0.020769 -0.00195575 1.21588e-19)
(-0.0232899 0.00893579 -8.10023e-20)
(-0.0255901 0.0208176 -8.0809e-20)
(-0.0276831 0.0335997 0)
(-0.0295822 0.0471898 0)
(-0.0312993 0.061493 8.01897e-20)
(-0.0328437 0.0764133 3.00758e-22)
(-0.0342223 0.0918531 7.97636e-20)
(-0.0354402 0.107714 -7.88839e-20)
(-0.0365018 0.123895 1.57538e-19)
(-0.0374104 0.140298 -7.81333e-20)
(-0.0381701 0.156821 0)
(-0.0387875 0.173365 2.33053e-19)
(-0.0392751 0.18983 -3.85862e-19)
(-0.0396356 0.206126 7.62975e-20)
(-0.0398647 0.22218 7.63359e-20)
(-0.0402687 0.237821 7.5932e-20)
(-0.0414344 0.252794 1.68917e-19)
(0.00485661 -0.00933464 -6.79975e-20)
(0.00938034 -0.0223125 1.47416e-19)
(0.00951651 -0.0314073 7.54505e-20)
(0.00749856 -0.0373085 1.72535e-19)
(0.00422285 -0.0407167 2.14099e-19)
(0.000329495 -0.0420003 3.94048e-20)
(-0.00379265 -0.0414171 -1.98732e-19)
(-0.00790843 -0.039153 0)
(-0.0118807 -0.0353483 -1.6095e-19)
(-0.0156344 -0.0301139 -8.06682e-20)
(-0.0191355 -0.023545 0)
(-0.0223737 -0.0157272 -8.09665e-20)
(-0.0253529 -0.00674252 5.87786e-23)
(-0.0280842 0.00332787 -2.42769e-19)
(-0.0305816 0.0144019 8.08111e-20)
(-0.0328601 0.0263947 8.0731e-20)
(-0.0349337 0.0392182 -1.60509e-19)
(-0.0368148 0.0527819 -1.60204e-19)
(-0.0385128 0.0669938 -3.15269e-22)
(-0.0400347 0.0817604 -1.25689e-22)
(-0.0413857 0.0969866 0)
(-0.0425699 0.112577 -7.89789e-20)
(-0.0435912 0.128436 -7.87326e-20)
(-0.0444542 0.144469 0)
(-0.0451681 0.160583 0)
(-0.0457493 0.176685 2.32132e-19)
(-0.0462085 0.192698 -2.30273e-19)
(-0.0465502 0.208563 0)
(-0.0470844 0.224129 2.28375e-19)
(-0.0484454 0.239131 -1.67978e-19)
(0.00459962 -0.00856863 1.52626e-22)
(0.00862034 -0.0207386 -1.47464e-19)
(0.00819805 -0.0295987 -1.8826e-20)
(0.00567982 -0.0356073 -1.91648e-19)
(0.00196336 -0.0393633 -1.16744e-19)
(-0.00231137 -0.0411589 3.9334e-20)
(-0.00676258 -0.0412012 7.95441e-20)
(-0.0111637 -0.039641 1.99819e-19)
(-0.0153855 -0.0365939 1.60954e-19)
(-0.0193598 -0.0321524 1.61545e-19)
(-0.0230579 -0.0263981 0)
(-0.0264736 -0.0194058 1.33789e-22)
(-0.029614 -0.0112488 0)
(-0.0324924 -0.00200117 1.61898e-19)
(-0.0351246 0.00826128 0)
(-0.0375272 0.0194588 -8.07628e-20)
(-0.0397151 0.0315076 8.0188e-20)
(-0.0417013 0.0443217 0)
(-0.0434952 0.0578131 0)
(-0.0451041 0.0718919 -2.38997e-19)
(-0.0465334 0.086467 7.90655e-20)
(-0.0477872 0.101447 0)
(-0.0488695 0.116741 1.56703e-19)
(-0.0497857 0.132261 1.56202e-19)
(-0.0505473 0.147921 -3.11126e-19)
(-0.0511751 0.163637 3.0951e-19)
(-0.0516883 0.179344 2.93815e-22)
(-0.0521008 0.195001 1.53197e-19)
(-0.052725 0.210479 -1.52021e-19)
(-0.0542482 0.225504 0)
(0.00425426 -0.00773899 1.69911e-19)
(0.00768745 -0.0190346 -1.84165e-20)
(0.00668656 -0.0276217 -1.50064e-19)
(0.00368389 -0.0337121 0)
(-0.00043444 -0.037796 -1.55001e-19)
(-0.00503788 -0.0400856 0)
(-0.00975733 -0.0407363 -1.98006e-19)
(-0.0143784 -0.0398636 -1.19923e-19)
(-0.018782 -0.0375587 -1.60457e-19)
(-0.0229082 -0.0338963 0)
(-0.0267347 -0.0289445 4.04512e-20)
(-0.0302597 -0.0227679 4.07398e-20)
(-0.033494 -0.0154315 -8.087e-20)
(-0.0364533 -0.00700174 -1.61803e-19)
(-0.0391556 0.00245132 -8.06735e-20)
(-0.041619 0.0128529 -3.22646e-19)
(-0.0438597 0.0241239 1.60561e-19)
(-0.0458911 0.0361827 -3.29795e-22)
(-0.0477232 0.0489453 -3.50416e-22)
(-0.0493636 0.0623253 2.38745e-19)
(-0.050818 0.0762352 0)
(-0.0520905 0.0905874 0)
(-0.0531851 0.105297 5.44612e-22)
(-0.054108 0.12028 2.64587e-22)
(-0.0548724 0.135459 -1.56019e-19)
(-0.0555031 0.150761 -1.55458e-19)
(-0.0560274 0.166135 -5.73069e-22)
(-0.0564688 0.181559 -1.532e-19)
(-0.0571407 0.196933 -1.52712e-19)
(-0.0587888 0.211969 -5.36286e-22)
(0.00381929 -0.00685479 0)
(0.00658361 -0.0172181 1.46573e-19)
(0.00499064 -0.0254954 1.3134e-19)
(0.00152646 -0.0316401 1.90841e-20)
(-0.00294792 -0.0360271 3.09661e-19)
(-0.0078209 -0.0387866 -3.91796e-20)
(-0.0127418 -0.0400216 3.16393e-19)
(-0.0175119 -0.0398124 1.59215e-19)
(-0.0220245 -0.0382263 2.40633e-19)
(-0.0262291 -0.0353207 1.20658e-19)
(-0.0301108 -0.0311512 4.04101e-20)
(-0.0336728 -0.0257724 2.02382e-19)
(-0.0369299 -0.0192411 2.19321e-22)
(-0.0399006 -0.0116168 8.10343e-20)
(-0.0426052 -0.00296378 1.61619e-19)
(-0.0450639 0.00664814 1.61332e-19)
(-0.0472939 0.0171446 0)
(-0.0493095 0.0284484 0)
(-0.0511216 0.0404792 0)
(-0.0527387 0.0531542 0)
(-0.0541665 0.066389 1.59104e-19)
(-0.0554096 0.0800998 0)
(-0.0564718 0.0942054 -2.65165e-22)
(-0.0573599 0.108629 3.13635e-19)
(-0.0580875 0.123299 1.55779e-19)
(-0.0586826 0.138155 1.5497e-19)
(-0.0591791 0.153159 3.09107e-19)
(-0.0596084 0.168316 0)
(-0.0602828 0.183561 -3.05921e-19)
(-0.0620136 0.198588 3.39145e-19)
(0.00329515 -0.00592636 1.35252e-19)
(0.00531394 -0.015309 -1.46576e-19)
(0.00312255 -0.0232412 0)
(-0.000773017 -0.0294099 -1.52033e-19)
(-0.00555082 -0.0340703 -3.89929e-20)
(-0.0106279 -0.0372691 -1.17069e-19)
(-0.0156775 -0.0390564 -3.55221e-19)
(-0.0205201 -0.0394784 -3.71268e-22)
(-0.0250636 -0.0385788 -1.19904e-19)
(-0.0292681 -0.0363987 -2.81273e-19)
(-0.033127 -0.0329818 -4.02718e-20)
(-0.0366493 -0.0283735 -1.61476e-19)
(-0.0398538 -0.0226228 -1.61645e-19)
(-0.0427625 -0.0157824 0)
(-0.0453983 -0.00791111 -1.61587e-19)
(-0.0477834 0.000925897 -2.42271e-19)
(-0.0499367 0.0106592 8.03776e-20)
(-0.0518738 0.0212159 -1.60785e-19)
(-0.0536068 0.0325194 -1.60368e-19)
(-0.0551454 0.0444899 0)
(-0.0564963 0.0570461 -3.18461e-19)
(-0.0576645 0.0701071 0)
(-0.0586542 0.083595 -3.16224e-19)
(-0.0594718 0.097437 -1.57704e-19)
(-0.0601308 0.111569 -3.13067e-19)
(-0.0606595 0.125941 1.56161e-19)
(-0.0610958 0.14053 -4.64334e-19)
(-0.0614748 0.155371 1.54244e-19)
(-0.0621036 0.170444 -3.9818e-22)
(-0.0638674 0.185431 -1.71085e-19)
(0.00268404 -0.00496506 -1.35255e-19)
(0.00388684 -0.0133287 1.82422e-20)
(0.00109825 -0.020882 1.30321e-19)
(-0.00319145 -0.027042 1.52037e-19)
(-0.00821345 -0.0319407 -1.54289e-19)
(-0.013423 -0.0355409 3.97382e-22)
(-0.0185229 -0.0378407 1.57695e-19)
(-0.0233561 -0.0388524 -3.17497e-19)
(-0.0278469 -0.0385975 -3.96462e-20)
(-0.0319677 -0.0371015 3.61043e-19)
(-0.0357207 -0.0343974 -2.41525e-19)
(-0.0391215 -0.0305218 4.03339e-19)
(-0.0421933 -0.0255163 4.04076e-19)
(-0.0449619 -0.0194276 -8.06751e-20)
(-0.0474534 -0.0123096 1.61592e-19)
(-0.0496921 -0.0042225 2.42298e-19)
(-0.0516992 0.00476915 8.07904e-20)
(-0.053492 0.0145966 -1.03282e-22)
(-0.0550846 0.0251868 7.99355e-20)
(-0.0564884 0.036463 7.97864e-20)
(-0.057712 0.0483462 -8.0186e-20)
(-0.0587616 0.0607579 7.9232e-20)
(-0.0596423 0.073622 -1.58419e-19)
(-0.0603604 0.0868676 1.57441e-19)
(-0.0609278 0.100435 -3.4003e-22)
(-0.0613703 0.114282 1.56292e-19)
(-0.0617248 0.128401 -3.81879e-22)
(-0.0620221 0.142857 -1.54067e-19)
(-0.0625541 0.157691 1.74017e-22)
(-0.0642891 0.172585 0)
(0.00198991 -0.00398303 0)
(0.00231397 -0.0113003 0)
(-0.00106277 -0.0184425 -1.67575e-19)
(-0.00570235 -0.024558 1.89401e-20)
(-0.010903 -0.0296545 0)
(-0.0161675 -0.0336112 1.55769e-19)
(-0.0212338 -0.036375 3.93023e-20)
(-0.0259701 -0.0379257 1.19e-19)
(-0.0303195 -0.0382636 1.59571e-19)
(-0.0342675 -0.0373999 -1.60339e-19)
(-0.0378261 -0.0353574 1.60903e-19)
(-0.041018 -0.032165 -1.61282e-19)
(-0.0438716 -0.0278576 -1.615e-19)
(-0.0464168 -0.0224766 0)
(-0.0486831 -0.0160711 0)
(-0.0506977 -0.00869663 0)
(-0.0524843 -0.000412979 -1.61195e-19)
(-0.0540625 0.00871524 2.41582e-19)
(-0.0554492 0.0186185 -8.0081e-20)
(-0.0566586 0.0292229 0)
(-0.057702 0.0404521 2.39665e-19)
(-0.0585885 0.0522285 -7.93503e-20)
(-0.0593252 0.0644762 1.58422e-19)
(-0.0599194 0.0771236 -3.16423e-19)
(-0.0603811 0.0901103 3.13817e-19)
(-0.0607306 0.103395 6.19655e-22)
(-0.0609972 0.11698 2.49417e-22)
(-0.0611938 0.130959 1.54446e-19)
(-0.0615746 0.145448 -7.24568e-22)
(-0.0631962 0.16016 1.71294e-19)
(0.00121851 -0.00299305 1.67552e-20)
(0.000610227 -0.00924758 -1.82045e-20)
(-0.00333762 -0.0159484 3.70618e-20)
(-0.00827606 -0.0219811 -2.2623e-19)
(-0.0135839 -0.0272292 3.83163e-20)
(-0.0188205 -0.03149 0)
(-0.0237639 -0.0346611 1.56462e-19)
(-0.0283107 -0.0366907 -1.57764e-19)
(-0.0324243 -0.0375591 0)
(-0.0361049 -0.0372644 1.99682e-19)
(-0.0393749 -0.0358207 -4.00602e-20)
(-0.0422647 -0.0332496 0)
(-0.0448085 -0.0295803 -8.07742e-20)
(-0.0470407 -0.0248495 1.61388e-19)
(-0.0489949 -0.019102 -8.0526e-20)
(-0.0507014 -0.0123887 8.08925e-20)
(-0.0521867 -0.00476512 -1.61233e-19)
(-0.0534739 0.00370841 -4.46361e-22)
(-0.0545829 0.0129661 -4.59428e-22)
(-0.0555319 0.0229373 -8.04404e-20)
(-0.0563362 0.033548 -1.60356e-19)
(-0.0570094 0.044722 -9.50592e-22)
(-0.0575632 0.0563819 -5.72143e-22)
(-0.058008 0.0684524 1.58055e-19)
(-0.0583536 0.0808665 -1.57985e-19)
(-0.0586143 0.0935741 1.56663e-19)
(-0.0588053 0.106568 -3.12085e-19)
(-0.0589035 0.119952 -2.58761e-22)
(-0.0590785 0.13393 -3.09399e-19)
(-0.0604482 0.148303 1.71897e-19)
(0.000377537 -0.0020084 0)
(-0.0012062 -0.00719544 -1.44506e-19)
(-0.00570009 -0.0134264 0)
(-0.0108799 -0.0193354 5.10721e-22)
(-0.0162179 -0.0246837 3.81898e-20)
(-0.0213386 -0.0291893 2.09659e-23)
(-0.026065 -0.0327023 -3.12404e-19)
(-0.0303245 -0.0351411 1.18411e-19)
(-0.0341029 -0.0364673 0)
(-0.0374159 -0.0366674 -1.99597e-19)
(-0.0402972 -0.0357473 3.99713e-20)
(-0.0427855 -0.0337225 0)
(-0.0449214 -0.0306173 -8.06655e-20)
(-0.0467444 -0.0264646 8.04105e-20)
(-0.0482923 -0.0213054 8.03329e-20)
(-0.0495993 -0.0151864 1.61289e-19)
(-0.0506951 -0.00815879 -8.03701e-20)
(-0.0516063 -0.000278765 0)
(-0.052357 0.00839194 0)
(-0.0529697 0.0177867 1.60372e-19)
(-0.053465 0.0278351 -1.60507e-19)
(-0.0538625 0.0384628 1.5905e-19)
(-0.0541812 0.0495921 1.58911e-19)
(-0.0544383 0.061143 1.58897e-19)
(-0.0546484 0.0730375 -1.57284e-19)
(-0.0548239 0.0852047 1.56939e-19)
(-0.0549695 0.0976028 1.5683e-19)
(-0.0550199 0.110311 -1.55128e-19)
(-0.0550029 0.123603 -6.27735e-22)
(-0.0559531 0.137412 3.45934e-19)
(-0.00052416 -0.00104192 1.66491e-20)
(-0.00311477 -0.00516825 1.2646e-19)
(-0.0081215 -0.0109032 0)
(-0.0134792 -0.0166455 1.50257e-19)
(-0.0187654 -0.0220374 0)
(-0.0236774 -0.0267219 0)
(-0.028088 -0.0305036 1.17037e-19)
(-0.0319579 -0.0332727 -7.69168e-23)
(-0.0352964 -0.0349739 3.95005e-20)
(-0.0381361 -0.0355832 3.98359e-20)
(-0.0405227 -0.0350994 -1.19917e-19)
(-0.0425037 -0.0335327 7.99966e-20)
(-0.0441268 -0.0309036 0)
(-0.0454371 -0.0272419 0)
(-0.0464771 -0.0225853 -1.61193e-19)
(-0.0472848 -0.016977 0)
(-0.0478938 -0.0104639 -8.07902e-20)
(-0.0483345 -0.00309833 8.02384e-20)