/*--------------------------------*- C++ -*----------------------------------*\
  =========                 |
  \\      /  F ield         | OpenFOAM: The Open Source CFD Toolbox
   \\    /   O peration     | Website:  https://openfoam.org
    \\  /    A nd           | Version:  7
     \\/     M anipulation  |
\*---------------------------------------------------------------------------*/
FoamFile
{
    version     2.0;
    format      ascii;
    class       volVectorField;
    location    "14.1";
    object      U;
}
// * * * * * * * * * * * * * * * * * * * * * * * * * * * * * * * * * * * * * //

dimensions      [0 1 -1 0 0 0 0];

internalField   nonuniform List<vector> 
2000
(
(0.00414201 -0.00059512 -2.90639e-22)
(0.0251831 0.0479059 0)
(0.0653374 0.120182 0)
(0.109934 0.200783 -2.39944e-21)
(0.150977 0.276761 1.18598e-21)
(0.182651 0.339618 4.26852e-22)
(0.202915 0.386068 -2.13326e-21)
(0.212727 0.416714 0)
(0.214007 0.434354 0)
(0.211391 0.442222 0)
(0.00424326 -0.00644823 0)
(0.019535 0.0306279 -1.67918e-21)
(0.0499592 0.0934596 1.54812e-21)
(0.0854462 0.168549 3.29737e-21)
(0.120629 0.244451 0)
(0.150335 0.312073 4.24729e-21)
(0.171643 0.366184 -3.94941e-21)
(0.184184 0.405308 0)
(0.18867 0.430676 1.14982e-20)
(0.188749 0.444973 -2.29677e-20)
(0.00520228 -0.0112855 0)
(0.0166547 0.0155823 1.4351e-20)
(0.0389826 0.0688059 0)
(0.0657506 0.136597 1.37948e-20)
(0.0939419 0.209474 0)
(0.119695 0.278902 -1.44298e-20)
(0.140048 0.338643 0)
(0.153809 0.385481 1.92705e-20)
(0.160698 0.4189 -1.80483e-20)
(0.16292 0.440693 -2.02278e-20)
(0.00672438 -0.0151511 -3.68164e-21)
(0.015756 0.00286222 -7.04239e-21)
(0.0315535 0.0467915 -3.51416e-21)
(0.0505719 0.106272 -6.55761e-21)
(0.0715489 0.17373 -6.68489e-21)
(0.0920477 0.2419 6.83143e-21)
(0.109669 0.304519 7.06623e-21)
(0.122954 0.357313 -1.83029e-21)
(0.131078 0.398209 1.66311e-20)
(0.13439 0.427806 2.0226e-20)
(0.00849901 -0.0180569 -3.81793e-21)
(0.0160039 -0.00754833 -8.05071e-21)
(0.0265773 0.02764 -1.57751e-20)
(0.0390681 0.0784198 7.09888e-21)
(0.0533512 0.138814 0)
(0.0681505 0.203041 0)
(0.0818535 0.265538 -1.55197e-20)
(0.0931653 0.321744 -1.66138e-20)
(0.101238 0.368597 1.62084e-20)
(0.104176 0.405164 5.56622e-20)
(0.0101942 -0.019988 4.27689e-21)
(0.0165728 -0.0157435 4.41159e-21)
(0.0228987 0.0112973 -2.47582e-20)
(0.030076 0.0533709 3.8213e-20)
(0.0386303 0.105756 -7.04367e-21)
(0.0480493 0.164031 0)
(0.0574217 0.223656 0)
(0.0658231 0.280405 7.65297e-20)
(0.0727853 0.330973 -7.94413e-20)
(0.073853 0.372552 1.76892e-20)
(0.0114629 -0.0209106 3.73161e-20)
(0.0167177 -0.021852 0)
(0.019485 -0.00243852 3.24452e-20)
(0.0224227 0.0310895 -3.05912e-20)
(0.026368 0.0750174 0)
(0.0312221 0.126032 1.49881e-20)
(0.0365517 0.180617 -4.33147e-20)
(0.0418437 0.235203 -6.07948e-20)
(0.0471667 0.286933 2.91563e-20)
(0.0452887 0.3306 3.25456e-20)
(0.011966 -0.0207942 -7.7217e-20)
(0.0158522 -0.0260079 -9.34624e-21)
(0.0155813 -0.0137748 -1.81777e-20)
(0.0152066 0.0114278 -4.15663e-20)
(0.0156353 0.0467431 -1.59044e-20)
(0.0169413 0.0897282 -1.6276e-20)
(0.0189584 0.137727 -1.30634e-21)
(0.0215833 0.187922 0)
(0.0253432 0.238273 0)
(0.0205798 0.281188 -2.54838e-21)
(0.0114177 -0.0196546 3.9902e-20)
(0.0136176 -0.0283301 -3.97241e-20)
(0.0108185 -0.0228044 2.63754e-20)
(0.00798737 -0.00561327 5.94124e-20)
(0.00591321 0.0211366 -1.61139e-20)
(0.00468328 0.0556889 1.45411e-20)
(0.00426631 0.0960469 1.54192e-20)
(0.00497687 0.140096 0)
(0.0078122 0.186554 0)
(0.00164522 0.225527 2.80392e-21)
(0.00964711 -0.0175827 -5.4272e-21)
(0.00994229 -0.0289199 4.99557e-20)
(0.00526 -0.0294434 -9.42741e-21)
(0.000867764 -0.0197048 0)
(-0.00273003 -0.00118836 0)
(-0.00557824 0.02489 3.29203e-20)
(-0.00765888 0.0569593 0)
(-0.00832081 0.0933047 -3.50939e-20)
(-0.00568933 0.132536 -1.76828e-21)
(-0.00741614 0.164084 3.28317e-20)
(0.187978 0.442869 1.30893e-21)
(0.149779 0.419708 -1.33395e-21)
(0.116444 0.402218 -1.63713e-21)
(0.091399 0.392795 -1.77644e-21)
(0.0634712 0.388277 -1.94034e-21)
(0.0436265 0.386699 -6.09093e-24)
(0.0183173 0.388746 9.90877e-22)
(0.00571163 0.39729 3.11966e-21)
(-0.0127812 0.41134 0)
(-0.00645412 0.438257 -2.14672e-21)
(0.174871 0.451908 3.67215e-21)
(0.141749 0.429188 -6.03154e-21)
(0.111283 0.410746 1.08912e-20)
(0.0882464 0.400577 1.77961e-21)
(0.0621932 0.395403 3.65807e-21)
(0.0441043 0.393191 5.78862e-21)
(0.0203594 0.394476 -2.02395e-21)
(0.00870452 0.401664 -2.07472e-21)
(-0.00901828 0.413286 4.11003e-21)
(-0.0043666 0.43569 2.14172e-21)
(0.159833 0.457866 0)
(0.133159 0.437559 -5.34248e-21)
(0.106115 0.418878 -3.18438e-21)
(0.085144 0.407877 0)
(0.060935 0.401961 -1.10253e-20)
(0.0445823 0.399144 3.58463e-21)
(0.0223425 0.399688 3.75377e-21)
(0.011515 0.405661 1.18279e-20)
(-0.00557438 0.415243 -4.09668e-21)
(-0.00249623 0.433927 8.12014e-21)
(0.142721 0.459435 0)
(0.123791 0.444004 5.38954e-21)
(0.100788 0.426218 0)
(0.0819806 0.414524 1.36192e-20)
(0.0596249 0.407887 -1.36866e-20)
(0.0449927 0.40453 -7.43983e-21)
(0.02422 0.404414 -1.93592e-22)
(0.0141613 0.409365 -1.16138e-20)
(-0.00240297 0.417303 -1.94112e-21)
(-0.000827065 0.432894 -1.00496e-20)
(0.123451 0.455665 5.60004e-21)
(0.113685 0.448914 -1.17606e-20)
(0.0954459 0.433262 1.307e-21)
(0.0788346 0.420767 -1.23592e-20)
(0.0582945 0.413331 0)
(0.0453245 0.409438 -7.24808e-21)
(0.0259586 0.408734 -1.68578e-22)
(0.0165888 0.412805 1.50789e-20)
(0.000436667 0.419372 1.91104e-21)
(0.000620937 0.432391 -1.9184e-21)
(0.10241 0.444554 -2.83302e-20)
(0.102464 0.450064 2.22236e-20)
(0.0895838 0.438589 1.20312e-20)
(0.0754206 0.426054 -1.20183e-20)
(0.0567818 0.418085 -6.5741e-21)
(0.0454585 0.413712 0)
(0.0275306 0.412579 -1.42932e-20)
(0.018915 0.416057 7.09752e-21)
(0.0031415 0.421653 7.33397e-21)
(0.0019425 0.432685 7.33831e-21)
(0.0799546 0.4273 -3.42986e-21)
(0.0910468 0.450688 0)
(0.0839552 0.444168 0)
(0.0721807 0.431307 0)
(0.0553698 0.422672 -6.71433e-21)
(0.045546 0.417733 1.32647e-20)
(0.0288855 0.416116 1.40802e-20)
(0.0208312 0.418966 -2.11537e-20)
(0.00533947 0.423676 3.5736e-21)
(0.00300802 0.433017 -1.08091e-20)
(0.0569279 0.398866 1.81046e-20)
(0.0776746 0.44361 2.05731e-20)
(0.0768698 0.445617 -2.0365e-20)
(0.0682943 0.434842 2.48714e-20)
(0.0534841 0.426182 -3.08979e-20)
(0.0452031 0.420819 0)
(0.0301268 0.41911 -6.67138e-21)
(0.0230733 0.421964 1.77194e-22)
(0.00794095 0.426481 -6.78419e-21)
(0.00417028 0.434836 -6.78757e-21)
(0.0349478 0.371612 -1.51325e-20)
(0.0667191 0.441946 0)
(0.07104 0.449568 -2.5397e-20)
(0.0650885 0.439577 4.68439e-20)
(0.0522136 0.430508 -1.77581e-20)
(0.0451219 0.424441 -3.17702e-21)
(0.0307778 0.421945 6.65713e-21)
(0.0238497 0.424 4.96696e-23)
(0.00898053 0.427727 9.96791e-21)
(0.00473395 0.434833 9.96462e-21)
(0.011756 0.318659 -1.59996e-20)
(0.0495173 0.420859 1.55333e-20)
(0.061786 0.444658 2.56964e-21)
(0.0605736 0.440592 0)
(0.0495768 0.431999 0)
(0.044149 0.425914 3.07051e-21)
(0.0323499 0.424305 1.24748e-20)
(0.0274017 0.427659 -1.226e-20)
(0.0128193 0.432507 -3.09514e-21)
(0.00622614 0.439918 3.04574e-21)
(-0.0139495 0.294853 0)
(0.0325028 0.42071 0)
(0.0441843 0.451156 0)
(0.051032 0.45326 0)
(0.0482047 0.446118 0)
(0.043623 0.436725 0)
(0.0271225 0.428468 0)
(0.0182367 0.425913 0)
(0.00588447 0.426425 0)
(0.00437315 0.429924 0)
(-0.0351612 0.254266 0)
(0.0175079 0.390903 0)
(0.0275132 0.434623 0)
(0.0353188 0.439258 0)
(0.0321422 0.433465 0)
(0.0380499 0.43578 0)
(0.0378247 0.442762 0)
(0.0381844 0.450256 0)
(0.0233861 0.459699 0)
(0.0111351 0.46923 0)
(-0.0138808 0.273546 0)
(0.0019444 0.358284 0)
(0.0163923 0.422484 0)
(0.0415646 0.450611 0)
(0.0413336 0.451194 0)
(0.0320543 0.443949 0)
(0.0150897 0.440543 0)
(0.0102523 0.440166 0)
(-4.63738e-05 0.441073 0)
(0.00216716 0.444437 0)
(0.0504012 0.337141 0)
(0.0183662 0.353226 0)
(0.00545171 0.385615 0)
(0.01909 0.411093 0)
(0.0304344 0.432085 0)
(0.0437839 0.448837 0)
(0.0394193 0.45957 0)
(0.0343483 0.471575 0)
(0.0169347 0.480129 0)
(0.00747627 0.485048 0)
(0.126706 0.411709 0)
(0.078837 0.407182 0)
(0.0530835 0.421058 0)
(0.0483443 0.431556 0)
(0.0372243 0.436029 0)
(0.0333322 0.443272 0)
(0.0234459 0.448333 0)
(0.0206014 0.453946 0)
(0.0108152 0.457248 0)
(0.00629496 0.458155 0)
(0.189878 0.454386 0)
(0.141728 0.43861 0)
(0.0938112 0.420316 0)
(0.0747435 0.419546 0)
(0.0664482 0.434048 0)
(0.067055 0.455552 0)
(0.0575715 0.476312 0)
(0.0490847 0.494556 0)
(0.0323484 0.50711 0)
(0.0148848 0.513953 0)
(0.231528 0.484492 0)
(0.216012 0.507093 0)
(0.17922 0.496964 0)
(0.138351 0.471463 0)
(0.0980489 0.453726 0)
(0.0745654 0.452242 0)
(0.0540175 0.459793 0)
(0.0417428 0.471131 0)
(0.0260229 0.482608 0)
(0.0131279 0.49293 0)
(0.241354 0.453923 0)
(0.236825 0.489064 0)
(0.216049 0.49641 0)
(0.192826 0.493214 0)
(0.15997 0.491949 0)
(0.132706 0.501336 0)
(0.102355 0.516535 0)
(0.0775672 0.532569 0)
(0.0458913 0.547798 0)
(0.0185465 0.564438 0)
(0.254939 0.457235 0)
(0.279606 0.53693 0)
(0.262705 0.551216 0)
(0.231314 0.534713 0)
(0.18677 0.512835 0)
(0.14737 0.504129 0)
(0.107747 0.508389 0)
(0.0778454 0.519716 0)
(0.0438633 0.532452 0)
(0.0161604 0.546957 0)
(0.205108 0.333706 0)
(0.263854 0.466823 0)
(0.281824 0.539442 0)
(0.276562 0.569406 0)
(0.246748 0.577502 0)
(0.209501 0.582772 0)
(0.162621 0.592189 0)
(0.118516 0.60559 0)
(0.069277 0.619637 0)
(0.0243608 0.633035 0)
(-0.0377868 0.152942 1.77379e-20)
(-0.0090295 0.186332 -1.73874e-20)
(0.053241 0.268469 2.27593e-21)
(0.121958 0.353182 0)
(0.177252 0.418202 0)
(0.212714 0.440179 1.24315e-21)
(0.228358 0.441173 -3.37881e-21)
(0.221683 0.39032 3.321e-21)
(0.205993 0.352861 2.15693e-22)
(0.155778 0.222953 -2.11296e-22)
(-0.0167719 0.10799 -1.82768e-20)
(0.023818 0.178478 0)
(0.0885723 0.283284 1.3969e-20)
(0.147829 0.368768 -2.94602e-20)
(0.189745 0.421566 1.62764e-20)
(0.213847 0.43017 -1.24647e-21)
(0.218972 0.41609 1.83284e-21)
(0.205772 0.355724 2.34022e-21)
(0.183636 0.309008 -5.94258e-23)
(0.136492 0.180453 -2.07593e-22)
(0.010321 0.0896273 2.24865e-20)
(0.0623217 0.196403 -1.72044e-20)
(0.121565 0.307704 1.70467e-20)
(0.168394 0.382605 -1.25195e-20)
(0.19769 0.41862 9.49463e-21)
(0.211275 0.413019 0)
(0.207266 0.385271 -1.83694e-21)
(0.188414 0.317326 -7.74222e-23)
(0.160551 0.262844 -7.98991e-22)
(0.116963 0.138362 8.68172e-24)
(0.0445967 0.105095 -4.04346e-21)
(0.103835 0.230587 0)
(0.151094 0.332794 0)
(0.183618 0.390072 0)
(0.200419 0.408126 7.21759e-21)
(0.203979 0.388808 -4.6943e-21)
(0.191835 0.348769 1.92266e-22)
(0.168149 0.274919 -9.29042e-22)
(0.136837 0.215334 -1.77613e-22)
(0.0978576 0.097545 2.29042e-22)
(0.0902551 0.147431 1.90912e-21)
(0.142767 0.269074 -1.20763e-20)
(0.174038 0.351855 -6.31466e-21)
(0.192124 0.388723 6.31023e-21)
(0.197725 0.38944 -2.48828e-21)
(0.192466 0.35764 0)
(0.173579 0.307256 -1.6234e-21)
(0.146257 0.229672 2.05655e-21)
(0.113466 0.16771 -9.12588e-22)
(0.0798851 0.0590187 -5.33679e-23)
(0.138335 0.200149 -2.8009e-20)
(0.174029 0.301748 4.31408e-21)
(0.188911 0.360819 1.05238e-21)
(0.194184 0.377553 5.71815e-21)
(0.190195 0.362713 0)
(0.177344 0.320206 0)
(0.153095 0.26176 0)
(0.123453 0.18279 1.00067e-21)
(0.0910551 0.121085 0)
(0.0634331 0.0238307 0)
(0.181155 0.248968 0)
(0.195826 0.322972 9.16487e-21)
(0.195914 0.358112 -6.08208e-21)
(0.190537 0.356755 -4.31051e-21)
(0.17852 0.328682 4.33227e-21)
(0.159348 0.277515 1.49589e-21)
(0.131194 0.213521 -1.64126e-21)
(0.100643 0.135617 -3.5023e-21)
(0.0701098 0.0765008 3.32732e-22)
(0.0467593 -0.00705726 1.18011e-22)
(0.213358 0.285662 0)
(0.208241 0.330623 -3.08683e-21)
(0.196011 0.343965 -1.16477e-21)
(0.182131 0.327293 0)
(0.163532 0.288476 7.92951e-22)
(0.139331 0.23086 -2.37437e-21)
(0.108759 0.163963 1.82729e-21)
(0.078727 0.0895636 3.99049e-22)
(0.0510496 0.035224 -2.96375e-22)
(0.0349974 -0.0333307 -4.53036e-23)
(0.23319 0.306486 2.6479e-21)
(0.212423 0.324862 2.35979e-21)
(0.190551 0.319705 -7.07841e-22)
(0.169987 0.290588 4.38779e-22)
(0.14611 0.243496 8.48777e-22)
(0.118199 0.181723 1.04546e-21)
(0.0866971 0.114583 -2.72006e-22)
(0.0585727 0.0460116 -2.01577e-22)
(0.0347925 -0.00155208 2.97343e-22)
(0.0253391 -0.0551626 9.95984e-24)
(0.241767 0.31122 -5.71866e-22)
(0.210015 0.30734 5.84621e-22)
(0.18092 0.287214 -5.10313e-22)
(0.155131 0.248298 -4.38066e-22)
(0.127172 0.195305 3.33535e-22)
(0.0968895 0.131688 -6.62794e-22)
(0.0658716 0.0668462 3.852e-22)
(0.0408456 0.00601329 8.76427e-23)
(0.0218828 -0.0334759 0)
(0.0174214 -0.0732989 -9.97858e-24)
(0.241596 0.302127 5.02346e-22)
(0.20267 0.280374 -5.13274e-22)
(0.168385 0.248524 -3.91386e-22)
(0.138572 0.202176 -3.43129e-22)
(0.107656 0.145543 -2.99919e-22)
(0.0763301 0.082337 3.45076e-23)
(0.0470341 0.02209 1.24627e-22)
(0.0259573 -0.0295678 2.80549e-22)
(0.0121907 -0.0603006 0)
(0.0114625 -0.0883057 -2.29837e-23)
(0.235247 0.282332 0)
(0.191821 0.246297 -1.57662e-21)
(0.154052 0.205619 2.66947e-21)
(0.121261 0.153982 3.43608e-22)
(0.0884793 0.0958281 5.46024e-22)
(0.057356 0.0351303 7.57098e-22)
(0.0307762 -0.0185977 -2.28958e-22)
(0.01414 -0.0602489 -1.74993e-22)
(0.005386 -0.0822815 2.24261e-22)
(0.00728397 -0.100822 2.29255e-23)
(0.224674 0.254646 0)
(0.178675 0.207246 -1.43838e-21)
(0.138842 0.160377 -6.90507e-22)
(0.104042 0.105386 0)
(0.070444 0.0476445 -1.52895e-21)
(0.0405381 -0.00870394 4.99861e-22)
(0.0174895 -0.0545181 4.25486e-22)
(0.00544628 -0.0859902 9.82509e-22)
(0.00102462 -0.100067 -2.23528e-22)
(0.0045098 -0.111547 1.10793e-22)
(0.21124 0.221348 0)
(0.164274 0.165177 1.45011e-21)
(0.123562 0.114485 0)
(0.0876282 0.0578577 1.97097e-21)
(0.0540813 0.00226545 -1.98136e-21)
(0.0262743 -0.0482647 -8.09822e-22)
(0.00734913 -0.0853708 2.84815e-23)
(-0.000226168 -0.107129 -9.52493e-22)
(-0.00139342 -0.114538 -1.87698e-22)
(0.00274884 -0.12115 -1.74985e-22)
(0.19601 0.184407 1.21833e-20)
(0.149595 0.121858 -4.65051e-21)
(0.108975 0.0693795 -3.45851e-22)
(0.0724605 0.0126361 -2.00548e-21)
(0.0397855 -0.0393524 0)
(0.0148454 -0.0830586 -7.61051e-22)
(0.000376712 -0.111268 1.2126e-22)
(-0.00361845 -0.124318 1.22813e-21)
(-0.00254786 -0.126635 6.21508e-23)
(0.00165728 -0.130209 -6.21019e-23)
(0.180025 0.145664 8.66524e-22)
(0.135522 0.0788039 6.87059e-21)
(0.0954989 0.0262366 1.87503e-21)
(0.0588935 -0.0293521 -1.87427e-21)
(0.0279098 -0.0766273 -7.98071e-22)
(0.00625449 -0.112948 0)
(-0.00416898 -0.132531 -1.3008e-21)
(-0.00534315 -0.13835 7.0256e-22)
(-0.00290552 -0.13738 4.54813e-22)
(0.00097292 -0.139227 1.11687e-22)
(0.164265 0.106898 -1.59335e-21)
(0.122504 0.0372854 0)
(0.0834181 -0.014073 0)
(0.0473484 -0.0675156 0)
(0.0185626 -0.109227 -7.24e-22)
(0.000315207 -0.137953 1.52018e-21)
(-0.00681411 -0.149861 1.27702e-21)
(-0.00565981 -0.150308 -1.64979e-21)
(-0.00274218 -0.147549 1.14417e-22)
(0.000517876 -0.14853 -2.23826e-22)
(0.148917 0.0700109 -3.38483e-21)
(0.110511 -0.00181061 4.46134e-21)
(0.0731012 -0.0510037 -4.42102e-21)
(0.0380593 -0.101485 3.18889e-21)
(0.0116434 -0.137117 -3.91854e-21)
(-0.00344761 -0.158501 0)
(-0.00770988 -0.16408 -6.44298e-22)
(-0.00516976 -0.161085 1.06375e-23)
(-0.00240075 -0.15774 -3.27638e-22)
(0.000192988 -0.158335 -1.06505e-22)
(0.133714 0.0371719 -1.72876e-21)
(0.0993019 -0.0382281 0)
(0.0647064 -0.0844663 -4.12187e-21)
(0.0311675 -0.131183 6.75132e-21)
(0.00705892 -0.160422 -2.37223e-21)
(-0.00556744 -0.175167 -3.59367e-22)
(-0.00756411 -0.176085 6.42836e-22)
(-0.00436178 -0.171445 9.15273e-23)
(-0.00207169 -0.168347 6.23463e-22)
(-4.40039e-05 -0.168759 2.09565e-22)
(0.122937 0.0102157 -6.89141e-21)
(0.0897293 -0.0719479 6.70367e-21)
(0.0574707 -0.114673 5.27269e-22)
(0.0257936 -0.156786 0)
(0.00431869 -0.179425 0)
(-0.00650275 -0.188552 3.69187e-22)
(-0.00700348 -0.18668 1.15818e-21)
(-0.00363909 -0.181971 -1.13755e-21)
(-0.00186239 -0.17958 -1.05558e-22)
(-0.000192409 -0.179843 1.03274e-22)
(0.125414 -0.0395446 0)
(0.0737818 -0.141751 0)
(0.0371897 -0.178046 0)
(0.00849622 -0.208899 0)
(-0.0033939 -0.215757 0)
(-0.00662071 -0.214369 0)
(-0.00376437 -0.210465 0)
(-0.00111401 -0.208631 0)
(-0.000918812 -0.208248 0)
(-0.000272144 -0.207725 0)
(0.0371715 -0.245908 0)
(-0.00376621 -0.305286 0)
(0.0156605 -0.279276 0)
(0.00572649 -0.290402 0)
(0.00578204 -0.272617 0)
(-0.00123425 -0.271939 0)
(-0.00187888 -0.266683 0)
(-0.00129439 -0.267758 0)
(-0.000177058 -0.266325 0)
(-5.68534e-05 -0.265267 0)
(0.0619397 -0.301102 0)
(0.037049 -0.326767 0)
(0.0378637 -0.302371 0)
(0.0127305 -0.328742 0)
(0.0113593 -0.315196 0)
(-0.00159806 -0.325211 0)
(0.000718092 -0.316614 0)
(0.000377477 -0.319088 0)
(0.00152187 -0.31677 0)
(-0.000117446 -0.316897 0)
(0.0350945 -0.34816 0)
(0.0212416 -0.378791 0)
(0.0159874 -0.366641 0)
(0.00599343 -0.386608 0)
(0.00850589 -0.371754 0)
(-0.00119084 -0.381763 0)
(0.00504546 -0.370031 0)
(9.32923e-05 -0.376222 0)
(0.00234791 -0.371369 0)
(-0.000286208 -0.372921 0)
(0.0327426 -0.408947 0)
(0.0203824 -0.445387 0)
(0.0158661 -0.427475 0)
(0.0105931 -0.445157 0)
(0.00863945 -0.433474 0)
(0.00202002 -0.442562 0)
(0.00562818 -0.434416 0)
(-0.000188754 -0.441629 0)
(0.00384622 -0.434246 0)
(-0.000933512 -0.438332 0)
(0.0226248 -0.484807 0)
(0.0150414 -0.517893 0)
(0.0142743 -0.496254 0)
(0.00737582 -0.518408 0)
(0.00626761 -0.504361 0)
(0.00315499 -0.517001 0)
(0.00432154 -0.508707 0)
(0.00106158 -0.51512 0)
(0.00344566 -0.508366 0)
(-0.00138214 -0.513254 0)
(0.0176931 -0.575123 0)
(0.0119402 -0.608418 0)
(0.00962766 -0.587905 0)
(0.00615559 -0.610318 0)
(0.00550114 -0.593715 0)
(0.00269528 -0.610646 0)
(0.00327282 -0.598315 0)
(0.00142384 -0.608308 0)
(0.00241324 -0.59902 0)
(-0.000662454 -0.604458 0)
(0.013409 -0.700561 0)
(0.00944223 -0.730529 0)
(0.00752527 -0.709999 0)
(0.00412502 -0.731574 0)
(0.00398405 -0.716432 0)
(0.00240102 -0.732621 0)
(0.00259763 -0.720176 0)
(0.0016466 -0.731487 0)
(0.00178575 -0.719865 0)
(-0.000545571 -0.728518 0)
(0.00769285 -0.853274 0)
(0.00526956 -0.871799 0)
(0.00441487 -0.860719 0)
(0.00266723 -0.875043 0)
(0.00251409 -0.865774 0)
(0.00118664 -0.87791 0)
(0.00142939 -0.870022 0)
(0.000406948 -0.877482 0)
(-6.36298e-05 -0.869539 0)
(-0.000502428 -0.877297 0)
(0.00215277 -0.967392 0)
(0.00162218 -0.97589 0)
(0.00139324 -0.974437 0)
(0.000772805 -0.980884 0)
(0.000466099 -0.978606 0)
(-5.69013e-05 -0.983663 0)
(0.000192546 -0.980224 0)
(-6.3134e-05 -0.982669 0)
(-0.000410721 -0.978681 0)
(-0.000274582 -0.982177 0)
(0.113447 -0.0712374 1.05865e-20)
(0.0437612 -0.259802 -1.06641e-20)
(0.0605173 -0.314703 1.4377e-21)
(0.0349356 -0.361573 0)
(0.0364183 -0.424901 0)
(0.0236591 -0.502597 1.53895e-21)
(0.0201523 -0.593452 -6.49242e-21)
(0.0141132 -0.715834 6.48136e-21)
(0.00840473 -0.86168 1.72246e-21)
(0.00275734 -0.967128 -1.7178e-21)
(0.109055 -0.0871545 -1.3221e-20)
(0.0460265 -0.267383 0)
(0.0589147 -0.319221 9.45274e-21)
(0.0352413 -0.365345 -2.15742e-20)
(0.0379032 -0.429554 1.3692e-20)
(0.0241771 -0.508012 -1.38577e-21)
(0.0212435 -0.598795 3.07436e-21)
(0.014461 -0.720336 6.3536e-21)
(0.00870772 -0.862744 1.76749e-21)
(0.00299756 -0.965979 1.77223e-21)
(0.104201 -0.103492 1.65208e-20)
(0.0481514 -0.279067 -1.11635e-20)
(0.0574328 -0.325262 1.10578e-20)
(0.0362726 -0.369256 -1.14437e-20)
(0.0395234 -0.433904 8.49201e-21)
(0.0249416 -0.512526 0)
(0.0224832 -0.603021 -3.08206e-21)
(0.0151016 -0.723727 1.91827e-22)
(0.00914766 -0.862308 -3.31343e-21)
(0.00314758 -0.963581 -3.4115e-21)
(0.0994694 -0.11676 -2.68929e-21)
(0.0501072 -0.28895 0)
(0.056373 -0.331083 0)
(0.03812 -0.373299 0)
(0.0413738 -0.438218 9.32201e-21)
(0.0260609 -0.516562 -6.18463e-21)
(0.0239151 -0.60686 -1.00318e-23)
(0.0160555 -0.726597 -3.63113e-21)
(0.00980301 -0.862026 -1.89759e-21)
(0.00329413 -0.961032 -2.06425e-21)
(0.0959434 -0.1274 -6.14193e-22)
(0.0520734 -0.295308 -8.51395e-21)
(0.0556052 -0.335289 -5.80977e-21)
(0.0406423 -0.376767 5.80659e-21)
(0.0434607 -0.441943 -3.09594e-21)
(0.0275591 -0.519937 0)
(0.0255264 -0.610234 -3.45684e-21)
(0.0172407 -0.729038 7.51566e-21)
(0.0106566 -0.862137 -3.8642e-21)
(0.00350242 -0.958833 4.0092e-21)
(0.0940527 -0.135343 -2.42271e-20)
(0.0543246 -0.299223 3.01828e-21)
(0.0551973 -0.337999 -1.47376e-22)
(0.0437034 -0.379336 6.02502e-21)
(0.0457727 -0.444601 0)
(0.0294296 -0.522315 0)
(0.0272841 -0.612808 0)
(0.0185805 -0.730811 4.03721e-21)
(0.0116524 -0.862203 0)
(0.00379016 -0.95688 0)
(0.0938488 -0.140024 0)
(0.0569949 -0.301452 9.03067e-21)
(0.0554173 -0.339829 -6.03288e-21)
(0.0472704 -0.381128 -6.6265e-21)
(0.0483496 -0.44603 6.66102e-21)
(0.0316792 -0.523502 3.75656e-21)
(0.0291736 -0.61436 -3.76475e-21)
(0.0200406 -0.731698 -1.44781e-20)
(0.0127281 -0.861813 1.02273e-21)
(0.00412711 -0.954889 -3.58495e-21)
(0.0955178 -0.14103 0)
(0.0601259 -0.301885 -3.0043e-21)
(0.0565321 -0.341012 -1.60018e-21)
(0.0513658 -0.382289 0)
(0.0512771 -0.446217 1.84726e-21)
(0.034333 -0.52344 -5.65195e-21)
(0.0312144 -0.614792 6.12061e-21)
(0.0216466 -0.731545 2.13738e-21)
(0.0138789 -0.860662 -2.37788e-21)
(0.00451123 -0.952535 4.74874e-21)
(0.0995274 -0.138083 3.39335e-21)
(0.0638077 -0.300195 3.1649e-21)
(0.0587445 -0.341405 -7.68215e-22)
(0.0560113 -0.382788 8.92453e-22)
(0.0546456 -0.445148 1.82613e-21)
(0.037417 -0.522128 2.97186e-21)
(0.033438 -0.614114 -1.10442e-21)
(0.023428 -0.730401 -1.17639e-21)
(0.0151011 -0.858782 2.38576e-21)
(0.00492129 -0.949753 1.30873e-21)
(0.106477 -0.13097 -8.07361e-22)
(0.0682361 -0.296133 8.12088e-22)
(0.0622196 -0.340779 -8.27229e-22)
(0.0612276 -0.382472 -8.91372e-22)
(0.0585247 -0.442766 1.00746e-21)
(0.0409506 -0.519536 -2.03943e-21)
(0.0358887 -0.612259 1.68677e-21)
(0.0254425 -0.728196 5.90703e-22)
(0.0164526 -0.85607 0)
(0.00539772 -0.946448 -1.31159e-21)
(0.116913 -0.11958 8.30358e-22)
(0.0737245 -0.28941 -8.35212e-22)
(0.0670968 -0.338941 -8.93861e-22)
(0.0670579 -0.381195 -9.69368e-22)
(0.0629574 -0.43903 -1.05562e-21)
(0.0449423 -0.515673 -5.93239e-23)
(0.0385899 -0.609265 6.04324e-22)
(0.0276854 -0.725118 1.9126e-21)
(0.0179152 -0.852776 0)
(0.0059114 -0.942803 -1.44509e-21)
(0.131111 -0.103954 0)
(0.0807106 -0.279555 -3.46865e-21)
(0.0734642 -0.335686 6.25486e-21)
(0.0735726 -0.378871 9.71083e-22)
(0.0679659 -0.433932 2.19262e-21)
(0.0494046 -0.510475 3.48059e-21)
(0.0415984 -0.604986 -1.21431e-21)
(0.0302146 -0.7209 -1.29569e-21)
(0.0195745 -0.848608 2.89444e-21)
(0.00652317 -0.938667 1.44165e-21)
(0.148953 -0.0844164 0)
(0.0897779 -0.265906 -3.45714e-21)
(0.0813224 -0.330783 -1.87012e-21)
(0.0808509 -0.375494 0)
(0.0735689 -0.427568 -6.83782e-21)
(0.0543279 -0.50402 2.31625e-21)
(0.0449115 -0.599623 2.64489e-21)
(0.0329662 -0.715936 8.38678e-21)
(0.0213348 -0.844026 -2.8851e-21)
(0.00716334 -0.934326 6.32023e-21)
(0.169826 -0.0615963 0)
(0.101664 -0.247819 3.48662e-21)
(0.0906049 -0.323968 0)
(0.0889671 -0.370996 9.00808e-21)
(0.0798032 -0.420011 -9.05399e-21)
(0.0597519 -0.496083 -5.23058e-21)
(0.0486352 -0.592813 -6.17047e-23)
(0.0360602 -0.709544 -8.63313e-21)
(0.0233504 -0.838324 -1.43165e-21)
(0.00791901 -0.929368 -7.85646e-21)
(0.192662 -0.036074 3.34921e-20)
(0.117051 -0.224881 -1.15401e-20)
(0.101253 -0.314907 7.90936e-22)
(0.0979364 -0.365402 -8.67895e-21)
(0.0867053 -0.411376 0)
(0.0656562 -0.486898 -5.48031e-21)
(0.0526975 -0.585091 -3.72409e-22)
(0.0393131 -0.702749 1.18066e-20)
(0.0253911 -0.832534 1.63575e-21)
(0.00868321 -0.924336 -1.64154e-21)
(0.21607 -0.0103524 2.54799e-21)
(0.136117 -0.197217 2.0314e-20)
(0.113316 -0.303147 9.05876e-21)
(0.107819 -0.358296 -9.05288e-21)
(0.0943966 -0.401259 -5.29783e-21)
(0.0721365 -0.476134 0)
(0.0572818 -0.575509 -1.21963e-20)
(0.0430409 -0.694058 6.08721e-21)
(0.0278105 -0.825099 6.50135e-21)
(0.00957718 -0.918391 7.09621e-21)
(0.238393 0.0135541 -4.85985e-21)
(0.159256 -0.165508 0)
(0.127227 -0.28824 0)
(0.118479 -0.349897 0)
(0.102677 -0.390502 -5.92648e-21)
(0.078995 -0.464884 1.12056e-20)
(0.0621082 -0.565899 1.24529e-20)
(0.0467346 -0.68609 -1.95253e-20)
(0.0301208 -0.818381 3.53501e-21)
(0.010468 -0.9127 -1.05298e-20)
(0.258078 0.0359267 -1.21899e-20)
(0.186286 -0.131089 1.84831e-20)
(0.143895 -0.269086 -1.83249e-20)
(0.130105 -0.338502 2.18451e-20)
(0.111999 -0.377931 -2.74518e-20)
(0.0866207 -0.451358 0)
(0.0677935 -0.553112 -6.57146e-21)
(0.0512561 -0.674619 -2.97265e-22)
(0.0330718 -0.808861 -7.36615e-21)
(0.0114879 -0.905528 -7.58732e-21)
(0.273715 0.0545129 -5.43605e-21)
(0.215789 -0.0946407 0)
(0.164474 -0.246937 -2.36311e-20)
(0.141411 -0.327626 4.37376e-20)
(0.120936 -0.367215 -1.6776e-20)
(0.0941791 -0.439844 -3.20147e-21)
(0.0732169 -0.543431 6.55755e-21)
(0.055239 -0.666794 -3.81265e-22)
(0.0356148 -0.801946 1.07053e-20)
(0.0125182 -0.899375 1.12177e-20)
(0.284119 0.0685409 -2.37562e-20)
(0.245666 -0.0563263 2.26095e-20)
(0.190854 -0.214457 2.58152e-21)
(0.155039 -0.308205 0)
(0.132655 -0.351201 0)
(0.103627 -0.422061 3.09724e-21)
(0.080694 -0.525613 1.3677e-20)
(0.0609498 -0.651147 -1.32362e-20)
(0.0392994 -0.789707 -3.62767e-21)
(0.0136576 -0.890552 3.53372e-21)
(0.294865 0.11368 0)
(0.300803 -0.0111024 0)
(0.217716 -0.178288 0)
(0.16777 -0.293532 0)
(0.149127 -0.33922 0)
(0.121175 -0.407065 0)
(0.0933848 -0.51436 0)
(0.0705415 -0.640164 0)
(0.0458704 -0.775805 0)
(0.0165321 -0.875533 0)
(0.353214 0.0983747 0)
(0.360234 0.0107799 0)
(0.288397 -0.113748 0)
(0.21807 -0.248366 0)
(0.176161 -0.316653 0)
(0.155581 -0.381685 0)
(0.123127 -0.486023 0)
(0.0902046 -0.615086 0)
(0.0585271 -0.744643 0)
(0.020277 -0.835728 0)
(0.389818 0.105933 0)
(0.403992 0.0437586 0)
(0.358796 -0.0538662 0)
(0.292527 -0.182348 0)
(0.225008 -0.278308 0)
(0.193637 -0.355009 0)
(0.158889 -0.453599 0)
(0.118131 -0.581846 0)
(0.077671 -0.706362 0)
(0.0241634 -0.79714 0)
(0.408132 0.0889792 0)
(0.431254 0.0494278 0)
(0.414946 -0.0126916 0)
(0.370644 -0.116012 0)
(0.299947 -0.221027 0)
(0.247507 -0.316984 0)
(0.201563 -0.419653 0)
(0.151145 -0.542299 0)
(0.0995906 -0.65532 0)
(0.0367423 -0.731924 0)
(0.409465 0.0640347 0)
(0.436859 0.0389659 0)
(0.442535 0.00225818 0)
(0.426668 -0.0672962 0)
(0.376506 -0.156109 0)
(0.316854 -0.255689 0)
(0.255637 -0.363641 0)
(0.187448 -0.481133 0)
(0.11817 -0.588844 0)
(0.0400032 -0.658836 0)
(0.402313 0.0360926 0)
(0.427935 0.0173469 0)
(0.442677 -0.00632651 0)
(0.446038 -0.0504735 0)
(0.422951 -0.113704 0)
(0.376843 -0.197059 0)
(0.314015 -0.298174 0)
(0.231775 -0.406307 0)
(0.1443 -0.502403 0)
(0.0495556 -0.557935 0)
(0.391372 0.0154972 0)
(0.41248 0.00117328 0)
(0.426059 -0.0151063 0)
(0.433519 -0.0426425 0)
(0.424152 -0.0826946 0)
(0.392872 -0.138588 0)
(0.340228 -0.214219 0)
(0.258238 -0.302463 0)
(0.15849 -0.388965 0)
(0.046531 -0.460716 0)
(0.381259 -0.010649 0)
(0.399872 -0.0210133 0)
(0.407687 -0.0343377 0)
(0.415087 -0.0540073 0)
(0.409008 -0.0823452 0)
(0.386663 -0.118608 0)
(0.344798 -0.170012 0)
(0.27362 -0.233356 0)
(0.178268 -0.29194 0)
(0.0838105 -0.329753 0)
(0.402847 -0.0124375 0)
(0.415401 -0.0173915 0)
(0.396743 -0.024864 0)
(0.392911 -0.0344401 0)
(0.367462 -0.0483954 0)
(0.334907 -0.0665563 0)
(0.2837 -0.0915536 0)
(0.215457 -0.123588 0)
(0.116232 -0.163967 0)
(0.0105723 -0.22454 0)
(0.686489 -0.0147877 0)
(0.680106 -0.0194783 0)
(0.652923 -0.0251104 0)
(0.632602 -0.0318531 0)
(0.59044 -0.0405436 0)
(0.54515 -0.0520632 0)
(0.475735 -0.0660373 0)
(0.3868 -0.0850977 0)
(0.264425 -0.116505 0)
(0.174693 -0.172605 0)
(0.330003 0.123696 3.42557e-20)
(0.375752 0.112594 -3.34091e-20)
(0.399039 0.112402 4.99434e-21)
(0.407258 0.0884901 0)
(0.402384 0.0638852 0)
(0.392503 0.0377095 6.28053e-21)
(0.381529 0.017515 -2.67216e-20)
(0.374993 -0.007545 2.61787e-20)
(0.414801 -0.00981642 6.77875e-21)
(0.699366 -0.0125188 -6.90399e-21)
(0.336178 0.125708 -3.78489e-20)
(0.37445 0.11643 0)
(0.392191 0.112891 3.38999e-20)
(0.398068 0.0873967 -7.96149e-20)
(0.392952 0.0636533 5.21227e-20)
(0.384147 0.038333 -5.75782e-21)
(0.374833 0.0183539 1.2026e-20)
(0.371199 -0.00626708 2.48351e-20)
(0.419011 -0.00870621 6.31238e-21)
(0.703985 -0.0115472 6.25994e-21)
(0.340943 0.12798 4.5376e-20)
(0.371236 0.119391 -3.5649e-20)
(0.382695 0.112233 3.53254e-20)
(0.385563 0.0858814 -4.22966e-20)
(0.380649 0.0630925 3.11134e-20)
(0.373581 0.0385495 0)
(0.366624 0.0188171 -1.20554e-20)
(0.366724 -0.00528236 -6.39676e-23)
(0.422456 -0.00771296 -1.25137e-20)
(0.708266 -0.0105789 -1.26441e-20)
(0.34529 0.129913 -7.56639e-21)
(0.370075 0.121441 0)
(0.376469 0.111194 0)
(0.376226 0.0846494 0)
(0.370935 0.0626241 3.36795e-20)
(0.364691 0.0386432 -2.25728e-20)
(0.35936 0.0190738 -2.14413e-22)
(0.362799 -0.00446687 -1.26232e-20)
(0.425571 -0.00688052 -6.31012e-21)
(0.712558 -0.00967705 -6.32387e-21)
(0.34798 0.131208 2.48613e-21)
(0.368204 0.122486 -2.37619e-20)
(0.371198 0.110041 -1.96206e-20)
(0.368818 0.0839358 1.9614e-20)
(0.363206 0.0624836 -1.09615e-20)
(0.357314 0.038868 0)
(0.353043 0.0193452 -1.20861e-20)
(0.359426 -0.00366073 2.49484e-20)
(0.428443 -0.00619324 -1.24869e-20)
(0.716706 -0.008877 1.27556e-20)
(0.349011 0.132176 -6.30011e-20)
(0.36426 0.12289 6.15032e-21)
(0.364789 0.108938 -1.58598e-21)
(0.361195 0.0836755 1.96657e-20)
(0.355718 0.0626367 0)
(0.350271 0.0392692 0)
(0.346975 0.0197112 0)
(0.356206 -0.00281041 1.23828e-20)
(0.43093 -0.00562533 0)
(0.720495 -0.00818162 0)
(0.348863 0.133221 0)
(0.358868 0.123222 2.67504e-20)
(0.357358 0.108157 -1.81413e-20)
(0.352926 0.0838255 -2.11642e-20)
(0.347846 0.0630109 2.12774e-20)
(0.342995 0.0398098 1.17721e-20)
(0.34077 0.0201637 -1.16711e-20)
(0.352863 -0.00192666 -4.32761e-20)
(0.432857 -0.00515464 3.10062e-21)
(0.723807 -0.00757846 -9.52523e-21)
(0.347748 0.134651 0)
(0.352785 0.123924 -8.6351e-21)
(0.349632 0.107936 -4.77254e-21)
(0.344474 0.0844103 0)
(0.339778 0.0636061 5.73534e-21)
(0.335529 0.0404804 -1.70997e-20)
(0.334411 0.0206953 1.8107e-20)
(0.349307 -0.00101909 6.28713e-21)
(0.434118 -0.00476243 -6.26926e-21)
(0.726629 -0.00705368 1.27766e-20)
(0.345701 0.136721 7.57074e-21)
(0.346304 0.12524 9.1136e-21)
(0.341927 0.108394 -2.03779e-21)
(0.336163 0.0854481 2.58508e-21)
(0.331754 0.0644596 5.49094e-21)
(0.328039 0.0413058 8.67196e-21)
(0.327971 0.0213221 -2.99647e-21)
(0.34551 -7.75272e-05 -3.08239e-21)
(0.434632 -0.00442813 6.28992e-21)
(0.728981 -0.00659889 3.16994e-21)
(0.342726 0.139666 -2.09003e-21)
(0.339493 0.127286 2.10046e-21)
(0.334216 0.109561 -2.39292e-21)
(0.328014 0.0869269 -2.58187e-21)