/*--------------------------------*- C++ -*----------------------------------*\
  =========                 |
  \\      /  F ield         | OpenFOAM: The Open Source CFD Toolbox
   \\    /   O peration     | Website:  https://openfoam.org
    \\  /    A nd           | Version:  7
     \\/     M anipulation  |
\*---------------------------------------------------------------------------*/
FoamFile
{
    version     2.0;
    format      ascii;
    class       volVectorField;
    location    "4";
    object      U;
}
// * * * * * * * * * * * * * * * * * * * * * * * * * * * * * * * * * * * * * //

dimensions      [0 1 -1 0 0 0 0];

internalField   nonuniform List<vector> 
32000
(
(-0.000620551 0.0129512 -6.19744e-22)
(-0.00331787 0.0379324 0)
(-0.00790035 0.0621865 -5.51793e-21)
(-0.013204 0.0848105 0)
(-0.0189163 0.105496 5.74443e-21)
(-0.0246997 0.124228 0)
(-0.0303163 0.141118 5.93769e-21)
(-0.0355902 0.156322 -4.51515e-21)
(-0.0403966 0.170007 1.98299e-24)
(-0.0446493 0.182315 2.27759e-24)
(-0.0482915 0.193362 -1.55813e-21)
(-0.051288 0.203231 6.2907e-21)
(-0.0536216 0.21198 0)
(-0.0552915 0.219645 -1.59954e-21)
(-0.0563066 0.226248 1.60619e-21)
(-0.056682 0.231806 0)
(-0.0564382 0.236333 8.11959e-21)
(-0.0555988 0.239848 -1.62927e-21)
(-0.0541892 0.242372 0)
(-0.0522361 0.243934 3.28812e-21)
(-0.0497666 0.244572 3.2877e-21)
(-0.0468078 0.244329 0)
(-0.0433867 0.243256 0)
(-0.0395308 0.24141 0)
(-0.0352665 0.238852 0)
(-0.0306195 0.23565 0)
(-0.0256147 0.231871 0)
(-0.020277 0.227586 0)
(-0.0146317 0.222865 -6.57635e-21)
(-0.00870441 0.21778 0)
(-0.00252164 0.212403 6.55046e-21)
(0.00388913 0.206804 0)
(0.0104987 0.201051 0)
(0.0172761 0.195211 0)
(0.024187 0.18935 -6.47372e-21)
(0.0311911 0.183531 -3.23571e-21)
(0.0382438 0.177817 9.66194e-21)
(0.0453121 0.172262 -7.5779e-24)
(0.0523498 0.166988 6.39014e-21)
(0.0590873 0.162158 -1.03863e-23)
(-0.000881171 0.0135914 0)
(-0.00402454 0.0394104 1.07647e-20)
(-0.00897374 0.0642265 2.75985e-21)
(-0.0145894 0.0872219 -1.69664e-25)
(-0.0205715 0.108124 -2.87337e-21)
(-0.0265949 0.126945 0)
(-0.0324321 0.143818 5.92339e-21)
(-0.0379138 0.158915 -6.00798e-21)
(-0.0429179 0.172416 0)
(-0.0473605 0.18448 -1.23241e-20)
(-0.051186 0.195232 0)
(-0.054359 0.204767 -1.88533e-20)
(-0.0568615 0.213151 0)
(-0.0586907 0.220427 0)
(-0.0598536 0.226624 6.4282e-21)
(-0.0603644 0.231763 -6.44898e-21)
(-0.0602417 0.235862 -6.49217e-21)
(-0.0595074 0.238942 0)
(-0.0581858 0.241029 1.95962e-20)
(-0.0563024 0.242153 -6.54326e-21)
(-0.0538829 0.242353 7.71017e-25)
(-0.0509532 0.241675 -1.97014e-20)
(-0.0475401 0.240169 -1.3147e-20)
(-0.0436695 0.237895 -6.59596e-21)
(-0.039367 0.234915 1.97329e-20)
(-0.0346586 0.231296 -1.9744e-20)
(-0.0295697 0.227108 1.97521e-20)
(-0.024125 0.222422 -2.62527e-20)
(-0.0183498 0.217312 -6.52633e-21)
(-0.0122704 0.211852 4.30694e-23)
(-0.00591471 0.206114 -1.95646e-20)
(0.000688678 0.200172 -1.30251e-20)
(0.00750951 0.194099 2.59962e-20)
(0.014515 0.187966 -2.5883e-20)
(0.0216685 0.181845 -6.41647e-21)
(0.0289279 0.175807 -2.57273e-20)
(0.0362463 0.169923 1.57911e-23)
(0.0435862 0.164256 6.38175e-21)
(0.0508927 0.158945 -2.5378e-20)
(0.0578897 0.154162 -3.65568e-20)
(-0.00115929 0.0141819 -2.47029e-21)
(-0.0047552 0.0407578 -5.38414e-21)
(-0.0100565 0.0661126 -2.47652e-20)
(-0.0159572 0.0894716 0)
(-0.0221722 0.110593 2.86734e-21)
(-0.0283928 0.129512 -2.91615e-21)
(-0.0344028 0.146379 -3.55515e-20)
(-0.0400413 0.161384 1.2029e-20)
(-0.0451909 0.174718 -6.09235e-21)
(-0.0497724 0.186552 3.69334e-20)
(-0.0537307 0.197023 1.2443e-20)
(-0.0570285 0.206236 6.29071e-21)
(-0.0596483 0.214266 -2.52927e-20)
(-0.0615863 0.221163 0)
(-0.0628479 0.226961 0)
(-0.0634453 0.231687 1.29038e-20)
(-0.0633963 0.235363 2.87671e-23)
(-0.0627212 0.238014 -1.29833e-20)
(-0.0614424 0.239666 -1.30536e-20)
(-0.0595845 0.240353 -2.61128e-20)
(-0.0571725 0.240116 3.92754e-20)
(-0.0542311 0.239 3.42395e-23)
(-0.0507856 0.237059 2.32522e-24)
(-0.0468621 0.234352 1.31163e-20)
(-0.0424862 0.230944 -2.63036e-20)
(-0.0376834 0.226902 5.24648e-20)
(-0.0324791 0.222297 0)
(-0.0268983 0.217203 1.31229e-20)
(-0.0209673 0.211694 1.31023e-20)
(-0.0147135 0.205846 2.6144e-20)
(-0.00816538 0.199736 4.29731e-23)
(-0.00135281 0.19344 0)
(0.00569245 0.187035 1.29495e-20)
(0.0129358 0.180597 -1.28477e-20)
(0.0203389 0.174203 -1.27718e-20)
(0.0278578 0.167934 3.84938e-20)
(0.0354424 0.161868 -3.81655e-20)
(0.0430527 0.156083 2.54388e-20)
(0.0506255 0.150728 -3.78339e-20)
(0.0578767 0.145992 1.44841e-20)
(-0.00145499 0.0147572 1.97335e-20)
(-0.00551299 0.0420755 -2.14729e-20)
(-0.0111533 0.0679413 4.39942e-20)
(-0.017315 0.0916447 0)
(-0.0237284 0.112975 1.71628e-20)
(-0.0301038 0.131989 2.91188e-20)
(-0.0362394 0.148853 5.95042e-21)
(-0.0419843 0.16377 6.3355e-24)
(-0.0472277 0.176942 1.82313e-20)
(-0.0518929 0.188553 -6.18588e-21)
(-0.0559271 0.198751 3.10453e-20)
(-0.0592949 0.207651 -3.76069e-20)
(-0.0619775 0.215334 3.79193e-20)
(-0.06397 0.221858 -1.27358e-20)
(-0.0652767 0.227265 1.27889e-20)
(-0.0659085 0.231584 -2.57094e-20)
(-0.0658812 0.234844 -3.8757e-20)
(-0.0652141 0.237069 1.29569e-20)
(-0.0639288 0.238291 -1.30239e-20)
(-0.0620485 0.238545 3.91381e-20)
(-0.0595971 0.237872 -2.61609e-20)
(-0.0565986 0.236321 -2.61195e-20)
(-0.0530782 0.233945 0)
(-0.0490609 0.230805 0)
(-0.0445721 0.226966 -2.61301e-20)
(-0.039638 0.222498 -2.6206e-20)
(-0.0342843 0.217471 -2.60816e-20)
(-0.0285367 0.211963 0)
(-0.0224222 0.206048 0)
(-0.0159692 0.199807 -5.19596e-20)
(-0.00920762 0.193317 -5.99114e-23)
(-0.00216848 0.186658 2.59161e-20)
(0.00511486 0.179911 -2.57498e-20)
(0.0126061 0.173158 -2.57211e-20)
(0.0202653 0.166482 2.56957e-20)
(0.0280467 0.15997 0)
(0.0358979 0.153713 2.54607e-20)
(0.0437762 0.147799 -5.05422e-20)
(0.0516113 0.142396 5.03907e-20)
(0.0591093 0.137706 -5.78426e-20)
(-0.00176549 0.0152791 -9.87644e-21)
(-0.00629091 0.0432765 1.61049e-20)
(-0.0122553 0.0696194 -2.19826e-20)
(-0.0186509 0.0936503 0)
(-0.0252269 0.115184 -2.86108e-20)
(-0.0317157 0.134297 -1.74751e-20)
(-0.0379298 0.151167 2.36631e-20)
(-0.0437301 0.166009 0)
(-0.0490137 0.179037 -3.64626e-20)
(-0.0537086 0.190442 -1.23088e-20)
(-0.057764 0.200382 -1.24175e-20)
(-0.0611455 0.208983 2.50768e-20)
(-0.0638348 0.216333 -2.52367e-20)
(-0.0658263 0.222498 1.26936e-20)
(-0.0671227 0.227525 0)
(-0.0677336 0.23145 3.85635e-20)
(-0.0676742 0.234302 1.2935e-20)
(-0.0669622 0.236112 -2.591e-20)
(-0.065618 0.236912 5.19147e-20)
(-0.0636641 0.236739 -5.20274e-20)
(-0.0611237 0.235636 5.20447e-20)
(-0.0580202 0.233653 2.61192e-20)
(-0.0543779 0.230846 0)
(-0.0502222 0.227275 2.61232e-20)
(-0.0455788 0.223007 7.48482e-23)
(-0.0404741 0.218111 0)
(-0.0349344 0.212662 2.60813e-20)
(-0.0289864 0.206738 -2.60183e-20)
(-0.0226583 0.200416 2.591e-20)
(-0.0159799 0.193776 5.18447e-20)
(-0.00898219 0.186902 -5.16262e-20)
(-0.00169801 0.179876 5.15094e-20)
(0.0058377 0.172782 0)
(0.0135871 0.165707 0)
(0.0215087 0.158741 5.0953e-20)
(0.0295552 0.151979 0)
(0.0376723 0.14552 0)
(0.0458146 0.13947 -5.02469e-20)
(0.0539064 0.134009 5.00517e-20)
(0.0616422 0.129363 2.88176e-20)
(-0.00208943 0.0157629 4.9224e-21)
(-0.00708624 0.0443883 0)
(-0.0133588 0.0711743 4.38455e-20)
(-0.0199638 0.0955119 5.60333e-21)
(-0.0266686 0.11724 5.71602e-21)
(-0.0332292 0.136452 3.48472e-20)
(-0.0394759 0.153335 4.7207e-20)
(-0.045282 0.168112 0)
(-0.0505531 0.181006 1.21381e-20)
(-0.0552221 0.192219 3.67802e-20)
(-0.0592421 0.201917 4.95337e-20)
(-0.0625802 0.210232 -1.25108e-20)
(-0.0652182 0.217264 -3.7764e-20)
(-0.0671501 0.223084 0)
(-0.0683782 0.227744 5.09752e-20)
(-0.068911 0.231285 0)
(-0.068762 0.233741 7.71867e-20)
(-0.0679484 0.235146 -2.58026e-20)
(-0.06649 0.235533 0)
(-0.0644083 0.234942 -2.59688e-20)
(-0.0617257 0.233418 -6.1376e-23)
(-0.0584653 0.231011 -2.58946e-20)
(-0.0546517 0.227778 -2.59836e-20)
(-0.0503103 0.223782 2.60306e-20)
(-0.0454674 0.219088 -2.59625e-20)
(-0.0401499 0.21377 0)
(-0.0343851 0.207902 -2.5953e-20)
(-0.0282011 0.201564 2.58539e-20)
(-0.0216274 0.194835 0)
(-0.0146955 0.1878 0)
(-0.00743787 0.180543 0)
(0.00011078 0.173149 -5.12868e-20)
(0.00791366 0.165706 5.10155e-20)
(0.0159317 0.158307 0)
(0.024122 0.151046 -2.54135e-20)
(0.0324355 0.144027 0)
(0.0408163 0.13736 5.03358e-20)
(0.0492169 0.131163 -2.49215e-20)
(0.0575581 0.125638 -4.98788e-20)
(0.0655205 0.121032 5.70691e-20)
(-0.00242395 0.0161952 3.43718e-20)
(-0.00789438 0.0453867 -4.81103e-20)
(-0.0144593 0.0725754 -8.21506e-20)
(-0.0212473 0.0971963 -4.47264e-20)
(-0.0280467 0.11911 -1.14115e-20)
(-0.0346395 0.138421 -2.32479e-20)
(-0.0408736 0.155322 -1.0614e-19)
(-0.0466356 0.170047 -3.58482e-20)
(-0.0518413 0.182823 -6.05333e-20)
(-0.0564296 0.19386 -6.13001e-20)
(-0.0603571 0.203332 -8.66274e-20)
(-0.063593 0.211381 -4.9893e-20)
(-0.0661205 0.218111 8.13352e-23)
(-0.0679336 0.223601 -5.05991e-20)
(-0.0690337 0.22791 -5.09744e-20)
(-0.0694284 0.231083 -7.67202e-20)
(-0.0691307 0.233158 5.12571e-20)
(-0.0681572 0.23417 -2.57446e-20)
(-0.0665267 0.234158 0)
(-0.0642602 0.233161 5.16753e-20)
(-0.0613798 0.231227 0)
(-0.0579087 0.228407 1.03676e-19)
(-0.0538719 0.224759 0)
(-0.0492953 0.220345 -2.59356e-20)
(-0.0442058 0.215235 2.60146e-20)
(-0.0386314 0.209502 -5.16723e-20)
(-0.0326007 0.203222 0)
(-0.0261434 0.196477 -5.15868e-20)
(-0.0192907 0.18935 5.13722e-20)
(-0.012076 0.181924 0)
(-0.00453381 0.174288 0)
(0.00329938 0.166531 0)
(0.0113851 0.158743 -5.06835e-20)
(0.0196825 0.151021 0)
(0.0281473 0.143466 -5.04866e-20)
(0.0367293 0.136187 1.00471e-19)
(0.0453708 0.129305 -1.00046e-19)
(0.0540225 0.122954 4.95762e-20)
(0.0626037 0.117356 9.91406e-20)
(0.0707797 0.112784 -5.66793e-20)
(-0.00276693 0.0165742 -4.4193e-20)
(-0.0087108 0.0462629 6.42237e-23)
(-0.0155512 0.0738118 4.37822e-20)
(-0.022497 0.0986912 8.9389e-20)
(-0.029358 0.120779 -1.1396e-20)
(-0.0359434 0.140186 -4.6352e-20)
(-0.0421204 0.157114 4.71336e-20)
(-0.0477897 0.171797 7.17086e-20)
(-0.0528777 0.184471 2.42283e-20)
(-0.0573298 0.195349 6.11298e-20)
(-0.0611072 0.204615 4.94604e-20)
(-0.0641822 0.212415 7.47643e-20)
(-0.0665394 0.218861 1.50687e-19)
(-0.0681727 0.224041 7.58463e-20)
(-0.0690836 0.228016 0)
(-0.0692793 0.230838 2.55663e-20)
(-0.0687721 0.232548 2.54958e-20)
(-0.0675781 0.233185 2.56227e-20)
(-0.0657159 0.232788 5.15217e-20)
(-0.0632058 0.231401 -2.59281e-20)
(-0.0600703 0.229071 0)
(-0.0563329 0.225851 -1.67622e-22)
(-0.0520193 0.221801 -5.15756e-20)
(-0.0471561 0.216984 5.15401e-20)
(-0.0417715 0.21147 1.03165e-19)
(-0.0358947 0.205334 1.02958e-19)
(-0.0295558 0.198654 -6.79974e-23)
(-0.0227866 0.191514 5.1194e-20)
(-0.0156207 0.183998 5.10648e-20)
(-0.00809315 0.176194 -5.09216e-20)
(-0.000240823 0.16819 5.07659e-20)
(0.00789763 0.160078 5.05988e-20)
(0.0162819 0.151954 1.01104e-19)
(0.0248695 0.143916 -1.80383e-22)
(0.0336148 0.13607 1.5038e-19)
(0.0424662 0.128531 -8.95141e-23)
(0.0513644 0.121432 -4.96172e-20)
(0.0602589 0.114921 -4.96672e-20)
(0.0690694 0.109241 4.91669e-20)
(0.0774445 0.104696 5.61614e-20)
(-0.00311517 0.0168955 3.91568e-20)
(-0.00953001 0.0470089 5.33621e-20)
(-0.016629 0.0748712 3.27316e-20)
(-0.0237079 0.0999804 -3.35023e-20)
(-0.0305989 0.122228 -5.68474e-20)
(-0.0371389 0.14173 4.63429e-20)
(-0.0432156 0.15869 0)
(-0.0487444 0.173344 4.7685e-20)
(-0.0536628 0.185931 0)
(-0.057924 0.196669 -9.77323e-20)
(-0.0614943 0.205747 2.46885e-20)
(-0.0643493 0.213318 -1.24421e-19)
(-0.0664754 0.219502 -5.01865e-20)
(-0.0678676 0.224391 2.51551e-20)
(-0.0685274 0.228053 2.9858e-23)
(-0.0684618 0.230543 -2.54634e-20)
(-0.0676831 0.231907 -5.11963e-20)
(-0.0662072 0.232187 -1.02561e-19)
(-0.0640522 0.231424 0)
(-0.0612387 0.229664 -4.1512e-23)
(-0.0577894 0.226955 -5.14606e-20)
(-0.0537289 0.223353 -5.15863e-20)
(-0.0490838 0.218917 5.15747e-20)
(-0.0438819 0.213713 -5.16715e-20)
(-0.0381526 0.207812 5.12806e-20)
(-0.0319269 0.201289 -1.02664e-19)
(-0.025237 0.194227 -7.25264e-23)
(-0.0181169 0.186708 -1.02232e-19)
(-0.0106026 0.17882 -5.10638e-20)
(-0.00273186 0.170652 8.17965e-23)
(0.00545633 0.162295 -1.68588e-22)
(0.0139211 0.153844 -5.05979e-20)
(0.02262 0.145397 -5.04202e-20)
(0.0315086 0.137054 -2.68858e-22)
(0.04054 0.128926 -5.0036e-20)
(0.0496615 0.121135 -2.73328e-22)
(0.0588121 0.113819 -4.94324e-20)
(0.06794 0.107143 1.47549e-19)
(0.0769675 0.101374 -4.9166e-20)
(0.0855262 0.0968464 -5.60516e-20)
(-0.0034654 0.0171569 -3.91536e-20)
(-0.010346 0.047617 1.06523e-20)
(-0.0176873 0.0757423 -3.27464e-20)
(-0.0248756 0.10105 -1.11401e-20)
(-0.0317663 0.123442 4.5473e-20)
(-0.0382248 0.143035 -1.15664e-20)
(-0.0441596 0.160031 1.17408e-20)
(-0.0495014 0.174667 -7.15216e-20)
(-0.0541997 0.187182 2.41152e-20)
(-0.0582162 0.197799 4.883e-20)
(-0.0615228 0.20671 0)
(-0.064099 0.214074 9.93866e-20)
(-0.0659336 0.220018 0)
(-0.067023 0.224637 -1.0074e-19)
(-0.0673694 0.228007 -5.0583e-20)
(-0.06698 0.230188 0)
(-0.0658673 0.231227 0)
(-0.0640472 0.23117 1.02306e-19)
(-0.0615379 0.230062 5.12727e-20)
(-0.0583605 0.227949 -1.02611e-19)
(-0.0545384 0.224883 5.13056e-20)
(-0.0500977 0.220919 0)
(-0.045066 0.216118 -5.13307e-20)
(-0.0394727 0.210547 1.02306e-19)
(-0.033349 0.204279 -5.11455e-20)
(-0.0267279 0.197392 -5.1114e-20)
(-0.019644 0.189967 5.09378e-20)
(-0.0121341 0.18209 0)
(-0.00423673 0.17385 1.01316e-19)
(0.00400776 0.165339 -5.05098e-20)
(0.0125577 0.156651 -5.04201e-20)
(0.0213696 0.147881 -7.98681e-23)
(0.0303989 0.139128 1.99991e-19)
(0.0395992 0.130498 -1.49535e-19)
(0.0489223 0.122103 0)
(0.058314 0.114068 -4.95562e-20)
(0.0677119 0.106542 -9.84937e-20)
(0.077063 0.0997004 4.87568e-20)
(0.0862943 0.0938349 4.86155e-20)
(0.0950204 0.0893165 0)
(-0.00381449 0.0173563 -7.80446e-20)
(-0.0111529 0.0480813 -1.06346e-20)
(-0.0187201 0.0764161 8.70373e-20)
(-0.0259956 0.101889 -8.89319e-20)
(-0.0328578 0.124406 0)
(-0.0392008 0.144082 0)
(-0.0449539 0.161118 -2.34685e-20)
(-0.0500645 0.175746 -2.22509e-23)
(-0.054494 0.188205 2.40804e-20)
(-0.0582132 0.198719 0)
(-0.0612003 0.207484 0)
(-0.0634397 0.214664 -2.48346e-20)
(-0.064923 0.22039 2.35082e-23)
(-0.0656485 0.224763 2.51965e-20)
(-0.0656195 0.227865 5.05821e-20)
(-0.0648439 0.229759 0)
(-0.0633348 0.230496 5.09242e-20)
(-0.0611085 0.230126 -5.10472e-20)
(-0.0581835 0.228696 -1.02215e-19)
(-0.0545817 0.226255 1.0231e-19)
(-0.0503283 0.222855 4.20913e-23)
(-0.0454505 0.218552 -5.11356e-20)
(-0.0399776 0.21341 5.11407e-20)
(-0.0339407 0.207497 -1.02182e-19)
(-0.0273734 0.200887 0)
(-0.0203111 0.193659 5.08915e-20)
(-0.0127912 0.185896 -1.01487e-19)
(-0.0048532 0.177687 5.05775e-20)
(0.00346138 0.169122 -5.05777e-20)
(0.0121092 0.160294 -5.03278e-20)
(0.0210458 0.151298 -5.02274e-20)
(0.0302252 0.142234 1.99766e-19)
(0.0396002 0.133201 -1.49313e-19)
(0.0491225 0.124306 -9.91902e-20)
(0.058742 0.115663 9.86219e-20)
(0.0684037 0.107401 0)
(0.0780434 0.0996737 9.79356e-20)
(0.0876068 0.0926702 -9.73219e-20)
(0.0970279 0.0867047 -4.86146e-20)
(0.105905 0.0821861 0)
(-0.00415911 0.0174924 1.65691e-19)
(-0.0119445 0.0483977 7.42335e-20)
(-0.0197219 0.0768852 -8.70366e-20)
(-0.0270639 0.102486 7.78199e-20)
(-0.0338716 0.125106 -1.13386e-20)
(-0.0400672 0.144858 2.3048e-20)
(-0.0456017 0.161933 0)
(-0.0504388 0.176561 -2.37681e-20)
(-0.0545528 0.188978 2.40451e-20)
(-0.057924 0.199408 2.43348e-20)
(-0.0605379 0.208048 -2.45478e-20)
(-0.0623838 0.215066 -2.47754e-20)
(-0.0634573 0.220598 2.4931e-20)
(-0.0637587 0.224751 0)
(-0.0632931 0.22761 0)
(-0.0620699 0.229241 -5.06478e-20)
(-0.060103 0.229703 5.07675e-20)
(-0.0574091 0.229045 -5.09111e-20)
(-0.0540079 0.227319 5.09528e-20)
(-0.0499227 0.224575 5.10195e-20)
(-0.0451803 0.220866 -1.02018e-19)
(-0.0398098 0.216252 1.01969e-19)
(-0.0338422 0.210796 3.37995e-23)
(-0.0273111 0.204569 -5.08412e-20)
(-0.0202526 0.197645 0)
(-0.0127049 0.190105 5.06689e-20)
(-0.00470826 0.182034 4.48728e-23)
(0.00369459 0.173522 -5.03461e-20)
(0.0124589 0.164661 0)
(0.0215383 0.155546 1.00143e-19)
(0.0308853 0.146275 -9.96654e-20)
(0.0404511 0.136945 0)
(0.0501859 0.127661 9.90367e-20)
(0.0600393 0.118528 -9.84902e-20)
(0.0699596 0.109663 0)
(0.0798903 0.101196 0)
(0.0897656 0.0932829 0)
(0.0995299 0.086125 -9.69354e-20)
(0.109126 0.0800589 9.63133e-20)
(0.118137 0.0755321 1.09184e-19)
(-0.00449613 0.0175648 -7.79031e-20)
(-0.0127151 0.0485639 -8.48495e-20)
(-0.0206872 0.0771442 -1.0856e-20)
(-0.0280767 0.102832 3.32774e-20)
(-0.0348062 0.125532 -4.52419e-20)
(-0.0408256 0.145346 4.60461e-20)
(-0.0461071 0.16246 -4.67798e-20)
(-0.0506314 0.177094 -7.11073e-20)
(-0.0543857 0.189482 0)
(-0.0573607 0.199844 -2.42969e-20)
(-0.0595495 0.20838 2.45096e-20)
(-0.0609475 0.21526 0)
(-0.0615542 0.220623 4.98131e-20)
(-0.0613732 0.22458 -5.00712e-20)
(-0.0604117 0.227221 -1.50904e-19)
(-0.058681 0.228618 -2.71927e-23)
(-0.0561962 0.22883 1.01331e-19)
(-0.0529753 0.227913 -5.07565e-20)
(-0.0490392 0.225918 0)
(-0.0444134 0.222899 0)
(-0.0391264 0.218912 1.01538e-19)
(-0.0332095 0.214016 5.08227e-20)
(-0.026696 0.208276 -5.07393e-20)
(-0.0196223 0.201765 -5.06768e-20)
(-0.0120272 0.194559 1.01116e-19)
(-0.00395217 0.186739 -5.04172e-20)
(0.0045593 0.178394 1.00616e-19)
(0.0134613 0.169613 -2.00543e-19)
(0.0227055 0.16049 1.99875e-19)
(0.0322424 0.151123 -1.99168e-19)
(0.0420213 0.141609 1.98426e-19)
(0.0519906 0.132049 -1.97656e-19)
(0.0620978 0.122547 9.83651e-20)
(0.0722901 0.11321 9.8092e-20)
(0.0825139 0.104152 1.48301e-22)
(0.0927117 0.095506 1.54863e-22)
(0.102816 0.0874291 -9.66612e-20)
(0.112769 0.0801301 3.57399e-22)
(0.122525 0.0739669 -9.57622e-20)
(0.131654 0.0694259 0)
(-0.00482252 0.0175736 9.71154e-21)
(-0.0134592 0.0485788 -1.05813e-20)
(-0.021611 0.07719 3.25125e-20)
(-0.0290307 0.102921 -4.4297e-20)
(-0.0356608 0.125672 2.25785e-20)
(-0.041478 0.145534 0)
(-0.0464754 0.162681 0)
(-0.0506506 0.177326 9.48177e-20)
(-0.0540041 0.189694 1.19862e-19)
(-0.0565375 0.200005 -2.42385e-20)
(-0.0582522 0.208457 1.22338e-19)
(-0.0591503 0.215221 -2.46732e-20)
(-0.0592361 0.22044 0)
(-0.0585167 0.224228 0)
(-0.0570024 0.226679 1.00558e-19)
(-0.0547067 0.227868 0)
(-0.0516465 0.22786 5.04275e-20)
(-0.0478415 0.226711 -5.05223e-20)
(-0.0433147 0.224478 0)
(-0.0380936 0.221216 -1.01268e-19)
(-0.0322093 0.21698 -5.08425e-20)
(-0.0256953 0.211834 -1.51756e-19)
(-0.0185878 0.205844 -5.05745e-20)
(-0.0109262 0.199083 5.04658e-20)
(-0.00275249 0.19163 1.0051e-19)
(0.00588856 0.183567 0)
(0.0149499 0.174983 9.99158e-20)
(0.024382 0.165969 1.99415e-19)
(0.0341333 0.156623 7.08973e-23)
(0.0441507 0.147041 -9.90472e-20)
(0.0543804 0.137323 -9.87522e-20)
(0.0647677 0.127571 9.82546e-20)
(0.0752574 0.117889 9.79607e-20)
(0.0857943 0.108383 -1.94971e-19)
(0.0963228 0.0991688 1.94124e-19)
(0.106784 0.0903758 -9.69005e-20)
(0.117109 0.0821619 9.61159e-20)
(0.127239 0.0747407 1.915e-19)
(0.137138 0.068489 9.50323e-20)
(0.146371 0.0639309 1.06964e-19)
(-0.00513555 0.01752 -7.74795e-20)
(-0.0141717 0.0484436 7.38578e-20)
(-0.0224886 0.0770213 -6.4845e-20)
(-0.029923 0.102749 6.62606e-20)
(-0.036435 0.125519 1.12678e-19)
(-0.0420273 0.145409 -9.17447e-20)
(-0.0467127 0.162582 1.16542e-19)
(-0.050506 0.177238 7.08957e-20)
(-0.0534211 0.189596 -1.6763e-19)
(-0.055471 0.199869 4.83509e-20)
(-0.0566661 0.208256 2.4279e-20)
(-0.0570155 0.214926 4.92971e-20)
(-0.0565293 0.220025 4.95504e-20)
(-0.0552187 0.22367 -9.97142e-20)
(-0.0530977 0.225958 1.00162e-19)
(-0.0501827 0.226969 1.50817e-19)
(-0.0464928 0.22677 -1.51409e-19)
(-0.04205 0.225421 2.02063e-19)
(-0.03688 0.222981 1.00981e-19)
(-0.0310128 0.219507 1.51826e-19)
(-0.024482 0.215057 5.03799e-20)
(-0.0173241 0.209695 1.01116e-19)
(-0.0095785 0.20349 -1.00608e-19)
(-0.00128768 0.196516 0)
(0.00750269 0.188852 -3.00939e-19)
(0.0167443 0.180584 2.00039e-19)
(0.0263865 0.171801 -9.98843e-20)
(0.0363759 0.162596 -9.95351e-20)
(0.0466576 0.153065 -2.0506e-22)
(0.0571749 0.14331 0)
(0.0678708 0.133429 0)
(0.0786874 0.123527 9.75468e-20)
(0.0895668 0.113706 -9.74355e-20)
(0.100451 0.104072 9.68979e-20)
(0.111284 0.0947405 -9.65959e-20)
(0.122004 0.0858374 -9.61683e-20)
(0.132541 0.0775188 0)
(0.142833 0.0700001 -9.51311e-20)
(0.152859 0.0636737 -9.4876e-20)
(0.16218 0.0590998 -3.19262e-19)
(-0.00543274 0.0174058 7.74772e-20)
(-0.0148479 0.0481609 -7.38813e-20)
(-0.023316 0.0766393 8.64785e-20)
(-0.0307513 0.102314 -1.54535e-19)
(-0.0371293 0.125069 -1.12643e-19)
(-0.0424769 0.144964 9.17441e-20)
(-0.0468261 0.162149 -1.86282e-19)
(-0.0502083 0.176814 -9.45358e-20)
(-0.0526513 0.189166 1.19644e-19)
(-0.0541796 0.199415 -2.17563e-19)
(-0.0548133 0.207752 -1.46514e-19)
(-0.0545692 0.21435 -4.91372e-20)
(-0.0534637 0.219352 -1.487e-19)
(-0.0515131 0.22288 1.49514e-19)
(-0.0487354 0.225034 -1.00161e-19)
(-0.0451506 0.225895 -1.00505e-19)
(-0.0407808 0.225536 0)
(-0.0356508 0.224019 -1.00906e-19)
(-0.0297893 0.221404 -1.51397e-19)
(-0.0232293 0.217752 5.04245e-20)
(-0.0160075 0.213122 -1.00912e-19)
(-0.0081636 0.207581 0)
(0.000259645 0.201198 1.00606e-19)
(0.00921611 0.194049 1.00189e-19)
(0.0186564 0.186216 -9.95467e-20)
(0.0285285 0.177783 0)
(0.0387777 0.168842 0)
(0.0493472 0.159487 0)
(0.0601781 0.149817 -4.4983e-22)
(0.0712106 0.139931 0)
(0.082384 0.129932 -1.95233e-19)
(0.0936376 0.119923 -2.84573e-22)
(0.104911 0.110007 -1.93549e-19)
(0.116143 0.10029 1.92888e-19)
(0.127276 0.0908827 -9.5947e-20)
(0.138248 0.0819103 9.58295e-20)
(0.148986 0.073524 0)
(0.159426 0.0659377 1.89704e-19)
(0.169561 0.0595562 -9.41535e-20)
(0.178956 0.0549729 0)
(-0.00571197 0.0172337 9.65797e-21)
(-0.015484 0.0477349 0)
(-0.0240898 0.0760473 -1.07765e-19)
(-0.0315137 0.101618 1.32325e-19)
(-0.0377444 0.124317 6.73816e-20)
(-0.0428308 0.144191 -9.14646e-20)
(-0.0468232 0.161373 9.30706e-20)
(-0.0497691 0.176039 -9.42539e-20)
(-0.0517104 0.188388 0)
(-0.0526833 0.19862 9.66244e-20)
(-0.052718 0.206923 -9.73867e-20)
(-0.0518401 0.213467 1.57604e-22)
(-0.0500725 0.218396 0)
(-0.0474374 0.221832 9.93549e-20)
(-0.0439576 0.223878 -4.98424e-20)
(-0.0396572 0.22462 1.00091e-19)
(-0.034562 0.22413 5.00974e-20)
(-0.0287003 0.222477 -1.0043e-19)
(-0.0221041 0.219722 0)
(-0.0148099 0.215926 1.50697e-19)
(-0.00685767 0.211153 5.00783e-20)
(0.00170919 0.20547 0)
(0.0108442 0.198948 0)
(0.0204974 0.191665 0)
(0.0306156 0.183703 9.97301e-20)
(0.0411427 0.175148 0)
(0.0520201 0.166093 -9.88546e-20)
(0.0631872 0.156633 1.96959e-19)
(0.0745816 0.146867 -1.96371e-19)
(0.0861399 0.136897 0)
(0.0977982 0.126826 9.74783e-20)
(0.109493 0.116756 -9.65829e-20)
(0.12116 0.106791 9.66238e-20)
(0.132737 0.0970354 0)
(0.144163 0.0875984 0)
(0.155377 0.0786004 9.51263e-20)
(0.166304 0.0701874 -9.45459e-20)
(0.176877 0.0625687 1.88491e-19)
(0.187101 0.0561572 -1.87282e-19)
(0.196556 0.0515761 0)
(-0.00597154 0.0170072 6.7403e-20)
(-0.0160768 0.0471719 2.10096e-20)
(-0.0248071 0.0752509 8.61921e-20)
(-0.0322092 0.100662 8.79549e-20)
(-0.0382814 0.123264 -8.98537e-20)
(-0.0430932 0.143086 9.14642e-20)
(-0.0467117 0.160244 9.27905e-20)
(-0.0492003 0.174901 9.42533e-20)
(-0.0506145 0.187244 0)
(-0.0510027 0.197465 9.63331e-20)
(-0.050406 0.205746 9.73856e-20)
(-0.0488586 0.212252 9.81638e-20)
(-0.0463912 0.217128 0)
(-0.0430322 0.220497 -1.72316e-22)
(-0.03881 0.222462 9.97765e-20)
(-0.0337536 0.223113 -5.01031e-20)
(-0.0278928 0.222525 -5.03176e-20)
(-0.0212602 0.220767 1.50572e-19)
(-0.0138917 0.217905 -2.84779e-23)
(-0.00582748 0.214002 -5.04219e-20)
(0.00288866 0.209122 -1.00319e-19)
(0.0122095 0.203336 0)
(0.0220846 0.196715 0)
(0.03246 0.189339 0)
(0.0432782 0.18129 0)
(0.0544792 0.172657 0)
(0.0660006 0.163533 0)
(0.0777778 0.154013 9.80599e-20)
(0.0897449 0.144199 -9.76517e-20)
(0.101835 0.134192 0)
(0.113981 0.124095 0)
(0.126115 0.114011 9.65803e-20)
(0.138173 0.104045 0)
(0.150088 0.0942984 9.55107e-20)
(0.161799 0.0848783 -9.49636e-20)
(0.173242 0.0759009 0)
(0.184343 0.0675052 1.88375e-19)
(0.195031 0.0598933 -1.87195e-19)
(0.205326 0.0534819 0)
(0.214825 0.0489204 0)
(-0.00621018 0.0167302 -7.70483e-20)
(-0.0166238 0.0464792 -2.09848e-20)
(-0.025466 0.0742577 2.14876e-20)
(-0.0328369 0.0994537 -8.79548e-20)
(-0.0387419 0.121912 0)
(-0.0432685 0.141646 0)
(-0.0464996 0.158756 -6.9599e-20)
(-0.0485137 0.173389 -2.34993e-20)
(-0.04938 0.185721 -4.76289e-20)
(-0.0491592 0.195932 -4.82205e-20)
(-0.0479032 0.204198 -4.8592e-20)
(-0.045656 0.210681 4.89545e-20)
(-0.0424564 0.215523 4.92055e-20)
(-0.0383397 0.218846 -4.96352e-20)
(-0.0333407 0.220757 0)
(-0.0274934 0.221344 0)
(-0.020833 0.220688 -1.00095e-19)
(-0.0133964 0.218858 0)
(-0.00522402 0.215923 0)
(0.00363992 0.211948 9.97462e-20)
(0.0131474 0.206999 -8.43736e-23)
(0.0232472 0.201148 -1.81966e-22)
(0.0338846 0.194469 -9.94186e-20)
(0.0450014 0.187042 9.92047e-20)
(0.0565361 0.17895 9.8668e-20)
(0.0684244 0.170283 -9.82959e-20)
(0.0806 0.161134 0)
(0.0929946 0.151602 9.76562e-20)
(0.105539 0.141786 -1.17738e-23)
(0.118162 0.131789 -9.68025e-20)
(0.130793 0.121715 0)
(0.143364 0.111666 0)
(0.155804 0.101747 9.5489e-20)
(0.168048 0.0920571 -9.49622e-20)
(0.18003 0.0827019 -9.46006e-20)
(0.191687 0.0737924 9.40404e-20)
(0.202945 0.0654603 0)
(0.213728 0.0578975 0)
(0.22407 0.051521 0)
(0.233599 0.0470018 -1.02457e-19)
(-0.00642703 0.0164075 9.59771e-20)
(-0.0171231 0.0456655 -4.18825e-20)
(-0.026065 0.0730771 2.14506e-20)
(-0.0333965 0.0980001 0)
(-0.0391274 0.120267 1.11814e-19)
(-0.043361 0.139874 2.2951e-23)
(-0.0461945 0.156906 9.2533e-20)
(-0.0477208 0.171496 -7.04359e-20)
(-0.0480227 0.183805 9.50774e-20)
(-0.0471732 0.194004 -4.80404e-20)
(-0.0452356 0.20226 0)
(-0.0422638 0.20873 4.88954e-20)
(-0.0383052 0.213554 -1.47696e-19)
(-0.033403 0.216853 0)
(-0.0275984 0.218732 1.48892e-19)
(-0.0209318 0.219283 -9.95413e-20)
(-0.0134437 0.218587 -9.97866e-20)
(-0.00517636 0.216717 4.99553e-20)
(0.00382516 0.213743 0)
(0.0135121 0.209731 -9.9913e-20)
(0.0238322 0.20475 -9.95882e-20)
(0.0347297 0.198874 -8.73172e-23)
(0.0461456 0.192177 9.90206e-20)
(0.0580172 0.18474 9.88052e-20)
(0.0702789 0.176649 -1.97212e-19)
(0.0828623 0.167992 9.82934e-20)
(0.0956972 0.158865 0)
(0.108712 0.149366 -9.7113e-20)
(0.121832 0.139596 9.6666e-20)
(0.134985 0.129658 9.62094e-20)
(0.148096 0.119654 -9.5747e-20)
(0.161094 0.109689 9.52819e-20)
(0.173906 0.0998647 0)
(0.186463 0.0902808 9.46011e-20)
(0.198701 0.0810387 1.88132e-19)
(0.210554 0.0722452 -1.87186e-19)
(0.221947 0.0640239 1.86497e-19)
(0.232803 0.056555 2.75345e-22)
(0.243169 0.0502513 -9.23521e-20)
(0.252709 0.0458021 2.03731e-19)
(-0.00662172 0.0160441 -5.75805e-20)
(-0.0175739 0.0447411 -1.25356e-19)
(-0.0266036 0.0717207 8.55926e-20)
(-0.0338883 0.0963119 -6.56331e-20)
(-0.0394397 0.118336 -2.24937e-20)
(-0.0433744 0.137773 2.27309e-20)
(-0.045803 0.154694 -4.62666e-20)
(-0.046832 0.169216 -4.68575e-20)
(-0.0465573 0.181488 4.74884e-20)
(-0.0450643 0.191668 -9.59719e-20)
(-0.0424278 0.199915 -2.34921e-23)
(-0.0387119 0.20638 4.88066e-20)
(-0.0339735 0.211198 0)
(-0.0282637 0.21449 -4.93772e-20)
(-0.0216314 0.216359 -4.96553e-20)
(-0.0141231 0.216899 9.95179e-20)
(-0.00578578 0.216192 0)
(0.00333284 0.214312 0)
(0.0131824 0.21133 9.9599e-20)
(0.0237095 0.207316 -9.96111e-20)
(0.0348571 0.20234 0)
(0.046565 0.196476 9.9101e-20)
(0.0587696 0.189802 -9.91346e-20)
(0.071404 0.182397 -1.97107e-19)
(0.0843979 0.174349 1.00584e-22)
(0.0976792 0.165748 9.79533e-20)
(0.111173 0.156688 -1.94626e-19)
(0.124805 0.147269 9.71105e-20)
(0.138497 0.137592 -9.66635e-20)
(0.152172 0.12776 -1.94016e-22)
(0.165753 0.117876 1.89618e-22)
(0.179165 0.108043 -9.52793e-20)
(0.192333 0.0983614 -9.44185e-20)
(0.205187 0.0889313 -9.39469e-20)
(0.217659 0.0798504 -4.09722e-22)
(0.229686 0.071221 0)
(0.241191 0.0631581 -9.25454e-20)
(0.252096 0.0558288 1.8472e-19)
(0.262458 0.0496383 -2.75594e-19)
(0.271987 0.0452906 -7.47538e-23)
(-0.00679434 0.0156456 -1.91367e-20)
(-0.0179759 0.0437169 1.66946e-19)
(-0.0270815 0.0702013 -8.56093e-20)
(-0.0343125 0.0944017 6.56489e-20)
(-0.03968 0.116129 -1.7845e-19)
(-0.0433119 0.135352 2.2695e-20)
(-0.0453308 0.152124 -9.22295e-20)
(-0.045856 0.166551 0)
(-0.0449964 0.178765 0)
(-0.0428495 0.188915 -9.5768e-20)
(-0.0395018 0.19715 4.83741e-20)
(-0.035028 0.203613 -6.5001e-23)
(-0.0294944 0.208435 4.90524e-20)
(-0.0229612 0.211733 0)
(-0.0154848 0.213612 -1.4839e-19)
(-0.00711884 0.214163 4.96401e-20)
(0.00208318 0.21347 -9.93245e-20)
(0.0120674 0.211609 0)
(0.0227779 0.208651 0)
(0.0341563 0.204669 4.00528e-23)
(0.0461406 0.199734 -9.9217e-20)
(0.0586659 0.19392 9.87887e-20)
(0.0716643 0.187307 -9.85463e-20)
(0.085064 0.179975 9.8334e-20)
(0.0987906 0.172013 8.37054e-23)
(0.112768 0.16351 9.87712e-23)
(0.126917 0.154563 9.72099e-20)
(0.14116 0.14527 -9.64404e-20)
(0.155414 0.135733 0)
(0.1696 0.126055 -9.56479e-20)
(0.183636 0.116338 9.51915e-20)
(0.197445 0.106684 0)
(0.21095 0.0971942 9.4416e-20)
(0.224079 0.0879655 -9.36176e-20)
(0.236762 0.0790934 9.30123e-20)
(0.248936 0.0706752 0)
(0.260526 0.0628179 2.77331e-19)
(0.27145 0.0556742 -1.83631e-19)
(0.281776 0.0496383 0)
(0.291271 0.0454262 1.00482e-19)
(-0.00694544 0.0152179 1.52666e-19)
(-0.0183298 0.042605 -8.33993e-20)
(-0.0274993 0.0685335 -2.13574e-20)
(-0.0346696 0.0922842 2.18151e-20)
(-0.0398493 0.113661 8.91417e-20)
(-0.0431755 0.132621 0)
(-0.0447818 0.149204 9.22295e-20)
(-0.0447996 0.163503 1.40066e-19)
(-0.04335 0.175636 4.73091e-20)
(-0.040543 0.18574 4.79044e-20)
(-0.0364762 0.193955 4.82816e-20)
(-0.0312355 0.200415 -1.46091e-19)
(-0.024897 0.205247 4.89801e-20)
(-0.0175299 0.208564 1.96768e-19)
(-0.00919882 0.210468 4.95087e-20)
(3.49992e-05 0.21105 4.95582e-20)
(0.0101113 0.210395 9.93232e-20)
(0.0209696 0.208579 0)
(0.0325484 0.205675 0)
(0.0447838 0.201757 1.98276e-19)
(0.0576088 0.196896 -3.95489e-19)
(0.0709539 0.191169 -4.41375e-23)
(0.0847463 0.184655 0)
(0.0989096 0.177437 0)
(0.113365 0.169602 9.77506e-20)
(0.128032 0.161241 0)
(0.142829 0.15245 0)
(0.157672 0.143329 -9.58292e-20)
(0.172475 0.133978 -1.91305e-19)
(0.187156 0.1245 0)
(0.201629 0.114997 -1.89344e-19)
(0.215815 0.10557 -3.77065e-19)
(0.229634 0.0963185 1.87707e-19)
(0.243011 0.0873382 -1.86408e-19)
(0.255877 0.0787212 1.85871e-19)
(0.268167 0.0705604 -1.8477e-19)
(0.279809 0.0629544 -1.83529e-19)
(0.290719 0.0560414 0)
(0.300975 0.0502016 0)
(0.310404 0.0461603 0)