/*--------------------------------*- C++ -*----------------------------------*\
  =========                 |
  \\      /  F ield         | OpenFOAM: The Open Source CFD Toolbox
   \\    /   O peration     | Website:  https://openfoam.org
    \\  /    A nd           | Version:  7
     \\/     M anipulation  |
\*---------------------------------------------------------------------------*/
FoamFile
{
    version     2.0;
    format      ascii;
    class       volScalarField;
    location    "1.2";
    object      p;
}
// * * * * * * * * * * * * * * * * * * * * * * * * * * * * * * * * * * * * * //

dimensions      [0 2 -2 0 0 0 0];

internalField   nonuniform List<scalar> 
32000
(
2.09282
2.09259
2.0937
2.09528
2.09709
2.09896
2.10088
2.10303
2.10562
2.10883
2.11272
2.11725
2.12232
2.12783
2.13364
2.13961
2.14561
2.15156
2.15736
2.16298
2.16839
2.17357
2.17851
2.18323
2.18772
2.192
2.1961
2.20003
2.20383
2.20752
2.21112
2.21464
2.21809
2.22148
2.22482
2.22813
2.23142
2.2347
2.23798
2.24116
2.08592
2.08587
2.08705
2.08867
2.09048
2.09229
2.09415
2.09621
2.0987
2.10181
2.10561
2.11007
2.1151
2.12058
2.12639
2.13236
2.13837
2.14432
2.15012
2.15574
2.16114
2.16631
2.17124
2.17593
2.18039
2.18463
2.18868
2.19256
2.19631
2.19995
2.20348
2.20693
2.21031
2.21362
2.21687
2.22009
2.22328
2.22647
2.22965
2.23275
2.07885
2.07904
2.0803
2.08198
2.08379
2.08556
2.08734
2.08931
2.09172
2.09474
2.09846
2.10285
2.10783
2.11328
2.11908
2.12505
2.13106
2.13701
2.14281
2.14843
2.15382
2.15898
2.16389
2.16854
2.17296
2.17716
2.18116
2.18499
2.18868
2.19225
2.19572
2.1991
2.2024
2.20563
2.2088
2.21192
2.21502
2.2181
2.22119
2.22419
2.07171
2.07214
2.07349
2.07523
2.07705
2.07877
2.08047
2.08236
2.08468
2.08763
2.09126
2.09558
2.10051
2.10594
2.11172
2.11769
2.1237
2.12964
2.13544
2.14105
2.14643
2.15157
2.15645
2.16107
2.16544
2.16959
2.17353
2.17731
2.18094
2.18445
2.18785
2.19115
2.19437
2.19751
2.20059
2.20362
2.20662
2.20961
2.21259
2.21549
2.06455
2.06522
2.06664
2.06845
2.07026
2.07193
2.07356
2.07536
2.07761
2.08046
2.08403
2.08828
2.09317
2.09857
2.10433
2.11028
2.11628
2.12221
2.12801
2.13361
2.13898
2.14408
2.14892
2.1535
2.15783
2.16192
2.16582
2.16954
2.1731
2.17654
2.17986
2.18309
2.18622
2.18928
2.19227
2.1952
2.19811
2.201
2.20387
2.20667
2.05736
2.05827
2.05978
2.06164
2.06345
2.06507
2.06663
2.06835
2.07051
2.07328
2.07676
2.08096
2.0858
2.09116
2.0969
2.10284
2.10882
2.11474
2.12053
2.12612
2.13146
2.13653
2.14133
2.14585
2.15013
2.15417
2.15801
2.16167
2.16517
2.16853
2.17178
2.17492
2.17797
2.18093
2.18383
2.18667
2.18947
2.19226
2.19503
2.19772
2.05017
2.05132
2.0529
2.05482
2.05663
2.0582
2.05968
2.06132
2.06339
2.06608
2.06949
2.07362
2.07841
2.08374
2.08945
2.09536
2.10132
2.10723
2.11301
2.11858
2.12389
2.12892
2.13366
2.13814
2.14236
2.14635
2.15013
2.15372
2.15714
2.16043
2.16359
2.16665
2.16961
2.17248
2.17528
2.17802
2.18073
2.18342
2.18607
2.18865
2.04299
2.04435
2.04602
2.04799
2.0498
2.05134
2.05274
2.05429
2.05627
2.05887
2.0622
2.06628
2.07102
2.07631
2.08198
2.08786
2.0938
2.0997
2.10546
2.111
2.11627
2.12125
2.12594
2.13036
2.13452
2.13844
2.14216
2.14568
2.14903
2.15224
2.15532
2.15829
2.16116
2.16394
2.16664
2.16928
2.17189
2.17446
2.17701
2.17948
2.03581
2.03739
2.03914
2.04116
2.04298
2.04448
2.04581
2.04727
2.04915
2.05167
2.05493
2.05895
2.06364
2.06888
2.0745
2.08035
2.08627
2.09215
2.09788
2.10339
2.10861
2.11354
2.11817
2.12252
2.12661
2.13048
2.13412
2.13757
2.14084
2.14397
2.14696
2.14984
2.15262
2.1553
2.1579
2.16045
2.16295
2.16542
2.16784
2.1702
2.02865
2.03044
2.03227
2.03435
2.03618
2.03763
2.03889
2.04026
2.04205
2.04448
2.04767
2.05163
2.05626
2.06145
2.06703
2.07285
2.07874
2.08459
2.09029
2.09574
2.10092
2.10578
2.11035
2.11463
2.11866
2.12245
2.12603
2.1294
2.13259
2.13562
2.13853
2.14132
2.144
2.14658
2.14908
2.15152
2.15392
2.15628
2.15858
2.16083
2.0215
2.02349
2.0254
2.02755
2.02939
2.03081
2.03199
2.03326
2.03497
2.03732
2.04044
2.04433
2.04891
2.05404
2.05958
2.06535
2.07121
2.07703
2.08268
2.08808
2.0932
2.098
2.1025
2.10671
2.11067
2.11438
2.11787
2.12116
2.12426
2.12722
2.13003
2.13273
2.13531
2.13779
2.14019
2.14252
2.14481
2.14705
2.14924
2.15137
2.01437
2.01656
2.01855
2.02076
2.02261
2.024
2.0251
2.02629
2.02791
2.03018
2.03323
2.03706
2.04158
2.04666
2.05215
2.05788
2.0637
2.06947
2.07506
2.08041
2.08546
2.09019
2.09462
2.09875
2.10263
2.10627
2.10967
2.11287
2.11589
2.11875
2.12147
2.12407
2.12655
2.12893
2.13123
2.13345
2.13563
2.13776
2.13982
2.14184
2.00726
2.00964
2.01172
2.014
2.01586
2.0172
2.01824
2.01935
2.02088
2.02308
2.02605
2.02981
2.03427
2.0393
2.04474
2.05043
2.0562
2.06191
2.06744
2.07272
2.0777
2.08236
2.08671
2.09077
2.09456
2.09811
2.10143
2.10454
2.10746
2.11023
2.11286
2.11536
2.11774
2.12001
2.1222
2.12432
2.12638
2.12839
2.13034
2.13223
2.00018
2.00274
2.00491
2.00724
2.00912
2.01043
2.0114
2.01243
2.01388
2.016
2.0189
2.0226
2.027
2.03198
2.03737
2.04301
2.04873
2.05437
2.05983
2.06503
2.06993
2.07452
2.07879
2.08276
2.08647
2.08992
2.09315
2.09616
2.099
2.10167
2.1042
2.1066
2.10887
2.11104
2.11312
2.11513
2.11707
2.11897
2.12079
2.12256
1.99312
1.99585
1.99811
2.00051
2.00239
2.00367
2.00459
2.00554
2.00691
2.00895
2.01178
2.01541
2.01976
2.02469
2.03004
2.03562
2.04127
2.04684
2.05222
2.05734
2.06216
2.06666
2.07085
2.07474
2.07835
2.08171
2.08484
2.08776
2.0905
2.09308
2.09551
2.0978
2.09997
2.10203
2.104
2.10589
2.10772
2.1095
2.11119
2.11284
1.98608
1.98899
1.99133
1.99378
1.99567
1.99692
1.99778
1.99867
1.99997
2.00193
2.0047
2.00827
2.01256
2.01745
2.02274
2.02827
2.03385
2.03934
2.04463
2.04966
2.05439
2.0588
2.0629
2.0667
2.07021
2.07347
2.0765
2.07933
2.08197
2.08446
2.08679
2.08898
2.09104
2.09299
2.09484
2.09662
2.09833
2.09999
2.10156
2.10308
1.97907
1.98214
1.98456
1.98706
1.98896
1.99018
1.991
1.99182
1.99305
1.99495
1.99764
2.00116
2.00541
2.01024
2.01549
2.02095
2.02645
2.03185
2.03705
2.04199
2.04662
2.05094
2.05494
2.05865
2.06206
2.06523
2.06816
2.07088
2.07343
2.07581
2.07805
2.08013
2.08208
2.08392
2.08565
2.08732
2.08891
2.09045
2.09189
2.09329
1.97209
1.97531
1.9778
1.98035
1.98225
1.98345
1.98422
1.98499
1.98615
1.98798
1.99062
1.99409
1.99829
2.00308
2.00827
2.01366
2.01908
2.02439
2.02949
2.03433
2.03886
2.04308
2.04699
2.05059
2.05391
2.05697
2.0598
2.06243
2.06488
2.06716
2.06929
2.07126
2.07311
2.07483
2.07645
2.078
2.07948
2.0809
2.08221
2.08347
1.96513
1.96849
1.97105
1.97364
1.97555
1.97673
1.97745
1.97817
1.97927
1.98105
1.98364
1.98706
1.99122
1.99596
2.00109
2.0064
2.01173
2.01695
2.02195
2.02669
2.03112
2.03523
2.03903
2.04253
2.04574
2.0487
2.05143
2.05396
2.05631
2.05849
2.06052
2.06239
2.06412
2.06573
2.06724
2.06867
2.07003
2.07133
2.07252
2.07365
1.95819
1.96169
1.9643
1.96693
1.96884
1.97
1.97069
1.97135
1.97241
1.97413
1.97668
1.98007
1.98419
1.98889
1.99395
1.99919
2.00443
2.00954
2.01444
2.01906
2.02338
2.02738
2.03108
2.03447
2.03758
2.04044
2.04307
2.0455
2.04774
2.04983
2.05174
2.05351
2.05513
2.05663
2.05802
2.05934
2.06059
2.06177
2.06283
2.06383
1.95126
1.95489
1.95756
1.96021
1.96212
1.96326
1.96392
1.96454
1.96555
1.96724
1.96976
1.97311
1.9772
1.98185
1.98685
1.992
1.99715
2.00215
2.00694
2.01145
2.01566
2.01954
2.02313
2.02641
2.02942
2.03218
2.0347
2.03703
2.03918
2.04116
2.04297
2.04463
2.04614
2.04753
2.04882
2.05002
2.05115
2.05222
2.05315
2.05403
1.94433
1.94808
1.9508
1.95349
1.9554
1.95651
1.95714
1.95773
1.95871
1.96037
1.96286
1.96619
1.97024
1.97484
1.97977
1.98485
1.98989
1.99479
1.99947
2.00386
2.00794
2.01172
2.01518
2.01836
2.02127
2.02392
2.02634
2.02857
2.03061
2.03249
2.0342
2.03575
2.03716
2.03844
2.03962
2.04072
2.04174
2.04269
2.04349
2.04425
1.93739
1.94127
1.94404
1.94675
1.94865
1.94974
1.95035
1.95092
1.95187
1.95351
1.95599
1.95929
1.96331
1.96786
1.97273
1.97772
1.98267
1.98746
1.99201
1.99628
2.00024
2.0039
2.00725
2.01032
2.01312
2.01567
2.01799
2.02011
2.02206
2.02383
2.02544
2.02689
2.0282
2.02937
2.03045
2.03144
2.03235
2.03318
2.03387
2.03451
1.93045
1.93444
1.93725
1.93998
1.94188
1.94296
1.94355
1.94409
1.94503
1.94666
1.94913
1.95242
1.95641
1.96092
1.96572
1.97062
1.97546
1.98014
1.98458
1.98872
1.99256
1.99609
1.99933
2.00229
2.00498
2.00743
2.00964
2.01167
2.01351
2.01519
2.01669
2.01804
2.01925
2.02033
2.0213
2.02219
2.023
2.02372
2.0243
2.02482
1.92349
1.9276
1.93045
1.93319
1.93508
1.93615
1.93672
1.93726
1.93819
1.93983
1.94229
1.94558
1.94954
1.954
1.95873
1.96354
1.96828
1.97285
1.97716
1.98118
1.98488
1.98829
1.99142
1.99427
1.99686
1.99919
2.00131
2.00323
2.00497
2.00655
2.00796
2.00921
2.01032
2.01131
2.01219
2.01298
2.01369
2.01431
2.01478
2.0152
1.91651
1.92073
1.92361
1.92636
1.92825
1.92931
1.92988
1.93041
1.93135
1.933
1.93547
1.93875
1.9427
1.94711
1.95177
1.95649
1.96112
1.96557
1.96975
1.97364
1.97723
1.98051
1.98352
1.98626
1.98874
1.99097
1.99298
1.9948
1.99645
1.99793
1.99924
2.0004
2.00142
2.00232
2.00311
2.00382
2.00443
2.00496
2.00532
2.00565
1.9095
1.91384
1.91675
1.91951
1.92139
1.92244
1.923
1.92355
1.9245
1.92617
1.92867
1.93195
1.93588
1.94024
1.94483
1.94946
1.95398
1.95831
1.96237
1.96613
1.96958
1.97275
1.97564
1.97826
1.98063
1.98276
1.98467
1.98639
1.98793
1.98932
1.99054
1.99161
1.99254
1.99336
1.99408
1.9947
1.99523
1.99567
1.99594
1.99618
1.90247
1.90692
1.90986
1.91262
1.9145
1.91554
1.91611
1.91667
1.91766
1.91936
1.92188
1.92517
1.92908
1.9334
1.93792
1.94245
1.94686
1.95106
1.95499
1.95862
1.96195
1.965
1.96777
1.97028
1.97253
1.97455
1.97636
1.97798
1.97943
1.98072
1.98185
1.98284
1.98369
1.98444
1.98508
1.98563
1.98609
1.98645
1.98665
1.98681
1.89541
1.89997
1.90293
1.90571
1.90757
1.90861
1.90919
1.90978
1.91081
1.91255
1.9151
1.91841
1.92231
1.92658
1.93102
1.93546
1.93976
1.94383
1.94763
1.95113
1.95434
1.95726
1.95991
1.96231
1.96445
1.96636
1.96806
1.96959
1.97095
1.97214
1.97318
1.97409
1.97488
1.97555
1.97613
1.97662
1.97702
1.97732
1.97745
1.97754
1.88832
1.89298
1.89597
1.89875
1.90061
1.90165
1.90225
1.90288
1.90396
1.90575
1.90834
1.91167
1.91556
1.91978
1.92415
1.92848
1.93267
1.93662
1.94029
1.94366
1.94673
1.94953
1.95207
1.95434
1.95637
1.95817
1.95978
1.96121
1.96247
1.96358
1.96454
1.96537
1.96609
1.96671
1.96723
1.96767
1.96802
1.96827
1.96835
1.96839
1.88118
1.88596
1.88898
1.89177
1.89362
1.89466
1.89529
1.89597
1.8971
1.89895
1.9016
1.90495
1.90882
1.913
1.91729
1.92153
1.9256
1.92942
1.93296
1.9362
1.93915
1.94182
1.94423
1.94639
1.9483
1.95
1.9515
1.95283
1.954
1.95502
1.95591
1.95667
1.95733
1.95789
1.95837
1.95877
1.95908
1.9593
1.95936
1.95937
1.87402
1.87891
1.88195
1.88474
1.88659
1.88765
1.88831
1.88904
1.89025
1.89217
1.89487
1.89824
1.9021
1.90624
1.91045
1.91459
1.91854
1.92224
1.92564
1.92875
1.93157
1.93412
1.93641
1.93845
1.94025
1.94184
1.94324
1.94447
1.94555
1.94648
1.94729
1.94799
1.94859
1.94911
1.94955
1.94992
1.95022
1.95043
1.95048
1.95047
1.86681
1.87182
1.87488
1.87768
1.87953
1.8806
1.88131
1.88211
1.88339
1.8854
1.88815
1.89155
1.8954
1.89949
1.90363
1.90767
1.9115
1.91507
1.91834
1.92132
1.92401
1.92644
1.9286
1.93052
1.93221
1.93368
1.93498
1.93611
1.93709
1.93795
1.93868
1.93932
1.93987
1.94035
1.94076
1.94111
1.9414
1.94162
1.9417
1.94171
1.85957
1.8647
1.86778
1.87058
1.87244
1.87354
1.87429
1.87517
1.87655
1.87864
1.88146
1.88489
1.88873
1.89277
1.89683
1.90077
1.90448
1.90792
1.91106
1.91391
1.91647
1.91877
1.92081
1.92261
1.92417
1.92554
1.92673
1.92776
1.92865
1.92942
1.93008
1.93065
1.93115
1.9316
1.93199
1.93233
1.93263
1.93288
1.93301
1.93309
1.8523
1.85754
1.86064
1.86346
1.86532
1.86645
1.86727
1.86824
1.86972
1.8719
1.87479
1.87824
1.88207
1.88607
1.89005
1.89389
1.89748
1.9008
1.90381
1.90652
1.90895
1.91112
1.91303
1.91471
1.91616
1.91741
1.91848
1.91941
1.92021
1.92089
1.92147
1.92198
1.92243
1.92284
1.92321
1.92355
1.92388
1.92418
1.92439
1.92458
1.845
1.85035
1.85347
1.85631
1.85819
1.85936
1.86024
1.86131
1.8629
1.86519
1.86814
1.87163
1.87545
1.8794
1.8833
1.88703
1.89051
1.8937
1.89658
1.89916
1.90145
1.90349
1.90528
1.90683
1.90816
1.90929
1.91025
1.91107
1.91177
1.91236
1.91286
1.9133
1.91369
1.91405
1.9144
1.91474
1.9151
1.91547
1.9158
1.91615
1.83767
1.84314
1.84628
1.84913
1.85103
1.85225
1.85322
1.8544
1.85611
1.8585
1.86153
1.86505
1.86885
1.87275
1.87658
1.88021
1.88357
1.88663
1.88937
1.89182
1.89398
1.89588
1.89754
1.89897
1.90017
1.90119
1.90204
1.90274
1.90333
1.90382
1.90423
1.90459
1.9049
1.90521
1.90552
1.90587
1.90625
1.9067
1.90717
1.90775
1.83033
1.83591
1.83908
1.84194
1.84387
1.84515
1.84621
1.84752
1.84935
1.85185
1.85495
1.8585
1.8623
1.86614
1.86989
1.87341
1.87666
1.87959
1.8822
1.88451
1.88654
1.88831
1.88983
1.89113
1.89221
1.89311
1.89384
1.89443
1.8949
1.89528
1.89559
1.89584
1.89607
1.89629
1.89655
1.89686
1.89726
1.89779
1.89846
1.89941
1.82297
1.82868
1.83187
1.83475
1.83671
1.83805
1.83923
1.84066
1.84263
1.84524
1.84842
1.852
1.85578
1.85957
1.86323
1.86666
1.86979
1.87259
1.87507
1.87724
1.87913
1.88077
1.88216
1.88333
1.88428
1.88505
1.88566
1.88612
1.88648
1.88674
1.88692
1.88706
1.88717
1.88728
1.88742
1.88763
1.88798
1.88854
1.88948
1.89112
1.81562
1.82144
1.82464
1.82754
1.82954
1.83096
1.83226
1.83384
1.83596
1.83868
1.84194
1.84555
1.84931
1.85305
1.85663
1.85995
1.86296
1.86564
1.86798
1.87002
1.87177
1.87326
1.87452
1.87556
1.87638
1.87703
1.8775
1.87784
1.87807
1.87819
1.87824
1.87824
1.8782
1.87815
1.87811
1.87812
1.87822
1.8785
1.87924
1.88144
2.25175
2.26997
2.28689
2.30464
2.32234
2.34026
2.35878
2.37771
2.39689
2.41635
2.43613
2.45618
2.47652
2.49712
2.51806
2.53935
2.56105
2.58315
2.60571
2.6287
2.65207
2.67591
2.70023
2.72507
2.7504
2.77627
2.80269
2.82964
2.85699
2.885
2.91313
2.94219
2.97074
3.00091
3.02933
3.06087
3.0882
3.12235
3.14539
3.18845
2.24321
2.26198
2.27909
2.29714
2.31504
2.33306
2.35167
2.37068
2.38993
2.40943
2.42925
2.4493
2.46966
2.49035
2.51127
2.53249
2.55426
2.57642
2.5989
2.62188
2.64531
2.66915
2.69348
2.71828
2.74363
2.76952
2.79587
2.82288
2.85017
2.87821
2.90625
2.93532
2.96382
2.99402
3.02241
3.05397
3.08129
3.11549
3.13855
3.18163
2.23451
2.25387
2.27118
2.28954
2.30762
2.32576
2.34446
2.36356
2.38287
2.40242
2.42229
2.44234
2.46272
2.48347
2.50438
2.52556
2.54739
2.56959
2.59201
2.61499
2.63846
2.66231
2.68665
2.71143
2.73681
2.7627
2.78901
2.81606
2.84331
2.87137
2.89934
2.92843
2.95688
2.98711
3.01549
3.04705
3.07439
3.10862
3.13172
3.17484
2.22564
2.24564
2.26318
2.28185
2.30009
2.31836
2.33717
2.35635
2.37572
2.39533
2.41523
2.43531
2.45571
2.47648
2.4974
2.51861
2.54043
2.56262
2.58507
2.60804
2.63152
2.65539
2.67973
2.70453
2.72993
2.75582
2.78213
2.80917
2.83641
2.86445
2.89243
2.92151
2.94995
2.98017
3.00855
3.04013
3.0675
3.10175
3.12491
3.16807
2.21664
2.2373
2.25508
2.27406
2.29246
2.31088
2.32979
2.34905
2.36848
2.38815
2.40808
2.42821
2.44863
2.46938
2.49034
2.5116
2.53338
2.55556
2.57806
2.60103
2.6245
2.64839
2.67275
2.69758
2.72297
2.74887
2.77521
2.80221
2.82948
2.85748
2.8855
2.91454
2.943
2.97321
3.00162
3.0332
3.06062
3.0949
3.11811
3.16134
2.20752
2.22885
2.24687
2.26618
2.28474
2.30331
2.32233
2.34167
2.36116
2.38088
2.40085
2.42102
2.44146
2.46222
2.48319
2.5045
2.52626
2.54843
2.57097
2.59394
2.61741
2.64132
2.66569
2.69055
2.71596
2.74186
2.76823
2.79521
2.82249
2.85047
2.87852
2.90755
2.93603
2.96623
2.99467
3.02627
3.05375
3.08806
3.11134
3.15464
2.19829
2.22031
2.23857
2.2582
2.27694
2.29565
2.31479
2.33421
2.35377
2.37354
2.39355
2.41376
2.43421
2.45498
2.47598
2.49732
2.51907
2.54124
2.56381
2.58679
2.61026
2.63419
2.65857
2.68346
2.70888
2.7348
2.76118
2.78815
2.81546
2.84343
2.8715
2.90054
2.92902
2.95924
2.98772
3.01935
3.04689
3.08125
3.1046
3.14797
2.18895
2.21166
2.23018
2.25015
2.26906
2.28792
2.30717
2.32667
2.3463
2.36612
2.38617
2.40642
2.42689
2.44767
2.46869
2.49006
2.51181
2.53398
2.55657
2.57956
2.60304
2.62699
2.65139
2.6763
2.70174
2.72767
2.75408
2.78105
2.80838
2.83635
2.86444
2.89349
2.922
2.95224
2.98076
3.01243
3.04003
3.07446
3.09788
3.14133
2.1795
2.20293
2.22172
2.24201
2.26111
2.28012
2.29949
2.31906
2.33876
2.35863
2.37871
2.399
2.4195
2.44029
2.46133
2.48273
2.50449
2.52665
2.54926
2.57227
2.59576
2.61972
2.64415
2.66908
2.69453
2.72049
2.74692
2.7739
2.80125
2.82923
2.85734
2.88642
2.91495
2.94522
2.97379
3.00552
3.03318
3.06769
3.09118
3.13471
2.16997
2.19411
2.21317
2.2338
2.25309
2.27227
2.29174
2.31139
2.33115
2.35107
2.37119
2.39152
2.41203
2.43285
2.4539
2.47532
2.49709
2.51926
2.54189
2.56492
2.58841
2.6124
2.63685
2.6618
2.68727
2.71326
2.73971
2.76671
2.79408
2.82208
2.8502
2.87931
2.90787
2.93818
2.96682
2.99861
3.02634
3.06093
3.0845
3.12812
2.16035
2.18522
2.20456
2.22553
2.245
2.26436
2.28393
2.30364
2.32347
2.34345
2.3636
2.38396
2.4045
2.42534
2.44641
2.46784
2.48963
2.51181
2.53445
2.5575
2.58101
2.60502
2.62949
2.65446
2.67996
2.70597
2.73244
2.75946
2.78686
2.81488
2.84302
2.87217
2.90077
2.93113
2.95983
2.9917
3.0195
3.0542
3.07785
3.12156
2.15065
2.17625
2.19588
2.21719
2.23685
2.2564
2.27606
2.29584
2.31573
2.33576
2.35595
2.37635
2.39692
2.41777
2.43887
2.46031
2.48211
2.5043
2.52695
2.55002
2.57355
2.59757
2.62207
2.64706
2.67259
2.69863
2.72513
2.75217
2.77959
2.80763
2.83581
2.865
2.89365
2.92407
2.95283
2.9848
3.01267
3.04747
3.07121
3.11502
2.14087
2.16723
2.18714
2.2088
2.22865
2.24838
2.26814
2.28798
2.30793
2.32802
2.34824
2.36868
2.38927
2.41014
2.43126
2.45271
2.47453
2.49673
2.51939
2.54249
2.56603
2.59007
2.61459
2.63961
2.66516
2.69123
2.71777
2.74482
2.77228
2.80035
2.82856
2.85779
2.8865
2.91699
2.94582
2.97789
3.00585
3.04076
3.06459
3.10851
2.13104
2.15815
2.17836
2.20036
2.2204
2.24032
2.26017
2.28007
2.30008
2.32023
2.34048
2.36096
2.38158
2.40246
2.4236
2.44506
2.46689
2.48911
2.51178
2.53489
2.55846
2.58252
2.60707
2.63211
2.65769
2.68379
2.71035
2.73743
2.76492
2.79303
2.82127
2.85055
2.87932
2.90989
2.9388
2.97098
2.99903
3.03406
3.05798
3.10201
2.12115
2.14902
2.16953
2.19187
2.2121
2.2322
2.25215
2.27211
2.29218
2.31238
2.33267
2.35318
2.37383
2.39472
2.41588
2.43736
2.4592
2.48143
2.50411
2.52725
2.55083
2.57491
2.59949
2.62456
2.65017
2.6763
2.70289
2.73
2.75751
2.78566
2.81395
2.84328
2.87212
2.90278
2.93177
2.96407
2.99221
3.02736
3.05139
3.09553
2.11121
2.13985
2.16066
2.18334
2.20376
2.22404
2.24408
2.26411
2.28423
2.30449
2.32482
2.34535
2.36603
2.38694
2.40811
2.4296
2.45145
2.47371
2.4964
2.51956
2.54315
2.56725
2.59186
2.61696
2.64259
2.66875
2.69537
2.72251
2.75006
2.77826
2.80659
2.83598
2.8649
2.89565
2.92473
2.95715
2.98539
3.02067
3.04481
3.08907
2.10123
2.13066
2.15177
2.17478
2.19538
2.21584
2.23597
2.25606
2.27624
2.29655
2.31692
2.33747
2.35818
2.37911
2.40029
2.4218
2.44366
2.46593
2.48864
2.51181
2.53543
2.55955
2.58418
2.60932
2.63497
2.66116
2.68781
2.71498
2.74257
2.77081
2.79919
2.82865
2.85764
2.8885
2.91767
2.95023
2.97857
3.01399
3.03823
3.08263
2.09123
2.12144
2.14285
2.16619
2.18697
2.2076
2.22782
2.24798
2.26822
2.28857
2.30898
2.32956
2.35029
2.37123
2.39243
2.41395
2.43582
2.45812
2.48083
2.50403
2.52766
2.5518
2.57646
2.60162
2.6273
2.65352
2.68019
2.7074
2.73502
2.76332
2.79175
2.82129
2.85037
2.88133
2.9106
2.94329
2.97176
3.00732
3.03167
3.07621
2.0812
2.11222
2.13392
2.15757
2.17852
2.19934
2.21963
2.23986
2.26016
2.28055
2.30101
2.3216
2.34237
2.36332
2.38453
2.40606
2.42795
2.45026
2.47298
2.4962
2.51985
2.544
2.56869
2.59388
2.61958
2.64583
2.67253
2.69978
2.72744
2.75578
2.78428
2.8139
2.84307
2.87415
2.90352
2.93635
2.96494
3.00065
3.02513
3.06981
2.07116
2.10299
2.12499
2.14893
2.17006
2.19105
2.21141
2.23171
2.25207
2.27251
2.293
2.31362
2.3344
2.35537
2.37659
2.39814
2.42004
2.44236
2.46509
2.48833
2.512
2.53617
2.56088
2.58609
2.61181
2.6381
2.66482
2.69211
2.71981
2.74821
2.77678
2.80648
2.83574
2.86694
2.89643
2.92941
2.95812
2.994
3.0186
3.06344
2.06113
2.09376
2.11606
2.14028
2.16157
2.18275
2.20317
2.22354
2.24396
2.26444
2.28497
2.3056
2.32641
2.34739
2.36862
2.39018
2.41209
2.43444
2.45717
2.48043
2.50411
2.52829
2.55303
2.57826
2.604
2.63031
2.65706
2.68439
2.71214
2.7406
2.76924
2.79903
2.82838
2.8597
2.88932
2.92245
2.95131
2.98735
3.01209
3.05709
2.05111
2.08455
2.10714
2.13161
2.15308
2.17445
2.19492
2.21535
2.23584
2.25635
2.27691
2.29757
2.31839
2.33939
2.36062
2.3822
2.40412
2.42648
2.44922
2.47249
2.49619
2.52037
2.54514
2.57039
2.59614
2.62248
2.64926
2.67662
2.70442
2.73295
2.76167
2.79154
2.821
2.85244
2.88219
2.91548
2.94449
2.98072
3.0056
3.05078
2.04112
2.07536
2.09824
2.12294
2.14457
2.16614
2.18665
2.20715
2.2277
2.24825
2.26884
2.28951
2.31034
2.33136
2.3526
2.37419
2.39612
2.41849
2.44124
2.46451
2.48823
2.51243
2.5372
2.56248
2.58824
2.61461
2.64142
2.66882
2.69667
2.72526
2.75406
2.78402
2.81359
2.84516
2.87504
2.9085
2.93767
2.9741
2.99913
3.04449
2.03117
2.0662
2.08937
2.11427
2.13605
2.15783
2.17837
2.19894
2.21955
2.24013
2.26075
2.28144
2.30228
2.32331
2.34456
2.36616
2.3881
2.41047
2.43324
2.45651
2.48024
2.50444
2.52923
2.55452
2.5803
2.60669
2.63353
2.66097
2.68888
2.71753
2.74641
2.77647
2.80614
2.83785
2.86787
2.90151
2.93086
2.9675
2.99269
3.03823
2.02129
2.05707
2.08053
2.1056
2.12754
2.1495
2.17008
2.19074
2.2114
2.23202
2.25265
2.27335
2.29421
2.31524
2.33651
2.3581
2.38006
2.40244
2.42521
2.44848
2.47223
2.49643
2.52122
2.54653
2.57232
2.59873
2.6256
2.65309
2.68104
2.70976
2.73872
2.76888
2.79866
2.83051
2.86068
2.89451
2.92404
2.96091
2.98628
3.03201
2.01148
2.04798
2.07172
2.09693
2.11901
2.14116
2.1618
2.18253
2.20325
2.2239
2.24456
2.26526
2.28612
2.30716
2.32844
2.35004
2.37199
2.39438
2.41716
2.44043
2.46418
2.48839
2.51318
2.5385
2.5643
2.59073
2.61763
2.64516
2.67317
2.70196
2.73099
2.76125
2.79115
2.82313
2.85347
2.8875
2.91723
2.95435
2.9799
3.02584
2.00176
2.03892
2.06295
2.08827
2.1105
2.13279
2.15352
2.17434
2.19512
2.21579
2.23646
2.25718
2.27804
2.29908
2.32037
2.34196
2.36392
2.38631
2.40909
2.43235
2.4561
2.48032
2.5051
2.53044
2.55625
2.58269
2.60962
2.63719
2.66525
2.69411
2.72322
2.75358
2.7836
2.81573
2.84623
2.88047
2.91042
2.94779
2.97356
3.0197
1.99216
2.02992
2.05421
2.07962
2.10198
2.12442
2.14526
2.16616
2.18699
2.20769
2.22837
2.2491
2.26997
2.291
2.31229
2.33388
2.35584
2.37823
2.401
2.42425
2.448
2.47222
2.497
2.52234
2.54816
2.57461
2.60158
2.62919
2.65729
2.68623
2.71541
2.74587
2.77601
2.80829
2.83896
2.87342
2.9036
2.94126
2.96726
3.01363
1.98269
2.02096
2.04551
2.07098
2.09349
2.11605
2.13702
2.15801
2.17889
2.19961
2.2203
2.24103
2.2619
2.28292
2.30421
2.3258
2.34775
2.37014
2.3929
2.41614
2.43988
2.4641
2.48886
2.51422
2.54004
2.5665
2.5935
2.62114
2.64929
2.6783
2.70756
2.73812
2.76838
2.80081
2.83167
2.86636
2.89679
2.93474
2.961
3.00761
1.97337
2.01205
2.03684
2.06236
2.08501
2.10763
2.12881
2.14989
2.1708
2.19155
2.21225
2.23299
2.25385
2.27486
2.29615
2.31772
2.33966
2.36204
2.38479
2.40801
2.43174
2.45596
2.4807
2.50606
2.53189
2.55835
2.58538
2.61306
2.64125
2.67033
2.69967
2.73033
2.76071
2.7933
2.82434
2.85928
2.88997
2.92824
2.95479
3.00165
1.96423
2.00318
2.0282
2.05376
2.07657
2.09917
2.12063
2.14181
2.16276
2.18352
2.20424
2.22496
2.24582
2.26681
2.28809
2.30965
2.33158
2.35393
2.37667
2.39987
2.42358
2.4478
2.47252
2.49787
2.52371
2.55017
2.57723
2.60494
2.63318
2.66232
2.69174
2.7225
2.753
2.78575
2.81698
2.85216
2.88314
2.92176
2.94863
2.99578
1.95528
1.99434
2.01957
2.04518
2.06819
2.0908
2.11251
2.13378
2.15475
2.17554
2.19625
2.21697
2.23781
2.25879
2.28005
2.30159
2.3235
2.34582
2.36854
2.39173
2.41542
2.43962
2.46432
2.48966
2.5155
2.54197
2.56904
2.59679
2.62507
2.65427
2.68376
2.71462
2.74524
2.77816
2.80958
2.84502
2.8763
2.91529
2.94253
2.98999
1.94653
1.98552
2.01097
2.03665
2.05987
2.08249
2.10444
2.1258
2.1468
2.1676
2.1883
2.20901
2.22983
2.25079
2.27203
2.29354
2.31543
2.33772
2.36042
2.38357
2.40724
2.43142
2.45611
2.48143
2.50727
2.53373
2.56083
2.5886
2.61692
2.64617
2.67575
2.7067
2.73744
2.77052
2.80213
2.83785
2.86944
2.90884
2.93648
2.9843
1.938
1.97671
2.00238
2.02817
2.05164
2.07423
2.09646
2.11788
2.1389
2.15971
2.1804
2.20109
2.22189
2.24282
2.26403
2.28552
2.30737
2.32962
2.3523
2.37542
2.39906
2.42322
2.44788
2.47318
2.49902
2.52547
2.55258
2.58038
2.60874
2.63804
2.66769
2.69873
2.7296
2.76284
2.79465
2.83063
2.86256
2.90239
2.93051
2.97872
1.9297
1.9679
1.99382
2.01976
2.0435
2.06622
2.08858
2.11003
2.13107
2.15187
2.17255
2.19321
2.21399
2.23488
2.25606
2.27751
2.29933
2.32154
2.34418
2.36726
2.39087
2.415
2.43965
2.46491
2.49075
2.51719
2.54431
2.57213
2.60052
2.62987
2.65959
2.69072
2.7217
2.75511
2.78711
2.82337
2.85566
2.89595
2.9246
2.97327
1.92163
1.95914
1.98536
2.01148
2.0355
2.05836
2.08081
2.10226
2.12331
2.14411
2.16476
2.1854
2.20614
2.227
2.24814
2.26955
2.29132
2.31348
2.33609
2.35912
2.38269
2.40679
2.43141
2.45663
2.48247
2.50889
2.53602
2.56385
2.59227
2.62166
2.65145
2.68267
2.71377
2.74733
2.77953
2.81606
2.84872
2.88951
2.91877
2.96798
1.91385
1.9505
1.97709
2.0034
2.02769
2.05067
2.07319
2.09462
2.11568
2.13646
2.15708
2.17768
2.19838
2.21919
2.24028
2.26163
2.28336
2.30546
2.32802
2.35101
2.37453
2.39858
2.42317
2.44836
2.47417
2.50058
2.5277
2.55554
2.584
2.61342
2.64327
2.67458
2.70579
2.7395
2.7719
2.80869
2.84175
2.88305
2.91303
2.96286
1.90632
1.9418
1.96877
1.99531
2.01988
2.04302
2.06559
2.08697
2.10801
2.12877
2.14934
2.1699
2.19055
2.21131
2.23234
2.25365
2.27532
2.29736
2.31987
2.34281
2.36628
2.39029
2.41484
2.43999
2.46578
2.49218
2.51929
2.54714
2.57562
2.60508
2.635
2.66639
2.69771
2.73157
2.76418
2.80123
2.83469
2.87655
2.90735
2.95795
1.89868
1.93247
1.95986
1.98667
2.01157
2.03492
2.05765
2.07897
2.09999
2.12072
2.14128
2.16179
2.18241
2.20314
2.22412
2.24538
2.26701
2.289
2.31146
2.33437
2.3578
2.38176
2.40629
2.43141
2.45718
2.48358
2.51069
2.53856
2.56708
2.59658
2.62657
2.65805
2.68949
2.72349
2.75632
2.79363
2.82753
2.86995
2.90175
2.95328
1.89167
1.92388
1.95156
1.97847
2.00352
2.02686
2.0497
2.07116
2.09221
2.11293
2.13348
2.15396
2.17454
2.19525
2.21619
2.23741
2.259
2.28095
2.30336
2.32623
2.34962
2.37354
2.39804
2.42313
2.44887
2.47526
2.50236
2.53024
2.55878
2.58831
2.61836
2.6499
2.68146
2.71556
2.74859
2.78609
2.82042
2.86332
2.89623
2.94885
1.87379
1.90576
1.93384
1.9606
1.9855
2.00854
2.0309
2.05257
2.07355
2.09412
2.11448
2.13478
2.15512
2.17562
2.19633
2.21736
2.2387
2.26047
2.28265
2.30532
2.32853
2.35225
2.37657
2.40151
2.42711
2.45339
2.48038
2.50817
2.53669
2.56621
2.59633
2.62791
2.65966
2.69388
2.7273
2.76513
2.8004
2.84438
2.88029
2.93622
1.83798
1.86978
1.8972
1.92377
1.94883
1.97192
1.99407
2.01545
2.03628
2.05674
2.07699
2.09718
2.11742
2.13782
2.15845
2.17937
2.20065
2.22233
2.24446
2.26709
2.29023
2.31394
2.33824
2.36318
2.38878
2.4151
2.44213
2.46998
2.49858
2.52818
2.55843
2.59015
2.62211
2.65656
2.69035
2.72864
2.76475
2.80998
2.84808
2.90636
1.8023
1.83324
1.86026
1.88663
1.91157
1.93436
1.95638
1.97762
1.99831
2.01867
2.03882
2.05891
2.07906
2.09936
2.1199
2.14073
2.16195
2.18356
2.20565
2.22824
2.25134
2.27505
2.29935
2.3243
2.34992
2.37628
2.40337
2.43129
2.45998
2.48967
2.52007
2.55195
2.58412
2.61881
2.65294
2.69167
2.72843
2.77442
2.81353
2.87275
1.76618
1.79629
1.82275
1.84879
1.87363
1.89661
1.91809
1.93908
1.95961
1.9798
1.99983
2.01982
2.03986
2.06005
2.0805
2.10126
2.12239
2.14395
2.16599
2.18852
2.21161
2.2353
2.2596
2.28456
2.31022
2.33662
2.36378
2.39178
2.42057
2.45039
2.48095
2.51299
2.5454
2.58033
2.61481
2.65387
2.69112
2.73747
2.77702
2.83647
1.72968
1.7589
1.78478
1.81042
1.83498
1.85762
1.87901
1.89981
1.92016
1.94021
1.96011
1.97998
1.99991
2.02001
2.04037
2.06105
2.08212
2.10363
2.12561
2.14811
2.17119
2.19487
2.21918
2.24417
2.26987
2.29632
2.32355
2.35163
2.38054
2.41049
2.4412
2.4734
2.50602
2.54116
2.57592
2.6152
2.65276
2.6992
2.73886
2.7982
1.6926
1.72097
1.74617
1.77134
1.79561
1.818
1.83921
1.85983
1.88
1.89989
1.91965
1.93939
1.95921
1.97922
1.99949
2.0201
2.04111
2.06256
2.0845
2.10699
2.13006
2.15373
2.17806
2.20308
2.22883
2.25534
2.28264
2.31082
2.33983
2.3699
2.40076
2.43311
2.46591
2.50122
2.53619
2.57561
2.61333
2.65973
2.69931
2.75845
1.65482
1.68237
1.70689
1.73159
1.75557
1.77771
1.7987
1.81912
1.83911
1.85884
1.87845
1.89805
1.91776
1.93766
1.95785
1.97838
1.99933
2.02074
2.04266
2.06512
2.08818
2.11187
2.13622
2.16127
2.18707
2.21364
2.24102
2.26929
2.29841
2.32859
2.35958
2.39207
2.42502
2.46047
2.4956
2.5351
2.5729
2.61917
2.65857
2.71748
1.61627
1.64305
1.6669
1.6911
1.71477
1.73667
1.75744
1.77765
1.79746
1.81701
1.83646
1.85593
1.87552
1.89531
1.91541
1.93587
1.95676
1.97812
2.00001
2.02246
2.04552
2.06921
2.09359
2.11868
2.14452
2.17116
2.19862
2.22697
2.25619
2.28648
2.31759
2.3502
2.38329
2.41885
2.45409
2.49365
2.53146
2.57759
2.61676
2.67543
1.57687
1.60294
1.62613
1.64984
1.67321
1.69487
1.71539
1.73539
1.75501
1.77439
1.79368
1.813
1.83246
1.85215
1.87215
1.89253
1.91336
1.93468
1.95653
1.97896
2.00202
2.02572
2.05012
2.07525
2.10114
2.12784
2.15537
2.1838
2.21312
2.24351
2.27473
2.30744
2.34065
2.37631
2.41164
2.45124
2.48903
2.53501
2.57393
2.6324
1.53659
1.56199
1.58455
1.60777
1.63082
1.65225
1.67254
1.69233
1.71175
1.73095
1.75007
1.76924
1.78856
1.80813
1.82803
1.84833
1.86909
1.89036
1.91218
1.93459
1.95764
1.98135
2.00577
2.03093
2.05687
2.08362
2.11122
2.13973
2.16913
2.19962
2.23094
2.26376
2.29706
2.33281
2.36821
2.40784
2.4456
2.49145
2.53013
2.58844
1.49539
1.52017
1.54212
1.56485
1.5876
1.60879
1.62885
1.64842
1.66765
1.68667
1.70562
1.72463
1.7438
1.76325
1.78304
1.80324
1.82392
1.84513
1.86691
1.8893
1.91233
1.93605
1.96048
1.98567
2.01165
2.03846
2.06612
2.0947
2.12419
2.15476
2.18617
2.21908
2.25248
2.28832
2.32378
2.36344
2.40117
2.44692
2.48537
2.54358
1.45327
1.47745
1.49883
1.52108
1.54352
1.56447
1.5843
1.60365
1.62269
1.64151
1.66028
1.67913
1.69815
1.71746
1.73712
1.75723
1.77782
1.79896
1.82068
1.84304
1.86605
1.88977
1.91421
1.93943
1.96544
1.9923
2.02001
2.04866
2.07822
2.10887
2.14038
2.17337
2.20686
2.24278
2.2783
2.31801
2.3557
2.40139
2.43964
2.49779
1.41021
1.43382
1.45463
1.4764
1.49853
1.51925
1.53885
1.55799
1.57683
1.59546
1.61405
1.63272
1.65158
1.67073
1.69027
1.71025
1.73075
1.7518
1.77347
1.79578
1.81876
1.84246
1.86691
1.89214
1.91818
1.94508
1.97285
2.00156
2.03119
2.06191
2.0935
2.12658
2.16016
2.19615
2.23173
2.2715