/*--------------------------------*- C++ -*----------------------------------*\
  =========                 |
  \\      /  F ield         | OpenFOAM: The Open Source CFD Toolbox
   \\    /   O peration     | Website:  https://openfoam.org
    \\  /    A nd           | Version:  7
     \\/     M anipulation  |
\*---------------------------------------------------------------------------*/
FoamFile
{
    version     2.0;
    format      ascii;
    class       surfaceScalarField;
    location    "1.2";
    object      phi;
}
// * * * * * * * * * * * * * * * * * * * * * * * * * * * * * * * * * * * * * //

dimensions      [0 3 -1 0 0 0 0];

internalField   nonuniform List<scalar> 
63520
(
-1.47182e-05
0.0016975
-0.00168278
-4.14383e-05
0.00390468
-0.00387796
-7.00287e-05
0.00517096
-0.00514238
-8.98048e-05
0.00567355
-0.00565377
-9.06629e-05
0.00559639
-0.00559554
-6.41231e-05
0.00510544
-0.00513197
-3.89116e-06
0.00433947
-0.0043997
9.39656e-05
0.00340956
-0.00350742
0.000231049
0.0024019
-0.00253898
0.000406847
0.00138191
-0.00155771
0.000619087
0.000397857
-0.000610097
0.000864097
-0.000516038
0.000271027
0.00113727
-0.00133728
0.0010641
0.00143354
-0.00205297
0.0017567
0.0017477
-0.00265799
0.00234383
0.00207476
-0.00315333
0.00282628
0.0024102
-0.0035445
0.00320906
0.00275009
-0.00384004
0.00350015
0.00309114
-0.0040503
0.00370924
0.00343076
-0.0041865
0.00384689
0.00376698
-0.00425991
0.00392369
0.00409839
-0.00428123
0.00394982
0.00442404
-0.00426032
0.00393466
0.00474338
-0.00420593
0.00388659
0.00505616
-0.00412565
0.00381287
0.00536234
-0.00402588
0.0037197
0.00566204
-0.00391198
0.00361228
0.00595551
-0.00378828
0.00349481
0.00624303
-0.00365825
0.00337073
0.00652493
-0.00352464
0.00324274
0.00680155
-0.00338957
0.00311295
0.00707322
-0.00325466
0.00298299
0.00734026
-0.0031211
0.00285406
0.00760295
-0.00298976
0.00272707
0.00786156
-0.00286124
0.00260263
0.00811632
-0.00273594
0.00248118
0.00836742
-0.00261416
0.00236305
0.00861499
-0.00249616
0.00224859
0.00885906
-0.00238168
0.00213762
-0.00226928
0.00909943
0.0020289
-1.03691e-05
0.00170787
-2.86224e-05
0.00392294
-4.60277e-05
0.00518837
-5.30622e-05
0.00568058
-4.04263e-05
0.00558376
-2.19452e-07
0.00506523
7.34149e-05
0.00426583
0.000184094
0.00329888
0.000333214
0.00225278
0.000520101
0.00119502
0.000742309
0.000175648
0.000996036
-0.000769766
0.00127657
-0.00161781
0.00157874
-0.00235514
0.00189733
-0.00297658
0.00222739
-0.0034834
0.00256446
-0.00388158
0.00290473
-0.00418031
0.00324508
-0.00439064
0.00358307
-0.00452449
0.0039169
-0.00459374
0.00424535
-0.00460968
0.00456764
-0.00458261
0.00488336
-0.00452165
0.00519238
-0.00443466
0.00549477
-0.00432828
0.00579076
-0.00420797
0.00608064
-0.00407816
0.00636478
-0.00394239
0.00664354
-0.0038034
0.00691728
-0.00366332
0.00718637
-0.00352375
0.0074511
-0.00338584
0.0077118
-0.00325045
0.0079687
-0.00311814
0.00822205
-0.00298929
0.00847202
-0.00286412
0.00871874
-0.00274288
0.00896223
-0.00262517
-0.00250936
0.00920231
-6.27242e-06
0.00171414
-1.61231e-05
0.00393279
-2.22872e-05
0.00519453
-1.63908e-05
0.00567468
9.98478e-06
0.00555738
6.41255e-05
0.00501109
0.000151479
0.00417848
0.000275386
0.00317497
0.000436979
0.00209119
0.00063535
0.000996649
0.00086785
-5.68533e-05
0.0011305
-0.00103242
0.00141845
-0.00190576
0.00172647
-0.00266316
0.00204932
-0.00329943
0.00238208
-0.00381616
0.00272041
-0.00421991
0.00306063
-0.00452053
0.0033998
-0.00472981
0.00373567
-0.00486037
0.00406666
-0.00492473
0.00439171
-0.00493474
0.00471022
-0.00490111
0.00502193
-0.00483336
0.00532686
-0.00473959
0.00562518
-0.0046266
0.0059172
-0.00449999
0.0062033
-0.00436426
0.00648388
-0.00422297
0.00675935
-0.00407887
0.0070301
-0.00393408
0.0072965
-0.00379014
0.00755887
-0.00364821
0.0078175
-0.00350908
0.00807266
-0.0033733
0.00832457
-0.00324119
0.00857339
-0.00311295
0.00881924
-0.00298873
0.00906216
-0.00286808
-0.00274917
0.00930197
-2.37055e-06
0.00171651
-3.9142e-06
0.00393433
1.15169e-06
0.00518947
2.0099e-05
0.00565574
6.04734e-05
0.00551701
0.000128915
0.00494264
0.00023044
0.00407695
0.000368023
0.00303739
0.00054249
0.00191672
0.000752676
0.000786462
0.000995686
-0.000299865
0.00126735
-0.00130408
0.00156268
-0.0022011
0.00187636
-0.00297684
0.00220315
-0.00362622
0.00253823
-0.00415124
0.00287735
-0.00455904
0.00321703
-0.00486021
0.00355451
-0.00506729
0.00388778
-0.00519364
0.00421545
-0.0052524
0.00453666
-0.00525594
0.00485099
-0.00521545
0.00515834
-0.00514072
0.00545887
-0.00504011
0.00575284
-0.00492058
0.00604068
-0.00478782
0.0063228
-0.00464639
0.00659967
-0.00449984
0.00687173
-0.00435093
0.00713938
-0.00420173
0.00740301
-0.00405377
0.00766294
-0.00390814
0.00791948
-0.00376562
0.00817286
-0.00362669
0.00842331
-0.00349164
0.00867098
-0.00336062
0.00891599
-0.00323373
0.00915834
-0.00311044
-0.00298873
0.00939789
1.27833e-06
0.00171523
7.88135e-06
0.00392773
2.41495e-05
0.0051732
5.62219e-05
0.00562366
0.000110783
0.00546245
0.000193832
0.0048596
0.000309887
0.0039609
0.000461521
0.00288575
0.000649228
0.00172901
0.000871515
0.000564176
0.00112521
-0.000553557
0.00140591
-0.00158479
0.00170851
-0.00250369
0.00202761
-0.00329594
0.00235801
-0.00395663
0.00269497
-0.0044882
0.00303442
-0.00489848
0.00337305
-0.00519884
0.00370834
-0.00540259
0.00403852
-0.00552381
0.00436241
-0.00557629
0.00467936
-0.0055729
0.00498915
-0.00552523
0.00529183
-0.00544339
0.00558767
-0.00533595
0.00587707
-0.00520998
0.00616051
-0.00507127
0.0064385
-0.00492437
0.00671152
-0.00477287
0.00698005
-0.00461946
0.00724452
-0.0044662
0.00750531
-0.00431455
0.00776275
-0.00416558
0.00801715
-0.00402001
0.00826873
-0.00387827
0.0085177
-0.00374061
0.00876422
-0.00360714
0.00900838
-0.0034779
0.0092502
-0.00335225
-0.00322807
0.00948954
4.72925e-06
0.00171051
1.92627e-05
0.00391319
4.66121e-05
0.00514585
9.18567e-05
0.00557842
0.000160791
0.00539351
0.000258725
0.00476166
0.000389656
0.00382997
0.0005557
0.00271971
0.000756935
0.00152778
0.000991505
0.000329605
0.00125594
-0.000817996
0.00154562
-0.00187447
0.00185528
-0.00281335
0.00217949
-0.00362016
0.0025131
-0.00429023
0.00285148
-0.00482658
0.00319075
-0.00523775
0.00352782
-0.00553591
0.00386044
-0.00573521
0.00418706
-0.00585043
0.00450674
-0.00589597
0.00481905
-0.00588521
0.00512395
-0.00583013
0.00542165
-0.0057411
0.00571256
-0.00562686
0.00599718
-0.00549461
0.00627607
-0.00535015
0.00654978
-0.00519808
0.00681884
-0.00504193
0.00708375
-0.00488438
0.00734496
-0.0047274
0.00760284
-0.00457244
0.00785775
-0.00442049
0.00810997
-0.00427222
0.00835972
-0.00412802
0.0086072
-0.0039881
0.00885256
-0.00385249
0.00909587
-0.00372121
0.00933716
-0.00359354
-0.00346721
0.0095763
7.9534e-06
0.00170255
3.01965e-05
0.00389095
6.85132e-05
0.00510754
0.000126913
0.00552002
0.000210329
0.0053101
0.000323384
0.00464861
0.00046946
0.00368389
0.000650165
0.002539
0.000865124
0.00131282
0.00111208
8.26472e-05
0.00138725
-0.00109316
0.00168576
-0.00217299
0.00200223
-0.00312982
0.00233119
-0.00394913
0.00266757
-0.00462661
0.0030069
-0.0051659
0.00334548
-0.00557634
0.0036805
-0.00587094
0.00400997
-0.00606468
0.00433258
-0.00617304
0.00464765
-0.00621104
0.00495497
-0.00619253
0.00525468
-0.00612984
0.00554716
-0.00603358
0.00583293
-0.00591263
0.00611259
-0.00577427
0.00638678
-0.00562434
0.00665609
-0.00546739
0.0069211
-0.00530694
0.00718232
-0.00514559
0.0074402
-0.00498528
0.00769513
-0.00482737
0.00794745
-0.00467282
0.00819744
-0.00452222
0.00844533
-0.00437591
0.0086913
-0.00423406
0.00893547
-0.00409667
0.00917793
-0.00396367
0.00941869
-0.00383429
-0.00370615
0.00965763
1.09776e-05
0.00169157
4.06836e-05
0.00386124
8.97845e-05
0.00505843
0.000161288
0.00544852
0.000259258
0.00521213
0.000387576
0.00452029
0.000548983
0.00352248
0.000744524
0.00234346
0.00097332
0.00108402
0.00123268
-0.000176717
0.00151849
-0.00137896
0.00182563
-0.00248013
0.0021486
-0.00345279
0.00248194
-0.00428246
0.00282064
-0.00496532
0.00316042
-0.00550568
0.00349783
-0.00591375
0.00383032
-0.00620344
0.00415618
-0.00639053
0.00447437
-0.00649123
0.00478446
-0.00652113
0.00508647
-0.00649454
0.00538072
-0.00642409
0.00566775
-0.00632061
0.00594821
-0.00619308
0.00622277
-0.00604884
0.00649215
-0.00589371
0.00675697
-0.00573222
0.00701785
-0.00556782
0.00727531
-0.00540305
0.0075298
-0.00523977
0.00778173
-0.0050793
0.00803143
-0.00492251
0.00827915
-0.00476994
0.00852513
-0.00462189
0.00876954
-0.00447847
0.0090125
-0.00433963
0.00925409
-0.00420526
0.00949429
-0.00407449
-0.00394488
0.00973302
1.38037e-05
0.00167777
5.07113e-05
0.00382434
0.000110393
0.00499875
0.000194894
0.00536401
0.000307419
0.0050996
0.000451079
0.00437663
0.000627929
0.00334563
0.000838397
0.00213299
0.00108106
0.000841352
0.00135278
-0.000448439
0.00164907
-0.00167525
0.0019646
-0.00279566
0.00229373
-0.00378192
0.00263101
-0.00461975
0.00297157
-0.00530588
0.00331131
-0.00584542
0.00364706
-0.0062495
0.00397655
-0.00653293
0.00429837
-0.00671234
0.00461175
-0.00680462
0.00491654
-0.00682591
0.00521296
-0.00679096
0.00550153
-0.00671267
0.00578293
-0.00660201
0.00605792
-0.00646807
0.00632728
-0.0063182
0.00659175
-0.00615818
0.00685203
-0.0059925
0.00710872
-0.00582451
0.00736236
-0.00565669
0.00761342
-0.00549084
0.0078623
-0.00532818
0.00810931
-0.00516952
0.00835472
-0.00501536
0.00859874
-0.00486592
0.00884154
-0.00472127
0.00908323
-0.00458132
0.00932389
-0.00444591
0.00956349
-0.0043141
-0.00418337
0.00980198
1.64412e-05
0.00166133
6.02776e-05
0.0037805
0.0001303
0.00492873
0.00022765
0.00526666
0.000354675
0.00497258
0.000513689
0.00421761
0.000706015
0.00315331
0.000931428
0.00190758
0.00118793
0.000584849
0.00147189
-0.000732403
0.00177846
-0.00198182
0.00210205
-0.00311926
0.00243696
-0.00411682
0.00277775
-0.00496054
0.00311967
-0.00564781
0.00345888
-0.00618463
0.00379249
-0.0065831
0.00411854
-0.00685898
0.0044359
-0.00702971
0.00474413
-0.00711285
0.00504331
-0.0071251
0.00533391
-0.00708156
0.00561661
-0.00699537
0.00589224
-0.00687764
0.00616166
-0.00673749
0.00642573
-0.00658227
0.00668524
-0.00641769
0.00694091
-0.00624817
0.00719337
-0.00607696
0.00744316
-0.00590648
0.00769074
-0.00573843
0.00793651
-0.00557395
0.00818079
-0.0054138
0.00842382
-0.00525839
0.00866581
-0.00510791
0.00890693
-0.00496238
0.00914728
-0.00482167
0.00938693
-0.00468555
0.00962586
-0.00455303
-0.00442155
0.00986404
1.88999e-05
0.00164243
6.93826e-05
0.00373002
0.000149481
0.00484863
0.000259491
0.00515665
0.000400906
0.00483116
0.000575217
0.0040433
0.000782988
0.00294554
0.0010233
0.00166727
0.00129353
0.000314616
0.00158955
-0.00102842
0.00190612
-0.0022984
0.00223744
-0.00345058
0.0025777
-0.00445707
0.00292151
-0.00530436
0.00326432
-0.00599061
0.0036025
-0.00652282
0.00393349
-0.00691409
0.00425566
-0.00718115
0.0045682
-0.00734225
0.00487096
-0.00741561
0.00516429
-0.00741843
0.00544886
-0.00736613
0.00572554
-0.00727205
0.00599529
-0.00714738
0.00625907
-0.00700127
0.0065178
-0.00684099
0.00677231
-0.00667221
0.00702334
-0.0064992
0.00727154
-0.00632516
0.00751745
-0.00615239
0.00776152
-0.0059825
0.00800414
-0.00581657
0.00824561
-0.00565527
0.00848619
-0.00549896
0.00872607
-0.00534779
0.0089654
-0.00520172
0.00920431
-0.00506057
0.00944283
-0.00492408
0.00968099
-0.00479118
-0.0046593
0.00991874
2.11882e-05
0.00162124
7.80322e-05
0.00367317
0.000167922
0.00475874
0.000290365
0.00503421
0.000446009
0.00467552
0.000635507
0.0038538
0.000858627
0.00272241
0.00111371
0.00141219
0.00139751
3.08202e-05
0.00170535
-0.00133627
0.00203161
-0.00262465
0.00237025
-0.00378922
0.00271539
-0.00480221
0.00306173
-0.00565071
0.0034049
-0.00633378
0.00374157
-0.00685949
0.00406949
-0.00724201
0.00438737
-0.00749904
0.00469474
-0.00764961
0.00499175
-0.00771262
0.005279
-0.00770569
0.00555739
-0.00764452
0.00582795
-0.00754261
0.00609175
-0.00741118
0.00634985
-0.00725937
0.00660321
-0.00709436
0.00685272
-0.00692171
0.00709911
-0.00674559
0.00734304
-0.00656909
0.00758504
-0.00639439
0.00782557
-0.00622303
0.00806498
-0.00605599
0.00830359
-0.00589387
0.00854162
-0.005737
0.00877928
-0.00558545
0.00901671
-0.00543915
0.00925403
-0.00529789
0.00949129
-0.00516134
0.00972851
-0.0050284
-0.00489649
0.00996569
2.33146e-05
0.00159793
8.62343e-05
0.00361025
0.000185619
0.00465935
0.000320241
0.00489959
0.00048991
0.00450585
0.000694428
0.00364929
0.000932743
0.0024841
0.00120243
0.0011425
0.00149956
-0.000266306
0.00181891
-0.00165562
0.00215447
-0.00296022
0.00249999
-0.00413474
0.00284952
-0.00515174
0.00319786
-0.00599906
0.00354088
-0.00667679
0.00387554
-0.00719415
0.00419994
-0.00756642
0.00451316
-0.00781225
0.00481504
-0.00795149
0.00510605
-0.00800363
0.00538706
-0.00798669
0.00565915
-0.00791661
0.00592351
-0.00780697
0.00618133
-0.00766901
0.00643374
-0.00751178
0.00668176
-0.00734238
0.00692627
-0.00716622
0.00716804
-0.00698736
0.0074077
-0.00680875
0.00764579
-0.00663248
0.00788274
-0.00645998
0.00811891
-0.00629215
0.00835457
-0.00612954
0.00858996
-0.00597239
0.00882527
-0.00582076
0.00906065
-0.00567454
0.00929622
-0.00553345
0.00953203
-0.00539715
0.00976811
-0.00526449
-0.00513289
0.0100045
2.52881e-05
0.00157264
9.40045e-05
0.00354154
0.00020258
0.00455078
0.0003491
0.00475307
0.000532554
0.00432239
0.000751882
0.00342996
0.00100518
0.0022308
0.00128923
0.000858451
0.0015994
-0.00057647
0.0019299
-0.00198613
0.00227434
-0.00330465
0.00262623
-0.00448663
0.0029796
-0.00550512
0.00332941
-0.00634886
0.00367173
-0.00701912
0.0040039
-0.00752632
0.00432436
-0.00788688
0.00463255
-0.00812044
0.00492867
-0.00824762
0.00521349
-0.00828846
0.00548812
-0.00826132
0.00575383
-0.00818232
0.00601197
-0.0080651
0.00626382
-0.00792086
0.00651058
-0.00775854
0.00675328
-0.00758509
0.00699284
-0.00740579
0.00723002
-0.00722454
0.00746544
-0.00704417
0.00769962
-0.00686666
0.00793297
-0.00669333
0.00816583
-0.00652501
0.00839847
-0.00636218
0.00863111
-0.00620503
0.00886394
-0.00605359
0.0090971
-0.0059077
0.0093307
-0.00576706
0.00956483
-0.00563128
0.00979954
-0.00549919
-0.00536826
0.0100349
2.71188e-05
0.00154552
0.000101362
0.00346729
0.000218822
0.00443332
0.000376944
0.00459494
0.000573914
0.00412542
0.0008078
0.00319607
0.00107583
0.00196277
0.00137394
0.000560336
0.00169679
-0.000899317
0.00203802
-0.00232737
0.00239083
-0.00365746
0.00274855
-0.00484435
0.00310521
-0.00586178
0.0034559
-0.00669956
0.00379701
-0.00736022
0.00412619
-0.0078555
0.0044423
-0.00820299
0.00474514
-0.00842328
0.00503527
-0.00853774
0.00531373
-0.00856692
0.00558189
-0.00852947
0.00584119
-0.00844163
0.00609312
-0.00831703
0.00633904
-0.00816678
0.0065802
-0.0079997
0.00681766
-0.00782255
0.00705234
-0.00764046
0.00728498
-0.00745718
0.00751619
-0.00727539
0.00774647
-0.00709694
0.00797621
-0.00692307
0.00820572
-0.00675452
0.00843526
-0.00659172
0.00866504
-0.00643481
0.00889523
-0.00628378
0.00912597
-0.00613844
0.00935739
-0.00599848
0.00958958
-0.00586347
0.00982262
-0.00573223
-0.00560228
0.0100566
2.88182e-05
0.0015167
0.000108332
0.00338778
0.000234373
0.00430728
0.000403792
0.00442552
0.000613984
0.00391523
0.000862139
0.00294792
0.00114458
0.00168033
0.00145641
0.000248506
0.00179153
-0.00123443
0.00214301
-0.00267884
0.00250364
-0.00401809
0.00286659
-0.00520731
0.00322592
-0.00622111
0.00357692
-0.00705055
0.00391626
-0.00769957
0.004242
-0.00818125
0.00455338
-0.00851437
0.00485058
-0.00872048
0.00513451
-0.00882167
0.0054065
-0.00883892
0.00566813
-0.00879111
0.00592104
-0.00869454
0.0061668
-0.0085628
0.00640688
-0.00840686
0.00664253
-0.00823535
0.00687484
-0.00805487
0.00710472
-0.00787034
0.0073329
-0.00768536
0.00755996
-0.00750245
0.00778637
-0.00732336
0.0080125
-0.0071492
0.00823862
-0.00698065
0.00846499
-0.00681808
0.00869178
-0.0066616
0.00891917
-0.00651116
0.00914729
-0.00636656
0.00937628
-0.00622746
0.00960624
-0.00609344
0.00983728
-0.00596328
-0.0058346
0.0100696
3.03989e-05
0.0014863
0.000114944
0.00330323
0.000249272
0.00417295
0.000429675
0.00424512
0.000652778
0.00369213
0.000914882
0.00268581
0.00121139
0.00138382
0.00153653
-7.66329e-05
0.00188344
-0.00158135
0.00224461
-0.00304001
0.00261246
-0.00438594
0.00298001
-0.00557486
0.00334138
-0.00658247
0.00369207
-0.00740125
0.00402912
-0.00803662
0.00435097
-0.00850309
0.00465725
-0.00882065
0.00494856
-0.00901179
0.00522612
-0.00909924
0.00549156
-0.00910436
0.00574666
-0.00904621
0.00599322
-0.00894109
0.00623291
-0.00880249
0.00646724
-0.00864119
0.0066975
-0.00846561
0.00692479
-0.00828216
0.00714999
-0.00809554
0.0073738
-0.00790917
0.00759679
-0.00772544
0.00781937
-0.00754594
0.00804189
-0.00737172
0.00826461
-0.00720337
0.00848774
-0.0070412
0.00871144
-0.0068853
0.00893586
-0.00673559
0.00916116
-0.00659185
0.00938745
-0.00645376
0.00961487
-0.00632086
0.00984358
-0.00619198
-0.00606484
0.0100738
3.18745e-05
0.00145443
0.000121231
0.00321387
0.000263564
0.00403062
0.000454642
0.00405404
0.00069033
0.00345644
0.000966032
0.00241011
0.00127621
0.00107364
0.0016142
-0.00041462
0.00197237
-0.00193952
0.00234262
-0.00341026
0.00271703
-0.00476035
0.0030885
-0.00594633
0.00345124
-0.00694522
0.00380103
-0.00775104
0.00413525
-0.00837084
0.00445276
-0.0088206
0.00475362
-0.00912151
0.00503881
-0.00929698
0.00530989
-0.00937032
0.00556874
-0.00936321
0.00581735
-0.00929481
0.00605764
-0.00918138
0.00629137
-0.00903622
0.0065201
-0.00886992
0.00674513
-0.00869064
0.00696753
-0.00850456
0.00718818
-0.00831619
0.00740775
-0.00812874
0.00762675
-0.00794444
0.00784557
-0.00776477
0.00806452
-0.00759067
0.00828382
-0.00742267
0.00850366
-0.00726104
0.00872417
-0.00710582
0.00894549
-0.00695691
0.00916776
-0.00681412
0.00939111
-0.0066771
0.00961569
-0.00654544
0.00984169
-0.00641799
-0.0062926
0.0100695
3.32596e-05
0.00142117
0.00012723
0.0031199
0.0002773
0.00388054
0.00047875
0.00385259
0.000726687
0.0032085
0.00101561
0.00212119
0.00133901
0.000750233
0.00168934
-0.000764943
0.00205817
-0.00230835
0.00243684
-0.00378893
0.00281711
-0.00514062
0.00319179
-0.00632101
0.00355522
-0.00730865
0.00390348
-0.0080993
0.00423434
-0.00870171
0.00454711
-0.00913336
0.00484226
-0.00941667
0.00512115
-0.00957587
0.00538566
-0.00963483
0.00563792
-0.00961547
0.0058801
-0.00953699
0.00611424
-0.00941552
0.00634217
-0.00926415
0.00656546
-0.00909321
0.00678543
-0.00891061
0.00700312
-0.00872226
0.00721938
-0.00853245
0.00743484
-0.0083442
0.00764996
-0.00815956
0.00786511
-0.00797992
0.00808054
-0.0078061
0.00829644
-0.00763858
0.00851296
-0.00747756
0.00873022
-0.00732307
0.00894832
-0.00717502
0.00916739
-0.00703319
0.00938756
-0.00689728
0.00960902
-0.0067669
0.00983199
-0.00664096
-0.00651751
0.0100569
3.45702e-05
0.0013866
0.000132978
0.00302149
0.000290539
0.00372298
0.000502063
0.00364107
0.000761905
0.00294865
0.00106364
0.00181946
0.0013998
0.000414073
0.00176189
-0.00112704
0.00214074
-0.0026872
0.00252712
-0.00417531
0.00291248
-0.00552598
0.00328961
-0.00669815
0.00365304
-0.00767207
0.00399915
-0.00844541
0.00432615
-0.00902871
0.00463378
-0.009441
0.00492296
-0.00970584
0.0051954
-0.00984832
0.00545331
-0.00989273
0.00569902
-0.00986119
0.00593488
-0.00977285
0.00616301
-0.00964365
0.00638531
-0.00948645
0.00660337
-0.00931126
0.00681847
-0.00912571
0.00703165
-0.00893544
0.00724369
-0.0087445
0.00745519
-0.00855569
0.00766657
-0.00837095
0.00787815
-0.0081915
0.00809014
-0.00801809
0.00830269
-0.00785113
0.0085159
-0.00769077
0.00872987
-0.00753704
0.00894468
-0.00738983
0.00916042
-0.00724893
0.00937724
-0.0071141
0.00959533
-0.00698499
0.00981497
-0.00686061
-0.00673923
0.0100367
3.58223e-05
0.00135077
0.000138515
0.0029188
0.00030334
0.00355816
0.000524653
0.00341975
0.000796048
0.00267726
0.00111017
0.00150534
0.00145856
6.56757e-05
0.00183181
-0.00150028
0.00221997
-0.00307535
0.00261328
-0.00456861
0.00300294
-0.00591565
0.00338176
-0.00707697
0.00374446
-0.00803477
0.00408781
-0.00878876
0.00441046
-0.00935136
0.0047126
-0.00974314
0.00499558
-0.00998882
0.00526147
-0.0101142
0.00551275
-0.010144
0.005752
-0.0101004
0.00598167
-0.0100025
0.00620399
-0.00986597
0.00642086
-0.00970333
0.00663389
-0.00952429
0.00684434
-0.00933617
0.00705321
-0.00914431
0.00726123
-0.00895252
0.00746895
-0.00876342
0.00767676
-0.00857875
0.0078849
-0.00839965
0.00809356
-0.00822675
0.00830283
-0.0080604
0.00851279
-0.00790073
0.00872348
-0.00774773
0.00893496
-0.00760131
0.00914731
-0.00746128
0.00936065
-0.00732744
0.00957521
-0.00719954
0.00979131
-0.00707671
-0.00695751
0.0100096
3.70318e-05
0.00131374
0.000143881
0.00281195
0.000315768
0.00338627
0.000546592
0.00318893
0.000829181
0.00239467
0.00115524
0.00117928
0.00151531
-0.000294401
0.00189905
-0.00188402
0.00229576
-0.00347206
0.00269518
-0.00496804
0.00308832
-0.00630879
0.00346802
-0.00745667
0.00382928
-0.00839603
0.00416927
-0.00912876
0.0044871
-0.0096692
0.00478343
-0.0100395
0.00506001
-0.0102654
0.00531928
-0.0103735
0.00556398
-0.0103887
0.00579686
-0.0103333
0.00602051
-0.0102262
0.00623721
-0.0100827
0.00644889
-0.00991501
0.00665713
-0.00973253
0.00686316
-0.0095422
0.00706794
-0.00934909
0.00727216
-0.00915674
0.0074763
-0.00896756
0.0076807
-0.00878315
0.00788556
-0.00860452
0.00809103
-0.00843221
0.00829714
-0.00826652
0.00850393
-0.00810753
0.00871142
-0.00795522
0.00891961
-0.0078095
0.00912857
-0.00767024
0.0093384
-0.00753728
0.00954935
-0.00741049
0.0097618
-0.00728917
-0.00717222
0.00997651
3.82135e-05
0.00127553
0.000149116
0.00270105
0.000327884
0.0032075
0.000567951
0.00294886
0.00086137
0.00210125
0.00119889
0.000841765
0.00157005
-0.000665564
0.00196357
-0.00227754
0.00236801
-0.0038765
0.00277269
-0.00537272
0.00316844
-0.00670455
0.00354822
-0.00783644
0.00390732
-0.00875514
0.00424337
-0.0094648
0.00455594
-0.00998177
0.00484616
-0.0103297
0.0051162
-0.0105354
0.00536881
-0.0106261
0.00560699
-0.0106269
0.00583365
-0.01056
0.00605147
-0.010444
0.00626277
-0.010294
0.00646949
-0.0101217
0.00667319
-0.00993622
0.00687506
-0.00974407
0.00707599
-0.00955002
0.00727662
-0.00935737
0.0074774
-0.00916833
0.00767859
-0.00898435
0.00788037
-0.00880629
0.0080828
-0.00863465
0.00828592
-0.00846963
0.00848969
-0.0083113
0.00869408
-0.00815962
0.0088991
-0.00801451
0.00910474
-0.00787588
0.00931113
-0.00774367
0.0095185
-0.00761786
0.00972732
-0.00749798
-0.00738334
0.00993844
3.93809e-05
0.00123615
0.000154257
0.00258617
0.000339746
0.00302201
0.000588798
0.00269981
0.000892676
0.00179737
0.00124116
0.000493284
0.00162277
-0.00104718
0.00202531
-0.00268008
0.00243665
-0.00428784
0.00284569
-0.00578176
0.00324317
-0.00710203
0.0036222
-0.00821547
0.00397845
-0.00911139
0.00430999
-0.00979634
0.0046169
-0.0102887
0.00490075
-0.0106135
0.00516413
-0.0107988
0.00541008
-0.0108721
0.00564183
-0.0108586
0.00586243
-0.0107806
0.00607463
-0.0106562
0.00628078
-0.0105001
0.0064828
-0.0103237
0.00668221
-0.0101356
0.00688017
-0.00994203
0.0070775
-0.00974736
0.00727479
-0.00955466
0.00747243
-0.00936597
0.00767063
-0.00918256
0.00786953
-0.00900519
0.00806914
-0.00883426
0.00826944
-0.00866993
0.00847037
-0.00851223
0.00867187
-0.00836111
0.00887387
-0.00821652
0.00907638
-0.00807839
0.00927948
-0.00794676
0.00948342
-0.0078218
0.00968873
-0.00770329
-0.007591
0.0098964
4.05463e-05
0.0011956
0.000159342
0.00246738
0.000351407
0.00282995
0.000609193
0.00244202
0.000923153
0.00148341
0.00128208
0.000134357
0.00167348
-0.00143858
0.00208423
-0.00309084
0.00250157
-0.00470518
0.00291405
-0.00619423
0.00331236
-0.00750034
0.00368983
-0.00859294
0.00404254
-0.0094641
0.00436903
-0.0101228
0.0046699
-0.0105895
0.00494718
-0.0108908
0.0052038
-0.0110554
0.00544314
-0.0111114
0.00566858
-0.0110841
0.0058833
-0.0109953
0.00609011
-0.010863
0.00629136
-0.0107014
0.00648894
-0.0105213
0.00668434
-0.010331
0.00687864
-0.0101363
0.00707263
-0.00994134
0.00726683
-0.00974886
0.00746156
-0.00956071
0.00765702
-0.00937801
0.00785326
-0.00920143
0.00805027
-0.00903127
0.00824799
-0.00886765
0.00844631
-0.00871056
0.00864514
-0.00855994
0.00884437
-0.00841575
0.00904398
-0.008278
0.00924404
-0.00814682
0.00944481
-0.00802258
0.00964687
-0.00790535
-0.00779548
0.00985134
4.17217e-05
0.00115388
0.0001644
0.0023447
0.000362916
0.00263143
0.000629191
0.00217575
0.000952848
0.00115975
0.00132167
-0.000234468
0.00172215
-0.00183905
0.00214029
-0.00350898
0.00256271
-0.00512761
0.00297767
-0.0066092
0.0033759
-0.00789856
0.003751
-0.00896805
0.0040995
-0.00981259
0.00442045
-0.0104438
0.00471494
-0.010884
0.00498545
-0.0111613
0.00523528
-0.0113053
0.00546806
-0.0113442
0.00568734
-0.0113034
0.00589639
-0.0112044
0.00609804
-0.0110647
0.00629465
-0.010898
0.00648806
-0.0107147
0.00667971
-0.0105227
0.00687062
-0.0103272
0.00706152
-0.0101322
0.00725287
-0.00994021
0.00744496
-0.00975279
0.00763791
-0.00957096
0.00783174
-0.00939526
0.0080264
-0.00922594
0.00822179
-0.00906304
0.00841777
-0.00890654
0.00861421
-0.00875637
0.00881097
-0.00861251
0.00900799
-0.00847503
0.00920533
-0.00834416
0.00940326
-0.00822051
0.00960242
-0.0081045
-0.00799713
0.00980407
4.29183e-05
0.00111096
0.00016946
0.00221815
0.000374313
0.00242658
0.000648837
0.00190122
0.000981793
0.000826799
0.00135994
-0.000612618
0.00176875
-0.00224786
0.0021934
-0.00393363
0.00261995
-0.00555415
0.00303644
-0.00702568
0.00343368
-0.00829581
0.00380563
-0.00934
0.00414927
-0.0101562
0.0044642
-0.0107587
0.00475201
-0.0111718
0.00501562
-0.0114249
0.00525865
-0.0115483
0.00548495
-0.0115705
0.00569823
-0.0115166
0.00590182
-0.011408
0.00609857
-0.0112614
0.00629079
-0.0110902
0.00648031
-0.0109043
0.00666847
-0.0107108
0.00685625
-0.010515
0.00704432
-0.0103203
0.00723308
-0.010129
0.00742276
-0.00994248
0.00761346
-0.00976165
0.00780514
-0.00958695
0.00799772
-0.00941852
0.00819106
-0.00925638
0.00838499
-0.00910047
0.00857934
-0.00895072
0.00877395
-0.00880712
0.00896873
-0.00866981
0.00916373
-0.00853916
0.00935922
-0.008416
0.00955588
-0.00830117
-0.00819638
0.00975513
4.41455e-05
0.00106681
0.000174544
0.00208775
0.000385634
0.00221549
0.000668167
0.00161869
0.00101001
0.000484957
0.00139689
-0.000999495
0.00181326
-0.00266424
0.00224352
-0.00436389
0.00267322
-0.00598385
0.00309025
-0.00744272
0.00348561
-0.00869116
0.00385363
-0.00970802
0.00419181
-0.0104944
0.0045003
-0.0110672
0.00478117
-0.0114527
0.00503776
-0.0116815
0.005274
-0.0117845
0.00549394
-0.0117904
0.0057014
-0.0117241
0.00589976
-0.0116063
0.00609185
-0.0114535
0.00627995
-0.0112783
0.00646581
-0.0110901
0.00665075
-0.0108958
0.00683566
-0.0106999
0.00702114
-0.0105058
0.00720756
-0.0103154
0.00739509
-0.01013
0.00758379
-0.00995035
0.00777358
-0.00977674
0.00796436
-0.00960929
0.00815594
-0.00944796
0.00834813
-0.00929266
0.00854072
-0.00914331
0.00873353
-0.00899993
0.00892645
-0.00886272
0.00911948
-0.0087322
0.00931294
-0.00860945
0.00950754
-0.00849577
-0.00839366
0.00970482
4.54111e-05
0.0010214
0.00017967
0.0019535
0.000396903
0.00199825
0.000687202
0.00132839
0.0010375
0.000134658
0.00143248
-0.00139447
0.00185562
-0.00308738
0.00229056
-0.00479882
0.00272242
-0.00641572
0.00313903
-0.00785933
0.00353161
-0.00908375
0.00389496
-0.0100714
0.00422712
-0.0108266
0.00452877
-0.0113689
0.00480249
-0.0117264
0.00505198
-0.011931
0.00528147
-0.012014
0.00549518
-0.0120041
0.00569701
-0.0119259
0.00589036
-0.0117997
0.00607803
-0.0116412
0.00626226
-0.0114625
0.00644473
-0.0112726
0.00662668
-0.0110777
0.00680896
-0.0108822
0.0069921
-0.0106889
0.00717641
-0.0104997
0.00736204
-0.0103156
0.00754899
-0.0101373
0.00773717
-0.00996492
0.00792642
-0.00979854
0.00811653
-0.00963808
0.0083073
-0.00948343
0.00849847
-0.00933449
0.00868983
-0.0091913
0.00888124
-0.00905413
0.0090727
-0.00892366
0.00926451
-0.00880126
0.00945743
-0.0086887
-0.00858938
0.00965315
4.67203e-05
0.00097468
0.000184852
0.00181536
0.000408139
0.00177496
0.000705953
0.00103058
0.00106426
-0.000223649
0.00146669
-0.00179691
0.00189577
-0.00351647
0.00233443
-0.00523748
0.00276745
-0.00684874
0.00318268
-0.00827456
0.00357163
-0.0094727
0.00392961
-0.0104293
0.00425521
-0.0111522
0.00454967
-0.0116633
0.00481605
-0.0119928
0.00505841
-0.0121734
0.00528122
-0.0122368
0.00548884
-0.0122117
0.00568523
-0.0121223
0.00587379
-0.0119882
0.00605728
-0.0118247
0.00623787
-0.0116431
0.00641719
-0.0114519
0.00659639
-0.0112569
0.00677625
-0.0110621
0.00695727
-0.0108699
0.00713971
-0.0106822
0.00732367
-0.0104996
0.00750912
-0.0103227
0.00769594
-0.0101517
0.00788394
-0.00998655
0.00807289
-0.00982704
0.00826255
-0.00967308
0.00845264
-0.00952457
0.0086429
-0.00938156
0.00883316
-0.00924439
0.00902339
-0.00911389
0.00921388
-0.00899175
0.00940546
-0.00888029
-0.00878384
0.00959992
4.80769e-05
0.000926603
0.000190101
0.00167334
0.00041935
0.00154572
0.000724416
0.000725511
0.00109026
-0.000589498
0.00149947
-0.00220611
0.00193364
-0.00395064
0.00237505
-0.00567889
0.00280823
-0.00728192
0.00322112
-0.00868744
0.00360562
-0.0098572
0.00395755
-0.0107813
0.00427611
-0.0114707
0.00456309
-0.0119503
0.00482198
-0.0122517
0.00505719
-0.0124086
0.00527341
-0.012453
0.00547509
-0.0124134
0.00566624
-0.0123135
0.00585022
-0.0121722
0.00602976
-0.0120042
0.00620694
-0.0118203
0.00638331
-0.0116283
0.00655996
-0.0114336
0.00673762
-0.0112397
0.00691673
-0.0110491
0.0070975
-0.0108629
0.00728001
-0.0106821
0.00746419
-0.0105069
0.0076499
-0.0103374
0.00783693
-0.0101736
0.00802502
-0.0100151
0.00821389
-0.00986195
0.00840322
-0.0097139
0.00859272
-0.00957106
0.00878216
-0.00943383
0.00897146
-0.00930319
0.00916091
-0.0091812
0.00935139
-0.00907077
-0.00897725
0.0095448
4.94834e-05
0.000877119
0.00019542
0.0015274
0.000430534
0.0013106
0.000742575
0.00041347
0.00111548
-0.000962401
0.00153076
-0.00262139
0.00196914
-0.00438902
0.00241233
-0.00612208
0.00284468
-0.00771427
0.0032543
-0.00909707
0.00363354
-0.0102364
0.00397881
-0.0111265
0.00428989
-0.0117818
0.00456911
-0.0122295
0.00482041
-0.012503
0.0050485
-0.0126367
0.00525821
-0.0126628
0.00545412
-0.0126093
0.00564022
-0.0124996
0.00581983
-0.0123518
0.00599561
-0.01218
0.00616958
-0.0119943
0.0063432
-0.0118019
0.00651749
-0.0116079
0.00669312
-0.0114154
0.00687049
-0.0112264
0.00704979
-0.0110422
0.00723104
-0.0108634
0.00741417
-0.0106901
0.00759902
-0.0105223
0.00778535
-0.0103599
0.00797287
-0.0102027