/*--------------------------------*- C++ -*----------------------------------*\
  =========                 |
  \\      /  F ield         | OpenFOAM: The Open Source CFD Toolbox
   \\    /   O peration     | Website:  https://openfoam.org
    \\  /    A nd           | Version:  7
     \\/     M anipulation  |
\*---------------------------------------------------------------------------*/
FoamFile
{
    version     2.0;
    format      ascii;
    class       volVectorField;
    location    "82.2";
    object      U;
}
// * * * * * * * * * * * * * * * * * * * * * * * * * * * * * * * * * * * * * //

dimensions      [0 1 -1 0 0 0 0];

internalField   nonuniform List<vector> 
2000
(
(-0.000139502 -0.00539645 -2.35024e-22)
(-1.23206e-05 -0.0126311 0)
(0.000558749 -0.0166533 0)
(0.00152245 -0.0179339 -1.20395e-21)
(0.00282584 -0.0167689 3.91047e-22)
(0.00444196 -0.0133525 1.51343e-23)
(0.0063657 -0.00782803 -6.7305e-22)
(0.00859175 -0.000332697 0)
(0.0110962 0.00896792 0)
(0.0137405 0.0198589 0)
(0.000364142 -0.00521901 0)
(0.00139107 -0.0126637 -9.18397e-22)
(0.00273264 -0.0169681 8.46945e-22)
(0.00420032 -0.0185716 1.60831e-21)
(0.00575255 -0.0177772 0)
(0.00737811 -0.0147976 1.46916e-21)
(0.00909454 -0.00978242 -1.36622e-21)
(0.0109279 -0.00285055 0)
(0.0129013 0.00588163 2.50636e-21)
(0.014892 0.0162714 -4.82448e-21)
(0.000911186 -0.00512285 0)
(0.0030106 -0.0127877 7.33203e-21)
(0.00533013 -0.0173158 0)
(0.00749796 -0.0191667 6.55425e-21)
(0.00948228 -0.0186653 0)
(0.0112864 -0.0160553 -5.91041e-21)
(0.0129489 -0.0115043 0)
(0.0145247 -0.00512324 5.35616e-21)
(0.0160853 0.00301505 -5.01636e-21)
(0.0175205 0.012834 -4.91126e-21)
(0.00153662 -0.00513551 -1.90722e-21)
(0.00489478 -0.0130331 -3.66086e-21)
(0.0083861 -0.0177106 -1.71429e-21)
(0.0114318 -0.0197117 -3.21979e-21)
(0.0140135 -0.0193992 -3.07992e-21)
(0.0161537 -0.0170588 2.90896e-21)
(0.0179138 -0.0128876 2.79086e-21)
(0.0193768 -0.00700099 -2.57852e-23)
(0.0206614 0.000562351 5.06328e-21)
(0.021671 0.00977868 4.90906e-21)
(0.00228028 -0.0052751 -1.87482e-21)
(0.00709219 -0.0134149 -3.73312e-21)
(0.0119233 -0.0181542 -7.08729e-21)
(0.0159889 -0.0201955 3.26141e-21)
(0.0192962 -0.0199541 0)
(0.0218971 -0.0177662 0)
(0.0238835 -0.0138666 -5.7281e-21)
(0.0253676 -0.0083861 -5.43142e-21)
(0.0265138 -0.0013402 5.125e-21)
(0.0272443 0.0072834 1.47734e-20)
(0.00318433 -0.00554576 1.90431e-21)
(0.00964458 -0.0139245 1.93711e-21)
(0.0159429 -0.0186315 -1.05053e-20)
(0.0211181 -0.0206026 1.66947e-20)
(0.0252227 -0.0203175 -3.11302e-21)
(0.0283544 -0.0181679 0)
(0.0306473 -0.0144307 0)
(0.0322498 -0.00925915 2.70486e-20)
(0.0333698 -0.00265374 -2.55805e-20)
(0.0339544 0.00541886 4.85593e-21)
(0.00428778 -0.0059337 1.48367e-20)
(0.0125789 -0.0145283 0)
(0.0204174 -0.0191094 1.40429e-20)
(0.0267247 -0.0209115 -1.33249e-20)
(0.0316259 -0.0204882 0)
(0.0352851 -0.0182878 6.05689e-21)
(0.0378946 -0.0146292 -1.69813e-20)
(0.0396501 -0.00969074 -2.16047e-20)
(0.0408023 -0.00346153 1.01363e-20)
(0.0413268 0.00410993 9.8232e-21)
(0.00562071 -0.00640695 -2.96544e-20)
(0.0158986 -0.0151689 -3.77554e-21)
(0.0252838 -0.019538 -7.10892e-21)
(0.0326692 -0.0210957 -1.67285e-20)
(0.038285 -0.0204751 -6.4059e-21)
(0.0423858 -0.0181779 -6.04402e-21)
(0.0452394 -0.0145618 5.57569e-23)
(0.0471023 -0.00983022 0)
(0.0482742 -0.00396166 0)
(0.0487578 0.00313241 5.294e-23)
(0.00719866 -0.00691733 1.48181e-20)
(0.0195759 -0.0157685 -1.50321e-20)
(0.0304401 -0.019855 1.05747e-20)
(0.0387704 -0.0211273 2.35438e-20)
(0.0449397 -0.0202964 -6.28037e-21)
(0.0493174 -0.0179096 6.04909e-21)
(0.0522623 -0.0143561 5.69744e-21)
(0.0541035 -0.00986578 0)
(0.0552036 -0.00441057 0)
(0.0556058 0.00215794 -2.39414e-22)
(0.00901837 -0.00740514 -1.86131e-21)
(0.0235467 -0.0162369 1.88608e-20)
(0.0357449 -0.0199942 -3.52826e-21)
(0.0448142 -0.0209827 0)
(0.0513109 -0.019981 0)
(0.0557438 -0.0175661 1.19513e-20)
(0.0585733 -0.0141457 0)
(0.0602038 -0.00997292 -1.04726e-20)
(0.0610632 -0.00503931 2.16434e-23)
(0.0612709 0.000828384 9.36687e-21)
(0.0193039 0.0471184 1.84598e-22)
(0.0323793 0.10661 -1.86693e-22)
(0.040208 0.165904 -2.10876e-22)
(0.0411528 0.220288 -2.38506e-22)
(0.0366168 0.27453 -2.91476e-22)
(0.0324761 0.33241 -1.03461e-23)
(0.0210915 0.397751 1.53059e-22)
(0.0180525 0.483551 5.47114e-22)
(-0.00146409 0.61161 0)
(0.00539589 0.765425 -3.99867e-22)
(0.0184132 0.0426993 7.12196e-22)
(0.0294258 0.101719 -8.02647e-22)
(0.0375767 0.163313 1.43402e-21)
(0.0390042 0.219629 2.389e-22)
(0.0349083 0.275047 5.15667e-22)
(0.0311055 0.333696 8.86519e-22)
(0.0202252 0.399575 -3.31068e-22)
(0.0173018 0.485764 -3.67059e-22)
(-0.0013854 0.613293 7.13793e-22)
(0.00498217 0.7656 3.98922e-22)
(0.0190185 0.0381632 0)
(0.0271421 0.0958853 -7.76354e-22)
(0.0353185 0.159547 -4.15205e-22)
(0.0371354 0.217917 0)
(0.0334241 0.274637 -1.58759e-21)
(0.0299337 0.334146 4.96196e-22)
(0.0194984 0.400609 5.56914e-22)
(0.0166484 0.487172 1.97893e-21)
(-0.00127286 0.614512 -7.11481e-22)
(0.00461247 0.765593 1.43965e-21)
(0.0212804 0.0337691 0)
(0.0256622 0.0893281 7.82867e-22)
(0.0334432 0.154626 0)
(0.0355328 0.215134 1.85051e-21)
(0.0321487 0.273294 -1.86012e-21)
(0.0289439 0.333759 -1.12753e-21)
(0.0188973 0.400825 -6.79516e-23)
(0.0161005 0.487723 -1.93659e-21)
(-0.00112854 0.615031 -3.16501e-22)
(0.00426638 0.765222 -1.77038e-21)
(0.025224 0.0297526 3.6695e-23)
(0.0251559 0.0823427 -2.23971e-21)
(0.0319711 0.148618 7.01139e-23)
(0.0341846 0.211279 -1.65808e-21)
(0.0310653 0.27102 0)
(0.0281163 0.332568 -1.07769e-21)
(0.0184033 0.400321 -9.0853e-23)
(0.015638 0.487654 2.43296e-21)
(-0.000976381 0.615231 3.21219e-22)
(0.00394643 0.764802 -3.22394e-22)
(0.0306532 0.026273 -6.05693e-21)
(0.0257849 0.0752675 3.83284e-21)
(0.0309395 0.141646 1.62434e-21)
(0.0330823 0.206372 -1.62356e-21)
(0.0301605 0.267808 -8.82984e-22)
(0.0274404 0.330524 0)
(0.0180172 0.398959 -2.15624e-21)
(0.0152754 0.486621 1.07892e-21)
(-0.00080178 0.61447 1.17643e-21)
(0.00363221 0.763905 1.22676e-21)
(0.037103 0.0233867 -7.27215e-22)
(0.027618 0.0684469 0)
(0.0304006 0.1339 0)
(0.0322199 0.200457 0)
(0.0294134 0.263728 -9.40092e-22)
(0.0268917 0.327836 1.82028e-21)
(0.0177078 0.397167 2.10233e-21)
(0.0149577 0.485424 -3.27654e-21)
(-0.000653109 0.613926 5.78706e-22)
(0.00334592 0.763248 -1.78813e-21)
(0.0438466 0.0210168 4.55782e-21)
(0.030511 0.0620803 3.11972e-21)
(0.0303896 0.12563 -3.09134e-21)
(0.0316006 0.193603 3.28708e-21)
(0.0288225 0.258595 -4.08171e-21)
(0.0264765 0.324012 0)
(0.0175099 0.394069 -9.46331e-22)
(0.0147637 0.482599 4.75093e-23)
(-0.000458956 0.611663 -1.04323e-21)
(0.00304739 0.761784 -1.102e-21)
(0.0499146 0.0187635 -3.86579e-21)
(0.0340037 0.055807 0)
(0.0308823 0.116696 -3.47923e-21)
(0.0311822 0.186011 6.26869e-21)
(0.0283489 0.25325 -2.33354e-21)
(0.0261389 0.320565 -4.28814e-22)
(0.0173214 0.391841 9.44286e-22)
(0.0145115 0.481229 1.02168e-23)
(-0.000369924 0.61113 1.50808e-21)
(0.00278815 0.761153 1.60011e-21)
(0.054066 0.0164547 -3.12613e-21)
(0.0373184 0.0495731 3.05662e-21)
(0.0318523 0.106511 3.85825e-22)
(0.0310639 0.175595 0)
(0.0279915 0.244246 0)
(0.0259752 0.313196 4.21253e-22)
(0.0173672 0.38546 1.78394e-21)
(0.0145668 0.475276 -1.73308e-21)
(-0.000112168 0.606478 -4.67386e-22)
(0.00248855 0.758926 4.52149e-22)
(0.0560116 0.0179439 0)
(0.041559 0.0471345 0)
(0.0338024 0.0996766 0)
(0.0316383 0.170257 0)
(0.0278041 0.24226 0)
(0.0249674 0.313893 0)
(0.0165223 0.387708 0)
(0.0134329 0.478814 0)
(-0.000390984 0.60927 0)
(0.00193664 0.758638 0)
(0.0575093 0.0344123 0)
(0.0448441 0.0659953 0)
(0.0344625 0.111603 0)
(0.0305105 0.176147 0)
(0.0267118 0.24681 0)
(0.0236048 0.319059 0)
(0.015692 0.39436 0)
(0.0122296 0.486857 0)
(-0.000347071 0.615928 0)
(0.00144767 0.759542 0)
(0.0545697 0.0395955 0)
(0.0459133 0.0756457 0)
(0.0354648 0.120378 0)
(0.0297864 0.18231 0)
(0.0254419 0.252211 0)
(0.0220363 0.324413 0)
(0.0147118 0.400173 0)
(0.0110926 0.49292 0)
(-0.000357246 0.620563 0)
(0.00106102 0.759574 0)
(0.0495625 0.0427798 0)
(0.0443592 0.0830471 0)
(0.0354315 0.1277 0)
(0.0292095 0.18772 0)
(0.0245128 0.257441 0)
(0.0208236 0.330482 0)
(0.013951 0.407598 0)
(0.0102293 0.501294 0)
(-0.000126673 0.627296 0)
(0.000837557 0.760583 0)
(0.043987 0.0440395 0)
(0.0413045 0.0888256 0)
(0.0342319 0.134485 0)
(0.0282476 0.192794 0)
(0.0234843 0.26158 0)
(0.0196566 0.334656 0)
(0.013178 0.412219 0)
(0.00939127 0.506063 0)
(-0.000129883 0.630812 0)
(0.000586897 0.760379 0)
(0.0380587 0.0435407 0)
(0.0374348 0.0926803 0)
(0.0320541 0.14019 0)
(0.0267851 0.197903 0)
(0.022453 0.266472 0)
(0.0187502 0.340323 0)
(0.0126889 0.419286 0)
(0.00883732 0.514139 0)
(0.000156352 0.637169 0)
(0.000474135 0.76123 0)
(0.0320621 0.0414483 0)
(0.0334267 0.0949821 0)
(0.0297939 0.14502 0)
(0.0251416 0.202173 0)
(0.0211274 0.269771 0)
(0.0176674 0.343341 0)
(0.0120605 0.422458 0)
(0.00824991 0.51728 0)
(0.000140037 0.639383 0)
(0.000314231 0.760823 0)
(0.0259771 0.0374972 0)
(0.0290034 0.0947528 0)
(0.027036 0.147998 0)
(0.0235236 0.206529 0)
(0.0201206 0.274723 0)
(0.0169084 0.349289 0)
(0.011726 0.429853 0)
(0.00789951 0.525645 0)
(0.000506248 0.645806 0)
(0.000292121 0.761677 0)
(0.0210858 0.0339619 0)
(0.0262346 0.0951526 0)
(0.0254806 0.150789 0)
(0.0222721 0.208997 0)
(0.0191028 0.276527 0)
(0.0161279 0.350871 0)
(0.011266 0.431526 0)
(0.00753057 0.527179 0)
(0.000479549 0.646867 0)
(0.000208523 0.761327 0)
(0.0143052 0.0214334 0)
(0.0210246 0.0877084 0)
(0.0233384 0.150496 0)
(0.0217481 0.212859 0)
(0.0189598 0.281876 0)
(0.0159814 0.357579 0)
(0.011336 0.439849 0)
(0.00743097 0.536522 0)
(0.000986014 0.653867 0)
(0.000258098 0.762341 0)
(0.0638074 0.00719649 2.71962e-21)
(0.0618535 0.0145799 -2.67355e-21)
(0.0561735 0.0159077 2.29518e-22)
(0.0497411 0.0156602 0)
(0.0430814 0.0139592 0)
(0.0361275 0.011099 6.70881e-23)
(0.029179 0.00716607 -7.97183e-23)
(0.0223248 0.00185625 7.83413e-23)
(0.0162016 -0.00299498 -1.33214e-23)
(0.00876245 -0.0141994 1.30887e-23)
(0.0649722 0.0027765 -3.60655e-21)
(0.0611938 0.00624734 0)
(0.0547753 0.00569295 1.28906e-21)
(0.048118 0.00401871 -2.55746e-21)
(0.041373 0.00119799 1.26368e-21)
(0.0343705 -0.00249588 -6.55985e-23)
(0.0273691 -0.00705117 5.93566e-23)
(0.0205232 -0.0127606 1.40848e-23)
(0.0141001 -0.0180354 -2.13591e-23)
(0.00713982 -0.0283388 -2.36225e-23)
(0.0652805 -0.00184428 4.06145e-21)
(0.0600558 -0.0018281 -1.86862e-21)
(0.0532295 -0.00422259 1.85066e-21)
(0.0464255 -0.00735355 -1.01039e-21)
(0.0396009 -0.0113141 7.93274e-22)
(0.0325516 -0.0158387 0)
(0.0255062 -0.0209706 -5.94923e-23)
(0.0186814 -0.0269392 1.19431e-24)
(0.0121201 -0.0324113 7.72237e-24)
(0.00572478 -0.0414733 3.58825e-23)
(0.064841 -0.00730402 -6.17105e-22)
(0.0584433 -0.0102399 0)
(0.0514515 -0.0142178 0)
(0.044588 -0.0186354 0)
(0.0377369 -0.0235954 5.12419e-22)
(0.0306796 -0.0288197 -3.151e-22)
(0.0236322 -0.0343912 2.3104e-23)
(0.016851 -0.0404435 6.38877e-24)
(0.0103143 -0.0458636 7.71015e-24)
(0.00447403 -0.0535426 1.51941e-23)
(0.0635717 -0.013693 -4.33456e-22)
(0.0562792 -0.0190691 -1.64688e-21)
(0.0493214 -0.0243566 -6.60142e-22)
(0.0424802 -0.0298218 6.5967e-22)
(0.0356817 -0.0355757 -1.94868e-22)
(0.0286868 -0.0413101 0)
(0.0217196 -0.0471393 -5.98874e-23)
(0.0150562 -0.0530892 2.53926e-23)
(0.00869837 -0.0582323 -8.72652e-24)
(0.00343336 -0.0645276 -2.31465e-23)
(0.0615637 -0.0208905 -4.55827e-21)
(0.0536746 -0.0281814 7.5957e-22)
(0.0469128 -0.0345361 1.94369e-22)
(0.0401584 -0.0407953 6.50051e-22)
(0.0334829 -0.0471263 0)
(0.026619 -0.0531653 0)
(0.0198084 -0.0590641 0)
(0.013344 -0.0647435 2.69527e-23)
(0.00728706 -0.0694412 0)
(0.00260247 -0.0744456 0)
(0.0588975 -0.0286986 0)
(0.0507453 -0.0373635 1.2973e-21)
(0.0443009 -0.044588 -8.35404e-22)
(0.0376989 -0.0513942 -4.73393e-22)
(0.0312079 -0.0580984 4.75824e-22)
(0.0245386 -0.064249 9.87587e-23)
(0.0179517 -0.0700489 -1.23467e-22)
(0.0117583 -0.0753282 -1.21222e-22)
(0.00608462 -0.0794802 9.68668e-24)
(0.00195578 -0.0833453 6.19695e-24)
(0.0556644 -0.0368643 0)
(0.0475937 -0.0464014 -4.62202e-22)
(0.0415527 -0.0543293 -1.86595e-22)
(0.035165 -0.0614556 0)
(0.0289149 -0.0683557 6.41844e-23)
(0.0224989 -0.0744539 -2.36799e-22)
(0.0161928 -0.0800221 1.03767e-22)
(0.0103275 -0.0848203 4.72098e-24)
(0.0050821 -0.0883914 -8.14685e-24)
(0.00146283 -0.0912963 -6.30537e-24)
(0.0519916 -0.0451514 6.19246e-22)
(0.0443004 -0.0551075 4.1951e-22)
(0.0387278 -0.0635973 -1.42297e-22)
(0.0326151 -0.0708445 7.28398e-23)
(0.0266547 -0.077796 1.0263e-22)
(0.0205438 -0.0837158 1.05042e-22)
(0.0145618 -0.0889616 -2.27638e-23)
(0.00906427 -0.0932462 -1.22473e-23)
(0.0042604 -0.0962532 8.1735e-24)
(0.00109361 -0.098381 5.78939e-25)
(0.0480104 -0.0533626 -1.30242e-22)
(0.0409372 -0.0633395 1.31413e-22)
(0.0358802 -0.0722691 -9.46422e-23)
(0.0301022 -0.0794703 -7.27293e-23)
(0.0244696 -0.0863616 4.5875e-23)
(0.0187062 -0.0920177 -8.27392e-23)
(0.0130767 -0.0968913 3.20217e-23)
(0.00796797 -0.100672 2.92557e-24)
(0.00359462 -0.103166 0)
(0.000820297 -0.104687 -5.80173e-25)
(0.0438703 -0.0613461 1.33575e-22)
(0.0375851 -0.0710087 -1.34722e-22)
(0.0330696 -0.0802692 -1.0003e-22)
(0.0276807 -0.0872935 -7.7868e-23)
(0.022397 -0.0940419 -4.84166e-23)
(0.0170112 -0.0993878 7.37854e-24)
(0.0117452 -0.103873 1.7092e-23)
(0.00702883 -0.107189 2.67442e-23)
(0.00305844 -0.109241 0)
(0.000618751 -0.110303 -2.24468e-24)
(0.0397258 -0.0690084 0)
(0.0343326 -0.0780795 -4.51637e-22)
(0.0303563 -0.087568 7.62534e-22)
(0.0254021 -0.0943229 7.79827e-23)
(0.020468 -0.100867 1.22881e-22)
(0.0154749 -0.10589 1.2993e-22)
(0.0105676 -0.109996 -2.74193e-23)
(0.00623191 -0.112905 -1.62952e-23)
(0.00262727 -0.11459 1.93031e-23)
(0.000469722 -0.115314 2.23936e-24)
(0.0356985 -0.076312 0)
(0.031249 -0.0845664 -5.23857e-22)
(0.0277807 -0.0941746 -2.07829e-22)
(0.0232992 -0.100609 0)
(0.018699 -0.106901 -3.39757e-22)
(0.014101 -0.111616 1.29717e-22)
(0.00953587 -0.115364 7.9024e-23)
(0.00555907 -0.117932 1.31869e-22)
(0.00227956 -0.119321 -1.92402e-23)
(0.000358519 -0.119806 1.40933e-23)
(0.0318729 -0.0832614 0)
(0.0283802 -0.0905315 5.28199e-22)
(0.0253632 -0.10013 0)
(0.0213852 -0.106236 6.1039e-22)
(0.0170932 -0.112229 -6.13557e-22)
(0.0128823 -0.116671 -1.63762e-22)
(0.00863699 -0.120088 3.5527e-23)
(0.00499114 -0.122383 -1.3732e-22)
(0.00199724 -0.123535 -2.52595e-23)
(0.000274092 -0.123858 -2.16751e-23)
(0.0283087 -0.0898882 5.43783e-21)
(0.0257625 -0.0960783 -2.03819e-21)
(0.0231176 -0.105499 -1.97371e-22)
(0.019663 -0.111311 -8.23099e-22)
(0.015649 -0.116956 0)
(0.0118069 -0.12117 -1.74813e-22)
(0.00785654 -0.124283 5.72254e-23)
(0.00451042 -0.126366 2.07093e-22)
(0.00176618 -0.12733 8.51008e-24)
(0.000208476 -0.12755 -8.50395e-24)
(0.0250379 -0.0962289 4.71707e-22)
(0.0234259 -0.101345 3.17344e-21)
(0.0210584 -0.110362 8.61255e-22)
(0.0181305 -0.115953 -8.60725e-22)
(0.0143647 -0.121192 -3.00834e-22)
(0.0108622 -0.125227 0)
(0.00718182 -0.128058 -2.8525e-22)
(0.00410224 -0.129981 1.52747e-22)
(0.00157603 -0.130796 7.77472e-23)
(0.0001562 -0.130957 1.96138e-23)
(0.0220786 -0.102298 -7.62878e-22)
(0.0214097 -0.106499 0)
(0.0192167 -0.114808 0)
(0.0167895 -0.120282 0)
(0.0132455 -0.12505 -2.38789e-22)
(0.0100402 -0.128953 5.39017e-22)
(0.00660437 -0.131518 2.93481e-22)
(0.00375618 -0.133325 -3.48756e-22)
(0.00141999 -0.134017 2.00611e-23)
(0.000113585 -0.134155 -3.92834e-23)
(0.0194259 -0.108062 -1.76308e-21)
(0.0197288 -0.111719 2.35666e-21)
(0.0176163 -0.118935 -2.33441e-21)
(0.0156265 -0.124413 1.50001e-21)
(0.0122885 -0.128643 -1.81982e-21)
(0.00932825 -0.132452 0)
(0.00611426 -0.134759 -1.77848e-22)
(0.00346253 -0.136485 -7.56545e-24)
(0.00129262 -0.137075 -6.62902e-23)
(7.76893e-05 -0.137217 -2.2254e-23)
(0.0168372 -0.113387 -8.27471e-22)
(0.0181455 -0.117178 0)
(0.0161377 -0.122851 -2.30316e-21)
(0.0145182 -0.128446 3.57787e-21)
(0.0114181 -0.132079 -1.22961e-21)
(0.00866779 -0.13582 -1.31891e-22)
(0.00567497 -0.137874 1.77442e-22)
(0.00319866 -0.139543 2.21256e-23)
(0.00118407 -0.140047 1.36349e-22)
(4.70423e-05 -0.140218 4.42911e-23)
(0.0142912 -0.117906 -3.34512e-21)
(0.0165544 -0.12303 3.27089e-21)
(0.0147937 -0.126702 2.97481e-22)
(0.0134528 -0.132491 0)
(0.010623 -0.135478 0)
(0.00805536 -0.139159 1.35784e-22)
(0.005282 -0.140957 3.29726e-22)
(0.0029642 -0.142582 -3.23591e-22)
(0.00109544 -0.143009 -2.44746e-23)
(3.31239e-05 -0.14323 2.39553e-23)
(0.0139856 -0.124904 0)
(0.0168164 -0.137056 0)
(0.0145551 -0.135693 0)
(0.0129697 -0.142165 0)
(0.0101566 -0.143696 0)
(0.00757296 -0.147325 0)
(0.0049565 -0.148527 0)
(0.00277073 -0.150062 0)
(0.00106102 -0.150273 0)
(6.7082e-05 -0.150572 0)
(0.0133097 -0.147771 0)
(0.0121602 -0.161296 0)
(0.0103083 -0.156392 0)
(0.00878515 -0.162972 0)
(0.00678818 -0.162309 0)
(0.00505036 -0.165663 0)
(0.00328113 -0.165697 0)
(0.00187231 -0.167052 0)
(0.000732778 -0.166789 0)
(7.58068e-05 -0.167162 0)
(0.0137972 -0.176074 0)
(0.0113607 -0.190724 0)
(0.00930639 -0.183138 0)
(0.0074492 -0.190152 0)
(0.00566255 -0.187638 0)
(0.00409505 -0.191113 0)
(0.00267375 -0.190123 0)
(0.00155194 -0.191561 0)
(0.000655692 -0.190822 0)
(8.92207e-05 -0.191348 0)
(0.0138587 -0.211622 0)
(0.010551 -0.227431 0)
(0.0085383 -0.217966 0)
(0.00642369 -0.225774 0)
(0.00489783 -0.221735 0)
(0.00341828 -0.225698 0)
(0.00229754 -0.22378 0)
(0.00133849 -0.225542 0)
(0.000621918 -0.224298 0)
(9.03192e-05 -0.225091 0)
(0.0135879 -0.255147 0)
(0.00986264 -0.27127 0)
(0.00794485 -0.261204 0)
(0.00564406 -0.269676 0)
(0.00435931 -0.264729 0)
(0.00289553 -0.269288 0)
(0.00202964 -0.266678 0)
(0.00113622 -0.268888 0)
(0.00057929 -0.267192 0)
(6.56034e-05 -0.268353 0)
(0.0126718 -0.304427 0)
(0.00894531 -0.319167 0)
(0.00720907 -0.310302 0)
(0.00488442 -0.318618 0)
(0.00382757 -0.313781 0)
(0.00238789 -0.318556 0)
(0.0017316 -0.315749 0)
(0.000862458 -0.318243 0)
(0.000468191 -0.316326 0)
(7.29954e-06 -0.317789 0)
(0.010883 -0.353828 0)
(0.00757121 -0.365582 0)
(0.00609623 -0.359512 0)
(0.00399217 -0.366552 0)
(0.00314627 -0.362909 0)
(0.00182767 -0.367152 0)
(0.00132932 -0.364789 0)
(0.000520359 -0.367106 0)
(0.000284299 -0.365355 0)
(-6.07484e-05 -0.366834 0)
(0.00829833 -0.396224 0)
(0.00571817 -0.404396 0)
(0.00458869 -0.40172 0)
(0.00293581 -0.406775 0)
(0.00230377 -0.404903 0)
(0.00124137 -0.407985 0)
(0.000870994 -0.406509 0)
(0.000209208 -0.408185 0)
(0.000102119 -0.406933 0)
(-9.8174e-05 -0.408062 0)
(0.00516499 -0.426175 0)
(0.00352813 -0.431389 0)
(0.00282491 -0.431539 0)
(0.001779 -0.434725 0)
(0.00138733 -0.434455 0)
(0.000697828 -0.436302 0)
(0.000461838 -0.435724 0)
(2.74373e-05 -0.436633 0)
(-2.92096e-06 -0.435949 0)
(-8.66352e-05 -0.436571 0)
(0.00175159 -0.44135 0)
(0.00118375 -0.444984 0)
(0.000951812 -0.446669 0)
(0.000592089 -0.448774 0)
(0.000462605 -0.449407 0)
(0.00022199 -0.450496 0)
(0.000141254 -0.450453 0)
(-1.18715e-05 -0.450875 0)
(-1.47296e-05 -0.450557 0)
(-3.43368e-05 -0.450835 0)
(0.0138411 -0.133883 3.89538e-21)
(0.0147234 -0.158274 -3.81994e-21)
(0.0157955 -0.188262 4.90684e-22)
(0.0160313 -0.224721 0)
(0.0157255 -0.267747 0)
(0.0145753 -0.314751 5.67268e-22)
(0.0124756 -0.360489 -2.43695e-21)
(0.00953477 -0.398935 2.40319e-21)
(0.00597143 -0.425758 6.527e-22)
(0.00203007 -0.439271 -6.42437e-22)
(0.0140863 -0.138607 -4.61646e-21)
(0.0155447 -0.162936 0)
(0.0167489 -0.19303 3.3479e-21)
(0.0170163 -0.229444 -7.72516e-21)
(0.0166665 -0.272029 4.95793e-21)
(0.0154063 -0.31806 -5.261e-22)
(0.0131756 -0.362441 1.17235e-21)
(0.0100837 -0.399511 2.47428e-21)
(0.00633205 -0.425292 6.96337e-22)
(0.00215113 -0.438265 6.76013e-22)
(0.0146195 -0.143516 5.38851e-21)
(0.016677 -0.167851 -3.69484e-21)
(0.0179287 -0.197837 3.65981e-21)
(0.0181867 -0.233993 -4.09092e-21)
(0.0177519 -0.275975 3.02658e-21)
(0.016345 -0.320942 0)
(0.0139445 -0.363965 -1.17519e-21)
(0.0106622 -0.399737 6.0155e-23)
(0.00669422 -0.424581 -1.29877e-21)
(0.00226482 -0.437085 -1.32625e-21)
(0.0154759 -0.147932 -8.70567e-22)
(0.0180605 -0.172377 0)
(0.0193127 -0.202306 0)
(0.019537 -0.238222 0)
(0.0189892 -0.279617 3.36966e-21)
(0.0174123 -0.323556 -2.25374e-21)
(0.0148111 -0.365278 -1.57456e-23)
(0.0112997 -0.3998 -1.38717e-21)
(0.00708187 -0.423728 -7.12068e-22)
(0.00238218 -0.435757 -7.62373e-22)
(0.0167226 -0.151953 7.77901e-23)
(0.0196792 -0.176346 -2.62433e-21)
(0.0208816 -0.206177 -1.99697e-21)
(0.0210489 -0.241866 1.99571e-21)
(0.0203665 -0.282723 -1.10072e-21)
(0.0186062 -0.325733 0)
(0.0157856 -0.366283 -1.2927e-21)
(0.0120175 -0.399668 2.8304e-21)
(0.00751814 -0.422741 -1.4485e-21)
(0.00251537 -0.434314 1.49179e-21)
(0.0183954 -0.155644 -6.97285e-21)
(0.0215539 -0.179801 7.59039e-22)
(0.0226515 -0.209414 -1.44414e-22)
(0.0227275 -0.244831 2.04997e-21)
(0.0218845 -0.285162 0)
(0.0199249 -0.327333 0)
(0.0168678 -0.366858 0)
(0.0128201 -0.399256 1.51672e-21)
(0.008011 -0.421588 0)
(0.00267004 -0.432761 0)
(0.0205056 -0.158914 0)
(0.0237007 -0.182716 2.87081e-21)
(0.0246471 -0.212011 -1.93991e-21)
(0.0245909 -0.247107 -2.30125e-21)
(0.023558 -0.286914 2.31322e-21)
(0.0213766 -0.328322 1.38115e-21)
(0.0180602 -0.366955 -1.37004e-21)
(0.0137073 -0.398521 -5.41794e-21)
(0.00855955 -0.420238 3.85737e-22)
(0.00284706 -0.431087 -1.32025e-21)
(0.0230618 -0.161644 0)
(0.0261257 -0.185016 -9.33085e-22)
(0.0268851 -0.213929 -5.2611e-22)
(0.0266543 -0.248685 0)
(0.0254032 -0.287989 6.73308e-22)
(0.0229745 -0.328714 -2.03103e-21)
(0.0193706 -0.366584 2.26343e-21)
(0.0146815 -0.397459 8.07751e-22)
(0.00916279 -0.418682 -8.83779e-22)
(0.00304643 -0.429279 1.75161e-21)
(0.0260751 -0.163745 8.39505e-22)
(0.0288339 -0.18664 1.01133e-21)
(0.0293759 -0.215119 -2.24442e-22)
(0.0289269 -0.249541 3.00829e-22)
(0.0274323 -0.288383 6.40294e-22)
(0.0247301 -0.328522 1.07592e-21)
(0.0208082 -0.365761 -4.04879e-22)
(0.0157482 -0.396081 -4.37595e-22)
(0.00982232 -0.416919 8.8669e-22)
(0.00326894 -0.42733 4.80504e-22)
(0.0295552 -0.165142 -2.33614e-22)
(0.0318305 -0.187556 2.35816e-22)
(0.0321283 -0.215547 -2.70668e-22)
(0.0314149 -0.249656 -3.00435e-22)
(0.0296541 -0.288084 3.57231e-22)
(0.0266518 -0.327748 -7.29584e-22)
(0.0223813 -0.364493 6.19569e-22)
(0.0169141 -0.394393 2.21618e-22)
(0.010542 -0.414951 0)
(0.00351619 -0.425236 -4.81579e-22)
(0.0335095 -0.165781 2.39258e-22)
(0.0351183 -0.187758 -2.4159e-22)
(0.0351508 -0.215199 -2.90334e-22)
(0.0341233 -0.249028 -3.24532e-22)
(0.032076 -0.287094 -3.72766e-22)
(0.0287459 -0.326396 -2.63523e-23)
(0.0240966 -0.362786 2.18261e-22)
(0.0181847 -0.392398 7.05028e-22)
(0.0113249 -0.412777 0)
(0.00378929 -0.422994 -5.25571e-22)
(0.0379425 -0.165648 0)
(0.0386973 -0.187244 -1.11092e-21)
(0.0384485 -0.214085 2.01353e-21)
(0.037055 -0.247665 3.25076e-22)
(0.0347052 -0.285417 7.55863e-22)
(0.0310191 -0.324467 1.24265e-21)
(0.0259616 -0.360635 -4.42363e-22)
(0.0195673 -0.390092 -4.78314e-22)
(0.012176 -0.410392 1.05803e-21)
(0.00408976 -0.420598 5.24349e-22)
(0.0428556 -0.16478 0)
(0.0425674 -0.186007 -1.09513e-21)
(0.0420219 -0.212243 -6.05184e-22)
(0.040213 -0.245589 0)
(0.0375464 -0.283082 -2.38199e-21)
(0.033475 -0.321984 7.95593e-22)
(0.0279795 -0.358059 9.495e-22)
(0.021063 -0.387487 3.06773e-21)
(0.0130949 -0.407791 -1.05459e-21)
(0.00441676 -0.418036 2.27647e-21)
(0.0482435 -0.163287 0)
(0.0467303 -0.184045 1.10445e-21)
(0.0458609 -0.209758 0)
(0.0435994 -0.242803 3.03926e-21)
(0.0406033 -0.280105 -3.05486e-21)
(0.0361213 -0.318943 -1.87273e-21)
(0.0301587 -0.355047 -4.27669e-23)
(0.0226848 -0.384567 -3.15728e-21)
(0.0140926 -0.404961 -5.26303e-22)
(0.00477224 -0.415294 -2.83162e-21)
(0.0540718 -0.161233 7.97804e-21)
(0.0511993 -0.181355 -3.063e-21)
(0.0499592 -0.206639 3.29764e-22)
(0.0472285 -0.239326 -2.83252e-21)
(0.0438718 -0.276508 0)
(0.0389604 -0.315375 -1.95296e-21)
(0.0324993 -0.351629 -1.64713e-22)
(0.0244301 -0.381355 4.28782e-21)
(0.0151658 -0.401928 5.87954e-22)
(0.00515403 -0.412388 -5.90229e-22)
(0.0602986 -0.158609 -8.19475e-22)
(0.0559846 -0.178013 5.7252e-21)
(0.0542914 -0.20292 2.94636e-21)
(0.0510934 -0.235252 -2.94437e-21)
(0.0473525 -0.272329 -1.77929e-21)
(0.0419979 -0.311282 0)
(0.0350128 -0.347781 -4.37822e-21)
(0.026313 -0.377821 2.19591e-21)
(0.016327 -0.398668 2.34587e-21)
(0.00556629 -0.4093 2.51886e-21)
(0.0668535 -0.155484 -1.09958e-21)
(0.0610803 -0.174115 0)
(0.0588354 -0.198688 0)
(0.0551837 -0.230672 0)
(0.0510402 -0.267683 -2.05702e-21)
(0.0452233 -0.306806 3.82967e-21)
(0.0376789 -0.343649 4.46011e-21)
(0.0283062 -0.374078 -7.02514e-21)
(0.0175529 -0.395241 1.25765e-21)
(0.00599722 -0.406059 -3.74116e-21)
(0.073624 -0.151991 -1.64298e-21)
(0.0664777 -0.169685 5.64285e-21)
(0.0635706 -0.193951 -5.58903e-21)
(0.0594937 -0.225504 7.19201e-21)
(0.0549487 -0.262388 -9.04676e-21)
(0.0486764 -0.301671 0)
(0.040565 -0.338932 -2.33167e-21)
(0.0304891 -0.369894 -9.62488e-23)
(0.0189074 -0.391513 -2.61414e-21)
(0.00647195 -0.402575 -2.66409e-21)
(0.0804519 -0.148471 -1.16817e-21)
(0.0721496 -0.165032 0)
(0.068434 -0.189136 -7.46542e-21)
(0.0639423 -0.220375 1.40762e-20)
(0.05897 -0.257294 -5.45177e-21)
(0.0522053 -0.29685 -1.10243e-21)
(0.0434773 -0.334524 2.32659e-21)
(0.0326626 -0.365884 -1.17983e-22)
(0.0202426 -0.3878 3.81555e-21)
(0.00692618 -0.399024 3.94259e-21)
(0.0875444 -0.143475 -5.26847e-21)
(0.0788232 -0.158595 5.16583e-21)
(0.0739683 -0.182328 7.97122e-22)
(0.068984 -0.213014 0)
(0.0635641 -0.249806 0)
(0.056334 -0.289752 1.08652e-21)
(0.0469902 -0.328292 4.98475e-21)
(0.0353624 -0.360682 -4.87842e-21)
(0.0219386 -0.383421 -1.33615e-21)
(0.00751389 -0.394998 1.31387e-21)
(0.0979598 -0.143587 0)
(0.0936781 -0.15591 0)
(0.0858361 -0.180318 0)
(0.0795166 -0.210475 0)
(0.072746 -0.246395 0)
(0.0640626 -0.284999 0)
(0.0531529 -0.321984 0)
(0.0398523 -0.352967 0)
(0.0246597 -0.374854 0)
(0.00832488 -0.386264 0)
(0.116238 -0.13088 0)
(0.118529 -0.147935 0)
(0.106665 -0.175137 0)
(0.0994365 -0.204835 0)
(0.0902189 -0.239554 0)
(0.078895 -0.275865 0)
(0.0650784 -0.310064 0)
(0.0486122 -0.338236 0)
(0.0300758 -0.357552 0)
(0.0103785 -0.366826 0)
(0.139914 -0.118712 0)
(0.144967 -0.138194 0)
(0.129232 -0.165698 0)
(0.121579 -0.194027 0)
(0.109203 -0.226991 0)
(0.0947922 -0.260425 0)
(0.0775054 -0.291765 0)
(0.0574472 -0.31785 0)
(0.0352654 -0.336522 0)
(0.0116798 -0.346807 0)
(0.169331 -0.110145 0)
(0.175318 -0.130097 0)
(0.155418 -0.156516 0)
(0.147447 -0.183431 0)
(0.131012 -0.214599 0)
(0.113289 -0.244954 0)
(0.0919948 -0.273303 0)
(0.0678495 -0.296398 0)
(0.0416476 -0.311961 0)
(0.0145106 -0.318627 0)
(0.203889 -0.0997491 0)
(0.208251 -0.118144 0)
(0.184145 -0.142113 0)
(0.175009 -0.166448 0)
(0.152906 -0.194049 0)
(0.131232 -0.220081 0)
(0.104975 -0.245106 0)
(0.0764465 -0.266097 0)
(0.0461848 -0.282093 0)
(0.0145921 -0.292713 0)
(0.24351 -0.0915756 0)
(0.245029 -0.107742 0)
(0.217151 -0.129884 0)
(0.205925 -0.15132 0)
(0.177327 -0.175457 0)
(0.152298 -0.198032 0)
(0.120788 -0.220566 0)
(0.0876837 -0.238822 0)
(0.0531887 -0.251343 0)
(0.0195893 -0.254151 0)
(0.28469 -0.0757122 0)
(0.279494 -0.0882911 0)
(0.248705 -0.106482 0)
(0.232772 -0.122655 0)
(0.197238 -0.141662 0)
(0.168291 -0.159286 0)
(0.1292 -0.177396 0)
(0.0910576 -0.192939 0)
(0.0521767 -0.208609 0)
(0.0125776 -0.226989 0)
(0.325017 -0.0654022 0)
(0.314742 -0.0739813 0)
(0.28346 -0.0890472 0)
(0.262412 -0.101107 0)
(0.224021 -0.117692 0)
(0.191733 -0.132659 0)
(0.147847 -0.149917 0)
(0.106187 -0.165808 0)
(0.062592 -0.181487 0)
(0.0313337 -0.177426 0)
(0.362756 -0.0363032 0)
(0.348796 -0.040092 0)
(0.304997 -0.0491386 0)
(0.277447 -0.0548626 0)
(0.227232 -0.0647211 0)
(0.186349 -0.0719171 0)
(0.128641 -0.0814311 0)
(0.074966 -0.0904688 0)
(0.0222185 -0.109584 0)
(-0.0384909 -0.160882 0)
(0.62386 -0.0189689 0)
(0.603424 -0.021941 0)
(0.563373 -0.0263668 0)
(0.531418 -0.0305447 0)
(0.481469 -0.036768 0)
(0.435682 -0.043558 0)
(0.371319 -0.0539252 0)
(0.302301 -0.069302 0)
(0.211122 -0.0986886 0)
(0.151555 -0.157 0)
(0.117215 -0.12942 5.40146e-21)
(0.137745 -0.116198 -5.31954e-21)
(0.161564 -0.104341 8.77222e-22)
(0.19052 -0.0959865 0)
(0.224962 -0.0863571 0)
(0.262949 -0.0789744 1.3427e-21)
(0.303365 -0.0649495 -6.4008e-21)
(0.341436 -0.0567586 6.31248e-21)
(0.389137 -0.0311791 1.79805e-21)
(0.644786 -0.0166146 -1.82379e-21)
(0.123752 -0.123279 -5.02097e-21)
(0.144063 -0.109872 0)
(0.167444 -0.0984168 6.28628e-21)
(0.196142 -0.0902951 -1.52115e-20)
(0.230622 -0.0810243 1.02665e-20)
(0.268524 -0.0740138 -1.25608e-21)
(0.308961 -0.0606766 2.72929e-21)
(0.347096 -0.0533447 6.16151e-21)
(0.398894 -0.0291756 1.6669e-21)
(0.652992 -0.0156112 1.68074e-21)
(0.129494 -0.116473 5.79709e-21)
(0.149427 -0.10324 -5.87801e-21)
(0.172277 -0.0923666 5.82239e-21)
(0.200618 -0.0845682 -8.08973e-21)
(0.234956 -0.075754 5.86372e-21)
(0.272908 -0.0692014 0)
(0.313334 -0.0566153 -2.73585e-21)
(0.352076 -0.0501596 -6.07477e-23)
(0.4075 -0.027364 -3.1595e-21)
(0.660747 -0.0146462 -3.34673e-21)
(0.135123 -0.10918 -9.97095e-22)
(0.155069 -0.0964183 0)
(0.177499 -0.0862289 0)
(0.2056 -0.0788073 0)
(0.239622 -0.0705218 6.64889e-21)
(0.277545 -0.0645013 -4.53031e-21)
(0.317801 -0.052733 -1.81638e-22)
(0.357113 -0.0471261 -3.1332e-21)
(0.415526 -0.0257255 -1.59163e-21)
(0.668244 -0.0137591 -1.63417e-21)
(0.140231 -0.101525 1.0198e-21)
(0.160404 -0.0895078 -3.16547e-21)
(0.182519 -0.0800773 -3.31169e-21)
(0.210511 -0.0730641 3.30963e-21)
(0.244264 -0.0653477 -2.08854e-21)
(0.282221 -0.0599179 0)
(0.322219 -0.0489997 -2.65912e-21)
(0.362148 -0.0441873 5.95086e-21)
(0.423109 -0.0242188 -2.98864e-21)
(0.675416 -0.0129558 3.25695e-21)
(0.144632 -0.0935301 -7.46588e-21)
(0.165083 -0.0825292 3.57039e-22)
(0.186924 -0.0739242 -5.32459e-22)
(0.214789 -0.0673778 3.2348e-21)
(0.248396 -0.0602743 0)
(0.286447 -0.0554505 0)
(0.326204 -0.0454189 0)
(0.366879 -0.0413511 2.84105e-21)
(0.430143 -0.0228137 0)
(0.682165 -0.0122331 0)
(0.148249 -0.0852136 0)
(0.169055 -0.0754732 3.78411e-21)
(0.190673 -0.06775 -2.62847e-21)
(0.218353 -0.0617457 -3.70123e-21)
(0.25185 -0.0553044 3.72047e-21)
(0.28999 -0.0510979 2.40916e-21)
(0.329648 -0.0419883 -2.27157e-21)
(0.371055 -0.0386287 -9.7787e-21)
(0.436473 -0.0214995 6.91679e-22)
(0.6884 -0.0115826 -2.32042e-21)
(0.150978 -0.0766062 0)
(0.172285 -0.0683318 -1.15947e-21)