/*--------------------------------*- C++ -*----------------------------------*\
  =========                 |
  \\      /  F ield         | OpenFOAM: The Open Source CFD Toolbox
   \\    /   O peration     | Website:  https://openfoam.org
    \\  /    A nd           | Version:  7
     \\/     M anipulation  |
\*---------------------------------------------------------------------------*/
FoamFile
{
    version     2.0;
    format      ascii;
    class       surfaceScalarField;
    location    "6";
    object      phi;
}
// * * * * * * * * * * * * * * * * * * * * * * * * * * * * * * * * * * * * * //

dimensions      [0 3 -1 0 0 0 0];

internalField   nonuniform List<scalar> 
63520
(
-4.53774e-07
-1.76026e-05
1.80564e-05
-1.69122e-06
5.94767e-05
-5.82396e-05
-3.53738e-06
0.000228409
-0.000226563
-5.44822e-06
0.000459857
-0.000457946
-6.742e-06
0.000734847
-0.000733554
-6.70899e-06
0.00104061
-0.00104064
-4.65851e-06
0.0013679
-0.00136995
4.22438e-08
0.0017099
-0.0017146
7.95663e-06
0.00206147
-0.00206938
1.95595e-05
0.00241879
-0.00243039
3.52357e-05
0.00277878
-0.00279445
5.52959e-05
0.00313892
-0.00315898
7.99642e-05
0.0034971
-0.00352176
0.00010939
0.00385138
-0.0038808
0.000143661
0.0042
-0.00423427
0.000182806
0.0045413
-0.00458045
0.000226802
0.00487371
-0.00491771
0.000275583
0.00519573
-0.00524451
0.000329052
0.00550596
-0.00555943
0.000387081
0.00580309
-0.00586112
0.000449517
0.00608593
-0.00614837
0.000516184
0.00635345
-0.00642012
0.000586896
0.00660472
-0.00667544
0.000661459
0.00683898
-0.00691355
0.000739667
0.00705563
-0.00713384
0.00082131
0.00725422
-0.00733586
0.000906184
0.00743444
-0.00751931
0.000994089
0.00759615
-0.00768405
0.00108483
0.00773932
-0.00783006
0.00117821
0.00786407
-0.00795745
0.00127407
0.00797059
-0.00806644
0.00137222
0.00805919
-0.00815735
0.00147253
0.00813023
-0.00823053
0.00157484
0.00818411
-0.00828641
0.00167899
0.00822127
-0.00832543
0.00178484
0.00824215
-0.00834799
0.00189219
0.00824714
-0.00835449
0.00200081
0.00823655
-0.00834517
0.00211034
0.00821177
-0.0083213
0.00817468
0.00222028
-0.00828462
-1.12402e-06
-1.6479e-05
-3.8326e-06
6.2185e-05
-7.76033e-06
0.000232336
-1.22549e-05
0.000464351
-1.6546e-05
0.000739138
-1.98465e-05
0.00104391
-2.14012e-05
0.00136945
-2.05408e-05
0.00170904
-1.66864e-05
0.00205761
-9.32244e-06
0.00241142
1.97088e-06
0.00276748
1.75279e-05
0.00312337
3.76042e-05
0.00347702
6.23775e-05
0.0038266
9.19567e-05
0.00417042
0.00012639
0.00450687
0.000165679
0.00483442
0.000209788
0.00515162
0.000258643
0.0054571
0.000312133
0.0057496
0.000370124
0.00602794
0.000432465
0.00629111
0.000498984
0.0065382
0.0005695
0.00676847
0.000643822
0.00698131
0.00072176
0.00717628
0.000803121
0.00735308
0.000887707
0.00751156
0.000975326
0.0076517
0.00106579
0.0077736
0.00115893
0.00787745
0.00125456
0.00796356
0.00135252
0.00803227
0.00145263
0.008084
0.00155472
0.00811918
0.00165859
0.00813828
0.001764
0.00814173
0.00187067
0.00812988
0.0019782
0.00810424
0.00806686
0.00208601
-1.74606e-06
-1.47328e-05
-5.84954e-06
6.62884e-05
-1.1778e-05
0.000238265
-1.8739e-05
0.000471312
-2.58588e-05
0.000746257
-3.22942e-05
0.00105035
-3.7256e-05
0.00137442
-4.00252e-05
0.00171181
-3.99927e-05
0.00205758
-3.66104e-05
0.00240804
-2.94373e-05
0.00276031
-1.81158e-05
0.00311204
-2.36334e-06
0.00346127
1.80197e-05
0.00380622
4.31684e-05
0.00414527
7.31603e-05
0.00447688
0.000108019
0.00479956
0.000147725
0.00511192
0.000192223
0.00541261
0.000241424
0.0057004
0.000295215
0.00597415
0.000353457
0.00623287
0.000416
0.00647566
0.000482678
0.00670179
0.000553317
0.00691067
0.000627731
0.00710186
0.000705734
0.00727507
0.000787142
0.00743015
0.000871771
0.00756707
0.000959435
0.00768593
0.00104995
0.00778694
0.00114313
0.00787038
0.00123879
0.00793661
0.00133674
0.00798605
0.00143677
0.00801915
0.00153865
0.00803641
0.00164209
0.00803829
0.00174674
0.00802523
0.00185215
0.00799883
0.0079613
0.00195771
-2.30868e-06
-1.24242e-05
-7.77359e-06
7.17531e-05
-1.56237e-05
0.000246114
-2.4929e-05
0.000480617
-3.47321e-05
0.00075606
-4.41252e-05
0.00105974
-5.22744e-05
0.00138256
-5.84297e-05
0.00171796
-6.19585e-05
0.00206111
-6.2288e-05
0.00240837
-5.89466e-05
0.00275697
-5.15575e-05
0.00310465
-3.98195e-05
0.00344953
-2.35064e-05
0.00378991
-2.46133e-06
0.00412423
2.34106e-05
0.00445101
5.4154e-05
0.00476882
8.9772e-05
0.0050763
0.000130227
0.00537215
0.000175446
0.00565518
0.00022533
0.00592427
0.000279763
0.00617843
0.000338606
0.00641682
0.000401706
0.00663869
0.0004689
0.00684348
0.000540017
0.00703075
0.000614883
0.00720021
0.000693318
0.00735172
0.000775142
0.00748525
0.000860168
0.00760091
0.000948209
0.0076989
0.00103907
0.00777951
0.00113256
0.00784312
0.00122845
0.00789015
0.00132651
0.00792109
0.00142646
0.00793646
0.00152796
0.00793679
0.00163062
0.00792257
0.00173391
0.00789553
0.00785804
0.00183718
-2.84527e-06
-9.57902e-06
-9.58841e-06
7.84962e-05
-1.92514e-05
0.000255777
-3.07596e-05
0.000492125
-4.30613e-05
0.000768362
-5.51928e-05
0.00107187
-6.62914e-05
0.00139366
-7.55769e-05
0.00172725
-8.23783e-05
0.00206791
-8.6114e-05
0.00241211
-8.62933e-05
0.00275715
-8.2513e-05
0.00310087
-7.44527e-05
0.00344147
-6.18697e-05
0.00377732
-4.45883e-05
0.00410695
-2.24898e-05
0.00442891
4.48994e-06
0.00474184
3.63676e-05
0.00504442
7.31207e-05
0.0053354
0.000114695
0.0056136
0.000161007
0.00587796
0.000211953
0.00612749
0.000267407
0.00636136
0.00032723
0.00657887
0.000391273
0.00677944
0.000459374
0.00696265
0.000531366
0.00712822
0.00060708
0.007276
0.000686337
0.00740599
0.000768954
0.00751829
0.00085474
0.00761311
0.000943494
0.00769076
0.001035
0.00775162
0.00112901
0.00779614
0.00122527
0.00782484
0.00132344
0.00783829
0.00142315
0.00783707
0.00152395
0.00782178
0.00162524
0.00779423
0.00775696
0.00172632
-3.33503e-06
-6.24404e-06
-1.12848e-05
8.64459e-05
-2.26419e-05
0.000267134
-3.61923e-05
0.000505676
-5.08027e-05
0.000782972
-6.54524e-05
0.00108652
-7.92442e-05
0.00140745
-9.13768e-05
0.00173938
-0.000101154
0.00207769
-0.000107978
0.00241893
-0.000111339
0.00276051
-0.000110817
0.00310035
-0.000106077
0.00343673
-9.68566e-05
0.0037681
-8.29591e-05
0.00409305
-6.42516e-05
0.0044102
-4.06543e-05
0.00471824
-1.21337e-05
0.0050159
2.13026e-05
0.00530196
5.96127e-05
0.00557529
0.000102727
0.00583484
0.000150553
0.00607966
0.000202981
0.00630894
0.000259881
0.00652197
0.000321115
0.0067182
0.000386532
0.00689723
0.000455976
0.00705877
0.000529281
0.0072027
0.000606276
0.007329
0.000686778
0.00743779
0.000770595
0.00752929
0.00085752
0.00760383
0.000947318
0.00766182
0.00103973
0.00770373
0.00113445
0.00773012
0.00123112
0.00774162
0.0013293
0.00773889
0.00142849
0.00772259
0.00152804
0.00769468
0.00765783
0.00162717
-3.79119e-06
-2.45289e-06
-1.28566e-05
9.55112e-05
-2.5774e-05
0.000280052
-4.11922e-05
0.000521094
-5.78967e-05
0.000799677
-7.48185e-05
0.00110344
-9.10293e-05
0.00142367
-0.000105707
0.00175406
-0.000118134
0.00209011
-0.000127698
0.00242849
-0.000133878
0.00276669
-0.000136239
0.00310271
-0.000134427
0.00343492
-0.000128166
0.00376184
-0.000117245
0.00408213
-0.000101514
0.00439447
-8.08782e-05
0.00469761
-5.52921e-05
0.00499031
-2.47519e-05
0.00527142
1.07139e-05
0.00553983
5.10486e-05
0.00579451
9.6172e-05
0.00603454
0.000145982
0.00625913
0.000200362
0.00646759
0.000259182
0.00665938
0.000322303
0.00683411
0.000389578
0.0069915
0.000460849
0.00713143
0.000535948
0.0072539
0.0006147
0.00735904
0.00069691
0.00744708
0.000782364
0.00751838
0.000870819
0.00757336
0.000961991
0.00761256
0.00105555
0.00763656
0.00115109
0.00764607
0.00124814
0.00764184
0.00134612
0.00762461
0.00144433
0.00759647
0.00756025
0.00154191
-4.21299e-06
1.76011e-06
-1.42983e-05
0.000105596
-2.86275e-05
0.000294381
-4.57205e-05
0.000538187
-6.42899e-05
0.000818246
-8.32206e-05
0.00112237
-0.000101552
0.001442
-0.000118447
0.00177095
-0.000133175
0.00210484
-0.000145109
0.00244043
-0.000153717
0.0027753
-0.000158551
0.00310755
-0.000159247
0.00343561
-0.000155513
0.00375811
-0.000147124
0.00407374
-0.000133918
0.00438126
-0.000115787
0.00467948
-9.26758e-05
0.0049672
-6.45683e-05
0.00524332
-3.14811e-05
0.00550674
6.53931e-06
0.00575649
4.94208e-05
0.00599166
9.70723e-05
0.00621147
0.000149387
0.00641527
0.000206245
0.00660252
0.000267517
0.00677283
0.000333065
0.00692595
0.000402738
0.00706175
0.000476379
0.00718026
0.000553816
0.0072816
0.000634858
0.00736604
0.000719287
0.00743395
0.000806851
0.0074858
0.000897253
0.00752215
0.000990132
0.00754368
0.00108505
0.00755115
0.00118149
0.00754541
0.00127881
0.0075273
0.00137623
0.00749905
0.00746365
0.00147284
-4.59868e-06
6.35866e-06
-1.56002e-05
0.000116598
-3.11838e-05
0.000309965
-4.97476e-05
0.00055675
-6.99365e-05
0.000838435
-9.05937e-05
0.00114303
-0.000110731
0.00146213
-0.000129496
0.00178972
-0.000146149
0.0021215
-0.000160056
0.00245433
-0.000170674
0.00278591
-0.000177545
0.00311442
-0.000180296
0.00343837
-0.000178622
0.00375643
-0.000172288
0.00406741
-0.000161119
0.00437009
-0.000144998
0.00466336
-0.00012386
0.00494606
-9.76775e-05
0.00521713
-6.64578e-05
0.00547552
-3.02393e-05
0.00572027
1.09136e-05
0.0059505
5.69195e-05
0.00616547
0.00010768
0.00636451
0.000163086
0.00654712
0.000223016
0.0067129
0.000287342
0.00686162
0.000355926
0.00699317
0.000428617
0.00710756
0.000505253
0.00720496
0.000585647
0.00728565
0.000669583
0.00735001
0.000756808
0.00739857
0.000847011
0.00743195
0.000939811
0.00745088
0.00103474
0.00745622
0.00113123
0.00744892
0.00122858
0.00742994
0.00132596
0.00740167
0.00736728
0.00142234
-4.94589e-06
1.13046e-05
-1.67551e-05
0.000128407
-3.34268e-05
0.000326636
-5.32483e-05
0.000576572
-7.47988e-05
0.000859985
-9.68838e-05
0.00116511
-0.000118492
0.00148374
-0.000138763
0.00180999
-0.000156947
0.00213968
-0.000172404
0.00246979
-0.000184586
0.00279809
-0.000193031
0.00312286
-0.000197353
0.00344269
-0.00019724
0.00375632
-0.000192446
0.00406261
-0.000182789
0.00436044
-0.000168144
0.00464871
-0.000148434
0.00492635
-0.000123624
0.00519232
-9.37141e-05
0.00544561
-5.87353e-05
0.00568529
-1.87437e-05
0.00591051
2.61859e-05
0.00612054
7.5963e-05
0.00631473
0.000130488
0.00649259
0.000189651
0.00665374
0.000253332
0.00679794
0.000321404
0.0069251
0.00039373
0.00703524
0.000470158
0.00712854
0.00055051
0.0072053
0.000634579
0.00726595
0.000722112
0.00731104
0.000812794
0.00734127
0.000906233
0.00735744
0.00100193
0.00736052
0.00109929
0.00735157
0.00119753
0.00733169
0.00129577
0.00730344
0.00727019
0.00139285
-5.25073e-06
1.65553e-05
-1.77563e-05
0.000140913
-3.53455e-05
0.000344225
-5.6202e-05
0.000597428
-7.88453e-05
0.000882628
-0.000102049
0.00118832
-0.000124781
0.00150647
-0.000146172
0.00183138
-0.000165471
0.00215898
-0.000182036
0.00248635
-0.000195314
0.00281137
-0.000204838
0.00313239
-0.000210217
0.00344807
-0.000211133
0.00375724
-0.000207333
0.00405881
-0.000198625
0.00435173
-0.000184879
0.00463496
-0.00016601
0.00490749
-0.000141974
0.00516829
-0.000112766
0.0054164
-7.84117e-05
0.00565093
-3.89605e-05
0.00587106
5.51981e-06
0.00607606
5.4948e-05
0.00626531
0.000109231
0.00643831
0.000168268
0.0065947
0.000231952
0.00673426
0.000300169
0.00685688
0.000372795
0.00696261
0.000449691
0.00705164
0.000530695
0.00712429
0.000615613
0.00718103
0.000704201
0.00722245
0.00079615
0.00724932
0.00089106
0.00726253
0.000988421
0.00726316
0.00108758
0.0072524
0.00118774
0.00723154
0.0012879
0.00720328
0.00717129
0.00138681
-5.51259e-06
2.20679e-05
-1.85995e-05
0.000153999
-3.69302e-05
0.000362556
-5.85952e-05
0.000619093
-8.20564e-05
0.000906089
-0.000106057
0.00121232
-0.000129553
0.00152997
-0.000151668
0.00185349
-0.000171651
0.00217896
-0.000188858
0.00250356
-0.000202738
0.00282525
-0.000212823
0.00314247
-0.000218719
0.00345396
-0.0002201
0.00375862
-0.000216709
0.00405542
-0.000208353
0.00434337
-0.000194889
0.0046215
-0.000176229
0.00488883
-0.000152322
0.00514438
-0.000123159
0.00538724
-8.87608e-05
0.00561654
-4.91695e-05
0.00583147
-4.44808e-06
0.00603134
4.53283e-05
0.00621553
0.000100075
0.00638356
0.000159702
0.00653508
0.000224114
0.00666985
0.00029321
0.00678778
0.000366882
0.00688894
0.000445008
0.00697352
0.000527448
0.00704185
0.000614026
0.00709445
0.000704514
0.00713196
0.000798618
0.00715522
0.000895944
0.00716521
0.000995973
0.00716313
0.00109803
0.00715035
0.00120126
0.00712831
0.00130458
0.00709996
0.00706926
0.00140661
-5.72917e-06
2.77971e-05
-1.9282e-05
0.000167552
-3.81784e-05
0.000381452
-6.04209e-05
0.000641336
-8.44192e-05
0.000930087
-0.000108892
0.00123679
-0.000132782
0.00155386
-0.000155212
0.00187592
-0.000175431
0.00219918
-0.000192801
0.00252093
-0.000206771
0.00283922
-0.000216875
0.00315258
-0.000222716
0.0034598
-0.00022397
0.00375987
-0.000220375
0.00405183
-0.000211732
0.00433473
-0.000197895
0.00460766
-0.000178768
0.0048697
-0.000154299
0.00511991
-0.000124473
0.00535741
-8.93058e-05
0.00558137
-4.88372e-05
0.005791
-3.12308e-06
0.00598562
4.77673e-05
0.00616464
0.000103757
0.00632757
0.000164764
0.00647407
0.000230705
0.00660391
0.000301495
0.00671699
0.000377044
0.00681339
0.000457251
0.00689331
0.000541998
0.0069571
0.000631136
0.00700531
0.000724464
0.00703864
0.00082171
0.00705797
0.000922498
0.00706442
0.00102631
0.00705931
0.00113247
0.00704419
0.00124006
0.00702071
0.00134792
0.00699209
0.00696266
0.00145452
-5.90069e-06
3.36978e-05
-1.9804e-05
0.000181455
-3.90898e-05
0.000400738
-6.16792e-05
0.000663925
-8.59335e-05
0.000954342
-0.000110548
0.00126141
-0.000134459
0.00157777
-0.000156786
0.00189825
-0.000176785
0.00221918
-0.000193822
0.00253797
-0.000207352
0.00285275
-0.000216911
0.00316213
-0.000222107
0.003465
-0.000222613
0.00376038
-0.000218166
0.00404738
-0.000208565
0.00432513
-0.000193661
0.00459276
-0.000173351
0.00484939
-0.000147581
0.00509414
-0.000116333
0.00532617
-7.96192e-05
0.00554466
-3.74749e-05
0.00574886
1.00474e-05
0.0059381
6.28844e-05
0.0061118
0.000120965
0.00626949
0.000184218
0.00641082
0.000252571
0.00653555
0.000325954
0.00664361
0.000404295
0.00673505
0.000487518
0.00681009
0.000575532
0.00686909
0.00066822
0.00691262
0.000765416
0.00694144
0.00086688
0.00695651
0.000972266
0.00695903
0.00108108
0.0069505
0.00119264
0.00693264
0.00130599
0.00690736
0.00141989
0.00687819
0.0068499
0.00153265
-6.02773e-06
3.97255e-05
-2.01683e-05
0.000195596
-3.96702e-05
0.00042024
-6.23777e-05
0.000686632
-8.66085e-05
0.000978572
-0.000111037
0.00128583
-0.000134592
0.00160133
-0.000156396
0.00192005
-0.00017571
0.00223849
-0.000191909
0.00255417
-0.000204455
0.0028653
-0.000212891
0.00317057
-0.000216827
0.00346893
-0.00021594
0.00375949
-0.000209967
0.00404141
-0.000198705
0.00431387
-0.000182001
0.00457606
-0.000159751
0.00482714
-0.000131898
0.00506629
-9.84211e-05
0.00529269
-5.93292e-05
0.00550556
-1.46547e-05
0.00570418
3.55542e-05
0.00588789
9.12373e-05
0.00605612
0.000152331
0.0062084
0.000218771
0.00634438
0.000290497
0.00646383
0.000367453
0.00656666
0.000449587
0.00665292
0.000536847
0.00672283
0.000629173
0.00677676
0.000726483
0.00681531
0.000828653
0.00683927
0.000935487
0.00684967
0.00104668
0.00684784
0.00116179
0.0068354
0.00128011
0.00681431
0.00140071
0.00678677
0.00152224
0.00675666
0.0067293
0.00164285
-6.11196e-06
4.58374e-05
-2.038e-05
0.000209864
-3.99293e-05
0.000439789
-6.25317e-05
0.000709235
-8.64648e-05
0.00100251
-0.000110382
0.00130975
-0.000133209
0.00162415
-0.000154068
0.00194091
-0.00017223
0.00225665
-0.00018708
0.00256902
-0.00019809
0.00287631
-0.00020481
0.00317729
-0.000206857
0.00347098
-0.000203911
0.00375655
-0.000195713
0.00403321
-0.000182058
0.00430021
-0.000162791
0.00455679
-0.000137808
0.00480216
-0.000107048
0.00503553
-7.04888e-05
0.00525613
-2.81365e-05
0.00546321
1.99789e-05
0.00565607
7.38111e-05
0.00583406
0.000133306
0.00599662
0.000198402
0.0061433
0.000269045
0.00627373
0.000345182
0.00638769
0.000426771
0.00648507
0.000513779
0.00656591
0.000606177
0.00663043
0.000703939
0.006679
0.00080702
0.00671223
0.000915342
0.00673095
0.00102876
0.00673625
0.00114704
0.00672956
0.00126976
0.00671268
0.00139629
0.00668778
0.00152565
0.00665741
0.00165645
0.00662586
0.0065991
0.00178665
-6.15598e-06
5.19933e-05
-2.04465e-05
0.000224154
-3.98817e-05
0.000459224
-6.21644e-05
0.000731517
-8.55341e-05
0.00102587
-0.000108625
0.00133284
-0.000130355
0.00164588
-0.000149853
0.00196041
-0.000166399
0.0022732
-0.000179388
0.00258201
-0.000188304
0.00288522
-0.000192707
0.00318169
-0.000192224
0.0034705
-0.000186539
0.00375086
-0.000175397
0.00402207
-0.000158592
0.00428341
-0.000135972
0.00453417
-0.000107429
0.00477361
-7.29034e-05
0.005001
-3.23679e-05
0.00521559
1.41721e-05
0.00541667
6.66886e-05
0.00560355
0.000125138
0.00577561
0.000189468
0.00593229
0.000259622
0.00607315
0.00033555
0.00619781
0.000417208
0.00630603
0.000504564
0.00639771
0.000597602
0.00647287
0.000696316
0.00653171
0.000800709
0.00657461
0.000910776
0.00660217
0.00102649
0.00661524
0.00114777
0.00661497
0.00127443
0.0066029
0.00140614
0.00658097
0.0015423
0.00655162
0.00168196
0.00651774
0.00182368
0.00648414
0.00645755
0.00196523
-6.16301e-06
5.81562e-05
-2.03778e-05
0.000238369
-3.95464e-05
0.000478393
-6.1306e-05
0.000753277
-8.38583e-05
0.00104843
-0.000105817
0.0013548
-0.000126095
0.00166616
-0.000143825
0.00197814
-0.000158297
0.00228767
-0.000168916
0.00259262
-0.000175183
0.00289149
-0.000176668
0.00318318
-0.000173007
0.00346684
-0.000163892
0.00374175
-0.000149073
0.00400725
-0.000128347
0.00426268
-0.00010156
0.00450738
-6.86073e-05
0.00474066
-2.94248e-05
0.00496182
1.60149e-05
0.00517015
6.77084e-05
0.00536498
0.000125629
0.00554563
0.000189736
0.0057115
0.000259977
0.00586205
0.0003363
0.00599682
0.000418656
0.00611545
0.000507007
0.00621768
0.00060133
0.00630339
0.000701621
0.00637258
0.000807894
0.00642544
0.000920177
0.00646233
0.0010385
0.00648384
0.00116289
0.00649085
0.00129333
0.00648454
0.0014297
0.00646653
0.00157175
0.00643892
0.00171897
0.0064044
0.00187043
0.00636628
0.00202468
0.0063299
0.00630292
0.00217931
-6.13677e-06
6.42929e-05
-2.01855e-05
0.000252417
-3.89467e-05
0.000497154
-5.99935e-05
0.000774324
-8.14895e-05
0.00106992
-0.000102026
0.00137534
-0.000120512
0.00168465
-0.00013608
0.00199371
-0.000148031
0.00229962
-0.000155785
0.00260038
-0.000158854
0.00289456
-0.000156822
0.00318115
-0.000149338
0.00345935
-0.000136101
0.00372851
-0.000116865
0.00398801
-9.14344e-05
0.00423725
-5.96556e-05
0.0044756
-2.14229e-05
0.00470243
2.33274e-05
0.00491707
7.46244e-05
0.00511886
0.000132467
0.00530714
0.000196828
0.00548127
0.000267669
0.00564066
0.000344938
0.00578478
0.000428584
0.00591318
0.000518558
0.00602548
0.000614826
0.00612141
0.000717369
0.00620085
0.00082619
0.00626376
0.000941316
0.00631031
0.0010628
0.00634085
0.0011907
0.00635594
0.00132508
0.00635646
0.00146599
0.00634363
0.0016134
0.00631912
0.00176713
0.00628518
0.00192678
0.00624476
0.00209148
0.00620157
0.00225977
0.00616161
0.00613359
0.0024291
-6.08144e-06
7.03742e-05
-1.98831e-05
0.000266219
-3.81093e-05
0.00051538
-5.82702e-05
0.000794485
-7.84887e-05
0.00109014
-9.73331e-05
0.00139418
-0.000113703
0.00170102
-0.000126735
0.00200674
-0.000135739
0.00230863
-0.000140145
0.00260478
-0.000139482
0.0028939
-0.000133348
0.00317501
-0.000121402
0.00344741
-0.000103355
0.00371046
-7.89682e-05
0.00396363
-4.80481e-05
0.00420633
-1.04455e-05
0.004438
3.39426e-05
0.00465804
8.51829e-05
0.00486583
0.000143305
0.00506074
0.000208307
0.00524213
0.000280167
0.00540941
0.000358842
0.00556199
0.000444282
0.00569934
0.000536435
0.00582102
0.00063525
0.00592666
0.000740692
0.00601597
0.000852742
0.00608879
0.000971405
0.0061451
0.00109671
0.006185
0.00122873
0.00620883
0.00136754
0.00621713
0.00151325
0.00621075
0.00166595
0.00619093
0.0018257
0.00615938
0.00199241
0.00611846
0.00216578
0.00607139
0.00234505
0.0060223
0.00252877
0.00597789
0.00594806
0.0027143
-6.00152e-06
7.63756e-05
-1.94856e-05
0.000279703
-3.70643e-05
0.000532958
-5.6184e-05
0.000813604
-7.49244e-05
0.00110888
-9.1828e-05
0.00141108
-0.000105784
0.00171497
-0.000115929
0.00201688
-0.00012158
0.00231428
-0.00012218
0.00260538
-0.000117272
0.00288899
-0.000106469
0.00316421
-8.94411e-05
0.00343038
-6.59111e-05
0.00368693
-3.56479e-05
0.00393336
1.53575e-06
0.00416915
4.57843e-05
0.00439375
9.7202e-05
0.00460662
0.000155853
0.00480718
0.000221768
0.00499482
0.000294946
0.00516895
0.000375364
0.00532899
0.000462981
0.00547437
0.000557744
0.00560458
0.000659598
0.00571917
0.000768489
0.00581777
0.000884375
0.00590009
0.00100723
0.00596594
0.00113706
0.00601527
0.0012739
0.00604817
0.00141779
0.00606493
0.00156886
0.00606607
0.00172722
0.0060524
0.00189301
0.00602514
0.00206635
0.00598603
0.00224727
0.00593755
0.00243556
0.0058831
0.00263058
0.00582728
0.00283097
0.0057775
0.00574504
0.00303399
-5.90168e-06
8.22773e-05
-1.9009e-05
0.00029281
-3.58443e-05
0.000549794
-5.37872e-05
0.000831547
-7.08716e-05
0.00112597
-8.56109e-05
0.00142582
-9.68815e-05
0.00172624
-0.000103816
0.00202382
-0.000105738
0.0023162
-0.000102103
0.00260175
-9.2465e-05
0.00287935
-7.64514e-05
0.0031482
-5.37468e-05
0.00340767
-2.40851e-05
0.00365727
1.27562e-05
0.00389652
5.69572e-05
0.00412495
0.000108658
0.00434205
0.000167959
0.00454732
0.000234925
0.00474021
0.000309586
0.00492016
0.000391941
0.0050866
0.000481966
0.00523896
0.000579619
0.00537671
0.000684845
0.00549935
0.000797581
0.00560643
0.000917768
0.00569758
0.00104536
0.0057725
0.00118031
0.00583098
0.00132262
0.00587296
0.00147229
0.00589849
0.0016294
0.00590782
0.00179404
0.00590143
0.00196634
0.0058801
0.00214647
0.005845
0.0023346
0.0057979
0.00253086
0.0057413
0.00273514
0.00567881
0.00294696
0.00561546
0.00316504
0.00555942
0.00552346
0.00338662
-5.78671e-06
8.80639e-05
-1.84704e-05
0.000305493
-3.44832e-05
0.000565806
-5.11347e-05
0.000848199
-6.64093e-05
0.00114124
-7.87884e-05
0.0014382
-8.71308e-05
0.00173459
-9.05646e-05
0.00202725
-8.84148e-05
0.00231405
-8.01484e-05
0.00259348
-6.53309e-05
0.00286453
-4.36021e-05
0.00312647
-1.46607e-05
0.00337873
2.17471e-05
0.00362086
6.58343e-05
0.00385243
0.000117774
0.00407301
0.000177699
0.00428213
0.000245707
0.00447931
0.000321861
0.00466406
0.000406188
0.00483583
0.000498689
0.0049941
0.000599337
0.00513832
0.000708087
0.00526796
0.000824877
0.00538256
0.00094964
0.00548167
0.0010823
0.00556492
0.00122281
0.005632
0.0013711
0.00568269
0.00152714
0.00571691
0.00169094
0.00573469
0.00186253
0.00573623
0.002042
0.00572197
0.00222946
0.00569263
0.00242511
0.00564936
0.00262915
0.00559386
0.00284176
0.00552869
0.00306298
0.0054576
0.00329244
0.00538599
0.00352903
0.00532283
0.00528248
0.00377001
-5.66144e-06
9.37253e-05
-1.78869e-05
0.000317718
-3.30153e-05
0.000580935
-4.82822e-05
0.000863465
-6.16186e-05
0.00115458
-7.14706e-05
0.00144805
-7.66746e-05
0.00173979
-7.63517e-05
0.00202693
-6.98262e-05
0.00230752
-5.65725e-05
0.00258023
-3.61666e-05
0.00284413
-8.26081e-06
0.00309856
2.74334e-05
0.00334304
7.11573e-05
0.00357714
0.000123113
0.00380048
0.000183466
0.00401265
0.000252342
0.00421325
0.000329833
0.00440182
0.000415999
0.00457789
0.000510865
0.00474097
0.000614427
0.00489054
0.000726659
0.00502608
0.000847507
0.00514712
0.000976904
0.00525316
0.00111477
0.0053438
0.00126103
0.00541866
0.00141558
0.00547744
0.00157837
0.0055199
0.00174934
0.00554595
0.00192844
0.00555558
0.0021157
0.00554898
0.00231115
0.00552652
0.00251491
0.00548887
0.00272715
0.00543712
0.00294808
0.00537293
0.00317794
0.00529883
0.00341687
0.00521867
0.00366465
0.00513821
0.00392034
0.00506715
0.00502155
0.00418126
-5.53074e-06
9.9256e-05
-1.72756e-05
0.000329463
-3.14745e-05
0.000595134
-4.52848e-05
0.000877276
-5.65804e-05
0.00116587
-6.37678e-05
0.00145524
-6.56572e-05
0.00174168
-6.13589e-05
0.00202263
-5.01946e-05
0.00229636
-3.16422e-05
0.00256168
-5.28677e-06
0.00281777
2.92081e-05
0.00306407
7.21189e-05
0.00330013
0.000123675
0.00352558
0.000184066
0.00374009
0.000253449
0.00394327
0.000331941
0.00413476
0.000419629
0.00431413
0.000516566
0.00448095
0.000622772
0.00463476
0.000738242
0.00477507
0.000862939
0.00490139
0.000996806
0.00501325
0.00113976
0.00511021
0.00129172
0.00519185
0.00145258
0.00525781
0.00162223
0.00530779
0.00180057
0.00534156
0.00198751
0.00535901
0.00218298
0.00536011
0.00238695
0.00534501
0.00259943
0.00531405
0.00282047
0.00526783
0.00305022
0.00520737
0.00328888
0.00513426
0.00353673
0.00505098
0.00379398
0.00496142
0.00406056
0.00487162
0.0043357
0.00479201
0.00474038
0.00461687
-5.39942e-06
0.000104655
-1.66525e-05
0.000340716
-2.98925e-05
0.000608374
-4.21951e-05
0.000889578
-5.1372e-05
0.00117505
-5.57869e-05
0.00145966
-5.42197e-05
0.00174011
-4.57666e-05
0.00201418
-2.97436e-05
0.00228034
-5.62871e-06
0.00253756
2.69859e-05
0.00278516
6.84264e-05
0.00302263
0.000118958
0.0032496
0.000178798
0.00346574
0.000248126
0.00367076
0.000327086
0.00386431
0.000415787
0.00404606
0.000514307
0.00421561
0.000622692
0.00437257
0.000740956
0.0045165
0.000869084
0.00464694
0.00100703
0.00476344
0.00115474
0.00486555
0.0013121
0.00495284
0.00147901
0.00502493
0.00165535
0.00508147
0.00184099
0.00512215
0.00203579
0.00514676
0.00223962
0.00515518
0.00245237
0.00514736
0.00267394
0.00512344
0.00290429
0.0050837
0.00314342
0.00502869
0.00339143
0.00495936
0.0036485
0.00487719
0.00391489
0.00478459
0.00419087
0.00468544
0.00447652
0.00458598
0.00477124
0.00449729
0.00443894
0.00507269
-5.27212e-06
0.000109928
-1.60319e-05
0.000351476
-2.82983e-05
0.00062064
-3.90611e-05
0.000900341
-4.60651e-05
0.00118205
-4.76274e-05
0.00146122
-4.24953e-05
0.00173498
-2.97465e-05
0.00200143
-8.68857e-06
0.00225928
2.12029e-05
0.00250767
6.03314e-05
0.00274603
0.000109014
0.00297394
0.000167506
0.0031911
0.000236014
0.00339724
0.000314704
0.00359207
0.000403709
0.00377531
0.000503126
0.00394664
0.000613025
0.00410571
0.000733439
0.00425215
0.000864374
0.00438556
0.0010058
0.00450551
0.00115768
0.00461156
0.00131991
0.00470332
0.00149238
0.00478037
0.00167498
0.00484234
0.00186754
0.0048889
0.00206991
0.00491978
0.0022819
0.00493477
0.00250335
0.00493373
0.00273408
0.00491664
0.00297394
0.00488358
0.00322282
0.00483482
0.00348065
0.00477086
0.00374747
0.00469254
0.00402339
0.00460127
0.00430867
0.00449932
0.0046036
0.00439051
0.00490837
0.00428121
0.00522257
0.00418309
0.00411742
0.00554409
-5.1529e-06
0.00011508
-1.54262e-05
0.000361749
-2.67169e-05
0.00063193
-3.59243e-05
0.000909548
-4.07219e-05
0.00118685
-3.93776e-05
0.00145987
-3.06037e-05
0.00172621
-1.34555e-05
0.00198428
1.27707e-05
0.00223305
4.86039e-05
0.00247184
9.44455e-05
0.00270019
0.000150606
0.00291778
0.00021733
0.00312438
0.000294814
0.00331975
0.000383211
0.00350367
0.000482642
0.00367588
0.000593191
0.00383609
0.000714913
0.00398399
0.000847831
0.00411924
0.000991938
0.00424145
0.00114719
0.00435025
0.00131353
0.00444523
0.00149084
0.00452601
0.001679
0.00459221
0.00187784
0.00464349
0.00208719
0.00467955
0.00230685
0.00470013
0.00253658
0.00470503
0.00277618
0.00469414
0.00302539
0.00466742
0.00328402
0.00462495
0.00355186
0.00456698
0.00382877
0.00449394
0.00411471
0.00440661
0.00440971
0.00430626
0.00471399
0.00419504
0.00502786
0.00407664
0.00535158
0.00395749
0.00568495
0.00384971
0.00377629
0.00602608
-5.04494e-06
0.000120125
-1.48451e-05
0.000371549
-2.51679e-05
0.000642253
-3.28176e-05
0.000917198
-3.5393e-05
0.00118943
-3.11101e-05
0.00145559
-1.86454e-05
0.00171374
2.97213e-06
0.00196267
3.446e-05
0.00220156
7.6353e-05
0.00242995
0.000129053
0.00264749
0.000192864
0.00285397
0.000268025
0.00304922
0.000354718
0.00323306
0.000453086
0.0034053
0.000563233
0.00356573
0.000685231
0.00371409
0.000819119
0.0038501
0.000964903
0.00397345
0.00112256
0.0040838
0.00129204
0.00418078
0.00147323
0.00426403
0.00166603
0.00433321
0.00187028
0.00438797
0.00208577
0.004428
0.0023123
0.00445302
0.00254962
0.00446281
0.00279746
0.00445719
0.00305553
0.00443607
0.00332353
0.00439942
0.00360117
0.00434731
0.00388818
0.00427998
0.00418432
0.0041978
0.00448944
0.00410149
0.00480352
0.00399218
0.00512668
0.00387188
0.00545923
0.00374409
0.00580152
0.0036152
0.00615351
0.00349772
0.00341622
0.00651358
-4.9503e-06
0.000125076
-1.4295e-05
0.000380894
-2.36646e-05
0.000651623
-2.97636e-05
0.000923297
-3.0114e-05
0.00118978
-2.28785e-05
0.00144836
-6.69653e-06
0.00169756
1.94314e-05
0.00193654
5.6239e-05
0.00216476
0.000104268
0.00238192
0.000163921
0.00258783
0.000235502
0.00278239
0.000319237
0.00296548
0.000415301
0.003137
0.000523821
0.00329678
0.000644888
0.00344466
0.000778556
0.00358042
0.000924846
0.00370381
0.00108375
0.00381455
0.00125521
0.00391233
0.00143917
0.00399682
0.0016355
0.0040677
0.00184405
0.00412466
0.00206463
0.00416739
0.00229701
0.00419561
0.00254095
0.00420909
0.00279613
0.00420762
0.00306224
0.00419108
0.00333892
0.00415939
0.00362581
0.00411253
0.00392251
0.00405061
0.00422868
0.00397381
0.00454397
0.00388251
0.00486813
0.00377732
0.00520103
0.00365928
0.00554273
0.00353018
0.00589348
0.00339334
0.00625369
0.00325499
0.00662351
0.0031279
0.00303813
0.00700161
-4.86978e-06
0.000129945
-1.37786e-05
0.000389803
-2.22128e-05
0.000660057
-2.67727e-05
0.000927856
-2.49036e-05
0.00118791
-1.47137e-05
0.00143817
5.19576e-06
0.00167765
3.58533e-05
0.00190588
7.80101e-05
0.0021226
0.000132216
0.00232771
0.000198877
0.00252117
0.000278294
0.00270297
0.000370686
0.00287309
0.000476216
0.00303147
0.000594998
0.003178
0.000727106
0.00331256
0.000872575
0.00343496
0.00103141
0.00354498
0.00120357
0.00364239
0.00138899
0.0037269
0.00158757
0.00379824
0.00179916
0.00385611
0.00202358
0.00390024
0.00226061
0.00393036
0.00250998
0.00394624
0.00277138
0.00394769
0.00304447
0.00393454
0.00332885
0.0039067
0.00362412
0.00386412
0.00392981
0.00380684
0.00424546
0.00373496
0.0045706
0.00364867
0.00490479
0.00354832
0.00524765
0.00343446
0.00559894
0.00330799
0.0059586
0.00317053
0.00632683
0.0030251
0.00670408
0.00287774
0.0070907
0.00274129
0.00264316
0.00748566
-4.80297e-06
0.000134748
-1.32946e-05
0.000398294
-2.081e-05
0.000667572
-2.38424e-05
0.000930889
-1.97614e-05
0.00118383
-6.62036e-06
0.00142503
1.70181e-05
0.00165401
5.22107e-05
0.00187069
9.9727e-05
0.00207508
0.000160126
0.00226731
0.000233817
0.00244748
0.000321099
0.00261569