/*--------------------------------*- C++ -*----------------------------------*\
  =========                 |
  \\      /  F ield         | OpenFOAM: The Open Source CFD Toolbox
   \\    /   O peration     | Website:  https://openfoam.org
    \\  /    A nd           | Version:  7
     \\/     M anipulation  |
\*---------------------------------------------------------------------------*/
FoamFile
{
    version     2.0;
    format      ascii;
    class       volVectorField;
    location    "6";
    object      U;
}
// * * * * * * * * * * * * * * * * * * * * * * * * * * * * * * * * * * * * * //

dimensions      [0 1 -1 0 0 0 0];

internalField   nonuniform List<vector> 
32000
(
(5.64625e-06 -0.000728286 -4.00382e-22)
(-0.000107546 0.00232065 0)
(-0.000339915 0.00905932 -3.57361e-21)
(-0.000612819 0.0183108 0)
(-0.000866964 0.0293192 3.71962e-21)
(-0.00104312 0.0415748 0)
(-0.00109452 0.0547072 3.84154e-21)
(-0.000984293 0.0684423 -2.92042e-21)
(-0.000684112 0.082574 7.1935e-25)
(-0.000174199 0.0969474 9.56808e-25)
(0.000555938 0.111438 -1.00567e-21)
(0.00150721 0.125943 4.06018e-21)
(0.00267488 0.140375 0)
(0.00405174 0.154658 -1.03193e-21)
(0.00562805 0.168717 1.03622e-21)
(0.00739151 0.182487 0)
(0.0093282 0.195902 5.24527e-21)
(0.0114227 0.208901 -1.05221e-21)
(0.0136584 0.221429 0)
(0.0160195 0.233431 2.12913e-21)
(0.0184902 0.244861 2.13467e-21)
(0.0210552 0.255674 0)
(0.0237001 0.265835 0)
(0.0264116 0.275312 0)
(0.0291765 0.284081 0)
(0.0319825 0.292123 0)
(0.0348181 0.299428 0)
(0.0376729 0.305987 0)
(0.040538 0.311802 -4.32895e-21)
(0.0434053 0.316876 0)
(0.0462676 0.321217 4.3323e-21)
(0.0491187 0.324838 0)
(0.0519534 0.327752 0)
(0.054767 0.329977 0)
(0.0575548 0.33153 -4.32282e-21)
(0.0603128 0.332427 -2.16718e-21)
(0.0630366 0.332684 6.48144e-21)
(0.0657304 0.332312 1.62554e-24)
(0.0683826 0.331364 4.30955e-21)
(0.0708586 0.329912 -4.24705e-26)
(-2.25729e-06 -0.000680929 0)
(-0.000272463 0.00242711 6.9782e-21)
(-0.000799871 0.00918959 1.78635e-21)
(-0.0014451 0.0184389 1.00993e-25)
(-0.00212769 0.0294151 -1.8594e-21)
(-0.00276888 0.0416087 0)
(-0.00330726 0.054652 3.83992e-21)
(-0.00369715 0.0682759 -3.8927e-21)
(-0.00390393 0.0822765 0)
(-0.00390265 0.096504 -7.968e-21)
(-0.00367908 0.110837 0)
(-0.00322856 0.125176 -1.21771e-20)
(-0.0025529 0.139438 0)
(-0.00165672 0.153548 0)
(-0.000547696 0.167435 4.15302e-21)
(0.00076333 0.181035 -4.16643e-21)
(0.00226421 0.194285 -4.1943e-21)
(0.00394144 0.207126 0)
(0.00578024 0.219501 1.26961e-20)
(0.00776572 0.231358 -4.2385e-21)
(0.0098832 0.242651 6.81383e-24)
(0.0121185 0.253337 -1.28072e-20)
(0.0144581 0.263379 -8.56468e-21)
(0.0168888 0.272748 -4.3044e-21)
(0.0193979 0.281417 1.28934e-20)
(0.0219736 0.28937 -1.29346e-20)
(0.0246046 0.296593 1.29594e-20)
(0.0272805 0.303081 -1.7254e-20)
(0.0299913 0.308832 -4.31051e-21)
(0.0327284 0.31385 3.11196e-23)
(0.0354842 0.318142 -1.29328e-20)
(0.0382516 0.321722 -8.63104e-21)
(0.0410239 0.324601 1.73042e-20)
(0.0437948 0.326798 -1.72488e-20)
(0.0465585 0.328328 -4.29509e-21)
(0.0493091 0.329209 -1.72436e-20)
(0.05204 0.329459 -3.63562e-24)
(0.0547534 0.32909 4.30375e-21)
(0.0574259 0.328159 -1.71021e-20)
(0.0599295 0.326741 -2.47075e-20)
(-1.00551e-05 -0.000635975 -1.60143e-21)
(-0.000433646 0.00252789 -3.48891e-21)
(-0.00125181 0.00933345 -1.60764e-20)
(-0.00226317 0.018593 0)
(-0.00336272 0.0295448 1.85921e-21)
(-0.00445351 0.0416819 -1.89084e-21)
(-0.00546251 0.0546396 -2.30401e-20)
(-0.00633619 0.0681523 7.78622e-21)
(-0.00703191 0.0820215 -3.94212e-21)
(-0.00751908 0.0960998 2.3898e-20)
(-0.00778196 0.110271 8.04613e-21)
(-0.00781236 0.124439 4.06189e-21)
(-0.00760892 0.138524 -1.63615e-20)
(-0.00717443 0.152454 0)
(-0.00651462 0.166161 0)
(-0.00563809 0.179582 8.35173e-21)
(-0.00455509 0.192656 2.39706e-23)
(-0.00327801 0.205327 -8.40853e-21)
(-0.00182056 0.217538 -8.45807e-21)
(-0.000196126 0.229239 -1.69676e-20)
(0.001582 0.240383 2.55529e-20)
(0.00350024 0.250928 2.09878e-23)
(0.00554564 0.26084 -1.38055e-23)
(0.0077059 0.270087 8.56007e-21)
(0.00996875 0.278645 -1.7214e-20)
(0.0123224 0.286495 3.44031e-20)
(0.0147557 0.293625 0)
(0.0172579 0.300028 8.63348e-21)
(0.019819 0.305704 8.63934e-21)
(0.0224298 0.310655 1.72956e-20)
(0.025082 0.314889 3.11102e-23)
(0.0277672 0.318418 0)
(0.0304776 0.321254 8.65048e-21)
(0.0332057 0.323415 -8.56283e-21)
(0.0359441 0.324918 -8.56256e-21)
(0.0386844 0.325781 2.58222e-20)
(0.0414188 0.326022 -2.56402e-20)
(0.0441469 0.325657 1.71454e-20)
(0.0468338 0.324746 -2.55192e-20)
(0.0493565 0.323369 9.78919e-21)
(-1.91776e-05 -0.000548416 1.28144e-20)
(-0.000598321 0.00271872 -1.39572e-20)
(-0.00170701 0.00958031 2.85794e-20)
(-0.00307702 0.0188553 0)
(-0.00458303 0.0297827 1.11529e-20)
(-0.00611077 0.0418595 1.89069e-20)
(-0.00757442 0.0547249 3.84179e-21)
(-0.00891177 0.0681184 2.0101e-24)
(-0.0100756 0.0818482 1.1821e-20)
(-0.0110312 0.0957687 -3.9867e-21)
(-0.0117587 0.109768 2.01084e-20)
(-0.0122474 0.123755 -2.43523e-20)
(-0.0124942 0.137652 2.45345e-20)
(-0.0124994 0.15139 -8.24731e-21)
(-0.0122665 0.164905 8.28169e-21)
(-0.011803 0.178136 -1.66735e-20)
(-0.011118 0.191023 -2.51492e-20)
(-0.010222 0.203511 8.40513e-21)
(-0.00912733 0.215546 -8.46551e-21)
(-0.00784642 0.227078 2.54342e-20)
(-0.0063916 0.238062 -1.70219e-20)
(-0.00477535 0.248456 -1.70556e-20)
(-0.00300997 0.258225 0)
(-0.00110753 0.267339 0)
(0.000920077 0.275773 -1.71552e-20)
(0.00306165 0.283508 -1.72016e-20)
(0.00530621 0.290534 -1.71924e-20)
(0.00764279 0.296843 0)
(0.0100609 0.302432 0)
(0.0125511 0.307307 -3.44735e-20)
(0.0151041 0.311474 -7.78518e-23)
(0.0177106 0.314943 1.7235e-20)
(0.0203618 0.31773 -1.71603e-20)
(0.0230488 0.31985 -1.72148e-20)
(0.0257622 0.321322 1.71716e-20)
(0.0284919 0.322164 0)
(0.0312282 0.322396 1.71177e-20)
(0.0339676 0.322038 -3.40928e-20)
(0.036665 0.32115 3.40046e-20)
(0.0392018 0.31982 -3.92671e-20)
(-3.24263e-05 -0.000450233 -6.4071e-21)
(-0.000767922 0.0029349 1.04672e-20)
(-0.00216242 0.00986686 -1.42894e-20)
(-0.00388408 0.0191647 0)
(-0.00578445 0.0300705 -1.85885e-20)
(-0.00773305 0.0420872 -1.13444e-20)
(-0.00963354 0.0548599 1.5358e-20)
(-0.0114153 0.0681326 0)
(-0.0130259 0.0817185 -2.36424e-20)
(-0.0144273 0.0954766 -7.9694e-21)
(-0.0155967 0.109299 -8.03903e-21)
(-0.0165211 0.123099 1.62421e-20)
(-0.0171947 0.136802 -1.63589e-20)
(-0.0176163 0.150342 8.2291e-21)
(-0.0177881 0.163657 0)
(-0.017716 0.176689 2.502e-20)
(-0.0174074 0.189381 8.39078e-21)
(-0.0168718 0.201678 -1.68545e-20)
(-0.0161204 0.213527 3.37906e-20)
(-0.0151644 0.224881 -3.39071e-20)
(-0.014015 0.235694 3.39729e-20)
(-0.0126842 0.245926 1.70555e-20)
(-0.0111838 0.255542 0)
(-0.00952511 0.264512 1.71538e-20)
(-0.00771948 0.272812 4.61043e-23)
(-0.00577785 0.280424 0)
(-0.00371125 0.287335 1.71924e-20)
(-0.00153072 0.293539 -1.72248e-20)
(0.000753146 0.299034 1.71532e-20)
(0.00313032 0.303823 3.44338e-20)
(0.00559076 0.307914 -3.43622e-20)
(0.0081244 0.311317 3.43224e-20)
(0.0107213 0.314047 0)
(0.0133711 0.316122 0)
(0.0160627 0.317558 3.41952e-20)
(0.0187838 0.318378 0)
(0.0215227 0.318603 0)
(0.0242732 0.318253 -3.39579e-20)
(0.0269799 0.317395 3.38053e-20)
(0.0295282 0.316118 1.96092e-20)
(-5.02947e-05 -0.00032823 3.20408e-21)
(-0.0009455 0.00320453 0)
(-0.00262292 0.0102193 2.85774e-20)
(-0.00468737 0.0195457 3.64768e-21)
(-0.00696973 0.0304313 3.71749e-21)
(-0.00932372 0.0423862 2.26852e-20)
(-0.0116422 0.0550628 3.07118e-20)
(-0.0138473 0.0682103 0)
(-0.0158826 0.0816472 7.88219e-21)
(-0.0177067 0.0952372 2.38989e-20)
(-0.0192938 0.108877 3.21732e-20)
(-0.0206292 0.122483 -8.12062e-21)
(-0.0217052 0.135984 -2.45407e-20)
(-0.022519 0.149318 0)
(-0.0230712 0.162425 3.31496e-20)
(-0.0233664 0.17525 0)
(-0.0234113 0.187737 5.02709e-20)
(-0.023214 0.199834 -1.67997e-20)
(-0.0227842 0.211489 0)
(-0.0221322 0.222655 -1.69732e-20)
(-0.0212689 0.233288 -3.42637e-23)
(-0.0202052 0.243349 -1.69931e-20)
(-0.0189523 0.252803 -1.704e-20)
(-0.017521 0.26162 1.71347e-20)
(-0.0159221 0.269776 -1.70899e-20)
(-0.0141665 0.277255 0)
(-0.0122649 0.284043 -1.71871e-20)
(-0.0102284 0.290133 1.71215e-20)
(-0.00806788 0.295524 0)
(-0.00579385 0.30022 0)
(-0.00341693 0.304227 0)
(-0.000947914 0.307557 -3.43168e-20)
(0.00160221 0.310226 3.41356e-20)
(0.00422154 0.312249 0)
(0.00689705 0.313648 -1.707e-20)
(0.00961446 0.314445 0)
(0.0123599 0.314663 3.39849e-20)
(0.0151242 0.314327 -1.68235e-20)
(0.0178426 0.313504 -3.37814e-20)
(0.0204032 0.312289 3.89362e-20)
(-7.46039e-05 -0.000188951 2.24312e-20)
(-0.00113334 0.00351302 -3.14031e-20)
(-0.00308921 0.0106224 -5.35808e-20)
(-0.0054876 0.0199819 -2.91805e-20)
(-0.00813832 0.0308478 -7.43447e-21)
(-0.01088 0.0427397 -1.51229e-20)
(-0.0135965 0.0553177 -6.90983e-20)
(-0.0162032 0.0683365 -2.33473e-20)
(-0.0186396 0.0816201 -3.93919e-20)
(-0.0208614 0.0950375 -3.983e-20)
(-0.022841 0.108489 -5.63073e-20)
(-0.0245617 0.121895 -3.24562e-20)
(-0.0260141 0.135189 4.0465e-25)
(-0.0271939 0.148311 -3.29415e-20)
(-0.0281008 0.161204 -3.31494e-20)
(-0.0287384 0.173815 -5.00164e-20)
(-0.0291121 0.18609 3.34902e-20)
(-0.0292288 0.197979 -1.67959e-20)
(-0.0290974 0.209432 0)
(-0.0287275 0.220403 3.38677e-20)
(-0.028129 0.230849 0)
(-0.0273123 0.24073 6.81002e-20)
(-0.0262877 0.250014 0)
(-0.0250656 0.25867 -1.71165e-20)
(-0.0236565 0.266675 1.71562e-20)
(-0.0220707 0.274013 -3.41697e-20)
(-0.0203191 0.280669 0)
(-0.0184128 0.286639 -3.43233e-20)
(-0.0163626 0.291919 3.41806e-20)
(-0.0141795 0.296514 0)
(-0.0118747 0.300431 0)
(-0.00945958 0.303683 0)
(-0.0069463 0.306284 -3.40618e-20)
(-0.00434813 0.308254 0)
(-0.00167997 0.309613 -3.40342e-20)
(0.0010417 0.310387 6.77828e-20)
(0.00380089 0.3106 -6.75991e-20)
(0.00658525 0.310281 3.35253e-20)
(0.00932122 0.3095 6.71746e-20)
(0.0118985 0.308356 -3.87969e-20)
(-0.000106171 -3.35352e-05 -2.88398e-20)
(-0.0013335 0.00385885 5.98448e-25)
(-0.0035633 0.0110722 2.85759e-20)
(-0.00628531 0.0204685 5.8359e-20)
(-0.00928961 0.0313156 -7.43403e-21)
(-0.0124006 0.043143 -3.02448e-20)
(-0.0154939 0.0556193 3.0707e-20)
(-0.0184788 0.0685061 4.66996e-20)
(-0.0212911 0.081633 1.57569e-20)
(-0.0238847 0.0948736 3.98234e-20)
(-0.02623 0.108133 3.21731e-20)
(-0.0283084 0.121335 4.86723e-20)
(-0.0301096 0.134416 9.81374e-20)
(-0.0316281 0.147321 4.94273e-20)
(-0.0328626 0.159994 0)
(-0.0338157 0.172385 1.66452e-20)
(-0.0344918 0.184442 1.67202e-20)
(-0.034897 0.196117 1.6789e-20)
(-0.0350392 0.207362 3.37558e-20)
(-0.0349274 0.218132 -1.69164e-20)
(-0.0345708 0.228383 0)
(-0.0339789 0.238079 -1.97753e-23)
(-0.0331616 0.247186 -3.40781e-20)
(-0.0321286 0.255674 3.41225e-20)
(-0.0308901 0.263522 6.83428e-20)
(-0.0294562 0.270712 6.84266e-20)
(-0.0278376 0.277231 3.94385e-23)
(-0.0260454 0.283072 3.41708e-20)
(-0.0240903 0.288235 3.41531e-20)
(-0.0219836 0.292724 -3.41237e-20)
(-0.0197369 0.296546 3.40828e-20)
(-0.0173624 0.299714 3.40307e-20)
(-0.0148731 0.302244 6.80295e-20)
(-0.0122839 0.304157 -1.0808e-22)
(-0.00961135 0.305474 1.01538e-19)
(-0.00687407 0.306224 -3.36911e-24)
(-0.00409055 0.306436 -3.36128e-20)
(-0.0012762 0.306138 -3.36334e-20)
(0.00148733 0.305407 3.33781e-20)
(0.00408953 0.304343 3.86191e-20)
(-0.000145751 0.000136732 2.56367e-20)
(-0.00154719 0.00423721 3.48902e-20)
(-0.00404622 0.0115632 2.14284e-20)
(-0.00708097 0.0209994 -2.18845e-20)
(-0.0104231 0.0318273 -3.71653e-20)
(-0.0138839 0.0435882 3.0243e-20)
(-0.0173313 0.0559603 0)
(-0.0206697 0.0687122 3.1132e-20)
(-0.0238317 0.0816789 0)
(-0.0267696 0.0947391 -6.37239e-20)
(-0.0294521 0.107802 1.6098e-20)
(-0.0318595 0.120797 -8.11344e-20)
(-0.0339804 0.133662 -3.27122e-20)
(-0.0358086 0.146345 1.64889e-20)
(-0.0373419 0.158794 3.50563e-23)
(-0.038582 0.170961 -1.66449e-20)
(-0.0395325 0.182796 -3.34877e-20)
(-0.0401988 0.194252 -6.7252e-20)
(-0.0405881 0.205284 0)
(-0.0407087 0.215846 4.68301e-23)
(-0.040569 0.225899 -3.38858e-20)
(-0.040178 0.235404 -3.40193e-20)
(-0.0395449 0.244328 3.4078e-20)
(-0.038679 0.252645 -3.41947e-20)
(-0.0375899 0.26033 3.41183e-20)
(-0.0362877 0.267366 -6.82617e-20)
(-0.034783 0.273742 3.61568e-23)
(-0.0330864 0.279451 -6.82534e-20)
(-0.0312087 0.284492 -3.4153e-20)
(-0.0291614 0.288868 -2.37872e-23)
(-0.0269564 0.29259 -9.80027e-23)
(-0.0246064 0.29567 -3.40307e-20)
(-0.0221256 0.298125 -3.39677e-20)
(-0.01953 0.299978 -1.01289e-22)
(-0.0168379 0.301253 -3.38101e-20)
(-0.0140702 0.30198 -1.17325e-22)
(-0.0112479 0.302191 -3.35816e-20)
(-0.00838976 0.301921 1.00141e-19)
(-0.00558433 0.301246 -3.33781e-20)
(-0.00294463 0.300273 -3.86335e-20)
(-0.000193918 0.000319866 -2.56344e-20)
(-0.00177539 0.00464377 6.97995e-21)
(-0.00453855 0.0120892 -2.14307e-20)
(-0.00787464 0.021567 -7.29497e-21)
(-0.011538 0.032375 2.97315e-20)
(-0.0153279 0.0440677 -7.56148e-21)
(-0.0191058 0.056333 7.67551e-21)
(-0.0227718 0.0689469 -4.67029e-20)
(-0.026256 0.0817506 1.57526e-20)
(-0.0295091 0.0946282 3.18624e-20)
(-0.0324989 0.107493 0)
(-0.0352051 0.120277 6.49211e-20)
(-0.0376154 0.132923 0)
(-0.0397226 0.145381 -6.58879e-20)
(-0.0415242 0.157603 -3.31481e-20)
(-0.0430212 0.169542 0)
(-0.0442165 0.181152 0)
(-0.0451148 0.192386 6.72447e-20)
(-0.0457227 0.203201 3.37888e-20)
(-0.0460481 0.213553 -6.76853e-20)
(-0.0460986 0.223403 3.38749e-20)
(-0.0458824 0.232713 0)
(-0.0454083 0.241452 -3.4098e-20)
(-0.0446852 0.249592 6.81329e-20)
(-0.0437224 0.257111 -3.40459e-20)
(-0.0425296 0.26399 -3.41667e-20)
(-0.041117 0.270219 3.40491e-20)
(-0.0394952 0.275791 0)
(-0.0376748 0.280705 6.81467e-20)
(-0.0356673 0.284966 -3.39637e-20)
(-0.0334848 0.288584 -3.40205e-20)
(-0.0311405 0.291572 -1.05751e-22)
(-0.0286495 0.29395 1.35314e-19)
(-0.0260289 0.29574 -1.01176e-19)
(-0.0232988 0.296972 0)
(-0.0204822 0.297676 -3.35988e-20)
(-0.0176029 0.297889 -6.69348e-20)
(-0.0146828 0.29765 3.31486e-20)
(-0.0118166 0.29704 3.30956e-20)
(-0.00912238 0.29617 0)
(-0.000250895 0.000514059 -5.12703e-20)
(-0.00201854 0.00507397 -6.97943e-21)
(-0.00504081 0.0126436 5.7134e-20)
(-0.00866617 0.0221637 -5.83426e-20)
(-0.0126331 0.0329506 0)
(-0.0167307 0.0445729 0)
(-0.0208145 0.0567285 -1.53574e-20)
(-0.0247811 0.0692021 -9.71581e-24)
(-0.0285584 0.0818408 1.57528e-20)
(-0.0320966 0.0945335 0)
(-0.0353628 0.107198 0)
(-0.0383359 0.11977 -1.62174e-20)
(-0.0410033 0.132196 2.7296e-23)
(-0.0433576 0.144428 1.64864e-20)
(-0.0453955 0.15642 3.31479e-20)
(-0.0471175 0.16813 0)
(-0.048526 0.179511 3.35254e-20)
(-0.0496254 0.190522 -3.35347e-20)
(-0.0504219 0.201118 -6.74745e-20)
(-0.0509225 0.211258 6.767e-20)
(-0.0511342 0.220902 9.82976e-23)
(-0.0510648 0.230016 -3.39268e-20)
(-0.0507224 0.238567 3.40744e-20)
(-0.0501157 0.246529 -6.80678e-20)
(-0.0492536 0.253878 0)
(-0.0481454 0.260598 3.41247e-20)
(-0.046801 0.266678 -6.81209e-20)
(-0.0452306 0.27211 3.39836e-20)
(-0.0434448 0.276895 -3.40304e-20)
(-0.0414547 0.281038 -3.40025e-20)
(-0.0392727 0.284548 -3.40406e-20)
(-0.0369124 0.287442 1.35273e-19)
(-0.0343895 0.289739 -1.01158e-19)
(-0.0317222 0.291465 -6.73723e-20)
(-0.028932 0.292651 6.69869e-20)
(-0.0260442 0.293333 0)
(-0.0230855 0.29355 6.66752e-20)
(-0.0200812 0.293347 -6.62579e-20)
(-0.017131 0.292809 -3.30956e-20)
(-0.0143607 0.292055 0)
(-0.000317031 0.000717442 1.08936e-19)
(-0.00227709 0.00552289 4.8825e-20)
(-0.00555294 0.0132198 -5.71336e-20)
(-0.009455 0.022782 5.105e-20)
(-0.0137075 0.0335457 -7.43257e-21)
(-0.0180904 0.0450947 1.51172e-20)
(-0.0224545 0.0571382 0)
(-0.0266935 0.0694694 -1.55715e-20)
(-0.0307342 0.0819412 1.5753e-20)
(-0.0345261 0.0944478 1.59426e-20)
(-0.038036 0.106911 -1.60821e-20)
(-0.0412431 0.11927 -1.62463e-20)
(-0.0441343 0.131475 1.63484e-20)
(-0.0467018 0.14348 0)
(-0.0489422 0.155243 0)
(-0.0508558 0.166722 -3.33674e-20)
(-0.0524444 0.177876 3.34463e-20)
(-0.0537121 0.188662 -3.3662e-20)
(-0.0546649 0.199038 3.36896e-20)
(-0.0553092 0.208965 3.38745e-20)
(-0.0556513 0.218404 -6.78091e-20)
(-0.0556983 0.22732 6.7925e-20)
(-0.0554582 0.235683 9.74082e-23)
(-0.0549392 0.243466 -3.39792e-20)
(-0.0541499 0.250645 0)
(-0.053099 0.257205 3.40842e-20)
(-0.0517961 0.263134 9.92985e-23)
(-0.0502512 0.268426 -3.39363e-20)
(-0.0484744 0.273081 0)
(-0.0464767 0.277103 6.78635e-20)
(-0.0442703 0.280505 -6.75403e-20)
(-0.0418692 0.283302 0)
(-0.0392895 0.285516 6.7373e-20)
(-0.0365504 0.287176 -6.70017e-20)
(-0.0336747 0.288315 0)
(-0.0306898 0.288973 0)
(-0.0276255 0.289196 0)
(-0.0245107 0.289033 -6.61289e-20)
(-0.0214485 0.288575 6.5705e-20)
(-0.0185763 0.287948 7.61521e-20)
(-0.000392338 0.000927821 -5.12617e-20)
(-0.00255098 0.00598574 -5.58033e-20)
(-0.00607479 0.0138113 -7.13922e-21)
(-0.0102406 0.0234138 2.18748e-20)
(-0.0147598 0.0341514 -2.97245e-20)
(-0.0194051 0.0456242 3.02366e-20)
(-0.0240231 0.057553 -3.07054e-20)
(-0.0285055 0.0697395 -4.67008e-20)
(-0.0327785 0.0820433 0)
(-0.0367916 0.0943632 -1.59439e-20)
(-0.0405119 0.106625 1.60834e-20)
(-0.0439184 0.118771 0)
(-0.0469983 0.130755 3.27557e-20)
(-0.049744 0.142534 -3.29255e-20)
(-0.0521518 0.154069 -9.95059e-20)
(-0.0542217 0.165319 -7.21197e-23)
(-0.0559553 0.176246 6.69747e-20)
(-0.0573569 0.186808 -3.35786e-20)
(-0.058432 0.196966 0)
(-0.0591863 0.20668 0)
(-0.0596255 0.215914 6.77828e-20)
(-0.0597566 0.224635 3.39947e-20)
(-0.059587 0.23281 -3.39391e-20)
(-0.0591246 0.240414 -3.40513e-20)
(-0.0583776 0.247425 6.8018e-20)
(-0.0573542 0.253826 -3.3952e-20)
(-0.0560637 0.259605 6.80398e-20)
(-0.0545155 0.264757 -1.35742e-19)
(-0.0527195 0.269281 1.35535e-19)
(-0.0506861 0.273183 -1.35277e-19)
(-0.0484276 0.276474 1.34969e-19)
(-0.045958 0.279173 -1.34615e-19)
(-0.0432937 0.281303 6.70314e-20)
(-0.0404544 0.282895 6.69583e-20)
(-0.0374643 0.283986 1.36111e-22)
(-0.0343528 0.28462 1.2741e-22)
(-0.0311531 0.284849 -6.6039e-20)
(-0.0278976 0.284729 1.84263e-22)
(-0.0246917 0.284359 -6.54318e-20)
(-0.0216874 0.283871 0)
(-0.000476881 0.00114331 6.40603e-21)
(-0.00284014 0.00645768 -6.97246e-21)
(-0.00660588 0.0144111 2.14154e-20)
(-0.011022 0.0240513 -2.91623e-20)
(-0.0157889 0.0347591 1.48594e-20)
(-0.020673 0.0461521 0)
(-0.0255176 0.0579633 0)
(-0.0302138 0.0700034 6.22613e-20)
(-0.0346872 0.082138 7.88057e-20)
(-0.038888 0.0942711 -1.59274e-20)
(-0.0427839 0.106332 8.04876e-20)
(-0.0463544 0.118267 -1.62262e-20)
(-0.0495869 0.130032 0)
(-0.0524741 0.141587 0)
(-0.0550124 0.152895 6.63155e-20)
(-0.0572018 0.163918 0)
(-0.059044 0.17462 3.34527e-20)
(-0.0605432 0.18496 -3.36609e-20)
(-0.0617043 0.194902 0)
(-0.0625329 0.204407 -6.76337e-20)
(-0.0630341 0.213439 -3.38521e-20)
(-0.0632145 0.221966 -1.01755e-19)
(-0.0630813 0.229957 -3.40116e-20)
(-0.062642 0.237386 3.39387e-20)
(-0.0619041 0.24423 6.79349e-20)
(-0.0608758 0.250475 0)
(-0.0595657 0.256106 6.78257e-20)
(-0.0579828 0.26112 1.35584e-19)
(-0.0561364 0.265514 1.60687e-22)
(-0.0540366 0.269297 -6.74323e-20)
(-0.0516953 0.272479 -6.74143e-20)
(-0.0491264 0.275079 6.7075e-20)
(-0.0463466 0.277124 6.69968e-20)
(-0.0433759 0.278647 -1.33382e-19)
(-0.0402395 0.279687 1.32862e-19)
(-0.0369688 0.280296 -6.62619e-20)
(-0.0336005 0.280531 6.58014e-20)
(-0.0301706 0.280455 1.31076e-19)
(-0.0267855 0.280179 6.50641e-20)
(-0.0236157 0.279844 7.5113e-20)
(-0.000570515 0.00136179 -5.12253e-20)
(-0.0031442 0.00693398 4.87962e-20)
(-0.00714562 0.0150128 -4.28124e-20)
(-0.0117984 0.0246864 4.37253e-20)
(-0.0167934 0.0353599 7.42801e-20)
(-0.0218921 0.0466691 -6.04534e-20)
(-0.0269359 0.0583597 7.67517e-20)
(-0.0318153 0.0702513 4.66972e-20)
(-0.0364566 0.082216 -1.10308e-19)
(-0.040811 0.0941624 3.18726e-20)
(-0.0448468 0.106024 1.60921e-20)
(-0.0485446 0.117749 3.25059e-20)
(-0.0518922 0.129297 3.27678e-20)
(-0.054883 0.140631 -6.59335e-20)
(-0.0575137 0.151716 6.63341e-20)
(-0.0597843 0.162516 1.0006e-19)
(-0.0616968 0.172997 -1.00435e-19)
(-0.0632552 0.18312 1.34485e-19)
(-0.0644645 0.192849 6.74574e-20)
(-0.0653296 0.202149 1.01489e-19)
(-0.0658555 0.210983 3.39146e-20)
(-0.0660483 0.219321 6.78618e-20)
(-0.0659149 0.227131 -6.78885e-20)
(-0.0654626 0.234389 0)
(-0.0646984 0.241072 -2.03804e-19)
(-0.0636301 0.247164 1.35721e-19)
(-0.0622657 0.252652 -6.767e-20)
(-0.0606138 0.257531 -6.75766e-20)
(-0.058683 0.2618 1.98386e-23)
(-0.0564831 0.265466 0)
(-0.0540255 0.26854 0)
(-0.0513239 0.271044 6.69107e-20)
(-0.0483949 0.273003 -6.68119e-20)
(-0.0452588 0.274455 6.64437e-20)
(-0.0419415 0.275444 -6.62702e-20)
(-0.038476 0.276026 -6.5974e-20)
(-0.0349032 0.276264 0)
(-0.0312626 0.276233 -6.52427e-20)
(-0.0276599 0.276056 -6.50001e-20)
(-0.0242879 0.275885 -2.24812e-19)
(-0.000673022 0.00158132 5.12303e-20)
(-0.00346259 0.00740993 -4.8791e-20)
(-0.00769319 0.0156099 5.70878e-20)
(-0.0125688 0.0253113 -1.02017e-19)
(-0.0177719 0.0359449 -7.42768e-20)
(-0.0230608 0.0471657 6.04533e-20)
(-0.0282758 0.0587323 -1.22786e-19)
(-0.0333077 0.0704733 -6.22563e-20)
(-0.0380837 0.0822674 7.8806e-20)
(-0.0425566 0.0940278 -1.43423e-19)
(-0.046696 0.105691 -9.66063e-20)
(-0.0504834 0.11721 -3.25115e-20)
(-0.0539078 0.128545 -9.82477e-20)
(-0.0569631 0.139662 9.88732e-20)
(-0.0596465 0.150528 -6.63339e-20)
(-0.0619586 0.16111 -6.66838e-20)
(-0.0639015 0.171374 0)
(-0.0654794 0.181285 -6.7244e-20)
(-0.0666969 0.190808 -1.01225e-19)
(-0.0675588 0.199907 3.37721e-20)
(-0.0680699 0.20855 -6.77531e-20)
(-0.068236 0.216704 0)
(-0.0680637 0.224341 6.78882e-20)
(-0.0675599 0.231434 6.79565e-20)
(-0.0667313 0.237961 -6.77277e-20)
(-0.0655852 0.243906 0)
(-0.0641292 0.249257 0)
(-0.0623712 0.254007 0)
(-0.0603194 0.258156 -1.07093e-22)
(-0.0579831 0.261709 0)
(-0.0553731 0.26468 -1.34104e-19)
(-0.0525027 0.267088 -1.33806e-22)
(-0.0493883 0.268964 -1.33127e-19)
(-0.0460503 0.270345 1.32615e-19)
(-0.042515 0.271281 -6.59727e-20)
(-0.0388173 0.271833 6.58127e-20)
(-0.0350017 0.272072 0)
(-0.0311119 0.272085 1.30186e-19)
(-0.0272511 0.27201 -6.46241e-20)
(-0.0236386 0.272013 0)
(-0.000784105 0.00180004 6.40023e-21)
(-0.00379463 0.00788105 0)
(-0.0082477 0.0161959 -7.13162e-20)
(-0.0133319 0.0259182 8.74304e-20)
(-0.0187232 0.0365056 4.45471e-20)
(-0.0241778 0.0476326 -6.04323e-20)
(-0.0295357 0.0590711 6.13893e-20)
(-0.0346888 0.0706593 -6.22457e-20)
(-0.0395661 0.0822819 0)
(-0.0441219 0.093857 6.37485e-20)
(-0.0483278 0.105325 -6.4396e-20)
(-0.0521665 0.11664 -6.32077e-24)
(-0.0556282 0.127766 0)
(-0.0587079 0.138671 6.59524e-20)
(-0.0614035 0.149324 -3.31458e-20)
(-0.0637159 0.159694 6.67706e-20)
(-0.065648 0.169748 3.35377e-20)
(-0.0672039 0.179453 -6.72517e-20)
(-0.0683881 0.188776 0)
(-0.0692052 0.197683 1.0146e-19)
(-0.0696601 0.206141 3.38983e-20)
(-0.0697583 0.21412 0)
(-0.0695061 0.22159 0)
(-0.06891 0.228526 0)
(-0.0679766 0.234906 6.78293e-20)
(-0.0667125 0.240713 0)
(-0.065125 0.245934 -6.76909e-20)
(-0.0632214 0.250563 1.34986e-19)
(-0.0610093 0.254598 -1.34656e-19)
(-0.0584976 0.258046 0)
(-0.0556966 0.260918 6.69894e-20)
(-0.0526191 0.263236 -6.66024e-20)
(-0.0492811 0.265031 6.64965e-20)
(-0.0457027 0.266342 0)
(-0.0419108 0.267224 0)
(-0.0379416 0.267744 6.5503e-20)
(-0.0338437 0.267981 -6.51037e-20)
(-0.0296649 0.268035 1.29553e-19)
(-0.0255046 0.268063 -1.28723e-19)
(-0.0216117 0.268248 0)
(-0.000903369 0.00201617 4.47762e-20)
(-0.00413947 0.00834306 1.39337e-20)
(-0.00880811 0.0167648 5.70513e-20)
(-0.0140867 0.0264998 5.82522e-20)
(-0.0196462 0.0370335 -5.93971e-20)
(-0.0252416 0.0480605 6.04322e-20)
(-0.0307142 0.0593664 6.13693e-20)
(-0.0359572 0.070799 6.22456e-20)
(-0.0409019 0.0822493 0)
(-0.045505 0.0936398 6.37478e-20)
(-0.0497398 0.104914 6.43959e-20)
(-0.0535908 0.116029 6.4977e-20)
(-0.0570498 0.126952 0)
(-0.0601128 0.13765 8.50957e-24)
(-0.0627789 0.148097 6.63531e-20)
(-0.0650497 0.158261 -3.33137e-20)
(-0.0669284 0.168113 -3.34599e-20)
(-0.0684193 0.177621 1.00915e-19)
(-0.0695271 0.186753 7.32828e-23)
(-0.0702564 0.195475 -3.37747e-20)
(-0.0706119 0.203758 -6.77269e-20)
(-0.070599 0.21157 0)
(-0.070224 0.218883 0)
(-0.0694928 0.225671 0)
(-0.0684118 0.231913 0)
(-0.0669873 0.237591 0)
(-0.0652261 0.242693 0)
(-0.0631349 0.24721 6.74555e-20)
(-0.0607211 0.251141 -6.71752e-20)
(-0.057993 0.254492 0)
(-0.0549604 0.257274 0)
(-0.0516354 0.259508 6.66018e-20)
(-0.0480337 0.261226 0)
(-0.0441751 0.262471 6.5962e-20)
(-0.0400867 0.263299 -6.55845e-20)
(-0.0358061 0.263784 0)
(-0.0313857 0.264015 1.29808e-19)
(-0.0268779 0.264105 -1.28996e-19)
(-0.0223766 0.264236 0)
(-0.0181638 0.26461 0)
(-0.00103038 0.00222815 -5.11688e-20)
(-0.00449614 0.00879203 -1.39213e-20)
(-0.00937336 0.017311 1.4255e-20)
(-0.0148321 0.027049 -5.82522e-20)
(-0.0205396 0.0375205 0)
(-0.0262514 0.0484405 0)
(-0.0318101 0.0596086 -4.60218e-20)
(-0.0371118 0.0708822 -1.55515e-20)
(-0.0420901 0.0821589 -3.1533e-20)
(-0.0467044 0.0933654 -3.18948e-20)
(-0.0509304 0.104448 -3.22249e-20)
(-0.0547544 0.115368 3.24656e-20)
(-0.0581701 0.126092 3.27249e-20)
(-0.0611749 0.136591 -3.30085e-20)
(-0.0637691 0.146838 0)
(-0.0659552 0.156805 0)
(-0.0677369 0.166463 -6.70068e-20)
(-0.0691189 0.175783 0)
(-0.0701059 0.184732 0)
(-0.0707028 0.193281 6.76661e-20)
(-0.0709143 0.201398 1.35932e-22)
(-0.0707458 0.209053 5.72565e-23)
(-0.0702031 0.21622 -6.78474e-20)
(-0.0692923 0.222872 6.7702e-20)
(-0.0680192 0.228987 6.76806e-20)
(-0.0663899 0.234548 -6.75791e-20)
(-0.0644108 0.239542 0)
(-0.0620884 0.243959 6.73599e-20)
(-0.0594296 0.247798 8.24776e-23)
(-0.0564422 0.251062 -6.68621e-20)
(-0.0531356 0.253763 0)
(-0.0495215 0.255923 0)
(-0.0456149 0.257571 6.6099e-20)
(-0.0414355 0.258754 -6.57346e-20)
(-0.0370103 0.259531 -6.54226e-20)
(-0.0323781 0.25998 6.50355e-20)
(-0.0275954 0.260201 0)
(-0.0227192 0.260322 0)
(-0.0178369 0.260552 0)
(-0.0132655 0.261118 -7.29396e-20)
(-0.00116466 0.00243459 6.38932e-20)
(-0.00486364 0.00922441 -2.78349e-20)
(-0.00994231 0.0178292 1.42482e-20)
(-0.0155669 0.0275594 0)
(-0.0214026 0.0379589 7.41814e-20)
(-0.0272061 0.0487638 9.49258e-24)
(-0.0328229 0.0597881 6.1353e-20)
(-0.038152 0.0708987 -4.66767e-20)
(-0.0431303 0.082 6.30214e-20)
(-0.0477199 0.0930228 -3.185e-20)
(-0.0518991 0.103917 0)
(-0.0556568 0.114645 3.25214e-20)
(-0.0589883 0.125175 -9.82325e-20)
(-0.0618931 0.135481 0)
(-0.0643726 0.145537 9.95965e-20)
(-0.0664303 0.155316 -6.66567e-20)
(-0.0680708 0.16479 -6.70155e-20)
(-0.069299 0.173931 3.35945e-20)
(-0.07012 0.182709 0)
(-0.0705389 0.191094 -6.76002e-20)
(-0.0705606 0.199057 -6.77577e-20)
(-0.0701904 0.206568 -7.36094e-23)
(-0.0694343 0.2136 6.77431e-20)
(-0.0682979 0.220128 6.77794e-20)
(-0.0667867 0.226129 -1.35282e-19)
(-0.0649069 0.231587 6.75786e-20)
(-0.0626644 0.236485 0)
(-0.0600656 0.240816 -6.71875e-20)
(-0.0571171 0.244576 6.69732e-20)
(-0.0538265 0.247767 6.67292e-20)
(-0.0502026 0.2504 -6.64574e-20)
(-0.0462568 0.252496 6.61594e-20)
(-0.0420038 0.254085 0)
(-0.0374629 0.255213 6.55852e-20)
(-0.0326609 0.255943 1.30353e-19)
(-0.0276379 0.256357 -1.29668e-19)
(-0.0224542 0.256564 1.28862e-19)
(-0.0171721 0.25671 -2.74392e-23)
(-0.0118709 0.257033 -6.37346e-20)
(-0.00690449 0.257792 1.45253e-19)
(-0.00130573 0.00263432 -3.8345e-20)
(-0.00524089 0.009637 -8.34325e-20)
(-0.0105138 0.0183148 5.6946e-20)
(-0.0162901 0.028025 -4.36309e-20)
(-0.0222341 0.0383417 -1.48611e-20)
(-0.0281051 0.0490224 1.50889e-20)
(-0.0337522 0.0598957 -3.06594e-20)
(-0.0390778 0.0708387 -3.10889e-20)
(-0.0440226 0.0817619 3.1526e-20)
(-0.0485518 0.0926009 -6.37387e-20)
(-0.0526466 0.103308 -5.24788e-23)
(-0.0562986 0.113848 3.2465e-20)
(-0.0595054 0.124191 0)
(-0.0622681 0.134311 -3.30197e-20)
(-0.0645898 0.144183 -3.32192e-20)
(-0.0664754 0.153782 6.67237e-20)
(-0.0679299 0.163082 0)
(-0.068959 0.172055 0)
(-0.0695683 0.180673 6.75139e-20)
(-0.069763 0.188907 -6.75228e-20)
(-0.0695484 0.196728 0)
(-0.0689301 0.204108 6.77829e-20)
(-0.0679136 0.211018 -6.76334e-20)
(-0.0665048 0.217436 -1.35372e-19)
(-0.0647089 0.223338 -9.17231e-23)
(-0.0625319 0.228706 6.75132e-20)
(-0.0599799 0.233525 -1.34593e-19)
(-0.0570589 0.237784 6.71868e-20)
(-0.0537756 0.24148 -6.69725e-20)
(-0.0501372 0.244613 -3.72203e-23)
(-0.0461525 0.247194 8.31384e-23)
(-0.0418327 0.24924 -6.61585e-20)
(-0.0371919 0.250782 -6.56792e-20)
(-0.0322494 0.251866 -6.5318e-20)
(-0.0270321 0.252555 -1.86783e-22)
(-0.0215806 0.252937 0)
(-0.0159593 0.253129 -6.41103e-20)
(-0.0102365 0.253293 1.27544e-19)
(-0.00448198 0.253703 -1.90198e-19)
(0.000912847 0.254653 -1.40852e-22)
(-0.0014531 0.00282629 -1.27672e-20)
(-0.00562682 0.010027 1.11191e-19)
(-0.0110868 0.0187636 -5.69473e-20)
(-0.0170006 0.0284403 4.36342e-20)
(-0.0230333 0.0386623 -1.18611e-19)
(-0.0289479 0.0492085 1.50827e-20)
(-0.0345977 0.059923 -6.13014e-20)
(-0.0398894 0.0706924 0)
(-0.0447676 0.0814344 0)
(-0.0492012 0.0920885 -6.37218e-20)
(-0.0531745 0.10261 3.22225e-20)
(-0.0566819 0.112965 -3.7169e-24)
(-0.0597235 0.123126 3.27258e-20)
(-0.0623024 0.133066 0)
(-0.0644236 0.142764 -9.96089e-20)
(-0.0660932 0.152193 3.33319e-20)
(-0.0673172 0.161329 -6.70216e-20)
(-0.068102 0.170146 0)
(-0.0684536 0.178616 0)
(-0.0683779 0.186711 6.54631e-23)
(-0.0678804 0.194403 -6.76048e-20)
(-0.066967 0.201664 6.76936e-20)
(-0.0656434 0.208468 -6.77469e-20)
(-0.0639151 0.214789 6.76016e-20)
(-0.0617877 0.220607 6.19335e-23)
(-0.059267 0.225901 6.75012e-23)
(-0.0563592 0.230656 6.72973e-20)
(-0.0530704 0.234861 -6.70185e-20)
(-0.0494073 0.23851 0)
(-0.0453772 0.241603 -6.65719e-20)
(-0.040989 0.244148 6.62546e-20)
(-0.0362535 0.246161 0)
(-0.0311851 0.247672 6.56783e-20)
(-0.0258029 0.248724 -6.51304e-20)
(-0.0201335 0.249383 6.47665e-20)
(-0.0142185 0.24974 0)
(-0.00812637 0.249917 1.92072e-19)
(-0.00193131 0.250094 -1.27161e-19)
(0.00430658 0.250583 0)
(0.0101592 0.251719 7.18092e-20)
(-0.00160627 0.00300966 1.02031e-19)
(-0.00602037 0.0103921 -5.55786e-20)
(-0.01166 0.019172 -1.42261e-20)
(-0.0176974 0.0288006 1.45311e-20)
(-0.0237996 0.0389147 5.92878e-20)
(-0.0297341 0.0493153 0)
(-0.0353595 0.0598617 6.13016e-20)
(-0.0405873 0.070451 9.32202e-20)
(-0.0453665 0.0810074 3.14701e-20)
(-0.0496698 0.0914749 3.18373e-20)
(-0.053485 0.101812 3.21636e-20)
(-0.0568095 0.111985 -9.75008e-20)
(-0.0596462 0.121967 3.27241e-20)
(-0.0620003 0.131735 1.31955e-19)
(-0.0638787 0.141266 3.31588e-20)
(-0.065289 0.150534 3.33327e-20)
(-0.0662385 0.159517 6.70214e-20)
(-0.0667341 0.168189 0)
(-0.0667827 0.176523 0)
(-0.0663907 0.184492 1.35198e-19)