0.362837 	0.362837 	0.5 	0.531178
0.380512 	0.380512 	0.5 	0.540858
0.398188 	0.398188 	0.5 	0.546475
0.415863 	0.415863 	0.5 	0.552586
0.433538 	0.433538 	0.5 	0.55845
0.451213 	0.451213 	0.5 	0.564223
0.468888 	0.468888 	0.5 	0.569927
0.486563 	0.486563 	0.5 	0.575547
0.504238 	0.504238 	0.5 	0.581058
0.521913 	0.521913 	0.5 	0.586427
0.539588 	0.539588 	0.5 	0.591619
0.557263 	0.557263 	0.5 	0.596599
0.574938 	0.574938 	0.5 	0.601334
0.592613 	0.592613 	0.5 	0.605799
0.610288 	0.610288 	0.5 	0.609978
0.627963 	0.627963 	0.5 	0.613863
0.645638 	0.645638 	0.5 	0.617452
0.663313 	0.663313 	0.5 	0.620749
0.680988 	0.680988 	0.5 	0.62376
0.698663 	0.698663 	0.5 	0.626497
0.716338 	0.716338 	0.5 	0.628975
0.734013 	0.734013 	0.5 	0.63121
0.751688 	0.751688 	0.5 	0.633218
0.769363 	0.769363 	0.5 	0.635019
0.787038 	0.787038 	0.5 	0.636628
0.804713 	0.804713 	0.5 	0.638065
0.822388 	0.822388 	0.5 	0.639346
0.840063 	0.840063 	0.5 	0.640485
0.857738 	0.857738 	0.5 	0.641499
0.875413 	0.875413 	0.5 	0.642402
0.893088 	0.893088 	0.5 	0.64321
0.910763 	0.910763 	0.5 	0.643937
0.928438 	0.928438 	0.5 	0.644601
0.946113 	0.946113 	0.5 	0.645221
0.963788 	0.963788 	0.5 	0.645829
0.981463 	0.981463 	0.5 	0.646456
0.999138 	0.999138 	0.5 	0.64716
1.01681 	1.01681 	0.5 	0.648234
1.03449 	1.03449 	0.5 	0.650342
1.05216 	1.05216 	0.5 	0.652035
1.061 	1.061 	0.5 	0.640501
1.12274 	1.12274 	0.5 	0.651171
1.20948 	1.20948 	0.5 	0.642667
1.27121 	1.27121 	0.5 	0.644674
1.35795 	1.35795 	0.5 	0.637702
1.41969 	1.41969 	0.5 	0.640356
1.49316 	1.49316 	0.5 	0.633223
1.56816 	1.56816 	0.5 	0.625466
1.6299 	1.6299 	0.5 	0.62879
1.71664 	1.71664 	0.5 	0.62039
