0.362837 	0.362837 	0.5 	0.00581071 	-0.00531742 	-2.22414e-23
0.380512 	0.380512 	0.5 	0.0233329 	-0.0181565 	3.07073e-20
0.398188 	0.398188 	0.5 	0.0456333 	-0.0307161 	-1.57496e-20
0.415863 	0.415863 	0.5 	0.071323 	-0.043905 	1.29416e-19
0.433538 	0.433538 	0.5 	0.0995501 	-0.0574673 	0
0.451213 	0.451213 	0.5 	0.129267 	-0.0710987 	1.01127e-19
0.468888 	0.468888 	0.5 	0.15953 	-0.0844334 	1.71267e-19
0.486563 	0.486563 	0.5 	0.189519 	-0.0971172 	1.04441e-19
0.504238 	0.504238 	0.5 	0.218549 	-0.108838 	-7.06909e-20
0.521913 	0.521913 	0.5 	0.246074 	-0.119335 	-1.78385e-19
0.539588 	0.539588 	0.5 	0.271685 	-0.128408 	0
0.557263 	0.557263 	0.5 	0.295103 	-0.135927 	1.45621e-19
0.574938 	0.574938 	0.5 	0.316164 	-0.141828 	7.32763e-20
0.592613 	0.592613 	0.5 	0.334808 	-0.146109 	3.07702e-22
0.610288 	0.610288 	0.5 	0.351059 	-0.148818 	-7.49705e-23
0.627963 	0.627963 	0.5 	0.365012 	-0.150048 	2.98348e-19
0.645638 	0.645638 	0.5 	0.376813 	-0.149921 	-7.4758e-20
0.663313 	0.663313 	0.5 	0.386646 	-0.148581 	2.25371e-19
0.680988 	0.680988 	0.5 	0.394716 	-0.146184 	-7.51361e-20
0.698663 	0.698663 	0.5 	0.401234 	-0.142889 	2.26144e-19
0.716338 	0.716338 	0.5 	0.406413 	-0.138853 	-1.50629e-19
0.734013 	0.734013 	0.5 	0.410456 	-0.134223 	2.26241e-19
0.751688 	0.751688 	0.5 	0.413555 	-0.129132 	7.52867e-20
0.769363 	0.769363 	0.5 	0.415881 	-0.123702 	-2.25831e-19
0.787038 	0.787038 	0.5 	0.417588 	-0.118036 	0
0.804713 	0.804713 	0.5 	0.418809 	-0.112223 	-1.50072e-19
0.822388 	0.822388 	0.5 	0.419657 	-0.106335 	0
0.840063 	0.840063 	0.5 	0.420228 	-0.100432 	-1.49199e-19
0.857738 	0.857738 	0.5 	0.420603 	-0.0945614 	0
0.875413 	0.875413 	0.5 	0.420845 	-0.0887595 	1.48107e-19
0.893088 	0.893088 	0.5 	0.42101 	-0.0830528 	0
0.910763 	0.910763 	0.5 	0.421138 	-0.0774629 	1.46833e-19
0.928438 	0.928438 	0.5 	0.421265 	-0.0720039 	-1.46137e-19
0.946113 	0.946113 	0.5 	0.421421 	-0.0666828 	0
0.963788 	0.963788 	0.5 	0.421629 	-0.0615046 	-1.44658e-19
0.981463 	0.981463 	0.5 	0.421901 	-0.0564737 	1.43888e-19
0.999138 	0.999138 	0.5 	0.422239 	-0.0515971 	0
1.01681 	1.01681 	0.5 	0.422676 	-0.0468226 	0
1.03449 	1.03449 	0.5 	0.42307 	-0.0420394 	-1.41575e-19
1.05216 	1.05216 	0.5 	0.423665 	-0.0371726 	1.64407e-19
1.061 	1.061 	0.5 	0.419474 	-0.0229553 	-0.00439945
1.12274 	1.12274 	0.5 	0.430079 	-0.0200003 	-0.00838468
1.19698 	1.19698 	0.5 	0.440148 	-0.00486026 	-0.00837503
1.25871 	1.25871 	0.5 	0.42711 	0.0128309 	-0.00883531
1.33295 	1.33295 	0.5 	0.438865 	0.019787 	-0.008657
1.39469 	1.39469 	0.5 	0.42927 	0.0351205 	-0.00886422
1.46893 	1.46893 	0.5 	0.441709 	0.0409371 	-0.00867831
1.53066 	1.53066 	0.5 	0.433116 	0.0555695 	-0.00883733
1.6049 	1.6049 	0.5 	0.445726 	0.0609471 	-0.00864478
1.66664 	1.66664 	0.5 	0.437919 	0.0754921 	-0.00875689
