/*--------------------------------*- C++ -*----------------------------------*\
  =========                 |
  \\      /  F ield         | OpenFOAM: The Open Source CFD Toolbox
   \\    /   O peration     | Website:  https://openfoam.org
    \\  /    A nd           | Version:  7
     \\/     M anipulation  |
\*---------------------------------------------------------------------------*/
FoamFile
{
    version     2.0;
    format      ascii;
    class       surfaceScalarField;
    location    "35";
    object      phi;
}
// * * * * * * * * * * * * * * * * * * * * * * * * * * * * * * * * * * * * * //

dimensions      [0 3 -1 0 0 0 0];

internalField   nonuniform List<scalar> 
3880
(
0.000172766
-0.00240388
0.00223111
0.000539387
-0.00436616
0.00399954
0.00104039
-0.00454334
0.00404234
0.00163819
-0.00346485
0.00286704
0.00229601
-0.0015165
0.000858677
0.00297568
0.0010042
-0.00168387
0.00364381
0.00386211
-0.00453023
0.00427764
0.00687202
-0.00750585
0.0048669
0.00988713
-0.0104764
0.0127792
0.00540837
-0.0133207
0.000143986
-0.00254786
0.000464142
-0.00468632
0.000920903
-0.0050001
0.00149285
-0.0040368
0.00215417
-0.00217782
0.00287112
0.000287256
0.00360839
0.00312484
0.00433672
0.00614369
0.00503687
0.00918698
0.0121201
0.005696
0.000114727
-0.00266259
0.00038919
-0.00496078
0.000803226
-0.00541414
0.001352
-0.00458558
0.00202285
-0.00284866
0.0027892
-0.000479099
0.00361561
0.00229843
0.00446599
0.00529331
0.00531035
0.00834262
0.011306
0.00612451
8.69708e-05
-0.00274956
0.000319144
-0.00519295
0.00069315
-0.00578815
0.00121954
-0.00511197
0.0019004
-0.00352952
0.00272024
-0.00129894
0.00364711
0.00137157
0.00464039
0.00430004
0.0056587
0.0073243
0.0103006
0.00666402
6.32952e-05
-0.00281286
0.000260075
-0.00538973
0.000599033
-0.0061271
0.00110297
-0.00561591
0.0017889
-0.00421545
0.00265611
-0.00216615
0.00368239
0.000345288
0.00482795
0.00315448
0.00604227
0.00610998
0.00907173
0.00727117
4.66817e-05
-0.00285954
0.000219212
-0.00556226
0.000531892
-0.00643978
0.00101457
-0.00609859
0.001697
-0.00489788
0.00259568
-0.00306483
0.00370509
-0.000764121
0.00499546
0.00186411
0.00641421
0.00469122
0.00759515
0.0078908
4.01426e-05
-0.00289968
0.000204153
-0.00572627
0.000504421
-0.00674005
0.000971065
-0.00656523
0.00164171
-0.00556853
0.00254929
-0.0039724
0.0037105
-0.00192533
0.00511696
0.000457647
0.00672811
0.00308007
0.00586049
0.00846277
4.6221e-05
-0.0029459
0.000221461
-0.00590151
0.000528598
-0.00704719
0.000990799
-0.00702743
0.0016464
-0.00622413
0.00253975
-0.00486576
0.00371046
-0.00309604
0.00518189
-0.00101378
0.006947
0.00131496
0.00387457
0.00893292
6.64955e-05
-0.0030124
0.000274862
-0.00610988
0.000612097
-0.00738442
0.00108813
-0.00750347
0.00173385
-0.00686985
0.00259566
-0.00572757
0.00372888
-0.00422926
0.00519101
-0.0024759
0.00703563
-0.000529662
0.00167071
0.00923949
0.000100918
-0.00311331
0.000363441
-0.0063724
0.000754443
-0.00777543
0.00126679
-0.00801581
0.00191686
-0.00751992
0.00274025
-0.00655096
0.00378821
-0.00527722
0.00512903
-0.00381672
0.00687009
-0.00227072
0.00922214
-0.000681346
0.00549568
0.0668694
-0.0669567
0.00474628
0.0983086
-0.0975592
0.00354766
0.125332
-0.124133
0.00234765
0.149926
-0.148726
0.00151022
0.172889
-0.172052
0.00115012
0.196115
-0.195755
0.00120568
0.222676
-0.222732
0.0010676
0.256397
-0.256259
0.000620087
0.303366
-0.302918
0.354127
-0.353507
0.00616885
0.0663966
0.00572179
0.0987557
0.00476349
0.12629
0.00374711
0.150942
0.00300556
0.173631
0.00268235
0.196438
0.0026082
0.22275
0.00226264
0.256743
0.00132433
0.304304
0.355452
0.00697633
0.0655447
0.00684691
0.0988851
0.00611889
0.127018
0.00524944
0.151812
0.00457239
0.174308
0.00422528
0.196785
0.00403413
0.222941
0.00344789
0.257329
0.00204548
0.305706
0.357497
0.0079049
0.0643038
0.00809683
0.0986932
0.00758712
0.127528
0.00682786
0.152571
0.00617454
0.174961
0.00577036
0.197189
0.00544664
0.223265
0.00461505
0.258161
0.00275797
0.307564
0.360255
0.00892251
0.0626525
0.00943935
0.0981763
0.00913449
0.127833
0.00845584
0.15325
0.00779048
0.175626
0.00730623
0.197674
0.00683796
0.223733
0.00577264
0.259226
0.00346734
0.309869
0.363722
0.0099839
0.0605594
0.0108326
0.0973277
0.0107184
0.127947
0.0100928
0.153875
0.00938171
0.176337
0.00878947
0.198266
0.00816241
0.224361
0.00687465
0.260514
0.00414205
0.312601
0.367864
0.0110361
0.057986
0.0122409
0.0961229
0.0123228
0.127865
0.0117363
0.154462
0.0109568
0.177117
0.0102382
0.198984
0.00945431
0.225144
0.00795756
0.26201
0.00480927
0.31575
0.372674
0.0120128
0.0549061
0.0135906
0.0945452
0.013863
0.127593
0.0132982
0.155027
0.0124255
0.17799
0.0115531
0.199857
0.0106027
0.226095
0.00892215
0.263691
0.0054106
0.319261
0.378084
0.0128728
0.0512728
0.0149228
0.0924952
0.0154314
0.127084
0.0148956
0.155562
0.0139192
0.178966
0.012885
0.200891
0.0117737
0.227206
0.00989964
0.265565
0.00601656
0.323144
0.384101
0.0134084
0.0470865
0.0158718
0.0900317
0.0166406
0.126315
0.016165
0.156038
0.0151234
0.180008
0.0138921
0.202122
0.0126783
0.22842
0.0106279
0.267615
0.00656699
0.327205
0.390668
0.000881218
0.0609451
-0.0147398
-0.0101443
0.101057
-0.0171866
0.133358
-0.0199508
0.158802
-0.0189607
0.179017
-0.0152781
0.19844
-0.0103051
0.223447
-0.00609616
0.263406
-0.00311487
0.324224
0.387553
7.15007e-05
0.0729372
-0.0120636
-0.00960187
0.110731
-0.0162841
0.14004
-0.0193475
0.161865
-0.0189074
0.178577
-0.0157697
0.195302
-0.0111987
0.218876
-0.00698087
0.259189
-0.00365374
0.320897
0.383899
8.16371e-05
0.0827656
-0.00991001
-0.00814639
0.118959
-0.0138165
0.14571
-0.0164788
0.164528
-0.0164384
0.178537
-0.0141463
0.19301
-0.010448
0.215178
-0.0068561
0.255597
-0.00368641
0.317727
0.380213
0.000731915
0.0896767
-0.00764305
-0.00581108
0.125502
-0.0111189
0.151018
-0.0140553
0.167464
-0.0146618
0.179143
-0.0132247
0.191573
-0.0102666
0.21222
-0.00685115
0.252181
-0.00362148
0.314497
0.376591
0.00130158
0.0938274
-0.00545223
-0.00282734
0.129631
-0.00702715
0.155218
-0.0100527
0.17049
-0.0115011
0.180592
-0.0112821
0.191354
-0.00959764
0.210535
-0.00705493
0.249638
-0.00403695
0.311479
0.372554
0.00189978
0.0959056
-0.00397801
-0.00087258
0.132403
-0.004492
0.158837
-0.00746458
0.173462
-0.00923884
0.182366
-0.00960341
0.191718
-0.00854396
0.209476
-0.00635245
0.247447
-0.0035939
0.308721
0.36896
0.00319478
0.0959745
-0.00326365
0.00237892
0.133219
-0.000397884
0.161614
-0.00378219
0.176847
-0.00659602
0.18518
-0.00823611
0.193359
-0.00833705
0.209577
-0.00681024
0.24592
-0.00396404
0.305875
0.364996
0.00377955
0.0955456
-0.00335067
0.00348775
0.133511
0.00150165
0.1636
-0.00141261
0.179761
-0.00410661
0.187874
-0.00599341
0.195245
-0.00668264
0.210266
-0.00584823
0.245086
-0.00359472
0.303621
0.361402
0.00616545
0.094044
-0.00466385
0.00658646
0.13309
0.00464498
0.165541
0.00120835
0.183198
-0.00239272
0.191475
-0.00519557
0.198048
-0.00662705
0.211697
-0.00613973
0.244598
-0.00377518
0.301257
0.357626
0.0059488
-0.0042468
0.00709313
0.00634195
0.00378917
0.000579467
-0.00238343
-0.00440635
-0.00496122
-0.00331679
0.0114683
-0.0184279
-0.00778022
0.0143174
-0.0149127
0.0164846
-0.0120771
0.0180419
-0.0092004
0.0191154
-0.00652573
0.0197232
-0.00458578
0.0199809
-0.00352131
0.0200286
-0.00339841
0.0197739
-0.00440911
-0.00406794
0.0110368
-0.0216999
-0.00776475
0.0135997
-0.0174756
0.0155059
-0.0139833
0.0168323
-0.0105268
0.017695
-0.00738843
0.0181101
-0.00500085
0.0181933
-0.00360459
0.0180563
-0.00326139
0.0176329
-0.00398565
-0.00375405
0.0108371
-0.0244337
-0.00810332
0.0129124
-0.019551
0.0144383
-0.0155092
0.0154543
-0.0115428
0.0160558
-0.00798997
0.0162638
-0.00520882
0.0161811
-0.00352192
0.0158972
-0.00297747
0.0153732
-0.00346161
-0.0033425
0.0104485
-0.0265642
-0.00831803
0.0119829
-0.0210854
0.0130866
-0.0166128
0.0137667
-0.012223
0.0141038
-0.00832703
0.0141236
-0.00522866
0.0139098
-0.00330811
0.0135312
-0.00259883
0.0129639
-0.00289432
-0.00287773
0.00955039
-0.0280852
-0.0080294
0.0105638
-0.0220988
0.0112745
-0.0173235
0.0116564
-0.0126049
0.011776
-0.00844668
0.0116604
-0.00511302
0.0113707
-0.0030184
0.010957
-0.00218512
0.0103986
-0.00233589
-0.00239842
0.00796337
-0.0290299
-0.00701861
0.00852718
-0.0226626
0.00892165
-0.0177179
0.00908291
-0.0127662
0.00906295
-0.00842673
0.00888414
-0.0049342
0.00858371
-0.00271797
0.00819407
-0.00179548
0.00768819
-0.00183001
-0.0019372
0.00568463
-0.0294622
-0.00525235
0.00589809
-0.0228761
0.00607069
-0.0178906
0.00609906
-0.0127946
0.00602184
-0.00834951
0.00585167
-0.00476403
0.00560106
-0.00246736
0.00528483
-0.00147925
0.00486423
-0.00140941
-0.00152056
0.00285475
-0.0294611
-0.00285589
0.00282031
-0.0228416
0.00285708
-0.0179273
0.00282844
-0.0127659
0.0027625
-0.00828357
0.00265785
-0.00465938
0.00250161
-0.00231112
0.00229175
-0.00126938
0.00197452
-0.00109218
-0.00117215
-0.000288342
-0.0291476
-2.51254e-05
-0.000497029
-0.0226329
-0.000549726
-0.0178746
-0.000560107
-0.0127555
-0.000577505
-0.00826617
-0.000575806
-0.00466108
-0.000618923
-0.002268
-0.000707513
-0.00118079
-0.00092009
-0.000879608
-0.000914358
-0.00355268
-0.0285448
0.00294984
-0.00385042
-0.0223352
-0.00391838
-0.0178067
-0.00392201
-0.0127519
-0.00385903
-0.00832915
-0.00375042
-0.00476968
-0.00366729
-0.00235114
-0.00363828
-0.0012098
-0.00373061
-0.000787272
-0.000741003
-0.00669235
-0.0277749
0.00592255
-0.00704751
-0.02198
-0.00713392
-0.0177203
-0.00709428
-0.0127915
-0.00695653
-0.0084669
-0.00674365
-0.00498256
-0.00655325
-0.00254155
-0.00642265
-0.0013404
-0.0064192
-0.000790721
-0.000657824
-0.00958207
-0.0269135
0.00872062
-0.00995846
-0.0216036
-0.0100605
-0.0176183
-0.00997427
-0.0128777
-0.00977646
-0.00866471
-0.00948149
-0.00527753
-0.00921154
-0.0028115
-0.0090062
-0.00154574
-0.00892938
-0.000867538
-0.000650605
-0.0121264
-0.0260228
0.0112357
-0.0124985
-0.0212315
-0.0126205
-0.0174963
-0.0124947
-0.0130035
-0.0122615
-0.0088979
-0.0119166
-0.00562246
-0.0116025
-0.00312558
-0.0113552
-0.001793
-0.0112323
-0.000990504
-0.000696548
-0.0142831
-0.025147
0.0134073
-0.0146326
-0.020882
-0.0147812
-0.0173478
-0.0146314
-0.0131533
-0.0143909
-0.00913842
-0.0140333
-0.00598006
-0.0137125
-0.00344636
-0.0134582
-0.00204731
-0.0133184
-0.00113033
-0.000767964
-0.0160503
-0.0243065
0.0152099
-0.0163634
-0.020569
-0.0165454
-0.0171657
-0.016394
-0.0133046
-0.0161734
-0.0093591
-0.0158414
-0.00631207
-0.0155488
-0.00373892
-0.0153212
-0.00227495
-0.0151935
-0.00125796
-0.000834807
-0.0174529
-0.0234929
0.0166393
-0.0177201
-0.0203018
-0.0179391
-0.0169467
-0.0178133
-0.0134304
-0.017636
-0.0095364
-0.0173655
-0.00658259
-0.0171314
-0.003973
-0.0169613
-0.00244504
-0.0168737
-0.00134556
-0.000866341
-0.0185243
-0.0226676
0.017699
-0.018746
-0.0200801
-0.0189983
-0.0166944
-0.0189289
-0.0134998
-0.0188139
-0.00965138
-0.0186365
-0.00675996
-0.0184864
-0.00412308
-0.0184017
-0.00252973
-0.0183809
-0.00136644
-0.000832028
-0.0192764
-0.0217849
0.0183937
-0.0194787
-0.0198779
-0.0197563
-0.0164167
-0.0197781
-0.0134781
-0.0197419
-0.00968751
-0.0196848
-0.00681705
-0.0196408
-0.00416706
-0.019667
-0.0025036
-0.019739
-0.00129437
-0.000701829
-0.0197033
-0.0208186
0.018737
-0.0199537
-0.0196275
-0.0202461
-0.0161243
-0.0203919
-0.0133323
-0.0204498
-0.00962963
-0.0205354
-0.0067314
-0.0206185
-0.004084
-0.0207802
-0.0023419
-0.0209722
-0.00110238
-0.000445981
-0.0198169
-0.0198123
0.0188106
-0.0202003
-0.0192442
-0.0204686
-0.015856
-0.0207542
-0.0130467
-0.020931
-0.00945284
-0.0211848
-0.00647756
-0.0214281
-0.00384076
-0.0217553
-0.00201471
-0.0221058
-0.000751798
-3.76746e-05
-0.0830432
-0.0185056
0.0817364
-0.0865003
-0.015787
-0.0889681
-0.0133882
-0.0914096
-0.0106053
-0.0929195
-0.00794291
-0.0939824
-0.00541464
-0.0943868
-0.00343635
-0.0945399
-0.00186168
-0.0945077
-0.000783916
-5.85201e-05
-0.102711
-0.01669
0.100896
-0.105185
-0.0133131
-0.107071
-0.011502
-0.109005
-0.00867127
-0.110236
-0.0067124
-0.111128
-0.0045228
-0.111502
-0.00306147
-0.111671
-0.00169317
-0.111657
-0.000797839
-7.45498e-05
-0.122331
-0.0148057
0.120447
-0.124262
-0.0113821
-0.125944
-0.00981977
-0.12743
-0.0071859
-0.128417
-0.00572504
-0.129116
-0.00382407
-0.129421
-0.00275607
-0.129564
-0.00155076
-0.129545
-0.000816349
-7.92531e-05
-0.14344
-0.0130819
0.141716
-0.145073
-0.00974895
-0.146512
-0.00838024
-0.14768
-0.00601847
-0.148507
-0.0048982
-0.149079
-0.00325155
-0.149348
-0.00248733
-0.149483
-0.00141555
-0.14947
-0.000829148
-7.76276e-05
-0.168002
-0.0113057
0.166226
-0.169435
-0.00831568
-0.170709
-0.00710623
-0.171702
-0.00502619
-0.172453
-0.00414735
-0.172964
-0.00274047
-0.173254
-0.00219739
-0.173424
-0.00124479
-0.173456
-0.000797805
-5.45049e-05
-0.197892
-0.00942985
0.196016
-0.199276
-0.0069316
-0.200564
-0.00581815
-0.201544
-0.00404588
-0.202307
-0.00338446
-0.202844
-0.00220307
-0.203243
-0.00179895
-0.203536
-0.000951597
-0.2037
-0.000633998
1.22698e-05
-0.233171
-0.00715207
0.230893
-0.235075
-0.00502732
-0.236626
-0.00426722
-0.237661
-0.00301093
-0.238481
-0.00256469
-0.239118
-0.00156622
-0.239679
-0.00123807
-0.240156
-0.000473937
-0.240495
-0.000295596
9.64909e-05
-0.272463
-0.00511476
0.270426
-0.273565
-0.00392546
-0.274644
-0.0031881
-0.275631
-0.00202389
-0.27657
-0.00162558
-0.277293
-0.000843463
-0.277952
-0.000579254
-0.278435
9.42093e-06
-0.278778
4.6896e-05
0.00017066
-0.300111
-0.00244985
0.297446
-0.302777
-0.00125992
-0.304906
-0.00105892
-0.306196
-0.00073356
-0.307188
-0.000634002
-0.307703
-0.000328468
-0.308124
-0.000158032
-0.308257
0.000142305
-0.308351
0.000141369
0.000112917
-0.31958
0.31713
-0.32084
-0.321899
-0.322633
-0.323267
-0.323595
-0.323753
-0.323611
-0.323469
-0.0218416
0.0837466
0.0198314
-0.0229062
0.10196
-0.0232999
0.12084
-0.0231112
0.141527
-0.0223908
0.165505
-0.0208838
0.194509
-0.0184547
0.228464
-0.0123762
0.264347
-0.00775313
0.292823
0.309377
-0.020813
0.0850467
0.019513
-0.0216749
0.102822
-0.0218971
0.121063
-0.0215547
0.141185
-0.0206977
0.164648
-0.0191248
0.192936
-0.0165489
0.225888
-0.0121215
0.25992
-0.00678863
0.28749
0.302589
-0.01987
0.0860871
0.0188295
-0.0205332
0.103485
-0.0206094
0.121139
-0.0201893
0.140765
-0.0193017
0.163761
-0.0177681
0.191402
-0.0152445
0.223365
-0.0112672
0.255943
-0.00614081
0.282364
0.296448
-0.0187774
0.0869837
0.0178809
-0.0192528
0.103961
-0.0191736
0.12106
-0.0186654
0.140256
-0.0177466
0.162842
-0.0162518
0.189908
-0.0138456
0.220959
-0.0102516
0.252349
-0.00547094
0.277583
0.290977
-0.0175195
0.0877651
0.0167381
-0.0178392
0.10428
-0.0176305
0.120851
-0.0170463
0.139672
-0.0161033
0.161899
-0.0146517
0.188456
-0.0124004
0.218707
-0.00914042
0.249089
-0.00483108
0.273274
0.286146
-0.0161066
0.0884209
0.0154508
-0.0162775
0.104451
-0.0159617
0.120535
-0.015322
0.139033
-0.014372
0.160949
-0.0129814
0.187065
-0.0109119
0.216638
-0.00798398
0.246161
-0.00420992
0.2695
0.281936
-0.0145729
0.088937
0.0140568
-0.0145926
0.104471
-0.0141773
0.12012
-0.0134933
0.138349
-0.0125507
0.160006
-0.0112416
0.185756
-0.00937634
0.214772
-0.00680566
0.24359
-0.00358381
0.266278
0.278352
-0.0129524
0.0892994
0.01259
-0.0128242
0.104343
-0.012312
0.119608
-0.0115872
0.137624
-0.0106592
0.159078
-0.00944625
0.184543
-0.00780268
0.213129
-0.00561507
0.241402
-0.00294687
0.26361
0.275405
-0.0112767
0.0894912
0.0110848
-0.0110088
0.104075
-0.0104019
0.119001
-0.00963855
0.13686
-0.00872815
0.158168
-0.0076199
0.183435
-0.00620873
0.211718
-0.00441866
0.239612
-0.00230281
0.261494
0.273102
-0.00957682
0.0894906
0.00957743
-0.00918101
0.103679
-0.00847803
0.118298
-0.00767932
0.136062
-0.00678674
0.157276
-0.00578885
0.182437
-0.00461573
0.210545
-0.00322763
0.238224
-0.00166068
0.259927
0.271442
-0.00788979
0.0892683
0.00811207
-0.00738246
0.103172
-0.00657518
0.117491
-0.00574437
0.135231
-0.00486626
0.156397
-0.00397928
0.18155
-0.0030432
0.209608
-0.00205402
0.237235
-0.00102764
0.2589
0.270414
-0.00626852
0.0888232
0.00671361
-0.00564925
0.102552
-0.00474073
0.116582
-0.003875
0.134365
-0.00300904
0.155531
-0.00222401
0.180765
-0.0015126
0.208897
-0.000908544
0.236631
-0.000410122
0.258402
0.270004
-0.004766
0.0881713
0.00541796
-0.00402428
0.101811
-0.00302674
0.115585
-0.00212081
0.133459
-0.00127024
0.154681
-0.000581344
0.180076
-9.61109e-05
0.208412
0.000169051
0.236366
0.000173209
0.258398
0.270177
-0.00341348
0.0873406
0.00424413
-0.00253176
0.100929
-0.00147362
0.114526
-0.000530517
0.132516
0.000320213
0.15383
0.000999963
0.179396
0.00132491
0.208087
0.00122947
0.236461
0.000741231
0.258886
0.270918
-0.00223119
0.0863725
0.00319933
-0.00119122
0.0998889
-0.000145241
0.11348
0.000997
0.131374
0.00191434
0.152913
0.00250718
0.178803
0.00264764
0.207946
0.00222886
0.23688
0.00128154
0.259833
0.2722
-0.00122881
0.0853226
0.00227868
-6.54826e-05
0.0987256
0.00122745
0.112188
0.00239198
0.130209
0.00331528
0.15199
0.00385927
0.178259
0.00384483
0.207961
0.00313655
0.237588
0.00177035
0.2612
0.27397
-0.000409722
0.0842717
0.00146062
0.00108146
0.0972344
0.00239934
0.11087
0.00362201
0.128987
0.00457693
0.151035
0.00509948
0.177737
0.00496286
0.208097
0.00399466
0.238557
0.00223786
0.262956
0.276208
0.000297695
0.0832618
0.000712258
0.00198415
0.095548
0.00334396
0.10951
0.00461967
0.127711
0.0056034
0.150051
0.00611443
0.177226
0.00588713
0.208325
0.00471058
0.239733
0.00262332
0.265044
0.278831
0.00111359
0.0821976
-4.94532e-05
0.00284559
0.093816
0.00425048
0.108105
0.00557471
0.126387
0.00659555
0.14903
0.00710752
0.176714
0.00679922
0.208633
0.00542
0.241112
0.00301264
0.267451
0.281844
0.00137316
0.0815481
-0.000723629
0.00317888
0.0920103
0.00463295
0.106651
0.00598595
0.125034
0.007039
0.147977
0.00757993
0.176173
0.00726637
0.208947
0.00580469
0.242574
0.0032113
0.270044
0.285055
-0.0720215
0.0728668
0.0807027
-0.0635917
0.0835805
-0.0573993
0.100458
-0.050948
0.118582
-0.0445191
0.141548
-0.0377114
0.169365
-0.0299881
0.201223
-0.020964
0.23355
-0.0107291
0.25981
0.274326
-0.0841992
0.0655423
0.0915238
-0.0766632
0.0760445
-0.0696875
0.0934827
-0.0621448
0.11104
-0.0548531
0.134256
-0.0468219
0.161334
-0.0374972
0.191899
-0.0264862
0.222539
-0.0139222
0.247246
0.260404
-0.0978428
0.0581902
0.105195
-0.0903258
0.0685275
-0.0827244
0.0858814
-0.0745915
0.102907
-0.0662878
0.125953
-0.0565162
0.151562
-0.0451488
0.180531
-0.0316522
0.209042
-0.0161085
0.231702
0.244296
-0.114544
0.0513032
0.121431
-0.107054
0.0610369
-0.0992156
0.0780432
-0.0904684
0.0941597
-0.0808557
0.11634
-0.0691575
0.139864
-0.0554698
0.166844
-0.0390947
0.192667
-0.0205375
0.213145
0.223758
-0.134394
0.0439967
0.141701
-0.127037
0.0536801
-0.118446
0.0694513
-0.10839
0.0841037
-0.0966945
0.104645
-0.0823461
0.125516
-0.0655652
0.150063
-0.0455064
0.172608
-0.0229197
0.190558
0.200838
-0.16021
0.0374555
0.166751
-0.152321
0.0457916
-0.142599
0.0597293
-0.130948
0.0724531
-0.116928
0.0906246
-0.0998024
0.10839
-0.079479
0.129739
-0.0553451
0.148474
-0.0291354
0.164348
0.171703
-0.189066
0.0295998
0.196922
-0.180247
0.0369724
-0.16862
0.0481023
-0.154556
0.058389
-0.137224
0.073293
-0.115973
0.0871385
-0.0903363
0.104103
-0.0608083
0.118946
-0.0297303
0.13327
0.141973
-0.224459
0.0216233
0.232436
-0.213899
0.026412
-0.200375
0.034579
-0.183762
0.041776
-0.162949
0.05248
-0.137527
0.0617166
-0.107346
0.0739217
-0.0738157
0.085416
-0.039121
0.0985755
0.102852
-0.253205
0.0104553
0.264373
-0.239802
0.0130095
-0.222583
0.0173593
-0.201772
0.0209651
-0.175813
0.0265206
-0.14523
0.0311341
-0.10926
0.0379512
-0.0678191
0.0439755
-0.0233819
0.0541384
0.0794699
-0.324524
0.334979
-0.311514
-0.294155
-0.27319
-0.246669
-0.215535
-0.177584
-0.133608
-0.0794699
-0.00175196
0.0828147
-0.000360005
-0.00352202
0.0932938
-0.00492881
0.106602
-0.0060039
0.122506
-0.00669126
0.142388
-0.00693874
0.166998
-0.00648644
0.19647
-0.00520395
0.231153
-0.00391433
0.263083
0.331065
-0.00117433
0.0851484
-0.00115932
-0.0031422
0.0952617
-0.00467437
0.108134
-0.00579468
0.123627
-0.00652662
0.14312
-0.00677803
0.16725
-0.00638757
0.196079
-0.00513055
0.229896
-0.00355509
0.261508
0.327509
-0.000397039
0.0874585
-0.00191309
-0.00236
0.0972247
-0.00392251
0.109696
-0.00506022
0.124764
-0.00582322
0.143883
-0.00609453
0.167521
-0.00580245
0.195787
-0.00464716
0.228741
-0.00325199
0.260113
0.324257
0.00037481
0.0897623
-0.00267859
-0.00156104
0.0991605
-0.00305701
0.111192
-0.00417251
0.12588
-0.00491962
0.14463
-0.0052338
0.167835
-0.00501276
0.195566
-0.00404276
0.227771
-0.00286768
0.258938
0.32139
0.00121747
0.0920262
-0.00348136
-0.000774369
0.101152
-0.00220106
0.112619
-0.00327437
0.126953
-0.00398825
0.145344
-0.00431973
0.168167
-0.00416339
0.19541
-0.00337941
0.226987
-0.00243909
0.257997
0.318951
0.00210612
0.0942314
-0.00431137
7.39023e-05
0.103185
-0.00126481
0.113958
-0.00230081
0.127989
-0.00298814
0.146031
-0.00333419
0.168513
-0.00326324
0.195339
-0.00265971
0.226383
-0.00197462
0.257312
0.316976
0.00305985
0.0963313
-0.00515972
0.00118483
0.10506
-0.0002335
0.115376
-0.00122174
0.128977
-0.00188402
0.146694
-0.00225137
0.16888
-0.00228304
0.19537
-0.00187382
0.225974
-0.00146947
0.256908
0.315507
0.00405857
0.0982888
-0.00601609
0.00229025
0.106828
0.000942947
0.116723
-7.58999e-05
0.129996
-0.000682321
0.1473
-0.00107934
0.169277
-0.00120047
0.195492
-0.00102509
0.225799
-0.000920898
0.256804
0.314586
0.00508289
0.100069
-0.00686271
0.00343043
0.10848
0.00214844
0.118005
0.00122837
0.130916
0.000597389
0.147931
0.000152551
0.169722
1.06525e-05
0.195633
-0.000142679
0.225952
-0.000326449
0.256988
0.314259
0.0061123
0.10163
-0.00767389
0.00459286
0.11
0.00337866
0.11922
0.00252145
0.131773
0.0019217
0.148531
0.00147808
0.170166
0.00114187
0.19597
0.000828113
0.226266
0.000274525
0.257541
0.314534
0.00713826
0.102902
-0.00841036
0.00575502
0.111383
0.00462079
0.120354
0.00382233
0.132572
0.00325784
0.149095
0.00278801
0.170635
0.00233907
0.196419
0.00178997
0.226815
0.000865602
0.258465
0.315399
0.00813971
0.10382
-0.0090574
0.00691762
0.112605
0.00586918
0.121402
0.00512844
0.133313
0.0045959
0.149628
0.0041054
0.171126
0.00354625
0.196978
0.00275825
0.227603
0.00147468
0.259749
0.316874
0.00907476
0.104334
-0.00958882
0.00804431
0.113636
0.00708942
0.122357
0.00640742
0.133995
0.0059085
0.150127
0.00540625
0.171628
0.00473963
0.197644
0.00372677
0.228616
0.00208682
0.261389
0.318961
0.00991539
0.104406
-0.00998759
0.00910645
0.114445
0.00825485
0.123209
0.00762989
0.13462
0.00716925
0.150587
0.00666107
0.172136
0.00589656
0.198409
0.00467455
0.229838
0.00268757
0.263376
0.321648
0.0106365
0.104012
-0.0102426
0.010084
0.114997
0.00934771
0.123945
0.00877538
0.135192
0.00835847
0.151004
0.00785288
0.172642
0.0070095
0.199252
0.00559511
0.231252
0.00327688
0.265694
0.324925
0.0112075
0.103159
-0.0103544
0.0109426
0.115262
0.0103301
0.124558
0.00980725
0.135715
0.00943529
0.151376
0.0089415
0.173136
0.00804122
0.200153
0.00645619
0.232837
0.0038349
0.268315
0.32876
0.0116324
0.101865
-0.0103386
0.0116983
0.115196
0.0112147
0.125041
0.0107384
0.136191
0.0104128
0.151702
0.00994361
0.173605
0.00900707
0.201089
0.00727372
0.234571
0.00437287
0.271216
0.333133
0.0118342
0.100252
-0.0102209
0.0122422
0.114788
0.0118978
0.125386
0.0114757
0.136613
0.0111978
0.15198
0.0107634
0.174039
0.00981876
0.202034
0.00798334
0.236406
0.00485262
0.274347
0.337986
0.0120634
0.0982631
-0.0100743
0.0128043
0.114047
0.0125815
0.125608
0.0121926
0.137002
0.0119465
0.152226
0.0115468
0.174439
0.0105973
0.202983
0.0086616
0.238342
0.0053091
0.2777
0.343295
0.0117461
0.0963765
-0.00985948
0.0128065
0.112987
0.01278
0.125635
0.0124495
0.137333
0.012252
0.152423
0.0119091
0.174782
0.0110396
0.203853
0.00908745
0.240294
0.00565196
0.281135
0.348947
-0.0449396
0.0910947
0.0502213
-0.0396073
0.107654
-0.0354171
0.121445
-0.0305428
0.132458
-0.0253655
0.147246
-0.0201806
0.169597
-0.0148186
0.198491
-0.00911851
0.234594
-0.00448179
0.276498
0.344465
-0.0683326
0.085819
0.0736084
-0.0624417
0.101763
-0.0552622
0.114265
-0.0467735
0.12397
-0.0390146
0.139487
-0.0311764
0.161759
-0.0230526
0.190367
-0.0146105
0.226152
-0.00708937
0.268977
0.337376
-0.0929344
0.0792856
0.0994678
-0.084076
0.092905
-0.0742454
0.104435
-0.0640827
0.113807
-0.0541969
0.129601
-0.0433066
0.150868
-0.0323081
0.179368
-0.0207447
0.214588
-0.00974141
0.257974
0.327634
-0.116781
0.0701314
0.125935
-0.104942
0.0810658
-0.0940169
0.0935096
-0.082729
0.102519
-0.0704515
0.117324
-0.056936
0.137353
-0.0429548
0.165387
-0.0277887
0.199422
-0.0128933
0.243079
0.314741
-0.142064
0.0579143
0.154281
-0.129347
0.0683488
-0.117154
0.0813164
-0.104081
0.0894466
-0.0899735
0.103216
-0.0741813
0.121561
-0.0563821
0.147588
-0.0366028
0.179643
-0.016618
0.223094
0.298123
-0.173204
0.0454988
0.18562
-0.159549
0.0546938
-0.144956
0.0667232
-0.129993
0.0744835
-0.113714
0.0869365
-0.0948192
0.102666
-0.0727078
0.125477
-0.0478456
0.154781
-0.0223141
0.197562
0.275809
-0.210057
0.0325777
0.222978
-0.196363
0.0409996
-0.180258
0.050619
-0.163379
0.0576047
-0.144175
0.0677324
-0.12169
0.0801805
-0.0949184
0.0987054
-0.0638715
0.123734
-0.0307435
0.164434
0.245065
-0.252456
0.0218564
0.263177
-0.238375
0.0269185
-0.221257
0.0335006
-0.202132
0.0384799
-0.179986
0.0455865
-0.153986
0.0541808
-0.122688
0.0674073
-0.0861928
0.0872384
-0.0453682
0.12361
0.199697
-0.306035
0.0100015
0.317889
-0.29159
0.0124737
-0.273654
0.0155644
-0.253418
0.0182438
-0.229792
0.0219611
-0.202344
0.026733
-0.169124
0.0341872
-0.128069
0.0461836
-0.0739146
0.0694548
0.125783
-0.370584
0.380586
-0.35811
-0.342546
-0.324302
-0.302341
-0.275608
-0.241421
-0.195237
-0.125783
0.00597184
0.0529607
-0.00871116
0.0022889
0.0772913
-0.000954971
0.102712
-0.00356175
0.128542
-0.00582136
0.156541
-0.00748882
0.187287
-0.00772746
0.223216
-0.00695989
0.26241
-0.00435081
0.31528
0.376235
0.005573
0.0556812
-0.00829356
0.00217018
0.0806942
-0.000949253
0.105831
-0.00374953
0.131342
-0.00611756
0.158909
-0.00770591
0.188876
-0.00789669
0.223407
-0.0069781
0.261491
-0.00438718
0.312689
0.371848
0.00533031
0.0581342
-0.00778329
0.00222229
0.0838022
-0.000759886
0.108813
-0.00355558
0.134138
-0.0058669
0.16122
-0.00729206
0.190301
-0.00740562
0.223521
-0.00640402
0.26049
-0.00413102
0.310416
0.367717
0.00507672
0.0603001
-0.00724262
0.00223828
0.0866406
-0.000584905
0.111636
-0.0032497
0.136803
-0.00539288
0.163363
-0.00666241
0.19157
-0.00667446
0.223533
-0.00571625
0.259531
-0.00373306
0.308433
0.363984
0.00481712
0.0621926
-0.00670962
0.00225076
0.089207
-0.000400459
0.114288
-0.00290571
0.139308
-0.00484827
0.165306
-0.00593375
0.192656
-0.00585129
0.22345
-0.0049705
0.258651
-0.00325853
0.306721
0.360725
0.00460909
0.0638007
-0.00621723
0.00233478
0.0914813
-0.000129051
0.116751
-0.00244786
0.141627
-0.00418934
0.167047
-0.00508983
0.193556
-0.00494788
0.223308
-0.00415567
0.257858
-0.00272548
0.305291
0.358
0.00450544
0.0650947
-0.00579946
0.00252725
0.0934595
0.000277873
0.119001
-0.00182401
0.143729
-0.00336779
0.168591
-0.00409791
0.194287
-0.00394528
0.223156
-0.00325349
0.257167
-0.00213829
0.304176
0.355861
0.00452571
0.0660563
-0.00548731
0.00285028
0.0951349
0.00087542
0.120976
-0.00102291
0.145627
-0.00237827
0.169946
-0.00295314
0.194861
-0.00281204
0.223015
-0.00226344
0.256618
-0.00150068
0.303413
0.354361
0.00468534
0.0666794
-0.00530839
0.00331755
0.0965027
0.00160828
0.122685
-6.18277e-05
0.147297
-0.00122911
0.171114
-0.00167692
0.195309
-0.00155182
0.22289
-0.00120741
0.256274
-0.000811585
0.303017
0.353549
0.00500333
-0.00528066
0.00394683
0.00249855
0.00106999
0.00013205
-0.00031344
-0.000155683
-0.000141056
-4.19137e-05
0.000148471
-0.00326179
0.000480888
-0.00670482
0.000943238
-0.00823778
0.00151207
-0.00858465
0.00218751
-0.00819536
0.00298552
-0.00734897
0.00392911
-0.00622082
0.00503776
-0.00492537
0.0063121
-0.00354506
-0.00214946
0.000198895
-0.00346068
0.000607741
-0.00711367
0.00115048
-0.00878052
0.00178998
-0.00922414
0.0025151
-0.00892047
0.00333007
-0.00816394
0.00424576
-0.00713651
0.00527354
-0.00595315
0.0064295
-0.00470102
-0.00348471
0.000250403
-0.00371108
0.000730565
-0.00759383
0.00134463
-0.00939459
0.00204724
-0.00992675
0.0028236
-0.00969683
0.00367573
-0.00901607
0.00461395
-0.00807473
0.0056532
-0.00699239
0.00681221
-0.00586003
-0.00477583
0.000295395
-0.00400648
0.000827879
-0.00812631
0.001485
-0.0100517
0.00221833
-0.0106601
0.00301545
-0.010494
0.00388206
-0.00988268
0.00483183
-0.0090245
0.00588139
-0.00804196
0.00704476
-0.0070234
-0.00604909
0.00032622
-0.0043327
0.000878906
-0.008679
0.00153354
-0.0107063
0.00224313
-0.0113697
0.00300159
-0.0112524
0.0038213
-0.0107024
0.00472074
-0.00992393
0.0057179
-0.00903913
0.00682335
-0.00812884
-0.00725514
0.000336063
-0.00466876
0.000866665
-0.0092096
0.0014617
-0.0113014
0.00207995
-0.0119879
0.00272403
-0.0118965
0.00341407
-0.0113924
0.0041736
-0.0106835
0.00502265
-0.00988817
0.00597192
-0.00907811
-0.00830183
0.000319761
-0.00498852
0.000780404
-0.00967024
0.00125513
-0.0117761
0.00171291
-0.0124457
0.00216669
-0.0123503
0.00264422
-0.01187
0.00317363
-0.0112129
0.00377717
-0.0104917
0.00446822
-0.00976916
-0.00908596
0.000274433
-0.00526295
0.000616969
-0.0100128
0.000915165
-0.0120743
0.00115279
-0.0126833
0.00135411
-0.0125516
0.00155383
-0.0120697
0.00178357
-0.0114426
0.00206698
-0.0107751
0.00241917
-0.0101213
-0.00952269
0.000199831
-0.00546279
0.000380916
-0.0101939
0.000457521
-0.0121509
0.000432211
-0.012658
0.000340988
-0.0124604
0.000224306
-0.011953
0.000115764
-0.0113341
3.96008e-05
-0.010699
1.08581e-05
-0.0100926
-0.00953695
9.82178e-05
-0.005561
8.37395e-05
-0.0101794
-9.15714e-05
-0.0119756
-0.000402457
-0.0123471
-0.000802241
-0.0120606
-0.00124655
-0.0115087
-0.00170166
-0.010879
-0.00214549
-0.0102551
-0.00256539
-0.0096727
-0.0091525
-1.97435e-06
-0.00555903
-0.000226172
-0.00995519
-0.000667305
-0.0115345
-0.00127128
-0.0117432
-0.00197981
-0.0113521
-0.00274591
-0.0107426
-0.00353744
-0.0100874
-0.0043354
-0.00945718
-0.00513052
-0.00887758
-0.00836047
-0.000133642
-0.00542539
-0.000586841
-0.00950199
-0.00129348
-0.0108278
-0.00217639
-0.0108603
-0.00317011
-0.0103583
-0.00422827
-0.00968444
-0.00532226
-0.00899343
-0.00643729
-0.00834215
-0.00756854
-0.00774633