/*--------------------------------*- C++ -*----------------------------------*\
  =========                 |
  \\      /  F ield         | OpenFOAM: The Open Source CFD Toolbox
   \\    /   O peration     | Website:  https://openfoam.org
    \\  /    A nd           | Version:  7
     \\/     M anipulation  |
\*---------------------------------------------------------------------------*/
FoamFile
{
    version     2.0;
    format      ascii;
    class       volVectorField;
    location    "35";
    object      U;
}
// * * * * * * * * * * * * * * * * * * * * * * * * * * * * * * * * * * * * * //

dimensions      [0 1 -1 0 0 0 0];

internalField   nonuniform List<vector> 
2000
(
(0.00251042 -0.0231678 5.41561e-22)
(0.00812962 -0.0416629 0)
(0.0149789 -0.0424778 0)
(0.0212561 -0.0308928 2.44711e-21)
(0.0268364 -0.010789 -8.25971e-22)
(0.0314974 0.014823 -4.51033e-23)
(0.0351004 0.0435928 1.4317e-21)
(0.0376501 0.073712 0)
(0.0391995 0.103772 0)
(0.0399047 0.132536 0)
(0.00418331 -0.0245111 0)
(0.0107673 -0.0444235 1.90779e-21)
(0.0171074 -0.046125 -1.7593e-21)
(0.022232 -0.0351723 -3.29865e-21)
(0.0263688 -0.0154176 0)
(0.0294976 0.0101619 -2.91342e-21)
(0.0315761 0.0391831 2.70926e-21)
(0.0326476 0.0697424 0)
(0.0327778 0.100313 -5.0857e-21)
(0.0320696 0.129593 9.76216e-21)
(0.00601077 -0.0254429 0)
(0.0137911 -0.0465533 -1.44481e-20)
(0.0198362 -0.0492414 0)
(0.0240097 -0.0392112 -1.19051e-20)
(0.026898 -0.0202051 0)
(0.0286928 0.00491606 1.03949e-20)
(0.0294526 0.03381 0)
(0.0292552 0.064524 -9.93212e-21)
(0.0281854 0.0954357 9.30203e-21)
(0.0262738 0.125158 8.77376e-21)
(0.00793941 -0.0259482 3.78448e-21)
(0.0171522 -0.0480188 7.36034e-21)
(0.0231608 -0.0517568 3.22024e-21)
(0.0266224 -0.0429075 6.12483e-21)
(0.0284799 -0.0250445 5.33922e-21)
(0.0291478 -0.000834736 -5.34186e-21)
(0.0287995 0.0275057 -4.69866e-21)
(0.0275509 0.0580468 5.01195e-22)
(0.025511 0.0891129 -8.55676e-21)
(0.022626 0.119216 -8.76915e-21)
(0.00992958 -0.0260412 3.67559e-21)
(0.0208281 -0.0488073 6.64137e-21)
(0.0271049 -0.0535882 1.15439e-20)
(0.0301296 -0.0461062 -5.49074e-21)
(0.0311919 -0.0297388 0)
(0.0309388 -0.00690371 0)
(0.0296823 0.0203978 8.74005e-21)
(0.0275935 0.0503577 8.28729e-21)
(0.0248119 0.0813269 -7.4312e-21)
(0.0211886 0.111728 -2.25909e-20)
(0.0119628 -0.0257591 -3.44275e-21)
(0.0248275 -0.0489212 -3.02229e-21)
(0.0317198 -0.0546413 1.61534e-20)
(0.034613 -0.0486007 -2.45296e-20)
(0.0351299 -0.033992 4.62488e-21)
(0.0341581 -0.012967 0)
(0.0321748 0.0127602 0)
(0.0294396 0.0416173 -3.66654e-20)
(0.0261351 0.0721087 3.5555e-20)
(0.0219949 0.102637 -7.23843e-21)
(0.0140476 -0.0251572 -2.60788e-20)
(0.0291905 -0.0483781 0)
(0.0370749 -0.0548186 -2.20632e-20)
(0.0401615 -0.0501473 1.95236e-20)
(0.0403921 -0.0374171 0)
(0.0388998 -0.0185452 -7.57926e-21)
(0.0363536 0.00506683 2.03128e-20)
(0.0331463 0.0321827 2.71807e-20)
(0.0295326 0.0616257 -1.23746e-20)
(0.0250823 0.0919301 -1.28814e-20)
(0.0162222 -0.024303 5.08932e-20)
(0.0339819 -0.047209 5.59557e-21)
(0.0432398 -0.0540352 9.33263e-21)
(0.046842 -0.0504997 2.11698e-20)
(0.0470419 -0.0395806 7.51013e-21)
(0.045221 -0.0230378 5.99154e-21)
(0.0422617 -0.00200327 -1.5084e-21)
(0.0387423 0.0226621 0)
(0.035048 0.0502642 0)
(0.0305199 0.0797246 9.35467e-22)
(0.0185521 -0.0232665 -2.48148e-20)
(0.0392773 -0.0454553 2.10422e-20)
(0.0502582 -0.0522391 -1.48487e-20)
(0.0546612 -0.0494619 -2.85959e-20)
(0.0550536 -0.0400864 7.16056e-21)
(0.0530666 -0.0258171 -7.42495e-21)
(0.0498112 -0.00763518 -6.15698e-21)
(0.0461096 0.013891 0)
(0.0426053 0.0385801 0)
(0.0384429 0.0659876 2.72024e-22)
(0.021123 -0.0221097 2.87189e-21)
(0.0451427 -0.0431637 -2.59518e-20)
(0.0581194 -0.049432 4.52416e-21)
(0.0635302 -0.0469471 0)
(0.0642663 -0.0386815 0)
(0.0621946 -0.0263658 -1.15509e-20)
(0.0586244 -0.0109796 0)
(0.054618 0.00696174 8.76284e-21)
(0.0512442 0.0273826 1.31907e-22)
(0.0481798 0.0500911 -7.9538e-21)
(0.0425271 0.191288 -3.60858e-22)
(0.0351034 0.279778 3.65353e-22)
(0.0267032 0.35625 2.8294e-22)
(0.0144556 0.426454 1.95276e-22)
(0.00436721 0.4926 3.78048e-23)
(0.00209046 0.559608 -4.6464e-23)
(-0.00214879 0.636157 1.48276e-23)
(0.00866817 0.73207 2.74211e-22)
(-0.00424739 0.865948 0)
(0.00938344 1.01041 -3.13079e-22)
(0.0314866 0.189688 -1.44658e-21)
(0.0231057 0.280256 1.24554e-21)
(0.0146287 0.357761 -2.10436e-21)
(0.00340333 0.427915 -1.95628e-22)
(-0.00480474 0.493059 -2.2387e-22)
(-0.00495525 0.558722 -1.27945e-23)
(-0.00705636 0.634223 -9.38334e-23)
(0.00523709 0.730617 -1.94299e-22)
(-0.00587432 0.865368 4.23262e-22)
(0.00841168 1.01036 3.1233e-22)
(0.0222761 0.18667 0)
(0.0126632 0.279336 1.30187e-21)
(0.00382811 0.357864 5.67508e-22)
(-0.00654044 0.427959 0)
(-0.0131002 0.492163 4.95209e-22)
(-0.0113601 0.556565 -2.51648e-22)
(-0.0115353 0.63114 -2.19404e-24)
(0.00208725 0.728158 7.52116e-22)
(-0.00732427 0.864265 -4.21895e-22)
(0.00753739 1.00993 9.45439e-22)
(0.0151056 0.182254 0)
(0.00388782 0.276989 -1.31307e-21)
(-0.00561385 0.356545 0)
(-0.0153362 0.426603 -1.30794e-21)
(-0.0205206 0.489924 1.31461e-21)
(-0.0171491 0.553089 -2.09633e-23)
(-0.015635 0.62677 -1.83899e-22)
(-0.000841926 0.724282 -7.0473e-22)
(-0.00869695 0.861902 -9.8715e-23)
(0.00667318 1.00873 -1.1324e-21)
(0.010125 0.176447 -1.69393e-22)
(-0.0031653 0.273227 3.76874e-21)
(-0.0136588 0.353975 4.26632e-22)
(-0.0229751 0.424189 1.89633e-21)
(-0.027069 0.486734 0)
(-0.0223101 0.548704 2.67502e-23)
(-0.0193147 0.621638 -2.87438e-22)
(-0.00346201 0.719858 7.12028e-22)
(-0.00986699 0.859379 1.65819e-22)
(0.00591163 1.00739 -1.66398e-22)
(0.00742013 0.169258 8.85566e-21)
(-0.0084615 0.26799 -5.79988e-21)
(-0.0202515 0.349938 -1.84643e-21)
(-0.0294432 0.420396 1.84527e-21)
(-0.0327969 0.482261 5.1513e-22)
(-0.0269365 0.543071 0)
(-0.0227222 0.615104 -2.48997e-22)
(-0.00597406 0.713659 1.03469e-22)
(-0.0110504 0.855108 4.12982e-22)
(0.00510296 1.0051 6.23692e-22)
(0.00701924 0.160688 9.85244e-22)
(-0.0120532 0.261502 0)
(-0.0254712 0.345197 0)
(-0.0348078 0.416297 0)
(-0.0376779 0.477614 2.09587e-22)
(-0.0309261 0.537324 -7.24455e-22)
(-0.0256539 0.608618 2.03645e-22)
(-0.00809738 0.707896 -7.31184e-22)
(-0.0119768 0.851552 2.49095e-22)
(0.00443844 1.00307 -8.64047e-22)
(0.00893052 0.150884 -5.49441e-21)
(-0.0138728 0.253182 -4.0472e-21)
(-0.0291774 0.338234 4.01004e-21)
(-0.0390221 0.410012 -2.55233e-21)
(-0.0418739 0.471044 3.03267e-21)
(-0.034589 0.529759 0)
(-0.028584 0.599918 1.25537e-23)
(-0.0103642 0.699198 4.06753e-23)
(-0.0130729 0.845189 -3.33021e-22)
(0.0036392 0.999727 -4.86314e-22)
(0.0131301 0.139495 4.21634e-21)
(-0.0143059 0.245069 0)
(-0.0318283 0.333102 3.75954e-21)
(-0.04231 0.406012 -5.73827e-21)
(-0.0451246 0.46659 1.93013e-21)
(-0.037362 0.524181 1.17675e-22)
(-0.0306613 0.593504 -1.25274e-23)
(-0.0119288 0.693392 -3.81157e-23)
(-0.0137661 0.841434 3.90272e-22)
(0.00308017 0.997387 6.68268e-22)
(0.0191644 0.123572 3.67418e-21)
(-0.0123205 0.229736 -3.55546e-21)
(-0.0324489 0.320084 -4.43395e-22)
(-0.0443701 0.395189 0)
(-0.0481515 0.456705 0)
(-0.0405104 0.513818 -1.12393e-22)
(-0.0335705 0.581646 1.06926e-22)
(-0.0142511 0.681209 -1.03847e-22)
(-0.0148967 0.832369 -1.55405e-22)
(0.00223793 0.992934 1.50329e-22)
(0.0177346 0.128465 0)
(-0.0138959 0.238919 0)
(-0.0372976 0.329143 0)
(-0.0492746 0.40031 0)
(-0.0516994 0.456274 0)
(-0.0431467 0.50869 0)
(-0.0351244 0.573179 0)
(-0.0160571 0.673157 0)
(-0.01597 0.825879 0)
(0.00125512 0.98787 0)
(0.0138139 0.169248 0)
(-0.0132959 0.266238 0)
(-0.0358407 0.345653 0)
(-0.0477278 0.407153 0)
(-0.0507008 0.45446 0)
(-0.043949 0.500578 0)
(-0.0365109 0.562359 0)
(-0.0191471 0.66494 0)
(-0.0174677 0.819798 0)
(-2.80786e-05 0.979144 0)
(0.0114783 0.19927 0)
(-0.0107979 0.2917 0)
(-0.0305022 0.362079 0)
(-0.0405678 0.413754 0)
(-0.0436261 0.452757 0)
(-0.0389785 0.492039 0)
(-0.0333304 0.549391 0)
(-0.0185648 0.65177 0)
(-0.0172793 0.810133 0)
(-0.000746829 0.971245 0)
(0.00991552 0.219997 0)
(-0.00578714 0.310993 0)
(-0.0235628 0.376499 0)
(-0.0337473 0.420667 0)
(-0.0381007 0.453204 0)
(-0.0357195 0.487709 0)
(-0.03195 0.542694 0)
(-0.0192766 0.645017 0)
(-0.0165675 0.801935 0)
(-0.000960207 0.959218 0)
(0.00781573 0.234303 0)
(-0.000572922 0.324679 0)
(-0.0136792 0.388778 0)
(-0.0226955 0.428576 0)
(-0.0287408 0.455866 0)
(-0.0292978 0.484972 0)
(-0.0283307 0.535372 0)
(-0.0195305 0.636432 0)
(-0.0175226 0.795507 0)
(-0.00208549 0.952734 0)
(0.00731996 0.242808 0)
(0.00312716 0.334099 0)
(-0.00747553 0.39909 0)
(-0.0158368 0.436404 0)
(-0.0223395 0.460395 0)
(-0.0243562 0.486045 0)
(-0.0248013 0.533124 0)
(-0.0177153 0.630816 0)
(-0.0155841 0.786566 0)
(-0.00208417 0.939828 0)
(0.00790175 0.244148 0)
(0.00927376 0.337605 0)
(0.00316865 0.406885 0)
(-0.00530486 0.443938 0)
(-0.0140782 0.46521 0)
(-0.0192512 0.487202 0)
(-0.0227961 0.530515 0)
(-0.0188701 0.625665 0)
(-0.0166873 0.780973 0)
(-0.00276364 0.934001 0)
(0.00919714 0.244171 0)
(0.0108345 0.339204 0)
(0.00715699 0.413373 0)
(0.000359118 0.453733 0)
(-0.00762727 0.47502 0)
(-0.0131246 0.49479 0)
(-0.0174469 0.534006 0)
(-0.0157933 0.623619 0)
(-0.0148362 0.772622 0)
(-0.00297659 0.9194 0)
(0.0141317 0.240886 0)
(0.0179461 0.338836 0)
(0.0156858 0.417608 0)
(0.00800912 0.459056 0)
(-0.00209317 0.47875 0)
(-0.0100194 0.496227 0)
(-0.016525 0.533145 0)
(-0.0164673 0.620383 0)
(-0.0155028 0.768925 0)
(-0.00333216 0.916066 0)
(0.0128627 0.234446 0)
(0.0175663 0.334964 0)
(0.0185658 0.422141 0)
(0.0137379 0.471526 0)
(0.00535565 0.494207 0)
(-0.00238114 0.510269 0)
(-0.00980187 0.54254 0)
(-0.0122827 0.622339 0)
(-0.0132831 0.760618 0)
(-0.00342139 0.899481 0)
(0.0406308 0.0756568 -1.50337e-21)
(0.0341404 0.119444 1.48016e-21)
(0.0279363 0.150666 -1.89437e-22)
(0.0212528 0.172561 0)
(0.0147657 0.187671 0)
(0.01022 0.195894 -1.49758e-22)
(0.00791037 0.197544 3.24614e-22)
(0.0079665 0.196368 -3.18685e-22)
(0.0110775 0.192262 -2.01973e-23)
(0.0101943 0.184714 1.9688e-23)
(0.0516983 0.0630748 1.99653e-21)
(0.0423093 0.103411 0)
(0.0336361 0.132825 -1.3619e-21)
(0.0249057 0.153708 3.04301e-21)
(0.0168959 0.168109 -1.88833e-21)
(0.0110149 0.175674 1.45878e-22)
(0.00778497 0.177213 -2.38675e-22)
(0.00729242 0.175505 -2.4667e-22)
(0.00970059 0.171166 5.25264e-24)
(0.00908853 0.163267 -1.1173e-23)
(0.0610507 0.0577955 -2.15234e-21)
(0.0491821 0.0923823 1.5821e-21)
(0.0385747 0.117785 -1.56686e-21)
(0.0281716 0.135968 1.67212e-21)
(0.0188272 0.148387 -1.27201e-21)
(0.011741 0.154564 0)
(0.00763766 0.155623 2.39229e-22)
(0.00656491 0.153339 -1.77817e-23)
(0.00831366 0.148981 7.08213e-23)
(0.00801715 0.141052 3.58029e-23)
(0.0690582 0.0544677 3.27906e-22)
(0.0549592 0.0824837 0)
(0.0428539 0.102918 0)
(0.0310052 0.11766 0)
(0.0204636 0.127487 -1.27201e-21)
(0.0122946 0.13199 8.11416e-22)
(0.00740504 0.132426 -6.11523e-23)
(0.00580934 0.12967 1.22977e-22)
(0.00699638 0.125536 3.28179e-23)
(0.00700055 0.117845 1.21235e-23)
(0.0754876 0.0493184 -2.04731e-22)
(0.059413 0.070608 1.12394e-21)
(0.0461792 0.085959 9.74598e-22)
(0.0331538 0.0972745 -9.73879e-22)
(0.021645 0.104494 4.54573e-22)
(0.01261 0.107473 0)
(0.00708914 0.107398 2.87235e-22)
(0.00506835 0.104437 -3.27888e-22)
(0.00580252 0.100774 1.44797e-22)
(0.00605128 0.0935313 -4.53284e-23)
(0.0801647 0.0402319 2.99276e-21)
(0.0625189 0.0551365 -2.68937e-22)
(0.0485457 0.0657655 7.4477e-23)
(0.0346354 0.0740998 -1.03289e-21)
(0.0224187 0.0790491 0)
(0.0127515 0.0809188 0)
(0.0067562 0.0806006 0)
(0.004406 0.0777849 -2.11961e-22)
(0.00477103 0.0747988 0)
(0.00517376 0.0681576 0)
(0.0830953 0.0266298 0)
(0.0644101 0.0359255 -1.46611e-21)
(0.0500939 0.0423834 9.95547e-22)
(0.0355856 0.0483283 1.06658e-21)
(0.022915 0.051451 -1.07205e-21)
(0.0128262 0.0526869 -3.86483e-22)
(0.00648941 0.0524193 4.51697e-22)
(0.00388333 0.0500795 7.96806e-22)
(0.00392423 0.0478959 -6.28596e-23)
(0.00438175 0.0419632 3.42781e-23)
(0.0843828 0.00910901 0)
(0.0652566 0.0138612 4.71563e-22)
(0.050964 0.0166942 2.67427e-22)
(0.036144 0.0207996 0)
(0.0232481 0.0224892 -2.24416e-22)
(0.0129271 0.0234885 7.2401e-22)
(0.00635078 0.0234957 -4.81534e-22)
(0.00353671 0.0218662 -8.0392e-23)
(0.00325702 0.0205081 6.38472e-23)
(0.00368537 0.0153724 -5.62756e-23)
(0.0842151 -0.0110954 -2.93473e-22)
(0.065209 -0.00969698 -5.01196e-22)
(0.0512577 -0.0100559 1.07043e-22)
(0.0364283 -0.00735807 -1.41217e-22)
(0.0234898 -0.00680846 -2.66484e-22)
(0.0131194 -0.00578842 -3.44466e-22)
(0.00636641 -0.00538719 8.83917e-23)
(0.00337431 -0.00620488 5.99097e-23)
(0.00273847 -0.00681878 -6.4056e-23)
(0.00292199 -0.0110592 -1.43643e-23)
(0.0827446 -0.0326414 9.92858e-23)
(0.0644298 -0.0333692 -1.00255e-22)
(0.0510972 -0.0366401 1.31677e-22)
(0.0364798 -0.0350124 1.41002e-22)
(0.0236854 -0.0354033 -1.23749e-22)
(0.013418 -0.0342449 2.40267e-22)
(0.00654629 -0.0334355 -1.25635e-22)
(0.00338252 -0.0334708 -2.24188e-23)
(0.00236859 -0.0334845 0)
(0.00235843 -0.0367632 1.43889e-23)
(0.0802249 -0.0542323 -8.99584e-23)
(0.063092 -0.0560802 9.07531e-23)
(0.0505743 -0.0620225 1.20647e-22)
(0.0363271 -0.061209 1.3347e-22)
(0.0238581 -0.0624149 1.21752e-22)
(0.0138065 -0.061111 -1.00311e-23)
(0.00687208 -0.0599644 -5.08633e-23)
(0.00352583 -0.0593512 -9.88891e-23)
(0.00213012 -0.0589128 0)
(0.00185995 -0.0612641 1.32296e-23)
(0.0770191 -0.0749597 0)
(0.061348 -0.0771037 4.2701e-22)
(0.0497335 -0.0854699 -7.75112e-22)
(0.0360487 -0.0852923 -1.33665e-22)
(0.0240003 -0.0872021 -2.4669e-22)
(0.0142593 -0.0858437 -3.32205e-22)
(0.00728426 -0.0844786 8.81585e-23)
(0.00375277 -0.0834246 6.11557e-23)
(0.00197627 -0.0826741 -7.09543e-23)
(0.00143908 -0.0842163 -1.3193e-23)
(0.0734183 -0.0942659 0)
(0.0593543 -0.0960902 3.17711e-22)
(0.0486299 -0.106562 2.24637e-22)
(0.0356994 -0.106929 0)
(0.0241002 -0.109414 7.02785e-22)
(0.0147407 -0.108171 -2.39451e-22)
(0.00772869 -0.106721 -1.92486e-22)
(0.00401838 -0.105471 -3.86972e-22)
(0.00187727 -0.104532 7.07225e-23)
(0.00110039 -0.105428 -4.75529e-23)
(0.0696644 -0.111911 0)
(0.0572477 -0.113027 -3.20334e-22)
(0.0473241 -0.125162 0)
(0.0353151 -0.126097 -9.14106e-22)
(0.0241474 -0.12899 9.18868e-22)
(0.0152144 -0.12809 3.72517e-22)
(0.00816605 -0.12667 -3.65464e-23)
(0.00428974 -0.125466 3.79636e-22)
(0.00181703 -0.124432 7.14671e-23)
(0.000833666 -0.124857 7.05412e-23)
(0.0659437 -0.127897 -1.78908e-22)
(0.0551508 -0.128167 1.35425e-22)
(0.0458797 -0.141356 -1.82219e-22)
(0.034918 -0.143024 7.61877e-22)
(0.0241373 -0.146107 0)
(0.0156443 -0.145805 3.56766e-22)
(0.00856569 -0.144483 -8.22364e-23)
(0.00454053 -0.143537 -5.0992e-22)
(0.00178468 -0.142462 -2.26195e-23)
(0.000625965 -0.142578 2.25961e-23)
(0.0623834 -0.142348 8.85173e-22)
(0.0531863 -0.141953 -4.28447e-22)
(0.0443739 -0.155384 -6.72576e-22)
(0.0345208 -0.158093 6.72196e-22)
(0.0240755 -0.161094 3.83281e-22)
(0.0159995 -0.161638 0)
(0.00890961 -0.160426 5.64783e-22)
(0.00475413 -0.159899 -3.0512e-22)
(0.00177477 -0.158799 -1.7812e-22)
(0.000465621 -0.15875 -3.9499e-23)
(0.0590821 -0.155382 -1.9612e-22)
(0.0514976 -0.154929 0)
(0.0429106 -0.167562 0)
(0.0341329 -0.171735 0)
(0.0239844 -0.174346 3.33381e-22)
(0.0162632 -0.175945 -7.15783e-22)
(0.00919487 -0.174808 -5.52296e-22)
(0.00492424 -0.174804 6.77687e-22)
(0.00178659 -0.173671 -4.17152e-23)
(0.000343217 -0.173578 8.03737e-23)
(0.0559691 -0.166986 -8.57199e-22)
(0.0501147 -0.167645 -4.7716e-22)
(0.041555 -0.178229 4.72701e-22)
(0.033734 -0.18434 -1.27498e-21)
(0.0239029 -0.186258 1.58397e-21)
(0.0164507 -0.189054 0)
(0.00944594 -0.187927 2.68187e-22)
(0.00506122 -0.188505 -9.35482e-24)
(0.00182599 -0.187319 1.19907e-22)
(0.000252185 -0.187284 3.42209e-23)
(0.052401 -0.176849 -2.96657e-22)
(0.0485846 -0.180577 0)
(0.0401818 -0.187753 8.33685e-22)
(0.0331972 -0.196224 -1.89146e-21)
(0.0238392 -0.197197 7.83619e-22)
(0.0165943 -0.201241 1.43153e-22)
(0.00972021 -0.200047 -2.67577e-22)
(0.0052062 -0.201226 -4.18361e-23)
(0.00191123 -0.199974 -2.33929e-22)
(0.000186016 -0.200091 -7.03696e-23)
(0.0488361 -0.184161 -1.12809e-21)
(0.0467451 -0.19406 1.09919e-21)
(0.0388596 -0.196604 -5.59219e-23)
(0.0324211 -0.20765 0)
(0.0236553 -0.20751 0)
(0.0165504 -0.212746 -1.47558e-22)
(0.00992191 -0.211399 -4.34947e-22)
(0.00532568 -0.213164 4.26716e-22)
(0.00201325 -0.211839 3.54852e-23)
(0.000131119 -0.212214 -3.46804e-23)
(0.0513442 -0.192659 0)
(0.0472436 -0.225784 0)
(0.0387399 -0.216661 0)
(0.0312953 -0.233875 0)
(0.0227523 -0.231268 0)
(0.0153968 -0.239315 0)
(0.00934631 -0.237553 0)
(0.00487191 -0.240603 0)
(0.00189417 -0.238901 0)
(7.29798e-05 -0.239888 0)
(0.0432256 -0.242233 0)
(0.0355557 -0.274903 0)
(0.0311126 -0.262183 0)
(0.0239614 -0.279931 0)
(0.0184765 -0.274754 0)
(0.0125183 -0.283748 0)
(0.00822085 -0.280592 0)
(0.00447944 -0.284452 0)
(0.0020144 -0.281849 0)
(0.000188272 -0.283449 0)
(0.0398297 -0.292483 0)
(0.0310251 -0.324449 0)
(0.0267154 -0.309543 0)
(0.0197929 -0.328015 0)
(0.0155972 -0.320396 0)
(0.0104837 -0.330405 0)
(0.00734162 -0.325623 0)
(0.00411069 -0.330317 0)
(0.00206128 -0.326544 0)
(0.000203869 -0.328909 0)
(0.0352244 -0.346462 0)
(0.0266174 -0.378214 0)
(0.0229403 -0.361216 0)
(0.0165548 -0.380617 0)
(0.0133906 -0.370747 0)
(0.00891307 -0.382106 0)
(0.00667427 -0.375582 0)
(0.00379258 -0.381317 0)
(0.00210759 -0.376171 0)
(0.000204366 -0.379536 0)
(0.0306411 -0.408701 0)
(0.0228018 -0.440806 0)
(0.0195024 -0.421981 0)
(0.0139019 -0.442653 0)
(0.0114596 -0.430791 0)
(0.00763677 -0.443745 0)
(0.00603462 -0.435465 0)
(0.00343786 -0.442478 0)
(0.00208544 -0.435865 0)
(0.000173305 -0.440519 0)
(0.0261019 -0.48489 0)
(0.0190643 -0.516688 0)
(0.0162796 -0.497345 0)
(0.0114839 -0.51897 0)
(0.00966363 -0.50597 0)
(0.00639199 -0.520328 0)
(0.00523572 -0.510722 0)
(0.00287023 -0.519091 0)
(0.00185979 -0.511306 0)
(6.38628e-05 -0.517454 0)
(0.0204151 -0.577234 0)
(0.015213 -0.606031 0)
(0.0128881 -0.589515 0)
(0.00910852 -0.610021 0)
(0.00760526 -0.598025 0)
(0.004881 -0.612277 0)
(0.00393084 -0.602797 0)
(0.00183941 -0.611698 0)
(0.00116558 -0.603794 0)
(-0.000157992 -0.610944 0)
(0.0165724 -0.67707 0)
(0.0117408 -0.698876 0)
(0.00959464 -0.688826 0)
(0.00623754 -0.704353 0)
(0.00514329 -0.696456 0)
(0.00285325 -0.707656 0)
(0.00213448 -0.70063 0)
(0.000399831 -0.707883 0)
(0.000197063 -0.70166 0)
(-0.000374882 -0.708095 0)
(0.00940822 -0.760395 0)
(0.00616126 -0.771078 0)
(0.0050736 -0.769823 0)
(0.0032231 -0.778647 0)
(0.00265922 -0.776555 0)
(0.00119803 -0.782428 0)
(0.00065806 -0.779087 0)
(-0.000437199 -0.782635 0)
(-0.000367892 -0.779161 0)
(-0.00035426 -0.782781 0)
(0.00162253 -0.802786 0)
(0.0011644 -0.811618 0)
(0.00109027 -0.813953 0)
(0.000943467 -0.81888 0)
(0.000725059 -0.818926 0)
(0.000350098 -0.821597 0)
(5.49162e-05 -0.820068 0)
(-0.00025161 -0.821268 0)
(-0.000241952 -0.819433 0)
(-0.000122066 -0.820973 0)
(0.0493809 -0.213242 2.93591e-21)
(0.044829 -0.262423 -2.88125e-21)
(0.0422846 -0.312296 4.93406e-22)
(0.0377839 -0.36632 0)
(0.0333478 -0.428689 0)
(0.028585 -0.504061 8.16348e-22)
(0.0232485 -0.593077 -3.91706e-21)
(0.017995 -0.684362 3.89588e-21)
(0.0112203 -0.762515 1.16422e-21)
(0.00336407 -0.798754 -1.15073e-21)
(0.0490932 -0.220684 -3.37348e-21)
(0.0458728 -0.269051 0)
(0.0434434 -0.318201 3.70416e-21)
(0.0389741 -0.371984 -9.00163e-21)
(0.0345807 -0.434314 6.23074e-21)
(0.0297321 -0.509372 -7.35202e-22)
(0.024485 -0.597125 1.83232e-21)
(0.0186501 -0.686711 4.10642e-21)
(0.0120343 -0.761742 1.23967e-21)
(0.00413723 -0.798083 1.25407e-21)
(0.0495326 -0.228048 4.17471e-21)
(0.0474956 -0.27561 -3.76071e-21)
(0.0449889 -0.323602 3.72508e-21)
(0.0404945 -0.376755 -5.37601e-21)
(0.0360722 -0.438789 3.94956e-21)
(0.0310879 -0.51335 0)
(0.0257063 -0.599804 -1.8369e-21)
(0.0194222 -0.688078 1.55346e-22)
(0.0126214 -0.759945 -2.18382e-21)
(0.00452302 -0.797558 -2.37623e-21)
(0.0506195 -0.234801 -7.05856e-22)
(0.0495985 -0.281934 0)
(0.0469432 -0.32895 0)
(0.0423933 -0.381507 0)
(0.037867 -0.443185 5.03027e-21)
(0.032684 -0.517167 -3.39121e-21)
(0.0270139 -0.602316 -5.16519e-23)
(0.0203242 -0.688897 -2.45527e-21)
(0.01306 -0.758278 -1.27019e-21)
(0.00462763 -0.796017 -1.38933e-21)
(0.052365 -0.240727 4.83395e-22)
(0.0520917 -0.287329 -2.42017e-21)
(0.0492446 -0.333576 -2.56122e-21)
(0.0446231 -0.385754 2.55969e-21)
(0.0399322 -0.447193 -1.61683e-21)
(0.0345012 -0.520677 0)
(0.0284826 -0.604638 -2.17092e-21)
(0.0213668 -0.689372 5.03005e-21)
(0.013523 -0.756783 -2.60528e-21)
(0.00466767 -0.793567 2.69117e-21)
(0.0548359 -0.245856 -6.59219e-21)
(0.0549963 -0.291588 3.94547e-22)
(0.0518847 -0.337056 -4.91223e-22)
(0.0471459 -0.388964 2.73274e-21)
(0.0422277 -0.450265 0)
(0.0365067 -0.523363 0)
(0.0301226 -0.606324 0)
(0.0225556 -0.689385 2.75871e-21)
(0.0141235 -0.755161 0)
(0.00477638 -0.79065 0)
(0.0580722 -0.250116 0)
(0.0583676 -0.29474 3.47433e-21)
(0.0549103 -0.339358 -2.38538e-21)
(0.0499735 -0.390984 -3.50234e-21)
(0.044754 -0.452155 3.52062e-21)
(0.0386941 -0.524924 2.38074e-21)
(0.0319217 -0.60706 -2.33278e-21)
(0.0238834 -0.688759 -9.90543e-21)
(0.0148812 -0.753184 7.02691e-22)
(0.00498116 -0.787562 -2.54986e-21)
(0.0620901 -0.253338 0)
(0.0622386 -0.296756 -1.09222e-21)
(0.0583676 -0.340519 -7.31051e-22)
(0.0531384 -0.391844 0)
(0.0475407 -0.452852 1.14504e-21)
(0.0410863 -0.525304 -3.44937e-21)
(0.0338872 -0.606742 4.07122e-21)
(0.0253533 -0.687372 1.50678e-21)
(0.0157795 -0.750745 -1.70494e-21)
(0.00526626 -0.784361 3.36708e-21)
(0.0669047 -0.255357 8.11167e-22)
(0.0666228 -0.297563 1.3505e-21)
(0.0622807 -0.340507 -2.42372e-22)
(0.0566634 -0.391555 4.76119e-22)
(0.050619 -0.45239 1.05644e-21)
(0.0437141 -0.524561 1.8871e-21)
(0.0360357 -0.605433 -7.49342e-22)
(0.0269639 -0.685254 -8.36694e-22)
(0.0167843 -0.74786 1.71058e-21)
(0.00560147 -0.781015 9.5477e-22)
(0.0725343 -0.256037 -2.80901e-22)
(0.0715288 -0.297103 2.83045e-22)
(0.0666616 -0.339256 -3.90301e-22)
(0.0605586 -0.390088 -4.75546e-22)
(0.0540085 -0.45076 6.28163e-22)
(0.0466023 -0.522708 -1.29074e-21)
(0.0383974 -0.603145 1.15706e-21)
(0.0287406 -0.682395 4.26631e-22)
(0.0179004 -0.744517 0)
(0.00598543 -0.77744 -9.5687e-22)
(0.0789973 -0.255271 2.99021e-22)
(0.0769603 -0.295385 -3.01447e-22)
(0.0715195 -0.336725 -4.47737e-22)
(0.0648281 -0.387421 -5.4301e-22)
(0.0577229 -0.447944 -6.69786e-22)
(0.0497633 -0.519783 -6.94907e-23)
(0.0409772 -0.599972 4.15368e-22)
(0.0306738 -0.67891 1.382e-21)
(0.0191086 -0.740792 0)
(0.00640256 -0.773636 -1.07496e-21)
(0.0863041 -0.253036 0)
(0.0829115 -0.292472 -1.64888e-21)
(0.0768659 -0.332918 3.06887e-21)
(0.0694743 -0.383569 5.43973e-22)
(0.061771 -0.443928 1.37019e-21)
(0.05321 -0.515726 2.32926e-21)
(0.0438098 -0.595798 -8.4819e-22)
(0.0328108 -0.674677 -9.44245e-22)
(0.0204529 -0.7366 2.16708e-21)
(0.00688045 -0.76954 1.07242e-21)
(0.0944476 -0.249423 0)
(0.0893734 -0.288438 -1.59206e-21)
(0.0827065 -0.327935 -9.62015e-22)
(0.0744979 -0.37858 0)
(0.0661708 -0.438768 -4.40746e-21)
(0.0569432 -0.510651 1.47115e-21)
(0.0468658 -0.59083 1.86518e-21)
(0.0351007 -0.669904 6.19312e-21)
(0.0218831 -0.732074 -2.16007e-21)
(0.00738291 -0.765231 4.78055e-21)
(0.10341 -0.24458 0)
(0.0963329 -0.283317 1.60576e-21)
(0.0890474 -0.321845 0)
(0.0799114 -0.372498 5.53291e-21)
(0.070926 -0.432491 -5.56125e-21)
(0.0609892 -0.50439 -3.67763e-21)
(0.0502199 -0.584766 -1.11945e-22)
(0.037644 -0.664239 -6.43619e-21)
(0.023489 -0.726984 -1.06921e-21)
(0.00796881 -0.760569 -5.94661e-21)
(0.113165 -0.238707 1.02438e-20)
(0.103787 -0.277122 -3.98239e-21)
(0.0958521 -0.314971 9.41752e-22)
(0.0857065 -0.365358 -4.96156e-21)
(0.0760688 -0.425209 0)
(0.0653356 -0.497212 -3.89322e-21)
(0.0537797 -0.578074 -4.443e-22)
(0.0403052 -0.658221 8.80632e-21)
(0.0251334 -0.721678 1.2505e-21)
(0.00854298 -0.755753 -1.25505e-21)
(0.12368 -0.231967 -2.33564e-21)
(0.111696 -0.269892 8.36832e-21)
(0.10315 -0.307089 5.25828e-21)
(0.091985 -0.356878 -5.25467e-21)
(0.0816138 -0.416626 -3.45658e-21)
(0.0700692 -0.488684 0)
(0.0577092 -0.570013 -9.05215e-21)
(0.0433125 -0.651067 4.53353e-21)
(0.0270395 -0.715646 4.97213e-21)
(0.00925337 -0.75048 5.47742e-21)
(0.134871 -0.224788 -1.51335e-21)
(0.120115 -0.261703 0)
(0.110893 -0.298448 0)
(0.0986339 -0.347882 0)
(0.0874323 -0.407688 -4.17604e-21)
(0.0750009 -0.48006 7.61896e-21)
(0.06172 -0.562108 9.28001e-21)
(0.0462911 -0.64417 -1.48613e-20)
(0.02886 -0.709719 2.73595e-21)
(0.00986099 -0.745203 -8.13549e-21)
(0.146686 -0.216913 -1.31384e-21)
(0.129176 -0.251762 9.54837e-21)
(0.119082 -0.288548 -9.45708e-21)
(0.105819 -0.337361 1.39552e-20)
(0.0937986 -0.396845 -1.76527e-20)
(0.0805351 -0.46917 0)
(0.0663701 -0.551815 -4.91143e-21)
(0.0498936 -0.635293 -2.59646e-22)
(0.0311666 -0.7026 -5.7447e-21)
(0.0107442 -0.739197 -5.91439e-21)
(0.158717 -0.210129 -1.61428e-21)
(0.138478 -0.242677 0)
(0.127144 -0.28013 -1.38749e-20)
(0.112951 -0.328535 2.69828e-20)
(0.100016 -0.388097 -1.06441e-20)
(0.0858142 -0.460751 -2.28158e-21)
(0.0706323 -0.544058 4.90107e-21)
(0.0530265 -0.628355 -3.36924e-22)
(0.0330538 -0.696406 8.32966e-21)
(0.0112947 -0.733555 8.75149e-21)
(0.172195 -0.199052 -7.84215e-21)
(0.149892 -0.228886 7.66884e-21)
(0.136793 -0.266696 1.4206e-21)
(0.121716 -0.314269 0)
(0.107793 -0.373409 0)
(0.0926721 -0.446069 2.19908e-21)
(0.076464 -0.530477 1.04654e-20)
(0.0575998 -0.617132 -1.01796e-20)
(0.0360255 -0.687909 -2.88119e-21)
(0.012496 -0.726555 2.82639e-21)
(0.183689 -0.202825 0)
(0.173028 -0.224039 0)
(0.154212 -0.263547 0)
(0.137213 -0.309555 0)
(0.121431 -0.367401 0)
(0.104311 -0.438269 0)
(0.0858722 -0.520443 0)
(0.0644921 -0.604704 0)
(0.0400974 -0.673912 0)
(0.0131743 -0.712555 0)
(0.208038 -0.180092 0)
(0.212075 -0.206859 0)
(0.183307 -0.251054 0)
(0.167532 -0.296164 0)
(0.148747 -0.35449 0)
(0.128548 -0.424114 0)
(0.106379 -0.503234 0)
(0.0803562 -0.5826 0)
(0.0505455 -0.646253 0)
(0.0181818 -0.679845 0)
(0.241997 -0.1567 0)
(0.251461 -0.183257 0)
(0.213557 -0.22772 0)
(0.202204 -0.271606 0)
(0.178693 -0.330263 0)
(0.155218 -0.397356 0)
(0.128292 -0.47306 0)
(0.0965575 -0.548737 0)
(0.060003 -0.61023 0)
(0.0194203 -0.645086 0)
(0.284951 -0.13908 0)
(0.296322 -0.164875 0)
(0.252797 -0.210033 0)
(0.246586 -0.252995 0)
(0.21593 -0.311256 0)
(0.189982 -0.374495 0)
(0.157383 -0.445964 0)
(0.118901 -0.514957 0)
(0.0747125 -0.568876 0)
(0.0270294 -0.596097 0)
(0.337697 -0.118722 0)
(0.348222 -0.143829 0)
(0.300914 -0.185954 0)
(0.297069 -0.224898 0)
(0.256466 -0.27933 0)
(0.227883 -0.336279 0)
(0.18645 -0.402144 0)
(0.139824 -0.46482 0)
(0.0862398 -0.515871 0)
(0.02706 -0.546116 0)
(0.404168 -0.106217 0)
(0.412421 -0.130204 0)
(0.363582 -0.168783 0)
(0.358975 -0.204076 0)
(0.30772 -0.254699 0)
(0.277619 -0.305124 0)
(0.225346 -0.364472 0)
(0.169831 -0.417154 0)
(0.105925 -0.458326 0)
(0.0394323 -0.476254 0)
(0.481806 -0.0831851 0)
(0.484244 -0.103779 0)
(0.433728 -0.135566 0)
(0.422342 -0.165333 0)
(0.360598 -0.208487 0)
(0.32711 -0.24922 0)
(0.257022 -0.298175 0)
(0.19149 -0.34086 0)
(0.11459 -0.380724 0)
(0.0324018 -0.407918 0)
(0.576514 -0.0727818 0)
(0.56899 -0.0887452 0)
(0.519525 -0.114673 0)
(0.497137 -0.138617 0)
(0.430752 -0.172705 0)
(0.388425 -0.203232 0)
(0.302089 -0.241841 0)
(0.230585 -0.275517 0)
(0.141572 -0.3075 0)
(0.0604303 -0.313047 0)
(0.655749 -0.0380594 0)
(0.636659 -0.0466345 0)
(0.582472 -0.0631002 0)
(0.546194 -0.0762121 0)
(0.472078 -0.0967455 0)
(0.413953 -0.113106 0)
(0.312465 -0.136969 0)
(0.229484 -0.15628 0)
(0.115845 -0.184712 0)
(0.00441589 -0.229008 0)
(0.838719 -0.0193113 0)
(0.813511 -0.0235844 0)
(0.767827 -0.0301244 0)
(0.724372 -0.0361495 0)
(0.657435 -0.0449796 0)
(0.589793 -0.0534263 0)
(0.493162 -0.0662453 0)
(0.393468 -0.0808544 0)
(0.260479 -0.108866 0)
(0.17077 -0.162432 0)
(0.220245 -0.179036 7.30884e-21)
(0.248673 -0.154056 -7.19728e-21)
(0.2829 -0.131893 1.47875e-21)
(0.323564 -0.115696 0)
(0.374453 -0.0978986 0)
(0.437635 -0.0871078 2.65963e-21)
(0.513051 -0.0673621 -1.31661e-20)
(0.602393 -0.0596359 1.30768e-20)
(0.682298 -0.02971 3.8975e-21)
(0.858358 -0.0161531 -3.9102e-21)
(0.230322 -0.169229 -5.01434e-21)
(0.25816 -0.143586 0)
(0.292161 -0.122111 1.08507e-20)
(0.332688 -0.106493 -2.70467e-20)
(0.383588 -0.089682 1.88828e-20)
(0.446499 -0.0796003 -2.42378e-21)
(0.52176 -0.0610815 5.41004e-21)
(0.609968 -0.0543174 1.24684e-20)
(0.690835 -0.0263377 3.61473e-21)
(0.864748 -0.0148342 3.48698e-21)
(0.23913 -0.158067 5.67265e-21)
(0.265282 -0.132774 -9.21935e-21)
(0.298295 -0.112304 9.13278e-21)
(0.338453 -0.0973673 -1.4884e-20)
(0.389305 -0.0815875 1.07121e-20)
(0.452221 -0.0722883 0)
(0.527426 -0.0550278 -5.42342e-21)
(0.615178 -0.0492843 -8.27276e-23)
(0.697462 -0.0232314 -6.60851e-21)
(0.86974 -0.0135809 -6.94887e-21)
(0.248957 -0.1462 -1.10115e-21)
(0.274077 -0.121741 0)
(0.306082 -0.102401 0)
(0.345545 -0.0882253 0)
(0.396005 -0.0735422 1.26587e-20)
(0.458628 -0.0651015 -8.67436e-21)
(0.533497 -0.0491551 -4.03161e-22)
(0.620701 -0.0445014 -6.36054e-21)
(0.704113 -0.0203663 -3.33649e-21)
(0.874736 -0.0123919 -3.41294e-21)
(0.258376 -0.134081 2.97817e-21)
(0.283041 -0.110722 -3.79414e-21)
(0.314232 -0.0925247 -5.68892e-21)
(0.35319 -0.0791351 5.68569e-21)
(0.403302 -0.0655768 -3.92823e-21)
(0.465637 -0.0580483 0)
(0.540127 -0.043442 -5.31011e-21)
(0.626753 -0.039909 1.21577e-20)
(0.711028 -0.017685 -6.16116e-21)
(0.879917 -0.0112565 6.81516e-21)
(0.26678 -0.121782 -7.33044e-21)
(0.29125 -0.0997835 -6.07971e-22)
(0.321314 -0.0827325 -1.40446e-21)
(0.359988 -0.0701965 5.51117e-21)
(0.409873 -0.0577782 0)
(0.472094 -0.0511948 0)
(0.546367 -0.0379262 0)
(0.632569 -0.035506 5.75151e-21)
(0.717679 -0.0151637 0)
(0.884903 -0.0101727 0)
(0.274181 -0.109335 0)
(0.298468 -0.0888606 5.4858e-21)
(0.327284 -0.0729691 -3.93403e-21)
(0.365538 -0.0614423 -6.72776e-21)
(0.415176 -0.0501637 6.76294e-21)
(0.477354 -0.0445739 4.71894e-21)
(0.551537 -0.0326276 -4.38867e-21)
(0.63751 -0.0313041 -1.97872e-20)
(0.723559 -0.0128068 1.39529e-21)
(0.889301 -0.00914609 -4.84806e-21)
(0.280521 -0.0967167 0)
(0.304535 -0.0779358 -1.55925e-21)
(0.33243 -0.0632044 -1.11096e-21)
(0.370024 -0.0527934 0)
(0.419233 -0.0426944 2.16906e-21)
(0.481337 -0.0381495 -6.16994e-21)
(0.55548 -0.0275222 7.65473e-21)
(0.641329 -0.0272927 3.01781e-21)
(0.728397 -0.0106024 -3.01182e-21)