/*--------------------------------*- C++ -*----------------------------------*\
  =========                 |
  \\      /  F ield         | OpenFOAM: The Open Source CFD Toolbox
   \\    /   O peration     | Website:  https://openfoam.org
    \\  /    A nd           | Version:  7
     \\/     M anipulation  |
\*---------------------------------------------------------------------------*/
FoamFile
{
    version     2.0;
    format      ascii;
    class       surfaceScalarField;
    location    "8.2";
    object      phi;
}
// * * * * * * * * * * * * * * * * * * * * * * * * * * * * * * * * * * * * * //

dimensions      [0 3 -1 0 0 0 0];

internalField   nonuniform List<scalar> 
35640
(
1.82095e-05
-0.000296192
0.000277982
6.52928e-05
-0.000607925
0.000560841
0.000137737
-0.000670457
0.000598012
0.000233509
-0.000542545
0.000446773
0.000351485
-0.000266197
0.000148221
0.000491057
0.000127269
-0.000266841
0.000651868
0.000613514
-0.000774325
0.000833635
0.00117317
-0.00135494
0.00103605
0.00179073
-0.00199315
0.00125869
0.00245351
-0.00267615
0.00150093
0.00315078
-0.00339302
0.00176189
0.0038732
-0.00413416
0.00204043
0.00461239
-0.00489093
0.00233509
0.00536062
-0.00565528
0.00264412
0.00611062
-0.00641965
0.00296546
0.00685547
-0.00717681
0.0032968
0.0075886
-0.00791994
0.00363562
0.00830378
-0.0086426
0.00397925
0.00899521
-0.00933884
0.00432494
0.0096576
-0.0100033
0.00466995
0.0102863
-0.0106313
0.00501161
0.0108772
-0.0112188
0.00534741
0.0114271
-0.0117629
0.00567509
0.0119334
-0.0122611
0.00599264
0.0123945
-0.012712
0.00629848
0.012809
-0.0131149
0.00659141
0.0131764
-0.0134694
0.00687079
0.0134958
-0.0137752
0.00713652
0.0137659
-0.0140316
0.0139819
0.0073891
-0.0142344
1.72388e-05
-0.000313431
6.15112e-05
-0.000652197
0.000129273
-0.000738219
0.000218605
-0.000631877
0.000328543
-0.000376134
0.000458615
-2.80228e-06
0.000608627
0.000463503
0.000778445
0.00100335
0.000967896
0.00160128
0.00117668
0.00224473
0.00140431
0.00292315
0.00165007
0.00362743
0.001913
0.00434946
0.00219184
0.00508178
0.00248506
0.0058174
0.00279084
0.00654969
0.00310711
0.00727233
0.00343159
0.00797929
0.00376185
0.00866495
0.00409536
0.00932409
0.00442954
0.00995208
0.00476186
0.0105449
0.00508993
0.011099
0.00541152
0.0116118
0.00572467
0.0120813
0.00602776
0.012506
0.00631955
0.0128847
0.00659929
0.0132161
0.00686672
0.0134984
0.0137266
0.00712197
1.6172e-05
-0.000329603
5.73884e-05
-0.000693413
0.000120145
-0.000800975
0.000202689
-0.00071442
0.00030427
-0.000477715
0.000424615
-0.000123147
0.000563699
0.000324419
0.00072152
0.000845528
0.000898035
0.00142477
0.00109308
0.00204969
0.00130629
0.00270993
0.00153711
0.00339662
0.0017847
0.00410187
0.002048
0.00481848
0.00232564
0.00553975
0.00261603
0.0062593
0.00291732
0.00697103
0.00322747
0.00766915
0.00354422
0.00834819
0.00386526
0.00900306
0.00418818
0.00962917
0.0045106
0.0102224
0.00483025
0.0107794
0.00514496
0.0112971
0.00545282
0.0117734
0.0057522
0.0122066
0.00604183
0.012595
0.00632088
0.0129371
0.00658892
0.0132304
0.0134698
0.00684572
1.50042e-05
-0.000344607
5.28202e-05
-0.000731229
0.000110172
-0.000858327
0.000185556
-0.000789805
0.000278464
-0.000570623
0.000388824
-0.000233506
0.000516795
0.000196448
0.000662544
0.00069978
0.000826151
0.00126116
0.00100757
0.00186827
0.00120657
0.00251093
0.00142269
0.00318049
0.00165526
0.0038693
0.00190333
0.00457041
0.00216573
0.00527735
0.00244103
0.005984
0.00272758
0.00668448
0.00302352
0.00737322
0.00332681
0.0080449
0.0036353
0.00869457
0.00394676
0.0093177
0.00425897
0.00991022
0.00456975
0.0104686
0.00487703
0.0109898
0.00517893
0.0114715
0.00547386
0.0119116
0.00576052
0.0123084
0.00603799
0.0126596
0.00630567
0.0129627
0.0132124
0.00656303
1.36737e-05
-0.000358281
4.77821e-05
-0.000765338
9.93569e-05
-0.000909902
0.000167194
-0.000857642
0.000251072
-0.000654501
0.000351178
-0.000333612
0.000467853
7.97724e-05
0.000601428
0.000566206
0.000752127
0.00111046
0.000920021
0.00170038
0.00110498
0.00232597
0.00130668
0.0029788
0.00152453
0.00365145
0.00175775
0.0043372
0.00200528
0.00502982
0.00226585
0.00572342
0.00253799
0.00641235
0.00282
0.00709121
0.00311002
0.00775487
0.00340607
0.00839852
0.00370609
0.00901768
0.00400797
0.00960833
0.00430966
0.0101669
0.00460918
0.0106903
0.00490472
0.011176
0.00519468
0.0116217
0.00547778
0.0120253
0.00575301
0.0123844
0.0060196
0.0126961
0.0129553
0.00627671
1.22019e-05
-0.000370483
4.22625e-05
-0.000795398
8.76511e-05
-0.00095529
0.000147551
-0.000917541
0.000222056
-0.000729006
0.000311621
-0.000423176
0.000416801
-2.54078e-05
0.000538105
0.000444902
0.000675892
0.000972674
0.000830349
0.00154592
0.00100146
0.00215486
0.00118899
0.00279127
0.00139247
0.00344797
0.0016112
0.00411846
0.00184428
0.00479674
0.00209056
0.00547714
0.00234871
0.0061542
0.00261718
0.00682273
0.00289428
0.00747778
0.00317816
0.00811463
0.00346692
0.00872893
0.00375858
0.00931667
0.00405119
0.00987429
0.00434287
0.0103986
0.00463185
0.010887
0.00491659
0.0113369
0.00519576
0.0117461
0.0054683
0.0121118
0.00573326
0.0124312
0.0126991
0.00598948
1.05594e-05
-0.000381042
3.62412e-05
-0.00082108
7.50586e-05
-0.000994107
0.000126634
-0.000969117
0.000191423
-0.000793794
0.00027018
-0.000501933
0.000363685
-0.000118913
0.000472621
0.000335967
0.000597497
0.000847798
0.000738618
0.0014048
0.000896068
0.00199741
0.0010697
0.00261764
0.00125916
0.00325851
0.00146383
0.00391379
0.00168292
0.00457766
0.0019154
0.00524465
0.00216005
0.00590954
0.00241548
0.00656731
0.00268012
0.00721314
0.00295226
0.00784249
0.00323012
0.00845106
0.00351186
0.00903494
0.00379561
0.00959054
0.00407958
0.0101147
0.00436207
0.0106045
0.00464154
0.0110575
0.00491666
0.011471
0.00518627
0.0118422
0.00544926
0.0121682
0.0124442
0.00570414
8.74572e-06
-0.000389788
2.97237e-05
-0.000842058
6.1587e-05
-0.00102597
0.000104472
-0.001012
0.000159231
-0.000848552
0.000226934
-0.000569636
0.0003086
-0.000200579
0.000405102
0.000239465
0.000517094
0.000735806
0.000644997
0.00127689
0.000788996
0.00185341
0.000949036
0.0024576
0.00112484
0.00308272
0.00131589
0.00372273
0.00152149
0.00437206
0.00174071
0.00502543
0.00197245
0.0056778
0.00221542
0.00632434
0.00246817
0.00696039
0.00272913
0.00758153
0.00299662
0.00818357
0.0032689
0.00876266
0.00354421
0.00931523
0.00382083
0.00983806
0.00409711
0.0103282
0.00437152
0.0107831
0.00464269
0.0111998
0.00490938
0.0115755
0.00517028
0.0119073
0.0121909
0.0054236
6.7584e-06
-0.000396546
2.27176e-05
-0.000858017
4.72699e-05
-0.00105052
8.11259e-05
-0.00104586
0.000125572
-0.000892998
0.000182011
-0.000626076
0.000251718
-0.000270285
0.000335753
0.000155431
0.000434919
0.00063664
0.000549755
0.00116206
0.000680541
0.00172262
0.000827311
0.00231083
0.000989863
0.00292016
0.00116778
0.00354482
0.00136043
0.00417941
0.00156699
0.00481887
0.00178645
0.00545834
0.00201763
0.00609317
0.00225917
0.00671884
0.00250963
0.00733107
0.00276741
0.00792579
0.00303087
0.00849919
0.00329835
0.00904775
0.00356817
0.00956824
0.00383873
0.0100577
0.0041085
0.0105133
0.00437607
0.0109323
0.00464008
0.0113115
0.00489902
0.0116483
0.0119392
0.0051508
4.60191e-06
-0.000401148
1.52463e-05
-0.000868661
3.21592e-05
-0.00106744
5.66861e-05
-0.00107038
9.05811e-05
-0.000926893
0.000135597
-0.000671092
0.000193269
-0.000327957
0.000264852
8.38488e-05
0.000351296
0.000550196
0.000453257
0.0010601
0.00057111
0.00160477
0.000704971
0.00217696
0.000854719
0.00277042
0.00102001
0.00337952
0.00120031
0.00399911
0.00139486
0.00462432
0.00160274
0.00525046
0.00182286
0.00587305
0.00205397
0.00648773
0.0022947
0.00709034
0.00254357
0.00767693
0.002799
0.00824375
0.00305941
0.00878734
0.00332318
0.00930447
0.00358872
0.00979214
0.0038545
0.0102475
0.00411904
0.0106677
0.00438085
0.0110497
0.00463821
0.011391
0.0116887
0.0048887
2.28578e-06
-0.000403434
7.34248e-06
-0.000873717
1.63263e-05
-0.00107642
3.12735e-05
-0.00108533
5.4434e-05
-0.000950053
8.79237e-05
-0.000704581
0.000133545
-0.000373578
0.000192747
2.46472e-05
0.000266628
0.000476315
0.000355958
0.000970767
0.000461205
0.00149952
0.000582566
0.0020556
0.000719998
0.00263298
0.000873237
0.00322628
0.00104181
0.00383054
0.00122504
0.00444108
0.0014221
0.00505341
0.00163197
0.00566318
0.0018535
0.0062662
0.00208539
0.00685845
0.00232624
0.00743607
0.00257457
0.00799542
0.00282883
0.00853308
0.00308745
0.00904584
0.00334887
0.00953073
0.0036115
0.00998487
0.0038738
0.0104054
0.00413413
0.0107894
0.00439053
0.0111346
0.0114389
0.00464027
-1.78625e-07
-0.000403255
-9.48907e-07
-0.000872947
-1.36624e-07
-0.00107723
5.03622e-06
-0.0010905
1.73417e-05
-0.000962359
3.92688e-05
-0.000726508
7.28902e-05
-0.000407199
0.000119849
-2.2311e-05
0.000181389
0.000414776
0.000258392
0.000893763
0.000351418
0.0014065
0.000460743
0.00194628
0.0005864
0.00250733
0.000728195
0.00308449
0.000885723
0.00367301
0.00105839
0.00426841
0.00124544
0.00486636
0.00144594
0.00546269
0.0016588
0.00605335
0.00188281
0.00663444
0.00211665
0.00720223
0.0023589
0.00775318
0.00260806
0.00828391
0.0028626
0.0087913
0.00312094
0.00927239
0.00338148
0.00972433
0.00364255
0.0101443
0.00390234
0.0105296
0.00415866
0.0108782
0.0111891
0.00440846
-2.77247e-06
-0.000400482
-9.57442e-06
-0.000866145
-1.71206e-05
-0.00106969
-2.18512e-05
-0.00108577
-2.04499e-05
-0.00096376
-1.00479e-05
-0.00073691
1.1698e-05
-0.000428944
4.66235e-05
-5.72361e-05
9.61154e-05
0.000365284
0.000161165
0.000828713
0.000242419
0.00132525
0.000340234
0.00184846
0.000454715
0.00239285
0.000585734
0.00295347
0.000732959
0.00352579
0.000895871
0.0041055
0.00107378
0.00468845
0.00126582
0.00527064
0.00147099
0.00584817
0.00168817
0.00641727
0.00191608
0.00697432
0.00215337
0.00751588
0.0023986
0.00803868
0.00265025
0.00853966
0.00290672
0.00901591
0.00316636
0.00946469
0.00342739
0.00988332
0.00368783
0.0102691
0.0039452
0.0106209
0.0109382
0.00419615
-5.47875e-06
-0.000395004
-1.84696e-05
-0.000853154
-3.44995e-05
-0.00105366
-4.91905e-05
-0.00107108
-5.86647e-05
-0.000954286
-5.96699e-05
-0.000735904
-4.95946e-05
-0.000439019
-2.64129e-05
-8.04175e-05
1.14011e-05
0.00032747
6.49438e-05
0.000775171
0.000134948
0.00125524
0.000221846
0.00176156
0.000325812
0.00228888
0.000446785
0.0028325
0.000584502
0.00338807
0.000738513
0.00395149
0.000908196
0.00451877
0.00109277
0.00508607
0.0012913
0.00564964
0.00150273
0.00620584
0.00172586
0.00675119
0.0019594
0.00728234
0.00220194
0.00779614
0.00245198
0.00828962
0.00270792
0.00875997
0.00296803
0.00920458
0.0032304
0.00962094
0.00349286
0.0100067
0.00375268
0.0103611
0.0106847
0.00400617
-8.27433e-06
-0.000386729
-2.75615e-05
-0.000833867
-5.21323e-05
-0.00102908
-7.67615e-05
-0.00104645
-9.69986e-05
-0.000934049
-0.000109208
-0.000723695
-0.000110513
-0.000437713
-9.87019e-05
-9.22285e-05
-7.21136e-05
0.000300882
-2.95523e-05
0.000732609
2.97993e-05
0.00119589
0.000106447
0.00168492
0.000200629
0.0021947
0.000312353
0.00272077
0.00044142
0.003259
0.000587448
0.00380546
0.000749884
0.00435633
0.000928019
0.00490793
0.001121
0.00545666
0.00132782
0.00599902
0.00154738
0.00653163
0.00177842
0.0070513
0.00201959
0.00755498
0.00226939
0.00803981
0.00252622
0.00850314
0.00278828
0.00894252
0.00305353
0.00935569
0.0033196
0.00974061
0.00358349
0.0100972
0.010427
0.00384118
-1.11338e-05
-0.000375595
-3.67688e-05
-0.000808231
-6.98635e-05
-0.00099599
-0.000104324
-0.00101199
-0.000135122
-0.00090325
-0.000158243
-0.000700574
-0.00017055
-0.000425406
-0.000169648
-9.31296e-05
-0.000153749
0.000284983
-0.000121561
0.00070042
-7.21837e-05
0.00114651
-5.0434e-06
0.00161778
8.01624e-05
0.00210949
0.000183502
0.00261743
0.000304843
0.00313766
0.000443866
0.00366644
0.00060009
0.00420011
0.000772872
0.00473515
0.000961429
0.0052681
0.00116484
0.0057956
0.00138206
0.00631442
0.00161189
0.00682146
0.00185304
0.00731383
0.00210404
0.00778881
0.00236325
0.00824393
0.00262883
0.00867694
0.00289863
0.0090859
0.00317006
0.00946918
0.00343987
0.00982735
0.0101631
0.00370372
-1.40289e-05
-0.000361566
-4.60025e-05
-0.000776258
-8.75247e-05
-0.000954467
-0.00013162
-0.000967898
-0.000172686
-0.000862184
-0.00020633
-0.000666929
-0.000229167
-0.000402569
-0.000238625
-8.36714e-05
-0.000232792
0.00027915
-0.000210281
0.00067791
-0.000170118
0.00110635
-0.00011166
0.00155932
-3.45466e-05
0.00203238
6.13514e-05
0.00252153
0.00017596
0.00302305
0.000309024
0.00353337
0.000460124
0.00404901
0.000628688
0.00456659
0.000814004
0.00508279
0.00101522
0.00559438
0.00123137
0.00609827
0.00146132
0.00659151
0.00170382
0.00707133
0.00195745
0.00753519
0.00222058
0.0079808
0.00249132
0.0084062
0.00276741
0.00880981
0.0030461
0.00919049
0.00332389
0.00954956
0.00989095
0.00359608
-1.69289e-05
-0.000344637
-5.51667e-05
-0.00073802
-0.000104936
-0.000904698
-0.000158376
-0.000914458
-0.000209317
-0.000811243
-0.000253003
-0.000623243
-0.000285802
-0.000369769
-0.000304977
-6.44967e-05
-0.000308495
0.000282668
-0.000294881
0.000664295
-0.000263085
0.00107455
-0.000212402
0.00150864
-0.000142414
0.00196239
-5.29381e-05
0.00243206
5.60078e-05
0.00291411
0.000184226
0.00340515
0.000331358
0.00390188
0.000496896
0.00440105
0.000680195
0.00489949
0.000880479
0.0053941
0.00109684
0.00588191
0.00132823
0.00636011
0.00157347
0.00682609
0.00183117
0.00727748
0.00209974
0.00771222
0.00237729
0.00812866
0.00266148
0.00852562
0.00294942
0.00890255
0.00323737
0.00926161
0.00960801
0.0035203
-1.98009e-05
-0.000324836
-6.41595e-05
-0.000693661
-0.000121907
-0.00084695
-0.000184304
-0.000852061
-0.00024463
-0.000750917
-0.000297773
-0.000570099
-0.00033987
-0.000327672
-0.000368022
-3.63437e-05
-0.000380087
0.000294732
-0.000374497
0.000658705
-0.000350133
0.00105019
-0.000306232
0.00146473
-0.000242321
0.00189848
-0.000158164
0.0023479
-5.37315e-05
0.00280968
7.08321e-05
0.00328059
0.000215221
0.00375749
0.000378986
0.00423729
0.000561544
0.00471693
0.000762185
0.00519346
0.000980073
0.00566403
0.00121424
0.00612595
0.00146357
0.00657677
0.00172676
0.00701429
0.00200227
0.00743671
0.00228823
0.00784269
0.0025823
0.00823155
0.0028815
0.00860335
0.00318189
0.00896122
0.00931177
0.00347813
-2.26098e-05
-0.000302226
-7.28737e-05
-0.000643397
-0.00013824
-0.000781584
-0.000209106
-0.000781195
-0.000278219
-0.000681804
-0.000340132
-0.000508186
-0.00039076
-0.000277044
-0.000427055
-4.85468e-08
-0.000446764
0.000314441
-0.000448235
0.000660175
-0.000430281
0.00103223
-0.00039208
0.00142653
-0.000333108
0.00183951
-0.000253083
0.00226788
-0.00015193
0.00270852
-2.97485e-05
0.00315841
0.000113201
0.00361454
0.000276518
0.00407397
0.000459673
0.00453377
0.000662013
0.00499112
0.000882768
0.00544327
0.00112104
0.00588767
0.0013758
0.006322
0.00164584
0.00674425
0.00192971
0.00715284
0.00222562
0.00754679
0.00253128
0.00792589
0.00284368
0.00829095
0.00315877
0.00864613
0.00899959
0.00347095
-2.53187e-05
-0.000276907
-8.11978e-05
-0.000587518
-0.000153728
-0.000709054
-0.000232469
-0.000702454
-0.000309667
-0.000604607
-0.000379556
-0.000438296
-0.000437845
-0.000218755
-0.000481344
4.34511e-05
-0.000507698
0.000340794
-0.00051517
0.000667648
-0.000502508
0.00101957
-0.000468834
0.00139286
-0.000413574
0.00178425
-0.000336404
0.00219071
-0.000237206
0.00260933
-0.000116045
0.00303725
2.6856e-05
0.00347164
0.000191135
0.00390969
0.000376299
0.00434861
0.000581741
0.00478568
0.000806744
0.00521827
0.00105048
0.00564394
0.00131199
0.00606049
0.00159018
0.00646606
0.00188373
0.0068593
0.00219097
0.00723954
0.00250974
0.00760712
0.00283713
0.00796357
0.00316905
0.00831421
0.00866892
0.00349972
-2.78897e-05
-0.000249018
-8.90171e-05
-0.000526391
-0.000168158
-0.000629913
-0.000254076
-0.000616535
-0.000338544
-0.000520139
-0.000415503
-0.000361337
-0.000480472
-0.000153786
-0.00053013
9.31096e-05
-0.000562023
0.000372687
-0.000574337
0.000679961
-0.00056575
0.00101098
-0.000535333
0.00136244
-0.000482464
0.00173138
-0.000406774
0.00211502
-0.000308114
0.00251066
-0.000186514
0.00291565
-4.21712e-05
0.0033273
0.000124574
0.00374294
0.000313254
0.00415993
0.000523287
0.00457564
0.000753988
0.00498757
0.00100457
0.00539335
0.00127416
0.0057909
0.00156175
0.00617847
0.00186616
0.00655489
0.00218592
0.00691978
0.00251909
0.00727395
0.00286295
0.00761971
0.00321354
0.00796361
0.00831746
0.00356501
-3.0284e-05
-0.000218734
-9.62146e-05
-0.00046046
-0.000181315
-0.000544812
-0.000273602
-0.000524249
-0.000364411
-0.000429329
-0.000447417
-0.00027833
-0.000517968
-8.32352e-05
-0.000572625
0.000147766
-0.000608839
0.000408902
-0.000624722
0.000695843
-0.000618889
0.00100515
-0.000590354
0.00133391
-0.000538449
0.00167947
-0.000462766
0.00203933
-0.000363119
0.00241102
-0.000239515
0.00279204
-9.21341e-05
0.00317992
7.86976e-05
0.00357211
0.000272516
0.00396611
0.000488742
0.00435942
0.000726693
0.00474962
0.0009856
0.00513445
0.00126462
0.00551188
0.00156282
0.00588027
0.00187917
0.00623854
0.0022124
0.00658655
0.00256087
0.00692547
0.00292223
0.00725835
0.00329285
0.00759299
0.00794331
0.00366699
-3.24628e-05
-0.000186271
-0.000102673
-0.00039025
-0.000192983
-0.000454503
-0.000290717
-0.000426515
-0.000386822
-0.000333225
-0.00047473
-0.000190421
-0.000549641
-8.32403e-06
-0.000608009
0.000206134
-0.000647202
0.000448095
-0.00066526
0.0007139
-0.000660736
0.00100063
-0.000632592
0.00130576
-0.00058011
0.00162699
-0.000502843
0.00196207
-0.000400572
0.00230875
-0.000273282
0.00266475
-0.000121139
0.00302777
5.55292e-05
0.00339544
0.000256248
0.00376539
0.000480414
0.00413525
0.000727314
0.00450272
0.000996147
0.00486561
0.00128605
0.00522198
0.00159611
0.00557021
0.00192536
0.00590929
0.00227277
0.00623915
0.00263703
0.00656121
0.00301629
0.00687909
0.00340753
0.00720176
0.00754536
0.00380548
-3.43875e-05
-0.000151883
-0.000108277
-0.000316361
-0.000202945
-0.000359835
-0.000305096
-0.000324364
-0.000405326
-0.000232994
-0.000496864
-9.88835e-05
-0.000574779
6.95913e-05
-0.000635435
0.00026679
-0.000676123
0.000488783
-0.000694822
0.000732598
-0.000690026
0.000995832
-0.000660643
0.00127638
-0.00060591
0.00157226
-0.000525336
0.00188149
-0.00041867
0.00220208
-0.000285875
0.00253196
-0.000127106
0.002869
5.73017e-05
0.00321104
0.000266851
0.00355584
0.000500893
0.00390121
0.000758646
0.00424496
0.00103922
0.00458504
0.00134165
0.00491955
0.00166494
0.00524692
0.0020081
0.00556612
0.00237019
0.00587706
0.00275023
0.00618118
0.00314699
0.00648233
0.00355841
0.00679033
0.00712353
0.00398025
-3.60209e-05
-0.000115863
-0.000112914
-0.000239467
-0.000210993
-0.000261757
-0.000316414
-0.000218943
-0.000419477
-0.000129931
-0.000513236
-5.12428e-06
-0.000592656
0.000149011
-0.000654024
0.000328157
-0.000694569
0.000529329
-0.000712213
0.000750242
-0.000705401
0.000989019
-0.00067299
0.00124397
-0.00061417
0.00151344
-0.000528407
0.00179573
-0.000415418
0.00208909
-0.000275139
0.00239168
-0.000107714
0.00270158
8.6518e-05
0.0030168
0.000307031
0.00333533
0.000553118
0.00365512
0.000823899
0.00397418
0.00111834
0.0042906
0.00143529
0.0046026
0.00177352
0.00490869
0.00213182
0.00520783
0.00250909
0.00549978
0.00290451
0.00578576
0.00331746
0.00606938
0.00374726
0.00636054
0.00667928
0.00419151
-3.7328e-05
-7.85346e-05
-0.000116478
-0.000160317
-0.000216925
-0.00016131
-0.00032436
-0.000111508
-0.000428836
-2.54555e-05
-0.000523268
8.93087e-05
-0.00060254
0.000228283
-0.00066288
0.000388497
-0.000701467
0.000567915
-0.000716178
0.000764953
-0.000705416
0.000978257
-0.000667993
0.00120655
-0.000603054
0.0014485
-0.000510028
0.0017027
-0.000388593
0.00196766
-0.000238656
0.00224174
-6.03425e-05
0.00252327
0.000146012
0.00281045
0.000379864
0.00310148
0.00064045
0.00339454
0.000926787
0.00368785
0.00123767
0.00397972
0.00157166
0.0042686
0.00192717
0.00455318
0.00230247
0.00483252
0.00269596
0.0051063
0.00310641
0.00537531
0.00353348
0.00564231
0.00397812
0.00591589
0.0062161
0.0044413
-3.8277e-05
-4.02576e-05
-0.000118871
-7.97236e-05
-0.000220554
-5.96266e-05
-0.000328638
-3.42403e-06
-0.000432981
7.88876e-05
-0.000526397
0.000182724
-0.000603707
0.000305593
-0.000661099
0.00044589
-0.000695718
0.000602534
-0.000705409
0.000774643
-0.000688541
0.000961389
-0.000643893
0.0011619
-0.000570572
0.00137518
-0.00046797
0.0016001
-0.000335728
0.00183541
-0.00017372
0.00207974
1.79575e-05
0.00233159
0.000238992
0.00258942
0.00048884
0.00285163
0.000766717
0.00311666
0.00107157
0.003383
0.00140202
0.00364926
0.00175638
0.00391424
0.00213256
0.00417701
0.00252809
0.00443699
0.0029403
0.00469409
0.00336671
0.0049489
0.00380598
0.00520304
0.00426012
0.00546176
0.00573922
0.00473699
-3.88405e-05
-1.41725e-06
-0.000120006
1.44198e-06
-0.000221712
4.20793e-05
-0.000328978
0.000103842
-0.000431521
0.00018143
-0.000522084
0.000273288
-0.000595452
0.00037896
-0.000647788
0.000498226
-0.000676218
0.000630964
-0.00067857
0.000776995
-0.000653194
0.000936013
-0.000598843
0.00110755
-0.000514599
0.00129093
-0.000399825
0.00148533
-0.000254128
0.00168972
-7.73469e-05
0.00190295
0.000130464
0.00212378
0.000369033
0.00235085
0.000637859
0.0025828
0.000936188
0.00281833
0.00126297
0.00305621
0.00161681
0.00329542
0.00199585
0.0035352
0.00239765
0.00377521
0.002819
0.00401564
0.00325584
0.00425725
0.00370339
0.00450135
0.00415687
0.00474956
0.00461501
0.00500362
0.00525194
0.00510229
-3.89956e-05
3.75783e-05
-0.000119812
8.2258e-05
-0.000220254
0.000142521
-0.000325142
0.00020873
-0.000424099
0.000280387
-0.000509835
0.000359024
-0.000577113
0.000446239
-0.000622092
0.000543205
-0.000641893
0.000650765
-0.000634341
0.000769443
-0.000597781
0.000899452
-0.000530957
0.00104072
-0.00043294
0.00119291
-0.000303073
0.00135546
-0.000140941
0.00152758
5.36517e-05
0.00170836
0.0002807
0.00189673
0.000539994
0.00209155
0.000831116
0.00229168
0.00115342
0.00249602
0.001506
0.00270363
0.00188763
0.00291379
0.00229666
0.00312617
0.00273085
0.00334102
0.00318713
0.00355936
0.00366126
0.00378312
0.00414758
0.00401504
0.00463816
0.00425898
0.00512231
0.00451946
0.00560638
0.00476788
0.00757653
0.080628
-0.0808154
0.00742354
0.081344
-0.081191
0.00714291
0.0784913
-0.0782106
0.00684634
0.0744056
-0.074109
0.0065985
0.0701634
-0.0699156
0.00640936
0.0663406
-0.0661515
0.00626421
0.0631194
-0.0629742
0.00614103
0.0604718
-0.0603486
0.00602081
0.0583307
-0.0582105
0.00589029
0.0566272
-0.0564967
0.0057432
0.0553213
-0.0551742
0.00557741
0.0543746
-0.0542088
0.00539332
0.0537537
-0.0535697
0.00519205
0.0534082
-0.0532069
0.00497509
0.0532842
-0.0530672
0.00474342
0.0533291
-0.0530974
0.00449815
0.0534936
-0.0532484
0.00424075
0.0537366
-0.0534792
0.00397231
0.0540297
-0.0537613
0.0036941
0.0543494
-0.0540712
0.00340744
0.0546774
-0.0543907
0.00311349
0.0550028
-0.0547088
0.00281313
0.0553153
-0.0550149
0.00250734
0.0556056
-0.0552998
0.0021963
0.0558715
-0.0555604
0.00188045
0.0561036
-0.0557878
0.00155919
0.0563092
-0.055988
0.00123272
0.0564881
-0.0561617
0.000902255
0.0566479
-0.0563175
0.0567419
-0.0564111
0.00742619
0.0803237
0.00736445
0.0814058
0.00714888
0.0787068
0.00689561
0.0746589
0.00667618
0.0703829
0.00650702
0.0665098
0.0063773
0.0632491
0.00626667
0.0605824
0.00615607
0.0584413
0.00603234
0.0567509
0.00588889
0.0554648
0.0057243
0.0545392
0.00553896
0.0539391
0.00533481
0.0536123
0.00511311
0.0535059
0.00487558
0.0535666
0.00462358
0.0537456
0.00435853
0.0540016
0.00408173
0.0543065
0.00379487
0.0546363
0.00349891
0.0549733
0.00319539
0.0553063
0.00288526
0.0556254
0.00256912
0.0559218
0.00224787
0.0561927
0.00192123
0.0564302
0.0015893
0.0566412
0.00125202
0.0568254
0.000910721
0.0569892
0.0570835
0.00726418
0.0799053
0.00729398
0.081376
0.00714441
0.0788564
0.0069355
0.0748678
0.00674549
0.0705729
0.00659744
0.0666578
0.00648435
0.0633622
0.00638763
0.0606791
0.00628799
0.058541
0.00617237
0.0568666
0.00603364
0.0556035
0.00587105
0.0547018
0.00568498
0.0541252
0.00547828
0.053819
0.00525209
0.0537321
0.00500883
0.0538099
0.00475012
0.0540043
0.00447736
0.0542744
0.00419216
0.0545917
0.00389653
0.0549319
0.00359115
0.0552787
0.00327794
0.0556195
0.00295791
0.0559455
0.00263133
0.0562483
0.00229978
0.0565243
0.00196228
0.0567677
0.0016196
0.0569839
0.00127147
0.0571735
0.000919263
0.0573415
0.057436
0.00709212
0.0793762
0.0072131
0.081255
0.00712972
0.0789398
0.00696581
0.0750317
0.00680607
0.0707326
0.00668012
0.0667838
0.00658491
0.0634574
0.00650349
0.0607605
0.00641637
0.0586281
0.00631016
0.0569728
0.0061773
0.0557364
0.00601741
0.0548617
0.00583135
0.0543112
0.00562238
0.054028
0.00539207
0.0539624
0.00514316
0.0540588
0.00487772
0.0542698
0.00459724
0.0545549
0.00430364
0.0548853
0.00399901
0.0552365
0.00368423
0.0555935
0.00336121
0.0559425
0.00303108
0.0562756
0.00269412
0.0565853
0.00235194
0.0568665
0.00200366
0.057116
0.00165006
0.0573375
0.00129105
0.0575325
0.000927919
0.0577046
0.0577996
0.00691183
0.0787411
0.00712278
0.081044
0.0071052
0.0789574
0.00698654
0.0751503
0.00685759
0.0708616
0.00675465
0.0668867
0.00667864
0.0635334
0.00661397
0.0608252
0.00654084
0.0587012
0.00644535
0.0570683
0.00631965
0.0558621
0.00616333
0.055018
0.00597796
0.0544966
0.00576699
0.054239
0.00553291
0.0541965
0.00527855
0.0543132
0.00500634
0.054542
0.00471818
0.054843
0.00441617
0.0551873
0.00410239
0.0555503
0.00377815
0.0559177
0.00344518
0.0562755
0.00310478
0.056616
0.00275743
0.0569326
0.00240441
0.0572195
0.00204539
0.057475
0.00168075
0.0577021
0.00131078
0.0579025
0.000936699
0.0580787
0.0581744
0.00672533
0.0780052
0.00702431
0.080745
0.00707136
0.0789103
0.00699774
0.075224
0.00689984
0.0709595
0.0068207
0.0669658
0.0067651
0.063589
0.00671868
0.0608716
0.00666111
0.0587588
0.00657776
0.0571516
0.00646044
0.0559794
0.00630863
0.0551698
0.00612461
0.0546806
0.00591212
0.0544515
0.00567451
0.0544341
0.00541488
0.0545728
0.00513601
0.0548209
0.00484016
0.0551389
0.00452971
0.0554978
0.00420671
0.0558733
0.0038729
0.0562515
0.00352989
0.0566185
0.00317909
0.0569668
0.00282123
0.0572905
0.00245729
0.0575834
0.00208742
0.0578449
0.0017117
0.0580778
0.00133068
0.0582835
0.0009456
0.0584637
0.0585604
0.00653476
0.0771746
0.00691911
0.0803607
0.00702892
0.0788005
0.00699963
0.0752532
0.00693275
0.0710264
0.00687801
0.0670206
0.00684396
0.0636231
0.00681727
0.0608983
0.00677687
0.0587992
0.00670713
0.0572213
0.00659946
0.0560871
0.00645311
0.0553161
0.00627112
0.0548626
0.00605763
0.054665
0.00581678
0.0546749
0.00555209
0.0548375
0.00526667
0.0551063
0.00496318
0.0554424
0.00464423
0.0558167
0.004312
0.0562055
0.00396849
0.056595
0.00361535
0.0569717
0.00325406
0.0573281
0.00288555
0.057659
0.00251063
0.0579584
0.00212978
0.0582257
0.00174292
0.0584647
0.00135078
0.0586757
0.000954633
0.0588599
0.0589577
0.00634239
0.0762558
0.00680877
0.0798943
0.00697881
0.0786305
0.00699258
0.0752395
0.00695632
0.0710626
0.0069264
0.0670505
0.00691495
0.0636345
0.00690942
0.0609038
0.00688782
0.0588208
0.00683321
0.057276
0.00673645
0.0561838
0.00659658
0.055456
0.00641733
0.0550418
0.00620338
0.0548789
0.00595961
0.0549187
0.00569007
0.055107
0.00539826
0.0553981
0.00508717
0.0557535
0.00475971
0.0561442
0.00441824
0.056547
0.00406493
0.0569484
0.00370158
0.057335
0.00332969
0.0577
0.00295042
0.0580383
0.00256443
0.0583444
0.0021725
0.0586177
0.00177444
0.0588627
0.0013711
0.059079
0.00096381
0.0592672
0.0593665
0.00615064
0.075256
0.00669504
0.0793499
0.00692214
0.0784034
0.0069772
0.0751844
0.00697077
0.071069
0.00696582
0.0670555
0.00697788
0.0636224
0.00699488
0.0608868
0.00699369
0.058822
0.00695571
0.0573139
0.00687118
0.0562683
0.00673882
0.0555884
0.00656305
0.0552176
0.00634919
0.0550928
0.00610286
0.055165
0.00582873
0.0553812
0.00553067
0.0556962
0.00521208
0.0560721
0.00487612
0.0564802
0.0045254
0.0568977
0.00416222
0.0573115
0.00378858
0.0577086
0.00340601
0.0580825
0.00301587
0.0584284
0.00261872
0.0587415
0.00221559
0.0590208
0.00180629
0.059272
0.00139166
0.0594936
0.000973151
0.0596857
0.0597867
0.00596205
0.0741826
0.00657983
0.0787321
0.00686028
0.0781229
0.00695429
0.0750904
0.00697649
0.0710468
0.00699638
0.0670356
0.00703266
0.0635862
0.00707347
0.060846
0.00709421
0.0588012
0.00707439
0.0573338
0.00700339
0.0563393
0.00687961
0.0557121
0.00670808
0.0553891
0.00649488
0.055306
0.00624639
0.0554135
0.00596792
0.0556596
0.0056638
0.0560003
0.00533784
0.056398
0.00499341
0.0568246
0.00463345
0.0572577
0.00426036
0.0576846
0.00387636
0.0580926
0.00348302
0.0584759
0.00308191
0.0588295
0.00267353
0.0591499
0.00225908
0.0594353
0.00183847
0.0596927
0.00141251
0.0599196
0.000982678
0.0601155
0.0602186
0.0057793
0.0730436
0.00646525
0.0780462
0.00679477
0.0777934
0.00692488
0.0749603
0.00697409
0.0709976
0.00701832
0.0669913
0.0070793
0.0635252
0.00714504
0.0607803
0.00718916
0.0587571
0.007189
0.0573339
0.00713284
0.0563955
0.0070187
0.0558263
0.00685222
0.0555556
0.00664025
0.0555179
0.00639002
0.0556637
0.00610752
0.0559421
0.00579752
0.0563103
0.00546435
0.0567312
0.00511151
0.0571774
0.00474233
0.0576269
0.00435933
0.0580676
0.00396491
0.0584871
0.00356074
0.05888
0.00314855
0.0592417
0.00272888
0.0595695
0.00230302
0.0598611
0.00187103
0.0601246
0.00143364
0.060357
0.000992415
0.0605567
0.0606622
0.00560518
0.0718469
0.00635354
0.0772978
0.00672745
0.0774195
0.00689028
0.0747975
0.00696441
0.0709235
0.00703211
0.0669236
0.00711796
0.0634393
0.00720953
0.0606887
0.00727837
0.0586883
0.0072993
0.057313
0.00725927
0.0564355
0.00715586
0.0559297
0.00699523
0.0557162
0.0067851
0.0557281
0.00653356
0.0559153
0.00624735
0.0562283
0.00593172
0.0566259
0.00559148
0.0570714
0.00523036
0.0575386
0.00485198
0.0580052
0.00445908
0.0584605
0.0040542
0.058892
0.00363916
0.0592951
0.0032158
0.0596651
0.00278478
0.0600006
0.00234741
0.0602985
0.00190397
0.0605681
0.00145509
0.0608059
0.00100238
0.0610094
0.0611176
0.00544254
0.0706005
0.00624711
0.0764933
0.00666037
0.0770062
0.00685205
0.0746058
0.00694855
0.070827
0.0070384
0.0668338
0.00714893
0.0633288
0.00726699
0.0605707
0.00736169
0.0585936
0.00740507
0.0572696
0.00738243
0.0564582
0.00729085
0.0560213
0.00713689
0.0558702
0.00692922
0.0559357
0.00667683
0.0561677
0.00638724
0.0565179
0.00606624
0.0569469
0.00571912
0.0574185
0.00534984
0.0579078
0.00496234
0.0583927
0.00455958
0.0588633
0.00414421
0.0593073
0.00371826
0.059721
0.00328366
0.0600997
0.00284124
0.060443
0.00239227
0.0607475