/*--------------------------------*- C++ -*----------------------------------*\
  =========                 |
  \\      /  F ield         | OpenFOAM: The Open Source CFD Toolbox
   \\    /   O peration     | Website:  https://openfoam.org
    \\  /    A nd           | Version:  7
     \\/     M anipulation  |
\*---------------------------------------------------------------------------*/
FoamFile
{
    version     2.0;
    format      ascii;
    class       surfaceScalarField;
    location    "8.3";
    object      phi;
}
// * * * * * * * * * * * * * * * * * * * * * * * * * * * * * * * * * * * * * //

dimensions      [0 3 -1 0 0 0 0];

internalField   nonuniform List<scalar> 
35640
(
1.8308e-05
-0.000298765
0.000280457
6.58625e-05
-0.000618087
0.000570533
0.000139299
-0.000689421
0.000615985
0.000236673
-0.000570777
0.000473402
0.000356916
-0.000303489
0.000183246
0.000499428
8.16408e-05
-0.000224152
0.000663861
0.000560449
-0.000724882
0.000849971
0.00111383
-0.00129994
0.00105746
0.00172643
-0.00193391
0.00128589
0.0023856
-0.00261404
0.00153467
0.00308069
-0.00332946
0.00180292
0.00380238
-0.00407062
0.00208947
0.00454231
-0.00482886
0.00239284
0.00529271
-0.00559609
0.00271125
0.00604628
-0.00636469
0.00304259
0.00679602
-0.00712735
0.00338447
0.00753524
-0.00787712
0.00373427
0.00825761
-0.00860742
0.00408923
0.00895718
-0.00931214
0.00444649
0.00962849
-0.00998575
0.00480316
0.0102667
-0.0106234
0.00515646
0.0108676
-0.0112209
0.00550374
0.0114277
-0.011775
0.00584261
0.0119444
-0.0122832
0.00617097
0.0124157
-0.012744
0.00648708
0.0128403
-0.0131564
0.00678966
0.0132176
-0.0135202
0.00707798
0.0135466
-0.0138349
0.00735188
0.0138258
-0.0140997
0.0140505
0.00761181
-0.0143105
1.73872e-05
-0.000316152
6.22181e-05
-0.000662919
0.000131088
-0.00075829
0.000222116
-0.000661805
0.000334373
-0.000415746
0.000467432
-5.14172e-05
0.000621085
0.000406797
0.000795208
0.000939705
0.000989642
0.00153199
0.0012041
0.00217114
0.00143811
0.00284668
0.00169095
0.00354954
0.00196165
0.00427161
0.00224895
0.00500541
0.00255127
0.00574395
0.00286677
0.00648052
0.00319331
0.0072087
0.00352855
0.00792237
0.00386996
0.00861577
0.00421488
0.00928357
0.00456065
0.00992093
0.0049046
0.0105236
0.00524422
0.0110881
0.00557716
0.0116114
0.00590133
0.0120915
0.00621498
0.0125267
0.00651679
0.0129158
0.00680589
0.0132575
0.00708195
0.0135497
0.0137874
0.0073451
1.63799e-05
-0.000332532
5.82423e-05
-0.000704781
0.000122201
-0.000822249
0.000206538
-0.000746141
0.000310515
-0.000519723
0.000433888
-0.00017479
0.000576607
0.000264077
0.000738696
0.000777616
0.000920125
0.00135056
0.00112072
0.00197054
0.00134015
0.00262725
0.00157784
0.00331185
0.00183297
0.00401648
0.00210445
0.00473394
0.00239092
0.00545749
0.00269074
0.0061807
0.00300202
0.00689742
0.00332263
0.00760176
0.00365027
0.00828813
0.00398252
0.00895132
0.00431687
0.00958658
0.00465084
0.0101896
0.00498202
0.0107569
0.00530813
0.0112853
0.00562713
0.0117725
0.00593728
0.0122165
0.00623719
0.0126159
0.00652594
0.0129687
0.00680301
0.0132727
0.0135222
0.0070682
1.5258e-05
-0.00034779
5.38075e-05
-0.00074333
0.000112467
-0.000880909
0.000189737
-0.000823411
0.000285096
-0.000615082
0.000398516
-0.000288209
0.00053013
0.000132463
0.0006801
0.000627647
0.000848533
0.00118213
0.00103539
0.00178369
0.00124044
0.00242221
0.00146323
0.00308906
0.00170308
0.00377662
0.00195907
0.00447795
0.00222999
0.00518656
0.00251441
0.00589628
0.00281062
0.00660121
0.00311671
0.00729566
0.00343059
0.00797425
0.00375003
0.00863189
0.0040727
0.0092639
0.00439628
0.00986607
0.00471847
0.0104347
0.0050371
0.0109667
0.00535017
0.0114594
0.00565596
0.0119107
0.00595307
0.0123188
0.00624048
0.0126813
0.00651754
0.0129956
0.0132561
0.00678368
1.39777e-05
-0.000361768
4.89064e-05
-0.000778259
0.000101869
-0.000933872
0.000171669
-0.000893211
0.000258061
-0.000701474
0.000361237
-0.000391385
0.000481534
1.2166e-05
0.000619282
0.000489899
0.000774717
0.0010267
0.000947913
0.00161049
0.00113875
0.00223137
0.00134689
0.00288091
0.00157179
0.00355173
0.00181263
0.00423711
0.00206836
0.00493082
0.00233772
0.00562693
0.00261917
0.00631976
0.00291098
0.00700385
0.00321125
0.00767398
0.00351792
0.00832521
0.00382886
0.00895297
0.00414186
0.00955307
0.00445476
0.0101218
0.00476549
0.010656
0.00507212
0.0111528
0.00537294
0.0116099
0.00566655
0.0120252
0.00595186
0.012396
0.00622805
0.0127194
0.0129899
0.00649424
1.25451e-05
-0.000374313
4.35034e-05
-0.000809217
9.03615e-05
-0.00098073
0.000152283
-0.000955132
0.000229333
-0.000778523
0.000321964
-0.000484016
0.000430732
-9.66018e-05
0.000556135
0.000364497
0.000698543
0.000884286
0.000858152
0.00145088
0.00103495
0.00205458
0.0012287
0.00268716
0.00143894
0.00334148
0.00166501
0.00401105
0.00190596
0.00468987
0.00216066
0.00537223
0.00242774
0.00605268
0.00270563
0.00672596
0.00299259
0.00738702
0.00328673
0.00803108
0.00358605
0.00865365
0.0038885
0.00925061
0.00419205
0.00981826
0.00449471
0.0103533
0.00479461
0.0108529
0.0050901
0.0113144
0.00537975
0.0117355
0.00566241
0.0121133
0.0059371
0.0124447
0.0127244
0.00620261
1.09385e-05
-0.000385252
3.7588e-05
-0.000835866
7.79311e-05
-0.00102107
0.000131562
-0.00100876
0.000198908
-0.00084587
0.000280702
-0.00056581
0.000377726
-0.000193625
0.000490663
0.00025156
0.000620027
0.000754923
0.000766123
0.00130479
0.000929042
0.00189166
0.00110865
0.00250756
0.00130459
0.00314554
0.00151626
0.00379937
0.00174287
0.00446326
0.00198339
0.00513171
0.00223658
0.00579949
0.002501
0.00646153
0.00277508
0.00711295
0.00305705
0.00774911
0.00334506
0.00836563
0.0036372
0.00895847
0.00393154
0.00952392
0.00422617
0.0100587
0.00451932
0.0105597
0.00480935
0.0110244
0.00509482
0.01145
0.00537451
0.0118336
0.00564727
0.012172
0.01246
0.00591159
9.15337e-06
-0.000394405
3.1151e-05
-0.000857864
6.458e-05
-0.0010545
0.000109529
-0.00105371
0.000166822
-0.000903163
0.0002375
-0.000636488
0.00032259
-0.000278715
0.000422962
0.000151188
0.000539271
0.000638614
0.000671943
0.00117211
0.00082117
0.00174243
0.000986906
0.00234182
0.00116888
0.00296357
0.00136659
0.00360166
0.00157933
0.00425052
0.00180618
0.00490487
0.00204601
0.00555966
0.00229753
0.00621001
0.00255925
0.00685123
0.00282956
0.00747879
0.00310674
0.00808846
0.00338898
0.00867623
0.00367445
0.00923845
0.00396134
0.00977177
0.00424793
0.0102731
0.0045326
0.0107397
0.00481391
0.0111687
0.00509056
0.011557
0.00536119
0.0119014
0.0121972
0.00562399
7.18712e-06
-0.000401592
2.42013e-05
-0.000874878
5.03331e-05
-0.00108063
8.62297e-05
-0.00108961
0.00013315
-0.000950084
0.000192469
-0.000695807
0.000265466
-0.000351711
0.000353201
6.34528e-05
0.000456478
0.000535337
0.00057584
0.00105275
0.000711579
0.00160669
0.000863734
0.00218966
0.00103212
0.00279519
0.00121631
0.00341746
0.0014157
0.00405113
0.00162945
0.00469112
0.00185653
0.00533257
0.00209576
0.00597078
0.00234577
0.00660121
0.00260506
0.00721951
0.00287201
0.00782151
0.00314492
0.00840332
0.00342206
0.00896131
0.00370169
0.00949213
0.00398214
0.00999269
0.00426181
0.0104601
0.00453921
0.0108913
0.00481295
0.0112832
0.0050815
0.0116328
0.011936
0.00534272
5.0451e-06
-0.000406637
1.67572e-05
-0.00088659
3.52352e-05
-0.00109911
6.17462e-05
-0.00111612
9.80181e-05
-0.000986355
0.000145777
-0.000743566
0.000206563
-0.000412496
0.000281632
-1.16161e-05
0.000371938
0.000445032
0.000478142
0.000946548
0.00060063
0.0014842
0.00073953
0.00205076
0.000894729
0.00263999
0.00106589
0.0032463
0.00125247
0.00386455
0.00145373
0.00448986
0.00166873
0.00511757
0.00189638
0.00574314
0.0021354
0.00636219
0.0023844
0.0069705
0.00264187
0.00756405
0.00290618
0.00813901
0.0031757
0.0086918
0.00344874
0.00921909
0.00372367
0.00971776
0.0039989
0.0101848
0.00427288
0.0106173
0.00454412
0.011012
0.00481086
0.0113661
0.0116762
0.00507068
2.73455e-06
-0.000409371
8.84895e-06
-0.000892704
1.93537e-05
-0.00110962
3.61913e-05
-0.00113296
6.15891e-05
-0.00101175
9.76423e-05
-0.000779619
0.000146156
-0.000461009
0.000208583
-7.40435e-05
0.00028603
0.000367586
0.000379273
0.000853305
0.000488794
0.00137468
0.000614803
0.00192475
0.000757263
0.00249753
0.000915913
0.00308765
0.00109028
0.00369018
0.00127971
0.00430044
0.00148334
0.00491393
0.00170017
0.00552631
0.00192902
0.00613334
0.00216857
0.00673095
0.00241739
0.00731522
0.00267398
0.00788242
0.00293672
0.00842905
0.00320402
0.00895179
0.00347425
0.00944753
0.00374581
0.00991329
0.00401709
0.0103461
0.00428644
0.0107427
0.00455191
0.0111006
0.0114173
0.00481078
2.6645e-07
-0.000409638
5.25305e-07
-0.000892962
2.77584e-06
-0.00111187
9.70739e-06
-0.00113989
2.40685e-05
-0.00102611
4.83336e-05
-0.000803883
8.45766e-05
-0.000497252
0.000134451
-0.000123917
0.000199209
0.000302827
0.000279747
0.000772767
0.000376637
0.00127779
0.000490169
0.00181122
0.000620383
0.00236731
0.000767088
0.00294095
0.000929885
0.00352738
0.00110819
0.00412214
0.00130122
0.0047209
0.00150805
0.00531948
0.00172759
0.0059138
0.00195861
0.00649994
0.00219975
0.00707408
0.00244958
0.0076326
0.00270655
0.00817207
0.0029691
0.00868924
0.00323562
0.00918102
0.00350446
0.00964445
0.00377396
0.0100766
0.00404229
0.0104743
0.00430728
0.0108356
0.0111587
0.00456589
-2.34162e-06
-0.000407296
-8.1774e-06
-0.000887126
-1.43931e-05
-0.00110565
-1.7534e-05
-0.00113675
-1.43013e-05
-0.00102935
-1.83411e-06
-0.00081635
2.22138e-05
-0.0005213
5.96936e-05
-0.000161396
0.000112006
0.000250515
0.000180158
0.000704616
0.000264814
0.00119314
0.000366343
0.00170969
0.000484856
0.0022488
0.000620233
0.00280557
0.000772145
0.00337547
0.000940077
0.0039542
0.00112333
0.00453764
0.00132105
0.00512176
0.00153222
0.00570264
0.00175569
0.00627647
0.00199018
0.00683958
0.00223432
0.00738846
0.00248662
0.00791977
0.00274555
0.00843031
0.00300949
0.00891708
0.00327676
0.00937717
0.00354558
0.00980775
0.00381398
0.0102059
0.00407951
0.0105701
0.0108994
0.00433885
-5.07245e-06
-0.000402223
-1.71791e-05
-0.00087502
-3.20262e-05
-0.0010908
-4.53344e-05
-0.00112344
-5.32437e-05
-0.00102144
-5.25034e-05
-0.00081709
-4.0495e-05
-0.000533308
-1.51715e-05
-0.00018672
2.50115e-05
0.000210332
8.117e-05
0.000648457
0.000154057
0.00112025
0.00024412
0.00161963
0.00035154
0.00214138
0.000476264
0.00268084
0.000618034
0.0032337
0.000776404
0.00379584
0.000950748
0.0043633
0.00114028
0.00493222
0.00134407
0.00549885
0.00156104
0.0060595
0.00178998
0.00661064
0.00202958
0.00714887
0.0022784
0.00767094
0.00253494
0.00817378
0.00279756
0.00865446
0.00306454
0.00911019
0.00333399
0.0095383
0.00360373
0.00993617
0.00387109
0.0103027
0.010638
0.00413241
-7.90271e-06
-0.00039432
-2.64123e-05
-0.00085651
-4.99807e-05
-0.00106724
-7.34704e-05
-0.00109995
-9.24501e-05
-0.00100246
-0.000103279
-0.000806261
-0.000103068
-0.000533518
-8.95786e-05
-0.000200209
-6.11272e-05
0.000181881
-1.64915e-05
0.000603822
4.51681e-05
0.00105859
0.000124373
0.00154042
0.000221373
0.00204438
0.000336183
0.00256603
0.000468611
0.00310127
0.000618279
0.00364617
0.000784635
0.00419694
0.000966967
0.00474989
0.00116441
0.0053014
0.00137597
0.00584794
0.00160051
0.0063861
0.00183677
0.00691261
0.00208338
0.00742434
0.00233883
0.00791833
0.0026015
0.00839178
0.0028696
0.00884209
0.00314111
0.00926679
0.00341368
0.0096636
0.00368437
0.010032
0.0103732
0.0039492
-1.08068e-05
-0.000383513
-3.57941e-05
-0.000831522
-6.80972e-05
-0.00103493
-0.000101696
-0.00106635
-0.000131583
-0.00097257
-0.000153731
-0.000784113
-0.000164984
-0.000522265
-0.000162918
-0.000202276
-0.000145714
0.000164677
-0.000112047
0.000570155
-6.09942e-05
0.00100754
8.03715e-06
0.00147139
9.53636e-05
0.00195706
0.000201065
0.00246033
0.000325016
0.00297732
0.000466902
0.00350428
0.000626243
0.0040376
0.000802399
0.00457374
0.000994584
0.00510921
0.00120187
0.00564065
0.00142319
0.00616478
0.00165736
0.00667844
0.00190304
0.00717866
0.00215878
0.00766259
0.00242292
0.00812764
0.00269364
0.00857138
0.00296879
0.00899164
0.00324584
0.00938655
0.00352157
0.00975629
0.0101031
0.0037917
-1.3756e-05
-0.000369757
-4.52331e-05
-0.000800045
-8.62018e-05
-0.000993963
-0.000129745
-0.00102281
-0.000170281
-0.000932035
-0.0002034
-0.000750993
-0.000225687
-0.000499977
-0.000234539
-0.000193424
-0.000228008
0.000158146
-0.000204669
0.000546816
-0.000163519
0.000966387
-0.000103896
0.00141177
-2.54193e-05
0.00187858
7.20531e-05
0.00236286
0.000188457
0.00286091
0.000323544
0.00336919
0.000476899
0.00388425
0.000647956
0.00440268
0.000835999
0.00492117
0.00104018
0.00543648
0.00125949
0.00594546
0.00149283
0.00644511
0.00173892
0.00693257
0.00199632
0.00740519
0.00226341
0.00786055
0.0025383
0.00829649
0.00281875
0.00871119
0.00310205
0.00910325
0.00338474
0.0094736
0.00982563
0.00366221
-1.67189e-05
-0.000353038
-5.46303e-05
-0.000762134
-0.000104107
-0.000944486
-0.000157333
-0.000969581
-0.000208155
-0.000881212
-0.000251795
-0.000707353
-0.000284588
-0.000467184
-0.000303757
-0.000174254
-0.000307231
0.000161619
-0.000293488
0.000533073
-0.000261449
0.000934347
-0.000210385
0.00136071
-0.000139854
0.00180805
-4.9655e-05
0.00227266
6.02069e-05
0.00275105
0.000189543
0.00323986
0.000338004
0.00373578
0.000505089
0.00423559
0.000690153
0.0047361
0.000892416
0.00523421
0.00111096
0.00572691
0.00134474
0.00621133
0.00159255
0.00668476
0.001853
0.00714474
0.00212449
0.00758905
0.00240513
0.00801585
0.00269259
0.00842373
0.00298402
0.00881182
0.00327572
0.00918189
0.00953859
0.00356276
-1.96615e-05
-0.000333377
-6.38796e-05
-0.000717915
-0.000121615
-0.000886751
-0.000184158
-0.000907038
-0.0002448
-0.00082057
-0.000298406
-0.000653747
-0.000341071
-0.000424518
-0.000369856
-0.000145468
-0.000382569
0.000174332
-0.000377597
0.000528101
-0.000353787
0.000910536
-0.000310344
0.00131726
-0.000246769
0.00174447
-0.000162804
0.0021887
-5.84004e-05
0.00264665
6.63087e-05
0.00311515
0.000211032
0.00359106
0.00037533
0.0040713
0.000558624
0.00455281
0.000760202
0.00503263
0.000979224
0.00550789
0.00121471
0.00597584
0.00146554
0.00643393
0.0017304
0.00687988
0.00200772
0.00731172
0.00229564
0.00772794
0.00259181
0.00812756
0.00289326
0.00851037
0.00319611
0.00887905
0.00923959
0.00349511
-2.25476e-05
-0.000310829
-7.28691e-05
-0.000667594
-0.000138516
-0.000821104
-0.000209905
-0.000835649
-0.000279791
-0.000750684
-0.000342696
-0.000590842
-0.000394493
-0.000372721
-0.000432088
-0.000107873
-0.000453173
0.000195416
-0.000456049
0.000530978
-0.00043949
0.000893976
-0.000402638
0.00128041
-0.000344939
0.00168677
-0.000266082
0.00210984
-0.000165969
0.00254654
-4.46834e-05
0.00299386
9.75351e-05
0.00344884
0.0002603
0.00390853
0.000443087
0.00437002
0.000645248
0.00483047
0.000866012
0.00528713
0.00110448
0.00573737
0.0013596
0.00617881
0.00163016
0.00660933
0.00191467
0.00702721
0.00221133
0.00743128
0.00251783
0.00782107
0.00283115
0.00819704
0.00314729
0.00856291
0.00892615
0.00346072
-2.53388e-05
-0.000285491
-8.14815e-05
-0.000611451
-0.000154594
-0.000747991
-0.000234248
-0.000755995
-0.000312686
-0.000672246
-0.000384111
-0.000519416
-0.000444187
-0.000312644
-0.000489674
-6.23859e-05
-0.000518159
0.000223901
-0.000527857
0.000540675
-0.000517471
0.00088359
-0.000486084
0.00124902
-0.000433084
0.00163377
-0.000358116
0.00203487
-0.000261034
0.00244945
-0.000141878
0.00287471
-8.46624e-07
0.00330781
0.000161715
0.00374597
0.000345329
0.00418641
0.000549397
0.0046264
0.000773206
0.00506332
0.00101592
0.00549465
0.00127659
0.00591814
0.00155408
0.00633184
0.00184703
0.00673426
0.00215375
0.00712456
0.00247203
0.00750278
0.00279893
0.00787014
0.00313037
0.00823147
0.00859587
0.00346066
-2.79955e-05
-0.000257495
-8.95962e-05
-0.00054985
-0.000169626
-0.000667962
-0.00025685
-0.000668771
-0.000343031
-0.000586065
-0.000422077
-0.00044037
-0.00048946
-0.000245261
-0.000541808
-1.00381e-05
-0.000576605
0.000258698
-0.000591988
0.000556058
-0.00058659
0.000878192
-0.000559435
0.00122187
-0.000509859
0.0015842
-0.000437458
0.00196247
-0.000342048
0.00235404
-0.000223629
0.00275629
-8.23689e-05
0.00316655
8.14173e-05
0.00358218
0.000267281
0.00400055
0.000474656
0.00441903
0.000702868
0.0048351
0.000951139
0.00524638
0.00121858
0.0056507
0.00150416
0.00604626
0.00180666
0.00643175
0.00212456
0.00680665
0.00245585
0.00717149
0.00279775
0.00752825
0.00314627
0.00788295
0.00824651
0.00349563
-3.04769e-05
-0.000227018
-9.70905e-05
-0.000483237
-0.000183384
-0.000581668
-0.000277369
-0.000574786
-0.000370363
-0.000493071
-0.000456007
-0.000354726
-0.0005296
-0.000171667
-0.000587651
4.80124e-05
-0.000627551
0.000298598
-0.000647361
0.000575868
-0.000645649
0.00087648
-0.000621378
0.0011976
-0.000573835
0.00153665
-0.00050257
0.0018912
-0.00040736
0.00225883
-0.000288174
0.0026371
-0.000145156
0.00302353
2.13956e-05
0.00341563
0.000211044
0.0038109
0.000423233
0.00420684
0.000657301
0.00460104
0.00091249
0.00499119
0.00118795
0.00537524
0.00148274
0.00575147
0.00179578
0.00611872
0.00212575
0.00647669
0.00247091
0.00682634
0.0028288
0.00717036
0.00319572
0.00751602
0.00787625
0.00356598
-3.2742e-05
-0.000194276
-0.000103842
-0.000412137
-0.000195642
-0.000489868
-0.00029546
-0.000474968
-0.000394211
-0.00039432
-0.0004853
-0.000263638
-0.000563874
-9.3093e-05
-0.000626334
0.000110473
-0.000669992
0.000342256
-0.000692838
0.000598713
-0.000693376
0.000877017
-0.000670513
0.00117473
-0.000623483
0.00148962
-0.000551795
0.00181952
-0.000455188
0.00216223
-0.000333602
0.00251552
-0.000187166
0.0028771
-1.6172e-05
0.00324464
0.000178938
0.00361579
0.000397594
0.00398818
0.000639109
0.00435952
0.000902704
0.0047276
0.00118752
0.00509042
0.00149265
0.00544634
0.00181709
0.00579427
0.00215974
0.00613404
0.0025192
0.00646687
0.00289349
0.00679607
0.00327945
0.00713006
0.00748391
0.00367179
-3.47501e-05
-0.000159526
-0.000109728
-0.00033716
-0.000206175
-0.000393421
-0.000310779
-0.000370364
-0.000414104
-0.000290995
-0.000509349
-0.000168394
-0.000591531
-1.09102e-05
-0.000656963
0.000175904
-0.000702884
0.000388177
-0.000727222
0.00062305
-0.000728422
0.000878218
-0.000705339
0.00115165
-0.000657156
0.00144144
-0.000583339
0.0017457
-0.000483588
0.00206248
-0.00035782
0.00238975
-0.00020615
0.00272543
-2.88706e-05
0.00306736
0.000173556
0.00341336
0.000400522
0.00376122
0.000651279
0.00410876
0.000924971
0.00445391
0.00122066
0.00479473
0.00153735
0.00512964
0.00187407
0.00545756
0.0022298
0.0057783
0.00260351
0.00609317
0.00299382
0.00640576
0.00339848
0.0067254
0.00706929
0.0038131
-3.64622e-05
-0.000123064
-0.000114632
-0.00025899
-0.000214762
-0.000293291
-0.00032299
-0.000262136
-0.000429575
-0.000184409
-0.000527545
-7.04235e-05
-0.000611813
7.33583e-05
-0.000678617
0.000242708
-0.00072514
0.000434699
-0.000749254
0.000647164
-0.000749355
0.000878318
-0.000724245
0.00112654
-0.000673065
0.00139026
-0.000595235
0.00166787
-0.000490419
0.00195766
-0.000358507
0.00225784
-0.0001996
0.00256652
-1.39939e-05
0.00288175
0.000197825
0.00320154
0.000435192
0.00352385
0.000697269
0.00384669
0.000983065
0.00416811
0.00129146
0.00448634
0.00162127
0.00479983
0.00197131
0.00510752
0.0023405
0.00540911
0.00272796
0.00570571
0.003133
0.00600073
0.00355471
0.00630368
0.00663358
0.00399042
-3.7842e-05
-8.52219e-05
-0.000118443
-0.000178389
-0.000221196
-0.000190538
-0.000331768
-0.000151563
-0.000440169
-7.60083e-05
-0.000539289
2.86966e-05
-0.00062396
0.00015803
-0.000690365
0.000309113
-0.000735642
0.000479976
-0.000757622
0.000669144
-0.000754657
0.000875352
-0.000725508
0.00109739
-0.000669274
0.00133403
-0.000585334
0.00158393
-0.000473315
0.00184564
-0.000333079
0.0021176
-0.000164706
0.00239815
3.15099e-05
0.00268554
0.000255064
0.00297799
0.000505236
0.00327368
0.000781084
0.00357084
0.00108145
0.00386775
0.00140495
0.00416284
0.00175003
0.00445475
0.00211506
0.00474249
0.0024985
0.00502567
0.00289921
0.005305
0.00331687
0.00558307
0.00375233
0.00586822
0.00617983
0.00420608
-3.88567e-05
-4.63653e-05
-0.00012106
-9.61863e-05
-0.000225282
-8.63152e-05
-0.000336809
-4.00365e-05
-0.000445453
3.26358e-05
-0.000544
0.000127243
-0.000627225
0.000241255
-0.000691274
0.000373161
-0.000733256
0.000521958
-0.000750972
0.00068686
-0.000742743
0.000867123
-0.0007073
0.00106195
-0.000643704
0.00127043
-0.0005513
0.00149152
-0.000429681
0.00172402
-0.000278674
0.00196659
-9.83333e-05
0.0022178
0.000111065
0.00247614
0.000349017
0.00274003
0.000614773
0.00300793
0.000907313
0.0032783
0.00122531
0.00354975
0.00156712
0.00382103
0.0019307
0.00409117
0.0023137
0.00435948
0.00271361
0.00462576
0.00312817
0.00489044
0.00355635
0.00515488
0.00400036
0.00542421
0.00571268
0.00446752
-3.94782e-05
-6.88713e-06
-0.000122393
-1.32716e-05
-0.00022685
1.81419e-05
-0.000337838
7.09518e-05
-0.000445027
0.000139825
-0.00054113
0.000223346
-0.00062089
0.000321015
-0.000680434
0.000432705
-0.000716855
0.000558379
-0.000727939
0.000697944
-0.00071199
0.000851173
-0.000667719
0.00101768
-0.000594165
0.00119688
-0.000490643
0.001388
-0.000356715
0.00159009
-0.000192176
0.00180205
2.95763e-06
0.00202267
0.000228448
0.00225065
0.000483827
0.00248466
0.000768367
0.00272339
0.00108105
0.00296562
0.00142049
0.00321031
0.00178486
0.00345666
0.00217176
0.00370426
0.00257809
0.00395315
0.00299997
0.00420388
0.00343301
0.0044574
0.0038731
0.0047148
0.00431994
0.00497737
0.00523477
0.00479785
-3.96831e-05
3.27958e-05
-0.000122369
6.94147e-05
-0.000225752
0.000121524
-0.000334613
0.000179814
-0.000438532
0.000243743
-0.00053018
0.000314994
-0.000604288
0.000395124
-0.000656982
0.000485398
-0.000685352
0.00058675
-0.000687185
0.000699777
-0.000660782
0.000824771
-0.00060485
0.000961745
-0.000518417
0.00111044
-0.000400782
0.00127037
-0.000251487
0.0014408
-7.02935e-05
0.00162086
0.000142823
0.00180955
0.000387686
0.00200579
0.000663903
0.00220844
0.000970846
0.00241644
0.00130762
0.00262885
0.00167299
0.00284494
0.0020653
0.00306435
0.0024823
0.00328726
0.00292094
0.00351452
0.00337706
0.00374776
0.00384532
0.00398914
0.00431851
0.00424161
0.00478788
0.00450801
0.00526423
0.00475842
0.00779757
0.0811796
-0.0813654
0.00762223
0.0820451
-0.0818697
0.00730995
0.0793027
-0.0789904
0.00697859
0.075287
-0.0749556
0.00669794
0.0710775
-0.0707969
0.0064797
0.0672555
-0.0670372
0.00630971
0.0640078
-0.0638378
0.00616638
0.0613151
-0.0611718
0.00603026
0.0591179
-0.0589817
0.00588794
0.0573514
-0.0572091
0.00573241
0.0559801
-0.0558245
0.00556089
0.0549693
-0.0547978
0.00537314
0.0542882
-0.0541004
0.00517002
0.0538873
-0.0536842
0.00495223
0.0537162
-0.0534984
0.0047206
0.0537196
-0.053488
0.00447624
0.0538477
-0.0536033
0.00421991
0.0540611
-0.0538048
0.0039528
0.0543284
-0.0540613
0.00367612
0.054625
-0.0543483
0.00339084
0.0549353
-0.05465
0.00309845
0.0552434
-0.054951
0.00279942
0.0555427
-0.0552437
0.00249509
0.0558213
-0.055517
0.00218538
0.056077
-0.0557673
0.0018708
0.056301
-0.0559864
0.00155082
0.0564988
-0.0561788
0.00122568
0.056671
-0.0563459
0.00089631
0.0568243
-0.056495
0.0569138
-0.0565843
0.0076506
0.0808741
0.00756796
0.0821277
0.00732137
0.0795493
0.00703311
0.0755752
0.00678023
0.0713304
0.00658111
0.0674546
0.00642557
0.0641633
0.00629369
0.061447
0.00616633
0.0592452
0.00603009
0.0574876
0.00587777
0.0561324
0.00570709
0.05514
0.00551805
0.0544772
0.00531178
0.0540936
0.00508941
0.0539386
0.00485212
0.0539569
0.00460096
0.0540988
0.00433717
0.0543249
0.00406195
0.0546036
0.00377656
0.0549104
0.0034823
0.0552295
0.00318029
0.0555454
0.00287161
0.0558514
0.00255705
0.0561359
0.00223709
0.056397
0.00191188
0.0566262
0.00158119
0.0568295
0.00124516
0.0570071
0.000904976
0.0571645
0.0572543
0.00749114
0.0804512
0.0075018
0.082117
0.00732219
0.0797289
0.00707838
0.0758191
0.00685441
0.0715544
0.0066755
0.0676335
0.00653555
0.0643033
0.0064164
0.0615661
0.00629908
0.0593625
0.00617015
0.0576166
0.00602207
0.0562805
0.00585302
0.055309
0.00566323
0.054667
0.00545419
0.0543026
0.00522746
0.0541653
0.00498463
0.0541997
0.00472671
0.0543568
0.00445541
0.0545962
0.00417201
0.054887
0.00387782
0.0552046
0.00357445
0.0555329
0.00326272
0.0558572
0.00294429
0.0561698
0.00261939
0.0564608
0.0022891
0.0567273
0.00195318
0.0569621
0.00161172
0.0571709
0.00126477
0.057354
0.000913712
0.0575156
0.0576059
0.00732072
0.0799142
0.00742463
0.0820131
0.00731262
0.0798409
0.00711421
0.0760175
0.00692011
0.0717485
0.00676241
0.0677912
0.00663921
0.0644265
0.0065341
0.0616712
0.00642822
0.0594684
0.00630787
0.0577369
0.00616516
0.0564232
0.00599854
0.0554756
0.00580858
0.054857
0.00559723
0.054514
0.0053664
0.0543962
0.00511805
0.0544481
0.0048535
0.0546213
0.00457464
0.054875
0.00428295
0.0551787
0.00397995
0.0555076
0.00366727
0.0558456
0.00334586
0.0561786
0.00301745
0.0564982
0.00268221
0.0567961
0.00234142
0.0570681
0.00199472
0.0573088
0.0016424
0.0575233
0.00128451
0.0577119
0.000922509
0.0578776
0.0579685
0.00714117
0.0792672
0.0073375
0.0818168
0.00729301
0.0798854
0.00714055
0.0761699
0.00697703
0.071912
0.00684138
0.0679268
0.00673608
0.0645318
0.00664644
0.0617609
0.00655346
0.0595614
0.00644297
0.0578474
0.00630682
0.0565593
0.0061435
0.055639
0.005954
0.0550465
0.00574078
0.0547272
0.00550614
0.0546308
0.00525237
0.0547019
0.00498129
0.0548924
0.00469485
0.0551615
0.00439482
0.0554787
0.00408294
0.0558195
0.00376081
0.0561677
0.00342968
0.0565097
0.00309109
0.0568368
0.00274551
0.0571416
0.00239404
0.0574196
0.00203652
0.0576663
0.00167324
0.0578865
0.00130438
0.0580808
0.000931387
0.0582506
0.0583424
0.00695435
0.0785155
0.00724157
0.0815296
0.00726387
0.0798631
0.00715743
0.0762764
0.00702489
0.0720446
0.00691208
0.0680396
0.00682582
0.0646181
0.00675303
0.0618337
0.00667444
0.05964
0.0065752
0.0579466
0.00644684
0.0566877
0.00628774
0.055798
0.0060994
0.0552348
0.00588473
0.0549419
0.00564658
0.054869
0.0053876
0.0549608
0.00511002
0.05517
0.00481604
0.0554555
0.00450765
0.0557871
0.00418678
0.0561404
0.00385514
0.0564993
0.00351416
0.0568507
0.00316529
0.0571857
0.00280926
0.0574977
0.002447
0.0577818
0.00207861
0.0580347
0.00170431
0.0582608
0.00132442
0.0584606
0.000940365
0.0586346
0.0587275
0.00676237
0.0776647
0.0071382
0.0811537
0.00722589
0.0797754
0.00716503
0.0763372
0.00706355
0.072146
0.0069742
0.068129
0.00690805
0.0646842
0.0068535
0.0618882
0.00679083
0.0597027
0.00670431
0.0580332
0.00658498
0.056807
0.00643107
0.055952
0.0062446
0.0554213
0.00602896
0.0551575
0.00578763
0.0551103
0.00552364
0.0552248
0.00523968
0.0554539
0.00493818
0.0557569
0.00462141
0.0561039
0.00429149
0.0564703
0.00395026
0.0568406
0.0035993
0.0572016
0.00324007
0.0575449
0.00287346
0.0578643
0.00250036
0.0581549
0.00212099
0.0584141
0.00173561
0.0586462
0.00134463
0.0588516
0.000949462
0.0590298
0.059124
0.00656743
0.0767213
0.00702894
0.0806922
0.00717991
0.0796244
0.00716367
0.0763535
0.007093
0.0722167
0.00702752
0.0681945
0.00698247
0.0647292
0.00694752
0.0619232
0.00690233
0.0597478
0.00683003
0.0581055
0.006721
0.056916
0.0065733
0.0560997
0.00638943
0.0556052
0.00617335
0.0553736
0.00592918
0.0553545
0.00566043
0.0554936
0.00537019
0.0557442
0.00506124
0.0560659
0.00473609
0.056429
0.00439707
0.0568093
0.00404617
0.0571915
0.00368514
0.0575627
0.00331545
0.0579146
0.00293816
0.0582416
0.00255411
0.058539
0.0021637
0.0588045
0.00176716
0.0590428
0.00136503
0.0592537
0.00095869
0.0594361
0.0595319
0.00637189
0.0756921
0.00691546
0.0801487
0.00712698
0.0794129
0.00715388
0.0763266
0.00711336
0.0722572
0.00707194
0.0682359
0.00704884
0.0647523
0.00703481
0.0619372
0.00700865
0.059774
0.00695206
0.0581621
0.00685465
0.0570135
0.00671419
0.0562401
0.00653371
0.0557857
0.00631774
0.0555895
0.0060711
0.0556011
0.00579784
0.0557668
0.00550148
0.0560405
0.00518516
0.0563822
0.00485165
0.0567625
0.0045035
0.0571575
0.00414288
0.0575521
0.00377169
0.0579339
0.00339145
0.0582949
0.00300337
0.0586296
0.00260829
0.058934
0.00220674
0.059206
0.001799
0.0594505
0.00138564
0.0596671
0.000968063
0.0598537
0.0599513
0.00617822
0.0745846
0.00679961
0.0795273
0.00706835
0.0791442
0.00713636
0.0762585
0.00712496
0.0722686
0.00710748
0.0682534
0.00710702
0.0647528
0.00711513
0.0619291
0.00710951
0.0597796
0.00707014
0.0582014
0.00698568
0.0570979
0.00685354
0.0563722
0.00667724
0.055962
0.00646196
0.0558048
0.00621324
0.0558498
0.00593575
0.0560443
0.00563346
0.0563428
0.00530987
0.0567058
0.00496804
0.0571044
0.00461077
0.0575147
0.00424038
0.0579225
0.00385896
0.0583153
0.00346809
0.0586857
0.00306912
0.0590286
0.00266292
0.0593402
0.00225015
0.0596188
0.00183114
0.0598695
0.00140649
0.0600918
0.000977597
0.0602826
0.0603823
0.00598903
0.0734063
0.0066834
0.0788329
0.00700548
0.0788221
0.00711204
0.076152
0.00712828
0.0722524
0.00713433
0.0682473
0.00715698
0.0647302
0.00718832
0.0618978
0.00720466
0.0597633
0.00718401
0.0582221
0.00711383
0.0571681
0.00699111
0.056495
0.0068198
0.0561333
0.00660581
0.0560188
0.00635545
0.0561002
0.00607404
0.0563257
0.00576601
0.0566508
0.00543529
0.0570365
0.00508521
0.0574544
0.00471882
0.0578811
0.00433865
0.0583026
0.00394693
0.058707
0.00354536
0.0590873
0.00313542
0.0594385
0.00271802
0.0597577
0.00229395
0.0600429
0.0018636
0.0602999
0.00142759
0.0605278
0.000987315
0.0607229
0.0608251
0.00580699
0.0721652
0.00656897
0.0780709
0.00694005
0.078451
0.00708208
0.07601
0.00712407
0.0722104
0.00715284
0.0682185
0.00719878
0.0646842
0.00725426
0.0618423
0.0072939
0.0597236
0.00729341
0.0582226
0.00723884
0.0572227
0.00712664
0.0566072
0.00696119
0.0562987
0.00674911
0.0562309
0.00649755
0.0563518
0.00621254
0.0566108
0.00589901
0.0569644
0.00556132
0.0573742
0.00520307
0.0578127
0.00482761
0.0582566
0.00443766
0.0586926
0.0040356
0.0591091
0.00362327
0.0594996
0.00320229
0.0598595
0.00277361
0.0601863
0.00233816
0.0604783
0.00189641
0.0607416
0.00144897
0.0609752
0.000997241
0.0611746
0.0612796
0.00563487
0.0708692
0.00645861
0.0772472
0.00687396
0.0780357
0.00704789
0.075836
0.00711327
0.072145
0.00716356
0.0681683
0.00723266
0.0646151
0.00731295
0.061762
0.00737707
0.0596595
0.00739811
0.0582015
0.00736047
0.0572603
0.00725991
0.0567077
0.00710116
0.0564575
0.00689163
0.0564404
0.00663935
0.056604
0.00635109
0.056899
0.00603231
0.0572832
0.00568783
0.0577187
0.00532156
0.058179
0.00493708
0.058641
0.00453737
0.0590923
0.00412495
0.0595215
0.00370182
0.0599228
0.00326971
0.0602916
0.00282971
0.0606263
0.0023828
0.0609252
0.00192957