# Probe 0 (1 0 0.5)
# Probe 1 (2 0 0.5)
# Probe 2 (3 0 0.5)
# Probe 3 (1 0.5 0.5)
# Probe 4 (2 0.5 0.5)
# Probe 5 (3 0.5 0.5)
# Probe 6 (1 -0.5 0.5)
# Probe 7 (2 -0.5 0.5)
# Probe 8 (3 -0.5 0.5)
# Probe 9 (1 -1.5 0.5)
# Probe 10 (2 -1.5 0.5)
# Probe 11 (3 -1.5 0.5)
# Probe 12 (1 1.5 0.5)
# Probe 13 (2 1.5 0.5)
# Probe 14 (3 1.5 0.5)
#       Probe             0             1             2             3             4             5             6             7             8             9            10            11            12            13            14
#        Time
         0.05      -65.5664       -58.569      -52.9141      -59.7371      -53.7845      -49.7336      -69.9283      -61.8647      -56.4167      -75.7754      -67.5131      -61.2887      -48.5973      -46.0202      -42.3132
          0.1       9.40609        10.227       9.79345       8.48641       9.92963       9.74845       10.5674        10.614       9.73534       11.7067       10.0953       8.88056       8.53325       9.71845       9.09748
         0.15      -11.6622      -12.2968      -12.0555      -10.7873      -11.5576      -11.4171      -12.6838      -13.1641       -12.847      -14.2893      -14.4847      -14.4107      -9.17118      -10.2034      -10.0111
          0.2       9.74227       10.0057       9.92064        8.7428       9.23776       9.30762       10.6969       10.8085       10.5938       11.9051       11.9958       11.9243       7.22374       7.93112       8.07046
         0.25      -3.55572      -3.52243      -2.64324      -3.19645      -3.24478      -2.58666      -4.04015      -3.77206      -2.84058      -4.67972      -4.31276      -3.11084      -2.73783      -2.99804      -2.37832
          0.3        3.3031       3.49707       3.68322       2.92853       3.23773       3.43508       3.68311       3.76774       3.86289       4.05689       4.06023       4.09293       2.44675       2.71632       2.85114
         0.35       1.52204       1.76514       2.42762       1.39679       1.69486       2.23581        1.5714       1.88808       2.49515       1.53933        1.8641       2.55527       1.14453        1.3438        1.8042
          0.4       3.60744        3.9636       4.64304       3.26602       3.72976       4.31248       3.90941        4.2755       4.85924       4.18016       4.50628       5.19494       2.69337       3.07964       3.59738
         0.45       3.92716       4.33806       5.17517       3.56921       4.08253       4.78949       4.22568       4.70579       5.45455       4.53969        5.0127       5.96814       2.90979       3.32283       4.00589
          0.5       4.14149       4.56804       5.36365       3.76803       4.29386       4.97852       4.46542       4.94532       5.65017       4.78785       5.28333       6.19369       3.05608       3.49131       4.21488
         0.55       3.93821       4.33404       5.01447       3.58287        4.0763       4.67192       4.24508       4.68439       5.27417       4.55011        5.0306       5.76203       2.91041       3.33256       4.00461
          0.6       3.89042       4.26115       4.83065       3.55371       4.01824       4.52481        4.1832       4.58554       5.06432       4.48499       4.93088       5.48769       2.90867       3.33789       3.92746
         0.65       3.53559       3.86479       4.33193       3.23297       3.64999       4.06744       3.80241       4.14938       4.53447       4.08082       4.47312       4.89539       2.66332       3.05928       3.55041
          0.7       3.49547       3.79648       4.19595       3.20335       3.59121       3.94889       3.75044       4.06186        4.3872       4.02269       4.37437       4.72176       2.65453       3.04583       3.45721
         0.75       3.06328       3.32621       3.66277       2.81104       3.15019       3.44938       3.28967       3.55271       3.82765       3.52899       3.82878       4.11568        2.3437       2.68496       3.02229
          0.8       3.16469       3.41236       3.71777       2.90465       3.22914       3.49889       3.40037       3.64231       3.89155       3.65171       3.92625       4.18945       2.42574       2.76407       3.05599
         0.85       2.59759          2.81       3.07146       2.39511       2.66792       2.89653       2.78493       2.98981       3.20619       2.98328       3.21474       3.43986       2.01648       2.29408       2.53958
          0.9       2.86509       3.09096       3.34534       2.64457       2.93047        3.1525       3.07956       3.29352        3.5014        3.3246       3.54993       3.76989       2.23419       2.53052       2.75651
         0.95       2.17133       2.34571       2.55942       2.00956        2.2322       2.41716       2.32589        2.4882       2.66697        2.4846       2.66647       2.85202       1.70779          1.93       2.12273
            1       2.69976       2.89757        3.1144        2.4955       2.74621       2.93591        2.8983       3.08455       3.26178        3.1317       3.32297       3.51459       2.11121       2.37777       2.56672
         1.05        1.7451       1.88839       2.06643       1.62446       1.80373       1.95652       1.86552       1.99439       2.14486        1.9817       2.12463       2.27982       1.39492       1.56611        1.7248
          1.1       2.62286       2.80585       2.99518       2.42567        2.6569       2.82403       2.81908       2.98674       3.13995       3.05053       3.21941       3.38805       2.05366       2.30345       2.46839
         1.15        1.3045       1.42043        1.5686       1.22784       1.36652       1.49212       1.38689       1.48882       1.61694       1.45785       1.56882       1.69879       1.06998       1.19371        1.3286
          1.2       2.62228       2.79673       2.96098       2.42229       2.64385        2.7921       2.82584       2.97881       3.11054       3.06214       3.21466        3.3594       2.05119       2.29337       2.43944
         1.25      0.865681      0.959892       1.08194      0.834868      0.937339       1.04064      0.906952      0.991752       1.10081      0.937038       1.02007       1.13063      0.746554      0.827634      0.943587
          1.3       2.65485       2.82105        2.9621       2.44672       2.66225       2.79261       2.86898       3.00676       3.11526       3.11276       3.25243       3.37248        2.0723       2.31059       2.43949
         1.35      0.488344      0.563843      0.668334      0.494242      0.567762      0.654867      0.496578      0.565281      0.660182      0.487446      0.548456      0.647209       0.46666       0.51111      0.613672
          1.4       2.66677       2.82503       2.94488       2.45486       2.66271       2.77684       2.88686       3.01165       3.09983       3.13544       3.26138       3.35978       2.07781       2.31239       2.42587
         1.45      0.202714      0.263852      0.359211      0.235878      0.288283       0.36559      0.188346      0.239918      0.332045      0.151086      0.197893      0.286917      0.254068      0.273114      0.364892
          1.5       2.63782       2.78995       2.89181       2.42696       2.62758       2.72747       2.85811       2.97491       3.04561       3.10888       3.22407       3.30324       2.05424       2.28376       2.38383
         1.55     0.0102255     0.0635018      0.152416     0.0614382      0.101837      0.171402    -0.0189062     0.0261997      0.113093    -0.0747301    -0.0387234     0.0466429      0.110518      0.112628      0.196832
          1.6       2.57487       2.72138       2.80888       2.36802       2.56096       2.64976       2.79211       2.90224       2.95943       3.04138       3.14683       3.21129       2.00465       2.22722       2.31698
         1.65     -0.114454    -0.0659029     0.0172002    -0.0517963    -0.0204158     0.0442892     -0.152991     -0.112331    -0.0295888     -0.219582     -0.191084     -0.108993     0.0171614    0.00832415     0.0863227
          1.7       2.49524       2.63594       2.71221       2.29469       2.47984       2.55937       2.70695       2.81104       2.85829        2.9521       3.04934       3.10279       1.94264       2.15689       2.23877
         1.75     -0.193159     -0.147507    -0.0694197     -0.124023    -0.0967458      -0.03726     -0.237358     -0.199423     -0.120643     -0.309261     -0.286315     -0.207595     -0.042889    -0.0586086     0.0148279
          1.8       2.40361       2.53925       2.60635       2.21018       2.38787       2.46004       2.60839       2.70746       2.74716       2.84811       2.93814       2.98287       1.87234       2.07791       2.15295
         1.85     -0.241203     -0.197437     -0.124032     -0.169016     -0.144561    -0.0888721     -0.288734     -0.252262     -0.177442     -0.361576     -0.343017       -0.2679    -0.0796173    -0.0993508    -0.0305167
          1.9       2.31409       2.44513       2.50483        2.1277         2.299       2.36463       2.51182       2.60667        2.6406       2.74555       2.82968       2.86785       1.80316       2.00025        2.0701
         1.95      -0.27573     -0.233409     -0.164747     -0.201836     -0.178884     -0.127254      -0.32575     -0.290419     -0.219688     -0.398666     -0.383841     -0.312795     -0.106727     -0.129217    -0.0643376
            2       2.21881       2.34502        2.3979       2.03966        2.2049       2.26441       2.40853       2.49942       2.52781       2.63583       2.71381       2.74524       1.73059       1.91909       1.98364
         2.05     -0.281537     -0.239686     -0.174984     -0.208991     -0.185837     -0.137462     -0.331572     -0.296353     -0.229136     -0.401373     -0.388841     -0.320688     -0.113395     -0.136094    -0.0743022
          2.1       2.13603       2.25861       2.30742        1.9629       2.12344       2.17902       2.31849       2.40721        2.4329       2.54089       2.61469       2.64336        1.6666       1.84783       1.90906
         2.15     -0.313275     -0.272899     -0.213548      -0.23989     -0.217401     -0.173325     -0.366529     -0.331898     -0.269392     -0.435369     -0.426648     -0.364279     -0.138203      -0.16328     -0.105501
          2.2       2.04167       2.15921       2.20039       1.87552       2.03013       2.07912       2.21559       2.30023       2.31945       2.43129       2.49857       2.51878       1.59503       1.76798       1.82347
         2.25     -0.268755     -0.227955     -0.169721     -0.201421     -0.176855     -0.133285      -0.31775     -0.282061     -0.220568     -0.379729     -0.370096     -0.306712     -0.108289     -0.129459    -0.0728173
          2.3       1.97033       2.08557       2.12812       1.80946       1.96091       2.01006       2.13747       2.22224       2.24396       2.34837       2.41447       2.43881        1.5392       1.70642       1.76216
         2.35     -0.349706     -0.313165     -0.263736     -0.276481     -0.256392     -0.220192      -0.40624     -0.374647     -0.321708     -0.473474     -0.471897     -0.420835     -0.168597     -0.196588     -0.146516
          2.4       1.89336       2.00232       2.03202       1.73709       1.88223       1.92088       2.05382       2.13249       2.14208       2.26072       2.31821       2.32675       1.48025       1.64007       1.68655
         2.45     -0.228813     -0.192356     -0.138421     -0.171067      -0.14568     -0.105411     -0.279744     -0.242882     -0.185685     -0.335045     -0.325861      -0.26387    -0.0861692     -0.104449    -0.0510126
          2.5        1.7955       1.90363       1.94139       1.64817       1.79106       1.83504       1.94481       2.02684       2.04576        2.1429       2.20102       2.22129       1.40594       1.55927       1.61089
         2.55     -0.312616     -0.277991     -0.236318     -0.247478     -0.226366     -0.195579     -0.366982     -0.334863     -0.289411     -0.422274     -0.423679     -0.380002     -0.147298     -0.172466     -0.127699
          2.6       1.77654       1.88052       1.90746       1.62776       1.76709       1.80221       1.92521        2.0037       2.01247       2.12757       2.18129       2.19029       1.38797       1.53808       1.58111
         2.65     -0.249251     -0.216043     -0.168599     -0.192557     -0.168541     -0.133572     -0.305789      -0.26866     -0.217168     -0.358372      -0.35326     -0.298267     -0.104861     -0.124459    -0.0756887
          2.7       1.65202       1.75285       1.78086       1.51501       1.64973        1.6853       1.78671        1.8647       1.87523       1.97608       2.02467       2.03335       1.29613       1.43775        1.4822
         2.75      -0.26402     -0.229405     -0.191093     -0.207363     -0.182891     -0.154643     -0.315773     -0.280342     -0.238689     -0.358416     -0.359775      -0.31884     -0.116348     -0.136567    -0.0948448
          2.8       1.65375       1.75315       1.77938       1.51438       1.64782       1.68116       1.78904       1.86809       1.87778       1.98483       2.03486       2.04541       1.29299       1.43362       1.47508
         2.85     -0.264497     -0.231363      -0.18949     -0.208343     -0.183966     -0.153088     -0.321727     -0.282883     -0.238091     -0.366564     -0.366281     -0.319607     -0.118142     -0.137354    -0.0928276
          2.9       1.52462       1.61877       1.63881        1.3974       1.52394       1.55231       1.64616       1.72103       1.72483       1.82835       1.86925       1.86875       1.19822       1.32944       1.36741
         2.95     -0.208398      -0.17311     -0.136166     -0.159964     -0.132021     -0.104637     -0.257631     -0.217861     -0.177954     -0.288104     -0.287991     -0.247382    -0.0798782    -0.0942539    -0.0539654
            3       1.53183       1.62679       1.65361       1.40313       1.53002       1.56264       1.65362       1.73317       1.74449        1.8415       1.88768       1.89991       1.19924       1.33093       1.37184
         3.05     -0.273553     -0.238959     -0.201197     -0.218333     -0.191804     -0.164364     -0.329216     -0.288886     -0.248721     -0.363668     -0.367002     -0.328696     -0.126105     -0.144088     -0.103673
          3.1       1.41793       1.50672       1.52109       1.29964       1.41869       1.44167       1.52828       1.60152        1.6007       1.70571       1.74097       1.73412       1.11577        1.2384       1.27121
         3.15     -0.134994    -0.0994919    -0.0616272    -0.0958579    -0.0648756    -0.0369339      -0.18146     -0.136403    -0.0960131     -0.198837      -0.19521     -0.151958    -0.0311206    -0.0389105     0.0017086
          3.2       1.41411       1.50602       1.53526       1.29697       1.41774        1.4513       1.52223         1.604       1.61889       1.70252       1.74621       1.76225       1.10939       1.23262       1.27453
         3.25     -0.266821     -0.232624     -0.200743     -0.212858     -0.187598     -0.164625     -0.322002     -0.280577     -0.246758     -0.347797     -0.354576     -0.324648     -0.124642     -0.141681     -0.105514
          3.3       1.36779       1.45403       1.46734       1.25379       1.36811       1.38941        1.4726       1.54742       1.54604       1.65179       1.68594       1.67929       1.07376       1.19252       1.22331
         3.35     -0.158875     -0.123865    -0.0871625     -0.116798    -0.0878709    -0.0610236     -0.208904     -0.161594     -0.122896     -0.223422     -0.221692     -0.180839    -0.0508467     -0.058785    -0.0195466
          3.4       1.32706       1.41477       1.43876       1.21863       1.33231       1.36141       1.42592       1.50624       1.51612       1.60226       1.64009       1.64848       1.04242       1.15942       1.19752
         3.45     -0.241389       -0.2071     -0.177301     -0.189747     -0.165485     -0.143738      -0.29507     -0.251034     -0.219573     -0.311219     -0.318134     -0.290819     -0.109762     -0.123804    -0.0892398
          3.5       1.28959       1.37319       1.38637       1.18443       1.29232       1.31282       1.38571       1.46188       1.46103       1.56233       1.59429       1.58839       1.01322       1.12625       1.15607
         3.55     -0.155095     -0.119728    -0.0844174     -0.112287    -0.0848359    -0.0588387      -0.20553     -0.155613     -0.119023      -0.21332      -0.21279     -0.175125    -0.0505472    -0.0566523    -0.0186143
          3.6       1.24303       1.32743       1.34914       1.14406       1.25043       1.27727       1.33337       1.41343       1.42124       1.50632       1.54006       1.54481      0.977708        1.0886       1.12435
         3.65     -0.215799     -0.180177     -0.151331     -0.165545     -0.141699     -0.120593     -0.267312     -0.219737     -0.189977     -0.273165     -0.279791     -0.254275    -0.0937263      -0.10458     -0.071194
          3.7       1.21743       1.29904       1.31286       1.12105       1.22263       1.24315       1.30613       1.38374       1.38388       1.48065       1.51071       1.50583      0.957062       1.06511       1.09459
         3.75     -0.149518     -0.113174    -0.0789621     -0.105128     -0.079779    -0.0542559     -0.199613     -0.146869     -0.112103     -0.200089     -0.200464     -0.165548    -0.0484831    -0.0527388    -0.0156268
          3.8       1.16886       1.25092       1.27116       1.07919       1.17851       1.20393         1.252       1.33237       1.33883       1.42244       1.45291       1.45507      0.920543       1.02623        1.0604
         3.85     -0.193406     -0.156723     -0.128713     -0.143423     -0.121282      -0.10042     -0.242915     -0.192315     -0.164132     -0.239993     -0.246434     -0.222625    -0.0802067    -0.0881487    -0.0554263
          3.9       1.15344       1.23374       1.24842       1.06584       1.16106       1.18203       1.23602       1.31516       1.31629       1.40917       1.43761       1.43367      0.907394       1.01114       1.04061
         3.95     -0.148385      -0.10925    -0.0753645     -0.100938    -0.0772179     -0.051156     -0.196211     -0.140528     -0.106819     -0.189053     -0.190241     -0.157634    -0.0485707    -0.0506242    -0.0139477
            4       1.10264       1.18307       1.20216       1.02216       1.11449         1.139       1.17983       1.26067       1.26601       1.34842       1.37612       1.37601      0.869652      0.970792       1.00375
         4.05     -0.174683     -0.136543     -0.108882     -0.124207      -0.10405    -0.0828381     -0.221853     -0.168408     -0.141379     -0.210684     -0.216914     -0.194529    -0.0691773    -0.0743507    -0.0417902
          4.1       1.09656        1.1762       1.19197       1.01758        1.1066       1.12842       1.17409       1.25491       1.25718       1.34638       1.37358        1.3707      0.863373      0.963359      0.993154
         4.15     -0.148273     -0.108102    -0.0749659    -0.0981705    -0.0774594    -0.0513705     -0.195204     -0.137581     -0.105282     -0.182011      -0.18411     -0.154221    -0.0505842    -0.0513774    -0.0150109
          4.2       1.04357       1.12308       1.14101      0.971898       1.05759       1.08145       1.11591       1.19746       1.20163       1.28374       1.30889       1.30646        0.8244      0.921442      0.953356
         4.25     -0.158039     -0.118233    -0.0905329     -0.106029     -0.088603    -0.0664224     -0.203131     -0.146843     -0.120447     -0.184737     -0.190302     -0.168545    -0.0589723    -0.0617251    -0.0290609
          4.3       1.04394       1.12344       1.14056      0.973539       1.05648        1.0796       1.11724       1.19976       1.20331       1.28883       1.31496       1.31321      0.822882       0.91951      0.949993
         4.35     -0.154017      -0.11189    -0.0791895     -0.100178    -0.0821134    -0.0559448     -0.199425     -0.139631     -0.108827     -0.180243     -0.183304      -0.15639    -0.0553746    -0.0557734    -0.0199192
          4.4      0.988132       1.06684       1.08341      0.925241       1.00402       1.02717        1.0565       1.13835       1.14105       1.22358       1.24629       1.24111      0.782216       0.87527      0.905996
         4.45     -0.135417    -0.0929309      -0.06403       -0.0822    -0.0666199    -0.0425961     -0.177405     -0.117561    -0.0907843     -0.151259     -0.155329     -0.132824    -0.0437328    -0.0434239   -0.00988545
          4.5      0.995283       1.07546       1.09519      0.933352       1.01075       1.03634       1.06505       1.14976       1.15581       1.23598       1.26172       1.26256      0.785684      0.879344      0.911521
         4.55     -0.172966     -0.129914    -0.0993755     -0.113954     -0.100495    -0.0752531     -0.218063     -0.157379     -0.129423     -0.194611     -0.199923     -0.177761    -0.0702169    -0.0717943    -0.0371679
          4.6      0.944365       1.02265       1.03679       0.88902      0.961211      0.983044       1.01044       1.09238       1.09254       1.17836       1.19879       1.18986      0.748798       0.83843      0.867346
         4.65    -0.0986932    -0.0546677    -0.0232373    -0.0464372     -0.032627   -0.00583235     -0.138458    -0.0749405    -0.0460279     -0.105832     -0.106561    -0.0802905    -0.0196311     -0.015758     0.0201001
          4.7      0.934658       1.01552        1.0383      0.882528      0.954132      0.982673      0.999932       1.08641       1.09539       1.16818       1.19286       1.19622      0.740318      0.830028      0.864654
         4.75     -0.160354     -0.114907    -0.0853742    -0.0993813    -0.0886527    -0.0630392     -0.201911     -0.139205     -0.112954     -0.170878     -0.176435     -0.156948    -0.0621897    -0.0624805    -0.0281019
          4.8       0.90922      0.988797        1.0046      0.860667      0.928059      0.951748      0.973717       1.05781       1.05963       1.14265       1.16334       1.15628      0.721665      0.808821      0.838697
         4.85     -0.109992    -0.0621883     -0.030131    -0.0524017    -0.0411692    -0.0125959     -0.147176    -0.0812082    -0.0523703     -0.109664     -0.110861    -0.0858149    -0.0271404    -0.0228625     0.0136549
          4.9       0.89244      0.973845      0.995798      0.847753      0.913896      0.942627      0.955755       1.04277        1.0507        1.1239       1.14688       1.14795      0.708838      0.795446      0.829952
         4.95     -0.153586     -0.105711    -0.0761401     -0.090209    -0.0819762    -0.0552755     -0.192415     -0.127511      -0.10175     -0.155486     -0.160553     -0.141895    -0.0579687    -0.0574387    -0.0223871
            5      0.867478      0.948016      0.964522      0.826221      0.888676      0.913614       0.93004       1.01531        1.0178       1.09879       1.11867       1.11193      0.690501      0.774444      0.805249
         5.05      -0.10911    -0.0584765    -0.0261789    -0.0485003    -0.0393743      -0.00956      -0.14372     -0.075517      -0.04695     -0.100893     -0.101943    -0.0780606    -0.0264349    -0.0217564     0.0155949
          5.1      0.847056        0.9294      0.951228       0.80967      0.871064      0.900456      0.908244       0.99612       1.00396       1.07598       1.09761       1.09772      0.675201      0.758113      0.793074
         5.15     -0.144239    -0.0936237    -0.0638926    -0.0790534    -0.0725859    -0.0447231     -0.179876     -0.112784    -0.0873535     -0.136981     -0.141483     -0.123576    -0.0515099    -0.0502177    -0.0143356
          5.2      0.826257      0.908013      0.925534      0.791825      0.850024      0.876379      0.887168      0.973653      0.977172       1.05558       1.07487       1.06885      0.659915       0.74038      0.772396
         5.25     -0.107262    -0.0537488    -0.0209976    -0.0443003    -0.0364803   -0.00560682      -0.13901    -0.0686925    -0.0402734    -0.0908919    -0.0916447     -0.068817    -0.0248264    -0.0200635     0.0182026
          5.3      0.804951      0.888402      0.910463      0.774217      0.831539      0.861704      0.864561      0.953232      0.961321       1.03179       1.05237       1.05199      0.644238        0.7234      0.759137
         5.35     -0.135858    -0.0823974    -0.0523894    -0.0692489    -0.0638807    -0.0348962     -0.168198    -0.0990376    -0.0737539     -0.119692     -0.123589     -0.106238    -0.0454988    -0.0438563   -0.00686548
          5.4      0.787533      0.870732      0.889276      0.759194       0.81403      0.841676      0.847185      0.934866      0.939447       1.01535       1.03417        1.0289      0.631471      0.708312      0.741774
         5.45     -0.105185    -0.0489756    -0.0160568    -0.0404349    -0.0335523   -0.00180503     -0.134148    -0.0620436    -0.0338652    -0.0812681    -0.0817474    -0.0598276     -0.023155    -0.0187461     0.0206492
          5.5      0.765658      0.850419      0.872779       0.74078      0.794974      0.825779      0.824086      0.913571      0.921981      0.990941       1.01067       1.00993      0.615616      0.690855      0.727627
         5.55     -0.128582    -0.0722043    -0.0418783    -0.0609488    -0.0559307    -0.0260089      -0.15762    -0.0864921    -0.0612435     -0.103865     -0.107099    -0.0901889    -0.0399889    -0.0384794  -0.000151007
          5.6      0.751133      0.835927      0.855473      0.728114      0.780526      0.809231      0.809864      0.898703      0.904346      0.977871      0.996329      0.991816      0.605023      0.678025      0.713115
         5.65     -0.103817    -0.0449021    -0.0118078     -0.037746    -0.0310574    0.00130854     -0.129982    -0.0561968    -0.0282058    -0.0726056    -0.0727906    -0.0517063    -0.0217403    -0.0181845     0.0225142
          5.7      0.729397      0.815625      0.838331      0.709504      0.761577       0.79281      0.787027       0.87734      0.886139      0.953729      0.972764      0.971785      0.589461      0.660603      0.698624
         5.75      -0.12268    -0.0633819     -0.032643    -0.0544413    -0.0489692    -0.0183527     -0.148475     -0.075451    -0.0501152    -0.0898005    -0.0923346    -0.0757165    -0.0352054    -0.0343654    0.00550426
          5.8       0.71718       0.80367      0.824225      0.698679      0.749655      0.779136      0.775285      0.865267      0.871972      0.943265      0.961454       0.95769      0.580663       0.64959       0.68647
         5.85     -0.102695    -0.0410514   -0.00770812    -0.0358488     -0.028503    0.00422248     -0.126002    -0.0505873    -0.0226712    -0.0642661    -0.0640939    -0.0437064     -0.020246    -0.0180287      0.024159
          5.9      0.695456      0.783237       0.80639      0.679762      0.730704      0.762125      0.752539      0.843704      0.852986      0.919205      0.937693      0.936619      0.565298      0.632073      0.671542
         5.95      -0.11648    -0.0542471    -0.0229673    -0.0482182    -0.0414254    -0.0103482     -0.138979    -0.0640821    -0.0384967    -0.0754988    -0.0772261    -0.0606953    -0.0299338    -0.0302139     0.0113967
            6      0.686368       0.77468      0.796454       0.67152      0.722098      0.752205       0.74416      0.835376      0.843342      0.912334      0.930473      0.927749      0.558848      0.623505      0.662431
         6.05     -0.103557    -0.0392454   -0.00561201    -0.0362483    -0.0275398    0.00523747     -0.124182    -0.0472233    -0.0193144    -0.0584687    -0.0579895    -0.0382483    -0.0199004    -0.0196482     0.0241487
          6.1      0.665742      0.755171      0.778814      0.653265      0.704103       0.73544      0.722704      0.814773      0.824538      0.889756      0.907861      0.906724      0.544474      0.606755      0.647792
         6.15     -0.113543     -0.048526    -0.0166276    -0.0454379    -0.0367063   -0.00546878     -0.133083    -0.0564273    -0.0304978    -0.0653727    -0.0663465    -0.0498147    -0.0267369     -0.028851     0.0145893
          6.2      0.658537      0.748674      0.771557      0.646515       0.69761      0.727959      0.716304      0.808709      0.817765      0.884941      0.903032      0.901106      0.539542       0.59972      0.640682
         6.25      -0.10639    -0.0395944    -0.0056464    -0.0389443    -0.0282723    0.00424387     -0.124549     -0.046185     -0.018261    -0.0552314    -0.0545156    -0.0354101    -0.0207319    -0.0230615     0.0223817
          6.3      0.638132      0.729169      0.753245      0.628151      0.679706      0.710627      0.695157      0.788083       0.79823      0.862767      0.880502      0.879175      0.525505      0.583022      0.625609
         6.35     -0.111202    -0.0435159    -0.0108752    -0.0436789     -0.032344   -0.00114793     -0.127904    -0.0495213    -0.0231465    -0.0561635    -0.0563711    -0.0396876    -0.0236753    -0.0280923     0.0172311
          6.4      0.632799      0.724756      0.748885      0.622934      0.675323      0.705756      0.690701       0.78432      0.794549      0.859893      0.878039      0.877038      0.522063      0.577532       0.62058
         6.45     -0.112501    -0.0432638   -0.00898554    -0.0450551    -0.0317809   0.000155382     -0.128379    -0.0486214    -0.0208295    -0.0557419    -0.0549919     -0.036687     -0.023502     -0.029066     0.0179029
          6.5      0.612072      0.704581      0.728924      0.603967      0.656857      0.686975      0.669278      0.762955      0.773231      0.837589      0.854887      0.853031      0.507988      0.560465       0.60436
         6.55     -0.107454    -0.0371647   -0.00348243    -0.0410784    -0.0264845    0.00464919     -0.121304    -0.0410885    -0.0140394    -0.0455138    -0.0447641    -0.0275542    -0.0193198    -0.0262534     0.0209848