# Probe 0 (1 0 0.5)
# Probe 1 (2 0 0.5)
# Probe 2 (3 0 0.5)
# Probe 3 (1 0.5 0.5)
# Probe 4 (2 0.5 0.5)
# Probe 5 (3 0.5 0.5)
# Probe 6 (1 -0.5 0.5)
# Probe 7 (2 -0.5 0.5)
# Probe 8 (3 -0.5 0.5)
# Probe 9 (1 -1.5 0.5)
# Probe 10 (2 -1.5 0.5)
# Probe 11 (3 -1.5 0.5)
# Probe 12 (1 1.5 0.5)
# Probe 13 (2 1.5 0.5)
# Probe 14 (3 1.5 0.5)
#       Probe             0             1             2             3             4             5             6             7             8             9            10            11            12            13            14
#        Time
         0.05             (0.532635 -0.38661 1.0096e-18)             (0.726966 -0.431834 0.625694)             (0.797751 -0.378011 0.503396)             (0.745416 -0.517092 -1.43365e-17)             (0.769712 -0.495566 0.545033)             (0.817579 -0.43543 0.457265)             (0.542367 -0.185807 -7.8232e-20)             (0.711983 -0.330852 0.617868)             (0.78347 -0.311513 0.511728)             (0.584477 -0.188871 1.00692e-17)             (0.630574 -0.27339 0.971526)             (0.729989 -0.268044 0.813643)             (0.651872 -0.41423 -8.46567e-18)             (0.791914 -0.467331 0.674482)             (0.832349 -0.423061 0.572576)
          0.1             (0.436972 -0.450411 -1.44832e-19)             (0.67982 -0.329841 -0.116108)             (0.790729 -0.290309 -0.0960014)             (0.622693 -0.544533 2.04807e-18)             (0.720102 -0.391978 -0.110973)             (0.810865 -0.326209 -0.0932097)             (0.45043 -0.22939 1.29846e-20)             (0.690679 -0.268234 -0.107787)             (0.767815 -0.25888 -0.0898158)             (0.553207 -0.183673 -1.54166e-18)             (0.721127 -0.218326 -0.13359)             (0.74438 -0.215506 -0.130744)             (0.599017 -0.448945 1.45966e-18)             (0.800665 -0.396578 -0.151193)             (0.869835 -0.342335 -0.120963)
         0.15             (0.459182 -0.530828 1.79844e-19)             (0.694953 -0.444639 0.138584)             (0.773956 -0.395439 0.123709)             (0.676792 -0.624494 -2.60084e-18)             (0.738226 -0.491601 0.125382)             (0.795934 -0.428844 0.113443)             (0.467545 -0.292981 -9.63212e-21)             (0.693494 -0.376977 0.139983)             (0.75408 -0.366717 0.127779)             (0.625591 -0.233008 1.88971e-18)             (0.719587 -0.302332 0.23062)             (0.734912 -0.319878 0.221531)             (0.703482 -0.519383 -1.59758e-18)             (0.812633 -0.503065 0.165703)             (0.846716 -0.448416 0.145397)
          0.2             (0.447396 -0.49097 -1.50106e-19)             (0.682975 -0.345886 -0.112633)             (0.778714 -0.301714 -0.103422)             (0.653067 -0.572208 2.10744e-18)             (0.72634 -0.389609 -0.10107)             (0.796173 -0.331564 -0.0956396)             (0.465305 -0.247948 9.66152e-21)             (0.682851 -0.286734 -0.115396)             (0.759853 -0.276595 -0.105013)             (0.571755 -0.194739 -1.57856e-18)             (0.69884 -0.216366 -0.19528)             (0.760244 -0.227943 -0.172608)             (0.709924 -0.465736 1.25869e-18)             (0.795176 -0.416505 -0.130908)             (0.846279 -0.363172 -0.127719)
         0.25             (0.439937 -0.508038 5.47742e-20)             (0.66275 -0.386218 0.0374247)             (0.729435 -0.329781 0.00939795)             (0.662783 -0.58898 -7.70209e-19)             (0.709118 -0.425982 0.0325697)             (0.751952 -0.363771 0.0103934)             (0.452952 -0.256479 -6.28766e-21)             (0.651046 -0.318657 0.0354561)             (0.7079 -0.296601 0.00918039)             (0.589482 -0.2029 6.2021e-19)             (0.655999 -0.249201 0.0566169)             (0.686778 -0.254621 0.00566821)             (0.74286 -0.478541 -4.76549e-19)             (0.782329 -0.446581 0.0437872)             (0.801401 -0.387532 0.0108424)
          0.3             (0.42963 -0.504604 -5.08582e-20)             (0.650243 -0.355563 -0.0400088)             (0.71289 -0.301463 -0.0442418)             (0.654217 -0.576031 7.06812e-19)             (0.697063 -0.392084 -0.0361901)             (0.735163 -0.329893 -0.0403793)             (0.445571 -0.246636 3.51157e-21)             (0.639628 -0.295814 -0.0409603)             (0.691656 -0.275023 -0.0437317)             (0.575335 -0.195813 -5.3788e-19)             (0.653363 -0.230489 -0.0648029)             (0.679631 -0.235089 -0.0694703)             (0.73939 -0.460431 4.26246e-19)             (0.775449 -0.415491 -0.0453424)             (0.792943 -0.354112 -0.0507687)
         0.35             (0.41869 -0.500332 -2.34671e-20)             (0.629532 -0.349406 -0.0219024)             (0.676899 -0.291091 -0.039816)             (0.649282 -0.565947 3.3752e-19)             (0.677264 -0.382695 -0.0211079)             (0.702136 -0.316939 -0.0356491)             (0.431421 -0.237034 -8.05117e-22)             (0.614399 -0.290174 -0.0238448)             (0.655247 -0.266444 -0.0395179)             (0.568073 -0.191292 -2.05046e-19)             (0.624338 -0.23092 -0.0375486)             (0.63738 -0.234407 -0.0660121)             (0.742551 -0.446925 1.99116e-19)             (0.759443 -0.400652 -0.0262747)             (0.764869 -0.333829 -0.0461094)
          0.4             (0.403706 -0.487591 -5.55947e-20)             (0.605216 -0.323629 -0.0467639)             (0.638994 -0.263344 -0.0640543)             (0.636224 -0.545062 7.88199e-19)             (0.653319 -0.353853 -0.0435308)             (0.666114 -0.285884 -0.057986)             (0.415284 -0.220816 1.85762e-21)             (0.587378 -0.26799 -0.0493679)             (0.616692 -0.241655 -0.0641496)             (0.551181 -0.181428 -5.54866e-19)             (0.597337 -0.217457 -0.0791711)             (0.594906 -0.216902 -0.108326)             (0.735718 -0.422295 4.68746e-19)             (0.740151 -0.367816 -0.0549374)             (0.733215 -0.29659 -0.0772049)
         0.45             (0.386778 -0.467678 -6.05357e-20)             (0.576454 -0.296633 -0.0515485)             (0.595386 -0.232582 -0.0724009)             (0.620949 -0.518042 8.61241e-19)             (0.6252 -0.323221 -0.0479904)             (0.62422 -0.253305 -0.0654763)             (0.395755 -0.199318 1.67778e-21)             (0.554188 -0.242783 -0.0551659)             (0.571872 -0.21161 -0.0732029)             (0.531584 -0.167656 -6.01949e-19)             (0.558879 -0.201282 -0.0907521)             (0.541928 -0.193087 -0.126927)             (0.729597 -0.39328 5.06567e-19)             (0.716808 -0.332138 -0.0601144)             (0.691264 -0.256996 -0.0902268)
          0.5             (0.368945 -0.445708 -6.38437e-20)             (0.547323 -0.26836 -0.0540835)             (0.554493 -0.201743 -0.0731271)             (0.604627 -0.489028 9.0918e-19)             (0.596455 -0.290965 -0.0502393)             (0.583785 -0.220808 -0.0665603)             (0.375264 -0.17691 1.91805e-21)             (0.52113 -0.217422 -0.0576335)             (0.530224 -0.181946 -0.0737866)             (0.512903 -0.153423 -6.34743e-19)             (0.520005 -0.183525 -0.0953835)             (0.49588 -0.167382 -0.12627)             (0.721462 -0.362646 5.32158e-19)             (0.692152 -0.295303 -0.0633221)             (0.648879 -0.218348 -0.0940023)
         0.55             (0.351782 -0.423771 -6.07123e-20)             (0.52075 -0.242276 -0.0511873)             (0.521248 -0.174745 -0.0665731)             (0.589282 -0.460895 8.64462e-19)             (0.570052 -0.261227 -0.0475321)             (0.550061 -0.191951 -0.0609036)             (0.355211 -0.155025 1.8482e-21)             (0.491794 -0.19437 -0.0543128)             (0.497011 -0.156742 -0.0668823)             (0.496399 -0.139495 -6.0299e-19)             (0.48506 -0.16548 -0.0903444)             (0.462783 -0.144191 -0.111523)             (0.712694 -0.333525 5.06639e-19)             (0.668213 -0.261728 -0.0607113)             (0.613091 -0.185152 -0.0866994)
          0.6             (0.335348 -0.401656 -5.99855e-20)             (0.497086 -0.217219 -0.0500666)             (0.494884 -0.149948 -0.0621832)             (0.574644 -0.43358 8.5737e-19)             (0.546235 -0.233129 -0.0465482)             (0.523088 -0.165129 -0.0570582)             (0.336041 -0.133138 1.74687e-21)             (0.46656 -0.172339 -0.0526568)             (0.471035 -0.134407 -0.0622333)             (0.480926 -0.125435 -5.94244e-19)             (0.455484 -0.146996 -0.0872245)             (0.438825 -0.123473 -0.101555)             (0.702458 -0.305465 5.06047e-19)             (0.645168 -0.230323 -0.0606028)             (0.585381 -0.155376 -0.0804603)
         0.65             (0.320208 -0.381353 -5.45165e-20)             (0.476927 -0.195685 -0.0452789)             (0.474065 -0.129143 -0.0548367)             (0.561828 -0.409295 7.80027e-19)             (0.525772 -0.209129 -0.0421191)             (0.501855 -0.142327 -0.0503092)             (0.318496 -0.11286 1.60088e-21)             (0.445697 -0.153322 -0.0473882)             (0.450612 -0.116053 -0.0548312)             (0.467766 -0.11235 -5.40503e-19)             (0.431864 -0.130162 -0.0782115)             (0.420302 -0.106248 -0.088863)             (0.692644 -0.280464 4.63114e-19)             (0.624584 -0.203566 -0.0554878)             (0.56454 -0.130625 -0.0701648)
          0.7             (0.305999 -0.361098 -5.39039e-20)             (0.459245 -0.174746 -0.0442628)             (0.456532 -0.108863 -0.0522337)             (0.549942 -0.386032 7.72834e-19)             (0.507707 -0.186081 -0.0411718)             (0.484295 -0.120046 -0.0478507)             (0.302293 -0.0927254 1.49645e-21)             (0.427812 -0.134676 -0.0460216)             (0.433198 -0.0982023 -0.0522704)             (0.454864 -0.0992768 -5.32738e-19)             (0.412423 -0.113601 -0.0753938)             (0.404053 -0.0899363 -0.0847116)             (0.682167 -0.256478 4.61363e-19)             (0.606011 -0.178101 -0.0546859)             (0.548293 -0.106704 -0.0657669)
         0.75             (0.292813 -0.343126 -4.72405e-20)             (0.444213 -0.157687 -0.0387213)             (0.441659 -0.0921813 -0.0454716)             (0.539951 -0.366312 6.78225e-19)             (0.492423 -0.167217 -0.0360332)             (0.469607 -0.101602 -0.0415981)             (0.287583 -0.0746415 1.32927e-21)             (0.412818 -0.119335 -0.0401631)             (0.418324 -0.0836724 -0.0455349)             (0.444416 -0.0876891 -4.67238e-19)             (0.396988 -0.0996802 -0.0655414)             (0.389895 -0.0766648 -0.0738762)             (0.672991 -0.235809 4.07116e-19)             (0.590473 -0.157151 -0.0480429)             (0.535207 -0.0867909 -0.0568503)
          0.8             (0.280193 -0.324526 -4.88064e-20)             (0.430578 -0.139726 -0.0395502)             (0.428134 -0.0742569 -0.0456146)             (0.530387 -0.346754 7.00749e-19)             (0.478616 -0.147538 -0.0366982)             (0.456525 -0.081931 -0.041617)             (0.273978 -0.0562873 1.4622e-21)             (0.399253 -0.102957 -0.04091)             (0.40458 -0.0677971 -0.0458157)             (0.433268 -0.0759087 -4.83506e-19)             (0.383338 -0.0852608 -0.0665409)             (0.376397 -0.0626475 -0.074638)             (0.663459 -0.215275 4.21322e-19)             (0.576564 -0.135624 -0.0487891)             (0.523962 -0.0656257 -0.0562059)
         0.85             (0.268494 -0.308512 -4.00644e-20)             (0.419009 -0.126611 -0.0325862)             (0.416207 -0.0610018 -0.0379718)             (0.523014 -0.331035 5.77902e-19)             (0.467016 -0.132878 -0.0303247)             (0.445001 -0.0671779 -0.0346946)             (0.261658 -0.0404103 1.0438e-21)             (0.387752 -0.0909037 -0.0336365)             (0.392525 -0.0562809 -0.0380424)             (0.425115 -0.066092 -3.94892e-19)             (0.372361 -0.0743133 -0.0544588)             (0.364595 -0.0523233 -0.0617775)             (0.655725 -0.198369 3.50043e-19)             (0.565383 -0.119241 -0.0404849)             (0.514087 -0.0493451 -0.0471281)
          0.9             (0.25678 -0.290522 -4.41923e-20)             (0.407877 -0.110425 -0.0357216)             (0.404941 -0.0445142 -0.0407892)             (0.515059 -0.314055 6.38053e-19)             (0.455886 -0.11528 -0.0331518)             (0.434268 -0.0492097 -0.0372024)             (0.25018 -0.0232729 1.3312e-21)             (0.376721 -0.0757984 -0.0368355)             (0.381005 -0.0415244 -0.0409882)             (0.414797 -0.0553378 -4.39999e-19)             (0.361697 -0.0613199 -0.0596752)             (0.353043 -0.0395489 -0.0668517)             (0.646889 -0.180183 3.87864e-19)             (0.554758 -0.100115 -0.0440424)             (0.505078 -0.0298797 -0.0500172)
         0.95             (0.246035 -0.276038 -3.34927e-20)             (0.398686 -0.100578 -0.0271504)             (0.394903 -0.0342132 -0.0317015)             (0.509742 -0.301811 4.84924e-19)             (0.446832 -0.10401 -0.0252911)             (0.424641 -0.037657 -0.0289933)             (0.239912 -0.00951127 7.92688e-22)             (0.367489 -0.0665666 -0.0279411)             (0.370897 -0.0327048 -0.0317012)             (0.408826 -0.0472445 -3.28812e-19)             (0.353354 -0.0529243 -0.0449691)             (0.343115 -0.0316828 -0.0513582)             (0.64061 -0.16648 2.96264e-19)             (0.546656 -0.087388 -0.0337252)             (0.496817 -0.0168854 -0.0394731)
            1             (0.234782 -0.258151 -4.16461e-20)             (0.389229 -0.0853992 -0.0333784)             (0.385192 -0.018508 -0.0376907)             (0.503007 -0.286658 6.02082e-19)             (0.437519 -0.0874564 -0.0309204)             (0.415437 -0.0206148 -0.034394)             (0.230113 0.00669775 1.22202e-21)             (0.358058 -0.0522069 -0.0343533)             (0.360955 -0.0185473 -0.0378986)             (0.399225 -0.0373413 -4.14433e-19)             (0.344328 -0.0407142 -0.0555829)             (0.333057 -0.0195238 -0.0619165)             (0.632458 -0.149987 3.66409e-19)             (0.538096 -0.0695826 -0.0409455)             (0.489083 0.00151246 -0.0461891)
         1.05             (0.224487 -0.244943 -2.6921e-20)             (0.381721 -0.0788527 -0.0218508)             (0.376578 -0.0114181 -0.0257856)             (0.499361 -0.277595 3.92067e-19)             (0.430286 -0.0796082 -0.0204099)             (0.407105 -0.0123842 -0.0236711)             (0.221529 0.0184156 5.09226e-22)             (0.350452 -0.0459269 -0.0224186)             (0.352354 -0.0127208 -0.0256832)             (0.395505 -0.0309845 -2.62227e-19)             (0.337825 -0.0348128 -0.0358237)             (0.324641 -0.0142226 -0.0413996)             (0.627802 -0.13925 2.4182e-19)             (0.532176 -0.0604124 -0.0272417)             (0.481817 0.0110528 -0.0325209)
          1.1             (0.213428 -0.226621 -4.04622e-20)             (0.373394 -0.06384 -0.0322342)             (0.368205 0.00418005 -0.0359086)             (0.493367 -0.263523 5.85199e-19)             (0.422172 -0.0633225 -0.0298095)             (0.399249 0.00431053 -0.0327278)             (0.213194 0.034038 1.21908e-21)             (0.342136 -0.0315855 -0.033134)             (0.343749 0.00144579 -0.0361216)             (0.386015 -0.0215973 -4.0367e-19)             (0.329867 -0.0227657 -0.0536264)             (0.31591 -0.00223226 -0.0591174)             (0.620025 -0.123745 3.56369e-19)             (0.524842 -0.0430411 -0.0393545)             (0.475091 0.029169 -0.0439837)
         1.15             (0.203512 -0.214663 -2.01275e-20)             (0.367242 -0.0607883 -0.0164633)             (0.361114 0.00812817 -0.0197855)             (0.491336 -0.257421 2.96436e-19)             (0.41643 -0.0590915 -0.0154862)             (0.392269 0.00878289 -0.0182668)             (0.206002 0.0436571 1.59723e-22)             (0.335829 -0.0284538 -0.016817)             (0.336261 0.00412611 -0.0197509)             (0.384646 -0.0169641 -1.92885e-19)             (0.324844 -0.0194699 -0.0265654)             (0.308901 -0.000229915 -0.0313405)             (0.617033 -0.115854 1.85323e-19)             (0.520613 -0.0375188 -0.0207796)             (0.46859 0.0350298 -0.0257103)
          1.2             (0.192521 -0.195586 -4.04532e-20)             (0.359769 -0.0453114 -0.0320455)             (0.35419 0.0240724 -0.0349869)             (0.485704 -0.243848 5.84361e-19)             (0.409199 -0.042432 -0.0295638)             (0.385567 0.0257 -0.0319939)             (0.198995 0.0589462 1.31468e-21)             (0.328452 -0.0136226 -0.0328979)             (0.328969 0.0187713 -0.0353261)             (0.374849 -0.00785537 -4.05212e-19)             (0.317733 -0.00713691 -0.0533067)             (0.301669 0.0115295 -0.0577705)             (0.609396 -0.100847 3.55929e-19)             (0.51403 -0.0199439 -0.0389321)             (0.46291 0.0532434 -0.0428427)
         1.25             (0.182935 -0.184838 -1.33615e-20)             (0.354708 -0.0457361 -0.0111938)             (0.348005 0.0243823 -0.0141489)             (0.485122 -0.240413 2.0169e-19)             (0.404674 -0.041818 -0.0106851)             (0.37941 0.0263541 -0.0132113)             (0.192962 0.0664335 -2.40752e-22)             (0.323186 -0.013629 -0.0113536)             (0.323101 0.0186878 -0.0137717)             (0.375684 -0.00485781 -1.23931e-19)             (0.313867 -0.00645751 -0.0175158)             (0.295494 0.0111477 -0.0218447)             (0.607972 -0.0956334 1.29086e-19)             (0.511136 -0.0180078 -0.0145327)             (0.457135 0.0554401 -0.0191095)
          1.3             (0.172132 -0.165063 -4.09546e-20)             (0.347971 -0.0296248 -0.0322372)             (0.342117 0.0408589 -0.034618)             (0.479577 -0.22704 5.90237e-19)             (0.398195 -0.0246033 -0.0296691)             (0.373781 0.0438425 -0.03162)             (0.187341 0.0813871 1.45675e-21)             (0.316628 0.00187936 -0.0330657)             (0.317002 0.0343157 -0.0349165)             (0.365454 0.00401725 -4.11961e-19)             (0.307703 0.0060294 -0.053631)             (0.289707 0.0241343 -0.0571093)             (0.600413 -0.0809241 3.596e-19)             (0.505074 -5.32985e-05 -0.0390195)             (0.452548 0.0738878 -0.0421474)
         1.35             (0.162891 -0.155237 -7.54209e-21)             (0.34375 -0.0329858 -0.00666781)             (0.336354 0.0382451 -0.00947991)             (0.480146 -0.225662 1.19565e-19)             (0.394683 -0.0271158 -0.00655608)             (0.368163 0.0414157 -0.00895107)             (0.182423 0.0872004 -5.41837e-22)             (0.312223 -0.00126085 -0.00665994)             (0.311382 0.0316677 -0.0090522)             (0.368517 0.00549936 -6.45199e-20)             (0.304614 0.00442799 -0.00979436)             (0.284195 0.0216292 -0.0137802)             (0.600401 -0.0779058 8.04429e-20)             (0.503153 -0.00130514 -0.00919584)             (0.447215 0.0729389 -0.0135642)
          1.4             (0.152218 -0.134931 -4.11387e-20)             (0.337693 -0.0164769 -0.0322039)             (0.331552 0.0550078 -0.0340116)             (0.474649 -0.212433 5.92185e-19)             (0.388852 -0.00963212 -0.0295911)             (0.363547 0.0592309 -0.0310794)             (0.177867 0.101805 1.52729e-21)             (0.306372 0.015019 -0.032984)             (0.306466 0.047405 -0.0343319)             (0.358041 0.0141408 -4.14928e-19)             (0.299284 0.0172942 -0.0535403)             (0.279795 0.0350786 -0.0560762)             (0.592944 -0.0635576 3.60575e-19)             (0.497561 0.0168184 -0.0388932)             (0.443551 0.0914208 -0.0413434)
         1.45             (0.143303 -0.125688 -3.13593e-21)             (0.334157 -0.0221096 -0.00323394)             (0.326099 0.0504008 -0.00599253)             (0.475934 -0.212401 5.72782e-20)             (0.386023 -0.0145818 -0.00344981)             (0.358299 0.0546044 -0.005774)             (0.173845 0.106419 -7.50746e-22)             (0.30229 0.0107727 -0.00313153)             (0.301179 0.0429758 -0.00549818)             (0.362488 0.0146322 -2.00149e-20)             (0.296803 0.0142534 -0.00404299)             (0.274582 0.0310319 -0.00788148)             (0.594054 -0.0621484 4.35212e-20)             (0.496255 0.0134501 -0.00520444)             (0.4385 0.0882149 -0.00940671)
          1.5             (0.132854 -0.105193 -4.06925e-20)             (0.328629 -0.00559427 -0.0317516)             (0.32223 0.0670506 -0.0330756)             (0.470443 -0.199332 5.85458e-19)             (0.380783 0.00281117 -0.0291369)             (0.354515 0.0723336 -0.0302485)             (0.170182 0.120448 1.53719e-21)             (0.29722 0.0268447 -0.0324773)             (0.297215 0.0585073 -0.0334022)             (0.351973 0.0229765 -4.11374e-19)             (0.292215 0.0274985 -0.0527357)             (0.271294 0.044507 -0.0545185)             (0.58676 -0.0482859 3.56483e-19)             (0.491058 0.0314336 -0.0383015)             (0.435571 0.1064 -0.0402069)
         1.55             (0.124198 -0.0963 -1.66101e-22)             (0.32553 -0.0126272 -0.000940549)             (0.317085 0.0611995 -0.00363059)             (0.471961 -0.199971 1.5237e-20)             (0.378455 -0.00374467 -0.00136991)             (0.34958 0.0663508 -0.00361766)             (0.166901 0.1241 -8.83036e-22)             (0.293623 0.0214845 -0.000777712)             (0.292233 0.0529284 -0.00311445)             (0.357367 0.0227956 9.86492e-21)             (0.290063 0.023527 -0.000185023)             (0.266186 0.0394658 -0.00400408)             (0.588661 -0.047942 1.86043e-20)             (0.490211 0.026686 -0.00249711)             (0.430754 0.101777 -0.00656645)
          1.6             (0.113993 -0.0758131 -3.97218e-20)             (0.320429 0.00357336 -0.0309337)             (0.313902 0.0774726 -0.0318986)             (0.466374 -0.187034 5.71251e-19)             (0.37373 0.0135215 -0.0283488)             (0.346404 0.0836787 -0.0291948)             (0.164096 0.137458 1.5119e-21)             (0.289061 0.0372196 -0.0316153)             (0.28898 0.0680708 -0.0322218)             (0.347077 0.030753 -4.02411e-19)             (0.286113 0.0365916 -0.0513277)             (0.263738 0.052685 -0.052563)             (0.581618 -0.0346602 3.47871e-19)             (0.485429 0.044211 -0.0372646)             (0.428358 0.119409 -0.0387993)
         1.65             (0.105631 -0.0671678 1.75811e-21)             (0.317567 -0.00434434 0.000536605)             (0.309017 0.0709033 -0.00206196)             (0.46781 -0.187845 -1.20554e-20)             (0.371714 0.00603127 -1.50986e-05)             (0.341738 0.0768776 -0.00218435)             (0.161474 0.14038 -9.71779e-22)             (0.285745 0.0311328 0.000745865)             (0.284241 0.0618634 -0.00153667)             (0.353047 0.0301263 2.9033e-20)             (0.284191 0.032043 0.00230471)             (0.258757 0.0470649 -0.00145424)             (0.58404 -0.0350128 2.41351e-21)             (0.484935 0.038607 -0.000717809)             (0.423764 0.113918 -0.00464913)
          1.7             (0.095793 -0.0469902 -3.84944e-20)             (0.312819 0.0114077 -0.0299334)             (0.306347 0.0866529 -0.0306422)             (0.462025 -0.17494 5.53564e-19)             (0.367412 0.0223389 -0.0274139)             (0.339038 0.0936369 -0.0280642)             (0.159369 0.153021 1.45533e-21)             (0.28161 0.0464051 -0.0305706)             (0.281509 0.0765287 -0.0309532)             (0.343105 0.0377067 -3.90572e-19)             (0.280738 0.0447795 -0.0496382)             (0.256933 0.0599085 -0.0504723)             (0.577326 -0.0223137 3.37103e-19)             (0.480466 0.0554967 -0.0360415)             (0.421769 0.130887 -0.0372926)
         1.75             (0.0877574 -0.0385871 2.97324e-21)             (0.310112 0.00312241 0.00146864)             (0.301713 0.0796932 -0.0010242)             (0.463092 -0.175549 -2.94629e-20)             (0.365783 0.0143856 0.000855312)             (0.33463 0.0863902 -0.00123187)             (0.157327 0.155373 -1.02177e-21)             (0.278497 0.0399606 0.00170909)             (0.277008 0.0699944 -0.000498914)             (0.349402 0.0367819 4.09023e-20)             (0.279006 0.0399062 0.00387364)             (0.252116 0.0539888 0.000211477)             (0.580103 -0.0231147 -7.99069e-21)             (0.480152 0.0493728 0.00041407)             (0.417382 0.124899 -0.00336348)
          1.8             (0.0783387 -0.0189112 -3.70816e-20)             (0.305628 0.0182327 -0.0288151)             (0.29944 0.0948065 -0.0293291)             (0.457003 -0.162592 5.33193e-19)             (0.361783 0.0299944 -0.0263798)             (0.332292 0.102463 -0.0268757)             (0.15582 0.16729 1.39509e-21)             (0.274689 0.0546843 -0.0294098)             (0.274695 0.0840707 -0.029628)             (0.339885 0.0439731 -3.76787e-19)             (0.275971 0.0522084 -0.0477532)             (0.250778 0.0663548 -0.0482838)             (0.573724 -0.011022 3.24899e-19)             (0.476014 0.0655398 -0.0346788)             (0.415699 0.14111 -0.0357215)
         1.85             (0.0706888 -0.0108025 3.71548e-21)             (0.303026 0.00981689 0.00204251)             (0.295039 0.08768 -0.000334283)             (0.457538 -0.162781 -4.02953e-20)             (0.360225 0.0216948 0.00137733)             (0.328123 0.0949945 -0.000598455)             (0.154303 0.169187 -1.04383e-21)             (0.271756 0.0481239 0.00229925)             (0.270419 0.0774313 0.000181035)             (0.346334 0.042855 4.78389e-20)             (0.27441 0.0471912 0.00482375)             (0.246156 0.0603222 0.00128835)             (0.576688 -0.0121121 -1.43459e-20)             (0.475877 0.0591517 0.00112425)             (0.411534 0.13485 -0.00248699)
          1.9             (0.0617247 0.00825568 -3.57014e-20)             (0.298759 0.0243193 -0.0277299)             (0.293083 0.102182 -0.0280994)             (0.451007 -0.149647 5.13297e-19)             (0.356544 0.0366658 -0.0253761)             (0.326079 0.11041 -0.0257595)             (0.153306 0.18043 1.33097e-21)             (0.268212 0.0623204 -0.0282872)             (0.268437 0.0909374 -0.0283875)             (0.337258 0.0496985 -3.63197e-19)             (0.271706 0.0590629 -0.0459364)             (0.245175 0.0722338 -0.0462484)             (0.570653 -0.000556503 3.12892e-19)             (0.471981 0.0746132 -0.0333658)             (0.410087 0.150344 -0.0342439)
         1.95             (0.0544978 0.0159686 4.24899e-21)             (0.296243 0.015824 0.0024604)             (0.288917 0.0949553 0.000201372)             (0.450869 -0.149278 -4.82085e-20)             (0.35517 0.0281453 0.00176889)             (0.322138 0.102811 -0.000107024)             (0.152251 0.181909 -1.05868e-21)             (0.26545 0.0557048 0.00273432)             (0.264394 0.0842291 0.000712656)             (0.343814 0.0484228 5.27532e-20)             (0.270325 0.0539573 0.00552406)             (0.240782 0.06614 0.00213926)             (0.573746 -0.00187865 -1.90344e-20)             (0.471971 0.0680481 0.00164382)             (0.406131 0.143904 -0.00180254)
            2             (0.0460414 0.0342304 -3.42324e-20)             (0.292168 0.0296839 -0.0265809)             (0.287259 0.108763 -0.0268151)             (0.443839 -0.135959 4.92068e-19)             (0.35179 0.0422702 -0.024318)             (0.320368 0.117486 -0.0245951)             (0.151715 0.192455 1.26464e-21)             (0.262174 0.0693145 -0.0270995)             (0.262732 0.0970956 -0.0270859)             (0.33522 0.0548926 -3.4866e-19)             (0.267963 0.065335 -0.0439986)             (0.240169 0.077514 -0.0440862)             (0.568017 0.00906122 3.00286e-19)             (0.468348 0.0827432 -0.0319907)             (0.404912 0.158614 -0.0327145)
         2.05             (0.0392502 0.0415735 4.33942e-21)             (0.289697 0.0213563 0.00254209)             (0.283304 0.101691 0.000394063)             (0.442877 -0.13483 -4.99389e-20)             (0.350551 0.0338237 0.00185845)             (0.316637 0.110019 7.77713e-05)             (0.151057 0.193662 -1.05111e-21)             (0.259542 0.0628896 0.00281822)             (0.25889 0.0905682 0.000886803)             (0.341721 0.0535791 5.3121e-20)             (0.266686 0.0603386 0.00563316)             (0.235951 0.0715828 0.00237266)             (0.571185 0.00767251 -2.01652e-20)             (0.468392 0.0762526 0.00177365)             (0.40115 0.152247 -0.00150779)
          2.1             (0.0312893 0.0590672 -3.2956e-20)             (0.285716 0.0346708 -0.0255948)             (0.281795 0.114957 -0.0257663)             (0.435231 -0.121176 4.73556e-19)             (0.347361 0.0472715 -0.0234112)             (0.315016 0.124089 -0.0236337)             (0.150891 0.203633 1.20758e-21)             (0.256424 0.0760449 -0.02609)             (0.257381 0.102968 -0.0260341)             (0.333533 0.0597751 -3.36071e-19)             (0.264508 0.0713205 -0.0423728)             (0.235468 0.0825634 -0.0423945)             (0.565808 0.0181513 2.89191e-19)             (0.464964 0.0903234 -0.0307974)             (0.400046 0.16632 -0.0314426)
         2.15             (0.0250033 0.0657351 4.82967e-21)             (0.283327 0.0262398 0.0029278)             (0.278085 0.107718 0.000923907)             (0.433511 -0.119497 -5.73917e-20)             (0.346275 0.0386052 0.00221991)             (0.311513 0.116448 0.000548206)             (0.150611 0.204393 -1.07166e-21)             (0.253983 0.0695192 0.00322814)             (0.253796 0.0962723 0.00140996)             (0.340145 0.058276 5.7631e-20)             (0.263487 0.0661873 0.00630568)             (0.231573 0.0764897 0.00325861)             (0.569021 0.0164889 -2.44561e-20)             (0.465152 0.0836316 0.00224955)             (0.396496 0.159737 -0.000865888)