/*--------------------------------*- C++ -*----------------------------------*\
  =========                 |
  \\      /  F ield         | OpenFOAM: The Open Source CFD Toolbox
   \\    /   O peration     | Website:  https://openfoam.org
    \\  /    A nd           | Version:  7
     \\/     M anipulation  |
\*---------------------------------------------------------------------------*/
FoamFile
{
    version     2.0;
    format      ascii;
    class       volScalarField;
    location    "50.6";
    object      p;
}
// * * * * * * * * * * * * * * * * * * * * * * * * * * * * * * * * * * * * * //

dimensions      [0 2 -2 0 0 0 0];

internalField   nonuniform List<scalar> 
2000
(
0.0382312
0.038153
0.03841
0.0387778
0.0392253
0.0397339
0.0402923
0.040895
0.0415319
0.0422311
0.0385333
0.0384894
0.0387985
0.0392299
0.0397404
0.0403007
0.0408893
0.0414912
0.0420854
0.0426839
0.0387274
0.0387516
0.0391205
0.0396194
0.0401952
0.0408106
0.0414364
0.0420512
0.0426268
0.0431446
0.0388062
0.0389346
0.039368
0.0399333
0.0405699
0.0412355
0.0418969
0.0425297
0.0431061
0.0435676
0.0387693
0.0390375
0.0395371
0.0401624
0.0408477
0.04155
0.0422353
0.0428796
0.0434654
0.0438955
0.0386232
0.039065
0.0396282
0.040302
0.0410179
0.041735
0.0424216
0.0430577
0.043643
0.0440598
0.0383827
0.0390244
0.0396459
0.0403523
0.0410752
0.0417776
0.042434
0.0430297
0.043584
0.0439885
0.0380691
0.0389253
0.0395968
0.0403162
0.0410176
0.0416705
0.0422587
0.0427745
0.0432553
0.043629
0.0377056
0.038781
0.0394891
0.0401977
0.040845
0.0414084
0.0418839
0.0422757
0.042643
0.0429712
0.0373198
0.0386051
0.0393319
0.0400025
0.0405606
0.0409906
0.041298
0.0414959
0.0416623
0.0418814
0.0443283
0.0486606
0.0533776
0.0582927
0.0628352
0.0672752
0.0706867
0.0743871
0.0757604
0.0777102
0.0444597
0.0482204
0.0523327
0.0568204
0.0610408
0.0652134
0.0683703
0.0718557
0.0732049
0.0749831
0.0445272
0.0478703
0.0513086
0.0553638
0.0592795
0.0632057
0.0661397
0.0694443
0.0707198
0.0723889
0.0444792
0.0476033
0.0503092
0.053934
0.0575557
0.061247
0.0639903
0.0671305
0.0683259
0.0699248
0.0442745
0.0473719
0.0493415
0.0525443
0.0558779
0.0593475
0.0619279
0.0649213
0.0660533
0.0675954
0.0438884
0.0470836
0.0484149
0.0511995
0.0542395
0.0574935
0.0599249
0.0627831
0.0638751
0.0653799
0.0433165
0.0466301
0.047536
0.0499097
0.0526639
0.055716
0.0580171
0.0607545
0.061817
0.0632804
0.0425615
0.0459305
0.0466886
0.0486427
0.0511028
0.0539487
0.0561282
0.0587528
0.0598089
0.061261
0.0416381
0.0449267
0.0458422
0.0474812
0.0496809
0.0523193
0.0543873
0.0568892
0.0579262
0.0593334
0.0407759
0.0437298
0.0448046
0.04617
0.0481159
0.0505498
0.0525334
0.0549277
0.0560212
0.0574303
0.03998
0.0429041
0.0444514
0.0452078
0.0462009
0.0477651
0.0493346
0.0510965
0.0521024
0.0530422
0.0323783
0.0351647
0.0373387
0.0389921
0.0403991
0.0419169
0.0433071
0.0446252
0.045398
0.0459661
0.024343
0.0269478
0.0292441
0.0312856
0.0331137
0.0349805
0.0365748
0.0379238
0.0386565
0.0390994
0.0163246
0.0186866
0.0210632
0.0233884
0.0255833
0.027758
0.0295365
0.0310034
0.031867
0.0324005
0.00896691
0.0109525
0.0132302
0.0156438
0.0181282
0.0206652
0.022726
0.0243385
0.0252842
0.0258743
0.00291025
0.00447273
0.00650427
0.00885261
0.011424
0.0140933
0.0163129
0.0180778
0.0191495
0.0197822
-0.00135116
-0.000312689
0.00122888
0.00332169
0.00589979
0.00860646
0.0107913
0.0124976
0.0135632
0.0142146
-0.0035394
-0.00296152
-0.0019915
-0.000431413
0.00177742
0.00427772
0.00630137
0.00784207
0.00876995
0.00934735
-0.00382164
-0.00363243
-0.00311364
-0.0020474
-0.000437426
0.00142502
0.00290983
0.00405064
0.00470737
0.00515332
-0.00208914
-0.00219697
-0.00214969
-0.00172351
-0.000923847
2.16678e-05
0.000692134
0.00121287
0.00143921
0.00165807
0.0365468
0.0294435
0.0220326
0.0146544
0.00791966
0.00237261
-0.0015032
-0.00345545
-0.00361571
-0.00191214
0.0348771
0.0277665
0.0205491
0.0134651
0.00708812
0.00188588
-0.00169034
-0.00344254
-0.0035042
-0.00184355
0.0331423
0.0263119
0.0193317
0.0125223
0.00645343
0.00153778
-0.0017904
-0.00337754
-0.003358
-0.00177829
0.0315857
0.025092
0.0183493
0.0118071
0.00602877
0.00136519
-0.00176271
-0.0032354
-0.00317546
-0.00168741
0.0302912
0.0241088
0.0175945
0.0112964
0.00578074
0.00133481
-0.00162584
-0.00302411
-0.00295813
-0.00155984
0.0293074
0.02337
0.0170698
0.0109887
0.00570417
0.00144041
-0.00139289
-0.00274908
-0.00270607
-0.00141478
0.0286455
0.0228755
0.0167681
0.0108775
0.0057897
0.00167229
-0.00106944
-0.00241428
-0.00242178
-0.00125521
0.0282917
0.0226169
0.0166846
0.0109485
0.00602427
0.00201912
-0.000664358
-0.00202541
-0.00210871
-0.00108311
0.0282371
0.0225799
0.0167994
0.0111864
0.00639209
0.0024675
-0.000188426
-0.00158978
-0.0017713
-0.000902339
0.0284395
0.0227476
0.0170918
0.0115698
0.00687368
0.00300148
0.000346094
-0.00111593
-0.00141505
-0.000717486
0.0288377
0.023076
0.017524
0.0120668
0.0074434
0.00360179
0.000925376
-0.000613313
-0.00104614
-0.000533002
0.0293907
0.023531
0.0180675
0.0126543
0.00808082
0.00425248
0.00153666
-9.14681e-05
-0.000670897
-0.00035285
0.0300764
0.0240956
0.0187056
0.0133187
0.00877152
0.00494089
0.00216884
0.000440747
-0.000295101
-0.000180269
0.0308697
0.0247521
0.0194189
0.0140451
0.00950104
0.00565473
0.00281187
0.000975541
7.64938e-05
-1.72208e-05
0.0317492
0.0254876
0.0201898
0.0148205
0.0102569
0.00638314
0.00345733
0.00150651
0.000440432
0.000135366
0.032694
0.0262906
0.0210004
0.015632
0.0110281
0.00711654
0.00409837
0.00202871
0.000794554
0.000277469
0.0336682
0.0271406
0.0218298
0.0164653
0.0118049
0.00784692
0.00472995
0.00253875
0.00113791
0.00040985
0.0346638
0.0280559
0.0226938
0.0173306
0.0125946
0.00857681
0.00535274
0.00303638
0.00147117
0.000533879
0.0358144
0.0291793
0.0236854
0.0182903
0.0134376
0.00932784
0.00597708
0.00352583
0.00179721
0.000650373
0.0367873
0.0302933
0.0246222
0.019211
0.0142526
0.0100476
0.00657767
0.0039954
0.00211347
0.000755053
0.0360203
0.0310231
0.0255933
0.0204885
0.0156499
0.0114281
0.00784799
0.00502948
0.00281884
0.000980936
0.0352643
0.0305287
0.0254932
0.0208212
0.0163335
0.0123616
0.00887868
0.00600339
0.00355231
0.00129426
0.0357788
0.0310844
0.0261356
0.0215965
0.0171878
0.0132708
0.00976333
0.00679051
0.00414126
0.00156912
0.0366252
0.0318358
0.0268974
0.0224027
0.0180114
0.0140854
0.0105156
0.00745746
0.00466754
0.00184934
0.0379729
0.0329167
0.0278627
0.0232911
0.0188327
0.0148391
0.0111894
0.00806377
0.0051759
0.00214596
0.0397511
0.034326
0.0290512
0.0242835
0.0196938
0.0155848
0.0118457
0.008648
0.00567037
0.00243947
0.0418132
0.0359787
0.030383
0.0253401
0.0205918
0.0163453
0.0125106
0.00920631
0.00608617
0.00261587
0.0438916
0.0374075
0.0316049
0.0263673
0.0214927
0.0171116
0.0131622
0.0096716
0.00630331
0.00258224
0.0453536
0.0389812
0.0328831
0.0273194
0.0222634
0.0177521
0.0136769
0.00995341
0.00629009
0.00237987
0.0467107
0.0394889
0.033224
0.0276612
0.0226401
0.0181175
0.0139769
0.0100956
0.00624348
0.00223515
0.0392381
0.0386993
0.0391808
0.0399825
0.0414958
0.0434541
0.0456745
0.0484936
0.0496792
0.0518494
0.0400494
0.0399574
0.0406071
0.0415354
0.0432311
0.0453382
0.047703
0.0504758
0.0519566
0.0538095
0.0404856
0.0407996
0.0417727
0.043056
0.0450918
0.0474817
0.0501036
0.0527428
0.0545793
0.0558213
0.0411049
0.0416519
0.0428516
0.0444763
0.0468224
0.04949
0.0523796
0.055076
0.0571495
0.0581403
0.0418688
0.0426742
0.0440548
0.0459467
0.0485244
0.051407
0.0545188
0.0573959
0.0596371
0.0607028
0.042658
0.043792
0.0454042
0.0475483
0.0503242
0.0533857
0.0566766
0.0597486
0.0621348
0.0633881
0.0434597
0.0449387
0.046842
0.0492621
0.0522499
0.0554994
0.0589599
0.0622025
0.0647213
0.0661352
0.0443021
0.0461125
0.0483379
0.0510496
0.0542735
0.0577392
0.0613866
0.064788
0.0674277
0.0689419
0.0452017
0.0473267
0.0498927
0.0528927
0.0563692
0.0600732
0.0639309
0.0674982
0.0702536
0.0718275
0.0461607
0.0485793
0.0515107
0.0547856
0.058527
0.0624795
0.0665661
0.070314
0.0731877
0.0748068
0.0471807
0.0498545
0.0531885
0.0567188
0.060743
0.0649477
0.0692792
0.0732221
0.0762216
0.0778856
0.048261
0.0511284
0.0549139
0.058676
0.0630086
0.0674691
0.0720632
0.0762148
0.0793513
0.081064
0.0493787
0.0523857
0.0566584
0.0606418
0.0653079
0.0700426
0.0749177
0.0792919
0.0825817
0.0843471
0.0504918
0.0536215
0.0583819
0.0626061
0.067622
0.0726636
0.0778354
0.0824513
0.08592
0.0877487
0.0515472
0.0548396
0.0600382
0.0645554
0.06995
0.0753393
0.0808199
0.0856971
0.0893574
0.0912585
0.0524844
0.056039
0.0616054
0.0665108
0.0722512
0.0780113
0.0838334
0.0890047
0.0928791
0.0948674
0.0532274
0.057254
0.0630943
0.068405
0.0745026
0.0806667
0.0868735
0.0923742
0.0964882
0.0985841
0.0537528
0.0584101
0.0644355
0.0701582
0.0766356
0.0832369
0.0898754
0.0957596
0.100162
0.102403
0.0540955
0.059468
0.0656651
0.0718275
0.0787139
0.0857866
0.0928873
0.0991895
0.103917
0.106346
0.0540167
0.0601307
0.0664887
0.0730692
0.0803621
0.0879507
0.0956096
0.102472
0.107665
0.110383
0.055727
0.0635835
0.0703373
0.077749
0.0858364
0.0944013
0.103092
0.111023
0.117139
0.120479
0.064645
0.0722717
0.0795094
0.0882563
0.0977839
0.107973
0.118299
0.127694
0.134912
0.138789
0.074226
0.082416
0.0907052
0.100987
0.112094
0.124087
0.136066
0.146813
0.154976
0.159372
0.0841438
0.0933424
0.103211
0.115261
0.128202
0.142256
0.155907
0.167962
0.17695
0.18165
0.0943954
0.104943
0.116666
0.130638
0.145632
0.161856
0.177129
0.190449
0.20013
0.205273
0.105296
0.11728
0.131027
0.147013
0.164188
0.182529
0.199333
0.213808
0.223857
0.228759
0.116299
0.129865
0.145552
0.163488
0.182803
0.202985
0.221221
0.236592
0.246657
0.251755
0.127169
0.142079
0.159555
0.17934
0.200663
0.222402
0.242185
0.258435
0.268031
0.271058
0.135141
0.151269
0.170098
0.191286
0.214111
0.237038
0.258283
0.275206
0.284244
0.288327
0.140937
0.157615
0.177383
0.199572
0.22346
0.247467
0.270497
0.290312
0.302381
0.289921
0.0533667
0.0616086
0.0700786
0.0792519
0.0885785
0.0988917
0.108929
0.119414
0.126616
0.132334
0.0529288
0.0615137
0.0696983
0.078603
0.0875933
0.0975898
0.107173
0.117288
0.123817
0.129337
0.0530426
0.06212
0.0702541
0.079075
0.0878958
0.0975954
0.106746
0.116258
0.121957
0.127011
0.0529426
0.062203
0.0702619
0.0790465
0.0877373
0.0972106
0.105998
0.115033
0.120212
0.124815
0.05276
0.0619804
0.0699348
0.0785948
0.0870996
0.0963228
0.104762
0.113443
0.118354
0.122635
0.05258
0.0616968
0.0696443
0.078117
0.086411
0.0953455
0.103428
0.111791
0.116521
0.120579
0.0523858
0.0614368
0.0694054
0.0777419
0.0858695
0.0945333
0.10229
0.11035
0.114905
0.118777
0.0521731
0.0611983
0.0691876
0.0774294
0.0854744
0.0939153
0.10144
0.109196
0.11362
0.1173
0.0519613
0.0609862
0.0690013
0.077181
0.0851731
0.0934351
0.100886
0.10827
0.112694
0.116146
0.0517763
0.060818
0.0688694
0.0770187
0.0849655
0.0931135
0.100507
0.107616
0.112063
0.115297
0.0516429
0.0607088
0.0688103
0.0769575
0.084875
0.0929578
0.100291
0.107234
0.111682
0.114756
0.0515528
0.0606456
0.0688195
0.0769938
0.0849099
0.0929681
0.100262
0.107113
0.111547
0.114519
0.0514748
0.0605998
0.068881
0.0771147
0.0850654
0.0931439
0.100436
0.107244
0.111671
0.114581
0.0513921
0.0605657
0.0689891
0.0773121
0.0853363
0.0934818
0.100814
0.107623
0.112057
0.114931
0.0512896
0.0605486
0.0691408
0.0775822
0.0857223
0.0939792
0.101394
0.10825
0.112708
0.115563
0.0511361
0.0605438
0.06932
0.0779112
0.0862104
0.0946178
0.102159
0.109106
0.113605
0.116469
0.0508947
0.0605481
0.0695137
0.0782936
0.0868
0.0954029
0.103125
0.110197
0.114758
0.11765
0.0504887
0.0605116
0.0696663
0.0786743
0.0874291
0.0962674
0.104228
0.111468
0.116122
0.119099
0.0499624
0.0604995
0.0698362
0.0791093
0.0881585
0.0972741
0.105524
0.112961
0.11774
0.120825
0.0488691
0.0600887
0.0696587
0.0792316
0.0886096
0.0980558
0.106702
0.114462
0.11948
0.122819
0.0496903
0.0615656
0.0714245
0.0815068
0.0915556
0.101581
0.110965
0.119223
0.124799
0.128386
0.0589433
0.069781
0.0792869
0.0900365
0.100992
0.112159
0.122828
0.132145
0.138536
0.142162
0.0685832
0.0795482
0.0897226
0.101653
0.11385
0.12664
0.13894
0.14969
0.157034
0.160876
0.077923
0.0896105
0.101275
0.114973
0.12909
0.144285
0.158851
0.171739
0.180718
0.185237
0.0869557
0.0998743
0.113512
0.129322
0.145968
0.164257
0.181839
0.197956
0.209758
0.215896
0.095952
0.110384
0.126345
0.144522
0.164278
0.186187
0.207663
0.228451
0.245121
0.255282
0.104384
0.120614
0.138783
0.159543
0.182762
0.208463
0.234912
0.262279
0.286903
0.306038
0.112553
0.130323
0.150663
0.174116
0.200768
0.230538
0.263316
0.299478
0.336994
0.375125
0.117059
0.136063
0.158048
0.183525
0.213163
0.247363
0.287582
0.335344
0.394023
0.466108
0.120581
0.141661
0.16534
0.192987
0.225929
0.265364
0.314041
0.376697
0.465521
0.584971
0.0462933
0.0548008
0.0628637
0.0713637
0.0793952
0.0879515
0.0949907
0.102819
0.1068
0.108649
0.045393
0.0539079
0.061829
0.0699102
0.0774914
0.085723
0.0921741
0.0997744
0.103281
0.105612
0.0451093
0.0537664
0.0617024
0.069519
0.0767513
0.0845304
0.0904745
0.0975914
0.100521
0.104091
0.0447707
0.0532764
0.0610249
0.0686204
0.0755533
0.0829101
0.088432
0.0950565
0.0975353
0.101753
0.0444627
0.0525585
0.0599177
0.0672747
0.0738368
0.0807512
0.0858637
0.0920358
0.0941379
0.0983037
0.0442496
0.0518252
0.058785
0.0657574
0.0719855
0.0784055
0.0831023
0.0888266
0.0905753
0.0943192
0.0441202
0.0511168
0.0577008
0.0642366
0.0701463
0.0760959
0.0804208
0.0856926
0.0871294
0.0903975
0.0440684
0.0504312
0.0566206
0.0627466
0.0683131
0.0738197
0.0779002
0.0827123
0.0839452
0.0868189
0.0440955
0.0497803
0.0555301
0.0612625
0.0664814
0.0715804
0.0754723
0.0798328
0.0810439
0.0835829
0.0441912
0.049184
0.0544442
0.059775
0.0646528
0.0693959
0.0730644
0.0770458
0.0783578
0.0805683
0.0369423
0.0384129
0.039137
0.0397422
0.0401784
0.0404365
0.040526
0.0404488
0.0402111
0.0396789
0.0366116
0.0382253
0.0389223
0.0394367
0.0397273
0.0397942
0.0396582
0.0393296
0.0388372
0.0381578
0.0363624
0.0380632
0.0387103
0.039115
0.0392475
0.0391206
0.0387702
0.0382232
0.0375354
0.0367251
0.0362319
0.0379536
0.0385315
0.0388153
0.0387882
0.038477
0.0379325
0.0371966
0.0363406
0.035379
0.0362578
0.0379281
0.0384226
0.0385816
0.0384021
0.0379244
0.0372116
0.036317
0.035318
0.0342104
0.0364749
0.0380204
0.038422
0.038458
0.0381381
0.0375146
0.0366597
0.0356344
0.0345144
0.033279
0.0369121
0.038263
0.0385655
0.0384824
0.0380345
0.0372845
0.0363105
0.035178
0.0339565
0.0326171
0.0375897
0.0386831
0.0388811
0.0386815
0.0381153
0.0372539
0.036179
0.0349575
0.0336516
0.0322338
0.0385143
0.0392982
0.0393841
0.0390673
0.0383882
0.0374257
0.036263
0.0349663
0.0335902
0.0321098
0.0396624
0.0401049
0.0400724
0.0396351
0.0388447
0.0377875
0.0365464
0.0351861
0.0337526
0.0322257
0.0409737
0.0410761
0.0409263
0.0403648
0.039464
0.0383161
0.0370035
0.035588
0.0341099
0.0325566
0.0424882
0.0422182
0.0419293
0.0412315
0.0402159
0.0389793
0.0376009
0.0361383
0.0346282
0.0330629
0.0441387
0.0434818
0.0430379
0.0421948
0.0410627
0.0397408
0.0383027
0.0368014
0.0352716
0.0337069
0.0458553
0.0448127
0.0442032
0.0432096
0.0419624
0.0405606
0.0390706
0.0375399
0.0360033
0.0344527
0.0475687
0.0461527
0.0453723
0.0442283
0.0428715
0.0413984
0.0398666
0.0383174
0.0367878
0.0352672
0.0492055
0.0474397
0.0464907
0.0452036
0.0437479
0.0422157
0.0406544
0.0390992
0.0375917
0.0361193
0.0506929
0.0486119
0.0475065
0.0460917
0.0445536
0.0429782
0.0414023
0.0398545
0.0383827
0.0369743
0.0519621
0.049612
0.048373
0.046855
0.0452569
0.0436579
0.0420847
0.040557
0.0391269
0.0377899
0.0529528
0.05039
0.0490515
0.0474637
0.0458341
0.0442348
0.0426821
0.0411802
0.0397814
0.0385312
0.0536159
0.0509058
0.049512
0.0478972
0.0462725
0.0447028
0.043192
0.04172
0.0403408
0.0392074
0.0539147
0.0511299
0.0497327
0.0481413
0.0465676
0.0450741
0.0436652
0.0423178
0.0410992
0.0402978
0.0538237
0.051042
0.0496979
0.0481821
0.0467025
0.0453178
0.0440321
0.042821
0.0417284
0.040989
0.0533336
0.0506364
0.0494025
0.0480127
0.0466664
0.045418
0.0442712
0.0432035
0.0422355
0.0415225
0.0524554
0.0499214
0.0488522
0.0476365
0.0464615
0.045379
0.0443942
0.0434887
0.0426708
0.0420494
0.0512172
0.0489184
0.0480636
0.0470672
0.0461002
0.0452136
0.0444158
0.0436928
0.0430452
0.0425578
0.0496621
0.04766
0.0470628
0.0463264
0.0456015
0.0449391
0.0443519
0.0438307
0.0433706
0.0430377
0.0478448
0.0461883
0.0458833
0.0454418
0.0449893
0.0445765
0.044221
0.0439194
0.0436644
0.0435045
0.0458275
0.0445508
0.044563
0.0444442
0.0442894
0.0441477
0.0440419
0.0439754
0.0439416
0.0439749
0.0436764
0.0427974
0.0431412
0.0433648
0.0435271
0.0436736
0.0438321
0.0440129
0.0442133
0.0444579
0.0414729
0.0409825
0.0416584
0.0422342
0.0427262
0.0431727
0.0436058
0.0440427
0.0444865
0.0449572
0.0393252
0.0391748
0.0401609
0.0410847
0.04191
0.0426623
0.0433757
0.0440735
0.0447656
0.0454732
0.0371823
0.0373767
0.038666
0.0399335
0.0410922
0.0421518
0.0431475
0.0441075
0.0450481
0.0459991
0.0351107
0.0356329
0.0372045
0.0388014
0.0402865
0.0416497
0.0429249
0.0441437
0.0453268
0.0465194
0.0331623
0.0339829
0.0358029
0.0377056
0.039503
0.0411604
0.0427076
0.0441774
0.0455906
0.0470118
0.0313709
0.0324538
0.0344777
0.0366585
0.0387481
0.0406852
0.0424927
0.0442022
0.0458279
0.0474506
0.0297583
0.0310654
0.0332447
0.0356687
0.0380258
0.0402234
0.0422759
0.0442117
0.0460318
0.0478117
0.0283372
0.0298256
0.0321214
0.0347448
0.0373365
0.0397734
0.0420533
0.044202
0.0462064
0.0480853
0.0271151
0.0287432
0.0311131
0.0338905
0.0366821
0.039333
0.0418221
0.0441695
0.046347
0.0483141
0.0260936
0.0278229
0.0302236
0.033108
0.0360617
0.0388997
0.0415812
0.0441213
0.0464754
0.0485615
0.0252699
0.027065
0.029455
0.0323984
0.0354727
0.0384663
0.0413171
0.0440386
0.0466071
0.0488895
0.0246342
0.0264646
0.0288064
0.031761
0.0349117
0.038027
0.0410259
0.0439298
0.0468434
0.0497114
0.0241542
0.0260065
0.0282729
0.0311947
0.0343732
0.0375613
0.0406509
0.0436271
0.0465757
0.0494424
0.0238381
0.0256917
0.0278555
0.0307017
0.0338589
0.0370686
0.040196
0.0431916
0.0461049
0.0489008
0.0236789
0.0255132
0.0275526
0.0302865
0.0333799
0.0365713
0.0397081
0.0427217
0.0456389
0.0484109
0.0236617
0.0254601
0.0273608
0.0299537
0.0329487
0.0360912
0.039217
0.0422435
0.0451786
0.0479559
0.0237712
0.0255206
0.0272751
0.0297063
0.0325748
0.0356415
0.0387358
0.0417609
0.0447066
0.0475003
0.0239923
0.0256829
0.0272892
0.029545
0.0322643
0.0352315
0.0382746
0.041284
0.0442307
0.047042
0.0243098
0.0259339
0.0273948
0.0294682
0.0320217
0.0348693
0.0378435
0.0408243
0.0437639
0.0465905
0.0247092
0.0262604
0.0275821
0.0294719
0.0318488
0.0345608
0.0374504
0.0403907
0.0433161
0.046156
0.0251838
0.0266546
0.0278438
0.0295522
0.0317458
0.0343092
0.0371003
0.0399889
0.0428935
0.0457461
0.0257382
0.0271212
0.0281834
0.0297132
0.0317185
0.0341217
0.0368001
0.039625
0.042501
0.0453651
0.0263171
0.0276167
0.0285668
0.0299311
0.0317529
0.0339916
0.0365477
0.0392984
0.042137
0.0450069
0.0269223
0.0281411
0.0289908
0.0302017
0.0318459
0.0339173
0.036342
0.0390073
0.0417972
0.0446603
0.0275513
0.0286905
0.0294493
0.0305186
0.0319924
0.0338956
0.0361807
0.0387488
0.0414766
0.0443164
0.0281976
0.0292576
0.0299345
0.0308742
0.0321866
0.033923
0.036062
0.038521
0.0411711
0.0439668
0.0288553
0.0298365
0.0304395
0.0312617
0.0324229
0.0339963
0.0359847
0.0383234
0.0408779
0.0436013
0.0295205
0.0304229
0.0309588
0.0316752
0.0326967
0.0341129
0.0359486
0.0381579
0.0405986
0.0432132
0.0301904
0.0310135
0.0314885
0.0321101
0.0330038
0.0342707
0.0359548
0.0380297
0.0403426
0.0428033
0.0308631
0.0316061
0.0320256
0.032563
0.0333412
0.0344684
0.036005
0.037948
0.0401385
0.0424145
0.0315374
0.0321994
0.0325683
0.0330315
0.0337066
0.0347049
0.0360978
0.0379086
0.0400078
0.0421206
0.0322132
0.0327924
0.0331148
0.033513
0.0340974
0.0349799
0.0362412
0.0379427
0.0401268
0.04257
0.0328905
0.0333831
0.0336635
0.0340063
0.0345117
0.0352864
0.03641
0.0379383
0.039933
0.042216
0.0335681
0.0339718
0.0342151
0.0345118
0.0349495
0.0356242
0.0366095
0.0379516
0.0397025
0.0417466
0.0342435
0.0345574
0.0347691
0.0350297
0.0354129
0.0360018
0.0368635
0.0380436
0.03959
0.041412
0.0349125
0.0351372
0.0353241
0.0355599
0.0359036
0.0364245
0.0371819
0.0382208
0.0395867
0.0412069
0.0355684
0.0357075
0.0358777
0.036101
0.0364213
0.0368929
0.0375656
0.0384807
0.0396792
0.0411134
0.0362024
0.0362621
0.0364259
0.03665
0.0369635
0.0374053
0.0380138
0.0388239
0.0398698
0.0411307
0.0368016
0.0367943
0.0369625
0.0372016
0.0375253
0.0379568
0.0385224
0.0392482
0.0401595
0.0412594
0.0373512
0.037294
0.0374787
0.0377474
0.038098
0.0385385
0.0390823
0.0397455
0.0405426
0.0414949
0.037834
0.0377506
0.0379646
0.0382767
0.0386694
0.0391365
0.0396788
0.0403014
0.0410065
0.0418247
)
;

boundaryField
{
    inlet
    {
        type            zeroGradient;
    }
    outlet
    {
        type            fixedValue;
        value           uniform 0;
    }
    cylinder
    {
        type            zeroGradient;
    }
    top
    {
        type            symmetryPlane;
    }
    bottom
    {
        type            symmetryPlane;
    }
    defaultFaces
    {
        type            empty;
    }
}


// ************************************************************************* //
