/*--------------------------------*- C++ -*----------------------------------*\
  =========                 |
  \\      /  F ield         | OpenFOAM: The Open Source CFD Toolbox
   \\    /   O peration     | Website:  https://openfoam.org
    \\  /    A nd           | Version:  7
     \\/     M anipulation  |
\*---------------------------------------------------------------------------*/
FoamFile
{
    version     2.0;
    format      ascii;
    class       volScalarField;
    location    "76.9";
    object      p;
}
// * * * * * * * * * * * * * * * * * * * * * * * * * * * * * * * * * * * * * //

dimensions      [0 2 -2 0 0 0 0];

internalField   nonuniform List<scalar> 
2000
(
0.0105843
0.0106959
0.0109034
0.0111572
0.0114204
0.0116714
0.011897
0.0120923
0.0122578
0.0123911
0.0106373
0.0107914
0.0110186
0.011294
0.0115792
0.0118507
0.012093
0.0122988
0.0124667
0.0125842
0.0106567
0.0108666
0.0111139
0.0114094
0.0117136
0.0120018
0.0122573
0.0124714
0.0126422
0.012745
0.0106481
0.0109228
0.0111914
0.0115046
0.0118229
0.0121218
0.0123846
0.0126023
0.0127742
0.0128619
0.0106174
0.0109661
0.011255
0.0115818
0.0119076
0.0122094
0.012471
0.0126843
0.0128515
0.0129231
0.0105742
0.0110026
0.0113096
0.0116444
0.0119698
0.0122645
0.0125145
0.0127132
0.0128671
0.0129184
0.0105308
0.0110396
0.0113609
0.0116968
0.0120126
0.0122894
0.0125161
0.0126885
0.0128179
0.0128427
0.0105006
0.0110852
0.0114153
0.0117446
0.0120409
0.0122885
0.0124804
0.0126151
0.0127091
0.0127007
0.0104985
0.0111479
0.01148
0.0117939
0.0120607
0.0122689
0.012416
0.0125052
0.0125593
0.012516
0.0105393
0.0112367
0.0115626
0.0118518
0.0120795
0.0122389
0.0123332
0.0123721
0.0123877
0.012323
0.0126597
0.0137325
0.0151392
0.0171743
0.0193072
0.0217407
0.0235216
0.0258552
0.0261838
0.0276692
0.0127343
0.0136536
0.0147531
0.01655
0.0184841
0.0207496
0.0223995
0.0245798
0.025001
0.0262823
0.0127562
0.0135784
0.014376
0.0159429
0.0176902
0.0198005
0.0213315
0.0233951
0.0238433
0.0250071
0.0127159
0.0134933
0.0140089
0.0153565
0.0169272
0.0188922
0.0203203
0.0222826
0.0227282
0.0238388
0.0126086
0.0133788
0.0136519
0.014793
0.0161973
0.018027
0.0193669
0.0212392
0.0216829
0.02277
0.0124352
0.013214
0.0133029
0.0142527
0.015501
0.0172025
0.0184615
0.0202484
0.0206952
0.0217791
0.0122066
0.0129829
0.0129564
0.0137343
0.0148422
0.0164269
0.0176169
0.0193298
0.0197876
0.0208712
0.0119349
0.01267
0.0126026
0.0132347
0.0142108
0.0156767
0.0167985
0.0184326
0.0189069
0.0200213
0.0116172
0.0122556
0.0122142
0.012761
0.0136476
0.0150129
0.0160821
0.0176399
0.0181274
0.019253
0.0113705
0.0118881
0.0118342
0.0122537
0.0130227
0.0142721
0.0152932
0.016764
0.0173086
0.018507
0.0119933
0.0124988
0.0126443
0.012768
0.0130765
0.013783
0.0145194
0.0155706
0.0160571
0.016938
0.00958038
0.0100682
0.010438
0.0108349
0.0113212
0.0119865
0.012638
0.0134395
0.0138204
0.0143823
0.0076889
0.00816665
0.00851601
0.00886959
0.00932311
0.00995577
0.0105622
0.0112631
0.0115673
0.0119741
0.00580299
0.00633542
0.00677906
0.00715269
0.00755974
0.00810747
0.00863215
0.00924061
0.00948547
0.00981006
0.00402229
0.00458104
0.00512748
0.0055882
0.00600841
0.00649163
0.00693181
0.00743997
0.00763485
0.00790618
0.00246867
0.0030178
0.00362045
0.00415063
0.00460986
0.00507129
0.00545835
0.00588006
0.00602976
0.00624142
0.00122443
0.00173744
0.00234756
0.00288446
0.00333925
0.0037688
0.00411146
0.00446612
0.00458166
0.00474554
0.000326381
0.000762345
0.00133219
0.00183282
0.00223885
0.00260531
0.00288861
0.00317787
0.00325393
0.00336325
-0.000154615
0.000157919
0.000613291
0.000992718
0.00127547
0.0015268
0.00171154
0.0019223
0.00195615
0.00202735
-0.000722332
-0.000275748
9.31329e-05
0.000327807
0.000454753
0.000560188
0.000616737
0.000719168
0.000695715
0.000707584
0.0113349
0.00920015
0.00735188
0.00549922
0.0037813
0.00228165
0.0010924
0.000212777
-0.000166755
-0.000798572
0.0109113
0.00885411
0.00703319
0.00522723
0.0035729
0.00213508
0.0010057
0.000169453
-0.00017168
-0.000718462
0.0104788
0.00853978
0.00675036
0.00499515
0.0034007
0.002021
0.000946351
0.000160065
-0.00015927
-0.000602104
0.0101344
0.00831519
0.00655213
0.00484284
0.00329904
0.00196876
0.000936246
0.00018763
-0.000122994
-0.000485449
0.00988857
0.00816342
0.00642132
0.00475274
0.0032534
0.00196462
0.000966306
0.00024552
-6.73268e-05
-0.000373845
0.00974831
0.0080837
0.00635718
0.0047199
0.00325773
0.00200278
0.00103044
0.000328402
3.21624e-06
-0.000269543
0.0097236
0.00806974
0.00635753
0.00474207
0.00330909
0.00207954
0.0011244
0.000431594
8.48937e-05
-0.000174818
0.0098027
0.00812065
0.00641817
0.0048146
0.00340268
0.00218999
0.00124332
0.000550388
0.000174274
-9.05888e-05
0.00997013
0.00823091
0.00653312
0.00493181
0.00353277
0.00232863
0.00138208
0.000680364
0.000268342
-1.64733e-05
0.0102087
0.00839289
0.00669469
0.00508714
0.00369307
0.00248985
0.00153573
0.000817657
0.000364654
4.86008e-05
0.010497
0.00859477
0.00689242
0.00527232
0.00387639
0.00266779
0.00169952
0.000958958
0.000461314
0.000105877
0.0108192
0.00882696
0.00711813
0.00548126
0.0040772
0.00285801
0.00186987
0.00110189
0.00055707
0.000156529
0.0111653
0.00908448
0.00736657
0.00571044
0.00429186
0.00305755
0.00204437
0.00124497
0.000651252
0.000201702
0.0115257
0.00936279
0.00763224
0.00595634
0.00451706
0.00326384
0.00222117
0.00138721
0.00074355
0.000242366
0.0118927
0.00965908
0.00791053
0.0062161
0.00475022
0.00347493
0.00239901
0.00152805
0.000833909
0.000279319
0.0122598
0.00997173
0.00819742
0.00648706
0.00498931
0.00368919
0.00257702
0.00166717
0.00092243
0.000313222
0.0126174
0.010297
0.00848822
0.00676588
0.00523237
0.00390513
0.00275454
0.00180441
0.00100931
0.000344671
0.0129596
0.0106391
0.00878603
0.00705469
0.0054815
0.00412408
0.00293261
0.00194056
0.00109519
0.000374301
0.0133172
0.0110391
0.00911773
0.00737162
0.00574966
0.00435417
0.00311621
0.00207838
0.00118143
0.000402361
0.0136019
0.0114358
0.00944138
0.00768001
0.00601412
0.00457788
0.00329512
0.00221161
0.0012653
0.000426996
0.0131721
0.0116512
0.00980887
0.00811043
0.00645867
0.00498136
0.00364628
0.00248278
0.00144388
0.00048521
0.013141
0.0116452
0.00987909
0.00827809
0.00667822
0.00523619
0.0038957
0.0027024
0.0016001
0.000550766
0.0135067
0.0119801
0.0101904
0.00860181
0.00698752
0.00552891
0.00414919
0.00291169
0.00174912
0.000620422
0.0141402
0.0124649
0.0105978
0.00897016
0.00731332
0.00581864
0.0043902
0.00310994
0.00189835
0.00070097
0.0150451
0.013131
0.0111354
0.00941226
0.00768072
0.00612354
0.00463603
0.00331261
0.00205864
0.00079467
0.0161694
0.0139666
0.0118043
0.00993304
0.00809955
0.00645425
0.00489919
0.00352543
0.00222676
0.000889429
0.0173912
0.0148955
0.0125515
0.010503
0.00855359
0.00680499
0.00517806
0.00373964
0.00237632
0.000951131
0.0185495
0.015784
0.0132659
0.0110468
0.00899012
0.00714459
0.00544828
0.00392796
0.002474
0.000956385
0.0194666
0.0164806
0.0138224
0.0114729
0.00933705
0.00741956
0.00566561
0.00406269
0.00251392
0.000920748
0.0199833
0.01686
0.0141214
0.011703
0.00952786
0.00757428
0.00578835
0.00413218
0.00252082
0.000885683
0.0143707
0.0143728
0.0148122
0.0155416
0.0165701
0.0178151
0.0191777
0.0205038
0.0215931
0.0222246
0.0146107
0.0148007
0.0153546
0.01619
0.0173187
0.0186461
0.0200758
0.0214488
0.022564
0.0232056
0.0146844
0.015099
0.0158281
0.0168306
0.0181102
0.0195677
0.0210982
0.0225233
0.0236405
0.0242653
0.0148172
0.0154025
0.0162766
0.0174304
0.0188485
0.0204373
0.0220856
0.0235964
0.0247564
0.025397
0.0150104
0.0157686
0.0167724
0.0180573
0.0195937
0.0212972
0.0230568
0.0246652
0.0258964
0.0265805
0.0152239
0.0161738
0.0173238
0.0187429
0.0203963
0.0222087
0.0240702
0.0257701
0.0270742
0.0278064
0.015453
0.016599
0.0179146
0.0194795
0.021261
0.0231896
0.0251531
0.026938
0.0283055
0.0290771
0.0157074
0.0170446
0.018538
0.0202551
0.0221753
0.0242305
0.0263028
0.0281727
0.0295968
0.0303982
0.0159931
0.017514
0.0191946
0.0210647
0.0231307
0.0253199
0.0275083
0.0294677
0.0309475
0.0317734
0.0163123
0.0180053
0.0198844
0.0219056
0.0241236
0.0264515
0.0287624
0.0308169
0.0323554
0.0332037
0.0166674
0.0185119
0.0206047
0.0227731
0.0251511
0.027622
0.0300618
0.0322174
0.0338189
0.0346894
0.0170558
0.0190261
0.0213491
0.0236588
0.0262076
0.0288265
0.0314035
0.0336674
0.0353376
0.036231
0.0174644
0.0195422
0.0221044
0.0245556
0.0272851
0.0300609
0.0327852
0.0351657
0.036913
0.0378315
0.0178703
0.0200603
0.0228528
0.0254589
0.0283735
0.0313196
0.0342025
0.0367103
0.0385485
0.0394983
0.0182344
0.0205823
0.0235652
0.0263753
0.0294685
0.032599
0.0356527
0.0383
0.0402373
0.0412245
0.0185412
0.0211002
0.0242517
0.0272655
0.0305506
0.033882
0.0371233
0.0399262
0.0419742
0.0430075
0.0187869
0.0215863
0.0248969
0.0281157
0.03161
0.0351616
0.0386105
0.0415871
0.0437598
0.0448503
0.018941
0.0220251
0.0254796
0.0289119
0.0326255
0.036414
0.0400924
0.0432673
0.0455863
0.0467515
0.0189808
0.0224191
0.0260075
0.0296711
0.0336203
0.0376655
0.041591
0.0449806
0.0474616
0.0487195
0.0187976
0.0226606
0.0263689
0.0302517
0.0344337
0.0387571
0.0429769
0.0466448
0.0493461
0.0507379
0.0195393
0.0244344
0.0285334
0.0328827
0.037498
0.0422734
0.0469469
0.0510614
0.0541404
0.0557882
0.0243893
0.0290975
0.0334315
0.0384698
0.0438254
0.0493824
0.0547841
0.0595008
0.0630015
0.0648478
0.02969
0.03463
0.0394647
0.0452701
0.0513908
0.0577594
0.0638526
0.0690857
0.0729176
0.0749434
0.0352616
0.0407112
0.0463363
0.0530289
0.0599963
0.0672235
0.0739608
0.0796271
0.083682
0.0857458
0.0411467
0.0472536
0.0537949
0.0614307
0.0692972
0.0773912
0.0847076
0.090729
0.0949184
0.0970857
0.0474619
0.0542582
0.0617945
0.0703858
0.0791711
0.0881086
0.0959453
0.102232
0.106329
0.108123
0.0536852
0.0612978
0.0697611
0.0792063
0.0888588
0.0985265
0.106836
0.113324
0.117157
0.118871
0.0598814
0.0680162
0.0773515
0.0876487
0.098191
0.10856
0.11746
0.124286
0.127611
0.127179
0.0636175
0.0726544
0.0827405
0.0937209
0.104962
0.11584
0.125185
0.132105
0.134361
0.136116
0.0675096
0.0767401
0.087353
0.0989091
0.110904
0.12256
0.133343
0.142472
0.146447
0.130398
0.0179763
0.0226163
0.0273419
0.032522
0.0378252
0.0438734
0.0493954
0.0556325
0.0586634
0.0625162
0.0174882
0.022313
0.0269832
0.0320457
0.0371474
0.0430132
0.0482152
0.0542732
0.0568918
0.0606875
0.0172827
0.0223493
0.0270259
0.0320486
0.0370323
0.0426934
0.0476085
0.0532885
0.0555671
0.0591066
0.0169959
0.02217
0.0268113
0.0317967
0.0366895
0.0421772
0.046876
0.0522298
0.0543815
0.0575727
0.016668
0.0218507
0.026437
0.031325
0.0361606
0.0414556
0.0459815
0.0510628
0.0532143
0.0560818
0.0163352
0.0214966
0.026048
0.0308394
0.0355898
0.0407058
0.0451009
0.049897
0.0521022
0.054691
0.0159949
0.0211258
0.0256686
0.0303948
0.0350635
0.0400116
0.0443197
0.0488185
0.051108
0.0534413
0.0156491
0.0207405
0.0252905
0.0299769
0.0345861
0.0393995
0.0436298
0.0478925
0.0502328
0.0523427
0.0153072
0.0203527
0.0249183
0.0295812
0.0341495
0.038868
0.0430244
0.0471198
0.0494697
0.0514115
0.0149816
0.0199756
0.0245649
0.0292186
0.0337599
0.038416
0.0425109
0.0464846
0.0488234
0.0506533
0.0146837
0.0196193
0.0242417
0.0289017
0.0334305
0.0380484
0.0421009
0.0459804
0.0483066
0.0500637
0.0144113
0.0192827
0.0239512
0.0286339
0.0331683
0.0377699
0.0418024
0.0456092
0.0479284
0.0496355
0.014152
0.0189603
0.0236915
0.0284137
0.0329749
0.0375837
0.0416194
0.0453753
0.0476936
0.0493653
0.0138963
0.0186543
0.0234625
0.028241
0.0328505
0.0374916
0.0415529
0.0452804
0.0475998
0.0492508
0.0136321
0.018368
0.023263
0.0281149
0.0327948
0.0374941
0.0416034
0.0453259
0.0476467
0.0492957
0.0133414
0.0181008
0.023087
0.028031
0.0328041
0.0375868
0.0417669
0.0455074
0.0478223
0.0495012
0.013001
0.0178472
0.022925
0.0279834
0.0328757
0.0377682
0.0420466
0.0458294
0.048132
0.0498799
0.012589
0.0175952
0.0227602
0.0279557
0.0329908
0.0380165
0.0424221
0.0462727
0.0485399
0.0504343
0.0120668
0.0173375
0.0226023
0.0279633
0.0331714
0.03836
0.0429237
0.046868
0.0490915
0.0511868
0.0113632
0.016926
0.022311
0.0278584
0.0332587
0.0386373
0.04341
0.0475085
0.0496648
0.0521191
0.0124945
0.0181119
0.0234086
0.0291234
0.0348495
0.0405048
0.0455813
0.0499111
0.0520547
0.0548653
0.0160113
0.0217408
0.0272404
0.0334494
0.0397439
0.0460263
0.0517404
0.0565244
0.0592071
0.0616591
0.0205943
0.0266636
0.0326446
0.0395765
0.0466345
0.053791
0.0603374
0.0657564
0.0691491
0.0713172
0.0257118
0.032316
0.0390569
0.0469867
0.0551348
0.0635497
0.0713013
0.0778076
0.0823045
0.0849623
0.0310496
0.0383339
0.0460694
0.0552206
0.0647513
0.0748103
0.0842623
0.0926248
0.0990569
0.103524
0.0365791
0.0446082
0.0535691
0.0640881
0.0752735
0.0873544
0.0991679
0.110632
0.121109
0.130051
0.0413271
0.0503948
0.0606141
0.0725222
0.0855948
0.100046
0.115142
0.13159
0.149316
0.168229
0.0462305
0.0560491
0.0674793
0.080839
0.0959677
0.1132
0.132677
0.156894
0.188212
0.228072
0.0479923
0.0582506
0.0703512
0.0846863
0.101755
0.122457
0.148653
0.184704
0.238468
0.316534
0.0508053
0.0625072
0.0760985
0.0925686
0.113151
0.139517
0.17518
0.227739
0.313796
0.442531
0.0119088
0.0151187
0.0188765
0.0231821
0.0274972
0.0325403
0.0363688
0.0411087
0.0426126
0.0444968
0.0116629
0.0148675
0.0184962
0.0225899
0.0265908
0.0313708
0.0348285
0.039399
0.0406787
0.0427653
0.0116494
0.0147965
0.0183378
0.0222957
0.0261204
0.0306157
0.0337831
0.0380219
0.0390107
0.0416313
0.0117098
0.0146647
0.0180188
0.0217956
0.0254299
0.0296607
0.0325949
0.0365291
0.0372691
0.0401045
0.0118109
0.0145005
0.0175957
0.0211658
0.0245509
0.0285034
0.0312052
0.0348945
0.0354204
0.0381369
0.0119425
0.0143418
0.0171687
0.0205
0.0236465
0.0273024
0.029763
0.0332402
0.03357
0.0360305
0.0120927
0.0141935
0.0167547
0.0198095
0.0227811
0.0261345
0.0283762
0.0316539
0.0318152
0.034041
0.0122504
0.0140556
0.0163447
0.0191305
0.0219075
0.0249951
0.0270782
0.0301436
0.0301964
0.0322573
0.0124049
0.0139314
0.0159368
0.0184659
0.0210279
0.0238655
0.0258638
0.0286728
0.0287237
0.0306486
0.0125453
0.0138236
0.015534
0.0178133
0.0201571
0.0227777
0.0246821
0.0272278
0.0273974
0.0291394
0.0106392
0.0113615
0.011672
0.0119269
0.0121062
0.0122081
0.0122413
0.0122197
0.0121756
0.0120782
0.0108203
0.011535
0.0118182
0.0120289
0.0121517
0.0121892
0.0121549
0.0120654
0.0119524
0.0117891
0.0110917
0.0117644
0.0120098
0.0121677
0.0122277
0.0121968
0.0120922
0.0119337
0.011755
0.0115307
0.0114625
0.0120578
0.0122553
0.0123533
0.0123461
0.0122449
0.0120703
0.0118443
0.011602
0.0113192
0.0119392
0.012422
0.0125623
0.0125943
0.012517
0.0123455
0.0121028
0.0118124
0.011509
0.0111692
0.0125235
0.0128608
0.0129355
0.0128962
0.0127472
0.0125066
0.0121987
0.0118482
0.011487
0.0110956
0.0132109
0.0133738
0.0133754
0.0132607
0.013039
0.0127311
0.0123618
0.0119558
0.0115411
0.0110978
0.0139912
0.0139558
0.013878
0.0136842
0.0133896
0.0130166
0.0125899
0.0121334
0.0116698
0.0111773
0.0148471
0.0145958
0.0144332
0.014158
0.0137909
0.0133555
0.0128756
0.0123731
0.0118657
0.011335
0.0157451
0.0152752
0.0150253
0.014668
0.01423
0.0137355
0.0132068
0.0126632
0.0121178
0.011558
0.016639
0.0159645
0.0156321
0.0151958
0.0146903
0.0141412
0.0135685
0.012989
0.0124121
0.0118312
0.0175384
0.0166549
0.0162374
0.015723
0.0151536
0.0145547
0.0139437
0.0133341
0.0127329
0.0121388
0.0183998
0.0173146
0.0168153
0.0162277
0.0156006
0.0149586
0.0143159
0.0136827
0.013065
0.012466
0.0191827
0.0179133
0.0173402
0.0166881
0.0160121
0.0153354
0.014669
0.0140199
0.0133937
0.0127986
0.0198529
0.0184233
0.0177883
0.0170837
0.0163702
0.0156694
0.0149888
0.0143321
0.0137061
0.0131243
0.0203793
0.0188192
0.0181379
0.0173964
0.0166594
0.0159469
0.0152628
0.014608
0.0139911
0.0134324
0.0207356
0.0190791
0.018371
0.0176114
0.0168675
0.0161574
0.015482
0.0148391
0.0142396
0.0137129
0.0209014
0.0191861
0.0184739
0.0177179
0.0169859
0.016294
0.0156407
0.0150203
0.0144442
0.0139531
0.0208636
0.0191291
0.0184381
0.0177099
0.0170101
0.0163534
0.0157361
0.015147
0.014592
0.0141331
0.0206166
0.0189035
0.0182601
0.0175855
0.0169406
0.0163379
0.0157715
0.0152218
0.0146857
0.0142589
0.0201612
0.01851
0.0179407
0.0173465
0.016781
0.0162572
0.0157728
0.0153177
0.0149093
0.0146619
0.0194971
0.0179521
0.017484
0.0169952
0.0165305
0.016102
0.0157102
0.0153511
0.0150417
0.0148559
0.0186444
0.0172445
0.0168998
0.0165378
0.016191
0.0158697
0.0155762
0.0153102
0.0150832
0.0149321
0.0176278
0.0164059
0.0162021
0.0159843
0.0157702
0.0155679
0.0153816
0.0152151
0.0150766
0.0149834
0.0164763
0.0154588
0.0154086
0.0153486
0.0152799
0.0152076
0.0151385
0.0150795
0.0150374
0.0150214
0.0152227
0.0144291
0.0145399
0.0146473
0.0147339
0.0148012
0.014858
0.0149138
0.0149752
0.0150474
0.0139027
0.0133451
0.0136187
0.0138985
0.0141473
0.0143616
0.0145514
0.0147286
0.0149003
0.0150699
0.0125521
0.0122351
0.0126682
0.013121
0.0135355
0.0139017
0.0142298
0.0145337
0.0148216
0.0150976
0.0112062
0.011126
0.0117109
0.0123327
0.0129129
0.0134332
0.0139031
0.0143374
0.0147461
0.0151356
0.00990991
0.0100475
0.0107695
0.011551
0.0122927
0.0129664
0.0135791
0.0141458
0.0146781
0.0151869
0.00872662
0.00904058
0.00987233
0.0107957
0.0116889
0.012511
0.0132647
0.0139637
0.0146201
0.0152515
0.00759651
0.00809111
0.00901967
0.0100723
0.0111074
0.0120714
0.0129627
0.013792
0.0145708
0.0153253
0.00655812
0.00722012
0.00822698
0.00939127
0.0105558
0.0116522
0.0126746
0.0136301
0.0145268
0.0153993
0.00563507
0.00644256
0.00750905
0.00876386
0.010038
0.0112554
0.0124004
0.0134756
0.0144836
0.0154615
0.00483654
0.00576669
0.00687207
0.00819392
0.00955916
0.0108823
0.0121386
0.0133244
0.0144349
0.0155082
0.00416627
0.0051961
0.00631996
0.00768534
0.00912104
0.010533
0.0118877
0.0131738
0.0143757
0.0155354
0.00362445
0.0047311
0.00585465
0.00724036
0.00872435
0.010207
0.0116462
0.0130221
0.0143044
0.0155308
0.00320776
0.00436919
0.00547577
0.00685951
0.00836916
0.00990318
0.0114124
0.0128688
0.0142229
0.0154939
0.00291004
0.00410563
0.00518095
0.00654195
0.00805475
0.00962032
0.0111847
0.0127155
0.014145
0.0154472
0.00272342
0.00393418
0.0049663
0.00628567
0.00777943
0.00935558
0.0109575
0.0125529
0.0140768
0.0154341
0.00263686
0.00384625
0.00482568
0.00608677
0.0075402
0.00910607
0.0107299
0.0123929
0.0141202
0.0158203
0.00262759
0.00382782
0.0047508
0.00594112
0.00733333
0.00886099
0.0104694
0.0121261
0.0138524
0.0155454
0.00269572
0.00387559
0.004738
0.00584684
0.00715863
0.00862056
0.0101791
0.0117894
0.0134553
0.0150901
0.00283346
0.00398208
0.0047817
0.00580222
0.00702
0.00839714
0.0098864
0.0114415
0.0130566
0.014644
0.00302969
0.0041383
0.00487546
0.00580519
0.00692126
0.00820165
0.00960883
0.0110999
0.0126633
0.0142084
0.00327386
0.00433581
0.00501278
0.00585275
0.00686401
0.00804011
0.00935485
0.0107706
0.0122723
0.0137735
0.00355636
0.0045668
0.00518712
0.005941
0.00684798
0.00791597
0.00913082
0.0104617
0.0118919
0.0133437
0.0038683
0.00482389
0.00539184
0.00606525
0.00687151
0.00783101
0.00894168
0.0101807
0.011531
0.0129269
0.00420187
0.00510022
0.00562032
0.00622006
0.00693148
0.00778509
0.0087902
0.00993266
0.0111965
0.0125299
0.00455252
0.00539218
0.00586832
0.00640122
0.00702473
0.00777694
0.00867735
0.00972065
0.0108928
0.0121584
0.0049191
0.00570085
0.00613668
0.00660909
0.00715168
0.00780775
0.00860548
0.00954818
0.0106242
0.0118161
0.00528276
0.00600846
0.00640877
0.00682867
0.00729974
0.00786795
0.00856831
0.00941203
0.0103894
0.0115013
0.00564401
0.00631591
0.00668436
0.00705844
0.00746647
0.00795493
0.00856371
0.00931088
0.0101878
0.0112115
0.00600195
0.00662217
0.00696164
0.00729562
0.00764833
0.00806507
0.00858859
0.00924247
0.0100178
0.0109445
0.00635481
0.00692516
0.00723799
0.0075368
0.00784136
0.00819432
0.00863945
0.00920421
0.00987763
0.010698
0.00670151
0.00722347
0.00751151
0.00777937
0.00804227
0.00833918
0.00871323
0.00919398
0.0097661
0.0104696
0.0070417
0.00751639
0.00778116
0.00802165
0.00824867
0.00849693
0.00880761
0.00921085
0.00968413
0.0102594
0.00737548
0.0078037
0.00804658
0.00826286
0.00845921
0.00866582
0.00892117
0.00925527
0.00963607
0.0100717
0.00770307
0.00808547
0.00830801
0.00850333
0.00867419
0.00884617
0.0090543
0.00932793
0.00962521
0.00990752
0.00802444
0.00836181
0.00856608
0.00874439
0.00889628
0.00904374
0.00921848
0.00945038
0.00970259
0.00986543
0.0083396
0.00863276
0.00882121
0.00898701
0.0091278
0.00926515
0.00943444
0.00968932
0.0101133
0.01074
0.00864995
0.00889823
0.00907311
0.00923075
0.00936619
0.00949858
0.00966089
0.00990221
0.0103028
0.0108657
0.00895169
0.00915677
0.00932099
0.0094746
0.00960914
0.00973921
0.00989217
0.0101072
0.0104424
0.0108925
0.00924113
0.00940668
0.00956337
0.00971714
0.00985551
0.00998793
0.0101362
0.0103323
0.0106198
0.0109902
0.00951452
0.00964577
0.00979826
0.00995628
0.0101031
0.0102429
0.0103915
0.0105746
0.0108245
0.0111353
0.00976972
0.00986977
0.0100231
0.0101894
0.0103488
0.0105002
0.0106536
0.010828
0.0110472
0.011311
0.00999955
0.010078
0.0102351
0.0104133
0.010589
0.0107558
0.010918
0.0110885
0.0112844
0.0115108
0.0102003
0.0102674
0.0104313
0.0106249
0.0108198
0.0110052
0.0111799
0.0113514
0.0115311
0.0117275
0.0103682
0.0104352
0.0106095
0.010821
0.0110374
0.0112437
0.0114339
0.0116105
0.0117807
0.0119525
0.0104984
0.0105791
0.0107673
0.0109993
0.0112385
0.011467
0.0116746
0.0118596
0.0120254
0.0121768
)
;

boundaryField
{
    inlet
    {
        type            zeroGradient;
    }
    outlet
    {
        type            fixedValue;
        value           uniform 0;
    }
    cylinder
    {
        type            zeroGradient;
    }
    top
    {
        type            symmetryPlane;
    }
    bottom
    {
        type            symmetryPlane;
    }
    defaultFaces
    {
        type            empty;
    }
}


// ************************************************************************* //
