/*--------------------------------*- C++ -*----------------------------------*\
  =========                 |
  \\      /  F ield         | OpenFOAM: The Open Source CFD Toolbox
   \\    /   O peration     | Website:  https://openfoam.org
    \\  /    A nd           | Version:  7
     \\/     M anipulation  |
\*---------------------------------------------------------------------------*/
FoamFile
{
    version     2.0;
    format      ascii;
    class       surfaceScalarField;
    location    "78";
    object      phi;
}
// * * * * * * * * * * * * * * * * * * * * * * * * * * * * * * * * * * * * * //

dimensions      [0 3 -1 0 0 0 0];

internalField   nonuniform List<scalar> 
3880
(
-2.16362e-05
-0.000573532
0.000595168
-1.71327e-05
-0.00134732
0.00134282
2.91265e-05
-0.00177593
0.00172967
0.000126331
-0.00191002
0.00181282
0.000282959
-0.0017825
0.00162587
0.000508316
-0.00141528
0.00118993
0.000811264
-0.000824589
0.000521641
0.00119752
-2.51144e-05
-0.000361137
0.00166681
0.00096564
-0.00143494
0.00212628
0.00220901
-0.00266847
-1.14017e-05
-0.00056213
1.41985e-05
-0.00137292
8.64758e-05
-0.00184821
0.000210673
-0.00203422
0.000392936
-0.00196476
0.000641771
-0.00166412
0.000966767
-0.00114959
0.00137596
-0.000434303
0.00187186
0.000469739
0.00155044
0.00244769
4.24619e-06
-0.000566376
5.98075e-05
-0.00142848
0.000169707
-0.00195811
0.000333771
-0.00219828
0.000554564
-0.00218555
0.000838521
-0.00194808
0.00119484
-0.00150591
0.00163287
-0.000872332
0.00215823
-5.56208e-05
0.000940428
0.00276825
2.41762e-05
-0.000590552
0.000118789
-0.0015231
0.000277363
-0.00211668
0.000493828
-0.00241475
0.000766394
-0.00245812
0.00109847
-0.00228015
0.00149776
-0.00190521
0.00197398
-0.00134855
0.00253538
-0.00061702
0.000292229
0.00318358
4.84826e-05
-0.000639035
0.000189145
-0.00166376
0.00040547
-0.00233301
0.000684877
-0.00269416
0.00102085
-0.0027941
0.0014133
-0.00267259
0.00186775
-0.00235965
0.0023934
-0.00187421
0.00300009
-0.00122371
-0.000401436
0.00369375
7.5965e-05
-0.000715
0.000267499
-0.00185529
0.000547336
-0.00261284
0.000896254
-0.00304307
0.00130311
-0.00320095
0.00176432
-0.00313381
0.00228307
-0.0028784
0.00286759
-0.00245873
0.00352849
-0.00188461
-0.00114779
0.00427485
0.0001052
-0.0008202
0.000349271
-0.00209936
0.000693738
-0.00295731
0.00111286
-0.0034622
0.00159125
-0.00367934
0.0021223
-0.00366486
0.00270709
-0.0034632
0.003353
-0.00310464
0.00407115
-0.00260275
-0.00194873
0.00487208
0.000134483
-0.000954683
0.00042895
-0.00239383
0.00083354
-0.0033619
0.00131629
-0.00394495
0.00185812
-0.00422117
0.00245
-0.00425673
0.00309139
-0.00410458
0.00378922
-0.00380247
0.00455589
-0.00336942
-0.00279557
0.00540272
0.000161925
-0.00111661
0.000500479
-0.00273238
0.000954605
-0.00381603
0.00148664
-0.00447699
0.00207452
-0.00480904
0.00270738
-0.00488959
0.00338332
-0.00478053
0.00410871
-0.00452785
0.00489825
-0.00415896
-0.00366755
0.00577024
0.000185554
-0.00130216
0.000557689
-0.00310452
0.00104487
-0.00430321
0.00160466
-0.00503678
0.00221299
-0.00541738
0.00285813
-0.00553473
0.00353709
-0.00545949
0.00425438
-0.00524515
0.0050246
-0.00492918
0.00589277
-0.00453572
0.0037905
0.0183614
-0.0199429
0.00518817
0.0405522
-0.0419499
0.00562868
0.0622024
-0.0626429
0.0053908
0.0818626
-0.0816248
0.00476913
0.101524
-0.100902
0.00389385
0.122574
-0.121699
0.00284165
0.146177
-0.145125
0.00162269
0.176325
-0.175106
0.000551633
0.22044
-0.219369
0.273358
-0.272806
0.0041362
0.0166729
0.00587345
0.0388149
0.00661889
0.061457
0.00656828
0.0819132
0.00603137
0.10206
0.00515096
0.123454
0.0040084
0.147319
0.00261594
0.177718
0.00117166
0.221885
0.274529
0.00447739
0.0149638
0.00651508
0.0367773
0.00758168
0.0603904
0.00773688
0.081758
0.00729445
0.102503
0.00641203
0.124337
0.00517895
0.148552
0.00360812
0.179288
0.00179571
0.223697
0.276325
0.00482147
0.0133259
0.00709102
0.0345077
0.00848921
0.0589922
0.00887058
0.0813767
0.00853658
0.102837
0.00765961
0.125214
0.00633995
0.149872
0.00459253
0.181036
0.00241272
0.225877
0.278738
0.00517955
0.0118401
0.00758621
0.032101
0.0093152
0.0572632
0.00994399
0.0807479
0.00973605
0.103045
0.00887622
0.126073
0.00747772
0.151271
0.00555802
0.182956
0.00301797
0.228417
0.281756
0.0055576
0.0105574
0.00799444
0.0296642
0.0100366
0.055221
0.0109329
0.0798516
0.0108715
0.103106
0.0100431
0.126902
0.00857694
0.152737
0.0064931
0.185039
0.00360441
0.231306
0.28536
0.0059458
0.00948364
0.00831577
0.0272942
0.0106352
0.0529016
0.0118156
0.0786712
0.0119258
0.102996
0.0111481
0.12768
0.00962904
0.154256
0.00739171
0.187277
0.00417094
0.234526
0.289531
0.00630464
0.00858172
0.00854771
0.0250512
0.0110975
0.0503518
0.0125708
0.0771979
0.0128727
0.102694
0.0121634
0.128389
0.0106092
0.15581
0.00823662
0.189649
0.00470557
0.238058
0.294237
0.00655452
0.00779743
0.00867079
0.0229349
0.0114091
0.0476135
0.0131973
0.0754097
0.0137301
0.102161
0.0131136
0.129005
0.0115403
0.157383
0.0090399
0.19215
0.00521609
0.241881
0.299453
0.00664742
0.00704278
0.00872746
0.0208549
0.0115685
0.0447725
0.0136211
0.0733571
0.0143975
0.101385
0.013907
0.129496
0.0123731
0.158917
0.00975534
0.194767
0.00571371
0.245923
0.305167
0.0196045
0.0124041
-0.0249659
0.0152158
0.0252436
0.0134528
0.0465354
0.0122948
0.0745151
0.0106857
0.102994
0.00860445
0.131577
0.00602891
0.161493
0.00298787
0.197808
0.000419712
0.248491
0.305586
0.0204972
0.0163565
-0.0244495
0.0157829
0.0299578
0.0130981
0.0492203
0.0117011
0.0759121
0.010139
0.104556
0.00811239
0.133604
0.00559392
0.164011
0.0027081
0.200694
0.000333954
0.250865
0.30592
0.0201976
0.0187046
-0.0225456
0.016174
0.0339814
0.0130141
0.0523801
0.0111574
0.0777689
0.00947216
0.106241
0.00750783
0.135568
0.00513418
0.166385
0.00242007
0.203408
0.000247941
0.253037
0.306168
0.0189734
0.0199107
-0.0201796
0.0158725
0.0370823
0.0128272
0.0554254
0.0107799
0.0798162
0.00902009
0.108001
0.00709368
0.137495
0.00481174
0.168667
0.00226949
0.205951
0.000241069
0.255066
0.306409
0.0173423
0.0202613
-0.0176928
0.0150732
0.0393513
0.0123836
0.058115
0.0103156
0.0818842
0.00852931
0.109787
0.00664652
0.139377
0.00446734
0.170846
0.00206453
0.208353
0.000181528
0.256949
0.306591
0.0154648
0.0198427
-0.0150463
0.0139606
0.0408555
0.0116855
0.0603901
0.00982737
0.0837423
0.00818601
0.111429
0.00638898
0.141174
0.00428471
0.17295
0.00200009
0.210638
0.00021014
0.258739
0.306801
0.0135264
0.0186712
-0.0123548
0.0128369
0.041545
0.0109832
0.0622438
0.00921548
0.0855101
0.0076732
0.112971
0.00601143
0.142836
0.00403801
0.174924
0.00185826
0.212818
0.000171932
0.260425
0.306973
0.0114602
0.0168473
-0.00963638
0.0114855
0.0415197
0.0102324
0.0634969
0.00881517
0.0869274
0.00742202
0.114364
0.00584313
0.144415
0.0039365
0.17683
0.00186391
0.21489
0.000239218
0.26205
0.307212
0.00998661
0.0141861
-0.0073254
0.0107446
0.0407617
0.00976111
0.0644804
0.00837022
0.0883183
0.00704901
0.115685
0.00558534
0.145879
0.0037724
0.178643
0.00177582
0.216887
0.000217938
0.263608
0.30743
0.00747918
-0.00420356
0.00950089
0.00952649
0.00844811
0.00713428
0.00561216
0.00383695
0.00184001
0.000336189
0.00603174
-0.0253045
-0.00569308
0.00570371
-0.0241215
0.00503323
-0.0218752
0.00425163
-0.019398
0.00341732
-0.0168585
0.0025468
-0.0141758
0.00164532
-0.0114534
0.000749291
-0.00874034
-0.000309297
-0.00626681
-0.00337711
0.0051269
-0.0252434
-0.00518805
0.00451022
-0.0235048
0.0036765
-0.0210415
0.00278424
-0.0185057
0.00186409
-0.0159384
0.000926836
-0.0132385
-2.94629e-05
-0.0104971
-0.00095534
-0.00781447
-0.0019667
-0.00525544
-0.00258977
0.00402694
-0.0248459
-0.00442444
0.00317035
-0.0226482
0.00220859
-0.0200797
0.00122595
-0.017523
0.000239935
-0.0149524
-0.000737568
-0.012261
-0.00170403
-0.00953059
-0.00263702
-0.00688148
-0.00356954
-0.00432292
-0.0018998
0.00272796
-0.0241739
-0.00339995
0.00169461
-0.0216149
0.000642966
-0.0190281
-0.000398937
-0.0164811
-0.00141874
-0.0139325
-0.00241016
-0.0112696
-0.00336029
-0.00858046
-0.00425174
-0.00599002
-0.00507633
-0.00349834
-0.00133084
0.00124881
-0.0232756
-0.00214703
9.95689e-05
-0.0204657
-0.000998518
-0.01793
-0.00206599
-0.0154137
-0.00308782
-0.0129107
-0.00405681
-0.0103006
-0.00495769
-0.00767958
-0.00577246
-0.00517525
-0.00646835
-0.00280245
-0.00089015
-0.000349408
-0.0222093
-0.000716931
-0.00156879
-0.0192463
-0.00268022
-0.0168185
-0.00373771
-0.0143562
-0.00472796
-0.0119205
-0.00564318
-0.0093854
-0.00646637
-0.00685639
-0.00717845
-0.00446317
-0.00773671
-0.00224419
-0.000574081
-0.0020282
-0.0210021
0.000820992
-0.00326056
-0.0180139
-0.00435158
-0.0157275
-0.00536933
-0.0133384
-0.00630045
-0.0109893
-0.00713684
-0.00854901
-0.00786199
-0.00613124
-0.00845663
-0.00386852
-0.00887925
-0.00182157
-0.000371322
-0.00370583
-0.0197018
0.00240553
-0.00491788
-0.0168019
-0.00596383
-0.0146816
-0.00691833
-0.0123839
-0.00777022
-0.0101374
-0.00851111
-0.00780812
-0.00912745
-0.0055149
-0.00960119
-0.00339478
-0.00989903
-0.00152374
-0.000265731
-0.00532446
-0.0183555
0.00397815
-0.00648934
-0.015637
-0.00747301
-0.0136979
-0.00834809
-0.0115089
-0.00910914
-0.00937639
-0.00974697
-0.00717029
-0.0102533
-0.00500852
-0.0106125
-0.00303562
-0.0108027
-0.0013336
-0.000238692
-0.00683166
-0.0170037
0.00547982
-0.00793187
-0.0145368
-0.00884354
-0.0127862
-0.00963063
-0.0107218
-0.0102977
-0.00870929
-0.0108336
-0.00663439
-0.0112373
-0.00460487
-0.0114956
-0.00277727
-0.0115989
-0.00123038
-0.00027078
-0.00818655
-0.0156792
0.00686207
-0.00921269
-0.0135106
-0.01005
-0.0119489
-0.0107476
-0.0100242
-0.0113253
-0.00813156
-0.0117678
-0.0061919
-0.0120825
-0.00429018
-0.0122587
-0.00260105
-0.0122973
-0.0011918
-0.000342789
-0.00936678
-0.0144064
0.00809399
-0.0103131
-0.0125643
-0.011079
-0.0111829
-0.0116915
-0.00941175
-0.01219
-0.00763309
-0.0125529
-0.00582895
-0.0127964
-0.00404666
-0.0129117
-0.00248577
-0.0129078
-0.00119569
-0.000436237
-0.0103575
-0.013202
0.00915315
-0.0112226
-0.0116993
-0.011925
-0.0104805
-0.0124618
-0.008875
-0.0128952
-0.00719962
-0.0131963
-0.00552783
-0.0133888
-0.00385418
-0.0134652
-0.00240939
-0.0134401
-0.0012208
-0.000533558
-0.0111558
-0.0120745
0.0100283
-0.0119412
-0.0109139
-0.0125907
-0.00983099
-0.013065
-0.00840071
-0.0134498
-0.00681486
-0.0137088
-0.00526882
-0.0138709
-0.00369205
-0.01393
-0.00235029
-0.0139035
-0.00124732
-0.000618145
-0.0117671
-0.0110231
0.0107157
-0.0124763
-0.0102047
-0.0130847
-0.00922254
-0.0135125
-0.00797294
-0.0138653
-0.00646203
-0.0141026
-0.0050316
-0.0142545
-0.00354011
-0.0143169
-0.00228793
-0.0143072
-0.00125697
-0.000674251
-0.012203
-0.010036
0.0112159
-0.0128417
-0.00956599
-0.0134196
-0.00864459
-0.0138186
-0.007574
-0.0141555
-0.00612515
-0.0143908
-0.00479626
-0.0145515
-0.00337939
-0.0146362
-0.00220325
-0.0146603
-0.00123288
-0.000686889
-0.0124775
-0.00908918
0.0115307
-0.0130553
-0.00898821
-0.01361
-0.00808992
-0.0139987
-0.00718525
-0.0143343
-0.0057896
-0.0145865
-0.00454404
-0.0147735
-0.00319239
-0.0148981
-0.00207865
-0.0149716
-0.00115938
-0.000641701
-0.0125963
-0.00815464
0.0116618
-0.0131317
-0.00845289
-0.0136678
-0.00755383
-0.0140662
-0.00678677
-0.0144146
-0.00544119
-0.0147015
-0.00425722
-0.0149312
-0.0029627
-0.0151121
-0.00189772
-0.0152498
-0.00102167
-0.000524805
-0.0125565
-0.00721612
0.011618
-0.0130851
-0.00792431
-0.0136065
-0.0070324
-0.0140344
-0.00635889
-0.0144096
-0.00506598
-0.0147473
-0.00391949
-0.015035
-0.00267507
-0.0152874
-0.00164526
-0.0155035
-0.000805602
-0.000322583
-0.012409
-0.00625113
0.0114441
-0.0129688
-0.00736453
-0.013459
-0.00654224
-0.0139196
-0.00589827
-0.0143317
-0.00465388
-0.014732
-0.00351922
-0.0150929
-0.00231421
-0.0154319
-0.00130624
-0.0157423
-0.000495188
-2.25303e-05
-0.0548812
-0.00596842
0.0545985
-0.0563227
-0.00592306
-0.0578053
-0.00505965
-0.0592829
-0.00442064
-0.0604955
-0.00344123
-0.0614468
-0.00256791
-0.0620841
-0.00167692
-0.0624451
-0.000945228
-0.0625765
-0.000363847
-2.76658e-05
-0.0645073
-0.00580205
0.0643409
-0.0653953
-0.00503506
-0.0662433
-0.00421163
-0.0671842
-0.00347974
-0.0679486
-0.00267685
-0.0685536
-0.00196296
-0.0689474
-0.00128312
-0.0691586
-0.000733989
-0.0692239
-0.000298565
-3.43634e-05
-0.0761681
-0.00578683
0.0761529
-0.0766205
-0.00458274
-0.0770949
-0.00373723
-0.0776667
-0.00290788
-0.078122
-0.00222153
-0.078502
-0.00158302
-0.078731
-0.00105414
-0.0788516
-0.000613314
-0.0788752
-0.000274966
-3.80093e-05
-0.090725
-0.00577786
0.090716
-0.0910214
-0.00428632
-0.0913008
-0.00345779
-0.0916718
-0.00253689
-0.0919445
-0.0019488
-0.0921952
-0.00133236
-0.0923307
-0.000918637
-0.0924145
-0.000529463
-0.092424
-0.000265554
-3.57847e-05
-0.108434
-0.00554515
0.108201
-0.108752
-0.00396774
-0.109012
-0.00319845
-0.10932
-0.00222892
-0.109533
-0.00173543
-0.109742
-0.00112353
-0.109856
-0.000804067
-0.109951
-0.000435202
-0.10998
-0.000236034
-1.82097e-05
-0.128266
-0.00498393
0.127705
-0.128741
-0.00349285
-0.129121
-0.00281868
-0.129462
-0.00188752
-0.129712
-0.00148563
-0.129933
-0.00090199
-0.130078
-0.0006593
-0.130211
-0.000302475
-0.130278
-0.000168578
1.07458e-05
-0.147948
-0.00406605
0.14703
-0.14863
-0.00281124
-0.149185
-0.00226371
-0.149599
-0.00147323
-0.149923
-0.00116168
-0.150168
-0.000656959
-0.150355
-0.000472621
-0.150502
-0.000154963
-0.150591
-8.02833e-05
3.8106e-05
-0.164695
-0.00285787
0.163486
-0.165552
-0.00195341
-0.166249
-0.00156715
-0.166722
-0.0010004
-0.167098
-0.000785042
-0.167342
-0.000413082
-0.167533
-0.000282214
-0.167645
-4.29218e-05
-0.167712
-1.30158e-05
4.56526e-05
-0.176448
-0.00147353
0.175064
-0.17741
-0.000991972
-0.178183
-0.000793627
-0.178684
-0.000499764
-0.179077
-0.000391678
-0.179296
-0.000194607
-0.179452
-0.00012603
-0.179498
3.0646e-06
-0.179521
9.8085e-06
3.02271e-05
-0.182422
0.180948
-0.183414
-0.184208
-0.184707
-0.185099
-0.185294
-0.18542
-0.185417
-0.185407
-0.0126383
0.0556147
0.0116221
-0.0133186
0.0650212
-0.0138644
0.0766987
-0.0141471
0.0909986
-0.0139381
0.107992
-0.0129381
0.126705
-0.0109354
0.145028
-0.00793885
0.16049
-0.00417842
0.171304
0.17677
-0.0119676
0.0563479
0.0112344
-0.0126039
0.0656575
-0.0130851
0.0771799
-0.0132807
0.0911942
-0.0129911
0.107703
-0.0119623
0.125676
-0.0100336
0.143099
-0.00723984
0.157696
-0.00379474
0.167859
0.172975
-0.0113421
0.0570182
0.0106718
-0.0119158
0.0662312
-0.0123218
0.0775858
-0.012444
0.0913164
-0.0121033
0.107362
-0.0110818
0.124654
-0.00925066
0.141268
-0.00665171
0.155097
-0.003479
0.164686
0.169496
-0.010621
0.0576672
0.00997196
-0.0111366
0.0667467
-0.0114619
0.0779112
-0.0115106
0.0913651
-0.0111272
0.106978
-0.0101281
0.123655
-0.00841311
0.139553
-0.00602791
0.152712
-0.00314581
0.161804
0.16635
-0.00978561
0.0582876
0.00916524
-0.0102471
0.0672083
-0.0105005
0.0781646
-0.0104874
0.091352
-0.0100771
0.106568
-0.0091188
0.122697
-0.00753711
0.137971
-0.00538002
0.150555
-0.00280092
0.159225
0.16355
-0.00885568
0.0588684
0.00827487
-0.0092558
0.0676084
-0.00944119
0.07835
-0.00937772
0.0912886
-0.00895714
0.106148
-0.00805902
0.121799
-0.00662862
0.136541
-0.00471363
0.14864
-0.0024477
0.156959
0.161102
-0.00785098
0.0594002
0.00731918
-0.00818363
0.067941
-0.00830173
0.0784681
-0.00819578
0.0911826
-0.00777833
0.10573
-0.00695696
0.120977
-0.00569356
0.135277
-0.00403292
0.146979
-0.00208842
0.155014
0.159013
-0.00678728
0.0598713
0.00631623
-0.00705075
0.0682045
-0.00710322
0.0785205
-0.00696155
0.0910409
-0.00655779
0.105326
-0.00582578
0.120245
-0.00474095
0.134193
-0.0033433
0.145582
-0.00172563
0.153397
0.157288
-0.00568179
0.0602679
0.00528513
-0.00587699
0.0683997
-0.00586608
0.0785096
-0.00569529
0.0908702
-0.00531361
0.104945
-0.00468018
0.119612
-0.00378135
0.133294
-0.00265131
0.144452
-0.00136241
0.152108
0.155925
-0.00455269
0.0605747
0.0042459
-0.00468371
0.0685307
-0.00461022
0.0784361
-0.0044165
0.0906764
-0.00406287
0.104591
-0.00353428
0.119083
-0.00282527
0.132585
-0.00196374
0.14359
-0.00100213
0.151146
0.154923
-0.00343034
0.0607813
0.00322371
-0.00349755
0.0685979
-0.00336093
0.0782995
-0.00314833
0.0904639
-0.00282527
0.104268
-0.00240423
0.118662
-0.00188491
0.132065
-0.00128855
0.142994
-0.000648728
0.150506
0.154275
-0.00233848
0.0608898
0.00223006
-0.00233497
0.0685944
-0.00214177
0.0781063
-0.00190961
0.0902317
-0.00161822
0.103977
-0.00130172
0.118346
-0.000967929
0.131732
-0.000631919
0.142658
-0.000305323
0.15018
0.153969
-0.00131053
0.0609148
0.00128546
-0.00122373
0.0685076
-0.000987238
0.0778698
-0.000733499
0.089978
-0.000477135
0.10372
-0.00026161
0.11813
-0.000107212
0.131577
-2.1309e-05
0.142572
1.16817e-05
0.150147
0.153981
-0.000379364
0.0608965
0.000397705
-0.000193324
0.0683216
5.70421e-05
0.0776194
0.000371277
0.0896637
0.000614023
0.103478
0.00074645
0.117998
0.000738819
0.131585
0.000591294
0.142719
0.000332148
0.150406
0.154313
0.000512053
0.0608109
-0.000426505
0.000796914
0.0680367
0.00112265
0.0772937
0.00143706
0.0893493
0.00165206
0.103263
0.00169602
0.117954
0.00152968
0.131751
0.00115774
0.143091
0.000626962
0.150937
0.15494
0.00134902
0.0606453
-0.00118342
0.00170088
0.0676849
0.00206533
0.0769293
0.00240236
0.0890123
0.00259909
0.103066
0.00256742
0.117986
0.00225777
0.132061
0.00167971
0.143669
0.000897844
0.151718
0.155838
0.00208472
0.0604402
-0.00187957
0.00250843
0.0672612
0.00290817
0.0765295
0.00326856
0.0886519
0.00345441
0.10288
0.00335995
0.11808
0.00292339
0.132497
0.00215793
0.144435
0.00114534
0.152731
0.156983
0.00273152
0.0602324
-0.00252373
0.00321764
0.066775
0.00364526
0.0761019
0.00402337
0.0882738
0.00420002
0.102703
0.00405259
0.118228
0.00350638
0.133044
0.00257671
0.145364
0.00136061
0.153947
0.158344
0.00331645
0.0600528
-0.00313688
0.00384961
0.0662419
0.00430432
0.0756472
0.00470042
0.0878777
0.00487499
0.102529
0.00468519
0.118417
0.00404114
0.133688
0.00296033
0.146445
0.00155648
0.155351
0.1599
0.00372583
0.0600486
-0.0037216
0.0042633
0.0657044
0.00474329
0.0751672
0.00514709
0.0874739
0.00531975
0.102356
0.00510611
0.118631
0.0044011
0.134393
0.00321934
0.147627
0.0016846
0.156886
0.161585
-0.0406542
0.0550932
0.0456096
-0.0367271
0.0617773
-0.0341405
0.0725806
-0.0314577
0.0847911
-0.0283214
0.0992197
-0.0243432
0.114653
-0.0193513
0.129401
-0.0134404
0.141716
-0.0068743
0.15032
0.154711
-0.0494838
0.0508745
0.0537025
-0.0459686
0.0582621
-0.0428039
0.069416
-0.0392231
0.0812103
-0.0351313
0.095128
-0.0300231
0.109545
-0.0237663
0.123144
-0.0164831
0.134433
-0.00847207
0.142309
0.146239
-0.0595934
0.0468218
0.063646
-0.056016
0.0546848
-0.0521467
0.0655467
-0.0476689
0.0767324
-0.0424379
0.089897
-0.0359338
0.10304
-0.0282015
0.115412
-0.0193968
0.125628
-0.00982767
0.132739
0.136411
-0.0718223
0.0429764
0.0756678
-0.0677111
0.0505736
-0.0629861
0.0608217
-0.0574999
0.0712463
-0.0509307
0.0833277
-0.0428215
0.0949312
-0.0334141
0.106004
-0.0229143
0.115128
-0.0117107
0.121536
0.1247
-0.0854694
0.0384988
0.089947
-0.0805355
0.0456396
-0.0747235
0.0550097
-0.0677784
0.0643012
-0.059354
0.0749033
-0.0492688
0.0848461
-0.0379484
0.094684
-0.0255935
0.102773
-0.0127153
0.108658
0.111985
-0.101318
0.0339767
0.10584
-0.0952295
0.0395513
-0.0880747
0.0478549
-0.0793591
0.0555856
-0.0689749
0.064519
-0.0569739
0.0728451
-0.0436823
0.0813923
-0.0293969
0.0884879
-0.014915
0.0941758
0.09707
-0.116505
0.0276256
0.122857
-0.109123
0.032169
-0.100233
0.0389647
-0.0892747
0.0446274
-0.0766144
0.0518587
-0.0622004
0.0584312
-0.0463562
0.0655481
-0.0296194
0.0717511
-0.0133958
0.0779521
0.0836742
-0.132725
0.0212994
0.139051
-0.1241
0.0235446
-0.11367
0.0285346
-0.101223
0.0321799
-0.0870927
0.0377288
-0.0710082
0.0423467
-0.0535537
0.0480936
-0.0353975
0.0535949
-0.0186481
0.0612027
0.0650261
-0.146759
0.0103035
0.157755
-0.13499
0.0117755
-0.120891
0.0144351
-0.105035
0.0163242
-0.0867515
0.0194451
-0.0664428
0.022038
-0.0440425
0.0256934
-0.0204424
0.0299948
0.00182297
0.0389373
0.0668491
-0.245492
0.255796
-0.233717
-0.219282
-0.202958
-0.183513
-0.161475
-0.135781
-0.105786
-0.0668491
0.00185304
0.0472153
-0.00345876
0.000412076
0.0551435
-0.000622236
0.0646803
-0.00136771
0.0764132
-0.0018329
0.0904122
-0.00200404
0.106011
-0.00177749
0.12263
-0.00135234
0.138626
-0.00184662
0.15825
0.253949
0.00223867
0.048791
-0.00381444
0.000842497
0.0565396
-0.000250913
0.0657738
-0.00102931
0.0771916
-0.00154205
0.090925
-0.00174737
0.106216
-0.00160284
0.122485
-0.00122382
0.138247
-0.00163877
0.158665
0.252311
0.00270481
0.050265
-0.00417872
0.00134972
0.0578947
0.000268335
0.0668551
-0.000530587
0.0779905
-0.00106523
0.0914596
-0.00131468
0.106466
-0.00124763
0.122418
-0.000974053
0.137973
-0.00143186
0.159122
0.250879
0.00316967
0.0516416
-0.00454636
0.00186052
0.0592039
0.000820435
0.0678952
-2.40491e-05
0.078835
-0.000516962
0.0919525
-0.000813206
0.106762
-0.000801795
0.122407
-0.000664569
0.137836
-0.00116488
0.159623
0.249714
0.00362607
0.0529206
-0.00490508
0.0023822
0.0604478
0.00139085
0.0688866
0.000611678
0.0796142
6.15832e-05
0.0925026
-0.00027226
0.107096
-0.000297773
0.122432
-0.000309209
0.137847
-0.000851386
0.160165
0.248862
0.00409144
0.0540729
-0.00524366
0.00293664
0.0616026
0.00200173
0.0698215
0.00126683
0.0803491
0.000737517
0.0930319
0.000362265
0.107471
0.000256995
0.122538
9.92366e-05
0.138005
-0.000497492
0.160762
0.248365
0.00456474
0.0550621
-0.00555397
0.00352189
0.0626454
0.0026536
0.0706898
0.0019663
0.0810364
0.00144961
0.0935486
0.00106751
0.107853
0.000855986
0.122749
0.000615421
0.138246
-9.97582e-05
0.161477
0.248265
0.00503823
0.0558525
-0.00582864
0.00412713
0.0635565
0.0033364
0.0714805
0.00270371
0.0816691
0.00220409
0.0940482
0.00180579
0.108252
0.00150677
0.123048
0.00114575
0.138607
0.000297964
0.162325
0.248563
0.00550503
0.0564067
-0.00605926
0.00474077
0.0643208
0.00403839
0.0721829
0.0034677
0.0822398
0.00299268
0.0945233
0.00257712
0.108667
0.00219394
0.123431
0.00170442
0.139096
0.000722603
0.163306
0.249286
0.00595211
0.0566907
-0.00623608
0.00535019
0.0649227
0.00474762
0.0727855
0.00424631
0.0827411
0.00380431
0.0949653
0.0033724
0.109099
0.00290716
0.123897
0.00228824
0.139715
0.00117012
0.164424
0.250456
0.00635997
0.0566766
-0.00634589
0.00593707
0.0653456
0.00544772
0.0732748
0.0050222
0.0831666
0.0046201
0.0953674
0.00417618
0.109543
0.00363355
0.124439
0.00288739
0.140461
0.00162995
0.165682
0.252086
0.0067201
0.0563469
-0.00639043
0.00649346
0.0655722
0.00613008
0.0736382
0.00578733
0.0835094
0.0054316
0.0957231
0.00498187
0.109993
0.00436764
0.125054
0.00349746
0.141331
0.00209865
0.167081
0.254184
0.00701338
0.0556987
-0.00636516
0.0069997
0.0655859
0.00677295
0.0738649
0.00652048
0.0837618
0.00621836
0.0960252
0.00577166
0.110439
0.00509423
0.125731
0.00410705
0.142319
0.00256887
0.168619
0.256753
0.00722754
0.0547452
-0.00627403
0.00744059
0.0653728
0.00735965
0.0739459
0.00720436
0.0839171
0.0069637
0.0962659
0.00653044
0.110873
0.00580048
0.126461
0.00470664
0.143412
0.00303373
0.170292
0.259787
0.00735334
0.0535184
-0.00612658
0.00780276
0.0649234
0.00787488
0.0738738
0.00782251
0.0839695
0.00765202
0.0964364
0.0072435
0.111281
0.00647451
0.12723
0.0052874
0.1446
0.00348755
0.172092
0.263275
0.00738656
0.052071
-0.00593912
0.00807601
0.064234
0.00830431
0.0736455
0.0083598
0.083914
0.00826814
0.096528
0.00789527
0.111654
0.007103
0.128022
0.00583887
0.145864
0.00392131
0.174009
0.267196
0.00733142
0.0504738
-0.00573419
0.00825329
0.0633121
0.00863782
0.0732609
0.00880525
0.0837466
0.0088
0.0965333
0.00847629
0.111978
0.00767933
0.128819
0.00635636
0.147187
0.0043317
0.176034
0.271528
0.00720409
0.0488047
-0.00553501
0.00833159
0.0621846
0.00886658
0.0727259
0.00914422
0.0834689
0.0092279
0.0964496
0.00896335
0.112242
0.00817993
0.129603
0.00682294
0.148544
0.00470369
0.178153
0.276231
0.0070198
0.0471253
-0.00534041
0.00832226
0.0608822
0.00901006
0.0720382
0.00940013
0.0830789
0.00957793
0.0962718
0.00938408
0.112436
0.00862802
0.130359
0.00725464
0.149917
0.00504536
0.180362
0.281277
0.00672803
0.0454417
-0.00504443
0.00809527
0.0595149
0.00893556
0.0711979
0.00943502
0.0825794
0.0097146
0.0959922
0.00960637
0.112544
0.00892119
0.131044
0.00756255
0.151276
0.00534529
0.18258
0.286622
-0.0215031
0.0444631
0.0224817
-0.018753
0.0567648
-0.0156073
0.0680522
-0.0122656
0.0792377
-0.00893219
0.0926588
-0.00542589
0.109038
-0.00180018
0.127418
0.00108149
0.148394
0.00121316
0.182448
0.287835
-0.0355208
0.0421959
0.037788
-0.0320464
0.0532905
-0.0276382
0.063644
-0.0228357
0.0744351
-0.0178741
0.0876972
-0.0124925
0.103656
-0.00684573
0.121771
-0.00197621
0.143524
-0.000275575
0.180747
0.28756
-0.0507455
0.0392035
0.053738
-0.046211
0.048756
-0.0404861
0.0579191
-0.0343127
0.0682617
-0.0277368
0.0811213
-0.0203371
0.0962568
-0.0124585
0.113893
-0.00540969
0.136476
-0.00176856
0.177106
0.285791
-0.0674346
0.0354516
0.0711865
-0.0615634
0.0428847
-0.0547305
0.0510862
-0.0472794
0.0608106
-0.0388929
0.0727348
-0.0292324
0.0865963
-0.0189472
0.103608
-0.00952989
0.127058
-0.00357537
0.171152
0.282216
-0.0859491
0.0303737
0.091027
-0.0790144
0.0359499
-0.0713756
0.0434474
-0.062414
0.051849
-0.0519365
0.0622573
-0.0399136
0.0745735
-0.0271183
0.0908123
-0.0150108
0.114951
-0.00610374
0.162245
0.276112
-0.107088
0.024861
0.1126
-0.0992302
0.0280924
-0.0904403
0.0346575
-0.0796478
0.0410565
-0.0671786
0.0497881
-0.0530382
0.060433
-0.0378916
0.0756658
-0.0229934
0.100052
-0.0105869
0.149838
0.265525
-0.130903
0.0174906
0.138274
-0.122588
0.0197768
-0.112854
0.024924
-0.100934
0.0291364
-0.0873958
0.03625
-0.0717191
0.0447563
-0.0548227
0.0587694
-0.0370391
0.0822688
-0.0193485
0.132148
0.246177
-0.162122
0.01001
0.169603
-0.153218
0.0108732
-0.142625
0.0143307
-0.130281
0.0167919
-0.116081
0.0220504
-0.0997508
0.0284262
-0.0816162
0.0406347
-0.0616132
0.0622659
-0.036988
0.107522
0.209189
-0.216967
0.00301086
0.223966
-0.209671
0.003578
-0.200459
0.00511817
-0.190276
0.00660846
-0.177799
0.00957369
-0.163169
0.0137958
-0.144418
0.0218837
-0.118326
0.0361745
-0.0756569
0.0648531
0.133532
-0.295117
0.298128
-0.291539
-0.286421
-0.279812
-0.270239
-0.256443
-0.234559
-0.198385
-0.133532
0.00237784
0.0235161
-0.00341217
0.000575064
0.0395907
-0.00116118
0.0554742
-0.00268627
0.0727116
-0.00390845
0.0922492
-0.00488032
0.113572
-0.00538619
0.13878
-0.00567855
0.169895
-0.00442129
0.222708
0.293707
0.0021625
0.0241958
-0.00284222
0.000676626
0.0410766
-0.000935877
0.0570867
-0.00241807
0.0741938
-0.00364096
0.0934721
-0.00460082
0.114532
-0.00513826
0.139317
-0.00544618
0.170203
-0.00423532
0.221498
0.289471
0.00206873
0.0245676
-0.00244055
0.000885662
0.0422597
-0.000558495
0.0585309
-0.00193276
0.075568
-0.00310592
0.0946453
-0.00403949
0.115466
-0.00461743
0.139895
-0.00491262
0.170498
-0.00386895
0.220454
0.285602
0.00206084
0.0246726
-0.00216583
0.00116548
0.043155
-0.000116141
0.0598125
-0.00135035
0.0768023
-0.00244686
0.0957418
-0.00336115
0.11638
-0.00396744
0.140501
-0.00430465
0.170835
-0.00344261
0.219592
0.28216
0.00213103
0.0245264
-0.00198485
0.00152946
0.0437566
0.000467579
0.0608744
-0.000681901
0.0779517
-0.00169816
0.096758
-0.00259149
0.117273
-0.00323252
0.141142
-0.00363226
0.171235
-0.00296667
0.218926
0.279193
0.00228184
0.024124
-0.00187947
0.00198431
0.0440541
0.00114588
0.0617128
7.65922e-05
0.079021
-0.00084391
0.0976785
-0.00172586
0.118155
-0.00241003
0.141826
-0.0028931
0.171718
-0.00244909
0.218482
0.276744
0.00250374
0.0234588
-0.00183849
0.00252273
0.0440352
0.00191583
0.0623197
0.00102986
0.079907
0.000119283
0.0985891
-0.000769201
0.119044
-0.00149064
0.142548
-0.00208973
0.172317
-0.00189606
0.218289
0.274848
0.00278254
0.0225301
-0.00185389
0.00313152
0.0436862
0.00276624
0.062685
0.00203394
0.0806393
0.00119382
0.0994292
0.000281357
0.119956
-0.000468176
0.143297
-0.00123414
0.173083
-0.00131175
0.218366
0.273536
0.00310173
0.021349
-0.00192058
0.00379356
0.0429943
0.00368096
0.0627976
0.00310579
0.0812145
0.00233309
0.100202
0.00146076
0.120829
0.00059766
0.14416
-0.000351969
0.174033
-0.000697357
0.218712
0.272839
0.00344366
-0.0020376
0.00448813
0.00464281
0.00423252
0.00353263
0.00266261
0.00169845
0.000625094
-3.26951e-05
0.000204141
-0.0015063
0.000595347
-0.00349572
0.00109328
-0.00480114
0.00165244
-0.00559594
0.00224853
-0.00601347
0.00287068
-0.00615687
0.00351653
-0.00610534
0.00419029
-0.00591891
0.00490518
-0.00564406
-0.00532362
0.000212442
-0.00171875
0.000603937
-0.00388722
0.00108745
-0.00528465
0.00161599
-0.00612448
0.00216654
-0.00656402
0.00273068
-0.00672101
0.00330858
-0.00668324
0.00390548
-0.00651581
0.00452961
-0.0062682
-0.00598206
0.000211087
-0.00192983
0.000582556
-0.00425869
0.00102413
-0.00572622
0.00148986
-0.00659021
0.00195994
-0.00703411
0.00242992
-0.00719099
0.00290368
-0.00715699
0.00338903
-0.00700117
0.00389424
-0.00677341
-0.00651226
0.000198768
-0.0021286
0.000528748
-0.00458867
0.000900847
-0.00609832
0.00127314
-0.00696251
0.00163094
-0.0073919
0.0019748
-0.00753484
0.00231291
-0.00749511
0.00265634
-0.0073446
0.00301578
-0.00713285
-0.00689643
0.000174757
-0.00230336
0.000442014
-0.00485592
0.000719149
-0.00637546
0.000971389
-0.00721475
0.00119079
-0.00761131
0.00138356
-0.0077276
0.00156211
-0.00767367
0.00174046
-0.00752295
0.00193148
-0.00732387
-0.00711198
0.000138996
-0.00244235
0.000323919
-0.00504085
0.000484387
-0.00653593
0.000595751
-0.00732611
0.000658006
-0.00767356
0.000682967
-0.00775257
0.000686647
-0.00767735
0.000685022
-0.00752132
0.000691798
-0.00733065
-0.00713712
9.21593e-05
-0.00253451
0.000177987
-0.00512667
0.000205195
-0.00656313
0.000161666
-0.00728258
5.58645e-05
-0.00756776
-9.53121e-05
-0.00760139
-0.000273398
-0.00749926
-0.000461858
-0.00733286
-0.000647523
-0.00714498
-0.00696365
3.57367e-05
-0.00257025
9.69171e-06
-0.00510063
-0.000107347
-0.00644609
-0.000312752
-0.00707718
-0.000589885
-0.00729063
-0.000917893
-0.00727338
-0.00127722
-0.00713994
-0.00165208
-0.006958
-0.00203089
-0.00676617
-0.00658901
-2.88974e-05
-0.00254135
-0.000175075
-0.00495445
-0.000440774
-0.00618039
-0.000808338
-0.00670961
-0.00125345
-0.00684552
-0.00175251
-0.00677432
-0.00228614
-0.00660631
-0.00284024
-0.0064039
-0.00340565
-0.00620076
-0.0060165
-9.83543e-05
-0.002443
-0.000368493
-0.00468431
-0.000782034
-0.00576685