# Probe 0 (1 0 0.5)
# Probe 1 (2 0 0.5)
# Probe 2 (3 0 0.5)
# Probe 3 (1 0.5 0.5)
# Probe 4 (2 0.5 0.5)
# Probe 5 (3 0.5 0.5)
# Probe 6 (1 -0.5 0.5)
# Probe 7 (2 -0.5 0.5)
# Probe 8 (3 -0.5 0.5)
# Probe 9 (1 -1.5 0.5)
# Probe 10 (2 -1.5 0.5)
# Probe 11 (3 -1.5 0.5)
# Probe 12 (1 1.5 0.5)
# Probe 13 (2 1.5 0.5)
# Probe 14 (3 1.5 0.5)
#       Probe             0             1             2             3             4             5             6             7             8             9            10            11            12            13            14
#        Time
         0.01             (0.507183 -0.403604 2.0334e-18)             (0.649315 -0.336754 0.784248)             (0.717105 -0.31514 0.57572)             (0.68103 -0.503722 -2.74738e-17)             (0.663813 -0.462758 0.675848)             (0.733012 -0.40318 0.52028)             (0.485295 -0.216012 -1.307e-19)             (0.646476 -0.227106 0.780774)             (0.7071 -0.224048 0.606625)             (0.547112 -0.178171 1.39468e-17)             (0.620427 -0.228635 0.862094)             (0.708184 -0.215795 0.681838)             (0.405086 -0.463991 -1.19236e-17)             (0.738912 -0.393718 0.566968)             (0.790678 -0.347963 0.435829)
         0.02             (0.421234 -0.328442 -6.54048e-19)             (0.645742 -0.254843 -0.329786)             (0.727656 -0.1973 -0.314709)             (0.551035 -0.411787 9.15386e-18)             (0.688681 -0.295935 -0.299467)             (0.755957 -0.242462 -0.281915)             (0.412439 -0.158744 1.24461e-20)             (0.643754 -0.158076 -0.334961)             (0.700548 -0.13237 -0.333095)             (0.396219 -0.0983699 -4.49915e-18)             (0.629394 -0.137097 -0.364117)             (0.660522 -0.130068 -0.401447)             (0.613792 -0.298485 4.05593e-18)             (0.731532 -0.26364 -0.256117)             (0.792624 -0.203756 -0.252206)
         0.03             (0.497947 -0.535315 1.02445e-18)             (0.718266 -0.454653 0.52276)             (0.743949 -0.412424 0.533441)             (0.692325 -0.620011 -1.40638e-17)             (0.744494 -0.511185 0.483146)             (0.772743 -0.467081 0.489202)             (0.479324 -0.327292 -3.73268e-20)             (0.725735 -0.390586 0.554833)             (0.716781 -0.353768 0.556741)             (0.714065 -0.263794 7.39899e-18)             (0.709426 -0.301795 0.657323)             (0.667155 -0.292792 0.650368)             (0.641598 -0.536799 -6.27468e-18)             (0.79868 -0.510875 0.439894)             (0.807204 -0.458424 0.441631)
         0.04             (0.395839 -0.276388 -1.29842e-18)             (0.610145 -0.192407 -0.66711)             (0.704041 -0.110981 -0.69421)             (0.514074 -0.348979 1.78017e-17)             (0.663308 -0.213032 -0.613656)             (0.736085 -0.143266 -0.630437)             (0.402217 -0.118297 4.72035e-20)             (0.59361 -0.100888 -0.712618)             (0.674148 -0.0688778 -0.727323)             (0.324521 -0.0644963 -9.39947e-18)             (0.586194 -0.0896163 -0.841917)             (0.64936 -0.079525 -0.838503)             (0.639163 -0.267161 7.92883e-18)             (0.717757 -0.191877 -0.551277)             (0.781573 -0.132387 -0.559566)
         0.05             (0.513785 -0.598298 1.62107e-18)             (0.703558 -0.498986 0.821273)             (0.70294 -0.452084 0.815452)             (0.73303 -0.678438 -2.22502e-17)             (0.73121 -0.559395 0.756876)             (0.719728 -0.507239 0.738093)             (0.493413 -0.380257 -6.0266e-20)             (0.689431 -0.436174 0.864252)             (0.698034 -0.419569 0.865921)             (0.821611 -0.314708 1.17242e-17)             (0.655206 -0.346999 1.01372)             (0.707181 -0.358695 1.04402)             (0.711148 -0.600651 -9.95562e-18)             (0.792775 -0.571977 0.684613)             (0.754026 -0.515558 0.649751)
         0.06             (0.350462 -0.185251 -2.0969e-18)             (0.545481 -0.0951569 -1.07302)             (0.639733 -0.00923138 -1.1111)             (0.444469 -0.249695 2.88089e-17)             (0.606257 -0.103392 -0.991303)             (0.66642 -0.0316977 -1.01349)             (0.370231 -0.0464086 7.47252e-20)             (0.515316 -0.00327425 -1.13509)             (0.610962 0.0289722 -1.16947)             (0.189893 0.0025921 -1.51523e-17)             (0.511256 -0.00846172 -1.33081)             (0.559294 0.0137938 -1.41888)             (0.648955 -0.167472 1.28933e-17)             (0.661084 -0.0750774 -0.900528)             (0.718888 -0.0132981 -0.90773)
         0.07             (0.548562 -0.725776 2.7544e-18)             (0.727007 -0.611558 1.39985)             (0.857856 -0.656227 1.53743)             (0.812722 -0.803139 -3.78249e-17)             (0.752377 -0.682734 1.29496)             (0.812384 -0.655418 1.37201)             (0.517407 -0.489184 -1.03155e-19)             (0.752585 -0.62621 1.48913)             (0.880497 -0.700218 1.63787)             (1.08577 -0.440429 1.99705e-17)             (0.766639 -0.47028 1.78263)             (0.889525 -0.520431 2.01133)             (0.734997 -0.734167 -1.69359e-17)             (0.807906 -0.727095 1.16941)             (0.804129 -0.700404 1.21072)
         0.08             (0.277936 -0.0305615 -3.56752e-18)             (0.451237 0.0454272 -1.82515)             (0.438792 0.213844 -2.08807)             (0.323242 -0.084675 4.91061e-17)             (0.521503 0.073498 -1.69396)             (0.553412 0.166671 -1.83446)             (0.323797 0.075965 1.26865e-19)             (0.407979 0.127279 -1.93687)             (0.345194 0.305334 -2.24351)             (-0.113197 0.152648 -2.58352e-17)             (0.404022 0.131443 -2.31588)             (0.301062 0.183279 -2.74708)             (0.646882 0.0147017 2.20466e-17)             (0.593876 0.122013 -1.53148)             (0.645857 0.201032 -1.61718)
         0.09             (0.644443 -1.00441 5.0518e-18)             (0.89554 -0.899676 2.5936)             (1.0711 -1.02481 3.02774)             (0.997964 -1.08991 -6.93928e-17)             (0.894502 -0.9978 2.40905)             (1.0432 -1.02402 2.70284)             (0.594997 -0.719596 -1.85858e-19)             (1.04455 -1.07643 2.79433)             (1.10276 -1.11715 3.23081)             (1.77309 -0.729269 3.66535e-17)             (1.10479 -0.744749 3.39423)             (1.11244 -0.805072 3.94953)             (0.677638 -1.05491 -3.09833e-17)             (0.957798 -1.11754 2.16903)             (1.03824 -1.12624 2.42903)
          0.1             (0.169948 0.1934 -6.23221e-18)             (0.326813 0.212473 -3.20654)             (0.187993 0.536447 -3.82155)             (0.132341 0.152942 8.59876e-17)             (0.396323 0.306544 -2.99232)             (0.273392 0.497351 -3.4479)             (0.260521 0.256412 2.1417e-19)             (0.0902943 0.462785 -3.47825)             (0.113299 0.634196 -4.04141)             (-0.891143 0.442207 -4.51878e-17)             (0.0960965 0.297802 -4.22548)             (0.108486 0.39743 -4.89083)             (0.711362 0.316981 3.86226e-17)             (0.517397 0.437319 -2.68917)             (0.389186 0.546587 -3.15483)
         0.11             (0.844125 -1.58264 9.38728e-18)             (1.29287 -1.54667 4.85399)             (1.49405 -1.80673 5.77398)             (1.36961 -1.69601 -1.28944e-16)             (1.24361 -1.69392 4.52459)             (1.39967 -1.75865 5.19944)             (0.748868 -1.20002 -3.44474e-19)             (1.51353 -1.86329 5.26064)             (1.58013 -2.00471 6.11583)             (2.99452 -1.29544 6.81353e-17)             (1.60773 -1.27878 6.42466)             (1.62169 -1.42061 7.42992)             (0.529788 -1.70696 -5.73174e-17)             (1.385 -1.92655 4.08915)             (1.35607 -1.94534 4.74127)
         0.12             (0.0594225 0.34105 -1.01569e-17)             (0.194951 0.231076 -5.26105)             (-0.0242424 0.703465 -6.31672)             (-0.0677868 0.308214 1.40816e-16)             (0.304888 0.382214 -4.92744)             (0.062352 0.64608 -5.7208)             (0.201944 0.373961 3.23977e-19)             (-0.266735 0.68118 -5.72674)             (-0.119322 0.855094 -6.66353)             (-1.78965 0.712058 -7.35905e-17)             (-0.157522 0.367966 -6.94479)             (0.0109687 0.488946 -7.97318)             (1.07771 0.649228 6.34587e-17)             (0.294667 0.696868 -4.53685)             (0.239847 0.74286 -5.27997)
         0.13             (1.18013 -2.55972 1.56407e-17)             (1.87716 -2.62813 8.10406)             (2.2225 -3.12071 9.7072)             (1.979 -2.72125 -2.15009e-16)             (1.76409 -2.84505 7.5672)             (2.04859 -3.0177 8.77892)             (1.01601 -2.00428 -5.61878e-19)             (2.25272 -3.25911 8.80762)             (2.37731 -3.4784 10.2553)             (4.82814 -2.16345 1.13324e-16)             (2.47743 -2.16631 10.7505)             (2.53555 -2.43794 12.3974)             (0.541221 -2.74895 -9.56534e-17)             (1.9878 -3.26337 6.91277)             (1.94906 -3.35375 8.04519)
         0.14             (0.115696 -0.146828 -1.29721e-17)             (0.330772 -0.537349 -6.74575)             (0.123962 -0.0232207 -8.16743)             (0.0327955 -0.198086 1.8174e-16)             (0.479692 -0.364939 -6.36146)             (0.173902 -0.0706537 -7.45146)             (0.280139 -0.0398601 3.37048e-19)             (-0.260176 -0.0235584 -7.3255)             (0.0555917 0.103035 -8.55374)             (-1.93478 0.57808 -9.33223e-17)             (0.209796 -0.233307 -8.76308)             (0.534698 -0.190206 -10.0237)             (1.81912 0.453174 8.28601e-17)             (0.382343 0.107698 -5.97069)             (0.384998 0.0275906 -6.99097)
         0.15             (1.43004 -3.24561 1.76726e-17)             (2.30813 -3.52936 9.18408)             (2.81117 -4.07627 11.0958)             (2.37233 -3.47034 -2.44298e-16)             (2.21289 -3.72317 8.62768)             (2.60428 -3.87708 10.1126)             (1.26058 -2.52318 -5.49191e-19)             (2.78539 -4.23221 9.96886)             (2.97049 -4.573 11.6369)             (5.75427 -2.60666 1.26829e-16)             (3.16707 -2.79125 11.99)             (3.36636 -3.12734 13.8346)             (0.83085 -3.45919 -1.09974e-16)             (2.57287 -4.34321 8.03231)             (2.57044 -4.50349 9.47231)
         0.16             (0.394937 -1.17106 -1.15807e-17)             (0.937268 -1.91479 -6.02039)             (0.775453 -1.5417 -7.36849)             (0.511119 -1.28966 1.6426e-16)             (1.04922 -1.75109 -5.73406)             (0.725301 -1.50453 -6.80386)             (0.514276 -0.87984 1.99846e-19)             (0.324705 -1.39811 -6.51889)             (0.783228 -1.55017 -7.61229)             (-0.752998 -0.0826451 -8.22268e-17)             (1.25333 -1.30124 -7.58207)             (1.63271 -1.43154 -8.68208)             (2.24736 -0.528591 7.60988e-17)             (1.11437 -1.44319 -5.46472)             (0.977679 -1.60232 -6.54302)
         0.17             (1.3749 -3.06514 1.19203e-17)             (2.23489 -3.54684 6.19907)             (2.71565 -3.90141 7.58756)             (2.17421 -3.3405 -1.66652e-16)             (2.2502 -3.66795 5.89752)             (2.54955 -3.79411 7.00648)             (1.28524 -2.28906 -2.46989e-19)             (2.54802 -3.84759 6.69624)             (2.79643 -4.14743 7.81822)             (4.56873 -2.25521 8.40157e-17)             (3.06746 -2.6349 7.73454)             (3.49586 -2.91689 8.98141)             (1.34458 -3.34399 -7.67734e-17)             (2.65983 -4.29721 5.57827)             (2.74021 -4.43397 6.79041)
