/*--------------------------------*- C++ -*----------------------------------*\
  =========                 |
  \\      /  F ield         | OpenFOAM: The Open Source CFD Toolbox
   \\    /   O peration     | Website:  https://openfoam.org
    \\  /    A nd           | Version:  7
     \\/     M anipulation  |
\*---------------------------------------------------------------------------*/
FoamFile
{
    version     2.0;
    format      ascii;
    class       volScalarField;
    location    "5.9";
    object      p;
}
// * * * * * * * * * * * * * * * * * * * * * * * * * * * * * * * * * * * * * //

dimensions      [0 2 -2 0 0 0 0];

internalField   nonuniform List<scalar> 
32000
(
0.470662
0.470673
0.470689
0.470662
0.470654
0.470717
0.470875
0.471116
0.471427
0.471824
0.472347
0.47303
0.473876
0.474865
0.475982
0.477221
0.47859
0.480098
0.481751
0.483544
0.485463
0.487496
0.489629
0.491854
0.494162
0.496544
0.498986
0.501472
0.503984
0.506507
0.509027
0.511535
0.514021
0.516476
0.518891
0.521256
0.523569
0.525829
0.528019
0.530058
0.470722
0.470688
0.470679
0.470628
0.470606
0.470664
0.470819
0.471053
0.471352
0.471736
0.472247
0.472918
0.473748
0.474719
0.475812
0.477022
0.478356
0.479823
0.481429
0.483169
0.485031
0.487
0.489065
0.491215
0.493441
0.495736
0.498087
0.50048
0.502898
0.505326
0.507751
0.510162
0.512549
0.514905
0.51722
0.519487
0.521701
0.523864
0.525956
0.527913
0.470784
0.470707
0.47067
0.470594
0.47056
0.470614
0.470767
0.470996
0.471286
0.471662
0.472167
0.472827
0.473642
0.474594
0.475664
0.476846
0.478148
0.479578
0.481139
0.482827
0.484631
0.486537
0.488532
0.490607
0.492752
0.494958
0.497216
0.499513
0.501834
0.504163
0.506488
0.508798
0.511083
0.513336
0.515546
0.51771
0.519821
0.521882
0.52387
0.52574
0.470834
0.470708
0.470645
0.470548
0.470508
0.470562
0.470715
0.470941
0.471228
0.471602
0.472103
0.472755
0.473557
0.474489
0.475537
0.476696
0.477968
0.479362
0.48088
0.482516
0.484262
0.486104
0.48803
0.490029
0.492091
0.494208
0.496371
0.498569
0.500789
0.503016
0.505237
0.507442
0.509621
0.511766
0.513869
0.515924
0.517928
0.519882
0.521762
0.523539
0.470882
0.470713
0.470626
0.470511
0.470465
0.470522
0.470674
0.470899
0.471187
0.471561
0.472059
0.472704
0.473492
0.474407
0.475434
0.47657
0.477814
0.479173
0.480648
0.482233
0.483921
0.4857
0.487557
0.489478
0.491455
0.49348
0.495547
0.497646
0.499763
0.501885
0.503999
0.506095
0.508163
0.510195
0.512186
0.514129
0.516022
0.517865
0.519632
0.521309
0.470917
0.470705
0.470599
0.470469
0.47042
0.470479
0.470633
0.47086
0.471153
0.47153
0.472029
0.472668
0.473444
0.474343
0.475352
0.476466
0.477684
0.479009
0.480441
0.481977
0.483609
0.485324
0.487109
0.488951
0.490842
0.492775
0.494745
0.496742
0.498755
0.500769
0.502773
0.504755
0.506708
0.508625
0.5105
0.512326
0.514103
0.515829
0.517479
0.519052
0.47094
0.470691
0.470569
0.470429
0.470378
0.47044
0.470599
0.470831
0.47113
0.471514
0.472015
0.472649
0.473416
0.474302
0.475294
0.476387
0.477579
0.47887
0.480261
0.481749
0.483325
0.484976
0.486687
0.488448
0.490251
0.492092
0.493964
0.495859
0.497765
0.499668
0.501558
0.503424
0.505258
0.507056
0.50881
0.510516
0.512172
0.513777
0.515305
0.516767
0.47095
0.470667
0.470534
0.470387
0.470336
0.470403
0.470569
0.470809
0.471117
0.471509
0.472014
0.472647
0.473406
0.47428
0.475257
0.47633
0.477495
0.478754
0.480106
0.481547
0.483067
0.484652
0.486289
0.487968
0.489683
0.49143
0.493203
0.494995
0.496791
0.498581
0.500353
0.5021
0.503813
0.505487
0.507118
0.508699
0.51023
0.51171
0.513112
0.514457
0.470945
0.470633
0.470493
0.470342
0.470293
0.470366
0.470541
0.470791
0.47111
0.471512
0.472023
0.472657
0.473412
0.474276
0.475238
0.476291
0.477431
0.478658
0.479973
0.481369
0.482833
0.484351
0.485912
0.487508
0.489134
0.490788
0.492463
0.494149
0.495834
0.497508
0.49916
0.500784
0.502373
0.503922
0.505426
0.506879
0.50828
0.509631
0.510903
0.512125
0.470921
0.470586
0.470441
0.470291
0.470246
0.470327
0.470513
0.470775
0.471106
0.47152
0.47204
0.472678
0.47343
0.474286
0.475234
0.476267
0.477383
0.478582
0.479861
0.481211
0.482618
0.484068
0.485553
0.487067
0.488606
0.490166
0.491741
0.49332
0.494892
0.496448
0.497978
0.499477
0.50094
0.502361
0.503735
0.505057
0.506325
0.507541
0.50868
0.509774
0.470876
0.470523
0.470377
0.47023
0.470194
0.470286
0.470484
0.470759
0.471104
0.471532
0.472063
0.472707
0.473459
0.474307
0.475242
0.476257
0.477351
0.478522
0.479766
0.481071
0.48242
0.483803
0.485213
0.486645
0.488096
0.489562
0.491036
0.492507
0.493965
0.4954
0.496808
0.498181
0.499515
0.500806
0.502048
0.503234
0.504366
0.505446
0.506449
0.50741
0.470809
0.470442
0.470298
0.470159
0.470135
0.470241
0.470452
0.47074
0.4711
0.471544
0.472089
0.472742
0.473496
0.474338
0.47526
0.476258
0.477331
0.478477
0.479687
0.480945
0.482237
0.483553
0.484888
0.486239
0.487603
0.488975
0.490347
0.491709
0.493051
0.494366
0.495649
0.496895
0.4981
0.499259
0.500366
0.501415
0.502408
0.503349
0.504215
0.505037
0.470717
0.47034
0.470202
0.470076
0.470068
0.470189
0.470413
0.470716
0.471093
0.471555
0.472117
0.472781
0.473538
0.474375
0.475286
0.476268
0.477322
0.478443
0.479619
0.480832
0.482067
0.483317
0.484578
0.485849
0.487126
0.488403
0.489673
0.490925
0.49215
0.493344
0.494501
0.495619
0.496694
0.49772
0.498691
0.499603
0.500455
0.501255
0.501983
0.502662
0.470599
0.470217
0.470088
0.469978
0.469989
0.470127
0.470367
0.470685
0.471081
0.471564
0.472144
0.472821
0.473582
0.474416
0.475318
0.476286
0.477322
0.478419
0.479561
0.480728
0.481907
0.483092
0.484281
0.485473
0.486663
0.487845
0.489012
0.490153
0.491262
0.492333
0.493365
0.494356
0.4953
0.496192
0.497027
0.497799
0.498511
0.499169
0.49976
0.500293
0.470454
0.470071
0.469955
0.469865
0.469898
0.470054
0.470309
0.470645
0.471062
0.471567
0.472168
0.472859
0.473626
0.474459
0.475352
0.476309
0.477328
0.478401
0.479508
0.48063
0.481754
0.482876
0.483994
0.485107
0.486211
0.487299
0.488363
0.489393
0.490385
0.491335
0.492242
0.493105
0.493918
0.494676
0.495375
0.496009
0.49658
0.497097
0.497552
0.497936
0.470282
0.469901
0.469801
0.469736
0.469792
0.469967
0.470239
0.470594
0.471033
0.471563
0.472186
0.472891
0.473666
0.4745
0.475388
0.476335
0.477338
0.478385
0.479458
0.480535
0.481606
0.482666
0.483715
0.484751
0.48577
0.486763
0.487724
0.488644
0.489519
0.490349
0.491133
0.491868
0.492551
0.493176
0.493739
0.494236
0.494667
0.495045
0.495366
0.495601
0.470083
0.469709
0.469627
0.469588
0.469668
0.469864
0.470154
0.47053
0.470992
0.471548
0.472193
0.472915
0.4737
0.474537
0.475423
0.476361
0.477348
0.47837
0.479408
0.480441
0.48146
0.482461
0.483442
0.484403
0.485336
0.486236
0.487094
0.487905
0.488666
0.489377
0.490038
0.490647
0.491201
0.491694
0.492123
0.492484
0.492778
0.493019
0.49321
0.493296
0.469857
0.469492
0.469432
0.46942
0.469526
0.469743
0.470054
0.470451
0.470939
0.47152
0.472188
0.472928
0.473725
0.474568
0.475454
0.476385
0.477356
0.478352
0.479355
0.480346
0.481315
0.482258
0.483174
0.48406
0.484909
0.485716
0.486473
0.487177
0.487826
0.48842
0.48896
0.489444
0.489869
0.490232
0.490529
0.490757
0.490917
0.491024
0.491091
0.49103
0.469603
0.469253
0.469215
0.469232
0.469364
0.469603
0.469936
0.470356
0.47087
0.471477
0.472168
0.472927
0.473738
0.47459
0.475478
0.476403
0.477358
0.478329
0.479297
0.480246
0.481167
0.482055
0.482907
0.48372
0.484487
0.485203
0.485861
0.48646
0.486999
0.487478
0.487899
0.48826
0.488559
0.488794
0.488962
0.48906
0.48909
0.489068
0.489015
0.488812
0.469324
0.46899
0.468976
0.469021
0.46918
0.469444
0.469799
0.470245
0.470786
0.471419
0.472133
0.472912
0.473739
0.474601
0.475494
0.476414
0.477353
0.478298
0.479233
0.480142
0.481016
0.481851
0.482641
0.483383
0.484069
0.484695
0.485257
0.485754
0.486185
0.486552
0.486855
0.487096
0.487272
0.487382
0.487423
0.487397
0.4873
0.487154
0.486989
0.486649
0.46902
0.468705
0.468714
0.468788
0.468975
0.469263
0.469644
0.470117
0.470685
0.471343
0.472081
0.472881
0.473725
0.4746
0.475498
0.476414
0.477338
0.478258
0.47916
0.48003
0.48086
0.481643
0.482373
0.483045
0.483652
0.484191
0.48466
0.485057
0.485383
0.48564
0.48583
0.485953
0.486009
0.485997
0.485918
0.48577
0.485553
0.48529
0.485019
0.484548
0.468692
0.468397
0.46843
0.468532
0.468746
0.469061
0.469469
0.46997
0.470566
0.47125
0.472012
0.472833
0.473695
0.474584
0.475488
0.476401
0.477311
0.478207
0.479076
0.479909
0.480696
0.481429
0.482102
0.482705
0.483236
0.483691
0.484069
0.484369
0.484593
0.484744
0.484823
0.484833
0.484773
0.484644
0.484447
0.484184
0.483853
0.483478
0.48311
0.482516
0.46834
0.468067
0.468122
0.468252
0.468494
0.468836
0.469273
0.469804
0.470428
0.471139
0.471925
0.472768
0.473649
0.474551
0.475462
0.476372
0.477269
0.478141
0.47898
0.479776
0.480522
0.481208
0.481824
0.482362
0.482819
0.483192
0.483482
0.483689
0.483815
0.483863
0.483836
0.483736
0.483565
0.483324
0.483016
0.482643
0.482204
0.481723
0.481265
0.480559
0.467964
0.467713
0.46779
0.467948
0.468217
0.468588
0.469055
0.469617
0.47027
0.471009
0.471819
0.472683
0.473583
0.474499
0.475418
0.476326
0.477209
0.478059
0.478868
0.47963
0.480336
0.480976
0.481538
0.482013
0.482399
0.482694
0.482899
0.483016
0.483047
0.482997
0.482868
0.482665
0.482388
0.48204
0.481626
0.481149
0.480609
0.48003
0.479489
0.478682
0.467564
0.467334
0.467433
0.467617
0.467914
0.468315
0.468814
0.469408
0.470092
0.470858
0.471692
0.472578
0.473497
0.474427
0.475354
0.476259
0.47713
0.477959
0.47874
0.479468
0.480136
0.480732
0.481242
0.481657
0.481974
0.482194
0.482318
0.482349
0.482289
0.482145
0.481921
0.481619
0.481241
0.480792
0.480278
0.479705
0.47907
0.4784
0.477785
0.476887
0.46714
0.46693
0.46705
0.46726
0.467585
0.468017
0.468549
0.469177
0.469892
0.470686
0.471544
0.472452
0.473388
0.474333
0.475267
0.476171
0.47703
0.477838
0.478592
0.479289
0.47992
0.480473
0.480933
0.48129
0.481542
0.481691
0.481737
0.481685
0.48154
0.481307
0.480992
0.480597
0.480125
0.479581
0.478974
0.478311
0.477589
0.476835
0.476153
0.475176
0.46669
0.4665
0.466641
0.466876
0.467229
0.467692
0.46826
0.468922
0.469669
0.470491
0.471373
0.472302
0.473256
0.474215
0.475156
0.476058
0.476907
0.477696
0.478424
0.47909
0.479686
0.480197
0.480609
0.480911
0.481101
0.48118
0.481152
0.481022
0.480795
0.480479
0.480078
0.479596
0.479035
0.478404
0.477712
0.476966
0.476166
0.475336
0.474594
0.473549
0.466216
0.466045
0.466205
0.466464
0.466845
0.467341
0.467944
0.468642
0.469422
0.470272
0.471179
0.472127
0.473099
0.474072
0.47502
0.475921
0.476759
0.477529
0.478233
0.47887
0.479431
0.479902
0.480266
0.480515
0.480645
0.480659
0.480561
0.480356
0.480052
0.479657
0.479176
0.478612
0.47797
0.477258
0.476488
0.475668
0.474797
0.4739
0.473105
0.472005
0.465716
0.465562
0.465741
0.466023
0.466434
0.466963
0.467602
0.468336
0.469151
0.470029
0.47096
0.471929
0.472917
0.473902
0.474857
0.475756
0.476584
0.477337
0.478017
0.478625
0.479152
0.479583
0.479902
0.480098
0.480171
0.480123
0.479957
0.479682
0.479306
0.478836
0.478279
0.477639
0.476922
0.476137
0.475297
0.474412
0.47348
0.472524
0.471684
0.47054
0.46519
0.465053
0.465249
0.465555
0.465995
0.466557
0.467233
0.468005
0.468853
0.469761
0.470715
0.471704
0.472708
0.473705
0.474665
0.475562
0.476379
0.477115
0.477773
0.478353
0.478846
0.479237
0.47951
0.479656
0.479674
0.479565
0.479336
0.478994
0.478549
0.478009
0.477382
0.476671
0.475885
0.475034
0.474132
0.47319
0.472206
0.471202
0.470326
0.46915
0.464638
0.464515
0.464728
0.465058
0.465528
0.466124
0.466836
0.467646
0.468529
0.469466
0.470443
0.471451
0.472471
0.473478
0.474442
0.475335
0.476142
0.476861
0.477497
0.478049
0.478508
0.478859
0.479087
0.479183
0.479147
0.47898
0.47869
0.478285
0.477775
0.477169
0.476474
0.475698
0.474849
0.473939
0.472983
0.471992
0.470966
0.469926
0.469024
0.46783
0.464057
0.463948
0.464179
0.464534
0.465033
0.465664
0.466413
0.467259
0.468176
0.469141
0.470142
0.471168
0.472203
0.473219
0.474185
0.475073
0.475869
0.476572
0.477185
0.477708
0.478133
0.478444
0.478626
0.478673
0.478584
0.478361
0.478012
0.477547
0.476974
0.476305
0.475548
0.47471
0.473803
0.47284
0.471837
0.470807
0.469749
0.468684
0.467769
0.466575
0.463446
0.463351
0.4636
0.46398
0.464509
0.465175
0.465961
0.466843
0.467792
0.468785
0.469809
0.470853
0.471901
0.472924
0.47389
0.474773
0.475557
0.476242
0.476832
0.477327
0.477716
0.477986
0.478122
0.47812
0.477978
0.477701
0.477295
0.47677
0.476137
0.475407
0.47459
0.473695
0.472734
0.471724
0.47068
0.469618
0.468539
0.467462
0.466551
0.465377
0.462803
0.462721
0.462989
0.463395
0.463956
0.464657
0.465479
0.466396
0.467376
0.468395
0.469441
0.470502
0.471561
0.47259
0.473555
0.474429
0.4752
0.475867
0.476434
0.476899
0.477252
0.477479
0.477569
0.477516
0.477322
0.47699
0.476528
0.475945
0.475254
0.474465
0.473589
0.472639
0.471627
0.470572
0.469493
0.468407
0.467317
0.466243
0.465354
0.46423
0.462126
0.462058
0.462345
0.462779
0.463371
0.464108
0.464966
0.465916
0.466924
0.467969
0.469036
0.470113
0.471183
0.472214
0.473176
0.47404
0.474796
0.475443
0.475984
0.476418
0.476733
0.476917
0.476959
0.476855
0.476607
0.47622
0.475702
0.475062
0.474312
0.473464
0.472531
0.471526
0.470465
0.469368
0.468256
0.46715
0.466058
0.465002
0.464158
0.46312
0.461412
0.461358
0.461665
0.462127
0.462754
0.463526
0.46442
0.465401
0.466437
0.467505
0.468592
0.469684
0.470761
0.471793
0.472749
0.473601
0.474339
0.474965
0.475479
0.47588
0.476155
0.476293
0.476286
0.476129
0.475827
0.475383
0.474807
0.474109
0.473301
0.472394
0.471403
0.470342
0.46923
0.468089
0.466944
0.465819
0.464731
0.463706
0.46293
0.462026
0.460657
0.460619
0.460948
0.46144
0.462102
0.462911
0.463838
0.464848
0.46591
0.467001
0.468106
0.46921
0.470293
0.471324
0.47227
0.473107
0.473826
0.474427
0.474913
0.475277
0.475511
0.475601
0.475541
0.47533
0.474971
0.474469
0.473835
0.473077
0.472209
0.471242
0.47019
0.469071
0.467905
0.466715
0.46553
0.464382
0.463295
0.462306
0.461618
0.460903
0.45986
0.459838
0.460191
0.460716
0.461415
0.46226
0.463219
0.464257
0.465343
0.466455
0.467576
0.46869
0.469776
0.470802
0.471736
0.472556
0.473252
0.473826
0.474279
0.474605
0.474793
0.474833
0.474719
0.47445
0.474032
0.47347
0.472775
0.471957
0.471026
0.469996
0.468882
0.4677
0.466472
0.465223
0.463986
0.462799
0.4617
0.460744
0.460166
0.459725
0.459018
0.459015
0.459393
0.459954
0.460691
0.461571
0.462561
0.463625
0.464733
0.465863
0.466998
0.46812
0.469206
0.470224
0.471143
0.471941
0.472611
0.473155
0.473572
0.473855
0.473995
0.473981
0.47381
0.473483
0.473003
0.472379
0.471621
0.47074
0.469745
0.46865
0.467468
0.466218
0.464919
0.463596
0.462281
0.461019
0.459861
0.458903
0.458475
0.458497
0.45813
0.458149
0.458555
0.459154
0.45993
0.460844
0.461862
0.46295
0.464079
0.465226
0.466372
0.467499
0.468581
0.469587
0.470486
0.471259
0.4719
0.472409
0.472786
0.473024
0.473111
0.473041
0.47281
0.472421
0.471878
0.47119
0.470368
0.469422
0.468361
0.467198
0.465947
0.464622
0.463242
0.461825
0.460397
0.458989
0.457642
0.456463
0.455828
0.455952
0.536724
0.546094
0.552684
0.558602
0.562751
0.56642
0.569291
0.571794
0.573877
0.57567
0.577192
0.578496
0.579598
0.58051
0.581255
0.581852
0.582321
0.582643
0.582844
0.582934
0.582922
0.582801
0.582598
0.582302
0.58191
0.581438
0.580859
0.580192
0.579432
0.578563
0.577609
0.576533
0.575367
0.57409
0.572714
0.571239
0.569697
0.568072
0.566568
0.564885
0.534504
0.543758
0.550421
0.556432
0.560693
0.564472
0.567437
0.570016
0.572162
0.574011
0.575585
0.576923
0.578044
0.578985
0.579768
0.580386
0.580862
0.581213
0.581448
0.581554
0.581553
0.581457
0.581266
0.580993
0.580619
0.58015
0.579592
0.578935
0.578184
0.577335
0.576382
0.575328
0.574165
0.572899
0.571529
0.570067
0.568533
0.566915
0.565423
0.563755
0.532227
0.541379
0.548108
0.554225
0.558607
0.562507
0.565571
0.568231
0.570445
0.572352
0.573979
0.575351
0.576491
0.577462
0.57828
0.578919
0.579403
0.579782
0.580049
0.580171
0.580183
0.580111
0.579933
0.579683
0.579328
0.578864
0.578326
0.577681
0.576939
0.57611
0.575159
0.574127
0.57297
0.571717
0.570355
0.568907
0.567385
0.565778
0.564298
0.562645
0.529885
0.538953
0.54574
0.551983
0.556489
0.56052
0.563692
0.566444
0.568731
0.570695
0.572367
0.573775
0.574947
0.575944
0.576784
0.577447
0.577953
0.578353
0.578638
0.578784
0.578816
0.578764
0.578604
0.578369
0.578032
0.577582
0.57706
0.576429
0.5757
0.574885
0.573946
0.572927
0.571782
0.570543
0.569194
0.567759
0.566252
0.564658
0.563192
0.561554
0.527478
0.536481
0.543316
0.549701
0.55434
0.558512
0.561801
0.564653
0.567018
0.569039
0.570754
0.572198
0.573406
0.574428
0.575285
0.575973
0.576505
0.576923
0.577224
0.577394
0.57745
0.577416
0.577277
0.577053
0.576734
0.576305
0.575795
0.575181
0.574467
0.573662
0.572741
0.571731
0.570603
0.569378
0.568046
0.566624
0.565134
0.563555
0.562102
0.560478
0.525005
0.533962
0.540836
0.547376
0.552158
0.556484
0.559898
0.562856
0.565302
0.567383
0.569143
0.570624
0.571866
0.572913
0.573789
0.574499
0.575055
0.575493
0.57581
0.576005
0.576083
0.576068
0.575949
0.575739
0.575438
0.575028
0.574532
0.573936
0.573237
0.572445
0.571542
0.570544
0.569433
0.568225
0.56691
0.565503
0.56403
0.562465
0.561025
0.559416
0.522464
0.531394
0.538297
0.545007
0.549942
0.554433
0.557982
0.561053
0.563585
0.565728
0.567534
0.569052
0.570327
0.571399
0.572294
0.573026
0.573605
0.574063
0.574398
0.574615
0.574716
0.574719
0.574622
0.574426
0.574144
0.573754
0.573273
0.572695
0.572012
0.571235
0.570349
0.569366
0.568272
0.567082
0.565785
0.564394
0.562939
0.561389
0.559963
0.558368
0.519853
0.528779
0.535698
0.542591
0.54769
0.55236
0.556054
0.559244
0.561866
0.564074
0.565928
0.567484
0.56879
0.569887
0.570801
0.571555
0.572155
0.572633
0.572987
0.573226
0.573349
0.573371
0.573294
0.573116
0.572852
0.572481
0.572017
0.571456
0.570791
0.57003
0.569163
0.568197
0.567121
0.56595
0.564673
0.563299
0.561861
0.560326
0.558913
0.557332
0.517172
0.526115
0.533038
0.540127
0.5454
0.550263
0.554112
0.557429
0.560145
0.562421
0.564324
0.565918
0.567255
0.568377
0.569311
0.570086
0.570706
0.571205
0.571579
0.571838
0.571983
0.572022
0.571967
0.571807
0.571561
0.57121
0.570762
0.57022
0.569575
0.568831
0.567983
0.567037
0.565981
0.564828
0.563572
0.562216
0.560795
0.559277
0.557875
0.556309
0.514421
0.523404
0.530315
0.537614
0.543072
0.548141
0.552156
0.555607
0.558423
0.56077
0.562723
0.564355
0.565722
0.566869
0.567824
0.568619
0.569259
0.569778
0.570173
0.570451
0.570617
0.570675
0.570641
0.5705
0.570271
0.569941
0.569511
0.568987
0.568362
0.567637
0.56681
0.565884
0.56485
0.563718
0.562483
0.561147
0.559742
0.55824
0.556851
0.555299
0.511603
0.520647
0.527531
0.535052
0.540704
0.545992
0.550185
0.553778
0.556699
0.559119
0.561124
0.562796
0.564192
0.565364
0.566339
0.567154
0.567815
0.568354
0.56877
0.569067
0.569253
0.56933
0.569316
0.569195
0.568983
0.568674
0.568262
0.567758
0.567154
0.56645
0.565644
0.56474
0.563729
0.562618
0.561405
0.560089
0.558702
0.557218
0.55584
0.554302
0.508721
0.517846
0.524687
0.532439
0.538295
0.543816
0.548199
0.551942
0.554972
0.557469
0.559528
0.561239
0.562665
0.563861
0.564856
0.565691
0.566373
0.566932
0.567368
0.567684
0.567891
0.567986
0.567991
0.567891
0.567696
0.567409
0.567017
0.566533
0.565951
0.565269
0.564485
0.563604
0.562618
0.561528
0.560338
0.559043
0.557673
0.556208
0.554843
0.553317
0.505781
0.515006
0.521786
0.529776
0.535846
0.541612
0.546195
0.550097
0.553242
0.55582
0.557933
0.559684
0.561141
0.56236
0.563375
0.56423
0.564933
0.565512
0.565969
0.566303
0.56653
0.566644
0.566668
0.566589
0.566412
0.566146
0.565775
0.565312
0.564752
0.564093
0.563333
0.562476
0.561515
0.560448
0.559281
0.55801
0.556658
0.555212
0.553859
0.552345
0.50279
0.51213
0.51883
0.527063
0.533355
0.539378
0.544175
0.548243
0.551509
0.55417
0.556341
0.558133
0.559619
0.560861
0.561897
0.562772
0.563496
0.564095
0.564572
0.564924
0.565171
0.565305
0.565347
0.565289
0.56513
0.564884
0.564535
0.564094
0.563558
0.562922
0.562186
0.561354
0.56042
0.559377
0.558234
0.556987
0.555655
0.554228
0.552889
0.551386
0.499756
0.509227
0.515826
0.524303
0.530825
0.537115
0.542136
0.54638
0.549773
0.552521
0.554752
0.556584
0.558101
0.559365
0.560422
0.561317
0.562062
0.56268
0.563176
0.563548
0.563813
0.563967
0.564027
0.563989
0.563849
0.563625
0.563299
0.562879
0.562367
0.561756
0.561045
0.560239
0.559332
0.558314
0.557196
0.555976
0.554665
0.553257
0.551933
0.55044
0.496689
0.506302
0.51278
0.521498
0.528256
0.534822
0.540079
0.544507
0.548033
0.550873
0.553167
0.55504
0.556587
0.557874
0.558952
0.559866
0.56063
0.561267
0.561782
0.562173
0.562457
0.562631
0.562709
0.562691
0.562571
0.562367
0.562065
0.561667
0.561179
0.560595
0.55991
0.559129
0.558251
0.55726
0.556168
0.554975
0.553687
0.552298
0.550991
0.549507
0.493603
0.503365
0.5097
0.518653
0.52565
0.532501
0.538004
0.542624
0.546289
0.549226
0.551584
0.5535
0.555078
0.556387
0.557485
0.558419
0.559202
0.559857
0.56039
0.560801
0.561103
0.561297
0.561392
0.561394
0.561295
0.561111
0.560834
0.560459
0.559994
0.559436
0.55878
0.558025
0.557175
0.556213
0.555149
0.553984
0.552721
0.551353
0.550062
0.548588
0.49051
0.500426
0.506596
0.515772
0.523012
0.530153
0.535911
0.540731
0.544542
0.54758
0.550005
0.551964
0.553573
0.554905
0.556023
0.556975
0.557776
0.55845
0.559
0.55943
0.55975
0.559964
0.560077
0.560099
0.560021
0.559857
0.559604
0.559253
0.558813
0.558282
0.557653
0.556926
0.556105
0.555173
0.554139
0.553002
0.551767
0.55042
0.549147
0.547682
0.487426
0.497496
0.503479
0.512863
0.520344
0.527778
0.533801
0.538828
0.542791
0.545934
0.548429
0.550432
0.552072
0.553426
0.554565
0.555535
0.556353
0.557045
0.557613
0.558062
0.558399
0.558633
0.558763
0.558804
0.55875
0.558606
0.558375
0.55805
0.557634
0.557131
0.556531
0.555831
0.55504
0.55414
0.553136
0.55203
0.550823
0.549499
0.548245
0.546788
0.484365
0.494588
0.500363
0.509931
0.517651
0.52538
0.531674
0.536915
0.541036
0.544289
0.546855
0.548904
0.550575
0.551953
0.55311
0.554098
0.554934
0.555643
0.556228
0.556696
0.55705
0.557303
0.557452
0.557512
0.55748
0.557356
0.557149
0.55685
0.556458
0.555982
0.555411
0.55474
0.55398
0.553112
0.552141
0.551066
0.54989
0.548591
0.547355
0.545908
0.481344
0.491715
0.497259
0.506986
0.51494
0.52296
0.529531
0.534992
0.539278
0.542643
0.545284
0.54738
0.549083
0.550483
0.551659
0.552666
0.553518
0.554245
0.554846
0.555331
0.555703
0.555975
0.556143
0.556221
0.556212
0.556109
0.555925
0.555651
0.555285
0.554835
0.554294
0.553652
0.552924
0.55209
0.551152
0.55011
0.548968
0.547694
0.546479
0.545041
0.478381
0.488888
0.494184
0.504036
0.512216
0.520522
0.527375
0.533061
0.537515
0.540998
0.543715
0.545861
0.547596
0.549019
0.550214
0.551237
0.552106
0.552849
0.553468
0.55397
0.554359
0.554648
0.554837
0.554931
0.554945
0.554863
0.554702
0.554454
0.554113
0.553691
0.55318
0.552567
0.551872
0.551072
0.550171
0.549163
0.548055
0.54681
0.545616
0.544188
0.475493
0.486123
0.491152
0.501094
0.509487
0.518072
0.525207
0.531121
0.535748
0.539353
0.542149
0.544347
0.546115
0.547561
0.548774
0.549814
0.5507
0.551458
0.552092
0.552611
0.553018
0.553324
0.553532
0.553644
0.553679
0.553618
0.55348
0.553258
0.552943
0.552547
0.552066
0.551485
0.550822
0.550059
0.549195
0.548224
0.547153
0.545938
0.544768
0.54335
0.472696
0.483431
0.488178
0.49817
0.506761
0.515614
0.523029
0.529175
0.533977
0.537708
0.540586
0.542838
0.54464
0.546109
0.547341
0.548397
0.549299
0.550072
0.550721
0.551255
0.551679
0.552002
0.552229
0.552358
0.552414
0.552375
0.55226
0.552064
0.551774
0.551405
0.550954
0.550405
0.549776
0.54905
0.548225
0.547293
0.546261
0.545079
0.543934
0.542527
0.470008
0.480824
0.485277
0.495275
0.504047
0.513153
0.520845
0.527222
0.532202
0.536063
0.539027
0.541333
0.543171
0.544664
0.545915
0.546986
0.547903
0.548689
0.549353
0.549902
0.550344
0.550683
0.550928
0.551074
0.55115
0.551134
0.55104
0.550869
0.550605
0.550264
0.549843
0.549327
0.548732
0.548045
0.547261
0.54637
0.545379
0.544233
0.543116
0.541722
0.467444
0.478313
0.482464
0.492423
0.501354
0.510696
0.518658
0.525265
0.530425
0.534418
0.537469
0.539834
0.541708
0.543226
0.544497
0.545582
0.546514
0.547312
0.54799
0.548553
0.549012
0.549366
0.549628
0.549793
0.549888
0.549893
0.549821
0.549676
0.549437
0.549123
0.548732
0.548249
0.54769
0.547043
0.546302
0.545454
0.544506
0.543401
0.542315
0.540935
0.465016
0.475907
0.479751
0.489625
0.498693
0.50825
0.516471
0.523305
0.528646
0.532773
0.535915
0.538339
0.540252
0.541795
0.543086
0.544185
0.54513
0.54594
0.546631
0.547208
0.547683
0.548051
0.548331
0.548513
0.548626
0.548654
0.548603
0.548482
0.548269
0.547982
0.54762
0.547173
0.546649
0.546043
0.545346
0.544544
0.543643
0.542583
0.541532
0.540167
0.462735
0.473612
0.47715
0.486893
0.496072
0.505821
0.514288
0.521344
0.526867
0.53113
0.534365
0.53685
0.538802
0.540372
0.541682
0.542795
0.543753
0.544574
0.545277
0.545867
0.546356
0.546739
0.547035
0.547235
0.547366
0.547416
0.547384
0.547287
0.5471
0.546841
0.546508
0.546095
0.545609
0.545044
0.544393
0.543639
0.542788
0.541778
0.540767
0.53942
0.460612
0.471434
0.474672
0.484239
0.493503
0.503415
0.512114
0.519385
0.525087
0.529487
0.532818
0.535366
0.53736
0.538957
0.540287
0.541413
0.542383
0.543214
0.543928
0.54453
0.545032
0.545429
0.545741
0.545959
0.546107
0.546178
0.546166
0.546093
0.54593
0.545698
0.545395
0.545017
0.544568
0.544046
0.543441
0.542738
0.541942
0.540987
0.540023
0.538696
0.458654
0.469376
0.472324
0.481673
0.490992
0.50104
0.509952
0.517429
0.52331
0.527847
0.531275
0.533889
0.535926
0.537551
0.5389
0.54004
0.541019
0.54186
0.542585
0.543198
0.543711
0.544123
0.544449
0.544685
0.544848
0.54494
0.544949
0.544897
0.544759
0.544554
0.544281
0.543938
0.543527
0.543047
0.542489
0.54184
0.541103
0.540209
0.539299
0.537998
0.456866
0.467439
0.470113
0.479206
0.488549
0.498702
0.507805
0.515479
0.521534
0.526208
0.529737
0.532418
0.534501
0.536155
0.537522
0.538674
0.539663
0.540513
0.541247
0.54187
0.542394
0.54282
0.543159
0.543412
0.543591
0.543702
0.54373
0.543699
0.543586
0.543408
0.543164
0.542856
0.542483
0.542046
0.541537
0.540943
0.540271
0.539444
0.538597
0.537328
0.455253
0.465621
0.468042
0.476844
0.486181
0.496406
0.505678
0.513536
0.519761
0.524572
0.528203
0.530955
0.533084
0.534767
0.536153
0.537317
0.538314
0.539172
0.539914
0.540546
0.541081
0.541519
0.54187
0.542139
0.542334
0.542463
0.542511
0.5425
0.542411
0.54226
0.542045
0.541771
0.541436
0.541042
0.540583
0.540047
0.539443
0.538692
0.537917
0.53669
0.453821
0.463921
0.466112
0.474596
0.483894
0.494159
0.503576
0.511603
0.517993
0.522941
0.526675
0.529501
0.531677
0.53339
0.534794
0.535969
0.536973
0.537839
0.538587
0.539227
0.539771
0.54022
0.540584
0.540868
0.541079
0.541224
0.541291
0.541299
0.541235
0.541109
0.540924
0.540683
0.540385
0.540034
0.539625
0.539151
0.538619
0.537952
0.537262
0.536089
0.452578
0.462333
0.464325
0.472465
0.481695
0.491964
0.5015
0.509683
0.516233
0.521316
0.525155
0.528056
0.53028
0.532023
0.533445
0.534631
0.535641
0.536513
0.537267
0.537913
0.538465
0.538924
0.539299
0.539597
0.539823
0.539983
0.540069
0.540095
0.540055
0.539954
0.539798
0.53959
0.539329
0.539022
0.538664
0.538251
0.537796
0.537223
0.536632
0.535531
0.451536
0.460855
0.462678
0.470458
0.479588
0.489829
0.499458
0.507781
0.514484
0.5197
0.523644
0.526621
0.528894
0.530668
0.532107
0.533303
0.534318
0.535194
0.535952
0.536603
0.537163
0.53763
0.538016
0.538327
0.538568
0.538741
0.538847
0.53889
0.538873
0.538797
0.538669
0.538494
0.538268
0.538004
0.537697
0.537348
0.536973
0.536502
0.536028
0.535021
0.450713
0.459482
0.46117
0.468576
0.477579
0.487761
0.497456
0.505905
0.512752
0.518098
0.522148
0.5252
0.527522
0.529327
0.530781
0.531986
0.533005
0.533883
0.534645
0.535299
0.535864
0.536339
0.536735
0.537058
0.537313
0.537499
0.537623
0.537684
0.537689
0.537636
0.537536
0.537393
0.537202
0.53698
0.536723
0.536438
0.536146
0.535788
0.535449
0.53457
0.45013
0.458214
0.459798
0.466825
0.475675
0.485769
0.495504
0.504061
0.511044
0.516514
0.520668
0.523795
0.526165
0.528
0.52947
0.530681
0.531703
0.532582
0.533345
0.534002
0.534571
0.535052
0.535458
0.53579
0.536058
0.536257
0.536398
0.536476
0.536501
0.536472
0.536399
0.536286
0.536129
0.535948
0.535741
0.535521
0.535313
0.535075
0.534895
0.534189
0.449833
0.457061
0.458567
0.465199
0.473853
0.483815
0.493556
0.502199
0.50931
0.514904
0.519166
0.522371
0.524794
0.526662
0.52815
0.529369
0.530394
0.531274
0.532037
0.532696
0.533269
0.533755
0.53417
0.534512
0.534793
0.535006
0.535162
0.535257
0.535303
0.535298
0.53525
0.535166
0.535043
0.534902
0.534744
0.534588
0.534465
0.534356
0.53436
0.533891
0.449891
0.455991
0.457428
0.463628
0.472029
0.481806
0.491514
0.500229
0.507469
0.513195
0.517574
0.52087
0.523356
0.525266
0.526778
0.528012
0.529045
0.529928
0.530695
0.531358
0.531935
0.53243
0.532854
0.533209
0.533503
0.53373
0.533903
0.534016
0.534083
0.534102
0.53408
0.534025
0.533937
0.533834
0.533726
0.533633
0.533595
0.53362
0.533836
0.533696
0.450361
0.454902
0.456233
0.462081
0.470318
0.479978
0.48968
0.498461
0.505809
0.511643
0.516115
0.51948
0.522012
0.523948
0.525471
0.526707
0.527738
0.52862
0.529384
0.530047
0.530627
0.531127
0.531558
0.531922
0.532226
0.532466
0.532653
0.532783
0.532868
0.532907
0.532908
0.532878
0.532821
0.532753
0.532689
0.532654
0.532695
0.53285
0.533292
0.533595
0.45062
0.450875
0.451499
0.456931
0.465407
0.475397
0.485497
0.494658
0.502341
0.508435
0.51309
0.516553
0.519087
0.520947
0.522344
0.523444
0.524354
0.525139
0.525834
0.526452
0.527001
0.527486
0.527908
0.528272
0.52858
0.528834
0.529038
0.529196
0.529313
0.529392
0.52944
0.529465
0.529477
0.529489
0.529526
0.529621
0.529843
0.530305
0.531347
0.533169
0.440581
0.442052
0.444595
0.450909
0.459427
0.468821
0.478136
0.486618
0.493831
0.499673
0.504247
0.507746
0.51039
0.512396
0.513951
0.515202
0.516248
0.517153
0.517954
0.518671
0.519313
0.519887
0.520397
0.520847
0.52124
0.521579
0.521866
0.522106
0.522304
0.522464
0.522591
0.522696
0.52279
0.52289
0.523022
0.52323
0.523599
0.524303
0.525769
0.528281
0.429862
0.433677
0.438149
0.445003
0.453183
0.461831
0.470331
0.478149
0.484926
0.490544
0.495053
0.498596
0.501353
0.503509
0.505228
0.506637
0.50783
0.508868
0.509789