/*--------------------------------*- C++ -*----------------------------------*\
  =========                 |
  \\      /  F ield         | OpenFOAM: The Open Source CFD Toolbox
   \\    /   O peration     | Website:  https://openfoam.org
    \\  /    A nd           | Version:  7
     \\/     M anipulation  |
\*---------------------------------------------------------------------------*/
FoamFile
{
    version     2.0;
    format      ascii;
    class       surfaceScalarField;
    location    "5.9";
    object      phi;
}
// * * * * * * * * * * * * * * * * * * * * * * * * * * * * * * * * * * * * * //

dimensions      [0 3 -1 0 0 0 0];

internalField   nonuniform List<scalar> 
63520
(
-1.04379e-06
-9.24321e-06
1.0287e-05
-3.87215e-06
8.3198e-05
-8.03695e-05
-8.07267e-06
0.000265766
-0.000261566
-1.29426e-05
0.000508788
-0.000503919
-1.76871e-05
0.000793291
-0.000788547
-2.15057e-05
0.00110661
-0.0011028
-2.36314e-05
0.00143966
-0.00143754
-2.33684e-05
0.00178578
-0.00178604
-2.00992e-05
0.00213999
-0.00214326
-1.33033e-05
0.00249862
-0.00250542
-2.55308e-06
0.00285873
-0.00286948
1.25004e-05
0.00321791
-0.00323296
3.21162e-05
0.00357414
-0.00359375
5.64743e-05
0.00392557
-0.00394993
8.56933e-05
0.00427051
-0.00429973
0.000119832
0.00460735
-0.00464149
0.000158896
0.00493455
-0.00497362
0.000202848
0.00525067
-0.00529463
0.00025162
0.00555435
-0.00560312
0.000305109
0.00584431
-0.0058978
0.000363189
0.00611941
-0.00617749
0.00042571
0.00637867
-0.00644119
0.000492509
0.0066212
-0.006688
0.000563413
0.00684632
-0.00691722
0.00063824
0.00705346
-0.00712829
0.000716797
0.00724225
-0.00732081
0.000798897
0.00741245
-0.00749455
0.000884351
0.00756398
-0.00764944
0.000972975
0.00769688
-0.0077855
0.00106459
0.00781132
-0.00790293
0.00115901
0.00790757
-0.008002
0.00125608
0.00798599
-0.00808306
0.00135564
0.008047
-0.00814656
0.00145752
0.00809106
-0.00819295
0.00156157
0.00811867
-0.00822272
0.0016676
0.00813032
-0.00823634
0.00177538
0.00812647
-0.00823426
0.00188467
0.0081075
-0.00821679
0.00199505
0.00807491
-0.00818529
0.00803078
0.00210601
-0.00814173
-1.71157e-06
-7.53169e-06
-5.99537e-06
8.74815e-05
-1.22442e-05
0.000272015
-1.96481e-05
0.000516192
-2.73255e-05
0.000800968
-3.44008e-05
0.00111369
-4.00439e-05
0.0014453
-4.35257e-05
0.00178926
-4.42138e-05
0.00214068
-4.15482e-05
0.00249596
-3.50679e-05
0.00285225
-2.44018e-05
0.00320724
-9.26064e-06
0.00355899
1.05649e-05
0.00390574
3.52126e-05
0.00424586
6.47594e-05
0.0045778
9.92367e-05
0.00490008
0.000138635
0.00521128
0.000182906
0.00551007
0.000231967
0.00579524
0.000285709
0.00606567
0.000344002
0.00632037
0.000406701
0.00655851
0.000473644
0.00677938
0.000544664
0.00698244
0.000619587
0.00716733
0.000698234
0.00733381
0.000780425
0.00748179
0.000865976
0.00761133
0.000954711
0.00772259
0.00104645
0.00781583
0.00114103
0.00789142
0.00123826
0.00794977
0.00133797
0.00799135
0.00143997
0.00801668
0.00154402
0.00802626
0.00164988
0.00802061
0.00175722
0.00800016
0.0018656
0.00796653
0.00792195
0.00197443
-2.32547e-06
-5.20629e-06
-7.97385e-06
9.31298e-05
-1.61738e-05
0.000280215
-2.59746e-05
0.000525993
-3.63935e-05
0.000811387
-4.65031e-05
0.0011238
-5.54416e-05
0.00145424
-6.2434e-05
0.00179625
-6.6818e-05
0.00214506
-6.80027e-05
0.00249714
-6.55068e-05
0.00284975
-5.89371e-05
0.00320067
-4.79795e-05
0.00354804
-3.24036e-05
0.00389017
-1.2045e-05
0.0042255
1.32019e-05
0.00455255
4.33878e-05
0.00486989
7.85193e-05
0.00517614
0.000118566
0.00547003
0.000163466
0.00575034
0.000213127
0.00601601
0.000267437
0.00626606
0.000326267
0.00649968
0.000389472
0.00671617
0.000456898
0.00691502
0.000528377
0.00709585
0.000603742
0.00725844
0.000682821
0.00740271
0.00076544
0.00752871
0.000851423
0.0076366
0.000940589
0.00772667
0.00103276
0.00779925
0.00112774
0.00785479
0.00122532
0.00789377
0.0013253
0.00791671
0.00142739
0.00792416
0.00153131
0.0079167
0.00163666
0.00789481
0.00174296
0.00786023
0.00781536
0.00184955
-2.87915e-06
-2.32723e-06
-9.84871e-06
0.000100099
-1.99032e-05
0.000290269
-3.19588e-05
0.000538048
-4.49518e-05
0.00082438
-5.78939e-05
0.00113674
-6.98832e-05
0.00146623
-8.01165e-05
0.00180648
-8.79098e-05
0.00215285
-9.26486e-05
0.00250188
-9.38233e-05
0.00285093
-9.1023e-05
0.00319787
-8.39156e-05
0.00354093
-7.22443e-05
0.0038785
-5.58246e-05
0.00420908
-3.45347e-05
0.00453126
-8.30369e-06
0.00484366
2.28968e-05
0.00514494
5.90524e-05
0.00543387
0.000100114
0.00570928
0.000146009
0.00597012
0.00019664
0.00621543
0.000251893
0.00644442
0.000311633
0.00665643
0.000375718
0.00685093
0.000443997
0.00702757
0.00051631
0.00718613
0.000592494
0.00732653
0.00067238
0.00744882
0.000755792
0.00755319
0.00084255
0.00763991
0.000932463
0.00770934
0.00102533
0.00776192
0.00112092
0.00779818
0.00121898
0.00781864
0.00131921
0.00782393
0.00142126
0.00781465
0.00152469
0.00779139
0.00162894
0.00775598
0.00771098
0.00173332
-3.40223e-06
1.07493e-06
-1.15977e-05
0.000108295
-2.33817e-05
0.000302053
-3.75299e-05
0.000552196
-5.28893e-05
0.000839739
-6.84209e-05
0.00115227
-8.31983e-05
0.00148101
-9.63899e-05
0.00181967
-0.000107278
0.00216374
-0.00011524
0.00250984
-0.000119749
0.00285543
-0.000120369
0.00319849
-0.000116749
0.00353731
-0.000108619
0.00387036
-9.57736e-05
0.00419624
-7.807e-05
0.00451356
-5.54194e-05
0.00482101
-2.7781e-05
0.00511731
4.84589e-06
0.00540125
4.24295e-05
0.0056717
8.49099e-05
0.00592764
0.000132204
0.00616814
0.000184207
0.00639242
0.000240802
0.00659983
0.000301857
0.00678988
0.00036723
0.0069622
0.000436772
0.00711659
0.000510329
0.00725297
0.000587737
0.00737142
0.000668825
0.0074721
0.000753409
0.00755532
0.000841293
0.00762145
0.000932261
0.00767096
0.00102606
0.00770437
0.00112242
0.00772229
0.00122099
0.00772536
0.00132136
0.00771428
0.00142305
0.0076897
0.00152544
0.00765359
0.00760864
0.00162778
-3.87462e-06
4.94941e-06
-1.32128e-05
0.000117633
-2.65907e-05
0.000315431
-4.26513e-05
0.000568257
-6.01654e-05
0.000857253
-7.80419e-05
0.00117015
-9.5326e-05
0.00149829
-0.000111168
0.00183551
-0.000124827
0.0021774
-0.000135668
0.00252068
-0.000143145
0.00286291
-0.000146808
0.00320215
-0.000146293
0.00353679
-0.000141308
0.00386538
-0.000131632
0.00418656
-0.000117108
0.00449904
-9.76317e-05
0.00480153
-7.31475e-05
0.00509282
-4.36413e-05
0.00537174
-9.13308e-06
0.00563719
3.03298e-05
0.00588817
7.46763e-05
0.00612379
0.000123814
0.00634328
0.000177637
0.00654601
0.000236023
0.00673149
0.000298843
0.00689938
0.000365958
0.00704947
0.00043722
0.00718171
0.000512475
0.00729616
0.000591554
0.00739303
0.000674275
0.0074726
0.000760438
0.00753529
0.000849813
0.00758158
0.000942136
0.00761205
0.00103709
0.00762733
0.00113431
0.00762815
0.00123332
0.00761526
0.00133359
0.00758943
0.00143444
0.00755274
0.00750803
0.00153505
-4.30906e-06
9.25844e-06
-1.46874e-05
0.000128011
-2.95089e-05
0.000330252
-4.72877e-05
0.000586036
-6.67201e-05
0.000876685
-8.66722e-05
0.0011901
-0.000106164
0.00151778
-0.000124327
0.00185368
-0.000140405
0.00219348
-0.000153749
0.00253403
-0.000163805
0.00287297
-0.000170108
0.00320846
-0.000172277
0.00353896
-0.000170009
0.00386311
-0.000163068
0.00417962
-0.000151281
0.00448725
-0.000134532
0.00478478
-0.000112754
0.00507104
-8.59217e-05
0.00534491
-5.40429e-05
0.00560531
-1.71537e-05
0.00585128
2.46851e-05
0.00608195
7.1391e-05
0.00629658
0.000122867
0.00649454
0.000179004
0.00667536
0.000239681
0.0068387
0.000304772
0.00698438
0.000374139
0.00711234
0.000447632
0.00722267
0.000525092
0.00731557
0.000606339
0.00739135
0.000691171
0.00745046
0.000779351
0.0074934
0.000870598
0.0075208
0.000964572
0.00753336
0.00106086
0.00753186
0.00115896
0.00751716
0.00125827
0.00749012
0.00135806
0.00745295
0.00740867
0.00145741
-4.70467e-06
1.39631e-05
-1.6016e-05
0.000139322
-3.21164e-05
0.000346352
-5.14013e-05
0.00060532
-7.25015e-05
0.000897785
-9.42429e-05
0.00121184
-0.000115619
0.00153916
-0.000135751
0.00187381
-0.000153871
0.0022116
-0.000169321
0.00254948
-0.000181537
0.00288518
-0.000190043
0.00321696
-0.000194448
0.00354337
-0.000194435
0.0038631
-0.000189757
0.00417494
-0.000180228
0.00447772
-0.000165721
0.00477028
-0.000146161
0.00505148
-0.00012151
0.00532026
-9.17672e-05
0.00557557
-5.69586e-05
0.00581648
-1.71381e-05
0.00604213
2.76223e-05
0.00625182
7.72349e-05
0.00644492
0.000131601
0.00662099
0.000190611
0.00677969
0.000254148
0.00692084
0.000322084
0.00704441
0.000394281
0.00715047
0.000470589
0.00723926
0.000550834
0.00731111
0.000634815
0.00736648
0.000722293
0.00740593
0.000812973
0.00743012
0.000906498
0.00743983
0.00100242
0.00743594
0.0011002
0.00741938
0.00119916
0.00739115
0.00129852
0.0073536
0.00730992
0.00139727
-5.05992e-06
1.9023e-05
-1.71895e-05
0.000151452
-3.43956e-05
0.000363559
-5.49642e-05
0.000625889
-7.74662e-05
0.000920287
-0.000100692
0.00123507
-0.000123613
0.00156208
-0.000145341
0.00189554
-0.000165104
0.00223136
-0.000182235
0.00256661
-0.000196165
0.00289911
-0.00020641
0.00322721
-0.000212569
0.00354953
-0.000214316
0.00386484
-0.000211392
0.00417202
-0.000203603
0.00446993
-0.000190814
0.00475749
-0.000172939
0.00503361
-0.000149932
0.00529725
-0.000121782
0.00554742
-8.85101e-05
0.0057832
-5.0163e-05
0.00600379
-6.80343e-06
0.00620846
4.14901e-05
0.00639663
9.46275e-05
0.00656785
0.00015251
0.00672181
0.000215032
0.00685832
0.000282079
0.00697736
0.000353524
0.00707903
0.000429229
0.00716355
0.000509029
0.00723131
0.000592732
0.00728277
0.000680099
0.00731856
0.000770833
0.00733939
0.000864559
0.00734611
0.000960805
0.00733969
0.00105898
0.00732121
0.00115838
0.00729176
0.00125811
0.00725387
0.00721093
0.0013571
-5.37241e-06
2.43954e-05
-1.82009e-05
0.00016428
-3.63322e-05
0.00038169
-5.79538e-05
0.00064751
-8.15798e-05
0.000943913
-0.00010597
0.00125946
-0.000130079
0.00158619
-0.000153014
0.00191847
-0.000173997
0.00225234
-0.000192361
0.00258497
-0.000207533
0.00291428
-0.000219023
0.0032387
-0.000226424
0.00355693
-0.0002294
0.00386782
-0.000227687
0.00417031
-0.000221083
0.00446333
-0.000209444
0.00474585
-0.000192675
0.00501684
-0.000170726
0.0052753
-0.000143578
0.00552027
-0.000111246
0.00575087
-7.37696e-05
0.00596631
-3.12054e-05
0.00616589
1.63758e-05
0.00634905
6.88942e-05
0.00651533
0.000126262
0.00666444
0.000188385
0.0067962
0.000255161
0.00691058
0.000326478
0.00700771
0.000402214
0.00708782
0.000482218
0.0071513
0.000566311
0.00719868
0.000654261
0.00723061
0.000745775
0.00724787
0.000840473
0.00725141
0.000937862
0.0072423
0.00103732
0.00722175
0.00113807
0.007191
0.00123916
0.00715277
0.00711069
0.0013394
-5.63867e-06
3.0034e-05
-1.90449e-05
0.000177687
-3.79168e-05
0.000400562
-6.03524e-05
0.000669946
-8.48156e-05
0.000968376
-0.00011004
0.00128468
-0.000134968
0.00161112
-0.000158701
0.0019422
-0.000180465
0.00227411
-0.000199594
0.0026041
-0.00021551
0.0029302
-0.000227723
0.00325091
-0.000235821
0.00356503
-0.000239466
0.00387147
-0.000238384
0.00416923
-0.000232368
0.00445731
-0.000221269
0.00473475
-0.000204986
0.00500056
-0.00018346
0.00525377
-0.000156668
0.00549348
-0.000124623
0.00571883
-8.73568e-05
0.00592904
-4.49198e-05
0.00612346
2.62544e-06
0.0063015
5.52064e-05
0.00646275
0.000112746
0.0066069
0.000175161
0.00673378
0.000242367
0.00684338
0.000314267
0.00693581
0.000390756
0.00701133
0.000471704
0.00707036
0.00055695
0.00711344
0.00064628
0.00714128
0.000739411
0.00715474
0.000835965
0.00715486
0.000935441
0.00714282
0.00103719
0.00712
0.00114038
0.00708781
0.00124398
0.00704918
0.007008
0.00134667
-5.85798e-06
3.5892e-05
-1.97179e-05
0.000191546
-3.91424e-05
0.000419986
-6.21509e-05
0.000692954
-8.71591e-05
0.000993384
-0.000112879
0.0013104
-0.000138243
0.00163648
-0.000162357
0.00196632
-0.000184446
0.0022962
-0.000203848
0.0026235
-0.000219988
0.00294634
-0.000232378
0.0032633
-0.000240603
0.00357325
-0.000244321
0.00387518
-0.000243255
0.00416816
-0.000237196
0.00445125
-0.000225986
0.00472354
-0.000209519
0.00498409
-0.000187732
0.00523199
-0.000160601
0.00546635
-0.000128132
0.00568636
-9.03521e-05
0.00589126
-4.73074e-05
0.00608041
9.45587e-07
0.00625325
5.43433e-05
0.00640935
0.000112819
0.00654842
0.000176302
0.0066703
0.000244722
0.00677496
0.000318003
0.00686253
0.000396059
0.00693327
0.000478785
0.00698763
0.000566044
0.00702618
0.000657647
0.00704968
0.000753333
0.00705906
0.000852739
0.00705545
0.000955364
0.0070402
0.00106054
0.00701482
0.00116739
0.00698096
0.0012748
0.00694177
0.0069015
0.0013813
-6.02826e-06
4.19202e-05
-2.02185e-05
0.000205737
-4.00093e-05
0.000439777
-6.33466e-05
0.000716291
-8.86039e-05
0.00101864
-0.000114476
0.00133627
-0.00013989
0.00166189
-0.000163953
0.00199038
-0.000185898
0.00231814
-0.000205069
0.00264267
-0.000220895
0.00296217
-0.000232891
0.0032753
-0.000240644
0.003581
-0.000243812
0.00387835
-0.000242115
0.00416646
-0.00023534
0.00444448
-0.000223326
0.00471153
-0.000205963
0.00496673
-0.000183184
0.00520921
-0.000154963
0.00543813
-0.000121301
0.0056527
-8.22241e-05
0.00585219
-3.77712e-05
0.00603596
1.20064e-05
0.00620347
6.70519e-05
0.00635431
0.000127308
0.00648817
0.000192716
0.00660489
0.000263222
0.00670445
0.00033877
0.00678698
0.000419297
0.00685275
0.000504727
0.0069022
0.000594953
0.00693595
0.000689818
0.00695481
0.000789094
0.00695978
0.000892443
0.0069521
0.00099938
0.00693326
0.00110923
0.00690497
0.00122108
0.00686911
0.00133373
0.00682912
0.00678967
0.00144556
-6.14966e-06
4.80698e-05
-2.05486e-05
0.000220136
-4.05204e-05
0.000459748
-6.39448e-05
0.000739716
-8.9157e-05
0.00104385
-0.000114837
0.00136195
-0.00013991
0.00168697
-0.000163487
0.00201396
-0.000184809
0.00233947
-0.00020323
0.00266109
-0.000218187
0.00297712
-0.0002292
0.00328631
-0.000235861
0.00358766
-0.000237827
0.00388032
-0.00023482
0.00416346
-0.000226624
0.00443628
-0.000213075
0.00469798
-0.000194059
0.00494771
-0.000169508
0.00518466
-0.000139395
0.00540801
-0.000103716
0.00561702
-6.24944e-05
0.00581096
-1.5766e-05
0.00598923
3.64228e-05
0.00615128
9.40219e-05
0.00629671
0.000156982
0.00642521
0.000225257
0.00653662
0.000298809
0.0066309
0.0003776
0.00670819
0.000461594
0.00676875
0.000550744
0.00681305
0.000644979
0.00684172
0.000744184
0.00685561
0.00084817
0.0068558
0.000956638
0.00684364
0.00106914
0.00682076
0.001185
0.00678911
0.00130328
0.00675082
0.0014227
0.0067097
0.0066709
0.00154148
-6.223e-06
5.42927e-05
-2.07124e-05
0.000234625
-4.06851e-05
0.000479721
-6.3959e-05
0.00076299
-8.88359e-05
0.00106873
-0.000113983
0.0013871
-0.000138324
0.00171131
-0.000160976
0.00203661
-0.000181193
0.00235968
-0.000198337
0.00267823
-0.000211858
0.00299064
-0.000221284
0.00329574
-0.000226212
0.00359259
-0.000226302
0.00388041
-0.000221278
0.00415843
-0.000210923
0.00442593
-0.000195071
0.00468212
-0.000173607
0.00492625
-0.000146461
0.00515751
-0.000113603
0.00537516
-7.50279e-05
0.00557844
-3.07558e-05
0.00576669
1.91803e-05
0.00593929
7.47369e-05
0.00609573
0.00013587
0.00623558
0.000202537
0.00635854
0.000274704
0.00646445
0.000352345
0.00655326
0.000435443
0.00662509
0.000523986
0.00668021
0.00061796
0.00671908
0.000717331
0.00674235
0.000822031
0.00675091
0.000931919
0.00674591
0.00104675
0.0067288
0.00116612
0.00670139
0.00128939
0.00666585
0.0014156
0.00662461
0.0015434
0.0065819
0.00654347
0.00167082
-6.25017e-06
6.05428e-05
-2.07169e-05
0.000249092
-4.05169e-05
0.000499521
-6.34109e-05
0.000785883
-8.76702e-05
0.00109299
-0.000111949
0.00141138
-0.000135173
0.00173453
-0.000156466
0.0020579
-0.000175093
0.00237831
-0.000190431
0.00269357
-0.000201942
0.00300216
-0.000209165
0.00330296
-0.000211703
0.00359513
-0.000209224
0.00387793
-0.000201454
0.00415066
-0.000188175
0.00441265
-0.000169221
0.00466317
-0.000144476
0.0049015
-0.000113871
0.00512691
-7.73703e-05
0.00533865
-3.49696e-05
0.00553604
1.33144e-05
0.00571841
6.74493e-05
0.00588516
0.000127396
0.00603578
0.000193114
0.00616986
0.000264567
0.00628709
0.000341728
0.00638729
0.000424583
0.0064704
0.000513135
0.00653654
0.000607392
0.00658595
0.000707373
0.0066191
0.000813082
0.00663664
0.0009245
0.00663949
0.00104154
0.00662886
0.00116404
0.00660631
0.00129162
0.0065738
0.00142372
0.00653375
0.00155938
0.00648895
0.00169718
0.00644409
0.00640566
0.001835
-6.23423e-06
6.6777e-05
-2.05717e-05
0.000263429
-4.00349e-05
0.000518984
-6.23303e-05
0.000808179
-8.57009e-05
0.00111636
-0.000108788
0.00143447
-0.000130518
0.00175626
-0.000150024
0.0020774
-0.000166583
0.00239487
-0.000179586
0.00270658
-0.000188511
0.00301108
-0.00019291
0.00330736
-0.000192394
0.00359462
-0.000186639
0.00387217
-0.000175375
0.0041394
-0.000158385
0.00439566
-0.000135505
0.00464029
-0.000106618
0.00487262
-7.16533e-05
0.00509194
-3.05737e-05
0.00529757
1.66268e-05
0.00548884
6.99325e-05
0.0056651
0.000129313
0.00582578
0.000194731
0.00597036
0.000266147
0.00609844
0.00034353
0.00620971
0.000426859
0.00630396
0.000516128
0.00638113
0.000611353
0.00644131
0.000712565
0.00648474
0.000819806
0.00651185
0.000933122
0.00652332
0.00105254
0.00652007
0.00117804
0.00650336
0.00130951
0.00647484
0.00144669
0.00643663
0.00158904
0.0063914
0.00173565
0.00634234
0.00188507
0.00629467
0.00625573
0.00203499
-6.17906e-06
7.2956e-05
-2.02889e-05
0.000277539
-3.92625e-05
0.000537957
-6.07546e-05
0.000829671
-8.298e-05
0.00113859
-0.000104567
0.00145605
-0.000124441
0.00177614
-0.000141742
0.00209471
-0.000155764
0.00240889
-0.000165912
0.00271672
-0.000171681
0.00301685
-0.000172634
0.00330831
-0.000168398
0.00359038
-0.000158653
0.00386243
-0.000143136
0.00412388
-0.000121635
0.00437416
-9.39855e-05
0.00461264
-6.00717e-05
0.0048387
-1.98205e-05
0.00505169
2.68059e-05
0.00525095
7.98152e-05
0.00543583
0.000139192
0.00560572
0.000204908
0.00576006
0.000276926
0.00589834
0.000355207
0.00602016
0.000439721
0.00612519
0.00053045
0.00621323
0.000627395
0.00628419
0.000730578
0.00633813
0.000840046
0.00637527
0.000955862
0.00639604
0.0010781
0.00640108
0.00120685
0.00639133
0.00134213
0.00636808
0.00148392
0.00633305
0.00163203
0.00628852
0.00178603
0.0062374
0.00194505
0.00618332
0.00210764
0.00613209
0.00609205
0.00227132
-6.08931e-06
7.90452e-05
-1.98828e-05
0.000291332
-3.82278e-05
0.000556302
-5.87283e-05
0.000850171
-7.95696e-05
0.00115943
-9.93647e-05
0.00147585
-0.000117038
0.00179381
-0.000131738
0.00210941
-0.00014277
0.00241992
-0.000149555
0.00272351
-0.000151607
0.0030189
-0.000148503
0.00330521
-0.000139882
0.00358176
-0.000125436
0.00384798
-0.000104907
0.00410335
-7.80874e-05
0.00434734
-4.48154e-05
0.00457937
-4.97583e-06
0.00479886
4.15054e-05
0.00500521
9.46671e-05
0.00519779
0.000154518
0.00537598
0.000221044
0.0055392
0.000294216
0.00568689
0.000373997
0.00581856
0.000460347
0.00593381
0.000553235
0.0060323
0.000652642
0.00611382
0.000758568
0.00617826
0.000871041
0.00622566
0.000990112
0.0062562
0.00111586
0.00627029
0.00124838
0.00626855
0.0013878
0.00625191
0.00153421
0.00622167
0.00168764
0.00617962
0.00184801
0.00612814
0.00201499
0.00607043
0.00218779
0.00601052
0.00236498
0.0059549
0.00591307
0.00254395
-5.97024e-06
8.50154e-05
-1.93693e-05
0.000304731
-3.69624e-05
0.000573895
-5.63019e-05
0.000869511
-7.55411e-05
0.00117867
-9.32757e-05
0.00149358
-0.000108428
0.00180896
-0.000120149
0.00212113
-0.000127759
0.00242753
-0.000130696
0.00272645
-0.000128489
0.00301669
-0.000120731
0.00329745
-0.000107076
0.0035681
-8.72255e-05
0.00382813
-6.09308e-05
0.00407706
-2.79895e-05
0.0043144
1.17569e-05
0.00453962
5.84228e-05
0.0047522
0.000112083
0.00495155
0.000172776
0.00513709
0.000240512
0.00530824
0.000315277
0.00546443
0.000397042
0.00560512
0.000485767
0.00572984
0.00058141
0.00583817
0.000683936
0.00592978
0.00079332
0.00600444
0.000909561
0.00606202
0.00103268
0.00610254
0.00116272
0.00612616
0.00129978
0.00613323
0.00144396
0.00612437
0.00159541
0.00610047
0.00175426
0.00606282
0.00192064
0.00601324
0.00209454
0.00595424
0.00227574
0.00588923
0.00246357
0.00582269
0.00265665
0.00576183
0.00571744
0.00285228
-5.82753e-06
9.08427e-05
-1.87662e-05
0.000317669
-3.55011e-05
0.00059063
-5.35307e-05
0.00088754
-7.09733e-05
0.00119611
-8.64042e-05
0.00150901
-9.87394e-05
0.0018213
-0.000107134
0.00212952
-0.000110919
0.00243132
-0.000109548
0.00272508
-0.000102564
0.00300971
-8.95801e-05
0.00328447
-7.02622e-05
0.00354878
-4.4325e-05
0.0038022
-1.15287e-05
0.00404426
2.83222e-05
0.00427454
7.53823e-05
0.00449256
0.000129764
0.00469781
0.000191542
0.00488977
0.000260755
0.00506788
0.000337414
0.00523159
0.000421504
0.00538034
0.000512994
0.00551363
0.000611841
0.00563099
0.000717999
0.00573201
0.000831426
0.00581635
0.000952088
0.00588378
0.00107997
0.00593414
0.00121509
0.00596742
0.00135747
0.00598377
0.00150721
0.0059835
0.00166441
0.00596717
0.00182922
0.00593565
0.00200183
0.00589021
0.0021824
0.00583268
0.00237101
0.00576562
0.00256757
0.00569267
0.00277154
0.00561872
0.00298161
0.00555175
0.00550398
0.00319507
-5.66707e-06
9.65096e-05
-1.80921e-05
0.000330094
-3.38808e-05
0.000606419
-5.0474e-05
0.000904133
-6.5951e-05
0.00121159
-7.88633e-05
0.00152193
-8.81174e-05
0.00183055
-9.28688e-05
0.00213427
-9.24573e-05
0.00243091
-8.63504e-05
0.00271897
-7.41076e-05
0.00299747
-5.53565e-05
0.00326572
-2.9779e-05
0.00352321
2.89711e-06
0.00376952
4.29016e-05
0.00400426
9.04228e-05
0.00422702
0.000145609
0.00443737
0.000208571
0.00463485
0.000279382
0.00481896
0.000358079
0.00498918
0.000444673
0.00514499
0.000539148
0.00528587
0.000641471
0.00541131
0.000751593
0.00552087
0.00086946
0.00561414
0.00099502
0.00569079
0.00112823
0.00575057
0.00126905
0.00579331
0.00141748
0.00581899
0.00157355
0.00582771
0.00173729
0.00581975
0.00190883
0.00579564
0.0020883
0.00575618
0.0022759
0.00570262
0.00247183
0.00563675
0.00267625
0.0055612
0.00288919
0.00547973
0.00311022
0.00539768
0.0033382
0.00532377
0.00527178
0.0035704
-5.49473e-06
0.000102004
-1.73664e-05
0.000341966
-3.21398e-05
0.000621192
-4.71933e-05
0.000919187
-6.05629e-05
0.00122496
-7.07724e-05
0.00153213
-7.67142e-05
0.00183649
-7.7542e-05
0.0021351
-7.26007e-05
0.00242596
-6.13706e-05
0.00270774
-4.34254e-05
0.00297952
-1.84075e-05
0.0032407
1.39855e-05
0.00349081
5.4012e-05
0.00372949
0.000101891
0.00395638
0.000157802
0.00417111
0.000221887
0.00437329
0.000294253
0.00456249
0.000374969
0.00473824
0.000464072
0.00490008
0.00056157
0.00504749
0.000667445
0.00517999
0.000781658
0.0052971
0.000904154
0.00539837
0.00103487
0.00548342
0.00117374
0.00555192
0.0013207
0.00560361
0.00147569
0.00563832
0.00163869
0.00565599
0.00180969
0.00565671
0.0019887
0.00564073
0.00217582
0.00560852
0.00237115
0.00556085
0.00257488
0.00549888
0.00278725
0.00542439
0.00300846
0.00533999
0.00323863
0.00524956
0.0034775
0.00515881
0.00372408
0.0050772
0.00502017
0.00397569
-5.3163e-06
0.00010732
-1.66087e-05
0.000353258
-3.03165e-05
0.0006349
-4.37504e-05
0.000932621
-5.48989e-05
0.0012361
-6.22535e-05
0.00153949
-6.46877e-05
0.00183893
-6.13503e-05
0.00213176
-5.15887e-05
0.0024162
-3.48925e-05
0.00269104
-1.08483e-05
0.00295548
2.08869e-05
0.00320896
6.06011e-05
0.0034511
0.000108538
0.00368156
0.000164905
0.00390001
0.000229872
0.00410614
0.000303573
0.00429959
0.000386108
0.00447995
0.000477543
0.00464681
0.000577911
0.00479971
0.000687217
0.00493819
0.000805436
0.00506177
0.000932524
0.00517001
0.00106842
0.00526248
0.00121303
0.00533881
0.0013663
0.00539866
0.00152812
0.00544179
0.00169842
0.00546802
0.00187713
0.00547728
0.0020642
0.00546964
0.00225963
0.00544531
0.00246343
0.00540472
0.00267571
0.00534857
0.0028966
0.00527799
0.00312634
0.00519465
0.00336516
0.00510116
0.00361328
0.00500145
0.00387057
0.00490152
0.0041362
0.00481156
0.00474874
0.00440763
-5.13741e-06
0.000112458
-1.58378e-05
0.000363958
-2.84478e-05
0.00064751
-4.0206e-05
0.000944379
-4.90476e-05
0.00124495
-5.34278e-05
0.00154387
-5.21963e-05
0.0018377
-4.44937e-05
0.00212406
-2.96666e-05
0.00240138
-7.21077e-06
0.00266859
2.32762e-05
0.00292499
6.21237e-05
0.00317012
0.000109606
0.00340362
0.000165952
0.00362521
0.000231356
0.00383461
0.000305978
0.00403152
0.000389942
0.00421562
0.00048334
0.00438655
0.000586231
0.00454392
0.000698644
0.0046873
0.000820574
0.00481626
0.000951992
0.00493035
0.00109284
0.00502916
0.00124305
0.00511228
0.00140251
0.00517934
0.00157113
0.00523004
0.0017488
0.00526412
0.00193539
0.00528142
0.00213081
0.00528186
0.00233496
0.00526549
0.00254778
0.00523249
0.00276924
0.00518326
0.00299937
0.00511844
0.00323829
0.00503907
0.00348617
0.00494677
0.00374328
0.00484405
0.00400987
0.00473486
0.00428595
0.00462543
0.00457089
0.00452663
0.00445733
0.00486229
-4.96344e-06
0.000117421
-1.50711e-05
0.000374066
-2.65686e-05
0.000659007
-3.66171e-05
0.000954427
-4.30934e-05
0.00125142
-4.44116e-05
0.00154519
-3.93938e-05
0.00183268
-2.71683e-05
0.00211184
-7.07805e-06
0.00238129
2.13785e-05
0.00264013
5.85949e-05
0.00288777
0.000104888
0.00312382
0.000160519
0.00334799
0.000225702
0.00356003
0.00030062
0.00375969
0.000385417
0.00394673
0.000480209
0.00412083
0.000585076
0.00428169
0.000700068
0.00442892
0.000825204
0.00456216
0.000960471
0.00468099
0.00110583
0.004785
0.00126121
0.00487378
0.00142651
0.00494697
0.00160163
0.00500422
0.00178643
0.00504524
0.00198076
0.00506979
0.00218449
0.0050777
0.00239744
0.00506891
0.00261948
0.00504345
0.00285048
0.00500149
0.00309036
0.00494338
0.00333907
0.00486972
0.00359666
0.00478148
0.00386327
0.00468017
0.00413913
0.00456819
0.00442452
0.00444947
0.00471959
0.00433036
0.00502386
0.00422236
0.00414604
0.00533515
-4.79938e-06
0.00012222
-1.43243e-05
0.000383591
-2.47101e-05
0.000669393
-3.30357e-05
0.000962753
-3.71133e-05
0.0012555
-3.53123e-05
0.00154339
-2.64238e-05
0.00182379
-9.55958e-06
0.00209497
1.59435e-05
0.00235578
5.05881e-05
0.00260548
9.4761e-05
0.0028436
0.000148768
0.00306982
0.000212857
0.0032839
0.000287231
0.00348565
0.000372055
0.00367487
0.000467461
0.00385132
0.000573551
0.00401474
0.000690393
0.00416484
0.000818024
0.00430129
0.00095645
0.00442373
0.00110565
0.00453179
0.00126556
0.00462509
0.00143609
0.00470325
0.00161714
0.00476592
0.00180856
0.0048128
0.00201019
0.00484361
0.00222184
0.00485813
0.00244333
0.00485622
0.00267444
0.0048378
0.00291498
0.00480291
0.00316474
0.00475172
0.00342358
0.00468455
0.00369136
0.00460194
0.00396806
0.00450478
0.00425374
0.00439449
0.0045486
0.00427334
0.00485293
0.00414514
0.00516695
0.00401635
0.00549037
0.00389893
0.00381519
0.00582122
-4.64955e-06
0.00012687
-1.36103e-05
0.000392551
-2.28987e-05
0.000678681
-2.95057e-05
0.00096936
-3.11736e-05
0.00125717
-2.62238e-05
0.00153844
-1.34142e-05
0.00181098
8.16395e-06
0.00207339
3.91844e-05
0.00232476
8.01514e-05
0.00256452
0.000131448
0.0027923
0.00019337
0.00300789
0.000266155
0.00321111
0.000349991
0.00340182
0.000445027
0.00357983
0.000551382
0.00374496
0.00066914
0.00389698
0.000798354
0.00403563
0.000939047
0.0041606
0.00109121
0.00427157
0.00125479
0.00436821
0.00142973
0.00445015
0.0016159
0.00451707
0.00181317
0.00456865
0.00202137
0.00460461
0.0022403
0.00462468
0.00246973
0.0046287
0.00270942
0.00461652
0.00295911
0.00458811
0.00321853
0.0045435
0.0034874
0.00448284
0.0037655
0.00440645
0.00405261
0.00431483
0.00434861
0.00420878
0.00465347
0.00408962
0.00496735
0.00395946
0.0052905
0.00382198
0.00562322
0.00368363
0.0059654
0.00355676
0.0034653
0.00631529
-4.51723e-06
0.000131387
-1.29393e-05
0.000400973
-2.11551e-05
0.000686897
-2.60615e-05
0.000974266
-2.53272e-05
0.00125643
-1.72227e-05
0.00153033
-4.71002e-07
0.00179423
2.58614e-05
0.00204706
6.24602e-05
0.00228816
0.000109834
0.00251714
0.000168364
0.00273378
0.000238338
0.00293792
0.000319982
0.00312947
0.000413471
0.00330833
0.000518939
0.00347436
0.000636486
0.00362742
0.000766178
0.00376729
0.000908051
0.00389376
0.00106211
0.00400654
0.00122832
0.00410536
0.00140661
0.00418991
0.0015969
0.00425987
0.00179904
0.00431494
0.00201285
0.00435484
0.00223814
0.00437932
0.00247465
0.00438817
0.00272213
0.00438122
0.00298027
0.00435839
0.00324874
0.00431964
0.0035272
0.00426503
0.00381531
0.00419473
0.00411274
0.00410902
0.00441919
0.00400838
0.00473443
0.00389354
0.00505836
0.00376569
0.00539102
0.0036268
0.00573266
0.00348034
0.00608362
0.00333267
0.00644393
0.00319645
0.00309711
0.00681212
-4.40447e-06
0.000135791
-1.23176e-05
0.000408887
-1.94923e-05
0.000694071
-2.27258e-05
0.000977499
-1.96102e-05
0.00125332
-8.3637e-06
0.00151909
1.23274e-05
0.00177354
4.34236e-05
0.00201597
8.56252e-05
0.00224596
0.000139446
0.00246332
0.000205266
0.00266795
0.00028337
0.00285982
0.000373969
0.00303887
0.000477227
0.00320507
0.00059326
0.00335833
0.00072215
0.00349853
0.000863942
0.0036255
0.00101865
0.00373905
0.00118626
0.00383894
0.0013667
0.00392492
0.0015599
0.00399671
0.00176572
0.00405405
0.00198399
0.00409666
0.00221451
0.00412432
0.00245702
0.00413681
0.00271125
0.00413394
0.00297686
0.00411561
0.00325349
0.00408175
0.00354076
0.00403237
0.00383825
0.00396755
0.00414552
0.00388746
0.00446215
0.00379239
0.00478774
0.00368279
0.00512196
0.00355932
0.00546459
0.00342306
0.00581559
0.0032758
0.00617515
0.00312078
0.00654363
0.00296419
0.00692124
0.00281884
0.00271158
0.00730677
-4.3119e-06
0.000140103
-1.17474e-05
0.000416322
-1.79151e-05
0.000700239
-1.95077e-05
0.000979092
-1.40402e-05
0.00124785
3.23455e-07
0.00150472
2.49348e-05
0.00174893
6.0782e-05
0.00198012
0.000108581
0.00219816
0.000168853
0.00240305
0.000241978
0.00259483
0.000328236
0.00277356
0.000427828
0.00293928
0.000540903
0.003092
0.00066756
0.00323167
0.000807859
0.00335823
0.000961825
0.00347153
0.00112945
0.00357142
0.00131068
0.00365771
0.00150544
0.00373016
0.0017136
0.00378855
0.00193501
0.00383264
0.00216946
0.00386222
0.00241669
0.00387708
0.00267643
0.00387707
0.00294833
0.00386204
0.00323201
0.00383193
0.00352704
0.00378672
0.00383297
0.00372644
0.00414929
0.00365123
0.00447548
0.00356127
0.00481102
0.00345686
0.00515539
0.00333842
0.00550814
0.00320657
0.00586893
0.00306227
0.00623761
0.00290712
0.0066143
0.00274409
0.00699937
0.00257912
0.00739318
0.00242502
0.00230992
0.00779485
-4.23877e-06
0.000144342
-1.12264e-05
0.000423309
-1.64196e-05
0.000705432
-1.64025e-05
0.000979075
-8.61375e-06
0.00124006
8.83771e-06
0.00148727
3.73418e-05
0.00172042
7.79137e-05
0.00193955
0.000131287
0.00214479
0.000197989
0.00233635
0.000278401
0.00251442
0.000372799