/*--------------------------------*- C++ -*----------------------------------*\
  =========                 |
  \\      /  F ield         | OpenFOAM: The Open Source CFD Toolbox
   \\    /   O peration     | Website:  https://openfoam.org
    \\  /    A nd           | Version:  7
     \\/     M anipulation  |
\*---------------------------------------------------------------------------*/
FoamFile
{
    version     2.0;
    format      ascii;
    class       volVectorField;
    location    "5.9";
    object      U;
}
// * * * * * * * * * * * * * * * * * * * * * * * * * * * * * * * * * * * * * //

dimensions      [0 1 -1 0 0 0 0];

internalField   nonuniform List<vector> 
32000
(
(-1.20828e-05 -0.000406165 -4.08435e-22)
(-0.00022772 0.00323593 0)
(-0.000648961 0.0105032 -3.64502e-21)
(-0.00114806 0.0202036 0)
(-0.00165433 0.0315804 3.79376e-21)
(-0.00209667 0.044128 0)
(-0.00242104 0.0574817 3.91813e-21)
(-0.00258537 0.0713736 -2.97872e-21)
(-0.0025569 0.0856043 7.53926e-25)
(-0.0023121 0.100024 9.89292e-25)
(-0.00183809 0.114514 -1.0258e-21)
(-0.00113254 0.128977 4.14158e-21)
(-0.00019915 0.143329 0)
(0.000955809 0.157495 -1.05269e-21)
(0.00232351 0.171405 1.05706e-21)
(0.00389241 0.184995 0)
(0.00564903 0.198202 5.35089e-21)
(0.00757826 0.210966 -1.07339e-21)
(0.00966396 0.223232 0)
(0.0118903 0.23495 2.17192e-21)
(0.0142418 0.246072 2.1775e-21)
(0.0167034 0.256558 0)
(0.0192608 0.266373 0)
(0.0219005 0.275488 0)
(0.0246093 0.283882 0)
(0.0273748 0.291538 0)
(0.030185 0.298447 0)
(0.0330295 0.304606 0)
(0.0358987 0.310017 -4.41305e-21)
(0.0387841 0.314685 0)
(0.0416778 0.318623 4.41532e-21)
(0.0445728 0.321843 0)
(0.047463 0.324364 0)
(0.0503427 0.326203 0)
(0.0532064 0.32738 -4.40303e-21)
(0.0560484 0.327914 -2.20688e-21)
(0.058863 0.327824 6.59945e-21)
(0.0616532 0.327123 1.26e-24)
(0.0644071 0.325867 4.38635e-21)
(0.0669859 0.324138 -4.77029e-25)
(-2.70199e-05 -0.00033513 0)
(-0.000411859 0.00340458 7.11755e-21)
(-0.00113717 0.0107219 1.82209e-21)
(-0.00201446 0.0204394 1.45204e-25)
(-0.00295231 0.0317985 -1.89646e-21)
(-0.00386052 0.0442945 0)
(-0.00467086 0.0575666 3.91639e-21)
(-0.00533266 0.0713521 -3.97036e-21)
(-0.0058071 0.0854547 0)
(-0.00606584 0.0997303 -8.12737e-21)
(-0.00609236 0.114063 0)
(-0.00588082 0.128358 -1.24212e-20)
(-0.00543217 0.142536 0)
(-0.00475013 0.156526 0)
(-0.00384148 0.17026 4.23662e-21)
(-0.00271645 0.183675 -4.2503e-21)
(-0.00138678 0.19671 -4.27875e-21)
(0.000134386 0.209308 0)
(0.00183242 0.221414 1.29514e-20)
(0.00369255 0.232977 -4.32375e-21)
(0.00570036 0.243953 6.85041e-24)
(0.00784177 0.254302 -1.30638e-20)
(0.0101032 0.263988 -8.73572e-21)
(0.0124714 0.272983 -4.38992e-21)
(0.0149336 0.281266 1.31491e-20)
(0.0174778 0.288819 -1.31896e-20)
(0.0200923 0.295635 1.32137e-20)
(0.0227663 0.301709 -1.75915e-20)
(0.0254896 0.307042 -4.39408e-21)
(0.0282529 0.311642 3.12374e-23)
(0.0310478 0.315518 -1.31816e-20)
(0.0338666 0.318684 -8.79575e-21)
(0.0367015 0.321158 1.76298e-20)
(0.0395456 0.322957 -1.7572e-20)
(0.0423916 0.324101 -4.37457e-21)
(0.0452323 0.32461 -1.75598e-20)
(0.0480598 0.324504 -2.86366e-24)
(0.0508746 0.323797 4.38071e-21)
(0.0536541 0.322553 -1.74086e-20)
(0.0562646 0.320854 -2.51658e-20)
(-4.26335e-05 -0.00026774 -1.63346e-21)
(-0.000593447 0.00356404 -3.55856e-21)
(-0.00161826 0.0109502 -1.63967e-20)
(-0.00286687 0.0206967 0)
(-0.0042238 0.0320453 1.8962e-21)
(-0.00558127 0.0444952 -1.92847e-21)
(-0.00686005 0.0576891 -2.3499e-20)
(-0.00800188 0.0713685 7.94163e-21)
(-0.0089601 0.0853425 -4.02091e-21)
(-0.00970114 0.0994703 2.43757e-20)
(-0.0102071 0.113641 8.20717e-21)
(-0.0104687 0.127764 4.14337e-21)
(-0.010484 0.141763 -1.66898e-20)
(-0.010255 0.155569 0)
(-0.00978652 0.169118 0)
(-0.00908651 0.182349 8.51982e-21)
(-0.008165 0.195203 2.44203e-23)
(-0.00703418 0.207624 -8.57774e-21)
(-0.00570749 0.219558 -8.62822e-21)
(-0.00419826 0.230957 -1.73084e-20)
(-0.00251975 0.241775 2.60653e-20)
(-0.000685378 0.251974 2.12791e-23)
(0.00129183 0.261519 -1.37074e-23)
(0.00339944 0.270382 8.73064e-21)
(0.00562511 0.278541 -1.75547e-20)
(0.00795678 0.285981 3.50817e-20)
(0.0103829 0.292691 0)
(0.0128924 0.298668 8.80205e-21)
(0.0154747 0.303914 8.80701e-21)
(0.0181203 0.308434 1.76283e-20)
(0.0208199 0.312239 3.12262e-23)
(0.0235646 0.315342 0)
(0.0263455 0.317761 8.81192e-21)
(0.0291543 0.319513 -8.72396e-21)
(0.0319823 0.32062 -8.72062e-21)
(0.0348197 0.321101 2.62948e-20)
(0.0376571 0.320978 -2.61074e-20)
(0.0404926 0.320269 1.7453e-20)
(0.043292 0.319039 -2.59759e-20)
(0.0459274 0.317376 9.97216e-21)
(-6.06349e-05 -0.000157534 1.30706e-20)
(-0.000780617 0.00381318 -1.4235e-20)
(-0.00210422 0.01128 2.91483e-20)
(-0.00371585 0.0210598 0)
(-0.00548035 0.0323974 1.13742e-20)
(-0.00727326 0.0447969 1.92825e-20)
(-0.00900316 0.0579055 3.91859e-21)
(-0.0106036 0.0714707 2.16396e-24)
(-0.0120235 0.0853085 1.20569e-20)
(-0.0132255 0.0992798 -4.06665e-21)
(-0.0141878 0.113279 2.05104e-20)
(-0.014899 0.127219 -2.48401e-20)
(-0.0153551 0.141028 2.50267e-20)
(-0.015556 0.154639 -8.4131e-21)
(-0.0155044 0.167993 8.44817e-21)
(-0.0152071 0.181029 -1.70088e-20)
(-0.0146731 0.19369 -2.56548e-20)
(-0.0139127 0.205922 8.57416e-21)
(-0.012938 0.217673 -8.63554e-21)
(-0.0117616 0.228896 2.59451e-20)
(-0.0103956 0.239545 -1.73632e-20)
(-0.00885247 0.249583 -1.73964e-20)
(-0.00714475 0.258976 0)
(-0.00528456 0.267695 0)
(-0.00328383 0.27572 -1.74942e-20)
(-0.00115416 0.283034 -1.75406e-20)
(0.00109303 0.289628 -1.75288e-20)
(0.00344646 0.295499 0)
(0.00589528 0.300647 0)
(0.00842934 0.305078 -3.51348e-20)
(0.0110387 0.308803 -7.68841e-23)
(0.0137136 0.311836 1.75619e-20)
(0.016444 0.314193 -1.7484e-20)
(0.0192201 0.315893 -1.75342e-20)
(0.0220313 0.316957 1.7491e-20)
(0.0248661 0.317408 0)
(0.0277131 0.317269 1.74286e-20)
(0.0305671 0.316559 -3.47039e-20)
(0.0333838 0.315349 3.46122e-20)
(0.0360399 0.313728 -3.99917e-20)
(-8.34846e-05 -3.80069e-05 -6.53548e-21)
(-0.000973929 0.00408454 1.06754e-20)
(-0.00259129 0.0116452 -1.45736e-20)
(-0.00455808 0.0214651 0)
(-0.00671687 0.0327938 -1.89575e-20)
(-0.00892798 0.0451429 -1.15698e-20)
(-0.0110899 0.0581657 1.56635e-20)
(-0.0131283 0.0716151 0)
(-0.0149873 0.0853121 -2.41142e-20)
(-0.0166263 0.0991229 -8.12869e-21)
(-0.0180211 0.112946 -8.19969e-21)
(-0.019158 0.126698 1.65675e-20)
(-0.0200306 0.140311 -1.66868e-20)
(-0.0206371 0.153722 8.3942e-21)
(-0.0209792 0.166872 0)
(-0.021062 0.179705 2.5523e-20)
(-0.0208929 0.192165 8.55952e-21)
(-0.0204814 0.204201 -1.71929e-20)
(-0.0198385 0.21576 3.44687e-20)
(-0.0189754 0.226797 -3.45868e-20)
(-0.0179033 0.237268 3.46528e-20)
(-0.0166344 0.247136 1.73963e-20)
(-0.0151804 0.256367 0)
(-0.0135529 0.264933 1.74932e-20)
(-0.0117632 0.272814 4.66111e-23)
(-0.00982289 0.279993 0)
(-0.00774323 0.286462 1.75288e-20)
(-0.00553563 0.292216 -1.75585e-20)
(-0.00321108 0.297257 1.74855e-20)
(-0.000780177 0.301591 3.50934e-20)
(0.00174644 0.305229 -3.50163e-20)
(0.004358 0.308183 3.49725e-20)
(0.00704361 0.310472 0)
(0.00979196 0.312115 0)
(0.0125907 0.313135 3.4825e-20)
(0.0154261 0.313554 0)
(0.0182849 0.313399 0)
(0.0211589 0.312692 -3.45629e-20)
(0.0239936 0.311506 3.44085e-20)
(0.0266699 0.309936 1.99697e-20)
(-0.000111675 0.000104802 3.26798e-21)
(-0.00117647 0.00440694 0)
(-0.00308421 0.0120727 2.91436e-20)
(-0.00539644 0.0219373 3.71994e-21)
(-0.00793611 0.033258 3.79119e-21)
(-0.0105487 0.0455545 2.31347e-20)
(-0.0131225 0.0584883 3.13215e-20)
(-0.0155765 0.0718176 0)
(-0.0178511 0.0853691 8.03931e-21)
(-0.0199029 0.0990137 2.43751e-20)
(-0.0217048 0.112654 3.28151e-20)
(-0.0232414 0.126213 -8.28311e-21)
(-0.0245049 0.139623 -2.50319e-20)
(-0.0254917 0.152825 0)
(-0.026202 0.165765 3.38145e-20)
(-0.0266398 0.178386 0)
(-0.0268118 0.190638 5.12791e-20)
(-0.0267262 0.202468 -1.71368e-20)
(-0.0263924 0.213827 0)
(-0.025821 0.22467 -1.73125e-20)
(-0.0250228 0.234954 -3.49644e-23)
(-0.0240088 0.244643 -1.73313e-20)
(-0.0227904 0.253703 -1.73789e-20)
(-0.0213784 0.262108 1.74729e-20)
(-0.019784 0.269836 -1.74272e-20)
(-0.0180183 0.276872 0)
(-0.0160925 0.283207 -1.7521e-20)
(-0.0140181 0.288837 1.74542e-20)
(-0.0118061 0.293763 0)
(-0.00946772 0.297992 0)
(-0.007014 0.301534 0)
(-0.00445651 0.304404 -3.49602e-20)
(-0.00180712 0.30662 3.47756e-20)
(0.000921298 0.308202 0)
(0.00371459 0.309173 -1.73839e-20)
(0.00655704 0.30956 0)
(0.00943308 0.30939 3.45946e-20)
(0.0123317 0.308689 -1.71262e-20)
(0.0151887 0.307533 -3.43765e-20)
(0.0178878 0.306021 3.96494e-20)
(-0.000146925 0.000263812 2.2877e-20)
(-0.00139021 0.00476491 -3.20249e-20)
(-0.00358336 0.0125461 -5.46412e-20)
(-0.00623125 0.022459 -2.97569e-20)
(-0.00913698 0.0337716 -7.58156e-21)
(-0.0121321 0.0460141 -1.54227e-20)
(-0.0150966 0.0588562 -7.04689e-20)
(-0.0179431 0.072062 -2.38108e-20)
(-0.0206084 0.0854639 -4.01753e-20)
(-0.0230466 0.0989384 -4.06238e-20)
(-0.0252291 0.112392 -5.743e-20)
(-0.0271387 0.125751 -3.31038e-20)
(-0.0287657 0.138953 1.33831e-24)
(-0.0301055 0.151942 -3.36007e-20)
(-0.0311572 0.164665 -3.38143e-20)
(-0.0319241 0.177069 -5.10184e-20)
(-0.0324115 0.189105 3.416e-20)
(-0.0326265 0.200723 -1.71323e-20)
(-0.0325778 0.211875 0)
(-0.0322752 0.222517 3.4543e-20)
(-0.0317286 0.232608 0)
(-0.0309486 0.24211 6.94531e-20)
(-0.0299456 0.250993 0)
(-0.0287303 0.259229 -1.74533e-20)
(-0.0273133 0.266797 1.74932e-20)
(-0.0257054 0.273683 -3.48388e-20)
(-0.0239177 0.279877 0)
(-0.0219617 0.285376 -3.49836e-20)
(-0.0198485 0.29018 3.48383e-20)
(-0.0175894 0.294298 0)
(-0.0151962 0.297739 0)
(-0.012681 0.300518 0)
(-0.0100567 0.302656 -3.46935e-20)
(-0.00733752 0.304173 0)
(-0.00453947 0.305094 -3.46534e-20)
(-0.00168041 0.305448 6.90103e-20)
(0.00122189 0.305264 -6.88121e-20)
(0.00415314 0.304574 3.41253e-20)
(0.00704069 0.303454 6.83583e-20)
(0.00976906 0.302008 -3.95021e-20)
(-0.000189971 0.000437795 -2.9413e-20)
(-0.00161699 0.00515657 1.72738e-24)
(-0.00409037 0.0130609 2.91409e-20)
(-0.00706268 0.023025 5.95104e-20)
(-0.0103186 0.0343297 -7.58085e-21)
(-0.0136766 0.0465164 -3.08423e-20)
(-0.0170093 0.0592636 3.13154e-20)
(-0.0202235 0.0723428 4.76268e-20)
(-0.023253 0.0855921 1.60705e-20)
(-0.0260506 0.0988925 4.06149e-20)
(-0.0285854 0.112156 3.28141e-20)
(-0.0308391 0.125311 4.96424e-20)
(-0.032801 0.138301 1.00097e-19)
(-0.0344652 0.151072 5.04158e-20)
(-0.0358301 0.163573 0)
(-0.036898 0.175755 1.6979e-20)
(-0.0376734 0.18757 1.70533e-20)
(-0.0381624 0.198971 1.71238e-20)
(-0.038373 0.20991 3.44291e-20)
(-0.0383141 0.220346 -1.72555e-20)
(-0.0379953 0.230237 0)
(-0.0374262 0.239548 -2.23839e-23)
(-0.0366167 0.248247 -3.47495e-20)
(-0.035577 0.256308 3.47918e-20)
(-0.0343174 0.263711 6.96795e-20)
(-0.0328483 0.270441 6.97545e-20)
(-0.0311808 0.276488 3.67418e-23)
(-0.0293261 0.28185 3.48261e-20)
(-0.0272954 0.286527 3.48035e-20)
(-0.0251 0.290527 -3.47688e-20)
(-0.0227523 0.293862 3.47221e-20)
(-0.0202648 0.296546 3.46639e-20)
(-0.0176514 0.298601 6.92878e-20)
(-0.0149278 0.30005 -1.09099e-22)
(-0.0121116 0.300919 1.03382e-19)
(-0.00922273 0.301239 -7.91577e-24)
(-0.00628162 0.301044 -3.42111e-20)
(-0.00330561 0.300368 -3.42299e-20)
(-0.000375264 0.299291 3.39616e-20)
(0.00239299 0.297922 3.93098e-20)
(-0.000241475 0.000625228 2.61439e-20)
(-0.00185777 0.00557665 3.55794e-20)
(-0.00460596 0.0136112 2.185e-20)
(-0.00789083 0.0236283 -2.23159e-20)
(-0.01148 0.0349242 -3.78966e-20)
(-0.0151802 0.0470528 3.08402e-20)
(-0.0188571 0.0597028 0)
(-0.022413 0.0726527 3.17483e-20)
(-0.0257794 0.0857461 0)
(-0.0289073 0.0988696 -6.49893e-20)
(-0.0317649 0.111939 1.64182e-20)
(-0.0343327 0.124889 -8.27491e-20)
(-0.0365991 0.137663 -3.33649e-20)
(-0.0385575 0.150212 1.68168e-20)
(-0.0402056 0.162488 3.58317e-23)
(-0.0415448 0.174444 -1.69773e-20)
(-0.0425791 0.186035 -3.41566e-20)
(-0.0433136 0.197214 -6.85919e-20)
(-0.0437557 0.207937 0)
(-0.0439139 0.218162 4.58792e-23)
(-0.0437968 0.227849 -3.45576e-20)
(-0.0434135 0.236964 -3.4692e-20)
(-0.0427735 0.245476 3.47494e-20)
(-0.0418863 0.253358 -3.48653e-20)
(-0.0407618 0.260591 3.47813e-20)
(-0.0394103 0.267161 -6.95873e-20)
(-0.0378426 0.273057 3.31914e-23)
(-0.0360697 0.278276 -6.95627e-20)
(-0.0341026 0.282822 -3.48034e-20)
(-0.0319528 0.2867 -2.00194e-23)
(-0.0296327 0.289924 -9.90521e-23)
(-0.0271555 0.292509 -3.46638e-20)
(-0.024536 0.294478 -3.45943e-20)
(-0.021791 0.295855 -1.06888e-22)
(-0.0189397 0.29667 -3.44229e-20)
(-0.0160043 0.296956 -1.23114e-22)
(-0.0130078 0.296751 -3.41706e-20)
(-0.00997089 0.296093 1.01906e-19)
(-0.00698095 0.295067 -3.39616e-20)
(-0.00415777 0.293784 -3.93211e-20)
(-0.000301898 0.000823977 -2.61414e-20)
(-0.00211324 0.00602045 7.11765e-21)
(-0.00513038 0.0141902 -2.18529e-20)
(-0.00871545 0.0242608 -7.43835e-21)
(-0.0126202 0.0355466 3.03164e-20)
(-0.0166407 0.0476152 -7.71055e-21)
(-0.0206368 0.0601653 7.82682e-21)
(-0.0245075 0.072983 -4.76274e-20)
(-0.0281817 0.0859184 1.60644e-20)
(-0.0316098 0.098863 3.24946e-20)
(-0.034759 0.111737 0)
(-0.0376094 0.124478 6.62107e-20)
(-0.0401485 0.137035 0)
(-0.0423694 0.14936 -6.72e-20)
(-0.0442689 0.161408 -3.38077e-20)
(-0.0458482 0.173136 0)
(-0.0471104 0.1845 0)
(-0.0480601 0.195455 6.85806e-20)
(-0.0487041 0.205959 3.4458e-20)
(-0.0490505 0.215971 -6.90241e-20)
(-0.0491073 0.225452 3.45441e-20)
(-0.0488826 0.234368 0)
(-0.0483855 0.24269 -3.47641e-20)
(-0.0476254 0.250391 6.94573e-20)
(-0.0466116 0.257451 -3.47077e-20)
(-0.0453541 0.263857 -3.48232e-20)
(-0.0438634 0.269599 3.47033e-20)
(-0.0421501 0.274674 0)
(-0.0402251 0.279084 6.94293e-20)
(-0.0380998 0.282837 -3.46027e-20)
(-0.0357867 0.285946 -3.46504e-20)
(-0.0332996 0.288428 -1.02388e-22)
(-0.0306537 0.290308 1.37783e-19)
(-0.0278669 0.291611 -1.03017e-19)
(-0.0249601 0.29237 0)
(-0.0219576 0.292622 -3.41987e-20)
(-0.0188853 0.292409 -6.81098e-20)
(-0.015767 0.291773 3.37313e-20)
(-0.0126962 0.290803 3.36669e-20)
(-0.00979854 0.289619 0)
(-0.000371359 0.00103207 -5.22795e-20)
(-0.00238359 0.00648301 -7.11678e-21)
(-0.00566382 0.0147907 5.82537e-20)
(-0.00953602 0.0249147 -5.94846e-20)
(-0.0137377 0.0361885 0)
(-0.0180558 0.0481943 0)
(-0.0223455 0.0606417 -1.56602e-20)
(-0.0265025 0.0733253 -1.04399e-23)
(-0.0304545 0.0861009 1.6064e-20)
(-0.0341513 0.0988652 0)
(-0.03756 0.111543 0)
(-0.0406598 0.124075 -1.65394e-20)
(-0.0434384 0.136412 2.81976e-23)
(-0.0458882 0.148513 1.68149e-20)
(-0.048006 0.160333 3.38075e-20)
(-0.0497923 0.171832 0)
(-0.0512495 0.182967 3.41899e-20)
(-0.0523822 0.193698 -3.42012e-20)
(-0.0531968 0.203982 -6.88076e-20)
(-0.0537005 0.213779 6.90034e-20)
(-0.0539008 0.223052 9.79327e-23)
(-0.0538053 0.231769 -3.4592e-20)
(-0.0534227 0.239899 3.47367e-20)
(-0.0527618 0.247417 -6.93909e-20)
(-0.0518317 0.254304 0)
(-0.050642 0.260545 3.47766e-20)
(-0.0492027 0.266131 -6.94179e-20)
(-0.0475242 0.271059 3.46285e-20)
(-0.0456171 0.275332 -3.46711e-20)
(-0.0434924 0.278958 -3.46329e-20)
(-0.0411628 0.281949 -3.46612e-20)
(-0.0386422 0.284327 1.3775e-19)
(-0.0359464 0.286114 -1.03001e-19)
(-0.0330943 0.28734 -6.85789e-20)
(-0.0301081 0.288041 6.81865e-20)
(-0.0270142 0.288259 0)
(-0.0238416 0.288038 6.78374e-20)
(-0.0206175 0.287428 -6.74127e-20)
(-0.0174398 0.286522 -3.36668e-20)
(-0.0144438 0.285447 0)
(-0.000450066 0.0012475 1.11076e-19)
(-0.00266894 0.00695907 4.97807e-20)
(-0.00620587 0.0154059 -5.82533e-20)
(-0.0103517 0.0255816 5.20495e-20)
(-0.0148311 0.0368406 -7.57833e-21)
(-0.0194236 0.0487807 1.54133e-20)
(-0.02398 0.061123 0)
(-0.0283941 0.0736704 -1.58784e-20)
(-0.0325929 0.0862849 1.60635e-20)
(-0.0365258 0.0988682 1.62574e-20)
(-0.04016 0.111349 -1.63997e-20)
(-0.0434751 0.123671 -1.65678e-20)
(-0.0464584 0.135791 1.66719e-20)
(-0.0491023 0.147667 0)
(-0.0514033 0.159259 0)
(-0.0533616 0.170529 -3.40276e-20)
(-0.0549795 0.181437 3.41081e-20)
(-0.0562611 0.191943 -3.43253e-20)
(-0.0572127 0.202007 3.43535e-20)
(-0.0578408 0.21159 3.45381e-20)
(-0.0581522 0.220657 -6.91349e-20)
(-0.0581542 0.229175 6.92477e-20)
(-0.057855 0.237114 9.60153e-23)
(-0.0572631 0.24445 -3.46362e-20)
(-0.0563873 0.251164 0)
(-0.0552365 0.25724 3.47313e-20)
(-0.0538204 0.262671 9.66298e-23)
(-0.0521491 0.267452 -3.4576e-20)
(-0.0502325 0.271587 0)
(-0.0480817 0.275083 6.91125e-20)
(-0.045709 0.277957 -6.87834e-20)
(-0.0431283 0.280226 0)
(-0.0403561 0.281919 6.85808e-20)
(-0.0374117 0.283067 -6.82029e-20)
(-0.0343186 0.283708 0)
(-0.0311055 0.283889 0)
(-0.0278043 0.283661 0)
(-0.0244458 0.283079 -6.72625e-20)
(-0.0211314 0.282245 6.68313e-20)
(-0.0180089 0.281291 7.74426e-20)
(-0.000537894 0.00146795 -5.22676e-20)
(-0.00296893 0.00744358 -5.6896e-20)
(-0.00675606 0.0160288 -7.27855e-21)
(-0.0111616 0.0262533 2.23017e-20)
(-0.0158991 0.0374938 -3.03049e-20)
(-0.0207419 0.049365 3.08282e-20)
(-0.0255376 0.0615994 -3.13076e-20)
(-0.0301787 0.0740088 -4.76176e-20)
(-0.034592 0.0864614 0)
(-0.0387274 0.0988636 -1.6258e-20)
(-0.0425526 0.111148 1.64003e-20)
(-0.0460473 0.123262 0)
(-0.0491991 0.135165 3.34026e-20)
(-0.0520006 0.146818 -3.35758e-20)
(-0.0544483 0.158184 -1.01469e-19)
(-0.0565422 0.169227 -7.26374e-23)
(-0.0582843 0.17991 6.82938e-20)
(-0.059679 0.190193 -3.42393e-20)
(-0.0607319 0.200039 0)
(-0.0614493 0.20941 0)
(-0.0618372 0.218273 6.90982e-20)
(-0.0619027 0.226594 3.46516e-20)
(-0.0616535 0.234344 -3.45949e-20)
(-0.0610978 0.241501 -3.47019e-20)
(-0.0602439 0.248043 6.93136e-20)
(-0.0591005 0.253957 -3.45966e-20)
(-0.0576766 0.259233 6.93134e-20)
(-0.0559818 0.263869 -1.38273e-19)
(-0.0540258 0.267867 1.38042e-19)
(-0.0518189 0.271235 -1.37757e-19)
(-0.0493735 0.27399 1.37423e-19)
(-0.0467033 0.276151 -1.3704e-19)
(-0.0438248 0.277748 6.82336e-20)
(-0.040758 0.278815 6.81378e-20)
(-0.0375276 0.279395 1.28024e-22)
(-0.0341639 0.279538 1.19245e-22)
(-0.0307024 0.279302 -6.71816e-20)
(-0.0271775 0.27875 1.8774e-22)
(-0.0236925 0.277993 -6.65441e-20)
(-0.0204115 0.277172 0)
(-0.00063474 0.00169138 6.53114e-21)
(-0.00328314 0.00793151 -7.10836e-21)
(-0.00731357 0.0166523 2.18325e-20)
(-0.0119646 0.0269214 -2.973e-20)
(-0.0169401 0.038139 1.51486e-20)
(-0.0220086 0.0499372 0)
(-0.0270155 0.062061 0)
(-0.031853 0.0743308 6.34837e-20)
(-0.0364479 0.0866208 8.03515e-20)
(-0.0407513 0.0988423 -1.62402e-20)
(-0.0447315 0.110931 8.20685e-20)
(-0.0483691 0.122839 -1.65454e-20)
(-0.0516521 0.134528 0)
(-0.0545733 0.14596 0)
(-0.0571296 0.157104 6.76232e-20)
(-0.0593208 0.167923 0)
(-0.0611493 0.178384 3.41071e-20)
(-0.0626192 0.188448 -3.43159e-20)
(-0.0637359 0.198079 0)
(-0.0645052 0.207243 -6.89451e-20)
(-0.0649328 0.215904 -3.45124e-20)
(-0.0650254 0.224032 -1.03713e-19)
(-0.0647903 0.231598 -3.46611e-20)
(-0.0642355 0.238579 3.45869e-20)
(-0.0633687 0.244954 6.92155e-20)
(-0.0621982 0.250709 0)
(-0.0607326 0.255834 6.90855e-20)
(-0.0589809 0.260328 1.38081e-19)
(-0.0569522 0.264191 1.52878e-22)
(-0.0546566 0.267434 -6.86638e-20)
(-0.0521058 0.270071 -6.86234e-20)
(-0.0493134 0.272125 6.82781e-20)
(-0.0462961 0.273625 6.81767e-20)
(-0.043074 0.27461 -1.3572e-19)
(-0.0396725 0.275126 1.3517e-19)
(-0.0361241 0.275229 -6.74085e-20)
(-0.0324675 0.274983 6.69294e-20)
(-0.0287411 0.274462 1.33293e-19)
(-0.0250485 0.273787 6.61507e-20)
(-0.0215741 0.273109 7.63469e-20)
(-0.000740302 0.0019156 -5.22207e-20)
(-0.00361089 0.00841796 4.97441e-20)
(-0.0078775 0.0172695 -4.36424e-20)
(-0.0127595 0.0275778 4.45726e-20)
(-0.0179526 0.038767 7.57217e-20)
(-0.0232219 0.0504879 -6.16291e-20)
(-0.0284117 0.0624978 7.82487e-20)
(-0.0334141 0.0746261 4.76092e-20)
(-0.0381572 0.0867531 -1.12468e-19)
(-0.0425932 0.0987947 3.24955e-20)
(-0.0466919 0.11069 1.64042e-20)
(-0.0504346 0.122395 3.31439e-20)
(-0.0538101 0.133872 3.34093e-20)
(-0.056812 0.145089 -6.72255e-20)
(-0.0594372 0.156013 6.76327e-20)
(-0.0616862 0.166614 1.02016e-19)
(-0.0635613 0.176857 -1.02401e-19)
(-0.0650667 0.186707 1.37105e-19)
(-0.0662077 0.196129 6.8764e-20)
(-0.0669896 0.20509 1.03454e-19)
(-0.0674178 0.213556 3.4562e-20)
(-0.0674988 0.221496 6.91649e-20)
(-0.0672395 0.228883 -6.91761e-20)
(-0.0666475 0.235694 0)
(-0.0657303 0.241907 -2.07627e-19)
(-0.0644956 0.247509 1.38251e-19)
(-0.0629516 0.25249 -6.89371e-20)
(-0.0611066 0.256846 -6.88323e-20)
(-0.0589692 0.26058 9.09474e-24)
(-0.0565491 0.2637 0)
(-0.0538575 0.266222 0)
(-0.0509077 0.26817 6.80879e-20)
(-0.0477161 0.269575 -6.79771e-20)
(-0.0443031 0.270477 6.76025e-20)
(-0.0406945 0.270927 -6.74053e-20)
(-0.0369246 0.270988 -6.70936e-20)
(-0.0330358 0.27073 0)
(-0.0290704 0.270238 -6.63399e-20)
(-0.0251308 0.269648 -6.60945e-20)
(-0.0214256 0.269126 -2.28456e-19)
(-0.00085419 0.00213854 5.22258e-20)
(-0.00395132 0.00889816 -4.97389e-20)
(-0.00844678 0.017874 5.81953e-20)
(-0.0135451 0.0282142 -1.03992e-19)
(-0.0189352 0.0393687 -7.57176e-20)
(-0.0243802 0.0510071 6.16289e-20)
(-0.029724 0.0628996 -1.25177e-19)
(-0.0348598 0.0748844 -6.34724e-20)
(-0.039717 0.086848 8.03468e-20)
(-0.0442498 0.0987107 -1.46226e-19)
(-0.0484295 0.110415 -9.84973e-20)
(-0.0522387 0.12192 -3.31458e-20)
(-0.0556671 0.13319 -1.00172e-19)
(-0.0587093 0.144196 1.0081e-19)
(-0.0613628 0.154907 -6.76324e-20)
(-0.0636285 0.165295 -6.7987e-20)
(-0.0655089 0.175326 0)
(-0.0670086 0.184968 -6.85511e-20)
(-0.0681324 0.194188 -1.03182e-19)
(-0.0688855 0.202952 3.44231e-20)
(-0.0692733 0.21123 -6.90533e-20)
(-0.0693017 0.21899 0)
(-0.0689775 0.226206 6.91757e-20)
(-0.068308 0.232853 6.92278e-20)
(-0.0673002 0.238912 -6.89848e-20)
(-0.0659615 0.244369 0)
(-0.0642995 0.249212 0)
(-0.0623221 0.253438 0)
(-0.0600374 0.257049 -1.20498e-22)
(-0.0574544 0.260053 0)
(-0.0545839 0.262466 -1.36462e-19)
(-0.0514388 0.264312 -1.36473e-22)
(-0.0480352 0.265623 -1.35423e-19)
(-0.0443933 0.266443 1.34893e-19)
(-0.0405395 0.266826 -6.7101e-20)
(-0.0365096 0.266841 6.69291e-20)
(-0.0323498 0.266568 0)
(-0.0281064 0.266103 1.32347e-19)
(-0.0238791 0.265601 -6.56918e-20)
(-0.0199041 0.265241 0)
(-0.000975941 0.00235826 6.52393e-21)
(-0.00430347 0.0093676 0)
(-0.00902024 0.0184591 -7.26925e-20)
(-0.0143201 0.0288229 8.91207e-20)
(-0.0198867 0.0399353 4.54072e-20)
(-0.0254821 0.0514853 -6.16017e-20)
(-0.030951 0.063256 6.2583e-20)
(-0.0361882 0.0750951 -6.34547e-20)
(-0.0411253 0.0868948 0)
(-0.0457187 0.0985797 6.49927e-20)
(-0.0499414 0.110096 -6.56499e-20)
(-0.0537777 0.121404 -2.55271e-24)
(-0.0572187 0.132473 0)
(-0.06026 0.143273 6.72353e-20)
(-0.0628999 0.153778 -3.37888e-20)
(-0.0651399 0.163959 6.80626e-20)
(-0.0669831 0.173786 3.41832e-20)
(-0.068434 0.183228 -6.85463e-20)
(-0.0694976 0.192254 0)
(-0.0701789 0.20083 1.03395e-19)
(-0.0704831 0.208928 3.45369e-20)
(-0.0704159 0.216517 0)
(-0.0699841 0.22357 0)
(-0.0691943 0.230064 0)
(-0.0680534 0.235978 6.90885e-20)
(-0.0665684 0.241298 0)
(-0.0647465 0.246013 -6.89161e-20)
(-0.062595 0.250118 1.37417e-19)
(-0.0601216 0.253615 -1.3707e-19)
(-0.0573349 0.256511 0)
(-0.0542451 0.258821 6.81671e-20)
(-0.0508646 0.260571 -6.77493e-20)
(-0.0472092 0.261793 6.76431e-20)
(-0.043299 0.262533 0)
(-0.0391605 0.26285 0)
(-0.0348308 0.262817 6.65915e-20)
(-0.0303603 0.262525 -6.61856e-20)
(-0.0257992 0.262083 1.31671e-19)
(-0.021243 0.261667 -1.30827e-19)
(-0.016959 0.261477 0)
(-0.00110501 0.00257293 4.56364e-20)
(-0.00466625 0.00982208 1.42022e-20)
(-0.00959667 0.019019 5.8152e-20)
(-0.0150832 0.0293965 5.93731e-20)
(-0.0208056 0.0404582 -6.05441e-20)
(-0.0265263 0.0519129 6.16016e-20)
(-0.0320914 0.0635571 6.2556e-20)
(-0.0373983 0.0752475 6.34547e-20)
(-0.0423808 0.0868825 0)
(-0.0469982 0.0983908 6.49847e-20)
(-0.0512257 0.109722 6.56497e-20)
(-0.0550494 0.120838 6.62424e-20)
(-0.0584619 0.13171 0)
(-0.0614602 0.142312 3.75794e-24)
(-0.0640438 0.152618 6.76416e-20)
(-0.0662149 0.1626 -3.39615e-20)
(-0.067977 0.172232 -3.41119e-20)
(-0.0693351 0.181483 1.02854e-19)
(-0.0702939 0.190323 7.14768e-23)
(-0.0708587 0.198721 -3.44262e-20)
(-0.0710345 0.206649 -6.90105e-20)
(-0.070827 0.214076 0)
(-0.0702426 0.220977 0)
(-0.0692879 0.227328 0)
(-0.0679694 0.233109 0)
(-0.0662937 0.238304 0)
(-0.0642677 0.242902 0)
(-0.0618983 0.246897 6.86531e-20)
(-0.0591927 0.250291 -6.83678e-20)
(-0.0561594 0.253089 0)
(-0.052808 0.255307 0)
(-0.0491505 0.256968 6.77486e-20)
(-0.0452021 0.258108 0)
(-0.0409828 0.258772 6.70651e-20)
(-0.0365193 0.259024 -6.66812e-20)
(-0.0318499 0.258942 0)
(-0.0270287 0.258627 1.31923e-19)
(-0.0221106 0.258203 -1.31097e-19)
(-0.0171852 0.257871 0)
(-0.0125536 0.257855 0)
(-0.00124084 0.00278096 -5.21522e-20)
(-0.00503855 0.0102578 -1.41888e-20)
(-0.0101748 0.0195481 1.45289e-20)
(-0.0158332 0.0299279 -5.93732e-20)
(-0.021691 0.0409293 0)
(-0.0275119 0.0522808 0)
(-0.0331446 0.0637929 -4.6912e-20)
(-0.0384892 0.0753312 -1.5852e-20)
(-0.043483 0.0868001 -3.21437e-20)
(-0.0480879 0.0981325 -3.25148e-20)
(-0.0522817 0.109281 -3.28495e-20)
(-0.0560527 0.12021 3.30948e-20)
(-0.0593954 0.130892 3.33569e-20)
(-0.0623084 0.141302 -3.36488e-20)
(-0.0647923 0.151416 0)
(-0.0668503 0.161209 0)
(-0.0684867 0.170655 -6.8295e-20)
(-0.0697066 0.179724 0)
(-0.0705151 0.18839 0)
(-0.0709174 0.196621 6.89323e-20)
(-0.0709187 0.20439 1.29648e-22)
(-0.0705247 0.211667 4.92059e-23)
(-0.0697415 0.218428 -6.90968e-20)
(-0.0685756 0.224648 6.89486e-20)
(-0.0670332 0.230308 6.8906e-20)
(-0.0651207 0.23539 -6.87914e-20)
(-0.0628447 0.239884 0)
(-0.0602119 0.243783 6.85437e-20)
(-0.0572293 0.247087 7.13947e-23)
(-0.0539049 0.2498 -6.80246e-20)
(-0.0502482 0.251938 0)
(-0.0462708 0.253522 0)
(-0.0419875 0.254588 6.72017e-20)
(-0.037418 0.255184 -6.68312e-20)
(-0.0325892 0.255374 -6.64942e-20)
(-0.0275403 0.255244 6.61006e-20)
(-0.0223295 0.254902 0)
(-0.0170165 0.25449 0)
(-0.0116835 0.254238 0)
(-0.00666746 0.254399 -7.40188e-20)
(-0.00138284 0.002981 6.51126e-20)
(-0.00541919 0.0106712 -2.83678e-20)
(-0.0107535 0.0200412 1.45211e-20)
(-0.016569 0.0304109 0)
(-0.0225419 0.041341 7.5604e-20)
(-0.0284382 0.0525805 1.01333e-23)
(-0.03411 0.0639537 6.2533e-20)
(-0.039461 0.0753355 -4.75767e-20)
(-0.044432 0.0866364 6.42375e-20)
(-0.0489881 0.0977934 -3.24648e-20)
(-0.0531099 0.108762 0)
(-0.0567882 0.119508 3.31492e-20)
(-0.0600197 0.130005 -1.00131e-19)
(-0.0628046 0.140231 0)
(-0.0651452 0.150162 1.01506e-19)
(-0.0670457 0.159775 -6.79326e-20)
(-0.0685111 0.169045 -6.8294e-20)
(-0.0695469 0.177944 3.42341e-20)
(-0.0701587 0.186446 0)
(-0.0703518 0.194522 -6.88733e-20)
(-0.0701316 0.202144 -6.90159e-20)
(-0.0695037 0.209285 -7.46262e-23)
(-0.0684745 0.215918 6.89812e-20)
(-0.06705 0.222021 6.90068e-20)
(-0.0652364 0.227574 -1.37732e-19)
(-0.0630399 0.232558 6.87907e-20)
(-0.060467 0.236963 0)
(-0.0575242 0.240781 -6.83566e-20)
(-0.0542187 0.244009 6.81256e-20)
(-0.0505581 0.246653 6.78644e-20)
(-0.0465519 0.248725 -6.75753e-20)
(-0.0422113 0.250246 6.72602e-20)
(-0.0375511 0.251251 0)
(-0.0325907 0.251788 6.66561e-20)
(-0.027357 0.251923 1.32452e-19)
(-0.0218903 0.251748 -1.31767e-19)
(-0.0162526 0.251378 1.30914e-19)
(-0.0105091 0.250972 -4.14953e-23)
(-0.00473316 0.250794 -6.4751e-20)
(0.000701448 0.25113 1.47365e-19)
(-0.00153044 0.0031719 -3.90764e-20)
(-0.00580701 0.0110595 -8.50235e-20)
(-0.0113314 0.020494 5.80324e-20)
(-0.0172894 0.0308395 -4.4464e-20)
(-0.0233573 0.0416862 -1.51486e-20)
(-0.0293047 0.0528036 1.5378e-20)
(-0.0349876 0.0640302 -3.12494e-20)
(-0.0403139 0.0752503 -3.16861e-20)
(-0.0452285 0.0863806 3.21328e-20)
(-0.0496998 0.0973618 -6.49656e-20)
(-0.0537117 0.108152 -5.34366e-23)
(-0.0572577 0.118719 3.309e-20)
(-0.0603367 0.129038 0)
(-0.0629511 0.139087 -3.36523e-20)
(-0.0651047 0.148844 -3.38565e-20)
(-0.0668032 0.158287 6.79987e-20)
(-0.0680522 0.167391 0)
(-0.0688579 0.176132 0)
(-0.0692263 0.184482 6.87776e-20)
(-0.069163 0.192415 -6.87866e-20)
(-0.0686738 0.199904 0)
(-0.0677646 0.206921 6.90223e-20)
(-0.0664414 0.213442 -6.88804e-20)
(-0.0647106 0.219442 -1.37814e-19)
(-0.0625779 0.224902 -8.15534e-23)
(-0.0600499 0.229805 6.87128e-20)
(-0.0571328 0.234137 -1.36949e-19)
(-0.0538335 0.23789 6.83558e-20)
(-0.050159 0.24106 -6.81248e-20)
(-0.0461172 0.243651 -5.04347e-23)
(-0.0417174 0.245674 8.44503e-23)
(-0.0369711 0.247149 -6.72593e-20)
(-0.0318928 0.248108 -6.67481e-20)
(-0.026502 0.248599 -6.63704e-20)
(-0.0208258 0.24869 -2.02328e-22)
(-0.014905 0.248475 0)
(-0.00880601 0.248077 -6.51169e-20)
(-0.00259949 0.247672 1.29539e-19)
(0.00365075 0.247562 -1.93174e-19)
(0.00953436 0.248071 -1.60729e-22)
(-0.0016831 0.00335273 -1.30093e-20)
(-0.00620086 0.0114202 1.13308e-19)
(-0.0119074 0.0209026 -5.80339e-20)
(-0.0179935 0.0312087 4.44677e-20)
(-0.0241367 0.0419586 -1.20877e-19)
(-0.030111 0.0529427 1.53709e-20)
(-0.0357775 0.0640139 -6.24732e-20)
(-0.0410487 0.0750659 0)
(-0.0458738 0.0860218 0)
(-0.0502251 0.0968262 -6.49427e-20)
(-0.0540897 0.107439 3.28407e-20)
(-0.0574642 0.117831 -5.7077e-24)
(-0.0603502 0.127977 3.3353e-20)
(-0.062752 0.137857 0)
(-0.0646755 0.147448 -1.01502e-19)
(-0.0661276 0.156731 3.39656e-20)
(-0.0671152 0.165681 -6.82845e-20)
(-0.0676449 0.174274 0)
(-0.0677234 0.182486 0)
(-0.067357 0.190289 6.56994e-23)
(-0.0665516 0.197658 -6.88528e-20)
(-0.0653135 0.204566 6.89232e-20)
(-0.0636489 0.210988 -6.8965e-20)
(-0.0615641 0.216902 6.8817e-20)
(-0.0590651 0.222286 6.19058e-23)
(-0.0561584 0.227123 6.78607e-23)
(-0.0528507 0.231399 6.84696e-20)
(-0.0491489 0.235105 -6.81612e-20)
(-0.0450604 0.238236 0)
(-0.0405934 0.240793 -6.76794e-20)
(-0.0357574 0.242786 6.73568e-20)
(-0.0305642 0.244233 0)
(-0.0250287 0.245165 6.6747e-20)
(-0.0191704 0.245627 -6.61575e-20)
(-0.0130165 0.245687 6.57975e-20)
(-0.00660887 0.245441 0)
(-1.75411e-05 0.24502 1.95068e-19)
(0.00668033 0.244614 -1.29139e-19)
(0.0134314 0.244564 0)
(0.01979 0.24524 7.28121e-20)
(-0.00184029 0.00352275 1.03955e-19)
(-0.00659965 0.011751 -5.66348e-20)
(-0.0124803 0.0212637 -1.44966e-20)
(-0.0186802 0.0315141 1.48074e-20)
(-0.0248793 0.0421527 6.04188e-20)
(-0.0308571 0.052991 0)
(-0.0364802 0.0638968 6.24734e-20)
(-0.0416664 0.0747734 9.49974e-20)
(-0.0463697 0.0855501 3.20716e-20)
(-0.0505664 0.0961754 3.24483e-20)
(-0.0542472 0.106612 3.27788e-20)
(-0.057412 0.116831 -9.9366e-20)
(-0.0600651 0.126809 3.3349e-20)
(-0.0622133 0.136526 1.34461e-19)
(-0.0638642 0.14596 3.37916e-20)
(-0.0650266 0.155092 3.39635e-20)
(-0.0657084 0.163898 6.82842e-20)
(-0.0659171 0.172357 0)
(-0.0656602 0.180442 0)
(-0.0649444 0.188129 1.37687e-19)