/*--------------------------------*- C++ -*----------------------------------*\
  =========                 |
  \\      /  F ield         | OpenFOAM: The Open Source CFD Toolbox
   \\    /   O peration     | Website:  https://openfoam.org
    \\  /    A nd           | Version:  7
     \\/     M anipulation  |
\*---------------------------------------------------------------------------*/
FoamFile
{
    version     2.0;
    format      ascii;
    class       volScalarField;
    location    "81";
    object      p;
}
// * * * * * * * * * * * * * * * * * * * * * * * * * * * * * * * * * * * * * //

dimensions      [0 2 -2 0 0 0 0];

internalField   nonuniform List<scalar> 
2000
(
0.00988556
0.00998677
0.0101782
0.0104146
0.0106629
0.0109025
0.0111203
0.0113107
0.011473
0.0115994
0.00992146
0.0100669
0.0102774
0.0105342
0.0108028
0.0110616
0.0112957
0.0114974
0.0116653
0.0117815
0.00992691
0.0101285
0.0103586
0.0106341
0.0109199
0.0111937
0.01144
0.0116502
0.011823
0.0119291
0.00990715
0.0101735
0.010424
0.0107155
0.0110136
0.0112965
0.0115487
0.0117618
0.011936
0.0120308
0.00986887
0.0102075
0.0104771
0.0107807
0.0110846
0.0113686
0.0116183
0.011826
0.011995
0.0120755
0.00982175
0.0102365
0.0105227
0.0108328
0.011135
0.0114106
0.0116475
0.0118397
0.011994
0.0120545
0.00977729
0.0102673
0.0105661
0.0108763
0.0111678
0.0114248
0.0116378
0.0118031
0.0119315
0.0119646
0.00974835
0.0103075
0.0106135
0.0109161
0.0111879
0.011416
0.0115943
0.0117221
0.0118139
0.0118118
0.00974856
0.010365
0.0106714
0.0109582
0.0112013
0.0113911
0.0115259
0.0116089
0.0116598
0.0116196
0.00979161
0.0104481
0.010747
0.0110095
0.0112151
0.0113586
0.0114432
0.0114779
0.0114906
0.0114258
0.0118108
0.0127718
0.0139517
0.0157531
0.0176617
0.0198749
0.021461
0.0236117
0.0238111
0.0252226
0.0118886
0.0127332
0.0136338
0.0152099
0.0169299
0.0189844
0.0204509
0.0224543
0.0227487
0.0239719
0.0119136
0.0126901
0.0133237
0.0146822
0.0162244
0.0181317
0.0194888
0.0213815
0.0217105
0.0228175
0.0118772
0.0126275
0.0130211
0.0141721
0.0155463
0.0173159
0.0185776
0.0203754
0.0207091
0.021759
0.0117755
0.0125265
0.0127243
0.0136809
0.0148973
0.0165386
0.0177181
0.0194314
0.0197689
0.0207931
0.01161
0.0123698
0.0124287
0.0132079
0.0142779
0.0157978
0.0169017
0.0185343
0.0188787
0.0198999
0.0113912
0.0121465
0.0121267
0.0127511
0.0136904
0.0150998
0.0161392
0.0177016
0.0180614
0.0190851
0.0111302
0.0118446
0.0118067
0.0123077
0.0131276
0.0144252
0.0154004
0.0168866
0.0172656
0.0183233
0.0108222
0.0114482
0.0114408
0.0118778
0.0126214
0.0138269
0.0147545
0.0161688
0.0165659
0.0176398
0.0105781
0.0111037
0.0110897
0.0114234
0.0120618
0.0131586
0.0140392
0.0153667
0.0158215
0.0169741
0.0111335
0.0116515
0.0118534
0.0119805
0.0122159
0.0128036
0.013419
0.0143544
0.0147511
0.0155985
0.00885568
0.00933852
0.0097292
0.0101197
0.0105593
0.0111483
0.0117153
0.0124368
0.0127464
0.0132788
0.00707973
0.00753615
0.00790008
0.00825067
0.00866508
0.00923761
0.00978341
0.0104276
0.0106814
0.0110632
0.00531288
0.00579857
0.00623688
0.00661159
0.00699347
0.00749567
0.00797576
0.00854264
0.00875297
0.00905796
0.0036595
0.00414426
0.00465608
0.0051075
0.00551542
0.00597043
0.00638078
0.00685939
0.00703152
0.0072886
0.00223045
0.00268749
0.00322848
0.00373202
0.00418102
0.00462666
0.00499754
0.00540133
0.00553824
0.00574042
0.00109255
0.00150619
0.00203618
0.00253578
0.00298027
0.00340158
0.00373751
0.00408284
0.00419315
0.00435175
0.000276075
0.000621848
0.00110563
0.00156194
0.00195727
0.00232132
0.00260543
0.00289136
0.00296703
0.00307309
-0.000155712
8.25913e-05
0.000467039
0.000810933
0.00108798
0.00134102
0.00153043
0.0017402
0.00177648
0.00184492
-0.000685851
-0.000290262
3.16138e-05
0.000244959
0.000374483
0.000486803
0.000550434
0.000652251
0.00063221
0.000640811
0.0104928
0.00851557
0.0067967
0.00507437
0.00348479
0.00210727
0.00101503
0.0002075
-0.00014904
-0.000727534
0.0100969
0.00819916
0.00650825
0.0048338
0.0033064
0.00198799
0.000949691
0.00018196
-0.000144638
-0.000646861
0.00970181
0.007915
0.00625387
0.00462915
0.00315958
0.00189561
0.000907764
0.000183078
-0.000125421
-0.000535418
0.00939215
0.00771547
0.00607961
0.00449901
0.00307797
0.00185936
0.000909267
0.000216475
-8.62093e-05
-0.000426002
0.00917461
0.00758283
0.00596735
0.00442651
0.00304677
0.00186571
0.000945764
0.000276145
-3.06387e-05
-0.000322953
0.00905426
0.00751523
0.0059155
0.00440519
0.0030599
0.00190893
0.00101148
0.000356989
3.73684e-05
-0.000227604
0.00903847
0.00750763
0.00592163
0.0044327
0.00311416
0.00198551
0.00110251
0.000454777
0.000114453
-0.000141535
0.00911479
0.00755754
0.00598139
0.00450451
0.003205
0.00209091
0.00121451
0.000565374
0.000197582
-6.53103e-05
0.00926924
0.00765977
0.00608901
0.00461523
0.00332716
0.00222017
0.00134297
0.000684936
0.000284147
1.55732e-06
0.00948612
0.00780735
0.00623738
0.00475886
0.00347502
0.00236835
0.00148359
0.00081014
0.00037207
6.01134e-05
0.00974622
0.00798969
0.00641708
0.00492808
0.00364228
0.00253036
0.0016323
0.000938169
0.000459762
0.000111511
0.0100355
0.00819835
0.00662085
0.00511756
0.00382417
0.00270242
0.00178609
0.00106705
0.00054621
0.000156831
0.0103452
0.00842915
0.00684418
0.00532438
0.00401769
0.00288209
0.00194301
0.0011956
0.000630924
0.000197134
0.0106671
0.0086783
0.00708234
0.0055456
0.00422009
0.00306732
0.0021016
0.00132309
0.000713718
0.00023332
0.0109942
0.00894353
0.00733143
0.00577886
0.0044293
0.00325651
0.00226089
0.00144912
0.000794618
0.000266126
0.0113209
0.00922357
0.007588
0.00602192
0.00464368
0.00344839
0.00242021
0.00157351
0.000873772
0.000296162
0.0116384
0.00951518
0.00784801
0.00627189
0.00486158
0.00364173
0.00257908
0.00169618
0.000951404
0.000323973
0.0119414
0.00982234
0.00811451
0.0065309
0.00508507
0.00383786
0.00273856
0.00181792
0.00102812
0.000350132
0.0122572
0.0101829
0.00841221
0.0068155
0.00532602
0.00404431
0.00290326
0.00194136
0.00110521
0.000374853
0.0125035
0.0105383
0.00870234
0.00709184
0.00556353
0.00424499
0.00306376
0.00206065
0.00118009
0.000396418
0.0120678
0.0107047
0.0090222
0.00747168
0.00595992
0.00460486
0.00337692
0.0023019
0.00133852
0.00044797
0.0120211
0.0106788
0.00906318
0.00760399
0.00614132
0.00482117
0.00359096
0.00249134
0.00147287
0.000503536
0.0123297
0.0109616
0.0093279
0.00788385
0.00641058
0.00507787
0.00381365
0.00267489
0.00160274
0.000563419
0.0128975
0.0113895
0.00968619
0.00820872
0.00669828
0.00533476
0.00402731
0.00285008
0.00173319
0.000632774
0.0137233
0.0119904
0.0101698
0.00860551
0.00702796
0.00560865
0.00424754
0.00303024
0.00187359
0.000713519
0.0147538
0.0127508
0.0107781
0.00907777
0.00740761
0.00590809
0.00448463
0.00322006
0.00202113
0.000795357
0.0158727
0.0135978
0.0114595
0.00959651
0.00782075
0.00622642
0.00473629
0.00341164
0.00215363
0.000849862
0.01693
0.0144081
0.012112
0.0100922
0.00821791
0.00653378
0.00497956
0.00358098
0.00224292
0.000857448
0.0177649
0.0150433
0.0126206
0.0104807
0.00853295
0.00678154
0.00517478
0.00370348
0.00228337
0.000830625
0.0182313
0.0153895
0.0128951
0.0106914
0.00870648
0.00692075
0.00528508
0.00376733
0.00229304
0.000802697
0.0131882
0.0131662
0.0135453
0.0142021
0.0151361
0.0162722
0.0175154
0.0187211
0.0197066
0.0202725
0.0133998
0.01355
0.0140362
0.0147923
0.0158184
0.0170297
0.0183336
0.0195824
0.0205928
0.0211708
0.0134545
0.013808
0.0144542
0.0153633
0.0165277
0.0178589
0.0192555
0.0205542
0.0215714
0.0221405
0.0135654
0.0140743
0.0148524
0.0158987
0.0171898
0.0186417
0.0201468
0.0215252
0.0225845
0.0231718
0.0137315
0.0143991
0.0152969
0.0164631
0.017863
0.0194207
0.0210281
0.022496
0.0236205
0.0242476
0.0139155
0.0147587
0.0157917
0.0170819
0.0185905
0.0202493
0.0219509
0.0235025
0.0246925
0.025362
0.0141136
0.0151359
0.0163216
0.0177466
0.0193743
0.0211412
0.0229372
0.0245669
0.0258139
0.0265182
0.014335
0.0155317
0.0168809
0.0184464
0.0202027
0.022087
0.0239835
0.0256915
0.0269901
0.0277211
0.014585
0.0159494
0.0174706
0.0191775
0.0210686
0.0230766
0.0250802
0.0268705
0.0282204
0.0289737
0.0148657
0.0163872
0.0180905
0.0199378
0.0219691
0.0241052
0.0262212
0.0280989
0.0295027
0.0302767
0.015179
0.0168394
0.0187379
0.0207226
0.0229013
0.0251696
0.027404
0.0293745
0.0308358
0.0316305
0.0155228
0.0172991
0.0194068
0.0215247
0.0238597
0.0262654
0.0286257
0.0306956
0.0322196
0.0330357
0.0158854
0.0177617
0.0200856
0.0223372
0.0248375
0.0273884
0.0298839
0.0320611
0.0336556
0.0344948
0.0162465
0.0182273
0.0207585
0.023155
0.0258251
0.0285334
0.0311746
0.0334686
0.0351474
0.0360144
0.0165687
0.0186974
0.0214043
0.0239811
0.0268187
0.0296968
0.0324953
0.0349174
0.0366876
0.0375885
0.0168429
0.0191622
0.0220242
0.0247852
0.0278011
0.0308638
0.0338349
0.0363998
0.0382716
0.039215
0.0170623
0.0195989
0.0226053
0.0255547
0.0287629
0.0320277
0.0351896
0.0379141
0.0399002
0.0408964
0.0171988
0.0199944
0.023131
0.0262763
0.0296858
0.0331682
0.0365408
0.0394469
0.0415669
0.0426316
0.0172291
0.0203483
0.0236059
0.026963
0.0305894
0.0343081
0.0379078
0.0410106
0.0432785
0.0444279
0.0170621
0.0205707
0.0239365
0.0274923
0.0313327
0.0353066
0.0391757
0.0425319
0.0449998
0.0462705
0.0177657
0.0222325
0.0259705
0.0299511
0.034182
0.0385584
0.0428304
0.0465816
0.0493836
0.0508813
0.022193
0.0264928
0.0304582
0.035075
0.039986
0.0450737
0.0500027
0.0542925
0.0574683
0.0591413
0.0270436
0.031551
0.0359747
0.0412955
0.0469079
0.0527327
0.0582848
0.0630363
0.0665056
0.0683372
0.0321473
0.0371275
0.042277
0.0484104
0.0547921
0.0613886
0.0675167
0.0726495
0.0763091
0.0781664
0.0375482
0.0431365
0.0491266
0.056123
0.0633186
0.0706896
0.0773318
0.0827706
0.0865376
0.0884791
0.0433515
0.0495753
0.0564769
0.0643496
0.0723781
0.0805062
0.0876112
0.0932708
0.0969291
0.0985007
0.0490603
0.0560383
0.0637863
0.0724402
0.0812537
0.0900431
0.0975713
0.103393
0.106785
0.108272
0.054759
0.0622128
0.0707658
0.0802083
0.0898358
0.0992775
0.107346
0.113478
0.116374
0.115726
0.0580829
0.066409
0.0756697
0.0857512
0.096018
0.105933
0.114378
0.12057
0.12237
0.124036
0.0618213
0.0703173
0.0800775
0.0907042
0.101707
0.112387
0.122237
0.130571
0.133958
0.11767
0.0163627
0.0206112
0.0249579
0.0296956
0.034557
0.0401213
0.0451328
0.0508978
0.0535297
0.0572203
0.0159101
0.0203389
0.0246283
0.0292651
0.033942
0.0393373
0.0440408
0.0496464
0.0519024
0.0555411
0.0157146
0.0203677
0.0246497
0.0292562
0.0338201
0.0390198
0.0434564
0.0487127
0.0506876
0.0540804
0.0154521
0.0202027
0.0244501
0.0290115
0.0334955
0.0385246
0.0427648
0.0477107
0.0496038
0.0526488
0.015155
0.0199116
0.0241098
0.0285781
0.0330024
0.037849
0.041939
0.0466159
0.0485383
0.0512504
0.0148539
0.0195873
0.023753
0.0281342
0.0324771
0.0371421
0.0411368
0.0455233
0.0475223
0.0499441
0.0145463
0.0192457
0.0234017
0.0277239
0.0319891
0.0364951
0.040412
0.0445259
0.0465963
0.0487676
0.0142338
0.0188891
0.0230495
0.0273346
0.0315413
0.0359257
0.0397639
0.0436664
0.0457756
0.0477283
0.0139248
0.018528
0.0227015
0.0269639
0.0311293
0.0354274
0.0391923
0.0429395
0.0450562
0.046847
0.0136301
0.0181743
0.0223689
0.0266222
0.03076
0.0349994
0.0387049
0.0423332
0.044443
0.0461271
0.0133591
0.0178371
0.0220623
0.0263211
0.0304454
0.0346472
0.0383117
0.0418452
0.0439467
0.0455612
0.0131097
0.0175162
0.0217844
0.0260639
0.0301918
0.034376
0.0380196
0.0414788
0.043575
0.0451409
0.0128704
0.0172072
0.0215337
0.0258495
0.0300008
0.0341889
0.0378323
0.0412376
0.0433321
0.0448631
0.012632
0.0169128
0.0213104
0.0256782
0.0298729
0.0340876
0.0377513
0.0411229
0.0432159
0.0447265
0.0123829
0.0166362
0.0211132
0.0255493
0.0298079
0.0340726
0.0377769
0.041136
0.043226
0.0447359
0.0121059
0.0163769
0.0209367
0.025459
0.0298026
0.0341406
0.0379062
0.0412736
0.0433512
0.0448932
0.0117807
0.0161296
0.0207722
0.0254017
0.0298541
0.0342896
0.0381415
0.0415397
0.0435959
0.0452122
0.0113881
0.0158838
0.0206058
0.0253639
0.0299472
0.034502
0.0384661
0.0419185
0.043925
0.0456956
0.0108857
0.0156253
0.0204418
0.0253561
0.030099
0.034801
0.0389061
0.0424389
0.0443841
0.0463682
0.0102346
0.0152343
0.0201643
0.0252544
0.030175
0.0350485
0.0393384
0.0430046
0.0448506
0.0472097
0.0113325
0.0163897
0.0212148
0.0264436
0.0316583
0.0367768
0.0413251
0.0451979
0.0469782
0.0497124
0.0143941
0.0196278
0.0246818
0.0303724
0.0361056
0.0417855
0.0469021
0.0511821
0.0534385
0.055812
0.0185171
0.024086
0.0295918
0.0359381
0.0423577
0.0488158
0.0546743
0.0595109
0.0624598
0.0644989
0.0232186
0.0292779
0.0354556
0.0426916
0.0500867
0.0576674
0.0646107
0.0704302
0.0744656
0.0769537
0.02814
0.0348092
0.0418622
0.0501926
0.0588309
0.0678925
0.0763918
0.0839248
0.0898289
0.0941419
0.0332489
0.0405596
0.048695
0.058262
0.0683979
0.0793073
0.0900033
0.10048
0.110331
0.11917
0.0375421
0.0457759
0.0550452
0.0658751
0.0777409
0.0908711
0.104652
0.119922
0.136931
0.15586
0.0420532
0.0509565
0.061325
0.0734813
0.087253
0.10304
0.121027
0.143895
0.174518
0.214625
0.0435134
0.0527674
0.0637047
0.076729
0.0923268
0.111481
0.136103
0.170834
0.224048
0.302841
0.0462257
0.0568764
0.0693076
0.0844873
0.103647
0.12853
0.162731
0.214167
0.299944
0.429734
0.010927
0.0137304
0.0171122
0.0210472
0.0249993
0.0296438
0.033077
0.0374356
0.0386769
0.0405264
0.0107208
0.013525
0.0167883
0.0205326
0.0241949
0.0285918
0.0316822
0.0358836
0.0369302
0.0389537
0.0107194
0.0134666
0.0166421
0.0202607
0.0237603
0.0278915
0.0307202
0.034619
0.0354063
0.0378998
0.0107951
0.0133667
0.0163639
0.0198095
0.0231295
0.0270139
0.0296342
0.0332571
0.0338169
0.036487
0.0109107
0.0132472
0.0160035
0.019252
0.0223387
0.025965
0.028376
0.0317783
0.03214
0.0346856
0.0110549
0.0131357
0.0156425
0.0186665
0.0215299
0.0248834
0.0270761
0.0302879
0.0304701
0.0327714
0.0112162
0.013036
0.0152939
0.0180581
0.0207584
0.0238324
0.0258267
0.0288592
0.0288897
0.0309709
0.0113834
0.0129484
0.0149506
0.0174614
0.0199791
0.0228061
0.0246569
0.0274967
0.0274321
0.0293588
0.0115459
0.012875
0.014611
0.0168796
0.019194
0.021787
0.0235651
0.0261677
0.0261045
0.0279046
0.0116922
0.0128168
0.0142774
0.0163099
0.0184179
0.0208073
0.0225042
0.0248589
0.0249074
0.0265419
0.00989207
0.0105659
0.0108485
0.0110781
0.0112382
0.0113279
0.0113556
0.0113343
0.011295
0.0112071
0.0100701
0.01073
0.0109854
0.0111729
0.0112803
0.0113105
0.0112758
0.0111915
0.011088
0.0109379
0.0103331
0.0109468
0.011165
0.011303
0.0113523
0.0113196
0.0112203
0.0110722
0.010907
0.0106988
0.0106885
0.0112232
0.0113952
0.0114771
0.0114646
0.0113675
0.011204
0.0109938
0.0107693
0.0105061
0.0111412
0.0115647
0.011682
0.0117024
0.0116255
0.0114642
0.0112384
0.010969
0.0106878
0.0103723
0.0116916
0.0119741
0.0120291
0.0119834
0.0118406
0.011616
0.0113306
0.011006
0.0106714
0.0103101
0.0123342
0.01245
0.0124362
0.0123205
0.012111
0.0118246
0.0114831
0.0111076
0.0107239
0.0103116
0.0130584
0.0129867
0.0128988
0.0127099
0.0124333
0.0120873
0.0116931
0.0112713
0.0108425
0.010386
0.0138478
0.0135738
0.0134067
0.0131428
0.0127996
0.0123965
0.0119534
0.0114894
0.0110204
0.0105295
0.0146707
0.0141929
0.0139451
0.0136059
0.0131978
0.0127406
0.0122527
0.0117512
0.0112474
0.0107304
0.0154843
0.014817
0.0144935
0.0140822
0.0136125
0.0131054
0.0125774
0.0120431
0.0115107
0.0109749
0.0162979
0.0154383
0.0150374
0.0145551
0.0140274
0.013475
0.0129122
0.0123505
0.0117962
0.0112489
0.017072
0.0160278
0.015553
0.0150048
0.0144251
0.0138337
0.0132423
0.0126594
0.0120902
0.011539
0.01777
0.0165584
0.0160176
0.0154119
0.0147885
0.0141662
0.0135535
0.0129564
0.0123798
0.0118328
0.0183616
0.0170055
0.0164101
0.0157582
0.0151017
0.0144583
0.0138332
0.0132296
0.0126535
0.0121192
0.0188195
0.0173466
0.0167113
0.0160278
0.0153513
0.0146981
0.0140706
0.0134691
0.0129014
0.0123888
0.0191207
0.0175628
0.0169055
0.0162077
0.0155266
0.0148767
0.0142578
0.0136675
0.0131156
0.0126326
0.0192478
0.0176394
0.016981
0.0162888
0.0156201
0.014988
0.01439
0.0138206
0.0132897
0.0128391
0.0191898
0.0175674
0.0169304
0.0162658
0.0156284
0.0150295
0.0144651
0.0139243
0.0134116
0.012989
0.0189426
0.0173429
0.0167513
0.0161376
0.015552
0.0150037
0.0144866
0.0139823
0.0134857
0.0130889
0.0185074
0.0169673
0.0164447
0.0159059
0.0153943
0.0149193
0.0144784
0.0140624
0.0136871
0.0134594
0.017884
0.0164441
0.0160142
0.0155729
0.0151545
0.0147676
0.0144123
0.0140852
0.0138031
0.0136338
0.0170914
0.0157868
0.0154694
0.0151442
0.0148341
0.0145459
0.0142808
0.0140393
0.0138333
0.0136956
0.0161523
0.0150128
0.0148231
0.0146291
0.0144403
0.0142609
0.014094
0.0139434
0.013818
0.0137327
0.0150929
0.0141426
0.0140912
0.0140403
0.0139837
0.0139229
0.0138627
0.01381
0.0137722
0.0137567
0.0139432
0.0131998
0.0132929
0.0133929
0.0134771
0.013543
0.0135972
0.0136489
0.0137048
0.013769
0.0127355
0.0122101
0.0124487
0.0127036
0.0129343
0.0131333
0.0133081
0.0134698
0.0136255
0.013778
0.0115022
0.0111989
0.0115798
0.0119896
0.0123693
0.0127054
0.0130055
0.0132819
0.0135428
0.0137916
0.0102751
0.0101908
0.0107067
0.0112671
0.0117953
0.0122703
0.0126985
0.0130928
0.013463
0.0138148
0.00909519
0.00921273
0.00985015
0.0105523
0.0112247
0.0118374
0.0123944
0.0129085
0.0133903
0.0138501
0.00802075
0.00830294
0.00903625
0.00986358
0.0106704
0.011416
0.0120999
0.0127332
0.0133272
0.013898
0.00699663
0.00744579
0.00826418
0.00920572
0.0101378
0.0110101
0.0118174
0.0125682
0.0132726
0.0139546
0.00605656
0.00666089
0.0075496
0.00858846
0.00963372
0.0106239
0.0115487
0.0124131
0.0132237
0.0140121
0.00522248
0.00596263
0.00690438
0.00802118
0.00916305
0.0102597
0.0112938
0.0122659
0.0131769
0.0140596
0.0045028
0.00535807
0.00633441
0.00750864
0.00872956
0.00991895
0.0110519
0.0121229
0.013126
0.0140969
0.00390077
0.00485012
0.00584322
0.00705413
0.00833513
0.00960179
0.0108217
0.0119823
0.0130674
0.0141159
0.00341644
0.0044388
0.00543233
0.00665949
0.00798068
0.00930798
0.0106021
0.0118427
0.0129997
0.0141075
0.00304668
0.00412165
0.00510115
0.00632503
0.00766627
0.00903682
0.0103918
0.0117037
0.0129247
0.014072
0.00278574
0.00389415
0.00484724
0.00604979
0.00739119
0.00878717
0.0101896
0.0115673
0.0128556
0.0140293
0.00262632
0.00375044
0.00466679
0.00583167
0.00715375
0.00855649
0.00999057
0.0114255
0.0127991
0.0140213
0.00255818
0.00368249
0.00455385
0.00566674
0.00695092
0.00834204
0.00979446
0.0112917
0.0128582
0.0144111
0.00256027
0.00367728
0.00450051
0.00555083
0.00677884
0.00813317
0.00956914
0.0110592
0.0126243
0.0141681
0.0026327
0.00373177
0.00450327
0.00548189
0.00663694
0.00792966
0.00931735
0.010762
0.0122687
0.013754
0.00276826
0.00383906
0.0045568
0.005458
0.00652846
0.0077427
0.00906446
0.0104553
0.0119118
0.0133496
0.00295671
0.00399087
0.00465505
0.00547695
0.0064565
0.00758203
0.0088265
0.0101554
0.0115605
0.0129557
0.00318829
0.00417943
0.00479192
0.00553572
0.00642216
0.00745283
0.00861105
0.00986777
0.0112123
0.0125632
0.00345415
0.00439762
0.00496135
0.00563048
0.00642482
0.00735786
0.00842364
0.00959979
0.0108746
0.0121762
0.00374613
0.00463866
0.00515721
0.00575673
0.0064626
0.00729831
0.00826841
0.009358
0.0105557
0.0118018
0.00405705
0.00489632
0.00537342
0.00590936
0.00653233
0.00727363
0.00814742
0.00914666
0.0102613
0.011446
0.00438265
0.00516731
0.00560613
0.00608443
0.00663087
0.00728227
0.00806112
0.00896813
0.00999518
0.0111133
0.00472166
0.00545255
0.0058561
0.00628224
0.00675847
0.00732503
0.0080113
0.00882531
0.00976098
0.0108072
0.00505729
0.00573597
0.00610816
0.00648893
0.00690327
0.00739267
0.00799162
0.00871464
0.00955716
0.0105257
0.00539
0.00601846
0.0063622
0.00670323
0.00706305
0.00748268
0.00799992
0.00863469
0.00938287
0.0102663
0.00571903
0.00629911
0.00661666
0.00692263
0.00723462
0.00759165
0.00803314
0.0085831
0.00923652
0.0100272
0.00604295
0.00657615
0.00686923
0.00714414
0.00741434
0.0077158
0.00808791
0.00855725
0.00911626
0.0098061
0.00636097
0.00684841
0.00711835
0.00736553
0.00759933
0.00785193
0.00816128
0.00855499
0.00902077
0.0096008
0.00667302
0.00711541
0.00736325
0.00758546
0.00778763
0.00799771
0.00825122
0.00857541
0.00895084
0.00941134
0.00697942
0.00737713
0.00760384
0.00780358
0.00797838
0.00815192
0.00835665
0.00861895
0.00891015
0.00924101
0.00728056
0.00763378
0.00784061
0.0080206
0.00817252
0.00831571
0.00847893
0.00868703
0.00890128
0.00908775
0.00757643
0.00788557
0.0080744
0.00823829
0.00837339
0.00849596
0.00863152
0.00880472
0.00897993
0.00905447
0.00786699
0.00813258
0.00830574
0.00845777
0.00858363
0.0086997
0.00883544
0.00903849
0.0093877
0.00992328
0.00815347
0.00837476
0.00853441
0.00867868
0.00880068
0.00891486
0.00904874
0.00924582
0.00958048
0.0100598
0.00843183
0.00861054
0.00875952
0.00889996
0.00902218
0.00913676
0.00926616
0.00944461
0.00972498
0.010103
0.00869842
0.00883794
0.00897954
0.00912016
0.00924699
0.00936613
0.00949496
0.00966104
0.00990274
0.0102118
0.0089497
0.0090543
0.00919241
0.0093372
0.00947293
0.00960102
0.00973361
0.00989201
0.010104
0.010363
0.00918077
0.00925736
0.0093957
0.00954841
0.00969683
0.0098377
0.00997776
0.0101322
0.0103207
0.0105414
0.0093871
0.00944481
0.00958631
0.0097508
0.00991521
0.0100721
0.0102232
0.0103779
0.0105499
0.0107413
0.00956473
0.00961362
0.00976213
0.00994112
0.0101244
0.0103001
0.0104653
0.0106246
0.0107866
0.0109558
0.0097101
0.00976175
0.00992063
0.0101167
0.0103207
0.0105172
0.010699
0.0108665
0.0110244
0.0111763
0.0098189
0.00988705
0.0100599
0.0102751
0.010501
0.0107191
0.0109189
0.0110972
0.0112558
0.0113939
)
;

boundaryField
{
    inlet
    {
        type            zeroGradient;
    }
    outlet
    {
        type            fixedValue;
        value           uniform 0;
    }
    cylinder
    {
        type            zeroGradient;
    }
    top
    {
        type            symmetryPlane;
    }
    bottom
    {
        type            symmetryPlane;
    }
    defaultFaces
    {
        type            empty;
    }
}


// ************************************************************************* //
