/*--------------------------------*- C++ -*----------------------------------*\
  =========                 |
  \\      /  F ield         | OpenFOAM: The Open Source CFD Toolbox
   \\    /   O peration     | Website:  https://openfoam.org
    \\  /    A nd           | Version:  7
     \\/     M anipulation  |
\*---------------------------------------------------------------------------*/
FoamFile
{
    version     2.0;
    format      ascii;
    class       volVectorField;
    location    "81";
    object      U;
}
// * * * * * * * * * * * * * * * * * * * * * * * * * * * * * * * * * * * * * //

dimensions      [0 1 -1 0 0 0 0];

internalField   nonuniform List<vector> 
2000
(
(-0.000142151 -0.00551029 -2.40015e-22)
(-9.96214e-06 -0.0128449 0)
(0.000582329 -0.0168824 0)
(0.00158427 -0.0181089 -1.22989e-21)
(0.00294297 -0.0168279 3.99393e-22)
(0.00463107 -0.0132384 1.53805e-23)
(0.00664237 -0.00748801 -6.87374e-22)
(0.0089688 0.000279871 0)
(0.0115804 0.0098899 0)
(0.0143336 0.0211129 0)
(0.000367958 -0.00532862 0)
(0.00140453 -0.0128807 -9.38159e-22)
(0.00276389 -0.0172124 8.65169e-22)
(0.00425936 -0.0187775 1.64293e-21)
(0.00585051 -0.0178864 0)
(0.00752713 -0.014756 1.50064e-21)
(0.00930747 -0.0095392 -1.39549e-21)
(0.0112169 -0.00235879 0)
(0.0132742 0.00666218 2.55868e-21)
(0.0153522 0.0173708 -4.92495e-21)
(0.000921622 -0.00522654 0)
(0.00303898 -0.0130041 7.4911e-21)
(0.00537785 -0.0175698 0)
(0.00756763 -0.0193961 6.69703e-21)
(0.00957832 -0.0188159 0)
(0.0114153 -0.0160774 -6.03881e-21)
(0.0131193 -0.0113511 0)
(0.0147463 -0.00474972 5.46961e-21)
(0.0163657 0.0036504 -5.12261e-21)
(0.0178631 0.0137673 -5.01345e-21)
(0.00155421 -0.00523257 -1.94893e-21)
(0.00494296 -0.0132466 -3.73982e-21)
(0.00846085 -0.0179689 -1.75162e-21)
(0.0115282 -0.019956 -3.28972e-21)
(0.0141288 -0.0195795 -3.14721e-21)
(0.0162876 -0.0171308 2.97213e-21)
(0.0180698 -0.0128098 2.85153e-21)
(0.0195606 -0.0067327 -2.50929e-23)
(0.020879 0.00106131 5.17135e-21)
(0.0219245 0.0105481 5.01126e-21)
(0.00230616 -0.00536589 -1.91634e-21)
(0.00716633 -0.0136243 -3.81473e-21)
(0.0120374 -0.0184122 -7.24274e-21)
(0.0161303 -0.020446 3.33287e-21)
(0.0194546 -0.0201508 0)
(0.0220654 -0.01787 0)
(0.0240589 -0.0138425 -5.85272e-21)
(0.0255513 -0.00819975 -5.54865e-21)
(0.0267091 -0.000955486 5.23525e-21)
(0.0274514 0.00790647 1.5085e-20)
(0.00322056 -0.00563185 1.94635e-21)
(0.00975232 -0.01413 1.97931e-21)
(0.0161102 -0.0188856 -1.07363e-20)
(0.0213241 -0.0208505 1.70629e-20)
(0.0254495 -0.0205162 -3.18166e-21)
(0.0285879 -0.0182833 0)
(0.0308787 -0.0144342 0)
(0.0324752 -0.00912382 2.7639e-20)
(0.0335898 -0.00234997 -2.61329e-20)
(0.0341681 0.00592765 4.95938e-21)
(0.00433768 -0.00601761 1.51666e-20)
(0.0127294 -0.0147313 0)
(0.0206524 -0.0193569 1.43513e-20)
(0.0270148 -0.0211494 -1.36187e-20)
(0.0319452 -0.0206757 0)
(0.0356129 -0.018395 6.19117e-21)
(0.0382166 -0.0146334 -1.73582e-20)
(0.0399575 -0.00957252 -2.20787e-20)
(0.0410935 -0.00319931 1.03587e-20)
(0.0416012 0.0045463 1.00337e-20)
(0.00568894 -0.00649171 -3.03125e-20)
(0.0161023 -0.0153712 -3.85848e-21)
(0.0256012 -0.019777 -7.26528e-21)
(0.0330611 -0.0213175 -1.70986e-20)
(0.0387176 -0.0206403 -6.54847e-21)
(0.0428319 -0.01826 -6.17919e-21)
(0.0456797 -0.0145428 5.58785e-23)
(0.0475243 -0.00969788 0)
(0.0486742 -0.00370258 0)
(0.0491374 0.00354001 5.70818e-23)
(0.00729118 -0.00700594 1.51462e-20)
(0.0198442 -0.0159717 -1.53608e-20)
(0.0308537 -0.0200842 1.08071e-20)
(0.0392789 -0.0213284 2.40653e-20)
(0.0455008 -0.0204316 -6.41987e-21)
(0.049898 -0.0179547 6.18379e-21)
(0.0528385 -0.0142972 5.82432e-21)
(0.0546596 -0.00969568 0)
(0.0557338 -0.00412297 0)
(0.0561145 0.00257577 -2.45502e-22)
(0.00914223 -0.00750003 -1.90205e-21)
(0.023891 -0.0164421 1.92734e-20)
(0.0362661 -0.0202124 -3.60557e-21)
(0.0454492 -0.0211604 0)
(0.0520086 -0.0200824 0)
(0.0564653 -0.0175694 1.22183e-20)
(0.0592914 -0.0140395 0)
(0.0609 -0.00975284 -1.0706e-20)
(0.0617291 -0.00470312 2.23551e-23)
(0.0619104 0.00128483 9.57461e-21)
(0.0201738 0.0491287 1.88652e-22)
(0.0335299 0.109679 -1.90798e-22)
(0.0411698 0.169333 -2.15977e-22)
(0.0419197 0.223954 -2.44573e-22)
(0.037221 0.278596 -2.99188e-22)
(0.0330005 0.337026 -1.05976e-23)
(0.0215134 0.402872 1.57199e-22)
(0.0184491 0.488678 5.61759e-22)
(-0.00122669 0.616196 0)
(0.00554265 0.769395 -4.10749e-22)
(0.0191078 0.0445535 7.27097e-22)
(0.0304931 0.104749 -8.20894e-22)
(0.0385016 0.166788 1.46719e-21)
(0.039743 0.223341 2.44978e-22)
(0.0354858 0.279142 5.2898e-22)
(0.0316056 0.338329 9.09755e-22)
(0.020626 0.404712 -3.4e-22)
(0.0176816 0.490914 -3.76859e-22)
(-0.00115801 0.617918 7.336e-22)
(0.00512572 0.769627 4.09777e-22)
(0.0195343 0.0398341 0)
(0.0281109 0.0988342 -7.92561e-22)
(0.0362058 0.163051 -4.24915e-22)
(0.0378481 0.221668 0)
(0.033977 0.278754 -1.62856e-21)
(0.0304115 0.33879 5.08818e-22)
(0.0198795 0.405759 5.71661e-22)
(0.0170127 0.492347 2.03125e-21)
(-0.00105445 0.619179 -7.31224e-22)
(0.00475295 0.769676 1.47841e-21)
(0.0216299 0.0352399 0)
(0.0265132 0.0921484 7.99212e-22)
(0.03429 0.158142 0)
(0.0362204 0.218916 1.89602e-21)
(0.032679 0.277426 -1.90586e-21)
(0.0294011 0.338407 -1.1569e-21)
(0.0192602 0.405981 -7.02848e-23)
(0.0164508 0.49292 -1.98716e-21)
(-0.000917953 0.619734 -3.24907e-22)
(0.00440371 0.769357 -1.8181e-21)
(0.0254421 0.0310205 3.65464e-23)
(0.0258692 0.0849872 -2.2859e-21)
(0.0327715 0.152119 7.39365e-23)
(0.0348472 0.215084 -1.69518e-21)
(0.0315746 0.275162 0)
(0.0285542 0.337216 -1.10548e-21)
(0.018749 0.405484 -9.36112e-23)
(0.0159749 0.492879 2.49663e-21)
(-0.000773279 0.619977 3.29861e-22)
(0.00408071 0.768989 -3.31066e-22)
(0.0307967 0.0273517 -6.18426e-21)
(0.0263484 0.0776968 3.9123e-21)
(0.0316841 0.145098 1.65964e-21)
(0.0337192 0.210187 -1.65884e-21)
(0.0306504 0.271953 -9.04225e-22)
(0.0278606 0.33516 0)
(0.018347 0.404117 -2.212e-21)
(0.0156003 0.49186 1.10616e-21)
(-0.000604596 0.619247 1.20754e-21)
(0.00376356 0.768141 1.25899e-21)
(0.037241 0.0243045 -7.42538e-22)
(0.0280363 0.070637 0)
(0.0310774 0.137264 0)
(0.032829 0.20427 0)
(0.0298847 0.267875 -9.63152e-22)
(0.0272951 0.332467 1.86451e-21)
(0.0180219 0.402331 2.15648e-21)
(0.0152702 0.490694 -3.36086e-21)
(-0.000462346 0.618748 5.93999e-22)
(0.00347454 0.767533 -1.8352e-21)
(0.044044 0.0218116 4.65584e-21)
(0.0308108 0.0640276 3.18274e-21)
(0.0309874 0.128868 -3.15381e-21)
(0.0321796 0.197389 3.36105e-21)
(0.0292759 0.262721 -4.1741e-21)
(0.0268646 0.328609 0)
(0.0178103 0.399206 -9.70261e-22)
(0.0150663 0.487871 4.89163e-23)
(-0.000271623 0.616511 -1.0708e-21)
(0.00317366 0.766115 -1.13021e-21)
(0.0502125 0.0194742 -3.94993e-21)
(0.0342286 0.0575174 0)
(0.0313935 0.119778 -3.55041e-21)
(0.0317266 0.18978 6.40267e-21)
(0.0287859 0.257393 -2.38439e-21)
(0.0265112 0.325173 -4.39049e-22)
(0.0176057 0.396998 9.68167e-22)
(0.014801 0.48654 1.01102e-23)
(-0.000188686 0.616021 1.54766e-21)
(0.00291218 0.76553 1.64119e-21)
(0.0544606 0.0171157 -3.19093e-21)
(0.0375106 0.0510433 3.11971e-21)
(0.0322859 0.109344 3.93235e-22)
(0.0315658 0.179234 0)
(0.0284093 0.248306 0)
(0.026338 0.317725 4.31028e-22)
(0.0176422 0.39056 1.82749e-21)
(0.0148494 0.480583 -1.77538e-21)
(6.90723e-05 0.611401 -4.79043e-22)
(0.00261109 0.763352 4.63464e-22)
(0.0564636 0.0186741 0)
(0.0416886 0.0484166 0)
(0.034138 0.102341 0)
(0.0320743 0.173944 0)
(0.0281529 0.246425 0)
(0.0252646 0.3185 0)
(0.016746 0.392847 0)
(0.0136796 0.484151 0)
(-0.000226041 0.614237 0)
(0.00205536 0.763144 0)
(0.0580162 0.0356153 0)
(0.0449309 0.0674843 0)
(0.0346131 0.114113 0)
(0.0308312 0.179737 0)
(0.027 0.25099 0)
(0.0238571 0.323715 0)
(0.0158806 0.399538 0)
(0.0124435 0.492246 0)
(-0.000200824 0.620999 0)
(0.00155931 0.764205 0)
(0.055132 0.0411059 0)
(0.0460616 0.0773959 0)
(0.0355048 0.122888 0)
(0.0299812 0.18586 0)
(0.0256462 0.256401 0)
(0.0222219 0.329079 0)
(0.0148528 0.405335 0)
(0.0112702 0.498292 0)
(-0.000233979 0.62566 0)
(0.00116361 0.764313 0)
(0.0501461 0.0445237 0)
(0.0446017 0.085053 0)
(0.0354427 0.130249 0)
(0.0293094 0.19122 0)
(0.0246628 0.261639 0)
(0.0209833 0.335181 0)
(0.0140778 0.412781 0)
(0.0103913 0.506695 0)
(-1.60098e-05 0.632472 0)
(0.000931011 0.765454 0)
(0.0445705 0.045965 0)
(0.041635 0.0910979 0)
(0.0342778 0.137147 0)
(0.0282929 0.196263 0)
(0.023565 0.265748 0)
(0.019759 0.339336 0)
(0.0132672 0.417372 0)
(0.00952755 0.511433 0)
(-3.53516e-05 0.635991 0)
(0.00067252 0.765297 0)
(0.0386185 0.045585 0)
(0.0378274 0.0951907 0)
(0.0321432 0.142982 0)
(0.0268236 0.20136 0)
(0.0225352 0.270634 0)
(0.0188568 0.345022 0)
(0.0127793 0.424453 0)
(0.00896677 0.519533 0)
(0.000243941 0.642418 0)
(0.000551782 0.766268 0)
(0.0325845 0.0435468 0)
(0.03388 0.0977269 0)
(0.0299613 0.148023 0)
(0.0251719 0.205652 0)
(0.0211661 0.273877 0)
(0.0177396 0.347991 0)
(0.0121309 0.427581 0)
(0.00836556 0.522637 0)
(0.000218257 0.644623 0)
(0.000386609 0.765886 0)
(0.0264401 0.0395587 0)
(0.0294639 0.0975956 0)
(0.0272759 0.15116 0)
(0.0236275 0.210108 0)
(0.0202117 0.278875 0)
(0.0170113 0.353965 0)
(0.0118139 0.434989 0)
(0.00801823 0.531025 0)
(0.000583348 0.651114 0)
(0.000357836 0.766857 0)
(0.0215479 0.036001 0)
(0.0267614 0.0981745 0)
(0.025798 0.154154 0)
(0.0223818 0.21261 0)
(0.0191694 0.28063 0)
(0.0162146 0.355504 0)
(0.011347 0.436629 0)
(0.0076451 0.532532 0)
(0.000553467 0.652165 0)
(0.000271857 0.766516 0)
(0.0146527 0.0231719 0)
(0.0215652 0.0906355 0)
(0.0238136 0.154072 0)
(0.0220271 0.216725 0)
(0.0191231 0.286102 0)
(0.0161138 0.362259 0)
(0.0114414 0.444968 0)
(0.00755242 0.541898 0)
(0.00106171 0.659235 0)
(0.000315251 0.767655 0)
(0.064533 0.00790729 2.7783e-21)
(0.0625734 0.0156027 -2.73134e-21)
(0.0568745 0.0171054 2.34208e-22)
(0.0504112 0.0169792 0)
(0.0437137 0.0153542 0)
(0.0366926 0.0125229 6.80888e-23)
(0.0296647 0.0085702 -8.0011e-23)
(0.02272 0.00317815 7.86299e-23)
(0.0165507 -0.00174795 -1.37975e-23)
(0.00899344 -0.0132428 1.35569e-23)
(0.0657547 0.00347705 -3.68533e-21)
(0.0619481 0.00718462 0)
(0.0554944 0.00674514 1.31466e-21)
(0.0487952 0.00514517 -2.60711e-21)
(0.0420021 0.00235827 1.28695e-21)
(0.0349212 -0.00134197 -6.65825e-23)
(0.0278293 -0.00594522 5.95882e-23)
(0.020887 -0.0117529 1.27654e-23)
(0.0143998 -0.017121 -2.20017e-23)
(0.00733127 -0.0277004 -2.42912e-23)
(0.066105 -0.0011845 4.14965e-21)
(0.0608329 -0.00100222 -1.90695e-21)
(0.0539597 -0.00333276 1.88861e-21)
(0.0471043 -0.00643171 -1.02858e-21)
(0.0402196 -0.0103976 8.07727e-22)
(0.0330858 -0.0149616 0)
(0.0259385 -0.0201673 -5.97244e-23)
(0.0190138 -0.0262467 1.09754e-24)
(0.0123725 -0.0318247 8.54666e-24)
(0.00587829 -0.0411363 3.7064e-23)
(0.0656976 -0.00672791 -6.30436e-22)
(0.0592327 -0.00956292 0)
(0.0521841 -0.0135183 0)
(0.045259 -0.0179385 0)
(0.0383375 -0.0229371 5.19888e-22)
(0.0311909 -0.0282274 -3.19504e-22)
(0.0240336 -0.0338917 2.3477e-23)
(0.0171492 -0.0400618 7.51843e-24)
(0.0105235 -0.0455931 8.186e-24)
(0.00459261 -0.0534877 1.56709e-23)
(0.0644457 -0.0132422 -4.43959e-22)
(0.057068 -0.0185754 -1.68144e-21)
(0.0500472 -0.0238743 -6.72532e-22)
(0.0431344 -0.0293697 6.72051e-22)
(0.0362589 -0.0351887 -1.97897e-22)
(0.0291672 -0.041007 0)
(0.022087 -0.0469409 -5.98776e-23)
(0.015319 -0.0530091 2.38167e-23)
(0.00886894 -0.0582611 -7.92234e-24)
(0.0035223 -0.0647343 -2.41083e-23)
(0.0624412 -0.0206002 -4.65384e-21)
(0.0544513 -0.027897 7.76162e-22)
(0.0476231 -0.0342914 1.9903e-22)
(0.0407892 -0.0406022 6.62099e-22)
(0.0340312 -0.0470177 0)
(0.027065 -0.053151 0)
(0.0201409 -0.0591591 0)
(0.0135725 -0.0649511 2.6319e-23)
(0.00742409 -0.0697489 0)
(0.00266759 -0.0748941 0)
(0.0597658 -0.0285951 0)
(0.0515011 -0.0373052 1.32313e-21)
(0.0449881 -0.0445933 -8.51892e-22)
(0.0383009 -0.0514664 -4.8114e-22)
(0.0317235 -0.0582684 4.8361e-22)
(0.0249491 -0.0645169 9.94442e-23)
(0.0182503 -0.0704245 -1.24585e-22)
(0.0119553 -0.0758059 -1.19565e-22)
(0.00619383 -0.080045 9.53402e-24)
(0.00200256 -0.0840167 6.56185e-24)
(0.0565102 -0.0369675 0)
(0.0483219 -0.0465758 -4.71543e-22)
(0.0422115 -0.0545882 -1.90207e-22)
(0.0357343 -0.0617913 0)
(0.0293961 -0.0687972 6.48308e-23)
(0.0228745 -0.0749914 -2.3979e-22)
(0.0164597 -0.0806611 1.03941e-22)
(0.0104969 -0.0855478 4.26189e-24)
(0.00516915 -0.0891907 -7.92213e-24)
(0.00149603 -0.0921731 -6.83066e-24)
(0.0528027 -0.0454714 6.32619e-22)
(0.0449951 -0.0555131 4.27901e-22)
(0.0393541 -0.0641055 -1.45297e-22)
(0.0331493 -0.071434 7.41503e-23)
(0.0271012 -0.0784952 1.04196e-22)
(0.0208864 -0.0845051 1.06244e-22)
(0.0148004 -0.0898435 -2.29243e-23)
(0.00921055 -0.0942019 -1.22287e-23)
(0.00433044 -0.0972654 7.94804e-24)
(0.00111711 -0.0994471 5.11627e-25)
(0.048777 -0.0539008 -1.32993e-22)
(0.0415941 -0.0639669 1.34186e-22)
(0.0364711 -0.0730152 -9.64998e-23)
(0.0306005 -0.0802977 -7.40378e-23)
(0.0248824 -0.0872996 4.65501e-23)
(0.0190188 -0.0930376 -8.38628e-23)
(0.0132905 -0.0979935 3.22333e-23)
(0.00809548 -0.101833 2.85551e-24)
(0.00365198 -0.104371 0)
(0.000837045 -0.105927 -5.12715e-25)
(0.0445859 -0.062096 1.36444e-22)
(0.0382016 -0.0718428 -1.37613e-22)
(0.0336237 -0.0812365 -1.02073e-22)
(0.0281439 -0.0883383 -7.93447e-23)
(0.0227781 -0.0951962 -4.91732e-23)
(0.017297 -0.100615 7.54011e-24)
(0.0119382 -0.105172 1.73136e-23)
(0.00714155 -0.108535 2.69371e-23)
(0.00310654 -0.110619 0)
(0.000630903 -0.111702 -2.23e-24)
(0.0403878 -0.0699576 0)
(0.0349082 -0.079101 -4.61165e-22)
(0.030874 -0.0887357 7.78513e-22)
(0.0258322 -0.0955617 7.94615e-23)
(0.02082 -0.102213 1.25096e-22)
(0.0157377 -0.107301 1.3192e-22)
(0.010743 -0.111469 -2.77258e-23)
(0.00633316 -0.114414 -1.64022e-23)
(0.00266867 -0.116122 1.94224e-23)
(0.000478755 -0.116859 2.22471e-24)
(0.0363072 -0.0774438 0)
(0.0317849 -0.0857539 -5.35425e-22)
(0.0282632 -0.0955194 -2.12173e-22)
(0.0236991 -0.102017 0)
(0.0190247 -0.108413 -3.45768e-22)
(0.0143442 -0.113185 1.32147e-22)
(0.0096968 -0.116987 8.02721e-23)
(0.00565149 -0.119585 1.33471e-22)
(0.00231607 -0.120989 -1.9359e-23)
(0.000365415 -0.121482 1.4209e-23)
(0.0324309 -0.0845565 0)
(0.0288787 -0.0918631 5.39863e-22)
(0.0258123 -0.101628 0)
(0.0217583 -0.10779 6.2252e-22)
(0.0173954 -0.113883 -6.2575e-22)
(0.0131089 -0.118376 -1.66461e-22)
(0.00878589 -0.121842 3.63612e-23)
(0.00507672 -0.124161 -1.39115e-22)
(0.00203014 -0.125324 -2.55784e-23)
(0.00027949 -0.12565 -2.18718e-23)
(0.0288204 -0.0913264 5.56578e-21)
(0.0262264 -0.0975332 -2.08576e-21)
(0.0235353 -0.107126 -2.02467e-22)
(0.0200126 -0.112988 -8.4089e-22)
(0.0159301 -0.118727 0)
(0.0120193 -0.122991 -1.77889e-22)
(0.00799536 -0.126146 5.84386e-23)
(0.00459058 -0.128251 2.10197e-22)
(0.00179636 -0.129222 8.62233e-24)
(0.00021279 -0.129443 -8.61577e-24)
(0.025509 -0.0977902 4.85127e-22)
(0.0238587 -0.102906 3.24755e-21)
(0.021447 -0.112093 8.80301e-22)
(0.0184597 -0.117734 -8.79761e-22)
(0.0146272 -0.123059 -3.07117e-22)
(0.0110625 -0.127145 0)
(0.00731215 -0.130012 -2.90314e-22)
(0.00417801 -0.131957 1.55442e-22)
(0.00160415 -0.132775 7.89754e-23)
(0.000159697 -0.132937 1.99358e-23)
(0.0225155 -0.103963 -7.81483e-22)
(0.021816 -0.108151 0)
(0.019579 -0.116622 0)
(0.0171014 -0.122151 0)
(0.0134917 -0.126994 -2.43659e-22)
(0.0102301 -0.130951 5.50158e-22)
(0.00672759 -0.133546 2.98835e-22)
(0.00382829 -0.135377 -3.54959e-22)
(0.00144656 -0.13607 2.03975e-23)
(0.000116433 -0.13621 -3.99345e-23)
(0.0198357 -0.109811 -1.80796e-21)
(0.0201144 -0.113454 2.41228e-21)
(0.0179556 -0.120813 -2.38951e-21)
(0.0159237 -0.126355 1.53328e-21)
(0.0125208 -0.130647 -1.86013e-21)
(0.00950895 -0.134516 0)
(0.00623152 -0.136847 -1.81402e-22)
(0.00353149 -0.1386 -7.82072e-24)
(0.00131807 -0.139189 -6.75132e-23)
(7.99653e-05 -0.139334 -2.26851e-23)
(0.01722 -0.115198 -8.47958e-22)
(0.0185109 -0.118991 0)
(0.0164541 -0.124774 -2.35728e-21)
(0.0148 -0.130451 3.6605e-21)
(0.0116373 -0.13413 -1.25771e-21)
(0.00883908 -0.137938 -1.34744e-22)
(0.00578667 -0.14001 1.80989e-22)
(0.00326452 -0.141709 2.25237e-23)
(0.00120863 -0.142209 1.38929e-22)
(4.87263e-05 -0.142386 4.51452e-23)
(0.0146432 -0.119751 -3.42886e-21)
(0.0168963 -0.124922 3.35257e-21)
(0.0150873 -0.128658 3.04629e-22)
(0.0137174 -0.134552 0)
(0.0108292 -0.137566 0)
(0.00821679 -0.141321 1.38724e-22)
(0.00538834 -0.14313 3.3657e-22)
(0.00302692 -0.144789 -3.30306e-22)
(0.00111925 -0.14521 -2.49697e-23)
(3.43173e-05 -0.14544 2.44387e-23)
(0.0143899 -0.126746 0)
(0.0171816 -0.139131 0)
(0.014859 -0.137709 0)
(0.0132383 -0.144341 0)
(0.010364 -0.145857 0)
(0.0077313 -0.149579 0)
(0.00506152 -0.150775 0)
(0.00283163 -0.15235 0)
(0.0010853 -0.152549 0)
(6.84503e-05 -0.152862 0)
(0.0135986 -0.14981 0)
(0.0124065 -0.163547 0)
(0.0105311 -0.158539 0)
(0.00897096 -0.165283 0)
(0.00693944 -0.164564 0)
(0.00516409 -0.168018 0)
(0.00336028 -0.16802 0)
(0.00191954 -0.169422 0)
(0.000753938 -0.169131 0)
(7.81627e-05 -0.169525 0)
(0.014075 -0.17826 0)
(0.0115917 -0.193123 0)
(0.0095029 -0.185408 0)
(0.00760706 -0.192592 0)
(0.00578885 -0.189995 0)
(0.0041876 -0.19358 0)
(0.00273979 -0.192536 0)
(0.00159181 -0.194028 0)
(0.000675522 -0.193246 0)
(9.16914e-05 -0.193801 0)
(0.0141078 -0.214023 0)
(0.0107527 -0.230068 0)
(0.00870762 -0.220443 0)
(0.00655641 -0.228434 0)
(0.00500419 -0.224287 0)
(0.00349555 -0.228372 0)
(0.00235481 -0.22638 0)
(0.00137397 -0.228207 0)
(0.000641423 -0.226904 0)
(9.29075e-05 -0.227736 0)
(0.0138111 -0.257924 0)
(0.0100386 -0.274311 0)
(0.00809068 -0.264057 0)
(0.00575518 -0.272731 0)
(0.00444913 -0.267653 0)
(0.00295987 -0.272351 0)
(0.00207934 -0.269648 0)
(0.00116682 -0.271938 0)
(0.000597231 -0.270169 0)
(6.756e-05 -0.271382 0)
(0.0128687 -0.307781 0)
(0.00909407 -0.322785 0)
(0.00733246 -0.313737 0)
(0.00497409 -0.322255 0)
(0.00390136 -0.317287 0)
(0.00243793 -0.322207 0)
(0.00177134 -0.319301 0)
(0.000884127 -0.321884 0)
(0.000481266 -0.319886 0)
(7.26469e-06 -0.321415 0)
(0.0110443 -0.357883 0)
(0.00768851 -0.369855 0)
(0.00619337 -0.36365 0)
(0.00405912 -0.370861 0)
(0.00320167 -0.367115 0)
(0.00186129 -0.371484 0)
(0.00135529 -0.369037 0)
(0.000529605 -0.371434 0)
(0.000289586 -0.369613 0)
(-6.32582e-05 -0.371157 0)
(0.00841532 -0.400924 0)
(0.00580055 -0.409243 0)
(0.00465616 -0.406501 0)
(0.00298015 -0.411672 0)
(0.0023397 -0.409743 0)
(0.00125947 -0.412911 0)
(0.000882772 -0.41138 0)
(0.000207497 -0.41311 0)
(0.000100367 -0.411809 0)
(-0.000101925 -0.412986 0)
(0.00523422 -0.43132 0)
(0.00357504 -0.43662 0)
(0.00286298 -0.436763 0)
(0.001803 -0.440012 0)
(0.00140623 -0.439725 0)
(0.000704997 -0.441615 0)
(0.000464676 -0.44101 0)
(2.17866e-05 -0.441944 0)
(-7.0573e-06 -0.441233 0)
(-8.97882e-05 -0.44188 0)
(0.00177419 -0.446706 0)
(0.00119835 -0.450397 0)
(0.000963809 -0.452104 0)
(0.000599367 -0.454243 0)
(0.00046838 -0.45488 0)
(0.000223613 -0.455987 0)
(0.000141493 -0.455934 0)
(-1.45238e-05 -0.456362 0)
(-1.66073e-05 -0.456031 0)
(-3.55581e-05 -0.456318 0)
(0.0141999 -0.135822 3.999e-21)
(0.0150209 -0.160396 -3.9214e-21)
(0.0160931 -0.190555 5.04094e-22)
(0.0163018 -0.227263 0)
(0.0159736 -0.27069 0)
(0.0147956 -0.318266 5.82917e-22)
(0.0126579 -0.36466 -2.50438e-21)
(0.00967017 -0.403687 2.46986e-21)
(0.00605471 -0.430902 6.70966e-22)
(0.00205819 -0.4446 -6.60423e-22)
(0.0144347 -0.140575 -4.73724e-21)
(0.0158489 -0.165075 0)
(0.0170551 -0.195345 3.43844e-21)
(0.0172963 -0.232019 -7.93415e-21)
(0.0169256 -0.275014 5.0923e-21)
(0.0156369 -0.321617 -5.40321e-22)
(0.0133674 -0.366639 1.20414e-21)
(0.0102276 -0.404271 2.54139e-21)
(0.0064217 -0.43043 7.15356e-22)
(0.00218167 -0.443582 6.94436e-22)
(0.014966 -0.145517 5.53083e-21)
(0.0169942 -0.170014 -3.79518e-21)
(0.0182471 -0.200174 3.7592e-21)
(0.0184791 -0.236595 -4.20275e-21)
(0.0180239 -0.278992 3.10945e-21)
(0.0165873 -0.324527 0)
(0.0141464 -0.368177 -1.20706e-21)
(0.010814 -0.404495 6.19343e-23)
(0.00678917 -0.429707 -1.33408e-21)
(0.00229709 -0.442387 -1.36237e-21)
(0.0158271 -0.149961 -8.93808e-22)
(0.0183956 -0.174565 0)
(0.0196471 -0.204668 0)
(0.0198452 -0.240853 0)
(0.0192766 -0.282668 3.46234e-21)
(0.017668 -0.32717 -2.31565e-21)
(0.0150241 -0.369504 -1.61076e-23)
(0.0114598 -0.404556 -1.42498e-21)
(0.00718162 -0.428839 -7.31468e-22)
(0.00241574 -0.44104 -7.83144e-22)
(0.0170855 -0.154005 8.14635e-23)
(0.0200357 -0.178556 -2.69563e-21)
(0.0212348 -0.208563 -2.05234e-21)
(0.0213756 -0.244526 2.05105e-21)
(0.0206713 -0.285806 -1.13109e-21)
(0.0188771 -0.329374 0)
(0.0160113 -0.370524 -1.32808e-21)
(0.0121868 -0.404421 2.90774e-21)
(0.0076232 -0.427837 -1.48808e-21)
(0.00255034 -0.439575 1.53243e-21)
(0.0187775 -0.157715 -7.16378e-21)
(0.0219356 -0.182025 7.79372e-22)
(0.023026 -0.211816 -1.48534e-22)
(0.0230749 -0.247512 2.10709e-21)
(0.0222084 -0.28827 0)
(0.0202124 -0.330995 0)
(0.0171076 -0.371107 0)
(0.013 -0.404004 1.55822e-21)
(0.00812238 -0.426666 0)
(0.00270682 -0.437998 0)
(0.0209141 -0.161 0)
(0.0241115 -0.184952 2.95129e-21)
(0.025046 -0.214424 -1.99426e-21)
(0.0249613 -0.249802 -2.36536e-21)
(0.0239026 -0.290038 2.37766e-21)
(0.0216823 -0.331995 1.41913e-21)
(0.0183154 -0.371206 -1.40778e-21)
(0.013899 -0.403258 -5.56624e-21)
(0.00867824 -0.425298 3.96297e-22)
(0.00288609 -0.4363 -1.35632e-21)
(0.0235042 -0.163741 0)
(0.0265697 -0.187258 -9.5928e-22)
(0.0273117 -0.216346 -5.40999e-22)
(0.0270504 -0.251387 0)
(0.0257707 -0.29112 6.91871e-22)
(0.0233002 -0.33239 -2.08725e-21)
(0.0196427 -0.370829 2.32551e-21)
(0.0148862 -0.402181 8.29824e-22)
(0.00928963 -0.423719 -9.07948e-22)
(0.00308808 -0.434466 1.79947e-21)
(0.0265586 -0.165845 8.63055e-22)
(0.0293152 -0.188882 1.04004e-21)
(0.0298338 -0.217534 -2.30837e-22)
(0.0293513 -0.252242 3.09311e-22)
(0.0278249 -0.291513 6.5814e-22)
(0.0250777 -0.332194 1.10565e-21)
(0.0210987 -0.369994 -4.16005e-22)
(0.0159669 -0.400783 -4.4958e-22)
(0.00995803 -0.421931 9.10939e-22)
(0.00331353 -0.43249 4.93637e-22)
(0.030087 -0.167237 -2.40276e-22)
(0.0323532 -0.189792 2.42535e-22)
(0.0326212 -0.217951 -2.78367e-22)
(0.0318705 -0.252348 -3.08907e-22)
(0.0300742 -0.291204 3.67162e-22)
(0.0270233 -0.331406 -7.49813e-22)
(0.0226921 -0.368707 6.36586e-22)
(0.0171482 -0.39907 2.27677e-22)
(0.0106874 -0.419934 0)
(0.00356402 -0.430367 -4.94742e-22)
(0.0340969 -0.167862 2.46129e-22)
(0.0356864 -0.189982 -2.48523e-22)
(0.0356823 -0.217585 -2.98667e-22)
(0.0346126 -0.251704 -3.33725e-22)
(0.0325263 -0.290195 -3.8314e-22)
(0.0291437 -0.330033 -2.70301e-23)
(0.0244293 -0.366974 2.24276e-22)
(0.0184355 -0.397047 7.24353e-22)
(0.0114806 -0.417729 0)
(0.00384068 -0.428093 -5.39932e-22)
(0.0385928 -0.167705 0)
(0.0393148 -0.189448 -1.14295e-21)
(0.0390225 -0.216444 2.07154e-21)
(0.0375806 -0.250317 3.34284e-22)
(0.0351882 -0.28849 7.77056e-22)
(0.0314452 -0.328075 1.27707e-21)
(0.0263183 -0.364791 -4.54529e-22)
(0.0198362 -0.394707 -4.91417e-22)
(0.0123431 -0.415311 1.08697e-21)
(0.00414507 -0.425664 5.38676e-22)
(0.0435761 -0.166803 0)
(0.0432383 -0.188185 -1.12699e-21)
(0.0426424 -0.214566 -6.22631e-22)
(0.0407777 -0.248208 0)
(0.0380649 -0.286119 -2.44851e-21)
(0.0339318 -0.325554 8.1791e-22)
(0.0283621 -0.362178 9.75677e-22)
(0.0213516 -0.392065 3.1518e-21)
(0.0132742 -0.412675 -1.08344e-21)
(0.0044762 -0.423067 2.33863e-21)
(0.0490414 -0.165268 0)
(0.0474587 -0.18619 1.13658e-21)
(0.0465318 -0.212045 0)
(0.0442056 -0.245381 3.12512e-21)
(0.0411602 -0.283097 -3.14116e-21)
(0.0366112 -0.322468 -1.92443e-21)
(0.0305693 -0.359121 -4.37578e-23)
(0.0229946 -0.389103 -3.24377e-21)
(0.014285 -0.409806 -5.4072e-22)
(0.00483647 -0.420288 -2.90893e-21)
(0.0549558 -0.163167 8.21283e-21)
(0.0519876 -0.183459 -3.15332e-21)
(0.0506855 -0.208885 3.38358e-22)
(0.0478805 -0.241852 -2.91397e-21)
(0.0444694 -0.279449 0)
(0.0394855 -0.318848 -2.00689e-21)
(0.0329396 -0.355654 -1.68896e-22)
(0.0247621 -0.385846 4.40535e-21)
(0.0153722 -0.406731 6.04003e-22)
(0.00522338 -0.417343 -6.06337e-22)
(0.0612761 -0.160493 -8.42702e-22)
(0.0568376 -0.180066 5.89359e-21)
(0.0550767 -0.205116 3.03126e-21)
(0.0517948 -0.237721 -3.02921e-21)
(0.0479933 -0.27521 -1.82937e-21)
(0.0425611 -0.314693 0)
(0.0354854 -0.351748 -4.49847e-21)
(0.0266696 -0.382261 2.25621e-21)
(0.0165488 -0.403426 2.40997e-21)
(0.00564138 -0.414213 2.5875e-21)
(0.0679318 -0.157311 -1.13229e-21)
(0.0620033 -0.176111 0)
(0.0596829 -0.200829 0)
(0.0559375 -0.233082 0)
(0.0517267 -0.270501 -2.11412e-21)
(0.0458261 -0.310156 3.93666e-21)
(0.0381845 -0.347559 4.58259e-21)
(0.0286874 -0.378467 -7.21744e-21)
(0.0177899 -0.399953 1.29193e-21)
(0.00607776 -0.410929 -3.84312e-21)
(0.0748095 -0.153752 -1.69243e-21)
(0.0674761 -0.171614 5.80845e-21)
(0.0644836 -0.196029 -5.75304e-21)
(0.0603039 -0.227843 7.3962e-21)
(0.055685 -0.265128 -9.30316e-21)
(0.0493237 -0.30494 0)
(0.0411087 -0.342769 -2.39572e-21)
(0.0308999 -0.37422 -9.88238e-23)
(0.0191631 -0.396172 -2.68535e-21)
(0.00655938 -0.407399 -2.73656e-21)
(0.0817483 -0.150178 -1.20308e-21)
(0.073224 -0.166906 0)
(0.069411 -0.191168 -7.68192e-21)
(0.0648078 -0.222663 1.44798e-20)
(0.0597543 -0.259979 -5.60718e-21)
(0.0528937 -0.300065 -1.13298e-21)
(0.0440547 -0.338309 2.39051e-21)
(0.0330983 -0.370162 -1.21073e-22)
(0.0205134 -0.392413 3.91958e-21)
(0.00701856 -0.403803 4.04983e-21)
(0.0889655 -0.145092 -5.42393e-21)
(0.0799929 -0.160367 5.31822e-21)
(0.0750232 -0.184268 8.20192e-22)
(0.0699187 -0.215201 0)
(0.0644098 -0.252382 0)
(0.0570784 -0.292857 1.11613e-21)
(0.0476164 -0.331978 5.11843e-21)
(0.0358366 -0.364881 -5.00899e-21)
(0.0222342 -0.387972 -1.37167e-21)
(0.00761575 -0.399722 1.34879e-21)
(0.0994296 -0.145258 0)
(0.0950248 -0.157668 0)
(0.0870342 -0.182273 0)
(0.0805796 -0.212666 0)
(0.073707 -0.248962 0)
(0.0649062 -0.288071 0)
(0.0538595 -0.325609 0)
(0.0403852 -0.357076 0)
(0.0249897 -0.379298 0)
(0.00843367 -0.390879 0)
(0.117837 -0.132334 0)
(0.120196 -0.149531 0)
(0.1081 -0.176995 0)
(0.100757 -0.20694 0)
(0.0914164 -0.242047 0)
(0.0799483 -0.278844 0)
(0.0659615 -0.313553 0)
(0.0492801 -0.342158 0)
(0.0304945 -0.361762 0)
(0.0105279 -0.371169 0)
(0.141803 -0.119956 0)
(0.146984 -0.139598 0)
(0.130918 -0.16737 0)
(0.12319 -0.195947 0)
(0.110653 -0.229311 0)
(0.0960691 -0.263205 0)
(0.0785709 -0.295017 0)
(0.0582482 -0.3215 0)
(0.0357599 -0.340445 0)
(0.0118394 -0.350874 0)
(0.171587 -0.111256 0)
(0.177743 -0.131353 0)
(0.157418 -0.158035 0)
(0.149438 -0.18521 0)
(0.132777 -0.216782 0)
(0.114851 -0.247547 0)
(0.093292 -0.276312 0)
(0.0688237 -0.299746 0)
(0.0422571 -0.31553 0)
(0.0147307 -0.322293 0)
(0.2066 -0.100677 0)
(0.211118 -0.119207 0)
(0.186524 -0.143443 0)
(0.177438 -0.168045 0)
(0.154995 -0.196011 0)
(0.133088 -0.222381 0)
(0.106491 -0.24777 0)
(0.0775763 -0.269051 0)
(0.0468757 -0.285245 0)
(0.0148069 -0.29597 0)
(0.246806 -0.0923917 0)
(0.248422 -0.108678 0)
(0.220039 -0.131093 0)
(0.208863 -0.152752 0)
(0.179784 -0.177189 0)
(0.154519 -0.200033 0)
(0.122576 -0.222873 0)
(0.0890168 -0.241337 0)
(0.0540224 -0.254 0)
(0.019901 -0.256874 0)
(0.288577 -0.076328 0)
(0.283398 -0.0890077 0)
(0.252096 -0.107447 0)
(0.236145 -0.12378 0)
(0.200022 -0.143046 0)
(0.170862 -0.16089 0)
(0.13119 -0.17924 0)
(0.0925529 -0.194925 0)
(0.0530779 -0.21072 0)
(0.0128458 -0.229119 0)
(0.329608 -0.0658081 0)
(0.319183 -0.0744835 0)
(0.287458 -0.0897437 0)
(0.266242 -0.1019 0)
(0.227246 -0.118686 0)
(0.194669 -0.133767 0)
(0.150059 -0.151159 0)
(0.107884 -0.167121 0)
(0.0636471 -0.182884 0)
(0.0317285 -0.178935 0)
(0.367358 -0.0364755 0)
(0.353135 -0.0403145 0)
(0.309059 -0.0494789 0)
(0.281267 -0.0552446 0)
(0.230548 -0.0652366 0)
(0.189369 -0.0724617 0)
(0.130953 -0.0820761 0)
(0.0768982 -0.0911624 0)
(0.0233812 -0.110362 0)
(-0.0379563 -0.161588 0)
(0.62656 -0.0190258 0)
(0.605959 -0.0220025 0)
(0.565742 -0.0264509 0)
(0.533556 -0.0306304 0)
(0.483311 -0.0368774 0)
(0.437243 -0.0436501 0)
(0.372474 -0.0540209 0)
(0.303168 -0.0693505 0)
(0.211549 -0.0987098 0)
(0.151755 -0.156968 0)
(0.119034 -0.130907 5.55944e-21)
(0.139728 -0.117452 -5.47525e-21)
(0.163841 -0.105394 9.02125e-22)
(0.193163 -0.0969157 0)
(0.228052 -0.087131 0)
(0.266589 -0.0796347 1.3796e-21)
(0.307538 -0.0654303 -6.57608e-21)
(0.346238 -0.0570546 6.48589e-21)
(0.393769 -0.031283 1.84729e-21)
(0.647521 -0.0166592 -1.87325e-21)
(0.125661 -0.124694 -5.16756e-21)
(0.146131 -0.111045 0)
(0.169786 -0.0993953 6.46149e-21)
(0.198866 -0.0911555 -1.56329e-20)
(0.233798 -0.0817382 1.05492e-20)
(0.272247 -0.0746108 -1.2899e-21)
(0.313212 -0.0611022 2.80385e-21)
(0.35195 -0.0535966 6.32675e-21)
(0.403535 -0.0292513 1.71289e-21)
(0.655735 -0.0156502 1.72421e-21)
(0.131485 -0.117801 5.9672e-21)
(0.151556 -0.104324 -6.0456e-21)
(0.174661 -0.0932669 5.9884e-21)
(0.203385 -0.0853598 -8.31381e-21)
(0.238181 -0.0764065 6.02665e-21)
(0.276674 -0.0697358 0)
(0.317635 -0.0569883 -2.8106e-21)
(0.356957 -0.0503735 -6.17046e-23)
(0.412143 -0.0274157 -3.24605e-21)
(0.663488 -0.0146799 -3.43482e-21)
(0.137207 -0.110413 -1.02673e-21)
(0.157274 -0.0974095 0)
(0.179952 -0.087046 0)
(0.208428 -0.0795272 0)
(0.242902 -0.0711113 6.83239e-21)
(0.281364 -0.0649729 -4.65497e-21)
(0.32216 -0.053055 -1.85587e-22)
(0.362023 -0.0473068 -3.21694e-21)
(0.420171 -0.0257562 -1.63461e-21)
(0.670977 -0.0137871 -1.67727e-21)
(0.142406 -0.102658 1.04988e-21)
(0.162686 -0.090403 -3.25847e-21)
(0.185044 -0.0808104 -3.40518e-21)
(0.213415 -0.0737083 3.40307e-21)
(0.247604 -0.0658719 -2.14657e-21)
(0.286099 -0.0603291 0)
(0.326651 -0.0492713 -2.73273e-21)
(0.367087 -0.0443374 6.11295e-21)
(0.42776 -0.0242298 -3.07042e-21)
(0.678139 -0.0129777 3.34386e-21)
(0.146892 -0.094557 -7.68357e-21)
(0.167433 -0.0833257 3.69504e-22)
(0.189508 -0.0745729 -5.46472e-22)
(0.217757 -0.067945 3.32628e-21)
(0.251797 -0.0607302 0)
(0.290379 -0.0558049 0)
(0.330704 -0.0456407 0)
(0.371853 -0.0414701 2.91931e-21)
(0.4348 -0.0228056 0)
(0.684876 -0.0122473 0)
(0.150588 -0.0861286 0)
(0.171464 -0.0761676 3.89322e-21)
(0.193305 -0.0683123 -2.70405e-21)
(0.221367 -0.0622354 -3.80541e-21)
(0.255304 -0.0556918 3.82518e-21)
(0.293976 -0.0513966 2.47627e-21)
(0.334198 -0.0421622 -2.33537e-21)
(0.376065 -0.038717 -1.00491e-20)
(0.441133 -0.021472 7.10931e-22)
(0.691098 -0.011589 -2.38405e-21)
(0.153389 -0.0774031 0)
(0.174744 -0.0689204 -1.19311e-21)
(0.196444 -0.0620123 -7.20649e-22)
(0.224295 -0.0565622 0)