/*--------------------------------*- C++ -*----------------------------------*\
  =========                 |
  \\      /  F ield         | OpenFOAM: The Open Source CFD Toolbox
   \\    /   O peration     | Website:  https://openfoam.org
    \\  /    A nd           | Version:  7
     \\/     M anipulation  |
\*---------------------------------------------------------------------------*/
FoamFile
{
    version     2.0;
    format      ascii;
    class       surfaceScalarField;
    location    "7.8";
    object      phi;
}
// * * * * * * * * * * * * * * * * * * * * * * * * * * * * * * * * * * * * * //

dimensions      [0 3 -1 0 0 0 0];

internalField   nonuniform List<scalar> 
35640
(
1.75467e-05
-0.000283658
0.000266111
6.18509e-05
-0.000560623
0.000516319
0.000128952
-0.000582946
0.000515845
0.000216611
-0.000413827
0.000326167
0.000323624
-9.81276e-05
-8.88494e-06
0.000449355
0.000331066
-0.000456796
0.000593441
0.000848301
-0.000992386
0.000755596
0.00143351
-0.00159567
0.000935512
0.00207079
-0.00225071
0.00113277
0.00274722
-0.00294447
0.00134676
0.00345198
-0.00366598
0.00157665
0.00417577
-0.00440566
0.00182136
0.00491029
-0.005155
0.00207957
0.00564799
-0.00590619
0.00234969
0.00638186
-0.00665198
0.00262992
0.00710534
-0.00738557
0.00291826
0.0078123
-0.00810064
0.00321254
0.00849705
-0.00879133
0.00351052
0.00915437
-0.00945235
0.00380991
0.00977963
-0.010079
0.00410846
0.0103688
-0.0106674
0.00440402
0.0109186
-0.0112142
0.00469459
0.0114264
-0.011717
0.00497839
0.0118903
-0.0121741
0.00525393
0.012309
-0.0125845
0.00552004
0.0126817
-0.0129478
0.00577595
0.0130081
-0.013264
0.00602136
0.0132872
-0.0135326
0.00625636
0.013518
-0.013753
0.0136967
0.00648142
-0.0139218
1.63589e-05
-0.000300017
5.74492e-05
-0.000601714
0.000119416
-0.000644912
0.000200222
-0.000494633
0.000298875
-0.00019678
0.000414909
0.000215032
0.000548146
0.000715065
0.000698466
0.00128319
0.000865701
0.00190355
0.00104956
0.00256336
0.00124956
0.00325198
0.00146502
0.00396031
0.00169501
0.00468029
0.00193839
0.0054046
0.00219377
0.00612649
0.00245951
0.0068396
0.0027338
0.00753801
0.00301469
0.00821615
0.00330012
0.00886894
0.00358796
0.00949179
0.0038761
0.0100807
0.0041625
0.0106322
0.00444524
0.0111437
0.00472261
0.0116129
0.00499312
0.0120384
0.0052556
0.0124192
0.00550925
0.0127544
0.00575366
0.0130428
0.00598879
0.0132829
0.0134708
0.00621473
1.50737e-05
-0.000315091
5.27154e-05
-0.000639355
0.000109245
-0.000701441
0.000182875
-0.000568264
0.00027288
-0.000286785
0.000379022
0.000108891
0.000501313
0.000592774
0.000639776
0.00114473
0.000794381
0.00174895
0.000964969
0.00239277
0.00115119
0.00306576
0.00135249
0.00375901
0.00156809
0.00446469
0.00179697
0.00517572
0.00203789
0.00588556
0.00228941
0.00658808
0.0025499
0.00727752
0.00281757
0.00794848
0.00309052
0.00859599
0.00336678
0.00921552
0.00364438
0.00980308
0.00392139
0.0103552
0.00419598
0.0108691
0.00446649
0.0113424
0.00473147
0.0117735
0.00498975
0.012161
0.00524049
0.0125037
0.00548319
0.0128001
0.00571762
0.0130485
0.0132449
0.00594356
1.36941e-05
-0.000328785
4.75592e-05
-0.00067322
9.8284e-05
-0.000752166
0.000164414
-0.000634394
0.000245509
-0.000367879
0.000341559
1.28408e-05
0.000452778
0.000481555
0.000579364
0.00101814
0.00072142
0.00160689
0.000878903
0.00223529
0.00105159
0.00289307
0.00123904
0.00357156
0.00144059
0.00426315
0.00165535
0.00496096
0.00188223
0.00565868
0.00211993
0.00635038
0.00236697
0.00703048
0.00262172
0.00769373
0.00288244
0.00833528
0.00314728
0.00895067
0.00341442
0.00953594
0.00368203
0.0100876
0.00394836
0.0106027
0.00421182
0.0110789
0.00447098
0.0115143
0.00472469
0.0119072
0.00497205
0.0122563
0.00521248
0.0125597
0.00544556
0.0128154
0.0130197
0.00567074
1.21617e-05
-0.000340947
4.19788e-05
-0.000703037
8.65834e-05
-0.000796771
0.000144896
-0.000692707
0.000216804
-0.000439787
0.00030258
-7.29349e-05
0.000402629
0.000381506
0.000517321
0.000903451
0.000646903
0.00147731
0.000791456
0.00209074
0.000950859
0.00273367
0.00112478
0.00339765
0.00131266
0.00407527
0.00151374
0.00475988
0.00172704
0.00544539
0.00195138
0.00612604
0.00218544
0.00679642
0.0024277
0.00745146
0.00267657
0.00808641
0.00293033
0.00869691
0.00318727
0.009279
0.00344566
0.00982921
0.00370384
0.0103446
0.00396026
0.0108225
0.00421355
0.011261
0.00446252
0.0116583
0.00470626
0.0120126
0.00494409
0.0123219
0.00517537
0.0125841
0.0127958
0.00539925
1.05067e-05
-0.000351454
3.59836e-05
-0.000728514
7.41305e-05
-0.000834918
0.000124326
-0.000742902
0.000186809
-0.000502269
0.000262133
-0.000148259
0.000350924
0.000292715
0.000453733
0.000800642
0.000570944
0.0013601
0.000702751
0.00195893
0.000849144
0.00258728
0.00100989
0.0032369
0.00118453
0.00390062
0.0013724
0.00457202
0.00157263
0.00524516
0.00178417
0.0059145
0.00200578
0.0065748
0.0022361
0.00722114
0.00247364
0.00784888
0.0027168
0.00845374
0.00296397
0.00903183
0.00321352
0.00957966
0.00346385
0.0100942
0.00371348
0.0105729
0.00396104
0.0110135
0.00420537
0.0114139
0.00444547
0.0117725
0.00468054
0.0120868
0.00490978
0.0123549
0.0125736
0.00513198
8.70465e-06
-0.000360158
2.95727e-05
-0.000749382
6.09686e-05
-0.000866313
0.000102773
-0.000784706
0.00015561
-0.000555107
0.000220349
-0.000212998
0.000297838
0.000215226
0.000388802
0.000709678
0.000493772
0.00125513
0.00061306
0.00183964
0.000746754
0.00245358
0.000894713
0.00308894
0.00105657
0.00373876
0.00123175
0.00439683
0.00141949
0.00505742
0.00161883
0.00571516
0.00182864
0.00636499
0.00204767
0.00700212
0.00227451
0.00762204
0.0025077
0.00822056
0.00274569
0.00879383
0.00298695
0.00933841
0.00322994
0.00985122
0.00347322
0.0103296
0.00371544
0.0107712
0.0039554
0.011174
0.00419206
0.0115358
0.00442447
0.0118544
0.00465162
0.0121277
0.0123532
0.00487197
6.7619e-06
-0.00036692
2.27707e-05
-0.00076539
4.71391e-05
-0.000890682
8.03139e-05
-0.000817881
0.000123339
-0.000598132
0.0001774
-0.000267059
0.000243582
0.000149045
0.000322791
0.000630469
0.000415701
0.00116222
0.000522737
0.0017326
0.000644083
0.00233224
0.000779688
0.00295334
0.000929271
0.00358918
0.00109234
0.00423376
0.00126822
0.00488154
0.00145604
0.00552734
0.00165477
0.00616626
0.00186323
0.00679365
0.00208014
0.00740513
0.0023041
0.00799659
0.00253367
0.00856427
0.00276736
0.00910472
0.00300369
0.00961489
0.00324126
0.010092
0.00347873
0.0105338
0.00371484
0.0109379
0.00394848
0.0113022
0.00417855
0.0116243
0.0044038
0.0119025
0.0121347
0.00462237
4.68156e-06
-0.000371601
1.56016e-05
-0.00077631
3.2706e-05
-0.000907786
5.70584e-05
-0.000842233
9.01484e-05
-0.000631222
0.000133493
-0.000310403
0.000188422
9.41161e-05
0.000256022
0.000562869
0.000337105
0.00108114
0.00043221
0.0016375
0.000541615
0.00222283
0.00066535
0.0028296
0.000803217
0.00345132
0.000954806
0.00408217
0.00111952
0.00471683
0.00129656
0.0053503
0.001485
0.00597782
0.00168374
0.00659491
0.00189157
0.0071973
0.00210718
0.00778098
0.00232919
0.00834226
0.00255618
0.00887773
0.00278672
0.00938434
0.00301942
0.00985934
0.00325291
0.0103003
0.00348592
0.0107049
0.0037172
0.0110709
0.00394548
0.011396
0.00416927
0.0116787
0.0119175
0.00438639
2.47336e-06
-0.000374075
8.10266e-06
-0.000781939
1.77458e-05
-0.000917429
3.31317e-05
-0.000857619
5.62224e-05
-0.000654312
8.88754e-05
-0.000343056
0.000132668
5.0324e-05
0.000188867
0.00050667
0.000258421
0.00101158
0.000341979
0.00155394
0.000439907
0.0021249
0.000552315
0.00271719
0.000679084
0.00332455
0.000819881
0.00394138
0.000974178
0.00456253
0.00114127
0.0051832
0.00132028
0.00579881
0.00151021
0.00640499
0.00170991
0.0069976
0.00191815
0.00757274
0.00213361
0.0081268
0.00235492
0.00865642
0.00258068
0.00915858
0.00280951
0.00963052
0.00304003
0.0100698
0.00327086
0.010474
0.00350066
0.0108411
0.00372798
0.0111687
0.00395103
0.0114557
0.0117013
0.00416731
1.46331e-07
-0.000374221
3.18031e-07
-0.000782111
2.34836e-06
-0.000919459
8.68139e-06
-0.000863952
2.17712e-05
-0.000667402
4.38234e-05
-0.000365108
7.66656e-05
1.7482e-05
0.000121742
0.000461594
0.000180135
0.000953192
0.000252596
0.00148148
0.000339578
0.00203792
0.000441269
0.0026155
0.000557622
0.00320819
0.00068838
0.00381062
0.000833083
0.00441783
0.000991097
0.00502519
0.00116162
0.00562828
0.00134373
0.00622289
0.00153634
0.00680499
0.00173829
0.0073708
0.00194831
0.00791678
0.00216507
0.00843965
0.00238722
0.00893643
0.00261336
0.00940438
0.00284206
0.00984106
0.00307188
0.0102442
0.00330132
0.0106117
0.00352872
0.0109413
0.00375203
0.0112323
0.0114849
0.00396841
-2.2716e-06
-0.000371949
-7.70121e-06
-0.000776681
-1.3383e-05
-0.000913777
-1.61291e-05
-0.000861205
-1.29744e-05
-0.000670556
-1.35975e-06
-0.000376722
2.07918e-05
-4.66932e-06
5.50987e-05
0.000427288
0.000102771
0.00090552
0.00016466
0.00141959
0.000241299
0.00196128
0.000332952
0.00252385
0.000439643
0.0031015
0.000561181
0.00368908
0.000697176
0.00428184
0.000847062
0.00487531
0.00101011
0.00546523
0.00118546
0.00604754
0.0013721
0.00661835
0.00156891
0.00717398
0.0017747
0.00771099
0.00198818
0.00822617
0.002208
0.00871661
0.00243275
0.00917963
0.00266097
0.00961284
0.00289112
0.010014
0.00312154
0.0103812
0.00335035
0.0107125
0.00357522
0.0110075
0.0112671
0.00379296
-4.77454e-06
-0.000367175
-1.58973e-05
-0.000765558
-2.93351e-05
-0.00090034
-4.11216e-05
-0.000849419
-4.77654e-05
-0.000663913
-4.63506e-05
-0.000378136
-3.45541e-05
-1.64656e-05
-1.05877e-05
0.000403322
2.68821e-05
0.00086805
7.88005e-05
0.00136767
0.000145778
0.0018943
0.000228148
0.00244148
0.000326002
0.00300365
0.000439212
0.00357587
0.000567455
0.00415359
0.00071023
0.00473253
0.000866881
0.00530858
0.0010366
0.00587782
0.00121845
0.0064365
0.00141138
0.00698105
0.00161424
0.00750813
0.00182577
0.00801464
0.00204465
0.00849773
0.00226946
0.00895483
0.00249868
0.00938362
0.00273068
0.00978205
0.00296364
0.0101483
0.00319545
0.0104807
0.00342347
0.0107795
0.0110464
0.00364417
-7.33848e-06
-0.000359836
-2.42073e-05
-0.000748689
-4.53863e-05
-0.000879161
-6.61066e-05
-0.000828698
-8.23389e-05
-0.00064768
-9.08104e-05
-0.000369665
-8.89559e-05
-1.83197e-05
-7.48216e-05
0.000389188
-4.69561e-05
0.000840185
-4.32744e-06
0.00132505
5.37479e-05
0.00183623
0.000127668
0.00236756
0.000217586
0.00291373
0.000323435
0.00347002
0.000444953
0.00403207
0.000581706
0.00459578
0.000733099
0.00515719
0.000898391
0.00571253
0.00107671
0.00625818
0.00126706
0.0067907
0.00146834
0.00730685
0.00167935
0.00780363
0.00189877
0.00827831
0.00212518
0.00872842
0.00235702
0.00915178
0.00259256
0.00954651
0.00282981
0.00991102
0.00306645
0.010244
0.00329955
0.0105464
0.0108208
0.00352519
-9.94222e-06
-0.000349893
-3.25636e-05
-0.000726067
-6.14075e-05
-0.000850317
-9.08846e-05
-0.000799221
-0.000116421
-0.000622144
-0.000134388
-0.000351697
-0.000141985
-1.07224e-05
-0.000137096
0.000384299
-0.000118158
0.000821247
-8.40581e-05
0.00129095
-3.40457e-05
0.00178622
3.23377e-05
0.00230117
0.0001153
0.00283077
0.000214832
0.00337049
0.00033073
0.00391618
0.00046262
0.00446389
0.000609968
0.00500984
0.000772098
0.0055504
0.000948199
0.00608208
0.00113734
0.00660156
0.00133847
0.00710572
0.00155043
0.00759167
0.00177194
0.0080568
0.00200158
0.00849878
0.00223775
0.00891561
0.00247864
0.00930561
0.00272214
0.00966752
0.00296568
0.0100005
0.00320606
0.010306
0.0105879
0.00343898
-1.25629e-05
-0.00033733
-4.08943e-05
-0.000697736
-7.72636e-05
-0.000813947
-0.000115248
-0.000761237
-0.000149729
-0.000587663
-0.000176726
-0.000324699
-0.000193207
5.75855e-06
-0.000196898
0.000387991
-0.000186133
0.000810481
-0.000159723
0.00126454
-0.000116854
0.00174335
-5.70134e-05
0.00224133
2.00561e-05
0.0027537
0.000114395
0.00327615
0.000225855
0.00380472
0.000354117
0.00433563
0.000498705
0.00486525
0.000659002
0.0053901
0.00083426
0.00590682
0.00102361
0.00641221
0.00122606
0.00690326
0.0014405
0.00737723
0.0016657
0.00783161
0.00190024
0.00826424
0.00214254
0.00867331
0.00239072
0.00905743
0.00264254
0.0094157
0.00289527
0.00974776
0.0031454
0.0100559
0.010345
0.00338827
-1.51764e-05
-0.000322154
-4.91243e-05
-0.000663788
-9.28135e-05
-0.000770258
-0.000138983
-0.000715067
-0.000181974
-0.000544673
-0.000217459
-0.000289213
-0.00024218
3.04798e-05
-0.000253714
0.000399525
-0.000250292
0.00080706
-0.000230656
0.0012449
-0.000193933
0.00170662
-0.000139563
0.00218696
-6.72435e-05
0.00268138
2.31099e-05
0.0031858
0.000131395
0.00369643
0.000257343
0.00420968
0.00040053
0.00472206
0.000560395
0.00523024
0.000736247
0.00573097
0.00092728
0.00622118
0.00113257
0.00669798
0.00135106
0.00715873
0.00158157
0.0076011
0.00182274
0.00802307
0.00207299
0.00842306
0.00233044
0.00879998
0.00259278
0.00915336
0.00285712
0.00948342
0.00311972
0.00979325
0.0100892
0.00337551
-1.77575e-05
-0.000304396
-5.71751e-05
-0.00062437
-0.000107912
-0.000719521
-0.000161872
-0.000661108
-0.000212861
-0.000493683
-0.000256219
-0.000245856
-0.000288463
6.27249e-05
-0.000307029
0.000418091
-0.00031005
0.000810081
-0.000296198
0.00123105
-0.000264549
0.00167497
-0.000214499
0.00213691
-0.000145707
0.00261259
-5.80514e-05
0.00309814
4.84057e-05
0.00358997
0.000173436
0.00408465
0.000316661
0.00457884
0.000477568
0.00506933
0.000655522
0.00555301
0.000849772
0.00602692
0.00105946
0.00648829
0.00128359
0.0069346
0.00152106
0.00736363
0.00177058
0.00777355
0.00203063
0.00816301
0.00229936
0.00853125
0.00257445
0.00887827
0.00285292
0.00920495
0.00313084
0.00951534
0.0098173
0.00340275
-2.02797e-05
-0.000284116
-6.49659e-05
-0.000579684
-0.00012241
-0.000662078
-0.000183688
-0.000599829
-0.000242092
-0.000435279
-0.00029263
-0.000195318
-0.000331611
0.000101706
-0.000356328
0.000442808
-0.000364822
0.000818575
-0.000355697
0.00122192
-0.00032798
0.00164726
-0.000281027
0.00208996
-0.000214465
0.00254602
-0.000128139
0.00301181
-2.20804e-05
0.00348391
0.000103514
0.00395905
0.000248303
0.00443405
0.000411812
0.00490582
0.00059345
0.00537137
0.000792518
0.00582786
0.00100821
0.0062726
0.00123962
0.00670319
0.00148571
0.00711754
0.00174529
0.00751397
0.00201694
0.00789136
0.00229891
0.00824928
0.00258895
0.00858823
0.00288407
0.00890983
0.0031802
0.0092192
0.00952595
0.00347156
-2.27157e-05
-0.0002614
-7.24132e-05
-0.000529986
-0.000136152
-0.000598339
-0.000204204
-0.000531777
-0.00026936
-0.000370122
-0.000326315
-0.000138362
-0.000371173
0.000146564
-0.000401093
0.000472728
-0.000414026
0.000831508
-0.000408507
0.0012164
-0.000383514
0.00162226
-0.000338369
0.00204482
-0.000272666
0.00248032
-0.000186225
0.00292537
-7.90552e-05
0.00337674
4.86722e-05
0.00383133
0.000196639
0.00428608
0.000364399
0.00473806
0.000551394
0.00518438
0.00075696
0.00562229
0.000980344
0.00604922
0.0012207
0.00646283
0.00147708
0.00686116
0.00174841
0.00724264
0.00203341
0.00760636
0.00233049
0.0079522
0.00263755
0.00828117
0.0029517
0.00859568
0.00326885
0.00890205
0.00921185
0.00358295
-2.50371e-05
-0.000236363
-7.94309e-05
-0.000475593
-0.000148982
-0.000528788
-0.000223183
-0.000457576
-0.000294352
-0.000298953
-0.000356885
-7.58291e-05
-0.000406691
0.00019637
-0.0004408
0.000506838
-0.000457073
0.00084778
-0.000453976
0.00121331
-0.00043044
0.00159873
-0.000385749
0.00200012
-0.00031947
0.00241404
-0.000231401
0.0028373
-0.000121532
0.00326688
9.98065e-06
0.00369981
0.000162832
0.00413323
0.00033659
0.0045643
0.000530711
0.00499026
0.000744551
0.00540845
0.00097739
0.00581638
0.00122843
0.00621179
0.0014968
0.00659278
0.00178155
0.0069579
0.00208155
0.00730635
0.00239545
0.00763831
0.00272137
0.00795525
0.00305668
0.00826037
0.0033974
0.00856133
0.00887193
0.00373732
-2.72148e-05
-0.000209148
-8.59309e-05
-0.000416877
-0.000160737
-0.000453982
-0.000240384
-0.000377929
-0.000316747
-0.00022259
-0.00038394
-8.63566e-06
-0.000437692
0.000250122
-0.000474907
0.000544053
-0.000493356
0.000866229
-0.000491438
0.00121139
-0.000468033
0.00157532
-0.000422386
0.00195448
-0.000354037
0.00234569
-0.000262762
0.00274603
-0.000148535
0.00315265
-1.15058e-05
0.00356278
0.000148025
0.0039737
0.000329626
0.0043827
0.000532748
0.00478714
0.000756748
0.00518445
0.00100091
0.00557222
0.00126445
0.00594825
0.00154656
0.00631067
0.00184638
0.00665808
0.00216296
0.00698977
0.00249517
0.00730609
0.0028415
0.00760891
0.00319967
0.0079022
0.00356602
0.00819498
0.00850355
0.0039344
-2.92189e-05
-0.00017993
-9.18228e-05
-0.000354273
-0.00017125
-0.000374555
-0.000255559
-0.00029362
-0.000336213
-0.000141936
-0.000407067
6.2219e-05
-0.000463682
0.000306737
-0.000502846
0.000583217
-0.000522239
0.000885622
-0.000520194
0.00120934
-0.000495534
0.00155066
-0.000447465
0.00190641
-0.000375496
0.00227372
-0.000279379
0.00264991
-0.000159075
0.00303234
-1.47278e-05
0.00341844
0.000153359
0.00380561
0.000344741
0.00419132
0.000558851
0.00457303
0.000795018
0.00494828
0.00105249
0.00531474
0.00133048
0.00567026
0.00162817
0.00601299
0.00194473
0.00634152
0.00227936
0.00665515
0.00263117
0.00695429
0.00299903
0.00724105
0.00338119
0.00752004
0.00377452
0.00780164
0.00810482
0.00417326
-3.10193e-05
-0.00014891
-9.70151e-05
-0.000288277
-0.000180353
-0.000291217
-0.000268453
-0.00020552
-0.000352406
-5.79822e-05
-0.000425834
0.000135647
-0.000484144
0.000365048
-0.000524015
0.000623088
-0.000543043
0.00090465
-0.000539491
0.00120579
-0.000512125
0.0015233
-0.000460109
0.00185439
-0.000382913
0.00219653
-0.000280264
0.00254726
-0.000152107
0.00290419
1.42202e-06
0.00326491
0.000180014
0.00362702
0.000383206
0.00398813
0.000610396
0.00434584
0.000860864
0.00469781
0.0011338
0.00504181
0.00142832
0.00537574
0.00174355
0.00569776
0.00207862
0.00600644
0.00243275
0.00630102
0.00280522
0.00658181
0.00319529
0.00685099
0.0036018
0.00711353
0.00402249
0.00738095
0.00767492
0.00445239
-3.25858e-05
-0.000116324
-0.000101416
-0.000219447
-0.000187874
-0.000204759
-0.000278806
-0.000114588
-0.000364972
2.81841e-05
-0.000439788
0.000210462
-0.000498527
0.000423787
-0.000537769
0.00066233
-0.000555029
0.000921909
-0.000548503
0.00119926
-0.000516902
0.00149169
-0.000459339
0.00179683
-0.000375246
0.00211244
-0.000264317
0.00243633
-0.000126472
0.00276634
3.81617e-05
0.00310027
0.000229274
0.00343591
0.000446382
0.00377102
0.000688846
0.00410337
0.000955879
0.00443078
0.00124657
0.00475112
0.00155992
0.00506239
0.00189487
0.00536281
0.00225039
0.00565092
0.00262557
0.00592584
0.00301966
0.00618772
0.00343215
0.0064385
0.0038625
0.00668317
0.00430962
0.00693383
0.00721453
0.00477001
-3.38881e-05
-8.24365e-05
-0.000104933
-0.000148402
-0.000193642
-0.00011605
-0.000286353
-2.18766e-05
-0.000373545
0.000115376
-0.000448455
0.000285373
-0.000506246
0.000481578
-0.00054341
0.000699494
-0.000557388
0.000935887
-0.000546314
0.00118819
-0.000508845
0.00145422
-0.000444043
0.00173203
-0.000351296
0.00201969
-0.000230259
0.0023153
-8.08242e-05
0.00261691
9.69008e-05
0.00292255
0.000302614
0.0032302
0.000535822
0.00353781
0.00079585
0.00384335
0.00108185
0.00414479
0.00139278
0.00444018
0.00172748
0.00472769
0.00208465
0.00500564
0.00246293
0.00527264
0.00286102
0.00552775
0.00327783
0.0057709
0.00371271
0.00600363
0.00416552
0.00623036
0.00463653
0.00646282
0.00672635
0.0051247
-3.48969e-05
-4.75396e-05
-0.000107477
-7.58222e-05
-0.000197485
-2.60422e-05
-0.00029083
7.14679e-05
-0.000377751
0.000202297
-0.000451347
0.000358969
-0.000506686
0.000536917
-0.000540189
0.000732998
-0.000549234
0.000944932
-0.000531902
0.00117085
-0.000486799
0.00140912
-0.000412937
0.00165817
-0.000309659
0.00191641
-0.000176581
0.00218222
-1.35578e-05
0.00245389
0.000179333
0.00272966
0.000401808
0.00300772
0.000653383
0.00328624
0.000933369
0.00356336
0.00124086
0.00383729
0.00157474
0.0041063
0.00193363
0.00436879
0.00231596
0.00462332
0.00271989
0.0048687
0.00314348
0.00510416
0.00358483
0.00532956
0.00404242
0.00554603
0.0045158
0.00575699
0.00500637
0.00597225
0.00621576
0.00551696
-3.5585e-05
-1.19546e-05
-0.000108963
-2.4439e-06
-0.000199239
6.42338e-05
-0.000291972
0.000164201
-0.000377216
0.00028754
-0.00044796
0.000429713
-0.000499202
0.000588158
-0.000527308
0.000761104
-0.000529608
0.000947232
-0.000504138
0.00114538
-0.000449462
0.00135444
-0.000364551
0.00157325
-0.000248703
0.00180056
-0.000101495
0.00203501
7.72564e-05
0.00227513
0.000287513
0.0025194
0.000529029
0.00276621
0.000801347
0.00301392
0.0011038
0.00326091
0.00143548
0.00350561
0.00179521
0.00374657
0.00218151
0.00398249
0.00259252
0.0042123
0.00302594
0.00443528
0.00347898
0.00465112
0.00394838
0.00486016
0.0044308
0.00506361
0.00492371
0.00526408
0.00542801
0.00546795
0.00569048
0.0059533
-3.59275e-05
2.39728e-05
-0.000109312
7.09408e-05
-0.00019875
0.000153671
-0.000289531
0.000254982
-0.000371573
0.000369582
-0.000437793
0.000495934
-0.000483138
0.000633504
-0.000503939
0.000781905
-0.000497492
0.000940784
-0.000461802
0.00110969
-0.000395404
0.00128805
-0.000297235
0.00147509
-0.000166563
0.00166989
-2.92693e-06
0.00187137
0.000193893
0.00207831
0.000423901
0.00228939
0.000686899
0.00250321
0.000982487
0.00271833
0.00131006
0.00293334
0.00166876
0.00314691
0.00205748
0.00335785
0.00247477
0.00356521
0.00291868
0.00376839
0.00338668
0.00396728
0.00387531
0.0041625
0.00437986
0.0043556
0.00489424
0.00454924
0.00541108
0.00474724
0.0059248
0.00495423
0.00515648
0.0064588
-3.59025e-05
5.98752e-05
-0.000108454
0.000143492
-0.000195873
0.000241091
-0.000283269
0.000342378
-0.000360471
0.000446784
-0.000420356
0.000555818
-0.000457842
0.000670991
-0.000469241
0.000793304
-0.000451834
0.000923377
-0.000403613
0.00106147
-0.000323094
0.00120753
-0.000209202
0.00136119
-6.1182e-05
0.00152187
0.000121446
0.00168874
0.000338933
0.00186083
0.000591323
0.002037
0.000878469
0.00221606
0.00120005
0.00239675
0.00155555
0.00257784
0.00194426
0.0027582
0.00236526
0.00293685
0.00281733
0.00311314
0.00329889
0.00328682
0.00380781
0.00345836
0.00434107
0.00362924
0.00489428
0.00380239
0.00546093
0.00398259
0.00603055
0.00417762
0.00658467
0.0044001
0.00710871
0.00463244
0.00668949
0.0783103
-0.0785184
0.00663971
0.0783216
-0.0782718
0.00649623
0.074961
-0.0748175
0.00634537
0.0705893
-0.0704385
0.00623329
0.0662563
-0.0661442
0.00616392
0.0624894
-0.06242
0.00611986
0.0594324
-0.0593883
0.00607816
0.057017
-0.0569753
0.00602018
0.0551476
-0.0550897
0.00593461
0.0537326
-0.0536471
0.00581817
0.0527142
-0.0525978
0.00567176
0.0520409
-0.0518945
0.00549854
0.05167
-0.0514968
0.00530174
0.0515458
-0.051349
0.00508458
0.0516134
-0.0513962
0.00484944
0.0518214
-0.0515863
0.00459854
0.0521235
-0.0518726
0.00433429
0.0524827
-0.0522185
0.00405839
0.0528739
-0.052598
0.00377258
0.0532765
-0.0529907
0.00347849
0.0536748
-0.0533807
0.00317735
0.0540597
-0.0537585
0.00287024
0.0544225
-0.0541154
0.00255796
0.0547556
-0.0544433
0.00224085
0.0550571
-0.05474
0.00191913
0.0553199
-0.0549981
0.00159226
0.0555512
-0.0552243
0.00126036
0.0557543
-0.0554224
0.000924741
0.0559367
-0.055601
0.0560477
-0.0557121
0.0065278
0.0779972
0.00656338
0.078286
0.00648143
0.0750429
0.00637388
0.0706969
0.00629264
0.0663376
0.00624742
0.0625346
0.00622359
0.0594562
0.00619895
0.0570416
0.00615424
0.0551923
0.00607806
0.0538088
0.00596691
0.0528254
0.00582258
0.0521852
0.00564842
0.0518442
0.00544869
0.0517456
0.0052265
0.0518356
0.00498506
0.0520629
0.00472691
0.0523817
0.00445443
0.0527552
0.0041696
0.0531587
0.00387463
0.0535715
0.0035707
0.0539787
0.00325959
0.0543708
0.00294226
0.0547398
0.00261937
0.0550785
0.00229176
0.0553847
0.00195913
0.0556525
0.00162152
0.0558888
0.00127889
0.0560969
0.000932626
0.0562829
0.0563938
0.00635777
0.077583
0.0064774
0.0781664
0.00645639
0.0750639
0.00639231
0.070761
0.00634268
0.0663872
0.00632294
0.0625543
0.00632094
0.0594583
0.00631508
0.0570475
0.00628525
0.0552222
0.00621992
0.0538742
0.00611515
0.0529302
0.00597368
0.0523267
0.00579906
0.0520188
0.0055967
0.0519479
0.00536972
0.0520626
0.00512208
0.0523105
0.0048567
0.052647
0.00457594
0.053036
0.00428213
0.0534526
0.00397784
0.0538758
0.00366395
0.0542926
0.00334272
0.054692
0.00301503
0.0550675
0.00268141
0.0554121
0.00234318
0.0557229
0.00199954
0.0559961
0.00165108
0.0562373
0.00129766
0.0564504
0.000940646
0.0566399
0.0567507
0.0061812
0.0770725
0.00638289
0.0779647
0.00642144
0.0750254
0.00640057
0.0707818
0.00638312
0.0664046
0.00639008
0.0625473
0.00641155
0.0594368
0.00642624
0.0570328
0.00641306
0.0552354
0.00635996
0.0539273
0.00626273
0.0530274
0.00612477
0.0524646
0.00595041
0.0521931
0.00574566
0.0521527
0.00551422
0.052294
0.00526049
0.0525642
0.00498783
0.0529197
0.00469881
0.053325
0.00439602
0.0537553
0.00408216
0.0541896
0.00375835
0.0546164
0.00342681
0.0550236
0.0030886
0.0554057
0.00274422
0.0557565
0.00239507
0.0560721
0.00204044
0.0563507
0.00168094
0.0565968
0.00131666
0.0568146
0.000948857
0.0570078
0.0571183
0.00600012
0.0764717
0.006281
0.0776838
0.00637715
0.0749292
0.00639879
0.0707602
0.00641379
0.0663896
0.00644857
0.0625126
0.00649519
0.0593902
0.0065322
0.0569958
0.00653734
0.0552302
0.00649787
0.0539667
0.00640945
0.0531158
0.00627581
0.0525983
0.00610233
0.0523666
0.0058954
0.0523596
0.00565984
0.0525296
0.00540021
0.0528239
0.00512026
0.0531997
0.004823
0.0536223
0.00451125
0.0540671
0.00418765
0.0545132
0.00385389
0.0549502
0.00351185
0.0553656
0.00316295
0.0557546
0.00280777
0.0561117
0.00244748
0.0564324
0.00208185
0.0567164
0.00171119
0.0569675
0.00133592
0.0571899
0.000957275
0.0573864
0.057497
0.00581676
0.0757869
0.00617321
0.0773274
0.00632424
0.0747782
0.00638723
0.0706972
0.0064347
0.0663422
0.00649825
0.062449
0.00657158
0.0593168
0.00663269
0.0569347
0.00665788
0.055205
0.00663348
0.0539911
0.00655506
0.0531943
0.0064266
0.0527267
0.00625457
0.0525386
0.00604591
0.0525683
0.00580644
0.052769
0.00554109
0.0530892
0.00525396
0.0534868
0.00494848
0.0539277
0.00462774
0.0543878
0.00429437
0.0548466
0.0039505
0.0552941
0.00359791
0.0557182
0.00323818
0.0561143
0.00287205
0.0564778
0.00250051
0.0568039
0.00212377
0.0570931
0.00174185
0.0573494
0.00135549
0.0575763
0.000965907
0.057776
0.0578868
0.00563352
0.0750253
0.00606121
0.0768997
0.00626372
0.0745757
0.00636639
0.0705945
0.00644599
0.0662625
0.00653906
0.062356
0.00664054
0.0592154
0.00672746
0.0568477
0.00677443
0.0551581
0.00676659
0.053999
0.00669934
0.0532615
0.00657695
0.0528491
0.00640696
0.0527086
0.00619703
0.0527782
0.00595391
0.0530122
0.00568302
0.0533601
0.00538885
0.053781
0.0050752
0.0542414
0.00474544
0.0547176
0.0044023
0.0551897
0.00404821
0.0556482
0.00368499
0.0560814
0.0033143
0.056485
0.0029371
0.056855
0.00255422
0.0571868
0.00216621
0.0574811
0.00177297
0.0577426
0.00137539
0.0579739
0.00097477
0.0581766
0.0582879
0.00545297
0.0741947
0.00594686
0.0764058
0.00619688
0.0743257
0.00633702
0.0704544
0.00644805
0.0661515
0.00657112
0.0622329
0.00670201
0.0590845
0.00681635
0.0567334
0.00688679
0.0550876
0.00689696
0.0539888
0.00684208
0.0533164
0.00672663
0.0529646
0.0065593
0.052876
0.00634857
0.0529889
0.00610208
0.0532586
0.00582587
0.0536363
0.00552481
0.054082
0.00520306
0.0545631
0.00486429
0.0550564
0.00451141
0.0555426
0.00414701
0.0560126
0.00377308
0.0564553
0.00339134
0.0568668
0.00300294
0.0572434
0.00260862
0.0575811
0.00220922
0.0578805
0.00180458
0.0581473
0.00139567
0.0583828
0.000983883
0.0585884
0.0587004
0.00527788
0.0733032
0.00583231
0.0758513
0.00612531
0.0740327
0.00630016
0.0702796
0.00644146
0.0660102
0.00659467
0.0620797
0.006756
0.0589231
0.00689924
0.0565902
0.00699475
0.0549921
0.00702438
0.0539592
0.00698304
0.0533577
0.00687544
0.0530722
0.00671139
0.05304
0.00650033
0.0532
0.0062508
0.0535082
0.00596949
0.0539176
0.00566171
0.0543898
0.00533199
0.0548929
0.00498424
0.0554041
0.00462162
0.0559052
0.00424688
0.0563873
0.00386218
0.05684
0.00346929
0.0572597
0.0030696
0.0576431
0.00266375
0.057987
0.00225282
0.0582914
0.00183669
0.0585634
0.00141635
0.0588031
0.000993272
0.0590115
0.0591244
0.00511123
0.0723593
0.00571993
0.0752426
0.00605089
0.0737017
0.00625714
0.0700733
0.00642709
0.0658403
0.00661018
0.0618966
0.00680267
0.0587306
0.00697609
0.0564167
0.00709815
0.05487
0.00714864
0.0539087
0.007122
0.0533844
0.00702316
0.053171
0.00686303
0.0532001
0.00665211
0.0534109
0.00639987
0.0537604
0.00611372
0.0542038
0.00579941
0.0547041
0.00546186
0.0552304
0.00510519
0.0557608
0.00473288
0.0562776
0.00434777
0.0567724
0.00395226
0.0572356
0.00354816
0.0576638
0.00313708
0.0580542
0.00271962
0.0584044
0.00229705
0.058714
0.00186934
0.0589911
0.00143747
0.059235
0.00100296
0.059446
0.0595601
0.00495618
0.0713716
0.00561235
0.0745865
0.00597584
0.0733382
0.00620963
0.0698395
0.00640606
0.0656438
0.00661829
0.0616844
0.00684232
0.0585066
0.00704694
0.0562121
0.00719687
0.0547201
0.00726955
0.053836
0.00725873
0.0533952
0.00716956
0.0532602
0.007014
0.0533557
0.0068037
0.0536212
0.00654911
0.054015
0.00625839
0.0544945
0.00593774
0.0550247
0.00559253
0.0555756
0.00522704
0.0561263
0.00484509
0.0566595
0.00444965
0.0571678
0.0040433
0.0576419
0.00362794
0.0580791
0.00320537
0.0584767
0.00277624
0.0588335
0.00234191
0.0591483
0.00190254
0.0594305
0.00145904
0.0596785
0.00101298
0.059892
0.0600077
0.00481606
0.0703485
0.00551247
0.0738901
0.00590272
0.072948
0.00615964
0.0695826
0.00637983
0.0654236
0.00661989
0.0614443
0.00687536
0.0582511
0.00711191
0.0559756
0.00729084
0.0545412
0.00738693
0.0537399
0.00739301
0.0533891
0.0073144
0.0533388
0.00716407
0.053506
0.00695488
0.0538304
0.00669831
0.0542716
0.0064033
0.0547895
0.00607654
0.0553515
0.00572385
0.0559283
0.00534969
0.0565004
0.00495817
0.057051
0.00455244
0.0575736
0.00413524
0.0580591
0.0037086
0.0585058
0.00327448
0.0589109
0.00283362
0.0592744
0.00238744
0.0595945
0.00193632
0.0598816
0.00148108
0.0601337
0.00102334
0.0603498
0.0604672
0.00469437
0.0692983
0.00542343
0.073161
0.00583444
0.072537
0.00610954
0.0693075
0.00635014
0.065183
0.00661611
0.0611783
0.00690241
0.0579648
0.00717121
0.0557068
0.00738002
0.0543324
0.00750063
0.0536193
0.00752464
0.0533651
0.00745746
0.053406
0.00731302
0.0536505
0.00710543
0.054038
0.00684726
0.0545298
0.00654825
0.0550885
0.00621565
0.0556841
0.00585567
0.0562883
0.005473
0.0568831
0.005072
0.057452
0.00465606
0.0579895
0.00422802
0.0584872
0.0037901
0.0589437
0.00334437
0.0593566
0.00289174
0.059727
0.00243362
0.0600526
0.00197068
0.0603445
0.00150361
0.0606008
0.00103407
0.0608193
0.060939
0.0045947