/*--------------------------------*- C++ -*----------------------------------*\
  =========                 |
  \\      /  F ield         | OpenFOAM: The Open Source CFD Toolbox
   \\    /   O peration     | Website:  https://openfoam.org
    \\  /    A nd           | Version:  7
     \\/     M anipulation  |
\*---------------------------------------------------------------------------*/
FoamFile
{
    version     2.0;
    format      ascii;
    class       volScalarField;
    location    "8.8";
    object      p;
}
// * * * * * * * * * * * * * * * * * * * * * * * * * * * * * * * * * * * * * //

dimensions      [0 2 -2 0 0 0 0];

internalField   nonuniform List<scalar> 
2000
(
0.138363
0.142578
0.145679
0.149104
0.152617
0.156106
0.159514
0.162795
0.165916
0.168883
0.136877
0.141345
0.144563
0.148033
0.151511
0.154893
0.158139
0.161209
0.164056
0.166788
0.135395
0.140157
0.143531
0.147084
0.150559
0.153862
0.156968
0.159843
0.162424
0.164892
0.133938
0.139024
0.142585
0.146252
0.149756
0.153009
0.156
0.158702
0.161034
0.163207
0.132469
0.137919
0.141699
0.145515
0.149081
0.152316
0.155222
0.157783
0.159898
0.161752
0.130937
0.136808
0.140845
0.144844
0.148505
0.151754
0.154609
0.157071
0.159023
0.160552
0.12929
0.13566
0.139989
0.144204
0.147988
0.15128
0.154117
0.156529
0.158399
0.159639
0.127474
0.134439
0.139095
0.143551
0.147478
0.150836
0.153682
0.156095
0.15802
0.159108
0.125441
0.133114
0.138125
0.142837
0.146914
0.15034
0.153212
0.155703
0.157968
0.159329
0.123156
0.13166
0.137044
0.142008
0.146212
0.149661
0.152496
0.155011
0.157673
0.159779
0.175432
0.184097
0.189676
0.194605
0.198157
0.201016
0.203144
0.204708
0.205726
0.206341
0.173524
0.181443
0.18696
0.191762
0.195283
0.198131
0.200255
0.201808
0.202808
0.203425
0.171657
0.178901
0.184288
0.188947
0.192428
0.195262
0.197386
0.198935
0.199934
0.200539
0.169809
0.176489
0.181674
0.186174
0.189607
0.192421
0.194546
0.196095
0.197094
0.197694
0.167947
0.174211
0.179126
0.183456
0.186828
0.189616
0.191741
0.193292
0.194291
0.19489
0.166045
0.172065
0.176654
0.180804
0.184103
0.186857
0.188979
0.190531
0.191529
0.192122
0.164084
0.170027
0.174262
0.178222
0.181437
0.18415
0.186262
0.187811
0.188806
0.189388
0.161962
0.167979
0.1719
0.175682
0.178814
0.181483
0.183584
0.18513
0.18612
0.186685
0.159647
0.165728
0.169447
0.173107
0.17619
0.178832
0.180932
0.18248
0.183466
0.184009
0.158918
0.164008
0.167328
0.170801
0.1738
0.176373
0.178425
0.179927
0.180873
0.181365
0.16834
0.165878
0.166255
0.168079
0.170023
0.171826
0.173299
0.174335
0.174936
0.175205
0.154291
0.155009
0.15653
0.158758
0.160734
0.162367
0.16364
0.164522
0.165033
0.165257
0.13695
0.140965
0.144244
0.147539
0.150132
0.15203
0.153378
0.154265
0.154769
0.15499
0.118057
0.124811
0.129994
0.134635
0.138193
0.14068
0.142337
0.143372
0.143944
0.144187
0.0977756
0.106541
0.113584
0.119681
0.124398
0.127691
0.12982
0.13108
0.131739
0.132015
0.0765159
0.0865211
0.0950309
0.102426
0.108309
0.112561
0.115392
0.117122
0.11806
0.118446
0.0556647
0.0658635
0.0751686
0.0833436
0.0899514
0.0947917
0.0980043
0.0999177
0.100914
0.101345
0.0343535
0.0442665
0.0535448
0.0619373
0.068979
0.0744055
0.0782337
0.0806738
0.0820312
0.0825711
0.0167647
0.0245779
0.0325711
0.0395251
0.0451887
0.0494267
0.0522958
0.0540276
0.0549455
0.0553975
-0.00665516
0.00197625
0.00863028
0.0142352
0.0189328
0.022646
0.0252926
0.0269547
0.0278201
0.0280669
0.153529
0.141118
0.126036
0.108038
0.0888159
0.068308
0.0492
0.0275006
0.0152925
-0.0151519
0.152665
0.138052
0.122478
0.103876
0.0844922
0.0641006
0.0456429
0.0241498
0.0141481
-0.0185321
0.151274
0.13432
0.118236
0.0992712
0.0799018
0.0598073
0.0419897
0.0209701
0.0126544
-0.0215311
0.148563
0.130141
0.113768
0.0947011
0.0754982
0.0558122
0.0386166
0.0181656
0.0111415
-0.0245071
0.145006
0.125855
0.109262
0.0902338
0.0712788
0.0520724
0.0354839
0.0157086
0.00959258
-0.0278687
0.140847
0.121584
0.104798
0.0859091
0.0672626
0.04859
0.0325972
0.0136306
0.00808327
-0.0309142
0.136297
0.117396
0.100465
0.0817873
0.0634951
0.0453936
0.0299898
0.0119666
0.00691407
-0.0297204
0.13164
0.113364
0.0963507
0.0779271
0.0600156
0.0425037
0.027682
0.010702
0.00613718
-0.0245731
0.127188
0.109569
0.0925326
0.0743793
0.0568542
0.0399311
0.025677
0.00977647
0.00554669
-0.0197639
0.12322
0.106097
0.0890743
0.0711851
0.0540334
0.0376809
0.0239725
0.00911126
0.00470916
-0.0154759
0.119959
0.103035
0.0860254
0.0683762
0.0515684
0.0357537
0.0225721
0.00869943
0.00412026
-0.0119696
0.117553
0.100474
0.0834241
0.0659739
0.0494669
0.034145
0.0214748
0.008486
0.00378029
-0.00908854
0.116069
0.098493
0.0813018
0.0639942
0.0477339
0.032846
0.0205695
0.00850178
0.00364555
-0.00671184
0.115509
0.0971624
0.0796803
0.062445
0.04637
0.0318545
0.0199337
0.00863427
0.00366582
-0.00476949
0.115815
0.0965114
0.0785583
0.0613219
0.0453694
0.0311589
0.0195458
0.00888163
0.00381095
-0.00319996
0.116863
0.0964895
0.0778937
0.0605958
0.0447079
0.0307381
0.0193793
0.00923772
0.00405831
-0.00194203
0.118508
0.0970707
0.0776797
0.0602202
0.0443478
0.030559
0.0194035
0.00968612
0.00438842
-0.000937363
0.120764
0.0986773
0.0781391
0.0603024
0.0443213
0.0306202
0.0196047
0.0102186
0.00479064
-0.000129895
0.123908
0.101646
0.0797067
0.0611631
0.0448631
0.0310776
0.020065
0.0108806
0.00527212
0.000530091
0.125335
0.104097
0.0815179
0.0625247
0.0460154
0.032082
0.0208985
0.0117439
0.00582374
0.00105228
0.120563
0.104632
0.0835535
0.0652228
0.049208
0.0352998
0.0236212
0.0141936
0.00723411
0.00195265
0.113451
0.0965355
0.0767806
0.0599741
0.0458177
0.0338513
0.0237601
0.0153546
0.00848548
0.00263883
0.109943
0.0927087
0.074766
0.0595912
0.0464647
0.035162
0.0253993
0.016997
0.00971254
0.00312781
0.109578
0.0922515
0.0752875
0.0610731
0.0484496
0.0373567
0.0275162
0.0187804
0.010902
0.00355195
0.112098
0.0945982
0.0778444
0.0637773
0.0510912
0.0398314
0.0296833
0.0204956
0.0120056
0.00393542
0.116684
0.0986964
0.0816868
0.0672686
0.0541743
0.0424926
0.0318726
0.0221482
0.0130382
0.00428966
0.122416
0.103664
0.0861494
0.0711218
0.0574508
0.0452128
0.0340326
0.0237277
0.0140034
0.00461754
0.128352
0.108734
0.0906391
0.0749027
0.0606032
0.04777
0.0360199
0.0251538
0.0148637
0.00490901
0.133384
0.11301
0.0944068
0.0780291
0.0631819
0.0498318
0.0376011
0.0262755
0.0155353
0.0051366
0.136311
0.115483
0.0965898
0.0798233
0.064658
0.051002
0.0384934
0.0269034
0.0159076
0.00526036
0.15122
0.144752
0.137298
0.132739
0.131851
0.134195
0.138596
0.143791
0.148427
0.151219
0.157444
0.15063
0.143282
0.138901
0.138127
0.140542
0.144966
0.15017
0.154818
0.157673
0.161794
0.153479
0.145895
0.142274
0.142457
0.145697
0.150687
0.15625
0.161106
0.164102
0.166949
0.15747
0.149475
0.146213
0.147001
0.150869
0.156363
0.162297
0.167396
0.170543
0.172485
0.16231
0.154176
0.151157
0.152279
0.156518
0.162338
0.168538
0.173817
0.177074
0.178132
0.167458
0.15936
0.156614
0.158008
0.162527
0.168589
0.174983
0.180387
0.183709
0.183302
0.17285
0.16486
0.162362
0.163993
0.168751
0.175021
0.181576
0.187073
0.190427
0.189186
0.178534
0.170676
0.168383
0.170191
0.17514
0.181583
0.188274
0.193845
0.197206
0.195078
0.184431
0.176766
0.174651
0.176584
0.181669
0.188247
0.195049
0.200676
0.204025
0.200816
0.190437
0.183043
0.1811
0.183124
0.188302
0.19498
0.201869
0.207541
0.210864
0.206355
0.196459
0.189415
0.187653
0.189749
0.194987
0.20174
0.208698
0.214408
0.217697
0.211628
0.202396
0.195781
0.194224
0.196389
0.201666
0.208476
0.215494
0.221242
0.224496
0.216561
0.208143
0.202041
0.200724
0.202971
0.208281
0.215139
0.222213
0.228002
0.231229
0.221085
0.213598
0.208095
0.207062
0.209418
0.214767
0.221674
0.228807
0.234647
0.237859
0.225153
0.218673
0.213848
0.213148
0.215653
0.221061
0.228027
0.235229
0.241134
0.244349
0.228743
0.223303
0.219224
0.218904
0.221604
0.2271
0.234146
0.241431
0.247417
0.250658
0.231849
0.227439
0.224151
0.224251
0.227197
0.232821
0.239977
0.247368
0.253452
0.256745
0.23445
0.231012
0.228512
0.229051
0.232298
0.238116
0.245442
0.252982
0.259192
0.262567
0.236567
0.234053
0.23228
0.233216
0.236778
0.242854
0.250434
0.2582
0.26459
0.268086
0.238509
0.237186
0.236289
0.237658
0.241462
0.247653
0.255329
0.263191
0.269673
0.273262
0.24294
0.246101
0.249092
0.25292
0.25782
0.26375
0.270261
0.276584
0.281685
0.284526
0.248747
0.253526
0.258634
0.264434
0.270893
0.277719
0.284381
0.290238
0.294621
0.296957
0.254866
0.260355
0.266526
0.273201
0.280192
0.287125
0.293463
0.298651
0.302259
0.304081
0.260091
0.266256
0.273107
0.280236
0.287328
0.293937
0.299541
0.303699
0.306236
0.307344
0.263868
0.270736
0.27809
0.285518
0.292618
0.298878
0.303755
0.306867
0.30822
0.308421
0.266321
0.274011
0.28182
0.289533
0.296699
0.302734
0.307035
0.309183
0.309222
0.308065
0.267949
0.276621
0.284842
0.292894
0.300245
0.306247
0.310184
0.311459
0.309914
0.306201
0.269751
0.27922
0.287751
0.296201
0.303819
0.309924
0.313627
0.314031
0.310268
0.300816
0.272821
0.28261
0.291443
0.300406
0.308353
0.314555
0.317949
0.317676
0.312595
0.293532
0.280069
0.290008
0.300125
0.310925
0.321122
0.330309
0.338557
0.344749
0.331736
0.245962
0.241335
0.2448
0.250411
0.255562
0.259609
0.262792
0.265447
0.268227
0.270569
0.276251
0.240162
0.243965
0.249546
0.254473
0.258338
0.261418
0.264017
0.266899
0.269045
0.274287
0.238751
0.243629
0.249253
0.253843
0.25737
0.260074
0.262316
0.264973
0.266941
0.271776
0.237266
0.243085
0.248689
0.253009
0.256236
0.258619
0.260551
0.262963
0.264745
0.269171
0.23584
0.242384
0.247875
0.251994
0.25494
0.257064
0.258763
0.26098
0.262605
0.266672
0.234498
0.241602
0.246979
0.250888
0.25357
0.255452
0.256948
0.258995
0.260497
0.26427
0.23325
0.240728
0.246047
0.249727
0.252162
0.253809
0.255116
0.257001
0.2584
0.261927
0.232185
0.239769
0.245072
0.24853
0.250731
0.252154
0.253282
0.255008
0.25633
0.25964
0.231221
0.238727
0.244075
0.247318
0.2493
0.250506
0.251464
0.253038
0.254297
0.257417
0.230356
0.237619
0.243083
0.246116
0.247892
0.248886
0.249679
0.251111
0.252321
0.25526
0.229577
0.236465
0.242119
0.244949
0.24653
0.247315
0.247942
0.249239
0.250406
0.253192
0.228851
0.235288
0.241199
0.243841
0.245237
0.245809
0.246265
0.247427
0.24856
0.251232
0.228126
0.234111
0.240333
0.24281
0.244031
0.244386
0.24466
0.245685
0.246795
0.249389
0.227335
0.232955
0.239524
0.241875
0.242929
0.243061
0.243138
0.24402
0.245121
0.247674
0.226388
0.23184
0.238768
0.241048
0.241945
0.241846
0.241706
0.242434
0.243546
0.246106
0.225189
0.230781
0.238055
0.240337
0.241089
0.240754
0.240374
0.240933
0.242079
0.244704
0.223654
0.229797
0.237384
0.239753
0.240374
0.239792
0.239142
0.239516
0.240725
0.243496
0.221637
0.228861
0.236751
0.239306
0.239806
0.238945
0.237967
0.23813
0.239468
0.242509
0.218626
0.22773
0.236028
0.238927
0.239347
0.238188
0.236811
0.236709
0.238254
0.241769
0.214589
0.226198
0.234957
0.238374
0.238946
0.237776
0.236254
0.23595
0.237516
0.241355
0.209756
0.223736
0.232543
0.237011
0.238757
0.239075
0.239161
0.23995
0.241275
0.2429
0.216952
0.227543
0.234216
0.237363
0.2381
0.237697
0.237454
0.238335
0.240233
0.241879
0.222064
0.230719
0.235801
0.237752
0.237586
0.236666
0.236387
0.237663
0.240275
0.24239
0.22539
0.232706
0.236624
0.237613
0.236823
0.235888
0.236466
0.239436
0.244133
0.24728
0.227985
0.234237
0.236989
0.236913
0.235484
0.234861
0.237299
0.243824
0.253047
0.258733
0.230248
0.235607
0.237123
0.235807
0.233808
0.234024
0.239877
0.252838
0.270583
0.281866
0.232588
0.237347
0.237854
0.235466
0.233091
0.235484
0.247118
0.270601
0.302899
0.325869
0.235546
0.240469
0.241018
0.238894
0.237995
0.244313
0.264717
0.304171
0.36058
0.410526
0.23929
0.245506
0.247636
0.247494
0.249727
0.261441
0.293862
0.354757
0.448199
0.556051
0.242962
0.251136
0.256032
0.259657
0.268409
0.292328
0.33991
0.429329
0.584287
0.80561
0.199551
0.209969
0.215145
0.219621
0.223238
0.226345
0.229099
0.231741
0.234237
0.236644
0.194899
0.207046
0.212331
0.217249
0.221102
0.224372
0.227164
0.229666
0.231779
0.23373
0.192132
0.205139
0.210292
0.215332
0.219113
0.222286
0.224933
0.227236
0.22909
0.230687
0.189869
0.203084
0.208152
0.213271
0.216968
0.220039
0.222538
0.224653
0.226299
0.227617
0.187684
0.200673
0.205741
0.210946
0.214602
0.217616
0.220008
0.221971
0.223441
0.224538
0.185588
0.198058
0.203178
0.208441
0.21207
0.215046
0.217357
0.219199
0.220528
0.221456
0.183513
0.195328
0.200537
0.205814
0.209421
0.212363
0.214609
0.216356
0.217577
0.21838
0.181448
0.192505
0.197865
0.203092
0.206681
0.209596
0.211792
0.213465
0.214607
0.215323
0.179402
0.189652
0.195158
0.200302
0.203874
0.206767
0.208928
0.21055
0.211634
0.212294
0.177392
0.186841
0.192417
0.197459
0.201028
0.203901
0.20604
0.207626
0.20867
0.209298
0.120601
0.130058
0.135821
0.141019
0.145301
0.148668
0.15124
0.153168
0.154231
0.153149
0.117751
0.128295
0.134442
0.139852
0.144177
0.147423
0.149716
0.15115
0.151331
0.149565
0.114688
0.126404
0.132915
0.138505
0.14284
0.145952
0.147995
0.149076
0.14886
0.147141
0.111493
0.124421
0.131259
0.136984
0.141288
0.144243
0.146041
0.146816
0.14635
0.144738
0.10827
0.122396
0.129507
0.135311
0.13954
0.142309
0.143859
0.144362
0.143723
0.142214
0.10515
0.120401
0.127713
0.133532
0.137638
0.140195
0.141495
0.14175
0.140976
0.139531
0.102288
0.118526
0.125955
0.131719
0.135656
0.137978
0.139024
0.139041
0.138135
0.136686
0.099868
0.116886
0.124332
0.129973
0.133698
0.135766
0.136552
0.13633
0.135275
0.133744
0.0980816
0.115617
0.122971
0.128419
0.131895
0.133694
0.134216
0.133751
0.132515
0.130827
0.0970488
0.114822
0.121987
0.127184
0.130388
0.131911
0.132167
0.131453
0.130005
0.128097
0.0967354
0.114509
0.121438
0.126365
0.129297
0.130555
0.130554
0.12959
0.127901
0.125733
0.0977479
0.115089
0.121653
0.126239
0.128868
0.129845
0.129573
0.12834
0.126374
0.123918
0.100165
0.116637
0.12273
0.126923
0.129225
0.129909
0.129352
0.127828
0.125551
0.122797
0.104069
0.119249
0.124786
0.128544
0.130495
0.130867
0.130002
0.128154
0.125526
0.122469
0.109551
0.123034
0.127937
0.131215
0.132784
0.132813
0.131602
0.129382
0.126352
0.122979
0.116653
0.128064
0.13226
0.135008
0.136154
0.135799
0.134194
0.131543
0.128045
0.124319
0.125354
0.134363
0.137785
0.139951
0.140628
0.139842
0.137793
0.13465
0.130598
0.126423
0.135563
0.141901
0.144488
0.146021
0.146185
0.144924
0.142384
0.138673
0.133913
0.129092
0.147118
0.150588
0.15229
0.153144
0.152769
0.151021
0.147979
0.143618
0.137857
0.131977
0.159782
0.160269
0.161055
0.1612
0.160275
0.15811
0.154715
0.14992
0.143384
0.136423
0.173304
0.170765
0.1706
0.17
0.16853
0.166035
0.162566
0.158065
0.152657
0.149238
0.187591
0.181912
0.180712
0.179298
0.177231
0.174355
0.170715
0.166326
0.161527
0.158621
0.202084
0.193344
0.191087
0.188818
0.186104
0.182779
0.178853
0.174364
0.169637
0.166258
0.216342
0.204745
0.201443
0.198304
0.194919
0.191103
0.186833
0.182142
0.177278
0.173404
0.22999
0.215817
0.211512
0.207521
0.203469
0.199159
0.194532
0.189605
0.184549
0.180247
0.242676
0.226275
0.221043
0.216253
0.211576
0.206806
0.201852
0.196714
0.191504
0.18687
0.254091
0.235862
0.229811
0.224311
0.219087
0.213926
0.208711
0.203425
0.198135
0.193243
0.263981
0.244359
0.237627
0.231538
0.225876
0.220424
0.21504
0.2097
0.204433
0.199469
0.272148
0.251594
0.244343
0.237812
0.231842
0.226215
0.220772
0.215481
0.210342
0.205436
0.278428
0.257424
0.249846
0.243042
0.236909
0.231236
0.225849
0.220713
0.215811
0.211082
0.282695
0.261749
0.254066
0.247175
0.241036
0.235448
0.230231
0.225351
0.220786
0.21635
0.285227
0.264656
0.257015
0.250192
0.244188
0.238809
0.233871
0.229339
0.225203
0.221168
0.286013
0.266143
0.258707
0.25211
0.246378
0.241323
0.23676
0.232656
0.229019
0.225471
0.285129
0.266272
0.259197
0.252973
0.247637
0.243009
0.238903
0.235291
0.232202
0.229209
0.282726
0.265146
0.25857
0.252848
0.248016
0.2439
0.240319
0.237246
0.234737
0.232344
0.278983
0.262895
0.256934
0.251819
0.247581
0.244048
0.241044
0.238544
0.236627
0.234859
0.274103
0.259669
0.25441
0.249988
0.246413
0.243516
0.241128
0.239221
0.237894
0.236753
0.268299
0.255625
0.251133
0.247465
0.244603
0.242378
0.240629
0.239325
0.238571
0.238037
0.261786
0.250927
0.247242
0.244364
0.242245
0.240714
0.239616
0.238916
0.238706
0.238729
0.254784
0.245739
0.242872
0.2408
0.239435
0.238602
0.238158
0.23806
0.238361
0.238892
0.247471
0.240205
0.238146
0.236873
0.236257
0.236116
0.236314
0.23681
0.237605
0.238668
0.239892
0.234411
0.233164
0.232681
0.232799
0.233328
0.23414
0.235207
0.236556
0.238004
0.23231
0.228529
0.228057
0.228325
0.22914
0.230305
0.231687
0.233264
0.235077
0.236807
0.224904
0.222679
0.222924
0.223889
0.225355
0.227111
0.229022
0.23106
0.23327
0.235264
0.217791
0.216949
0.217845
0.219445
0.221507
0.22381
0.22621
0.228672
0.23124
0.233505
0.211032
0.21143
0.212885
0.215051
0.217652
0.220452
0.223304
0.226157
0.229052
0.231619
0.204721
0.206152
0.208093
0.210754
0.213831
0.21708
0.220345
0.223557
0.226753
0.229713
0.198886
0.201151
0.203503
0.206586
0.210078
0.213724
0.21736
0.220901
0.224346
0.227456
0.19354
0.196444
0.199134
0.202569
0.206415
0.210407
0.214375
0.218215
0.221899
0.22526
0.188774
0.192083
0.195018
0.198728
0.202862
0.207149
0.211407
0.215515
0.219412
0.223045
0.184816
0.188208
0.191242
0.19512
0.19946
0.203976
0.208474
0.212809
0.216881
0.220771
0.181061
0.184507
0.187637
0.191652
0.19616
0.200864
0.205565
0.210094
0.214305
0.218428
0.177597
0.181041
0.184233
0.188344
0.192974
0.197822
0.202684
0.207369
0.211679
0.215999
0.174457
0.177826
0.181037
0.185198
0.189905
0.194852
0.199831
0.204632
0.208997
0.213466
0.171597
0.174835
0.178031
0.182203
0.186948
0.191953
0.197009
0.201885
0.206256
0.210806
0.168971
0.172039
0.175195
0.179351
0.1841
0.189129
0.194224
0.199138
0.203463
0.208005
0.166535
0.169415
0.172514
0.17663
0.181359
0.186384
0.19149
0.196413
0.20065
0.205076
0.16425
0.166938
0.169971
0.174032
0.178723
0.183726
0.188826
0.193747
0.197868
0.20204
0.16208
0.16459
0.167554
0.171551
0.176193
0.181165
0.186248
0.191153
0.195118
0.198784
0.159998
0.162354
0.165249
0.169181
0.173773
0.178726
0.183812
0.188752
0.192772
0.196024
0.157963
0.160207
0.163037
0.166901
0.171446
0.17641
0.181604
0.186986
0.19286
0.199095
0.155842
0.158085
0.160885
0.164686
0.16916
0.174065
0.179203
0.184516
0.190413
0.19623
0.153711
0.156027
0.158807
0.162538
0.166907
0.171681
0.176654
0.181722
0.18717
0.192386
0.151593
0.154039
0.156809
0.160465
0.16471
0.169322
0.174107
0.178944
0.183975
0.189013
0.149491
0.152123
0.154895
0.15848
0.162595
0.167033
0.17162
0.176261
0.181081
0.18549
0.147417
0.150282
0.153071
0.156594
0.160581
0.164842
0.169219
0.173635
0.178154
0.182123
0.145386
0.148523
0.151348
0.154821
0.158687
0.162773
0.166945
0.17113
0.175362
0.179094
0.143415
0.146852
0.149732
0.153171
0.156928
0.160849
0.16482
0.168777
0.172732
0.176279
0.14152
0.145269
0.148225
0.15165
0.155314
0.159082
0.162859
0.16659
0.170268
0.173636
0.139781
0.14381
0.146851
0.150277
0.153864
0.157489
0.161081
0.164587
0.167988
0.171166
)
;

boundaryField
{
    inlet
    {
        type            zeroGradient;
    }
    outlet
    {
        type            fixedValue;
        value           uniform 0;
    }
    cylinder
    {
        type            zeroGradient;
    }
    top
    {
        type            symmetryPlane;
    }
    bottom
    {
        type            symmetryPlane;
    }
    defaultFaces
    {
        type            empty;
    }
}


// ************************************************************************* //
