-0.362837 	0.362837 	0.5 	0.0209303 	0.0198473 	1.70937e-23
-0.380512 	0.380512 	0.5 	0.0571161 	0.0518402 	6.57302e-21
-0.398188 	0.398188 	0.5 	0.0895579 	0.0770959 	-3.35271e-21
-0.415863 	0.415863 	0.5 	0.118429 	0.0970847 	2.70687e-20
-0.433538 	0.433538 	0.5 	0.144265 	0.112631 	0
-0.451213 	0.451213 	0.5 	0.167432 	0.124483 	2.08828e-20
-0.468888 	0.468888 	0.5 	0.188251 	0.133247 	3.53128e-20
-0.486563 	0.486563 	0.5 	0.206996 	0.139425 	2.13871e-20
-0.504238 	0.504238 	0.5 	0.223906 	0.143438 	-1.43613e-20
-0.521913 	0.521913 	0.5 	0.239188 	0.145641 	-3.63928e-20
-0.539588 	0.539588 	0.5 	0.253025 	0.146334 	0
-0.557263 	0.557263 	0.5 	0.265581 	0.145774 	2.95012e-20
-0.574938 	0.574938 	0.5 	0.276998 	0.14418 	1.4869e-20
-0.592613 	0.592613 	0.5 	0.287405 	0.141736 	-1.00221e-22
-0.610288 	0.610288 	0.5 	0.296914 	0.138602 	2.35435e-23
-0.627963 	0.627963 	0.5 	0.305629 	0.134913 	5.99906e-20
-0.645638 	0.645638 	0.5 	0.313639 	0.130785 	-1.5053e-20
-0.663313 	0.663313 	0.5 	0.321026 	0.126316 	4.50286e-20
-0.680988 	0.680988 	0.5 	0.32786 	0.121588 	-1.5052e-20
-0.698663 	0.698663 	0.5 	0.334206 	0.116671 	4.49515e-20
-0.716338 	0.716338 	0.5 	0.340122 	0.111625 	-2.99791e-20
-0.734013 	0.734013 	0.5 	0.345656 	0.106497 	4.47743e-20
-0.751688 	0.751688 	0.5 	0.350855 	0.101329 	1.48842e-20
-0.769363 	0.769363 	0.5 	0.355759 	0.0961528 	-4.4455e-20
-0.787038 	0.787038 	0.5 	0.360402 	0.0909966 	0
-0.804713 	0.804713 	0.5 	0.364817 	0.0858819 	-2.93193e-20
-0.822388 	0.822388 	0.5 	0.369031 	0.0808259 	0
-0.840063 	0.840063 	0.5 	0.373068 	0.0758421 	-2.89889e-20
-0.857738 	0.857738 	0.5 	0.376952 	0.0709405 	0
-0.875413 	0.875413 	0.5 	0.380703 	0.0661286 	2.86133e-20
-0.893088 	0.893088 	0.5 	0.384337 	0.0614116 	0
-0.910763 	0.910763 	0.5 	0.387873 	0.0567926 	2.81988e-20
-0.928438 	0.928438 	0.5 	0.391325 	0.0522732 	-2.79788e-20
-0.946113 	0.946113 	0.5 	0.39471 	0.0478531 	0
-0.963788 	0.963788 	0.5 	0.398045 	0.0435305 	-2.75155e-20
-0.981463 	0.981463 	0.5 	0.401348 	0.039305 	2.72728e-20
-0.999138 	0.999138 	0.5 	0.404645 	0.0351753 	0
-1.01681 	1.01681 	0.5 	0.408013 	0.031106 	0
-1.03449 	1.03449 	0.5 	0.411653 	0.0270589 	-2.64717e-20
-1.05216 	1.05216 	0.5 	0.415739 	0.0234745 	-3.07859e-20
-1.061 	1.061 	0.5 	0.429196 	0.01784 	2.53851e-20
-1.12274 	1.12274 	0.5 	0.421071 	0.0130243 	0
-1.18448 	1.18448 	0.5 	0.424095 	-0.00608132 	0
-1.24621 	1.24621 	0.5 	0.441634 	-0.0131216 	0
-1.30795 	1.30795 	0.5 	0.459348 	-0.0149972 	0
-1.36969 	1.36969 	0.5 	0.457314 	-0.0325116 	0
-1.43142 	1.43142 	0.5 	0.474242 	-0.0336149 	0
-1.49316 	1.49316 	0.5 	0.473218 	-0.0505993 	0
-1.5549 	1.5549 	0.5 	0.472984 	-0.0676316 	0
-1.61664 	1.61664 	0.5 	0.48954 	-0.0675823 	0
-1.67838 	1.67838 	0.5 	0.48989 	-0.0840693 	0
