/*--------------------------------*- C++ -*----------------------------------*\
  =========                 |
  \\      /  F ield         | OpenFOAM: The Open Source CFD Toolbox
   \\    /   O peration     | Website:  https://openfoam.org
    \\  /    A nd           | Version:  7
     \\/     M anipulation  |
\*---------------------------------------------------------------------------*/
FoamFile
{
    version     2.0;
    format      ascii;
    class       volScalarField;
    location    "6.9";
    object      p;
}
// * * * * * * * * * * * * * * * * * * * * * * * * * * * * * * * * * * * * * //

dimensions      [0 2 -2 0 0 0 0];

internalField   nonuniform List<scalar> 
32000
(
0.378088
0.378488
0.378656
0.37878
0.378895
0.379031
0.379176
0.379333
0.379528
0.379798
0.38017
0.380655
0.381254
0.381966
0.382795
0.383747
0.384831
0.386052
0.387418
0.388933
0.390596
0.392405
0.394353
0.39643
0.398624
0.400926
0.403325
0.405809
0.408365
0.41098
0.413641
0.416335
0.41905
0.421773
0.424493
0.427199
0.429882
0.432538
0.435146
0.437639
0.378239
0.3786
0.378738
0.378829
0.378919
0.379034
0.379161
0.379299
0.379478
0.379729
0.380079
0.380541
0.381117
0.381805
0.382609
0.383533
0.384583
0.385766
0.387089
0.388557
0.39017
0.391926
0.393817
0.395831
0.397955
0.400183
0.402504
0.404909
0.407386
0.409922
0.412504
0.415117
0.417751
0.420392
0.423031
0.425654
0.428257
0.430833
0.433356
0.435779
0.378395
0.378715
0.378824
0.378885
0.378951
0.379045
0.379154
0.379277
0.379442
0.37968
0.380013
0.380454
0.381008
0.381674
0.382455
0.383353
0.384374
0.385523
0.386807
0.388232
0.389799
0.391505
0.39334
0.395291
0.397347
0.399501
0.401746
0.404073
0.40647
0.408926
0.411426
0.413957
0.416507
0.419064
0.421616
0.424155
0.426672
0.429164
0.4316
0.433949
0.378547
0.378817
0.378902
0.37894
0.378985
0.37906
0.379154
0.379266
0.379422
0.379651
0.379972
0.380396
0.38093
0.381576
0.382335
0.38321
0.384205
0.385324
0.386573
0.38796
0.389484
0.391142
0.392922
0.39481
0.396799
0.398881
0.401051
0.4033
0.405617
0.407991
0.410408
0.412854
0.415317
0.417786
0.42025
0.4227
0.425129
0.427534
0.429878
0.432149
0.378705
0.378927
0.37899
0.379007
0.379033
0.37909
0.37917
0.379274
0.379424
0.379646
0.379957
0.380367
0.380885
0.381513
0.382252
0.383106
0.384077
0.385169
0.386387
0.387739
0.389224
0.390835
0.392559
0.394386
0.396308
0.39832
0.400416
0.402588
0.404826
0.407117
0.409448
0.411807
0.414182
0.416561
0.418933
0.42129
0.423628
0.425941
0.42819
0.430378
0.378863
0.379034
0.379077
0.379075
0.379084
0.379127
0.379196
0.379295
0.379443
0.37966
0.379963
0.380363
0.380869
0.381482
0.382204
0.383039
0.383989
0.385058
0.38625
0.38757
0.389017
0.390582
0.392252
0.394019
0.395877
0.39782
0.399844
0.401939
0.404097
0.406303
0.408548
0.410818
0.413102
0.415387
0.417665
0.419927
0.42217
0.424386
0.426535
0.428636
0.379022
0.379144
0.379168
0.37915
0.379145
0.379176
0.379238
0.379334
0.37948
0.379696
0.379994
0.380388
0.380885
0.381486
0.382194
0.383012
0.383944
0.384993
0.386162
0.387453
0.388864
0.390383
0.392001
0.393709
0.395504
0.39738
0.399333
0.401353
0.403429
0.40555
0.407706
0.409886
0.412077
0.414267
0.416448
0.418611
0.420754
0.422871
0.424915
0.426923
0.379179
0.379254
0.379262
0.379229
0.379214
0.379236
0.379293
0.379387
0.379535
0.379751
0.380049
0.380441
0.380932
0.381523
0.382218
0.383023
0.38394
0.384973
0.386122
0.387388
0.388763
0.390238
0.391804
0.393456
0.39519
0.397002
0.398884
0.400828
0.402823
0.404859
0.406926
0.409013
0.411109
0.413201
0.415281
0.417343
0.419383
0.421395
0.423331
0.425242
0.379333
0.379361
0.379355
0.379312
0.379289
0.379306
0.37936
0.379455
0.379604
0.379824
0.380126
0.380519
0.381008
0.381592
0.382278
0.383071
0.383977
0.384997
0.38613
0.387371
0.388712
0.390144
0.391661
0.393259
0.394935
0.396682
0.398495
0.400364
0.402278
0.404228
0.406205
0.408199
0.410198
0.41219
0.414167
0.416123
0.418057
0.41996
0.421785
0.423593
0.37948
0.379464
0.379446
0.379396
0.37937
0.379385
0.379438
0.379534
0.379688
0.379914
0.380223
0.380622
0.381111
0.381691
0.38237
0.383156
0.384054
0.385064
0.386183
0.387401
0.38871
0.390102
0.391572
0.393118
0.394736
0.396422
0.398167
0.39996
0.401793
0.403657
0.405544
0.407444
0.409344
0.411234
0.413105
0.414954
0.416777
0.418568
0.420278
0.421979
0.37962
0.37956
0.379533
0.37948
0.379454
0.379469
0.379524
0.379624
0.379785
0.38002
0.38034
0.380747
0.381238
0.381818
0.382494
0.383276
0.38417
0.385173
0.386279
0.387476
0.388754
0.390108
0.391535
0.393031
0.394595
0.396219
0.397896
0.399615
0.401368
0.403146
0.404942
0.406746
0.408546
0.410332
0.412097
0.413834
0.415544
0.41722
0.418812
0.4204
0.37975
0.379649
0.379615
0.379562
0.379539
0.379557
0.379616
0.379722
0.379892
0.380141
0.380474
0.380891
0.381389
0.381971
0.382648
0.38343
0.384323
0.38532
0.386414
0.387591
0.388843
0.390162
0.391547
0.392997
0.394507
0.396072
0.397682
0.399327
0.400999
0.402692
0.404398
0.406106
0.407805
0.409486
0.411141
0.412766
0.41436
0.415917
0.417388
0.41886
0.37987
0.379729
0.37969
0.37964
0.379623
0.379646
0.379711
0.379826
0.380009
0.380273
0.380622
0.381052
0.381559
0.382148
0.382831
0.383617
0.38451
0.385503
0.386586
0.387745
0.388972
0.39026
0.391607
0.393012
0.394472
0.395978
0.397522
0.399093
0.400686
0.402294
0.40391
0.405522
0.40712
0.408694
0.410239
0.411749
0.413225
0.414662
0.416011
0.417362
0.37998
0.3798
0.379759
0.379713
0.379703
0.379734
0.379807
0.379934
0.380133
0.380415
0.380781
0.381226
0.381747
0.382347
0.383039
0.383832
0.384727
0.385717
0.38679
0.387934
0.389139
0.390398
0.39171
0.393074
0.394485
0.395934
0.397412
0.398911
0.400426
0.401951
0.403477
0.404993
0.40649
0.407957
0.40939
0.410784
0.412141
0.413457
0.414682
0.415908
0.380079
0.379861
0.379819
0.379779
0.379778
0.379817
0.379902
0.380044
0.380261
0.380562
0.380948
0.381411
0.381948
0.382564
0.383269
0.384071
0.38497
0.385958
0.387023
0.388154
0.389339
0.390574
0.391854
0.393179
0.394542
0.395935
0.39735
0.398779
0.400218
0.40166
0.403098
0.404519
0.405914
0.407275
0.408595
0.409874
0.411111
0.412303
0.413405
0.414503
0.380167
0.379914
0.379871
0.379837
0.379844
0.379896
0.379995
0.380154
0.380391
0.380714
0.381121
0.381604
0.382161
0.382796
0.383518
0.384332
0.385236
0.386223
0.387282
0.388401
0.389571
0.390783
0.392034
0.393322
0.39464
0.395979
0.397332
0.398693
0.400058
0.40142
0.402771
0.404097
0.405391
0.406646
0.407855
0.409018
0.410135
0.411205
0.412183
0.413149
0.380244
0.379957
0.379914
0.379884
0.379902
0.379966
0.380082
0.380262
0.380521
0.380867
0.381296
0.381802
0.382382
0.38304
0.383782
0.38461
0.38552
0.386508
0.387562
0.388673
0.389829
0.391022
0.392247
0.3935
0.394775
0.396062
0.397356
0.398651
0.399945
0.401228
0.402492
0.403726
0.404921
0.40607
0.407169
0.408217
0.409215
0.410163
0.411019
0.411852
0.380309
0.379991
0.379945
0.37992
0.379948
0.380028
0.380164
0.380366
0.380649
0.381019
0.381473
0.382004
0.382611
0.383294
0.384057
0.3849
0.385819
0.38681
0.387862
0.388967
0.390111
0.391287
0.392488
0.393709
0.394942
0.39618
0.397417
0.39865
0.399874
0.40108
0.40226
0.403403
0.4045
0.405546
0.406537
0.407472
0.408353
0.40918
0.409916
0.410614
0.380361
0.380013
0.379965
0.379944
0.379983
0.38008
0.380238
0.380465
0.380774
0.381169
0.381649
0.382208
0.382843
0.383553
0.38434
0.3852
0.38613
0.387125
0.388178
0.389278
0.390414
0.391574
0.392753
0.393944
0.395138
0.396329
0.397512
0.398685
0.399841
0.400973
0.402071
0.403125
0.404127
0.405073
0.405958
0.406783
0.407549
0.408258
0.408875
0.409438
0.3804
0.380024
0.379972
0.379954
0.380004
0.38012
0.380302
0.380557
0.380893
0.381316
0.381823
0.382412
0.383077
0.383816
0.384627
0.385505
0.386449
0.387451
0.388506
0.389604
0.390732
0.39188
0.393038
0.3942
0.395357
0.396504
0.397637
0.398751
0.399842
0.400902
0.40192
0.402889
0.403799
0.404647
0.405431
0.406149
0.406802
0.407396
0.407899
0.408326
0.380424
0.380021
0.379965
0.379949
0.380012
0.380147
0.380355
0.380639
0.381005
0.381457
0.381994
0.382613
0.38331
0.384079
0.384915
0.385814
0.386772
0.387784
0.388843
0.38994
0.391062
0.392198
0.393338
0.394473
0.395596
0.396702
0.397785
0.398844
0.399872
0.400862
0.401805
0.402691
0.403513
0.404268
0.404953
0.405568
0.406113
0.406594
0.406989
0.407281
0.38043
0.380001
0.379941
0.379928
0.380003
0.380161
0.380396
0.380711
0.381107
0.381589
0.382157
0.382809
0.383538
0.384337
0.3852
0.386121
0.387095
0.388118
0.389183
0.390281
0.391399
0.392524
0.393647
0.394758
0.395849
0.396915
0.397953
0.398958
0.399926
0.40085
0.401719
0.402526
0.403264
0.40393
0.404521
0.405038
0.405479
0.405853
0.406143
0.406304
0.380416
0.379962
0.379898
0.379889
0.379978
0.380158
0.380422
0.380769
0.381197
0.38171
0.382311
0.382996
0.383759
0.384589
0.385479
0.386423
0.387415
0.38845
0.389523
0.390622
0.391737
0.392854
0.393962
0.39505
0.396111
0.39714
0.398133
0.399088
0.399999
0.400858
0.401658
0.402391
0.403049
0.403629
0.404132
0.404555
0.404898
0.405169
0.405362
0.405395
0.380378
0.379901
0.379833
0.379829
0.379934
0.380138
0.380432
0.380811
0.381272
0.381819
0.382453
0.383172
0.383968
0.384831
0.385749
0.386716
0.387727
0.388776
0.389856
0.390959
0.392072
0.393182
0.394276
0.395344
0.396377
0.39737
0.398321
0.399227
0.400083
0.400882
0.401617
0.402278
0.40286
0.403361
0.40378
0.404115
0.404364
0.404539
0.404641
0.404552
0.380313
0.379815
0.379745
0.379748
0.379869
0.380098
0.380424
0.380836
0.381331
0.381911
0.38258
0.383334
0.384164
0.385058
0.386005
0.386997
0.388027
0.38909
0.39018
0.391286
0.392398
0.393502
0.394585
0.395633
0.396639
0.397599
0.39851
0.39937
0.400174
0.400915
0.401587
0.40218
0.402691
0.403116
0.403457
0.403711
0.403874
0.403959
0.403979
0.403774
0.380221
0.379704
0.379633
0.379644
0.379783
0.380039
0.380395
0.380841
0.38137
0.381985
0.382689
0.383478
0.384343
0.385269
0.386245
0.387261
0.388312
0.38939
0.390489
0.3916
0.392712
0.393811
0.394882
0.395912
0.396893
0.397821
0.398694
0.399509
0.400263
0.40095
0.401561
0.40209
0.402533
0.402889
0.403157
0.403336
0.403419
0.403422
0.403368
0.403055
0.380099
0.379566
0.379496
0.379516
0.379674
0.379956
0.380344
0.380823
0.381389
0.38204
0.382779
0.383604
0.384502
0.38546
0.386465
0.387507
0.388578
0.389671
0.39078
0.391896
0.393009
0.394103
0.395163
0.396175
0.397132
0.398029
0.398865
0.399638
0.400344
0.400978
0.401531
0.402
0.402379
0.40267
0.402871
0.402981
0.402992
0.402921
0.402803
0.402391
0.379947
0.379399
0.379331
0.379363
0.379542
0.379851
0.380269
0.380783
0.381384
0.382072
0.382848
0.383708
0.38464
0.38563
0.386663
0.38773
0.388821
0.38993
0.391049
0.39217
0.393283
0.394372
0.395421
0.396417
0.39735
0.398217
0.399018
0.399749
0.400409
0.400991
0.40149
0.4019
0.40222
0.40245
0.40259
0.402638
0.402585
0.402448
0.402274
0.401776
0.379762
0.379203
0.379139
0.379184
0.379385
0.379721
0.38017
0.380717
0.381355
0.38208
0.382893
0.383789
0.384754
0.385775
0.386836
0.387927
0.389039
0.390162
0.39129
0.392416
0.393529
0.394613
0.395652
0.39663
0.39754
0.398378
0.399144
0.399836
0.400451
0.400983
0.401428
0.401783
0.402047
0.40222
0.402305
0.402296
0.402186
0.401993
0.401774
0.4012
0.379543
0.378975
0.378918
0.37898
0.379203
0.379566
0.380045
0.380625
0.381298
0.382062
0.382912
0.383844
0.384842
0.385892
0.38698
0.388095
0.389226
0.390363
0.391501
0.392631
0.393743
0.394821
0.395848
0.396808
0.397695
0.398506
0.399238
0.39989
0.40046
0.400944
0.401337
0.401639
0.40185
0.401971
0.402003
0.401945
0.401785
0.401545
0.401291
0.400656
0.379289
0.378716
0.378668
0.378747
0.378994
0.379384
0.379893
0.380505
0.381214
0.382014
0.382903
0.383869
0.384899
0.385978
0.387093
0.38823
0.389379
0.39053
0.391675
0.392809
0.393919
0.39499
0.396004
0.396946
0.39781
0.398592
0.399291
0.399904
0.40043
0.400865
0.401208
0.401458
0.401618
0.401689
0.401674
0.401571
0.40137
0.401091
0.400814
0.400133
0.378998
0.378423
0.378387
0.378485
0.378757
0.379173
0.379711
0.380356
0.381099
0.381936
0.382861
0.383862
0.384924
0.386031
0.38717
0.388329
0.389495
0.390657
0.39181
0.392945
0.394053
0.395115
0.396114
0.397038
0.397878
0.398631
0.399295
0.399869
0.40035
0.400737
0.40103
0.40123
0.40134
0.401364
0.401305
0.401162
0.400926
0.400619
0.40033
0.399621
0.378668
0.378094
0.378072
0.378192
0.37849
0.378933
0.3795
0.380175
0.380952
0.381824
0.382786
0.383821
0.384912
0.386046
0.387209
0.388388
0.389569
0.390742
0.3919
0.393036
0.394138
0.39519
0.396174
0.397076
0.397891
0.398614
0.399243
0.399777
0.400213
0.400551
0.400794
0.400944
0.401004
0.400981
0.40088
0.400702
0.400438
0.400112
0.399825
0.399108
0.378298
0.377728
0.377723
0.377866
0.37819
0.378662
0.379257
0.379962
0.380771
0.381678
0.382674
0.383742
0.384863
0.386022
0.387207
0.388404
0.389599
0.39078
0.391941
0.393076
0.394172
0.395211
0.396176
0.397056
0.397844
0.398535
0.399127
0.399618
0.400007
0.400297
0.400488
0.400586
0.400596
0.400526
0.400383
0.400172
0.399886
0.399552
0.399281
0.398582
0.377886
0.377323
0.377337
0.377505
0.377857
0.378357
0.37898
0.379714
0.380554
0.381495
0.382525
0.383624
0.384772
0.385956
0.387161
0.388374
0.38958
0.390768
0.391931
0.393062
0.394147
0.395171
0.396116
0.396971
0.397728
0.398385
0.398937
0.399384
0.399725
0.399963
0.400101
0.400145
0.400102
0.399982
0.399796
0.399552
0.399248
0.398914
0.398678
0.398029
0.37743
0.376878
0.376912
0.377108
0.377489
0.378018
0.378669
0.379431
0.380302
0.381274
0.382336
0.383464
0.384639
0.385845
0.387068
0.388295
0.389509
0.390701
0.391863
0.392987
0.394061
0.395066
0.395987
0.396813
0.397538
0.398157
0.398667
0.399066
0.399355
0.399539
0.399621
0.399608
0.399508
0.399332
0.399097
0.398816
0.398493
0.398167
0.397983
0.397426
0.376929
0.376391
0.376448
0.376673
0.377085
0.377643
0.378321
0.379111
0.380011
0.381014
0.382105
0.383261
0.384459
0.385686
0.386925
0.388163
0.389383
0.390576
0.391734
0.392848
0.393906
0.394889
0.395783
0.396577
0.397266
0.397844
0.398308
0.398656
0.39889
0.399016
0.399037
0.39896
0.398795
0.398557
0.398263
0.397934
0.397584
0.397263
0.397144
0.396736
0.376382
0.375861
0.375943
0.376199
0.376643
0.377231
0.377936
0.378753
0.379681
0.380713
0.381832
0.383012
0.384232
0.385476
0.386729
0.387974
0.389198
0.390389
0.391539
0.39264
0.393677
0.394634
0.395498
0.396257
0.396906
0.397439
0.397852
0.398145
0.398321
0.398383
0.398337
0.39819
0.397951
0.397636
0.397267
0.396871
0.396474
0.396144
0.396104
0.395934
0.375788
0.375288
0.375396
0.375686
0.376162
0.376779
0.377511
0.378355
0.379309
0.380369
0.381513
0.382716
0.383955
0.385213
0.386475
0.387726
0.388949
0.390134
0.391273
0.392355
0.393368
0.394296
0.395125
0.395845
0.39645
0.396933
0.397293
0.397527
0.397639
0.397632
0.397512
0.397285
0.39696
0.396551
0.39608
0.39558
0.395092
0.394722
0.394799
0.395084
0.375148
0.374672
0.374808
0.375131
0.375641
0.376286
0.377046
0.377915
0.378896
0.379981
0.381148
0.38237
0.383624
0.384893
0.386161
0.387413
0.388632
0.389807
0.39093
0.391991
0.392976
0.39387
0.39466
0.395336
0.395892
0.396322
0.396623
0.396794
0.396837
0.396757
0.396556
0.39624
0.395814
0.395287
0.394675
0.393999
0.393296
0.392692
0.392569
0.393017
0.446061
0.457598
0.466711
0.474222
0.479754
0.484293
0.487795
0.490742
0.493202
0.49536
0.497256
0.498927
0.500394
0.501703
0.502845
0.50383
0.504671
0.505391
0.505982
0.506444
0.506794
0.507047
0.507188
0.507232
0.507174
0.507007
0.506759
0.506414
0.505972
0.505439
0.504796
0.504069
0.503236
0.502305
0.501271
0.500138
0.498934
0.49762
0.496424
0.494923
0.444206
0.455542
0.464715
0.47225
0.47784
0.482434
0.485992
0.489
0.491515
0.49372
0.495654
0.497371
0.498884
0.500222
0.501388
0.502413
0.503289
0.504024
0.50463
0.505124
0.5055
0.505768
0.505932
0.505984
0.505939
0.505796
0.505558
0.505224
0.504794
0.504267
0.503644
0.502918
0.502099
0.501179
0.500158
0.499034
0.497839
0.496537
0.495349
0.493858
0.442356
0.453481
0.462702
0.47026
0.47591
0.480561
0.484178
0.487251
0.489824
0.492079
0.494053
0.495816
0.497374
0.498741
0.499933
0.500994
0.501904
0.502657
0.503279
0.503802
0.504204
0.504485
0.504672
0.504734
0.504702
0.504584
0.504357
0.504035
0.503619
0.503098
0.502496
0.501774
0.500969
0.50006
0.499052
0.497938
0.496754
0.495466
0.494286
0.492808
0.440508
0.451413
0.460671
0.468252
0.473959
0.478672
0.482354
0.485491
0.488125
0.490435
0.492457
0.494262
0.49586
0.497261
0.498485
0.499573
0.50051
0.501289
0.501935
0.502479
0.502901
0.503201
0.503405
0.503486
0.50347
0.503367
0.503154
0.502846
0.502444
0.501938
0.501348
0.500641
0.499847
0.498949
0.497952
0.496852
0.49568
0.494405
0.493237
0.491774
0.438662
0.44934
0.45862
0.466222
0.471987
0.476766
0.480518
0.483723
0.486421
0.48879
0.490864
0.492711
0.494346
0.495783
0.497041
0.498153
0.499113
0.499922
0.500595
0.501155
0.501597
0.501916
0.502136
0.502239
0.502239
0.502149
0.501952
0.501659
0.501271
0.500783
0.500204
0.499515
0.498733
0.497847
0.496861
0.495774
0.494616
0.493354
0.492199
0.490752
0.436814
0.447264
0.456545
0.46417
0.469991
0.474842
0.478669
0.481947
0.484713
0.487144
0.489271
0.491161
0.492834
0.494308
0.495598
0.496735
0.49772
0.498556
0.499256
0.499834
0.500295
0.500633
0.500868
0.500991
0.501008
0.500933
0.500752
0.500476
0.500103
0.499631
0.499065
0.498394
0.497626
0.496752
0.495779
0.494706
0.493563
0.492314
0.491172
0.489741
0.434965
0.445185
0.454445
0.462093
0.467969
0.472898
0.476805
0.480163
0.483001
0.485496
0.487678
0.489614
0.491325
0.492834
0.494157
0.49532
0.496331
0.497192
0.497917
0.498514
0.498994
0.499351
0.499602
0.499745
0.499779
0.499719
0.499555
0.499296
0.498939
0.498484
0.497933
0.497279
0.496525
0.495665
0.494707
0.493648
0.49252
0.491286
0.490155
0.488741
0.433112
0.443104
0.45232
0.45999
0.46592
0.470933
0.474926
0.47837
0.481285
0.483847
0.486086
0.488068
0.489819
0.491363
0.492718
0.493908
0.494945
0.49583
0.49658
0.497196
0.497694
0.498072
0.498338
0.4985
0.498552
0.498507
0.498362
0.498119
0.497779
0.497341
0.496807
0.496169
0.495432
0.494587
0.493644
0.492601
0.491488
0.490268
0.48915
0.48775
0.431254
0.441022
0.450167
0.457859
0.463842
0.468945
0.47303
0.476567
0.479564
0.482197
0.484496
0.486526
0.488316
0.489895
0.491282
0.492499
0.493561
0.494471
0.495244
0.49588
0.496397
0.496794
0.497077
0.497257
0.497327
0.497299
0.497172
0.496946
0.496624
0.496204
0.495686
0.495066
0.494345
0.493517
0.49259
0.491563
0.490467
0.489262
0.488156
0.48677
0.429392
0.43894
0.447987
0.455701
0.461734
0.466932
0.471117
0.474753
0.477838
0.480546
0.482906
0.484986
0.486817
0.488431
0.48985
0.491094
0.492181
0.493114
0.49391
0.494567
0.495102
0.495518
0.495818
0.496016
0.496105
0.496094
0.495985
0.495778
0.495474
0.495072
0.494571
0.493969
0.493265
0.492455
0.491546
0.490536
0.489456
0.488266
0.487172
0.4858
0.427525
0.436858
0.445778
0.453513
0.459593
0.464892
0.469184
0.472927
0.476106
0.478894
0.481319
0.483449
0.485322
0.486972
0.488422
0.489693
0.490805
0.491761
0.492578
0.493256
0.493809
0.494245
0.494562
0.494778
0.494886
0.494893
0.494803
0.494613
0.494328
0.493945
0.493462
0.492878
0.492192
0.491402
0.490511
0.489518
0.488455
0.487281
0.4862
0.484839
0.425653
0.43478
0.443542
0.451294
0.457419
0.462824
0.46723
0.471088
0.474368
0.47724
0.479733
0.481916
0.483833
0.485517
0.486998
0.488296
0.489432
0.490411
0.491249
0.491948
0.492518
0.492974
0.493309
0.493544
0.49367
0.493695
0.493624
0.493453
0.493187
0.492823
0.492358
0.491793
0.491126
0.490356
0.489484
0.488511
0.487465
0.486307
0.485237
0.483889
0.423779
0.432708
0.44128
0.449045
0.45521
0.460726
0.465253
0.469236
0.472623
0.475584
0.478149
0.480387
0.482348
0.484067
0.48558
0.486904
0.488063
0.489065
0.489923
0.490642
0.491231
0.491705
0.492059
0.492312
0.492458
0.4925
0.492449
0.492298
0.49205
0.491705
0.49126
0.490715
0.490067
0.489318
0.488467
0.487513
0.486485
0.485342
0.484285
0.482949
0.421903
0.430643
0.438991
0.446765
0.452964
0.458597
0.463253
0.467368
0.470871
0.473927
0.476566
0.478862
0.480868
0.482624
0.484166
0.485516
0.486699
0.487723
0.488601
0.48934
0.489946
0.49044
0.490812
0.491083
0.491249
0.49131
0.491277
0.491146
0.490917
0.490592
0.490167
0.489643
0.489016
0.488288
0.487458
0.486525
0.485515
0.484388
0.483343
0.482019
0.420029
0.428589
0.436679
0.444453
0.450681
0.456435
0.461227
0.465484
0.46911
0.472267
0.474985
0.477342
0.479394
0.481185
0.482757
0.484133
0.485339
0.486384
0.487281
0.48804
0.488665
0.489177
0.489568
0.489856
0.490043
0.490122
0.490109
0.489998
0.489789
0.489483
0.489079
0.488578
0.487971
0.487266
0.486458
0.485547
0.484555
0.483444
0.482412
0.4811
0.418158
0.42655
0.434346
0.442111
0.448361
0.454239
0.459175
0.463582
0.46734
0.470605
0.473406
0.475826
0.477924
0.479752
0.481353
0.482754
0.483982
0.485049
0.485966
0.486744
0.487386
0.487916
0.488327
0.488632
0.488839
0.488938
0.488944
0.488853
0.488665
0.488378
0.487996
0.487517
0.486933
0.486251
0.485467
0.484577
0.483604
0.482511
0.481492
0.480191
0.416296
0.424529
0.431995
0.439738
0.446002
0.452008
0.457095
0.461662
0.46556
0.468939
0.471829
0.474315
0.47646
0.478324
0.479954
0.48138
0.482631
0.483718
0.484654
0.48545
0.486111
0.486658
0.487089
0.487411
0.487638
0.487757
0.487781
0.48771
0.487543
0.487278
0.486917
0.486462
0.485901
0.485243
0.484483
0.483616
0.482663
0.481587
0.480582
0.479292
0.414446
0.422531
0.42963
0.437338
0.443607
0.449741
0.454987
0.459722
0.463769
0.467271
0.470253
0.472808
0.475001
0.476902
0.47856
0.480011
0.481284
0.482391
0.483345
0.48416
0.484839
0.485403
0.485854
0.486193
0.486438
0.486579
0.486622
0.48657
0.486425
0.486181
0.485842
0.485412
0.484875
0.484242
0.483506
0.482663
0.481731
0.480673
0.479681
0.478402
0.412613
0.420558
0.427257
0.434911
0.441177
0.447438
0.45285
0.457762
0.461968
0.465598
0.468678
0.471304
0.473548
0.475485
0.477173
0.478648
0.479942
0.481069
0.482042
0.482874
0.483572
0.484151
0.484622
0.484978
0.485242
0.485403
0.485465
0.485433
0.485309
0.485087
0.484771
0.484366
0.483855
0.483247
0.482536
0.481717
0.480808
0.479769
0.47879
0.477523
0.410801
0.418616
0.424882
0.43246
0.438713
0.445099
0.450684
0.455781
0.460155
0.463921
0.467104
0.469804
0.4721
0.474074
0.475792
0.477292
0.478606
0.479752
0.480742
0.481591
0.482308
0.482903
0.483392
0.483768
0.484048
0.484229
0.484311
0.484299
0.484196
0.483996
0.483704
0.483324
0.482839
0.482257
0.481573
0.480779
0.479894
0.478875
0.47791
0.476655
0.409017
0.41671
0.422511
0.429991
0.436218
0.442726
0.448488
0.453778
0.45833
0.46224
0.46553
0.468307
0.470657
0.47267
0.474418
0.475942
0.477277
0.478441
0.479448
0.480314
0.481049
0.481659
0.482166
0.48256
0.482857
0.483057
0.483158
0.483166
0.483085
0.482908
0.48264
0.482286
0.481828
0.481273
0.480617
0.47985
0.478989
0.477992
0.477041
0.475797
0.407266
0.414844
0.420152
0.427507
0.433696
0.44032
0.446264
0.451755
0.456493
0.460553
0.463957
0.466814
0.469219
0.471273
0.473051
0.474598
0.475953
0.477136
0.478159
0.479041
0.479793
0.480419
0.480942
0.481356
0.481668
0.481888
0.482008
0.482036
0.481976
0.481823
0.481579
0.481251
0.480821
0.480294
0.479666
0.478928
0.478093
0.477119
0.476184
0.474951
0.405555
0.413023
0.417814
0.425015
0.431152
0.437885
0.444012
0.449711
0.454643
0.458861
0.462383
0.465325
0.467788
0.469882
0.471691
0.473261
0.474636
0.475836
0.476876
0.477773
0.478541
0.479183
0.479722
0.480154
0.480482
0.480721
0.48086
0.480908
0.480869
0.48074
0.480522
0.480219
0.479819
0.47932
0.478722
0.478014
0.477206
0.476256
0.475339
0.474118
0.403889
0.411253
0.415504
0.422521
0.428591
0.435423
0.441735
0.447646
0.45278
0.457163
0.46081
0.46384
0.466363
0.4685
0.470338
0.471931
0.473325
0.474543
0.475598
0.47651
0.477293
0.477951
0.478505
0.478956
0.479299
0.479556
0.479714
0.479781
0.479765
0.479659
0.479467
0.479191
0.478819
0.47835
0.477784
0.477107
0.476328
0.475405
0.474507
0.473297
0.402276
0.409538
0.413232
0.420032
0.426021
0.432939
0.439436
0.445563
0.450906
0.455459
0.459237
0.462359
0.464945
0.467125
0.468993
0.470609
0.472021
0.473256
0.474326
0.475252
0.476049
0.476723
0.477292
0.47776
0.478119
0.478393
0.47857
0.478657
0.478662
0.478581
0.478414
0.478164
0.477823
0.477384
0.476849
0.476206
0.475458
0.474564
0.473688
0.47249
0.40072
0.407881
0.411007
0.417558
0.423448
0.430439
0.437117
0.443461
0.449019
0.453749
0.457663
0.460882
0.463534
0.465758
0.467656
0.469295
0.470725
0.471975
0.473059
0.473999
0.47481
0.475499
0.476082
0.476567
0.476942
0.477233
0.477429
0.477535
0.477562
0.477505
0.477363
0.47714
0.476828
0.47642
0.475919
0.47531
0.474597
0.473734
0.472884
0.471697
0.399229
0.406287
0.408839
0.415105
0.420882
0.427928
0.434781
0.441343
0.447119
0.452032
0.456088
0.459408
0.462129
0.464399
0.466328
0.467989
0.469435
0.470701
0.471798
0.472751
0.473575
0.474279
0.474876
0.475376
0.475768
0.476074
0.47629
0.476414
0.476463
0.47643
0.476314
0.476116
0.475835
0.475459
0.474992
0.47442
0.473744
0.472915
0.472093
0.470921
0.397809
0.404756
0.406735
0.412685
0.418332
0.425413
0.432434
0.43921
0.445208
0.450309
0.454513
0.457937
0.460729
0.463048
0.465007
0.466691
0.468154
0.469433
0.470542
0.471509
0.472345
0.473063
0.473673
0.474189
0.474597
0.474918
0.475153
0.475296
0.475366
0.475355
0.475265
0.475093
0.474842
0.474499
0.474068
0.473534
0.472898
0.472107
0.471318
0.470162
0.396464
0.403291
0.404705
0.410306
0.415806
0.422904
0.430079
0.437067
0.443288
0.448581
0.452936
0.456469
0.459336
0.461703
0.463695
0.465401
0.466879
0.468171
0.469292
0.47027
0.471119
0.47185
0.472474
0.473003
0.473428
0.473764
0.474017
0.474179
0.474269
0.474281
0.474215
0.47407
0.473849
0.47354
0.473145
0.472651
0.472059
0.471311
0.470559
0.469422
0.395202
0.401892
0.402756
0.407979
0.413315
0.420407
0.427724
0.434916
0.441359
0.446848
0.451358
0.455005
0.457948
0.460367
0.462391
0.46412
0.465612
0.466916
0.468049
0.469037
0.469898
0.470642
0.471278
0.471821
0.472262
0.472611
0.472882
0.473063
0.473172
0.473207
0.473165
0.473047
0.472855
0.47258
0.472223
0.471772
0.471226
0.470526
0.469816
0.468704
0.394028
0.400558
0.400893
0.405715
0.410871
0.417932
0.425374
0.432761
0.439425
0.445112
0.44978
0.453544
0.456567
0.459039
0.461097
0.462846
0.464353
0.465668
0.466811
0.46781
0.468681
0.469437
0.470086
0.47064
0.471097
0.47146
0.471747
0.471947
0.472075
0.472131
0.472113
0.472022
0.47186
0.471619
0.471301
0.470894
0.470399
0.469753
0.469092
0.468008
0.392948
0.399287
0.399124
0.403523
0.408485
0.415488
0.423037
0.430608
0.437488
0.443372
0.448202
0.452087
0.455193
0.457719
0.459811
0.461581
0.463102
0.464427
0.465579
0.466587
0.467469
0.468235
0.468897
0.469462
0.469933
0.47031
0.470613
0.470831
0.470977
0.471055
0.47106
0.470995
0.470863
0.470657
0.470377
0.470016
0.469575
0.46899
0.468386
0.467338
0.391969
0.398077
0.397454
0.401413
0.406166
0.413085
0.420719
0.42846
0.43555
0.441631
0.446625
0.450634
0.453825
0.456408
0.458534
0.460324
0.461859
0.463192
0.464354
0.46537
0.466261
0.467038
0.46771
0.468285
0.46877
0.469162
0.469479
0.469715
0.469878
0.469978
0.470006
0.469966
0.469863
0.469691
0.469452
0.469138
0.468754
0.468237
0.4677
0.466698
0.391101
0.396924
0.395885
0.399393
0.403925
0.410733
0.418428
0.426323
0.433613
0.43989
0.445049
0.449184
0.452464
0.455104
0.457265
0.459075
0.460624
0.461965
0.463134
0.464159
0.465057
0.465843
0.466526
0.467112
0.467609
0.468014
0.468344
0.468599
0.468779
0.468899
0.468949
0.468935
0.468859
0.468722
0.468522
0.468257
0.467934
0.467492
0.467035
0.466093
0.390356
0.395825
0.394422
0.397474
0.401773
0.408443
0.416172
0.424204
0.431683
0.43815
0.443475
0.447739
0.45111
0.453809
0.456006
0.457836
0.459398
0.460747
0.461922
0.462953
0.463858
0.464653
0.465344
0.46594
0.466449
0.466867
0.467211
0.467483
0.467679
0.467819
0.46789
0.4679
0.467852
0.467748
0.467588
0.467373
0.467113
0.466753
0.466391
0.465527
0.38975
0.394776
0.393065
0.395662
0.399717
0.406226
0.413962
0.422109
0.429764
0.436417
0.441908
0.446301
0.449765
0.452524
0.454757
0.456607
0.458181
0.459536
0.460717
0.461754
0.462664
0.463466
0.464166
0.464771
0.46529
0.465722
0.466078
0.466366
0.46658
0.466737
0.466829
0.466861
0.466841
0.466769
0.466649
0.466484
0.46629
0.466019
0.465767
0.465009
0.389298
0.393779
0.391818
0.393969
0.397771
0.404094
0.411812
0.420052
0.427867
0.434698
0.44035
0.444873
0.448431
0.45125
0.45352
0.45539
0.456974
0.458335
0.45952
0.460562
0.461476
0.462285
0.462992
0.463605
0.464134
0.464578
0.464946
0.46525
0.465479
0.465653
0.465765
0.46582
0.465825
0.465784
0.465703
0.465588
0.465462
0.465286
0.465163
0.464548
0.389018
0.392842
0.390696
0.39241
0.395951
0.402057
0.409718
0.418016
0.425965
0.432962
0.438772
0.443424
0.44708
0.449963
0.452272
0.454165
0.455761
0.457129
0.458317
0.459363
0.460283
0.461097
0.46181
0.462433
0.46297
0.463427
0.463807
0.464125
0.464371
0.464561
0.464692
0.464768
0.464799
0.464788
0.464745
0.46468
0.464622
0.464549
0.464574
0.464156
0.388973
0.391942
0.389667
0.39095
0.39421
0.400054
0.407602
0.415912
0.42397
0.431124
0.437095
0.441888
0.445653
0.448611
0.45097
0.452895
0.454509
0.455887
0.457084
0.458137
0.459063
0.459884
0.460606
0.461238
0.461786
0.462256
0.462651
0.462983
0.463246
0.463452
0.463602
0.4637
0.463756
0.463775
0.46377
0.463755
0.463765
0.463799
0.463993
0.463848
0.389535
0.391062
0.38856
0.389402
0.392382
0.397981
0.405442
0.413799
0.421996
0.429331
0.435479
0.44042
0.444297
0.44733
0.449734
0.451683
0.453308
0.454691
0.45589
0.456944
0.457873
0.458697
0.459425
0.460063
0.460619
0.461099
0.461505
0.461849
0.462126
0.462347
0.462513
0.462631
0.462708
0.462754
0.462783
0.462813
0.462886
0.463024
0.463397
0.463621
0.392208
0.38855
0.384429
0.383838
0.386117
0.391438
0.39918
0.408164
0.417117
0.42517
0.431913
0.437289
0.441442
0.4446
0.447009
0.448888
0.450407
0.451684
0.452793
0.453775
0.454655
0.455442
0.456147
0.456771
0.457322
0.457804
0.45822
0.458574
0.458872
0.459117
0.459314
0.459471
0.459596
0.459702
0.459807
0.459939
0.460153
0.460536
0.461383
0.462865
0.380532
0.377745
0.374922
0.375486
0.37868
0.384411
0.392237
0.401123
0.409928
0.417854
0.424526
0.429889
0.434079
0.437307
0.439805
0.441776
0.443381
0.444735
0.44591
0.446951
0.447884
0.448724
0.449479
0.450156
0.45076
0.451296
0.451766
0.452175
0.452526
0.452825
0.453077
0.453289
0.453471
0.453639
0.453812
0.454027
0.45435
0.454917
0.456095
0.458145
0.367416
0.366905
0.36624
0.368431
0.372648
0.378697
0.386337
0.394802
0.403157
0.410718
0.41715
0.422394
0.426552
0.429812
0.432376
0.43443
0.436122
0.437557
0.438805
0.439913