/*--------------------------------*- C++ -*----------------------------------*\
  =========                 |
  \\      /  F ield         | OpenFOAM: The Open Source CFD Toolbox
   \\    /   O peration     | Website:  https://openfoam.org
    \\  /    A nd           | Version:  7
     \\/     M anipulation  |
\*---------------------------------------------------------------------------*/
FoamFile
{
    version     2.0;
    format      ascii;
    class       surfaceScalarField;
    location    "6.9";
    object      phi;
}
// * * * * * * * * * * * * * * * * * * * * * * * * * * * * * * * * * * * * * //

dimensions      [0 3 -1 0 0 0 0];

internalField   nonuniform List<scalar> 
63520
(
3.947e-06
-7.3838e-05
6.9891e-05
1.40204e-05
-0.000102973
9.28989e-05
2.92922e-05
-3.15921e-05
1.63205e-05
4.93995e-05
0.000114348
-0.000134456
7.42923e-05
0.000316975
-0.000341868
0.000104077
0.000563449
-0.000593234
0.000138934
0.000843943
-0.000878801
0.000179067
0.00115076
-0.00119089
0.000224667
0.00147789
-0.00152349
0.000275887
0.0018205
-0.00187172
0.000332833
0.00217467
-0.00223161
0.000395555
0.00253712
-0.00259984
0.000464039
0.00290506
-0.00297354
0.000538206
0.00327601
-0.00335018
0.000617923
0.00364776
-0.00372747
0.000703001
0.00401823
-0.00410331
0.000793195
0.00438552
-0.00447572
0.00088821
0.00474782
-0.00484284
0.000987719
0.00510341
-0.00520292
0.00109135
0.0054507
-0.00555434
0.00119871
0.00578818
-0.00589554
0.00130938
0.00611445
-0.00622512
0.00142293
0.00642823
-0.00654178
0.00153891
0.00672838
-0.00684436
0.00165689
0.00701387
-0.00713186
0.00177644
0.00728385
-0.0074034
0.00189714
0.00753757
-0.00765827
0.00201859
0.00777446
-0.00789591
0.00214041
0.00799406
-0.00811589
0.00226229
0.00819607
-0.00831794
0.0023839
0.0083803
-0.00850191
0.002505
0.00854666
-0.00866777
0.00262538
0.00869518
-0.00881556
0.00274488
0.00882591
-0.0089454
0.00286339
0.00893894
-0.00905745
0.00298085
0.00903434
-0.0091518
0.00309724
0.00911209
-0.00922847
0.00321254
0.00917193
-0.00928724
0.00332671
0.00921419
-0.00932835
0.00923919
0.00343959
-0.00935207
3.36353e-06
-7.7202e-05
1.20783e-05
-0.000111688
2.53161e-05
-4.48306e-05
4.27994e-05
9.68643e-05
6.45706e-05
0.000295203
9.08118e-05
0.000537207
0.00012176
0.000812995
0.000157658
0.00111486
0.000198745
0.00143681
0.000245211
0.00177404
0.000297199
0.00212268
0.00035479
0.00247953
0.000418001
0.00284184
0.000486789
0.00320723
0.000561048
0.0035735
0.000640616
0.00393866
0.000725285
0.00430086
0.000814793
0.00465831
0.000908838
0.00500937
0.00100709
0.00535246
0.00110917
0.00568609
0.0012147
0.00600891
0.00132328
0.00631965
0.00143449
0.00661717
0.00154792
0.00690045
0.00166315
0.00716862
0.00177978
0.00742094
0.00189744
0.0076568
0.00201576
0.00787574
0.00213442
0.00807741
0.00225312
0.0082616
0.00237159
0.00842819
0.00248964
0.00857713
0.00260708
0.00870846
0.00272379
0.00882223
0.00283969
0.00891844
0.00295471
0.00899707
0.00306881
0.00905784
0.00318188
0.00910112
0.0091274
0.00329367
2.79126e-06
-7.99931e-05
1.01331e-05
-0.00011903
2.13131e-05
-5.60107e-05
3.61703e-05
8.2007e-05
5.48332e-05
0.00027654
7.75489e-05
0.000514492
0.000104621
0.000785923
0.000136336
0.00108314
0.000172982
0.00140016
0.00021478
0.00173224
0.000261905
0.00207555
0.00031447
0.00242696
0.000372522
0.00278379
0.000436045
0.0031437
0.000504967
0.00350457
0.00057916
0.00386447
0.000658436
0.00422158
0.000742568
0.00457418
0.000831284
0.00492065
0.000924277
0.00525946
0.00102121
0.00558916
0.00112172
0.0059084
0.00122543
0.00621594
0.00133196
0.00651064
0.00144091
0.0067915
0.00155188
0.00705764
0.00166451
0.00730831
0.00177841
0.0075429
0.00189324
0.00776091
0.00200868
0.00796198
0.00212443
0.00814585
0.00224024
0.00831238
0.00235588
0.00846149
0.00247117
0.00859317
0.00258597
0.00870743
0.00270016
0.00880425
0.00281365
0.00888358
0.00292633
0.00894515
0.00303804
0.00898942
0.00901698
0.00314846
2.24038e-06
-8.22336e-05
8.17053e-06
-0.00012496
1.72609e-05
-6.51012e-05
2.94682e-05
6.97996e-05
4.50175e-05
0.000260991
6.42315e-05
0.000495277
8.74682e-05
0.000762686
0.000115063
0.00105555
0.000147343
0.00136788
0.000184568
0.00169501
0.000226941
0.00203318
0.000274603
0.0023793
0.000327631
0.00273077
0.000386043
0.00308529
0.000449789
0.00344083
0.000518765
0.0037955
0.000592818
0.00414753
0.000671744
0.00449526
0.000755297
0.0048371
0.000843198
0.00517156
0.000935139
0.00549722
0.00103078
0.00581276
0.00112978
0.00611694
0.00123176
0.00640866
0.00133635
0.00668691
0.00144319
0.00695081
0.00155189
0.00719961
0.00166212
0.00743267
0.00177352
0.0076495
0.00188579
0.00784971
0.00199863
0.00803301
0.00211177
0.00819923
0.00222499
0.00834827
0.0023381
0.00848007
0.00245091
0.00859461
0.0025633
0.00869187
0.00267511
0.00877176
0.00278621
0.00883406
0.00289634
0.00887929
0.00890818
0.00300514
1.68345e-06
-8.39171e-05
6.19081e-06
-0.000129467
1.31781e-05
-7.20885e-05
2.27423e-05
6.02353e-05
3.52008e-05
0.000248532
5.09485e-05
0.00047953
7.0404e-05
0.000743231
9.39586e-05
0.00103199
0.000121966
0.00133987
0.000154725
0.00166225
0.000192471
0.00199543
0.000235371
0.0023364
0.000283529
0.00268261
0.000336986
0.00303183
0.000395724
0.00338209
0.000459662
0.00373156
0.000528673
0.00407852
0.000602577
0.00442135
0.000681156
0.00475852
0.000764155
0.00508856
0.000851289
0.00541009
0.000942248
0.0057218
0.0010367
0.00602249
0.0011343
0.00631106
0.0012347
0.00658651
0.00133754
0.00684797
0.00144246
0.00709468
0.00154914
0.007326
0.00165723
0.00754141
0.00176641
0.00774052
0.00187641
0.00792301
0.00198695
0.0080887
0.00209779
0.00823743
0.00220871
0.00836915
0.00231953
0.00848379
0.00243006
0.00858134
0.00254013
0.00866169
0.00264952
0.00872467
0.00275793
0.00877087
0.00880119
0.00286492
1.12991e-06
-8.50471e-05
4.20479e-06
-0.000132542
9.08598e-06
-7.69698e-05
1.60132e-05
5.3308e-05
2.54064e-05
0.000239139
3.77377e-05
0.000467198
5.34812e-05
0.000727487
7.30777e-05
0.00101239
9.69183e-05
0.00131603
0.000125336
0.00163384
0.000158592
0.00196218
0.000196879
0.00229811
0.000240332
0.00263916
0.000289015
0.00298315
0.000342931
0.00332818
0.000402026
0.00367246
0.000466197
0.00401435
0.000535289
0.00435226
0.000609105
0.00468471
0.000687413
0.00501025
0.000769954
0.00532755
0.000856438
0.00563531
0.000946555
0.00593237
0.00103998
0.00621763
0.00113638
0.00649011
0.00123541
0.00674894
0.00133674
0.00699335
0.00144003
0.00722271
0.00154496
0.00743649
0.00165121
0.00763426
0.0017585
0.00781573
0.00186654
0.00798065
0.00197509
0.00812889
0.0020839
0.00826033
0.00219277
0.00837493
0.00230146
0.00847264
0.00240976
0.0085534
0.0025174
0.00861704
0.00262401
0.00866426
0.00869612
0.00272908
5.73411e-07
-8.56206e-05
2.21442e-06
-0.000134183
4.9973e-06
-7.97528e-05
9.31337e-06
4.89918e-05
1.56851e-05
0.000232767
2.46619e-05
0.000458221
3.67777e-05
0.000715371
5.25217e-05
0.000996651
7.23199e-05
0.00129623
9.65345e-05
0.00160962
0.000125456
0.00193326
0.000159305
0.00226426
0.000198238
0.00260022
0.000242342
0.00293905
0.000291645
0.00327887
0.000346115
0.00361799
0.000405671
0.00395479
0.00047018
0.00428775
0.000539467
0.00461542
0.000613325
0.0049364
0.000691514
0.00524936
0.000773763
0.00555306
0.000859782
0.00584635
0.000949266
0.00612815
0.0010419
0.00639748
0.00113735
0.00665349
0.0012353
0.0068954
0.00133542
0.00712259
0.00143739
0.00733451
0.0015409
0.00753075
0.00164566
0.00771097
0.00175137
0.00787494
0.00185778
0.00802248
0.00196462
0.00815349
0.00207164
0.00826791
0.00217858
0.0083657
0.00228516
0.00844681
0.00239107
0.00851113
0.00249586
0.00855947
0.00859302
0.00259897
8.65834e-09
-8.56292e-05
2.25971e-07
-0.000134401
9.3205e-07
-8.04589e-05
2.6742e-06
4.72495e-05
6.08264e-06
0.000229358
1.17872e-05
0.000452516
2.03786e-05
0.00070678
3.23918e-05
0.000984637
4.82897e-05
0.00128034
6.84631e-05
0.00158945
9.32279e-05
0.00190849
0.000122831
0.00223466
0.000157451
0.0025656
0.000197196
0.0028993
0.000242115
0.00323395
0.0002922
0.00356791
0.000347388
0.0038996
0.000407569
0.00422757
0.00047259
0.0045504
0.000542264
0.00486672
0.000616368
0.00517525
0.000694653
0.00547478
0.000776846
0.00576416
0.00086266
0.00604234
0.000951793
0.00630835
0.00104393
0.00656135
0.00113876
0.00680057
0.00123597
0.00702539
0.00133523
0.00723525
0.00143624
0.00742974
0.0015387
0.00760851
0.00164231
0.00777133
0.00174678
0.00791801
0.00185184
0.00804844
0.00195718
0.00816256
0.00206252
0.00826036
0.00216753
0.00834181
0.0022718
0.00840686
0.00237486
0.00845641
0.00849183
0.00247604
-5.52219e-07
-8.50771e-05
-1.75168e-06
-0.000133201
-3.09162e-06
-7.9119e-05
-3.87145e-06
4.80292e-05
-3.35209e-06
0.000228839
-8.22257e-07
0.000449986
4.36611e-06
0.000701591
1.27917e-05
0.000976212
2.49517e-05
0.00126818
4.1265e-05
0.00157313
6.2073e-05
0.00188768
8.76455e-05
0.00220909
0.000118181
0.00253507
0.000153809
0.00286367
0.000194599
0.00319316
0.000240562
0.00352194
0.000291656
0.00384851
0.00034779
0.00417144
0.000408834
0.00448935
0.000474617
0.00480094
0.000544934
0.00510494
0.000619556
0.00540016
0.000698227
0.00568549
0.000780676
0.00595989
0.000866614
0.00622241
0.000955742
0.00647222
0.00104776
0.00670856
0.00114235
0.0069308
0.0012392
0.0071384
0.001338
0.00733094
0.00143844
0.00750807
0.00154022
0.00766955
0.00164303
0.00781519
0.00174656
0.00794491
0.00185048
0.00805864
0.00195446
0.00815639
0.00205809
0.00823818
0.00216093
0.00830402
0.00226241
0.00835493
0.00839242
0.00236182
-1.11395e-06
-8.39632e-05
-3.70889e-06
-0.000130607
-7.05473e-06
-7.57733e-05
-1.02921e-05
5.12664e-05
-1.2571e-05
0.000231118
-1.31008e-05
0.000450516
-1.11771e-05
0.000699667
-6.17744e-06
0.000971212
2.4289e-06
0.00125957
1.50856e-05
0.00156048
3.21579e-05
0.00187061
5.39378e-05
0.00218731
8.06421e-05
0.00250836
0.00011242
0.00283189
0.000149358
0.00315622
0.000191489
0.00347981
0.000238789
0.00380121
0.000291186
0.00411904
0.000348567
0.00443197
0.000410781
0.00473872
0.00047764
0.00503808
0.000548931
0.00532887
0.000624416
0.00561
0.000703839
0.00588046
0.000786924
0.00613933
0.000873385
0.00638576
0.000962925
0.00661902
0.00105524
0.00683848
0.00115002
0.00704362
0.00124695
0.007234
0.00134573
0.0074093
0.00144602
0.00756926
0.0015475
0.00771371
0.00164983
0.00784258
0.00175265
0.00795582
0.00185556
0.00805347
0.00195813
0.00813562
0.00205982
0.00820232
0.00216001
0.00825473
0.00829453
0.00225791
-1.67172e-06
-8.22915e-05
-5.63692e-06
-0.000126642
-1.09373e-05
-7.0473e-05
-1.65545e-05
5.68834e-05
-2.15277e-05
0.000236091
-2.49864e-05
0.000453975
-2.6169e-05
0.00070085
-2.44134e-05
0.000969456
-1.91581e-05
0.00125431
-9.93303e-06
0.00155125
3.64938e-06
0.00185703
2.18984e-05
0.00216906
4.50478e-05
0.00248521
7.32661e-05
0.00280368
0.000106659
0.00312283
0.000145274
0.0034412
0.000189105
0.00375738
0.000238102
0.00407004
0.000292167
0.00437791
0.000351163
0.00467973
0.000414923
0.00497432
0.000483248
0.00526054
0.000555918
0.00553733
0.000632688
0.00580369
0.000713298
0.00605872
0.000797472
0.00630158
0.000884921
0.00653157
0.000975349
0.00674805
0.00106845
0.00695052
0.00116391
0.00713855
0.0012614
0.00731181
0.00136059
0.00747006
0.00146114
0.00761316
0.00156268
0.00774104
0.0016648
0.0078537
0.00176706
0.00795121
0.00186896
0.00803372
0.0019699
0.00810138
0.00206919
0.00815545
0.00819777
0.00216595
-2.22129e-06
-8.00702e-05
-7.52487e-06
-0.000121338
-1.47206e-05
-6.32775e-05
-2.26286e-05
6.47913e-05
-3.01763e-05
0.000243638
-3.64163e-05
0.000460215
-4.05316e-05
0.000704965
-4.18201e-05
0.000970744
-3.96903e-05
0.00125218
-3.36496e-05
0.00154521
-2.32913e-05
0.00184667
-8.2884e-06
0.00215406
1.16093e-05
0.00246532
3.65859e-05
0.0027787
6.67627e-05
0.00309266
0.000102205
0.00340575
0.000142925
0.00371666
0.000188886
0.00402408
0.000240007
0.00432679
0.00029617
0.00462357
0.000357222
0.00491327
0.000422979
0.00519478
0.000493237
0.00546707
0.000567765
0.00572917
0.000646313
0.00598017
0.00072862
0.00621928
0.000814404
0.00644578
0.000903374
0.00665908
0.000995228
0.00685867
0.00108965
0.00704412
0.00118631
0.00721514
0.00128487
0.0073715
0.00138496
0.00751308
0.00148618
0.00763982
0.00158808
0.00775179
0.00169019
0.00784911
0.00179192
0.00793199
0.00189263
0.00800067
0.00199153
0.00805654
0.00810164
0.00208766
-2.76002e-06
-7.73102e-05
-9.36433e-06
-0.000114734
-1.83859e-05
-5.4256e-05
-2.84832e-05
7.48885e-05
-3.8474e-05
0.000253629
-4.73337e-05
0.000469074
-5.41897e-05
0.000711821
-5.83033e-05
0.000974858
-5.90558e-05
0.00125294
-5.59319e-05
0.00154209
-4.85074e-05
0.00183925
-3.64417e-05
0.00214199
-1.94697e-05
0.00244834
2.60794e-06
0.00275662
2.99278e-05
0.00306534
6.25698e-05
0.00337311
0.000100561
0.00367867
0.000143881
0.00398076
0.000192466
0.0042782
0.000246209
0.00456982
0.000304976
0.0048545
0.000368598
0.00513116
0.000436882
0.00539879
0.000509612
0.00565644
0.000586553
0.00590323
0.00066745
0.00613838
0.000752034
0.0063612
0.00084002
0.0065711
0.000931111
0.00676758
0.00102499
0.00695024
0.00112133
0.0071188
0.00121977
0.00727306
0.00131993
0.00741292
0.00142138
0.00753838
0.00152364
0.00764953
0.00162617
0.00774658
0.00172836
0.00782981
0.00182947
0.00789956
0.00192864
0.00795737
0.00800546
0.00202481
-3.28506e-06
-7.40252e-05
-1.11459e-05
-0.000106873
-2.19157e-05
-4.34863e-05
-3.40911e-05
8.70638e-05
-4.63807e-05
0.000265919
-5.76836e-05
0.000480377
-6.70741e-05
0.000721211
-7.37774e-05
0.000981561
-7.7149e-05
0.00125631
-7.66536e-05
0.00154159
-7.18526e-05
0.00183445
-6.23921e-05
0.00213253
-4.79939e-05
0.00243395
-2.84457e-05
0.00273707
-3.59775e-06
0.00304049
2.66437e-05
0.00334287
6.23205e-05
0.00364299
0.000103426
0.00393966
0.000149909
0.00423172
0.000201681
0.00451805
0.00025862
0.00479756
0.000320572
0.00506921
0.000387357
0.00533201
0.000458772
0.00558502
0.000534594
0.00582741
0.000614581
0.00605839
0.000698472
0.00627731
0.000785992
0.00648358
0.000876848
0.00667672
0.00097073
0.00685636
0.0010673
0.00702223
0.0011662
0.00717416
0.00126703
0.00731209
0.00136934
0.00743607
0.00147262
0.00754625
0.00157628
0.00764292
0.00167964
0.00772644
0.00178191
0.00779729
0.00188213
0.00785715
0.00790843
0.00197916
-3.79425e-06
-7.0231e-05
-1.28616e-05
-9.78061e-05
-2.52938e-05
-3.10543e-05
-3.94268e-05
0.000101197
-5.38599e-05
0.000280352
-6.74175e-05
0.000493935
-7.91215e-05
0.000732915
-8.81632e-05
0.000990603
-9.38736e-05
0.00126202
-9.56999e-05
0.00154342
-9.31904e-05
0.00183194
-8.59805e-05
0.00212532
-7.37804e-05
0.00242175
-5.6367e-05
0.00271966
-3.35781e-05
0.0030177
-5.30827e-06
0.0033146
2.84969e-05
0.00360919
6.78437e-05
0.00390031
0.000112695
0.00418687
0.000162976
0.00446777
0.000218579
0.00474196
0.000279362
0.00500843
0.000345159
0.00526621
0.000415779
0.0055144
0.000491012
0.00575217
0.000570627
0.00597878
0.000654374
0.00619356
0.000741989
0.00639596
0.000833186
0.00658552
0.000927662
0.00676189
0.00102508
0.00692481
0.00112508
0.00707416
0.00122724
0.00720992
0.00133111
0.0073322
0.00143615
0.00744122
0.00154172
0.00753734
0.0016471
0.00762107
0.00175141
0.00769298
0.00185363
0.00775493
0.00780957
0.00195248
-4.28563e-06
-6.59454e-05
-1.45042e-05
-8.75878e-05
-2.8506e-05
-1.70526e-05
-4.44677e-05
0.000117158
-6.08795e-05
0.000296763
-7.64919e-05
0.000509547
-9.02762e-05
0.000746699
-0.000101391
0.00100172
-0.000109144
0.00126977
-0.000112967
0.00154724
-0.000112398
0.00183137
-0.000107063
0.00211998
-9.66621e-05
0.00241134
-8.09632e-05
0.00270396
-5.9794e-05
0.00299653
-3.30388e-05
0.00328785
-6.3238e-07
0.00357678
3.74438e-05
0.00386223
8.11656e-05
0.00414314
0.000130471
0.00441846
0.000185264
0.00468717
0.000245416
0.00494828
0.000310773
0.00520085
0.000381157
0.00544402
0.000456369
0.00567696
0.000536192
0.00589896
0.000620388
0.00610937
0.000708703
0.00630765
0.000800863
0.00649336
0.000896572
0.00666618
0.000995504
0.00682588
0.00109729
0.00697237
0.00120153
0.00710569
0.00130773
0.007226
0.00141534
0.0073336
0.00152371
0.00742897
0.00163205
0.00751273
0.00173942
0.00758561
0.0018447
0.00764965
0.00770777
0.00194651
-4.75759e-06
-6.11879e-05
-1.60674e-05
-7.62782e-05
-3.15401e-05
-1.57993e-06
-4.91947e-05
0.000134813
-6.74122e-05
0.000314981
-8.48699e-05
0.000527005
-0.00010049
0.00076232
-0.0001134
0.00101463
-0.000122886
0.00127926
-0.000128366
0.00155272
-0.000129369
0.00183237
-0.000125512
0.00211613
-0.00011649
0.00240232
-0.000102061
0.00268953
-8.20468e-05
0.00297652
-5.63215e-05
0.00326212
-2.48109e-05
0.00354527
1.25142e-05
0.00382491
5.56414e-05
0.00410002
0.000104521
0.00436958
0.000159066
0.00463262
0.000219162
0.00488818
0.000284666
0.00513535
0.000355412
0.00537327
0.000431214
0.00560116
0.000511867
0.0058183
0.000597146
0.00602409
0.00068681
0.00621798
0.000780601
0.00639957
0.000878233
0.00656855
0.000979391
0.00672472
0.00108372
0.00686804
0.00119081
0.0069986
0.00130019
0.00711662
0.00141128
0.00722251
0.00152341
0.00731684
0.00163575
0.00740039
0.00174731
0.00747405
0.00185686
0.00754009
0.00760174
0.00196289
-5.20872e-06
-5.59792e-05
-1.75458e-05
-6.39414e-05
-3.43861e-05
1.52603e-05
-5.3592e-05
0.000154019
-7.34354e-05
0.000334824
-9.25216e-05
0.000546091
-0.000109725
0.000779524
-0.000124142
0.00102904
-0.000135038
0.00129015
-0.000141822
0.00155951
-0.000144012
0.00183456
-0.00014122
0.00211334
-0.000133135
0.00239424
-0.000119511
0.00267591
-0.000100162
0.00295717
-7.49551e-05
0.00323692
-4.38086e-05
0.00351412
-6.68391e-06
0.00378778
3.64166e-05
0.00405692
8.5453e-05
0.00432055
0.00014035
0.00457772
0.000201003
0.00482753
0.00026728
0.00506907
0.000339027
0.00530152
0.00041607
0.00552411
0.000498217
0.00573616
0.000585258
0.00593705
0.000676968
0.00612627
0.000773101
0.00630344
0.000873392
0.00646825
0.000977541
0.00662057
0.00108521
0.00676038
0.001196
0.00688781
0.00130945
0.00700317
0.00142499
0.00710697
0.00154192
0.00719991
0.0016594
0.00728291
0.00177637
0.00735709
0.00189151
0.00742495
0.00749009
0.00200316
-5.63776e-06
-5.03416e-05
-1.89351e-05
-5.06443e-05
-3.7036e-05
3.33612e-05
-5.76471e-05
0.00017463
-7.89318e-05
0.000356109
-9.94242e-05
0.000566583
-0.000117952
0.000798051
-0.000133579
0.00104467
-0.000145555
0.00130213
-0.000153277
0.00156723
-0.000156256
0.00183754
-0.000154101
0.00211118
-0.000146495
0.00238663
-0.000133189
0.0026626
-0.000113992
0.00293797
-8.87677e-05
0.00321169
-5.74261e-05
0.00348278
-1.99215e-05
0.00375028
2.37521e-05
0.00401324
7.35637e-05
0.00427074
0.000129447
0.00452184
0.000191307
0.00476567
0.000259023
0.00500135
0.000332452
0.00522809
0.000411431
0.00544514
0.00049578
0.00565181
0.000585307
0.00584752
0.0006798
0.00603178
0.000779036
0.0062042
0.000882767
0.00636452
0.000990715
0.00651262
0.00110257
0.00664853
0.00121795
0.00677243
0.00133642
0.00688471
0.00145742
0.00698597
0.00158026
0.00707706
0.00170408
0.0071591
0.00182776
0.00723341
0.00194991
0.0073028
0.00737129
0.00206871
-6.04363e-06
-4.4298e-05
-2.02322e-05
-3.6456e-05
-3.94843e-05
5.26133e-05
-6.13515e-05
0.000196497
-8.38898e-05
0.000378647
-0.000105562
0.000588256
-0.000125149
0.000817639
-0.000141687
0.00106121
-0.000154405
0.00131485
-0.000162691
0.00157551
-0.000166052
0.0018409
-0.000164091
0.00210922
-0.000156491
0.00237903
-0.000142999
0.00264911
-0.000123423
0.00291839
-9.76213e-05
0.00318589
-6.55e-05
0.00345066
-2.70073e-05
0.00371179
1.78697e-05
0.00396837
6.91073e-05
0.0042195
0.000126647
0.0044643
0.000190404
0.00470191
0.000260264
0.00493149
0.000336096
0.00515226
0.000417747
0.00536348
0.000505052
0.0055645
0.000597832
0.00575474
0.000695895
0.00593372
0.000799035
0.00610106
0.00090703
0.00625653
0.00101963
0.00640002
0.00113655
0.0065316
0.00125746
0.00665152
0.00138193
0.00676023
0.00150945
0.00685845
0.00163935
0.00694717
0.00177075
0.0070277
0.00190251
0.00710164
0.00203316
0.00717215
0.00724375
0.0021607
-6.42531e-06
-3.78728e-05
-2.14349e-05
-2.14467e-05
-4.17275e-05
7.29059e-05
-6.47001e-05
0.000219469
-8.83026e-05
0.00040225
-0.000110927
0.00061088
-0.000131308
0.00083802
-0.000148452
0.00107835
-0.000161571
0.00132797
-0.000170042
0.00158398
-0.000173369
0.00184423
-0.000171152
0.002107
-0.000163072
0.00237095
-0.000148877
0.00263492
-0.000128373
0.00289789
-0.000101415
0.00315893
-6.79077e-05
0.00341715
-2.77934e-05
0.00367167
1.89454e-05
0.00392163
7.22907e-05
0.00416615
0.000132191
0.0044044
0.000198568
0.00463553
0.000271317
0.00485874
0.000350314
0.00507326
0.000435418
0.00527838
0.000526475
0.00547345
0.000623321
0.0056579
0.000725781
0.00583126
0.000833671
0.00599317
0.000946796
0.00614341
0.00106494
0.00628188
0.00118785
0.00640869
0.00131524
0.00652413
0.00144673
0.00662874
0.00158185
0.00672333
0.00171996
0.00680905
0.00186022
0.00688744
0.00200145
0.00696041
0.00214212
0.00703149
0.00710582
0.00228005
-6.78199e-06
-3.10909e-05
-2.25423e-05
-5.68666e-06
-4.37641e-05
9.41276e-05
-6.76912e-05
0.000243396
-9.21689e-05
0.000426728
-0.000115518
0.000634229
-0.000136427
0.000858929
-0.000153872
0.0010958
-0.000167049
0.00134114
-0.000175326
0.00159226
-0.0001782
0.0018471
-0.000175271
0.00210407
-0.000166219
0.0023619
-0.000150792
0.00261949
-0.000128798
0.0028759
-0.000100091
0.00313022
-6.45713e-05
0.00338163
-2.21806e-05
0.00362928
2.71029e-05
0.00387234
8.32654e-05
0.00410999
0.000146261
0.0043414
0.000216016
0.00456578
0.000292434
0.00478233
0.000375397
0.0049903
0.000464774
0.005189
0.000560421
0.0053778
0.000662187
0.00555613
0.000769915
0.00572353
0.000883443
0.00587964
0.0010026
0.00602425
0.00112721
0.00615727
0.00125706
0.00627884
0.00139191
0.00638928
0.00153144
0.0064892
0.00167525
0.00657952
0.00182274
0.00666156
0.00197311
0.00673707
0.0021252
0.00680832
0.0022774
0.00687929
0.00695584
0.00242738
-7.11309e-06
-2.39779e-05
-2.35543e-05
1.07543e-05
-4.55944e-05
0.000116168
-7.03262e-05
0.000268128
-9.54914e-05
0.000451893
-0.00011934
0.000658078
-0.000140513
0.000880103
-0.000157957
0.00111324
-0.000170852
0.00135404
-0.000178554
0.00159996
-0.000180556
0.0018491
-0.000176457
0.00209997
-0.000165938
0.00235138
-0.000148747
0.0026023
-0.000124693
0.00285184
-9.36313e-05
0.00309916
-5.54615e-05
0.00334346
-1.01228e-05
0.00358394
4.2408e-05
0.00381981
0.00010212
0.00405028
0.000168971
0.00427455
0.000242892
0.00449186
0.000323791
0.00470143
0.000411555
0.00490254
0.000506062
0.0050945
0.000607175
0.00527669
0.000714755
0.00544855
0.00082866
0.00560962
0.000948749
0.00575955
0.00107488
0.00589812
0.0012069
0.00602525
0.00134466
0.00614108
0.00148797
0.00624598
0.00163657
0.0063406
0.00179013
0.00642597
0.00194814
0.00650355
0.00210985
0.00657536
0.00227413
0.00664403
0.00243934
0.00671409
0.0067922
0.00260298
-7.41846e-06
-1.65595e-05
-2.44715e-05
2.78071e-05
-4.72204e-05
0.000138916
-7.2609e-05
0.000293516
-9.82769e-05
0.000477561
-0.000122403
0.000682203
-0.000143581
0.000901281
-0.000160727
0.00113039
-0.000173003
0.00136632
-0.000179755
0.00160672
-0.000180471
0.00184982
-0.000174747
0.00209425
-0.000162266
0.0023389
-0.000142778
0.00258281
-0.000116092
0.00282516
-8.2066e-05
0.00306514
-4.05993e-05
0.003302
8.36915e-06
0.00353497
6.48634e-05
0.00376332
0.000128874
0.00398627
0.000200361
0.00420307
0.000279257
0.00441296
0.000365474
0.00461521
0.000458905
0.0048091
0.000559428
0.00499397
0.000666917
0.0051692
0.000781238
0.00533423
0.000902265
0.0054886
0.00102987
0.00563195
0.00116394
0.00576405
0.00130435
0.00588484
0.001451
0.00599444
0.00160375
0.00609323
0.00176243
0.00618192
0.00192678
0.00626162
0.00209639
0.00633393
0.0022706
0.00640116
0.00244833
0.0064663
0.00262792
0.00653449
0.00661336
0.00280676
-7.69837e-06
-8.86119e-06
-2.52952e-05
4.54037e-05
-4.86448e-05
0.000162266
-7.45453e-05
0.000319417
-0.000100535
0.00050355
-0.00012472
0.000706388
-0.000145649
0.000922211
-0.000162207
0.00114694
-0.000173536
0.00137764
-0.00017897
0.00161215
-0.000177993
0.00184884
-0.000170197
0.00208645
-0.000155266
0.00232397
-0.000132952
0.0025605
-0.000103067
0.00279527
-6.54677e-05
0.00302754
-2.00569e-05
0.00325658
3.32263e-05
0.00348169
9.44056e-05
0.00370214
0.000163472
0.0039172
0.000240386
0.00412615
0.000325083
0.00432826
0.000417474
0.00452282
0.000517455
0.00470912
0.000624906
0.00488652
0.000739703
0.0050544
0.00086172
0.00521221
0.000990834
0.00535948
0.00112694
0.00549585
0.00126992
0.00562106
0.00141972
0.00573504
0.00157624
0.00583791
0.00173942
0.00593005
0.00190915
0.00601219
0.00208528
0.00608549
0.0022675
0.00615171
0.00245526
0.0062134
0.00264758
0.00627399
0.00284281
0.00633926
0.00641796
0.00303821
-7.95339e-06
-9.07854e-07
-2.60269e-05
6.34771e-05
-4.98717e-05
0.000186111
-7.61421e-05
0.000345687
-0.000102276
0.000529683
-0.000126309
0.000730421
-0.000146743
0.000942645
-0.00016243
0.00116263
-0.000172492
0.00138771
-0.000176252
0.00161591
-0.000173185
0.00184577
-0.000162881
0.00207615
-0.000145024
0.00230611
-0.000119367
0.00253484
-8.57225e-05
0.00276163
-4.39513e-05
0.00298577
6.04367e-06
0.00320659
6.43214e-05
0.00342341
0.000130905
0.00363555
0.000205784
0.00384232
0.000288919
0.00404302
0.000380245
0.00423694
0.000479673
0.00442339
0.000587097
0.0046017
0.000702398
0.00477122
0.000825451
0.00493135
0.000956129
0.00508153
0.00109431
0.0052213
0.0012399
0.00535026
0.0013928
0.00546816
0.00155296
0.00557489
0.00172033
0.00567054
0.0018949
0.00575549
0.00207663
0.00583046
0.00226546
0.00589666
0.0024612
0.00595597
0.00266344
0.00601115
0.00287132
0.00606611
0.00308325
0.00612733
0.00620477
0.00329643
-8.18421e-06
7.27634e-06
-2.66684e-05
8.19612e-05
-5.09048e-05
0.000210347
-7.74062e-05
0.000372188
-0.000103511
0.000555788
-0.000127186
0.000754096
-0.000146886
0.000962345
-0.000161431
0.00117718
-0.000169918
0.00139619
-0.000171659
0.00161765
-0.00016612
0.00184023
-0.000152888
0.00206292
-0.000131643
0.00228486
-0.000102142
0.00250534
-6.41963e-05
0.00272368
-1.76689e-05
0.00293924
3.75352e-05
0.00315139
0.000101473
0.00335948
0.000174167
0.00356286
0.000255604
0.00376088
0.000345745
0.00395288
0.000444521
0.00413816
0.000551843
0.00431607
0.000667601
0.00448594
0.000791671
0.00464715
0.000923925
0.00479909
0.00106423
0.00494123
0.00121247
0.00507306
0.00136853
0.0051942
0.00153234
0.00530435
0.00170383
0.00540339
0.00188301
0.00549137
0.00206988
0.00556862
0.00226448
0.00563586
0.00246684
0.0056943
0.00267691
0.0057459
0.00289441
0.00579365
0.00311864
0.00584188
0.00334813
0.00589784
0.00597286
0.00358004
-8.39145e-06
1.56678e-05
-2.72213e-05
0.000100791
-5.17475e-05
0.000234873
-7.83438e-05
0.000398785
-0.000104251
0.000581696
-0.00012737
0.000777214
-0.000146104
0.00098108
-0.000159243
0.00119031
-0.00016586
0.00140281
-0.000165252
0.00161704
-0.000156875
0.00183186
-0.000140312
0.00204636
-0.00011524
0.00225979
-8.14137e-05
0.00247152
-3.86467e-05
0.00268091
1.31978e-05
0.0028874
7.42133e-05
0.00309037
0.000144455
0.00328923
0.000223942
0.00348337
0.000312661
0.00367216
0.00041057
0.00385497
0.000517597
0.00403113
0.000633649
0.00420002
0.000758611
0.00436098
0.000892353
0.00451341
0.00103474
0.00465671
0.00118562
0.00479034
0.00134488
0.0049138
0.00151239
0.00502669
0.00168806
0.00512868
0.00187184
0.00521961
0.00206373
0.00529948
0.00226377
0.00536858
0.00247205
0.00542757
0.00268869
0.00547766
0.00291374
0.00552085
0.0031471
0.00556029
0.00338826
0.00560073
0.0036359
0.0056502
0.00572153
0.00388723
-8.57547e-06
2.42433e-05
-2.76868e-05
0.000119902
-5.24021e-05
0.000259588
-7.89591e-05
0.000425341
-0.000104504
0.000607241
-0.000126871
0.000799581
-0.000144418
0.000998627
-0.000155897
0.00120179
-0.000160362
0.00140728
-0.000157089
0.00161377
-0.000145527
0.0018203
-0.000125251
0.00202608
-9.59331e-05
0.00223048
-5.73266e-05
0.00243291
-9.24465e-06
0.00263283
4.84492e-05
0.0028297
0.000115847
0.00302297
0.000193004
0.00321208
0.000279935
0.00339644
0.000376626
0.00357547
0.000483031
0.00374856
0.000599075
0.00391509
0.00072466
0.00407443
0.000859662
0.00422598
0.00100394
0.00436913
0.00115735
0.0045033
0.00131973
0.00462796
0.00149093
0.0047426
0.00167082
0.0048468
0.00185928
0.00494022
0.00205626
0.00502263
0.00226172
0.00509401
0.00247573
0.00515457
0.0026984
0.0052049
0.00292992
0.00524614
0.00317047
0.0052803
0.0034201
0.00531066
0.00367852
0.00534232
0.00394462
0.0053841
0.00545042
0.00421573
-8.73641e-06
3.29796e-05
-2.80651e-05
0.000139231
-5.28689e-05
0.000284392
-7.92533e-05
0.000451726
-0.000104274
0.000632262
-0.000125699
0.000821007
-0.00014184
0.00101477
-0.000151417
0.00121137
-0.000153457
0.00140932
-0.00014722
0.00160753
-0.000132143
0.00180522
-0.000107792
0.00200173
-7.38353e-05
0.00219652
-3.0021e-05
0.00238909
2.38387e-05
0.00257897
8.78807e-05
0.00276566
0.000162197
0.00294866
0.00024684
0.00312743
0.000341825
0.00330146
0.000447135
0.00347016
0.000562719
0.00363298
0.0006885
0.00378931
0.00082437
0.00393856
0.000970198
0.00408015
0.00112583
0.00421349
0.00129111
0.00433803
0.00146584
0.00445322
0.00164987
0.00455858
0.00184301
0.00465366
0.00204514
0.00473809
0.00225613
0.00481164
0.00247596
0.00487419
0.00270465
0.00492588
0.00294233
0.00496722
0.00318922
0.00499925
0.0034456
0.00502393
0.00371169
0.00504456
0.00398743
0.00506658
0.00427199
0.00509954
0.00515951
0.00456289
-8.87409e-06
4.18537e-05
-2.83553e-05
0.000158712
-5.3146e-05
0.000309183
-7.92245e-05
0.000477804
-0.000103558
0.000656596
-0.000123855
0.000841303
-0.000138378
0.00102929
-0.000145814
0.00121881
-0.000145168
0.00140867
-0.000135681
0.00159805
-0.000116775
0.00178631
-8.80087e-05
0.00197296
-4.90429e-05
0.00215755
3.78704e-07
0.00233967
6.04469e-05
0.0025189
0.0001313
0.00269481
0.00021303
0.00286693
0.000305688
0.00303478
0.000409289
0.00319786
0.000523812
0.00335564
0.000649205
0.00350758
0.000785382
0.00365313
0.000932231
0.00379171
0.00108961
0.00392277
0.00125735
0.00404575
0.00143526
0.00416011
0.00162315
0.00426533
0.0018208
0.00436093
0.00202801
0.00444645
0.00224459
0.00452152
0.00247037
0.00458585
0.00270527
0.00463929
0.00294927
0.00468188
0.00320246
0.00471403
0.00346506
0.00473665
0.00373743
0.00475156
0.00401994
0.00476205
0.00431276
0.00477376
0.00461542
0.00479688
0.00484918
0.00492576
-8.98793e-06
5.08415e-05
-2.85552e-05
0.000178279
-5.32289e-05
0.000333856
-7.88662e-05
0.000503441
-0.000102351
0.00068008
-0.00012133
0.000860283
-0.000134024
0.00104198
-0.000139087
0.00122387
-0.0001355
0.00140508
-0.000122486
0.00158503
-9.9452e-05
0.00176328
-6.59467e-05
0.00193946
-2.1624e-05
0.00211323
3.3778e-05
0.00228427
0.000100454
0.00245223