/*--------------------------------*- C++ -*----------------------------------*\
  =========                 |
  \\      /  F ield         | OpenFOAM: The Open Source CFD Toolbox
   \\    /   O peration     | Website:  https://openfoam.org
    \\  /    A nd           | Version:  7
     \\/     M anipulation  |
\*---------------------------------------------------------------------------*/
FoamFile
{
    version     2.0;
    format      ascii;
    class       volScalarField;
    location    "0.2125";
    object      p;
}
// * * * * * * * * * * * * * * * * * * * * * * * * * * * * * * * * * * * * * //

dimensions      [0 2 -2 0 0 0 0];

internalField   nonuniform List<scalar> 
400
(
6.778e-06
-0.00589505
-0.0130442
-0.0184882
-0.02051
-0.0183176
-0.0118476
-0.00154613
0.0117904
0.0271203
0.0432347
0.0588319
0.0726038
0.0833457
0.0900964
0.0923099
0.0900662
0.0842943
0.0769026
0.0710305
0.00583207
-0.000238689
-0.00577188
-0.00948402
-0.0105316
-0.00836445
-0.002909
0.00551984
0.0163273
0.0287108
0.0417219
0.054332
0.0655098
0.0743167
0.0800188
0.0822153
0.0809868
0.0769924
0.0712624
0.0652467
0.0133985
0.00496683
-0.00100599
-0.004422
-0.00527434
-0.00326605
0.00159908
0.00902171
0.0184925
0.0293353
0.0407468
0.0518463
0.0617409
0.0696056
0.0747748
0.0768453
0.0758072
0.0720641
0.0658391
0.0574425
0.0202084
0.00859705
0.00120698
-0.00267399
-0.00373287
-0.00189714
0.00271927
0.00977173
0.0187663
0.0290795
0.0399749
0.0506352
0.0602124
0.067894
0.0729806
0.0749779
0.0737375
0.0694424
0.0616699
0.0500054
0.0245944
0.00964959
0.000574242
-0.00398398
-0.00530579
-0.00351224
0.00116918
0.00832708
0.0174518
0.0279356
0.039068
0.0500493
0.0600247
0.0681379
0.0735977
0.0757672
0.0743322
0.0692731
0.0596204
0.0444174
0.0252994
0.0070018
-0.00381497
-0.0090474
-0.0105108
-0.00850055
-0.00335833
0.00442548
0.0143061
0.0256678
0.0377982
0.049883
0.0610231
0.070274
0.076703
0.0794821
0.078095
0.0723147
0.0606638
0.0417402
0.0212479
-0.000434686
-0.0129432
-0.0186911
-0.0200226
-0.0174094
-0.0113153
-0.0023195
0.00898681
0.0219681
0.0358965
0.0499255
0.0630874
0.0743149
0.0824875
0.0865299
0.0856679
0.0794241
0.0657765
0.0428857
0.0113363
-0.0138135
-0.0278759
-0.0338241
-0.0345876
-0.0308457
-0.0232032
-0.0123392
0.00110634
0.0164802
0.0330429
0.0499171
0.0660593
0.0802581
0.0911625
0.0973833
0.0978046
0.0916048
0.0760855
0.0488845
-0.00572498
-0.0344839
-0.0498586
-0.0555026
-0.0550628
-0.0494934
-0.0395756
-0.0261001
-0.00974919
0.00882505
0.0288962
0.0495807
0.0697751
0.0881217
0.103005
0.112645
0.115467
0.110146
0.093058
0.0611175
-0.0315511
-0.0641146
-0.0803872
-0.0849404
-0.0823787
-0.0740461
-0.0609536
-0.0440152
-0.0239362
-0.00132795
0.0231471
0.0486535
0.0740766
0.0979398
0.118349
0.133058
0.139881
0.13675
0.118699
0.081553
-0.0682736
-0.104861
-0.121289
-0.123497
-0.117458
-0.105083
-0.0876813
-0.0662956
-0.0416138
-0.0141389
0.0156148
0.0469528
0.0788425
0.109764
0.137575
0.159506
0.172589
0.173675
0.155808
0.113064
-0.118884
-0.159628
-0.174823
-0.172634
-0.161073
-0.142874
-0.119714
-0.0927398
-0.062547
-0.0294231
0.00639112
0.0444823
0.0840506
0.123679
0.161088
0.192996
0.215494
0.223926
0.208356
0.159943
-0.187936
-0.232513
-0.243801
-0.233793
-0.213606
-0.187092
-0.156322
-0.12246
-0.0858622
-0.0464406
-0.00398723
0.0415589
0.0898501
0.139818
0.189278
0.234595
0.270866
0.291451
0.282035
0.228822
-0.283054
-0.329532
-0.331634
-0.308103
-0.274619
-0.23638
-0.195717
-0.15357
-0.109804
-0.0637091
-0.0144019
0.0388971
0.0965804
0.158286
0.222355
0.285207
0.34117
0.381284
0.385115
0.330529
-0.418177
-0.459738
-0.442064
-0.39562
-0.342065
-0.287702
-0.234586
-0.182903
-0.13158
-0.078949
-0.0231707
0.0375252
0.104605
0.178884
0.259886
0.344937
0.428411
0.499314
0.529623
0.48372
-0.619416
-0.636573
-0.578325
-0.494075
-0.41122
-0.335648
-0.26777
-0.205962
-0.147516
-0.0893487
-0.0283778
0.0384121
0.113883
0.200556
0.300054
0.412067
0.532939
0.651428
0.732447
0.720599
-0.93559
-0.878172
-0.741675
-0.598049
-0.474383
-0.372619
-0.288838
-0.217732
-0.153918
-0.0924209
-0.0286685
0.0417599
0.123343
0.220808
0.339008
0.482249
0.65227
0.841654
1.01496
1.09628
-1.48059
-1.20195
-0.920994
-0.692541
-0.517671
-0.387695
-0.290188
-0.213418
-0.148154
-0.0872018
-0.0245201
0.0455669
0.129109
0.233305
0.367368
0.543128
0.772635
1.06029
1.39819
1.73407
-2.57156
-1.60192
-1.04346
-0.714824
-0.497794
-0.353382
-0.255524
-0.184277
-0.126589
-0.0737762
-0.0192018
0.0430728
0.11977
0.219659
0.356011
0.549828
0.829818
1.23508
1.88111
2.95926
-4.4451
-2.01726
-0.969791
-0.564334
-0.357041
-0.23903
-0.169352
-0.123291
-0.0871782
-0.0533621
-0.0166693
0.0275221
0.084307
0.161202
0.271586
0.44137
0.718811
1.22151
2.38403
4.9294
)
;

boundaryField
{
    movingWall
    {
        type            zeroGradient;
    }
    fixedWalls
    {
        type            zeroGradient;
    }
    frontAndBack
    {
        type            empty;
    }
}


// ************************************************************************* //
