/*--------------------------------*- C++ -*----------------------------------*\
  =========                 |
  \\      /  F ield         | OpenFOAM: The Open Source CFD Toolbox
   \\    /   O peration     | Website:  https://openfoam.org
    \\  /    A nd           | Version:  7
     \\/     M anipulation  |
\*---------------------------------------------------------------------------*/
FoamFile
{
    version     2.0;
    format      ascii;
    class       surfaceScalarField;
    location    "0.2125";
    object      phi;
}
// * * * * * * * * * * * * * * * * * * * * * * * * * * * * * * * * * * * * * //

dimensions      [0 3 -1 0 0 0 0];

internalField   nonuniform List<scalar> 
760
(
1.42622e-08
-1.42979e-08
-2.23551e-08
3.66173e-08
-1.14279e-07
9.19242e-08
-2.45408e-07
1.31129e-07
-3.95965e-07
1.50557e-07
-5.47201e-07
1.51237e-07
-6.82999e-07
1.35798e-07
-7.90448e-07
1.07449e-07
-8.59975e-07
6.95275e-08
-8.85401e-07
2.54255e-08
-8.64081e-07
-2.13202e-08
-7.97161e-07
-6.69199e-08
-6.89879e-07
-1.07283e-07
-5.51795e-07
-1.38084e-07
-3.96801e-07
-1.54993e-07
-2.42663e-07
-1.54138e-07
-1.09754e-07
-1.32909e-07
-1.85778e-08
-9.11773e-08
1.57725e-08
-3.43509e-08
1.57722e-08
-3.43539e-08
2.0056e-08
-1.80412e-07
1.82676e-07
-4.34007e-07
3.45518e-07
-7.64282e-07
4.61404e-07
-1.13183e-06
5.18102e-07
-1.49662e-06
5.16029e-07
-1.8225e-06
4.61675e-07
-2.07952e-06
3.64473e-07
-2.24514e-06
2.35149e-07
-2.30486e-06
8.5139e-08
-2.25274e-06
-7.34382e-08
-2.09198e-06
-2.27677e-07
-1.83536e-06
-3.63908e-07
-1.50536e-06
-4.68083e-07
-1.13365e-06
-5.26696e-07
-7.59351e-07
-5.28442e-07
-4.25418e-07
-4.66841e-07
-1.72734e-07
-3.4386e-07
-3.0999e-08
-1.76086e-07
-1.52272e-08
-9.2058e-08
1.12114e-07
-3.56843e-07
4.47461e-07
-7.64323e-07
7.52997e-07
-1.26806e-06
9.65143e-07
-1.81402e-06
1.06407e-06
-2.34811e-06
1.05012e-06
-2.82126e-06
9.34825e-07
-3.19258e-06
7.35789e-07
-3.43111e-06
4.73684e-07
-3.51696e-06
1.70981e-07
-3.44203e-06
-1.48361e-07
-3.21081e-06
-4.58896e-07
-2.84084e-06
-7.33886e-07
-2.36277e-06
-9.46148e-07
-1.81956e-06
-1.06991e-06
-1.26401e-06
-1.08399e-06
-7.54262e-07
-9.76587e-07
-3.46813e-07
-7.51309e-07
-8.71662e-08
-4.35732e-07
-1.02394e-07
-1.45073e-07
2.57187e-07
-5.25212e-07
8.27601e-07
-1.08121e-06
1.30899e-06
-1.74684e-06
1.63078e-06
-2.45338e-06
1.77061e-06
-3.13514e-06
1.73188e-06
-3.73381e-06
1.53349e-06
-4.20122e-06
1.2032e-06
-4.50109e-06
7.73552e-07
-4.61003e-06
2.79919e-07
-4.51836e-06
-2.40023e-07
-4.23093e-06
-7.46328e-07
-3.76773e-06
-1.19708e-06
-3.16425e-06
-1.54963e-06
-2.47079e-06
-1.76337e-06
-1.7503e-06
-1.80448e-06
-1.07403e-06
-1.65286e-06
-5.14868e-07
-1.31047e-06
-1.39166e-07
-8.11433e-07
-2.4156e-07
-1.93499e-07
4.50685e-07
-6.84701e-07
1.3188e-06
-1.38506e-06
2.00935e-06
-2.20636e-06
2.45208e-06
-3.06426e-06
2.6285e-06
-3.88225e-06
2.54988e-06
-4.5947e-06
2.24594e-06
-5.14855e-06
1.75706e-06
-5.50426e-06
1.12926e-06
-5.63624e-06
4.11907e-07
-5.53347e-06
-3.42798e-07
-5.20017e-06
-1.07963e-06
-4.65685e-06
-1.7404e-06
-3.94118e-06
-2.2653e-06
-3.10827e-06
-2.59629e-06
-2.22944e-06
-2.6833e-06
-1.38897e-06
-2.49333e-06
-6.78152e-07
-2.02129e-06
-1.87634e-07
-1.30195e-06
-4.29194e-07
-2.39819e-07
6.90504e-07
-8.39985e-07
1.91897e-06
-1.68259e-06
2.85195e-06
-2.65598e-06
3.42547e-06
-3.65938e-06
3.6319e-06
-4.60597e-06
3.49646e-06
-5.42425e-06
3.06423e-06
-6.05823e-06
2.39104e-06
-6.46685e-06
1.53787e-06
-6.62344e-06
5.68498e-07
-6.51568e-06
-4.5056e-07
-6.14621e-06
-1.44909e-06
-5.53411e-06
-2.35251e-06
-4.71675e-06
-3.08265e-06
-3.75165e-06
-3.56139e-06
-2.71711e-06
-3.71784e-06
-1.71065e-06
-3.49979e-06
-8.44206e-07
-2.88774e-06
-2.36017e-07
-1.91014e-06
-6.65211e-07
-2.8659e-07
9.77093e-07
-9.96635e-07
2.62901e-06
-1.98123e-06
3.83655e-06
-3.10366e-06
4.5479e-06
-4.24626e-06
4.7745e-06
-5.31277e-06
4.56297e-06
-6.22777e-06
3.97923e-06
-6.93459e-06
3.09785e-06
-7.39272e-06
1.996e-06
-7.57573e-06
7.51508e-07
-7.47021e-06
-5.56082e-07
-7.07618e-06
-1.84312e-06
-6.40906e-06
-3.01962e-06
-5.503e-06
-3.98872e-06
-4.41484e-06
-4.64955e-06
-3.22764e-06
-4.90504e-06
-2.05179e-06
-4.67564e-06
-1.02192e-06
-3.9176e-06
-2.88056e-07
-2.64401e-06
-9.53266e-07
-3.36123e-07
1.31322e-06
-1.1598e-06
3.4527e-06
-2.28698e-06
4.96372e-06
-3.55348e-06
5.8144e-06
-4.82468e-06
6.04571e-06
-5.99679e-06
5.73507e-06
-6.99348e-06
4.97592e-06
-7.76075e-06
3.86512e-06
-8.26154e-06
2.49679e-06
-8.47152e-06
9.61496e-07
-8.37677e-06
-6.50835e-07
-7.97366e-06
-2.24623e-06
-7.27139e-06
-3.7219e-06
-6.29693e-06
-4.96317e-06
-5.10198e-06
-5.84449e-06
-3.77035e-06
-6.23667e-06
-2.42336e-06
-6.02262e-06
-1.21991e-06
-5.12106e-06
-3.47386e-07
-3.51653e-06
-1.30065e-06
-3.90672e-07
1.70389e-06
-1.33416e-06
4.39618e-06
-2.6037e-06
6.23326e-06
-4.00416e-06
7.21486e-06
-5.38463e-06
7.42618e-06
-6.63727e-06
6.98772e-06
-7.68974e-06
6.02839e-06
-8.49561e-06
4.67099e-06
-9.0254e-06
3.02659e-06
-9.25976e-06
1.19585e-06
-9.18534e-06
-7.25255e-07
-8.79404e-06
-2.63752e-06
-8.08587e-06
-4.43007e-06
-7.07558e-06
-5.97346e-06
-5.80312e-06
-7.11695e-06
-4.34633e-06
-7.69347e-06
-2.83282e-06
-7.53613e-06
-1.44593e-06
-6.50795e-06
-4.17636e-07
-4.54482e-06
-1.71829e-06
-4.53057e-07
2.15695e-06
-1.52472e-06
5.46785e-06
-2.9333e-06
7.64184e-06
-4.44803e-06
8.72958e-06
-5.90391e-06
8.88206e-06
-7.19521e-06
8.27902e-06
-8.26095e-06
7.09413e-06
-9.06928e-06
5.47931e-06
-9.60398e-06
3.56129e-06
-9.85456e-06
1.44643e-06
-9.8102e-06
-7.69619e-07
-9.45793e-06
-2.98979e-06
-8.78545e-06
-5.10255e-06
-7.78923e-06
-6.96968e-06
-6.48851e-06
-8.41767e-06
-4.94465e-06
-9.23734e-06
-3.28252e-06
-9.19826e-06
-1.70708e-06
-8.08339e-06
-5.02932e-07
-5.74897e-06
-2.22122e-06
-5.278e-07
2.68475e-06
-1.73839e-06
6.67844e-06
-3.276e-06
9.17944e-06
-4.86919e-06
1.03228e-05
-6.34438e-06
1.03573e-05
-7.60817e-06
9.54281e-06
-8.62176e-06
8.10772e-06
-9.37713e-06
6.23469e-06
-9.87842e-06
4.06258e-06
-1.01288e-05
1.69686e-06
-1.01229e-05
-7.75594e-07
-9.8431e-06
-3.26956e-06
-9.26238e-06
-5.68327e-06
-8.35239e-06
-7.87967e-06
-7.10059e-06
-9.66947e-06
-5.53676e-06
-1.08012e-05
-3.76742e-06
-1.09676e-05
-2.01002e-06
-9.84078e-06
-6.08799e-07
-7.15019e-06
-2.83002e-06
-6.23016e-07
3.30776e-06
-1.98577e-06
8.04119e-06
-3.62949e-06
1.08232e-05
-5.23916e-06
1.19324e-05
-6.64483e-06
1.17629e-05
-7.78196e-06
1.06799e-05
-8.64876e-06
8.97452e-06
-9.27227e-06
6.8582e-06
-9.6846e-06
4.47491e-06
-9.90782e-06
1.92008e-06
-9.94501e-06
-7.38409e-07
-9.77596e-06
-3.43861e-06
-9.35773e-06
-6.1015e-06
-8.63187e-06
-8.60553e-06
-7.54215e-06
-1.07592e-05
-6.06718e-06
-1.22761e-05
-4.27031e-06
-1.27645e-05
-2.36093e-06
-1.17502e-05
-7.43695e-07
-8.76742e-06
-3.57371e-06
-7.53538e-07
4.0613e-06
-2.28248e-06
9.57014e-06
-3.9842e-06
1.25249e-05
-5.50614e-06
1.34544e-05
-6.70699e-06
1.29638e-05
-7.57646e-06
1.15494e-05
-8.16846e-06
9.56652e-06
-8.55644e-06
7.24617e-06
-8.80677e-06
4.72525e-06
-8.96413e-06
2.07744e-06
-9.04325e-06
-6.59288e-07
-9.02421e-06
-3.45765e-06
-8.85041e-06
-6.2753e-06
-8.43184e-06
-9.0241e-06
-7.6591e-06
-1.15319e-05
-6.43761e-06
-1.34976e-05
-4.75194e-06
-1.44501e-05
-2.76371e-06
-1.37384e-05
-9.21487e-07
-1.06096e-05
-4.4952e-06
-9.45614e-07
5.00691e-06
-2.64687e-06
1.12714e-05
-4.3081e-06
1.41861e-05
-5.57052e-06
1.47168e-05
-6.36861e-06
1.37619e-05
-6.78199e-06
1.19628e-05
-6.93992e-06
9.72445e-06
-6.9697e-06
7.27595e-06
-6.9731e-06
4.72865e-06
-7.01696e-06
2.12129e-06
-7.12895e-06
-5.47292e-07
-7.29375e-06
-3.29286e-06
-7.448e-06
-6.12105e-06
-7.47637e-06
-8.99573e-06
-7.2154e-06
-1.17929e-05
-6.47926e-06
-1.42338e-05
-5.12961e-06
-1.57998e-05
-3.21256e-06
-1.56555e-05
-1.16472e-06
-1.26575e-05
-5.65992e-06
-1.24109e-06
6.24801e-06
-3.08342e-06
1.31137e-05
-4.50555e-06
1.56082e-05
-5.23264e-06
1.54439e-05
-5.35437e-06
1.38836e-05
-5.08194e-06
1.16904e-05
-4.6318e-06
9.27431e-06
-4.18076e-06
6.82492e-06
-3.85628e-06
4.40417e-06
-3.73918e-06
2.00418e-06
-3.86731e-06
-4.19153e-07
-4.23464e-06
-2.92554e-06
-4.78364e-06
-5.57204e-06
-5.39193e-06
-8.38743e-06
-5.85845e-06
-1.13264e-05
-5.90552e-06
-1.41867e-05
-5.23128e-06
-1.6474e-05
-3.66691e-06
-1.72198e-05
-1.5048e-06
-1.48196e-05
-7.16473e-06
-1.68691e-06
7.93491e-06
-3.5192e-06
1.4946e-05
-4.31575e-06
1.64048e-05
-4.08928e-06
1.52174e-05
-3.19439e-06
1.29887e-05
-2.00088e-06
1.04968e-05
-7.97949e-07
8.07138e-06
2.15997e-07
5.81097e-06
9.1454e-07
3.70563e-06
1.22165e-06
1.69708e-06
1.09791e-06
-2.95418e-07
5.36839e-07
-2.36446e-06
-4.27081e-07
-4.60812e-06
-1.69652e-06
-7.11799e-06
-3.0761e-06
-9.94679e-06
-4.23427e-06
-1.30285e-05
-4.69969e-06
-1.60086e-05
-3.97656e-06
-1.7943e-05
-1.96097e-06
-1.68352e-05
-9.12569e-06
-2.27131e-06
1.02062e-05
-3.60895e-06
1.62837e-05
-3.08278e-06
1.58786e-05
-1.34777e-06
1.34824e-05
8.92657e-07
1.07483e-05
3.15032e-06
8.23919e-06
5.13323e-06
6.08846e-06
6.6836e-06
4.2606e-06
7.72052e-06
2.66871e-06
8.20101e-06
1.21659e-06
8.098e-06
-1.92408e-07
7.39282e-06
-1.65928e-06
6.08027e-06
-3.29557e-06
4.19214e-06
-5.22986e-06
1.84642e-06
-7.60107e-06
-6.70557e-07
-1.05116e-05
-2.80432e-06
-1.38748e-05
-3.6895e-06
-1.70578e-05
-2.46027e-06
-1.80644e-05
-1.1586e-05
-2.69695e-06
1.29032e-05
-2.20746e-06
1.57942e-05
7.13821e-07
1.29573e-05
4.46369e-06
9.73256e-06
8.1261e-06
7.08587e-06
1.12942e-05
5.07105e-06
1.3822e-05
3.56074e-06
1.56812e-05
2.40139e-06
1.68848e-05
1.46506e-06
1.74479e-05
6.53503e-07
1.7369e-05
-1.13535e-07
1.66226e-05
-9.12851e-07
1.51586e-05
-1.83152e-06
1.29141e-05
-2.98544e-06
9.8518e-06
-4.53874e-06
6.05171e-06
-6.71147e-06
1.90014e-06
-9.72328e-06
-1.59535e-06
-1.35623e-05
-2.59408e-06
-1.70657e-05
-1.418e-05
-5.79035e-07
1.34822e-05
4.12017e-06
1.1095e-05
1.02998e-05
6.77771e-06
1.57882e-05
4.24411e-06
2.015e-05
2.72411e-06
2.34495e-05
1.77155e-06
2.58527e-05
1.15751e-06
2.75141e-05
7.40026e-07
2.8547e-05
4.32179e-07
2.90192e-05
1.8122e-07
2.8955e-05
-4.9259e-08
2.83308e-05
-2.88656e-07
2.70729e-05
-5.73689e-07
2.50455e-05
-9.58002e-07
2.20429e-05
-1.5361e-06
1.78101e-05
-2.47868e-06
1.21751e-05
-4.08828e-06
5.52156e-06
-6.90877e-06
9.5915e-08
-1.164e-05
-1.40841e-05
1.34822e-05
2.45772e-05
3.13549e-05
3.5599e-05
3.83231e-05
4.00947e-05
4.12522e-05
4.19922e-05
4.24244e-05
4.26056e-05
4.25563e-05
4.22677e-05
4.1694e-05
4.0736e-05
3.91999e-05
3.67212e-05
3.26329e-05
2.57242e-05
1.40841e-05
)
;

boundaryField
{
    movingWall
    {
        type            calculated;
        value           uniform 0;
    }
    fixedWalls
    {
        type            calculated;
        value           uniform 0;
    }
    frontAndBack
    {
        type            empty;
        value           nonuniform 0();
    }
}


// ************************************************************************* //
