/*--------------------------------*- C++ -*----------------------------------*\
  =========                 |
  \\      /  F ield         | OpenFOAM: The Open Source CFD Toolbox
   \\    /   O peration     | Website:  https://openfoam.org
    \\  /    A nd           | Version:  7
     \\/     M anipulation  |
\*---------------------------------------------------------------------------*/
FoamFile
{
    version     2.0;
    format      ascii;
    class       volScalarField;
    location    "0.7";
    object      p;
}
// * * * * * * * * * * * * * * * * * * * * * * * * * * * * * * * * * * * * * //

dimensions      [0 2 -2 0 0 0 0];

internalField   nonuniform List<scalar> 
18000
(
3.34394
3.34594
3.34954
3.35478
3.36274
3.37374
3.38722
3.40214
3.41751
3.43256
3.44686
3.46025
3.47275
3.48446
3.49547
3.50592
3.51591
3.52552
3.53485
3.54397
3.55297
3.5619
3.57083
3.57978
3.58879
3.59787
3.60703
3.61627
3.62561
3.63501
3.32604
3.32839
3.33196
3.33709
3.34495
3.35594
3.36948
3.38454
3.40005
3.41523
3.42964
3.44312
3.45568
3.46741
3.47842
3.48883
3.49877
3.5083
3.51752
3.52652
3.53536
3.54413
3.55287
3.56162
3.57041
3.57925
3.58816
3.59714
3.60621
3.61531
3.30777
3.31052
3.31409
3.31913
3.3269
3.33787
3.35148
3.36666
3.38231
3.39761
3.41212
3.42567
3.43827
3.45
3.461
3.47137
3.48123
3.49067
3.49977
3.50863
3.51733
3.52591
3.53445
3.54299
3.55155
3.56014
3.56879
3.57749
3.58627
3.59506
3.28921
3.29239
3.29596
3.30092
3.30859
3.31956
3.33325
3.34854
3.36431
3.37973
3.39432
3.40793
3.42055
3.43228
3.44324
3.45355
3.46333
3.47266
3.48164
3.49035
3.49888
3.50728
3.51561
3.52391
3.53223
3.54056
3.54893
3.55735
3.56583
3.57429
3.2704
3.274
3.27756
3.28245
3.29006
3.30104
3.31481
3.33023
3.34612
3.36162
3.37629
3.38994
3.40257
3.41427
3.42518
3.43541
3.44509
3.45431
3.46315
3.47171
3.48005
3.48825
3.49636
3.50442
3.51248
3.52054
3.52862
3.53674
3.5449
3.55302
3.25136
3.2554
3.25896
3.26378
3.27135
3.28235
3.29622
3.31175
3.32775
3.34334
3.35806
3.37173
3.38435
3.39601
3.40685
3.417
3.42656
3.43565
3.44434
3.45272
3.46087
3.46886
3.47674
3.48455
3.49233
3.50011
3.50789
3.51569
3.52353
3.53129
3.23213
3.23659
3.24016
3.24493
3.25247
3.26352
3.2775
3.29315
3.30924
3.3249
3.33966
3.35333
3.36592
3.37753
3.38828
3.39832
3.40776
3.4167
3.42523
3.43343
3.44137
3.44913
3.45676
3.46431
3.47181
3.47929
3.48676
3.49423
3.50173
3.50912
3.21273
3.21762
3.22118
3.22592
3.23346
3.24458
3.25868
3.27445
3.29063
3.30634
3.32112
3.33478
3.34732
3.35885
3.3695
3.37942
3.38872
3.3975
3.40585
3.41385
3.42158
3.4291
3.43647
3.44374
3.45094
3.45811
3.46525
3.47239
3.47953
3.48654
3.19318
3.19849
3.20206
3.20678
3.21434
3.22556
3.23979
3.25568
3.27194
3.2877
3.30247
3.3161
3.32857
3.34001
3.35054
3.36032
3.36946
3.37807
3.38623
3.39402
3.40152
3.40879
3.41589
3.42287
3.42976
3.4366
3.44341
3.4502
3.45697
3.46358
3.1735
3.17923
3.1828
3.18752
3.19514
3.20649
3.22086
3.23686
3.2532
3.26898
3.28375
3.29732
3.30971
3.32103
3.33144
3.34106
3.35003
3.35844
3.3664
3.37397
3.38122
3.38823
3.39504
3.40172
3.4083
3.4148
3.42126
3.42769
3.43408
3.44027
3.15372
3.15985
3.16343
3.16818
3.17589
3.18738
3.20191
3.21803
3.23444
3.25023
3.26496
3.27846
3.29075
3.30195
3.3122
3.32165
3.33043
3.33865
3.34638
3.35371
3.36071
3.36744
3.37396
3.38033
3.38657
3.39273
3.39883
3.40488
3.41088
3.41665
3.13385
3.14037
3.14397
3.14876
3.15659
3.16826
3.18296
3.19921
3.21568
3.23147
3.24615
3.25955
3.27172
3.28278
3.29287
3.30213
3.31071
3.31871
3.32621
3.33329
3.34001
3.34646
3.35268
3.35872
3.36462
3.37042
3.37615
3.38181
3.3874
3.39274
3.11391
3.12081
3.12442
3.12929
3.13728
3.14916
3.16405
3.18042
3.19694
3.21271
3.22732
3.24062
3.25266
3.26355
3.27346
3.28253
3.29089
3.29865
3.30591
3.31272
3.31917
3.32531
3.33122
3.33692
3.34248
3.34791
3.35325
3.35851
3.36369
3.36857
3.09391
3.10118
3.10481
3.10978
3.11797
3.13009
3.14519
3.16169
3.17824
3.19398
3.2085
3.22168
3.23356
3.24428
3.254
3.26285
3.27099
3.27851
3.2855
3.29204
3.29819
3.30403
3.30961
3.31498
3.32017
3.32523
3.33017
3.33503
3.33977
3.34419
3.07387
3.08148
3.08515
3.09025
3.09868
3.11107
3.12639
3.14302
3.1596
3.1753
3.18972
3.20276
3.21448
3.22501
3.23451
3.24314
3.25103
3.2583
3.26501
3.27127
3.27712
3.28265
3.28789
3.29291
3.29773
3.3024
3.30694
3.31139
3.31569
3.31963
3.0538
3.06175
3.06546
3.07073
3.07943
3.09213
3.10769
3.12445
3.14105
3.15668
3.17099
3.18387
3.19541
3.20573
3.21502
3.22341
3.23105
3.23804
3.24448
3.25044
3.25599
3.26119
3.26609
3.27075
3.2752
3.27948
3.28361
3.28763
3.29148
3.29493
3.03372
3.04198
3.04575
3.05123
3.06025
3.07328
3.08909
3.10598
3.12259
3.13815
3.15233
3.16505
3.17639
3.18649
3.19554
3.20368
3.21106
3.21777
3.22392
3.22957
3.23481
3.23968
3.24424
3.24853
3.25261
3.25649
3.26021
3.2638
3.26719
3.27013
3.01364
3.02221
3.02605
3.03177
3.04116
3.05455
3.07063
3.08764
3.10425
3.11973
3.13376
3.14629
3.15742
3.1673
3.1761
3.18398
3.19108
3.1975
3.20335
3.2087
3.21361
3.21815
3.22236
3.22629
3.22999
3.23348
3.23678
3.23994
3.24286
3.2453
2.99358
3.00245
3.00639
3.01239
3.02217
3.03596
3.05231
3.06944
3.08605
3.10142
3.11529
3.12763
3.13854
3.14818
3.15672
3.16433
3.17114
3.17727
3.18281
3.18785
3.19243
3.19663
3.20049
3.20406
3.20738
3.21047
3.21336
3.21609
3.21854
3.22048
2.97358
2.98273
2.98677
2.9931
3.00332
3.01753
3.03415
3.0514
3.068
3.08326
3.09696
3.10909
3.11976
3.12915
3.13742
3.14475
3.15126
3.15709
3.16232
3.16703
3.17128
3.17514
3.17865
3.18186
3.1848
3.18751
3.19
3.19231
3.19429
3.19573
2.95364
2.96306
2.96723
2.97392
2.98464
2.99927
3.01618
3.03354
3.05011
3.06526
3.07877
3.09067
3.1011
3.11023
3.11822
3.12526
3.13147
3.13698
3.14189
3.14627
3.15019
3.1537
3.15686
3.15971
3.16229
3.16462
3.16672
3.16862
3.17015
3.17112
2.93379
2.94347
2.9478
2.9549
2.96613
2.98122
2.99842
3.01589
3.03242
3.04743
3.06074
3.07241
3.08259
3.09144
3.09914
3.10587
3.11178
3.11697
3.12155
3.12559
3.12917
3.13233
3.13514
3.13764
3.13987
3.14183
3.14356
3.14508
3.14619
3.14672
2.91407
2.92398
2.9285
2.93605
2.94784
2.9634
2.98088
2.99845
3.01493
3.0298
3.0429
3.05433
3.06423
3.07279
3.0802
3.08662
3.0922
3.09707
3.10131
3.10501
3.10823
3.11104
3.11351
3.11566
3.11754
3.11916
3.12054
3.12172
3.12245
3.12262
2.89449
2.90464
2.90937
2.91741
2.9298
2.94584
2.9636
2.98125
2.99768
3.01238
3.02526
3.03643
3.04605
3.05432
3.06142
3.06752
3.07277
3.07729
3.08118
3.08453
3.08739
3.08985
3.09196
3.09377
3.09531
3.0966
3.09768
3.09856
3.09897
3.0989
2.87508
2.88546
2.89043
2.89902
2.91202
2.92855
2.94658
2.96432
2.98067
2.9952
3.00785
3.01875
3.02808
3.03604
3.04282
3.04858
3.05349
3.05766
3.06119
3.06417
3.06666
3.06875
3.0705
3.07196
3.07317
3.07415
3.07495
3.07558
3.07577
3.07559
2.85589
2.86648
2.87173
2.88089
2.89453
2.91156
2.92987
2.94767
2.96393
2.97828
2.99068
3.0013
3.01033
3.01798
3.02442
3.02984
3.0344
3.0382
3.04136
3.04394
3.04605
3.04776
3.04913
3.05023
3.0511
3.05178
3.05232
3.05275
3.0528
3.05271
2.83695
2.84774
2.8533
2.86308
2.87738
2.8949
2.91347
2.93132
2.94749
2.96163
2.97378
2.98411
2.99283
3.00015
3.00625
3.01132
3.01551
3.01893
3.02169
3.02387
3.02557
3.02687
3.02784
3.02854
3.02905
3.02942
3.02973
3.03001
3.03003
3.03032
2.81829
2.82928
2.83518
2.8456
2.86059
2.87861
2.89743
2.91531
2.93136
2.94529
2.95718
2.96721
2.97561
2.98258
2.98833
2.99303
2.99684
2.99987
3.00221
3.00397
3.00523
3.00608
3.0066
3.00686
3.00695
3.00696
3.00703
3.0072
3.00744
3.00863
2.79995
2.81113
2.81741
2.82851
2.84419
2.8627
2.88175
2.89966
2.91557
2.92928
2.94089
2.95062
2.95868
2.96531
2.97069
2.97502
2.97843
2.98104
2.98296
2.98427
2.98506
2.98542
2.98542
2.98515
2.98468
2.98416
2.98375
2.98363
2.98426
2.98724
2.78197
2.79332
2.8
2.81183
2.82822
2.84721
2.86648
2.88438
2.90015
2.91363
2.92496
2.93436
2.94208
2.94835
2.95336
2.9573
2.9603
2.96249
2.96396
2.96479
2.96509
2.96492
2.96435
2.96344
2.96226
2.96091
2.9595
2.95819
2.95801
2.96202
3.66663
3.73179
3.79648
3.86228
3.92924
3.9964
4.06344
4.12995
4.19595
4.26144
4.32655
4.39162
4.45699
4.52312
4.5903
4.65891
4.72929
4.80167
4.87621
4.95331
5.03244
5.11537
5.19803
5.2896
5.37137
5.47741
5.55212
5.67633
5.74465
5.88206
3.64631
3.71268
3.77783
3.84402
3.91131
3.97876
4.04613
4.11285
4.17899
4.24467
4.30988
4.37496
4.44033
4.50643
4.57357
4.64209
4.71238
4.78472
4.8592
4.93622
5.01531
5.09821
5.18083
5.27237
5.35415
5.46017
5.53486
5.65915
5.72744
5.86493
3.6254
3.69306
3.75867
3.82525
3.89292
3.96071
4.02838
4.09535
4.16167
4.2275
4.29281
4.35793
4.4233
4.48938
4.55648
4.62492
4.69513
4.76744
4.84186
4.91883
4.9979
5.08078
5.16339
5.25492
5.33673
5.44274
5.51745
5.64183
5.71011
5.84771
3.60393
3.67297
3.73902
3.80599
3.8741
3.94225
4.01019
4.07745
4.14399
4.20995
4.27537
4.34055
4.40593
4.47197
4.53903
4.60741
4.67758
4.74982
4.82421
4.90116
4.98022
5.06309
5.14571
5.23725
5.31909
5.42514
5.49987
5.62438
5.69265
5.83037
3.58194
3.6524
3.71889
3.78628
3.85486
3.92339
3.99159
4.05917
4.12594
4.19203
4.25757
4.32281
4.38821
4.45423
4.52124
4.58958
4.65971
4.73189
4.80626
4.8832
4.96226
5.04515
5.1278
5.21935
5.30125
5.40736
5.48213
5.60679
5.67506
5.81292
3.55948
3.63138
3.6983
3.76613
3.83519
3.90412
3.97262
4.04051
4.10753
4.17376
4.23943
4.30474
4.37016
4.43615
4.50313
4.57143
4.64152
4.71367
4.78803
4.86496
4.94404
5.02695
5.10965
5.20124
5.28321
5.38941
5.46422
5.58907
5.65734
5.79535
3.53656
3.60993
3.67727
3.74557
3.81511
3.88445
3.95329
4.0215
4.08877
4.15516
4.22096
4.28635
4.35178
4.41776
4.48471
4.55298
4.62304
4.69515
4.76951
4.84645
4.92555
5.0085
5.09126
5.18291
5.26497
5.37128
5.44614
5.57119
5.63948
5.77765
3.51321
3.58807
3.6558
3.7246
3.79464
3.86441
3.93361
4.00213
4.06967
4.13624
4.20216
4.26763
4.3331
4.39907
4.46599
4.53424
4.60428
4.67636
4.75072
4.82768
4.90681
4.98981
5.07265
5.16436
5.24652
5.35297
5.4279
5.55318
5.6215
5.75983
3.48948
3.56581
3.63393
3.70324
3.77379
3.844
3.91358
3.98244
4.05025
4.11701
4.18307
4.24862
4.31411
4.38008
4.44699
4.51521
4.58523
4.6573
4.73166
4.80865
4.88782
4.97088
5.05381
5.14561
5.22788
5.33448
5.40949
5.53502
5.60338
5.74189
3.4654
3.5432
3.61167
3.68151
3.75258
3.82325
3.89323
3.96242
4.03053
4.09748
4.16368
4.22932
4.29485
4.36082
4.42771
4.49591
4.56592
4.63797
4.71235
4.78938
4.86859
4.95172
5.03474
5.12665
5.20904
5.31582
5.39092
5.51672
5.58513
5.72383
3.44099
3.52023
3.58904
3.65942
3.73103
3.80216
3.87257
3.94211
4.01051
4.07767
4.14401
4.20974
4.27531
4.34129
4.40816
4.47634
4.54634
4.61839
4.69278
4.76986
4.84913
4.93233
5.01546
5.10748
5.19001
5.29698
5.37218
5.49827
5.56675
5.70564
3.4163
3.49693
3.56607
3.637
3.70915
3.78077
3.85161
3.92152
3.99022
4.0576
4.12409
4.18992
4.25552
4.3215
4.38837
4.45653
4.52652
4.59857
4.67298
4.7501
4.82944
4.91272
4.99596
5.08811
5.17078
5.27796
5.35327
5.47969
5.54823
5.68733
3.39137
3.47333
3.54278
3.61426
3.68695
3.75907
3.83037
3.90065
3.96968
4.03729
4.10393
4.16985
4.23549
4.30148
4.36833
4.43647
4.50645
4.57852
4.65294
4.73012
4.80952
4.89289
4.97625
5.06854
5.15137
5.25877
5.33421
5.46096
5.52959
5.6689
3.36624
3.44943
3.51919
3.59121
3.66446
3.73709
3.80887
3.87954
3.94889
4.01674
4.08354
4.14955
4.21523
4.28123
4.34807
4.41619
4.48616
4.55825
4.63269
4.70991
4.78939
4.87285
4.95635
5.04878
5.13178
5.23941
5.31498
5.4421
5.51082
5.65035
3.34095
3.42526
3.49534
3.56789
3.64168
3.71484
3.78712
3.8582
3.92788
3.99598
4.06293
4.12905
4.19477
4.26076
4.3276
4.3957
4.46566
4.53776
4.61222
4.6895
4.76905
4.85261
4.93624
5.02883
5.112
5.21989
5.2956
5.42311
5.49193
5.6317
3.31553
3.40082
3.47123
3.54431
3.61865
3.69235
3.76514
3.83664
3.90666
3.97502
4.04213
4.10835
4.17411
4.2401
4.30692
4.37501
4.44495
4.51707
4.59156
4.66888
4.74852
4.83217
4.91595
5.00869
5.09205
5.20021
5.27607
5.40399
5.47293
5.61293
3.29004
3.37614
3.4469
3.52048
3.59537
3.66963
3.74294
3.81488
3.88525
3.95388
4.02115
4.08747
4.15327
4.21926
4.28606
4.35413
4.42405
4.49618
4.5707
4.64808
4.7278
4.81155
4.89546
4.98837
5.07192
5.18037
5.2564
5.38474
5.45382
5.59406
3.26452
3.35124
3.42236
3.49644
3.57186
3.64669
3.72055
3.79294
3.86366
3.93256
4.00001
4.06642
4.13227
4.19824
4.26502
4.33308
4.40298
4.47512
4.54966
4.62709
4.70689
4.79074
4.8748
4.96787
5.05162
5.16038
5.23657
5.36536
5.43462
5.5751
3.23901
3.32612
3.39764
3.47219
3.54815
3.62357
3.69798
3.77083
3.84192
3.9111
3.97872
4.04523
4.11111
4.17707
4.24383
4.31187
4.38174
4.45389
4.52845
4.60592
4.68581
4.76976
4.85395
4.94721
5.03116
5.14023
5.21661
5.34587
5.41532
5.55606
3.21357
3.30081
3.37274
3.44776
3.52425
3.60027
3.67525
3.74857
3.82003
3.88951
3.9573
4.0239
4.08982
4.15577
4.2225
4.29052
4.36036
4.4325
4.50709
4.5846
4.66456
4.7486
4.83294
4.92637
5.01053
5.11994
5.19652
5.32625
5.39594
5.53694
3.18823
3.27532
3.34769
3.42318
3.50019
3.57682
3.65237
3.72619
3.79803
3.8678
3.93577
4.00246
4.06842
4.13435
4.20104
4.26903
4.33884
4.41096
4.48557
4.56311
4.64315
4.72729
4.81176
4.90538
4.98974
5.0995
5.17629
5.30653
5.37649
5.51776
3.16307
3.24968
3.32251
3.39847
3.47599
3.55323
3.62938
3.70369
3.77592
3.846
3.91415
3.98091
4.04691
4.11283
4.17947
4.24742
4.3172
4.3893
4.46392
4.54149
4.62159
4.70582
4.79042
4.88423
4.9688
5.07891
5.15595
5.28669
5.35699
5.49853
3.13815
3.2239
3.29721
3.37364
3.45167
3.52952
3.60626
3.68109
3.75371
3.8241
3.89243
3.95929
4.02531
4.09122
4.15781
4.22571
4.29545
4.36752
4.44214
4.51973
4.59988
4.6842
4.76894
4.86293
4.94771
5.05819
5.13548
5.26676
5.33744
5.47927
3.11353
3.19798
3.27177
3.34866
3.42721
3.50567
3.58302
3.65838
3.73141
3.80211
3.87063
3.93758
4.00363
4.06952
4.13606
4.2039
4.27359
4.34562
4.42023
4.49784
4.57803
4.66243
4.7473
4.84149
4.92648
5.03733
5.11489
5.24671
5.31788
5.45999
3.08928
3.17198
3.24624
3.32359
3.40267
3.48173
3.55969
3.63559
3.70903
3.78004
3.84877
3.91581
3.98189
4.04775
4.11424
4.18201
4.25165
4.32362
4.39822
4.47583
4.55606
4.64054
4.72553
4.81991
4.90511
5.01633
5.09419
5.22657
5.29831
5.44072
3.06559
3.14621
3.22096
3.29876
3.37832
3.45796
3.5365
3.61292
3.68677
3.75808
3.82699
3.89411
3.9602
4.02602
4.09244
4.16013
4.22969
4.3016
4.37616
4.45376
4.53402
4.61856
4.70367
4.79822
4.88363
4.99522
5.07341
5.20634
5.27876
5.42147
3.04279
3.12097
3.19612
3.27434
3.35435
3.43453
3.51361
3.59052
3.66475
3.73633
3.8054
3.87259
3.93866
4.00442
4.07074
4.13833
4.20779
4.27962
4.35412
4.43169
4.51196
4.59655
4.68175
4.77647
4.86208
4.97403
5.05254
5.18603
5.25926
5.40228
3.02087
3.09515
3.17036
3.24895
3.32943
3.41023
3.48989
3.56735
3.64205
3.71396
3.78326
3.85057
3.91667
3.98241
4.04865
4.11616
4.18555
4.25731
4.33176
4.40932
4.4896
4.57425
4.65957
4.75447
4.84029
4.9526
5.03147
5.16554
5.2398
5.38315
2.99885
3.06679
3.14148
3.2204
3.30144
3.38303
3.46349
3.5417
3.61708
3.68954
3.75926
3.82686
3.89313
3.95898
4.02527
4.09279
4.16218
4.23395
4.30842
4.38602
4.46637
4.55114
4.63662
4.73176
4.81786
4.93061
5.00994
5.14466
5.22021
5.36404
2.97806
3.04129
3.11508
3.19435
3.2759
3.35818
3.43938
3.51823
3.59416
3.66704
3.73705
3.80483
3.87116
3.937
4.00323
4.07067
4.13996
4.21164
4.28603
4.36358
4.44393
4.52872
4.61433
4.70959
4.79601
4.90898
4.9889
5.12398
5.20099
5.34537
2.92576
2.99028
3.06223
3.14277
3.22581
3.30977
3.39229
3.47202
3.54846
3.6214
3.69109
3.75817
3.82355
3.88827
3.95333
4.0196
4.08778
4.15844
4.23193
4.30865
4.38836
4.47252
4.55788
4.65261
4.73941
4.85183
4.93294
5.06766
5.14831
5.29317
2.83611
2.90104
2.97179
3.0527
3.1372
3.22339
3.3083
3.39003
3.46792
3.54164
3.61137
3.67785
3.74214
3.80547
3.86903
3.93383
4.00067
4.07015
4.14264
4.2185
4.29754
4.38104
4.46611
4.56024
4.64729
4.75911
4.84118
4.97573
5.058
5.2026
2.74888
2.81151
2.88039
2.96074
3.04583
3.1333
3.21992
3.30334
3.38259
3.45721
3.52724
3.59343
3.6569
3.71905
3.78125
3.84465
3.91017
3.97847
4.04994
4.12498
4.2034
4.2864
4.37127
4.46508
4.55249
4.66405
4.74727
4.8818
4.96578
5.10981
2.66096
2.72085
2.78787
2.86751
2.95251
3.04053
3.12833
3.21316
3.29375
3.36941
3.44004
3.50625
3.56923
3.63045
3.69143
3.75351
3.81772
3.88481
3.95524
4.02941
4.10716
4.18964
4.27429
4.36792
4.45572
4.5674
4.65127
4.78582
4.87079
5.01471
2.57308
2.63006
2.69456
2.7726
2.85677
2.94467
3.03312
3.11908
3.20095
3.27778
3.34925
3.41582
3.47863
3.53919
3.59916
3.66002
3.72295
3.78882
3.85816
3.93142
4.00846
4.09039
4.17474
4.26815
4.3561
4.4678
4.55241
4.68715
4.7729
4.9171
2.48412
2.53822
2.59998
2.67606
2.75897
2.84624
2.93484
3.02159
3.10457
3.18258
3.25504
3.32222
3.38512
3.44527
3.50438
3.56411
3.62579
3.69041
3.75862
3.8309
3.90717
3.9885
4.0725
4.16566
4.25374
4.36559
4.45073
4.58602
4.67241
4.81745
2.39393
2.44527
2.50415
2.57787
2.65902
2.74517
2.83347
2.92064
3.00454
3.08369
3.15726
3.22525
3.28851
3.34847
3.40692
3.46561
3.52607
3.58942
3.65643
3.72764
3.8031
3.88376
3.96738
4.06023
4.14842
4.26047
4.34607
4.4823
4.5693
4.71576
2.30226
2.35096
2.40689
2.47798
2.55701
2.64162
2.72916
2.81638
2.90093
2.98112
3.05585
3.12481
3.18863
3.24864
3.3066
3.36438
3.42364
3.4857
3.55145
3.62156
3.69604
3.77596
3.85914
3.95165
4.03993
4.15219
4.23824
4.37575
4.46333
4.61197
2.20909
2.25519
2.30815
2.37641
2.45299
2.53565
2.622
2.70885
2.79377
2.87483
2.95068
3.02072
3.0853
3.14557
3.20324
3.26022
3.31834
3.37908
3.44348
3.51233
3.58579
3.66487
3.74754
3.83965
3.92802
4.04047
4.127
4.26604
4.35422
4.50577
2.11439
2.15793
2.20789
2.27316
2.34702
2.42736
2.51209
2.59817
2.68308
2.76478
2.84166
2.91283
2.97833
3.03907
3.09663
3.15296
3.21
3.26939
3.33236
3.39986
3.47215
3.55028
3.63233
3.72396
3.81239
3.925
4.0121
4.15275
4.24161
4.3967
2.01816
2.0592
2.10615
2.16829
2.23918
2.31685
2.39956
2.48441
2.56892
2.65095
2.72869
2.80098
2.8675
2.92889
2.98656
3.04239
3.09842
3.15647
3.21794
3.28395
3.35492
3.43195
3.51326
3.60431
3.69274
3.80541
3.89318
4.03547
4.12508
4.2842
1.92045
1.95902
2.00295
2.06185
2.12956
2.20426
2.28453
2.3677
2.45136
2.53336
2.61172
2.68501
2.7526
2.81479
2.87275
2.92827
2.98339
3.0401
3.10001
3.16441
3.2339
3.30966
3.39005
3.48039
3.56873
3.68135
3.76982
3.91366
4.00414
4.16757
1.82135
1.85745
1.89837
1.95394
2.01827
2.0897
2.16714
2.24817
2.33051
2.41203
2.49067
2.56478
2.63342
2.69651
2.75494
2.81032
2.86467
2.92009
2.97837
3.04103
3.10885
3.18314
3.26242
3.35189
3.43998
3.55242
3.64157
3.7868
3.87824
4.04597
1.72089
1.75456
1.7925
1.84465
1.90545
1.97334
2.04757
2.126
2.2065
2.28705
2.36555
2.44019
2.50974
2.57378
2.63283
2.68825
2.74199
2.79618
2.85282
2.91361
2.97957
3.05216
3.13009
3.21847
3.30613
3.4182
3.50796
3.6543
3.74682
3.91854
1.61918
1.65043
1.68542
1.73409
1.79121
1.85534
1.92601
2.00139
2.07952
2.15853
2.23638
2.31116
2.3814
2.44633
2.5061
2.56175
2.61503
2.66811
2.72309
2.78191
2.84581
2.91646
2.99277
3.07979
3.16677
3.27823
3.36847
3.51561
3.60925
3.78446
1.51623
1.54514
1.57722
1.62239
1.67573
1.73588
1.80267
1.87454
1.94977
2.02664
2.10326
2.17768
2.24827
2.31393
2.37442
2.43042
2.48344
2.53553
2.5889
2.64568
2.70734
2.77576
2.85013
2.93549
3.0215
3.13205
3.22258
3.37014
3.46489
3.64293
1.41223
1.43879
1.46802
1.50968
1.55916
1.61518
1.67779
1.74573
1.81751
1.89163
1.96637
2.03982
2.11026
2.17636
2.23749
2.29391
2.34682
2.39809
2.44993
2.50461
2.56386
2.62978
2.70188
2.78519
2.86988
2.97917
3.06973
3.2173
3.31304
3.49319
1.30704
1.33145
1.35794
1.3961
1.44167
1.49342
1.55161
1.61524
1.68305
1.75379
1.82593
1.89772
1.9674
2.03348
2.09501
2.15183
2.20475
2.25535
2.30578
2.35837
2.41506
2.47822
2.54767
2.62851
2.71148
2.81908
2.90935
3.05643
3.153
3.33451
1.20096
1.22327
1.24711
1.28181
1.32344
1.37082
1.42437
1.48335
1.54673
1.61346
1.68228
1.75162
1.81979
1.88524
1.94676
2.00382
2.05677
2.10684
2.15598
2.20652
2.26058
2.32074
2.38716
2.46508
2.54582
2.65122
2.74083
2.88687
2.98406
3.16609
1.09417
1.11436
1.13564
1.16693
1.20462
1.24759
1.29635
1.3504
1.4089
1.47105
1.53581
1.60186
1.66767
1.7317
1.79263
1.84956
1.90242
1.95201
2
2.04858
2.09998
2.15693
2.21997
2.29444
2.37242
2.47501
2.56352
2.70785
2.8054
2.98708
0.986663
1.00481
1.02365
1.0516
1.0854
1.12393
1.16781
1.2167
1.26995
1.32698
1.38698
1.4489
1.51142
1.57313
1.63263
1.68885
1.7413
1.79035
1.83725
1.88398
1.93271
1.98631
2.04563
2.11616
2.19075
2.28984
2.37667
2.51854
2.61615
2.79648
0.878499
0.894696
0.911219
0.935934
0.965905
1.00004
1.03898
1.08254
1.13025
1.1817
1.23632
1.29329
1.35156
1.40989
1.46699
1.52166
1.57313
1.62136
1.66711
1.71202
1.75812
1.80829
1.86362
1.92971
2.00023
2.095
2.17946
2.31798
2.41527
2.59308
0.769708
0.784054
0.798441
0.820059
0.846293
0.876079
0.910063
0.948205
0.990163
1.03568
1.08437
1.13565
1.18872
1.24259
1.29613
1.3482
1.39784
1.44466
1.48896
1.53198
1.57545
1.62214
1.67327
1.73445
1.80021
1.88974
1.97093
2.105
2.20152
2.37533
0.660322
0.67294
0.68541
0.704096
0.726692
0.752196
0.781252
0.813935
0.850017
0.889338
0.931667
0.976612
1.02363
1.07199
1.12077
1.16898
1.21563
1.26011
1.30236
1.34317
1.38388
1.42697
1.47373
1.52963
1.58993
1.67316
1.74994
1.87816
1.9733
2.14128
0.550324
0.561405
0.572265
0.588197
0.60724
0.628534
0.652719
0.679956
0.710099
0.74306
0.778719
0.816848
0.857101
0.898984
0.94183
0.984823
1.02707
1.06796
1.10716
1.14506
1.18258
1.22185
1.26403
1.31429
1.36848
1.44421
1.51515
1.63562
1.72845
1.88833
0.439732
0.449547
0.459231
0.472604
0.488153
0.505297
0.524676
0.546505
0.570703
0.597229
0.626038
0.65702
0.689972
0.72459
0.760452
0.796965
0.833251
0.868964
0.903716
0.937588
0.971114
1.00599
1.04314
1.08733
1.13478
1.20169
1.26495
1.37503
1.46405
1.61313
0.329057
0.337789
0.346737
0.357754
0.369847
0.382888
0.397517
0.413991
0.432293
0.452407
0.474307
0.497936
0.523213
0.55002
0.578171
0.607267
0.635809
0.664665
0.693308
0.721679
0.749933
0.77933
0.810572
0.847908
0.887797
0.944292
0.997566
1.09348
1.17557
1.30977
0.220958
0.228203
0.236308
0.245034
0.253704
0.262665
0.272597
0.283799
0.296295
0.310062
0.325078
0.341298
0.358684
0.377241
0.397068
0.418789
0.43762
0.45816
0.479124
0.500335
0.52171
0.544149
0.568022
0.59695
0.627854
0.671865
0.712775
0.790016
0.861375
0.975651
0.122226
0.126732
0.132678
0.138606
0.1438
0.148751
0.154108
0.160182
0.167023
0.174597
0.18286
0.191761
0.201222
0.211074
0.22093
0.229856
0.243314
0.2559
0.268546
0.281467
0.294535
0.308319
0.323004
0.340723
0.359652
0.38727
0.410949
0.462048
0.510594
0.596742
0.0383435
0.038975
0.0409769
0.0430819
0.0447253
0.0460846
0.0474783
0.0490751
0.0509065
0.0529542
0.0551804
0.0575408
0.0599875
0.0623843
0.064331
0.0644964
0.0678195
0.0725983
0.0768119
0.0813267
0.0858019
0.0904645
0.0952147
0.100815
0.106745
0.116006
0.123532
0.141164
0.154443
0.191763
2.87228
2.7765
2.69386
2.60726
2.52134
2.43383
2.34511
2.25483
2.1631
2.06988
1.97519
1.87909
1.7817
1.68302
1.58325
1.48221
1.38003
1.2768
1.17259
1.06816
0.962879
0.856962
0.750475
0.643501
0.536133
0.428583
0.321556
0.217115
0.120386
0.0393787
2.85075
2.75473
2.67365
2.5877
2.50252
2.41564
2.32753
2.23786
2.14676
2.05416
1.96011
1.86466
1.76794
1.66996
1.57094
1.47058
1.36909
1.26641
1.16314
1.05945
0.95494
0.849797
0.744095
0.637914
0.531361
0.424658
0.318548
0.215092
0.119218
0.0394303
2.82966
2.73423
2.65453
2.56933
2.48488
2.39866
2.31118
2.22212
2.13165
2.03967
1.94624
1.85145
1.75539
1.65812
1.5598
1.4601
1.35905
1.2572
1.15473
1.05171
0.947905
0.84347
0.738478
0.63301
0.527187
0.421248
0.31594
0.213273
0.118066
0.0393147
2.8084
2.71411
2.6356
2.55123
2.46749
2.38194
2.29508
2.20664
2.11679
2.02543
1.93263
1.83849
1.74311
1.64655
1.54886
1.44983
1.34909
1.24825
1.1465
1.04415
0.941035
0.837289
0.732989
0.628214
0.523094
0.417881
0.31333
0.211444
0.117007
0.0392037
2.7874
2.69462
2.61716
2.53364
2.45058
2.36569
2.27945
2.19161
2.10238
2.01162
1.91943
1.82594
1.73124
1.63531
1.53828
1.43949
1.33974
1.2396
1.13855
1.03684
0.934393
0.831306
0.727672
0.623568
0.519125
0.41461
0.310783
0.209651
0.116008
0.0390909
2.76675
2.67571
2.59916
2.51651
2.4341
2.34987
2.26424
2.17697
2.08836
1.99819
1.90661
1.81377
1.71966
1.62435
1.52764
1.42965
1.33069
1.2312
1.13081
1.02972
0.927926
0.825478
0.722488
0.619039
0.515251
0.411407
0.30828
0.20789
0.115052
0.0389611
2.74655
2.6574
2.58164
2.49987
2.41809
2.33452
2.24945
2.16278
2.07478
1.98516
1.8942
1.80194
1.70841
1.61349
1.51739
1.42017
1.32192
1.22305
1.1233
1.02283
0.921648
0.81982
0.717453
0.614636
0.51148
0.408281
0.305828
0.206162
0.114128
0.0388271
2.72686
2.63969
2.56463
2.48372
2.40255
2.31964
2.2351
2.14905
2.06164
1.97255
1.88217
1.79043
1.69728
1.60296
1.50756
1.41101
1.31343
1.21515
1.11602
1.01614
0.915557
0.81433
0.712564
0.610354
0.507805
0.405225
0.303423
0.204466
0.11323
0.0386757
2.70775
2.62257
2.54814
2.46809
2.3875
2.30524
2.22124
2.13578
2.04891
1.96037
1.8705
1.77898
1.68652
1.59289
1.49809
1.40216
1.30521
1.20751
1.10897
1.00966
0.909654
0.809008
0.707817
0.606189
0.504223
0.402236
0.301065
0.202801
0.112348
0.0381988
2.68926
2.60605
2.5322
2.45296
2.37298
2.29132
2.20787
2.12293
2.03661
1.94863
1.85872
1.76809
1.67625
1.58319
1.48896
1.39361
1.29727
1.20012
1.10215
1.00339
0.903941
0.803854
0.703214
0.602139
0.500733
0.399316
0.298755
0.201169
0.111482
0.0379807
2.67143
2.59012
2.51687
2.43835
2.359
2.27785
2.195
2.11043
2.02474
1.93668
1.84772
1.75766
1.66637
1.57385
1.48017
1.38538
1.2896
1.193
1.09556
0.997341
0.898422
0.798869
0.698755
0.598207
0.497339
0.39647
0.296495
0.19957
0.110629
0.0377786
2.65436
2.57475
2.50218
2.42425
2.34555
2.26481
2.18263
2.09801
2.0129
1.9256
1.8372
1.74766
1.65687
1.56487
1.47172
1.37746
1.28222
1.18613
1.08921
0.991511
0.893101
0.794057
0.694448
0.594401
0.494047
0.393702
0.29429
0.198004
0.10979
0.0375508
2.63819
2.55989
2.48813
2.41063
2.3326
2.25214
2.17005
2.08638
2.00168
1.915
1.8271
1.73805
1.64775
1.55625
1.4636
1.36985
1.27512
1.17953
1.08311
0.985906
0.887983
0.789424
0.690297
0.590728
0.490863
0.391016
0.29214
0.196472
0.108965
0.0373118
2.62303
2.54546
2.47475
2.39745
2.31945
2.23991
2.15837
2.0753
1.99097
1.90485
1.81743
1.72884
1.63901
1.54799
1.45582
1.36256
1.26832
1.17321
1.07726
0.98053
0.883072
0.784974
0.686308
0.587192
0.487788
0.388414
0.290045
0.194972
0.108155
0.0370695
2.60895
2.53139
2.46115
2.38478
2.30732
2.22831
2.14724
2.0647
1.98074
1.89513
1.80818
1.72003
1.63066
1.54009
1.44838
1.35559
1.26181
1.16716
1.07166
0.975384
0.878371
0.780709
0.682481
0.583793
0.484821
0.385892
0.288005
0.193504
0.10736
0.0368237
2.59476
2.51834
2.44837
2.37284
2.29578
2.21727
2.13662
2.05458
1.97099
1.88586
1.79935
1.71163
1.62269
1.53256
1.44129
1.34894
1.25561
1.16139
1.06632
0.970471
0.87388
0.77663
0.678816
0.580531
0.481962
0.383451
0.28602
0.192069
0.106576
0.0365687
2.58097
2.50619
2.43624
2.36148
2.28481
2.20677
2.12651
2.04494
1.96171
1.87703
1.79094
1.70363
1.6151
1.52539
1.43454
1.34262
1.2497
1.1559
1.06123
0.965788
0.869599
0.772736
0.675311
0.577404
0.479208
0.381089
0.284092
0.190668
0.105802
0.0363071
2.56787
2.49472
2.42477
2.3507
2.27438
2.1968
2.11691
2.03577
1.9529
1.86864
1.78295
1.69604
1.60791
1.5186
1.42814
1.33662
1.2441
1.15069
1.05641
0.961338
0.865526
0.769029
0.671966
0.574411
0.476562
0.378807
0.282222
0.189301
0.105039
0.0360358
2.55556
2.48384
2.41394
2.34049
2.2645
2.18736
2.10781
2.02709
1.94457
1.86071
1.7754
1.68887
1.6011
1.51217
1.42209
1.33095
1.2388
1.14576
1.05184
0.957121
0.861664
0.76551
0.668781
0.571555
0.474024
0.376609
0.280413
0.187971
0.10429
0.0357571
2.54405
2.47354
2.40376
2.33085
2.25517
2.17845
2.09923
2.0189
1.93671
1.85323
1.76828
1.6821
1.59469
1.50612
1.41639
1.3256
1.23381
1.14111
1.04753
0.953141
0.858015
0.76218
0.665759
0.568834
0.471596
0.374494
0.278663
0.186677
0.103555
0.0354776
2.53334
2.46384
2.39421
2.32178
2.24639
2.17008
2.09115
2.0112
1.92933
1.8462
1.76159
1.67576
1.58868
1.50044
1.41104
1.32059
1.22913
1.13675
1.04348
0.949401
0.854582
0.759042
0.662902
0.566252
0.469282
0.372465
0.276975
0.185419
0.102835
0.0352002
2.52342
2.45475
2.38529
2.3133
2.23817
2.16224
2.08359
2.004
1.92242
1.83964
1.75535
1.66983
1.58306
1.49514
1.40606
1.31592
1.22476
1.13267
1.0397
0.945906
0.851367
0.756098
0.660211
0.563811
0.467082
0.370521
0.275345
0.184196
0.102128
0.034924
2.51428
2.44627
2.377
2.30539
2.23051
2.15494
2.07655
1.99729
1.916
1.83354
1.74954
1.66432
1.57784
1.49021
1.40143
1.31158
1.22071
1.12889
1.03619
0.942656
0.848372
0.753348
0.657689
0.56151
0.464995
0.368663
0.273773
0.183005
0.101433
0.0346487
2.5059
2.43842
2.36934
2.29807
2.2234
2.14818
2.07002
1.99108
1.91006
1.82789
1.74417
1.65924
1.57303
1.48567
1.39716
1.30757
1.21697
1.1254
1.03295
0.939654
0.845598
0.750794
0.655336
0.55935
0.463023
0.366889
0.272255
0.181845
0.10075
0.0343744
2.49827
2.43119
2.36229
2.29132
2.21686
2.14195
2.06401
1.98537
1.90459
1.8227
1.73924
1.65457
1.56861
1.48151
1.39325
1.30391
1.21355
1.12221
1.02999
0.936899
0.843043
0.748433
0.653153
0.557332
0.461164
0.3652
0.270792
0.180716
0.100079
0.0341016
2.49139
2.42459
2.35587
2.28516
2.21087
2.13627
2.05852
1.98016
1.8996
1.81797
1.73474
1.65032
1.5646
1.47773
1.3897
1.30058
1.21044
1.11931
1.02729
0.934389
0.840708
0.746267
0.65114
0.555457
0.459421
0.363595
0.269384
0.179617
0.0994203
0.0338311
2.48523
2.41863
2.35006
2.27957
2.20544
2.13111
2.05353
1.97544
1.89508
1.81369
1.73069
1.64649
1.56099
1.47433
1.38651
1.29759
1.20764
1.11671
1.02485
0.932124
0.838593
0.744297
0.649299
0.553727
0.457795
0.362078
0.268033
0.178551
0.0987749
0.033563
2.47979
2.41329
2.34487
2.27456
2.20056
2.1265
2.04906
1.97121
1.89104
1.80987
1.72707
1.64307
1.55777
1.4713
1.38367
1.29494
1.20517
1.11439
1.02269
0.930101
0.836698
0.742523
0.647632
0.552146
0.456288
0.360651
0.266742
0.177519
0.0981438
0.0332986
2.47506
2.40859
2.34028
2.27012
2.19624
2.1224
2.0451
1.96747
1.88746
1.8065
1.72388
1.64007
1.55495
1.46866
1.38119
1.29262
1.203
1.11237
1.02079
0.928322
0.835025
0.740949
0.646142
0.550716
0.454905
0.359318
0.265513
0.176523
0.0975284
0.0330385
2.47103
2.4045
2.3363
2.26624
2.19246
2.11883
2.04165
1.96421
1.88436
1.80358
1.72113
1.63749
1.55253
1.46638
1.37906
1.29063
1.20113
1.11062
1.01916
0.926784
0.833573
0.739574
0.644828
0.54944
0.453649
0.358083
0.264351
0.175564
0.0969299
0.0327841
2.46767
2.40103
2.33292
2.26293
2.18923
2.11578
2.03869
1.96144
1.88172
1.8011
1.7188
1.63531
1.55049
1.46447
1.37728
1.28896
1.19958
1.10916
1.01778
0.925488
0.832343
0.7384
0.643694
0.548319
0.452522
0.356948
0.263257
0.174644
0.0963496
0.0325371
2.46499
2.39817
2.33012
2.26017
2.18654
2.11324
2.03623
1.95914
1.87954
1.79907
1.7169
1.63354