/*--------------------------------*- C++ -*----------------------------------*\
  =========                 |
  \\      /  F ield         | OpenFOAM: The Open Source CFD Toolbox
   \\    /   O peration     | Website:  https://openfoam.org
    \\  /    A nd           | Version:  7
     \\/     M anipulation  |
\*---------------------------------------------------------------------------*/
FoamFile
{
    version     2.0;
    format      ascii;
    class       volVectorField;
    location    "0.7";
    object      U;
}
// * * * * * * * * * * * * * * * * * * * * * * * * * * * * * * * * * * * * * //

dimensions      [0 1 -1 0 0 0 0];

internalField   nonuniform List<vector> 
18000
(
(-0.0027525 0.0909885 3.821e-20)
(-0.00340343 0.122825 0)
(0.00408119 0.0700768 0)
(0.02076 -0.019225 0)
(0.0450229 -0.11462 -1.26828e-20)
(0.0743519 -0.199772 6.41301e-20)
(0.106172 -0.267763 -1.3057e-20)
(0.13834 -0.317357 1.31457e-20)
(0.169339 -0.350323 0)
(0.19826 -0.369687 -4.00036e-20)
(0.22468 -0.378682 -1.34287e-20)
(0.248511 -0.380215 0)
(0.269859 -0.376664 2.68662e-20)
(0.288937 -0.36985 2.70029e-20)
(0.305999 -0.361098 -5.39039e-20)
(0.3213 -0.351338 -5.37819e-20)
(0.335071 -0.341192 0)
(0.347519 -0.331069 -8.01788e-20)
(0.358824 -0.321219 2.65923e-20)
(0.369135 -0.311784 -7.93438e-20)
(0.378576 -0.302841 2.62853e-20)
(0.387252 -0.294416 0)
(0.395251 -0.286511 -2.57999e-20)
(0.402648 -0.279106 -2.57399e-20)
(0.409507 -0.272175 0)
(0.415883 -0.265685 0)
(0.421818 -0.259605 -5.02027e-20)
(0.427357 -0.2539 -4.97844e-20)
(0.432576 -0.248538 -4.95584e-20)
(0.437259 -0.243459 5.01319e-20)
(-0.0047619 0.0912995 5.40855e-20)
(-0.00491556 0.120929 9.44516e-20)
(0.0058568 0.0645339 -9.67367e-20)
(0.0267504 -0.0287753 -9.87222e-20)
(0.0551635 -0.12772 -2.52267e-20)
(0.0879651 -0.215489 7.62715e-20)
(0.122313 -0.285026 -1.03392e-19)
(0.156039 -0.335195 -1.04564e-19)
(0.187747 -0.367989 1.0553e-19)
(0.216712 -0.386681 1.06309e-19)
(0.242699 -0.394722 -5.33936e-20)
(0.265785 -0.395186 -1.0719e-19)
(0.28621 -0.390558 -5.39527e-20)
(0.304286 -0.382722 1.07389e-19)
(0.320334 -0.373034 -1.07218e-19)
(0.334651 -0.362431 1.07347e-19)
(0.347495 -0.351539 -2.13772e-19)
(0.359085 -0.340753 1.59744e-19)
(0.369604 -0.330315 -1.05718e-19)
(0.379203 -0.320357 5.28287e-20)
(0.388003 -0.310945 -1.04484e-19)
(0.396102 -0.302098 0)
(0.403583 -0.29381 5.21888e-20)
(0.410517 -0.286055 -1.02438e-19)
(0.41696 -0.278802 1.01507e-19)
(0.42296 -0.272017 0)
(0.428561 -0.265663 -4.96686e-20)
(0.433798 -0.259703 4.93881e-20)
(0.438747 -0.254103 1.9652e-19)
(0.443108 -0.248794 9.96089e-20)
(-0.00679334 0.0912411 -8.6866e-20)
(-0.00632257 0.118437 -9.4449e-20)
(0.00800809 0.058361 1.45007e-19)
(0.0334137 -0.0388542 2.45895e-19)
(0.066222 -0.14114 0)
(0.10264 -0.231253 -1.0202e-19)
(0.139554 -0.302042 1.03388e-19)
(0.1748 -0.352514 3.12565e-19)
(0.207131 -0.384913 -1.05526e-19)
(0.236029 -0.402778 -1.06282e-19)
(0.261471 -0.409773 3.19389e-19)
(0.28371 -0.409126 1.07186e-19)
(0.303127 -0.403419 0)
(0.320129 -0.394588 -2.14672e-19)
(0.335106 -0.38401 3.20384e-19)
(0.348397 -0.372624 -1.0637e-19)
(0.36028 -0.361046 1.06678e-19)
(0.370985 -0.349662 1.06107e-19)
(0.3807 -0.338699 4.05249e-22)
(0.389571 -0.328277 0)
(0.397715 -0.318452 3.13168e-19)
(0.405225 -0.309234 -2.06793e-19)
(0.412179 -0.300608 1.03059e-19)
(0.418639 -0.292546 0)
(0.424656 -0.285011 -1.01506e-19)
(0.430274 -0.277964 4.01397e-19)
(0.435531 -0.271365 -2.97733e-19)
(0.440459 -0.265178 -9.90321e-20)
(0.445129 -0.25936 9.70832e-20)
(0.449149 -0.253843 9.93541e-20)
(-0.00881002 0.0907222 0)
(-0.00754389 0.115116 4.68634e-20)
(0.0106289 0.0513483 6.19678e-23)
(0.040823 -0.0495934 -2.45276e-19)
(0.0782191 -0.154926 0)
(0.118341 -0.247042 -2.01801e-19)
(0.157817 -0.318749 0)
(0.19451 -0.369235 -3.11958e-19)
(0.227355 -0.401022 1.04439e-19)
(0.256069 -0.417909 -2.10326e-19)
(0.280854 -0.423772 -2.12552e-19)
(0.302149 -0.421983 -1.06553e-19)
(0.320476 -0.415209 1.06342e-19)
(0.336344 -0.405421 1.05835e-19)
(0.350205 -0.394007 -1.07166e-19)
(0.362436 -0.381901 -2.11608e-19)
(0.373335 -0.369706 2.11421e-19)
(0.38314 -0.35779 0)
(0.392038 -0.346366 0)
(0.400172 -0.33554 0)
(0.407652 -0.325357 0)
(0.414566 -0.315819 0)
(0.420986 -0.306903 0)
(0.426967 -0.298575 -2.02393e-19)
(0.432554 -0.290795 -2.01608e-19)
(0.437786 -0.283521 -7.88477e-22)
(0.442694 -0.276709 -1.98004e-19)
(0.447309 -0.270321 -9.32925e-22)
(0.451698 -0.26431 -1.96193e-19)
(0.455365 -0.258609 3.94989e-19)
(-0.010777 0.0898162 0)
(-0.00852029 0.11111 4.18147e-19)
(0.0137591 0.0436274 6.14344e-23)
(0.0489839 -0.0608862 -1.46113e-19)
(0.0911277 -0.168989 4.94154e-19)
(0.135007 -0.262769 3.02618e-19)
(0.17701 -0.33506 3.04994e-19)
(0.215056 -0.385279 0)
(0.248295 -0.41624 0)
(0.2767 -0.432012 3.15424e-19)
(0.300715 -0.436674 4.4224e-22)
(0.320973 -0.433728 -7.39594e-19)
(0.338139 -0.425906 6.34333e-19)
(0.352822 -0.415209 -2.12564e-19)
(0.365532 -0.403021 2.10326e-19)
(0.37668 -0.390264 2.11241e-19)
(0.386581 -0.377521 -2.09769e-19)
(0.395476 -0.365141 2.09992e-19)
(0.403552 -0.35332 4.16763e-19)
(0.410945 -0.34215 -2.07253e-19)
(0.417759 -0.331665 -4.11302e-19)
(0.424076 -0.321855 4.08524e-19)
(0.42996 -0.312694 -4.05585e-19)
(0.435459 -0.304142 2.02392e-19)
(0.440613 -0.296155 0)
(0.445456 -0.288687 0)
(0.450014 -0.281695 1.60874e-21)
(0.454315 -0.275135 -7.7947e-19)
(0.458423 -0.268955 3.85967e-19)
(0.46173 -0.263098 -3.93878e-19)
(-0.0126644 0.0885045 0)
(-0.00919274 0.106347 -3.71539e-19)
(0.017457 0.0351353 3.78351e-19)
(0.0579288 -0.0727505 0)
(0.104938 -0.183299 -7.8809e-19)
(0.15259 -0.278378 -1.00252e-19)
(0.197051 -0.350908 -2.03921e-19)
(0.236334 -0.400576 -1.02329e-19)
(0.269831 -0.430508 0)
(0.297798 -0.44504 -2.09064e-19)
(0.320932 -0.448445 2.09257e-19)
(0.340066 -0.444336 4.22027e-19)
(0.356009 -0.435502 -4.22766e-19)
(0.369465 -0.42395 0)
(0.380999 -0.411055 -4.22407e-19)
(0.39105 -0.397718 4.19172e-19)
(0.399945 -0.384499 4.20071e-19)
(0.40793 -0.371724 6.24883e-19)
(0.415184 -0.359569 -6.23523e-19)
(0.421838 -0.348114 8.24829e-19)
(0.427989 -0.337379 4.10629e-19)
(0.43371 -0.327348 -4.08522e-19)
(0.439058 -0.317986 8.08865e-19)
(0.444076 -0.309251 0)
(0.448798 -0.301094 3.97022e-19)
(0.453252 -0.293467 7.89118e-19)
(0.457459 -0.286323 -3.88824e-19)
(0.461446 -0.279618 3.89379e-19)
(0.465273 -0.273294 -7.45268e-22)
(0.468213 -0.267308 -3.92585e-19)
(-0.0144415 0.0868077 -4.23201e-20)
(-0.00950541 0.100865 0)
(0.021766 0.025921 -4.72723e-19)
(0.0676719 -0.0851279 9.61687e-20)
(0.119631 -0.197789 2.94795e-19)
(0.171037 -0.293793 9.92952e-20)
(0.217861 -0.366218 4.02124e-19)
(0.258242 -0.415059 0)
(0.291849 -0.443769 2.06411e-19)
(0.319244 -0.456953 2.06786e-19)
(0.341387 -0.459059 -2.0899e-19)
(0.359318 -0.4538 6.26291e-19)
(0.373986 -0.443994 0)
(0.386182 -0.43165 0)
(0.396524 -0.418121 6.27607e-19)
(0.405474 -0.404279 -1.04472e-18)
(0.413365 -0.390655 4.15471e-19)
(0.420444 -0.377552 -4.16028e-19)
(0.426882 -0.365127 -4.11629e-19)
(0.432803 -0.353443 -1.23178e-18)
(0.438295 -0.34251 -1.62864e-21)
(0.443425 -0.332304 4.0389e-19)
(0.448241 -0.322786 -8.04219e-19)
(0.452781 -0.313907 3.97855e-19)
(0.457072 -0.305616 -2.35945e-21)
(0.461139 -0.297863 -3.93754e-19)
(0.464998 -0.290599 3.90418e-19)
(0.468672 -0.283777 0)
(0.472218 -0.277333 3.81207e-19)
(0.474786 -0.271245 9.56925e-22)
(-0.0160796 0.0847348 -8.4131e-20)
(-0.00940502 0.0946766 9.15922e-20)
(0.0267317 0.0160099 -5.61448e-19)
(0.078234 -0.0979743 -2.85957e-19)
(0.135195 -0.212397 3.88313e-19)
(0.190301 -0.308944 -5.92577e-19)
(0.23936 -0.380919 -2.02072e-19)
(0.280678 -0.428666 -4.04478e-19)
(0.314237 -0.455979 4.08364e-19)
(0.340924 -0.467722 -8.25151e-19)
(0.361973 -0.468506 -4.13644e-19)
(0.378628 -0.462117 -2.32387e-21)
(0.391977 -0.451394 2.08859e-19)
(0.402893 -0.438326 -6.24132e-19)
(0.412036 -0.424238 -8.33283e-19)
(0.419887 -0.409965 5.93611e-22)
(0.426784 -0.396008 -1.73554e-21)
(0.432966 -0.382644 4.11364e-19)
(0.438599 -0.370008 4.11628e-19)
(0.443797 -0.35815 7.10357e-22)
(0.44864 -0.347069 -9.03767e-22)
(0.453185 -0.336734 3.99901e-19)
(0.457475 -0.3271 4.00939e-19)
(0.461539 -0.318115 -7.71619e-22)
(0.465403 -0.309726 -1.18161e-18)
(0.469086 -0.30188 7.78762e-19)
(0.472598 -0.294527 7.74473e-19)
(0.475964 -0.287616 -7.66083e-19)
(0.47923 -0.281076 -3.81209e-19)
(0.48142 -0.274912 -3.86795e-19)
(-0.0175519 0.0822992 -7.50502e-19)
(-0.00884068 0.087809 -9.10467e-20)
(0.0323993 0.00544243 4.67057e-19)
(0.0896365 -0.111233 3.81552e-19)
(0.151616 -0.227055 -3.88303e-19)
(0.210331 -0.323759 3.9437e-19)
(0.261467 -0.394944 -1.99795e-19)
(0.303545 -0.441344 6.05625e-19)
(0.336888 -0.4671 -4.08355e-19)
(0.362728 -0.477328 4.11407e-19)
(0.382585 -0.47678 2.06978e-19)
(0.397903 -0.469298 -2.08556e-19)
(0.4099 -0.457718 -1.24235e-18)
(0.419524 -0.444001 8.29985e-19)
(0.427471 -0.42943 4.15472e-19)
(0.434234 -0.414803 0)
(0.44015 -0.400582 0)
(0.445452 -0.38702 -4.05552e-21)
(0.450295 -0.374231 -4.06199e-19)
(0.454782 -0.362251 0)
(0.458986 -0.351069 0)
(0.462955 -0.340647 -4.01522e-19)
(0.466724 -0.330937 0)
(0.47032 -0.321883 -7.86099e-19)
(0.473761 -0.31343 0)
(0.477062 -0.305524 -3.88979e-19)
(0.480231 -0.298112 7.69561e-19)
(0.48329 -0.291141 -7.61225e-19)
(0.486279 -0.28453 0)
(0.488086 -0.278319 0)
(-0.0188329 0.079515 6.66879e-19)
(-0.00776303 0.0802935 0)
(0.0388134 -0.00573386 -9.27053e-20)
(0.101899 -0.124842 9.44605e-20)
(0.168878 -0.24169 -5.74588e-19)
(0.231076 -0.338162 7.83001e-22)
(0.284103 -0.408228 -1.97695e-19)
(0.326741 -0.453043 0)
(0.359694 -0.477103 0)
(0.384555 -0.485761 -2.04408e-19)
(0.403129 -0.483889 2.046e-19)
(0.417058 -0.47536 -4.12345e-19)
(0.427681 -0.462992 4.16246e-19)
(0.436012 -0.448703 0)
(0.442773 -0.433729 0)
(0.448465 -0.418819 0)
(0.453421 -0.404403 4.06666e-19)
(0.457862 -0.390703 -2.41638e-21)
(0.461932 -0.377815 4.08578e-19)
(0.465724 -0.365762 -8.04244e-19)
(0.469301 -0.354523 4.01137e-19)
(0.472704 -0.344055 -1.98752e-18)
(0.475961 -0.334305 1.65565e-21)
(0.479092 -0.325218 7.86104e-19)
(0.482114 -0.316735 -3.21569e-21)
(0.485037 -0.3088 7.6988e-19)
(0.487866 -0.301361 -7.61362e-19)
(0.490623 -0.294357 -7.57714e-19)
(0.493334 -0.287701 1.83326e-21)
(0.494753 -0.281471 -7.63301e-19)
(-0.0198985 0.0763989 -8.25837e-20)
(-0.00612472 0.0721675 0)
(0.0460165 -0.0174644 1.84281e-19)
(0.11504 -0.138732 -1.8777e-19)
(0.186961 -0.256224 1.7216e-18)
(0.252479 -0.352082 7.9238e-22)
(0.307184 -0.420711 -1.9652e-19)
(0.350171 -0.463723 1.99817e-19)
(0.382556 -0.48597 -1.00343e-18)
(0.406308 -0.493023 0)
(0.423517 -0.489848 0)
(0.436016 -0.480329 -4.06097e-19)
(0.445254 -0.467248 4.13079e-19)
(0.452299 -0.452468 -4.10667e-19)
(0.457894 -0.437166 4.08919e-19)
(0.462539 -0.422046 0)
(0.466558 -0.407499 -1.6287e-18)
(0.470161 -0.393718 8.08377e-19)
(0.473479 -0.380782 4.03735e-19)
(0.476593 -0.3687 1.20316e-18)
(0.479557 -0.357444 0)
(0.482404 -0.346967 7.93396e-19)
(0.485156 -0.337214 7.84226e-19)
(0.487829 -0.328126 7.7801e-19)
(0.490436 -0.319645 -4.9797e-21)
(0.492984 -0.311713 -7.63126e-19)
(0.495474 -0.304277 7.61369e-19)
(0.49793 -0.297271 0)
(0.500364 -0.290595 1.90581e-21)
(0.501386 -0.284378 1.52555e-18)
(-0.0207256 0.0729689 -6.54415e-19)
(-0.00388058 0.0634729 0)
(0.0540479 -0.0296882 -7.29761e-19)
(0.12907 -0.152826 -9.31705e-19)
(0.205842 -0.270578 -5.7282e-19)
(0.27448 -0.365444 1.93545e-19)
(0.330625 -0.432337 9.51756e-22)
(0.373737 -0.473349 -1.97637e-19)
(0.405377 -0.493689 4.66693e-21)
(0.427897 -0.49912 4.04121e-19)
(0.443671 -0.49468 4.03996e-19)
(0.45471 -0.484238 -4.02889e-19)
(0.462562 -0.470523 4.06813e-19)
(0.468338 -0.455331 -1.2212e-18)
(0.472792 -0.439779 1.21847e-18)
(0.476418 -0.424517 8.09955e-19)
(0.47953 -0.409898 2.02432e-18)
(0.482321 -0.39609 -4.07348e-19)
(0.484908 -0.383152 -7.99287e-19)
(0.487363 -0.371083 -4.90027e-21)
(0.489728 -0.359847 -7.92452e-19)
(0.49203 -0.349395 2.35559e-18)
(0.494285 -0.33967 -1.56503e-18)
(0.496505 -0.330613 1.54434e-18)
(0.4987 -0.322164 -7.69789e-19)
(0.500873 -0.314266 1.52121e-18)
(0.503026 -0.306863 3.18616e-21)
(0.505181 -0.299883 -1.49378e-18)
(0.507335 -0.293217 1.47659e-18)
(0.507949 -0.287045 7.54957e-19)
(-0.0212924 0.0692444 6.54413e-19)
(-0.000988186 0.0542559 0)
(0.0629429 -0.0423383 1.63696e-18)
(0.143997 -0.167045 5.59254e-19)
(0.225487 -0.28467 0)
(0.297015 -0.378177 0)
(0.354341 -0.443053 0)
(0.397348 -0.481897 0)
(0.428066 -0.500257 3.99191e-19)
(0.449241 -0.50407 3.99877e-19)
(0.463521 -0.498414 -8.08495e-19)
(0.473082 -0.487123 8.11351e-19)
(0.479557 -0.472857 1.2139e-18)
(0.484088 -0.457335 4.08336e-19)
(0.487432 -0.441606 4.0052e-19)
(0.490074 -0.426267 -1.21317e-18)
(0.492309 -0.411632 -1.60938e-18)
(0.494316 -0.397845 -8.03532e-19)
(0.496196 -0.384947 7.99295e-19)
(0.498011 -0.372927 -1.58731e-18)
(0.499792 -0.361745 7.85991e-19)
(0.50156 -0.351349 -1.56533e-18)
(0.503326 -0.341681 7.72533e-19)
(0.505097 -0.332683 -3.74128e-21)
(0.506881 -0.324294 -7.6161e-19)
(0.50868 -0.316459 -1.51423e-18)
(0.510492 -0.30912 1.49937e-18)
(0.512345 -0.302196 0)
(0.514211 -0.295567 -2.05866e-21)
(0.514403 -0.28948 -1.50928e-18)
(-0.021578 0.0652453 8.10168e-20)
(0.00259169 0.0445664 0)
(0.0727308 -0.0553426 -7.2519e-19)
(0.15982 -0.181304 1.84681e-19)
(0.24586 -0.298414 -1.87506e-19)
(0.320015 -0.390211 0)
(0.378246 -0.452815 -1.93977e-19)
(0.420912 -0.489345 1.95301e-19)
(0.450538 -0.505679 3.96478e-19)
(0.470266 -0.507895 -1.19227e-18)
(0.483004 -0.501086 -4.01539e-19)
(0.491081 -0.489028 -1.56489e-21)
(0.496197 -0.474295 -2.4593e-21)
(0.499515 -0.458522 -8.05685e-19)
(0.501787 -0.442685 -4.05375e-19)
(0.503481 -0.427329 0)
(0.504873 -0.412731 1.51855e-21)
(0.506124 -0.399008 7.98594e-19)
(0.507323 -0.386188 -7.91091e-19)
(0.508517 -0.37425 0)
(0.50973 -0.363151 0)
(0.510975 -0.352838 0)
(0.512258 -0.343253 0)
(0.513583 -0.334338 -5.07041e-21)
(0.514956 -0.326035 0)
(0.516378 -0.31829 0)
(0.517846 -0.311042 7.40973e-19)
(0.519388 -0.304204 7.33974e-19)
(0.520956 -0.297643 7.29996e-19)
(0.520709 -0.291683 -2.25557e-21)
(-0.021563 0.0609926 8.04921e-20)
(0.00689455 0.0344582 -1.75431e-19)
(0.0834352 -0.0686238 1.07523e-18)
(0.17653 -0.195514 -1.83128e-19)
(0.266915 -0.311728 1.86962e-19)
(0.343409 -0.40148 8.44002e-22)
(0.402255 -0.461582 5.7512e-19)
(0.444343 -0.495683 -7.76334e-19)
(0.472716 -0.509966 1.17822e-18)
(0.490905 -0.510625 2.42355e-21)
(0.502069 -0.502736 -3.96944e-19)
(0.508665 -0.489996 7.97184e-19)
(0.512449 -0.474881 -7.98522e-19)
(0.514592 -0.458934 7.9858e-19)
(0.515833 -0.443057 0)
(0.516618 -0.427741 7.95448e-19)
(0.517203 -0.413226 0)
(0.51773 -0.399606 4.91394e-21)
(0.518273 -0.386896 -7.84537e-19)
(0.518866 -0.375068 -7.79661e-19)
(0.519526 -0.364077 7.7431e-19)
(0.520259 -0.353869 -7.68557e-19)
(0.521065 -0.344388 -7.62466e-19)
(0.521947 -0.335578 -1.51729e-18)
(0.522907 -0.327384 -7.49497e-19)
(0.523946 -0.319752 7.45812e-19)
(0.525059 -0.312622 -1.47887e-18)
(0.526282 -0.305897 -7.33987e-19)
(0.527533 -0.299438 0)
(0.52683 -0.293655 -7.48282e-19)
(-0.0212292 0.0565085 0)
(0.0119516 0.0239889 6.9457e-19)
(0.0950725 -0.0821007 -5.37444e-19)
(0.19411 -0.209585 -9.08139e-19)
(0.288602 -0.324527 0)
(0.367119 -0.411921 0)
(0.426282 -0.469321 -1.15031e-18)
(0.467561 -0.500905 1.54601e-18)
(0.494529 -0.513138 -1.17368e-18)
(0.511103 -0.512295 0)
(0.52067 -0.503408 3.97579e-19)
(0.5258 -0.490077 -4.00583e-19)
(0.528287 -0.474664 4.74533e-21)
(0.529298 -0.458616 -4.03454e-19)
(0.529552 -0.442761 -3.95723e-19)
(0.52947 -0.427536 -4.8538e-21)
(0.529285 -0.413146 7.8765e-19)
(0.529119 -0.399664 7.88867e-19)
(0.529032 -0.387092 1.76049e-21)
(0.529046 -0.375399 1.55614e-18)
(0.529169 -0.364536 -1.54676e-18)
(0.529399 -0.354452 1.53401e-18)
(0.529735 -0.345091 7.6248e-19)
(0.530174 -0.336402 7.5611e-19)
(0.530718 -0.328333 5.14558e-21)
(0.531365 -0.320834 0)
(0.53211 -0.313846 7.33645e-19)
(0.532996 -0.30726 -2.17883e-18)
(0.533911 -0.300937 7.14747e-19)
(0.532735 -0.295388 7.43606e-19)
(-0.0205597 0.0518159 -4.74544e-19)
(0.0177895 0.0132188 -1.55783e-18)
(0.107651 -0.0956886 -2.68726e-22)
(0.212536 -0.223424 4.19182e-21)
(0.310862 -0.336729 -5.50802e-19)
(0.391069 -0.421478 0)
(0.450244 -0.476005 -3.76737e-19)
(0.490487 -0.505014 -2.30836e-18)
(0.515913 -0.51522 1.167e-18)
(0.530808 -0.512945 -7.80836e-19)
(0.538769 -0.50315 1.17961e-18)
(0.542458 -0.489318 -3.94272e-19)
(0.543689 -0.47369 7.93795e-19)
(0.543616 -0.457613 -1.97914e-18)
(0.54293 -0.441837 1.1873e-18)
(0.542025 -0.426749 -1.52452e-21)
(0.541107 -0.412521 -2.35475e-18)
(0.540281 -0.399206 7.82241e-19)
(0.539591 -0.386797 -7.76388e-19)
(0.539047 -0.375257 0)
(0.538648 -0.364539 7.64302e-19)
(0.538388 -0.354592 0)
(0.538258 -0.345363 -7.55372e-19)
(0.538255 -0.336806 7.47958e-19)
(0.538376 -0.328875 7.44382e-19)
(0.53862 -0.321521 7.32374e-19)
(0.538981 -0.314691 0)
(0.539511 -0.308268 0)
(0.540063 -0.302118 -1.43336e-18)
(0.538405 -0.296871 2.21534e-18)
(-0.0195391 0.0469385 4.75376e-19)
(0.02443 0.00221074 8.61787e-19)
(0.121174 -0.1093 -7.02275e-19)
(0.231775 -0.236937 1.43849e-18)
(0.333631 -0.348254 1.88111e-19)
(0.415178 -0.430098 1.87545e-19)
(0.47406 -0.481615 6.56071e-21)
(0.513051 -0.508018 -7.60352e-19)
(0.536811 -0.51624 -3.85078e-19)
(0.549978 -0.512616 4.58309e-21)
(0.556336 -0.50201 -4.62543e-21)
(0.558617 -0.487769 -1.17657e-18)
(0.55864 -0.472007 -3.91702e-19)
(0.557533 -0.455966 4.7581e-21)
(0.555957 -0.440323 7.83115e-19)
(0.554272 -0.425414 7.80942e-19)
(0.552661 -0.411381 4.88038e-21)
(0.551208 -0.398258 -7.74136e-19)
(0.549942 -0.386032 7.72834e-19)
(0.548862 -0.374661 -7.66594e-19)
(0.54796 -0.364099 -1.52361e-18)
(0.547221 -0.354297 -7.56466e-19)
(0.546633 -0.345207 1.49657e-18)
(0.546187 -0.336786 0)
(0.545878 -0.328996 -7.34086e-19)
(0.545704 -0.321795 -1.45959e-18)
(0.545661 -0.315133 -1.44625e-18)
(0.545811 -0.30889 7.17577e-19)
(0.545974 -0.302951 -2.12841e-18)
(0.543835 -0.298081 7.3621e-19)
(-0.0181537 0.0419008 -7.82048e-19)
(0.0318896 -0.00897036 1.70579e-19)
(0.135632 -0.122846 7.02277e-19)
(0.251786 -0.250031 -5.37996e-19)
(0.356841 -0.359027 1.83743e-19)
(0.439365 -0.437737 -1.83572e-21)
(0.497653 -0.486138 1.87659e-18)
(0.535188 -0.509932 7.62669e-19)
(0.557172 -0.516234 7.70347e-19)
(0.568579 -0.511355 1.16412e-18)
(0.573348 -0.500038 -1.16873e-18)
(0.574261 -0.48548 7.83155e-19)
(0.573128 -0.469661 1.56759e-18)
(0.571042 -0.453718 7.83157e-19)
(0.568625 -0.438256 -1.46092e-21)
(0.566205 -0.423564 -1.55856e-18)
(0.563941 -0.409754 1.55417e-18)
(0.561895 -0.396846 3.20553e-21)
(0.560081 -0.384818 -7.67863e-19)
(0.55849 -0.373628 7.61664e-19)
(0.557102 -0.36323 7.59314e-19)
(0.555898 -0.353575 -7.48412e-19)
(0.554859 -0.344624 -1.49242e-18)
(0.553971 -0.336337 -7.93693e-22)
(0.553227 -0.328684 7.36299e-19)
(0.552621 -0.321632 7.27216e-19)
(0.552152 -0.315139 1.43574e-18)
(0.551896 -0.309086 -1.41493e-18)
(0.551643 -0.303397 0)
(0.549042 -0.298987 7.33071e-19)
(-0.0163911 0.0367277 4.18409e-21)
(0.0401792 -0.0202576 0)
(0.151012 -0.136236 -5.19112e-19)
(0.272519 -0.262616 -1.77329e-19)
(0.380417 -0.368978 -7.21145e-19)
(0.463548 -0.444354 0)
(0.520948 -0.489568 -1.12315e-18)
(0.556837 -0.510778 3.76901e-19)
(0.576955 -0.51524 0)
(0.58658 -0.50921 -7.67221e-19)
(0.589786 -0.497284 0)
(0.58938 -0.4825 -1.16268e-18)
(0.587145 -0.466697 1.16305e-18)
(0.584134 -0.45091 -7.79596e-19)
(0.580928 -0.435674 -7.73605e-19)
(0.577819 -0.421232 0)
(0.574941 -0.40767 0)
(0.572337 -0.394995 7.67446e-19)
(0.570006 -0.383179 1.19855e-21)
(0.567929 -0.372178 7.55901e-19)
(0.566078 -0.361945 -7.51303e-19)
(0.564425 -0.352438 1.49475e-18)
(0.562945 -0.343619 -7.39258e-19)
(0.56162 -0.335457 0)
(0.560435 -0.327927 2.18238e-18)
(0.559383 -0.321009 -3.59465e-18)
(0.558466 -0.314674 7.14408e-19)
(0.557779 -0.30881 7.07789e-19)
(0.557086 -0.303406 6.95201e-19)
(0.554059 -0.299543 1.45462e-18)
(-0.0142408 0.0314449 -6.1253e-19)
(0.0493044 -0.0315825 1.34431e-18)
(0.167289 -0.149379 6.93157e-19)
(0.293917 -0.274602 1.58324e-18)
(0.404281 -0.378039 1.97509e-18)
(0.487646 -0.449919 3.66614e-19)
(0.543873 -0.491904 -1.84998e-18)
(0.577945 -0.510579 0)
(0.596122 -0.513299 -1.51392e-18)
(0.603959 -0.506229 -7.58293e-19)
(0.605636 -0.493799 0)
(0.603963 -0.478875 -7.64776e-19)
(0.600686 -0.463159 -1.19449e-21)
(0.596807 -0.447582 -2.31185e-18)
(0.592862 -0.432612 7.73625e-19)
(0.589111 -0.41845 7.69727e-19)
(0.585659 -0.405158 -1.52541e-18)
(0.582533 -0.392733 -1.52382e-18)
(0.579717 -0.381138 -1.1202e-21)
(0.577182 -0.370331 -3.00813e-21)
(0.574892 -0.360265 0)
(0.57281 -0.350898 -7.41262e-19)
(0.570905 -0.3422 -7.29935e-19)
(0.569149 -0.334145 0)
(0.567524 -0.326716 0)
(0.566018 -0.319905 2.14599e-18)
(0.564634 -0.313701 -2.11332e-18)
(0.563488 -0.30801 0)
(0.562333 -0.30292 2.07009e-18)
(0.558937 -0.299684 -1.44597e-18)
(-0.011694 0.0260789 8.54122e-21)
(0.0592644 -0.042875 -1.34392e-18)
(0.184433 -0.162184 -1.71464e-19)
(0.315915 -0.285903 -1.75773e-18)
(0.428351 -0.386152 -1.07682e-18)
(0.511578 -0.454404 3.64435e-19)
(0.566362 -0.493153 7.42171e-19)
(0.598463 -0.509366 1.86254e-18)
(0.614641 -0.510454 1.51395e-18)
(0.620699 -0.502461 1.52556e-18)
(0.620889 -0.489631 0)
(0.618008 -0.474654 9.07493e-21)
(0.613748 -0.45909 0)
(0.609058 -0.443772 1.54048e-18)
(0.604426 -0.429105 0)
(0.600077 -0.41525 -7.64942e-19)
(0.596093 -0.402249 7.69913e-19)
(0.592481 -0.390086 0)
(0.589215 -0.378723 0)
(0.586253 -0.368112 -2.23784e-18)
(0.583552 -0.358209 7.41442e-19)
(0.581067 -0.348975 0)
(0.578757 -0.34038 1.45861e-18)
(0.576587 -0.332407 1.451e-18)
(0.57453 -0.325045 -2.8647e-18)
(0.572564 -0.318301 2.8367e-18)
(0.570699 -0.312183 5.55946e-21)
(0.569069 -0.306631 1.38439e-18)
(0.56743 -0.301865 -1.37998e-18)
(0.563737 -0.299315 0)
(-0.00874381 0.020657 1.53065e-18)
(0.0700528 -0.0540648 -1.66092e-19)
(0.202404 -0.174562 -1.35931e-18)
(0.338444 -0.29644 0)
(0.452543 -0.393264 -1.41576e-18)
(0.535266 -0.457793 0)
(0.588352 -0.493328 -1.83057e-18)
(0.618348 -0.507172 -1.11973e-18)
(0.632488 -0.506751 -1.49658e-18)
(0.636786 -0.497954 0)
(0.63554 -0.484828 3.80801e-19)
(0.631511 -0.469879 3.92231e-19)
(0.62633 -0.454529 -7.62344e-19)
(0.620884 -0.439518 -1.52201e-18)
(0.615615 -0.425187 -7.56457e-19)
(0.610714 -0.411663 -3.03321e-18)
(0.606239 -0.398971 1.51605e-18)
(0.602181 -0.387084 -1.10653e-21)
(0.5985 -0.37596 -9.57566e-22)
(0.595148 -0.365549 2.23211e-18)
(0.59207 -0.355805 0)
(0.589214 -0.346692 0)
(0.586528 -0.338181 -4.53601e-21)
(0.583969 -0.330258 5.56437e-21)
(0.581496 -0.322921 -1.41717e-18)
(0.579079 -0.316188 -1.4085e-18)
(0.576727 -0.310089 4.7956e-21)
(0.57459 -0.304614 -1.38443e-18)
(0.572441 -0.300152 -1.36445e-18)
(0.56853 -0.298301 5.40146e-21)
(-0.0053852 0.0152067 0)
(0.081657 -0.0650807 1.31787e-18)
(0.221154 -0.186425 1.18974e-18)
(0.361426 -0.306135 1.72797e-19)
(0.476771 -0.399329 2.82294e-18)
(0.558632 -0.460074 -3.60169e-19)
(0.609786 -0.492445 2.91494e-18)
(0.637564 -0.504033 1.47096e-18)
(0.649642 -0.502235 2.24267e-18)
(0.65221 -0.492758 1.12441e-18)
(0.649584 -0.479437 3.78593e-19)
(0.64447 -0.464594 1.90175e-18)
(0.638429 -0.449517 2.23072e-21)
(0.632283 -0.434853 7.64357e-19)
(0.626428 -0.420889 1.51919e-18)
(0.62102 -0.407722 1.51436e-18)
(0.616096 -0.395356 0)
(0.61163 -0.383759 0)
(0.607574 -0.372882 0)
(0.60387 -0.362674 0)
(0.600454 -0.353086 1.45911e-18)
(0.597267 -0.344082 0)
(0.594247 -0.335634 -5.41272e-21)
(0.591336 -0.327728 2.84631e-18)
(0.588482 -0.320364 1.41187e-18)
(0.585639 -0.313572 1.39776e-18)
(0.582807 -0.307402 2.76738e-18)
(0.580142 -0.301903 0)
(0.577453 -0.297672 -2.70332e-18)
(0.573406 -0.296463 2.85711e-18)
(-0.00161514 0.0097564 1.2007e-18)
(0.0940585 -0.0758522 -1.3179e-18)
(0.240628 -0.197689 0)
(0.384779 -0.314919 -1.37129e-18)
(0.500949 -0.404309 -3.60207e-19)
(0.581602 -0.461242 -1.06786e-18)
(0.630611 -0.490527 -3.26408e-18)
(0.656078 -0.49999 -1.04338e-20)
(0.666086 -0.496952 -1.10979e-18)
(0.666965 -0.486919 -2.61584e-18)
(0.663019 -0.473501 -3.74942e-19)
(0.656886 -0.458839 -1.50318e-18)
(0.650045 -0.444088 -1.50483e-18)
(0.643254 -0.429812 0)
(0.63686 -0.416246 -1.50084e-18)
(0.63099 -0.403456 -2.24659e-18)
(0.625658 -0.391435 7.46253e-19)
(0.620826 -0.380142 -1.48084e-18)
(0.616436 -0.369522 -1.47137e-18)
(0.612422 -0.359522 0)
(0.608716 -0.350091 -2.90852e-18)
(0.605246 -0.341188 0)
(0.601942 -0.332783 -2.86379e-18)
(0.598735 -0.324858 -1.41623e-18)
(0.595555 -0.317415 -2.8042e-18)
(0.592335 -0.310484 1.38814e-18)
(0.58906 -0.304126 -4.12055e-18)
(0.585864 -0.298461 1.35393e-18)
(0.582604 -0.294319 1.00885e-20)
(0.578499 -0.293591 -1.42031e-18)
(0.00256758 0.00433453 -1.20072e-18)
(0.107233 -0.0863092 1.63263e-19)
(0.260765 -0.208273 1.16609e-18)
(0.408418 -0.322729 1.37132e-18)
(0.524989 -0.408173 -1.39872e-18)
(0.604106 -0.4613 8.20268e-21)
(0.650778 -0.487602 1.44612e-18)
(0.673861 -0.495082 -2.92151e-18)
(0.681807 -0.490949 -3.61532e-19)
(0.681046 -0.480481 3.34442e-18)
(0.675846 -0.467062 -2.23873e-18)
(0.668759 -0.452651 3.74592e-18)
(0.661177 -0.438278 3.75218e-18)
(0.653793 -0.424427 -7.48806e-19)
(0.646908 -0.411286 1.5009e-18)
(0.640618 -0.398897 2.24202e-18)
(0.634919 -0.38724 7.38153e-19)
(0.629762 -0.376266 9.41021e-21)
(0.625082 -0.365918 7.37794e-19)
(0.620805 -0.356136 7.27709e-19)
(0.616858 -0.346866 -7.1272e-19)
(0.613164 -0.338062 7.15921e-19)
(0.609642 -0.329687 -1.41438e-18)
(0.606211 -0.321714 1.41092e-18)
(0.602783 -0.314138 1.00647e-20)
(0.599268 -0.306982 1.37286e-18)
(0.595625 -0.300303 1.00993e-20)
(0.591931 -0.294286 -1.34894e-18)
(0.588095 -0.290007 5.03129e-21)
(0.584026 -0.289451 0)
(0.00716219 -0.00102995 0)
(0.12115 -0.0963824 0)
(0.281496 -0.2181 -1.49953e-18)
(0.432253 -0.329507 1.69533e-19)
(0.548803 -0.410897 0)
(0.626076 -0.460255 1.41571e-18)
(0.670243 -0.483698 3.59584e-19)
(0.69089 -0.489351 1.09466e-18)
(0.696795 -0.48427 1.47158e-18)
(0.694452 -0.47349 -1.48268e-18)
(0.688065 -0.460161 1.49026e-18)
(0.680087 -0.446068 -1.49464e-18)
(0.671823 -0.43212 -1.49617e-18)
(0.663897 -0.418728 0)
(0.656566 -0.406039 0)
(0.649897 -0.394074 0)
(0.643872 -0.382801 -1.47987e-18)
(0.63843 -0.372167 2.2053e-18)
(0.633502 -0.362107 -7.28273e-19)
(0.629012 -0.35256 0)
(0.624881 -0.343465 2.15731e-18)
(0.621028 -0.334768 -7.11087e-19)
(0.617367 -0.326421 1.41443e-18)
(0.613805 -0.318384 -2.78705e-18)
(0.610236 -0.310631 2.76903e-18)
(0.606543 -0.303163 -4.97707e-21)
(0.602645 -0.296007 5.11473e-21)
(0.598525 -0.289409 1.3389e-18)
(0.594154 -0.284647 -6.71955e-23)
(0.590283 -0.283666 1.40559e-18)
(0.0121652 -0.0063067 1.4791e-19)
(0.135772 -0.106002 -1.6069e-19)
(0.302745 -0.227097 3.30711e-19)
(0.45619 -0.335204 -2.02172e-18)
(0.572307 -0.412465 3.43648e-19)
(0.647448 -0.458121 0)
(0.688966 -0.478851 1.42227e-18)
(0.707145 -0.482841 -1.44091e-18)
(0.711044 -0.476961 0)
(0.707181 -0.465985 1.83478e-18)
(0.699676 -0.452834 -3.68703e-19)
(0.690872 -0.439121 0)
(0.68198 -0.425643 -7.42505e-19)
(0.67356 -0.412743 1.4819e-18)
(0.665825 -0.400533 -7.38593e-19)
(0.658817 -0.389015 7.37085e-19)
(0.652503 -0.378149 -1.46608e-18)
(0.646816 -0.367876 -6.52878e-22)
(0.641684 -0.358129 -4.95131e-22)
(0.637028 -0.348841 -7.14015e-19)
(0.632771 -0.339946 -1.42548e-18)
(0.628832 -0.331381 -3.22342e-22)
(0.625125 -0.323083 4.80809e-21)
(0.621552 -0.31499 1.39102e-18)
(0.617992 -0.307044 -1.37203e-18)
(0.614301 -0.299194 1.36292e-18)
(0.610327 -0.291402 -2.68674e-18)
(0.605894 -0.283937 -5.07802e-21)
(0.601045 -0.278105 -2.62394e-18)
(0.597602 -0.275506 1.39815e-18)
(0.0175714 -0.0114645 0)
(0.151058 -0.1151 -1.27577e-18)
(0.324433 -0.235194 0)
(0.480135 -0.339777 8.01345e-21)
(0.595417 -0.412868 3.437e-19)
(0.66816 -0.454919 2.29003e-21)
(0.706911 -0.473096 -2.83476e-18)
(0.72261 -0.475594 1.08281e-18)
(0.724548 -0.469063 0)
(0.719233 -0.458007 -1.83284e-18)
(0.71068 -0.445117 3.66703e-19)
(0.701112 -0.431842 0)
(0.691646 -0.418875 -7.38276e-19)
(0.682776 -0.406499 7.35943e-19)
(0.674676 -0.394793 7.30158e-19)
(0.667365 -0.383747 1.46432e-18)
(0.660797 -0.373312 -7.28198e-19)
(0.654902 -0.363426 0)
(0.649604 -0.354021 0)
(0.644827 -0.345025 1.43238e-18)
(0.640499 -0.336369 -1.41586e-18)
(0.636545 -0.327982 1.40303e-18)
(0.632889 -0.319787 1.39477e-18)
(0.629444 -0.311696 1.37596e-18)
(0.626102 -0.30361 -1.36202e-18)
(0.622716 -0.295395 1.35266e-18)
(0.619063 -0.286909 1.33298e-18)
(0.614725 -0.278338 -1.31854e-18)
(0.609659 -0.270554 4.41798e-21)
(0.606706 -0.26415 2.7809e-18)
(0.0233818 -0.0164796 1.46068e-19)
(0.166969 -0.123621 1.11752e-18)
(0.346482 -0.242341 0)
(0.503999 -0.343198 1.33879e-18)
(0.618055 -0.412109 0)
(0.68816 -0.450672 0)
(0.724048 -0.466472 1.0612e-18)
(0.737271 -0.467654 -2.08774e-21)
(0.737304 -0.460618 3.60113e-19)
(0.73061 -0.449592 3.64459e-19)
(0.721077 -0.437043 -1.09701e-18)
(0.710806 -0.42426 7.31775e-19)
(0.700816 -0.411843 0)
(0.691539 -0.40002 0)
(0.68311 -0.388845 -1.46588e-18)
(0.675529 -0.378294 0)
(0.668739 -0.368316 -7.24538e-19)
(0.662666 -0.358846 7.19594e-19)
(0.657235 -0.349814 7.14922e-19)
(0.652373 -0.341151 1.35933e-22)
(0.648016 -0.332786 -7.03175e-19)
(0.644102 -0.324644 0)
(0.640572 -0.31664 -1.37991e-18)
(0.637372 -0.308673 1.36635e-18)
(0.634444 -0.300612 0)
(0.63172 -0.292253 0)
(0.62905 -0.283356 0)
(0.626006 -0.273872 0)
(0.622476 -0.263493 -1.2937e-18)
(0.620476 -0.250826 2.76003e-18)
(0.44899 -0.219598 -0.0402775)
(0.45449 -0.191001 -0.0429122)
(0.459245 -0.174746 -0.0442628)
(0.46191 -0.162682 -0.0456489)
(0.462499 -0.151359 -0.0470363)
(0.461895 -0.14 -0.0483918)
(0.460532 -0.128928 -0.0497078)
(0.458702 -0.118541 -0.0509843)
(0.456532 -0.108863 -0.0522337)
(0.454215 -0.0998975 -0.0534616)
(0.451772 -0.091528 -0.0546911)
(0.449214 -0.0837862 -0.0559466)
(0.446621 -0.0765105 -0.0572512)
(0.443947 -0.0697759 -0.0586177)
(0.441178 -0.0634497 -0.0600558)
(0.438376 -0.0576496 -0.0615817)
(0.435472 -0.0522703 -0.0631973)
(0.432526 -0.0473631 -0.0648969)
(0.429465 -0.0429295 -0.0667027)
(0.426598 -0.0389806 -0.0685545)
(0.422971 -0.0355437 -0.070601)
(0.421374 -0.0325123 -0.0724545)
(0.414618 -0.030118 -0.0749602)
(0.419817 -0.0279591 -0.0763932)
(0.399596 -0.0264225 -0.0797836)
(0.428762 -0.0258385 -0.0804852)
(0.370381 -0.0219928 -0.0845635)