/*--------------------------------*- C++ -*----------------------------------*\
  =========                 |
  \\      /  F ield         | OpenFOAM: The Open Source CFD Toolbox
   \\    /   O peration     | Website:  https://openfoam.org
    \\  /    A nd           | Version:  7
     \\/     M anipulation  |
\*---------------------------------------------------------------------------*/
FoamFile
{
    version     2.0;
    format      ascii;
    class       surfaceScalarField;
    location    "52";
    object      phi;
}
// * * * * * * * * * * * * * * * * * * * * * * * * * * * * * * * * * * * * * //

dimensions      [0 3 -1 0 0 0 0];

internalField   nonuniform List<scalar> 
3880
(
-0.000105207
-0.000514275
0.000619482
-0.00021465
-0.000723681
0.000833124
-0.000247207
-0.000470592
0.000503148
-0.000149775
0.000110986
-0.000208418
0.000115751
0.000967938
-0.00123346
0.000575931
0.00207901
-0.00253919
0.00124414
0.00343126
-0.00409947
0.00211755
0.00500718
-0.00588058
0.00317349
0.00677831
-0.00783426
0.00869894
0.00436481
-0.00989026
-0.00011524
-0.000399036
-0.000236253
-0.000602669
-0.00028434
-0.000422505
-0.000209511
3.61573e-05
2.58578e-05
0.000732569
0.000451922
0.00165295
0.00108993
0.00279325
0.00194762
0.00414949
0.00301246
0.00571348
0.00747015
0.00424125
-0.000114387
-0.000284649
-0.000226349
-0.000490707
-0.000264211
-0.000384644
-0.000185227
-4.28266e-05
4.32858e-05
0.000504056
0.000450572
0.00124566
0.00106203
0.00218179
0.00189421
0.00331731
0.00294617
0.00466151
0.00623338
0.00418295
-0.000100641
-0.000184008
-0.000179028
-0.00041232
-0.000174715
-0.000388957
-5.54622e-05
-0.00016208
0.000202089
0.000246505
0.000621543
0.000826206
0.0012272
0.00157613
0.00204056
0.00250395
0.00307187
0.0036302
0.00500554
0.00429971
-7.30173e-05
-0.00011099
-9.11976e-05
-0.00039414
-8.41024e-06
-0.000471744
0.000193476
-0.000363966
0.000527034
-8.70536e-05
0.00100535
0.000347895
0.00164609
0.000935389
0.00247007
0.00167997
0.00349551
0.00260475
0.00378143
0.00471962
-3.17184e-05
-7.9272e-05
3.63365e-05
-0.000462195
0.000232741
-0.000668149
0.000562669
-0.000693894
0.00102441
-0.00054879
0.00161846
-0.000246164
0.00235153
0.000202327
0.00323769
0.000793806
0.00429768
0.00154477
0.0025302
0.00554891
2.25497e-05
-0.000101822
0.000198938
-0.000638583
0.000540517
-0.00100973
0.00103745
-0.00119082
0.00167494
-0.00118629
0.00244022
-0.00101144
0.00332667
-0.000684123
0.00433691
-0.000216433
0.00548704
0.000394639
0.00120689
0.00681035
8.54336e-05
-0.000187255
0.000387731
-0.000940881
0.00089626
-0.00151826
0.00158671
-0.00188127
0.00243212
-0.0020317
0.00340776
-0.00198707
0.004494
-0.00177037
0.00567972
-0.00140215
0.00696947
-0.000895114
-0.000226485
0.00840285
0.00015476
-0.000342015
0.000591168
-0.00137729
0.00127482
-0.00220191
0.00216602
-0.00277247
0.00322671
-0.00309239
0.00442293
-0.0031833
0.00572522
-0.00307265
0.00710867
-0.00278561
0.00855851
-0.00234495
-0.00178317
0.0101152
0.000226396
-0.000568411
0.000795627
-0.00194652
0.0016464
-0.00305269
0.00272223
-0.00384829
0.00397502
-0.00434518
0.0053661
-0.00457438
0.00686502
-0.00457157
0.00844539
-0.00436598
0.0100714
-0.00397096
0.0116945
-0.0034063
0.0074849
0.0477678
-0.0508879
0.00901284
0.0757085
-0.0772364
0.00892451
0.0977298
-0.0976415
0.00808815
0.117629
-0.116793
0.00696167
0.138681
-0.137555
0.00568731
0.162664
-0.161389
0.00429243
0.190545
-0.189151
0.00272742
0.223263
-0.221698
0.00118347
0.265148
-0.263604
0.31324
-0.312057
0.00787544
0.0441336
0.0101354
0.0734485
0.0104514
0.0974138
0.00977709
0.118304
0.00868393
0.139774
0.00734422
0.164003
0.00578227
0.192107
0.00392998
0.225116
0.00190299
0.267175
0.315143
0.00813104
0.0401855
0.0111677
0.0704118
0.0119507
0.0966308
0.0114725
0.118782
0.0104201
0.140827
0.00901535
0.165408
0.00728189
0.193841
0.00513915
0.227258
0.00262599
0.269688
0.317769
0.00827816
0.0362071
0.0120634
0.0666266
0.0133796
0.0953147
0.0131409
0.119021
0.0121436
0.141824
0.0106788
0.166873
0.00877586
0.195744
0.00634347
0.229691
0.00334478
0.272687
0.321114
0.0083946
0.0325321
0.0127798
0.0622413
0.0146949
0.0933996
0.0147495
0.118966
0.0138289
0.142745
0.0123129
0.168389
0.0102489
0.197808
0.00753223
0.232407
0.00405642
0.276163
0.325171
0.00859371
0.0294873
0.0132921
0.057543
0.0158561
0.0908356
0.0162616
0.11856
0.0154455
0.143561
0.013892
0.169942
0.0116782
0.200022
0.00869019
0.235395
0.0047504
0.280103
0.329921
0.00898728
0.0273104
0.0136176
0.0529126
0.0168305
0.0876226
0.0176525
0.117738
0.0169824
0.144231
0.0154104
0.171514
0.0130627
0.202369
0.0098164
0.238642
0.00542806
0.284491
0.335349
0.00963763
0.0260756
0.0138181
0.0487321
0.0175846
0.0838562
0.0188619
0.116461
0.0183799
0.144713
0.0168148
0.17308
0.0143544
0.20483
0.010878
0.242118
0.0060718
0.289297
0.341421
0.0105094
0.0256814
0.0139822
0.0452593
0.0181483
0.0796901
0.019953
0.114657
0.0197112
0.144955
0.0181694
0.174621
0.0156104
0.207389
0.0119057
0.245823
0.00669511
0.294508
0.348116
0.0115385
0.0258375
0.0142113
0.0425865
0.0183961
0.0755053
0.0207019
0.112351
0.0208077
0.144849
0.0193535
0.176076
0.0167682
0.209974
0.0128534
0.249738
0.0073206
0.300041
0.355437
0.0341424
0.0365956
-0.0449006
0.0254334
0.0512955
0.0235674
0.0773713
0.0223278
0.11359
0.0193544
0.147822
0.0155293
0.179901
0.0113766
0.214127
0.00692306
0.254191
0.00266311
0.304301
0.3581
0.0412286
0.0422747
-0.0469077
0.0323683
0.0601558
0.0271387
0.0826009
0.0242733
0.116456
0.0202604
0.151835
0.0154476
0.184713
0.0108409
0.218734
0.00645516
0.258577
0.0024873
0.308268
0.360587
0.0430185
0.0447603
-0.0455041
0.0364368
0.0667375
0.0300814
0.0889563
0.0258239
0.120713
0.0215604
0.156099
0.0167183
0.189556
0.0117484
0.223703
0.00692328
0.263402
0.00270782
0.312484
0.363295
0.041139
0.0453703
-0.041749
0.0372317
0.0706448
0.0317263
0.0944616
0.0266909
0.125749
0.0214915
0.161298
0.0161538
0.194893
0.011212
0.228645
0.00667074
0.267943
0.00266616
0.316489
0.365961
0.0369102
0.0449151
-0.0364551
0.0351328
0.0724223
0.0312798
0.0983146
0.0270725
0.129956
0.0224637
0.165907
0.0171712
0.200186
0.0118143
0.234002
0.0069017
0.272856
0.00273144
0.320659
0.368692
0.0311678
0.0435556
-0.0298083
0.0311804
0.0724097
0.0287826
0.100712
0.0249081
0.133831
0.0203834
0.170431
0.0156298
0.204939
0.0109553
0.238677
0.0065099
0.277301
0.00260892
0.32456
0.371301
0.024592
0.0415412
-0.0225776
0.0260679
0.0709338
0.0258205
0.10096
0.0238678
0.135783
0.0203543
0.173945
0.0157224
0.209571
0.0109149
0.243484
0.0064389
0.281777
0.00258487
0.328414
0.373886
0.0179099
0.0391841
-0.0155528
0.0197717
0.0690719
0.0200078
0.100724
0.0187867
0.137004
0.0165811
0.176151
0.0134347
0.212718
0.00967975
0.247239
0.00581912
0.285638
0.00234745
0.331885
0.376234
0.01211
0.0363217
-0.00924753
0.0153158
0.0658661
0.0174477
0.0985918
0.0176307
0.136821
0.0158941
0.177887
0.0129085
0.215703
0.00932629
0.250821
0.0056528
0.289311
0.00228127
0.335257
0.378515
0.00449795
-0.00306257
0.00661439
0.0092594
0.0113768
0.0119064
0.0105336
0.00802045
0.00494832
0.00207517
0.0150244
-0.0463961
-0.0135288
0.0145459
-0.0464292
0.0132286
-0.0441868
0.0115832
-0.0401036
0.00988417
-0.0347561
0.00829343
-0.0282176
0.00692243
-0.0212066
0.00578507
-0.0144154
0.00490535
-0.00836781
-0.00269296
0.0138344
-0.0467304
-0.0135002
0.0127589
-0.0453537
0.0111843
-0.0426122
0.00943011
-0.0383495
0.00769845
-0.0330244
0.00611944
-0.0266385
0.00477727
-0.0198644
0.00367688
-0.013315
0.00282818
-0.00751911
-0.00229805
0.0121844
-0.0462553
-0.0126595
0.0107324
-0.0439017
0.00899421
-0.040874
0.00716542
-0.0365207
0.00541342
-0.0312724
0.00384941
-0.0250745
0.00254153
-0.0185565
0.00149264
-0.0122661
0.000693342
-0.00671982
-0.00189613
0.0101134
-0.0452246
-0.011144
0.00842507
-0.0422134
0.00660256
-0.0390515
0.00475468
-0.0346728
0.00302336
-0.0295411
0.00150174
-0.0235529
0.000250404
-0.0173052
-0.000738794
-0.0112769
-0.00148172
-0.00597689
-0.0015105
0.00771047
-0.043818
-0.00911705
0.00588802
-0.040391
0.00404091
-0.0372043
0.00221897
-0.0328509
0.000545476
-0.0278676
-0.000902914
-0.0221045
-0.00208714
-0.016121
-0.00300398
-0.0103601
-0.00367842
-0.00530245
-0.00116725
0.00507875
-0.0421607
-0.00673601
0.00319783
-0.0385101
0.00136966
-0.0353762
-0.000390272
-0.0310909
-0.00197882
-0.026279
-0.00333693
-0.0207464
-0.00443423
-0.0150237
-0.00526966
-0.00952466
-0.00586914
-0.00470296
-0.000884639
0.0023164
-0.0403375
-0.00413967
0.000427599
-0.0366213
-0.00133659
-0.033612
-0.00301629
-0.0294112
-0.00450307
-0.0247923
-0.0057569
-0.0194926
-0.00675895
-0.0140216
-0.00750689
-0.00877672
-0.0080231
-0.00418676
-0.000674382
-0.000467391
-0.0384279
-0.00144215
-0.00231772
-0.0347709
-0.00401797
-0.0319117
-0.00559961
-0.0278296
-0.00697643
-0.0234154
-0.00812092
-0.0183481
-0.00902464
-0.0131179
-0.00968144
-0.00811993
-0.0101087
-0.00375952
-0.000542695
-0.00321533
-0.0364629
0.00125035
-0.0049986
-0.0329877
-0.00660992
-0.0303004
-0.00808346
-0.026356
-0.00934968
-0.0221492
-0.0103857
-0.0173121
-0.0111925
-0.0123111
-0.0117575
-0.00755497
-0.0120941
-0.0034229
-0.000489264
-0.00582705
-0.0344946
0.00385872
-0.00753381
-0.0312809
-0.00905257
-0.0287817
-0.0104157
-0.0249929
-0.0115769
-0.020988
-0.0125098
-0.0163792
-0.0132247
-0.0115961
-0.0137009
-0.00707881
-0.0139506
-0.00317318
-0.00050695
-0.00824231
-0.0325666
0.00631433
-0.00986627
-0.0296569
-0.0112961
-0.0273518
-0.0125512
-0.0237379
-0.0136177
-0.0199215
-0.014456
-0.0155409
-0.0150874
-0.0109647
-0.0154823
-0.0066839
-0.0156549
-0.00300057
-0.000582243
-0.010426
-0.0307064
0.00856581
-0.0119583
-0.0281247
-0.0133053
-0.0260048
-0.0144576
-0.0225855
-0.0154408
-0.0189383
-0.0161958
-0.0147859
-0.0167546
-0.010406
-0.0170804
-0.00635803
-0.0171916
-0.00288944
-0.000696252
-0.012345
-0.0289358
0.0105744
-0.013779
-0.0266907
-0.0150512
-0.0247326
-0.0161094
-0.0215273
-0.0170221
-0.0180257
-0.0177088
-0.0140992
-0.0182092
-0.00990556
-0.0184835
-0.00608374
-0.0185537
-0.00281926
-0.000826026
-0.0139817
-0.0272685
0.0123144
-0.015312
-0.0253604
-0.0165186
-0.0235259
-0.017494
-0.0205519
-0.0183495
-0.0171702
-0.0189859
-0.0134628
-0.0194452
-0.00944625
-0.0196897
-0.00583928
-0.0197429
-0.00276602
-0.000946123
-0.015331
-0.0257066
0.0137691
-0.0165537
-0.0241377
-0.0177034
-0.0223763
-0.0186108
-0.0196445
-0.0194221
-0.0163588
-0.0200288
-0.0128561
-0.0204667
-0.00900838
-0.0207061
-0.00559991
-0.0207683
-0.00270381
-0.00103004
-0.016399
-0.024235
0.0149274
-0.0175142
-0.0230224
-0.0186121
-0.0212784
-0.0194696
-0.018787
-0.020249
-0.0155793
-0.0208484
-0.0122567
-0.0212862
-0.00857061
-0.0215469
-0.00533926
-0.0216445
-0.00260616
-0.00105134
-0.0171976
-0.0228189
0.0157815
-0.0182127
-0.0220073
-0.0192584
-0.0202328
-0.0200875
-0.0179579
-0.0208467
-0.0148201
-0.021462
-0.0116414
-0.0219221
-0.00811055
-0.0222308
-0.00503053
-0.0223901
-0.00244683
-0.000984367
-0.0177155
-0.0214301
0.0163267
-0.018656
-0.0210668
-0.01965
-0.0192388
-0.0204794
-0.0171285
-0.0212334
-0.0140661
-0.0218889
-0.010986
-0.022395
-0.00760442
-0.0227785
-0.00464704
-0.0230253
-0.0022
-0.000804458
-0.0179311
-0.0200763
0.0165773
-0.0188614
-0.0201366
-0.0198069
-0.0182932
-0.0206668
-0.0162686
-0.0214334
-0.0132995
-0.0221519
-0.0102674
-0.0227276
-0.00702875
-0.0232112
-0.00416346
-0.0235704
-0.00184073
-0.000487699
-0.0179828
-0.0187046
0.0166111
-0.0189677
-0.0191516
-0.0198025
-0.0174585
-0.0206812
-0.01539
-0.0214646
-0.0125161
-0.022258
-0.00947397
-0.0229297
-0.00635705
-0.0235425
-0.00355069
-0.0240503
-0.00133291
-1.60641e-05
-0.0732417
-0.0162742
0.0708113
-0.0779511
-0.0144422
-0.0821708
-0.0132388
-0.086477
-0.0110837
-0.0899846
-0.00900857
-0.0928852
-0.00657332
-0.0948212
-0.00442106
-0.0959734
-0.00239849
-0.0963698
-0.000936481
-3.12577e-05
-0.090004
-0.0138261
0.087556
-0.0931653
-0.0112809
-0.0960919
-0.0103122
-0.0990363
-0.0081394
-0.101385
-0.00666008
-0.103284
-0.00467391
-0.104503
-0.00320248
-0.105186
-0.00171511
-0.105382
-0.000740142
-4.22472e-05
-0.106506
-0.0117913
0.104471
-0.108615
-0.009172
-0.110721
-0.00820606
-0.112705
-0.00615539
-0.114295
-0.00506964
-0.115528
-0.0034414
-0.116273
-0.00245765
-0.116674
-0.00131344
-0.116764
-0.000650309
-4.30715e-05
-0.125138
-0.0104127
0.12376
-0.126623
-0.00768777
-0.128091
-0.00673808
-0.129401
-0.00484502
-0.130449
-0.00402123
-0.131252
-0.00263913
-0.131722
-0.00198681
-0.131981
-0.00105492
-0.132027
-0.000604172
-3.6113e-05
-0.147416
-0.00908092
0.146084
-0.148541
-0.00656189
-0.149642
-0.00563713
-0.150567
-0.00392055
-0.151326
-0.0032616
-0.151904
-0.00206187
-0.15227
-0.00162067
-0.152502
-0.000822563
-0.152577
-0.000529605
-4.82974e-07
-0.173647
-0.0076545
0.172221
-0.174714
-0.00549542
-0.175734
-0.00461727
-0.176542
-0.00311284
-0.17722
-0.00258346
-0.177732
-0.00154958
-0.17812
-0.00123306
-0.178414
-0.000528047
-0.178592
-0.000352096
4.94182e-05
-0.201526
-0.00610984
0.199982
-0.202974
-0.00404772
-0.204216
-0.00337533
-0.205046
-0.00228255
-0.205737
-0.0018926
-0.206245
-0.00104164
-0.206698
-0.000779802
-0.207048
-0.000178419
-0.207285
-0.000114572
0.000111018
-0.22811
-0.00385595
0.225856
-0.229185
-0.0029724
-0.230125
-0.00243517
-0.230882
-0.00152584
-0.231565
-0.00120897
-0.232045
-0.000562192
-0.232458
-0.000367004
-0.232714
7.78938e-05
-0.232881
5.27894e-05
0.000129161
-0.245157
-0.00215835
0.24346
-0.246898
-0.00123191
-0.248317
-0.0010153
-0.249206
-0.000637013
-0.249878
-0.00053734
-0.250208
-0.000232557
-0.250446
-0.000129048
-0.250468
0.000100744
-0.250486
7.07685e-05
7.71372e-05
-0.255748
0.25359
-0.25698
-0.257995
-0.258632
-0.25917
-0.259402
-0.259531
-0.259431
-0.25936
-0.018787
0.0723955
0.0172028
-0.0196137
0.0883827
-0.0200238
0.104881
-0.0199899
0.123726
-0.0194456
0.14554
-0.0180273
0.170803
-0.0154572
0.197412
-0.0110859
0.221484
-0.00607305
0.238447
0.247517
-0.0177242
0.0733136
0.0168061
-0.0184024
0.0890609
-0.0187123
0.105191
-0.0185794
0.123593
-0.017944
0.144904
-0.0164981
0.169357
-0.013959
0.194872
-0.0100858
0.217611
-0.00539351
0.233754
0.242123
-0.0168728
0.0740777
0.0161088
-0.0174039
0.0895919
-0.0175934
0.10538
-0.0173892
0.123389
-0.0167149
0.14423
-0.0152978
0.16794
-0.0128615
0.192436
-0.00930303
0.214053
-0.0049182
0.22937
0.237205
-0.0158899
0.0747749
0.0151927
-0.0163087
0.0900107
-0.0163726
0.105444
-0.0160824
0.123099
-0.0153683
0.143516
-0.0139861
0.166558
-0.0116895
0.19014
-0.00844275
0.210806
-0.00442734
0.225354
0.232778
-0.0147328
0.075391
0.0141167
-0.0150606
0.0903384
-0.0150277
0.105411
-0.0146706
0.122741
-0.0139337
0.142779
-0.0126023
0.165226
-0.0104735
0.188011
-0.00753359
0.207866
-0.00393489
0.221755
0.228843
-0.0134448
0.0759128
0.0129231
-0.0136704
0.090564
-0.0135532
0.105294
-0.0131498
0.122338
-0.0124113
0.14204
-0.011154
0.163969
-0.00921841
0.186075
-0.00659639
0.205244
-0.00343828
0.218597
0.225405
-0.0120626
0.0763332
0.0116421
-0.0121772
0.0906786
-0.0119759
0.105093
-0.0115351
0.121897
-0.01081
0.141315
-0.00964795
0.162807
-0.00792675
0.184354
-0.00564161
0.202959
-0.00293422
0.21589
0.22247
-0.0106092
0.0766397
0.0103027
-0.0106137
0.0906831
-0.010329
0.104808
-0.00985474
0.121423
-0.00915174
0.140612
-0.00810004
0.161755
-0.00660839
0.182862
-0.00467605
0.201027
-0.00242402
0.213638
0.220046
-0.00910833
0.0768129
0.00893505
-0.00900749
0.0905823
-0.00864086
0.104442
-0.00813754
0.12092
-0.00746235
0.139937
-0.00653118
0.160824
-0.00527826
0.181609
-0.00370693
0.199455
-0.00191177
0.211843
0.218135
-0.0075852
0.0768282
0.00756992
-0.00738782
0.0903849
-0.00693629
0.10399
-0.00640965
0.120393
-0.00576517
0.139293
-0.00496193
0.160021
-0.0039522
0.1806
-0.00274337
0.198246
-0.00140304
0.210502
0.216732
-0.00607383
0.0766579
0.00624412
-0.00579135
0.0901024
-0.0052475
0.103446
-0.00470036
0.119846
-0.00408591
0.138678
-0.00341337
0.159348
-0.00264609
0.179832
-0.00179498
0.197395
-0.000902988
0.20961
0.215829
-0.00462665
0.0763065
0.00497812
-0.0042474
0.0897232
-0.00361983
0.102819
-0.00304441
0.11927
-0.00246144
0.138095
-0.0019089
0.158796
-0.0013759
0.179299
-0.000874958
0.196894
-0.000417628
0.209153
0.215411
-0.00328597
0.0757898
0.00380267
-0.00279324
0.0892304
-0.00209837
0.102124
-0.00148782
0.11866
-0.00093965
0.137547
-0.000500811
0.158357
-0.000194228
0.178993
-2.93086e-05
0.196729
2.7018e-05
0.209097
0.215438
-0.00208016
0.075136
0.00273395
-0.00145163
0.0886019
-0.000722426
0.101395
-9.41928e-05
0.118032
0.000481061
0.136972
0.000853887
0.157984
0.000971133
0.178875
0.000831429
0.196869
0.000479982
0.209448
0.215918
-0.00103139
0.0743903
0.00177711
-0.000258009
0.0878285
0.000557046
0.10058
0.00132463
0.117264
0.00187699
0.136419
0.00214624
0.157715
0.00206697
0.178955
0.00162781
0.197308
0.00089901
0.210177
0.216817
-0.000174509
0.0736418
0.000922982
0.000874208
0.0867798
0.00178161
0.0996722
0.00257673
0.116469
0.00312396
0.135872
0.00331681
0.157522
0.0030651
0.179206
0.00235495
0.198018
0.00128018
0.211252
0.218097
0.000710527
0.0727922
0.000139073
0.00187994
0.0856104
0.00284298
0.0987092
0.00369036
0.115622
0.00424802
0.135314
0.00438699
0.157383
0.00398749
0.179606
0.00303119
0.198975
0.00163525
0.212648
0.219732
0.00144519
0.0719081
-0.000561103
0.00271957
0.084336
0.00372942
0.0976994
0.00462119
0.11473
0.00518928
0.134746
0.00528764
0.157285
0.0047685
0.180125
0.0036059
0.200137
0.0019341
0.214319
0.221666
0.00210986
0.0710394
-0.00124118
0.00348876
0.0829571
0.00455258
0.0966355
0.00549023
0.113792
0.0060791
0.134158
0.0061478
0.157216
0.0055178
0.180755
0.00415708
0.201498
0.00222163
0.216255
0.223888
0.00243811
0.0705077
-0.00190639
0.00385933
0.0815359
0.00496906
0.0955258
0.00593442
0.112827
0.00654467
0.133547
0.00661735
0.157143
0.00594387
0.181429
0.00447725
0.202965
0.00237917
0.218353
0.226267
-0.0585011
0.0641981
0.0648107
-0.052742
0.0757768
-0.0485413
0.0913251
-0.0440833
0.108369
-0.0392706
0.128735
-0.0336277
0.1515
-0.026753
0.174554
-0.0186046
0.194816
-0.00950268
0.209251
0.216765
-0.0698777
0.0591073
0.0749685
-0.0647873
0.0706863
-0.0599399
0.0864778
-0.0544883
0.102917
-0.0487008
0.122947
-0.0417302
0.14453
-0.0332275
0.166051
-0.0232011
0.18479
-0.0120264
0.198076
0.204738
-0.0831023
0.0540933
0.0881163
-0.0779176
0.0655016
-0.0722312
0.0807914
-0.0659029
0.096589
-0.0589049
0.115949
-0.0501703
0.135795
-0.0397023
0.155583
-0.0274873
0.172575
-0.013925
0.184514
0.190813
-0.0992065
0.0492455
0.104054
-0.0934901
0.0597853
-0.0871101
0.0744114
-0.0798858
0.0893646
-0.071305
0.107368
-0.0604771
0.124967
-0.0477495
0.142856
-0.0330818
0.157907
-0.0170969
0.168529
0.173716
-0.117457
0.043538
0.123164
-0.111247
0.0535753
-0.103902
0.0670664
-0.0949707
0.0804337
-0.0839516
0.0963492
-0.0704928
0.111508
-0.0550918
0.127455
-0.0375327
0.140348
-0.0187137
0.14971
0.155002
-0.139951
0.0378984
0.145591
-0.132594
0.046218
-0.123685
0.0581575
-0.112511
0.0692591
-0.0989371
0.0827756
-0.0829181
0.0954893
-0.0645858
0.109122
-0.0440306
0.119793
-0.0226133
0.128293
0.132389
-0.162729
0.0306577
0.16997
-0.153794
0.0372828
-0.142642
0.0470053
-0.128699
0.055316
-0.112172
0.0662492
-0.0927313
0.0760483
-0.0704033
0.0867942
-0.0460423
0.095432
-0.0217776
0.104028
0.110612
-0.187959
0.0229932
0.195624
-0.177321
0.0266446
-0.164056
0.0337405
-0.147897
0.0391566
-0.128844
0.0471959
-0.106417
0.0536219
-0.0812081
0.0615851
-0.0545718
0.0687957
-0.0287444
0.0782009
0.0818672
-0.205671
0.0110423
0.217622
-0.192233
0.0132073
-0.175313
0.0168203
-0.155619
0.019462
-0.132172
0.0237495
-0.105496
0.0269461
-0.075547
0.0316359
-0.0428395
0.0360882
-0.00996253
0.0453239
0.0719046
-0.285138
0.29618
-0.27193
-0.25511
-0.235648
-0.211899
-0.184953
-0.153317
-0.117229
-0.0719046
-0.000602762
0.0668001
-0.00138659
-0.00208376
0.0764495
-0.00327736
0.0893099
-0.00416663
0.104944
-0.00468932
0.123687
-0.0047961
0.145698
-0.00436372
0.169538
-0.00337936
0.194639
-0.0028085
0.217051
0.293371
-0.000137639
0.0687431
-0.0018054
-0.00172679
0.0780386
-0.00299501
0.0905781
-0.00390958
0.105858
-0.00447343
0.124251
-0.00459755
0.145822
-0.00423173
0.169172
-0.0032743
0.193682
-0.00255912
0.216336
0.290812
0.000449716
0.0705441
-0.00225074
-0.00112778
0.0796161
-0.00238048
0.0918308
-0.00328179
0.106759
-0.00387173
0.124841
-0.00402683
0.145977
-0.00376315
0.168908
-0.00290293
0.192822
-0.00231794
0.215751
0.288494
0.00100665
0.0722597
-0.00272216
-0.000545961
0.0811687
-0.00168598
0.0929708
-0.00254534
0.107619
-0.00311355
0.125409
-0.00331612
0.14618
-0.00313285
0.168725
-0.00243806
0.192127
-0.00200093
0.215314
0.286493
0.00154996
0.0739234
-0.0032137
-2.15361e-06
0.0827208
-0.000998091
0.0939668
-0.00179961
0.10842
-0.00233176
0.125941
-0.00255689
0.146405
-0.00244552
0.168614
-0.00191448
0.191596
-0.00163557
0.215035
0.284858
0.00212674
0.0755104
-0.0037138
0.000750025
0.0840975
-0.000249296
0.0949661
-0.000991094
0.109162
-0.00148883
0.126439
-0.00173281
0.146649
-0.00170086
0.168582
-0.0013363
0.191231
-0.00123207
0.21493
0.283626
0.00273428
0.0769905
-0.00421435
0.0015019
0.0853299
0.000598501
0.0958695
-0.000114818
0.109875
-0.000560098
0.126884
-0.000829767
0.146918
-0.000870863
0.168623
-0.000703998
0.191064
-0.000789096
0.215016
0.282837
0.00336542
0.0783334
-0.00470832
0.00228496
0.0864104
0.00149111
0.0966634
0.000887765
0.110479
0.000450546
0.127321
0.000139931
0.147229
6.62669e-05
0.168696
-4.48273e-05
0.191175
-0.000301942
0.215273
0.282535
0.00401311
0.0795061
-0.00518578
0.00309009
0.0873334
0.002411
0.0973424
0.00190754
0.110982
0.00151478
0.127714
0.00121256
0.147531
0.000978669
0.16893
0.000746088
0.191408
0.000205601
0.215813
0.28274
0.00466413
0.0804742
-0.00563219
0.00390471
0.0880928
0.00335093
0.0978962
0.00294772
0.111386
0.0026099
0.128052
0.0022911
0.14785
0.00195515
0.169266
0.00152757
0.191836
0.000710637
0.21663
0.283451
0.0052972
0.0811999
-0.00602297
0.00470771
0.0886823
0.00428821
0.0983157
0.00399079
0.111683
0.00371146
0.128331
0.00338275
0.148179
0.00294904
0.1697
0.00232016
0.192464
0.00123775
0.217712
0.284689
0.00590422
0.0816492
-0.00635347
0.00548986
0.0890967
0.00521198
0.0985936
0.00502577
0.111869
0.00481015
0.128547
0.00448122
0.148508
0.00394962
0.170231
0.00312551
0.193289
0.00177473
0.219063
0.286464
0.00645354
0.0818041
-0.00660846
0.00622396
0.0893263
0.00609434
0.0987232
0.00602288
0.111941
0.00587985
0.12869
0.00556051
0.148827
0.00493919
0.170853
0.00392989
0.194298
0.00231322
0.22068
0.288777
0.00692654
0.0816579
-0.00678029
0.00689128
0.0893615
0.00691144
0.0987031
0.00695791
0.111894
0.00689841
0.128749
0.00659705
0.149128
0.00589978
0.17155
0.00471761
0.19548
0.00284361
0.222554
0.29162
0.00730803
0.0812151
-0.00686526
0.00747621
0.0891933
0.0076436
0.0985357
0.00780996
0.111728
0.00784322
0.128716
0.00757351
0.149398
0.00682036
0.172303
0.00548047
0.19682
0.00336314
0.224671
0.294984
0.0075855
0.0804966
-0.00686702
0.00796353
0.0888153
0.00827126
0.0982279
0.00855605
0.111443
0.0086873
0.128585
0.00846162
0.149624
0.00767504
0.17309
0.00619723
0.198298
0.00385752
0.227011
0.298841
0.00775985
0.0795366
-0.00679984
0.00835133
0.0882238
0.0087912
0.0977881
0.00919286
0.111041
0.00942976
0.128348
0.00926485
0.149789
0.00846692
0.173888
0.00687298
0.199892
0.00433123
0.229553
0.303172
0.00781794
0.0784062
-0.00668752
0.00860934
0.0874324
0.00916787
0.0972295
0.00967441
0.110535
0.0100139
0.128008
0.00991932
0.149883
0.00913687
0.17467
0.00746552
0.201563
0.00475725
0.232261
0.30793
0.00786139
0.0771241
-0.00657929
0.00884094
0.0864529
0.00950177
0.0965687
0.0101016
0.109935
0.0105425
0.127567
0.0105255
0.1499
0.00976615
0.175429
0.00802405
0.203305
0.00515898
0.235126
0.313088
0.00756534
0.0760298
-0.00647102
0.00866138
0.0853568
0.00945786
0.0957722
0.0101456
0.109247
0.010697
0.127016
0.0107826
0.149815
0.0101242
0.176088
0.00838257
0.205047
0.00547243
0.238036
0.318561
-0.0431796
0.0696239
0.0495854
-0.0361966
0.0783739
-0.0308402
0.0904158
-0.0257271
0.104134
-0.02079
0.122079
-0.0156894
0.144714
-0.0103328
0.170731
-0.00516111
0.199875
-0.00207606
0.234951
0.316485
-0.0590902
0.0631151
0.0655991
-0.0523326
0.0716163
-0.0458283
0.0839114
-0.0390298
0.0973357
-0.0323221
0.115371
-0.0250965
0.137489
-0.01731
0.162945
-0.00962713
0.192192
-0.00423168
0.229556
0.312253
-0.0764559
0.0563598
0.0832112
-0.0690229
0.0641833
-0.0613018
0.0761903
-0.053188
0.0892218
-0.0449108
0.107094
-0.0354326
0.12801
-0.0250726
0.152585
-0.0146044
0.181724
-0.00623246
0.221184
0.306021
-0.0956142
0.0495871
0.102387
-0.0871961
0.0557652
-0.0786642
0.0676584
-0.0694327
0.0799903
-0.0592435
0.0969048
-0.047134
0.115901
-0.0338924
0.139343
-0.0202601
0.168092
-0.00867814
0.209602
0.297343
-0.11707
0.0417518
0.124905
-0.1086
0.0472949
-0.0995249
0.0585838
-0.0885999
0.0690653
-0.0759559
0.0842608
-0.0610522
0.100997
-0.0447076
0.122999
-0.0273362
0.15072
-0.0117288
0.193994
0.285614
-0.143238
0.0343229
0.150667
-0.133987
0.0380445
-0.123404
0.0480001
-0.110396
0.0560573
-0.0954595
0.0693248
-0.0779198
0.0834573
-0.058235
0.103314
-0.0367345
0.12922
-0.0167491
0.174009
0.268865
-0.173234
0.0251282
0.182428
-0.163605
0.0284159
-0.151612
0.0360075
-0.137287
0.041732
-0.120562
0.0525996
-0.100261
0.0631558
-0.0770409
0.0800942
-0.0512251
0.103404
-0.0249699
0.147754
0.243895
-0.209005
0.0161254
0.218008
-0.198172
0.0175827
-0.184882
0.0227174
-0.16944
0.0262899
-0.150725
0.0338844
-0.128565
0.0409957
-0.10324
0.0547698
-0.0741832
0.0743467
-0.04096
0.114531
0.202935
-0.259863
0.00640911
0.269579
-0.249541
0.00726103
-0.23643
0.0096067
-0.221736
0.0115952
-0.20331
0.0154586
-0.182083
0.0197688
-0.155476
0.0281625
-0.121745
0.0406164
-0.0737681
0.0665534
0.129167
-0.328189
0.334598
-0.320928
-0.311322
-0.299726
-0.284268
-0.264499
-0.236337
-0.19572
-0.129167
0.00285718
0.0519065
-0.00517828
-1.67346e-05
0.068473
-0.00196043
0.0851549
-0.00367961
0.104106
-0.00501581
0.126241
-0.00600469
0.151656
-0.00627312
0.182697
-0.00609606
0.217831
-0.00420706
0.26769
0.330391
0.00296025
0.0538797
-0.0049335
0.000493649
0.0709396
-0.00155463
0.0872032
-0.00329406
0.105846
-0.00466651
0.127614
-0.00565755
0.152647
-0.0060107
0.18305
-0.00584085
0.217661
-0.00408546
0.265935
0.326306
0.00327778
0.0553657
-0.00476375
0.00114237
0.073075
-0.00083239
0.0891779
-0.00251739
0.107531
-0.00388266
0.128979
-0.00487334
0.153637
-0.0053102
0.183487
-0.00516914
0.21752
-0.00374038
0.264506
0.322566
0.00366063
0.0563728
-0.00466773
0.0018331
0.0749026
-6.95135e-05
0.0910806
-0.00160867
0.10907
-0.00292218
0.130292
-0.00393116
0.154646
-0.00443178
0.183987
-0.00441628
0.217505
-0.00329125
0.263381
0.319274
0.00409005
0.0569078
-0.00462502
0.00260188
0.0763907
0.000932933
0.0927495
-0.000630054
0.110633
-0.00187251
0.131535
-0.00289283
0.155667
-0.00346265
0.184557
-0.00360543
0.217648
-0.00277419
0.26255
0.3165
0.00459003
0.0569311
-0.00461336
0.00348381
0.077497
0.00201893
0.0942144
0.00052697
0.112125
-0.000706949
0.132769
-0.00174732
0.156707
-0.00240792
0.185218
-0.00272619
0.217966
-0.00220379
0.262027
0.314296
0.00515901
0.0563847
-0.00461256
0.00447422
0.0781818
0.00322752
0.0954611
0.00187678
0.113475
0.00063074
0.134015
-0.000499232
0.157837
-0.00124316
0.185962
-0.00177306
0.218496
-0.00158651
0.261841
0.31271
0.00577274
0.0552143
-0.00460235
0.00555113
0.0784034
0.00454521
0.096467
0.00331326
0.114707
0.00210787
0.13522
0.000949873
0.158995
7.40592e-05
0.186837
-0.000759105
0.219329
-0.000924022
0.262006
0.311786
0.00639376
0.0533842
-0.00456365
0.00668768
0.0781094
0.00594958
0.0972051
0.00484032
0.115817
0.00366245
0.136398
0.00248606
0.160171
0.00140792
0.187916
0.000331412
0.220405
-0.000209781
0.262547
0.311576
0.00698072
-0.00448447
0.00785374
0.00741737
0.00644092
0.00528434
0.00406635
0.00283137
0.00153845
0.000480887
0.000296874
-0.000865286
0.000987543
-0.00263719
0.00197995
-0.00404509
0.003199
-0.00506735
0.00458709
-0.00573327
0.00610451
-0.0060918
0.00772977
-0.00619683
0.00946328
-0.00609949
0.0113483
-0.00585598
-0.00558682
0.000359163
-0.00122445
0.00114759
-0.00342562
0.00223965
-0.00513715
0.00354001
-0.00636771
0.00498107
-0.00717432
0.0065209
-0.00763163
0.00814014
-0.00781607
0.00983946
-0.00779882
0.0116328
-0.00764933
-0.00745418
0.000410062
-0.00163451
0.00126382
-0.00427938
0.00240073
-0.00627406
0.00370606
-0.00767304
0.00510449
-0.00857275
0.00655369
-0.00908082
0.00803608
-0.00929847
0.00955019
-0.00931292
0.0110978
-0.00919692
-0.0090159
0.000445157
-0.00207967
0.00132395
-0.00515817
0.00244298
-0.0073931
0.00367275
-0.00890281
0.00493609
-0.00983608
0.00619595
-0.0103407
0.0074421
-0.0105446
0.00867889
-0.0105497
0.00991325
-0.0104313
-0.0102467
0.000460471
-0.00254014
0.00131887
-0.00601657
0.00235553
-0.00842976
0.00343463
-0.0099819
0.00448537
-0.0108868
0.00548274
-0.0113381
0.00642899
-0.0114909
0.00733901
-0.0114597
0.00822996
-0.0113222
-0.0111338
0.000452866
-0.002993
0.00124382
-0.00680752
0.00213808
-0.00932403
0.00300445
-0.0108483
0.00378696
-0.0116693
0.00447751
-0.0120286
0.00509268
-0.012106
0.00565772
-0.0120248
0.00619781
-0.0118623
-0.011672
0.000420483
-0.00341349
0.00109902
-0.00748605
0.00180054
-0.0100255
0.00240977
-0.0114575
0.00289185
-0.0121514
0.00325712
-0.0123939
0.00353469
-0.0123836
0.00375645
-0.0122465
0.00395033
-0.0120562
-0.0118613
0.000363091
-0.00377658
0.000889792
-0.00801275
0.00136127
-0.010497
0.00168763
-0.0117839
0.00185793
-0.0123217
0.00189913
-0.0124351
0.00184864
-0.0123331
0.00174013
-0.012138
0.00159918
-0.0119152
-0.0117043
0.000282229
-0.00405881
0.00062585
-0.00835637
0.000844229
-0.0107154
0.000879022
-0.0118187
0.000742413
-0.0121851
0.000473845
-0.0121665
0.000114153
-0.0119734
-0.000305003
-0.0117189
-0.000763212
-0.011457
-0.0112172
0.000180999
-0.00423981
0.000320003
-0.00849538
0.000276014
-0.0106714
2.41953e-05
-0.0115668
-0.000402935
-0.011758
-0.000958914
-0.0116105
-0.00160359
-0.0113287
-0.00231019
-0.0110123
-0.00306365
-0.0107036
-0.0104221
8.4615e-05
-0.00432442
1.65674e-05
-0.00842733
-0.000286852
-0.010368
-0.000811979
-0.0110417
-0.00151028
-0.0110597
-0.0023313
-0.0107895
-0.0032381
-0.0104219
-0.00420909
-0.0100413
-0.00523444
-0.00967821
-0.00934222
-3.62673e-05
-0.00428815
-0.000320716
-0.00814288
-0.000872372
-0.00981634
-0.00164757
-0.0102665
-0.00258683
-0.0101204