/*--------------------------------*- C++ -*----------------------------------*\
  =========                 |
  \\      /  F ield         | OpenFOAM: The Open Source CFD Toolbox
   \\    /   O peration     | Website:  https://openfoam.org
    \\  /    A nd           | Version:  7
     \\/     M anipulation  |
\*---------------------------------------------------------------------------*/
FoamFile
{
    version     2.0;
    format      ascii;
    class       surfaceScalarField;
    location    "3.9";
    object      phi;
}
// * * * * * * * * * * * * * * * * * * * * * * * * * * * * * * * * * * * * * //

dimensions      [0 3 -1 0 0 0 0];

internalField   nonuniform List<scalar> 
63520
(
-1.67878e-05
0.000361315
-0.000344527
-5.65264e-05
0.00104163
-0.00100189
-0.000113488
0.0016899
-0.00163294
-0.000182992
0.00228487
-0.00221536
-0.00026115
0.00282093
-0.00274277
-0.00034462
0.00329962
-0.00321615
-0.000430475
0.00372524
-0.00363938
-0.000516164
0.00410299
-0.0040173
-0.000599455
0.00443789
-0.0043546
-0.000678446
0.00473444
-0.00465545
-0.000751509
0.00499609
-0.00492303
-0.000817261
0.00522546
-0.00515971
-0.000874552
0.0054244
-0.0053671
-0.000922427
0.00559416
-0.00554629
-0.000960087
0.00573565
-0.00569799
-0.000986867
0.00584954
-0.00582276
-0.00100222
0.0059365
-0.00592114
-0.0010057
0.00599722
-0.00599374
-0.000996923
0.00603255
-0.00604132
-0.000975597
0.00604345
-0.00606478
-0.00094148
0.00603109
-0.00606521
-0.000894389
0.00599681
-0.0060439
-0.000834191
0.00594209
-0.00600229
-0.000760792
0.00586854
-0.00594194
-0.000674154
0.00577791
-0.00586455
-0.000574287
0.00567202
-0.00577189
-0.000461249
0.00555274
-0.00566578
-0.000335151
0.00542198
-0.00554808
-0.000196168
0.00528167
-0.00542065
-4.45471e-05
0.00513371
-0.00528533
0.000119385
0.00497999
-0.00514392
0.000295211
0.00482237
-0.00499819
0.000482402
0.00466267
-0.00484986
0.000680295
0.00450267
-0.00470056
0.000888069
0.00434412
-0.00455189
0.00110471
0.00418874
-0.00440538
0.00132895
0.00403821
-0.00426245
0.00155927
0.00389404
-0.00412436
0.00179377
0.00375957
-0.00399407
0.00363927
0.00203016
-0.00387565
-1.62175e-05
0.000377532
-5.45878e-05
0.00108
-0.000109598
0.00174491
-0.000176855
0.00235213
-0.000252679
0.00289675
-0.00033387
0.00338081
-0.000417591
0.00380896
-0.000501358
0.00418675
-0.000582993
0.00451953
-0.000660588
0.00481203
-0.000732508
0.00506801
-0.000797368
0.00529032
-0.000853996
0.00548102
-0.000901415
0.00564158
-0.000938806
0.00577304
-0.000965489
0.00587622
-0.000980887
0.0059519
-0.000984515
0.00600085
-0.000975961
0.00602399
-0.000954888
0.00602238
-0.000921015
0.00599722
-0.00087411
0.00594991
-0.000813991
0.00588197
-0.000740527
0.00579508
-0.000653627
0.00569101
-0.000553251
0.00557164
-0.000439414
0.0054389
-0.000312189
0.00529476
-0.000171717
0.0051412
-1.82128e-05
0.0049802
0.000148026
0.00481375
0.000326603
0.00464379
0.000517006
0.00447226
0.000718585
0.00430109
0.000930525
0.00413218
0.00115181
0.00396746
0.00138115
0.00380887
0.00161696
0.00365823
0.00185728
0.00351925
0.0033969
0.00209964
-1.54914e-05
0.000393023
-5.21148e-05
0.00111662
-0.000104687
0.00179748
-0.000169102
0.00241654
-0.000241899
0.00296955
-0.000320055
0.00345897
-0.000400865
0.00388977
-0.0004819
0.00426779
-0.000561032
0.00459866
-0.000636362
0.00488736
-0.00070627
0.00513792
-0.000769358
0.00535341
-0.00082444
0.0055361
-0.00087052
0.00568766
-0.000906762
0.00580928
-0.000932453
0.00590191
-0.000946991
0.00596643
-0.000949867
0.00600372
-0.000940638
0.00601476
-0.000918929
0.00600067
-0.000884419
0.00596271
-0.000836838
0.00590233
-0.000775964
0.0058211
-0.000701616
0.00572073
-0.000613667
0.00560307
-0.000512043
0.00547002
-0.000396721
0.00532358
-0.000267741
0.00516578
-0.000125209
0.00499866
3.06847e-05
0.00482431
0.000199663
0.00464477
0.000381348
0.0044621
0.000575249
0.00427836
0.000780732
0.0040956
0.000996995
0.00391591
0.00122303
0.00374143
0.00145755
0.00357434
0.00169894
0.00341683
0.00194517
0.00327302
0.00314844
0.00219363
-1.45912e-05
0.000407615
-4.91734e-05
0.00115121
-9.88725e-05
0.00184718
-0.000159888
0.00247756
-0.000229017
0.00303868
-0.000303418
0.00353337
-0.000380519
0.00396687
-0.000457983
0.00434525
-0.00053374
0.00467442
-0.000605916
0.00495954
-0.000672888
0.00520489
-0.000733262
0.00541378
-0.000785845
0.00558869
-0.000829621
0.00573144
-0.00086373
0.00584339
-0.000887446
0.00592563
-0.000900144
0.00597913
-0.000901281
0.00600486
-0.000890388
0.00600387
-0.000867062
0.00597734
-0.000830947
0.0059266
-0.000781737
0.00585312
-0.000719173
0.00575853
-0.000643047
0.00564461
-0.000553197
0.00551322
-0.000449515
0.00536634
-0.000331949
0.00520601
-0.000200513
0.00503434
-5.52968e-05
0.00485345
0.000103532
0.00466548
0.000275715
0.00447259
0.000460892
0.00427693
0.000658588
0.00408067
0.00086819
0.003886
0.00108892
0.00369518
0.0013198
0.00351055
0.00155955
0.00333459
0.00180655
0.00316983
0.00205874
0.00302084
0.0028938
0.00231337
-1.35729e-05
0.000421188
-4.57818e-05
0.00118341
-9.21573e-05
0.00189356
-0.000149221
0.00253462
-0.000214027
0.00310348
-0.000283941
0.00360328
-0.000356548
0.00403947
-0.000429608
0.00441831
-0.000501098
0.00474591
-0.000569195
0.00502763
-0.00063229
0.00526798
-0.000688985
0.00547047
-0.000738076
0.00563778
-0.000778541
0.0057719
-0.000809503
0.00587435
-0.00083021
0.00594634
-0.000840016
0.00598894
-0.00083836
0.0060032
-0.000824749
0.00599026
-0.000798751
0.00595134
-0.000759984
0.00588783
-0.000708115
0.00580125
-0.000642859
0.00569328
-0.00056398
0.00556573
-0.000471291
0.00542053
-0.000364665
0.00525971
-0.00024403
0.00508538
-0.000109385
0.0048997
3.91976e-05
0.00470487
0.00020156
0.00450312
0.000377456
0.00429669
0.000566537
0.00408785
0.000768347
0.00387886
0.000982297
0.00367205
0.00120764
0.00346984
0.00144342
0.00327477
0.00168841
0.0030896
0.00194102
0.00291722
0.00219915
0.00276271
0.00263297
0.00245998
-1.24126e-05
0.0004336
-4.1966e-05
0.00121297
-8.4601e-05
0.00193619
-0.000137183
0.0025872
-0.000197052
0.00316335
-0.000261781
0.00366801
-0.000329117
0.00410681
-0.000396936
0.00448613
-0.000463279
0.00481225
-0.000526369
0.00509073
-0.000584616
0.00532623
-0.000636629
0.00552249
-0.000681206
0.00568236
-0.000717306
0.005808
-0.000744039
0.00590108
-0.000760641
0.00596294
-0.000766446
0.00599474
-0.000760875
0.00599763
-0.000743416
0.0059728
-0.000713619
0.00592155
-0.00067108
0.00584529
-0.000615448
0.00574562
-0.000546417
0.00562425
-0.000463738
0.00548305
-0.000367208
0.005324
-0.000256686
0.00514919
-0.000132093
0.00496078
6.58047e-06
0.00476102
0.000159265
0.00455218
0.000325806
0.00433658
0.000505964
0.00411653
0.000699399
0.00389441
0.000905667
0.00367259
0.0011242
0.00345352
0.00135429
0.00323975
0.00159503
0.00303403
0.00184525
0.00283938
0.00210339
0.00265908
0.00236739
0.00249871
0.00236602
0.00263434
-1.11456e-05
0.000444746
-3.77705e-05
0.00123959
-7.62704e-05
0.00197469
-0.000123871
0.0026348
-0.000178199
0.00321768
-0.000237057
0.00372687
-0.000298362
0.00416811
-0.000360109
0.00454788
-0.000420416
0.00487256
-0.000477558
0.00514787
-0.000529977
0.00537865
-0.00057629
0.0055688
-0.000615292
0.00572136
-0.000645939
0.00583865
-0.000667331
0.00592248
-0.000678689
0.0059743
-0.000679333
0.00599539
-0.000668674
0.00598697
-0.000646188
0.00595031
-0.000611408
0.00588677
-0.00056392
0.0057978
-0.000503361
0.00568506
-0.000429419
0.00555031
-0.000341835
0.00539546
-0.000240405
0.00522257
-0.000124981
0.00503376
4.51195e-06
0.00483129
0.00014808
0.00461745
0.000305648
0.00439461
0.00047706
0.00416516
0.000662071
0.00393152
0.000860341
0.00369614
0.00107144
0.00346149
0.00129481
0.00323014
0.0015298
0.00300477
0.00177553
0.0027883
0.00203092
0.00258399
0.00229449
0.00239551
0.00256422
0.00222898
0.00209307
0.00283717
-9.78829e-06
0.000454534
-3.32449e-05
0.00126305
-6.72443e-05
0.00200869
-0.000109389
0.00267695
-0.000157609
0.0032659
-0.000209938
0.0037792
-0.000264466
0.00422264
-0.000319321
0.00460273
-0.000372712
0.00492595
-0.00042297
0.00519812
-0.000468569
0.00542425
-0.000508146
0.00560838
-0.000540499
0.00575371
-0.000564582
0.00586273
-0.000579489
0.00593738
-0.00058443
0.00597924
-0.000578721
0.00598968
-0.000561765
0.00597002
-0.00053303
0.00592158
-0.000492042
0.00584578
-0.000438384
0.00574415
-0.000371693
0.00561837
-0.000291658
0.00547027
-0.000198022
0.00530183
-9.0586e-05
0.00511513
3.07867e-05
0.00491239
0.000166163
0.00469592
0.000315533
0.00446808
0.00047881
0.00423134
0.000655821
0.00398815
0.000846312
0.00374103
0.00104994
0.00349251
0.00126626
0.00324517
0.00149476
0.00300164
0.00173479
0.00276474
0.00198557
0.00253752
0.00224607
0.00232349
0.00251492
0.00212666
0.00279018
0.00195371
0.00181431
0.00306894
-8.3579e-06
0.000462892
-2.84364e-05
0.00128313
-5.76109e-05
0.00203787
-9.3869e-05
0.0027132
-0.000135449
0.00330748
-0.000180622
0.00382437
-0.000227659
0.00426968
-0.000274829
0.0046499
-0.000320436
0.00497156
-0.000362878
0.00524057
-0.000400672
0.00546204
-0.000432475
0.00564018
-0.000457096
0.00577833
-0.000473492
0.00587913
-0.000480753
0.00594464
-0.000478089
0.00597658
-0.000464813
0.0059764
-0.000440325
0.00594553
-0.000404092
0.00588535
-0.000355644
0.00579733
-0.00029457
0.00568307
-0.000220513
0.00554431
-0.000133175
0.00538293
-3.23113e-05
0.00520096
8.22622e-05
0.00500056
0.000210662
0.00478399
0.000352933
0.00455364
0.000509044
0.00431197
0.000678883
0.0040615
0.000862256
0.00380478
0.00105889
0.0035444
0.00126841
0.00328299
0.0014904
0.00302318
0.00172433
0.00276771
0.00196959
0.00251948
0.00222546
0.00228166
0.00249099
0.00205795
0.00276494
0.00185271
0.00304551
0.00167315
0.00153
0.00332982
-6.87102e-06
0.000469763
-2.33992e-05
0.00129966
-4.74696e-05
0.00206194
-7.74609e-05
0.00274319
-0.000111916
0.00334193
-0.000149351
0.0038618
-0.00018822
0.00430855
-0.000226941
0.00468862
-0.000263925
0.00500854
-0.000297641
0.00527428
-0.000326656
0.00549105
-0.000349656
0.00566318
-0.000365467
0.00579414
-0.000373053
0.00588672
-0.000371509
0.0059431
-0.000360045
0.00596511
-0.00033798
0.00595434
-0.000304718
0.00591227
-0.000259732
0.00584036
-0.000202563
0.00574016
-0.000132815
0.00561332
-5.01502e-05
0.00546165
4.5712e-05
0.00528707
0.000154992
0.00509168
0.000277848
0.0048777
0.000414365
0.00464747
0.000564558
0.00440345
0.000728364
0.00414817
0.000905638
0.00388422
0.00109615
0.00361426
0.0012996
0.00334095
0.00151561
0.00306698
0.00174372
0.00279507
0.00198341
0.00252802
0.00223411
0.00226878
0.00249512
0.00202065
0.00276562
0.00178745
0.00304448
0.00157385
0.00333006
0.00138757
0.00124045
0.00361962
-5.34348e-06
0.000475106
-1.819e-05
0.0013125
-3.69294e-05
0.00208067
-6.03281e-05
0.00276659
-8.72312e-05
0.00336884
-0.000116396
0.00389097
-0.000146471
0.00433862
-0.000176024
0.00471817
-0.000203581
0.0050361
-0.000227694
0.0052984
-0.000246984
0.00551034
-0.000260175
0.00567637
-0.000266115
0.00580008
-0.000263784
0.00588438
-0.000252285
0.0059316
-0.000230841
0.00594367
-0.000198777
0.00592228
-0.000155508
0.005869
-0.000100522
0.00578538
-3.33808e-05
0.00567302
4.62881e-05
0.00553365
0.000138797
0.00536914
0.000244395
0.00518147
0.000363271
0.00497281
0.000495545
0.00474543
0.000641265
0.00450175
0.000800403
0.00424431
0.000972857
0.00397571
0.00115844
0.00369864
0.00135688
0.00341582
0.00156785
0.00312999
0.00179092
0.00284391
0.00202563
0.00256036
0.00227144
0.0022822
0.00252779
0.00201244
0.00279403
0.0017544
0.00306944
0.00151205
0.00335302
0.00129027
0.00364331
0.00109728
0.00094601
0.00393775
-3.79402e-06
0.0004789
-1.28685e-05
0.00132158
-2.61054e-05
0.00209391
-4.26492e-05
0.00278314
-6.16357e-05
0.00338782
-8.20635e-05
0.0039114
-0.000102775
0.00435933
-0.000122496
0.00473789
-0.000139873
0.00505347
-0.000153549
0.00531207
-0.000162208
0.005519
-0.000164619
0.00567878
-0.000159663
0.00579513
-0.00014634
0.00587106
-0.000123769
0.00590903
-9.11898e-05
0.00591109
-4.79444e-05
0.00587903
6.53619e-06
0.00581452
7.27387e-05
0.00571917
0.000151073
0.00559468
0.000241881
0.00544285
0.000345437
0.00526558
0.000461954
0.00506496
0.000591576
0.00484318
0.000734377
0.00460263
0.000890358
0.00434577
0.00105944
0.00407523
0.00124148
0.00379368
0.00143622
0.00350389
0.00164337
0.00320867
0.00186254
0.00291082
0.00209327
0.00261318
0.00233506
0.00231858
0.00258736
0.0020299
0.0028496
0.0017502
0.00312118
0.00148282
0.00340144
0.00123178
0.00368953
0.00100217
0.00398422
0.000802592
0.000647081
0.00428314
-2.24004e-06
0.00048114
-7.49656e-06
0.00132683
-1.51202e-05
0.00210154
-2.46133e-05
0.00279263
-3.53895e-05
0.0033986
-4.66835e-05
0.00392269
-5.75337e-05
0.00437018
-6.68239e-05
0.00474718
-7.33306e-05
0.00505998
-7.5793e-05
0.00531453
-7.29696e-05
0.00551618
-6.36833e-05
0.0056695
-4.68539e-05
0.0057783
-2.15099e-05
0.00584572
1.32027e-05
0.00587432
5.80225e-05
0.00586627
0.000113585
0.00582347
0.000180432
0.00574767
0.000259019
0.00564059
0.000349717
0.00550399
0.00045283
0.00533973
0.000568587
0.00514982
0.000697153
0.00493639
0.000838621
0.00470172
0.000993008
0.00444824
0.00116026
0.00417852
0.00134024
0.00389524
0.00153275
0.00360118
0.00173748
0.00329916
0.00195408
0.00299207
0.00218211
0.00268279
0.00242106
0.00237422
0.00267041
0.00206923
0.00292956
0.00177075
0.00319795
0.00148181
0.00347498
0.00120579
0.00376007
0.000946698
0.0040525
0.000709742
0.00435125
0.000503842
0.00034408
0.00465425
-7.02836e-07
0.000481843
-2.13858e-06
0.00132827
-4.09933e-06
0.0021035
-6.41745e-06
0.00279495
-8.76754e-06
0.00340095
-1.06111e-05
0.00392453
-1.11794e-05
0.00437075
-9.5182e-06
0.00474552
-4.53808e-06
0.005055
4.91631e-06
0.00530508
2.00039e-05
0.00550109
4.18389e-05
0.00564766
7.14531e-05
0.00574868
0.00010978
0.00580739
0.000157639
0.00582646
0.000215741
0.00580817
0.000284688
0.00575452
0.000364989
0.00566737
0.000457056
0.00554852
0.000561219
0.00539982
0.00067773
0.00522322
0.000806768
0.00502078
0.00094844
0.00479472
0.00110278
0.00454738
0.00126974
0.00428128
0.0014492
0.00399906
0.00164097
0.00370347
0.00184478
0.00339737
0.00206026
0.00308368
0.002287
0.00276533
0.00252451
0.00244529
0.00277223
0.00212649
0.00302959
0.00181188
0.00329595
0.00150438
0.00357073
0.00120704
0.00385333
0.000923183
0.00414323
0.0006568
0.00443983
0.00041314
0.00474233
0.000201347
3.74389e-05
0.00504897
8.06256e-07
0.000481036
3.14123e-06
0.00132593
6.82895e-06
0.00209981
1.17353e-05
0.00279004
1.79446e-05
0.00339474
2.57817e-05
0.0039167
3.5827e-05
0.00436071
4.88726e-05
0.00473248
6.5869e-05
0.005038
8.78586e-05
0.00528309
0.000115909
0.00547304
0.00015106
0.00561251
0.000194289
0.00570546
0.000246478
0.0057552
0.000308408
0.00576453
0.000380747
0.00573583
0.000464061
0.00567121
0.000558813
0.00557262
0.000665367
0.00544196
0.000784001
0.00528119
0.000914911
0.00509231
0.00105821
0.00487748
0.00121395
0.00463898
0.00138209
0.00437924
0.00156252
0.00410085
0.00175505
0.00380653
0.00195941
0.00349911
0.00217526
0.00318152
0.00240218
0.00285675
0.00263969
0.00252782
0.00288724
0.00219774
0.00314422
0.00186951
0.00340999
0.00154611
0.00368389
0.00123048
0.00396529
0.00092564
0.0042536
0.000634874
0.00454831
0.000362092
0.00484893
0.000112519
0.00515487
-0.000104591
-0.00027241
0.00546472
2.25958e-06
0.000478777
8.27835e-06
0.00131991
1.75372e-05
0.00209055
2.96406e-05
0.00277794
4.4456e-05
0.00337992
6.21114e-05
0.00389904
8.30063e-05
0.00433981
0.000107771
0.00470771
0.000137215
0.00500856
0.00017226
0.00524804
0.000213873
0.00543143
0.000263012
0.00556337
0.000320585
0.00564788
0.000387419
0.00568837
0.000464241
0.00568771
0.000551673
0.0056484
0.00065023
0.00557265
0.000760323
0.00546252
0.000882262
0.00532003
0.00101626
0.00514719
0.00116246
0.00494612
0.0013209
0.00471904
0.00149155
0.00446832
0.00167432
0.00419648
0.001869
0.00390617
0.00207533
0.0036002
0.00229298
0.00328146
0.00252153
0.00295298
0.00276049
0.00261779
0.00300931
0.002279
0.00326738
0.00193967
0.00353403
0.00160286
0.00380858
0.00127156
0.00409031
0.000948749
0.00437854
0.000637409
0.00467266
0.000340749
0.00497218
6.25721e-05
0.00527669
-0.000191989
0.00558578
-0.000413685
-0.000585041
0.00589841
3.64218e-06
0.000475134
1.32104e-05
0.00131035
2.78999e-05
0.00207586
4.70955e-05
0.00275874
7.04755e-05
0.00335654
9.799e-05
0.00387153
0.000129868
0.00430793
0.000166582
0.004671
0.000208795
0.00496634
0.000257306
0.00519953
0.000312971
0.00537576
0.000376657
0.00549968
0.000449193
0.00557535
0.000531338
0.00560622
0.000623758
0.00559529
0.000727017
0.00554514
0.000841573
0.00545809
0.000967774
0.00533632
0.00110587
0.00518193
0.001256
0.00499705
0.00141824
0.00478388
0.00159256
0.00454472
0.00177885
0.00428203
0.00197693
0.0039984
0.00218653
0.00369658
0.00240729
0.00337943
0.00263881
0.00304994
0.0028806
0.00271119
0.00313209
0.0023663
0.00339267
0.00201842
0.00366166
0.00167068
0.00393834
0.00132619
0.00422194
0.000987957
0.00451172
0.000658968
0.00480695
0.000342182
0.00510698
4.07189e-05
0.00541131
-0.000241755
0.00571958
-0.000500261
0.00603156
-0.000725668
-0.000900045
0.00634657
4.93607e-06
0.000470198
1.7878e-05
0.0012974
3.7797e-05
0.00205594
6.39034e-05
0.00273264
9.57173e-05
0.00332473
0.000133033
0.00383421
0.000175921
0.00426505
0.0002247
0.00462222
0.000279889
0.00491115
0.000342156
0.00513727
0.00041224
0.00530568
0.000490907
0.00542102
0.000578899
0.00548736
0.000676894
0.00550823
0.000785487
0.00548669
0.000905176
0.00542545
0.00103635
0.00532692
0.00117929
0.00519339
0.00133416
0.00502706
0.00150106
0.00483016
0.00167996
0.00460498
0.00187076
0.00435392
0.00207327
0.00407952
0.00228721
0.00378445
0.00251225
0.00347154
0.00274794
0.00314373
0.0029938
0.00280408
0.00324925
0.00245574
0.00351366
0.00210189
0.00378635
0.00174573
0.00406656
0.00139047
0.00435352
0.00103923
0.0046464
0.000695072
0.0049444
0.000360967
0.00524674
3.98437e-05
0.00555273
-0.000265269
0.00586184
-0.000550865
0.00617375
-0.000812174
0.00648837
-0.00104029
-0.00121702
0.00680535
6.12498e-06
0.000464073
2.2226e-05
0.0012813
4.71159e-05
0.00203105
7.9878e-05
0.00269987
0.000119908
0.0032847
0.000166868
0.00378725
0.000220684
0.00421123
0.000281528
0.00456138
0.000349777
0.0048429
0.000425962
0.00506108
0.000510701
0.00522094
0.00060465
0.00532707
0.000708451
0.00538355
0.000822695
0.00539398
0.000947895
0.00536149
0.00108447
0.00528887
0.00123273
0.00517866
0.00139289
0.00503323
0.00156503
0.00485491
0.00174917
0.00464602
0.00194519
0.00440895
0.00215292
0.00414619
0.00237208
0.00386036
0.00260231
0.00355423
0.00284317
0.00323068
0.00309416
0.00289274
0.00335469
0.00254355
0.00362411
0.00218632
0.00390172
0.00182428
0.00418675
0.0014607
0.0044784
0.00109883
0.0047758
0.000741825
0.0050781
0.000392778
0.00538441
5.46545e-05
0.00569391
-0.000269655
0.00600586
-0.000577218
0.0063197
-0.000864704
0.00663511
-0.00112759
0.00695212
-0.00135729
-0.00153559
0.00727068
7.19433e-06
0.000456879
2.62052e-05
0.00126229
5.57545e-05
0.0020015
9.48481e-05
0.00266078
0.000142793
0.00323675
0.000199144
0.0037309
0.000263698
0.00414668
0.000336489
0.00448859
0.000417755
0.00476164
0.000507888
0.00497095
0.000607381
0.00512145
0.00071677
0.00521768
0.000836591
0.00526373
0.000967335
0.00526324
0.00110942
0.0052194
0.00126319
0.00513511
0.00142886
0.00501299
0.00160656
0.00485553
0.0017963
0.00466517
0.00199799
0.00444433
0.00221146
0.00419548
0.00243642
0.00392123
0.00267252
0.00362427
0.0029193
0.00330744
0.00317625
0.00297373
0.00344277
0.00262623
0.00371818
0.00226814
0.00400177
0.00190273
0.00429275
0.0015333
0.00459027
0.00116318
0.00489346
0.000795639
0.00520139
0.000433891
0.00551314
8.10281e-05
0.00582778
-0.000259983
0.00614442
-0.000586293
0.00646227
-0.000895068
0.00678073
-0.00118316
0.00709948
-0.00144634
0.0074186
-0.00167641
-0.00185536
0.00773837
8.13174e-06
0.000448747
2.97733e-05
0.00124065
6.36237e-05
0.00196765
0.000108662
0.00261574
0.000164144
0.00318127
0.000229539
0.00366551
0.000304536
0.00407168
0.00038904
0.00440408
0.000483154
0.00466752
0.000587133
0.00486697
0.000701338
0.00500724
0.000826182
0.00509284
0.000962084
0.00512783
0.00110943
0.00511589
0.00126854
0.0050603
0.00143964
0.004964
0.00162288
0.00482975
0.00181829
0.00466012
0.0020258
0.00445766
0.00224523
0.0042249
0.0024763
0.00396441
0.00271866
0.00367887
0.00297184
0.00337108
0.00323532
0.00304396
0.00350849
0.00270056
0.00379065
0.00234407
0.00408105
0.00197773
0.00437889
0.00160489
0.0046833
0.0012289
0.00499335
0.000853124
0.00530809
0.000480894
0.00562654
0.000115439
0.00594771
-0.000240134
0.00627059
-0.000582869
0.00659426
-0.000909963
0.00691788
-0.00121868
0.00724078
-0.00150607
0.00756265
-0.0017682
0.0078836
-0.00199737
-0.00217592
0.00820416
8.92746e-06
0.000439819
3.28959e-05
0.00121668
7.06498e-05
0.0019299
0.000121193
0.0025652
0.000183762
0.0031187
0.000257772
0.0035915
0.000342817
0.00398663
0.00043869
0.00430821
0.000545363
0.00456085
0.000662955
0.00474938
0.000791694
0.0048785
0.000931864
0.00495267
0.00108376
0.00497594
0.00124766
0.004952
0.00142376
0.00488419
0.00161221
0.00477556
0.00181303
0.00462892
0.00202618
0.00444698
0.00225148
0.00423236
0.00248867
0.00398771
0.00273738
0.0037157
0.00299715
0.0034191
0.00326745
0.00310078
0.00354765
0.00276376
0.00383704
0.00241117
0.00413485
0.00204626
0.00444024
0.00167234
0.00475232
0.00129281
0.00507012
0.000911095
0.00539265
0.000530595
0.00571887
0.000154671
0.00604773
-0.000213421
0.00637816
-0.000570569
0.00670913
-0.000913834
0.00703963
-0.00124046
0.00736877
-0.00154783
0.00769587
-0.00183317
0.00802055
-0.00209288
0.00834298
-0.00231979
-0.00249685
0.0086639
9.57467e-06
0.000430245
3.55479e-05
0.00119071
7.67771e-05
0.00188867
0.000132339
0.00250964
0.000201489
0.00304955
0.000283609
0.00350938
0.000378222
0.00389202
0.000485017
0.00420141
0.000603845
0.00444202
0.000734695
0.00461853
0.000877659
0.00473554
0.00103289
0.00479743
0.00120056
0.00480827
0.00138081
0.00477175
0.00157374
0.00469126
0.00177938
0.00456992
0.00199767
0.00441063
0.00222844
0.00421621
0.00247143
0.00398937
0.00272628
0.00373286
0.00299253
0.00344945
0.00326964
0.00314199
0.00355696
0.00281346
0.00385379
0.00246693
0.00415933
0.00210564
0.0044727
0.00173288
0.00479298
0.00135206
0.00511918
0.000966614
0.00545025
0.000580023
0.00578511
0.000195738
0.00612263
-0.000182853
0.00646169
-0.000552481
0.00680116
-0.000910033
0.00713992
-0.0012526
0.00747694
-0.00157748
0.00781127
-0.00188216
0.0081422
-0.00216409
0.00846931
-0.00241999
0.00879279
-0.00264328
-0.00281765
0.00911359
1.00698e-05
0.000420175
3.7714e-05
0.00116306
8.19699e-05
0.00184441
0.000142034
0.00244957
0.00021721
0.00297438
0.000306875
0.00341971
0.000410499
0.0037884
0.000527682
0.00408423
0.000658162
0.00431154
0.000801803
0.00447489
0.000958565
0.00457878
0.00112847
0.00462753
0.00131155
0.00462519
0.00150784
0.00457546
0.00171731
0.00448179
0.00193987
0.00434735
0.00217536
0.00417514
0.00242352
0.00396805
0.00268398
0.00372891
0.00295628
0.00346055
0.00323989
0.00316585
0.00353414
0.00284774
0.00383832
0.00250928
0.00415161
0.00215364
0.00447312
0.00178413
0.00480188
0.00140412
0.00513688
0.00101706
0.00547701
0.000626484
0.00582113
0.000235898
0.00616807
-0.000151199
0.00651661
-0.000531398
0.00686555
-0.000901419
0.00721368
-0.00125816
0.00755984
-0.00159876
0.00790294
-0.00192058
0.008242
-0.00222123
0.00857627
-0.00249836
0.00890532
-0.00274904
0.00922935
-0.0029673
-0.00313778
0.00954948
1.04125e-05
0.000409762
3.93903e-05
0.00113409
8.62144e-05
0.00179759
0.000150243
0.00238554
0.00023086
0.00289376
0.00032746
0.00332311
0.000439479
0.00367638
0.000566443
0.00395727
0.00070799
0.00417
0.000863863
0.00431902
0.00103389
0.00440875
0.00121797
0.00444345
0.00141601
0.00442715
0.0016279
0.00436357
0.0018535
0.00425619
0.00209261
0.00410824
0.00234496
0.0039228
0.00261017
0.00370284
0.00288779
0.00345129
0.00317726
0.00317108
0.00347794
0.00286517
0.00378908
0.00253659
0.00410987
0.00218849
0.00443938
0.00182413
0.00477662
0.00144688
0.00512054
0.0010602
0.00546998
0.000667619
0.00582376
0.000272706
0.00618062
-0.000120965
0.00653929
-0.000509864
0.00689845
-0.000890564
0.00725682
-0.00125979
0.00761312
-0.00161446
0.00796614
-0.00195177
0.00831474
-0.00226918
0.00865792
-0.00256441
0.00899492
-0.00283535
0.00932529
-0.00307941
0.00964926
-0.00329127
-0.00345661
0.00996809
1.06058e-05
0.000399156
4.05844e-05
0.00110411
8.95199e-05
0.00174865
0.000156969
0.0023181
0.000242426
0.0028083
0.000345323
0.00322022
0.000465082
0.00355662
0.000601171
0.00382118
0.000753135
0.00401803
0.000920611
0.00415154
0.00110331
0.00422605
0.00130099
0.00424577
0.00151343
0.00421471
0.0017404
0.0041366
0.00198165
0.00401494
0.00223685
0.00385303
0.00250562
0.00365402
0.00278749
0.00342097
0.0030819
0.00315689
0.00338819
0.00286479
0.00370561
0.00254774
0.00403334
0.00220887
0.00437043
0.0018514
0.00471587
0.0014787
0.00506855
0.0010942
0.00542729
0.000701458
0.00579084
0.000304066
0.00615789
-9.4341e-05
0.00652707
-0.000490141
0.00689698
-0.000879778
0.00726623
-0.00125982
0.00763344
-0.00162699
0.00799726
-0.00197829
0.00835643
-0.00231094
0.00870979
-0.00262254
0.00905634
-0.00291096
0.0093953
-0.00317431
0.00972625
-0.00341037
0.0100494
-0.00361445
-0.00377345
0.0103663
1.06558e-05
0.0003885
4.13155e-05
0.00107345
9.19189e-05
0.00169805
0.000162255
0.00224776
0.000251951
0.00271861
0.000360501
0.00311167
0.000487328
0.00342979
0.000631855
0.00367665
0.000793552
0.00385634
0.000971955
0.00397314
0.00116666
0.00403135
0.0013773
0.00403513
0.00160354
0.00398847
0.00184503
0.00389511
0.00210138
0.00375859
0.00237218
0.00358224
0.0026569
0.00336929
0.00295499
0.00312288
0.00326578
0.0028461
0.0035885
0.00254207
0.00392232
0.00221393
0.00426627
0.00186491
0.00461932
0.00149835
0.00498034
0.00111768
0.00534809
0.000726451
0.00572127
0.000328279
0.0060985
-7.31586e-05
0.00647832
-0.000474165
0.00685926
-0.000871078
0.0072398
-0.00126032
0.00761844
-0.00163846
0.00799372
-0.00200228
0.00836424
-0.0023488
0.00872869
-0.00267539
0.00908591
-0.00297975
0.00943489
-0.00325995
0.0097749
-0.00351432
0.0101056
-0.00374101
0.0104271
-0.00393602
-0.00408753
0.0107412
1.05722e-05
0.000377928
4.16145e-05
0.0010424
9.34672e-05
0.00164619
0.000166179
0.00217505
0.000259536
0.00262525
0.000373108
0.0029981
0.000506335
0.00329657
0.000658613
0.00352437
0.000829347
0.0036856
0.00101799
0.0037845
0.00122402
0.00382531
0.00144698
0.00381218
0.00168639
0.00374906
0.0019418
0.00363971
0.0022127
0.00348769
0.00249855
0.00329639
0.00279875
0.0030691
0.00311261
0.00280902
0.00343935
0.00251936
0.00377811
0.00220331
0.00412793
0.00186411
0.00448775
0.0015051
0.00485638
0.00112971
0.00523257
0.000741489
0.00561496
0.000344067
0.00600208
-5.88476e-05
0.00639243
-0.000463501
0.0067844
-0.000866139
0.00717639
-0.00126306
0.00756676
-0.00165069
0.00795392
-0.00202562
0.00833632
-0.00238468
0.00871252
-0.002725
0.00908119
-0.00304406
0.00944117
-0.00333974
0.00979151
-0.00361029
0.0101315
-0.00385432
0.0104609
-0.00407035
0.0107799
-0.00425505
-0.00439799
0.0110904
1.0368e-05
0.00036756
4.15236e-05
0.00101125
9.42437e-05
0.00159347
0.000168862
0.00210043
0.000265338
0.00252877
0.000383335
0.0028801
0.000522325
0.00315758
0.00068169
0.00336501
0.000860787
0.00350651
0.00105899
0.0035863
0.00127569
0.00360861
0.00151031
0.00357755
0.00176228
0.00349709
0.00203103
0.00337097
0.00231593
0.00320278
0.00261634
0.00299598
0.00293153
0.0027539
0.00326072
0.00247984
0.003603
0.00217707
0.00395741
0.0018489
0.00432284
0.00149867
0.00469811
0.00112983
0.0050819
0.000745922
0.00547279
0.000350595
0.00586927
-5.24156e-05
0.00626974
-0.00045931
0.0066725
-0.000866262
0.00707583
-0.00126947
0.00747797
-0.00166521
0.00787719
-0.00204991
0.00827178
-0.00242022
0.00866015
-0.00277305
0.00904081
-0.00310566
0.00941245
-0.0034157
0.00977395
-0.00370123
0.0101244
-0.00396075
0.0104632
-0.00419312
0.0107901
-0.00439728
0.0111056
-0.00457054
-0.00470396
0.0114116
1.00598e-05
0.0003575
4.10953e-05
0.000980213
9.43486e-05
0.00154022
0.000170456
0.00202432
0.000269568
0.00242966
0.000391448
0.00275822
0.000535617
0.00301341
0.000701457
0.00319917
0.00088829
0.00331967
0.00109542
0.00337916
0.00132217
0.00338186
0.00156786
0.00333187
0.00183182
0.00323313
0.00211335
0.00308943
0.00241175
0.00290438
0.00272625
0.00268148
0.00305601
0.00242414
0.00340011
0.00213574
0.00375754
0.00181964
0.00412719
0.00147925
0.00450783
0.00111803
0.0048981
0.000739555
0.00529655
0.000347478
0.00570158
-5.44324e-05
0.0061115
-0.000462338
0.00652453
-0.000872348
0.00693884
-0.00128057
0.00735253
-0.00168316
0.00776373
-0.0020764
0.00817058
-0.00245676
0.00857131
-0.00282095
0.00896428
-0.00316602
0.009348
-0.00348939
0.00972119
-0.00378889
0.0100828
-0.00406283
0.010432
-0.00430995
0.0107683
-0.00452944
0.0110916
-0.00472061
0.0114025
-0.00488145
-0.00500453
0.0117031
9.66718e-06
0.000347832
4.03919e-05
0.000949488
9.3902e-05
0.00148671
0.000171151
0.00194707
0.000272484
0.00232833
0.000397782
0.00263292
0.000546624
0.00286457
0.000718404
0.00302739
0.000912422
0.00312566
0.00112793
0.00316365
0.00136418
0.00314561
0.00162041
0.00307564
0.00189585
0.00295769
0.00218972
0.00279557
0.00250117
0.00259292
0.00282935
0.00235331
0.00317328
0.00208021
0.00353192
0.0017771
0.00390411
0.00144744
0.00428861
0.00109476
0.004684
0.000722638
0.00508878
0.000334779
0.00550128
-6.50255e-05
0.00591974
-0.000472894
0.00634229
-0.000884879
0.00676695
-0.00129701
0.00719171
-0.00170534
0.00761456
-0.002106
0.00803347
-0.00249531
0.00844651
-0.0028698
0.00885186
-0.0032263
0.00924787
-0.00356203
0.00963307
-0.00387459
0.0100062
-0.00416206
0.0103664
-0.00442301
0.0107129
-0.00465647
0.0110454
-0.00486194
0.011364
-0.00503913
0.0116692
-0.00518672
-0.00529882
0.0119635
9.21211e-06
0.00033862
3.94838e-05
0.000919216
9.3041e-05
0.00143315
0.00017116
0.00186895
0.000274389
0.0022251
0.000402733
0.00250458
0.000555836
0.00271146
0.00073312
0.00285011
0.000933873
0.0029249
0.00115731
0.00294022
0.00140262
0.0029003
0.00166896
0.00280929
0.00195548
0.00267117
0.00226129
0.00248976
0.00258545
0.00226876
0.00292696
0.0020118
0.00328472
0.00172245
0.00365755
0.00140427
0.00404414
0.00106086
0.00444304
0.000695852
0.00485268
0.000312994
0.00527135
-8.38867e-05
0.00569718
-0.000490859
0.00612821
-0.00090392
0.00656235
-0.00131902
0.00699747
-0.00173212