/*--------------------------------*- C++ -*----------------------------------*\
  =========                 |
  \\      /  F ield         | OpenFOAM: The Open Source CFD Toolbox
   \\    /   O peration     | Website:  https://openfoam.org
    \\  /    A nd           | Version:  7
     \\/     M anipulation  |
\*---------------------------------------------------------------------------*/
FoamFile
{
    version     2.0;
    format      ascii;
    class       volScalarField;
    location    "72";
    object      p;
}
// * * * * * * * * * * * * * * * * * * * * * * * * * * * * * * * * * * * * * //

dimensions      [0 2 -2 0 0 0 0];

internalField   nonuniform List<scalar> 
2000
(
0.0115843
0.0117067
0.0119309
0.0121991
0.0124719
0.0127266
0.0129518
0.0131451
0.0133091
0.0134519
0.0116722
0.0118312
0.0120747
0.0123657
0.0126621
0.0129387
0.0131805
0.0133818
0.0135422
0.0136595
0.0117234
0.0119334
0.0121967
0.0125097
0.0128275
0.0131231
0.0133795
0.0135887
0.0137484
0.013843
0.011742
0.0120136
0.0122989
0.0126317
0.0129667
0.0132765
0.013543
0.0137571
0.013917
0.0139911
0.0117332
0.0120777
0.0123846
0.0127336
0.0130799
0.0133965
0.0136658
0.0138789
0.0140365
0.0140916
0.0117061
0.0121319
0.0124588
0.0128188
0.0131684
0.0134823
0.0137444
0.0139475
0.0140966
0.0141327
0.0116728
0.0121838
0.0125274
0.0128917
0.0132351
0.0135351
0.0137784
0.0139599
0.0140907
0.0141048
0.0116475
0.0122419
0.0125972
0.0129577
0.0132846
0.0135587
0.0137708
0.0139188
0.0140209
0.0140092
0.0116458
0.0123152
0.0126756
0.013023
0.0133223
0.0135589
0.0137285
0.0138345
0.0139036
0.0138673
0.0116841
0.0124134
0.0127707
0.0130947
0.0133553
0.0135428
0.0136597
0.0137166
0.0137517
0.0137041
0.0138209
0.0150827
0.01685
0.0192364
0.0216928
0.0244356
0.0264884
0.0290656
0.0295815
0.0311671
0.0138932
0.0149379
0.0163687
0.0185019
0.0207475
0.0233115
0.0252193
0.0276356
0.0282305
0.0296214
0.0139182
0.0148111
0.0159006
0.0177882
0.0198365
0.0222355
0.0240127
0.0263058
0.0269156
0.0281914
0.013885
0.0146934
0.0154478
0.0171005
0.0189621
0.0212062
0.022871
0.0250565
0.025655
0.0268741
0.0137869
0.0145667
0.0150124
0.0164428
0.0181273
0.020227
0.0217959
0.0238855
0.0244753
0.0256649
0.0136233
0.0144066
0.0145952
0.0158169
0.0173326
0.0192947
0.0207753
0.0227743
0.023362
0.0245436
0.0134041
0.0141892
0.0141948
0.0152231
0.016584
0.0184202
0.0198253
0.021745
0.022338
0.0235143
0.0131415
0.013891
0.0138054
0.0146568
0.0158672
0.0175747
0.0189053
0.0207427
0.0213481
0.0225511
0.0128345
0.0134837
0.0134031
0.0141351
0.0152347
0.0168289
0.0180991
0.019854
0.0204661
0.0216745
0.0126119
0.0131125
0.0130034
0.0135685
0.0145311
0.0159987
0.0172174
0.0188845
0.019552
0.0208262
0.013393
0.0138678
0.0139143
0.0140404
0.014461
0.0153407
0.0162491
0.0174622
0.0180667
0.019008
0.0108636
0.0113707
0.0117081
0.0121022
0.0126357
0.0133935
0.0141566
0.0150692
0.015541
0.0161487
0.00884942
0.00938598
0.00972867
0.0100789
0.0105655
0.0112532
0.0119212
0.0126893
0.0130534
0.0134923
0.00680471
0.00744307
0.00791805
0.00829154
0.00871627
0.00930021
0.00985888
0.010502
0.0107779
0.0111211
0.00482007
0.00552935
0.00616249
0.00664951
0.00707387
0.00757207
0.00802776
0.00855171
0.00875696
0.00903415
0.0030403
0.00376685
0.00450389
0.00509523
0.00556596
0.00603216
0.00641962
0.00684319
0.00699064
0.00719811
0.0015803
0.00227823
0.00305412
0.00367611
0.00415006
0.00458041
0.00491451
0.00526328
0.00537126
0.00552707
0.000504595
0.00109895
0.0018356
0.00243947
0.00287589
0.00324106
0.0035073
0.00378525
0.00385202
0.00395511
-9.71053e-05
0.000336397
0.000922015
0.00138647
0.00169524
0.00194308
0.00211091
0.00231203
0.00233578
0.00240437
-0.000770728
-0.000247358
0.000203694
0.000491882
0.000630095
0.000725135
0.000766671
0.000864303
0.000831568
0.000843798
0.0127078
0.0103999
0.00840105
0.00636878
0.00444614
0.00273101
0.00134596
0.000314946
-0.000146034
-0.00087768
0.0122539
0.0100087
0.0080299
0.00603763
0.00417783
0.00252973
0.00121411
0.000238922
-0.00016441
-0.000807037
0.0117686
0.00964422
0.00769484
0.00575134
0.0039527
0.00236941
0.00111793
0.000204652
-0.000167503
-0.000687313
0.0113681
0.00937356
0.00744863
0.00555073
0.00380609
0.00227843
0.0010807
0.000215107
-0.000140862
-0.000560882
0.0110706
0.00918146
0.00727649
0.00541795
0.00372361
0.00224474
0.00109127
0.000262626
-8.92083e-05
-0.000437292
0.0108893
0.00906771
0.00717763
0.00535197
0.00369979
0.00226198
0.00114362
0.000341525
-1.83778e-05
-0.000320625
0.0108332
0.00902969
0.0071526
0.00534967
0.00373207
0.00232648
0.00123321
0.000446528
6.71218e-05
-0.00021401
0.0108986
0.00906522
0.00719735
0.00540702
0.00381556
0.00243288
0.00135445
0.000572083
0.000163229
-0.000118795
0.0110661
0.00916974
0.00730598
0.00551824
0.00394403
0.00257491
0.00150136
0.00071286
0.000266272
-3.47452e-05
0.0113172
0.00933543
0.00747035
0.00567604
0.00411032
0.00274593
0.00166794
0.000864092
0.000373188
3.92513e-05
0.0116281
0.00954907
0.0076787
0.00587084
0.0043059
0.00293885
0.00184838
0.00102162
0.000481547
0.000104569
0.0119808
0.00979958
0.00792161
0.00609543
0.00452407
0.00314813
0.00203814
0.00118236
0.000589682
0.000162521
0.0123635
0.0100808
0.00819276
0.00634539
0.00476023
0.00336994
0.00223405
0.00134427
0.000696609
0.000214373
0.0127648
0.0103873
0.0084855
0.00661629
0.00501008
0.0036009
0.0024336
0.00150593
0.000801798
0.000261196
0.0131756
0.0107152
0.00879416
0.00690444
0.00527024
0.00383832
0.00263501
0.00166645
0.000905047
0.000303869
0.0135883
0.0110626
0.00911379
0.0072065
0.00553801
0.00408006
0.002837
0.00182527
0.00100637
0.000343125
0.0139921
0.0114248
0.00943871
0.0075184
0.00581087
0.00432413
0.00303864
0.00198206
0.00110593
0.000379628
0.0143801
0.0118062
0.00977195
0.00784218
0.00609091
0.00457178
0.00324094
0.00213758
0.00120437
0.000414092
0.0147871
0.0122521
0.0101431
0.00819799
0.00639256
0.004832
0.0034493
0.00229481
0.00130319
0.000446814
0.0151162
0.0126981
0.0105062
0.0085455
0.00669046
0.00508515
0.00365234
0.00244682
0.00139948
0.000475681
0.0146837
0.0129719
0.0109261
0.00903353
0.00719073
0.0055414
0.00405155
0.00275758
0.00160557
0.000543108
0.0146712
0.0129847
0.0110253
0.00923767
0.00745154
0.0058401
0.00434329
0.00301518
0.00179046
0.000622349
0.015116
0.0133878
0.0113957
0.00961544
0.00780969
0.00617706
0.00463515
0.00325737
0.00196478
0.000705483
0.0158383
0.013947
0.0118655
0.0100377
0.00818221
0.00650699
0.00491012
0.00348517
0.00213895
0.000801542
0.0168489
0.0146984
0.0124722
0.0105362
0.0085959
0.00684953
0.00518734
0.00371638
0.00232567
0.000913288
0.0180966
0.0156318
0.0132186
0.0111176
0.00906284
0.0072182
0.00548254
0.00395841
0.00252137
0.00102626
0.0194537
0.0166675
0.0140498
0.0117517
0.00956726
0.00760852
0.00579502
0.00420142
0.00269367
0.00109797
0.0207468
0.0176575
0.0148427
0.0123557
0.0100528
0.00798842
0.00609924
0.00441378
0.00280155
0.00109902
0.0217721
0.0184345
0.0154617
0.0128303
0.0104405
0.00829834
0.00634517
0.00456353
0.00283818
0.00104904
0.0223607
0.0188576
0.0157906
0.0130839
0.0106527
0.00847277
0.00648375
0.00463911
0.00283946
0.00100277
0.0159755
0.0160109
0.0165329
0.0173596
0.0185158
0.0199058
0.0214271
0.0229155
0.0241448
0.0248711
0.0162487
0.0164934
0.0171407
0.0180823
0.0193509
0.0208334
0.0224311
0.0239719
0.0252288
0.0259601
0.0163437
0.0168414
0.0176855
0.0188147
0.0202518
0.021879
0.0235892
0.0251852
0.0264373
0.0271368
0.0165017
0.0171904
0.0181979
0.0194987
0.0210916
0.022865
0.0247066
0.0263964
0.0276919
0.0284022
0.0167271
0.0176075
0.0187589
0.0202071
0.0219317
0.0238324
0.0257979
0.0275967
0.028972
0.029731
0.0169759
0.01807
0.0193826
0.0209796
0.022833
0.0248534
0.0269317
0.0288332
0.0302922
0.0311081
0.017242
0.0185556
0.0200521
0.0218105
0.0238044
0.0259523
0.0281432
0.0301394
0.031671
0.032534
0.017536
0.019064
0.0207583
0.0226855
0.0248322
0.0271198
0.0294309
0.0315217
0.0331171
0.034015
0.0178649
0.0195987
0.0215015
0.0235983
0.0259061
0.028342
0.0307823
0.0329726
0.0346303
0.035556
0.018231
0.0201576
0.022282
0.0245455
0.0270218
0.0296113
0.0321881
0.0344845
0.0362076
0.0371586
0.018637
0.0207332
0.023097
0.0255216
0.0281761
0.0309237
0.0336443
0.0360538
0.0378472
0.0388233
0.0190803
0.0213161
0.0239397
0.0265176
0.0293629
0.0322738
0.0351476
0.0376782
0.0395482
0.0405503
0.0195454
0.0218996
0.0247945
0.0275255
0.0305735
0.0336575
0.0366957
0.0393565
0.0413128
0.042343
0.020006
0.0224834
0.0256406
0.0285412
0.031796
0.0350688
0.0382837
0.0410866
0.0431448
0.0442095
0.0204199
0.0230702
0.0264403
0.0295765
0.0330261
0.0365041
0.039909
0.0428673
0.0450367
0.0461426
0.0207644
0.0236534
0.0272126
0.0305797
0.0342411
0.0379431
0.0415568
0.0446886
0.0469818
0.0481389
0.0210395
0.0242
0.0279395
0.0315361
0.0354308
0.0393785
0.0432234
0.046549
0.0489812
0.0502022
0.0212112
0.02469
0.0285938
0.0324296
0.0365694
0.0407815
0.0448825
0.0484298
0.0510259
0.0523305
0.0212581
0.0251316
0.029188
0.0332836
0.0376853
0.0421831
0.0465594
0.0503469
0.0531246
0.0545338
0.021047
0.0253898
0.0295836
0.0339282
0.0385902
0.0433987
0.0481044
0.0522053
0.0552324
0.0567933
0.0218444
0.0273085
0.0319108
0.0367777
0.0419327
0.0472651
0.0524986
0.057121
0.0605892
0.0624481
0.0272275
0.0324948
0.0373504
0.0429845
0.0489664
0.0551811
0.0612462
0.0665644
0.0705251
0.0726171
0.0331125
0.038655
0.0440772
0.0505712
0.0574115
0.0645458
0.0714024
0.0773186
0.0816671
0.0839702
0.0393027
0.0454164
0.0517224
0.0592115
0.0670103
0.0751299
0.082732
0.0891597
0.093782
0.0961428
0.0458512
0.0526922
0.0600195
0.068566
0.0773868
0.0865081
0.0947868
0.101645
0.106445
0.108939
0.0528702
0.0604806
0.0689214
0.0785363
0.0884006
0.0984921
0.107378
0.11457
0.119306
0.121426
0.059808
0.0683248
0.0778076
0.088382
0.0992344
0.110158
0.119591
0.12704
0.131518
0.133578
0.0666976
0.0758081
0.0862595
0.0977789
0.109632
0.121329
0.131429
0.139258
0.143214
0.143125
0.0710191
0.0810699
0.0923329
0.1046
0.117237
0.129496
0.140139
0.148107
0.151004
0.153008
0.0751413
0.0854165
0.0972459
0.110132
0.123549
0.136608
0.14873
0.159002
0.163818
0.148158
0.0200769
0.0252098
0.0304211
0.0361721
0.0420772
0.048788
0.0550021
0.0618984
0.0655008
0.0695925
0.0195447
0.0248634
0.0300324
0.035631
0.0413166
0.0478257
0.0536983
0.0603905
0.0635319
0.0675537
0.0193301
0.0249113
0.0301109
0.0356475
0.0412188
0.0475105
0.0530648
0.0593427
0.0620626
0.0658055
0.0190182
0.0247186
0.0298702
0.0353934
0.0408602
0.0469723
0.0522783
0.0582117
0.0607421
0.0641296
0.0186592
0.0243693
0.0294509
0.0348921
0.0402722
0.0461874
0.051289
0.0569479
0.0594367
0.0625094
0.018296
0.0239845
0.029025
0.0343573
0.0396516
0.0453658
0.0503049
0.055681
0.0581897
0.0610004
0.0179259
0.0235856
0.0286168
0.0338693
0.0390821
0.0446028
0.0494598
0.0545013
0.0570829
0.0596481
0.0175508
0.0231745
0.0282137
0.0334187
0.0385676
0.0439397
0.0487226
0.0534908
0.056125
0.0584666
0.0171816
0.022765
0.0278204
0.032998
0.0381015
0.0433733
0.0480759
0.0526581
0.0553061
0.0574678
0.0168321
0.0223721
0.0274514
0.0326176
0.037691
0.042899
0.0475303
0.0519846
0.0546237
0.056661
0.0165156
0.022007
0.0271195
0.0322907
0.0373502
0.0425199
0.0471025
0.0514608
0.0540873
0.0560439
0.0162299
0.0216674
0.0268269
0.0320209
0.0370863
0.0422411
0.0468021
0.0510878
0.0537067
0.0556096
0.0159606
0.0213458
0.0265703
0.0318059
0.0369003
0.0420662
0.0466329
0.0508701
0.0534882
0.0553539
0.0156978
0.0210434
0.0263494
0.0316449
0.0367919
0.0419969
0.0465946
0.0508092
0.05343
0.0552737
0.0154291
0.0207635
0.0261626
0.0315369
0.0367605
0.0420339
0.0466876
0.0509066
0.0535317
0.0553716
0.0151349
0.0205044
0.0260029
0.031476
0.0368016
0.042171
0.0469065
0.0511566
0.0537803
0.0556483
0.0147893
0.0202606
0.0258601
0.0314561
0.0369128
0.0424073
0.0472558
0.0515646
0.0541813
0.0561146
0.0143651
0.0200167
0.0257132
0.0314563
0.0370698
0.0427149
0.0477096
0.0521068
0.0546972
0.056773
0.0138313
0.0197749
0.0255784
0.0314982
0.0373013
0.0431287
0.0483033
0.052817
0.0553724
0.0576435
0.0130704
0.0193527
0.0252847
0.0314022
0.0374149
0.0434553
0.0488696
0.0535734
0.0560862
0.0587098
0.0142198
0.0205827
0.0264689
0.0327947
0.0391744
0.0455303
0.0513059
0.0563009
0.0588262
0.061814
0.0183927
0.0247655
0.0308149
0.0376801
0.044695
0.0517647
0.0582701
0.0637514
0.0669963
0.0695511
0.0235987
0.0303156
0.036894
0.044575
0.0524561
0.0605269
0.0679899
0.0742068
0.0781885
0.0805259
0.0292708
0.0365811
0.0440447
0.0528675
0.0619888
0.071499
0.0803287
0.0877791
0.0928947
0.0957715
0.0351507
0.0432377
0.0518584
0.0620668
0.0727558
0.0841272
0.0948481
0.104347
0.111512
0.116182
0.0412199
0.0501913
0.0602244
0.0719704
0.084526
0.0981508
0.111452
0.124269
0.13562
0.144704
0.0465578
0.0567081
0.068159
0.0814643
0.0961175
0.112314
0.129155
0.147213
0.165938
0.184843
0.051978
0.0629942
0.0758039
0.0907304
0.107638
0.126783
0.148258
0.17428
0.206538
0.246109
0.0541415
0.0657117
0.0793269
0.0953746
0.114375
0.137128
0.165435
0.203267
0.25779
0.334923
0.0570822
0.070166
0.0852786
0.103445
0.125906
0.154246
0.191866
0.245949
0.332418
0.459786
0.0133643
0.0171571
0.0214229
0.0262376
0.0310374
0.0366012
0.0409473
0.0461863
0.0480478
0.0499717
0.0130544
0.0168347
0.0209606
0.0255351
0.0299906
0.0352753
0.0392163
0.0442718
0.0458698
0.0480344
0.0130143
0.0167429
0.020787
0.0252123
0.0294734
0.0344507
0.0380662
0.0427553
0.0440188
0.0468033
0.01304
0.01656
0.0204098
0.0246459
0.028704
0.0333958
0.0367473
0.0410966
0.0420831
0.0451317
0.0131059
0.0163243
0.0198952
0.0239147
0.0277054
0.0320951
0.0351858
0.0392591
0.0400121
0.0429459
0.0132052
0.0160891
0.019371
0.0231357
0.0266701
0.0307347
0.033556
0.0373881
0.0379271
0.0405825
0.0133256
0.0158621
0.0188608
0.0223295
0.0256768
0.0294106
0.0319871
0.0355928
0.0359458
0.0383372
0.0134569
0.0156431
0.0183531
0.0215351
0.024675
0.0281202
0.0305196
0.0338867
0.03412
0.03632
0.01359
0.0154369
0.0178455
0.0207555
0.0236671
0.0268432
0.0291436
0.032229
0.0324618
0.0345024
0.0137151
0.0152489
0.0173429
0.0199883
0.0226685
0.0256115
0.0278029
0.0306041
0.0309676
0.0328043
0.0117804
0.0125472
0.0128916
0.0131815
0.0133922
0.0135194
0.013572
0.0135643
0.0135284
0.0134317
0.0119591
0.0127303
0.0130491
0.0132936
0.0134443
0.0135025
0.0134823
0.0134011
0.0132906
0.0131238
0.0122315
0.0129711
0.0132524
0.0134416
0.0135246
0.0135082
0.0134111
0.0132543
0.0130729
0.0128423
0.012609
0.0132789
0.0135117
0.0136371
0.0136469
0.013553
0.0133783
0.0131468
0.0128961
0.0126024
0.0131008
0.0136622
0.0138361
0.0138904
0.0138234
0.0136516
0.0134011
0.013098
0.0127798
0.0124226
0.0137108
0.0141265
0.0142318
0.0142093
0.0140635
0.013815
0.013492
0.0131217
0.0127392
0.0123238
0.0144365
0.0146732
0.0147013
0.0145971
0.0143715
0.0140485
0.0136572
0.0132244
0.0127818
0.0123171
0.0152691
0.0152982
0.0152417
0.0150518
0.0147461
0.0143511
0.0138958
0.013407
0.0129108
0.0123853
0.0161917
0.0159907
0.015844
0.0155655
0.01518
0.014716
0.0142014
0.0136613
0.0131162
0.0125454
0.0171681
0.0167335
0.0164919
0.0161237
0.01566
0.0151305
0.0145615
0.0139754
0.0133872
0.0127826
0.0181499
0.017494
0.0171621
0.0167068
0.0161685
0.0155781
0.0149599
0.0143332
0.013709
0.0130795
0.0191477
0.0182628
0.0178369
0.0172949
0.0166853
0.0160392
0.0153777
0.0147167
0.0140643
0.0134187
0.0201131
0.0190051
0.0184877
0.0178635
0.0171889
0.0164939
0.0157962
0.015108
0.0144359
0.0137832
0.021001
0.0196871
0.0190858
0.018388
0.0176574
0.0169225
0.0161972
0.0154899
0.014807
0.0141571
0.0217724
0.0202771
0.0196039
0.0188449
0.0180702
0.0173066
0.0165637
0.0158466
0.0151626
0.014526
0.0223911
0.0207456
0.0200169
0.019213
0.0184092
0.0176302
0.0168815
0.0161649
0.0154899
0.0148775
0.022826
0.0210668
0.0203034
0.0194749
0.0186598
0.0178807
0.0171395
0.0164345
0.015778
0.0152
0.0230526
0.0212204
0.0204471
0.0196175
0.0188115
0.0180495
0.0173306
0.0166491
0.0160179
0.0154789
0.023054
0.0211925
0.0204371
0.019633
0.0188586
0.0181323
0.017451
0.0168027
0.0161951
0.0156928
0.0228223
0.0209763
0.0202686
0.0195187
0.0188006
0.0181308
0.0175032
0.0168967
0.0163099
0.0158463
0.0223568
0.0205715
0.0199416
0.0192759
0.0186416
0.0180557
0.0175163
0.0170115
0.0165605
0.0162884
0.0216564
0.0199812
0.0194598
0.0189069
0.0183806
0.0178974
0.0174582
0.0170575
0.0167132
0.016507
0.0207421
0.0192205
0.0188337
0.0184181
0.0180196
0.0176528
0.0173207
0.0170222
0.016768
0.0166
0.0196405
0.0183095
0.0180781
0.0178205
0.0175669
0.0173303
0.017116
0.016927
0.0167707
0.0166672
0.018383
0.017273
0.0172125
0.0171292
0.0170355
0.0169421
0.0168571
0.0167871
0.0167381
0.0167208
0.0170065
0.0161396
0.0162595
0.0163625
0.0164409
0.0165018
0.0165562
0.016614
0.0166804
0.0167618
0.0155505
0.0149407
0.0152443
0.0155405
0.0157996
0.0160239
0.0162262
0.0164191
0.0166086
0.0167991
0.0140552
0.0137079
0.0141927
0.014684
0.0151287
0.0155225
0.015879
0.0162132
0.0165328
0.0168421
0.0125602
0.0124715
0.0131298
0.0138128
0.0144441
0.0150106
0.0155256
0.0160055
0.0164603
0.0168966
0.0111158
0.0112644
0.0120808
0.0129461
0.0137604
0.0144995
0.0151745
0.0158026
0.0163958
0.0169655
0.00979177
0.0101307
0.0110767
0.0121055
0.0130927
0.0139998
0.0148332
0.0156095
0.0163419
0.0170489
0.00852226
0.00905878
0.0101202
0.0112978
0.0124478
0.0135164
0.0145048
0.0154273
0.0162969
0.0171419
0.00735309
0.0080744
0.00922332
0.0105348
0.0118338
0.0130539
0.0141907
0.0152549
0.0162567
0.0172341
0.00630984
0.0071899
0.00840798
0.00982705
0.0112558
0.0126147
0.0138905
0.0150895
0.0162159
0.0173117
0.00540288
0.00641575
0.00768048
0.00918086
0.0107181
0.0121996
0.0136025
0.0149264
0.0161683
0.0173673
0.00463686
0.00575703
0.0070448
0.00860003
0.0102227
0.0118087
0.0133246
0.014762
0.0161065
0.0174035
0.00401238
0.0052147
0.00650336
0.00808691
0.00977032
0.0114409
0.0130551
0.0145947
0.0160297
0.0174017
0.00352613
0.00478643
0.00605624
0.00764233
0.00936111
0.0110952
0.0127916
0.0144233
0.0159393
0.0173614
0.00317159
0.00446737
0.00570136
0.0072657
0.00899427
0.0107697
0.0125322
0.0142494
0.0158507
0.0173089
0.00294038
0.00425104
0.00543489
0.00695517
0.00866806
0.0104613
0.0122701
0.0140619
0.0157697
0.0172911
0.00282059
0.00412834
0.00525064
0.00670701
0.00837949
0.0101669
0.0120042
0.0138712
0.0157965
0.0176789
0.00278743
0.00408421
0.00514003
0.00651722
0.00812495
0.00987517
0.0117003
0.0135633
0.0154878
0.0173643
0.00284118
0.00411515
0.0050994
0.00638425
0.00790475
0.00958693
0.0113626
0.0131792
0.0150409
0.0168581
0.00297343
0.00421309
0.00512301
0.00630682
0.00772375
0.00931606
0.0110209
0.0127826
0.0145936
0.0163634
0.00317213
0.00436831
0.00520417
0.00628326
0.00758678
0.00907502
0.0106947
0.0123923
0.0141526
0.0158812
0.00342576
0.00457157
0.005336
0.0063108
0.00749623
0.00887094
0.0103935
0.0120146
0.0137141
0.0154004
0.00372381
0.00481432
0.00551149
0.00638562
0.00745242
0.00870815
0.0101246
0.0116585
0.0132867
0.0149255
0.00405655
0.00508835
0.00572345
0.00650291
0.00745412
0.00858922
0.00989373
0.0113325
0.0128806
0.0144652
0.00441537
0.00538604
0.00596461
0.00665698
0.00749844
0.00851466
0.00970471
0.0110426
0.0125034
0.0140273
0.0047954
0.00570332
0.00623021
0.00684328
0.00758224
0.0084836
0.00955905
0.0107924
0.0121601
0.0136179
0.00519582
0.00604158
0.00652126
0.00706235
0.00770628
0.00849776
0.00945976
0.0105861
0.0118555
0.0132415
0.00559466
0.00638052
0.00681908
0.0072977
0.00785712
0.00854732
0.00940074
0.0104209
0.0115887
0.012896
0.00599249
0.00672106
0.00712318
0.00754741
0.00803198
0.00862951
0.00937987
0.0102954
0.0113587
0.0125782
0.0063882
0.00706188
0.00743139
0.00780824
0.00822692
0.00874048
0.00939399
0.0102074
0.0111639
0.0122855
0.0067795
0.00740045
0.00774051
0.0080762
0.00843745
0.00887585
0.00943949
0.0101543
0.0110024
0.012015
0.00716479
0.00773488
0.00804812
0.00834809
0.00865973
0.00903171
0.00951313
0.010134
0.0108728
0.0117638
0.00754324
0.00806409
0.00835269
0.00862162
0.00889076
0.00920486
0.00961239
0.0101456
0.0107764
0.0115315
0.00791457
0.00838749
0.0086534
0.00889541
0.00912848
0.00939291
0.00973545
0.0101898
0.0107183
0.0113233
0.00827871
0.00870489
0.00895006
0.00916912
0.00937225
0.00959506
0.00988161
0.0102668
0.0107036
0.0111456
0.00863547
0.00901617
0.00924292
0.0094434
0.00962367
0.00981529
0.0100593
0.0103927
0.0107763
0.0110898
0.00898494
0.00932128
0.00953214
0.00971873
0.00988427
0.0100592
0.010288
0.0106325
0.0111813
0.011954
0.0093287
0.00962008
0.00981729
0.00999455
0.0101515
0.0103153
0.0105277
0.0108453
0.0113556
0.0120528
0.00966349
0.00991133
0.0100978
0.0102699
0.0104229
0.0105787
0.0107723
0.01105
0.0114771
0.0120444
0.00998631
0.0101934
0.0103722
0.0105435
0.0106977
0.0108505
0.0110308
0.0112778
0.0116417
0.0121127
0.0102939
0.0104644
0.0106388
0.0108134
0.0109738
0.0111293
0.0113026
0.011526
0.0118388
0.0122348
0.0105828
0.0107215
0.0108951
0.0110771
0.0112483
0.0114115
0.011583
0.0117882
0.0120574
0.0123919
0.010849
0.0109618
0.0111387
0.0113317
0.0115176
0.0116931
0.0118677
0.0120604
0.0122941
0.0125774
0.0110872
0.0111833
0.0113666
0.0115741
0.0117782
0.0119697
0.012152
0.012338
0.0125442
0.0127845
0.0112933
0.0113836
0.0115761
0.0118012
0.0120262
0.0122369
0.0124309
0.0126153
0.0128014
0.0130048
0.0114617
0.0115594
0.0117649
0.0120102
0.0122583
0.0124904
0.012699
0.0128862
0.0130586
0.0132301
)
;

boundaryField
{
    inlet
    {
        type            zeroGradient;
    }
    outlet
    {
        type            fixedValue;
        value           uniform 0;
    }
    cylinder
    {
        type            zeroGradient;
    }
    top
    {
        type            symmetryPlane;
    }
    bottom
    {
        type            symmetryPlane;
    }
    defaultFaces
    {
        type            empty;
    }
}


// ************************************************************************* //
