1.11936e-18 	0.5125 	0.5 	0.0131171 	0.00035181 	0
1.11936e-18 	0.5375 	0.5 	0.038412 	0.00296079 	0
1.11936e-18 	0.5625 	0.5 	0.0627496 	0.00823814 	-2.68055e-22
1.11936e-18 	0.5875 	0.5 	0.0860827 	0.0150004 	0
1.11936e-18 	0.6125 	0.5 	0.108404 	0.0229646 	0
1.11936e-18 	0.6375 	0.5 	0.129728 	0.0317766 	-3.02796e-22
1.11936e-18 	0.6625 	0.5 	0.150081 	0.0411772 	0
1.11936e-18 	0.6875 	0.5 	0.169493 	0.0509631 	0
1.11936e-18 	0.7125 	0.5 	0.187995 	0.0609725 	0
1.11936e-18 	0.7375 	0.5 	0.205618 	0.0710775 	0
1.11936e-18 	0.7625 	0.5 	0.222394 	0.0811763 	0
1.11936e-18 	0.7875 	0.5 	0.238353 	0.0911876 	-3.48601e-22
1.11936e-18 	0.8125 	0.5 	0.253525 	0.101047 	0
1.11936e-18 	0.8375 	0.5 	0.267938 	0.110704 	0
1.11936e-18 	0.8625 	0.5 	0.281623 	0.120119 	0
1.11936e-18 	0.8875 	0.5 	0.294607 	0.129261 	0
1.11936e-18 	0.9125 	0.5 	0.306917 	0.138108 	-9.20345e-23
1.11936e-18 	0.9375 	0.5 	0.318582 	0.146641 	9.22238e-23
1.11936e-18 	0.9625 	0.5 	0.329626 	0.15485 	0
1.11936e-18 	0.9875 	0.5 	0.340077 	0.162727 	0
1.11936e-18 	1.0125 	0.5 	0.349959 	0.170269 	3.73591e-22
1.11936e-18 	1.0375 	0.5 	0.359296 	0.177475 	0
1.11936e-18 	1.0625 	0.5 	0.368112 	0.184348 	0
1.11936e-18 	1.0875 	0.5 	0.37643 	0.19089 	0
1.11936e-18 	1.1125 	0.5 	0.384273 	0.197109 	0
1.11936e-18 	1.1375 	0.5 	0.39166 	0.203011 	0
1.11936e-18 	1.1625 	0.5 	0.398614 	0.208605 	0
1.11936e-18 	1.1875 	0.5 	0.405152 	0.213901 	3.69498e-22
1.11936e-18 	1.2125 	0.5 	0.411295 	0.218908 	0
1.11936e-18 	1.2375 	0.5 	0.41706 	0.223639 	-3.65887e-22
1.11936e-18 	1.2625 	0.5 	0.422463 	0.228103 	0
1.11936e-18 	1.2875 	0.5 	0.42752 	0.232312 	0
1.11936e-18 	1.3125 	0.5 	0.432246 	0.236278 	0
1.11936e-18 	1.3375 	0.5 	0.436654 	0.240013 	-1.7772e-22
1.11936e-18 	1.3625 	0.5 	0.440756 	0.243528 	1.76761e-22
1.11936e-18 	1.3875 	0.5 	0.444564 	0.246835 	0
1.11936e-18 	1.4125 	0.5 	0.448088 	0.249945 	0
1.11936e-18 	1.4375 	0.5 	0.451335 	0.25287 	0
1.11936e-18 	1.4625 	0.5 	0.454312 	0.255616 	0
1.11936e-18 	1.4875 	0.5 	0.457023 	0.258204 	0
1.11936e-18 	1.55625 	0.5 	0.463765 	0.264993 	1.23076e-22
1.11936e-18 	1.66875 	0.5 	0.473017 	0.2737 	0
1.11936e-18 	1.78125 	0.5 	0.479454 	0.280082 	0
1.11936e-18 	1.89375 	0.5 	0.484361 	0.284857 	1.15756e-22
1.11936e-18 	2.00625 	0.5 	0.48787 	0.288104 	1.1236e-22
1.11936e-18 	2.11875 	0.5 	0.490466 	0.290254 	-1.08678e-22
1.11936e-18 	2.23125 	0.5 	0.492309 	0.291412 	5.13875e-23
1.11936e-18 	2.34375 	0.5 	0.49355 	0.291744 	-1.52437e-22
