0.362837 	0.362837 	0.5 	-0.00313163 	0.00334132 	-6.30034e-24
0.380512 	0.380512 	0.5 	-0.00754394 	0.00895201 	2.55039e-21
0.398188 	0.398188 	0.5 	-0.0102992 	0.0141243 	-1.31251e-21
0.415863 	0.415863 	0.5 	-0.0117977 	0.0189122 	1.08864e-20
0.433538 	0.433538 	0.5 	-0.0122399 	0.0234576 	0
0.451213 	0.451213 	0.5 	-0.0118108 	0.0278308 	8.60253e-21
0.468888 	0.468888 	0.5 	-0.0106566 	0.0320822 	1.46679e-20
0.486563 	0.486563 	0.5 	-0.00889777 	0.0362469 	8.99583e-21
0.504238 	0.504238 	0.5 	-0.00663442 	0.0403497 	-6.13049e-21
0.521913 	0.521913 	0.5 	-0.00394998 	0.0444083 	-1.55564e-20
0.539588 	0.539588 	0.5 	-0.000914302 	0.048435 	0
0.557263 	0.557263 	0.5 	0.00241402 	0.0524387 	1.28466e-20
0.574938 	0.574938 	0.5 	0.00598572 	0.0564252 	6.51759e-21
0.592613 	0.592613 	0.5 	0.00975925 	0.0603985 	2.09214e-23
0.610288 	0.610288 	0.5 	0.0136995 	0.0643609 	-3.72317e-23
0.627963 	0.627963 	0.5 	0.0177765 	0.0683138 	2.68396e-20
0.645638 	0.645638 	0.5 	0.021965 	0.0722578 	-6.74179e-21
0.663313 	0.663313 	0.5 	0.0262432 	0.0761931 	2.04544e-20
0.680988 	0.680988 	0.5 	0.0305926 	0.0801195 	-6.83076e-21
0.698663 	0.698663 	0.5 	0.034997 	0.084037 	2.06757e-20
0.716338 	0.716338 	0.5 	0.0394426 	0.0879449 	-1.38156e-20
0.734013 	0.734013 	0.5 	0.0439174 	0.0918429 	2.0799e-20
0.751688 	0.751688 	0.5 	0.0484113 	0.0957307 	6.95885e-21
0.769363 	0.769363 	0.5 	0.0529153 	0.0996079 	-2.08867e-20
0.787038 	0.787038 	0.5 	0.0574218 	0.103474 	0
0.804713 	0.804713 	0.5 	0.0619246 	0.107329 	-1.39604e-20
0.822388 	0.822388 	0.5 	0.0664182 	0.111173 	0
0.840063 	0.840063 	0.5 	0.0708986 	0.115005 	-1.39496e-20
0.857738 	0.857738 	0.5 	0.0753626 	0.118825 	0
0.875413 	0.875413 	0.5 	0.0798083 	0.122632 	1.39135e-20
0.893088 	0.893088 	0.5 	0.084235 	0.126426 	0
0.910763 	0.910763 	0.5 	0.0886435 	0.130206 	1.38583e-20
0.928438 	0.928438 	0.5 	0.0930362 	0.133969 	-1.38262e-20
0.946113 	0.946113 	0.5 	0.0974172 	0.137712 	0
0.963788 	0.963788 	0.5 	0.101794 	0.141431 	-1.37626e-20
0.981463 	0.981463 	0.5 	0.106172 	0.145115 	1.37372e-20
0.999138 	0.999138 	0.5 	0.110548 	0.148737 	0
1.01681 	1.01681 	0.5 	0.114945 	0.152314 	0
1.03449 	1.03449 	0.5 	0.119542 	0.156049 	-1.38533e-20
1.05216 	1.05216 	0.5 	0.124219 	0.159772 	1.62177e-20
1.061 	1.061 	0.5 	0.129839 	0.164596 	-0.000409343
1.12274 	1.12274 	0.5 	0.152922 	0.163933 	-0.000821955
1.19698 	1.19698 	0.5 	0.195266 	0.185291 	-0.000821469
1.25871 	1.25871 	0.5 	0.189428 	0.193639 	-0.000829634
1.33295 	1.33295 	0.5 	0.228757 	0.207418 	-0.00081262
1.39469 	1.39469 	0.5 	0.214559 	0.213727 	-0.00084269
1.46893 	1.46893 	0.5 	0.250394 	0.225248 	-0.000826019
1.53066 	1.53066 	0.5 	0.235886 	0.230223 	-0.00085375
1.6049 	1.6049 	0.5 	0.268699 	0.241083 	-0.000836537
1.66664 	1.66664 	0.5 	0.255645 	0.244867 	-0.000854563
