/*--------------------------------*- C++ -*----------------------------------*\
  =========                 |
  \\      /  F ield         | OpenFOAM: The Open Source CFD Toolbox
   \\    /   O peration     | Website:  https://openfoam.org
    \\  /    A nd           | Version:  7
     \\/     M anipulation  |
\*---------------------------------------------------------------------------*/
FoamFile
{
    version     2.0;
    format      ascii;
    class       volVectorField;
    location    "43.1";
    object      U;
}
// * * * * * * * * * * * * * * * * * * * * * * * * * * * * * * * * * * * * * //

dimensions      [0 1 -1 0 0 0 0];

internalField   nonuniform List<vector> 
2000
(
(-0.00142439 0.00561402 -5.08759e-22)
(-0.00145315 0.00858772 0)
(0.00165109 0.00992707 0)
(0.00713994 0.0120913 -2.67451e-21)
(0.0143969 0.016492 9.20755e-22)
(0.0229166 0.0238639 6.07103e-23)
(0.032316 0.0345276 -1.58393e-21)
(0.0422741 0.0485339 0)
(0.052473 0.0657353 0)
(0.0624676 0.0858105 0)
(-0.00165546 0.00595037 0)
(-0.000984491 0.00755397 -1.98479e-21)
(0.00323274 0.00725003 1.83033e-21)
(0.00953555 0.00774637 3.59645e-21)
(0.0171531 0.010523 0)
(0.0255348 0.0163175 3.36444e-21)
(0.0343425 0.025463 -3.12858e-21)
(0.0433561 0.0380651 0)
(0.052372 0.0540872 5.86959e-21)
(0.0610246 0.0734132 -1.12555e-20)
(-0.00177568 0.00597268 0)
(0.000148799 0.00608265 1.51639e-20)
(0.00614666 0.00428126 0)
(0.0138757 0.00336047 1.39423e-20)
(0.0223766 0.0047942 0)
(0.0310361 0.00925648 -1.2856e-20)
(0.0395524 0.0170354 0)
(0.0478062 0.0282451 1.20165e-20)
(0.0557323 0.0429357 -1.12539e-20)
(0.0630633 0.0612077 -1.06874e-20)
(-0.0016801 0.00561125 -3.85756e-21)
(0.00212746 0.00410366 -7.67816e-21)
(0.010579 0.00102141 -3.5228e-21)
(0.0203342 -0.000969722 -6.90888e-21)
(0.0302241 -0.000483418 -6.49595e-21)
(0.0395691 0.00302563 6.41669e-21)
(0.0481033 0.00973805 5.98706e-21)
(0.0558078 0.0197158 -2.89229e-22)
(0.0627735 0.0330451 1.08964e-20)
(0.0688717 0.0500137 1.06804e-20)
(-0.0012502 0.00481918 -3.63485e-21)
(0.00514259 0.00158021 -7.447e-21)
(0.0167014 -0.00250219 -1.41028e-20)
(0.0290205 -0.00514595 6.59054e-21)
(0.0407279 -0.00513125 0)
(0.0510992 -0.00209726 0)
(0.0599207 0.00397488 -1.18278e-20)
(0.0672809 0.0130328 -1.11752e-20)
(0.0734382 0.02513 1.0222e-20)
(0.0784698 0.0406635 2.93914e-20)
(-0.00034926 0.00357191 3.60165e-21)
(0.00938743 -0.00146664 3.81138e-21)
(0.0246391 -0.00622146 -1.96803e-20)
(0.0399324 -0.00906658 3.23571e-20)
(0.0537326 -0.00902046 -6.13687e-21)
(0.0653208 -0.00595117 0)
(0.0745783 -3.60065e-05 0)
(0.0817251 0.00851464 5.27341e-20)
(0.0871946 0.019655 -4.99039e-20)
(0.0913576 0.0337848 9.5349e-21)
(0.00116627 0.00188616 2.58742e-20)
(0.0150357 -0.00495229 0)
(0.0344427 -0.0100204 2.68303e-20)
(0.0529229 -0.0126185 -2.57127e-20)
(0.068858 -0.0120756 0)
(0.0816207 -0.00851675 1.14629e-20)
(0.0912571 -0.0023228 -3.15202e-20)
(0.0981635 0.00612722 -4.06065e-20)
(0.102958 0.0166468 1.87047e-20)
(0.106377 0.0295371 1.80329e-20)
(0.0034339 -0.000174876 -5.04292e-20)
(0.0222156 -0.00871883 -6.77163e-21)
(0.0460578 -0.0137236 -1.23728e-20)
(0.067677 -0.0156721 -2.99742e-20)
(0.0854995 -0.0142703 -1.16508e-20)
(0.0991125 -0.00990961 -1.04024e-20)
(0.108818 -0.00315369 1.20126e-21)
(0.115245 0.00547649 0)
(0.119205 0.0156485 0)
(0.121832 0.0275017 -2.8932e-22)
(0.00657078 -0.00250079 2.45555e-20)
(0.0309796 -0.0125351 -2.51282e-20)
(0.0592962 -0.0171034 1.88447e-20)
(0.0837058 -0.0180894 4.16487e-20)
(0.102866 -0.0156255 -1.09763e-20)
(0.116739 -0.0103552 1.13837e-20)
(0.125984 -0.00297617 1.00977e-20)
(0.131507 0.00590992 0)
(0.13431 0.0158692 0)
(0.1359 0.0269049 -1.34809e-21)
(0.0106587 -0.00493949 -2.83527e-21)
(0.0412732 -0.0161126 3.14502e-20)
(0.0738149 -0.0199053 -5.82573e-21)
(0.10036 -0.0197483 0)
(0.12005 -0.0162172 0)
(0.133408 -0.0101624 2.00992e-20)
(0.14156 -0.00234403 0)
(0.145731 0.00664027 -1.55841e-20)
(0.147088 0.0163664 7.92118e-22)
(0.147352 0.0269124 1.30973e-20)
(0.0833795 0.136466 4.69057e-22)
(0.113148 0.237006 -4.7537e-22)
(0.119839 0.324606 -5.55501e-22)
(0.111472 0.396694 -6.50873e-22)
(0.0928581 0.463142 -8.24775e-22)
(0.0767078 0.531169 -1.78156e-23)
(0.0535371 0.610139 4.30975e-22)
(0.0432651 0.705438 1.51311e-21)
(0.0145783 0.823629 0)
(0.0125371 0.956908 -1.10042e-21)
(0.0788231 0.124353 1.67576e-21)
(0.107111 0.228545 -2.00794e-21)
(0.115953 0.322725 3.61061e-21)
(0.109044 0.399033 6.52035e-22)
(0.0911357 0.467265 1.39325e-21)
(0.0752971 0.535746 2.43556e-21)
(0.0524842 0.614644 -9.29084e-22)
(0.0422372 0.709895 -1.00942e-21)
(0.0143984 0.82803 1.97546e-21)
(0.0120697 0.960358 1.0978e-21)
(0.0770359 0.111856 0)
(0.101919 0.218084 -1.72289e-21)
(0.112337 0.318782 -1.03388e-21)
(0.106903 0.399835 0)
(0.0897369 0.470283 -4.25589e-21)
(0.0742043 0.539484 1.29359e-21)
(0.0516513 0.618435 1.48942e-21)
(0.0413519 0.713814 5.29346e-21)
(0.0142647 0.832213 -1.96908e-21)
(0.0116357 0.963815 3.85575e-21)
(0.0783872 0.0995749 0)
(0.0977625 0.20589 1.73753e-21)
(0.108992 0.312729 0)
(0.104984 0.39894 4.58117e-21)
(0.0886081 0.47195 -4.6047e-21)
(0.0734045 0.542024 -2.96674e-21)
(0.0510719 0.621009 -2.50193e-22)
(0.040697 0.716472 -5.0814e-21)
(0.0142634 0.835218 -8.3925e-22)
(0.0112402 0.96658 -4.73941e-21)
(0.0831881 0.0881405 1.55835e-23)
(0.0948972 0.192409 -4.36523e-21)
(0.105924 0.304568 3.49492e-22)
(0.103207 0.396334 -3.60335e-21)
(0.087697 0.472572 0)
(0.0728397 0.543977 -2.74624e-21)
(0.0506311 0.623263 -2.67644e-22)
(0.040097 0.719073 6.30686e-21)
(0.0142354 0.838421 8.41e-22)
(0.0108667 0.969619 -8.43955e-22)
(0.0914836 0.0781197 -1.13554e-20)
(0.0936498 0.178237 7.18714e-21)
(0.103174 0.294402 3.25692e-21)
(0.101515 0.391665 -3.25541e-21)
(0.0869238 0.471326 -1.95344e-21)
(0.0725196 0.544199 0)
(0.0504822 0.623776 -5.34867e-21)
(0.0397881 0.719803 2.62218e-21)
(0.0143853 0.839836 2.98888e-21)
(0.0105293 0.9716 3.07943e-21)
(0.102754 0.0698728 -1.17142e-21)
(0.0943591 0.164044 0)
(0.100783 0.282452 0)
(0.0998477 0.385576 0)
(0.0862539 0.469705 -2.09455e-21)
(0.0722868 0.544735 4.04134e-21)
(0.0502911 0.624998 5.12705e-21)
(0.0393519 0.721584 -7.96574e-21)
(0.0143798 0.842477 1.44098e-21)
(0.0101996 0.974428 -4.47658e-21)
(0.115668 0.0634505 7.27174e-21)
(0.0972057 0.150586 4.86637e-21)
(0.0989037 0.268742 -4.82356e-21)
(0.0981426 0.3763 6.11803e-21)
(0.0855737 0.464511 -7.62606e-21)
(0.0723569 0.541895 0)
(0.0505984 0.622932 -2.13089e-21)
(0.0394182 0.719954 2.01342e-22)
(0.01469 0.842018 -2.49291e-21)
(0.0099055 0.975517 -2.60346e-21)
(0.127932 0.0584218 -5.70449e-21)
(0.101809 0.137827 0)
(0.0975458 0.254922 -5.05318e-21)
(0.0964948 0.368457 9.92799e-21)
(0.0848519 0.462123 -3.76966e-21)
(0.0720786 0.542327 -8.39513e-22)
(0.0503585 0.624362 2.12648e-21)
(0.0389475 0.722041 2.81819e-23)
(0.0145947 0.844909 3.54968e-21)
(0.00959951 0.978513 3.76502e-21)
(0.135915 0.0533286 -3.72601e-21)
(0.106616 0.12313 3.63414e-21)
(0.0967574 0.234061 4.86342e-22)
(0.0945812 0.350206 0)
(0.0841891 0.449607 0)
(0.0727488 0.534217 7.99148e-22)
(0.0513758 0.618146 3.67245e-21)
(0.0395585 0.716908 -3.56763e-21)
(0.0151433 0.841841 -1.01977e-21)
(0.00933696 0.978477 9.89419e-22)
(0.13169 0.0528329 0)
(0.107421 0.115593 0)
(0.0947081 0.224373 0)
(0.0904013 0.347092 0)
(0.0801549 0.453941 0)
(0.0692064 0.54321 0)
(0.0488177 0.628692 0)
(0.0372784 0.728098 0)
(0.0142098 0.852541 0)
(0.00862745 0.987408 0)
(0.119462 0.083626 0)
(0.0951364 0.146402 0)
(0.0802617 0.241495 0)
(0.0764677 0.356073 0)
(0.0705725 0.463878 0)
(0.0633279 0.556567 0)
(0.0456622 0.64323 0)
(0.0343061 0.741585 0)
(0.0129147 0.863454 0)
(0.00761033 0.993783 0)
(0.0987494 0.0994387 0)
(0.0771127 0.165423 0)
(0.0619497 0.255524 0)
(0.0574462 0.363673 0)
(0.0545596 0.47108 0)
(0.0517185 0.567719 0)
(0.0388116 0.658709 0)
(0.0298747 0.759202 0)
(0.0109528 0.880663 0)
(0.00655893 1.00769 0)
(0.0727188 0.114135 0)
(0.0537553 0.181118 0)
(0.0403804 0.266922 0)
(0.0369202 0.369004 0)
(0.0373876 0.474614 0)
(0.0391327 0.573483 0)
(0.0310209 0.667599 0)
(0.0247801 0.768618 0)
(0.00874809 0.888385 0)
(0.00541461 1.01094 0)
(0.0466086 0.127783 0)
(0.0291334 0.194877 0)
(0.0160995 0.274864 0)
(0.0118202 0.369089 0)
(0.0144359 0.472005 0)
(0.0208544 0.575067 0)
(0.018975 0.676473 0)
(0.0174718 0.782262 0)
(0.00511775 0.90338 0)
(0.00399951 1.02297 0)
(0.0235094 0.140643 0)
(0.00722122 0.208684 0)
(-0.00378332 0.283884 0)
(-0.00785757 0.370088 0)
(-0.00406911 0.466133 0)
(0.00493798 0.568064 0)
(0.00766026 0.671924 0)
(0.0102827 0.781254 0)
(0.00170587 0.903641 0)
(0.00245262 1.02019 0)
(0.00543388 0.153047 0)
(-0.0120179 0.22186 0)
(-0.0248555 0.290538 0)
(-0.0302377 0.368697 0)
(-0.025877 0.45954 0)
(-0.0144782 0.562298 0)
(-0.0064209 0.671679 0)
(0.00172005 0.787234 0)
(-0.00228344 0.912052 0)
(0.00102632 1.02736 0)
(-0.00602853 0.164221 0)
(-0.0199421 0.236416 0)
(-0.03179 0.302668 0)
(-0.0382866 0.372052 0)
(-0.0360815 0.452253 0)
(-0.0262277 0.547681 0)
(-0.0166715 0.655863 0)
(-0.00600416 0.77537 0)
(-0.00614762 0.903032 0)
(-0.000369449 1.01679 0)
(-0.0143533 0.174025 0)
(-0.0294073 0.245358 0)
(-0.0431619 0.306877 0)
(-0.050479 0.370769 0)
(-0.0485546 0.447006 0)
(-0.0382075 0.541476 0)
(-0.0260838 0.652765 0)
(-0.0123915 0.776449 0)
(-0.00936217 0.906648 0)
(-0.00137604 1.0197 0)
(-0.011088 0.189013 0)
(-0.0231797 0.266572 0)
(-0.0370558 0.326776 0)
(-0.0468031 0.379948 0)
(-0.048727 0.441611 0)
(-0.0423112 0.523619 0)
(-0.0319027 0.62962 0)
(-0.0183487 0.756444 0)
(-0.0126236 0.891745 0)
(-0.00253889 1.00429 0)
(0.150581 0.0386508 1.05604e-21)
(0.133451 0.0551462 -1.04404e-21)
(0.108039 0.065307 -2.81834e-22)
(0.079053 0.0763593 0)
(0.0511411 0.0874434 0)
(0.0267209 0.0983191 -5.35438e-22)
(0.00855885 0.108761 1.67039e-21)
(-0.00290471 0.117344 -1.64253e-21)
(-0.00982206 0.125404 -1.33508e-22)
(-0.00745042 0.135626 1.30448e-22)
(0.149012 0.0330677 -3.2672e-21)
(0.129405 0.0444177 0)
(0.104469 0.0514528 -2.63765e-21)
(0.0769488 0.0603374 6.71129e-21)
(0.050746 0.0698144 -4.80804e-21)
(0.0275634 0.0795902 5.22792e-22)
(0.010144 0.0890089 -8.85202e-22)
(-0.000808099 0.0966452 -1.20347e-21)
(-0.00739094 0.103997 1.08335e-23)
(-0.00585644 0.112217 1.77965e-23)
(0.148296 0.0262364 3.15391e-21)
(0.126912 0.0333334 1.48315e-21)
(0.102224 0.0376581 -1.46857e-21)
(0.0755183 0.0442528 3.75115e-21)
(0.0504952 0.0516581 -2.70439e-21)
(0.0284399 0.0599366 0)
(0.0116754 0.0680874 8.87249e-22)
(0.000926109 0.0748315 2.02044e-23)
(-0.00521629 0.0815309 3.99103e-22)
(-0.00443754 0.0880386 1.10207e-22)
(0.146737 0.0173337 -3.15784e-22)
(0.124104 0.0204828 0)
(0.100138 0.0225198 0)
(0.0743938 0.0271789 0)
(0.0504788 0.0325939 -2.89387e-21)
(0.0293487 0.0393424 1.93373e-21)
(0.0131476 0.0462068 -8.44887e-23)
(0.00248808 0.0520988 5.40193e-22)
(-0.00329539 0.0581216 1.23925e-22)
(-0.00319985 0.0632074 -1.3155e-23)
(0.144391 0.00645436 -1.82834e-21)
(0.121041 0.00598679 -2.8908e-22)
(0.0980044 0.00590118 1.35519e-21)
(0.0732557 0.00888235 -1.35406e-21)
(0.0504491 0.0124836 9.4639e-22)
(0.030203 0.0178416 0)
(0.0145501 0.0235021 8.31097e-22)
(0.00409937 0.0286389 -1.13255e-21)
(-0.00152221 0.0339941 4.98742e-22)
(-0.00211953 0.037899 -1.11823e-22)
(0.141334 -0.00615478 -1.95114e-21)
(0.117774 -0.00977745 9.73076e-22)
(0.0958628 -0.0119523 5.86519e-22)
(0.0721258 -0.0104801 -1.28284e-21)
(0.050364 -0.00854732 0)
(0.0309746 -0.00439476 0)
(0.0158271 0.00019746 0)
(0.00562038 0.00467515 -5.87015e-22)
(2.79857e-05 0.00939311 0)
(-0.0012126 0.0123346 0)
(0.137621 -0.0201448 0)
(0.114258 -0.0263277 -7.39508e-22)
(0.0936194 -0.0306478 6.1877e-22)
(0.0709331 -0.0305407 1.54138e-21)
(0.0502011 -0.0301679 -1.54922e-21)
(0.031656 -0.0270442 -7.92442e-22)
(0.0169958 -0.0233941 8.63152e-22)
(0.00701631 -0.0194994 2.04658e-21)
(0.00127975 -0.0153935 -1.75022e-22)
(-0.000461959 -0.0132406 5.33223e-23)
(0.133174 -0.0350996 0)
(0.110471 -0.043139 1.22751e-22)
(0.0912407 -0.0497224 1.91869e-22)
(0.0696203 -0.0508391 0)
(0.049955 -0.0519501 -4.08975e-22)
(0.0322452 -0.0497135 1.16881e-21)
(0.0180813 -0.0469042 -1.03999e-21)
(0.00827643 -0.043532 -2.4871e-22)
(0.00232054 -0.0400386 1.66871e-22)
(0.000106228 -0.038527 -1.12278e-22)
(0.127944 -0.0505974 5.51894e-22)
(0.106465 -0.0597634 -1.94257e-22)
(0.0887367 -0.068703 -7.32963e-23)
(0.0681833 -0.0708734 -1.38328e-22)
(0.0496031 -0.0734099 -3.70762e-22)
(0.032715 -0.0719639 -5.60061e-22)
(0.0190301 -0.0699403 1.60608e-22)
(0.00937228 -0.0670847 1.26682e-22)
(0.0031977 -0.0642063 -1.67417e-22)
(0.000492974 -0.063162 -2.68886e-23)
(0.122083 -0.0661666 -5.42668e-23)
(0.102236 -0.0758309 5.47416e-23)
(0.0860401 -0.087144 7.7924e-23)
(0.0665938 -0.0901937 1.38114e-22)
(0.0491057 -0.094095 -1.64693e-22)
(0.03304 -0.0933908 3.435e-22)
(0.0198077 -0.0921329 -2.2987e-22)
(0.0102833 -0.08982 -5.69739e-23)
(0.00387885 -0.0875306 0)
(0.000713064 -0.0868273 2.69358e-23)
(0.115867 -0.081451 7.57716e-23)
(0.0978171 -0.0910668 -7.63724e-23)
(0.0831507 -0.104691 3.6819e-23)
(0.064865 -0.108459 9.94526e-23)
(0.0484344 -0.11364 1.48295e-22)
(0.0331967 -0.113672 -2.56316e-24)
(0.0203825 -0.11317 -7.29671e-23)
(0.0109895 -0.111438 -1.75397e-22)
(0.00436891 -0.109696 0)
(0.000847441 -0.109217 2.44086e-23)
(0.109561 -0.096198 0)
(0.09333 -0.105306 -4.90814e-23)
(0.0801084 -0.121087 -1.57164e-23)
(0.0630401 -0.12546 -9.95962e-23)
(0.0475756 -0.131787 -2.30209e-22)
(0.0331719 -0.132589 -4.09497e-22)
(0.0207315 -0.132814 1.37163e-22)
(0.0114778 -0.1317 1.10446e-22)
(0.00467389 -0.13044 -1.32421e-22)
(0.000893559 -0.130099 -2.43423e-23)
(0.103331 -0.110258 0)
(0.088878 -0.118504 -3.4661e-22)
(0.076955 -0.136164 2.84257e-23)
(0.0611592 -0.141119 0)
(0.0465366 -0.148389 6.87027e-22)
(0.0329687 -0.150029 -1.97163e-22)
(0.0208602 -0.150911 -2.34168e-22)
(0.0117634 -0.15044 -5.88218e-22)
(0.00482242 -0.149582 1.31989e-22)
(0.000871453 -0.149332 -8.26917e-23)
(0.0972784 -0.123557 0)
(0.0845287 -0.130742 3.49462e-22)
(0.0737262 -0.149841 0)
(0.0592534 -0.155475 -5.31823e-22)
(0.0453461 -0.163401 5.34602e-22)
(0.0326024 -0.16597 4.24944e-22)
(0.0208 -0.167395 2.16473e-23)
(0.0118817 -0.167583 5.59242e-22)
(0.00485646 -0.167035 1.07936e-22)
(0.000808401 -0.166859 1.20964e-22)
(0.0914795 -0.136067 7.7325e-21)
(0.0803543 -0.142212 -2.82509e-21)
(0.0704658 -0.162101 -6.05593e-22)
(0.0573517 -0.168652 -8.84597e-23)
(0.0440488 -0.176862 0)
(0.0320952 -0.180469 3.67862e-22)
(0.0205924 -0.182281 -2.48414e-23)
(0.0118685 -0.183134 -6.78585e-22)
(0.0048134 -0.182802 -3.4998e-23)
(0.000723686 -0.18271 3.49323e-23)
(0.0859855 -0.147748 1.87027e-21)
(0.0764513 -0.153193 4.03428e-21)
(0.0672505 -0.172984 2.79694e-22)
(0.0554891 -0.18082 -2.79544e-22)
(0.042707 -0.188879 1.57208e-22)
(0.031475 -0.193633 0)
(0.0202812 -0.195661 5.99406e-22)
(0.011756 -0.197177 -3.28912e-22)
(0.00472462 -0.196971 -2.33247e-22)
(0.00063016 -0.196988 -5.71456e-23)
(0.0808979 -0.1585 -1.33383e-21)
(0.07299 -0.164018 0)
(0.0642222 -0.182574 0)
(0.0537173 -0.192151 0)
(0.0414011 -0.199612 1.99088e-22)
(0.0307786 -0.205604 -3.55683e-22)
(0.0199123 -0.207678 -5.56284e-22)
(0.0115726 -0.209851 7.424e-22)
(0.00461577 -0.209694 -5.45233e-23)
(0.000536529 -0.209852 1.10462e-22)
(0.0761714 -0.168116 -3.72209e-21)
(0.0699946 -0.175008 2.75012e-21)
(0.0614383 -0.191001 -2.72451e-21)
(0.0520168 -0.202785 2.61532e-22)
(0.0401839 -0.209259 -2.52801e-22)
(0.0300401 -0.216537 0)
(0.0195401 -0.218515 2.01665e-22)
(0.0113549 -0.221333 -3.37326e-23)
(0.00451259 -0.221166 1.32436e-22)
(0.000448401 -0.221502 4.06315e-23)
(0.0707419 -0.176165 -1.55087e-21)
(0.066615 -0.186406 0)
(0.0584766 -0.198491 -2.12529e-21)
(0.0500626 -0.21284 2.38011e-21)
(0.0389437 -0.21806 -6.13074e-22)
(0.0292261 -0.226601 4.04887e-23)
(0.0191923 -0.22838 -2.01207e-22)
(0.0111492 -0.231814 -4.13739e-23)
(0.00444541 -0.231598 -2.36934e-22)
(0.000366585 -0.232158 -7.88051e-23)
(0.065067 -0.181746 -6.27769e-21)
(0.0626834 -0.198409 6.11366e-21)
(0.0554541 -0.205489 3.5329e-22)
(0.0478015 -0.222491 0)
(0.0375799 -0.226329 0)
(0.0282351 -0.236008 -4.181e-23)
(0.018741 -0.237503 -2.78547e-22)
(0.0108824 -0.241495 2.73138e-22)
(0.00437096 -0.241195 3.28384e-23)
(0.000287281 -0.242049 -3.20649e-23)
(0.0700328 -0.187327 0)
(0.063239 -0.226944 0)
(0.0552714 -0.22184 0)
(0.0460825 -0.244728 0)
(0.0358194 -0.245546 0)
(0.0259958 -0.257643 0)
(0.0170887 -0.25837 0)
(0.00956247 -0.263503 0)
(0.00377854 -0.262761 0)
(0.000176072 -0.264292 0)
(0.0529552 -0.236775 0)
(0.0455902 -0.272016 0)
(0.0420485 -0.263151 0)
(0.0342699 -0.284137 0)
(0.0278961 -0.281777 0)
(0.0201545 -0.293845 0)
(0.0137405 -0.292637 0)
(0.00766566 -0.298242 0)
(0.00322103 -0.29634 0)
(0.000236139 -0.298456 0)
(0.0475952 -0.284037 0)
(0.0389503 -0.317383 0)
(0.0350137 -0.305781 0)
(0.0275411 -0.32633 0)
(0.0223762 -0.321254 0)
(0.0158634 -0.333515 0)
(0.0110566 -0.33029 0)
(0.00614759 -0.336254 0)
(0.00278468 -0.332983 0)
(0.000205435 -0.335743 0)
(0.0411397 -0.335978 0)
(0.032588 -0.368601 0)
(0.0290463 -0.354274 0)
(0.0221553 -0.375021 0)
(0.0181093 -0.367347 0)
(0.0125861 -0.38015 0)
(0.00904142 -0.374879 0)
(0.00502511 -0.381421 0)
(0.00249424 -0.376678 0)
(0.000175589 -0.380284 0)
(0.0352024 -0.397147 0)
(0.0272246 -0.42961 0)
(0.0239512 -0.413141 0)
(0.0178217 -0.434438 0)
(0.0146941 -0.424543 0)
(0.0100424 -0.438187 0)
(0.00746535 -0.431054 0)
(0.00412124 -0.438466 0)
(0.00221591 -0.432325 0)
(0.000126094 -0.437066 0)
(0.0296039 -0.471485 0)
(0.0222762 -0.502479 0)
(0.0194529 -0.485964 0)
(0.0141283 -0.50716 0)
(0.011796 -0.496371 0)
(0.00784416 -0.510512 0)
(0.0059795 -0.502316 0)
(0.00311421 -0.510543 0)
(0.00175105 -0.503546 0)
(-6.55465e-06 -0.509472 0)
(0.0229781 -0.556994 0)
(0.0174094 -0.58348 0)
(0.015031 -0.570633 0)
(0.0107972 -0.589524 0)
(0.00890606 -0.580257 0)
(0.00566397 -0.593293 0)
(0.00419726 -0.585695 0)
(0.00180744 -0.593728 0)
(0.000946196 -0.587086 0)
(-0.000206687 -0.593456 0)
(0.0179225 -0.641539 0)
(0.0130631 -0.661076 0)
(0.0109279 -0.654345 0)
(0.00733912 -0.668076 0)
(0.00597041 -0.662632 0)
(0.0033295 -0.672265 0)
(0.00229576 -0.667072 0)
(0.00039114 -0.673057 0)
(0.000110497 -0.668205 0)
(-0.000370925 -0.673331 0)
(0.010617 -0.706421 0)
(0.00730818 -0.716618 0)
(0.00617112 -0.717172 0)
(0.00403556 -0.725133 0)
(0.00329798 -0.724469 0)
(0.0015827 -0.729456 0)
(0.000931177 -0.727363 0)
(-0.000285444 -0.730086 0)
(-0.00025573 -0.727626 0)
(-0.00032447 -0.730174 0)
(0.00244493 -0.738269 0)
(0.00179303 -0.74685 0)
(0.00167346 -0.750239 0)
(0.00128686 -0.755201 0)
(0.00102212 -0.756219 0)
(0.000520736 -0.758841 0)
(0.000223791 -0.758141 0)
(-0.000140253 -0.759207 0)
(-0.000146149 -0.75798 0)
(-0.000104067 -0.759079 0)
(0.062636 -0.20342 9.30925e-21)
(0.0521412 -0.252995 -9.13375e-21)
(0.0486633 -0.300902 1.23611e-21)
(0.0426445 -0.353856 0)
(0.0372939 -0.415455 0)
(0.0316858 -0.488467 1.46388e-21)
(0.0255063 -0.569864 -6.35193e-21)
(0.0194148 -0.646322 6.30246e-21)
(0.0120904 -0.706585 1.72777e-21)
(0.00373944 -0.733828 -1.70479e-21)
(0.0604715 -0.209764 -1.11314e-20)
(0.0523791 -0.258478 0)
(0.0492497 -0.306023 8.4121e-21)
(0.0434162 -0.358989 -1.94198e-20)
(0.0382774 -0.420577 1.25212e-20)
(0.0326623 -0.493048 -1.32146e-21)
(0.0266254 -0.572887 2.98306e-21)
(0.0200945 -0.647651 6.3143e-21)
(0.012741 -0.705332 1.77133e-21)
(0.00430012 -0.732537 1.76327e-21)
(0.0591778 -0.216601 1.3369e-20)
(0.0533142 -0.264575 -9.411e-21)
(0.050215 -0.311169 9.32183e-21)
(0.0445383 -0.363583 -1.05127e-20)
(0.0395267 -0.424803 7.80066e-21)
(0.0338517 -0.496488 0)
(0.0277436 -0.574708 -2.99051e-21)
(0.0208451 -0.648154 1.74094e-22)
(0.0132511 -0.70325 -3.28962e-21)
(0.00459122 -0.731161 -3.42318e-21)
(0.0586505 -0.222708 -2.19407e-21)
(0.0547764 -0.270497 0)
(0.0515851 -0.316308 0)
(0.0460604 -0.368169 0)
(0.0410841 -0.428961 8.79365e-21)
(0.0352878 -0.499791 -5.87012e-21)
(0.0289534 -0.576428 -2.67753e-23)
(0.0216961 -0.648212 -3.59081e-21)
(0.0136897 -0.701228 -1.83447e-21)
(0.00469945 -0.729024 -1.96304e-21)
(0.0589305 -0.228015 2.17974e-22)
(0.056643 -0.275475 -6.85062e-21)
(0.0532963 -0.320692 -5.2697e-21)
(0.0479288 -0.372215 5.2665e-21)
(0.0429117 -0.4327 -2.88454e-21)
(0.0369491 -0.502783 0)
(0.0303256 -0.578001 -3.36751e-21)
(0.0226793 -0.647972 7.36046e-21)
(0.0141809 -0.699312 -3.77007e-21)
(0.00478024 -0.726269 3.84259e-21)
(0.0600831 -0.232676 -1.87414e-20)
(0.0589243 -0.279403 2.0477e-21)
(0.0553463 -0.323971 -3.7119e-22)
(0.0501021 -0.375252 5.46816e-21)
(0.0449696 -0.43552 0)
(0.0388037 -0.504986 0)
(0.031873 -0.579006 0)
(0.0238086 -0.647327 3.96871e-21)
(0.0147993 -0.697271 0)
(0.00492361 -0.723202 0)
(0.0621224 -0.236608 0)
(0.0616645 -0.282347 7.8117e-21)
(0.0577883 -0.326152 -5.26101e-21)
(0.0525891 -0.377169 -6.1608e-21)
(0.047259 -0.437216 6.19294e-21)
(0.0408465 -0.50614 3.64077e-21)
(0.0335872 -0.579159 -3.62436e-21)
(0.0250798 -0.646125 -1.41987e-20)
(0.0155536 -0.69492 1.01156e-21)
(0.00514492 -0.719997 -3.45616e-21)
(0.0650366 -0.239613 0)
(0.0648852 -0.284273 -2.55667e-21)
(0.0606723 -0.327274 -1.44541e-21)
(0.055417 -0.378 0)
(0.0498093 -0.43779 1.78311e-21)
(0.0430996 -0.506208 -5.41588e-21)
(0.035474 -0.578382 5.95707e-21)
(0.0264937 -0.644279 2.11247e-21)
(0.016429 -0.692175 -2.32025e-21)
(0.0054305 -0.716668 4.58356e-21)
(0.068816 -0.241511 2.41426e-21)
(0.0685938 -0.285094 2.80773e-21)
(0.0640236 -0.327301 -6.39183e-22)
(0.0586037 -0.377757 8.24231e-22)
(0.0526505 -0.437275 1.72341e-21)
(0.0455916 -0.505252 2.86726e-21)
(0.0375484 -0.576733 -1.07207e-21)
(0.0280506 -0.641813 -1.1534e-21)
(0.017403 -0.689047 2.32792e-21)
(0.00576048 -0.713179 1.26454e-21)
(0.073457 -0.242158 -6.65874e-22)
(0.072797 -0.284755 6.70922e-22)
(0.0678543 -0.326163 -7.50461e-22)
(0.0621553 -0.376413 -8.2323e-22)
(0.0558012 -0.435667 9.61924e-22)
(0.0483434 -0.503295 -1.95677e-21)
(0.0398354 -0.574239 1.63999e-21)
(0.0297701 -0.638731 5.8219e-22)
(0.0184811 -0.685535 0)
(0.0061344 -0.709475 -1.26733e-21)
(0.0789573 -0.241427 6.89608e-22)
(0.0774996 -0.283265 -6.95175e-22)
(0.0721731 -0.323814 -8.17148e-22)
(0.0660722 -0.373952 -8.98593e-22)
(0.0592752 -0.432942 -1.00702e-21)
(0.0513671 -0.500367 -6.49136e-23)
(0.042343 -0.570969 5.82593e-22)
(0.0316494 -0.635113 1.86676e-21)
(0.0196514 -0.681692 0)
(0.00654375 -0.705557 -1.38829e-21)
(0.0853098 -0.23928 0)
(0.0826976 -0.280677 -3.16427e-21)
(0.0769898 -0.320251 5.7159e-21)
(0.070354 -0.370388 9.00178e-22)
(0.0630801 -0.429103 2.0669e-21)
(0.0546689 -0.496437 3.34192e-21)
(0.0450986 -0.566852 -1.1767e-21)
(0.0337231 -0.630885 -1.26588e-21)
(0.0209475 -0.677465 2.79944e-21)
(0.00700687 -0.701388 1.38502e-21)
(0.0924988 -0.235802 0)
(0.0883843 -0.277034 -3.18e-21)
(0.0823075 -0.315563 -1.71432e-21)
(0.0749961 -0.365765 0)
(0.0672333 -0.424175 -6.48146e-21)
(0.0582546 -0.491568 2.17948e-21)
(0.0480845 -0.562013 2.54176e-21)
(0.0359565 -0.626184 8.14507e-21)
(0.022331 -0.672937 -2.79039e-21)
(0.00749959 -0.697005 6.0284e-21)
(0.100505 -0.231142 0)
(0.0945517 -0.272335 3.20734e-21)
(0.0881232 -0.30984 0)
(0.080013 -0.360093 8.41007e-21)
(0.0717343 -0.418261 -8.45316e-21)
(0.0621341 -0.485648 -5.02422e-21)
(0.0513508 -0.556254 -8.63031e-23)
(0.0384218 -0.620788 -8.38448e-21)
(0.023875 -0.667955 -1.39714e-21)
(0.00806232 -0.692306 -7.49908e-21)
(0.109307 -0.225491 2.43389e-20)
(0.101198 -0.266572 -9.24774e-21)
(0.0944046 -0.303354 7.75956e-22)
(0.0853818 -0.353439 -8.02053e-21)
(0.0766142 -0.411438 0)
(0.0663218 -0.478846 -5.24784e-21)
(0.0548191 -0.549907 -3.96002e-22)
(0.0410167 -0.615028 1.14075e-20)
(0.025482 -0.662732 1.55923e-21)
(0.00863582 -0.687434 -1.56497e-21)
(0.118868 -0.219031 -1.78909e-21)
(0.108295 -0.259758 1.70488e-20)
(0.101151 -0.295979 8.3677e-21)
(0.0911952 -0.345545 -8.36203e-21)
(0.0818925 -0.403371 -4.90513e-21)
(0.0708806 -0.470861 0)
(0.0586278 -0.542428 -1.16981e-20)
(0.0439225 -0.608371 5.86456e-21)
(0.027313 -0.656943 6.23114e-21)
(0.00931031 -0.682187 6.683e-21)
(0.129106 -0.212119 -3.40026e-21)
(0.115889 -0.251939 0)
(0.108325 -0.287898 0)
(0.097382 -0.337055 0)
(0.0874415 -0.394921 -5.58024e-21)
(0.0756378 -0.462769 1.04675e-20)
(0.0625331 -0.535025 1.1921e-20)
(0.0468345 -0.601829 -1.87101e-20)
(0.0291006 -0.651159 3.33854e-21)
(0.009927 -0.676886 -9.92677e-21)
(0.139918 -0.204707 -5.58978e-21)
(0.124085 -0.242476 1.65168e-20)
(0.115912 -0.278654 -1.6359e-20)
(0.104071 -0.327154 2.00653e-20)
(0.0934843 -0.384762 -2.51886e-20)
(0.0809482 -0.452696 0)
(0.067025 -0.52565 -6.24383e-21)
(0.0503028 -0.593755 -2.5593e-22)
(0.0313018 -0.644469 -6.94143e-21)
(0.0107454 -0.670985 -7.07028e-21)
(0.150968 -0.198055 -3.63593e-21)
(0.132594 -0.233526 0)
(0.123416 -0.270625 -2.14161e-20)
(0.110747 -0.318742 3.97876e-20)
(0.0994104 -0.37649 -1.52879e-20)
(0.0860405 -0.444787 -2.98717e-21)
(0.0711765 -0.518367 6.23061e-21)
(0.0533705 -0.587152 -3.06717e-22)
(0.0331608 -0.638427 1.01382e-20)
(0.0113268 -0.66533 1.04635e-20)
(0.162975 -0.187937 -1.6005e-20)
(0.143019 -0.220414 1.56421e-20)
(0.132328 -0.258043 2.28928e-21)
(0.118899 -0.305311 0)
(0.106752 -0.362728 0)
(0.0926032 -0.431241 2.88516e-21)
(0.076799 -0.50614 1.29715e-20)
(0.05777 -0.577138 -1.26411e-20)
(0.0359936 -0.630583 -3.43789e-21)
(0.0124159 -0.658522 3.3763e-21)
(0.173998 -0.190242 0)
(0.164463 -0.215462 0)
(0.148791 -0.25519 0)
(0.133562 -0.301137 0)
(0.119829 -0.357367 0)
(0.1038 -0.423928 0)
(0.0858638 -0.496408 0)
(0.0644127 -0.564932 0)
(0.0399364 -0.616797 0)
(0.0132507 -0.644563 0)
(0.196049 -0.170394 0)
(0.201096 -0.200359 0)
(0.176622 -0.244531 0)
(0.162372 -0.289427 0)
(0.145911 -0.345501 0)
(0.126798 -0.409948 0)
(0.105158 -0.478615 0)
(0.07916 -0.542165 0)
(0.0495313 -0.58903 0)
(0.01756 -0.612501 0)
(0.228577 -0.150178 0)
(0.239442 -0.180688 0)
(0.206335 -0.224735 0)
(0.195473 -0.267845 0)
(0.174499 -0.323543 0)
(0.151901 -0.384822 0)
(0.125584 -0.449535 0)
(0.0940953 -0.509347 0)
(0.0582177 -0.554332 0)
(0.0189827 -0.579011 0)
(0.270813 -0.136061 0)
(0.283404 -0.165314 0)
(0.243853 -0.208391 0)
(0.237393 -0.250449 0)
(0.209619 -0.305269 0)
(0.183815 -0.361843 0)
(0.15175 -0.421676 0)
(0.113769 -0.475218 0)
(0.0709997 -0.513803 0)
(0.0253859 -0.532109 0)
(0.322161 -0.118783 0)
(0.33342 -0.146169 0)
(0.289451 -0.186155 0)
(0.284796 -0.22505 0)
(0.246697 -0.275173 0)
(0.217411 -0.324726 0)
(0.177036 -0.379 0)
(0.131579 -0.427036 0)
(0.0805638 -0.463749 0)
(0.0252928 -0.485465 0)
(0.38634 -0.108444 0)
(0.39421 -0.133417 0)
(0.347266 -0.170049 0)
(0.340649 -0.204668 0)
(0.291545 -0.249372 0)
(0.260332 -0.29239 0)
(0.209751 -0.340854 0)
(0.156196 -0.380329 0)
(0.0966625 -0.409123 0)
(0.0357984 -0.420328 0)
(0.45762 -0.0867379 0)
(0.45759 -0.107279 0)
(0.408106 -0.137884 0)
(0.394581 -0.165864 0)
(0.335148 -0.202931 0)
(0.300379 -0.237654 0)
(0.233548 -0.276974 0)
(0.171998 -0.308291 0)
(0.101678 -0.33795 0)
(0.0279321 -0.360198 0)
(0.538864 -0.0746338 0)
(0.528241 -0.0902998 0)
(0.480157 -0.115072 0)
(0.455789 -0.136296 0)
(0.392 -0.165973 0)
(0.349089 -0.191903 0)
(0.268819 -0.22264 0)
(0.203033 -0.248233 0)
(0.12338 -0.27334 0)
(0.0538057 -0.274766 0)
(0.600854 -0.0397947 0)
(0.580064 -0.0479428 0)
(0.526363 -0.0631054 0)
(0.489275 -0.0742391 0)
(0.417702 -0.0921495 0)
(0.361265 -0.105134 0)
(0.267473 -0.123647 0)
(0.191905 -0.13818 0)
(0.0919048 -0.163455 0)
(-0.00636875 -0.208612 0)
(0.78952 -0.0197545 0)
(0.763608 -0.0237439 0)
(0.717566 -0.0297643 0)
(0.674645 -0.0352289 0)
(0.610017 -0.0433041 0)
(0.5464 -0.0508719 0)
(0.457274 -0.0625085 0)
(0.366213 -0.0764692 0)
(0.2443 -0.104623 0)
(0.165288 -0.159042 0)
(0.207034 -0.16697 1.70594e-20)
(0.232957 -0.143982 -1.67903e-20)
(0.266005 -0.125507 2.62861e-21)
(0.306816 -0.112848 0)
(0.356843 -0.0979928 0)
(0.417953 -0.0891584 3.68867e-21)
(0.486864 -0.0705959 -1.71234e-20)
(0.563253 -0.0613256 1.69761e-20)
(0.627635 -0.0314072 4.81225e-21)
(0.810074 -0.0166314 -4.8321e-21)
(0.215913 -0.157086 -1.65843e-20)
(0.24126 -0.133193 0)
(0.274195 -0.115725 1.82094e-20)
(0.31506 -0.103683 -4.34251e-20)
(0.365224 -0.08977 2.8836e-20)
(0.426135 -0.0815394 -3.37154e-21)
(0.494881 -0.0641686 7.28948e-21)
(0.570401 -0.0559783 1.60799e-20)
(0.6366 -0.0280336 4.45684e-21)
(0.817269 -0.0153166 4.32567e-21)
(0.223712 -0.145695 1.93643e-20)
(0.247554 -0.121972 -1.7912e-20)
(0.27961 -0.105841 1.77435e-20)
(0.320172 -0.0945146 -2.29565e-20)
(0.370354 -0.0816213 1.67463e-20)
(0.431304 -0.0740905 0)
(0.500091 -0.0579892 -7.30745e-21)
(0.575393 -0.0509862 -6.94002e-23)
(0.643758 -0.0249879 -8.37514e-21)
(0.823277 -0.0140815 -8.66786e-21)
(0.232323 -0.133452 -3.32663e-21)
(0.255338 -0.110474 0)
(0.286493 -0.0957844 0)
(0.326477 -0.0852577 0)
(0.376402 -0.0734819 1.86051e-20)
(0.437121 -0.0667577 -1.25998e-20)
(0.505739 -0.0520131 -3.71308e-22)
(0.580665 -0.0462778 -8.21029e-21)
(0.650701 -0.0222265 -4.22736e-21)
(0.829052 -0.0129324 -4.29234e-21)
(0.240483 -0.120786 2.72866e-21)
(0.26307 -0.0989346 -1.04924e-20)
(0.293528 -0.0856833 -9.87651e-21)
(0.333198 -0.0759996 9.87072e-21)
(0.38296 -0.0653956 -5.92236e-21)
(0.443487 -0.0595542 0)
(0.511914 -0.0462062 -7.24031e-21)
(0.586391 -0.0417558 1.59179e-20)
(0.657691 -0.0196534 -8.03307e-21)
(0.834738 -0.0118486 8.60242e-21)
(0.24774 -0.107771 -2.55046e-20)
(0.269856 -0.0874153 1.84365e-21)
(0.299455 -0.0756037 -1.25413e-21)
(0.339023 -0.0668469 9.73913e-21)
(0.388769 -0.0574508 0)
(0.449296 -0.0525451 0)
(0.517686 -0.0405938 0)
(0.591871 -0.0374 7.69904e-21)
(0.66434 -0.0172209 0)
(0.840099 -0.0108165 0)
(0.254133 -0.0944417 0)
(0.275599 -0.0758631 1.21548e-20)
(0.304168 -0.0655076 -8.3543e-21)
(0.343594 -0.0578227 -1.08733e-20)
(0.39333 -0.0496674 1.09301e-20)
(0.453939 -0.0457575 6.72149e-21)
(0.522426 -0.0351935 -6.43416e-21)
(0.59653 -0.0332249 -2.6681e-20)
(0.670226 -0.0149245 1.89425e-21)
(0.844866 -0.00983393 -6.28364e-21)
(0.259602 -0.0808347 0)
(0.280241 -0.064245 -3.81228e-21)
(0.307883 -0.0553617 -2.21839e-21)
(0.347073 -0.0488841 0)
(0.396664 -0.0420069 3.17602e-21)
(0.457355 -0.0391576 -9.26545e-21)
(0.525969 -0.0299829 1.06676e-20)
(0.600173 -0.0292242 3.99383e-21)
(0.675139 -0.012762 -4.00002e-21)
(0.84892 -0.00890057 8.403e-21)
(0.263998 -0.0669623 2.65898e-21)
(0.283707 -0.05255 4.07312e-21)
(0.310596 -0.0451813 -7.94278e-22)