/*--------------------------------*- C++ -*----------------------------------*\
  =========                 |
  \\      /  F ield         | OpenFOAM: The Open Source CFD Toolbox
   \\    /   O peration     | Website:  https://openfoam.org
    \\  /    A nd           | Version:  7
     \\/     M anipulation  |
\*---------------------------------------------------------------------------*/
FoamFile
{
    version     2.0;
    format      ascii;
    class       volScalarField;
    location    "63.7";
    object      p;
}
// * * * * * * * * * * * * * * * * * * * * * * * * * * * * * * * * * * * * * //

dimensions      [0 2 -2 0 0 0 0];

internalField   nonuniform List<scalar> 
2000
(
0.0155467
0.0156565
0.0158803
0.0161359
0.0163844
0.0166088
0.016807
0.0169864
0.0171565
0.0173489
0.0157488
0.0158731
0.0161154
0.0163972
0.0166746
0.0169252
0.0171406
0.0173224
0.0174737
0.0176182
0.0159082
0.0160624
0.0163266
0.0166368
0.0169448
0.0172238
0.0174605
0.0176511
0.0177938
0.0178972
0.0160218
0.0162243
0.0165132
0.0168526
0.0171908
0.017498
0.0177573
0.0179612
0.0181048
0.0181755
0.0160911
0.0163615
0.0166764
0.0170436
0.0174088
0.0177409
0.0180206
0.0182388
0.0183909
0.0184393
0.0161254
0.0164761
0.0168189
0.0172104
0.0175966
0.0179463
0.0182401
0.0184689
0.0186332
0.0186701
0.0161322
0.0165762
0.0169453
0.0173553
0.0177532
0.0181098
0.018407
0.0186376
0.0188105
0.0188452
0.0161252
0.0166699
0.0170617
0.0174816
0.0178796
0.0182293
0.0185161
0.0187358
0.018909
0.0189478
0.0161212
0.0167665
0.0171749
0.0175941
0.0179778
0.0183046
0.0185653
0.0187621
0.0189314
0.0189849
0.0161387
0.0168762
0.0172926
0.0176982
0.0180515
0.0183365
0.0185517
0.0187084
0.01886
0.0189368
0.0180552
0.0199704
0.0226307
0.0258161
0.0289672
0.0323512
0.0349615
0.0380356
0.0389381
0.0407249
0.0181642
0.0197064
0.0219888
0.0248882
0.0278016
0.0309824
0.0334182
0.0363129
0.037271
0.0388705
0.0182543
0.0194953
0.0213764
0.023993
0.0266835
0.0296759
0.0319553
0.0347106
0.0356574
0.0371427
0.018309
0.0193413
0.020798
0.0231385
0.0256168
0.02843
0.0305743
0.0332052
0.034119
0.0355418
0.0183139
0.0192363
0.0202579
0.0223322
0.0246061
0.0272497
0.0292775
0.0317961
0.0326832
0.0340663
0.0182607
0.0191543
0.0197594
0.0215784
0.0236507
0.0261299
0.0280492
0.0304615
0.0313323
0.032698
0.0181491
0.0190551
0.0193058
0.0208811
0.0227604
0.0250866
0.0269103
0.0292275
0.030088
0.0314367
0.0179825
0.0188902
0.0188991
0.0202302
0.0219116
0.0240803
0.0258106
0.0280325
0.0288934
0.0302577
0.0177625
0.018602
0.0185291
0.0196619
0.0211757
0.0231972
0.0248445
0.0269663
0.0278168
0.0291719
0.0176636
0.0183046
0.0181494
0.0190284
0.0203558
0.0222208
0.0238013
0.0258271
0.0267233
0.0281281
0.0189016
0.0194462
0.0193331
0.0194777
0.0200912
0.0212657
0.0224726
0.0239707
0.0247792
0.0258116
0.0161281
0.0169086
0.0173157
0.0176933
0.0182461
0.0190848
0.0199741
0.0210383
0.0216518
0.0223179
0.0136104
0.0145547
0.015116
0.0155281
0.0160411
0.0167457
0.0174294
0.0182225
0.0186347
0.0190896
0.0108683
0.0120288
0.0128509
0.0133911
0.0138603
0.0144567
0.015007
0.0156249
0.0158826
0.0161917
0.00800234
0.00928938
0.010426
0.0112197
0.0117523
0.0122766
0.0127073
0.0131828
0.0133443
0.0135664
0.00525887
0.00658095
0.00792279
0.00892817
0.00959314
0.0101357
0.0105201
0.0108947
0.0109887
0.0111348
0.00289395
0.0041505
0.00556671
0.00669262
0.00742816
0.00795271
0.00828966
0.00859997
0.00866082
0.00876248
0.00110497
0.00214707
0.00343218
0.00454812
0.00530449
0.00579925
0.00607676
0.00631067
0.00632889
0.00638465
6.45926e-05
0.000800693
0.00177641
0.00263653
0.00320631
0.00356559
0.00374675
0.00391429
0.00389388
0.00392788
-0.000781599
-0.000224151
0.000402329
0.00091345
0.00121016
0.00136411
0.00139114
0.00146185
0.00139159
0.00138638
0.0179524
0.0152078
0.0126768
0.00995121
0.00720019
0.00459973
0.00240128
0.000734068
-6.55543e-05
-0.00105125
0.0173884
0.0146266
0.0120896
0.00939188
0.00671556
0.00421348
0.00213247
0.000569458
-0.000111475
-0.00106632
0.0167206
0.0140605
0.0115465
0.00889595
0.00629701
0.00389001
0.00191889
0.000458252
-0.000148995
-0.000933576
0.0161123
0.0135945
0.0111043
0.00850565
0.00598259
0.00366516
0.00178866
0.000420329
-0.000146115
-0.000774065
0.0156097
0.0132204
0.0107527
0.00820552
0.00575246
0.00352261
0.00173096
0.000439154
-0.000104662
-0.00061746
0.0152432
0.012943
0.0104952
0.00799126
0.00561168
0.00345682
0.00173724
0.000506319
-3.25045e-05
-0.000467239
0.0150265
0.0127644
0.0103365
0.00786978
0.0055526
0.00346288
0.0018022
0.000615356
6.42846e-05
-0.000326728
0.0149641
0.0126832
0.0102738
0.0078344
0.00557052
0.00353447
0.00191861
0.000758789
0.000180154
-0.000198729
0.0150404
0.0126975
0.0103016
0.00787914
0.00565841
0.00366356
0.00207801
0.000928909
0.000309719
-8.39969e-05
0.0152331
0.012799
0.0104112
0.00799538
0.0058068
0.00384082
0.00227153
0.00111844
0.000448126
1.82012e-05
0.0155137
0.0129713
0.0105876
0.00816991
0.0060033
0.00405545
0.00249002
0.00132069
0.000591255
0.000109205
0.0158602
0.0132005
0.0108182
0.00839243
0.00623792
0.00429883
0.00272611
0.00153048
0.000736057
0.000190456
0.0162574
0.0134782
0.0110946
0.00865631
0.00650349
0.0045646
0.0029743
0.00174408
0.000880486
0.000263441
0.0166905
0.0137963
0.0114072
0.00895455
0.00679297
0.00484689
0.00323004
0.00195869
0.00102325
0.000329484
0.0171474
0.0141491
0.0117477
0.00928116
0.00710057
0.00514091
0.00348991
0.00217242
0.00116364
0.000389718
0.0176177
0.0145328
0.0121085
0.00963077
0.00742164
0.0054428
0.00375143
0.00238401
0.0013014
0.000445117
0.0180866
0.0149408
0.0124813
0.00999721
0.0077519
0.0057491
0.00401274
0.00259266
0.00143656
0.000496583
0.0185456
0.0153778
0.0128689
0.0103823
0.00809339
0.00606085
0.00427471
0.00279908
0.00156987
0.000545098
0.0190398
0.0159006
0.0133087
0.010812
0.00846493
0.00638975
0.00454432
0.00300703
0.00170329
0.000591102
0.0194424
0.016432
0.0137406
0.0112348
0.00883282
0.00670976
0.00480647
0.0032077
0.00183343
0.000631616
0.0189129
0.0167606
0.0142089
0.0118017
0.009425
0.00727088
0.00531445
0.00361684
0.00211208
0.00072386
0.0188216
0.0166904
0.0142498
0.0119809
0.00969572
0.00761266
0.00567115
0.00394823
0.00236004
0.000834989
0.0193641
0.0171704
0.0146865
0.0124243
0.0101199
0.00801861
0.00603076
0.00425575
0.00258897
0.000948583
0.0202091
0.0178231
0.0152341
0.0129143
0.0105563
0.00840976
0.00636373
0.00454033
0.00281502
0.00107868
0.0213913
0.0187038
0.0159415
0.0134925
0.0110362
0.00880844
0.00669211
0.00482416
0.00305504
0.00122916
0.0228503
0.0197995
0.0168122
0.0141667
0.0115755
0.00923461
0.00703935
0.00511878
0.00330553
0.00138157
0.0244479
0.021023
0.017785
0.0149035
0.0121587
0.0096867
0.00740778
0.00541366
0.00352241
0.00147449
0.0259989
0.0221861
0.0187043
0.0156038
0.012725
0.0101349
0.00777171
0.00566783
0.00364559
0.00146316
0.0272066
0.0231165
0.0194432
0.0161677
0.0131859
0.0105069
0.0080671
0.00583845
0.00366551
0.00137558
0.0279609
0.0236117
0.0198161
0.0164575
0.0134347
0.0107178
0.00823533
0.00592302
0.00364855
0.00129982
0.0204325
0.0204358
0.0210544
0.0220041
0.0233716
0.0250134
0.026821
0.0286274
0.0301132
0.0310633
0.0207668
0.0210299
0.0217982
0.0228804
0.0243874
0.0261437
0.0280507
0.0299192
0.0314437
0.032373
0.0208896
0.0214568
0.0224715
0.0237908
0.0255116
0.027448
0.0294986
0.0314282
0.0329373
0.0337816
0.0210938
0.0218844
0.0231
0.0246403
0.0265591
0.0286773
0.0308921
0.0329339
0.0344894
0.035324
0.0213829
0.0224008
0.0237879
0.0255127
0.0275951
0.0298691
0.0322366
0.0344129
0.0360686
0.0369644
0.0217009
0.0229772
0.0245571
0.0264636
0.0287004
0.0311179
0.033622
0.0359258
0.0376915
0.038669
0.0220397
0.0235826
0.0253849
0.0274883
0.0298926
0.0324619
0.0351014
0.0375218
0.039383
0.0404293
0.022413
0.024215
0.0262574
0.0285678
0.0311555
0.0338925
0.0366777
0.0392136
0.0411566
0.0422522
0.0228295
0.0248793
0.0271749
0.0296925
0.0324748
0.0353916
0.0383347
0.0409925
0.0430132
0.044146
0.0232924
0.0255731
0.0281385
0.0308582
0.0338445
0.0369479
0.0400589
0.0428475
0.044949
0.0461149
0.0238046
0.0262862
0.0291458
0.0320582
0.0352617
0.0385559
0.0418445
0.0447725
0.0469609
0.0481599
0.0243633
0.0270055
0.0301884
0.0332814
0.0367193
0.0402092
0.0436873
0.0467647
0.0490477
0.0502812
0.0249499
0.0277222
0.0312455
0.0345191
0.0382062
0.0419044
0.0455851
0.0488232
0.0512128
0.0524824
0.0255323
0.0284367
0.0322889
0.035768
0.0397065
0.0436346
0.0475315
0.0509459
0.0534638
0.0547718
0.026063
0.0291533
0.0332732
0.0370417
0.041216
0.0453959
0.0495247
0.0531308
0.0557869
0.0571434
0.0264807
0.0298769
0.0342231
0.0382758
0.0427066
0.0471612
0.0515451
0.0553644
0.0581734
0.059593
0.0268178
0.0305547
0.0351171
0.0394518
0.0441675
0.0489234
0.0535899
0.0576465
0.0606265
0.0621253
0.0270355
0.0311548
0.0359167
0.0405462
0.0455612
0.0506414
0.0556219
0.0599515
0.0631343
0.0647368
0.0271105
0.0316987
0.0366458
0.041595
0.0469273
0.0523565
0.0576735
0.0622993
0.065708
0.0674411
0.0268657
0.031997
0.0371077
0.0423675
0.048017
0.053828
0.0595503
0.0645668
0.0682898
0.070215
0.0278406
0.0342606
0.0397815
0.0456628
0.0519198
0.0584105
0.0648257
0.070534
0.0748428
0.0771618
0.0342051
0.04044
0.0462952
0.0531289
0.060411
0.0680134
0.0754986
0.0821215
0.087091
0.0897256
0.0411713
0.0478178
0.054402
0.0623202
0.0706855
0.0794628
0.0879777
0.0953958
0.100893
0.103816
0.0485753
0.0559356
0.0636176
0.0727809
0.0823663
0.09243
0.101936
0.110062
0.115962
0.118996
0.0564185
0.0646943
0.0736465
0.0841286
0.0950231
0.106408
0.11683
0.125581
0.13177
0.13501
0.0648315
0.0740887
0.0844304
0.0962445
0.10848
0.121135
0.132381
0.141649
0.147856
0.150729
0.0732394
0.0836058
0.0952521
0.108282
0.121799
0.135536
0.147525
0.157184
0.163169
0.166019
0.0815535
0.092709
0.105549
0.119748
0.134526
0.149217
0.162071
0.172224
0.17768
0.17834
0.0871128
0.0992945
0.113089
0.128195
0.143945
0.159336
0.172968
0.183381
0.187925
0.190257
0.0917651
0.104237
0.118693
0.134517
0.151113
0.167359
0.182552
0.195455
0.202246
0.187397
0.0257903
0.031837
0.0378992
0.0447778
0.0518314
0.059823
0.0674418
0.0756539
0.0804695
0.0851002
0.0252161
0.0315094
0.0374542
0.0441552
0.0509417
0.0586899
0.0659275
0.0738741
0.0781369
0.0826602
0.0250336
0.031605
0.0376587
0.044256
0.0509172
0.0584268
0.0652994
0.0727497
0.0764301
0.0806143
0.0247322
0.0314117
0.0374784
0.0440014
0.0505662
0.057885
0.0644623
0.0715162
0.0748819
0.0786868
0.0243752
0.0310461
0.0370274
0.0434869
0.0499084
0.0570154
0.0633307
0.0700893
0.0733296
0.0768332
0.0240173
0.0306549
0.0365714
0.0429248
0.0492349
0.0560955
0.0621729
0.0686522
0.0718354
0.0751111
0.0236541
0.0302597
0.0361603
0.0424097
0.0486363
0.0552782
0.0611776
0.0673466
0.0705149
0.0735807
0.0232868
0.02986
0.0357714
0.0419507
0.0481097
0.0545753
0.0603725
0.0662029
0.0694394
0.0722649
0.022928
0.0294713
0.0354031
0.0415416
0.0476458
0.0539891
0.0597049
0.0652788
0.0685633
0.0711627
0.0225938
0.0291113
0.0350706
0.0411904
0.0472549
0.0535193
0.059162
0.0645688
0.0678546
0.0702928
0.0223001
0.0287926
0.0347888
0.0409099
0.046954
0.0531703
0.0587582
0.0640542
0.0673204
0.0696587
0.0220429
0.0285101
0.0345587
0.0407019
0.0467497
0.0529465
0.0585078
0.0637266
0.0669771
0.0692537
0.0218036
0.0282511
0.0343734
0.0405619
0.0466406
0.0528504
0.0584169
0.0635879
0.0668355
0.0690709
0.021571
0.028014
0.0342303
0.0404872
0.0466244
0.0528823
0.0584844
0.0636391
0.066894
0.0691041
0.0213321
0.0278002
0.0341273
0.0404752
0.0467004
0.053042
0.0587101
0.063882
0.067152
0.0693525
0.0210639
0.0276068
0.0340548
0.0405175
0.0468617
0.053319
0.0590849
0.0643064
0.0675945
0.0698146
0.0207351
0.0274276
0.0340009
0.0406073
0.0471064
0.0537142
0.0596165
0.0649172
0.0682285
0.0704975
0.0203067
0.0272384
0.0339352
0.0407133
0.047398
0.0541869
0.0602672
0.0656797
0.0690153
0.0714013
0.0197686
0.0270587
0.0338867
0.0408686
0.0477773
0.0547832
0.0610817
0.06663
0.0699982
0.0725405
0.0189051
0.0266407
0.033625
0.0408318
0.0479867
0.0552477
0.0618421
0.0676165
0.0710555
0.0739015
0.0199965
0.0279546
0.0350213
0.0425341
0.050149
0.0578062
0.0648824
0.0709761
0.0746478
0.0777884
0.025626
0.0333372
0.0404685
0.0486096
0.0569853
0.0655207
0.0735226
0.0803101
0.0846582
0.0874665
0.0321271
0.0401747
0.0479368
0.057067
0.0664886
0.0762629
0.0854575
0.0932145
0.0983023
0.101053
0.0389153
0.0476571
0.0565527
0.0670822
0.0780133
0.0895704
0.100433
0.109721
0.116062
0.11942
0.0458343
0.0555413
0.0658996
0.0781014
0.0909456
0.104781
0.117902
0.129617
0.138264
0.143362
0.0529266
0.0637705
0.0758722
0.0899182
0.10504
0.121575
0.137701
0.153164
0.166251
0.175635
0.0593928
0.0716392
0.0854426
0.101376
0.119016
0.138513
0.158663
0.179827
0.200514
0.219441
0.0658176
0.0791536
0.0945881
0.112467
0.132722
0.155511
0.180862
0.210275
0.244308
0.283378
0.0687856
0.0828896
0.0993905
0.118674
0.141314
0.167961
0.200313
0.241547
0.297509
0.372891
0.0719654
0.0877269
0.105752
0.127148
0.15318
0.185281
0.226634
0.283617
0.370891
0.495654
0.0184688
0.0235659
0.0288951
0.034785
0.0405641
0.047141
0.0524881
0.0586967
0.0612931
0.0632816
0.0179813
0.0230638
0.0282434
0.0338376
0.0392243
0.0455021
0.0503846
0.0563896
0.058648
0.0609546
0.0178482
0.0229196
0.0280447
0.0334605
0.0386159
0.044548
0.0490448
0.0546295
0.056466
0.0595683
0.0177559
0.0226153
0.0275457
0.0327627
0.0376936
0.0433048
0.0474847
0.0526711
0.054173
0.0576448
0.017701
0.0222109
0.026833
0.0318222
0.0364569
0.0417263
0.0455955
0.0504495
0.0516773
0.0550499
0.0176916
0.021799
0.0261014
0.0308101
0.0351602
0.0400543
0.0436032
0.0481594
0.0491341
0.0521899
0.017716
0.0213966
0.0253925
0.0297711
0.0339133
0.0384263
0.0416826
0.0459587
0.0467071
0.0494454
0.0177683
0.0210033
0.0246895
0.0287513
0.0326631
0.0368453
0.0398896
0.0438762
0.044475
0.0469732
0.017846
0.0206274
0.0239884
0.0277522
0.0314113
0.0352884
0.0382061
0.0418612
0.042457
0.0447513
0.0179443
0.0202797
0.0232988
0.026772
0.0301742
0.0337857
0.0365653
0.0398909
0.0406453
0.0426886
0.0161987
0.0170106
0.017424
0.0178014
0.018107
0.0183302
0.0184758
0.0185551
0.0185938
0.0185369
0.0163293
0.0171844
0.0175802
0.0179141
0.0181561
0.0183019
0.0183624
0.0183524
0.0182976
0.0181603
0.016547
0.017408
0.0177719
0.0180483
0.0182143
0.0182721
0.0182388
0.0181343
0.0179931
0.0177871
0.0168689
0.0176935
0.0180114
0.0182186
0.0182995
0.0182633
0.018133
0.0179333
0.0177053
0.0174238
0.0173104
0.018053
0.0183119
0.0184402
0.0184304
0.0182984
0.0180723
0.0177808
0.0174669
0.0171042
0.0178819
0.0184968
0.0186846
0.0187267
0.0186236
0.0183973
0.0180796
0.0177018
0.0173055
0.0168629
0.0185874
0.0190314
0.0191376
0.019088
0.0188909
0.0185736
0.01817
0.0177126
0.0172394
0.0167249
0.0194236
0.0196588
0.019674
0.0195282
0.0192375
0.0188331
0.0183495
0.0178198
0.0172758
0.0166927
0.0203777
0.0203737
0.0202898
0.0200441
0.0196604
0.0191727
0.0186159
0.0180209
0.0174129
0.0167676
0.0214192
0.0211585
0.0209715
0.0206241
0.0201491
0.0195826
0.0189584
0.0183046
0.0176402
0.0169479
0.0224932
0.0219851
0.021697
0.0212495
0.0206864
0.0200461
0.0193606
0.0186544
0.0179421
0.017215
0.0236152
0.022845
0.022449
0.0218998
0.0212511
0.020542
0.0198014
0.0190501
0.0182991
0.0175484
0.0247322
0.0237
0.0231956
0.0225474
0.0218184
0.0210474
0.0202593
0.0194708
0.018691
0.0179276
0.0257927
0.0245115
0.0239039
0.0231633
0.0223623
0.0215383
0.0207119
0.0198951
0.0190972
0.0183327
0.0267493
0.0252417
0.0245407
0.0237187
0.0228572
0.0219916
0.0211377
0.0203032
0.0194986
0.0187456
0.0275571
0.0258536
0.0250743
0.0241866
0.0232796
0.0223864
0.0215178
0.0206772
0.019878
0.0191499
0.0281749
0.0263134
0.0254766
0.0245436
0.0236096
0.0227054
0.0218366
0.0210027
0.0202204
0.0195293
0.0285682
0.0265927
0.0257244
0.0247712
0.0238322
0.0229356
0.0220834
0.0212696
0.0205122
0.0198643
0.0287112
0.0266701
0.025801
0.0248569
0.0239377
0.0230695
0.0222508
0.0214679
0.0207332
0.0201283
0.0285878
0.0265326
0.0256968
0.0247945
0.0239232
0.0231067
0.0223394
0.0215958
0.0208791
0.020321
0.0281908
0.0261746
0.0254082
0.0245829
0.0237919
0.0230596
0.0223846
0.021751
0.0211831
0.0208352
0.0275154
0.0255957
0.024936
0.0242226
0.0235411
0.0229159
0.0223487
0.0218304
0.0213817
0.0211049
0.026579
0.0248088
0.0242892
0.0237185
0.0231714
0.0226709
0.0222209
0.0218169
0.0214703
0.0212348
0.0254078
0.0238338
0.0234826
0.0230818
0.0226912
0.0223331
0.022014
0.0217341
0.0214997
0.0213381
0.0240356
0.0226969
0.0225366
0.0223285
0.0221147
0.0219162
0.0217429
0.0215992
0.0214888
0.0214277
0.022503
0.0214298
0.0214765
0.0214793
0.0214594
0.0214356
0.0214215
0.0214252
0.0214492
0.0215035
0.0208556
0.0200682
0.0203308
0.0205572
0.0207446
0.0209082
0.0210646
0.0212255
0.0213939
0.021576
0.0191404
0.018649
0.0191293
0.019586
0.0199899
0.0203505
0.0206865
0.0210127
0.0213344
0.0216565
0.0174047
0.0172083
0.0179013
0.0185892
0.0192143
0.019778
0.0202998
0.0207975
0.0212792
0.0217517
0.0157067
0.0157851
0.0166763
0.017589
0.0184347
0.0192036
0.0199147
0.0205877
0.0212339
0.0218648
0.0141269
0.0144308
0.0154896
0.0166101
0.0176685
0.01864
0.0195401
0.020389
0.0212009
0.0219956
0.0126024
0.0131341
0.0143469
0.0156618
0.0169241
0.0180929
0.0191793
0.0202026
0.0211779
0.0221375
0.0111806
0.0119256
0.0132665
0.0147585
0.0162108
0.0175678
0.0188343
0.0200274
0.0211593
0.0222762
0.00989516
0.0108274
0.0122685
0.0139101
0.0155349
0.0170671
0.0185041
0.0198601
0.0211405
0.0223893
0.00876045
0.00985001
0.0113643
0.0131265
0.0149004
0.0165917
0.0181864
0.0196957
0.0211234
0.0224482
0.00778394
0.00900095
0.0105598
0.0124122
0.01431
0.0161414
0.0178795
0.0195256
0.0210712
0.0225546
0.00696845
0.00828363
0.00985911
0.01177
0.0137645
0.0157148
0.0175813
0.0193546
0.021009
0.0225905
0.00631207
0.00769753
0.00926354
0.0112013
0.0132635
0.0153099
0.0172879
0.0191782
0.0209315
0.0225721
0.00580904
0.00723887
0.00877221
0.0107063
0.0128062
0.0149241
0.0169964
0.0189976
0.0208572
0.0225427
0.00545122
0.00690178
0.00838228
0.0102834
0.0123902
0.014553
0.0166977
0.0187981
0.0207905
0.0225602
0.00522619
0.00667727
0.00808824
0.00992967
0.0120126
0.0141926
0.0163897
0.0185886
0.020833
0.0230157
0.00510616
0.00654928
0.00788183
0.00964147
0.0116694
0.0138296
0.016033
0.018241
0.0204896
0.0226675
0.0050927
0.00651475
0.0077601
0.00941824
0.0113614
0.0134648
0.0156325
0.0178035
0.0199898
0.0221054
0.00517709
0.00656529
0.00771785
0.00926004
0.0110955
0.0131149
0.0152229
0.0173503
0.0194933
0.0215644
0.00534605
0.00669028
0.00774862
0.00916658
0.0108788
0.0127952
0.0148269
0.0169024
0.019006
0.0210434
0.00558669
0.00687943
0.00784549
0.00913626
0.0107154
0.0125149
0.0144555
0.0164659
0.0185209
0.0205266
0.00588712
0.00712295
0.0080011
0.00916601
0.0106073
0.0122798
0.0141171
0.0160505
0.018047
0.0200178
0.00623607
0.00741124
0.00820756
0.00925144
0.0105545
0.0120943
0.0138192
0.0156658
0.0175951
0.0195258
0.00662338
0.00773506
0.00845651
0.00938678
0.0105551
0.0119601
0.0135668
0.0153188
0.0171734
0.019059
0.00704374
0.0080894
0.00874227
0.0095672
0.0106064
0.0118776
0.0133623
0.0150138
0.0167874
0.0186236
0.00749759
0.00847645
0.00906635
0.00979384
0.0107102
0.0118496
0.0132099
0.0147557
0.0164418
0.0182238
0.00795481
0.00886992
0.00940557
0.0100474
0.010852
0.0118664
0.0131043
0.014542
0.0161354
0.0178562
0.00841624
0.00927055
0.00975873
0.0103252
0.0110284
0.0119253
0.0130434
0.0143712
0.0158663
0.0175152
0.00888026
0.00967633
0.0101226
0.0106228
0.0112347
0.012022
0.0130239
0.0142409
0.0156319
0.0171965
0.00934335
0.0100835
0.0104927
0.010935
0.0114656
0.012152
0.0130425
0.0141487
0.0154299
0.0168954
0.00980262
0.010489
0.0108652
0.0112573
0.0117163
0.0123107
0.0130959
0.0140926
0.0152584
0.0166068
0.0102562
0.0108909
0.0112376
0.0115862
0.0119826
0.0124945
0.0131817
0.0140724
0.0151187
0.0163287
0.0107029
0.0112878
0.0116079
0.011919
0.0122613
0.0127003
0.0132981
0.0140896
0.0150182
0.0160669
0.0111422
0.0116789
0.0119751
0.0122542
0.0125504
0.0129257
0.0134436
0.0141458
0.0149682
0.0158407
0.0115735
0.0120637
0.0123387
0.0125909
0.0128491
0.0131716
0.0136211
0.0142469
0.0149998
0.0157291
0.0119972
0.0124421
0.0126983
0.0129287
0.0131574
0.013441
0.0138461
0.0144502
0.015346
0.016504
0.0124155
0.0128138
0.0130533
0.0132668
0.0134726
0.0137232
0.0140819
0.0146208
0.0154369
0.0164914
0.0128265
0.0131786
0.0134037
0.0136044
0.0137927
0.0140136
0.0143236
0.0147833
0.0154699
0.0163564
0.0132288
0.0135356
0.0137488
0.0139411
0.0141174
0.014315
0.0145833
0.0149767
0.0155593
0.0163093
0.0136209
0.0138836
0.0140877
0.0142757
0.0144461
0.0146278
0.0148632
0.0152009
0.0156951
0.0163317
0.0140002
0.0142211
0.0144187
0.0146068
0.014777
0.0149498
0.0151603
0.0154504
0.0158655
0.0164037
0.0143634
0.0145458
0.0147401
0.0149326
0.015108
0.0152787
0.015472
0.0157228
0.0160687
0.0165205
0.0147065
0.014855
0.0150497
0.0152508
0.0154368
0.0156119
0.0157956
0.0160159
0.0163028
0.0166783
0.0150244
0.0151458
0.0153449
0.0155591
0.0157608
0.0159465
0.0161282
0.0163266
0.0165647
0.0168723
0.0153084
0.0154148
0.0156229
0.0158548
0.0160774
0.0162796
0.0164662
0.0166512
0.0168505
0.0170974
)
;

boundaryField
{
    inlet
    {
        type            zeroGradient;
    }
    outlet
    {
        type            fixedValue;
        value           uniform 0;
    }
    cylinder
    {
        type            zeroGradient;
    }
    top
    {
        type            symmetryPlane;
    }
    bottom
    {
        type            symmetryPlane;
    }
    defaultFaces
    {
        type            empty;
    }
}


// ************************************************************************* //
