/*--------------------------------*- C++ -*----------------------------------*\
  =========                 |
  \\      /  F ield         | OpenFOAM: The Open Source CFD Toolbox
   \\    /   O peration     | Website:  https://openfoam.org
    \\  /    A nd           | Version:  7
     \\/     M anipulation  |
\*---------------------------------------------------------------------------*/
FoamFile
{
    version     2.0;
    format      ascii;
    class       volScalarField;
    location    "6.3";
    object      p;
}
// * * * * * * * * * * * * * * * * * * * * * * * * * * * * * * * * * * * * * //

dimensions      [0 2 -2 0 0 0 0];

internalField   nonuniform List<scalar> 
32000
(
0.431678
0.431855
0.431909
0.43192
0.431949
0.432025
0.432141
0.432299
0.432525
0.432856
0.433319
0.433923
0.434662
0.43553
0.436525
0.437648
0.438906
0.440304
0.441846
0.443531
0.445355
0.447312
0.44939
0.451577
0.453861
0.456231
0.458672
0.461173
0.46372
0.466297
0.468894
0.471498
0.474097
0.47668
0.479236
0.481755
0.484231
0.486664
0.489035
0.491269
0.431792
0.431926
0.431951
0.431933
0.431942
0.432005
0.43211
0.432257
0.432472
0.43279
0.433235
0.43382
0.43454
0.435389
0.436362
0.437459
0.438685
0.440044
0.441542
0.443178
0.44495
0.446851
0.448869
0.450988
0.453198
0.455487
0.457846
0.460261
0.462721
0.465212
0.467722
0.470237
0.472746
0.475238
0.477702
0.480129
0.482515
0.484858
0.487135
0.489291
0.431905
0.431997
0.431995
0.43195
0.431941
0.431992
0.432087
0.432225
0.432434
0.432743
0.433176
0.433744
0.434447
0.435276
0.436228
0.437301
0.438498
0.439822
0.441279
0.44287
0.444592
0.446439
0.448395
0.450446
0.452581
0.45479
0.457064
0.459393
0.461765
0.464167
0.466586
0.469009
0.471424
0.473821
0.476188
0.47852
0.48081
0.483058
0.485237
0.487312
0.432008
0.432049
0.432026
0.431962
0.431939
0.431978
0.432068
0.432203
0.432409
0.432715
0.43314
0.433695
0.434381
0.435193
0.436125
0.437176
0.438346
0.439639
0.441057
0.442605
0.44428
0.446072
0.447967
0.449949
0.452008
0.454136
0.456326
0.458568
0.46085
0.46316
0.465485
0.467812
0.470129
0.472427
0.474694
0.476925
0.479115
0.481264
0.483342
0.485329
0.432111
0.432107
0.432065
0.431985
0.431948
0.431979
0.432063
0.432199
0.432406
0.43271
0.433129
0.433673
0.434345
0.43514
0.436053
0.437083
0.438229
0.439491
0.440875
0.442382
0.444011
0.445749
0.447581
0.449493
0.451476
0.453524
0.455629
0.457783
0.459974
0.46219
0.464417
0.466645
0.468861
0.471056
0.473219
0.475345
0.477432
0.479477
0.481448
0.483342
0.432208
0.432156
0.432097
0.432004
0.431958
0.431982
0.432065
0.432204
0.432415
0.43272
0.433136
0.433672
0.434333
0.435115
0.436011
0.437021
0.438144
0.439379
0.440731
0.442201
0.443784
0.445468
0.447236
0.449077
0.450985
0.452953
0.454974
0.45704
0.459138
0.461256
0.463383
0.465509
0.467621
0.469709
0.471764
0.473782
0.47576
0.477696
0.479556
0.481351
0.432298
0.432202
0.43213
0.432026
0.431974
0.431994
0.432078
0.432222
0.432439
0.432748
0.433164
0.433697
0.43435
0.435119
0.436
0.436992
0.438093
0.439304
0.440627
0.442061
0.443599
0.445226
0.446931
0.448702
0.450535
0.452424
0.454361
0.456336
0.458339
0.460358
0.462383
0.464403
0.466408
0.468386
0.47033
0.472235
0.4741
0.475922
0.477666
0.479357
0.432379
0.432244
0.43216
0.432049
0.431995
0.432015
0.432102
0.432252
0.432477
0.432792
0.433211
0.433744
0.434392
0.435151
0.436018
0.436992
0.438075
0.439264
0.44056
0.441959
0.443451
0.445024
0.446664
0.448367
0.450125
0.451935
0.453787
0.455672
0.457578
0.459495
0.461416
0.463329
0.465223
0.467088
0.468917
0.470705
0.472452
0.474156
0.47578
0.47736
0.432448
0.432276
0.432185
0.432072
0.432018
0.432041
0.432133
0.432291
0.432525
0.432848
0.433275
0.433812
0.434458
0.435208
0.436062
0.437022
0.438088
0.439258
0.440529
0.441894
0.44334
0.444857
0.446435
0.44807
0.449755
0.451485
0.453252
0.455045
0.456854
0.458669
0.460483
0.462286
0.464067
0.465816
0.467527
0.469195
0.47082
0.4724
0.473899
0.475364
0.432501
0.432297
0.432202
0.43209
0.432042
0.432071
0.432171
0.432337
0.432582
0.432917
0.433354
0.433897
0.434543
0.435287
0.436131
0.437078
0.43813
0.439283
0.440531
0.441861
0.443263
0.444726
0.446243
0.447809
0.449422
0.451073
0.452755
0.454455
0.456165
0.457877
0.459583
0.461275
0.462941
0.464571
0.46616
0.467704
0.469203
0.470656
0.472028
0.47337
0.432539
0.432304
0.432209
0.432103
0.432064
0.432103
0.432211
0.432388
0.432645
0.432995
0.433446
0.433998
0.434646
0.435386
0.436222
0.43716
0.4382
0.439338
0.440562
0.441859
0.443217
0.444627
0.446084
0.447585
0.449125
0.450698
0.452294
0.453901
0.455512
0.457119
0.458717
0.460295
0.461844
0.463353
0.464818
0.466235
0.467605
0.468927
0.470167
0.471383
0.432557
0.432297
0.432205
0.432109
0.432082
0.432132
0.432251
0.432441
0.432713
0.433081
0.433548
0.434111
0.434763
0.435502
0.436333
0.437265
0.438296
0.439418
0.440619
0.441884
0.4432
0.444559
0.445958
0.447394
0.448863
0.450358
0.451866
0.45338
0.454891
0.456394
0.457882
0.459346
0.460776
0.462162
0.463501
0.464788
0.466027
0.467216
0.468322
0.469405
0.432558
0.432273
0.432188
0.432105
0.432093
0.432156
0.432288
0.432493
0.432784
0.433172
0.433657
0.434233
0.434891
0.435632
0.436463
0.43739
0.438413
0.439521
0.440699
0.441932
0.443207
0.444518
0.445861
0.447235
0.448633
0.450049
0.451471
0.45289
0.454301
0.4557
0.457078
0.458427
0.459737
0.461
0.46221
0.463367
0.464471
0.465525
0.466496
0.467442
0.432539
0.432234
0.432157
0.43209
0.432094
0.432172
0.43232
0.432543
0.432854
0.433264
0.433769
0.43436
0.435028
0.435774
0.436608
0.437533
0.438549
0.439642
0.440797
0.441999
0.443236
0.444501
0.445791
0.447103
0.448432
0.449769
0.451104
0.45243
0.453742
0.455036
0.456304
0.457538
0.458728
0.459865
0.460947
0.461972
0.462941
0.463858
0.464694
0.465499
0.432501
0.43218
0.432112
0.432062
0.432084
0.432179
0.432345
0.432588
0.432922
0.433355
0.433881
0.434488
0.435169
0.435925
0.436764
0.43769
0.438698
0.439776
0.440909
0.442082
0.443284
0.444505
0.445743
0.446995
0.448256
0.449515
0.450764
0.451996
0.45321
0.454401
0.45556
0.456679
0.457748
0.45876
0.459714
0.460606
0.46144
0.46222
0.46292
0.463581
0.432445
0.43211
0.432053
0.43202
0.43206
0.432174
0.43236
0.432626
0.432985
0.433442
0.43399
0.434615
0.435311
0.43608
0.436928
0.437856
0.438857
0.439921
0.441033
0.442179
0.443346
0.444525
0.445714
0.446908
0.448101
0.449283
0.450447
0.451588
0.452706
0.453794
0.454845
0.455849
0.456797
0.457685
0.45851
0.459271
0.45997
0.460614
0.461181
0.461694
0.432371
0.432024
0.431978
0.431962
0.432021
0.432155
0.432364
0.432655
0.43304
0.433522
0.434092
0.434738
0.435453
0.436238
0.437096
0.438026
0.439022
0.440073
0.441165
0.442285
0.443419
0.44456
0.445701
0.446838
0.447964
0.44907
0.450151
0.451204
0.452226
0.453213
0.454156
0.455046
0.455876
0.456641
0.457339
0.457969
0.458535
0.459044
0.45948
0.459846
0.432279
0.431923
0.431887
0.431887
0.431966
0.432122
0.432356
0.432674
0.433087
0.433594
0.434188
0.434856
0.435592
0.436395
0.437265
0.438199
0.43919
0.440228
0.441302
0.442398
0.443502
0.444605
0.4457
0.446782
0.447842
0.448875
0.449874
0.45084
0.451768
0.452655
0.453492
0.45427
0.454983
0.455626
0.4562
0.456703
0.457138
0.457515
0.457823
0.45804
0.432169
0.431807
0.43178
0.431795
0.431893
0.432073
0.432334
0.432682
0.433123
0.433657
0.434275
0.434967
0.435726
0.436548
0.437431
0.43837
0.439358
0.440385
0.441442
0.442515
0.443591
0.444658
0.445708
0.446736
0.447732
0.448693
0.449613
0.450494
0.451331
0.452119
0.452851
0.453519
0.454117
0.454642
0.455093
0.455472
0.45578
0.456029
0.456213
0.456283
0.432042
0.431674
0.431655
0.431684
0.431802
0.432007
0.432297
0.432676
0.433147
0.433709
0.434353
0.43507
0.435852
0.436695
0.437591
0.438537
0.439523
0.440541
0.441583
0.442634
0.443682
0.444714
0.445721
0.446696
0.447631
0.448521
0.449365
0.450162
0.450909
0.451601
0.452231
0.452791
0.453277
0.453687
0.45402
0.454279
0.454464
0.454588
0.454654
0.454579
0.431895
0.431524
0.431512
0.431554
0.431692
0.431923
0.432245
0.432656
0.433158
0.433748
0.434418
0.435162
0.435969
0.436833
0.437744
0.438696
0.439682
0.440693
0.44172
0.442751
0.443773
0.444771
0.445736
0.446659
0.447534
0.448357
0.449127
0.449843
0.450502
0.4511
0.45163
0.452085
0.452463
0.452761
0.45298
0.453124
0.45319
0.453194
0.453148
0.452933
0.431728
0.431354
0.431349
0.431404
0.431562
0.431821
0.432175
0.432619
0.433153
0.433772
0.43447
0.435241
0.436074
0.436959
0.437885
0.438845
0.439832
0.440836
0.441851
0.442863
0.443858
0.444824
0.445748
0.446622
0.44744
0.448197
0.448895
0.449531
0.450105
0.450611
0.451045
0.451399
0.451672
0.451863
0.451973
0.452006
0.451959
0.451848
0.451698
0.451349
0.431538
0.431162
0.431163
0.431232
0.431412
0.431699
0.432086
0.432565
0.433131
0.43378
0.434507
0.435306
0.436164
0.437071
0.438013
0.438981
0.439969
0.440969
0.441971
0.442964
0.443935
0.444869
0.445754
0.446581
0.447343
0.448037
0.448665
0.449225
0.449715
0.450133
0.450474
0.450731
0.450903
0.450991
0.450997
0.450924
0.45077
0.450552
0.450304
0.449828
0.431323
0.430946
0.430954
0.431037
0.431239
0.431556
0.431977
0.432491
0.43309
0.433769
0.434525
0.435352
0.436237
0.437165
0.438123
0.439101
0.440091
0.441086
0.442077
0.443053
0.444
0.444904
0.445751
0.446532
0.44724
0.447874
0.448433
0.448919
0.44933
0.449663
0.449914
0.450078
0.450153
0.450143
0.450051
0.449878
0.449623
0.449303
0.448966
0.448372
0.431081
0.430704
0.430719
0.430818
0.431044
0.431391
0.431847
0.432396
0.433028
0.433738
0.434524
0.435379
0.43629
0.43724
0.438215
0.439202
0.440195
0.441186
0.442166
0.443125
0.444049
0.444924
0.445735
0.446472
0.447128
0.447703
0.448197
0.448611
0.448945
0.449196
0.449361
0.449435
0.449419
0.449316
0.44913
0.448865
0.448515
0.448102
0.447683
0.446981
0.430811
0.430436
0.430459
0.430574
0.430824
0.431204
0.431694
0.432278
0.432943
0.433685
0.434501
0.435384
0.436321
0.437293
0.438284
0.439282
0.440279
0.441266
0.442236
0.443178
0.44408
0.444926
0.445702
0.446396
0.447003
0.44752
0.447951
0.448296
0.448556
0.448729
0.44881
0.448799
0.448696
0.448505
0.448233
0.447881
0.447444
0.446944
0.446453
0.445654
0.430512
0.430141
0.430173
0.430305
0.430581
0.430992
0.431517
0.432136
0.432835
0.433609
0.434455
0.435367
0.436329
0.437322
0.43833
0.439338
0.440339
0.441322
0.442282
0.443208
0.444088
0.444907
0.445649
0.446301
0.446859
0.447321
0.447691
0.447971
0.448159
0.448256
0.448258
0.448165
0.44798
0.447707
0.447354
0.446922
0.446406
0.445828
0.445273
0.444388
0.430185
0.429818
0.42986
0.430011
0.430313
0.430756
0.431315
0.431968
0.432702
0.433509
0.434386
0.435326
0.436313
0.437326
0.43835
0.439369
0.440372
0.441353
0.442302
0.443212
0.444071
0.444863
0.445571
0.446182
0.446693
0.447102
0.447413
0.447628
0.447748
0.447772
0.447698
0.447528
0.447266
0.446917
0.446488
0.445984
0.445396
0.444749
0.444138
0.443181
0.429828
0.429467
0.42952
0.429691
0.430021
0.430494
0.431087
0.431775
0.432543
0.433383
0.434292
0.435259
0.43627
0.437304
0.438342
0.43937
0.440377
0.441354
0.442293
0.443187
0.444025
0.444789
0.445463
0.446035
0.446499
0.446857
0.447111
0.447265
0.447319
0.447272
0.447126
0.446883
0.446548
0.446128
0.445631
0.445061
0.44441
0.443701
0.443044
0.442028
0.429441
0.429086
0.429153
0.429346
0.429703
0.430208
0.430833
0.431554
0.432356
0.43323
0.43417
0.435165
0.436199
0.437252
0.438304
0.439341
0.44035
0.441323
0.442251
0.443129
0.443945
0.444681
0.445321
0.445853
0.446272
0.44658
0.44678
0.446874
0.446864
0.44675
0.446535
0.446222
0.44582
0.445334
0.444775
0.444145
0.443439
0.442679
0.441985
0.440924
0.429021
0.428675
0.428757
0.428974
0.42936
0.429895
0.430552
0.431306
0.432141
0.433047
0.434018
0.435041
0.436098
0.437168
0.438233
0.439277
0.440288
0.441256
0.442173
0.443034
0.443827
0.444535
0.445141
0.445633
0.446008
0.446267
0.446414
0.44645
0.446377
0.446198
0.445917
0.445539
0.445072
0.444526
0.44391
0.443228
0.442476
0.441673
0.440953
0.439862
0.428567
0.428232
0.428332
0.428575
0.42899
0.429555
0.430243
0.431028
0.431895
0.432833
0.433835
0.434885
0.435963
0.43705
0.438127
0.439177
0.440188
0.441149
0.442055
0.442898
0.443667
0.444345
0.444916
0.445369
0.4457
0.445911
0.446005
0.445984
0.44585
0.445608
0.445263
0.444822
0.444296
0.443693
0.443026
0.442299
0.441508
0.440675
0.439939
0.438836
0.428079
0.427756
0.427876
0.428146
0.428591
0.429187
0.429905
0.43072
0.431616
0.432586
0.433617
0.434694
0.435793
0.436895
0.437982
0.439037
0.440047
0.441
0.441892
0.442716
0.44346
0.444108
0.444643
0.445055
0.445342
0.445505
0.445546
0.445468
0.445274
0.44497
0.444563
0.444063
0.443479
0.442823
0.442108
0.441343
0.440522
0.43967
0.438934
0.437839
0.427555
0.427245
0.427387
0.427685
0.428162
0.428789
0.429536
0.430379
0.431305
0.432304
0.433364
0.434466
0.435584
0.4367
0.437796
0.438854
0.43986
0.440805
0.441681
0.442484
0.443202
0.443817
0.444314
0.444685
0.444927
0.445041
0.445029
0.444893
0.44464
0.444275
0.443807
0.443247
0.442607
0.4419
0.441141
0.440342
0.439501
0.438642
0.437922
0.436862
0.426993
0.426698
0.426863
0.427192
0.427701
0.428359
0.429135
0.430005
0.430959
0.431986
0.433074
0.434198
0.435335
0.436463
0.437565
0.438625
0.439626
0.440559
0.441419
0.442199
0.442887
0.443468
0.443926
0.444253
0.444448
0.444511
0.444444
0.444251
0.443937
0.44351
0.442982
0.442362
0.441666
0.440907
0.440105
0.439275
0.43842
0.437567
0.436884
0.435895
0.42639
0.426113
0.426303
0.426664
0.427207
0.427896
0.4287
0.429596
0.430577
0.431632
0.432744
0.43389
0.435042
0.436181
0.437288
0.438346
0.439339
0.440259
0.441099
0.441854
0.442511
0.443054
0.44347
0.443752
0.443898
0.443908
0.443785
0.443531
0.443155
0.442666
0.442075
0.441394
0.440638
0.439826
0.438978
0.438116
0.43725
0.436413
0.435787
0.434916
0.425747
0.425488
0.425706
0.426101
0.426678
0.427399
0.42823
0.429151
0.430157
0.431238
0.432374
0.433538
0.434704
0.43585
0.436959
0.438013
0.438997
0.4399
0.440719
0.441445
0.442067
0.44257
0.442941
0.443175
0.443269
0.443224
0.443041
0.442726
0.442285
0.441731
0.441074
0.440328
0.439509
0.438636
0.437735
0.436833
0.43595
0.435131
0.43458
0.433883
0.42506
0.424823
0.425069
0.425501
0.426114
0.426866
0.427723
0.428669
0.429699
0.430803
0.43196
0.433141
0.434317
0.435469
0.436577
0.437624
0.438594
0.439478
0.440271
0.440965
0.441549
0.442008
0.442332
0.442515
0.442554
0.442451
0.442206
0.441826
0.441318
0.440695
0.439969
0.439152
0.43826
0.437316
0.436347
0.435388
0.434472
0.433661
0.433199
0.432756
0.42433
0.424116
0.424393
0.424863
0.425512
0.426295
0.427178
0.428147
0.4292
0.430326
0.431502
0.432695
0.433879
0.435032
0.436136
0.437172
0.438126
0.438987
0.439751
0.440409
0.44095
0.441363
0.441636
0.441765
0.441746
0.441581
0.441272
0.440824
0.440247
0.439552
0.43875
0.437854
0.43688
0.435848
0.434786
0.433733
0.432737
0.431902
0.431561
0.43153
0.423557
0.423369
0.423678
0.424186
0.424871
0.425684
0.426592
0.427584
0.428659
0.429805
0.430996
0.432199
0.433387
0.434537
0.435632
0.436654
0.437588
0.438423
0.439153
0.439771
0.440267
0.440629
0.440848
0.440919
0.44084
0.44061
0.440234
0.439716
0.439066
0.438295
0.437413
0.436431
0.435362
0.43422
0.433026
0.431808
0.430606
0.42954
0.429028
0.429279
0.498694
0.50889
0.516433
0.522906
0.527528
0.531497
0.534567
0.53723
0.539462
0.541417
0.54312
0.544594
0.545857
0.546955
0.547883
0.548655
0.54928
0.549784
0.550167
0.55042
0.550563
0.550613
0.550554
0.550402
0.550151
0.54979
0.549353
0.54882
0.548191
0.547472
0.546642
0.54573
0.544708
0.54359
0.542367
0.541046
0.539657
0.538165
0.536799
0.535186
0.496669
0.5067
0.514301
0.520824
0.525529
0.529578
0.532732
0.535467
0.537765
0.539772
0.541515
0.54303
0.544335
0.545459
0.546409
0.547213
0.547873
0.548391
0.548785
0.549069
0.549238
0.549302
0.549265
0.549119
0.54888
0.548545
0.548116
0.547594
0.546977
0.546263
0.545455
0.544541
0.543535
0.542427
0.541218
0.539906
0.538526
0.537047
0.535688
0.534088
0.494614
0.504481
0.51213
0.518712
0.523505
0.527642
0.530886
0.533697
0.536065
0.538127
0.539912
0.541467
0.542813
0.543963
0.544935
0.54577
0.546462
0.546996
0.547403
0.547716
0.54791
0.547985
0.547972
0.547834
0.547608
0.547299
0.546878
0.54637
0.545766
0.545058
0.544272
0.543361
0.542371
0.541273
0.540078
0.538776
0.537407
0.535943
0.534592
0.533007
0.492526
0.502233
0.509919
0.516572
0.521455
0.52569
0.529025
0.531921
0.53436
0.536482
0.538315
0.539908
0.541289
0.542469
0.543468
0.544325
0.545041
0.545599
0.546028
0.54636
0.546573
0.546667
0.54667
0.546551
0.54634
0.546046
0.545639
0.545146
0.544555
0.543863
0.543089
0.542194
0.541215
0.540129
0.538945
0.537657
0.536301
0.534849
0.533512
0.531944
0.490401
0.499956
0.507665
0.514399
0.519375
0.523718
0.527151
0.530138
0.532652
0.534837
0.53672
0.538352
0.539766
0.540976
0.542004
0.542882
0.543616
0.544202
0.544656
0.545003
0.545235
0.545348
0.545366
0.545268
0.545073
0.544791
0.544402
0.543923
0.543347
0.542673
0.541909
0.541035
0.540068
0.538994
0.537822
0.536549
0.535207
0.533768
0.532446
0.530895
0.488237
0.49765
0.505366
0.512189
0.517263
0.521725
0.525265
0.528349
0.530943
0.533192
0.535126
0.536798
0.538245
0.539485
0.54054
0.541441
0.542195
0.542805
0.543284
0.543647
0.543897
0.544029
0.544062
0.543985
0.543807
0.543539
0.543168
0.542704
0.542144
0.541488
0.540737
0.539881
0.538928
0.537869
0.53671
0.535452
0.534125
0.532701
0.531391
0.529858
0.486032
0.495315
0.50302
0.509939
0.515118
0.519709
0.523364
0.526553
0.529231
0.531547
0.533534
0.535248
0.536726
0.537996
0.539078
0.540001
0.540777
0.54141
0.541912
0.542293
0.54256
0.542711
0.542759
0.542701
0.542542
0.542289
0.541935
0.541489
0.540946
0.540307
0.539572
0.538734
0.537796
0.536752
0.535608
0.534366
0.533056
0.531646
0.530349
0.528833
0.483784
0.49295
0.500625
0.507649
0.512937
0.517669
0.521449
0.524749
0.527516
0.529903
0.531944
0.533699
0.53521
0.53651
0.537618
0.538565
0.539361
0.540017
0.540541
0.540939
0.541224
0.541393
0.541458
0.541419
0.541278
0.541041
0.540706
0.540277
0.539752
0.539131
0.538413
0.537593
0.536672
0.535645
0.534518
0.533292
0.531998
0.530604
0.529319
0.527819
0.481492
0.490555
0.49818
0.505316
0.51072
0.515603
0.519517
0.522937
0.525799
0.52826
0.530355
0.532154
0.533698
0.535026
0.536161
0.53713
0.537948
0.538625
0.539171
0.539587
0.53989
0.540077
0.540158
0.540138
0.540015
0.539796
0.53948
0.53907
0.538563
0.537961
0.53726
0.53646
0.535556
0.534547
0.533438
0.532229
0.530952
0.529574
0.528302
0.526817
0.479155
0.488131
0.495683
0.502939
0.508463
0.513508
0.517568
0.521116
0.524079
0.526617
0.52877
0.530612
0.532189
0.533546
0.534707
0.535699
0.536538
0.537235
0.537801
0.538237
0.538556
0.538763
0.538861
0.538859
0.538755
0.538554
0.538258
0.537866
0.537379
0.536797
0.536114
0.535333
0.534448
0.533459
0.532368
0.531178
0.529918
0.528556
0.527298
0.525826
0.476776
0.485679
0.493134
0.500515
0.506165
0.511384
0.515601
0.519285
0.522356
0.524974
0.527187
0.529073
0.530685
0.53207
0.533256
0.534271
0.535131
0.535848
0.536433
0.536888
0.537225
0.53745
0.537565
0.537582
0.537497
0.537315
0.537039
0.536666
0.536199
0.535637
0.534974
0.534212
0.533348
0.532379
0.531308
0.530138
0.528896
0.527551
0.526305
0.524846
0.474355
0.4832
0.490534
0.498046
0.503826
0.509229
0.513613
0.517444
0.520628
0.523331
0.525607
0.527537
0.529185
0.530598
0.531809
0.532847
0.533727
0.534464
0.535068
0.535542
0.535896
0.536139
0.536272
0.536308
0.536242
0.536079
0.535823
0.535471
0.535024
0.534483
0.53384
0.533099
0.532255
0.531309
0.530258
0.529109
0.527886
0.526557
0.525325
0.523877
0.471895
0.480698
0.487885
0.495528
0.501443
0.507042
0.511604
0.515591
0.518896
0.521689
0.524029
0.526007
0.52769
0.529131
0.530367
0.531426
0.532326
0.533083
0.533705
0.534197
0.534568
0.53483
0.534981
0.535036
0.53499
0.534846
0.53461
0.53428
0.533853
0.533333
0.532711
0.531992
0.53117
0.530246
0.529219
0.528091
0.526887
0.525576
0.524356
0.52292
0.469401
0.478175
0.485188
0.492964
0.499017
0.504821
0.509573
0.513725
0.517159
0.520046
0.522454
0.52448
0.5262
0.527669
0.528928
0.530008
0.530928
0.531705
0.532345
0.532855
0.533243
0.533523
0.533693
0.533766
0.533741
0.533616
0.533401
0.533092
0.532686
0.532187
0.531588
0.530892
0.530093
0.529193
0.528189
0.527084
0.5259
0.524606
0.5234
0.521976
0.466878
0.475636
0.482448
0.490354
0.496547
0.502566
0.507519
0.511847
0.515417
0.518404
0.520882
0.522959
0.524714
0.526211
0.527493
0.528594
0.529534
0.530329
0.530987
0.531515
0.53192
0.532219
0.532407
0.532497
0.532494
0.532389
0.532194
0.531908
0.531523
0.531045
0.53047
0.529799
0.529023
0.528148
0.527169
0.526088
0.524924
0.523648
0.522455
0.521042
0.464331
0.473086
0.479668
0.487698
0.494033
0.500276
0.505442
0.509955
0.513668
0.516761
0.519314
0.521442
0.523234
0.524757
0.526062
0.527184
0.528142
0.528956
0.529632
0.530177
0.5306
0.530916
0.531123
0.531231
0.531249
0.531165
0.530991
0.530726
0.530364
0.529908
0.529357
0.528711
0.527961
0.527111
0.526159
0.525102
0.523958
0.522701
0.521523
0.520121
0.46177
0.47053
0.476855
0.485
0.491478
0.497951
0.50334
0.508049
0.511914
0.515118
0.517748
0.51993
0.521758
0.523308
0.524635
0.525776
0.526753
0.527586
0.528279
0.528842
0.529282
0.529615
0.529843
0.529968
0.530006
0.529943
0.52979
0.529547
0.529209
0.528776
0.528249
0.527629
0.526905
0.526083
0.525157
0.524125
0.523004
0.521766
0.520603
0.51921
0.459202
0.467976
0.474015
0.482263
0.488882
0.495592
0.501215
0.506128
0.510153
0.513474
0.516185
0.518423
0.520287
0.521864
0.523211
0.524373
0.525369
0.526218
0.526928
0.527509
0.527967
0.528317
0.528564
0.528707
0.528765
0.528725
0.528592
0.52837
0.528056
0.527647
0.527145
0.526552
0.525856
0.525061
0.524162
0.523157
0.522059
0.520841
0.519693
0.518311
0.456637
0.465431
0.471157
0.479491
0.48625
0.493199
0.499066
0.504193
0.508386
0.51183
0.514625
0.516919
0.518821
0.520424
0.521793
0.522974
0.523988
0.524854
0.525581
0.526179
0.526655
0.527021
0.527288
0.527449
0.527527
0.527508
0.527396
0.527196
0.526905
0.526521
0.526045
0.525479
0.524813
0.524047
0.523176
0.522198
0.521126
0.519928
0.518795
0.517424
0.454086
0.462903
0.468291
0.47669
0.483585
0.490775
0.496894
0.502243
0.506612
0.510184
0.513068
0.515419
0.51736
0.518989
0.520381
0.521581
0.522612
0.523495
0.524238
0.524852
0.525346
0.525728
0.526014
0.526195
0.52629
0.526293
0.526203
0.526025
0.525757
0.525398
0.524949
0.524411
0.523774
0.523038
0.522196
0.521247
0.520202
0.519027
0.517909
0.516548
0.45156
0.460402
0.465428
0.473868
0.480892
0.488321
0.4947
0.500278
0.504832
0.508537
0.511512
0.513923
0.515903
0.51756
0.518974
0.520192
0.52124
0.52214
0.522899
0.523528
0.52404
0.524438
0.524743
0.524943
0.525057
0.52508
0.525011
0.524855
0.524611
0.524278
0.523856
0.523347
0.522741
0.522034
0.521224
0.520305
0.519288
0.518136
0.517035
0.515684
0.449071
0.457937
0.46258
0.471032
0.478177
0.485842
0.492485
0.4983
0.503044
0.506888
0.509957
0.512431
0.514452
0.516137
0.517573
0.518809
0.519874
0.520789
0.521563
0.522209
0.522738
0.523152
0.523474
0.523694
0.523825
0.523868
0.523821
0.523687
0.523467
0.52316
0.522766
0.522286
0.521711
0.521036
0.520258
0.519371
0.518384
0.517258
0.516174
0.514834
0.446631
0.455519
0.459759
0.468192
0.475447
0.483342
0.490252
0.496309
0.50125
0.505238
0.508405
0.510944
0.513006
0.514721
0.516179
0.517432
0.518513
0.519444
0.520233
0.520893
0.521438
0.521868
0.522207
0.522447
0.522595
0.522659
0.522632
0.522521
0.522325
0.522044
0.521679
0.521228
0.520686
0.520043
0.519299
0.518445
0.517489
0.516391
0.515327
0.513996
0.444254
0.453156
0.456979
0.465359
0.472709
0.480825
0.488003
0.494306
0.49945
0.503586
0.506855
0.509461
0.511567
0.513311
0.514792
0.516062
0.517158
0.518104
0.518907
0.519581
0.520141
0.520588
0.520943
0.521202
0.521368
0.521451
0.521445
0.521356
0.521184
0.52093
0.520594
0.520173
0.519663
0.519054
0.518345
0.517527
0.516604
0.515535
0.514494
0.513174
0.44195
0.450859
0.454252
0.462543
0.469974
0.478298
0.485743
0.492293
0.497644
0.501931
0.505307
0.507983
0.510135
0.51191
0.513411
0.514698
0.515809
0.51677
0.517585
0.518273
0.518847
0.519311
0.519681
0.519959
0.520142
0.520245
0.520259
0.520193
0.520045
0.519818
0.519511
0.51912
0.518643
0.518068
0.517396
0.516615
0.515728
0.514692
0.513676
0.512366
0.439732
0.448635
0.451594
0.459755
0.46725
0.475767
0.483474
0.490271
0.495832
0.500275
0.50376
0.50651
0.508709
0.510515
0.512038
0.513342
0.514467
0.515441
0.516269
0.51697
0.517558
0.518037
0.518423
0.518718
0.518919
0.519041
0.519076
0.519031
0.518908
0.518707
0.518429
0.518068
0.517624
0.517085
0.516451
0.515709
0.514861
0.51386
0.512873
0.511575
0.437611
0.446494
0.449015
0.457008
0.464548
0.473238
0.4812
0.488242
0.494014
0.498617
0.502216
0.505041
0.50729
0.509129
0.510673
0.511993
0.513132
0.514118
0.514958
0.515672
0.516272
0.516766
0.517167
0.517479
0.517698
0.517838
0.517894
0.51787
0.517771
0.517597
0.517348
0.517016
0.516606
0.516103
0.515508
0.514808
0.514003
0.513041
0.512087
0.510802
0.435597
0.444439
0.446528
0.454313
0.461878
0.47072
0.478925
0.486208
0.492192
0.496957
0.500673
0.503577
0.505877
0.507749
0.509315
0.510652
0.511803
0.5128
0.513651
0.514377
0.51499
0.515499
0.515914
0.516242
0.516479
0.516636
0.516713
0.516711
0.516635
0.516487
0.516266
0.515965
0.515588
0.515122
0.514568
0.513912
0.513153
0.512234
0.511317
0.510049
0.433701
0.442477
0.444144
0.451683
0.45925
0.468221
0.476654
0.484172
0.490366
0.495296
0.499132
0.502118
0.504471
0.506377
0.507966
0.509318
0.510482
0.511489
0.51235
0.513087
0.513712
0.514234
0.514664
0.515007
0.515263
0.515436
0.515533
0.515552
0.515499
0.515377
0.515184
0.514913
0.51457
0.514142
0.51363
0.513019
0.51231
0.511441
0.510565
0.509318
0.431931
0.440609
0.44187
0.449129
0.456676
0.465748
0.474391
0.482135
0.488539
0.493635
0.497594
0.500664
0.503072
0.505014
0.506625
0.507993
0.509167
0.510183
0.511054
0.5118
0.512438
0.512973
0.513416
0.513774
0.514047
0.514236
0.514353
0.514393
0.514363
0.514266
0.514099
0.513859
0.51355
0.513161
0.512692
0.512129
0.511474
0.51066
0.509833
0.50861
0.430295
0.438838
0.439715
0.446663
0.454165
0.46331
0.472143
0.480102
0.486712
0.491974
0.496058
0.499215
0.50168
0.503659
0.505293
0.506675
0.507859
0.508883
0.509763
0.510519
0.511168
0.511714
0.512172
0.512543
0.512832
0.513038
0.513173
0.513234
0.513225
0.513153
0.513013
0.512803
0.512528
0.512178
0.511753
0.511241
0.510644
0.509891
0.50912
0.507928
0.428801
0.437163
0.437685
0.444294
0.451729
0.460914
0.469916
0.478076
0.484886
0.490316
0.494526
0.497773
0.500296
0.502313
0.50397
0.505365
0.506559
0.507589
0.508478
0.509242
0.509901
0.510459
0.510929
0.511313
0.511618
0.51184
0.511993
0.512074
0.512086
0.512038
0.511925
0.511745
0.511503
0.511193
0.510813
0.510353
0.509817
0.509135
0.508429
0.507276
0.427456
0.435583
0.435785
0.442032
0.449376
0.458569
0.467713
0.476061
0.483065
0.488659
0.492998
0.496337
0.498921
0.500976
0.502656
0.504063
0.505266
0.506302
0.507198
0.50797
0.508637
0.509206
0.509689
0.510084
0.510405
0.510642
0.510811
0.510913
0.510945
0.510921
0.510834
0.510683
0.510474
0.510204
0.509869
0.509464
0.508994
0.508388
0.507759
0.506656
0.426272
0.434096
0.434018
0.439884
0.447114
0.456282
0.465541
0.474061
0.481249
0.487007
0.491476
0.494908
0.497555
0.499648
0.50135
0.502769
0.50398
0.505022
0.505923
0.506703
0.507378
0.507957
0.50845
0.508857
0.509191
0.509444
0.50963
0.509751
0.509803
0.509802
0.50974
0.509618
0.509442
0.50921
0.508922
0.508572
0.508171
0.507651
0.507113
0.506076
0.425261
0.432697
0.432385
0.437858
0.444951
0.454062
0.463407
0.472079
0.479443
0.48536
0.489959
0.493487
0.496198
0.498331
0.500055
0.501485
0.502703
0.503749
0.504654
0.50544
0.506122
0.50671
0.507213
0.507632
0.507979
0.508247
0.508447
0.508588
0.50866
0.508681
0.508643
0.508549
0.508405
0.508211
0.507968
0.507676
0.507347
0.506921
0.506491
0.50554
0.424442
0.431384
0.430884
0.435958
0.442894
0.451917
0.46132
0.470126
0.477652
0.483724
0.488453
0.492076
0.494852
0.497024
0.49877
0.500211
0.501435
0.502484
0.503392
0.504184
0.504871
0.505467
0.505979
0.506409
0.506767
0.50705
0.507265
0.507424
0.507515
0.507557
0.507543
0.507476
0.507362
0.507206
0.507008
0.506773
0.50652
0.506195
0.505891
0.505058
0.423837
0.430158
0.429518
0.434193
0.440953
0.44986
0.459292
0.468208
0.475885
0.482106
0.486962
0.490679
0.49352
0.495731
0.497497
0.498948
0.500177
0.501228
0.502138
0.502933
0.503624
0.504227
0.504748
0.505188
0.505557
0.505854
0.506083
0.506259
0.50637
0.506431
0.506439
0.506398
0.506314
0.506193
0.506041
0.505863
0.505687
0.505472
0.505314
0.50464
0.42348
0.429032
0.4283
0.432571
0.439125
0.447873
0.457291
0.466287
0.474097
0.480462
0.485445
0.489261
0.492171
0.494424
0.496215
0.497678
0.498911
0.499964
0.500876
0.501674
0.50237
0.50298
0.503508
0.503958
0.504338
0.504649
0.504893
0.505085
0.505214
0.505294
0.505325
0.505308
0.505254
0.505168
0.505059
0.504939
0.504841
0.504742
0.504754
0.5043
0.423448
0.427982
0.427192
0.43104
0.437343
0.445872
0.455222
0.464268
0.4722
0.478714
0.483834
0.48776
0.490751
0.493057
0.49488
0.496363
0.497606
0.498665
0.499582
0.500385
0.501088
0.501705
0.502243
0.502704
0.503096
0.503421
0.503682
0.50389
0.504039
0.504138
0.504191
0.5042
0.504174
0.504123
0.504058
0.503995
0.503975
0.503998
0.504203
0.504054
0.423924
0.426911
0.425987
0.429453
0.435569
0.443945
0.45327
0.462387
0.470445
0.477099
0.482344
0.486366
0.489424
0.49177
0.493614
0.495105
0.496349
0.497407
0.498323
0.499126
0.499832
0.500454
0.500998
0.501467
0.501869
0.502206
0.502481
0.502703
0.502868
0.502984
0.503056
0.503088
0.503088
0.503068
0.503042
0.50303
0.503082
0.503224
0.503634
0.503898
0.425054
0.423162
0.421122
0.423801
0.429933
0.438563
0.448375
0.458044
0.466616
0.473698
0.479263
0.483486
0.48663
0.488957
0.490707
0.492071
0.493184
0.494133
0.494969
0.495714
0.496384
0.49698
0.497511
0.497975
0.498379
0.498725
0.499016
0.499256
0.499449
0.499596
0.499707
0.499786
0.499844
0.499894
0.499957
0.500064
0.500278
0.500701
0.501653
0.503327
0.413995
0.413296
0.413187
0.417158
0.423924
0.432437
0.441739
0.450825
0.458927
0.465697
0.471106
0.475301
0.478499
0.48093
0.482804
0.484294
0.485525
0.486579
0.487507
0.488336
0.489082
0.489755
0.490358
0.490896
0.491372
0.49179
0.492152
0.492463
0.492724
0.492942
0.493121
0.493271
0.4934
0.493527
0.493674
0.493881
0.494225
0.494864
0.496201
0.49851
0.40219
0.404055
0.406303
0.41144
0.418451
0.426558
0.435147
0.443509
0.451047
0.457457
0.462687
0.466835
0.470075
0.472602
0.474601
0.476222