/*--------------------------------*- C++ -*----------------------------------*\
  =========                 |
  \\      /  F ield         | OpenFOAM: The Open Source CFD Toolbox
   \\    /   O peration     | Website:  https://openfoam.org
    \\  /    A nd           | Version:  7
     \\/     M anipulation  |
\*---------------------------------------------------------------------------*/
FoamFile
{
    version     2.0;
    format      ascii;
    class       volVectorField;
    location    "78.9";
    object      U;
}
// * * * * * * * * * * * * * * * * * * * * * * * * * * * * * * * * * * * * * //

dimensions      [0 1 -1 0 0 0 0];

internalField   nonuniform List<vector> 
2000
(
(-0.00014497 -0.00573396 -2.48641e-22)
(-1.51037e-06 -0.0132504 0)
(0.000631194 -0.0173034 0)
(0.0017056 -0.0184121 -1.27486e-21)
(0.00316966 -0.0168973 4.13773e-22)
(0.00499498 -0.0129675 1.57554e-23)
(0.00717292 -0.00677977 -7.12044e-22)
(0.00968946 0.00150979 0)
(0.0125022 0.0117063 0)
(0.015458 0.023552 0)
(0.000376947 -0.00554496 0)
(0.0014296 -0.0132922 -9.72465e-22)
(0.00281736 -0.0176623 8.96806e-22)
(0.00436034 -0.0191401 1.70288e-21)
(0.00602147 -0.0180523 0)
(0.00779261 -0.0146248 1.55501e-21)
(0.00969317 -0.00901687 -1.44605e-21)
(0.0117465 -0.00135944 0)
(0.0139618 0.00821067 2.64848e-21)
(0.0162035 0.0195194 -5.0974e-21)
(0.000942319 -0.00543126 0)
(0.00308651 -0.013413 7.7687e-21)
(0.00545019 -0.0180364 0)
(0.00767034 -0.0198027 6.94583e-21)
(0.00972203 -0.0190616 0)
(0.011615 -0.0160703 -6.26189e-21)
(0.0133941 -0.011004 0)
(0.0151169 -0.00397964 5.66518e-21)
(0.0168468 0.00491911 -5.30577e-21)
(0.0184615 0.0155985 -5.18923e-21)
(0.00158701 -0.00542299 -2.02194e-21)
(0.00502058 -0.0136461 -3.87732e-21)
(0.00856963 -0.0184404 -1.81683e-21)
(0.0116601 -0.0203893 -3.41147e-21)
(0.0142816 -0.0198825 -3.26457e-21)
(0.0164652 -0.0172219 3.08178e-21)
(0.0182822 -0.0126121 2.957e-21)
(0.0198225 -0.00617054 -2.31827e-23)
(0.0212031 0.00206212 5.35831e-21)
(0.022316 0.0120598 5.18707e-21)
(0.00235223 -0.00554136 -1.98941e-21)
(0.00728383 -0.0140107 -3.95776e-21)
(0.0122036 -0.0188781 -7.51526e-21)
(0.0163235 -0.0208876 3.45798e-21)
(0.0196593 -0.0204844 0)
(0.0222735 -0.0180249 0)
(0.0242701 -0.0137539 -6.06975e-21)
(0.025772 -0.00780345 -5.75246e-21)
(0.0269485 -0.000184115 5.42709e-21)
(0.0277112 0.00912712 1.56253e-20)
(0.00328266 -0.0057942 2.02043e-21)
(0.00992208 -0.014502 2.05326e-21)
(0.0163578 -0.0193373 -1.1143e-20)
(0.0216138 -0.0212829 1.77096e-20)
(0.0257526 -0.0208523 -3.30208e-21)
(0.0288843 -0.0184623 0)
(0.0311575 -0.0144043 0)
(0.0327341 -0.0088348 2.86712e-20)
(0.0338333 -0.00174602 -2.70961e-20)
(0.0343959 0.00691575 5.1393e-21)
(0.00442071 -0.00617074 1.57517e-20)
(0.0129666 -0.0150902 0)
(0.0210073 -0.0197883 1.48936e-20)
(0.0274371 -0.0215567 -1.41351e-20)
(0.032393 -0.0209874 0)
(0.0360547 -0.0185587 6.42726e-21)
(0.0386314 -0.0146089 -1.80218e-20)
(0.0403349 -0.00932426 -2.29104e-20)
(0.0414339 -0.00268617 1.07493e-20)
(0.0419052 0.00538232 1.04014e-20)
(0.00580032 -0.00664085 -3.14807e-20)
(0.016425 -0.01572 -4.00488e-21)
(0.0260902 -0.0201841 -7.54161e-21)
(0.0336503 -0.0216874 -1.77521e-20)
(0.0393517 -0.0209053 -6.80005e-21)
(0.0434685 -0.018374 -6.4186e-21)
(0.0462892 -0.0144754 5.42124e-23)
(0.048089 -0.00942685 0)
(0.0491914 -0.00320242 0)
(0.0496118 0.0043119 6.61526e-23)
(0.00744086 -0.00715676 1.57293e-20)
(0.0202723 -0.016314 -1.59426e-20)
(0.0315025 -0.0204646 1.12174e-20)
(0.0400643 -0.0216522 2.49869e-20)
(0.0463536 -0.0206339 -6.6666e-21)
(0.0507656 -0.0179946 6.42096e-21)
(0.0536839 -0.014151 6.04844e-21)
(0.0554585 -0.0093514 0)
(0.0564798 -0.00356857 0)
(0.0568178 0.00336588 -2.55343e-22)
(0.00934239 -0.00765755 -1.97456e-21)
(0.0244454 -0.0167805 2.00037e-20)
(0.0370974 -0.0205645 -3.74246e-21)
(0.0464525 -0.0214329 0)
(0.0531003 -0.0202139 0)
(0.0575834 -0.0175232 1.2692e-20)
(0.0603926 -0.0137965 0)
(0.0619554 -0.00930619 -1.11228e-20)
(0.0627258 -0.00404826 2.25653e-23)
(0.0628581 0.00215682 9.94655e-21)
(0.0218218 0.0529708 1.95703e-22)
(0.035645 0.11539 -1.9794e-22)
(0.0428998 0.175599 -2.25042e-22)
(0.0432811 0.23058 -2.55464e-22)
(0.0382831 0.285884 -3.13126e-22)
(0.033916 0.345253 -1.10676e-23)
(0.0222452 0.411995 1.64695e-22)
(0.0191394 0.497858 5.88322e-22)
(-0.000814049 0.62446 0)
(0.00579872 0.776574 -4.30505e-22)
(0.0204132 0.0481088 7.52705e-22)
(0.0324539 0.110407 -8.52973e-22)
(0.0401611 0.173144 1.52575e-21)
(0.0410519 0.230053 2.55888e-22)
(0.0364993 0.286482 5.52985e-22)
(0.0324775 0.346587 9.51789e-22)
(0.0213199 0.413863 -3.56182e-22)
(0.0183418 0.500132 -3.94638e-22)
(-0.000763589 0.626247 7.69568e-22)
(0.00537595 0.776908 4.29487e-22)
(0.0204797 0.0430465 0)
(0.0298873 0.10436 -8.20578e-22)
(0.037792 0.169472 -4.4212e-22)
(0.039107 0.228455 0)
(0.0349452 0.286135 -1.70252e-21)
(0.0312429 0.347069 5.31561e-22)
(0.0205379 0.414932 5.98365e-22)
(0.0176447 0.501609 2.12619e-21)
(-0.00067632 0.62758 -7.67076e-22)
(0.00499775 0.777055 1.54879e-21)
(0.022227 0.0380707 0)
(0.0280655 0.0974507 8.27469e-22)
(0.0357966 0.164592 0)
(0.0374304 0.225766 1.9777e-21)
(0.0336048 0.284838 -1.98796e-21)
(0.0301949 0.346693 -1.21009e-21)
(0.0198858 0.415165 -7.45636e-23)
(0.0170573 0.502218 -2.07893e-21)
(-0.000554029 0.628199 -3.40168e-22)
(0.00464299 0.776826 -1.90476e-21)
(0.0257459 0.033458 3.62545e-23)
(0.027155 0.0899734 -2.36552e-21)
(0.0341867 0.158554 8.16885e-23)
(0.0360075 0.221979 -1.76092e-21)
(0.0324604 0.282596 0)
(0.0293127 0.345503 -1.15579e-21)
(0.0193434 0.41468 -9.8713e-23)
(0.016557 0.502223 2.61216e-21)
(-0.000423103 0.628514 3.45567e-22)
(0.00431451 0.776548 -3.46827e-22)
(0.0309095 0.029416 -6.40575e-21)
(0.0273366 0.082286 4.0502e-21)
(0.0329896 0.151457 1.72203e-21)
(0.0348275 0.217108 -1.72119e-21)
(0.0314983 0.279394 -9.42433e-22)
(0.028586 0.34343 0)
(0.0189127 0.413301 -2.31316e-21)
(0.0161605 0.501228 1.15556e-21)
(-0.000265335 0.627839 1.26408e-21)
(0.0039921 0.775785 1.31764e-21)
(0.0372961 0.026046 -7.69437e-22)
(0.0287263 0.0747756 0)
(0.0322494 0.143474 0)
(0.0338803 0.211191 0)
(0.0306958 0.275324 -1.00486e-21)
(0.0279887 0.340729 1.9443e-21)
(0.0185589 0.411525 2.25473e-21)
(0.0158073 0.500115 -3.51404e-21)
(-0.000135164 0.627414 6.21836e-22)
(0.00369801 0.775261 -1.92085e-21)
(0.0441747 0.0233023 4.82866e-21)
(0.0312458 0.0677019 3.29287e-21)
(0.0320029 0.134854 -3.26299e-21)
(0.0331688 0.204267 3.49342e-21)
(0.0300509 0.270136 -4.33957e-21)
(0.0275291 0.33681 0)
(0.0183224 0.408351 -1.0137e-21)
(0.0155853 0.497292 5.14434e-23)
(4.90062e-05 0.625223 -1.12101e-21)
(0.00339278 0.773925 -1.18168e-21)
(0.0505129 0.0207914 -4.0993e-21)
(0.0344902 0.0607353 0)
(0.0322355 0.125488 -3.67608e-21)
(0.0326451 0.196638 6.64102e-21)
(0.0295269 0.264844 -2.47523e-21)
(0.027145 0.333397 -4.57579e-22)
(0.0180881 0.406176 1.01151e-21)
(0.0152958 0.496026 9.87167e-24)
(0.000120283 0.624805 1.61968e-21)
(0.00312687 0.773414 1.71612e-21)
(0.0549424 0.0183321 -3.30591e-21)
(0.0376877 0.0537972 3.23156e-21)
(0.032968 0.114593 4.06203e-22)
(0.0323968 0.185862 0)
(0.0291103 0.255614 0)
(0.0269525 0.32581 4.48698e-22)
(0.0181075 0.399636 1.9066e-21)
(0.0153317 0.490059 -1.85221e-21)
(0.0003776 0.62024 -5.0029e-22)
(0.00282288 0.771323 4.8409e-22)
(0.0570865 0.0200161 0)
(0.0417335 0.050794 0)
(0.0346209 0.107277 0)
(0.0327684 0.180659 0)
(0.0287184 0.253915 0)
(0.0257544 0.326719 0)
(0.0171149 0.401991 0)
(0.0140947 0.493673 0)
(5.0973e-05 0.623147 0)
(0.00225844 0.771246 0)
(0.0587966 0.0378697 0)
(0.0449134 0.0702156 0)
(0.0347514 0.118713 0)
(0.0313065 0.186244 0)
(0.027445 0.258489 0)
(0.024263 0.332011 0)
(0.0161883 0.408748 0)
(0.0128036 0.501859 0)
(4.30441e-05 0.63009 0)
(0.00174858 0.772587 0)
(0.0560754 0.0439617 0)
(0.046204 0.0806223 0)
(0.0354557 0.127458 0)
(0.0302386 0.192257 0)
(0.0259431 0.263887 0)
(0.0225038 0.337372 0)
(0.0150687 0.414504 0)
(0.0115623 0.507863 0)
(-3.34722e-05 0.634781 0)
(0.00133605 0.772811 0)
(0.0511796 0.0478359 0)
(0.0449768 0.08878 0)
(0.0353719 0.134891 0)
(0.0294064 0.197503 0)
(0.0248731 0.269112 0)
(0.0212328 0.343516 0)
(0.0142791 0.421981 0)
(0.0106621 0.516316 0)
(0.00016558 0.641732 0)
(0.00108922 0.774189 0)
(0.0456423 0.0496229 0)
(0.0422292 0.0953431 0)
(0.0343185 0.142012 0)
(0.0283206 0.202486 0)
(0.0236619 0.273148 0)
(0.0199081 0.347615 0)
(0.0134027 0.426499 0)
(0.00975398 0.520984 0)
(0.000118473 0.645241 0)
(0.00081776 0.774097 0)
(0.0396791 0.0494604 0)
(0.038584 0.0998945 0)
(0.0323084 0.148104 0)
(0.02687 0.207562 0)
(0.0226619 0.278019 0)
(0.0190363 0.353333 0)
(0.0129336 0.433608 0)
(0.00919166 0.529132 0)
(0.000392077 0.651795 0)
(0.000685575 0.775284 0)
(0.0335894 0.0475116 0)
(0.0347808 0.102875 0)
(0.0303205 0.153574 0)
(0.0252388 0.211921 0)
(0.0212277 0.281157 0)
(0.0178618 0.3562 0)
(0.0122528 0.436644 0)
(0.008569 0.53216 0)
(0.000352582 0.653974 0)
(0.000512304 0.774932 0)
(0.0273288 0.0434283 0)
(0.0303887 0.102906 0)
(0.0278002 0.157009 0)
(0.0238692 0.216581 0)
(0.0204063 0.286264 0)
(0.0172164 0.362243 0)
(0.0119853 0.444092 0)
(0.00823861 0.540601 0)
(0.000723411 0.660593 0)
(0.000474615 0.77612 0)
(0.0224352 0.0398086 0)
(0.02781 0.103807 0)
(0.0264929 0.160416 0)
(0.0226581 0.219177 0)
(0.0193277 0.287931 0)
(0.016394 0.363695 0)
(0.011509 0.445667 0)
(0.00786 0.542055 0)
(0.000689712 0.661622 0)
(0.000385258 0.775787 0)
(0.015315 0.0263845 0)
(0.0226204 0.0960131 0)
(0.0248072 0.160681 0)
(0.0226572 0.223795 0)
(0.0195016 0.293689 0)
(0.0164063 0.370579 0)
(0.0116661 0.454066 0)
(0.00779094 0.551487 0)
(0.00120762 0.668836 0)
(0.000419865 0.777164 0)
(0.0656876 0.00927567 2.88646e-21)
(0.0637744 0.0175883 -2.83783e-21)
(0.0580914 0.0194362 2.43164e-22)
(0.0516141 0.0195507 0)
(0.0448759 0.0180672 0)
(0.0377634 0.0152821 7.0317e-23)
(0.0305953 0.0112861 -8.16746e-23)
(0.0234747 0.0057173 8.02667e-23)
(0.0172122 0.000643197 -1.45623e-23)
(0.00944213 -0.0114158 1.43094e-23)
(0.0670367 0.00485239 -3.82838e-21)
(0.0632323 0.00903851 0)
(0.0567581 0.00882881 1.36442e-21)
(0.0500186 0.00737967 -2.70503e-21)
(0.0431607 0.00465185 1.33425e-21)
(0.0359636 0.000931106 -6.87721e-23)
(0.0287067 -0.00376616 6.05437e-23)
(0.0215812 -0.00977885 1.1042e-23)
(0.0149622 -0.0153254 -2.31287e-23)
(0.0077054 -0.0264385 -2.55963e-23)
(0.0674826 0.000138897 4.31031e-21)
(0.0621744 0.000667335 -1.9792e-21)
(0.0552534 -0.0015308 1.96016e-21)
(0.0483362 -0.00455922 -1.06525e-21)
(0.0413655 -0.00854207 8.366e-22)
(0.0340909 -0.0131872 0)
(0.0267584 -0.0185349 -6.06821e-23)
(0.0196466 -0.0248407 8.67891e-25)
(0.0128438 -0.0306185 9.74029e-24)
(0.00617874 -0.0404119 3.92212e-23)
(0.0671507 -0.00553738 -6.54928e-22)
(0.0606101 -0.00815052 0)
(0.0534892 -0.0120532 0)
(0.0464804 -0.0164699 0)
(0.0394548 -0.0215484 5.35496e-22)
(0.0321466 -0.0269681 -3.28817e-22)
(0.024792 -0.0328117 2.41927e-23)
(0.0177138 -0.0392184 9.39096e-24)
(0.0109127 -0.0449586 8.99791e-24)
(0.00482489 -0.0532691 1.66057e-23)
(0.0659461 -0.0122642 -4.61483e-22)
(0.0584542 -0.0174871 -1.74521e-21)
(0.0513458 -0.0227987 -6.96207e-22)
(0.0443273 -0.0283455 6.95708e-22)
(0.0373314 -0.0342935 -2.04115e-22)
(0.0300635 -0.0402753 0)
(0.022779 -0.0464117 -6.02241e-23)
(0.0158136 -0.0527147 2.13733e-23)
(0.00918469 -0.0581714 -6.65446e-24)
(0.00369663 -0.0649881 -2.5872e-23)
(0.0639623 -0.0199032 -4.82819e-21)
(0.0558224 -0.0271856 8.06073e-22)
(0.0488978 -0.0336474 2.07321e-22)
(0.0419404 -0.0400518 6.84998e-22)
(0.0350475 -0.0466333 0)
(0.0278954 -0.05295 0)
(0.0207645 -0.0591701 0)
(0.0139998 -0.065184 2.53078e-23)
(0.00767631 -0.0701704 0)
(0.00279526 -0.0755873 0)
(0.0612825 -0.0282325 0)
(0.05284 -0.0370052 1.37093e-21)
(0.0462227 -0.044408 -8.82502e-22)
(0.039399 -0.0514056 -4.96112e-22)
(0.0326766 -0.0583988 4.98659e-22)
(0.0257111 -0.064838 1.00955e-22)
(0.0188073 -0.0709552 -1.26903e-22)
(0.0123211 -0.076537 -1.17031e-22)
(0.0063934 -0.0809402 9.30368e-24)
(0.00209423 -0.085118 7.24843e-24)
(0.0579956 -0.0369804 0)
(0.0496146 -0.0467044 -4.88742e-22)
(0.043395 -0.0548724 -1.96906e-22)
(0.036771 -0.0622202 0)
(0.0302823 -0.0694328 6.61521e-23)
(0.0235689 -0.0758147 -2.45646e-22)
(0.0169546 -0.0816827 1.0451e-22)
(0.0108091 -0.0867427 3.47124e-24)
(0.00532686 -0.0905212 -7.55406e-24)
(0.00156098 -0.0936534 -7.79537e-24)
(0.0542323 -0.0458832 6.56658e-22)
(0.0462292 -0.0560711 4.43313e-22)
(0.0404778 -0.0648548 -1.50732e-22)
(0.0341195 -0.0723384 7.65958e-23)
(0.02792 -0.0796136 1.07197e-22)
(0.0215167 -0.0858007 1.08591e-22)
(0.0152397 -0.0913201 -2.32436e-23)
(0.00947778 -0.0958229 -1.22101e-23)
(0.0044561 -0.0989931 7.57877e-24)
(0.00116293 -0.101279 3.8786e-25)
(0.0501312 -0.0547181 -1.37973e-22)
(0.0427599 -0.0649411 1.39208e-22)
(0.0375288 -0.0742119 -9.99245e-23)
(0.0315019 -0.0816506 -7.64795e-23)
(0.0256354 -0.0888681 4.78235e-23)
(0.0195903 -0.0947677 -8.5997e-23)
(0.0136815 -0.099885 3.26545e-23)
(0.00832634 -0.103841 2.73418e-24)
(0.00375388 -0.106459 0)
(0.000869563 -0.108084 -3.88682e-25)
(0.0458513 -0.0633109 1.41625e-22)
(0.0392934 -0.0732082 -1.42832e-22)
(0.0346124 -0.0828519 -1.05805e-22)
(0.0289774 -0.0901035 -8.2061e-23)
(0.0234691 -0.0971745 -5.05834e-23)
(0.0178163 -0.102737 7.84307e-24)
(0.0122881 -0.107436 1.77247e-23)
(0.00734381 -0.11089 2.73022e-23)
(0.0031912 -0.113032 0)
(0.000654359 -0.114159 -2.20271e-24)
(0.041558 -0.0715505 0)
(0.0359245 -0.0808244 -4.78454e-22)
(0.0317937 -0.0907331 8.07555e-22)
(0.0266016 -0.097697 8.21819e-23)
(0.0214541 -0.104556 1.29172e-22)
(0.0162116 -0.109771 1.35599e-22)
(0.0110587 -0.114062 -2.82979e-23)
(0.00651337 -0.117079 -1.66044e-23)
(0.00274096 -0.118827 1.9651e-23)
(0.000496077 -0.11959 2.19746e-24)
(0.0373817 -0.079386 0)
(0.0327274 -0.0877969 -5.56273e-22)
(0.0291162 -0.097857 -2.20078e-22)
(0.0244101 -0.104478 0)
(0.0196075 -0.111074 -3.56813e-22)
(0.0147796 -0.115959 1.36599e-22)
(0.00998427 -0.119867 8.25561e-23)
(0.00581483 -0.122522 1.36409e-22)
(0.00237945 -0.123953 -1.95869e-23)
(0.00037855 -0.124459 1.44193e-23)
(0.0334135 -0.0868139 0)
(0.0297512 -0.0941858 5.60882e-22)
(0.0266021 -0.104261 0)
(0.0224172 -0.110531 6.44635e-22)
(0.0179323 -0.116816 -6.47979e-22)
(0.0135118 -0.121411 -1.71398e-22)
(0.00905 -0.124968 3.78807e-23)
(0.00522708 -0.127335 -1.42391e-22)
(0.00208701 -0.128515 -2.6162e-23)
(0.000289707 -0.128847 -2.22313e-23)
(0.0297187 -0.0938621 5.79477e-21)
(0.0270344 -0.100098 -2.17096e-21)
(0.0242658 -0.110009 -2.11499e-22)
(0.0206258 -0.115969 -8.73123e-22)
(0.0164262 -0.121887 0)
(0.0123947 -0.126246 -1.83496e-22)
(0.00824006 -0.12948 6.06526e-23)
(0.00473081 -0.131629 2.15854e-22)
(0.00184841 -0.13261 8.82773e-24)
(0.000220909 -0.132833 -8.82038e-24)
(0.0263328 -0.100567 5.08618e-22)
(0.024609 -0.105679 3.38048e-21)
(0.0221227 -0.115182 9.14748e-22)
(0.0190336 -0.120917 -9.14187e-22)
(0.0150872 -0.126405 -3.18526e-22)
(0.0114145 -0.130586 0)
(0.00754063 -0.13352 -2.99518e-22)
(0.00431011 -0.135508 1.60339e-22)
(0.0016526 -0.13633 8.12107e-23)
(0.000166243 -0.136495 2.05248e-23)
(0.0232768 -0.106944 -8.14792e-22)
(0.0225174 -0.111106 0)
(0.0202054 -0.119876 0)
(0.0176421 -0.125505 0)
(0.0139205 -0.130489 -2.52494e-22)
(0.0105619 -0.134547 5.70381e-22)
(0.00694259 -0.137197 3.08562e-22)
(0.0039537 -0.139073 -3.66223e-22)
(0.00149237 -0.139766 2.10108e-23)
(0.000121734 -0.139908 -4.11233e-23)
(0.0205471 -0.112959 -1.88787e-21)
(0.0207774 -0.116574 2.51224e-21)
(0.0185391 -0.124194 -2.48854e-21)
(0.0164365 -0.129854 1.59348e-21)
(0.0129233 -0.13426 -1.93307e-21)
(0.00982332 -0.138239 0)
(0.00643537 -0.140614 -1.8785e-22)
(0.0036512 -0.142415 -8.2822e-24)
(0.00136202 -0.143 -6.97376e-23)
(8.41698e-05 -0.143152 -2.34742e-23)
(0.0178823 -0.11847 -8.84626e-22)
(0.0191375 -0.122267 0)
(0.0169957 -0.128248 -2.45481e-21)
(0.0152842 -0.134075 3.80959e-21)
(0.0120151 -0.137835 -1.30845e-21)
(0.00913581 -0.141766 -1.39912e-22)
(0.00598028 -0.143868 1.87422e-22)
(0.00337868 -0.145623 2.32442e-23)
(0.00125116 -0.146115 1.43614e-22)
(5.17957e-05 -0.146301 4.67046e-23)
(0.0152504 -0.123095 -3.5788e-21)
(0.017481 -0.128353 3.49878e-21)
(0.0155876 -0.1322 3.17493e-22)
(0.0141701 -0.138284 0)
(0.011183 -0.141344 0)
(0.00849527 -0.145237 1.44051e-22)
(0.00557221 -0.147062 3.48977e-22)
(0.00313552 -0.148783 -3.42478e-22)
(0.00116061 -0.149191 -2.58716e-23)
(3.6433e-05 -0.149436 2.53191e-23)
(0.0150898 -0.130097 0)
(0.0178047 -0.14292 0)
(0.0153767 -0.141374 0)
(0.0136967 -0.148304 0)
(0.0107197 -0.149782 0)
(0.00800405 -0.153675 0)
(0.00524355 -0.154852 0)
(0.00293737 -0.156503 0)
(0.00112796 -0.156673 0)
(7.08194e-05 -0.157013 0)
(0.0140904 -0.153543 0)
(0.0128198 -0.16767 0)
(0.0109097 -0.162459 0)
(0.00928484 -0.169502 0)
(0.00719875 -0.16867 0)
(0.00535853 -0.172309 0)
(0.00349784 -0.172244 0)
(0.00200151 -0.173733 0)
(0.00079178 -0.173388 0)
(8.22806e-05 -0.17382 0)
(0.0145507 -0.182266 0)
(0.0119853 -0.197507 0)
(0.0098392 -0.189551 0)
(0.00787608 -0.19704 0)
(0.00600677 -0.194287 0)
(0.00434667 -0.198071 0)
(0.00285564 -0.196923 0)
(0.00166149 -0.198516 0)
(0.000711474 -0.197652 0)
(9.59137e-05 -0.19826 0)
(0.0145353 -0.218401 0)
(0.0110987 -0.234866 0)
(0.00899826 -0.224945 0)
(0.00678419 -0.233268 0)
(0.00518838 -0.228919 0)
(0.00362938 -0.233227 0)
(0.00245598 -0.231094 0)
(0.00143657 -0.233041 0)
(0.00067705 -0.231628 0)
(9.73414e-05 -0.232532 0)
(0.0141957 -0.262957 0)
(0.0103421 -0.279818 0)
(0.00834172 -0.26922 0)
(0.0059472 -0.278258 0)
(0.00460505 -0.272938 0)
(0.00307225 -0.27789 0)
(0.00216744 -0.275014 0)
(0.0012214 -0.277451 0)
(0.00063004 -0.275544 0)
(7.0963e-05 -0.276856 0)
(0.0132091 -0.313843 0)
(0.00935136 -0.329321 0)
(0.00754545 -0.319936 0)
(0.00512946 -0.328822 0)
(0.00402962 -0.323611 0)
(0.00252561 -0.328796 0)
(0.00184175 -0.325706 0)
(0.000922962 -0.328453 0)
(0.000505055 -0.326307 0)
(7.15756e-06 -0.327957 0)
(0.0113234 -0.365212 0)
(0.00789103 -0.377577 0)
(0.00636093 -0.371121 0)
(0.00417472 -0.378644 0)
(0.00329761 -0.374707 0)
(0.00191972 -0.379307 0)
(0.00140078 -0.376704 0)
(0.000545783 -0.379251 0)
(0.000298889 -0.377298 0)
(-6.78559e-05 -0.378963 0)
(0.00861739 -0.409429 0)
(0.00594232 -0.418013 0)
(0.00477204 -0.415147 0)
(0.00305615 -0.42053 0)
(0.00240128 -0.418492 0)
(0.00129016 -0.421817 0)
(0.000902548 -0.420184 0)
(0.000203657 -0.422014 0)
(9.65619e-05 -0.42062 0)
(-0.000108779 -0.421887 0)
(0.00535327 -0.440638 0)
(0.00365504 -0.446095 0)
(0.00292769 -0.446219 0)
(0.00184348 -0.449583 0)
(0.00143802 -0.449262 0)
(0.000716321 -0.451229 0)
(0.000468224 -0.450575 0)
(1.0482e-05 -0.451554 0)
(-1.52138e-05 -0.450793 0)
(-9.5588e-05 -0.451485 0)
(0.00181283 -0.456415 0)
(0.0012228 -0.460207 0)
(0.000983904 -0.46195 0)
(0.000611348 -0.464149 0)
(0.000477927 -0.46479 0)
(0.000225805 -0.465927 0)
(0.000141055 -0.465855 0)
(-2.00316e-05 -0.466293 0)
(-2.02702e-05 -0.465938 0)
(-3.78421e-05 -0.466241 0)
(0.0148208 -0.139362 4.18447e-21)
(0.0155287 -0.164289 -4.103e-21)
(0.0166048 -0.194755 5.28192e-22)
(0.0167672 -0.231896 0)
(0.0164024 -0.276024 0)
(0.0151774 -0.32462 6.11217e-22)
(0.0129743 -0.372202 -2.62655e-21)
(0.00990512 -0.41229 2.59071e-21)
(0.00619927 -0.440223 7.04142e-22)
(0.00210708 -0.45426 -6.93095e-22)
(0.0150376 -0.144172 -4.95259e-21)
(0.016369 -0.169001 0)
(0.0175824 -0.199584 3.60115e-21)
(0.0177787 -0.23671 -8.31013e-21)
(0.0173739 -0.280424 5.33438e-21)
(0.0160372 -0.328046 -5.66e-22)
(0.0137008 -0.37423 1.26164e-21)
(0.0104776 -0.41289 2.66293e-21)
(0.00657786 -0.439741 7.49864e-22)
(0.00223502 -0.453223 7.27849e-22)
(0.0155659 -0.149177 5.78453e-21)
(0.0175376 -0.173982 -3.97505e-21)
(0.0187963 -0.204451 3.93737e-21)
(0.0189838 -0.241331 -4.40428e-21)
(0.0184955 -0.284459 3.25875e-21)
(0.0170083 -0.331009 0)
(0.0144977 -0.375797 -1.2647e-21)
(0.0110785 -0.413112 6.51888e-23)
(0.00695482 -0.438997 -1.39806e-21)
(0.00235355 -0.452003 -1.42785e-21)
(0.0164362 -0.153674 -9.35259e-22)
(0.0189712 -0.178581 0)
(0.020225 -0.20899 0)
(0.0203781 -0.245641 0)
(0.0197756 -0.288194 3.62974e-21)
(0.018113 -0.333704 -2.42749e-21)
(0.0153954 -0.37715 -1.67861e-23)
(0.0117389 -0.413169 -1.49351e-21)
(0.00735575 -0.438105 -7.66642e-22)
(0.00247448 -0.450623 -8.20824e-22)
(0.0177159 -0.15776 8.8568e-23)
(0.02065 -0.18261 -2.82289e-21)
(0.0218464 -0.212926 -2.15194e-21)
(0.0219416 -0.249365 2.15058e-21)
(0.0212015 -0.29139 -1.1859e-21)
(0.0193491 -0.335958 0)
(0.0164051 -0.378195 -1.39215e-21)
(0.0124823 -0.41303 3.04794e-21)
(0.0078067 -0.437076 -1.55986e-21)
(0.00261153 -0.449119 1.60615e-21)
(0.0194422 -0.161505 -7.50422e-21)
(0.0225952 -0.186108 8.15219e-22)
(0.0236761 -0.216209 -1.56263e-22)
(0.023678 -0.252389 2.20987e-21)
(0.0227728 -0.293899 0)
(0.0207143 -0.337617 0)
(0.0175266 -0.378796 0)
(0.0133144 -0.412604 1.63346e-21)
(0.0083171 -0.435876 0)
(0.00277119 -0.447502 0)
(0.0216265 -0.164818 0)
(0.0248235 -0.189054 3.09554e-21)
(0.0257398 -0.218835 -2.09174e-21)
(0.0256058 -0.254704 -2.48104e-21)
(0.0245043 -0.295697 2.49394e-21)
(0.0222167 -0.33864 1.48787e-21)
(0.018762 -0.3789 -1.47607e-21)
(0.0142345 -0.411842 -5.83512e-21)
(0.00888603 -0.434473 4.15443e-22)
(0.00295447 -0.44576 -1.42182e-21)
(0.0242772 -0.167576 0)
(0.0273415 -0.191371 -1.00617e-21)
(0.0280554 -0.220765 -5.67764e-22)
(0.0277407 -0.2563 0)
(0.0264131 -0.296793 7.25461e-22)
(0.0238701 -0.339042 -2.18896e-21)
(0.0201195 -0.378514 2.43802e-21)
(0.0152447 -0.410739 8.69869e-22)
(0.009512 -0.432856 -9.51821e-22)
(0.00316116 -0.443882 1.88636e-21)
(0.0274052 -0.169685 9.0491e-22)
(0.030154 -0.192995 1.09154e-21)
(0.0306336 -0.221948 -2.42232e-22)
(0.0300925 -0.257155 3.24609e-22)
(0.0285122 -0.297183 6.90391e-22)
(0.0256867 -0.338836 1.15946e-21)
(0.0216085 -0.377657 -4.36174e-22)
(0.0163506 -0.409305 -4.71327e-22)
(0.0101963 -0.431024 9.54957e-22)
(0.00339186 -0.441857 5.17495e-22)
(0.0310203 -0.171067 -2.52175e-22)
(0.0332665 -0.193894 2.54536e-22)
(0.0334837 -0.222348 -2.92211e-22)
(0.0326674 -0.257246 -3.24186e-22)
(0.0308108 -0.296858 3.85132e-22)
(0.0276752 -0.338025 -7.86428e-22)
(0.023238 -0.376336 6.67443e-22)
(0.0175595 -0.407549 2.38675e-22)
(0.0109429 -0.428978 0)
(0.00364821 -0.439682 -5.18653e-22)
(0.0351298 -0.171663 2.58401e-22)
(0.0366814 -0.194059 -2.60905e-22)
(0.0366141 -0.221948 -3.13661e-22)
(0.0354701 -0.256572 -3.50314e-22)
(0.0333167 -0.295816 -4.01917e-22)
(0.0298424 -0.336615 -2.82746e-23)
(0.0250147 -0.374559 2.35182e-22)
(0.0188766 -0.405475 7.59436e-22)
(0.0117549 -0.426719 0)
(0.00393125 -0.437354 -5.66035e-22)
(0.0397384 -0.171459 0)
(0.0403989 -0.19349 -1.20046e-21)
(0.0400305 -0.220759 2.17581e-21)
(0.0385033 -0.255142 3.50903e-22)
(0.0360373 -0.294061 8.15406e-22)
(0.0321948 -0.334605 1.33944e-21)
(0.0269466 -0.37232 -4.76598e-22)
(0.02031 -0.403077 -5.1521e-22)
(0.0126377 -0.424241 1.13956e-21)
(0.00424273 -0.434867 5.64718e-22)
(0.0448474 -0.170494 0)
(0.0444187 -0.19218 -1.18404e-21)
(0.043734 -0.218819 -6.54029e-22)
(0.0417704 -0.252976 0)
(0.0389776 -0.291625 -2.56895e-21)
(0.0347361 -0.332019 8.58305e-22)
(0.0290367 -0.369639 1.02317e-21)
(0.0218605 -0.40037 3.30451e-21)
(0.0135904 -0.421541 -1.13586e-21)
(0.00458136 -0.432208 2.45167e-21)
(0.0504517 -0.168878 0)
(0.0487429 -0.190125 1.19412e-21)
(0.0477139 -0.216232 0)
(0.0452727 -0.250075 3.28039e-21)
(0.0421418 -0.288524 -3.29722e-21)
(0.0374745 -0.328852 -2.01823e-21)
(0.031294 -0.366503 -4.55994e-23)
(0.0235413 -0.397332 -3.4009e-21)
(0.014625 -0.418604 -5.66914e-22)
(0.00495024 -0.429362 -3.04954e-21)
(0.0565201 -0.166688 8.63052e-21)
(0.0533802 -0.187318 -3.31398e-21)
(0.0519673 -0.213 3.54421e-22)
(0.0490299 -0.246453 -3.06088e-21)
(0.0455238 -0.284783 0)
(0.0404119 -0.325138 -2.10477e-21)
(0.0337175 -0.362948 -1.76606e-22)
(0.0253488 -0.393995 4.61891e-21)
(0.0157371 -0.415456 6.332e-22)
(0.0053463 -0.426348 -6.35644e-22)
(0.0630076 -0.163917 -8.85717e-22)
(0.0583473 -0.183829 6.19432e-21)
(0.0564652 -0.20914 3.18441e-21)
(0.0530332 -0.24222 -3.18226e-21)
(0.0491252 -0.280436 -1.92007e-21)
(0.0435557 -0.320873 0)
(0.0363212 -0.358938 -4.71698e-21)
(0.0273005 -0.390317 2.36579e-21)
(0.0169416 -0.41207 2.52656e-21)
(0.00577461 -0.423144 2.71246e-21)
(0.0698432 -0.160625 -1.19037e-21)
(0.0636395 -0.17977 0)
(0.0611836 -0.204756 0)
(0.05727 -0.237477 0)
(0.0529404 -0.275617 -2.21774e-21)
(0.0468918 -0.316226 4.13065e-21)
(0.0390795 -0.354648 4.80519e-21)
(0.0293626 -0.386434 -7.56714e-21)
(0.01821 -0.408516 1.35434e-21)
(0.00622071 -0.419786 -4.02872e-21)
(0.0769121 -0.156939 -1.77929e-21)
(0.0692486 -0.175148 6.10573e-21)
(0.066103 -0.19984 -6.04747e-21)
(0.0617381 -0.232112 7.76577e-21)
(0.0569884 -0.270104 -9.76735e-21)
(0.0504692 -0.310866 0)
(0.0420723 -0.349724 -2.51216e-21)
(0.0316284 -0.382073 -1.03544e-22)
(0.019617 -0.40464 -2.81501e-21)
(0.00671478 -0.416171 -2.86856e-21)
(0.0840479 -0.153261 -1.26503e-21)
(0.0751334 -0.170339 0)
(0.0711462 -0.194897 -8.0724e-21)
(0.0663416 -0.226843 1.52093e-20)
(0.0611437 -0.26486 -5.88836e-21)
(0.054113 -0.305895 -1.18844e-21)
(0.0450786 -0.345172 2.5067e-21)
(0.0338713 -0.377928 -1.26761e-22)
(0.0209943 -0.400799 4.10897e-21)
(0.0071827 -0.412497 4.24519e-21)
(0.0914886 -0.147999 -5.70026e-21)
(0.0820746 -0.16361 5.589e-21)
(0.0769004 -0.187829 8.61663e-22)
(0.0715779 -0.2192 0)
(0.0659101 -0.257066 0)
(0.0583983 -0.298488 1.16982e-21)
(0.0487279 -0.338666 5.36132e-21)
(0.0366788 -0.372506 -5.24619e-21)
(0.0227597 -0.396247 -1.43628e-21)
(0.00779713 -0.408316 1.4123e-21)
(0.102045 -0.148263 0)
(0.0974241 -0.160889 0)
(0.0891718 -0.185863 0)
(0.0824708 -0.216676 0)
(0.0754159 -0.253634 0)
(0.0664053 -0.293647 0)
(0.0551164 -0.332189 0)
(0.0413336 -0.364543 0)
(0.0255771 -0.387383 0)
(0.00862708 -0.39928 0)
(0.120691 -0.134966 0)
(0.123183 -0.152468 0)
(0.110669 -0.180414 0)
(0.103116 -0.210796 0)
(0.0935557 -0.246589 0)
(0.0818294 -0.284256 0)
(0.0675399 -0.319892 0)
(0.0504749 -0.349292 0)
(0.0312442 -0.369431 0)
(0.0107962 -0.379085 0)
(0.145192 -0.122224 0)
(0.15062 -0.142194 0)
(0.133947 -0.170446 0)
(0.126081 -0.199464 0)
(0.113254 -0.233539 0)
(0.0983583 -0.268261 0)
(0.0804825 -0.300932 0)
(0.0596865 -0.328148 0)
(0.0366482 -0.347597 0)
(0.0121257 -0.358295 0)
(0.175662 -0.113294 0)
(0.182129 -0.133679 0)
(0.161022 -0.160827 0)
(0.153023 -0.188469 0)
(0.135956 -0.220762 0)
(0.117663 -0.252269 0)
(0.09563 -0.281796 0)
(0.0705809 -0.305853 0)
(0.0433571 -0.322047 0)
(0.0151288 -0.328993 0)
(0.211518 -0.102386 0)
(0.21632 -0.121176 0)
(0.190828 -0.145887 0)
(0.181833 -0.170974 0)
(0.158771 -0.199592 0)
(0.136441 -0.226576 0)
(0.109234 -0.252633 0)
(0.0796216 -0.274448 0)
(0.0481271 -0.291009 0)
(0.0151957 -0.301931 0)
(0.252803 -0.0938949 0)
(0.254595 -0.110408 0)
(0.225281 -0.133311 0)
(0.214198 -0.155378 0)
(0.184239 -0.180352 0)
(0.158552 -0.203688 0)
(0.125825 -0.227092 0)
(0.0914394 -0.245939 0)
(0.055538 -0.258866 0)
(0.0204673 -0.261865 0)
(0.295666 -0.0774643 0)
(0.290514 -0.0903316 0)
(0.258271 -0.109219 0)
(0.242291 -0.125845 0)
(0.205086 -0.14558 0)
(0.17555 -0.163829 0)
(0.134817 -0.18262 0)
(0.0952793 -0.198566 0)
(0.0547227 -0.214593 0)
(0.013337 -0.233028 0)
(0.337994 -0.0665617 0)
(0.327298 -0.0754142 0)
(0.294756 -0.0910278 0)
(0.273236 -0.103362 0)
(0.23313 -0.120513 0)
(0.200032 -0.135802 0)
(0.154094 -0.153438 0)
(0.110988 -0.169535 0)
(0.0655777 -0.185456 0)
(0.0324497 -0.181709 0)
(0.375808 -0.0367978 0)
(0.361101 -0.0407306 0)
(0.316514 -0.0501101 0)
(0.288274 -0.0559541 0)
(0.236631 -0.0661887 0)
(0.194905 -0.0734695 0)
(0.135191 -0.0832673 0)
(0.0804436 -0.0924446 0)
(0.0255127 -0.1118 0)
(-0.0369747 -0.162886 0)
(0.631558 -0.0191292 0)
(0.610651 -0.0221153 0)
(0.570127 -0.0266049 0)
(0.537513 -0.0307878 0)
(0.486726 -0.0370784 0)
(0.440134 -0.0438212 0)
(0.374617 -0.0541999 0)
(0.304775 -0.069445 0)
(0.212343 -0.0987543 0)
(0.152125 -0.156915 0)
(0.122265 -0.13355 5.83878e-21)
(0.14327 -0.119699 -5.75063e-21)
(0.16793 -0.107302 9.4637e-22)
(0.197941 -0.0986156 0)
(0.233662 -0.0885522 0)
(0.273217 -0.0808505 1.44597e-21)
(0.315156 -0.0663158 -6.89299e-21)
(0.355011 -0.0576055 6.79949e-21)
(0.402283 -0.0314786 1.93676e-21)
(0.652585 -0.0167389 -1.96304e-21)
(0.129049 -0.127192 -5.42521e-21)
(0.149823 -0.113138 0)
(0.173993 -0.101162 6.77358e-21)
(0.20379 -0.0927268 -1.63843e-20)
(0.239565 -0.0830471 1.10536e-20)
(0.279026 -0.0757097 -1.35062e-21)
(0.320973 -0.0618852 2.93798e-21)
(0.360822 -0.0540657 6.62546e-21)
(0.412068 -0.0293946 1.79625e-21)
(0.660814 -0.0157192 1.80305e-21)
(0.135012 -0.120131 6.26596e-21)
(0.155354 -0.106247 -6.34232e-21)
(0.178943 -0.094885 6.28232e-21)
(0.208379 -0.086802 -8.71368e-21)
(0.244038 -0.0776006 6.31754e-21)
(0.283532 -0.0707185 0)
(0.325486 -0.0576727 -2.94506e-21)
(0.365877 -0.0507719 -6.34336e-23)
(0.42068 -0.0275148 -3.40264e-21)
(0.668564 -0.0147387 -3.5945e-21)
(0.140893 -0.112559 -1.07884e-21)
(0.161203 -0.0991532 0)
(0.184357 -0.0885052 0)
(0.21354 -0.0808348 0)
(0.248852 -0.0721881 7.15993e-21)
(0.288319 -0.0658379 -4.87774e-21)
(0.330116 -0.0536437 -1.93094e-22)
(0.370995 -0.047643 -3.36856e-21)
(0.428713 -0.0258167 -1.71237e-21)
(0.676038 -0.0138352 -1.75537e-21)
(0.146246 -0.104609 1.10389e-21)
(0.166746 -0.0919629 -3.4222e-21)
(0.189575 -0.0821115 -3.57134e-21)
(0.218672 -0.0748713 3.56912e-21)
(0.253653 -0.0668248 -2.24987e-21)
(0.29316 -0.0610832 0)
(0.334736 -0.0497652 -2.86502e-21)
(0.376116 -0.0446162 6.40576e-21)
(0.436314 -0.024254 -3.21817e-21)
(0.683182 -0.013014 3.50122e-21)
(0.150876 -0.0963061 -8.06589e-21)
(0.171608 -0.0846973 3.90861e-22)
(0.194142 -0.0757147 -5.71982e-22)
(0.223124 -0.0689607 3.48865e-21)
(0.257962 -0.0615534 0)
(0.29754 -0.0564536 0)
(0.338912 -0.046041 0)
(0.380947 -0.041691 3.06042e-21)
(0.443366 -0.0227943 0)
(0.689897 -0.0122691 0)
(0.154706 -0.0876659 0)
(0.175736 -0.0773453 4.08579e-21)
(0.19802 -0.0692901 -2.83751e-21)
(0.226812 -0.063104 -3.99075e-21)
(0.261569 -0.0563855 4.01149e-21)
(0.301232 -0.0519407 2.59669e-21)
(0.342495 -0.0424731 -2.44959e-21)
(0.385231 -0.0388806 -1.05364e-20)
(0.449701 -0.0214242 7.45591e-22)
(0.696096 -0.0115961 -2.49913e-21)
(0.15763 -0.0787188 0)
(0.179095 -0.069898 -1.25241e-21)
(0.201221 -0.0628204 -7.56259e-22)
(0.229797 -0.057282 0)
(0.264468 -0.0513002 1.21071e-21)