/*--------------------------------*- C++ -*----------------------------------*\
  =========                 |
  \\      /  F ield         | OpenFOAM: The Open Source CFD Toolbox
   \\    /   O peration     | Website:  https://openfoam.org
    \\  /    A nd           | Version:  7
     \\/     M anipulation  |
\*---------------------------------------------------------------------------*/
FoamFile
{
    version     2.0;
    format      ascii;
    class       volVectorField;
    location    "1.6";
    object      U;
}
// * * * * * * * * * * * * * * * * * * * * * * * * * * * * * * * * * * * * * //

dimensions      [0 1 -1 0 0 0 0];

internalField   nonuniform List<vector> 
2000
(
(-0.00557789 0.0345831 -1.40251e-20)
(0.00167179 0.0716464 0)
(0.0291806 0.0915616 0)
(0.0603126 0.101322 -6.9439e-20)
(0.0905256 0.106138 2.16739e-20)
(0.116404 0.109246 1.09141e-22)
(0.136831 0.112309 -3.72819e-20)
(0.152447 0.115947 0)
(0.164001 0.120339 0)
(0.172885 0.125049 0)
(-0.00894756 0.0343541 0)
(-0.00402954 0.0614499 -5.38096e-20)
(0.0239471 0.0732666 4.96133e-20)
(0.056935 0.079184 9.26856e-20)
(0.0894782 0.0838941 0)
(0.117629 0.0891034 7.99757e-20)
(0.140017 0.0951414 -7.43668e-20)
(0.157192 0.101831 0)
(0.169903 0.108949 1.3029e-19)
(0.17958 0.115729 -2.44523e-19)
(-0.0120308 0.0342174 0)
(-0.0069909 0.0508498 4.26471e-19)
(0.0236551 0.0542144 0)
(0.0595541 0.0560164 3.68634e-19)
(0.0944808 0.0604828 0)
(0.12438 0.0677975 -3.18042e-19)
(0.147984 0.0769279 0)
(0.165874 0.0868521 2.76982e-19)
(0.179102 0.0969494 -2.5941e-19)
(0.188754 0.105834 -2.42264e-19)
(-0.0146981 0.0338343 -1.11507e-19)
(-0.00678555 0.0399109 -2.13663e-19)
(0.028991 0.0349769 -9.85229e-20)
(0.0689421 0.0328328 -1.84178e-19)
(0.106269 0.0371416 -1.70332e-19)
(0.13729 0.0465947 1.5923e-19)
(0.161259 0.0588615 1.47645e-19)
(0.178893 0.072052 -6.49815e-22)
(0.191942 0.0852637 2.58172e-19)
(0.200663 0.0961002 2.41896e-19)
(-0.0166887 0.0329328 -1.10358e-19)
(-0.002862 0.0286532 -2.12539e-19)
(0.0405514 0.0161872 -3.94106e-19)
(0.0856226 0.0107753 1.82183e-19)
(0.12523 0.0152661 0)
(0.156621 0.0269163 0)
(0.180016 0.0422688 -2.9392e-19)
(0.196353 0.0585695 -2.7411e-19)
(0.208505 0.0748817 2.5581e-19)
(0.215266 0.0875135 7.17068e-19)
(-0.0177029 0.0312832 1.10046e-19)
(0.00536893 0.0170815 1.06538e-19)
(0.0587667 -0.00146303 -5.81116e-19)
(0.1097 -0.00896876 9.06491e-19)
(0.151205 -0.00372527 -1.68357e-19)
(0.182087 0.010189 0)
(0.203915 0.0284609 0)
(0.217998 0.0475384 1.36142e-18)
(0.228607 0.066755 -1.27551e-18)
(0.23251 0.0813209 2.38437e-19)
(-0.0173355 0.0286091 8.63762e-19)
(0.01845 0.00535635 0)
(0.0837212 -0.0172501 7.78835e-19)
(0.14068 -0.0253142 -7.2415e-19)
(0.183348 -0.0186167 0)
(0.212751 -0.0023944 3.11825e-19)
(0.232023 0.018479 -8.67828e-19)
(0.243188 0.0399452 -1.08407e-18)
(0.251677 0.0615715 5.06585e-19)
(0.25239 0.0787982 4.72856e-19)
(-0.0150685 0.0247108 -1.71818e-18)
(0.036802 -0.00620208 -2.07408e-19)
(0.115 -0.0304995 -3.8042e-19)
(0.177381 -0.0374631 -8.8926e-19)
(0.220114 -0.0286574 -3.32948e-19)
(0.24708 -0.0101808 -3.06719e-19)
(0.262978 0.0127361 5.12479e-21)
(0.271066 0.0363646 0)
(0.27675 0.0594213 0)
(0.274677 0.0809216 -1.40061e-21)
(-0.0103458 0.0195722 8.54437e-19)
(0.0606142 -0.0171238 -8.12879e-19)
(0.151633 -0.0406555 5.73518e-19)
(0.217995 -0.0450408 1.24261e-18)
(0.259412 -0.0337271 -3.28012e-19)
(0.283112 -0.0132802 3.12431e-19)
(0.295332 0.0108313 2.87896e-19)
(0.300896 0.0364858 0)
(0.303279 0.0594539 0)
(0.299375 0.0872515 -2.90295e-21)
(-0.00263568 0.0133855 -1.0491e-19)
(0.0897282 -0.0267761 1.01606e-18)
(0.192158 -0.0473157 -1.87217e-19)
(0.260326 -0.0481093 0)
(0.298903 -0.0342979 0)
(0.318679 -0.0125199 6.09101e-19)
(0.327551 0.0118408 0)
(0.331668 0.0387563 -5.24882e-19)
(0.331835 0.0603231 1.07189e-21)
(0.328521 0.094912 4.56681e-19)
(0.185885 0.140701 9.19558e-21)
(0.17843 0.164176 -9.35748e-21)
(0.174041 0.182357 -9.46438e-21)
(0.163745 0.200238 -9.61168e-21)
(0.129602 0.214937 -9.80971e-21)
(0.149099 0.23123 -6.6476e-23)
(0.0419659 0.23126 4.86906e-21)
(0.144109 0.253073 1.53265e-20)
(-0.0512548 0.239115 0)
(0.106959 0.292289 -1.04112e-20)
(0.194078 0.138285 3.65695e-20)
(0.185279 0.162633 -3.74949e-20)
(0.179851 0.183945 6.61541e-20)
(0.169183 0.20335 9.62748e-21)
(0.134441 0.219516 1.93181e-20)
(0.152353 0.237396 2.98042e-20)
(0.0451278 0.237671 -9.89131e-21)
(0.146007 0.260372 -1.02455e-20)
(-0.0507681 0.248587 2.02054e-20)
(0.106536 0.298324 1.03871e-20)
(0.203882 0.136286 0)
(0.192934 0.162295 -3.73151e-20)
(0.186442 0.186612 -1.89496e-20)
(0.175262 0.207619 0)
(0.139776 0.224986 -5.83145e-20)
(0.156081 0.244318 1.93863e-20)
(0.048574 0.245042 1.9263e-20)
(0.148418 0.268335 6.05379e-20)
(-0.0500868 0.25873 -2.01396e-20)
(0.106767 0.304548 4.09876e-20)
(0.215511 0.13418 0)
(0.201607 0.162348 3.76316e-20)
(0.193967 0.18934 0)
(0.18212 0.212257 7.65411e-20)
(0.145722 0.230724 -7.69318e-20)
(0.160434 0.251697 -3.9105e-20)
(0.0523375 0.25304 1.87249e-22)
(0.151334 0.276774 -6.05755e-20)
(-0.0491979 0.269425 -1.00518e-20)
(0.10761 0.311055 -5.07945e-20)
(0.228728 0.131675 1.19411e-22)
(0.211282 0.162107 -1.12257e-19)
(0.202382 0.191623 3.77673e-22)
(0.189851 0.216455 -7.62049e-20)
(0.152372 0.236045 0)
(0.165533 0.258955 -3.89211e-20)
(0.0564837 0.261171 -2.40498e-22)
(0.154812 0.285437 7.93752e-20)
(-0.048037 0.280463 9.90388e-21)
(0.109033 0.317924 -9.94282e-21)
(0.243157 0.129069 -2.99022e-19)
(0.222038 0.161449 1.89253e-19)
(0.21163 0.193724 7.63295e-20)
(0.198385 0.220382 -7.6277e-20)
(0.159757 0.240848 -3.81746e-20)
(0.171463 0.265685 0)
(0.0610783 0.268832 -7.72956e-20)
(0.158852 0.2937 3.91596e-20)
(-0.0465878 0.29139 3.91425e-20)
(0.111009 0.324936 3.92936e-20)
(0.258466 0.126979 -3.75226e-20)
(0.233877 0.16046 0)
(0.221749 0.195171 0)
(0.207623 0.224625 0)
(0.167805 0.245906 -3.88714e-20)
(0.178195 0.273054 7.6925e-20)
(0.0661224 0.277328 7.69151e-20)
(0.163555 0.302802 -1.1655e-19)
(-0.0447024 0.30293 1.92598e-20)
(0.1135 0.332864 -5.80044e-20)
(0.274555 0.125852 2.3064e-19)
(0.246673 0.159562 1.55523e-19)
(0.232795 0.195318 -1.54055e-19)
(0.217622 0.22768 1.5427e-19)
(0.176474 0.249317 -1.90971e-19)
(0.185802 0.278457 0)
(0.0716342 0.283662 -3.76777e-20)
(0.168871 0.310047 2.44869e-22)
(-0.0424804 0.313368 -3.75093e-20)
(0.116576 0.340418 -3.77906e-20)
(0.291889 0.125888 -1.96501e-19)
(0.260814 0.158341 0)
(0.244576 0.196014 -1.76113e-19)
(0.22834 0.232947 3.09572e-19)
(0.185569 0.257094 -1.14541e-19)
(0.193698 0.28847 -1.91608e-20)
(0.0772833 0.294303 3.75955e-20)
(0.174147 0.321051 4.18853e-22)
(-0.0402657 0.325961 5.57235e-20)
(0.119965 0.350667 5.55987e-20)
(0.313956 0.126655 -1.61405e-19)
(0.280343 0.151993 1.59464e-19)
(0.258971 0.185538 1.96913e-20)
(0.241072 0.224242 0)
(0.196737 0.250826 0)
(0.204944 0.287962 1.88645e-20)
(0.084971 0.295461 7.38904e-20)
(0.182798 0.325157 -7.23238e-20)
(-0.0354958 0.334507 -1.78691e-20)
(0.123676 0.358474 1.75376e-20)
(0.365937 0.125945 0)
(0.338356 0.193008 0)
(0.295878 0.246302 0)
(0.259653 0.286013 0)
(0.20958 0.308994 0)
(0.207346 0.338339 0)
(0.0900759 0.339732 0)
(0.184544 0.365211 0)
(-0.0389843 0.368957 0)
(0.139219 0.391891 0)
(0.389572 0.158527 0)
(0.351887 0.194786 0)
(0.322377 0.23472 0)
(0.294777 0.275915 0)
(0.248875 0.311678 0)
(0.237948 0.351442 0)
(0.118752 0.367774 0)
(0.20296 0.404981 0)
(-0.030355 0.407332 0)
(0.150008 0.445652 0)
(0.428597 0.192121 0)
(0.392039 0.235721 0)
(0.361595 0.280324 0)
(0.330683 0.321487 0)
(0.28319 0.356919 0)
(0.267544 0.392871 0)
(0.14712 0.412619 0)
(0.225521 0.449805 0)
(-0.0159217 0.450405 0)
(0.157772 0.490189 0)
(0.4768 0.22768 0)
(0.439024 0.273875 0)
(0.407236 0.321869 0)
(0.372385 0.368073 0)
(0.320207 0.40902 0)
(0.298322 0.447579 0)
(0.173944 0.47096 0)
(0.245982 0.5102 0)
(-0.00883087 0.510426 0)
(0.157632 0.585745 0)
(0.527819 0.259727 0)
(0.488783 0.308716 0)
(0.456521 0.36008 0)
(0.419295 0.411303 0)
(0.362691 0.459063 0)
(0.333788 0.503004 0)
(0.205586 0.535178 0)
(0.267133 0.57556 0)
(0.012734 0.578075 0)
(0.171029 0.585025 0)
(0.582719 0.287958 0)
(0.542932 0.343148 0)
(0.510118 0.399935 0)
(0.472053 0.457364 0)
(0.411157 0.51107 0)
(0.380432 0.563306 0)
(0.245987 0.598262 0)
(0.308032 0.654338 0)
(0.0317002 0.659262 0)
(0.177819 0.834642 0)
(0.645875 0.32597 0)
(0.605874 0.383656 0)
(0.571414 0.445121 0)
(0.530189 0.508175 0)
(0.464069 0.571989 0)
(0.418858 0.62936 0)
(0.27446 0.683663 0)
(0.293255 0.728484 0)
(-0.00241252 0.737293 0)
(0.144605 0.661178 0)
(0.702418 0.332828 0)
(0.668303 0.407518 0)
(0.638296 0.481764 0)
(0.605299 0.557653 0)
(0.542578 0.629372 0)
(0.517372 0.709183 0)
(0.383704 0.763395 0)
(0.449881 0.867448 0)
(0.197143 0.891747 0)
(0.260866 1.10973 0)
(0.798633 0.402419 0)
(0.754894 0.462223 0)
(0.709245 0.53387 0)
(0.658814 0.609193 0)
(0.576413 0.693398 0)
(0.514769 0.763285 0)
(0.339004 0.840198 0)
(0.327665 0.880995 0)
(-0.0150472 0.896105 0)
(0.155854 0.956132 0)
(0.832404 0.357805 0)
(0.847369 0.468156 0)
(0.836232 0.572427 0)
(0.818507 0.678825 0)
(0.753755 0.783994 0)
(0.730191 0.905378 0)
(0.56433 1.00829 0)
(0.570304 1.14423 0)
(0.224958 1.20836 0)
(0.223438 1.33655 0)
(0.383666 0.100415 1.4321e-19)
(0.432801 0.133733 -1.41441e-19)
(0.470995 0.164963 1.55313e-20)
(0.521181 0.196482 0)
(0.57149 0.226998 0)
(0.624734 0.251724 9.97142e-21)
(0.682691 0.289946 -2.77861e-20)
(0.736163 0.287397 2.71402e-20)
(0.824716 0.372564 2.24431e-21)
(0.805951 0.287525 -2.18197e-21)
(0.397432 0.0924798 -1.85758e-19)
(0.449478 0.129674 0)
(0.485566 0.160983 1.04811e-19)
(0.534853 0.190042 -2.25894e-19)
(0.583976 0.218743 1.29907e-19)
(0.636647 0.242032 -1.05713e-20)
(0.692263 0.277364 1.64448e-20)
(0.747164 0.27411 2.1122e-20)
(0.83135 0.360824 -1.63318e-24)
(0.787662 0.257536 -8.56278e-22)
(0.406821 0.0904914 2.13215e-19)
(0.464596 0.124026 -1.2795e-19)
(0.499377 0.154077 1.2669e-19)
(0.547845 0.180031 -1.03528e-19)
(0.596801 0.207245 7.823e-20)
(0.648696 0.229154 0)
(0.702779 0.262561 -1.64794e-20)
(0.757381 0.258727 -4.4627e-22)
(0.837304 0.346711 -7.34662e-21)
(0.766998 0.226496 -1.36704e-21)
(0.418143 0.0878346 -3.40025e-20)
(0.478263 0.116403 0)
(0.511349 0.146924 0)
(0.557885 0.16989 0)
(0.606274 0.195857 6.65295e-20)
(0.657257 0.21683 -4.30856e-20)
(0.709639 0.24793 2.17774e-21)
(0.765164 0.244841 -8.601e-21)
(0.838842 0.331942 -1.934e-21)
(0.740528 0.194619 1.15684e-21)
(0.428343 0.0867601 -6.44321e-21)
(0.489814 0.107875 -9.75184e-20)
(0.522592 0.138895 -5.49342e-20)
(0.567316 0.158438 5.48865e-20)
(0.615627 0.183162 -2.31048e-20)
(0.665985 0.203275 0)
(0.717385 0.232228 -1.56126e-20)
(0.773245 0.230387 1.9381e-20)
(0.838794 0.314822 -8.54724e-21)
(0.710984 0.161598 7.63557e-22)
(0.438644 0.0851983 -2.54134e-19)
(0.499295 0.0975843 3.65092e-20)
(0.53209 0.130039 4.95948e-21)
(0.574846 0.146289 5.37938e-20)
(0.62299 0.169793 0)
(0.672806 0.189281 0)
(0.723491 0.216205 0)
(0.779732 0.216125 1.01238e-20)
(0.835257 0.296204 0)
(0.677421 0.127879 0)
(0.44792 0.0837403 0)
(0.50666 0.0863014 8.70957e-20)
(0.54052 0.120213 -5.76307e-20)
(0.581661 0.133274 -4.7079e-20)
(0.629855 0.155476 4.73146e-20)
(0.679313 0.174472 1.65878e-20)
(0.729807 0.199565 -1.88993e-20)
(0.785854 0.201338 -3.62963e-20)
(0.829858 0.275189 3.26947e-21)
(0.642714 0.0938375 1.33365e-21)
(0.455876 0.0819244 0)
(0.511261 0.0741577 -2.94886e-20)
(0.546888 0.109345 -1.36356e-20)
(0.586412 0.11971 0)
(0.634858 0.14048 9.11447e-21)
(0.684039 0.15911 -2.92129e-20)
(0.734601 0.182541 2.05593e-20)
(0.789955 0.185969 3.81017e-21)
(0.821495 0.251576 -2.5943e-21)
(0.607044 0.0607168 -6.58006e-22)
(0.461723 0.0796481 3.12578e-20)
(0.513079 0.0615919 2.8035e-20)
(0.552088 0.0971799 -7.91645e-21)
(0.58977 0.105614 6.14048e-21)
(0.638902 0.124728 1.08366e-20)
(0.687947 0.143135 1.36002e-20)
(0.738807 0.165071 -3.51654e-21)
(0.792792 0.169641 -2.33556e-21)
(0.810982 0.224707 2.60271e-21)
(0.566995 0.0297278 -4.40113e-22)
(0.464996 0.0765784 -7.42922e-21)
(0.511519 0.0490818 7.52782e-21)
(0.555665 0.0835896 -6.75806e-21)
(0.590917 0.0913435 -6.1287e-21)
(0.64119 0.108463 4.91318e-21)
(0.690277 0.126807 -9.46294e-21)
(0.741556 0.14733 4.96181e-21)
(0.793638 0.152299 8.79622e-22)
(0.797226 0.195594 0)
(0.51359 0.0012475 4.39693e-22)
(0.465706 0.071892 7.4618e-21)
(0.507228 0.0372291 -7.54997e-21)
(0.558167 0.0684165 -6.78862e-21)
(0.590851 0.0771457 -6.13192e-21)
(0.642728 0.0917861 -4.90098e-21)
(0.692087 0.110168 4.77823e-22)
(0.743798 0.129262 2.01854e-21)
(0.793413 0.133979 3.67314e-21)
(0.780442 0.166073 0)
(0.477559 -0.0262214 5.25448e-22)
(0.464029 0.0635702 0)
(0.500631 0.0269262 -2.82283e-20)
(0.55952 0.0516828 4.89416e-20)
(0.589899 0.0632592 6.13836e-21)
(0.643479 0.0749145 1.0791e-20)
(0.693247 0.0933661 1.34001e-20)
(0.745072 0.110973 -3.43894e-21)
(0.791538 0.11515 -2.23484e-21)
(0.76061 0.136128 2.131e-21)
(0.44042 -0.0528442 -5.23976e-22)
(0.460649 0.0488542 0)
(0.492008 0.0192717 -2.99602e-20)
(0.559594 0.0335593 -1.37332e-20)
(0.588417 0.0497943 0)
(0.643332 0.0579932 -3.05079e-20)
(0.693605 0.0764495 1.09114e-20)
(0.745179 0.0925364 8.06357e-21)
(0.788137 0.0961857 1.42577e-20)
(0.738393 0.1056 -2.12396e-21)
(0.403355 -0.0784017 -2.14042e-21)
(0.456044 0.0256929 0)
(0.482283 0.0153721 3.01938e-20)
(0.557649 0.0143562 0)
(0.586159 0.0366842 4.68122e-20)
(0.641667 0.041181 -4.70618e-20)
(0.69261 0.0594839 -1.5752e-20)
(0.744119 0.0740138 2.22726e-21)
(0.783651 0.0772975 -1.3954e-20)
(0.716596 0.0754071 -2.93096e-21)
(0.372261 -0.103279 1.8712e-21)
(0.450791 -0.00513462 2.63873e-19)
(0.473484 0.0153823 -9.99404e-20)
(0.553338 -0.00514141 -5.73868e-21)
(0.58347 0.0236008 -5.40905e-20)
(0.639193 0.0245288 0)
(0.691522 0.0423704 -1.5805e-20)
(0.743856 0.0553004 4.89118e-21)
(0.779142 0.0583249 1.94645e-20)
(0.69571 0.0448359 2.46614e-22)
(0.338885 -0.128505 -2.46464e-22)
(0.446826 -0.0383734 7.94758e-21)
(0.467885 0.0174704 1.63176e-19)
(0.54715 -0.0240518 5.51257e-20)
(0.581651 0.00995167 -5.51069e-20)
(0.637394 0.00791117 -2.25677e-20)
(0.691664 0.0249056 0)
(0.744939 0.0366283 -2.44381e-20)
(0.774359 0.0395031 1.32319e-20)
(0.676817 0.014866 6.00067e-21)
(0.308589 -0.153407 -1.77518e-21)
(0.444257 -0.0663245 -3.55296e-20)
(0.465729 0.0177106 0)
(0.538946 -0.0414567 0)
(0.580038 -0.0046231 0)
(0.634859 -0.00844903 -1.86802e-20)
(0.690451 0.00745689 4.12072e-20)
(0.743622 0.0184476 2.44966e-20)
(0.766703 0.0207778 -2.77726e-20)
(0.658006 -0.0144663 4.45503e-22)
(0.279088 -0.17733 1.31012e-21)
(0.436779 -0.0840539 -7.85228e-20)
(0.460979 0.0125076 1.31149e-19)
(0.52471 -0.056425 -1.29919e-19)
(0.572412 -0.0195246 1.02448e-19)
(0.625189 -0.0237823 -1.25711e-19)
(0.681465 -0.00930033 0)
(0.734374 0.00100088 -1.44861e-20)
(0.752853 0.00167061 -4.76785e-22)
(0.636639 -0.0438729 -3.39599e-21)
(0.251703 -0.200399 1.47091e-21)
(0.416203 -0.09208 -3.83412e-20)
(0.446744 0.00223547 0)
(0.501456 -0.0684522 -1.40509e-19)
(0.554402 -0.0337208 2.30092e-19)
(0.6064 -0.0376788 -8.21108e-20)
(0.664257 -0.0252313 -1.01156e-20)
(0.718397 -0.0162234 1.44491e-20)
(0.73496 -0.0188379 2.60294e-21)
(0.612835 -0.0747801 9.08939e-21)
(0.225386 -0.224205 -9.61987e-22)
(0.396038 -0.0940735 -1.76277e-19)
(0.436628 -0.00998091 1.71793e-19)
(0.485568 -0.0780404 1.89014e-20)
(0.543407 -0.0472119 0)
(0.597823 -0.0509077 0)
(0.658375 -0.040964 1.15994e-20)
(0.713965 -0.0339238 2.76905e-20)
(0.727538 -0.0410382 -2.71579e-20)
(0.594576 -0.107411 -5.08687e-22)
(0.20168 -0.25016 4.67679e-22)
(0.40418 -0.101222 0)
(0.454985 -0.0433155 0)
(0.493613 -0.0993643 0)
(0.562153 -0.0828118 0)
(0.622511 -0.0853292 0)
(0.686451 -0.0807649 0)
(0.740872 -0.0771084 0)
(0.741366 -0.0929696 0)
(0.568874 -0.181626 0)
(0.152221 -0.312799 0)
(0.387476 -0.148107 0)
(0.461893 -0.111551 0)
(0.512469 -0.167086 0)
(0.577217 -0.146559 0)
(0.642239 -0.153656 0)
(0.702967 -0.148887 0)
(0.738391 -0.152177 0)
(0.684162 -0.193375 0)
(0.445226 -0.309434 0)
(0.0595637 -0.418709 0)
(0.367394 -0.205937 0)
(0.441066 -0.16277 0)
(0.491872 -0.225613 0)
(0.564119 -0.211823 0)
(0.633373 -0.221679 0)
(0.694449 -0.221304 0)
(0.710898 -0.236343 0)
(0.612306 -0.30417 0)
(0.339329 -0.432325 0)
(-0.000358307 -0.514001 0)
(0.354972 -0.263501 0)
(0.43136 -0.232481 0)
(0.487901 -0.29182 0)
(0.565053 -0.285978 0)
(0.637633 -0.29911 0)
(0.6898 -0.303575 0)
(0.670857 -0.336003 0)
(0.515115 -0.433967 0)
(0.220845 -0.566278 0)
(-0.0412669 -0.619823 0)
(0.330902 -0.31589 0)
(0.402759 -0.301617 0)
(0.464194 -0.361525 0)
(0.545097 -0.365908 0)
(0.620016 -0.38536 0)
(0.660241 -0.401607 0)
(0.602179 -0.461344 0)
(0.401917 -0.587095 0)
(0.116462 -0.706888 0)
(-0.0593713 -0.731581 0)
(0.294491 -0.36905 0)
(0.359985 -0.371207 0)
(0.429514 -0.435984 0)
(0.520334 -0.455236 0)
(0.602882 -0.488744 0)
(0.627181 -0.528054 0)
(0.521454 -0.621527 0)
(0.284365 -0.761196 0)
(0.0305691 -0.84989 0)
(-0.0572379 -0.847508 0)
(0.237912 -0.415279 0)
(0.31 -0.440933 0)
(0.394675 -0.520206 0)
(0.500155 -0.565836 0)
(0.583759 -0.623477 0)
(0.573321 -0.691597 0)
(0.412597 -0.813436 0)
(0.16429 -0.94447 0)
(-0.0263457 -0.986767 0)
(-0.0395149 -0.966616 0)
(0.260401 -0.472477 0)
(0.304881 -0.525779 0)
(0.371405 -0.621966 0)
(0.451522 -0.694268 0)
(0.501912 -0.771509 0)
(0.447833 -0.871016 0)
(0.26831 -1.02755 0)
(0.0636243 -1.14707 0)
(-0.0431219 -1.1406 0)
(-0.0151641 -1.11259 0)
(0.0220459 -0.484072 0)
(0.0567291 -0.551681 0)
(0.127795 -0.659893 0)
(0.2309 -0.762491 0)
(0.31354 -0.896383 0)
(0.286036 -1.09358 0)
(0.147815 -1.32428 0)
(0.0136118 -1.4259 0)
(-0.0303948 -1.37025 0)
(0.00418765 -1.34852 0)
(0.168366 -0.444237 0)
(0.198288 -0.527264 0)
(0.245092 -0.664758 0)
(0.300351 -0.859177 0)
(0.288046 -1.13883 0)
(0.150197 -1.44746 0)
(-0.00240096 -1.63012 0)
(-0.0323381 -1.61256 0)
(0.00428359 -1.5533 0)
(0.0108915 -1.57647 0)
(0.372777 -0.0565884 1.83467e-19)
(0.328358 -0.122006 -1.7953e-19)
(0.335797 -0.181893 2.29343e-20)
(0.307532 -0.24022 0)
(0.288433 -0.2927 0)
(0.253087 -0.341717 2.3562e-20)
(0.195689 -0.371561 -9.57439e-20)
(0.221734 -0.431191 9.4651e-20)
(-0.000978961 -0.431791 2.44367e-20)
(0.161921 -0.388166 -2.38836e-20)
(0.36281 -0.0641241 -2.16233e-19)
(0.310413 -0.121119 0)
(0.326081 -0.178245 1.51875e-19)
(0.2922 -0.230966 -3.4445e-19)
(0.274639 -0.280843 2.14863e-19)
(0.239726 -0.327718 -2.17809e-20)
(0.180331 -0.353985 4.48942e-20)
(0.208026 -0.413319 8.89867e-20)
(-0.00771064 -0.411042 2.40291e-20)
(0.159275 -0.368576 2.21117e-20)
(0.348885 -0.0775929 2.54699e-19)
(0.2972 -0.130633 -1.70505e-19)
(0.317535 -0.185649 1.68847e-19)
(0.280464 -0.231577 -1.73208e-19)
(0.264096 -0.277152 1.28513e-19)
(0.229122 -0.320272 0)
(0.167675 -0.345332 -4.50033e-20)
(0.197143 -0.399889 5.59822e-23)
(-0.0121555 -0.396892 -4.63932e-20)
(0.156264 -0.352875 -4.53553e-20)
(0.332773 -0.084859 -4.15507e-20)
(0.285097 -0.135003 0)
(0.307561 -0.190805 0)
(0.270037 -0.232078 0)
(0.255131 -0.274653 1.30991e-19)
(0.220485 -0.314682 -8.71709e-20)
(0.157644 -0.338014 3.49137e-22)
(0.189371 -0.388225 -4.42485e-20)
(-0.0145526 -0.385407 -2.31698e-20)
(0.152346 -0.336849 -2.26624e-20)
(0.31631 -0.0914964 7.83254e-22)
(0.273642 -0.135464 -1.23269e-19)
(0.295881 -0.191116 -8.47406e-20)
(0.259587 -0.227293 8.46859e-20)
(0.245996 -0.268103 -4.32295e-20)
(0.212488 -0.305983 0)
(0.148744 -0.327101 -4.54358e-20)
(0.18344 -0.374531 9.07753e-20)
(-0.0165845 -0.37219 -4.59732e-20)
(0.146417 -0.319953 4.63673e-20)
(0.299308 -0.098126 -3.29923e-19)
(0.263295 -0.136136 3.98716e-20)
(0.283346 -0.190171 -1.05831e-21)
(0.248951 -0.221249 8.46654e-20)
(0.235992 -0.260645 0)
(0.204315 -0.296132 0)
(0.139769 -0.314912 0)
(0.178021 -0.359789 4.51352e-20)
(-0.019572 -0.357659 0)
(0.138328 -0.304021 0)
(0.281892 -0.103424 0)
(0.253994 -0.136748 1.2412e-19)
(0.27036 -0.188748 -8.32428e-20)
(0.238246 -0.216321 -8.58049e-20)
(0.225325 -0.254027 8.62506e-20)
(0.195952 -0.286926 4.49342e-20)
(0.130395 -0.303549 -4.55831e-20)
(0.172526 -0.34579 -1.59545e-19)
(-0.0234205 -0.343302 1.15045e-20)
(0.12914 -0.290125 -3.517e-20)
(0.264724 -0.107708 0)
(0.245383 -0.137219 -4.09536e-20)
(0.257265 -0.186557 -2.09602e-20)
(0.227823 -0.211687 0)
(0.214524 -0.247264 2.19697e-20)
(0.187757 -0.277909 -6.62326e-20)
(0.120872 -0.29269 6.87034e-20)
(0.166938 -0.332424 2.25357e-20)
(-0.0273651 -0.329205 -2.38558e-20)
(0.120092 -0.278179 4.73655e-20)
(0.24853 -0.11096 4.06972e-20)
(0.23717 -0.137724 4.12789e-20)
(0.244586 -0.18325 -1.02606e-20)
(0.21803 -0.206586 1.0671e-20)
(0.204036 -0.239831 2.17424e-20)
(0.180095 -0.26863 3.32569e-20)
(0.111623 -0.28189 -1.15088e-20)
(0.161498 -0.319221 -1.13926e-20)
(-0.0308113 -0.315085 2.39343e-20)
(0.111925 -0.267891 1.18564e-20)
(0.233944 -0.113616 -1.0215e-20)
(0.229071 -0.138521 1.02358e-20)
(0.232662 -0.179056 -1.04596e-20)
(0.208898 -0.201405 -1.06567e-20)
(0.194069 -0.232174 1.0951e-20)
(0.173153 -0.259396 -2.21415e-20)
(0.102939 -0.271432 1.72182e-20)
(0.156445 -0.306351 5.64862e-21)
(-0.0335361 -0.301139 0)
(0.104901 -0.259107 -1.18832e-20)
(0.221179 -0.116774 1.02467e-20)
(0.220973 -0.140351 -1.02749e-20)
(0.221644 -0.175074 -1.0527e-20)
(0.200304 -0.197088 -1.07132e-20)
(0.184686 -0.225179 -1.09651e-20)
(0.166933 -0.250885 -3.84377e-23)
(0.0949538 -0.261928 5.81404e-21)
(0.151925 -0.29427 1.71506e-20)
(-0.0355423 -0.287766 0)
(0.0990662 -0.251646 -1.1848e-20)
(0.210366 -0.118574 0)
(0.213093 -0.141664 -4.16994e-20)
(0.211862 -0.170774 7.37489e-20)
(0.192322 -0.192813 1.07307e-20)
(0.176056 -0.218219 2.19327e-20)
(0.161476 -0.242622 3.33234e-20)
(0.0877829 -0.252962 -1.15138e-20)
(0.148034 -0.282765 -1.13844e-20)
(-0.0369214 -0.274869 2.37479e-20)
(0.0944058 -0.245055 1.18207e-20)
(0.202226 -0.117817 0)
(0.205588 -0.14093 -4.18646e-20)
(0.203542 -0.164461 -2.12496e-20)
(0.185183 -0.187224 0)
(0.168351 -0.210363 -6.60426e-20)
(0.156794 -0.23351 2.21502e-20)
(0.0814566 -0.243642 2.32409e-20)
(0.144738 -0.271188 6.83497e-20)
(-0.0378819 -0.262056 -2.36706e-20)
(0.090838 -0.238845 4.69501e-20)
(0.197086 -0.116082 0)
(0.198859 -0.1396 4.22192e-20)
(0.196778 -0.156704 0)
(0.178836 -0.180264 8.742e-20)
(0.161674 -0.201918 -8.78684e-20)
(0.152925 -0.223929 -4.5124e-20)
(0.0759393 -0.234226 -6.12705e-22)
(0.141979 -0.259555 -6.75284e-20)
(-0.0386434 -0.249419 -1.14638e-20)
(0.0882657 -0.232854 -5.83727e-20)
(0.194627 -0.113933 3.40839e-19)
(0.193024 -0.138507 -1.27455e-19)
(0.191694 -0.149602 7.79567e-22)
(0.173318 -0.17307 -8.72818e-20)
(0.155833 -0.193252 0)
(0.149774 -0.214363 -4.51716e-20)
(0.0712439 -0.22534 -1.31507e-22)
(0.139747 -0.248275 9.06306e-20)
(-0.0393148 -0.237346 1.15733e-20)
(0.0866602 -0.227077 -1.16195e-20)
(0.194364 -0.1111 -8.81592e-22)
(0.187907 -0.136853 2.16767e-19)
(0.187921 -0.143686 8.80898e-20)
(0.168755 -0.166687 -8.8031e-20)
(0.150841 -0.185203 -4.46256e-20)
(0.147157 -0.204618 0)
(0.0672452 -0.217205 -9.1111e-20)
(0.138008 -0.237467 4.46113e-20)
(-0.0399039 -0.226034 4.5506e-20)
(0.0860691 -0.221437 4.5566e-20)
(0.195555 -0.107785 -4.43002e-20)
(0.183528 -0.134387 0)
(0.184938 -0.138227 0)
(0.164927 -0.160783 0)
(0.146677 -0.178268 -4.48812e-20)
(0.144972 -0.195155 8.93688e-20)
(0.0637633 -0.209435 9.09096e-20)
(0.136704 -0.227001 -1.34141e-19)
(-0.0403737 -0.215484 2.2693e-20)
(0.0865924 -0.215762 -6.76246e-20)
(0.197036 -0.104565 -9.04224e-20)
(0.180078 -0.131601 1.81771e-19)
(0.182568 -0.132927 -1.80016e-19)
(0.161721 -0.15464 1.814e-19)
(0.143175 -0.171869 -2.24923e-19)
(0.143257 -0.186416 0)
(0.0607821 -0.201879 -4.55337e-20)
(0.135716 -0.216968 3.16798e-23)
(-0.0406089 -0.205838 -4.50988e-20)
(0.0883808 -0.20996 -4.42391e-20)
(0.198059 -0.102224 -4.68213e-20)
(0.177498 -0.128375 0)
(0.180626 -0.12804 -2.08032e-19)
(0.159031 -0.148366 3.66028e-19)
(0.140085 -0.165729 -1.35611e-19)
(0.141893 -0.177642 -2.23994e-20)
(0.0582471 -0.194461 4.54322e-20)
(0.134877 -0.206581 -5.80733e-22)
(-0.0405168 -0.196747 6.63971e-20)
(0.0915966 -0.203465 6.54308e-20)
(0.201041 -0.109515 -1.9517e-19)
(0.173992 -0.129481 1.90442e-19)
(0.177822 -0.127938 2.36262e-20)
(0.155595 -0.146299 0)
(0.136521 -0.164508 0)
(0.140252 -0.172804 2.24677e-20)
(0.0558903 -0.192472 8.94183e-20)
(0.133999 -0.19957 -8.77833e-20)
(-0.0400092 -0.190402 -2.17924e-20)
(0.0964482 -0.198062 2.14366e-20)
(0.227681 -0.0283469 0)
(0.153537 -0.0741093 0)
(0.163428 -0.0788113 0)
(0.134034 -0.0977773 0)
(0.115166 -0.119044 0)
(0.11863 -0.132893 0)
(0.0349275 -0.155718 0)
(0.116876 -0.164934 0)
(-0.0471994 -0.168511 0)
(0.105551 -0.17234 0)
(0.193305 -0.105484 0)
(0.150561 -0.114314 0)
(0.156588 -0.129889 0)
(0.135032 -0.138002 0)
(0.117508 -0.147527 0)
(0.11998 -0.153719 0)
(0.0373458 -0.160545 0)
(0.119696 -0.163675 0)
(-0.0482327 -0.160174 0)
(0.107262 -0.154195 0)
(0.171886 -0.0505428 0)
(0.138062 -0.0596634 0)
(0.135965 -0.0772424 0)
(0.116781 -0.090964 0)
(0.0999209 -0.105636 0)
(0.1071 -0.119709 0)
(0.0262418 -0.128718 0)
(0.11399 -0.140756 0)
(-0.0521755 -0.139254 0)
(0.103007 -0.13299 0)
(0.157295 -0.056809 0)
(0.129353 -0.0651044 0)
(0.125887 -0.0772473 0)
(0.108481 -0.0857235 0)
(0.0901493 -0.0944642 0)
(0.0995085 -0.104704 0)
(0.0171104 -0.109168 0)
(0.107962 -0.120592 0)
(-0.0561951 -0.119185 0)
(0.0982976 -0.113764 0)
(0.141479 -0.0434653 0)
(0.119602 -0.0513476 0)
(0.114563 -0.0630291 0)
(0.0994123 -0.071918 0)
(0.0806385 -0.0802202 0)
(0.0932486 -0.0900183 0)
(0.00965081 -0.0929757 0)
(0.102657 -0.103844 0)
(-0.0592403 -0.102463 0)
(0.094341 -0.0986853 0)
(0.129443 -0.0346228 0)
(0.111407 -0.0413333 0)
(0.105127 -0.0505227 0)
(0.0913045 -0.0581763 0)
(0.071792 -0.0653271 0)
(0.0873632 -0.0743343 0)
(0.00250578 -0.0773382 0)
(0.0973221 -0.0878815 0)
(-0.0623931 -0.0875839 0)
(0.0903965 -0.0867158 0)
(0.119929 -0.0267819 0)
(0.104696 -0.032162 0)
(0.0976024 -0.0391742 0)
(0.084616 -0.0453343 0)
(0.0642578 -0.05118 0)
(0.0818399 -0.0584909 0)
(-0.00453041 -0.06286 0)
(0.091769 -0.0721354 0)
(-0.0669907 -0.0746201 0)
(0.0855739 -0.0783323 0)
(0.113078 -0.0194729 0)
(0.0996967 -0.0231152 0)
(0.0919834 -0.0280145 0)
(0.0793789 -0.0325937 0)
(0.0584971 -0.0374243 0)
(0.0763682 -0.0418241 0)
(-0.0115674 -0.0496511 0)
(0.0858973 -0.0556363 0)
(-0.0751705 -0.0633853 0)
(0.0785301 -0.0708086 0)
(0.113303 -0.0127107 0)
(0.101911 -0.0138237 0)
(0.0933449 -0.0165015 0)
(0.0802343 -0.0194851 0)
(0.0596745 -0.0234863 0)
(0.0750478 -0.0206671 0)
(-0.0153648 -0.0400301 0)
(0.0839752 -0.0309137 0)
(-0.0860548 -0.0560834 0)
(0.0682885 -0.0924145 0)
(0.249727 -0.00458377 0)
(0.239683 -0.00465977 0)
(0.2309 -0.00549222 0)
(0.218193 -0.00662601 0)
(0.205073 -0.00816852 0)
(0.203122 -0.00523789 0)
(0.135377 -0.0187166 0)
(0.203557 -0.00887041 0)
(0.0268664 -0.0310829 0)
(0.178851 -0.060929 0)
(0.23203 -0.0290283 2.0386e-19)
(0.163129 -0.0867047 -1.96893e-19)
(0.174195 -0.0387228 2.43556e-20)
(0.15082 -0.0471309 0)
(0.138471 -0.0340952 0)
(0.127533 -0.0275726 2.28403e-20)
(0.119166 -0.0213688 -8.95736e-20)
(0.113396 -0.0154123 8.7828e-20)
(0.11585 -0.0113218 2.15458e-20)
(0.25623 -0.00511821 -2.14942e-20)
(0.23811 -0.0346921 -2.30323e-19)
(0.153953 -0.0740395 0)
(0.174884 -0.0348607 1.58342e-19)
(0.149106 -0.0425867 -3.5706e-19)
(0.138301 -0.0301842 2.20279e-19)
(0.127755 -0.0245602 -2.17923e-20)
(0.119756 -0.0189925 4.30147e-20)
(0.114251 -0.0136032 8.49892e-20)
(0.117636 -0.0106658 2.09761e-20)
(0.259532 -0.00543828 2.06062e-20)
(0.241739 -0.0530523 2.67207e-19)
(0.151733 -0.0592896 -1.78434e-19)
(0.17693 -0.0314357 1.76743e-19)
(0.149263 -0.0372141 -1.76202e-19)
(0.139779 -0.0260234 1.30896e-19)
(0.129198 -0.0212456 0)
(0.121359 -0.0163958 -4.31155e-20)
(0.115972 -0.0117035 -2.90716e-23)
(0.120273 -0.00990133 -4.24841e-20)
(0.263656 -0.00587826 -4.19409e-20)
(0.237378 -0.0777377 -4.34686e-20)
(0.153275 -0.0463014 0)
(0.177636 -0.0285482 0)
(0.149302 -0.0312105 0)
(0.140754 -0.0218293 1.303e-19)
(0.130144 -0.0178065 -8.65414e-20)
(0.122449 -0.0137997 -1.73438e-23)
(0.117156 -0.00991493 -4.30185e-20)
(0.122187 -0.00907843 -2.1414e-20)
(0.267579 -0.00641438 -2.12096e-20)
(0.226871 -0.0929867 1.77774e-21)
(0.157799 -0.0357954 -1.27922e-19)
(0.176266 -0.0261886 -8.60819e-20)
(0.149038 -0.0252049 8.6048e-20)
(0.140917 -0.017967 -4.31692e-20)
(0.130497 -0.0145224 0)
(0.122978 -0.0113877 -4.32366e-20)
(0.117754 -0.00831951 8.64886e-20)
(0.123283 -0.00816379 -4.32468e-20)
(0.270859 -0.00688126 4.30267e-20)
(0.215697 -0.0915339 -3.33192e-19)
(0.165698 -0.026459 4.16481e-20)
(0.174842 -0.0237285 -3.87895e-22)
(0.1496 -0.0194564 8.53185e-20)
(0.141124 -0.0144694 0)
(0.130884 -0.0114597 0)
(0.123468 -0.00916911 0)
(0.118272 -0.00688402 4.34101e-20)
(0.124166 -0.00714227 0)
(0.273935 -0.00710218 0)
(0.206876 -0.0778211 0)
(0.175003 -0.0175677 1.24913e-19)
(0.173619 -0.0204185 -8.38642e-20)
(0.150856 -0.0139387 -8.48758e-20)
(0.141422 -0.0111488 8.53222e-20)
(0.131295 -0.00854816 4.30637e-20)
(0.12389 -0.00707285 -4.32753e-20)
(0.11868 -0.00554455 -1.52499e-19)
(0.1248 -0.00603075 1.09638e-20)
(0.276876 -0.00697986 -3.28717e-20)
(0.200123 -0.0591021 0)
(0.183353 -0.00923786 -4.11433e-20)
(0.171955 -0.0159036 -2.08937e-20)
(0.152197 -0.00868994 0)
(0.14158 -0.0078341 2.13472e-20)
(0.13158 -0.00571727 -6.44321e-20)
(0.124135 -0.0050246 6.50379e-20)
(0.118875 -0.00422619 2.18573e-20)
(0.125049 -0.00482953 -2.20059e-20)
(0.279435 -0.00648894 4.41364e-20)
(0.195074 -0.0398009 3.99377e-20)
(0.189814 -0.00177509 4.10375e-20)
(0.170006 -0.0102218 -1.01772e-20)
(0.153377 -0.00376363 1.04942e-20)
(0.141562 -0.00441668 2.12553e-20)
(0.131725 -0.00292636 3.22134e-20)
(0.124211 -0.00297429 -1.08399e-20)
(0.118884 -0.00287448 -1.09397e-20)
(0.124994 -0.00353627 2.20781e-20)
(0.281477 -0.00564696 1.10842e-20)
(0.191574 -0.0214676 -1.00508e-20)
(0.194288 0.00475104 1.01567e-20)
(0.168139 -0.00365271 -1.03699e-20)
(0.154207 0.000848563 -1.04797e-20)
(0.141345 -0.00085058 1.06222e-20)
(0.131702 -0.00015841 -2.14507e-20)
(0.124109 -0.000897992 1.62678e-20)
(0.118737 -0.00146835 5.478e-21)
(0.124716 -0.00216737 0)
(0.28295 -0.00450287 -1.1109e-20)
(0.188887 -0.00428667 1.00287e-20)
(0.196778 0.0104815 -1.01365e-20)
(0.166474 0.00345267 -1.0344e-20)
(0.15444 0.00519634 -1.04684e-20)
(0.140871 0.00283603 -1.06188e-20)
(0.131459 0.00258433 -1.16943e-23)
(0.123799 0.0012031 5.41732e-21)