/*--------------------------------*- C++ -*----------------------------------*\
  =========                 |
  \\      /  F ield         | OpenFOAM: The Open Source CFD Toolbox
   \\    /   O peration     | Website:  https://openfoam.org
    \\  /    A nd           | Version:  7
     \\/     M anipulation  |
\*---------------------------------------------------------------------------*/
FoamFile
{
    version     2.0;
    format      ascii;
    class       surfaceScalarField;
    location    "1.2";
    object      phi;
}
// * * * * * * * * * * * * * * * * * * * * * * * * * * * * * * * * * * * * * //

dimensions      [0 3 -1 0 0 0 0];

internalField   nonuniform List<scalar> 
3880
(
0.000141868
0.00333764
-0.00347951
0.00154849
0.005934
-0.00734062
0.00393906
0.00682958
-0.00922015
0.00679091
0.00716149
-0.0100134
0.00973549
0.00739997
-0.0103445
0.0125823
0.00772117
-0.010568
0.0152648
0.0081527
-0.0108353
0.0177814
0.00866385
-0.0111804
0.0201556
0.0092422
-0.0116164
0.00977121
0.022448
-0.0120637
0.000122676
0.00321497
0.00157889
0.00447778
0.00409984
0.00430862
0.00714035
0.00412098
0.0103073
0.00423299
0.013391
0.0046375
0.0163126
0.00523107
0.0190616
0.00591491
0.0216538
0.00664998
0.00726994
0.024155
0.000134051
0.00308092
0.00168107
0.00293077
0.00435308
0.00163661
0.00757902
0.000895033
0.0109481
0.000863894
0.0142391
0.0013465
0.0173654
0.00210475
0.020311
0.00296939
0.0230899
0.00387101
0.00457309
0.0257868
0.000182817
0.0028981
0.00186988
0.0012437
0.00471704
-0.00121055
0.0081238
-0.00251173
0.0116706
-0.00268293
0.0151349
-0.00211776
0.018428
-0.00118833
0.0215323
-0.000134967
0.0244637
0.00093965
0.00173544
0.0273013
0.000276788
0.00262131
0.00215853
-0.000638039
0.00520525
-0.00425728
0.0087845
-0.00609097
0.0124799
-0.0063783
0.0160804
-0.00571834
0.0195008
-0.00460869
0.0227229
-0.00335702
0.0257606
-0.00209805
-0.00114717
0.0286432
0.000422544
0.00219877
0.00255467
-0.00277017
0.00582054
-0.00752314
0.00955708
-0.00982752
0.0133668
-0.0101881
0.0170659
-0.00941737
0.0205785
-0.0081213
0.0238865
-0.00666504
0.0269996
-0.00521122
-0.00396476
0.0298172
0.000623201
0.00157557
0.0030555
-0.00520247
0.00654839
-0.011016
0.010417
-0.0136962
0.0143026
-0.0140736
0.0180636
-0.0131784
0.0216452
-0.0117029
0.0250339
-0.0100538
0.0282483
-0.00842562
-0.00664664
0.0309302
0.000876563
0.000699003
0.00364282
-0.00796873
0.00735088
-0.0147241
0.0113134
-0.0176587
0.015234
-0.0179942
0.0190275
-0.0169718
0.0226737
-0.0153491
0.0261587
-0.0135388
0.02957
-0.0118369
-0.00929633
0.0322197
0.00117365
-0.000474644
0.00428032
-0.0110754
0.00816447
-0.0186082
0.012166
-0.0216603
0.0160758
-0.021904
0.0198813
-0.0207773
0.0236215
-0.0190893
0.0272604
-0.0171778
0.0309493
-0.0155258
-0.0123093
0.0339623
0.00149847
-0.00197312
0.00491572
-0.0144926
0.00890656
-0.0225991
0.0128737
-0.0256274
0.016712
-0.0257423
0.0204927
-0.024558
0.0243398
-0.0229364
0.0282757
-0.0211137
0.0323753
-0.0196253
0.0362146
-0.0161487
0.0221615
0.047512
-0.0472255
0.0217331
0.0557159
-0.0552875
0.020121
0.0631101
-0.0614981
0.018033
0.069928
-0.06784
0.0154575
0.0758938
-0.0733182
0.0125184
0.0816618
-0.0787227
0.00960008
0.0817813
-0.078863
0.00619999
0.0901757
-0.0867756
0.00260602
0.0848446
-0.0812507
0.103826
-0.10122
0.0238774
0.0477896
0.0233371
0.0562561
0.0217126
0.0647347
0.0195176
0.072123
0.0168521
0.0785592
0.0137312
0.0847827
0.0105162
0.0849963
0.00683771
0.0938542
0.00286821
0.0888142
0.106694
0.0255927
0.0479837
0.0249708
0.0568781
0.0233553
0.0663502
0.021059
0.0744192
0.0182932
0.081325
0.0149951
0.0880809
0.0114952
0.0884962
0.00754399
0.0978054
0.00318794
0.0931702
0.109882
0.0273131
0.0479719
0.0266593
0.0575319
0.02506
0.0679495
0.0226831
0.0767961
0.0198014
0.0842067
0.0163159
0.0915664
0.0125366
0.0922756
0.00831447
0.102028
0.00356258
0.0979221
0.113445
0.0289464
0.0476687
0.0283185
0.0581598
0.0267798
0.0694882
0.0243477
0.0792282
0.0213595
0.087195
0.0176841
0.0952418
0.0136388
0.0963208
0.00915123
0.106515
0.00399252
0.103081
0.117437
0.0304223
0.0470636
0.0298959
0.0586862
0.0284793
0.0709047
0.0260156
0.0816919
0.0229428
0.0902678
0.0190802
0.0991043
0.0147855
0.100616
0.0100437
0.111257
0.00447569
0.108649
0.121913
0.031688
0.0463058
0.0313325
0.0590418
0.0301243
0.0721128
0.0276792
0.0841371
0.0245465
0.0934005
0.0205107
0.10314
0.0159954
0.105131
0.0110172
0.116235
0.00502333
0.114643
0.126937
0.0327114
0.045814
0.0325794
0.0591738
0.031619
0.0730732
0.0292587
0.0864973
0.0260808
0.0965785
0.0218806
0.10734
0.017171
0.10984
0.0119864
0.12142
0.00560816
0.121021
0.132545
0.0336286
0.0461477
0.0338684
0.058934
0.0331289
0.0738127
0.0309683
0.088658
0.027798
0.0997487
0.0233914
0.111747
0.0184769
0.114755
0.0130698
0.126827
0.00625559
0.127835
0.1388
0.0347673
0.0475951
0.0346021
0.0590991
0.0338785
0.0745363
0.0320026
0.0905339
0.0291856
0.102566
0.0245927
0.11634
0.0198521
0.119496
0.0141272
0.132552
0.00709948
0.134863
0.1459
0.141273
0.0523971
-0.146075
0.126651
0.0737215
0.11004
0.0911476
0.0947223
0.105851
0.0795109
0.117777
0.0653779
0.130473
0.0499469
0.134927
0.0334741
0.149024
0.0188615
0.149476
0.164761
0.147177
0.0667918
-0.161572
0.136284
0.0846145
0.124842
0.10259
0.111409
0.119284
0.0955296
0.133657
0.0789419
0.147061
0.0597712
0.154097
0.0405094
0.168286
0.0224248
0.16756
0.187186
0.16514
0.0785239
-0.176872
0.153317
0.0964368
0.14023
0.115677
0.125591
0.133923
0.108969
0.150279
0.0907884
0.165241
0.0698423
0.175043
0.0479933
0.190135
0.0261085
0.189445
0.213294
0.185919
0.0901059
-0.197501
0.172786
0.109571
0.15824
0.130223
0.141855
0.150308
0.123313
0.168821
0.102787
0.185766
0.0795337
0.198297
0.0543964
0.215272
0.0284557
0.215386
0.24175
0.207062
0.101621
-0.218577
0.193623
0.123009
0.178235
0.145611
0.160496
0.168047
0.140088
0.189229
0.11704
0.208815
0.0911064
0.22423
0.0632398
0.243139
0.0350975
0.243528
0.276848
0.230015
0.112783
-0.241177
0.216497
0.136527
0.200542
0.161566
0.181793
0.186796
0.159853
0.211169
0.134582
0.234086
0.105686
0.253127
0.0727449
0.27608
0.0367232
0.27955
0.313571
0.255555
0.123378
-0.26615
0.242094
0.149989
0.22568
0.177979
0.205855
0.206622
0.181822
0.235202
0.152717
0.263191
0.118119
0.287724
0.0782836
0.315915
0.0406363
0.317197
0.354207
0.281961
0.132263
-0.290846
0.270146
0.161804
0.255067
0.193058
0.236649
0.22504
0.214315
0.257536
0.188697
0.288809
0.158761
0.31766
0.127207
0.347469
0.0786981
0.365706
0.432905
0.31437
0.142635
-0.324741
0.300479
0.175694
0.282721
0.210816
0.260219
0.247541
0.230882
0.286874
0.192596
0.327095
0.141756
0.3685
0.0811926
0.408033
0.0260982
0.4208
0.459004
0.347693
-0.340611
0.345725
0.33818
0.324949
0.307561
0.278828
0.246537
0.18708
0.1108
0.0396929
-0.146354
-0.0394147
0.042552
-0.164431
0.0445255
-0.178845
0.0459731
-0.198949
0.0465825
-0.219186
0.0464618
-0.241056
0.0451476
-0.264835
0.0432399
-0.288939
0.0393988
-0.3209
-0.330534
0.0382447
-0.146859
-0.0377396
0.0413441
-0.16753
0.0432075
-0.180709
0.0443551
-0.200097
0.0448304
-0.219662
0.0445382
-0.240764
0.0432015
-0.263499
0.0410498
-0.286787
0.0375983
-0.317448
-0.319202
0.0361154
-0.147923
-0.035051
0.038864
-0.170279
0.0405954
-0.18244
0.041518
-0.201019
0.0419089
-0.220053
0.0416019
-0.240457
0.0403501
-0.262247
0.038461
-0.284898
0.0350832
-0.31407
-0.30726
0.0333466
-0.149429
-0.0318406
0.0356967
-0.172629
0.0373863
-0.18413
0.0382025
-0.201835
0.0385701
-0.22042
0.0383495
-0.240236
0.0373049
-0.261202
0.0357869
-0.28338
0.0324506
-0.310734
-0.294753
0.0301266
-0.151283
-0.0282724
0.0320968
-0.174599
0.0336798
-0.185713
0.0344832
-0.202639
0.0348814
-0.220818
0.0348077
-0.240163
0.0340545
-0.260449
0.0329289
-0.282254
0.0296131
-0.307418
-0.281777
0.026306
-0.153265
-0.0243247
0.0279779
-0.176271
0.0294474
-0.187182
0.030316
-0.203507
0.0308203
-0.221323
0.0309574
-0.2403
0.0305888
-0.26008
0.0299002
-0.281566
0.0266218
-0.30414
-0.268402
0.0220318
-0.155247
-0.0200492
0.0234633
-0.177703
0.0248354
-0.188554
0.0257887
-0.204461
0.0264604
-0.221995
0.0268541
-0.240694
0.0269201
-0.260146
0.0266679
-0.281314
0.0234874
-0.300959
-0.254685
0.0173663
-0.157114
-0.0155
0.0185407
-0.178877
0.0198978
-0.189911
0.0209373
-0.2055
0.0218362
-0.222893
0.0225313
-0.241389
0.0230497
-0.260665
0.0232268
-0.281491
0.0202534
-0.297986
-0.240725
0.0124351
-0.158773
-0.0107757
0.0132891
-0.179731
0.0147233
-0.191346
0.0158417
-0.206619
0.0169997
-0.224051
0.0180248
-0.242414
0.0189874
-0.261627
0.0195656
-0.282069
0.0168619
-0.295282
-0.226777
0.00735421
-0.160137
-0.00598979
0.00779143
-0.180168
0.00939967
-0.192954
0.0105855
-0.207804
0.0120012
-0.225467
0.0133805
-0.243793
0.0147914
-0.263038
0.0157567
-0.283034
0.013218
-0.292744
-0.213438
0.00237037
-0.161089
-0.00141866
0.0021031
-0.179901
0.00413604
-0.194987
0.00526633
-0.208935
0.00694066
-0.227142
0.00867373
-0.245526
0.0105307
-0.264895
0.0118706
-0.284374
0.00935089
-0.290224
-0.201191
-0.00249052
-0.162087
0.00348852
-0.00335683
-0.179035
-0.00129418
-0.197049
-8.38644e-05
-0.210145
0.00186837
-0.229094
0.0039402
-0.247598
0.00621951
-0.267175
0.00796956
-0.286124
0.00537721
-0.287631
-0.190199
-0.0071919
-0.163077
0.00818222
-0.00877959
-0.177447
-0.00673401
-0.199095
-0.00538917
-0.21149
-0.00328745
-0.231195
-0.000843343
-0.250042
0.00179544
-0.269813
0.00415541
-0.288484
0.00089227
-0.284368
-0.181055
-0.0117585
-0.164202
0.012883
-0.0139913
-0.175214
-0.0120338
-0.201053
-0.010526
-0.212998
-0.0082679
-0.233454
-0.00551522
-0.252795
-0.00224673
-0.273082
0.000714275
-0.291445
-0.00199119
-0.281663
-0.172253
-0.0163138
-0.165642
0.0177545
-0.0187558
-0.172772
-0.0171098
-0.202699
-0.0153681
-0.214739
-0.013024
-0.235798
-0.0100171
-0.255802
-0.00641712
-0.276682
-0.0037762
-0.294086
-0.00468237
-0.280757
-0.163571
-0.021056
-0.167415
0.0228288
-0.0228875
-0.170941
-0.0218145
-0.203772
-0.0198806
-0.216673
-0.0175773
-0.238101
-0.0144176
-0.258961
-0.0106213
-0.280478
-0.00768089
-0.297027
-0.0075709
-0.280867
-0.155229
-0.0258
-0.169313
0.0276981
-0.0261698
-0.170571
-0.0260128
-0.203929
-0.0240904
-0.218596
-0.02191
-0.240281
-0.0186544
-0.262217
-0.0146523
-0.28448
-0.011212
-0.300467
-0.0104854
-0.281593
-0.147311
-0.0295893
-0.170975
0.0312511
-0.028583
-0.171577
-0.0295559
-0.202956
-0.0278061
-0.220346
-0.0257355
-0.242352
-0.0224495
-0.265503
-0.0183052
-0.288625
-0.0144042
-0.304368
-0.0133369
-0.28266
-0.139851
-0.0321953
-0.171332
0.0325519
-0.0310788
-0.172694
-0.0327696
-0.201265
-0.0312472
-0.221868
-0.0293007
-0.244298
-0.0260636
-0.26874
-0.0218338
-0.292854
-0.0175046
-0.308697
-0.0161901
-0.283975
-0.132852
-0.0369734
-0.166614
0.0322561
-0.0360499
-0.173617
-0.0379221
-0.199393
-0.0368429
-0.222947
-0.0351153
-0.246026
-0.0319198
-0.271935
-0.0274055
-0.297369
-0.0222587
-0.313844
-0.0183953
-0.287838
-0.125495
-0.0406299
-0.150378
0.024394
-0.0369001
-0.177347
-0.0423041
-0.193989
-0.0454341
-0.219817
-0.0459956
-0.245464
-0.0456397
-0.272291
-0.0455669
-0.297442
-0.0513802
-0.30803
-0.0797631
-0.259456
-0.0873367
-0.057849
-0.141013
0.0484837
-0.0643493
-0.170847
-0.0683945
-0.189944
-0.0719122
-0.216299
-0.0736806
-0.243696
-0.0741882
-0.271784
-0.0762889
-0.295341
-0.0890449
-0.295274
-0.123349
-0.225151
-0.0531858
-0.0783448
-0.132636
0.0699677
-0.0861957
-0.162996
-0.0931493
-0.18299
-0.0985332
-0.210916
-0.102165
-0.240064
-0.104524
-0.269425
-0.109929
-0.289936
-0.128723
-0.276481
-0.166846
-0.187027
-0.0242775
-0.100805
-0.123303
0.0914714
-0.111195
-0.152606
-0.12037
-0.173815
-0.128083
-0.203202
-0.133617
-0.23453
-0.138075
-0.264966
-0.147758
-0.280254
-0.1738
-0.250439
-0.215678
-0.145149
-0.0011973
-0.121986
-0.111668
0.110352
-0.136085
-0.138507
-0.148752
-0.161147
-0.159905
-0.19205
-0.168581
-0.225854
-0.176733
-0.256815
-0.192783
-0.264203
-0.226734
-0.216488
-0.26982
-0.102064
0.0148491
-0.14267
-0.0967979
0.127799
-0.160898
-0.120279
-0.178414
-0.143631
-0.194751
-0.175713
-0.208949
-0.211655
-0.22379
-0.241974
-0.248527
-0.239466
-0.288958
-0.176057
-0.328877
-0.0621451
0.0228712
-0.161908
-0.076773
0.141883
-0.185622
-0.0965643
-0.210342
-0.118912
-0.235446
-0.150609
-0.259172
-0.18793
-0.28399
-0.217156
-0.31739
-0.206066
-0.359133
-0.134314
-0.39071
-0.0305684
0.0232335
-0.183994
-0.0540118
0.161232
-0.21406
-0.0664983
-0.247427
-0.0855449
-0.282645
-0.115391
-0.316844
-0.15373
-0.352208
-0.181792
-0.39545
-0.162824
-0.440131
-0.0896323
-0.463293
-0.00740645
0.0170294
-0.189498
-0.0269076
0.162394
-0.221861
-0.034136
-0.260729
-0.046677
-0.306606
-0.0695138
-0.360105
-0.100231
-0.424706
-0.11719
-0.49794
-0.089591
-0.555395
-0.032177
-0.570734
0.00793248
0.00645618
-0.173892
0.146984
-0.208028
-0.254704
-0.324218
-0.42445
-0.54164
-0.631231
-0.663408
-0.655476
-0.0400321
0.0299918
0.0344343
-0.0417206
0.0501722
-0.0422515
0.0704986
-0.0402313
0.0894512
-0.0367573
0.106878
-0.0323129
0.123355
-0.0251179
0.134688
-0.0184856
0.1546
-0.00895549
0.152864
0.138028
-0.0390536
0.0337008
0.0353446
-0.0395671
0.0506858
-0.0396793
0.0706108
-0.0377308
0.0875027
-0.0345421
0.103689
-0.0297681
0.118581
-0.0238832
0.128803
-0.0163976
0.147115
-0.00861188
0.145078
0.129417
-0.038961
0.036897
0.0357648
-0.0387786
0.0505034
-0.0385069
0.0703391
-0.0362981
0.0852939
-0.0329758
0.100367
-0.0282794
0.113884
-0.0224763
0.123
-0.0153744
0.140013
-0.00810785
0.137812
0.121309
-0.0380186
0.039242
0.0356735
-0.0376931
0.0501779
-0.0372138
0.0698598
-0.03485
0.08293
-0.0314299
0.0969467
-0.026866
0.109321
-0.0211673
0.117301
-0.0144167
0.133262
-0.00752066
0.130916
0.113788
-0.0364994
0.0407275
0.0350139
-0.0360461
0.0497246
-0.0353264
0.0691402
-0.0328704
0.080474
-0.029503
0.0935793
-0.0251387
0.104956
-0.0196878
0.11185
-0.0132936
0.126868
-0.00673632
0.124359
0.107052
-0.0347112
0.0416265
0.0338122
-0.0342517
0.0492651
-0.0332037
0.0680921
-0.0306998
0.0779701
-0.0274296
0.0903091
-0.0232563
0.100783
-0.0181075
0.106702
-0.0120553
0.120816
-0.00584083
0.118144
0.101211
-0.0327005
0.0420988
0.0322282
-0.0323772
0.0489418
-0.0309985
0.0667134
-0.0285487
0.0755204
-0.025342
0.0871024
-0.0213608
0.0968018
-0.0165214
0.101862
-0.0108174
0.115112
-0.00496696
0.112294
0.0962439
-0.0305693
0.0422786
0.0303896
-0.0304184
0.0487908
-0.0287729
0.0650679
-0.0264148
0.0731622
-0.0232714
0.0839591
-0.0194986
0.093029
-0.01498
0.0973437
-0.00964451
0.109776
-0.00418214
0.106831
0.0920618
-0.0283888
0.0422619
0.0284056
-0.0284148
0.0488168
-0.0265617
0.0632148
-0.0243108
0.0709113
-0.021255
0.0809033
-0.017698
0.0894721
-0.0135171
0.0931628
-0.00856367
0.104823
-0.00350058
0.101768
0.0885612
-0.0262059
0.0420676
0.0264002
-0.026351
0.0489619
-0.0243897
0.0612535
-0.0222704
0.0687921
-0.0193224
0.0779553
-0.0159729
0.0861226
-0.0121487
0.0893385
-0.00758003
0.100254
-0.00291541
0.0971036
0.0856458
-0.0240052
0.0417742
0.0242985
-0.0241801
0.0491368
-0.0222741
0.0593475
-0.0202905
0.0668084
-0.0174805
0.0751452
-0.014327
0.0829691
-0.0108827
0.0858942
-0.00669586
0.0960672
-0.00242124
0.092829
0.0832245
-0.0217037
0.0413777
0.0221002
-0.0219165
0.0493496
-0.0200857
0.0575167
-0.0182501
0.0649729
-0.01566
0.072555
-0.0127744
0.0800835
-0.00972513
0.0828449
-0.00591015
0.0922522
-0.00201297
0.0889318
0.0812116
-0.0194413
0.0407566
0.0200624
-0.019701
0.0496093
-0.0179503
0.055766
-0.0162846
0.0633072
-0.0139361
0.0702066
-0.0113464
0.0774938
-0.00868023
0.0801787
-0.00521107
0.0887831
-0.00167727
0.085398
0.0795343
-0.0173868
0.0399841
0.0181593
-0.0176889
0.0499114
-0.0159694
0.0540466
-0.0144312
0.0617689
-0.0123872
0.0681626
-0.0100578
0.0751644
-0.0077487
0.0778696
-0.00458799
0.0856224
-0.00140278
0.0822128
0.0781315
-0.0155665
0.0392294
0.0163212
-0.0157335
0.0500785
-0.0142538
0.0525668
-0.0127711
0.0602863
-0.0110043
0.0663958
-0.00889403
0.0730542
-0.00692992
0.0759055
-0.00403765
0.0827301
-0.00118814
0.0793633
0.0769434
-0.0139548
0.0387049
0.0144794
-0.0139301
0.0500537
-0.0127347
0.0513714
-0.0113694
0.0589209
-0.00980844
0.0648349
-0.00782791
0.0710736
-0.00620176
0.0742794
-0.00355827
0.0800866
-0.00103805
0.0768431
0.0759053
-0.0124633
0.0386194
0.0125488
-0.0124018
0.0499923
-0.0113996
0.0503692
-0.0101918
0.0577131
-0.00874424
0.0633873
-0.00685259
0.069182
-0.00555105
0.0729778
-0.00315064
0.0776862
-0.000959837
0.0746523
0.0749455
-0.0108947
0.0390356
0.0104785
-0.0107749
0.0498725
-0.010061
0.0496553
-0.00894077
0.0565929
-0.00774688
0.0621934
-0.00598361
0.0674187
-0.00497702
0.0719712
-0.00280804
0.0755172
-0.000966198
0.0728104
0.0739793
-0.00934839
0.0400879
0.00829607
-0.00933879
0.0498629
-0.0088347
0.0491512
-0.00779194
0.0555501
-0.00684555
0.0612471
-0.00520984
0.065783
-0.00447782
0.0712392
-0.00253264
0.073572
-0.00106843
0.0713462
0.0729109
-0.007431
0.042413
0.00510592
-0.00742701
0.0498589
-0.00727171
0.0489959
-0.0063064
0.0545848
-0.00569829
0.0606389
-0.00418934
0.0642741
-0.00386885
0.0709187
-0.0022003
0.0719035
-0.0012477
0.0703936
0.0716632
-0.0754896
0.0226275
0.0952751
-0.0621456
0.0365149
-0.0550444
0.0418947
-0.0477688
0.0473092
-0.0400865
0.0529566
-0.0323565
0.0565441
-0.0234702
0.0620323
-0.0156307
0.064064
-0.00919082
0.0639537
0.0624724
-0.0659164
0.0288239
0.05972
-0.0607203
0.0313187
-0.056044
0.0372184
-0.0499056
0.0411707
-0.0424282
0.0454792
-0.0351986
0.0493146
-0.0255687
0.0524025
-0.0173828
0.0558781
-0.00916938
0.0557403
0.053303
-0.0593665
0.0226354
0.0655549
-0.0539028
0.0258551
-0.0482106
0.0315262
-0.0425799
0.0355401
-0.0364598
0.0393592
-0.0301953
0.04305
-0.0225631
0.0447704
-0.0154081
0.048723
-0.00777453
0.0481068
0.0455285
-0.0547519
0.0186776
0.0587097
-0.0504567
0.0215599
-0.0451508
0.0262203
-0.0394383
0.0298275
-0.033273
0.0331939
-0.0269603
0.0367373
-0.0200797
0.0378898
-0.0133464
0.0419897
-0.00642467
0.041185
0.0391038
-0.0502012
0.0150555
0.0538234
-0.0463338
0.0176925
-0.0415562
0.0214426
-0.0362407
0.024512
-0.0304268
0.02738
-0.0243498
0.0306603
-0.0180281
0.0315681
-0.0116459
0.0356075
-0.00538055
0.0349197
0.0337232
-0.0465745
0.011758
0.049872
-0.0429006
0.0140186
-0.0384078
0.0169498
-0.0333632
0.0194675
-0.0278265
0.0218433
-0.0218962
0.02473
-0.0160852
0.0257572
-0.00994752
0.0294697
-0.00435696
0.0293291
0.0293663
-0.0437083
0.00874706
0.0467192
-0.040163
0.0104734
-0.0358454
0.0126322
-0.0309556
0.0145776
-0.0255793
0.016467
-0.0195286
0.0186793
-0.0142058
0.0204343
-0.00792315
0.0231871
-0.003067
0.024473
0.0262993
-0.0416128
0.00596449
0.0443954
-0.0381321
0.00699269
-0.0338839
0.00838396
-0.0290487
0.00974243
-0.0237242
0.0111425
-0.0171148
0.0120699
-0.0123769
0.0156963
-0.00505206
0.0158623
-0.0011922
0.0206131
0.0251071
-0.0415888
0.00339196
0.0441613
-0.0380694
0.00347328
-0.0337414
0.004056
-0.0287627
0.0047637
-0.0233499
0.00572977
-0.0156441
0.00436411
-0.0114678
0.01152
-0.00160378
0.00599829
0.00259914
0.0164102
0.0277062
-0.0840215
0.0874135
-0.0805482
-0.0764922
-0.0717285
-0.0659988
-0.0616347
-0.0501147
-0.0441164
-0.0277062
-0.00953911
0.0964887
0.00832556
-0.00515441
0.0553353
-0.0047343
0.0651348
-0.00321915
0.0571946
-0.00232689
0.0529311
-0.00158151
0.0491266
-0.00100747
0.0461451
-0.000563387
0.0439513
-0.000495938
0.0440939
0.0869175
-0.00672026
0.0928754
0.0103336
-0.00439685
0.0530119
-0.00413645
0.0648744
-0.00275149
0.0558096
-0.00202852
0.0522081
-0.00140142
0.0484995
-0.000909206
0.0456529
-0.000523572
0.0435657
-0.000411864
0.0439822
0.0865057
-0.00420079
0.0869137
0.0101625
-0.00429747
0.0531086
-0.00365676
0.0642337
-0.00259491
0.0547478
-0.00193528
0.0515485
-0.00136441
0.0479286
-0.000905872
0.0451944
-0.000521494
0.0431813
-0.000321733
0.0437824
0.0861839
-0.0018743
0.0804467
0.00834122
-0.00408205
0.0553163
-0.00311678
0.0632684
-0.00241275
0.0540438
-0.00181381
0.0509495
-0.00129681
0.0474116
-0.000863915
0.0447615
-0.000480798
0.0427982
-0.000216064
0.0435177
0.0859679
-0.000486994
0.07465
0.0062837
-0.00366365
0.058493
-0.00250527
0.0621101
-0.00210986
0.0536483
-0.00160456
0.0504442
-0.00115995
0.046967
-0.000768726
0.0443702
-0.000410714
0.0424402
-0.00011473
0.0432217
0.0858532
-7.53611e-05
0.070089
0.00463643
-0.00319509
0.0616127
-0.00195219
0.0608672
-0.0017709
0.0534671
-0.00135591
0.0500293
-0.000986892
0.046598
-0.00064666
0.04403
-0.000328694
0.0421222
-3.30839e-05
0.0429261
0.0858201
-6.43145e-05
0.0668098
0.00334342
-0.00270312
0.0642515
-0.0014722
0.0596362
-0.00144229
0.0534372
-0.00109016
0.0496771
-0.00079359
0.0463014
-0.000508292
0.0437447
-0.00023797
0.0418519
4.87997e-05
0.0426393
0.0858689
-0.000101711
0.0646441
0.00226749
-0.00215583
0.0663056
-0.00103776
0.0585182
-0.00110199
0.0535014
-0.000811219
0.0493864
-0.000587046
0.0460772
-0.000361254
0.0435189
-0.000144945
0.0416356
0.000116852
0.0423775
0.0859857
-3.16105e-05
0.0633331
0.00134259
-0.00153675
0.0678108
-0.000631845
0.0576133
-0.000746775
0.0536163
-0.000524869
0.0491645
-0.000373654
0.045926
-0.000212059
0.0433573
-5.48611e-05
0.0414784
0.000159123
0.0421635
0.0861448
0.000215649
0.0626189
0.000498537
-0.000844027
0.0688705
-0.000247254
0.0570165
-0.000379187
0.0537483
-0.000235179
0.0490204
-0.000160509
0.0458513
-6.33937e-05
0.0432602
3.03362e-05
0.0413846
0.000181397
0.0420125
0.0863262
0.000584311
0.0622549
-0.000220345
-4.80525e-05
0.0695028
0.000124672
0.0568438
-6.89698e-06
0.0538798
4.83199e-05
0.0489652
4.69562e-05
0.0458527
7.92584e-05
0.0432279
0.000110716
0.0413532
0.000185766
0.0419374
0.086512
0.000931709
0.0622317
-0.00090846
0.000572307
0.0698622
0.000530086
0.056886
0.000406384
0.0540035
0.000328023
0.0490436
0.000267353
0.0459134
0.000223476
0.0432718
0.000187865
0.0413888
0.000189034
0.0419362
0.086701
0.00120746
0.0626457
-0.00162141
0.00125901
0.0698107
0.000928564
0.0572164
0.000794613
0.0541375
0.000613257
0.0492249
0.0004808
0.0460458
0.000364025
0.0433886
0.000261688
0.0414911
0.00019052
0.0420074
0.0868916
0.00142827
0.0635873
-0.00236997
0.00195584
0.0692831
0.0013324
0.0578399
0.00115898
0.0543109
0.000889019
0.0494949
0.00068638
0.0462485
0.000499482
0.0435755
0.000332086
0.0416585
0.000192013
0.0421475
0.0870836
0.00171272
0.0651054
-0.00323082
0.00264448
0.0683514
0.0017451
0.0587393
0.00150636
0.0545496
0.00115499
0.0498463
0.000881179
0.0465223
0.000627972
0.0438287
0.000398701
0.0418878
0.000196322
0.0423499
0.0872799
0.00203738
0.0673311
-0.004263
0.0033318
0.0670569
0.00217119
0.0598999
0.00184976
0.0548711
0.00141169
0.0502844
0.0010636
0.0468704
0.000747333
0.0441449
0.000460496
0.0421746
0.000206417
0.0426039
0.0874863
0.00244708
0.0704488
-0.00556479
0.00400282
0.0655012
0.00255949
0.0613432
0.00216785
0.0552627
0.00164155
0.0508107
0.00122332
0.0472886
0.000851481
0.0445168
0.000515465
0.0425106
0.000226065
0.0428933
0.0877124
0.00302777
0.0746531
-0.00723206
0.00464276
0.0638862
0.00302935
0.0629566
0.00252327
0.0557688
0.00188461
0.0514493
0.00138494
0.0477883
0.000955526
0.0449462
0.000573494
0.0428927
0.00026513
0.0432017
0.0879775
0.00363671
0.0799092
-0.00889287
0.00499249
0.0625304
0.00344034
0.0645088
0.00275425
0.0564549
0.00203134
0.0521722
0.00147604
0.0483436
0.00100339
0.0454189
0.000603682
0.0432924
0.000314753
0.0434906
0.0882922
0.00431407
0.0864679
-0.0108728
0.00503608
0.0618084
0.00379955
0.0657453
0.00294713
0.0573073
0.00222087
0.0528985
0.0015898
0.0489747
0.00107361
0.045935
0.000632289
0.0437337
0.000392681
0.0437302
0.0886849
-0.0394736
0.0833531
0.0425884
-0.0303665
0.0527013
-0.0241108
0.0594896
-0.0190731
0.0522696
-0.01506
0.0488853
-0.0116226
0.0455373
-0.00853628
0.0428487
-0.00573419
0.0409316
-0.00356944
0.0415655
0.0851155
-0.0320926
0.0669377
0.048508
-0.0330638
0.0536725
-0.0264705
0.0528962
-0.0222642
0.0480633
-0.0180499
0.044671
-0.0141398
0.0416272
-0.0104556
0.0391645
-0.00690354
0.0373796
-0.00344081
0.0381027
0.0816747
-0.0382
0.0531145
0.0520232
-0.0368379
0.0523104
-0.0301517
0.0462101
-0.0255649
0.0434765
-0.0209178
0.040024
-0.0165063
0.0372157
-0.0122386
0.0348968
-0.00802544
0.0331665
-0.00384102
0.0339183
0.0778337
-0.044858
0.0441011
0.0538715
-0.0406302
0.0480825
-0.0341306
0.0397105
-0.028821
0.038167
-0.0237103
0.0349133
-0.0188175
0.0323229
-0.0140217
0.0301009
-0.00920686
0.0283517
-0.00439756
0.029109
0.0734361
-0.0502821
0.0352559
0.0591273
-0.0439954
0.0417959
-0.0375867
0.0333018
-0.0316914
0.0322717
-0.0261892
0.029411
-0.0209316
0.0270653
-0.0157992
0.0249685
-0.0107062
0.0232586
-0.005495
0.0238978
0.0679411
-0.0525835
0.0285423
0.0592971
-0.0472272
0.0364396
-0.0412127
0.0272874
-0.0352478
0.0263067
-0.0294929
0.0236562
-0.0237426
0.0213149
-0.017678
0.0189039
-0.0108293
0.0164099
-0.00311288
0.0161814
0.0648282
-0.0579708
0.0201011
0.066412
-0.0490427
0.0275114
-0.0423407
0.0205854
-0.0358198
0.0197858
-0.0299879
0.0178242
-0.0246633
0.0159904
-0.0198538
0.0140944
-0.0156089
0.012165
-0.0114069
0.0119795
0.0534213
-0.0592875
0.0134682
0.0659203
-0.0524682
0.0206921
-0.0463273
0.0144446
-0.0401347
0.0135932
-0.034272
0.0119616
-0.0285265
0.0102448
-0.0224244
0.00799234
-0.014758
0.00449862
-0.00438926
0.00161067
0.0490321
-0.0621878
0.00846368
0.0671924
-0.0521623
0.0106666
-0.0456066
0.00788886
-0.0391773
0.00716391
-0.0334274
0.00621165
-0.028329
0.00514638
-0.0240523
0.00371568
-0.0212277
0.00167399
-0.019778
0.000160954
0.0292541
-0.0718822
0.0803458
-0.0612155
-0.0533267
-0.0461628
-0.0399511
-0.0348047
-0.0310891
-0.0294151
-0.0292541
0.010026
0.0454753
-0.0129129
0.00680921
0.0517248
0.00566237
0.05317
0.00438423
0.0551496
0.00372831
0.0597832
0.00218748
0.0608379
0.00227375
0.0663257
0.000722368
0.0674717
0.00144707
0.0664677
0.0817929
0.00898176
0.0477359
-0.0112425
0.00707676
0.0536298
0.00633551
0.0539113
0.00532449
0.0561606
0.00471403
0.0603936
0.00322091
0.0623311
0.00306721
0.0664794
0.00159326
0.0689456
0.00184129
0.0662196
0.0836342
0.00905102
0.0483901
-0.00970514
0.00846003
0.0542208
0.00795388
0.0544174
0.00692849
0.057186
0.006064
0.0612581
0.00455517
0.0638399
0.0039849
0.0670497
0.00247212
0.0704584
0.00211123
0.0665805
0.0857454
0.00995113
0.0479909
-0.00955192
0.00989036
0.0542816
0.00942174
0.0548861
0.00827792
0.0583298
0.00719158
0.0623445
0.00558956
0.0654419
0.00473283
0.0679064
0.00308339
0.0721078
0.00220206
0.0674619
0.0879475
0.0112511
0.0473814
-0.0106417
0.0112547
0.054278
0.0105248
0.0556159
0.00936762
0.059487
0.00816283
0.0635493
0.00643985
0.0671649
0.00533763
0.0690086
0.00350737
0.0739381
0.00218133
0.0687879
0.0901288
0.0128287
0.046971
-0.0124183
0.0128275
0.0542792
0.0119064
0.0565371
0.0106007
0.0607926
0.00917568
0.0649743
0.00729232
0.0690482
0.00592604
0.0703749
0.00387396
0.0759902
0.00213961
0.0705223
0.0922684
0.0146229
0.0468155
-0.0144674
0.0145437
0.0543584
0.0135265
0.0575543
0.0120068
0.0623123
0.0102945
0.0666866
0.00820079
0.0711419
0.00654742
0.0720283
0.00425214
0.0782854
0.00212747
0.0726469
0.0943959
0.0165548
0.046831
-0.0165702
0.0163033
0.0546099
0.0151398
0.0587177
0.0134634
0.0639887
0.0114845
0.0686656
0.00917609
0.0734503
0.00721783
0.0739865
0.00466581
0.0808375
0.00216427
0.0751485
0.0965602
0.0184666
0.0469764
-0.0186121
0.0181416
0.0549349
0.0168247
0.0600346
0.0149705
0.0658429
0.0127553
0.0708808
0.0102275
0.0759781
0.00795175
0.0762623
0.00512635
0.0836629
0.00225654
0.0780183
0.0988167
0.0203444
-0.0205934
0.0199919
0.0185284
0.0165313
0.0140939
0.0113493
0.00874866
0.00563589
0.0024035
0.00183354
-0.00380666
0.00549433
-0.0181534
0.00949302
-0.0265978
0.0133329
-0.0294672
0.0170194
-0.0294288
0.0206969
-0.0282356
0.0245201
-0.0267595
0.0286253
-0.025219
0.0331864
-0.0241864
-0.0223769
0.00213524
-0.0059419
0.00592928
-0.0219475
0.00982709
-0.0304956
0.0134555
-0.0330957
0.0169217
-0.032895
0.0204184
-0.0317323
0.0240931
-0.0304341
0.0281207
-0.0292466
0.0324037
-0.0284694
-0.0277128
0.00238718
-0.00832908
0.00619251
-0.0257528
0.00988055
-0.0341836
0.0132172
-0.0364323
0.0163967
-0.0360745
0.0196302
-0.0349658
0.023046
-0.03385
0.0267472
-0.0329478
0.030673
-0.0323951
-0.0320908
0.00256703
-0.0108961
0.00625751
-0.0294433
0.00963889
-0.037565
0.0126189
-0.0394123
0.015459
-0.0389146
0.0183693
-0.037876
0.0214554
-0.0369361
0.0247665
-0.036259
0.0282466
-0.0358752
-0.0356847
0.00265845
-0.0135546
0.0061162
-0.032901
0.0091116
-0.0405604
0.0116863
-0.041987
0.0141477
-0.0413759
0.0166923
-0.0404207
0.0194007
-0.0396445
0.0222846
-0.0391429
0.025278
-0.0388686
-0.0386791
0.00265201
-0.0162066
0.00577489
-0.0360239
0.00832349
-0.043109
0.010458
-0.0441215
0.0125104
-0.0434284
0.0146566
-0.0425669
0.0169522
-0.04194
0.0193813
-0.0415721
0.0218691
-0.0413564
-0.0411347
0.00254535
-0.0187519
0.00525002
-0.0387286
0.00730774
-0.0451667
0.00897662
-0.0457904
0.0105955
-0.0450473
0.0123153
-0.0442867
0.0141682
-0.043793
0.0161179
-0.0435217
0.018095
-0.0433335
-0.0430889
0.00234265
-0.0210946
0.00456462
-0.0409505
0.00610147
-0.0467036
0.00728582
-0.0469747
0.00844915
-0.0462106
0.00971793
-0.0455554
0.0111045
-0.0451796
0.01256
-0.0449773
0.0140294
-0.0448029
-0.0445595
0.00205345
-0.023148
0.00374587
-0.0426429
0.00474376
-0.0477015
0.00542872
-0.0476597
0.00611623
-0.0468981
0.00691214
-0.0463513
0.00781823
-0.0460856
0.00878599
-0.045945
0.00977072
-0.0457876
-0.0455645
0.0016906
-0.0248386
0.0028243
-0.0437766
0.00327591
-0.0481531
0.00344892
-0.0478327
0.00364156
-0.0470907
0.00394339
-0.0466532
0.00436156
-0.0465038
0.00486784
-0.0464513
0.00544499
-0.0463647
-0.0461093
0.00138301
-0.0262216
0.00197219
-0.0443658
0.00186876
-0.0480497
0.00150363
-0.0474676
0.00115932
-0.0467464
0.000935235
-0.0464291
0.000847885
-0.0464165
0.000872785
-0.0464762
0.000992175
-0.0464841
-0.0465358
0.000967893
-0.0271895
0.000991169
-0.0443891
0.000327617
-0.0473861
-0.000552565
-0.0465874
-0.00142617
-0.0458728
-0.00218888
-0.0456664
-0.00277874
-0.0458266
-0.00316099
-0.046094
-0.00332894
-0.0463162
-0.0463762
0.000545442
-0.027735
3.95071e-05
-0.0438832
-0.00114717
-0.0461994
-0.00256702
-0.0451675
-0.00399146
-0.0444484
-0.00531074
-0.0443471
-0.00640413
-0.0447332
-0.00718041
-0.0453177
-0.007687
-0.0458096
-0.045881
0.000146958
-0.0278819
-0.000918348
-0.0428179
-0.00257114
-0.0445466
-0.00447787
-0.0432608
-0.00644451
-0.0424818
-0.00833606
-0.0424555
-0.0099619
-0.0431074
-0.0111678
-0.0441117
-0.0120286
-0.0449488
-0.0450266
-0.000303858