/*--------------------------------*- C++ -*----------------------------------*\
  =========                 |
  \\      /  F ield         | OpenFOAM: The Open Source CFD Toolbox
   \\    /   O peration     | Website:  https://openfoam.org
    \\  /    A nd           | Version:  7
     \\/     M anipulation  |
\*---------------------------------------------------------------------------*/
FoamFile
{
    version     2.0;
    format      ascii;
    class       volScalarField;
    location    "9";
    object      p;
}
// * * * * * * * * * * * * * * * * * * * * * * * * * * * * * * * * * * * * * //

dimensions      [0 2 -2 0 0 0 0];

internalField   nonuniform List<scalar> 
32000
(
0.218979
0.219667
0.220076
0.220492
0.220881
0.221247
0.221582
0.221888
0.222182
0.222483
0.222809
0.22317
0.223576
0.224039
0.224573
0.22519
0.225906
0.226735
0.227695
0.2288
0.23006
0.231482
0.233069
0.23482
0.236736
0.238813
0.241047
0.243428
0.245947
0.248595
0.25136
0.254232
0.257197
0.26024
0.263346
0.266502
0.269693
0.272911
0.27613
0.279284
0.219217
0.219883
0.220268
0.220654
0.221011
0.221347
0.221652
0.221928
0.222193
0.222464
0.222756
0.223081
0.22345
0.223875
0.224368
0.22494
0.225607
0.226382
0.227283
0.228324
0.229516
0.230864
0.232371
0.234037
0.235862
0.237845
0.239981
0.242265
0.244687
0.247237
0.249906
0.252683
0.255555
0.258508
0.261529
0.264602
0.267716
0.27086
0.274003
0.277091
0.21946
0.220101
0.220462
0.220816
0.221142
0.221446
0.22172
0.221968
0.222205
0.222449
0.22271
0.223001
0.223335
0.223723
0.224178
0.224709
0.225331
0.226058
0.226906
0.22789
0.229019
0.230299
0.231732
0.233317
0.235057
0.23695
0.238994
0.241184
0.243511
0.245966
0.248541
0.251224
0.254003
0.256866
0.259799
0.262789
0.265823
0.268891
0.271955
0.274976
0.219698
0.220308
0.220647
0.220974
0.221269
0.221541
0.221788
0.222009
0.222222
0.22244
0.222673
0.222933
0.223235
0.223589
0.224008
0.224503
0.225085
0.225769
0.22657
0.227501
0.228573
0.22979
0.231153
0.232663
0.234321
0.236129
0.238086
0.240185
0.242421
0.244784
0.247267
0.249857
0.252545
0.255318
0.258162
0.261066
0.264019
0.267009
0.269991
0.272941
0.219941
0.22052
0.220836
0.221137
0.221402
0.221643
0.221861
0.222059
0.222249
0.222442
0.222649
0.22288
0.223151
0.223475
0.223861
0.224322
0.224869
0.225515
0.226273
0.227158
0.228178
0.229336
0.230634
0.232073
0.233655
0.235383
0.237256
0.23927
0.241418
0.243692
0.246084
0.248584
0.251181
0.253864
0.256621
0.259439
0.262309
0.265218
0.268117
0.270993
0.220187
0.22073
0.221024
0.221298
0.221535
0.221747
0.221939
0.222114
0.222282
0.222453
0.222635
0.222841
0.223085
0.22338
0.223738
0.224169
0.224684
0.225297
0.226018
0.226862
0.227834
0.228938
0.230175
0.231548
0.233059
0.234712
0.236507
0.238439
0.240503
0.242691
0.244995
0.247406
0.249914
0.252508
0.255177
0.257909
0.260695
0.263522
0.266335
0.269135
0.220439
0.220944
0.221215
0.221463
0.221672
0.221858
0.222025
0.222178
0.222326
0.222475
0.222636
0.222819
0.223039
0.223309
0.223641
0.224046
0.224534
0.225117
0.225807
0.226613
0.227542
0.228596
0.229777
0.231088
0.232535
0.234118
0.235839
0.237694
0.239677
0.241782
0.244001
0.246326
0.248747
0.251253
0.253834
0.25648
0.259181
0.261925
0.26465
0.267371
0.220696
0.221161
0.221409
0.221632
0.221815
0.221976
0.222119
0.222251
0.222379
0.22251
0.222651
0.222814
0.223014
0.223262
0.223571
0.223954
0.224419
0.224978
0.22564
0.226414
0.227303
0.228311
0.229441
0.230697
0.232083
0.233602
0.235254
0.237036
0.238942
0.240966
0.243103
0.245344
0.24768
0.250101
0.252595
0.255154
0.25777
0.26043
0.263064
0.265706
0.220959
0.22138
0.221605
0.221804
0.221963
0.2221
0.222221
0.222334
0.222444
0.222557
0.222681
0.222828
0.22301
0.22324
0.22353
0.223894
0.224341
0.22488
0.225519
0.226264
0.227117
0.228084
0.229168
0.230373
0.231705
0.233164
0.234752
0.236465
0.238298
0.240246
0.242304
0.244464
0.246717
0.249052
0.251461
0.253934
0.256465
0.259039
0.261583
0.264144
0.221226
0.221603
0.221804
0.221979
0.222116
0.222232
0.222332
0.222426
0.222519
0.222617
0.222728
0.222861
0.223029
0.223243
0.223519
0.223869
0.224301
0.224825
0.225444
0.226163
0.226986
0.227916
0.228959
0.230119
0.231401
0.232806
0.234333
0.235981
0.237746
0.239622
0.241604
0.243686
0.245858
0.24811
0.250435
0.252822
0.255267
0.257756
0.260209
0.262687
0.221498
0.221827
0.222006
0.222158
0.222275
0.22237
0.222452
0.222528
0.222606
0.222692
0.222791
0.222913
0.22307
0.223273
0.223538
0.223878
0.2243
0.224811
0.225414
0.226112
0.226908
0.227807
0.228814
0.229934
0.231171
0.232526
0.233999
0.235587
0.237286
0.239094
0.241004
0.24301
0.245104
0.247275
0.249517
0.25182
0.25418
0.256583
0.258944
0.261338
0.221775
0.222054
0.22221
0.22234
0.222437
0.222515
0.222579
0.22264
0.222705
0.22278
0.222871
0.222985
0.223134
0.22333
0.223589
0.223922
0.224338
0.22484
0.22543
0.226111
0.226886
0.227758
0.228734
0.229819
0.231016
0.232326
0.233748
0.23528
0.23692
0.238663
0.240504
0.242438
0.244456
0.246548
0.248709
0.250928
0.253204
0.255521
0.257791
0.2601
0.222057
0.222284
0.222416
0.222525
0.222604
0.222665
0.222715
0.222762
0.222816
0.222883
0.222967
0.223077
0.223221
0.223415
0.223672
0.224003
0.224415
0.224911
0.225492
0.22616
0.226917
0.227768
0.228719
0.229774
0.230936
0.232206
0.233582
0.235062
0.236645
0.238328
0.240105
0.24197
0.243914
0.24593
0.248011
0.250149
0.252341
0.254573
0.256753
0.258975
0.222344
0.222516
0.222625
0.222713
0.222775
0.222821
0.222857
0.222894
0.222939
0.223
0.22308
0.223187
0.223332
0.223527
0.223786
0.224118
0.224531
0.225024
0.225599
0.226257
0.227002
0.227837
0.228767
0.229798
0.23093
0.232163
0.233498
0.234931
0.236462
0.238089
0.239805
0.241605
0.243479
0.245422
0.247425
0.249482
0.251592
0.25374
0.25583
0.257966
0.222636
0.222752
0.222836
0.222903
0.222949
0.222981
0.223007
0.223034
0.223073
0.22313
0.223209
0.223317
0.223465
0.223666
0.223931
0.224269
0.224684
0.225177
0.225749
0.226403
0.22714
0.227963
0.228879
0.229889
0.230996
0.232199
0.233496
0.234887
0.236371
0.237946
0.239606
0.241343
0.243151
0.245022
0.24695
0.248929
0.250958
0.253024
0.255024
0.257075
0.222933
0.222989
0.223049
0.223094
0.223125
0.223146
0.223163
0.223184
0.223218
0.223273
0.223353
0.223466
0.223622
0.223832
0.224106
0.224452
0.224873
0.22537
0.225944
0.226596
0.22733
0.228147
0.229053
0.230048
0.231134
0.23231
0.233575
0.234928
0.23637
0.237898
0.239504
0.241184
0.242928
0.244731
0.246586
0.248489
0.25044
0.252424
0.254338
0.256302
0.223235
0.223229
0.223263
0.223287
0.223303
0.223314
0.223324
0.22334
0.223373
0.223429
0.223513
0.223634
0.223801
0.224024
0.224311
0.224668
0.225098
0.225601
0.226181
0.226837
0.227572
0.228388
0.229287
0.230273
0.231343
0.232497
0.233734
0.235055
0.236459
0.237943
0.239501
0.241125
0.24281
0.244548
0.246334
0.248163
0.250037
0.251943
0.253771
0.25565
0.22354
0.223471
0.223478
0.22348
0.223483
0.223485
0.22349
0.223505
0.223538
0.223597
0.223688
0.22382
0.224001
0.224241
0.224544
0.224915
0.225357
0.225871
0.22646
0.227123
0.227864
0.228683
0.229582
0.230561
0.23162
0.232757
0.233971
0.235264
0.236635
0.238079
0.239593
0.241166
0.242794
0.244471
0.246191
0.24795
0.24975
0.251579
0.253325
0.255119
0.223848
0.223713
0.223694
0.223673
0.223662
0.223657
0.223659
0.223675
0.223711
0.223776
0.223878
0.224024
0.224223
0.224481
0.224803
0.225192
0.22565
0.226178
0.22678
0.227455
0.228206
0.229032
0.229934
0.230912
0.231963
0.233088
0.234284
0.235554
0.236895
0.238306
0.239778
0.241305
0.242881
0.2445
0.246157
0.247849
0.249579
0.251334
0.253
0.254708
0.224157
0.223954
0.223907
0.223864
0.22384
0.22383
0.223832
0.22385
0.223893
0.223967
0.224081
0.224244
0.224464
0.224744
0.225087
0.225497
0.225974
0.226521
0.227139
0.22783
0.228594
0.229431
0.230341
0.231321
0.232371
0.233487
0.234671
0.235922
0.237239
0.238618
0.240054
0.241539
0.243066
0.244632
0.24623
0.247859
0.249521
0.251205
0.252794
0.254419
0.224465
0.224192
0.224118
0.224052
0.224016
0.224001
0.224005
0.22403
0.224081
0.224166
0.224296
0.22448
0.224722
0.225026
0.225394
0.225828
0.226328
0.226896
0.227535
0.228246
0.229028
0.22988
0.2308
0.231788
0.232839
0.233952
0.235127
0.236364
0.237661
0.239015
0.240418
0.241865
0.243349
0.244865
0.246409
0.247979
0.249577
0.251193
0.252708
0.254249
0.224768
0.224425
0.224323
0.224235
0.224188
0.224171
0.224179
0.224211
0.224273
0.224373
0.224522
0.224728
0.224996
0.225327
0.225722
0.226182
0.226708
0.227302
0.227966
0.2287
0.229503
0.230373
0.231309
0.232307
0.233364
0.234479
0.23565
0.236877
0.238159
0.239491
0.240868
0.242281
0.243726
0.245198
0.246692
0.248206
0.249743
0.251294
0.252739
0.2542
0.225064
0.224651
0.22452
0.224412
0.224355
0.224337
0.22435
0.224392
0.224468
0.224586
0.224756
0.224987
0.225283
0.225643
0.226067
0.226557
0.227112
0.227735
0.228427
0.229188
0.230015
0.230908
0.231862
0.232875
0.233942
0.235063
0.236235
0.237457
0.238729
0.240044
0.241398
0.242783
0.244193
0.245625
0.247073
0.248536
0.250017
0.251507
0.252887
0.254268
0.22535
0.224866
0.224708
0.224579
0.224514
0.224496
0.224517
0.224572
0.224664
0.224801
0.224995
0.225254
0.225579
0.225971
0.226427
0.226949
0.227537
0.228192
0.228915
0.229706
0.230562
0.23148
0.232457
0.233488
0.23457
0.235699
0.236876
0.238099
0.239365
0.240668
0.242004
0.243365
0.244746
0.246143
0.247551
0.248967
0.250396
0.251829
0.253148
0.254451
0.225622
0.225067
0.224884
0.224736
0.224663
0.224648
0.224678
0.224747
0.224857
0.225017
0.225238
0.225526
0.225883
0.226308
0.226799
0.227356
0.227979
0.228669
0.229427
0.230251
0.231138
0.232085
0.233088
0.234141
0.23524
0.236384
0.23757
0.238797
0.240061
0.241358
0.242681
0.244023
0.24538
0.246746
0.248119
0.249494
0.250875
0.252256
0.253518
0.254748
0.225877
0.225253
0.225045
0.224879
0.224801
0.22479
0.224831
0.224916
0.225047
0.225232
0.225481
0.225801
0.226192
0.226652
0.22718
0.227774
0.228435
0.229163
0.229957
0.230817
0.231738
0.232718
0.23375
0.234828
0.235949
0.23711
0.23831
0.239545
0.240813
0.242107
0.243421
0.244749
0.246086
0.247428
0.248771
0.25011
0.25145
0.252783
0.253995
0.255153
0.226111
0.22542
0.225189
0.225007
0.224925
0.224919
0.224972
0.225075
0.225229
0.225441
0.225721
0.226075
0.226501
0.226999
0.227565
0.228198
0.2289
0.229668
0.230502
0.2314
0.232359
0.233373
0.234437
0.235544
0.23669
0.237872
0.239089
0.240337
0.241611
0.242907
0.244218
0.245537
0.24686
0.248183
0.249501
0.25081
0.252113
0.253406
0.254574
0.255663
0.226323
0.225567
0.225313
0.225118
0.225034
0.225034
0.2251
0.225223
0.225402
0.225644
0.225956
0.226345
0.226808
0.227345
0.227951
0.228626
0.22937
0.23018
0.231056
0.231995
0.232993
0.234045
0.235144
0.236282
0.237456
0.238663
0.2399
0.241164
0.24245
0.243752
0.245063
0.246378
0.247692
0.249001
0.250301
0.251586
0.252859
0.254117
0.255247
0.256273
0.226507
0.225689
0.225416
0.225209
0.225125
0.225132
0.225212
0.225356
0.225562
0.225835
0.226183
0.226608
0.22711
0.227686
0.228334
0.229052
0.22984
0.230694
0.231614
0.232595
0.233635
0.234727
0.235863
0.237035
0.23824
0.239475
0.240736
0.242019
0.24332
0.244632
0.245948
0.247264
0.248574
0.249875
0.251162
0.252429
0.253679
0.254909
0.25601
0.256977
0.226662
0.225785
0.225495
0.225279
0.225195
0.225211
0.225306
0.225472
0.225706
0.226012
0.226396
0.22686
0.227401
0.228018
0.228709
0.229472
0.230305
0.231206
0.23217
0.233196
0.234279
0.235412
0.236587
0.237796
0.239035
0.2403
0.241588
0.242894
0.244213
0.245538
0.246864
0.248185
0.249496
0.250795
0.252075
0.253331
0.254564
0.255774
0.256854
0.257768
0.226783
0.225851
0.225547
0.225324
0.225243
0.225268
0.22538
0.225568
0.225831
0.226172
0.226593
0.227096
0.227678
0.228338
0.229072
0.229881
0.230761
0.231708
0.232719
0.233791
0.234919
0.236094
0.237309
0.238557
0.239831
0.241129
0.242447
0.243778
0.245118
0.246461
0.247799
0.24913
0.250448
0.25175
0.25303
0.254281
0.255505
0.256703
0.25777
0.258638
0.226867
0.225885
0.225569
0.225342
0.225265
0.225301
0.225429
0.225642
0.225935
0.22631
0.22677
0.227313
0.227936
0.228639
0.229419
0.230274
0.231202
0.232197
0.233255
0.234373
0.235546
0.236766
0.238023
0.23931
0.240622
0.241955
0.243304
0.244663
0.246027
0.247389
0.248744
0.250088
0.251418
0.252728
0.254013
0.255267
0.25649
0.257684
0.25875
0.259579
0.226911
0.225884
0.22556
0.22533
0.225259
0.225307
0.225453
0.22569
0.226013
0.226424
0.226922
0.227506
0.228171
0.228917
0.229743
0.230646
0.231622
0.232665
0.233771
0.234937
0.236156
0.23742
0.238719
0.240047
0.241398
0.242767
0.244149
0.245537
0.246927
0.248311
0.249686
0.251047
0.252391
0.253714
0.255011
0.256275
0.257504
0.258705
0.25978
0.26058
0.226912
0.225845
0.225515
0.225285
0.225222
0.225283
0.225448
0.22571
0.226064
0.22651
0.227047
0.227671
0.228379
0.229169
0.230041
0.230991
0.232016
0.233107
0.234262
0.235475
0.23674
0.238049
0.239391
0.240761
0.242151
0.243556
0.244971
0.24639
0.247806
0.249215
0.250611
0.251992
0.253355
0.254695
0.256009
0.257289
0.258534
0.259752
0.26085
0.261632
0.226868
0.225765
0.225432
0.225205
0.225151
0.225227
0.225413
0.225699
0.226084
0.226565
0.227141
0.227806
0.228556
0.22939
0.230308
0.231306
0.232379
0.233519
0.234722
0.235982
0.237293
0.238646
0.240031
0.241442
0.242871
0.244313
0.245761
0.247211
0.248654
0.250088
0.251508
0.25291
0.254293
0.255653
0.256988
0.258291
0.25956
0.260807
0.261944
0.262724
0.226775
0.225644
0.22531
0.225087
0.225045
0.225137
0.225343
0.225656
0.226071
0.226587
0.227201
0.227906
0.228698
0.229576
0.23054
0.231585
0.232705
0.233894
0.235144
0.236451
0.237807
0.239203
0.240631
0.242082
0.243549
0.245027
0.246508
0.247987
0.249458
0.250917
0.25236
0.253785
0.255188
0.25657
0.257929
0.25926
0.260562
0.261851
0.263046
0.263845
0.226631
0.225478
0.225145
0.22493
0.2249
0.22501
0.225239
0.225577
0.226023
0.226574
0.227224
0.227968
0.228801
0.229723
0.230732
0.231824
0.232991
0.234226
0.235523
0.236875
0.238275
0.239713
0.241182
0.242672
0.244176
0.245688
0.247201
0.248709
0.250206
0.251689
0.253155
0.2546
0.256024
0.257427
0.25881
0.260171
0.261512
0.262856
0.264134
0.264983
0.226435
0.225266
0.224937
0.224731
0.224716
0.224845
0.225096
0.22546
0.225936
0.226521
0.227208
0.22799
0.228864
0.229828
0.230881
0.232018
0.23323
0.234511
0.235852
0.237248
0.23869
0.240169
0.241677
0.243204
0.244743
0.246288
0.24783
0.249364
0.250886
0.25239
0.253875
0.255338
0.256779
0.2582
0.259604
0.260994
0.262376
0.263786
0.265183
0.266147
0.226184
0.225006
0.224683
0.224489
0.22449
0.224639
0.224913
0.225304
0.22581
0.226427
0.22715
0.227969
0.228882
0.229887
0.230982
0.232162
0.233418
0.234742
0.236126
0.237563
0.239045
0.240563
0.242108
0.24367
0.245242
0.246816
0.248385
0.249942
0.251485
0.253008
0.254508
0.255984
0.257435
0.258866
0.260283
0.261693
0.263113
0.264606
0.266207
0.267457
0.225879
0.224698
0.224383
0.224203
0.224222
0.224391
0.224688
0.225106
0.225641
0.226291
0.227047
0.227902
0.228852
0.229897
0.231032
0.232253
0.233551
0.234915
0.23634
0.237815
0.239335
0.240888
0.242467
0.244061
0.245662
0.247262
0.248854
0.250432
0.251991
0.253527
0.255037
0.256518
0.25797
0.259397
0.260807
0.262211
0.26364
0.265194
0.267001
0.268686
0.290124
0.305878
0.319834
0.331405
0.340751
0.348317
0.35436
0.359267
0.363286
0.366658
0.369515
0.371962
0.37409
0.375984
0.377667
0.379174
0.380529
0.381754
0.382852
0.38383
0.384701
0.385476
0.386148
0.386724
0.387201
0.387574
0.387857
0.388047
0.388138
0.388136
0.388031
0.387839
0.387547
0.387155
0.386665
0.386075
0.385407
0.384622
0.383925
0.382856
0.288038
0.303636
0.317769
0.329426
0.338893
0.346532
0.352641
0.357604
0.361671
0.365073
0.367956
0.370441
0.372603
0.37452
0.376231
0.377775
0.379162
0.38041
0.381531
0.382539
0.38344
0.384236
0.384933
0.385526
0.38602
0.386417
0.386718
0.386921
0.387028
0.387037
0.386951
0.386767
0.386489
0.386111
0.385632
0.385052
0.384393
0.38362
0.38293
0.381867
0.28602
0.301425
0.315724
0.327454
0.33704
0.344747
0.350921
0.355941
0.360053
0.363485
0.366396
0.368918
0.371115
0.373056
0.374795
0.376375
0.377792
0.379064
0.38021
0.381248
0.382177
0.382995
0.383715
0.384326
0.384839
0.385259
0.385578
0.385795
0.385919
0.385941
0.385875
0.385699
0.385435
0.385071
0.384604
0.384035
0.383386
0.382624
0.381943
0.380888
0.284067
0.299245
0.313705
0.325494
0.335187
0.342965
0.349203
0.354273
0.35843
0.361897
0.36484
0.367392
0.369622
0.371592
0.373362
0.374971
0.376418
0.377719
0.378892
0.379957
0.380912
0.381752
0.382495
0.383128
0.38366
0.3841
0.384436
0.384671
0.384811
0.38485
0.384799
0.384639
0.384388
0.384035
0.38358
0.383023
0.382386
0.381635
0.380964
0.379918
0.282185
0.297104
0.311711
0.323544
0.333336
0.341184
0.347487
0.352604
0.356803
0.360308
0.363285
0.365864
0.368127
0.370129
0.37193
0.373565
0.375041
0.376374
0.377577
0.378666
0.379645
0.38051
0.381275
0.381932
0.382483
0.382941
0.383295
0.383548
0.383706
0.383763
0.383726
0.383584
0.383346
0.383004
0.382562
0.382018
0.381393
0.380653
0.379993
0.378958
0.28038
0.295004
0.309743
0.321605
0.331491
0.339404
0.34577
0.350935
0.355175
0.358718
0.361728
0.364337
0.36663
0.368665
0.370498
0.37216
0.373666
0.375029
0.376263
0.377377
0.37838
0.379269
0.380055
0.380736
0.381308
0.381784
0.382157
0.382429
0.382604
0.382678
0.382657
0.382532
0.382308
0.381979
0.38155
0.381019
0.380407
0.379679
0.379029
0.378005
0.278653
0.292951
0.307804
0.319678
0.32965
0.337624
0.344052
0.349265
0.353546
0.357126
0.36017
0.362809
0.365134
0.367201
0.369065
0.370756
0.372292
0.373685
0.374948
0.376088
0.377117
0.378031
0.378838
0.379542
0.380135
0.38063
0.381022
0.381312
0.381505
0.381598
0.381593
0.381485
0.381276
0.380961
0.380545
0.380026
0.379429
0.378713
0.378073
0.377059
0.277008
0.290947
0.305894
0.317764
0.327816
0.335847
0.342334
0.347594
0.351916
0.355533
0.35861
0.361281
0.363636
0.365737
0.367632
0.369353
0.37092
0.372342
0.373635
0.374801
0.375854
0.376794
0.377623
0.37835
0.378965
0.379479
0.37989
0.380199
0.38041
0.380522
0.380533
0.380442
0.380248
0.379948
0.379546
0.379042
0.378458
0.377755
0.377125
0.376119
0.275446
0.288997
0.304017
0.315865
0.325988
0.33407
0.340615
0.345923
0.350286
0.35394
0.35705
0.359753
0.36214
0.364273
0.3662
0.367951
0.369549
0.371
0.372322
0.373516
0.374594
0.375559
0.376411
0.37716
0.377797
0.37833
0.378761
0.37909
0.37932
0.379449
0.379478
0.379404
0.379226
0.37894
0.378555
0.378064
0.377494
0.376803
0.376185
0.375188
0.273969
0.287106
0.302174
0.313982
0.324167
0.332296
0.338897
0.344251
0.348655
0.352347
0.35549
0.358225
0.360643
0.36281
0.364769
0.366551
0.368179
0.36966
0.371011
0.372232
0.373336
0.374326
0.375201
0.375973
0.376631
0.377185
0.377636
0.377984
0.378233
0.378381
0.378427
0.37837
0.378209
0.377939
0.377569
0.377094
0.376538
0.37586
0.375252
0.374263
0.272579
0.285276
0.300368
0.312118
0.322354
0.330523
0.337178
0.342579
0.347023
0.350753
0.35393
0.356698
0.359149
0.361348
0.36334
0.365153
0.366812
0.368322
0.369702
0.37095
0.372079
0.373096
0.373993
0.374788
0.375469
0.376043
0.376515
0.376882
0.37715
0.377317
0.37738
0.37734
0.377196
0.376944
0.376589
0.37613
0.375589
0.374923
0.374327
0.373345
0.271277
0.283514
0.298601
0.310274
0.32055
0.328753
0.335459
0.340905
0.345391
0.349159
0.35237
0.355172
0.357655
0.359888
0.361913
0.363756
0.365447
0.366986
0.368395
0.369671
0.370825
0.371867
0.372788
0.373606
0.37431
0.374904
0.375397
0.375784
0.37607
0.376257
0.376338
0.376315
0.376188
0.375954
0.375616
0.375173
0.374647
0.373994
0.373408
0.372434
0.270066
0.281821
0.296875
0.308452
0.318755
0.326985
0.333739
0.33923
0.343759
0.347564
0.350811
0.353647
0.356164
0.358429
0.360488
0.362363
0.364084
0.365654
0.36709
0.368395
0.369573
0.370641
0.371586
0.372426
0.373153
0.373767
0.374281
0.374689
0.374994
0.375199
0.375299
0.375295
0.375185
0.37497
0.37465
0.374223
0.373712
0.373072
0.372498
0.371531
0.268946
0.280204
0.295193
0.306654
0.316971
0.32522
0.33202
0.337555
0.342126
0.34597
0.349253
0.352124
0.354675
0.356974
0.359066
0.360972
0.362725
0.364325
0.365789
0.367121
0.368325
0.369417
0.370386
0.371249
0.372
0.372635
0.373169
0.373598
0.373921
0.374145
0.374264
0.374279
0.374187
0.373991
0.373689
0.373279
0.372783
0.372156
0.371594
0.370635
0.267919
0.278666
0.293556
0.304882
0.315197
0.323458
0.3303
0.335878
0.340493
0.344376
0.347696
0.350602
0.353188
0.355521
0.357646
0.359585
0.361369
0.362999
0.364491
0.365851
0.36708
0.368197
0.36919
0.370074
0.370849
0.371505
0.372059
0.37251
0.372853
0.373095
0.373233
0.373268
0.373194
0.373017
0.372734
0.372342
0.371862
0.371248
0.370698
0.369747
0.266986
0.277212
0.291968
0.303139
0.313435
0.3217
0.32858
0.334199
0.338859
0.342781
0.346141
0.349083
0.351704
0.354071
0.356229
0.358201
0.360016
0.361676
0.363197
0.364584
0.365839
0.36698
0.367998
0.368903
0.369701
0.370379
0.370953
0.371424
0.371787
0.372048
0.372206
0.372261
0.372206
0.372049
0.371785
0.371411
0.370948
0.370347
0.369808
0.368865
0.266148
0.275846
0.290431
0.301426
0.311686
0.319946
0.326859
0.332519
0.337224
0.341187
0.344586
0.347566
0.350222
0.352624
0.354816
0.35682
0.358666
0.360358
0.361907
0.363321
0.364602
0.365767
0.36681
0.367736
0.368556
0.369257
0.36985
0.370341
0.370725
0.371005
0.371182
0.371258
0.371223
0.371087
0.370842
0.370486
0.370039
0.369454
0.368926
0.367991
0.265406
0.274571
0.288946
0.299745
0.30995
0.318197
0.325138
0.330837
0.335587
0.339593
0.343033
0.346051
0.348743
0.35118
0.353406
0.355444
0.357322
0.359043
0.360621
0.362063
0.36337
0.364558
0.365626
0.366573
0.367415
0.368138
0.368752
0.369262
0.369667
0.369965
0.370162
0.37026
0.370245
0.370129
0.369904
0.369567
0.369138
0.368567
0.36805
0.367124
0.26476
0.273391
0.287516
0.2981
0.30823
0.316454
0.323418
0.329153
0.33395
0.337999
0.34148
0.344538
0.347268
0.34974
0.352
0.354072
0.355982
0.357734
0.359341
0.360809
0.362143
0.363354
0.364446
0.365415
0.366277
0.367023
0.367657
0.368186
0.368612
0.368929
0.369146
0.369265
0.369271
0.369176
0.368972
0.368654
0.368243
0.367687
0.367181
0.366265
0.26421
0.272309
0.286145
0.296492
0.306526
0.314717
0.321698
0.327467
0.332311
0.336404
0.339929
0.343028
0.345795
0.348303
0.350599
0.352705
0.354647
0.35643
0.358066
0.359561
0.360921
0.362155
0.363271
0.364263
0.365144
0.365912
0.366566
0.367114
0.36756
0.367897
0.368134
0.368275
0.368301
0.368228
0.368045
0.367747
0.367354
0.366815
0.36632
0.365412
0.263757
0.271329
0.284835
0.294924
0.304841
0.312987
0.319978
0.325779
0.33067
0.334809
0.338378
0.341519
0.344325
0.346871
0.349203
0.351343
0.353318
0.355132
0.356796
0.358318
0.359705
0.360962
0.3621
0.363115
0.364016
0.364805
0.365478
0.366046
0.366511
0.366869
0.367126
0.367288
0.367336
0.367284
0.367123
0.366846
0.366471
0.36595
0.365466
0.364568
0.2634
0.270453
0.283588
0.2934
0.303177
0.311266
0.318258
0.324089
0.329027
0.333213
0.336828
0.340012
0.342859
0.345444
0.347812
0.349987
0.351995
0.35384
0.355533
0.357081
0.358494
0.359774
0.360935
0.361972
0.362892
0.363702
0.364395
0.364981
0.365466
0.365844
0.366121
0.366305
0.366376
0.366344
0.366206
0.365951
0.365595
0.365092
0.36462
0.363732
0.263139
0.269684
0.282408
0.291921
0.301535
0.309556
0.316541
0.322396
0.327382
0.331615
0.335278
0.338508
0.341396
0.344021
0.346427
0.348637
0.350677
0.352553
0.354274
0.35585
0.357288
0.358591
0.359774
0.360835
0.361773
0.362603
0.363315
0.363919
0.364425
0.364823
0.36512
0.365326
0.365419
0.365409
0.365294
0.365061
0.364726
0.364241
0.363783
0.362904
0.262973
0.269023
0.281298
0.290491
0.299917
0.307857
0.314825
0.320702
0.325735
0.330017
0.333729
0.337006
0.339937
0.342604
0.345047
0.347292
0.349365
0.351273
0.353022
0.354624
0.356088
0.357414
0.358619
0.359701
0.360658
0.361507
0.362239
0.362862
0.363387
0.363806
0.364123
0.364349
0.364466
0.364479
0.364386
0.364177
0.363863
0.363397
0.362954
0.362085
0.262902
0.268473
0.280259
0.289113
0.298327
0.306172
0.313114
0.319005
0.324087
0.328416
0.332179
0.335506
0.338483
0.341192
0.343673
0.345955
0.34806
0.349999
0.351776
0.353404
0.354893
0.356242
0.357468
0.358572
0.359548
0.360416
0.361167
0.361807
0.362352
0.362791
0.363129
0.363376
0.363516
0.363551
0.363483
0.363298
0.363006
0.362561
0.362135
0.361276
0.262922
0.268034
0.279295
0.28779
0.296768
0.304503
0.311409
0.317307
0.322436
0.326814
0.33063
0.334008
0.337033
0.339785
0.342306
0.344624
0.346762
0.348732
0.350537
0.352191
0.353703
0.355076
0.356323
0.357448
0.358442
0.359328
0.360099
0.360757
0.36132
0.361779
0.362138
0.362405
0.362569
0.362627
0.362582
0.362423
0.362155
0.361733
0.361325
0.360478
0.263033
0.267706
0.278408
0.286524
0.295242
0.302852
0.30971
0.315607
0.320783
0.325208
0.329079
0.332512
0.335586
0.338385
0.340945
0.3433
0.34547
0.347471
0.349304
0.350983
0.35252
0.353915
0.355182
0.356328
0.35734
0.358244
0.359034
0.359709
0.360291
0.36077
0.361149
0.361436
0.361623
0.361705
0.361685
0.361553
0.36131
0.360912
0.360525
0.35969
0.263232
0.267488
0.277599
0.285317
0.293753
0.301221
0.30802
0.313906
0.319127
0.3236
0.327528
0.331017
0.334144
0.33699
0.339591
0.341984
0.344187
0.346218
0.348078
0.349782
0.351342
0.352759
0.354046
0.355211
0.356243
0.357163
0.357973
0.358665
0.359265
0.359763
0.360163
0.360469
0.36068
0.360786
0.360791
0.360686
0.360472
0.3601
0.359735
0.358915
0.263517
0.267377
0.276871
0.284174
0.292305
0.299615
0.306339
0.312206
0.317468
0.321989
0.325976
0.329524
0.332705
0.3356
0.338244
0.340676
0.342911
0.344972
0.346858
0.348587
0.35017
0.351609
0.352915
0.354099
0.35515
0.356086
0.356914
0.357624
0.35824
0.358758
0.359178
0.359504
0.359737
0.359868
0.359899
0.359822
0.359639
0.359296
0.358956
0.358154
0.263883
0.26737
0.276223
0.283098
0.290901
0.298035
0.304673
0.310506
0.315809
0.320376
0.324422
0.328032
0.33127
0.334216
0.336904
0.339374
0.341643
0.343733
0.345646
0.347399
0.349004
0.350464
0.351789
0.352991
0.354061
0.355012
0.355858
0.356585
0.357219
0.357754
0.358194
0.358541
0.358796
0.358952
0.359009
0.358962
0.358811
0.358501
0.358189
0.357407
0.264328
0.267462
0.275656
0.28209
0.289546
0.296486
0.303022
0.30881
0.314148
0.31876
0.322868
0.326541
0.329838
0.332838
0.335572
0.338081
0.340383
0.342501
0.344441
0.346217
0.347844
0.349325
0.350669
0.351888
0.352976
0.353943
0.354804
0.35555
0.356199
0.356753
0.357211
0.357578
0.357855
0.358036
0.358121
0.358104
0.357987
0.357714
0.357434
0.356676
0.264847
0.267648
0.275171
0.281154
0.288244
0.294971
0.301392
0.307118
0.312488
0.317142
0.321312
0.325052
0.328411
0.331465
0.334247
0.336795
0.339131
0.341278
0.343243
0.345043
0.346691
0.348192
0.349554
0.350789
0.351895
0.352877
0.353754
0.354516
0.355181
0.355753
0.35623
0.356617
0.356915
0.357121
0.357233
0.357248
0.357168
0.356934
0.356692
0.355963
0.265435
0.26792
0.274766
0.280292
0.286999
0.293494
0.299784
0.305434
0.310829
0.315522
0.319754
0.323563
0.326987
0.330099
0.332929
0.335517
0.337887
0.340062
0.342053
0.343876
0.345544
0.347065
0.348445
0.349695
0.350817
0.351815
0.352706
0.353486
0.354166
0.354754
0.35525
0.355656
0.355975
0.356206
0.356346
0.356393
0.356351
0.356163
0.355963
0.35527
0.266086
0.268268
0.274442
0.279506
0.285817
0.29206
0.298203
0.30376
0.309171
0.3139
0.318196
0.322075
0.325566
0.328738
0.331618
0.334247
0.336652
0.338855
0.340871
0.342717
0.344404
0.345943
0.347341
0.348606
0.349744
0.350757
0.351662
0.352458
0.353153
0.353758
0.354272
0.354695
0.355035
0.35529
0.355458
0.355537
0.355536
0.355397
0.355249
0.3546
0.266795
0.268681
0.274198
0.2788
0.284702
0.290675
0.296654
0.3021
0.307516
0.312277
0.316637
0.320588
0.324149
0.327382
0.330314
0.332984
0.335424
0.337656
0.339696
0.341565
0.343272
0.344829
0.346243
0.347522
0.348676
0.349703
0.350621
0.351434
0.352143
0.352764
0.353294
0.353735
0.354095
0.354372
0.354569
0.354682
0.354722
0.354638
0.354549
0.353957
0.26756
0.269153
0.274034
0.278178
0.283659
0.289343
0.295141
0.300458
0.305865
0.310654
0.315076
0.319101
0.322734
0.326031
0.329017
0.33173
0.334206
0.336466
0.33853
0.340421
0.342146
0.343721
0.345151
0.346445
0.347612
0.348654
0.349585
0.350412
0.351137
0.351771
0.352317
0.352775
0.353154
0.353453
0.353677
0.353824
0.353908
0.353882
0.353863
0.353346
0.268376
0.269673
0.273954
0.277643
0.282695
0.288071
0.29367
0.29884
0.304223
0.309035
0.313518
0.317616
0.321325
0.324688
0.327729
0.330486
0.332997
0.335285
0.337374
0.339286
0.341029
0.34262
0.344066
0.345373
0.346553
0.347609
0.348552
0.349394
0.350132
0.35078
0.35134
0.351815
0.352212
0.352533
0.352783
0.352964
0.353092
0.353129
0.353191
0.352773
0.269186
0.270205
0.273938
0.277187
0.281808
0.28686
0.292245
0.297251
0.302594
0.307423
0.311962
0.316133
0.319917
0.323345
0.326442
0.329244
0.33179
0.334107
0.336219
0.338151
0.339913
0.34152
0.34298
0.344301
0.345493
0.346564
0.34752
0.348374
0.349126
0.349786
0.350361
0.350851
0.351265
0.351607
0.351883
0.352097
0.352271
0.352374
0.352528
0.352244
0.269951
0.270682
0.273915
0.276743
0.280945
0.285667
0.290825
0.295657
0.30094
0.305779
0.310368
0.314608
0.318468
0.321964
0.32512
0.32797
0.330555
0.332903
0.335042
0.336998
0.338779
0.340404
0.34188
0.343216
0.344422
0.345507
0.346477
0.347344
0.34811
0.348784
0.349372
0.349878
0.350309
0.350671
0.350973
0.351221
0.35144
0.351613
0.351872
0.351771
0.271426
0.271545
0.274159
0.276471
0.280181
0.284513
0.2894
0.293987
0.299173
0.304005
0.308643
0.312969
0.316929
0.320521
0.323761
0.32668
0.329319
0.33171
0.333883
0.335864
0.337668
0.33931
0.340801
0.34215
0.343369
0.344466
0.345448
0.346326
0.347104
0.347788
0.348388
0.348907
0.349354
0.349734
0.350058
0.350337
0.350598
0.350839
0.351207
0.351354
0.28025
0.278003
0.278508
0.278587
0.280051
0.282434
0.285868
0.289066
0.293722
0.298475
0.303342
0.308081
0.312514
0.316544
0.32014
0.323321
0.326134
0.328633
0.33087
0.332887
0.334712
0.336368
0.337869
0.339227
0.340454
0.341559
0.342551
0.343438
0.344229
0.344928
0.345546
0.346088
0.346564
0.346982
0.347356
0.347702
0.348056
0.348457
0.349111
0.350099
0.279307
0.277133
0.277686
0.275709
0.276284
0.27753
0.279034
0.281826
0.285906
0.290626
0.295733
0.300856
0.305705
0.31011
0.314006
0.317408
0.320374
0.322977
0.325284
0.327347
0.329205
0.330886
0.332407
0.333784
0.335029
0.336152
0.337162
0.338067
0.338876
0.339595
0.340231
0.340793
0.34129
0.341731
0.342133
0.342516
0.342922
0.343425
0.344271
0.34565
0.274124
0.273131
0.273025
0.271856
0.271132
0.271083
0.271997
0.274308
0.278031
0.282802
0.28819
0.293714
0.298987
0.303769
0.307965
0.311585
0.314698
0.317393
0.319754
0.321848
0.323723