/*--------------------------------*- C++ -*----------------------------------*\
  =========                 |
  \\      /  F ield         | OpenFOAM: The Open Source CFD Toolbox
   \\    /   O peration     | Website:  https://openfoam.org
    \\  /    A nd           | Version:  7
     \\/     M anipulation  |
\*---------------------------------------------------------------------------*/
FoamFile
{
    version     2.0;
    format      ascii;
    class       surfaceScalarField;
    location    "70.2";
    object      phi;
}
// * * * * * * * * * * * * * * * * * * * * * * * * * * * * * * * * * * * * * //

dimensions      [0 3 -1 0 0 0 0];

internalField   nonuniform List<scalar> 
3880
(
-2.25505e-05
-0.000690633
0.000713183
-1.29725e-05
-0.00153404
0.00152446
5.02687e-05
-0.00194614
0.0018829
0.000181681
-0.00200105
0.00186964
0.000394295
-0.00174317
0.00153056
0.000700304
-0.00120102
0.000895015
0.0011091
-0.000396046
-1.27517e-05
0.00162415
0.000650212
-0.00116526
0.00223993
0.00191069
-0.00252647
0.00334934
0.00293882
-0.00404823
-1.68214e-05
-0.000673811
5.32331e-06
-0.00155619
8.26739e-05
-0.00202349
0.000226621
-0.002145
0.000448992
-0.00196554
0.000762954
-0.00151499
0.00118084
-0.000813933
0.00171044
0.000120614
0.00235078
0.00127034
0.00261266
0.00308746
-5.4273e-06
-0.000668384
3.89801e-05
-0.00160059
0.000142798
-0.00212731
0.000312064
-0.00231427
0.000555586
-0.00220907
0.000885683
-0.00184508
0.0013162
-0.00124445
0.00185864
-0.000421831
0.00251717
0.000611816
0.00184753
0.00328229
1.16836e-05
-0.000680068
8.89094e-05
-0.00167782
0.000232264
-0.00227067
0.000441247
-0.00252325
0.000720016
-0.00248783
0.00107824
-0.00220331
0.00152954
-0.00169575
0.00208789
-0.000980178
0.00276233
-6.26213e-05
0.00105997
0.00354989
3.42146e-05
-0.000714282
0.000154346
-0.00179795
0.000350003
-0.00246632
0.000613278
-0.00278652
0.000942673
-0.00281723
0.00134384
-0.00260448
0.00182848
-0.00218039
0.00241142
-0.00156312
0.00310598
-0.000757178
0.000249971
0.00391597
6.17555e-05
-0.000776038
0.000233019
-0.00196922
0.000491584
-0.00272489
0.000821647
-0.00311659
0.00121568
-0.00321126
0.00167462
-0.00306341
0.0022071
-0.00271288
0.00282737
-0.00218338
0.00355141
-0.00148122
-0.000588682
0.00439007
9.29943e-05
-0.000869032
0.00032087
-0.00219709
0.000648942
-0.00305296
0.00105355
-0.00352119
0.00152137
-0.00367909
0.00204865
-0.00359069
0.00264051
-0.00330473
0.00330962
-0.00285249
0.00407342
-0.00224502
-0.00146338
0.00494811
0.000126191
-0.000995223
0.000412268
-0.00248317
0.000810712
-0.0034514
0.00129036
-0.00400084
0.00183279
-0.00422151
0.00243012
-0.00418803
0.00308401
-0.00395862
0.00380503
-0.00357351
0.00461144
-0.00305143
-0.00237536
0.00552342
0.000159236
-0.00115446
0.000500393
-0.00282433
0.000963106
-0.00391412
0.00150934
-0.00454707
0.00211655
-0.00482872
0.00277366
-0.00484514
0.00347909
-0.00466405
0.00424044
-0.00433486
0.00507575
-0.00388673
-0.00331344
0.00601383
0.000189783
-0.00134424
0.000577764
-0.00321231
0.00109118
-0.00442753
0.00168608
-0.00514198
0.00233718
-0.00547982
0.00303174
-0.0055397
0.00376601
-0.00539832
0.0045436
-0.00511245
0.00537663
-0.00471976
0.0063117
-0.00424851
0.00485007
0.0249923
-0.0269036
0.00616677
0.0496911
-0.0510078
0.00640085
0.0716746
-0.0719087
0.00599492
0.0914869
-0.0910809
0.00525943
0.111771
-0.111036
0.00430225
0.133904
-0.132947
0.00317814
0.158705
-0.15758
0.00188084
0.189132
-0.187835
0.000699606
0.232183
-0.231002
0.283654
-0.282955
0.00522481
0.022855
0.00696841
0.0479476
0.00751907
0.0711239
0.00729272
0.0917132
0.00663384
0.11243
0.00566046
0.134877
0.00442649
0.159939
0.00292448
0.190634
0.00134338
0.233764
0.284998
0.00555155
0.0205857
0.00771528
0.0457838
0.00860861
0.0702306
0.00858235
0.0917395
0.00800931
0.113003
0.00702264
0.135864
0.00567878
0.161282
0.00396878
0.192344
0.00199008
0.235743
0.286988
0.00583278
0.0183028
0.00837761
0.043239
0.00963827
0.0689699
0.00983598
0.0915418
0.00936261
0.113476
0.00837096
0.136855
0.0069213
0.162732
0.00500587
0.19426
0.00263041
0.238118
0.289618
0.00608528
0.0161335
0.00893022
0.0403941
0.0105778
0.0673223
0.0110264
0.0910932
0.0106707
0.113832
0.00968614
0.13784
0.00813966
0.164279
0.0060238
0.196376
0.00325941
0.240883
0.292878
0.00633288
0.0141907
0.00935745
0.0373695
0.0113999
0.0652799
0.0121272
0.0903658
0.0119102
0.114049
0.0109475
0.138803
0.00931703
0.165909
0.00701108
0.198682
0.00387024
0.244024
0.296748
0.00659274
0.0125461
0.00965687
0.0343054
0.0120813
0.0628554
0.0131154
0.0893317
0.0130648
0.1141
0.0121441
0.139723
0.0104455
0.167608
0.0079608
0.201166
0.00446044
0.247524
0.301208
0.00685422
0.0112153
0.00983192
0.0313277
0.0126042
0.0600832
0.0139629
0.087973
0.0141008
0.113962
0.0132417
0.140582
0.0114964
0.169353
0.00885595
0.203807
0.00501961
0.25136
0.306228
0.00705708
0.010172
0.00987924
0.0285055
0.0129586
0.0570038
0.0146817
0.0862499
0.0150512
0.113592
0.0142752
0.141358
0.0124968
0.171132
0.00970642
0.206597
0.00555214
0.255515
0.31178
0.00716166
0.00932207
0.00985584
0.0258113
0.013108
0.0537517
0.0151544
0.0842035
0.0157878
0.112959
0.0151392
0.142007
0.0133989
0.172872
0.0104739
0.209522
0.00607896
0.259909
0.317859
0.0190671
0.0161092
-0.0258541
0.014754
0.0301244
0.013688
0.0548177
0.0127856
0.0851059
0.0112182
0.114526
0.00911449
0.144111
0.00652382
0.175463
0.00345013
0.212596
0.000726601
0.262633
0.318586
0.0205673
0.021433
-0.0258912
0.0152147
0.035477
0.0129925
0.0570398
0.0119445
0.0861538
0.0104709
0.116
0.00848833
0.146093
0.00602077
0.17793
0.00313115
0.215485
0.000618738
0.265145
0.319204
0.021058
0.0248587
-0.0244837
0.015974
0.040561
0.0128339
0.06018
0.0112947
0.087693
0.00971378
0.117581
0.00775249
0.148055
0.00541971
0.180263
0.00273627
0.218169
0.000483107
0.267399
0.319688
0.0204958
0.0267861
-0.0224232
0.0162745
0.0447822
0.0127695
0.0636851
0.0108551
0.0896074
0.00926079
0.119175
0.00741545
0.1499
0.00516755
0.182511
0.0026164
0.22072
0.000478166
0.269537
0.320166
0.0193605
0.0275337
-0.0201081
0.0161359
0.0480068
0.0127514
0.0670695
0.0105459
0.0918129
0.00874505
0.120976
0.00687518
0.15177
0.00474787
0.184638
0.00236646
0.223101
0.000395657
0.271508
0.320561
0.0177612
0.0272021
-0.0174296
0.0155287
0.0502393
0.0124234
0.0701748
0.0102925
0.0939438
0.00864039
0.122628
0.00683019
0.15358
0.0047018
0.186766
0.00237501
0.225428
0.00045139
0.273431
0.321013
0.0158991
0.0258035
-0.0145006
0.0148744
0.0512641
0.0122328
0.0728164
0.00990723
0.0962694
0.00813667
0.124399
0.00640204
0.155315
0.00442246
0.188746
0.00221819
0.227632
0.000408837
0.275241
0.321422
0.0136306
0.0235383
-0.0113654
0.0136471
0.0512475
0.0118573
0.0746062
0.00996299
0.0981638
0.00830764
0.126054
0.00653584
0.157087
0.00449584
0.190786
0.00231443
0.229814
0.000510551
0.277044
0.321932
0.0120304
0.0202797
-0.00877171
0.0131104
0.0501675
0.0116994
0.0760173
0.0096348
0.100228
0.00791207
0.127777
0.00625131
0.158747
0.0043233
0.192714
0.00222591
0.231911
0.000486993
0.278783
0.322419
0.00920049
-0.00522753
0.0118763
0.0119904
0.010421
0.0085398
0.00660974
0.00457884
0.00238014
0.00064259
0.00712402
-0.026584
-0.00639417
0.00708987
-0.025857
0.00659064
-0.0239844
0.00588578
-0.0217183
0.00504888
-0.0192712
0.00410617
-0.0164869
0.00307477
-0.0134692
0.00202518
-0.0103158
0.000789984
-0.00753652
-0.00422399
0.00631155
-0.0268366
-0.00605898
0.00590027
-0.0254457
0.00516539
-0.0232495
0.00429336
-0.0208463
0.00332666
-0.0183045
0.00228579
-0.015446
0.00118719
-0.0123706
0.000108132
-0.00923673
-0.00111789
-0.00631049
-0.00328551
0.00524081
-0.026675
-0.00540238
0.00451554
-0.0247204
0.00359446
-0.0223285
0.00258481
-0.0198366
0.00151489
-0.0172345
0.000403807
-0.014335
-0.000725222
-0.0112415
-0.00181988
-0.00814207
-0.00294049
-0.00518988
-0.00244441
0.00390374
-0.0261682
-0.00441052
0.00293792
-0.0237546
0.0018806
-0.0212711
0.000772507
-0.0187285
-0.000363003
-0.016099
-0.00150294
-0.013195
-0.0026235
-0.010121
-0.00367966
-0.00708591
-0.00467451
-0.00419503
-0.0017395
0.00232351
-0.0253754
-0.00311638
0.0011877
-0.0226188
3.89196e-05
-0.0201224
-0.00111464
-0.017575
-0.00227029
-0.0149434
-0.00340259
-0.0120627
-0.00447421
-0.00904935
-0.00544764
-0.00611248
-0.00629255
-0.00335012
-0.00118464
0.000558086
-0.0243517
-0.00158169
-0.000682706
-0.021378
-0.00186387
-0.0189412
-0.00303636
-0.0164025
-0.00417288
-0.0138069
-0.00525399
-0.0109816
-0.00624109
-0.00806224
-0.00709891
-0.00525467
-0.0077818
-0.00266722
-0.000778406
-0.00131718
-0.0231652
0.000130591
-0.00260983
-0.0200854
-0.00379269
-0.0177583
-0.00493857
-0.0152566
-0.00602022
-0.0127252
-0.00701751
-0.00998433
-0.00789357
-0.00718618
-0.00861575
-0.00453249
-0.00913743
-0.00214553
-0.000508917
-0.00323227
-0.0218294
0.00189648
-0.00452696
-0.0187907
-0.00567876
-0.0166065
-0.00676779
-0.0141676
-0.00776777
-0.0117252
-0.00865852
-0.00909359
-0.0094083
-0.0064364
-0.00998824
-0.00395256
-0.0103603
-0.00177344
-0.000357738
-0.00510626
-0.0204159
0.00369281
-0.00636907
-0.0175279
-0.00746654
-0.0155091
-0.00847658
-0.0131575
-0.00937798
-0.0108238
-0.0101503
-0.00832124
-0.0107702
-0.00581652
-0.0112134
-0.00350941
-0.0114553
-0.00153145
-0.00030298
-0.00687374
-0.018974
0.00543181
-0.00808096
-0.0163207
-0.00910932
-0.0144807
-0.0100267
-0.0122401
-0.0108228
-0.0100278
-0.0114755
-0.00766853
-0.0119722
-0.00531977
-0.0122935
-0.00318811
-0.0124297
-0.00139531
-0.000321559
-0.00848157
-0.0175445
0.00705203
-0.00961872
-0.0151835
-0.0105715
-0.0135279
-0.0113911
-0.0114206
-0.0120844
-0.00933448
-0.0126255
-0.00712744
-0.0130142
-0.00493107
-0.013235
-0.00296729
-0.0132916
-0.00133867
-0.000390594
-0.00989798
-0.0161587
0.00851222
-0.0109546
-0.0141269
-0.011832
-0.0126505
-0.0125555
-0.0106971
-0.0131559
-0.00873408
-0.0136003
-0.00668301
-0.0139014
-0.00463001
-0.0140465
-0.00282213
-0.01405
-0.00133518
-0.000488107
-0.0111002
-0.0148398
0.00978131
-0.0120712
-0.0131558
-0.0128791
-0.0118427
-0.013515
-0.0100612
-0.0140377
-0.00821136
-0.0144055
-0.00631517
-0.0146425
-0.00439306
-0.0147381
-0.00272652
-0.0147136
-0.00135961
-0.000593286
-0.0120796
-0.0136019
0.0108417
-0.0129641
-0.0122714
-0.0137125
-0.0110942
-0.0142741
-0.00949963
-0.0147373
-0.00774813
-0.0150514
-0.00600104
-0.0152487
-0.00419578
-0.0153205
-0.00265473
-0.0152916
-0.00138856
-0.000686542
-0.0128392
-0.012448
0.0116853
-0.0136388
-0.0114719
-0.0143398
-0.0103932
-0.0148442
-0.00899523
-0.015267
-0.00732532
-0.0155513
-0.0057167
-0.0157328
-0.00401434
-0.0158051
-0.00258241
-0.0157931
-0.00140056
-0.00074941
-0.0133902
-0.011368
0.0123103
-0.0141093
-0.0107527
-0.0147743
-0.00972822
-0.0152413
-0.00852822
-0.015642
-0.00692466
-0.0159201
-0.00543858
-0.016108
-0.00382643
-0.0162034
-0.00248703
-0.0162279
-0.001376
-0.000764428
-0.0137481
-0.0103373
0.0127174
-0.014396
-0.0101048
-0.0150326
-0.00909162
-0.0154837
-0.00807717
-0.0158789
-0.0065295
-0.016173
-0.00514444
-0.0163878
-0.00361164
-0.0165268
-0.00234798
-0.0166059
-0.00129689
-0.000714995
-0.0139198
-0.00932523
0.0129077
-0.0145161
-0.00950849
-0.0151293
-0.00847842
-0.0155878
-0.00761865
-0.0159935
-0.0061238
-0.0163245
-0.00481342
-0.0165851
-0.00335104
-0.0167868
-0.00214633
-0.0169373
-0.00114635
-0.000585207
-0.0139023
-0.00831262
0.0128897
-0.014487
-0.00892383
-0.0150806
-0.00788481
-0.0155701
-0.00712918
-0.0160021
-0.00569179
-0.016389
-0.00442652
-0.0167127
-0.00302729
-0.0169942
-0.00186479
-0.0172321
-0.000908521
-0.000359617
-0.0137518
-0.00727205
0.0127112
-0.0143716
-0.00830398
-0.0149252
-0.00733122
-0.015451
-0.00660337
-0.0159205
-0.00522231
-0.0163763
-0.00397067
-0.0167804
-0.00262326
-0.0171587
-0.00148648
-0.017502
-0.000565167
-2.44903e-05
-0.0606811
-0.00682835
0.0602374
-0.0624276
-0.00655751
-0.0641215
-0.00563737
-0.0658228
-0.00490205
-0.067192
-0.00385312
-0.0682826
-0.00288005
-0.0690009
-0.00190495
-0.0694118
-0.00107557
-0.0695538
-0.000423171
-3.07454e-05
-0.0711846
-0.00647273
0.070829
-0.0722118
-0.00553031
-0.0731661
-0.00468304
-0.0742288
-0.00383941
-0.0750781
-0.00300383
-0.0757629
-0.0021952
-0.0761999
-0.00146801
-0.0764385
-0.000836935
-0.0765058
-0.000355909
-3.84313e-05
-0.0833827
-0.00634221
0.0832522
-0.0838935
-0.00501959
-0.0844468
-0.00412972
-0.0850826
-0.00320356
-0.0855983
-0.00248811
-0.0860249
-0.0017686
-0.0862816
-0.00121137
-0.0864154
-0.000703117
-0.0864376
-0.000333694
-4.22379e-05
-0.0985302
-0.006287
0.098475
-0.0988686
-0.00468122
-0.0992052
-0.00379317
-0.0996174
-0.00279135
-0.0999341
-0.00217133
-0.100214
-0.00148879
-0.10037
-0.00105553
-0.100462
-0.000611122
-0.100471
-0.000324604
-4.00944e-05
-0.117239
-0.0060085
0.116961
-0.1176
-0.0043204
-0.117904
-0.00348915
-0.118249
-0.00244608
-0.118499
-0.00192141
-0.118735
-0.00125335
-0.118872
-0.000918297
-0.118979
-0.000504021
-0.119017
-0.000287091
-1.96374e-05
-0.138662
-0.00538842
0.138042
-0.139195
-0.00378785
-0.139622
-0.00306142
-0.140009
-0.00205951
-0.140298
-0.00163224
-0.140554
-0.000997816
-0.140729
-0.000742372
-0.14089
-0.000343161
-0.140979
-0.000198298
1.52543e-05
-0.16035
-0.0043883
0.15935
-0.161108
-0.00302955
-0.16173
-0.00243993
-0.162199
-0.00159084
-0.16257
-0.00126102
-0.162855
-0.000712227
-0.163083
-0.000514973
-0.163267
-0.000159319
-0.163382
-8.25568e-05
4.94913e-05
-0.179018
-0.00306305
0.177693
-0.179955
-0.00209208
-0.180717
-0.00167834
-0.181238
-0.00107004
-0.181659
-0.00084007
-0.181937
-0.000433897
-0.182162
-0.000290234
-0.182299
-2.20558e-05
-0.182382
3.51759e-07
5.88678e-05
-0.192082
-0.00158417
0.190603
-0.193122
-0.00105217
-0.193963
-0.000836629
-0.194509
-0.000524407
-0.194937
-0.000412307
-0.195173
-0.000197181
-0.195342
-0.000121532
-0.195387
2.26539e-05
-0.195411
2.41311e-05
3.86701e-05
-0.198763
0.197179
-0.199815
-0.200652
-0.201176
-0.201589
-0.201786
-0.201907
-0.201885
-0.20186
-0.0139893
0.0613104
0.0129164
-0.0146403
0.07148
-0.015131
0.0837428
-0.0153605
0.0987045
-0.0151118
0.116712
-0.0140505
0.136981
-0.0119092
0.157209
-0.00866398
0.174447
-0.00456898
0.186508
0.19261
-0.0132206
0.062046
0.012485
-0.013825
0.0720844
-0.0142551
0.0841729
-0.014398
0.0988474
-0.0140637
0.116378
-0.0129658
0.135883
-0.0108986
0.155142
-0.00787708
0.171426
-0.00413396
0.182765
0.188476
-0.012514
0.0627036
0.0118564
-0.013053
0.0726233
-0.0134108
0.0845307
-0.0134855
0.0989221
-0.0131023
0.115995
-0.0120129
0.134793
-0.0100492
0.153178
-0.00723795
0.168615
-0.00378962
0.179316
0.184686
-0.011707
0.0633352
0.0110754
-0.0121866
0.073103
-0.0124647
0.0848087
-0.0124683
0.0989258
-0.0120435
0.11557
-0.0109781
0.133728
-0.00913817
0.151338
-0.00655813
0.166035
-0.00342576
0.176184
0.18126
-0.0107777
0.0639356
0.0101773
-0.0112051
0.0735304
-0.0114137
0.0850173
-0.0113579
0.0988701
-0.0109068
0.115119
-0.00988391
0.132705
-0.00818574
0.14964
-0.00585196
0.163701
-0.00304932
0.173381
0.178211
-0.00974748
0.0644938
0.00918927
-0.0101153
0.0738982
-0.0102591
0.0851611
-0.0101559
0.0987669
-0.00969583
0.114659
-0.00873588
0.131745
-0.00719869
0.148102
-0.00512614
0.161628
-0.00266414
0.170919
0.175547
-0.00863857
0.065
0.00813232
-0.00893968
0.0741993
-0.00901893
0.0852403
-0.00887625
0.0986242
-0.00842095
0.114203
-0.00754177
0.130866
-0.00618279
0.146744
-0.00438497
0.15983
-0.00227255
0.168807
0.173274
-0.0074685
0.0654416
0.00702695
-0.00770069
0.0744315
-0.00771613
0.0852558
-0.0075402
0.0984483
-0.0071003
0.113763
-0.0063154
0.130081
-0.00514739
0.145575
-0.00363398
0.158317
-0.00187709
0.16705
0.171397
-0.00625588
0.0658029
0.0058946
-0.00641982
0.0745955
-0.00637281
0.0852088
-0.00616994
0.0982454
-0.00575371
0.113347
-0.0050729
0.1294
-0.004104
0.144607
-0.00288014
0.157093
-0.00148103
0.165651
0.169916
-0.00502012
0.0660653
0.00475768
-0.0051201
0.0746954
-0.00501003
0.0850987
-0.00478662
0.098022
-0.00439979
0.11296
-0.00382983
0.12883
-0.00306421
0.143841
-0.00213091
0.15616
-0.00108807
0.164608
0.168828
-0.0037937
0.0662147
0.00364426
-0.00383036
0.0747321
-0.00365493
0.0849233
-0.00341504
0.0977821
-0.00305965
0.112605
-0.00260361
0.128374
-0.0020412
0.143279
-0.00139479
0.155514
-0.00070246
0.163916
0.168126
-0.00260525
0.0662524
0.00256757
-0.00256903
0.0746959
-0.00233534
0.0846896
-0.00207703
0.0975238
-0.00175453
0.112282
-0.00140809
0.128028
-0.00104396
0.142914
-0.00067934
0.155149
-0.000327776
0.163564
0.167798
-0.00149149
0.0661935
0.00155042
-0.00136654
0.0745709
-0.00108952
0.0844126
-0.000809196
0.0972435
-0.000523955
0.111997
-0.000282989
0.127787
-0.00011071
0.142742
-1.70756e-05
0.155055
1.79778e-05
0.163529
0.167816
-0.000486779
0.0660781
0.000602167
-0.00025315
0.0743373
1.97647e-05
0.0841396
0.000378906
0.0968844
0.000653065
0.111723
0.000809289
0.127631
0.000809952
0.142742
0.000652333
0.155213
0.000367321
0.163814
0.168183
0.000457554
0.0658969
-0.00027632
0.000812425
0.0739824
0.00118218
0.0837699
0.00152967
0.0965369
0.00177504
0.111478
0.00183849
0.127567
0.00166998
0.14291
0.00126977
0.155613
0.000689332
0.164395
0.168873
0.00135623
0.0656124
-0.00107177
0.00178596
0.0735527
0.00219671
0.0833591
0.00256884
0.0961648
0.00279613
0.11125
0.00278107
0.127582
0.0024603
0.143231
0.00183784
0.156236
0.00098466
0.165248
0.169857
0.00213679
0.0652744
-0.00179881
0.00265219
0.0730373
0.00310222
0.0829091
0.00350061
0.0957664
0.00371837
0.111033
0.00363918
0.127661
0.00318421
0.143686
0.0023597
0.15706
0.00125534
0.166352
0.171113
0.00281346
0.0649265
-0.00246551
0.00340663
0.0724441
0.00388856
0.0824272
0.00430696
0.095348
0.00451642
0.110823
0.00438364
0.127794
0.00381388
0.144256
0.0028138
0.15806
0.00148915
0.167677
0.172602
0.00342752
0.0645971
-0.00309811
0.00408524
0.0717864
0.00459915
0.0819133
0.00503791
0.0949092
0.0052463
0.110615
0.00507056
0.12797
0.00439734
0.144929
0.00323403
0.159223
0.00170439
0.169206
0.174306
0.00382285
0.064479
-0.00370473
0.0045016
0.0711076
0.00504726
0.0813676
0.00549687
0.0944596
0.00570534
0.110406
0.00550866
0.128166
0.0047754
0.145662
0.00350784
0.160491
0.00183941
0.170875
0.176146
-0.0446276
0.0590248
0.0500818
-0.0402059
0.0666859
-0.0372561
0.0784178
-0.0342261
0.0914296
-0.0307812
0.106961
-0.0264751
0.12386
-0.0210705
0.140257
-0.0146448
0.154065
-0.00748815
0.163718
0.168657
-0.054189
0.0545195
0.0586943
-0.0503039
0.0628008
-0.046747
0.0748609
-0.0427636
0.0874462
-0.0383132
0.102511
-0.0327919
0.118339
-0.0260063
0.133472
-0.0180676
0.146127
-0.00930456
0.154955
0.159353
-0.0653307
0.0500778
0.0697723
-0.0613297
0.0587998
-0.0569828
0.070514
-0.052053
0.0825164
-0.0464004
0.0968585
-0.0393627
0.111301
-0.0309577
0.125067
-0.0213236
0.136492
-0.0108015
0.144433
0.148551
-0.0788336
0.0458996
0.0830118
-0.0742106
0.0541769
-0.0689625
0.0652659
-0.0629964
0.0765502
-0.0559048
0.089767
-0.0471019
0.102498
-0.0368479
0.114813
-0.0253253
0.12497
-0.0129777
0.132086
0.135574
-0.0938448
0.0409644
0.09878
-0.0883935
0.0487256
-0.0820515
0.0589239
-0.0745275
0.0690262
-0.065383
0.0806224
-0.0543995
0.091515
-0.0420284
0.102442
-0.0284058
0.111347
-0.0141232
0.117803
0.12145
-0.111457
0.0359327
0.116489
-0.10481
0.042079
-0.0970546
0.0511683
-0.0875709
0.0595425
-0.0762619
0.0693134
-0.0631753
0.0784284
-0.0485926
0.0878588
-0.032793
0.0955477
-0.0166791
0.101689
0.104771
-0.128476
0.0290883
0.13532
-0.120435
0.0340383
-0.110773
0.0415058
-0.0988529
0.0476226
-0.0850917
0.0555521
-0.0693558
0.0626926
-0.051915
0.070418
-0.0333554
0.076988
-0.0152405
0.0835744
0.0895308
-0.146734
0.0221601
0.153662
-0.137341
0.0246455
-0.125956
0.0301212
-0.112369
0.0340352
-0.0969009
0.0400839
-0.0791783
0.0449701
-0.059844
0.0510837
-0.0397093
0.0568533
-0.0209009
0.064766
0.0686299
-0.160927
0.0106594
0.172428
-0.148534
0.0122526
-0.133542
0.0151285
-0.116614
0.0171079
-0.0969992
0.0204688
-0.0751389
0.0231098
-0.0509823
0.026927
-0.0253463
0.0312173
-0.000775827
0.0401955
0.0678541
-0.254262
0.264921
-0.242009
-0.22688
-0.209773
-0.189304
-0.166194
-0.139267
-0.10805
-0.0678541
0.00167143
0.0518196
-0.0034092
4.63767e-05
0.0603194
-0.000979748
0.0707985
-0.00180953
0.0838416
-0.00233314
0.0993036
-0.00252574
0.116681
-0.00229361
0.135088
-0.00176662
0.153135
-0.00202836
0.17269
0.262893
0.00207289
0.053527
-0.00378032
0.000561106
0.0618311
-0.000602414
0.071962
-0.00147334
0.0847125
-0.00204726
0.0998775
-0.0022731
0.116907
-0.00212237
0.134937
-0.00163818
0.152651
-0.00181254
0.172864
0.26108
0.00255966
0.0551247
-0.00415736
0.00110245
0.0632883
-7.98988e-05
0.0731443
-0.000936169
0.0855688
-0.00153499
0.100476
-0.00180349
0.117175
-0.00174312
0.134877
-0.00135959
0.152267
-0.00159948
0.173104
0.259481
0.00303954
0.0566235
-0.00453834
0.00163722
0.0646907
0.000511915
0.0742696
-0.000361066
0.0864418
-0.000936087
0.101051
-0.00125057
0.11749
-0.00125503
0.134882
-0.00101318
0.152026
-0.00132254
0.173413
0.258158
0.00350812
0.0580282
-0.00491283
0.00218043
0.0660184
0.00111921
0.0753308
0.000260632
0.0873004
-0.000304616
0.101617
-0.000652492
0.117838
-0.000709339
0.134938
-0.00061553
0.151932
-0.000998233
0.173796
0.25716
0.00398751
0.0593108
-0.00527008
0.00275865
0.0672472
0.00176836
0.0763211
0.000979024
0.0880897
0.000405589
0.10219
-2.27496e-05
0.118266
-8.90012e-05
0.135005
-0.000177668
0.15202
-0.000633632
0.174252
0.256526
0.00447752
0.0604357
-0.0056025
0.0033707
0.068354
0.00246176
0.0772301
0.00173413
0.0888173
0.00118347
0.102741
0.000776567
0.118673
0.000562151
0.135219
0.000360197
0.152222
-0.000227209
0.174839
0.256299
0.00496981
0.0613691
-0.00590322
0.00400498
0.0693189
0.00318834
0.0780467
0.00252877
0.0894769
0.00200331
0.103266
0.00158359
0.119093
0.00127286
0.13553
0.000945581
0.15255
0.000197315
0.175588
0.256496
0.00545833
0.0620748
-0.00616396
0.00464939
0.0701278
0.00393539
0.0787607
0.00335227
0.09006
0.00285894
0.10376
0.00242433
0.119527
0.00202518
0.135929
0.00155314
0.153022
0.000632632
0.176508
0.257129
0.00593131
0.0625178
-0.00637438
0.0052912
0.0707679
0.00469068
0.0793612
0.00419175
0.090559
0.00374011
0.104211
0.00329154
0.119976
0.0028054
0.136415
0.00218489
0.153642
0.00109436
0.177599
0.258223
0.00636863
0.0626684
-0.00651918
0.00591158
0.071225
0.00543717
0.0798356
0.00502859
0.0909675
0.00462634
0.104613
0.00416856
0.120434
0.00359936
0.136984
0.00283213
0.154409
0.00156922
0.178862
0.259792
0.00676196
0.0625057
-0.0065993
0.00650275
0.0714842
0.00616562
0.0801728
0.00585436
0.0912788
0.00550847
0.104959
0.00504816
0.120894
0.00440141
0.137631
0.00349067
0.15532
0.00205304
0.180299
0.261846
0.00709119
0.0620226
-0.00660809
0.00704347
0.0715319
0.0068527
0.0803635
0.00664591
0.0914856
0.00636403
0.105241
0.00591081
0.121347
0.00519527
0.138347
0.00414838
0.156367
0.00253841
0.181909
0.264384
0.00734357
0.0612262
-0.00654717
0.00751856
0.0713569
0.00748093
0.0804012
0.00738426
0.0915822
0.00717477
0.105451
0.00673969
0.121782
0.00596668
0.13912
0.00479465
0.157539
0.00301801
0.183686
0.267402
0.007508
0.0601416
-0.0064234
0.00791423
0.0709507
0.00803376
0.0802816
0.00805153
0.0915645
0.00792401
0.105578
0.00751899
0.122187
0.00670334
0.139935
0.00542051
0.158822
0.00348656
0.18562
0.270889
0.00757702
0.0588155
-0.00625089
0.00821883
0.0703089
0.00849549
0.080005
0.00863086
0.0914291
0.0085938
0.105615
0.00823034
0.122551
0.00738946
0.140776
0.00601341
0.160198
0.00393412
0.187699
0.274823
0.0075534
0.057314
-0.0060519
0.0084255
0.0694368
0.00885692
0.0795735
0.00911198
0.0911741
0.00917296
0.105554
0.0088661
0.122858
0.00802067
0.141622
0.00657031
0.161648
0.00435855
0.189911
0.279181
0.00744966
0.0557184
-0.00585403
0.00852844
0.068358
0.00910536
0.0789966
0.0094746
0.0908048
0.00963446
0.105394
0.0093943
0.123098
0.00856474
0.142451
0.00706882
0.163144
0.00474287
0.192237
0.283924
0.00729061
0.0541024
-0.00567467
0.0085558
0.0670928
0.00927648
0.078276
0.0097588
0.0903225
0.0100215
0.105132
0.00985902
0.12326
0.0090581
0.143252
0.00753235
0.16467
0.00509748
0.194672
0.289022
0.00700422
0.0525331
-0.00543487
0.00832198
0.065775
0.00919143
0.0774065
0.00978102
0.0897329
0.0101537
0.104759
0.010087
0.123327
0.00936794
0.143971
0.00785298
0.166185
0.00540336
0.197121
0.294425
-0.0264792
0.0504684
0.0285439
-0.0228381
0.062134
-0.0192048
0.0737732
-0.0154743
0.0860023
-0.0117805
0.101065
-0.00789577
0.119442
-0.00384946
0.139925
-0.000428649
0.162764
0.000519154
0.196173
0.294944
-0.0412624
0.0472457
0.0444851
-0.0370845
0.0579561
-0.0322182
0.0689069
-0.027
0.0807842
-0.0216273
0.0956924
-0.0157595
0.113575
-0.00950483
0.13367
-0.00382235
0.157082
-0.00126938
0.19362
0.293675
-0.0573165
0.0434225
0.0611397
-0.0521557
0.0527953
-0.0460327
0.0627838
-0.0394588
0.0742103
-0.0324498
0.0886834
-0.0244479
0.105573
-0.0158094
0.125032
-0.00774422
0.149016
-0.00284876
0.188725
0.290826
-0.0750004
0.0390174
0.0794055
-0.0685956
0.0463905
-0.0614253
0.0556135
-0.0535656
0.0663506
-0.0446599
0.0797777
-0.0342391
0.095152
-0.023008
0.1138
-0.0123414
0.13835
-0.00485622
0.18124
0.28597
-0.0947598
0.0333554
0.100422
-0.0874767
0.0391074
-0.0795048
0.0476416
-0.0700278
0.0568737
-0.0588725
0.0686224
-0.045905
0.0821845
-0.0319344
0.0998298
-0.0182477
0.124663
-0.00752465
0.170517
0.278445
-0.117608
0.0274376
0.123526
-0.109351
0.0308504
-0.100073
0.0383629
-0.088609
0.0454101
-0.0752936
0.0553071
-0.0600367
0.0669276
-0.0434168
0.0832099
-0.0266074
0.107854
-0.0121468
0.156056
0.266298
-0.143108
0.0195656
0.15098
-0.13441
0.0221531
-0.124047
0.0279998
-0.111309
0.032672
-0.0967208
0.0407188
-0.079612
0.0498188
-0.0608573
0.0644552
-0.0407816
0.087778
-0.0207367
0.136011
0.245562
-0.175116
0.0116592
0.183022
-0.165654
0.0126913
-0.154271
0.016616
-0.140959
0.0193605
-0.125441
0.0252006
-0.107391
0.0317691
-0.0871817
0.0442458
-0.0647533
0.0653496
-0.0379537
0.109212
0.207608
-0.228342
0.00390327
0.236098
-0.220211
0.00456074
-0.209911
0.0063158
-0.198475
0.00792394
-0.184382
0.0111074
-0.167949
0.0153361
-0.147157
0.0234539
-0.119122
0.0373146
-0.0751601
0.0652502
0.132448
-0.30371
0.307614
-0.29915
-0.292834
-0.28491
-0.273802
-0.258466
-0.235012
-0.197698
-0.132448
0.00253538
0.0298601
-0.00385164
0.000444336
0.0465762
-0.00140621
0.0629903
-0.00301116
0.0810104
-0.0042751
0.101686
-0.00524679
0.124498
-0.00566226
0.151395
-0.00580178
0.183162
-0.00435165
0.234648
0.303262
0.00239604
0.030814
-0.00334991
0.000633666
0.0483385
-0.00113254
0.0647565
-0.00270996
0.0825878
-0.00398525
0.102961
-0.00494861
0.125461
-0.00541101
0.151857
-0.00556399
0.183315
-0.00420228
0.233286
0.29906
0.00239953
0.031419
-0.00300451
0.000946229
0.0497918
-0.000670157
0.0663729
-0.00214948
0.0840671
-0.00338369
0.104195
-0.00432687
0.126404
-0.004842
0.152373
-0.004996
0.183469
-0.0038403
0.23213
0.295219
0.00248934
0.0317128
-0.00278313
0.0013273
0.0509539
-0.000143778
0.0678439
-0.00148375
0.0854071
-0.00264479
0.105356
-0.00357716
0.127337
-0.00413109
0.152927
-0.00435172
0.18369
-0.00340821
0.231187
0.291811
0.00265361
0.0317133
-0.00265408
0.00179438
0.0518131
0.000536936
0.0691014
-0.000733215
0.0866773
-0.00181548
0.106439
-0.0027342
0.128255
-0.0033352
0.153528
-0.0036439
0.183998
-0.00292238
0.230465
0.288889
0.00290098
0.0314095
-0.00259726
0.0023592
0.0523549
0.0013204
0.0701402
0.000116847
0.0878808
-0.00087675
0.107432
-0.00179187
0.129171
-0.00245169
0.154187
-0.00286842
0.184415
-0.00239212
0.229989
0.286497
0.00322349
0.0307839
-0.00259788
0.0030141
0.0525643
0.0022015
0.0709528
0.001177
0.0889053
0.000179526
0.10843
-0.000754008
0.130104
-0.00146566
0.154899
-0.00202626
0.184976
-0.00182383
0.229787
0.284673
0.00360263
0.0298239
-0.00264259
0.00374363
0.0524233
0.0031687
0.0715277
0.00229113
0.0897829
0.00136146
0.109359
0.000396209
0.131069
-0.000365798
0.155661
-0.00112953
0.185739
-0.00122103
0.229878
0.283452
0.00401692
0.0285263
-0.00271932
0.00452844
0.0519118
0.00420425
0.0718519
0.00347629
0.0905108
0.0026061
0.110229
0.00167068
0.132005
0.000768971
0.156563
-0.000211301
0.18672
-0.000584272
0.230251
0.282868
0.00444196
-0.00281926
0.00534587
0.00528911
0.00471901
0.00391282
0.00297111
0.00195335
0.000837982
8.7312e-05
0.000216138
-0.00156038
0.000637475
-0.00363365
0.00118014
-0.00497019
0.00179601
-0.00575785
0.00245898
-0.0061428
0.00315705
-0.00623777
0.00388735
-0.00612862
0.00465469
-0.00587979
0.00547674
-0.00554181
-0.00516593
0.000232346
-0.00179273
0.000667863
-0.00406916
0.00121329
-0.00551562
0.00181763
-0.00636219
0.00245547
-0.00678064
0.00311707
-0.00689937
0.00380199
-0.00681353
0.00451555
-0.00659335
0.00526654
-0.00629279
-0.00595838
0.000238448
-0.00203117
0.000666054
-0.00449677
0.00118331
-0.00603287
0.00173883
-0.00691771
0.00230975
-0.00735156
0.00289003
-0.00747964
0.00348273
-0.00740624
0.00409515
-0.00720577
0.00473447
-0.00693211
-0.00662629
0.000232476
-0.00226365
0.000627683
-0.00489198
0.00108429
-0.00648948
0.00155356
-0.00738698
0.00201726
-0.00781526
0.00247429
-0.00793668
0.00293211
-0.00786406
0.00340129
-0.00767495
0.00389172
-0.00742254
-0.00714509
0.000213088
-0.00247674
0.000550681
-0.00522957
0.000915243
-0.00685404
0.0012642
-0.00773594
0.00158596
-0.00813701
0.0018853
-0.00823602
0.00217435
-0.00815311
0.00246715
-0.00796775
0.00277705
-0.00773244
-0.00748442
0.000179715
-0.00265645
0.00043551
-0.00548536
0.000680172
-0.0070987
0.000880875
-0.00793664
0.00103428
-0.00829042
0.00115144
-0.00835317
0.00124869
-0.00825036
0.0013424
-0.00806146
0.00144601
-0.00783606
-0.0076201
0.000132668
-0.00278912
0.000285177
-0.00563787
0.000387541
-0.00720107
0.00041988
-0.00796898
0.000388091
-0.00825863
0.000309101
-0.00827418
0.000202509
-0.00814377
8.72437e-05
-0.0079462
-2.02923e-05
-0.00772852
-0.00750981
7.3211e-05
-0.00286233
0.000104949
-0.00566961
4.93311e-05
-0.00714545
-9.83385e-05
-0.00782131
-0.000322757
-0.00803422
-0.000602093
-0.00799484
-0.000914963
-0.0078309
-0.00124404
-0.00761712
-0.00157769
-0.00739487
-0.00719101
2.42266e-06
-0.00286475
-9.79716e-05
-0.00556922
-0.00032014
-0.00692328
-0.000651234
-0.00749022
-0.00106727
-0.00761818
-0.00154298
-0.00751914
-0.00205684
-0.00731704
-0.002593
-0.00708095
-0.00314043
-0.00684745
-0.00663863
-7.47696e-05
-0.00278998
-0.000315355
-0.00532863
-0.000705572
-0.00653306
-0.00121618
-0.00697961
-0.00181577
-0.00701859
-0.00247721
-0.00685769
-0.00318012
-0.00661413
-0.00391102
-0.00635005
-0.00466214