/*--------------------------------*- C++ -*----------------------------------*\
  =========                 |
  \\      /  F ield         | OpenFOAM: The Open Source CFD Toolbox
   \\    /   O peration     | Website:  https://openfoam.org
    \\  /    A nd           | Version:  7
     \\/     M anipulation  |
\*---------------------------------------------------------------------------*/
FoamFile
{
    version     2.0;
    format      ascii;
    class       surfaceScalarField;
    location    "34";
    object      phi;
}
// * * * * * * * * * * * * * * * * * * * * * * * * * * * * * * * * * * * * * //

dimensions      [0 3 -1 0 0 0 0];

internalField   nonuniform List<scalar> 
3880
(
0.000137823
-0.0025059
0.00236808
0.000432666
-0.00414257
0.00384773
0.00083861
-0.00382727
0.00342132
0.00132045
-0.00224646
0.00176463
0.00183889
0.000140313
-0.000658758
0.00235476
0.00300378
-0.00351966
0.00283711
0.00610448
-0.00658683
0.00326802
0.00926785
-0.00969876
0.00364112
0.012361
-0.0127341
0.0152678
0.00395345
-0.0155801
0.000109214
-0.00261511
0.000365001
-0.00439836
0.000745056
-0.00420732
0.00123059
-0.00273199
0.00179109
-0.000420186
0.00238852
0.00240635
0.002987
0.005506
0.00356009
0.00869476
0.00409138
0.0118297
0.0147908
0.00456832
8.05365e-05
-0.00269565
0.000298384
-0.0046162
0.000654519
-0.00456346
0.00114776
-0.00322524
0.00175934
-0.00103176
0.00245486
0.00171082
0.00319471
0.00476616
0.00394308
0.00794639
0.00467188
0.0111009
0.0141048
0.00535791
5.29369e-05
-0.00274859
0.000234925
-0.00479819
0.000567764
-0.00489629
0.00106782
-0.00372529
0.00173073
-0.00169467
0.00253022
0.000911331
0.00342625
0.00387013
0.00437494
0.0069977
0.00533542
0.0101404
0.0131688
0.00627146
2.83016e-05
-0.00277689
0.000178461
-0.00494835
0.000488488
-0.00520632
0.000990233
-0.00422704
0.0016955
-0.00239993
0.00259124
1.55876e-05
0.00364323
0.00281814
0.00480408
0.00583685
0.00602131
0.0089232
0.0119471
0.00724299
9.45851e-06
-0.00278635
0.000134816
-0.00507371
0.00042446
-0.00549596
0.000921017
-0.0047236
0.00165192
-0.00313084
0.00262177
-0.000954255
0.00381017
0.00162974
0.00517524
0.00447178
0.00665862
0.00743983
0.0104145
0.0081912
-8.1245e-07
-0.00278553
0.000111419
-0.00518594
0.000387634
-0.00577218
0.00087432
-0.00521028
0.00161081
-0.00386733
0.00262075
-0.00196419
0.00390523
0.000345247
0.00544032
0.0029367
0.00717502
0.00570512
0.00856226
0.00902725
1.07322e-07
-0.00278564
0.000116216
-0.00530205
0.000392497
-0.00604846
0.000871252
-0.00568904
0.0015967
-0.00459278
0.00260805
-0.00297554
0.00393139
-0.000978096
0.00557312
0.00129497
0.00751161
0.00376664
0.00640362
0.00967025
1.39963e-05
-0.00279964
0.00015587
-0.00544392
0.000452573
-0.00634516
0.000935001
-0.00617146
0.00164309
-0.00530087
0.00262266
-0.00395511
0.00391986
-0.0022753
0.00557711
-0.000362277
0.00762884
0.0017149
0.0039744
0.0100581
4.36075e-05
-0.00284324
0.000233587
-0.0056339
0.000575525
-0.0066871
0.00108279
-0.00667872
0.00178199
-0.00600007
0.00271174
-0.00488487
0.00391988
-0.00348343
0.00546617
-0.00190857
0.00742914
-0.000248071
0.0100799
0.00132368
0.00343718
0.074971
-0.0744548
0.00227221
0.105515
-0.10435
0.000968421
0.13116
-0.129856
-5.31899e-05
0.153183
-0.152161
-0.000424085
0.172401
-0.17203
-0.000272103
0.191207
-0.191359
0.000290466
0.214283
-0.214846
0.000428701
0.246978
-0.247117
0.00034183
0.296149
-0.296062
0.34976
-0.349418
0.00447725
0.0750621
0.00363243
0.106359
0.00253912
0.132253
0.00167612
0.154046
0.00131917
0.172758
0.00141164
0.191114
0.00173444
0.21396
0.00168693
0.247026
0.00105
0.296786
0.35081
0.00569054
0.0747295
0.00517364
0.106876
0.00428546
0.133141
0.0035062
0.154825
0.00310783
0.173157
0.00309267
0.191129
0.0032198
0.213833
0.00290537
0.24734
0.00178377
0.297908
0.352594
0.00705012
0.0739508
0.00685657
0.10707
0.00615028
0.133848
0.00540457
0.155571
0.00492767
0.173633
0.00475805
0.191299
0.0046879
0.213903
0.00409827
0.24793
0.00250922
0.299497
0.355103
0.00850553
0.0726883
0.00863498
0.10694
0.00808881
0.134394
0.00734156
0.156318
0.00674749
0.174228
0.00639899
0.191648
0.00612123
0.214181
0.00527523
0.248776
0.00322861
0.301543
0.358331
0.00999222
0.0708873
0.0104527
0.10648
0.0100514
0.134795
0.00927489
0.157094
0.00853181
0.174971
0.00798186
0.192197
0.00748552
0.214677
0.0063951
0.249866
0.00391028
0.304028
0.362242
0.0114409
0.0684736
0.012268
0.105653
0.0120177
0.135046
0.011196
0.157916
0.0102807
0.175886
0.00951219
0.192966
0.00880258
0.215387
0.00748793
0.251181
0.00458306
0.306933
0.366825
0.012761
0.0653828
0.013988
0.104426
0.0138959
0.135138
0.0130245
0.158788
0.0119249
0.176985
0.010919
0.193972
0.00998674
0.216319
0.00846263
0.252705
0.00518671
0.310209
0.372011
0.0139215
0.0615194
0.0156692
0.102678
0.0157742
0.135033
0.0148541
0.159708
0.0135602
0.178279
0.0123103
0.195222
0.0111702
0.217459
0.00944345
0.254432
0.0057968
0.313856
0.377808
0.0146559
0.0569433
0.0169147
0.100419
0.0172916
0.134656
0.0163899
0.160609
0.0149574
0.179712
0.0134326
0.196747
0.0121174
0.218774
0.0101775
0.256372
0.00634341
0.31769
0.384152
-0.000383009
0.0694522
-0.0121259
-0.0103411
0.110378
-0.0162936
0.140608
-0.0182707
0.162586
-0.0170976
0.178539
-0.0137989
0.193448
-0.00946195
0.214438
-0.00582201
0.252732
-0.00314637
0.315014
0.381005
0.000804518
0.0797497
-0.011102
-0.00753907
0.118721
-0.0132864
0.146356
-0.0158993
0.165199
-0.0157703
0.17841
-0.0135702
0.191248
-0.0101348
0.211002
-0.00673751
0.249334
-0.00370764
0.311984
0.377298
0.00200267
0.0880078
-0.0102608
-0.00483541
0.125559
-0.0098504
0.151371
-0.0124256
0.167774
-0.0129058
0.17889
-0.0116523
0.189994
-0.00913622
0.208486
-0.00636647
0.246565
-0.00355825
0.309176
0.373739
0.00343125
0.093395
-0.0088184
-0.00165301
0.130644
-0.00645047
0.156168
-0.00964513
0.170969
-0.011115
0.18036
-0.0109793
0.189859
-0.00942578
0.206933
-0.00689058
0.244029
-0.00387736
0.306163
0.369862
0.0040365
0.0963658
-0.00700731
0.00115383
0.133526
-0.00244969
0.159772
-0.00558538
0.174105
-0.00769646
0.182471
-0.00857477
0.190737
-0.00817814
0.206536
-0.00664719
0.242499
-0.00402718
0.303543
0.365835
0.00471473
0.0974599
-0.00580882
0.00299561
0.135245
-0.000206528
0.162974
-0.00345268
0.177351
-0.00595539
0.184974
-0.00740318
0.192185
-0.00753521
0.206668
-0.00619598
0.241159
-0.00366276
0.30101
0.362172
0.00566033
0.0968274
-0.00502786
0.00575922
0.135146
0.00355772
0.165175
9.40403e-05
0.180815
-0.00320618
0.188274
-0.0056839
0.194662
-0.00690889
0.207893
-0.00643766
0.240688
-0.00406319
0.298635
0.358109
0.0059498
0.0959341
-0.00505646
0.00613856
0.134958
0.00450407
0.16681
0.00164791
0.183671
-0.00134815
0.19127
-0.00378124
0.197095
-0.00524738
0.209359
-0.00524082
0.240682
-0.00345278
0.296847
0.354656
0.00770943
0.0939903
-0.00576562
0.00867487
0.133992
0.00726144
0.168223
0.00409225
0.18684
0.00038179
0.19498
-0.00286037
0.200338
-0.00501915
0.211518
-0.00543224
0.241095
-0.00364355
0.295058
0.351013
0.00597078
-0.00436516
0.00732761
0.0071066
0.00513237
0.00234849
-0.000465335
-0.00270525
-0.0038708
-0.00292451
0.012581
-0.0161245
-0.0085824
0.0155642
-0.0140853
0.0177229
-0.0124195
0.0191549
-0.0102504
0.0200454
-0.00789775
0.0204249
-0.00618831
0.020478
-0.00508102
0.0203198
-0.00489822
0.0199242
-0.00537003
-0.00419885
0.0120729
-0.0197311
-0.00846632
0.0148216
-0.0168339
0.016755
-0.0143529
0.017983
-0.0114784
0.0186781
-0.00859283
0.0188745
-0.00638471
0.0187527
-0.00495926
0.0184068
-0.00455234
0.0178539
-0.00481711
-0.00389838
0.0119116
-0.0228411
-0.00880159
0.0141858
-0.0191082
0.0157374
-0.0159045
0.0166543
-0.0123953
0.0170878
-0.00902639
0.017081
-0.00637788
0.0167943
-0.00467253
0.0163085
-0.00406652
0.0156664
-0.00417506
-0.00349937
0.0116252
-0.0253422
-0.00912409
0.0133333
-0.0208163
0.0144375
-0.0170087
0.0150051
-0.0129629
0.0151688
-0.00919011
0.0149789
-0.00618804
0.0145664
-0.00425997
0.0139987
-0.00349882
0.0133246
-0.00350097
-0.00304215
0.0108385
-0.027173
-0.00900767
0.0119712
-0.021949
0.0126461
-0.0176836
0.0129007
-0.0132175
0.0128465
-0.00913587
0.0125321
-0.00587369
0.0120546
-0.00378247
0.0114685
-0.0029127
0.0108126
-0.00284503
-0.00256236
0.00932185
-0.0283381
-0.00815677
0.00994161
-0.0225688
0.0102671
-0.0180091
0.0102934
-0.0132438
0.0101073
-0.00894974
0.00974688
-0.00551327
0.00927439
-0.00330997
0.0087305
-0.00236881
0.00813453
-0.00224906
-0.00209163
0.00704361
-0.0289034
-0.00647825
0.00725931
-0.0227845
0.0073426
-0.0180924
0.00723877
-0.01314
0.00701058
-0.00872154
0.00667985
-0.00518254
0.00627579
-0.00290591
0.00582358
-0.00191659
0.00531986
-0.00174534
-0.00165739
0.00414376
-0.0289703
-0.00407686
0.00407612
-0.0227169
0.00401798
-0.0180343
0.00386889
-0.0129909
0.0036714
-0.00852406
0.00342876
-0.00493991
0.00313916
-0.00261631
0.00281144
-0.00158887
0.00242046
-0.00135435
-0.00128481
0.000861404
-0.0286523
-0.00117946
0.000615242
-0.0224707
0.000482509
-0.0179015
0.00035762
-0.012866
0.000234547
-0.00840098
0.000121053
-0.00482641
-3.24894e-05
-0.00246277
-0.000219112
-0.00140225
-0.000504888
-0.00106858
-0.00100732
-0.00254186
-0.0280516
0.00194119
-0.00288977
-0.0221228
-0.00303655
-0.0177547
-0.0031239
-0.0127787
-0.00315136
-0.00837352
-0.0031354
-0.00484237
-0.00314343
-0.00245473
-0.00319328
-0.0013524
-0.00333983
-0.000922018
-0.000810742
-0.00584009
-0.0272666
0.00505508
-0.00623958
-0.0217233
-0.00638975
-0.0176046
-0.00641918
-0.0127492
-0.0063516
-0.00844111
-0.00620993
-0.00498404
-0.00608813
-0.00257653
-0.00601626
-0.00142427
-0.0060547
-0.000883584
-0.000707365
-0.00887603
-0.0263847
0.0079941
-0.00928919
-0.0213101
-0.00944182
-0.0174519
-0.00940983
-0.0127812
-0.00926338
-0.00858756
-0.00901872
-0.0052287
-0.0087958
-0.00279945
-0.00863064
-0.00158943
-0.00858429
-0.000929935
-0.000683721
-0.0115451
-0.0254743
0.0106348
-0.0119465
-0.0209088
-0.0121072
-0.0172912
-0.0120221
-0.0128664
-0.0118229
-0.00878677
-0.0115091
-0.00554249
-0.0112229
-0.00308564
-0.0110005
-0.00181182
-0.0108989
-0.00103155
-0.000716711
-0.0138015
-0.0245835
0.0129107
-0.0141731
-0.0205372
-0.0143501
-0.0171142
-0.0142287
-0.0129878
-0.014007
-0.00900845
-0.0136643
-0.00588518
-0.0133562
-0.00339374
-0.0131157
-0.00205234
-0.0129909
-0.00115639
-0.000778022
-0.015644
-0.023735
0.0147954
-0.0159728
-0.0202084
-0.0161739
-0.016913
-0.0160403
-0.0131214
-0.0158262
-0.0092226
-0.0154967
-0.00621463
-0.0152062
-0.00368421
-0.0149855
-0.00227304
-0.0148689
-0.00127306
-0.000837118
-0.017101
-0.0229214
0.0162874
-0.0173786
-0.0199308
-0.0176084
-0.0166832
-0.0174918
-0.0132381
-0.0173121
-0.00940233
-0.017036
-0.00649073
-0.0167977
-0.00392249
-0.016631
-0.00243968
-0.0165519
-0.00135225
-0.000863044
-0.0182116
-0.0221048
0.017395
-0.0184389
-0.0197035
-0.0186951
-0.016427
-0.0186282
-0.013305
-0.0185051
-0.00952539
-0.0183178
-0.00667802
-0.0181606
-0.00407971
-0.018078
-0.00252227
-0.0180637
-0.00136658
-0.000825237
-0.0189931
-0.0212398
0.0181281
-0.0191964
-0.0195002
-0.0194725
-0.0161508
-0.0194918
-0.0132857
-0.0194449
-0.00957231
-0.0193765
-0.00674646
-0.0193247
-0.00413152
-0.0193526
-0.00249439
-0.0194294
-0.00128975
-0.000693703
-0.0194458
-0.0202986
0.0185046
-0.019692
-0.019254
-0.0199788
-0.0158641
-0.0201183
-0.0131462
-0.0201648
-0.00952578
-0.0202394
-0.00667191
-0.020315
-0.00405592
-0.0204783
-0.00233108
-0.0206731
-0.00109493
-0.000438698
-0.0195956
-0.019312
0.0186089
-0.0199679
-0.0188816
-0.0202243
-0.0156077
-0.0204984
-0.0128721
-0.0206625
-0.00936161
-0.0209057
-0.00642869
-0.0211411
-0.00382057
-0.0214692
-0.00200296
-0.0218202
-0.000743909
-3.34184e-05
-0.0823562
-0.0182201
0.0812643
-0.0856662
-0.0155716
-0.088043
-0.0132309
-0.0904214
-0.0104938
-0.0919025
-0.00788042
-0.0929687
-0.0053625
-0.0933934
-0.00339591
-0.0935717
-0.00182471
-0.0935507
-0.000764911
-5.02353e-05
-0.102135
-0.0165186
0.100433
-0.104539
-0.0131674
-0.106377
-0.011393
-0.108287
-0.00858307
-0.109529
-0.00663881
-0.110437
-0.00445466
-0.110829
-0.00300409
-0.111003
-0.0016503
-0.110991
-0.000777447
-6.78916e-05
-0.121933
-0.0146706
0.120085
-0.123841
-0.0112591
-0.125513
-0.00972134
-0.127008
-0.0070877
-0.128006
-0.00564089
-0.12871
-0.00375069
-0.129017
-0.00269708
-0.129152
-0.00151528
-0.129128
-0.000800876
-7.6963e-05
-0.143213
-0.0129608
0.141503
-0.144849
-0.00962302
-0.146292
-0.00827795
-0.147465
-0.00591512
-0.148289
-0.0048174
-0.148857
-0.00318257
-0.149115
-0.00243855
-0.149239
-0.00139164
-0.149221
-0.000818234
-7.80874e-05
-0.167909
-0.0111847
0.166133
-0.169336
-0.00819579
-0.170609
-0.00700503
-0.171596
-0.00492872
-0.172335
-0.0040778
-0.172835
-0.00268242
-0.173108
-0.00216549
-0.173269
-0.00123139
-0.173293
-0.000793776
-5.73992e-05
-0.197915
-0.00931704
0.196047
-0.199289
-0.00682096
-0.200564
-0.0057304
-0.201527
-0.00396584
-0.202271
-0.0033339
-0.202793
-0.00216042
-0.203174
-0.001784
-0.203457
-0.000948215
-0.203611
-0.000640294
8.58377e-06
-0.233541
-0.00705466
0.231279
-0.235408
-0.00495401
-0.236929
-0.00420929
-0.237939
-0.0029558
-0.238744
-0.00252888
-0.239367
-0.00153803
-0.239916
-0.00123454
-0.240387
-0.000477553
-0.24072
-0.000307325
9.2152e-05
-0.273502
-0.0050536
0.271501
-0.274596
-0.00386017
-0.275675
-0.00313075
-0.27665
-0.00198014
-0.277583
-0.00159618
-0.278294
-0.000826429
-0.278955
-0.000573706
-0.279443
1.061e-05
-0.279794
4.36389e-05
0.000170747
-0.302183
-0.00240236
0.299532
-0.304822
-0.00122124
-0.30693
-0.00102317
-0.3082
-0.000709353
-0.309183
-0.000613403
-0.309693
-0.000316763
-0.310118
-0.000148963
-0.310257
0.000150128
-0.31036
0.000146691
0.000116661
-0.322318
0.319915
-0.323539
-0.324562
-0.325271
-0.325885
-0.326201
-0.32635
-0.3262
-0.326054
-0.0216711
0.0833078
0.0196276
-0.0227829
0.101545
-0.0232144
0.120516
-0.0230514
0.14134
-0.0223479
0.16543
-0.0208729
0.194572
-0.018467
0.228873
-0.0124294
0.265463
-0.0078034
0.294906
0.312112
-0.0206621
0.0846385
0.0193314
-0.0215615
0.102444
-0.0218167
0.120771
-0.0214969
0.14102
-0.020656
0.164589
-0.0191084
0.193024
-0.0165605
0.226325
-0.0121707
0.261074
-0.00682888
0.289564
0.305283
-0.0197409
0.0857109
0.0186685
-0.0204337
0.103137
-0.0205366
0.120874
-0.020135
0.140619
-0.0192614
0.163715
-0.01775
0.191513
-0.0152565
0.223831
-0.011307
0.257124
-0.00617573
0.284433
0.299107
-0.018667
0.0866389
0.0177391
-0.0191673
0.103637
-0.0191098
0.120817
-0.018616
0.140125
-0.0177087
0.162808
-0.016233
0.190037
-0.0138562
0.221455
-0.0102832
0.253551
-0.00549925
0.279649
0.293608
-0.0174219
0.0874475
0.0166132
-0.0177632
0.103979
-0.0175729
0.120626
-0.017
0.139552
-0.0160668
0.161875
-0.0146318
0.188602
-0.0124073
0.21923
-0.00916458
0.250308
-0.00485293
0.275337
0.288755
-0.0160199
0.0881269
0.0153405
-0.0162089
0.104168
-0.0159084
0.120326
-0.0152774
0.138921
-0.0143357
0.160933
-0.0129595
0.187226
-0.0109131
0.217184
-0.00800096
0.247396
-0.00422602
0.271562
0.284529
-0.0144965
0.0886649
0.0139585
-0.0145312
0.104202
-0.014128
0.119923
-0.01345
0.138243
-0.012514
0.159997
-0.0112168
0.185929
-0.00937096
0.215338
-0.00681502
0.24484
-0.00359437
0.268342
0.280935
-0.0128855
0.0890493
0.0125011
-0.0127697
0.104087
-0.0122668
0.11942
-0.0115452
0.137522
-0.0106218
0.159073
-0.00941803
0.184725
-0.00779014
0.21371
-0.00561618
0.242666
-0.00295178
0.265677
0.277983
-0.0112186
0.0892649
0.0110031
-0.0109607
0.103829
-0.0103608
0.11882
-0.00959807
0.136759
-0.00868996
0.158165
-0.00758775
0.183623
-0.00618864
0.212311
-0.00441103
0.240889
-0.00230176
0.263568
0.275681
-0.00952733
0.0892917
0.00950051
-0.00913832
0.10344
-0.00844126
0.118123
-0.00764021
0.135958
-0.00674775
0.157273
-0.00575246
0.182627
-0.00458774
0.211146
-0.00321109
0.239512
-0.00165346
0.26201
0.274028
-0.00784845
0.0891027
0.00803745
-0.00734432
0.102936
-0.00654318
0.117322
-0.00570651
0.135121
-0.00482671
0.156393
-0.00393851
0.181739
-0.00300686
0.210215
-0.00202877
0.238534
-0.00101408
0.260996
0.273014
-0.00623214
0.0886962
0.0066386
-0.00561512
0.102318
-0.00471271
0.116419
-0.00383842
0.134247
-0.00296886
0.155524
-0.00217904
0.180949
-0.00146833
0.209504
-0.000874256
0.23794
-0.000390268
0.260512
0.272623
-0.00473199
0.0880883
0.00533988
-0.00399367
0.10158
-0.00300185
0.115428
-0.00208603
0.133331
-0.00122966
0.154667
-0.00053335
0.180253
-5.0179e-05
0.209021
0.000216137
0.237674
0.000200715
0.260527
0.272824
-0.00337948
0.0873073
0.00416051
-0.00250477
0.100705
-0.00145102
0.114374
-0.000499329
0.132379
0.000367428
0.1538
0.00105593
0.179565
0.00138622
0.20869
0.00128365
0.237776
0.000774089
0.261037
0.273598
-0.00219501
0.0863944
0.00310794
-0.00116829
0.0996787
-0.000126287
0.113332
0.00102865
0.131224
0.00195775
0.152871
0.0025657
0.178957
0.00271541
0.208541
0.00229204
0.2382
0.0013205
0.262008
0.274919
-0.00118848
0.0854054
0.00217746
-4.98456e-05
0.0985401
0.00124614
0.112036
0.00241927
0.130051
0.0033574
0.151933
0.00392001
0.178394
0.00391856
0.208542
0.00320775
0.23891
0.00181487
0.263401
0.276733
-0.000364855
0.0844232
0.00134706
0.00110088
0.0970744
0.0024131
0.110724
0.00364474
0.128819
0.00461709
0.150961
0.00516174
0.177849
0.00504252
0.208661
0.00407395
0.239879
0.00228845
0.265186
0.279022
0.000372384
0.0834685
0.000582298
0.00200212
0.0954446
0.00335444
0.109371
0.0046379
0.127536
0.00564087
0.149958
0.00617677
0.177314
0.00597097
0.208867
0.00479628
0.241054
0.00267873
0.267304
0.281701
0.00118857
0.082455
-0.00017502
0.00286319
0.09377
0.00425715
0.107977
0.0055875
0.126206
0.0066295
0.148916
0.00716968
0.176773
0.00688753
0.209149
0.0055128
0.242428
0.00307378
0.269743
0.284774
0.00145789
0.0818586
-0.000861489
0.00320036
0.0920275
0.00463861
0.106539
0.0059941
0.12485
0.00706837
0.147842
0.0076389
0.176203
0.0073551
0.209433
0.00590114
0.243882
0.00327545
0.272369
0.28805
-0.0717955
0.0733089
0.0803452
-0.0634652
0.0836972
-0.0572884
0.100362
-0.0508284
0.11839
-0.0443735
0.141387
-0.0375532
0.169382
-0.029852
0.201732
-0.0208776
0.234908
-0.0106866
0.262178
0.277363
-0.0842094
0.0659606
0.0915576
-0.0766473
0.0761351
-0.0696279
0.0933429
-0.0620485
0.110811
-0.0547107
0.134049
-0.0466688
0.161341
-0.0373774
0.192441
-0.0264229
0.223953
-0.0139065
0.249661
0.263457
-0.0979715
0.0585284
0.105404
-0.0903323
0.0684959
-0.0826842
0.0856948
-0.0745076
0.102634
-0.0661589
0.1257
-0.0563997
0.151581
-0.045077
0.181118
-0.0316322
0.210509
-0.0161012
0.23413
0.247356
-0.114676
0.0515294
0.121675
-0.107091
0.0609104
-0.0992535
0.0778577
-0.0904471
0.0938278
-0.0808018
0.116055
-0.0691466
0.139926
-0.0555004
0.167472
-0.0391628
0.194171
-0.0206058
0.215573
0.22675
-0.134621
0.0441252
0.142026
-0.127202
0.0534906
-0.118552
0.0692078
-0.108427
0.0837027
-0.0967724
0.104401
-0.0825058
0.12566
-0.0657554
0.150721
-0.045717
0.174133
-0.0230409
0.192897
0.203709
-0.160503
0.0374335
0.167195
-0.152567
0.0455551
-0.142824
0.0594649
-0.13122
0.0720984
-0.117311
0.0904914
-0.100264
0.108612
-0.0799551
0.130413
-0.0557851
0.149963
-0.0294143
0.166526
0.174295
-0.189614
0.0295011
0.197546
-0.180859
0.0368008
-0.169282
0.0478877
-0.155298
0.0581139
-0.138078
0.073272
-0.116872
0.0874066
-0.0912162
0.104757
-0.0615377
0.120284
-0.0301394
0.135128
0.144155
-0.225773
0.0215435
0.23373
-0.215247
0.0262755
-0.201744
0.0343841
-0.185251
0.0416213
-0.164502
0.052523
-0.13906
0.0619642
-0.108792
0.0744887
-0.0749461
0.0864381
-0.0397631
0.099945
0.104392
-0.255402
0.0104064
0.26654
-0.24203
0.0129032
-0.224904
0.0172576
-0.204213
0.0209302
-0.178251
0.0265615
-0.147572
0.0312851
-0.111374
0.0382906
-0.069504
0.0445684
-0.0243443
0.0547853
0.0800479
-0.32663
0.337036
-0.313727
-0.296469
-0.275539
-0.248977
-0.217692
-0.179402
-0.134833
-0.0800479
-0.00158177
0.0825172
-0.000590179
-0.00338821
0.0933641
-0.00483855
0.106854
-0.00596025
0.122797
-0.00668746
0.142753
-0.00697157
0.167479
-0.00654792
0.197122
-0.00527113
0.232454
-0.00397669
0.265245
0.33306
-0.000974201
0.0848914
-0.00140005
-0.00298051
0.0953704
-0.00456332
0.108437
-0.00573663
0.12397
-0.00651124
0.143527
-0.00680291
0.16777
-0.00644395
0.196763
-0.00519489
0.231204
-0.00360191
0.263652
0.329458
-0.000189948
0.0872574
-0.00217605
-0.00217725
0.0973577
-0.00379354
0.110053
-0.00498911
0.125166
-0.00579549
0.144334
-0.00610913
0.168084
-0.00584873
0.196503
-0.0047039
0.23006
-0.00329268
0.262241
0.326165
0.000660558
0.0895637
-0.00296684
-0.00135918
0.0993774
-0.00291376
0.111608
-0.00409064
0.126343
-0.00488213
0.145125
-0.00523893
0.168441
-0.00505088
0.196315
-0.00409138
0.2291
-0.00290258
0.261052
0.323262
0.00152677
0.0918282
-0.00379127
-0.00055802
0.101462
-0.0020387
0.113088
-0.00317844
0.127482
-0.00393823
0.145885
-0.00431398
0.168816
-0.00419209
0.196193
-0.00341943
0.228327
-0.00246851
0.260101
0.320794
0.00244805
0.0940187
-0.00463855
0.000383055
0.103527
-0.0010818
0.114553
-0.00218814
0.128589
-0.00292304
0.14662
-0.00331611
0.16921
-0.00328024
0.196157
-0.00269078
0.227738
-0.00199868
0.259409
0.318795
0.00343031
0.096086
-0.00549763
0.00148436
0.105473
-5.02561e-05
0.116088
-0.00109146
0.12963
-0.0018022
0.147331
-0.00222002
0.169627
-0.00229044
0.196227
-0.00189576
0.227343
-0.00148811
0.259001
0.317307
0.00445341
0.097988
-0.00635537
0.00261592
0.107311
0.00118116
0.117523
8.21718e-05
0.130729
-0.000582014
0.147995
-0.00103395
0.170079
-0.00119714
0.196391
-0.0010376
0.227184
-0.000933984
0.258898
0.316373
0.00549596
0.0996834
-0.00719136
0.00378219
0.109024
0.00241028
0.118895
0.00140833
0.131731
0.000716467
0.148687
0.000220153
0.170576
2.05854e-05
0.19659
-0.000145257
0.22735
-0.000333872
0.259086
0.316039
0.00653426
0.101127
-0.00797782
0.00496602
0.110593
0.00366384
0.120197
0.002722
0.132673
0.00205958
0.149349
0.00155962
0.171076
0.00117077
0.196979
0.00083585
0.227685
0.000273081
0.259649
0.316312
0.00755995
0.102242
-0.00867491
0.00614523
0.112007
0.00492748
0.121415
0.00404342
0.133557
0.00341505
0.149978
0.00288746
0.171603
0.00238211
0.197484
0.00180797
0.228259
0.000869049
0.260588
0.317181
0.00855008
0.102961
-0.00926887
0.0073222
0.113235
0.00619616
0.122541
0.00536913
0.134384
0.00477263
0.150574
0.00422324
0.172153
0.0036037
0.198104
0.00278613
0.229076
0.00148325
0.261891
0.318665
0.00946066
0.103234
-0.00973406
0.00845487
0.114241
0.00743369
0.123562
0.00666668
0.135151
0.00610415
0.151137
0.00554297
0.172714
0.00481216
0.198835
0.00376429
0.230124
0.00210045
0.263555
0.320765
0.0102618
0.103027
-0.0100552
0.00951295
0.11499
0.00861183
0.124463
0.00790586
0.135857
0.00738225
0.15166
0.00681702
0.173279
0.00598462
0.199667
0.00472187
0.231387
0.00270615
0.265571
0.323471
0.0109264
0.102324
-0.0102229
0.0104748
0.115441
0.00971227
0.125225
0.00906594
0.136503
0.00858816
0.152138
0.00802821
0.173839
0.00711324
0.200582
0.00565233
0.232848
0.00330017
0.267923
0.326771
0.0114227
0.10114
-0.0102391
0.0113045
0.11556
0.0106968
0.125833
0.0101083
0.137092
0.00967953
0.152567
0.0091354
0.174383
0.00816083
0.201557
0.00652368
0.234485
0.00386281
0.270584
0.330634
0.0117508
0.0995098
-0.0101201
0.0120183
0.115292
0.0115772
0.126274
0.0110468
0.137622
0.010669
0.152944
0.0101551
0.174897
0.00914361
0.202568
0.00735134
0.236277
0.00440498
0.27353
0.335039
0.0118369
0.097566
-0.00989308
0.0125026
0.114626
0.0122426
0.126534
0.0117842
0.13808
0.0114615
0.153267
0.0109895
0.175369
0.00997179
0.203586
0.00807161
0.238177
0.00488932
0.276712
0.339928
0.0119274
0.0952727
-0.00963409
0.013004
0.11355
0.0129044
0.126634
0.0124989
0.138486
0.0122144
0.153552
0.0117852
0.175798
0.0107655
0.204606
0.00875929
0.240184
0.00534963
0.280122
0.345278
0.0114429
0.0931355
-0.00930572
0.0129138
0.112079
0.013063
0.126485
0.0127477
0.138801
0.0125204
0.153779
0.0121573
0.176161
0.0112257
0.205537
0.00919708
0.242212
0.00569754
0.283621
0.350976
-0.0455469
0.0870634
0.0516191
-0.0398067
0.106338
-0.0354408
0.122119
-0.0302603
0.133621
-0.0249156
0.148434
-0.0197034
0.170949
-0.0145042
0.200338
-0.00905026
0.236758
-0.00449034
0.279061
0.346485
-0.0691064
0.0810664
0.0751034
-0.0625621
0.0997942
-0.0551376
0.114694
-0.0466663
0.125149
-0.0389128
0.140681
-0.0308783
0.162915
-0.0227931
0.192253
-0.0145966
0.228562
-0.00714311
0.271608
0.339342
-0.0935664
0.0726814
0.101951
-0.0833376
0.0895653
-0.0732882
0.104645
-0.0636698
0.115531
-0.0540279
0.131039
-0.0431259
0.152013
-0.032117
0.181244
-0.0207649
0.21721
-0.00983544
0.260679
0.329507
-0.117731
0.0613828
0.129029
-0.104465
0.0763001
-0.0928949
0.0930745
-0.0818555
0.104492
-0.0700931
0.119276
-0.05706
0.13898
-0.043073
0.167257
-0.0279437
0.20208
-0.0130775
0.245812
0.316429
-0.144501
0.0478149
0.158069
-0.130577
0.0623765
-0.117048
0.0795453
-0.103562
0.0910057
-0.0898186
0.105533
-0.0745537
0.123715
-0.0568608
0.149564
-0.0369981
0.182218
-0.0169199
0.225734
0.299509
-0.176276
0.0356791
0.188412
-0.162282
0.0483825
-0.14654
0.0638028
-0.130714
0.0751805
-0.114206
0.0890247
-0.0954446
0.104953
-0.0735699
0.127689
-0.0484969
0.157145
-0.0226982
0.199935
0.276811
-0.211868
0.0249893
0.222558
-0.199072
0.0355863
-0.182889
0.04762
-0.165388
0.0576797
-0.145685
0.0693217
-0.123024
0.082292
-0.0962959
0.100962
-0.0647907
0.125639
-0.0311666
0.166311
0.245645
-0.25188
0.0170218
0.259848
-0.239801
0.0235071
-0.223741
0.0315594
-0.204654
0.0385932
-0.182176
0.0468441
-0.155891
0.0560065
-0.124261
0.069332
-0.0872448
0.0886228
-0.0457888
0.124855
0.199856
-0.306245
0.00791133
0.315355
-0.293795
0.011057
-0.277058
0.0148221
-0.256935
0.018471
-0.232843
0.0227522
-0.204703
0.027866
-0.17065
0.0352794
-0.128956
0.0469281
-0.0741905
0.0700902
0.125665
-0.372931
0.380843
-0.361874
-0.347052
-0.328581
-0.305829
-0.277963
-0.242683
-0.195755
-0.125665
0.00427155
0.0550102
-0.00766267
-3.39511e-05
0.0794089
-0.00332988
0.105247
-0.00646228
0.132162
-0.00881434
0.160421
-0.0100147
0.189612
-0.00949591
0.222039
-0.00800594
0.258358
-0.00487942
0.312229
0.375963
0.00362569
0.0583169
-0.00693243
-0.000282574
0.0833171
-0.00385373
0.108819
-0.00708098
0.135389
-0.00936689
0.162707
-0.0103262
0.190571
-0.00966501
0.221378
-0.00802825
0.256721
-0.00492681
0.309127
0.371036
0.00310196
0.0613594
-0.00614443
-0.000490114
0.0869092
-0.00403216
0.112361
-0.0071097
0.138466
-0.00917707
0.164774
-0.00986438
0.191259
-0.00909923
0.220613
-0.00741489
0.255037
-0.00462918
0.306342
0.366407
0.00260166
0.0641335
-0.00537576
-0.000729025
0.0902399
-0.00404114
0.115673
-0.00686206
0.141287
-0.00864775
0.16656
-0.00913395
0.191745
-0.00828217
0.219761
-0.00668064
0.253435
-0.00420217
0.303863
0.362205
0.00217098
0.0666398
-0.00467732
-0.000911665
0.0933225
-0.0039923
0.118753
-0.00652115
0.143816
-0.00800515
0.168044
-0.00827917
0.192019
-0.00736492
0.218847
-0.00588131
0.251952
-0.00370092
0.301683
0.358504
0.00188323
0.0688488
-0.00409215
-0.000948711
0.0961545
-0.00378622
0.121591
-0.00601077
0.146041
-0.00721417
0.169247
-0.0072942
0.192099
-0.0063618
0.217914
-0.00500924
0.250599
-0.00314023
0.299814
0.355364
0.00176291
0.0707432
-0.00365738
-0.000788129
0.0987055
-0.00334455
0.124147
-0.00526399
0.14796
-0.006222
0.170205
-0.00614933
0.192026
-0.00525434
0.217019
-0.00404977
0.249395
-0.00252572
0.29829
0.352838
0.00183481
0.0723148
-0.00340638
-0.000397599
0.100938
-0.00263224
0.126382
-0.00426908
0.149597
-0.00502416
0.17096
-0.00484276
0.191845
-0.00402023
0.216197
-0.00300401
0.248378
-0.00186305
0.297149
0.350975
0.00212376
0.0735579
-0.00336687
0.000232301
0.102829
-0.00166365
0.128278
-0.00304655
0.15098
-0.00364161
0.171555
-0.00339947
0.191603
-0.00267392
0.215471
-0.0018928
0.247597
-0.00115572
0.296412
0.349819
0.00265387
-0.00355074
0.00113365
-0.000444691
-0.00162585
-0.00210099
-0.00185685
-0.00123132
-0.000750708
-0.000401353
8.88022e-05
-0.00293205
0.000346871
-0.00589197
0.000757374
-0.00709761
0.00131497
-0.00723632
0.0020287
-0.00671381
0.00291871
-0.00577488
0.0040087
-0.00457342
0.00531363
-0.00321349
0.00684428
-0.00177872
-0.000414441
0.000140783
-0.00307283
0.000480131
-0.00623132
0.000977003
-0.00759448
0.00160896
-0.00786827
0.00237056
-0.00747541
0.00326827
-0.00667259
0.00431393
-0.00561908
0.00551923
-0.0044188
0.00690137
-0.00316086
-0.00197938
0.000197549
-0.00327038
0.000620265
-0.00665403
0.0012045
-0.00817871
0.00191566
-0.00857943
0.00274055
-0.0083003
0.00368001
-0.00761204
0.00474305
-0.00668212
0.00594362
-0.00561936
0.00729721
-0.00451446
-0.00348376
0.000251329
-0.00352171
0.000744946
-0.00714765
0.00139694
-0.0088307
0.00216538
-0.00934787
0.00303536
-0.00917028
0.00400794
-0.00858462
0.00509284
-0.00776702
0.00630395
-0.00683048
0.00765219
-0.00586269
-0.00495567
0.000293826
-0.00381553
0.000830895
-0.00768472
0.00151025
-0.00951006
0.00228675
-0.0101244
0.00314799
-0.0100315
0.00409888
-0.00953551
0.00515179
-0.00881993
0.00632041
-0.0079991
0.00761133
-0.00715361
-0.00635201
0.000317263
-0.0041328
0.000857594
-0.00822505
0.00150785
-0.0101603
0.00222352
-0.01084
0.0029975
-0.0108055
0.00384037
-0.0103784
0.00476829
-0.00974785
0.00579594
-0.00902675
0.00692915
-0.00828682
-0.00757963
0.000315362
-0.00444816
0.000810429
-0.00872012
0.00136719
-0.0107171
0.00194603
-0.0114189
0.00254728
-0.0114068
0.00318809
-0.0110192
0.00388895
-0.0104487
0.00466677
-0.00980457
0.0055301
-0.00915016
-0.00852778
0.000284116
-0.00473227
0.000682706
-0.00911871
0.00108293
-0.0111173
0.00145508
-0.011791
0.00180888
-0.0117606
0.00216852
-0.0113788
0.00255884
-0.010839
0.00299943
-0.0102452
0.00350264
-0.00965337
-0.00910199
0.000222263
-0.00495454
0.000476254
-0.0093727
0.000666534
-0.0113076
0.000778686
-0.0119032
0.000833101
-0.011815
0.000861383
-0.0114071
0.000891989
-0.0108696
0.000946561
-0.0102997
0.00103952
-0.00974633
-0.00924193
0.000131269
-0.00508581
0.000200722
-0.00944215
0.000142915
-0.0112498
-3.78052e-05
-0.0117225
-0.000306275
-0.0115465
-0.000627233
-0.0110862
-0.000969365
-0.0105275
-0.00131052
-0.00995858
-0.00163668
-0.00942017
-0.00893743
3.84923e-05
-0.0051243
-9.67428e-05
-0.00930692
-0.00042371
-0.0109228
-0.000908339
-0.0112378
-0.0015053
-0.0109495
-0.00217162
-0.0104198
-0.00287565
-0.00982347
-0.00359689
-0.00923733
-0.00432418
-0.00869288
-0.00820653
-8.89232e-05
-0.00503538
-0.000451638
-0.0089442
-0.00105136
-0.0103231
-0.00183023
-0.010459
-0.00273217
-0.0100476
-0.00371255
-0.00943946
-0.00474126
-0.00879476
-0.00580092