/*--------------------------------*- C++ -*----------------------------------*\
  =========                 |
  \\      /  F ield         | OpenFOAM: The Open Source CFD Toolbox
   \\    /   O peration     | Website:  https://openfoam.org
    \\  /    A nd           | Version:  7
     \\/     M anipulation  |
\*---------------------------------------------------------------------------*/
FoamFile
{
    version     2.0;
    format      ascii;
    class       volScalarField;
    location    "6.7";
    object      p;
}
// * * * * * * * * * * * * * * * * * * * * * * * * * * * * * * * * * * * * * //

dimensions      [0 2 -2 0 0 0 0];

internalField   nonuniform List<scalar> 
32000
(
0.3953
0.395635
0.395765
0.395851
0.395937
0.39605
0.396181
0.396333
0.396533
0.396818
0.397216
0.397735
0.398376
0.399135
0.400015
0.401021
0.402159
0.403437
0.40486
0.40643
0.408146
0.410005
0.411997
0.414112
0.416338
0.418664
0.42108
0.423573
0.426129
0.428736
0.43138
0.434048
0.436729
0.43941
0.44208
0.444728
0.447347
0.449934
0.452467
0.454878
0.395442
0.395736
0.395837
0.395891
0.395953
0.396047
0.396163
0.396298
0.396483
0.396752
0.39713
0.397627
0.398246
0.398983
0.399839
0.400818
0.401924
0.403164
0.404544
0.406067
0.407733
0.409539
0.411474
0.413525
0.41568
0.417931
0.420268
0.422681
0.425156
0.427682
0.430245
0.432831
0.435428
0.438025
0.44061
0.443174
0.445709
0.448212
0.450658
0.452997
0.395589
0.39584
0.395912
0.395937
0.395977
0.396053
0.396153
0.396275
0.396449
0.396707
0.397069
0.397547
0.398146
0.398862
0.399696
0.40065
0.401727
0.402933
0.404274
0.405754
0.407374
0.409128
0.411006
0.412993
0.415079
0.417256
0.419515
0.421847
0.424241
0.426684
0.429163
0.431664
0.434175
0.436684
0.43918
0.441655
0.444103
0.446518
0.448873
0.451136
0.395728
0.395929
0.395979
0.395981
0.396002
0.396062
0.396149
0.396263
0.396431
0.396681
0.397032
0.397495
0.398076
0.398773
0.399586
0.400518
0.40157
0.402746
0.404051
0.405492
0.407068
0.408773
0.410594
0.412518
0.414534
0.416637
0.418818
0.42107
0.423382
0.425741
0.428133
0.430546
0.432968
0.435386
0.43779
0.440173
0.442528
0.444853
0.447113
0.449294
0.395873
0.396026
0.396054
0.396037
0.396041
0.396085
0.396162
0.39627
0.396434
0.396679
0.397022
0.397472
0.398037
0.398718
0.399512
0.400423
0.401452
0.4026
0.403874
0.405279
0.406814
0.40847
0.410235
0.412095
0.414043
0.416072
0.418178
0.42035
0.422579
0.424851
0.427155
0.429477
0.431806
0.43413
0.436439
0.438726
0.440986
0.443215
0.445376
0.447471
0.396015
0.396118
0.396127
0.396094
0.396083
0.396115
0.396183
0.39629
0.396453
0.396696
0.397033
0.397474
0.398028
0.398694
0.399472
0.400364
0.401372
0.402496
0.403743
0.405115
0.40661
0.408219
0.409927
0.411724
0.413604
0.415563
0.417593
0.419686
0.42183
0.424015
0.426228
0.428458
0.430692
0.432919
0.435129
0.437316
0.439477
0.441606
0.443663
0.445667
0.396157
0.396212
0.396204
0.396156
0.396133
0.396156
0.396219
0.396326
0.396491
0.396733
0.397068
0.397504
0.39805
0.398704
0.399468
0.400344
0.401332
0.402436
0.403658
0.405001
0.406457
0.408018
0.40967
0.411406
0.413221
0.415109
0.417064
0.419077
0.421137
0.423232
0.425353
0.427488
0.429625
0.431752
0.433861
0.435945
0.438001
0.440025
0.441974
0.443881
0.396294
0.396304
0.396281
0.396221
0.39619
0.396207
0.396268
0.396376
0.396544
0.39679
0.397125
0.397561
0.398101
0.398747
0.399498
0.400359
0.401333
0.402419
0.40362
0.404934
0.406353
0.407866
0.409464
0.41114
0.41289
0.41471
0.416591
0.418524
0.420498
0.422503
0.42453
0.426568
0.428605
0.43063
0.432634
0.434611
0.43656
0.438474
0.440311
0.442116
0.396426
0.396391
0.396357
0.396289
0.396253
0.396268
0.396329
0.396439
0.396612
0.396863
0.397204
0.397642
0.398181
0.398819
0.39956
0.40041
0.401371
0.402443
0.403626
0.404913
0.406295
0.407762
0.409307
0.410925
0.412613
0.414364
0.416172
0.418025
0.419913
0.421828
0.42376
0.4257
0.427634
0.429554
0.43145
0.433317
0.435154
0.436955
0.438675
0.440374
0.396549
0.396472
0.396429
0.396357
0.396321
0.396335
0.396398
0.396513
0.396693
0.396952
0.397302
0.397746
0.398285
0.398919
0.399653
0.400494
0.401446
0.402508
0.403674
0.404935
0.406281
0.407704
0.409198
0.410761
0.412387
0.414072
0.415806
0.417579
0.419381
0.421205
0.423041
0.424881
0.426712
0.428524
0.430309
0.432063
0.433784
0.435468
0.437069
0.438655
0.396661
0.396545
0.396495
0.396423
0.39639
0.396408
0.396475
0.396595
0.396784
0.397055
0.397417
0.39787
0.398413
0.399045
0.399775
0.400611
0.401557
0.40261
0.40376
0.404997
0.40631
0.407691
0.409137
0.410645
0.412212
0.41383
0.415491
0.417184
0.418901
0.420633
0.422373
0.424112
0.425838
0.42754
0.429213
0.43085
0.432453
0.434016
0.435494
0.436962
0.396761
0.396607
0.396553
0.396485
0.396458
0.396482
0.396555
0.396684
0.396885
0.397171
0.397548
0.398012
0.39856
0.399195
0.399925
0.40076
0.401702
0.402747
0.403883
0.405096
0.406378
0.40772
0.40912
0.410576
0.412085
0.413638
0.415227
0.41684
0.41847
0.420111
0.421755
0.423392
0.425012
0.426603
0.42816
0.429679
0.431161
0.4326
0.433953
0.435299
0.396848
0.396658
0.396604
0.396542
0.396524
0.396555
0.396637
0.396778
0.396993
0.397297
0.39769
0.398168
0.398725
0.399366
0.4001
0.400937
0.401878
0.402916
0.404037
0.40523
0.406482
0.407788
0.409145
0.410552
0.412004
0.413493
0.415009
0.416543
0.418088
0.419638
0.421186
0.422721
0.424233
0.425712
0.427153
0.428552
0.429909
0.431223
0.432448
0.433668
0.396923
0.396699
0.396646
0.396592
0.396584
0.396625
0.396718
0.396873
0.397106
0.39743
0.397842
0.398335
0.398905
0.399556
0.400298
0.401139
0.40208
0.403112
0.40422
0.405393
0.406619
0.407892
0.409209
0.410568
0.411965
0.413391
0.414835
0.41629
0.417751
0.419211
0.420663
0.422097
0.423501
0.424867
0.426191
0.427468
0.428701
0.429887
0.430984
0.432073
0.396983
0.396729
0.396677
0.396633
0.396636
0.39669
0.396797
0.396968
0.397222
0.397566
0.397999
0.39851
0.399096
0.399761
0.400514
0.401363
0.402305
0.403331
0.404428
0.405583
0.406785
0.408028
0.409307
0.410622
0.411965
0.413328
0.414702
0.41608
0.417458
0.41883
0.420187
0.421519
0.422815
0.424069
0.425275
0.42643
0.427537
0.428595
0.429564
0.430519
0.397031
0.396747
0.396698
0.396663
0.396679
0.396747
0.39687
0.397062
0.397337
0.397704
0.398158
0.398689
0.399295
0.399978
0.400746
0.401604
0.402548
0.403569
0.404656
0.405795
0.406977
0.408191
0.409436
0.410708
0.411999
0.413301
0.414607
0.41591
0.417207
0.418492
0.419755
0.420986
0.422175
0.423317
0.424405
0.425439
0.426421
0.427351
0.428192
0.429009
0.397065
0.396754
0.396708
0.396682
0.39671
0.396794
0.396937
0.397151
0.39745
0.397841
0.398317
0.398871
0.399499
0.400204
0.400989
0.401858
0.402806
0.403824
0.404902
0.406028
0.40719
0.40838
0.409592
0.410823
0.412064
0.413307
0.414546
0.415777
0.416995
0.418194
0.419365
0.420496
0.42158
0.42261
0.423582
0.424496
0.425354
0.426156
0.426871
0.427549
0.397085
0.396749
0.396705
0.396687
0.396729
0.39683
0.396995
0.397234
0.397559
0.397974
0.398475
0.399055
0.399708
0.400435
0.40124
0.402121
0.403074
0.404091
0.405162
0.406277
0.407423
0.40859
0.409772
0.410963
0.412155
0.413342
0.414517
0.415677
0.416819
0.417934
0.419013
0.420047
0.421027
0.421948
0.422806
0.423602
0.424337
0.425014
0.425605
0.426142
0.397091
0.396732
0.396689
0.396678
0.396734
0.396855
0.397044
0.397309
0.397662
0.398103
0.398631
0.399237
0.399917
0.40067
0.401495
0.40239
0.40335
0.404367
0.405434
0.40654
0.407671
0.408817
0.40997
0.411123
0.412269
0.413401
0.414515
0.415608
0.416674
0.417707
0.418698
0.419636
0.420514
0.421329
0.422076
0.422757
0.423371
0.423926
0.424396
0.424792
0.397082
0.396702
0.396659
0.396654
0.396724
0.396866
0.397081
0.397376
0.397757
0.398226
0.398781
0.399416
0.400125
0.400905
0.401752
0.402662
0.40363
0.40465
0.405714
0.406812
0.40793
0.409056
0.410182
0.4113
0.412401
0.413482
0.414537
0.415563
0.416557
0.41751
0.418414
0.41926
0.42004
0.420751
0.421391
0.421959
0.422458
0.422892
0.423246
0.423501
0.397057
0.396656
0.396612
0.396613
0.396698
0.396863
0.397106
0.397432
0.397843
0.398341
0.398925
0.39959
0.400329
0.401136
0.402005
0.402932
0.403911
0.404936
0.405999
0.40709
0.408196
0.409304
0.410404
0.411488
0.412548
0.413578
0.414577
0.41554
0.416463
0.417339
0.418159
0.418915
0.419601
0.420212
0.420748
0.421209
0.421595
0.421914
0.422156
0.422273
0.397013
0.396593
0.396548
0.396555
0.396655
0.396844
0.397117
0.397474
0.397917
0.398445
0.39906
0.399756
0.400525
0.401361
0.402254
0.403198
0.404189
0.40522
0.406283
0.407369
0.408464
0.409555
0.410631
0.411683
0.412703
0.413686
0.41463
0.415532
0.416387
0.417189
0.417928
0.418599
0.419193
0.419709
0.420146
0.420504
0.420782
0.42099
0.421126
0.421109
0.396947
0.396509
0.396463
0.396477
0.396594
0.396808
0.397111
0.397502
0.397976
0.398537
0.399183
0.399911
0.400712
0.401576
0.402493
0.403456
0.404459
0.405498
0.406563
0.407644
0.40873
0.409805
0.410859
0.411881
0.412863
0.4138
0.414692
0.415535
0.416324
0.417054
0.417717
0.418305
0.418813
0.419238
0.419581
0.419841
0.420016
0.420119
0.420156
0.420009
0.396856
0.396403
0.396356
0.396378
0.396513
0.396753
0.397088
0.397512
0.39802
0.398613
0.399291
0.400052
0.400884
0.401777
0.402719
0.403702
0.404719
0.405766
0.406833
0.407912
0.408988
0.41005
0.411082
0.412076
0.413021
0.413916
0.414757
0.415543
0.41627
0.416931
0.41752
0.41803
0.418455
0.418794
0.419048
0.419216
0.419294
0.419298
0.419244
0.418973
0.396739
0.396271
0.396225
0.396256
0.39641
0.396677
0.397045
0.397503
0.398045
0.398671
0.399383
0.400176
0.401041
0.401963
0.40293
0.403933
0.404965
0.40602
0.40709
0.408167
0.409236
0.410284
0.411297
0.412263
0.413174
0.414026
0.414819
0.41555
0.416217
0.416813
0.417331
0.417766
0.418112
0.41837
0.41854
0.418622
0.418611
0.418523
0.418385
0.417999
0.396594
0.396114
0.396069
0.396111
0.396285
0.396581
0.396981
0.397473
0.39805
0.39871
0.399455
0.400282
0.401179
0.402129
0.403122
0.404145
0.405193
0.406257
0.407331
0.408405
0.409467
0.410503
0.411497
0.412437
0.413314
0.414126
0.414873
0.415552
0.41616
0.416693
0.417143
0.417506
0.417778
0.417959
0.418052
0.418055
0.417961
0.417788
0.417576
0.417083
0.396419
0.395929
0.395887
0.395941
0.396137
0.396461
0.396894
0.397421
0.398032
0.398727
0.399507
0.400367
0.401295
0.402275
0.403292
0.404337
0.405399
0.406473
0.407551
0.408623
0.409679
0.410702
0.411678
0.412592
0.413437
0.414211
0.414912
0.41554
0.416092
0.416564
0.416949
0.417244
0.417445
0.417556
0.417576
0.417505
0.417336
0.417088
0.41681
0.416221
0.396214
0.395715
0.395679
0.395746
0.395965
0.396317
0.396782
0.397343
0.397991
0.398722
0.399537
0.40043
0.401389
0.402397
0.403439
0.404504
0.405581
0.406665
0.407746
0.408817
0.409865
0.410877
0.411834
0.412723
0.413537
0.414273
0.41493
0.415509
0.416007
0.41642
0.416742
0.416971
0.417107
0.41715
0.417104
0.416967
0.41673
0.416414
0.416081
0.415407
0.395977
0.395472
0.395442
0.395526
0.395768
0.396149
0.396646
0.397241
0.397924
0.398691
0.399542
0.400468
0.401458
0.402493
0.403559
0.404643
0.405736
0.406828
0.407912
0.408981
0.410023
0.411022
0.41196
0.412825
0.413607
0.414306
0.414922
0.415453
0.415898
0.416253
0.416515
0.416681
0.416754
0.416735
0.416628
0.41643
0.416134
0.415758
0.415379
0.414634
0.395707
0.395199
0.395178
0.39528
0.395546
0.395955
0.396483
0.397111
0.39783
0.398634
0.39952
0.40048
0.401499
0.40256
0.403649
0.404752
0.405859
0.406959
0.408046
0.409113
0.410147
0.411132
0.412051
0.41289
0.413642
0.414305
0.414879
0.415364
0.415756
0.416055
0.416258
0.416366
0.416379
0.416302
0.416138
0.415886
0.415537
0.415111
0.414697
0.413894
0.395402
0.394894
0.394884
0.395006
0.395298
0.395735
0.396293
0.396954
0.397707
0.398547
0.399468
0.400461
0.401509
0.402596
0.403707
0.404828
0.405947
0.407055
0.408144
0.409206
0.410232
0.411203
0.412102
0.412915
0.413636
0.414263
0.414796
0.415234
0.415576
0.415819
0.415965
0.416015
0.415971
0.415839
0.415623
0.415323
0.414929
0.414463
0.414023
0.413179
0.395061
0.394555
0.394559
0.394703
0.395021
0.395486
0.396074
0.396767
0.397553
0.398428
0.399385
0.40041
0.401486
0.402598
0.403729
0.404866
0.405997
0.407111
0.4082
0.409258
0.410273
0.411228
0.412106
0.412892
0.413582
0.414174
0.414665
0.415057
0.415347
0.415536
0.415626
0.415619
0.41552
0.415336
0.415071
0.414728
0.414297
0.4138
0.413347
0.41248
0.394683
0.394182
0.394202
0.394369
0.394715
0.395208
0.395825
0.396548
0.397367
0.398276
0.399267
0.400324
0.401427
0.402562
0.403712
0.404865
0.406005
0.407123
0.408211
0.409263
0.410267
0.411204
0.412058
0.412817
0.413475
0.414029
0.414478
0.414822
0.415061
0.415196
0.41523
0.415168
0.415015
0.41478
0.414469
0.414087
0.413626
0.41311
0.412657
0.411787
0.394265
0.393772
0.393811
0.394003
0.394377
0.394899
0.395545
0.396297
0.397147
0.39809
0.399113
0.4002
0.40133
0.402486
0.403654
0.40482
0.405968
0.407088
0.408174
0.409218
0.410207
0.411125
0.411954
0.412683
0.413307
0.413822
0.414228
0.414523
0.414709
0.414789
0.414767
0.414649
0.414442
0.414156
0.413801
0.413383
0.412899
0.412373
0.411936
0.411089
0.393807
0.393324
0.393383
0.393603
0.394006
0.394558
0.395231
0.396012
0.396892
0.397867
0.398922
0.400037
0.401191
0.402368
0.403552
0.404728
0.405882
0.407003
0.408084
0.409117
0.41009
0.410985
0.411787
0.412484
0.413071
0.413545
0.413905
0.41415
0.414282
0.414305
0.414225
0.414049
0.413786
0.413447
0.413047
0.412595
0.412092
0.411567
0.411163
0.410373
0.393305
0.392836
0.392918
0.393167
0.393601
0.394182
0.394883
0.395691
0.396601
0.397606
0.398691
0.399833
0.401009
0.402204
0.403402
0.404587
0.405744
0.406863
0.407937
0.408957
0.40991
0.41078
0.411551
0.412213
0.412761
0.413192
0.413503
0.413695
0.41377
0.413734
0.413594
0.413357
0.413033
0.412638
0.412187
0.411697
0.411175
0.410659
0.410308
0.409619
0.392761
0.392307
0.392414
0.392694
0.39316
0.393771
0.3945
0.395334
0.396272
0.397306
0.398418
0.399585
0.400782
0.401993
0.403202
0.404393
0.405551
0.406665
0.407728
0.408731
0.409662
0.410503
0.41124
0.411864
0.41237
0.412753
0.413013
0.413148
0.413164
0.413065
0.41286
0.412557
0.412167
0.411706
0.411196
0.410659
0.410111
0.409602
0.409318
0.408786
0.392171
0.391737
0.39187
0.392183
0.392682
0.393323
0.394079
0.394939
0.395903
0.396965
0.398103
0.399291
0.400506
0.40173
0.402948
0.404142
0.405297
0.406403
0.407452
0.408435
0.409339
0.410148
0.410848
0.411431
0.41189
0.412223
0.412427
0.412503
0.412455
0.41229
0.412014
0.411638
0.411172
0.410634
0.410048
0.409444
0.408851
0.408338
0.408136
0.407853
0.391535
0.391123
0.391284
0.391632
0.392165
0.392836
0.393618
0.394504
0.395494
0.396581
0.397742
0.39895
0.40018
0.401414
0.402636
0.40383
0.40498
0.406074
0.407105
0.408064
0.408937
0.40971
0.410369
0.410906
0.411316
0.411594
0.411739
0.411751
0.411635
0.411398
0.411047
0.410588
0.410034
0.409401
0.408714
0.408006
0.407322
0.40677
0.40669
0.406871
0.390853
0.390467
0.390658
0.391042
0.391609
0.392308
0.393116
0.394028
0.395043
0.396153
0.397334
0.398558
0.3998
0.40104
0.402264
0.403454
0.404594
0.405672
0.406681
0.407611
0.40845
0.409182
0.409797
0.410285
0.41064
0.41086
0.410942
0.410887
0.410699
0.410386
0.409951
0.409402
0.408746
0.407996
0.407166
0.406281
0.40538
0.404585
0.404292
0.404619
0.462987
0.474074
0.482658
0.489802
0.495007
0.499335
0.502675
0.505519
0.507899
0.509993
0.511832
0.513446
0.514854
0.516102
0.517182
0.518104
0.518879
0.519535
0.520063
0.520462
0.520748
0.520939
0.521018
0.521002
0.520885
0.520657
0.520351
0.519948
0.519448
0.518858
0.518157
0.517373
0.516481
0.515492
0.5144
0.513209
0.511948
0.510579
0.509331
0.507794
0.461093
0.471986
0.480626
0.487798
0.493067
0.497456
0.500861
0.503769
0.506209
0.508352
0.51023
0.511888
0.513342
0.514618
0.515721
0.51668
0.517492
0.518162
0.518703
0.519133
0.519446
0.519651
0.519753
0.519745
0.519639
0.519437
0.519139
0.518747
0.518259
0.517674
0.516994
0.51621
0.515333
0.514355
0.513275
0.512093
0.510841
0.509485
0.508244
0.506719
0.459193
0.469885
0.47857
0.485771
0.491108
0.49556
0.499036
0.502011
0.504515
0.50671
0.508629
0.510332
0.511831
0.513135
0.514262
0.515256
0.516102
0.516788
0.517344
0.517803
0.518141
0.518359
0.518484
0.518484
0.518392
0.518215
0.517927
0.517548
0.517073
0.516494
0.515836
0.515054
0.514192
0.513225
0.512159
0.510987
0.509746
0.508403
0.507171
0.505659
0.457285
0.46777
0.476489
0.483724
0.489125
0.49365
0.497198
0.500245
0.502814
0.505067
0.507034
0.508779
0.510316
0.511653
0.51281
0.51383
0.514701
0.515413
0.515992
0.516471
0.516829
0.517065
0.517207
0.517226
0.517149
0.516987
0.516713
0.516348
0.515888
0.515323
0.514677
0.513911
0.51306
0.512103
0.511049
0.50989
0.508661
0.507332
0.506111
0.504615
0.455366
0.465643
0.474378
0.481651
0.487117
0.491721
0.495347
0.498471
0.501109
0.503423
0.505442
0.507228
0.508802
0.510173
0.511362
0.512405
0.513298
0.514038
0.514644
0.515139
0.515516
0.515771
0.515928
0.515968
0.515907
0.515758
0.515501
0.51515
0.514704
0.514157
0.513521
0.512775
0.511936
0.510991
0.509947
0.508803
0.507588
0.506271
0.505064
0.503585
0.453434
0.463505
0.472238
0.47955
0.485083
0.489773
0.493483
0.496689
0.499399
0.501777
0.503851
0.505679
0.507289
0.508695
0.509915
0.510982
0.511898
0.512664
0.513296
0.513808
0.514204
0.514477
0.51465
0.51471
0.514666
0.514531
0.514291
0.513956
0.513525
0.512995
0.512373
0.511643
0.510818
0.509886
0.508856
0.507726
0.506526
0.505222
0.504028
0.502566
0.451487
0.461355
0.470065
0.477419
0.483019
0.487803
0.491605
0.494899
0.497687
0.500131
0.50226
0.504133
0.505779
0.507219
0.50847
0.509562
0.510502
0.511293
0.511949
0.512479
0.512893
0.513186
0.513373
0.513453
0.513427
0.513306
0.513083
0.512765
0.51235
0.511838
0.51123
0.510518
0.509708
0.50879
0.507774
0.506659
0.505474
0.504186
0.503003
0.501558
0.449524
0.459195
0.467858
0.475257
0.480925
0.48581
0.48971
0.493101
0.49597
0.498485
0.50067
0.50259
0.504273
0.505746
0.507028
0.508144
0.509108
0.509923
0.510603
0.511151
0.511583
0.511895
0.512099
0.512198
0.512189
0.512084
0.511879
0.511578
0.51118
0.510685
0.510093
0.509399
0.508604
0.507703
0.506702
0.505603
0.504434
0.50316
0.50199
0.50056
0.447543
0.457023
0.465616
0.473062
0.478799
0.483792
0.487799
0.491293
0.49425
0.496838
0.499083
0.501049
0.50277
0.504276
0.505588
0.50673
0.507718
0.508555
0.509258
0.509826
0.510276
0.510607
0.510826
0.510944
0.510952
0.510865
0.510678
0.510395
0.510015
0.509538
0.508963
0.508286
0.507508
0.506624
0.50564
0.504557
0.503404
0.502146
0.500988
0.499572
0.445545
0.454842
0.463338
0.470832
0.476638
0.481747
0.485869
0.489474
0.492525
0.495191
0.497497
0.499511
0.501271
0.50281
0.504152
0.505319
0.506331
0.50719
0.507915
0.508503
0.50897
0.50932
0.509556
0.509692
0.509719
0.509649
0.509481
0.509216
0.508854
0.508396
0.507838
0.50718
0.506419
0.505554
0.504588
0.503522
0.502386
0.501143
0.499998
0.498595
0.44353
0.452653
0.461024
0.468567
0.474442
0.479674
0.48392
0.487643
0.490795
0.493542
0.495913
0.497977
0.499776
0.501348
0.50272
0.503912
0.504947
0.505829
0.506574
0.507181
0.507666
0.508036
0.508289
0.508442
0.508489
0.508436
0.508288
0.50804
0.507698
0.507259
0.506719
0.50608
0.505338
0.504492
0.503545
0.502497
0.501378
0.500151
0.499019
0.497629
0.441498
0.450457
0.458673
0.466266
0.472208
0.477571
0.481949
0.4858
0.489059
0.491893
0.494331
0.496446
0.498287
0.499891
0.501292
0.502509
0.503567
0.50447
0.505235
0.505863
0.506365
0.506754
0.507024
0.507196
0.507262
0.507227
0.507098
0.50687
0.506547
0.506127
0.505606
0.504986
0.504264
0.503438
0.502511
0.501482
0.500382
0.499171
0.49805
0.496672
0.439451
0.448257
0.456288
0.463927
0.469935
0.475436
0.479956
0.483943
0.487318
0.490243
0.492751
0.49492
0.496802
0.49844
0.499869
0.501111
0.502191
0.503115
0.5039
0.504547
0.505067
0.505474
0.505762
0.505953
0.506038
0.506021
0.505912
0.505704
0.505399
0.504999
0.504498
0.503899
0.503197
0.502393
0.501486
0.500478
0.499396
0.4982
0.497093
0.495727
0.437391
0.446056
0.453869
0.46155
0.467622
0.473268
0.477938
0.482072
0.485569
0.488591
0.491174
0.493398
0.495323
0.496993
0.49845
0.499716
0.500818
0.501764
0.502567
0.503234
0.503771
0.504197
0.504504
0.504712
0.504817
0.504818
0.504729
0.504541
0.504256
0.503876
0.503396
0.502819
0.502137
0.501355
0.500471
0.499484
0.49842
0.497241
0.496146
0.494792
0.435321
0.443856
0.451418
0.459136
0.465268
0.471065
0.475895
0.480186
0.483813
0.486938
0.489599
0.491881
0.493848
0.495552
0.497036
0.498326
0.49945
0.500416
0.501237
0.501923
0.502478
0.502922
0.503248
0.503473
0.503599
0.503619
0.503549
0.503382
0.503118
0.502757
0.502299
0.501744
0.501084
0.500325
0.499465
0.498499
0.497454
0.496292
0.49521
0.493868
0.433246
0.441661
0.448939
0.456685
0.462872
0.468827
0.473826
0.478282
0.482048
0.485283
0.488026
0.490369
0.492379
0.494116
0.495627
0.49694
0.498085
0.499071
0.499911
0.500615
0.501187
0.501649
0.501995
0.502236
0.502383
0.502423
0.502372
0.502226
0.501983
0.501642
0.501206
0.500675
0.500038
0.499304
0.498467
0.497524
0.496499
0.495354
0.494286
0.492955
0.43117
0.439475
0.446435
0.454198
0.460437
0.466553
0.471729
0.476361
0.480275
0.483626
0.486455
0.488861
0.490915
0.492685
0.494222
0.495559
0.496724
0.49773
0.498588
0.49931
0.4999
0.500379
0.500744
0.501002
0.501169
0.50123
0.501198
0.501072
0.500851
0.500532
0.500118
0.499612
0.498999
0.498289
0.497477
0.496558
0.495553
0.494426
0.493372
0.492052
0.429098
0.437304
0.443911
0.451677
0.457961
0.464241
0.469604
0.474421
0.478492
0.481967
0.484887
0.487357
0.489456
0.491259
0.492822
0.494182
0.495367
0.496392
0.497269
0.498008
0.498616
0.499111
0.499496
0.499772
0.499958
0.50004
0.500027
0.499921
0.499722
0.499425
0.499035
0.498553
0.497966
0.497282
0.496495
0.4956
0.494617
0.493509
0.492468
0.491159
0.427036
0.435151
0.441374
0.449126
0.455447
0.461893
0.467451
0.472463
0.4767
0.480305
0.48332
0.485858
0.488003
0.489839
0.491429
0.492811
0.494016
0.495059
0.495953
0.49671
0.497336
0.497847
0.498251
0.498545
0.498748
0.498851
0.498858
0.498772
0.498596
0.498322
0.497955
0.497499
0.496938
0.49628
0.495519
0.49465
0.49369
0.492602
0.491575
0.490277
0.424991
0.433022
0.438831
0.446546
0.452899
0.459508
0.46527
0.470484
0.474898
0.47864
0.481755
0.484362
0.486554
0.488425
0.490041
0.491445
0.49267
0.493731
0.494642
0.495415
0.49606
0.496586
0.497009
0.497321
0.497542
0.497665
0.497692
0.497626
0.497472
0.497221
0.496878
0.496449
0.495915
0.495285
0.494551
0.493708
0.492772
0.491705
0.490692
0.489406
0.422969
0.430924
0.436289
0.443945
0.450318
0.45709
0.463061
0.468487
0.473086
0.476971
0.48019
0.48287
0.485111
0.487017
0.48866
0.490086
0.49133
0.492408
0.493335
0.494124
0.494787
0.495328
0.495769
0.496101
0.496338
0.496481
0.496528
0.496483
0.49635
0.496123
0.495805
0.495402
0.494897
0.494294
0.493589
0.492774
0.491864
0.490819
0.489821
0.488546
0.420979
0.428862
0.433757
0.441327
0.447711
0.45464
0.460825
0.46647
0.471262
0.475298
0.478627
0.481381
0.483674
0.485615
0.487286
0.488733
0.489995
0.491091
0.492033
0.492838
0.493517
0.494075
0.494532
0.494883
0.495136
0.495299
0.495365
0.495341
0.49523
0.495028
0.494736
0.494359
0.493883
0.493309
0.492634
0.491848
0.490965
0.489944
0.488962
0.487698
0.419029
0.426843
0.431246
0.4387
0.445081
0.452161
0.458564
0.464435
0.469429
0.473621
0.477064
0.479897
0.482243
0.484221
0.485918
0.487387
0.488666
0.489779
0.490737
0.491556
0.492252
0.492825
0.493298
0.493668
0.493937
0.494119
0.494204
0.494201
0.494113
0.493935
0.493669
0.49332
0.492873
0.492328
0.491685
0.49093
0.490076
0.48908
0.488116
0.486863
0.417126
0.424873
0.428764
0.436071
0.442437
0.449659
0.45628
0.462382
0.467584
0.47194
0.475502
0.478418
0.480818
0.482834
0.484558
0.486047
0.487344
0.488473
0.489445
0.49028
0.490989
0.491578
0.492067
0.492455
0.49274
0.492941
0.493046
0.493063
0.492997
0.492844
0.492604
0.492283
0.491866
0.491352
0.490741
0.490019
0.489195
0.488226
0.487283
0.486041
0.415278
0.422958
0.426323
0.43345
0.439785
0.447137
0.453977
0.460313
0.46573
0.470255
0.473941
0.476942
0.4794
0.481455
0.483206
0.484715
0.486029
0.487173
0.488159
0.489007
0.489731
0.490336
0.490839
0.491245
0.491546
0.491765
0.49189
0.491926
0.491883
0.491755
0.491542
0.491248
0.490862
0.49038
0.489802
0.489115
0.488323
0.487384
0.486465
0.485233
0.413494
0.421104
0.423934
0.430846
0.437134
0.444601
0.451657
0.458229
0.463866
0.468564
0.472381
0.475471
0.477989
0.480083
0.481861
0.48339
0.48472
0.48588
0.486879
0.48774
0.488477
0.489097
0.489614
0.490038
0.490355
0.490591
0.490736
0.490792
0.490771
0.490668
0.490482
0.490214
0.48986
0.48941
0.488867
0.488216
0.487459
0.486553
0.48566
0.484441
0.411781
0.419316
0.421607
0.428269
0.434494
0.44206
0.449325
0.456131
0.461991
0.466869
0.47082
0.474004
0.476584
0.478719
0.480524
0.482074
0.483419
0.484592
0.485603
0.486477
0.487227
0.487862
0.488393
0.488833
0.489167
0.489419
0.489583
0.489659
0.489661
0.489582
0.489422
0.489182
0.488859
0.488442
0.487934
0.487322
0.486604
0.485734
0.484871
0.483665
0.410147
0.417596
0.419352
0.425729
0.431874
0.439519
0.446984
0.454022
0.460108
0.465169
0.46926
0.472541
0.475185
0.477363
0.479195
0.480765
0.482124
0.48331
0.484333
0.485219
0.485982
0.48663
0.487176
0.48763
0.487981
0.488249
0.488433
0.488528
0.488551
0.488496
0.488363
0.48815
0.487858
0.487475
0.487005
0.486432
0.485757
0.484926
0.484097
0.482907
0.408599
0.415948
0.417178
0.423237
0.429285
0.436987
0.44464
0.451906
0.458217
0.463465
0.4677
0.471081
0.473792
0.476014
0.477875
0.479464
0.480837
0.482034
0.483069
0.483966
0.484741
0.485402
0.485961
0.48643
0.486798
0.487081
0.487283
0.487398
0.487442
0.487411
0.487303
0.487118
0.486857
0.486509
0.486077
0.485546
0.484916
0.48413
0.483339
0.48217
0.407145
0.414373
0.415094
0.420805
0.426737
0.434474
0.442299
0.449785
0.456321
0.461759
0.46614
0.469625
0.472406
0.474674
0.476563
0.478172
0.479558
0.480765
0.48181
0.482718
0.483504
0.484178
0.48475
0.485232
0.485617
0.485913
0.486134
0.486269
0.486333
0.486325
0.486242
0.486085
0.485855
0.485543
0.485149
0.484663
0.484082
0.483346
0.482599
0.481454
0.405791
0.412872
0.413107
0.418444
0.424243
0.431987
0.439968
0.447663
0.454422
0.460051
0.46458
0.468174
0.471026
0.473341
0.47526
0.476887
0.478285
0.479502
0.480557
0.481474
0.482271
0.482957
0.483541
0.484035
0.484437
0.484748
0.484986
0.48514
0.485223
0.485238
0.485179
0.48505
0.484851
0.484575
0.484222
0.483781
0.483253
0.482574
0.481878
0.480762
0.404545
0.411443
0.411223
0.416164
0.421812
0.429537
0.437652
0.445545
0.452521
0.458342
0.463023
0.466727
0.469654
0.472017
0.473966
0.47561
0.477021
0.478246
0.47931
0.480235
0.481042
0.481739
0.482336
0.482841
0.483257
0.483583
0.483837
0.48401
0.484112
0.48415
0.484116
0.484013
0.483845
0.483605
0.483293
0.4829
0.482428
0.481813
0.481177
0.480097
0.403415
0.410085
0.409449
0.413975
0.419456
0.427131
0.435359
0.443435
0.450622
0.456632
0.461467
0.465285
0.468289
0.470702
0.47268
0.474342
0.475764
0.476997
0.478068
0.479002
0.479817
0.480525
0.481133
0.481649
0.482079
0.482419
0.482689
0.48288
0.483
0.48306
0.48305
0.482974
0.482836
0.482632
0.482361
0.482018
0.481606
0.481061
0.480496
0.479463
0.402412
0.408795
0.407788
0.411886
0.417185
0.424782
0.433096
0.441339
0.448726
0.454924
0.459913
0.463847
0.466931
0.469395
0.471403
0.473081
0.474515
0.475755
0.476833
0.477774
0.478597
0.479313
0.479932
0.480459
0.480902
0.481256
0.48154
0.48175
0.481888
0.481968
0.481981
0.481932
0.481823
0.481655
0.481426
0.481134
0.480785
0.480317
0.479836
0.478864
0.401548
0.40757
0.406243
0.409906
0.415007
0.422498
0.43087
0.439261
0.446837
0.453218
0.458364
0.462415
0.465581
0.468097
0.470135
0.47183
0.473275
0.47452
0.475603
0.476552
0.477381
0.478106
0.478734
0.479271
0.479725
0.480094
0.480391
0.480619
0.480775
0.480875
0.480911
0.480886
0.480807
0.480672
0.480486
0.480245
0.479962
0.479581
0.479198
0.478307
0.400842
0.406407
0.404815
0.408042
0.412931
0.420289
0.428692
0.437211
0.444962
0.451522
0.456821
0.460992
0.464241
0.466809
0.468878
0.470589
0.472043
0.473294
0.474381
0.475335
0.47617
0.476902
0.477538
0.478085
0.478551
0.478933
0.479242
0.479488
0.479661
0.47978
0.479837
0.479836
0.479785
0.479685
0.479539
0.479351
0.479137
0.478849
0.478581
0.4778
0.40031
0.405308
0.403507
0.406303
0.41097
0.41817
0.426575
0.435198
0.44311
0.44984
0.455291
0.459579
0.462912
0.465532
0.467633
0.46936
0.470822
0.472077
0.473167
0.474125
0.474964
0.475703
0.476346
0.476902
0.477377
0.477773
0.478095
0.478356
0.478546
0.478683
0.47876
0.478783
0.478759
0.478691
0.478586
0.478451
0.478307
0.478119
0.477985
0.477352
0.39998
0.404284
0.402335
0.404707
0.409136
0.416141
0.424507
0.433198
0.441247
0.448138
0.453738
0.458145
0.461566
0.464242
0.466377
0.468123
0.469595
0.470854
0.471947
0.472909
0.473752
0.474496
0.475147
0.475712
0.476197
0.476605
0.47694
0.477216
0.477423
0.477577
0.477674
0.477719
0.477722
0.477686
0.477621
0.477537
0.477466
0.477383
0.477404
0.476975
0.399918
0.403313
0.401266
0.403212
0.407375
0.414135
0.422403
0.43112
0.439284
0.446332
0.452086
0.456625
0.460146
0.46289
0.465068
0.466841
0.468327
0.469596
0.470696
0.471663
0.472513
0.473265
0.473924
0.474499
0.474995
0.475416
0.475767
0.476058
0.476282
0.476453
0.476571
0.476639
0.476667
0.476663
0.476637
0.476605
0.476605
0.476634
0.476832
0.476686
0.400438
0.402343
0.400103
0.401627
0.405547
0.412097
0.420306
0.429085
0.437389
0.444607
0.450521
0.45519
0.458808
0.461613
0.463827
0.465619
0.467111
0.468381
0.469483
0.47045
0.471303
0.472058
0.472723
0.473305
0.473809
0.474242
0.474604
0.474907
0.475147
0.475332
0.475467
0.475555
0.475607
0.475631
0.47564
0.475656
0.475721
0.475859
0.476243
0.47648
0.402572
0.399293
0.395575
0.395877
0.39937
0.405874
0.414492
0.423915
0.432915
0.440759
0.447172
0.452191
0.456012
0.458887
0.461066
0.462763
0.464136
0.465296
0.466308
0.467207
0.468013
0.468735
0.46938
0.46995
0.470452
0.470888
0.471262
0.471578
0.471841
0.472052
0.47222
0.472351
0.472453
0.472539
0.47263
0.472752
0.472964
0.473358
0.474238
0.47578
0.390913
0.388636
0.386483
0.388083
0.392511
0.399321
0.407842
0.416984
0.42569
0.433307
0.439588
0.444566
0.448416
0.451364
0.45364
0.455437
0.456908
0.458153
0.45924
0.460206
0.461073
0.461855
0.462558
0.463188
0.463748
0.464244
0.464678
0.465053
0.465375
0.465646
0.465873
0.466063
0.466227
0.46638
0.466543
0.466754
0.467082
0.46767
0.468897
0.471028
0.378125
0.37829
0.378471
0.381636
0.386887
0.393785
0.401915
0.410485
0.418654
0.425869
0.431905
0.43677
0.440604
0.4436
0.445958
0.447854
0.449424
0.450763