/*--------------------------------*- C++ -*----------------------------------*\
  =========                 |
  \\      /  F ield         | OpenFOAM: The Open Source CFD Toolbox
   \\    /   O peration     | Website:  https://openfoam.org
    \\  /    A nd           | Version:  7
     \\/     M anipulation  |
\*---------------------------------------------------------------------------*/
FoamFile
{
    version     2.0;
    format      ascii;
    class       surfaceScalarField;
    location    "6.7";
    object      phi;
}
// * * * * * * * * * * * * * * * * * * * * * * * * * * * * * * * * * * * * * //

dimensions      [0 3 -1 0 0 0 0];

internalField   nonuniform List<scalar> 
63520
(
3.1833e-06
-6.41641e-05
6.09808e-05
1.12179e-05
-7.41538e-05
6.61188e-05
2.33282e-05
1.53716e-05
-2.74817e-05
3.92898e-05
0.000177641
-0.000193603
5.91699e-05
0.000394416
-0.000414296
8.31748e-05
0.000652749
-0.000676754
0.00011157
0.000942842
-0.000971237
0.00014463
0.00125709
-0.00129015
0.000182612
0.00158963
-0.00162762
0.00022572
0.00193577
-0.00197888
0.000274111
0.00229172
-0.00234011
0.000327879
0.00265435
-0.00270812
0.00038705
0.00302098
-0.00308015
0.000451586
0.00338924
-0.00345377
0.000521393
0.00375698
-0.00382679
0.000596324
0.00412225
-0.00419718
0.000676174
0.00448318
-0.00456303
0.000760698
0.00483802
-0.00492254
0.000849613
0.00518514
-0.00527406
0.0009426
0.005523
-0.00561599
0.00103932
0.00585015
-0.00594687
0.0011394
0.00616527
-0.00626535
0.00124248
0.00646715
-0.00657023
0.00134816
0.00675472
-0.00686041
0.00145608
0.00702705
-0.00713497
0.00156586
0.00728333
-0.00739311
0.00167713
0.00752294
-0.00763421
0.00178955
0.00774535
-0.00785777
0.00190281
0.0079502
-0.00806345
0.00201661
0.00813725
-0.00825105
0.00213069
0.00830638
-0.00842046
0.00224485
0.00845757
-0.00857172
0.00235889
0.00859089
-0.00870493
0.00247267
0.00870645
-0.00882024
0.00258612
0.00880439
-0.00891783
0.00269915
0.00888482
-0.00899785
0.00281172
0.00894779
-0.00906037
0.00292381
0.00899314
-0.00910522
0.00303529
0.00902139
-0.00913287
0.00903324
0.00314594
-0.00914389
2.57089e-06
-6.67355e-05
9.19645e-06
-8.07796e-05
1.92217e-05
5.34561e-06
3.25182e-05
0.000164344
4.92514e-05
0.000377682
6.97048e-05
0.000632296
9.42003e-05
0.000918346
0.000123054
0.00122824
0.000156566
0.00155612
0.000194983
0.00189735
0.000238493
0.00224821
0.000287222
0.00260562
0.000341229
0.00296697
0.000400507
0.00332996
0.000464991
0.0036925
0.000534558
0.00405268
0.000609039
0.00440869
0.000688218
0.00475884
0.000771838
0.00510152
0.000859612
0.00543522
0.000951226
0.00575853
0.00104634
0.00607015
0.00114461
0.00636888
0.00124568
0.00665365
0.00134919
0.00692354
0.00145478
0.00717775
0.0015621
0.00741562
0.00167083
0.00763662
0.00178065
0.00784037
0.00189129
0.00802661
0.00200248
0.00819518
0.00211401
0.00834604
0.00222568
0.00847921
0.00233735
0.00859478
0.00244889
0.00869284
0.00256022
0.00877349
0.00267126
0.00883676
0.00278191
0.00888249
0.00289201
0.00891129
0.00892398
0.00300127
1.97501e-06
-6.87104e-05
7.19089e-06
-8.59955e-05
1.51265e-05
-2.58998e-06
2.57789e-05
0.000153691
3.94038e-05
0.000364057
5.63509e-05
0.000615348
7.70088e-05
0.000897688
0.000101737
0.00120351
0.000130882
0.00152698
0.00016472
0.00186351
0.000203473
0.00220945
0.000247297
0.00256179
0.000296277
0.00291799
0.000350437
0.0032758
0.000409744
0.0036332
0.000474104
0.00398832
0.000543372
0.00433943
0.000617361
0.00468485
0.000695843
0.00502304
0.000778557
0.00535251
0.00086521
0.00567188
0.000955498
0.00597986
0.00104909
0.00627528
0.00114566
0.00655709
0.00124486
0.00682434
0.00134635
0.00707626
0.0014498
0.00731216
0.00155489
0.00753152
0.00166133
0.00773393
0.00176883
0.00791911
0.00187714
0.00808688
0.00198603
0.00823716
0.0020953
0.00836995
0.00220478
0.0084853
0.00231434
0.00858329
0.00242384
0.00866398
0.00253319
0.00872741
0.00264222
0.00877346
0.0027507
0.0088028
0.00881641
0.00285828
1.40681e-06
-7.01173e-05
5.18669e-06
-8.97756e-05
1.10189e-05
-8.42241e-06
1.90267e-05
0.000145683
2.95649e-05
0.000353519
4.3059e-05
0.000601854
5.99513e-05
0.000880796
8.0647e-05
0.00118281
0.000105532
0.00150209
0.00013492
0.00183412
0.000169058
0.00217532
0.000208129
0.00252272
0.00025225
0.00287387
0.000301475
0.00322657
0.000355793
0.00357888
0.000415134
0.00392898
0.000479384
0.00427517
0.000548381
0.00461586
0.000621917
0.0049495
0.000699759
0.00527467
0.000781645
0.00559
0.000867286
0.00589422
0.000956376
0.00618619
0.0010486
0.00646486
0.00114364
0.0067293
0.00124117
0.00697873
0.00134088
0.00721246
0.00144245
0.00742995
0.0015456
0.00763079
0.00165004
0.00781467
0.00175552
0.0079814
0.0018618
0.00813087
0.00196868
0.00826307
0.00207597
0.00837801
0.0021835
0.00847575
0.00229111
0.00855637
0.00239865
0.00861988
0.0025059
0.00866621
0.00261259
0.00869612
0.00871073
0.00271827
8.38265e-07
-7.09556e-05
3.18601e-06
-9.21234e-05
6.92305e-06
-1.21595e-05
1.2319e-05
0.000140287
1.98224e-05
0.000346015
2.99306e-05
0.000591746
4.31444e-05
0.000867582
5.99226e-05
0.00116603
8.06766e-05
0.00148134
0.000105755
0.00180905
0.000135437
0.00214563
0.000169931
0.00248823
0.000209379
0.00283442
0.000253858
0.00318209
0.000303385
0.00352935
0.000357918
0.00387445
0.000417361
0.00421573
0.000481578
0.00455164
0.000550387
0.00488069
0.000623576
0.00520148
0.000700904
0.00551267
0.000782105
0.00581302
0.000866895
0.0061014
0.000954978
0.00637678
0.00104605
0.00663823
0.0011398
0.00688498
0.00123593
0.00711633
0.00133413
0.00733175
0.00143412
0.0075308
0.00153563
0.00771316
0.00163839
0.00787864
0.00174216
0.00802711
0.00184671
0.00815851
0.00195185
0.00827287
0.00205737
0.00837023
0.00216308
0.00845066
0.00226876
0.0085142
0.00237416
0.0085608
0.00247893
0.00859135
0.0086071
0.00258256
2.78588e-07
-7.12343e-05
1.20132e-06
-9.30462e-05
2.86235e-06
-1.38206e-05
5.67959e-06
0.00013747
1.02045e-05
0.00034149
1.70099e-05
0.00058494
2.66492e-05
0.000857942
3.96281e-05
0.00115305
5.63925e-05
0.00146457
7.73227e-05
0.00178812
0.000102723
0.00212023
0.000132826
0.00245813
0.000167801
0.00279944
0.000207751
0.00314214
0.00025271
0.00348439
0.000302661
0.0038245
0.000357534
0.00416086
0.000417212
0.00449196
0.000481537
0.00481637
0.000550316
0.0051327
0.00062333
0.00543965
0.000700334
0.00573602
0.000781062
0.00602067
0.000865233
0.00629261
0.00095256
0.00655091
0.00104275
0.00679479
0.00113551
0.00702357
0.00123055
0.00723671
0.00132758
0.00743376
0.00142632
0.00761442
0.00152652
0.00777844
0.00162792
0.00792571
0.00173028
0.00805615
0.00183337
0.00816978
0.00193697
0.00826664
0.00204082
0.00834681
0.00214468
0.00841034
0.00224822
0.00845726
0.00235103
0.00848854
0.00850559
0.00245254
-2.76962e-07
-7.09573e-05
-7.64302e-07
-9.2559e-05
-1.14799e-06
-1.3437e-05
-8.55034e-07
0.000137177
7.67495e-07
0.000339867
4.36673e-06
0.000581341
1.05526e-05
0.000851756
1.98758e-05
0.00114373
3.28142e-05
0.00145163
4.97739e-05
0.00177116
7.1087e-05
0.00209892
9.7012e-05
0.0024322
0.00012774
0.00276872
0.000163392
0.00310649
0.000204028
0.00344375
0.000249653
0.00377887
0.000300216
0.00411029
0.000355622
0.00443656
0.000415731
0.00475626
0.000480374
0.00506806
0.00054935
0.00537068
0.000622431
0.00566294
0.000699367
0.00594374
0.000779897
0.00621208
0.000863746
0.00646706
0.000950636
0.0067079
0.00104028
0.00693393
0.00113239
0.00714459
0.0012267
0.00733946
0.00132291
0.0075182
0.00142077
0.00768059
0.00152
0.00782647
0.00162036
0.0079558
0.00172157
0.00806857
0.00182339
0.00816483
0.00192552
0.00824467
0.00202765
0.00830821
0.00212941
0.00835551
0.0022303
0.00838764
0.00840619
0.00232971
-8.29175e-07
-7.01282e-05
-2.70336e-06
-9.06849e-05
-5.08587e-06
-1.10545e-05
-7.25022e-06
0.000139341
-8.43847e-06
0.000341056
-7.92681e-06
0.000580829
-5.05298e-06
0.000848882
7.75339e-07
0.0011379
1.00677e-05
0.00144234
2.3262e-05
0.00175796
4.07076e-05
0.00208147
6.26878e-05
0.00241022
8.94148e-05
0.00274199
0.000121031
0.00307488
0.000157615
0.00340717
0.000199192
0.00373729
0.000245733
0.00406375
0.000297159
0.00438513
0.000353353
0.00470007
0.000414164
0.00500725
0.000479406
0.00530543
0.000548868
0.00559347
0.00062232
0.00587028
0.000699514
0.00613488
0.00078019
0.00638638
0.000864078
0.00662401
0.000950902
0.0068471
0.00104039
0.00705511
0.00113225
0.0072476
0.00122621
0.00742424
0.00132199
0.0075848
0.00141932
0.00772914
0.00151792
0.0078572
0.0016175
0.00796898
0.00171777
0.00806456
0.00181838
0.00814406
0.00191898
0.00820762
0.00201912
0.00825537
0.00211825
0.00828851
0.00830877
0.00221567
-1.37662e-06
-6.87517e-05
-4.60674e-06
-8.74549e-05
-8.93164e-06
-6.72975e-06
-1.3471e-05
0.00014388
-1.73616e-05
0.000344946
-1.9803e-05
0.00058327
-2.00806e-05
0.00084916
-1.75629e-05
0.00113538
-1.17078e-05
0.00143649
-2.05947e-06
0.00174831
1.17605e-05
0.00206765
3.00549e-05
0.00239193
5.30536e-05
0.00271899
8.0918e-05
0.00304701
0.000113747
0.00337434
0.000151584
0.00369946
0.000194416
0.00402092
0.000242186
0.00433736
0.000294795
0.00464746
0.000352106
0.00494993
0.000413952
0.00524359
0.000480137
0.00552729
0.000550447
0.00579997
0.000624648
0.00606068
0.000702491
0.00630854
0.000783718
0.00654278
0.000868063
0.00676276
0.000955252
0.00696792
0.00104501
0.00715785
0.00113705
0.0073322
0.00123109
0.00749076
0.00132684
0.00763339
0.001424
0.00776004
0.00152226
0.00787072
0.00162128
0.00796555
0.00172067
0.00804466
0.00182002
0.00810827
0.00191881
0.00815657
0.00201643
0.00819089
0.00821309
0.00211211
-1.91458e-06
-6.68371e-05
-6.46382e-06
-8.29057e-05
-1.26656e-05
-5.28067e-07
-1.94847e-05
0.000150699
-2.59521e-05
0.000351413
-3.11941e-05
0.000588512
-3.44451e-05
0.000852411
-3.50348e-05
0.00113597
-3.23926e-05
0.00143384
-2.60405e-05
0.00174196
-1.55801e-05
0.00205719
-6.88514e-07
0.00237703
1.88808e-05
0.00269942
4.33057e-05
0.00302259
7.27031e-05
0.00334494
0.000107134
0.00366503
0.000146603
0.00398145
0.00019107
0.0042929
0.000240452
0.00459807
0.00029463
0.00489576
0.00035345
0.00518477
0.000416733
0.005464
0.000484279
0.00573243
0.000555867
0.00598909
0.00063126
0.00623314
0.000710211
0.00646383
0.000792459
0.00668051
0.000877738
0.00688264
0.00096577
0.00706981
0.00105627
0.0072417
0.00114896
0.00739808
0.00124351
0.00753883
0.00133963
0.00766392
0.00143695
0.0077734
0.00153511
0.00786739
0.00163368
0.0079461
0.00173216
0.00800979
0.00183
0.00805874
0.00192649
0.00809439
0.0081188
0.00202079
-2.44076e-06
-6.43964e-05
-8.26572e-06
-7.70809e-05
-1.62676e-05
7.47376e-06
-2.5258e-05
0.00015969
-3.41639e-05
0.000360319
-4.2038e-05
0.000596386
-4.80641e-05
0.000858437
-5.15376e-05
0.00113945
-5.18622e-05
0.00143417
-4.85368e-05
0.00173864
-4.11443e-05
0.0020498
-2.93474e-05
0.00236524
-1.28846e-05
0.00268296
8.43966e-06
0.00300126
3.47584e-05
0.00331862
6.61469e-05
0.00363364
0.000102627
0.00394497
0.000144175
0.00425135
0.000190724
0.00455153
0.000242167
0.00484431
0.000298366
0.00512857
0.000359158
0.00540321
0.000424355
0.00566723
0.000493749
0.0059197
0.000567114
0.00615978
0.000644213
0.00638673
0.000724794
0.00659993
0.000808594
0.00679884
0.000895339
0.00698307
0.000984746
0.00715229
0.00107652
0.00730631
0.00117034
0.00744501
0.00126586
0.0075684
0.00136272
0.00767654
0.0014605
0.00776961
0.00155873
0.00784787
0.00165685
0.00791167
0.00175423
0.00796136
0.00185011
0.00799852
0.00802536
0.00194354
-2.95087e-06
-6.14455e-05
-1.00017e-05
-7.00301e-05
-1.97196e-05
1.71914e-05
-3.0762e-05
0.000170732
-4.19525e-05
0.000371509
-5.22741e-05
0.000606708
-6.0862e-05
0.000867025
-6.69776e-05
0.00114556
-6.99997e-05
0.00143719
-6.94086e-05
0.00173804
-6.47719e-05
0.00204516
-5.57374e-05
0.0023562
-4.20295e-05
0.00266925
-2.34393e-05
0.00298267
1.80137e-07
0.00329501
2.89197e-05
0.0036049
6.28169e-05
0.00391108
0.000101862
0.0042123
0.000146
0.00450739
0.000195142
0.00479517
0.000249162
0.00507455
0.000307911
0.00534446
0.000371212
0.00560393
0.000438871
0.00585204
0.000510672
0.00608798
0.000586388
0.00631102
0.000665774
0.00652054
0.000748575
0.00671604
0.000834521
0.00689712
0.000923327
0.00706348
0.00101469
0.00721494
0.00110829
0.00735141
0.00120376
0.00747292
0.00130071
0.00757959
0.00139869
0.00767164
0.00149716
0.00774939
0.00159554
0.00781329
0.00169311
0.00786379
0.00178903
0.0079026
0.00793212
0.00188227
-3.44241e-06
-5.80031e-05
-1.16641e-05
-6.18086e-05
-2.3004e-05
2.85312e-05
-3.59678e-05
0.000183696
-4.92783e-05
0.00038482
-6.18496e-05
0.000619279
-7.27684e-05
0.000877943
-8.12659e-05
0.00115406
-8.66989e-05
0.00144262
-8.85296e-05
0.00173987
-8.63116e-05
0.00204294
-7.96822e-05
0.00234957
-6.83541e-05
0.00265792
-5.21046e-05
0.00296642
-3.07742e-05
0.00327367
-4.25952e-06
0.00357838
2.74906e-05
0.00387933
6.44798e-05
0.00417531
0.000106668
0.0044652
0.000153976
0.00474786
0.000206294
0.00502223
0.000263485
0.00528727
0.000325384
0.00554203
0.000391806
0.00578562
0.00046255
0.00601723
0.000537395
0.00623617
0.000616108
0.00644183
0.000698438
0.00663371
0.000784124
0.00681144
0.000872882
0.00697473
0.000964409
0.00712342
0.00105837
0.00725745
0.0011544
0.00737689
0.00125207
0.00748191
0.00135091
0.0075728
0.00145034
0.00764996
0.00154971
0.00771392
0.00164824
0.00776526
0.001745
0.00780583
0.00783825
0.00183888
-3.91279e-06
-5.40904e-05
-1.32443e-05
-5.24772e-05
-2.61055e-05
4.13922e-05
-4.08516e-05
0.000198442
-5.61058e-05
0.000400074
-7.07156e-05
0.000633889
-8.37214e-05
0.000890949
-9.43252e-05
0.00116466
-0.000101863
0.00145016
-0.000105783
0.00174379
-0.000105627
0.00204279
-0.000101022
0.00234497
-9.16716e-05
0.00264857
-7.73422e-05
0.00295209
-5.78633e-05
0.0032542
-3.31196e-05
0.00355364
-3.04791e-06
0.00384925
3.23671e-05
0.0041399
7.30971e-05
0.00442447
0.000119077
0.00470188
0.000170208
0.0049711
0.000226365
0.00523112
0.000287394
0.005481
0.000353121
0.00571989
0.000423356
0.005947
0.00049789
0.00616164
0.000576496
0.00636322
0.000658936
0.00655127
0.000744953
0.00672542
0.000834272
0.00688541
0.00092659
0.0070311
0.00102157
0.00716247
0.00111884
0.00727963
0.00121795
0.0073828
0.00131841
0.00747235
0.0014196
0.00754877
0.00152082
0.0076127
0.00162122
0.00766486
0.0017198
0.00770726
0.00774274
0.0018153
-4.36025e-06
-4.97302e-05
-1.4736e-05
-4.21017e-05
-2.90107e-05
5.56668e-05
-4.53921e-05
0.000214823
-6.24053e-05
0.000417087
-7.88316e-05
0.000650315
-9.36676e-05
0.000905785
-0.000106088
0.00117708
-0.00011541
0.00145948
-0.000121067
0.00174945
-0.000122595
0.00204432
-0.000119613
0.00234199
-0.000111814
0.00264077
-9.89581e-05
0.00293924
-8.0864e-05
0.0032361
-5.74074e-05
0.00353018
-2.85144e-05
0.00382036
5.84076e-06
0.00410554
4.56414e-05
0.00438467
9.08341e-05
0.00465669
0.000141332
0.0049206
0.000197018
0.00517543
0.000257752
0.00542027
0.000323369
0.00565427
0.000393691
0.00587668
0.000468517
0.00608681
0.000547634
0.0062841
0.000630813
0.00646809
0.000717808
0.00663843
0.000808351
0.00679486
0.000902147
0.0069373
0.000998865
0.00706575
0.00109812
0.00718037
0.00119948
0.00728145
0.0013024
0.00736942
0.00140627
0.00744491
0.00151032
0.00750866
0.00161363
0.00756154
0.00171513
0.00760577
0.00764444
0.00181343
-4.78337e-06
-4.49469e-05
-1.61334e-05
-3.07519e-05
-3.17089e-05
7.12421e-05
-4.95727e-05
0.000232687
-6.81522e-05
0.000435666
-8.61645e-05
0.000668327
-0.000102564
0.000922184
-0.000116498
0.00119102
-0.000127268
0.00147025
-0.000134297
0.00175648
-0.000137113
0.00204713
-0.000135329
0.0023402
-0.000128634
0.00263408
-0.000116779
0.00292738
-9.95768e-05
0.0032189
-7.6894e-05
0.0035075
-4.86488e-05
0.00379212
-1.48053e-05
0.0040717
2.46301e-05
0.00434523
6.96144e-05
0.00461171
0.000120071
0.00487015
0.000175892
0.00511961
0.000236947
0.00535921
0.000303084
0.00558813
0.000374132
0.00580563
0.000449904
0.00601104
0.000530198
0.00620381
0.000614797
0.00638349
0.000703468
0.00654975
0.000795956
0.00670238
0.000891979
0.00684128
0.000991214
0.00696652
0.00109329
0.0070783
0.00119775
0.00717698
0.00130409
0.00726309
0.00141163
0.00733736
0.00151959
0.0074007
0.00162699
0.00745414
0.00173266
0.0075001
0.00754202
0.00183507
-5.18117e-06
-3.97658e-05
-1.74325e-05
-1.85008e-05
-3.41921e-05
8.80017e-05
-5.33808e-05
0.000251875
-7.33286e-05
0.000455614
-9.26894e-05
0.000687688
-0.000110377
0.000939871
-0.000125513
0.00120615
-0.000137384
0.00148212
-0.000145404
0.0017645
-0.000149096
0.00205082
-0.00014807
0.00233918
-0.000142009
0.00262802
-0.00013066
0.00291603
-0.00011383
0.00320207
-9.13794e-05
0.00348505
-6.322e-05
0.00376396
-2.93071e-05
0.00403779
1.03624e-05
0.00430556
5.57542e-05
0.00456632
0.0001068
0.0048191
0.000163403
0.00506301
0.00022544
0.00529718
0.000292771
0.0055208
0.000365234
0.00573316
0.000442654
0.00593362
0.000524841
0.00612162
0.000611593
0.00629674
0.000702693
0.00645865
0.000797902
0.00660717
0.000896955
0.00674223
0.000999546
0.00686393
0.00110532
0.00697252
0.00121384
0.00706845
0.00132459
0.00715235
0.0014369
0.00722505
0.00154995
0.00728764
0.00166272
0.00734137
0.00177393
0.0073889
0.00743403
0.00188192
-5.55298e-06
-3.42128e-05
-1.86302e-05
-5.42378e-06
-3.64552e-05
0.000105827
-5.6808e-05
0.000272228
-7.79226e-05
0.000476729
-9.83902e-05
0.000708156
-0.000117085
0.000958565
-0.000133104
0.00122217
-0.000145719
0.00149474
-0.00015434
0.00177312
-0.000158483
0.00205497
-0.000157757
0.00233845
-0.000151842
0.0026221
-0.000140482
0.00290468
-0.000123482
0.00318507
-0.000100697
0.00346227
-7.20319e-05
0.00373529
-3.74365e-05
0.00400319
3.10026e-06
0.00426503
4.95522e-05
0.00451986
0.000101859
0.00476679
0.000159931
0.00500493
0.000223655
0.00523345
0.000292899
0.00545156
0.000367513
0.00565855
0.000447332
0.0058538
0.00053218
0.00603678
0.000621872
0.00620705
0.000716206
0.00636432
0.000814965
0.00650841
0.000917907
0.00663928
0.00102475
0.00675708
0.00113517
0.00686211
0.00124874
0.00695488
0.00136498
0.00703611
0.00148321
0.00710682
0.00160261
0.00716824
0.00172211
0.00722187
0.00184034
0.00727067
0.00731888
0.00195549
-5.8984e-06
-2.83145e-05
-1.97252e-05
8.4028e-06
-3.84955e-05
0.000124597
-5.98507e-05
0.000293583
-8.19288e-05
0.000498807
-0.00010326
0.000729487
-0.000122677
0.000977983
-0.000139257
0.00123875
-0.000152255
0.00150774
-0.000161076
0.00178194
-0.000165236
0.00205913
-0.000164339
0.00233755
-0.000158067
0.00261583
-0.000146163
0.00289277
-0.000128429
0.00316734
-0.000104717
0.00343855
-7.49286e-05
0.0037055
-3.90081e-05
0.00396727
3.06209e-06
0.00422296
5.12619e-05
0.00447166
0.000105538
0.00471252
0.000165808
0.00494466
0.000231967
0.00516729
0.00030389
0.00537964
0.000381438
0.005581
0.000464458
0.00577078
0.000552787
0.00594845
0.000646254
0.00611358
0.000744681
0.00626589
0.000847872
0.00640522
0.000955611
0.00653154
0.00106765
0.00664504
0.0011837
0.00674606
0.00130338
0.0068352
0.00142621
0.00691328
0.00155158
0.00698145
0.00167864
0.00704118
0.0018063
0.00709421
0.0019331
0.00714387
0.00719491
0.00205706
-6.21723e-06
-2.20974e-05
-2.07171e-05
2.29024e-05
-4.03132e-05
0.000144193
-6.25094e-05
0.000315779
-8.53485e-05
0.000521646
-0.000107299
0.000751437
-0.000127156
0.00099784
-0.000143971
0.00125557
-0.000156988
0.00152075
-0.000165607
0.00179056
-0.00016934
0.00206286
-0.000167794
0.00233601
-0.00016065
0.00260868
-0.000147653
0.00287977
-0.000128603
0.00314829
-0.000103353
0.0034133
-7.18003e-05
0.00367395
-3.38851e-05
0.00392936
1.0414e-05
0.00417866
6.10826e-05
0.00442099
0.000118072
0.00465553
0.000181308
0.00488143
0.000250691
0.00509791
0.000326105
0.00530422
0.000407418
0.00549969
0.000494488
0.00568371
0.000587165
0.00585577
0.000685298
0.00601545
0.000788724
0.00616247
0.000897276
0.00629666
0.00101077
0.00641805
0.001129
0.00652681
0.0012517
0.00662336
0.00137856
0.00670834
0.00150915
0.00678269
0.00164287
0.00684773
0.00177893
0.00690512
0.0019162
0.00695694
0.00205316
0.00700691
0.00706042
0.00218766
-6.50944e-06
-1.55881e-05
-2.1607e-05
3.79998e-05
-4.19112e-05
0.000164497
-6.47889e-05
0.000338657
-8.81891e-05
0.000545046
-0.000110519
0.000773766
-0.000130533
0.00101785
-0.000147261
0.0012723
-0.000159934
0.00153343
-0.000167945
0.00179857
-0.000170808
0.00206572
-0.000168129
0.00233333
-0.000159592
0.00260015
-0.000144942
0.00286512
-0.000123983
0.00312733
-9.65659e-05
0.00338589
-6.2588e-05
0.00363997
-2.19863e-05
0.00388875
2.52635e-05
0.00413141
7.91507e-05
0.00436711
0.000139632
0.00459505
0.000206637
0.00481442
0.000280073
0.00502447
0.000359829
0.00522447
0.000445781
0.00541374
0.000537797
0.00559169
0.00063574
0.00575783
0.000739472
0.00591172
0.000848853
0.00605309
0.000963741
0.00618178
0.00108399
0.00629781
0.00120942
0.00640138
0.00133984
0.00649294
0.00147498
0.0065732
0.00161447
0.0066432
0.00175779
0.00670441
0.00190418
0.00675874
0.00205251
0.0068086
0.00220122
0.00685821
0.00691367
0.00234797
-6.77522e-06
-8.81292e-06
-2.23973e-05
5.36217e-05
-4.32945e-05
0.000185394
-6.66979e-05
0.00036206
-9.04636e-05
0.000568812
-0.000112936
0.000796239
-0.000132832
0.00103775
-0.000149154
0.00128862
-0.000161123
0.0015454
-0.000168127
0.00180558
-0.000169677
0.00206727
-0.000165381
0.00232903
-0.000154925
0.00258969
-0.000138059
0.00284826
-0.000114589
0.00310386
-8.43663e-05
0.00335567
-4.72883e-05
0.0036029
-3.29102e-06
0.00384476
4.76517e-05
0.00408046
0.000105532
0.00430923
0.000170309
0.00453027
0.000241917
0.00474281
0.000320267
0.00494612
0.000405254
0.00513948
0.000496759
0.00532223
0.000594659
0.00549379
0.000698826
0.00565366
0.000809137
0.00580141
0.000925469
0.00593675
0.00104771
0.00605954
0.00117573
0.00616978
0.00130943
0.00626769
0.00144863
0.00635373
0.00159316
0.00642867
0.00174271
0.00649365
0.00189684
0.00655028
0.00205484
0.00660073
0.00221565
0.0066478
0.00237763
0.00669623
0.00675299
0.00253831
-7.01505e-06
-1.79794e-06
-2.30914e-05
6.96978e-05
-4.44701e-05
0.000206773
-6.82482e-05
0.000385838
-9.21899e-05
0.000592754
-0.000114577
0.000818626
-0.000134084
0.00105726
-0.000149691
0.00130422
-0.000160605
0.00155631
-0.000166206
0.00181118
-0.000166006
0.00206707
-0.000159613
0.00232264
-0.000146718
0.0025768
-0.000127074
0.00282861
-0.000100488
0.00307727
-6.68168e-05
0.00332199
-2.59568e-05
0.00356204
2.21557e-05
0.00379664
7.75473e-05
0.00402507
0.000140211
0.00424656
0.000210109
0.00446037
0.000287177
0.00466575
0.000371331
0.00486197
0.000462466
0.00504834
0.000560471
0.00522423
0.000665225
0.00538904
0.000776611
0.00554227
0.000894514
0.00568351
0.00101883
0.00581244
0.00114946
0.00592891
0.00128633
0.00603291
0.00142934
0.00612467
0.00157842
0.00620466
0.00173342
0.00627367
0.00189415
0.00633292
0.00206025
0.00638418
0.0022311
0.00642988
0.0024057
0.00647321
0.0025824
0.00651952
0.0065768
0.00275859
-7.22984e-06
5.43183e-06
-2.36933e-05
8.61611e-05
-4.54466e-05
0.000228526
-6.94545e-05
0.000409846
-9.33899e-05
0.000616689
-0.00011547
0.000840706
-0.00013433
0.00107612
-0.000148921
0.00131881
-0.000158439
0.00156583
-0.000162255
0.00181499
-0.000159879
0.00206469
-0.00015092
0.00231368
-0.000135073
0.00256095
-0.000112094
0.00280564
-8.17945e-05
0.00304697
-4.40333e-05
0.00328423
1.29083e-06
0.00351671
5.42405e-05
0.00374369
0.000114842
0.00396447
0.000183088
0.00417832
0.000258943
0.00438451
0.000342344
0.00458235
0.000433205
0.00477111
0.000531428
0.00495012
0.000636899
0.00511876
0.000749504
0.00527644
0.000869126
0.00542265
0.00099566
0.00555697
0.00112901
0.00567909
0.0012691
0.00578881
0.00141588
0.00588614
0.00156929
0.00597126
0.0017293
0.00604464
0.00189586
0.00610711
0.00206884
0.00615994
0.002248
0.00620502
0.00243284
0.00624504
0.00262243
0.00628362
0.00281516
0.00632679
0.00638367
0.00300829
-7.42092e-06
1.28527e-05
-2.42077e-05
0.000102948
-4.62336e-05
0.000250552
-7.03332e-05
0.000433946
-9.4088e-05
0.000640444
-0.000115651
0.000862269
-0.000133615
0.00109408
-0.000146904
0.0013321
-0.000154698
0.00157362
-0.000156361
0.00181666
-0.000151397
0.00205973
-0.000139418
0.0023017
-0.00012012
0.00254165
-9.32636e-05
0.00277878
-5.86639e-05
0.00301237
-1.61825e-05
0.00324175
3.42785e-05
0.00346625
9.27804e-05
0.00368519
0.000159348
0.0038979
0.000233974
0.00410369
0.000316622
0.00430187
0.000407228
0.00449174
0.000505708
0.00467263
0.000611962
0.00484387
0.000725877
0.00500484
0.000847336
0.00515498
0.000976226
0.00529376
0.00111244
0.00542076
0.00125589
0.00553563
0.00140652
0.00563819
0.00156427
0.00572839
0.00172914
0.00580639
0.00190114
0.00587265
0.00208028
0.00592798
0.00226652
0.0059737
0.00245974
0.0060118
0.00265957
0.00604521
0.0028652
0.00607799
0.00307508
0.0061169
0.00617235
0.0032864
-7.58991e-06
2.04426e-05
-2.46394e-05
0.000119997
-4.68413e-05
0.000272754
-7.09015e-05
0.000458006
-9.431e-05
0.000663852
-0.000115155
0.000883114
-0.000131988
0.00111091
-0.000143703
0.00134382
-0.000149462
0.00157938
-0.00014862
0.00181581
-0.000140676
0.00205179
-0.000125242
0.00228627
-0.000102015
0.00251842
-7.07583e-05
0.00274752
-3.12917e-05
0.00297291
1.65205e-05
0.00319394
7.27735e-05
0.00341
0.000137526
0.00362044
0.0002108
0.00382463
0.000292588
0.0040219
0.000382852
0.0042116
0.000481527
0.00439306
0.000588527
0.00456562
0.000703748
0.00472864
0.000827076
0.00488151
0.00095839
0.00502366
0.00109757
0.00515458
0.00124451
0.00527382
0.00139912
0.00538103
0.00156133
0.00547598
0.00173111
0.0055586
0.00190848
0.00562902
0.00209347
0.00568765
0.00228616
0.00573529
0.00248659
0.00577326
0.00269476
0.00580363
0.00291045
0.00582953
0.00313298
0.00585546
0.00336092
0.00588896
0.00594184
0.00359143
-7.73849e-06
2.8181e-05
-2.49932e-05
0.000137252
-4.72797e-05
0.00029504
-7.1176e-05
0.000481902
-9.40811e-05
0.000686757
-0.000114019
0.000903052
-0.000129498
0.00112639
-0.000139383
0.00135371
-0.000142814
0.00158281
-0.000139135
0.00181214
-0.000127841
0.00204049
-0.00010854
0.00226697
-8.09309e-05
0.00249081
-4.47788e-05
0.00271137
9.42505e-08
0.00292803
5.38208e-05
0.00314021
0.000116493
0.00334732
0.000188166
0.00354877
0.000268861
0.00374393
0.000358567
0.0039322
0.000457243
0.00411293
0.000564823
0.00428548
0.000681218
0.00444923
0.000806318
0.00460354
0.000940003
0.00474783
0.00108214
0.00488152
0.00123261
0.00500411
0.00139129
0.00511514
0.00155808
0.00521424
0.00173291
0.00530115
0.00191574
0.00537577
0.00210659
0.00543817
0.00230552
0.00548872
0.00251264
0.00552817
0.00272809
0.00555781
0.00295197
0.00557975
0.0031842
0.0055973
0.00342429
0.00561537
0.00367096
0.00564228
0.00569141
0.00392139
-7.86815e-06
3.60492e-05
-2.52737e-05
0.000154657
-4.75578e-05
0.000317324
-7.11717e-05
0.000505515
-9.34246e-05
0.00070901
-0.000112278
0.000921905
-0.000126193
0.00114031
-0.000134006
0.00136152
-0.000134834
0.00158364
-0.00012801
0.00180531
-0.00011302
0.0020255
-8.94695e-05
0.00224342
-5.7054e-05
0.0024584
-1.55415e-05
0.00266986
3.52441e-05
0.00287725
9.54332e-05
0.00308002
0.000165115
0.00327764
0.000244342
0.00346954
0.000333131
0.00365514
0.000431471
0.00383386
0.000539315
0.00400508
0.000656596
0.0041682
0.000783217
0.00432261
0.000919063
0.0044677
0.001064
0.00460289
0.0012179
0.00472763
0.00138061
0.0048414
0.00155199
0.00494375
0.00173194
0.0050343
0.00192035
0.00511274
0.00211717
0.00517894
0.00232242
0.00523293
0.00253615
0.00527499
0.00275851
0.00530581
0.00298968
0.00532663
0.00322987
0.00533957
0.00347915
0.00534802
0.00373723
0.0053573
0.00400302
0.00537649
0.00542064
0.0042738
-7.98006e-06
4.40293e-05
-2.54844e-05
0.000172161
-4.76828e-05
0.000339523
-7.09007e-05
0.000528733
-9.23597e-05
0.000730469
-0.000109958
0.000939503
-0.000122113
0.00115246
-0.000127629
0.00136703
-0.0001256
0.00158161
-0.000115343
0.00179505
-9.63373e-05
0.0020065
-6.81812e-05
0.00221526
-3.05688e-05
0.00242079
1.67328e-05
0.00262256
7.38985e-05
0.00282008
0.000141057
0.00301287
0.000218294
0.00320041
0.00030566
0.00338217
0.00040317
0.00355763
0.000510806
0.00372622
0.00062852
0.00388737
0.000756239
0.00404049
0.000893859
0.00418499
0.00104126
0.0043203
0.00119829
0.00444585
0.0013648
0.00456111
0.00154063
0.00466557
0.00172562
0.00475877
0.00191961
0.0048403
0.0021225
0.00490986
0.00233418
0.00496726
0.00255465
0.00501246
0.00278395
0.00504569
0.00302221
0.00506755
0.00326967
0.00507917
0.0035266
0.00508264
0.00379322
0.00508139
0.00406947
0.00508106
0.00435448
0.00509148
0.00512941
0.00464571
-8.07499e-06
5.21042e-05
-2.56279e-05
0.000189714
-4.7659e-05
0.000361554
-7.03712e-05
0.000551445
-9.09002e-05
0.000750998
-0.000107084
0.000955687
-0.000117292
0.00116267
-0.000120298
0.00137004
-0.000115174
0.00157649
-0.00010122
0.0017811
-7.79022e-05
0.00198318
-4.48153e-05
0.00218218
-1.64842e-06
0.00237762
5.18331e-05
0.00256908
0.000115804
0.00275611
0.000190392
0.00293828
0.00027568
0.00311512
0.000371717
0.00328614
0.000478513
0.00345084
0.000596047
0.00360869
0.000724267
0.00375915
0.000863091
0.00390166
0.00101241
0.00403567
0.00117209
0.00416062
0.00134197
0.00427598
0.00152187
0.00438121
0.00171161
0.00447583
0.001911
0.00455938
0.00211985
0.00463145
0.002338
0.00469171
0.00256531
0.00473995
0.00280171
0.00477606
0.00304721
0.0048002
0.00330191
0.00481284
0.00356606
0.00481503
0.00383998
0.00480872
0.00412403
0.00479734
0.00441834
0.00478674
0.00472237
0.00478745
0.00481797
0.00503381
-8.15327e-06
6.02574e-05
-2.57048e-05
0.000207265
-4.7488e-05
0.000383337
-6.95865e-05
0.000573544
-8.90528e-05
0.000770464
-0.000103665
0.0009703
-0.000111749
0.00117076
-0.000112045
0.00137034
-0.000103603
0.00156805
-8.57037e-05
0.0017632
-5.78036e-05
0.00195528
-1.94881e-05
0.00214386
2.9558e-05
0.00232857
8.95726e-05
0.00250906
0.000160732
0.00268495
0.000243161
0.00285585
0.000336944
0.00302133
0.000442124
0.00318096
0.000558708
0.00333425
0.000686673
0.00348072
0.000825959
0.00361986
0.000976477
0.00375114
0.00113811
0.00387404
0.0013107
0.00398803
0.00149409
0.00409259
0.00168806
0.00418724
0.00189241
0.00427148
0.0021069
0.00434489
0.0023313
0.00440705
0.00256539
0.00445763
0.00280897
0.00449637
0.00306189
0.00452314
0.0033241
0.00453799
0.00359564
0.0045413
0.00387671
0.00453396
0.00416767
0.00451776
0.00446898
0.00449603
0.00478099
0.00447473
0.00510348
0.00446496
0.00448694
0.00543451
-8.21469e-06
6.8472e-05
-2.5714e-05
0.000224765
-4.71675e-05
0.00040479
-6.8544e-05
0.00059492
-8.68154e-05
0.000788736
-9.97031e-05
0.000983187
-0.000105489
0.00117654
-0.000102882
0.00136773
-9.09087e-05
0.00155607
-6.88337e-05
0.00174113
-3.60989e-05
0.00192254
7.71859e-06
0.00210004
6.29396e-05
0.00227335
0.000129806
0.00244219
0.000208494
0.00260626
0.000299131