/*--------------------------------*- C++ -*----------------------------------*\
  =========                 |
  \\      /  F ield         | OpenFOAM: The Open Source CFD Toolbox
   \\    /   O peration     | Website:  https://openfoam.org
    \\  /    A nd           | Version:  7
     \\/     M anipulation  |
\*---------------------------------------------------------------------------*/
FoamFile
{
    version     2.0;
    format      ascii;
    class       surfaceScalarField;
    location    "1.7";
    object      phi;
}
// * * * * * * * * * * * * * * * * * * * * * * * * * * * * * * * * * * * * * //

dimensions      [0 3 -1 0 0 0 0];

internalField   nonuniform List<scalar> 
3880
(
-3.72264e-05
0.00352163
-0.00348441
0.00089129
0.00680693
-0.00773544
0.00280106
0.00828068
-0.0101905
0.00534127
0.00887297
-0.0114132
0.00815691
0.00911433
-0.01193
0.0110011
0.00929678
-0.012141
0.0137408
0.00954859
-0.0122883
0.0163246
0.00990078
-0.0124845
0.018747
0.0103502
-0.0127727
0.0108339
0.0210396
-0.0131265
-9.4049e-05
0.00361568
0.000826715
0.00588616
0.00280561
0.00630179
0.00549888
0.0061797
0.00853407
0.00607914
0.0116399
0.00619093
0.0146619
0.00652665
0.0175318
0.00703089
0.0202328
0.00764919
0.00826337
0.0228034
-0.000113529
0.00372921
0.000844047
0.00492859
0.00292879
0.00421705
0.0057889
0.0033196
0.0090357
0.00283233
0.0123805
0.00284609
0.0156535
0.00325368
0.0187741
0.00391027
0.0217167
0.00470663
0.00544861
0.0245314
-8.77636e-05
0.00381698
0.000966795
0.00387403
0.00320677
0.00197708
0.00625389
0.000272474
0.00970354
-0.000617318
0.0132591
-0.000709419
0.0167441
-0.000231406
0.0200732
0.000581256
0.023217
0.0015628
0.00244207
0.0262235
-4.64147e-06
0.00382162
0.00121463
0.00265476
0.00366938
-0.000477677
0.00692752
-0.00298566
0.0105692
-0.00425897
0.0143017
-0.00444197
0.0179539
-0.00388359
0.0214426
-0.0029074
0.0247432
-0.00173783
-0.000682682
0.0278679
0.000110553
0.00371106
0.0015968
0.00116851
0.00433033
-0.00321121
0.00782089
-0.00647622
0.0116386
-0.0080767
0.0155094
-0.00831277
0.0192816
-0.0076558
0.0228829
-0.00650865
0.0263075
-0.00516245
-0.00385598
0.0294808
0.00029071
0.00342035
0.00211394
-0.000654714
0.00517714
-0.00627441
0.00890861
-0.0102077
0.0128773
-0.0120454
0.0168432
-0.0122786
0.0206917
-0.0115043
0.0243688
-0.0101857
0.0279108
-0.00870452
-0.00705147
0.0311063
0.000525049
0.0028953
0.0027464
-0.00287607
0.00616358
-0.00969159
0.0101199
-0.014164
0.0142016
-0.0161271
0.0182191
-0.0162962
0.0221114
-0.0153965
0.0258435
-0.0139178
0.0295073
-0.0123683
-0.0103287
0.0327846
0.000803552
0.00209175
0.00345625
-0.00552876
0.00721082
-0.0134462
0.0113418
-0.018295
0.0154799
-0.0202652
0.019508
-0.0203243
0.0234339
-0.0193224
0.027243
-0.017727
0.0310138
-0.0161391
-0.0138164
0.0345015
0.00111334
0.000978412
0.00419175
-0.00860717
0.00821953
-0.0174739
0.0124379
-0.0225134
0.0165524
-0.0243797
0.0205377
-0.0243097
0.0244836
-0.0232684
0.0284623
-0.0217056
0.0324793
-0.0201562
0.0361375
-0.0174745
0.0213321
0.0499149
-0.0502074
0.0210138
0.0583445
-0.0580261
0.0195182
0.0651763
-0.0636808
0.0175065
0.0716258
-0.0696141
0.0150256
0.0769626
-0.0744817
0.0121342
0.0828035
-0.0799121
0.00930506
0.0827735
-0.0799443
0.0061338
0.0905193
-0.0873481
0.00268042
0.0857073
-0.0822539
0.103837
-0.101156
0.0231525
0.0495657
0.0227353
0.0587617
0.0212004
0.0667113
0.0190768
0.0737494
0.0164514
0.079588
0.0133551
0.0858997
0.0102176
0.085911
0.00675005
0.0939869
0.00291473
0.0895426
0.106751
0.0249463
0.0491508
0.024445
0.0592629
0.0228986
0.0682577
0.0206563
0.0759917
0.0179128
0.0823315
0.0146203
0.0891923
0.0111843
0.089347
0.00742319
0.0977479
0.00319969
0.0937661
0.109951
0.026722
0.0486524
0.0261755
0.0598095
0.0246289
0.0698042
0.0222781
0.0783425
0.0194242
0.0851854
0.0159355
0.092681
0.0122058
0.0930767
0.00815254
0.101801
0.00353401
0.0983846
0.113485
0.0284185
0.0481018
0.0278675
0.0603605
0.0263582
0.0713135
0.0239325
0.0807683
0.0209796
0.0881382
0.0172972
0.0963633
0.0132827
0.0970913
0.0089411
0.106143
0.00391853
0.103407
0.117403
0.0299785
0.047604
0.029469
0.06087
0.0280511
0.0727314
0.0255868
0.0832326
0.0225582
0.0911668
0.0186892
0.100232
0.014403
0.101377
0.00977978
0.110766
0.00435057
0.108836
0.121754
0.0313722
0.0473381
0.0309352
0.061307
0.0296785
0.0739881
0.0272225
0.0856885
0.0241566
0.0942328
0.020114
0.104275
0.0155775
0.105914
0.0106827
0.115661
0.00483607
0.114683
0.12659
0.0325973
0.0475253
0.0322252
0.0616791
0.0311757
0.0750377
0.0287794
0.0880848
0.0257057
0.0973065
0.0215055
0.108475
0.0167579
0.110661
0.0116148
0.120804
0.00536813
0.12093
0.131958
0.0337033
0.0483235
0.0333875
0.0619949
0.0325901
0.0758351
0.0303562
0.0903186
0.0273279
0.100335
0.022942
0.112861
0.0179765
0.115627
0.0125554
0.126225
0.00592753
0.127558
0.137886
0.0349798
0.0494813
0.0344571
0.0625176
0.0336674
0.0766248
0.0316162
0.0923698
0.028879
0.103072
0.0242497
0.11749
0.0194028
0.120474
0.0136083
0.13202
0.00665999
0.134506
0.144546
0.13757
0.0559682
-0.144056
0.125124
0.0749632
0.109165
0.0925834
0.0937492
0.107786
0.0781174
0.118704
0.0635593
0.132049
0.048563
0.13547
0.0325501
0.148032
0.0171497
0.149906
0.161695
0.146885
0.0706611
-0.161578
0.134073
0.0877759
0.121537
0.105119
0.107858
0.121466
0.0917677
0.134794
0.075424
0.148392
0.0570115
0.153883
0.0380978
0.166946
0.0205885
0.167416
0.182284
0.162618
0.083971
-0.175928
0.14962
0.100774
0.135906
0.118833
0.121125
0.136247
0.104484
0.151434
0.086811
0.166065
0.0666741
0.17402
0.0456417
0.187979
0.0251065
0.187951
0.20739
0.182195
0.0966957
-0.19492
0.1681
0.114869
0.152957
0.133976
0.136402
0.152802
0.117956
0.169881
0.0980272
0.185994
0.0756238
0.196423
0.0512227
0.21238
0.0258633
0.21331
0.233254
0.20206
0.109324
-0.214688
0.187694
0.129234
0.171714
0.149956
0.153742
0.170774
0.133366
0.190257
0.110738
0.208622
0.0855707
0.22159
0.0590182
0.238932
0.0332635
0.239065
0.266517
0.223258
0.121771
-0.235705
0.208834
0.143658
0.192345
0.166445
0.173507
0.189612
0.15205
0.211714
0.12819
0.232482
0.101964
0.247817
0.0730653
0.267831
0.0386262
0.273504
0.305143
0.247748
0.133207
-0.259184
0.233213
0.158193
0.215678
0.18398
0.194764
0.210526
0.16963
0.236848
0.138953
0.263159
0.102024
0.284745
0.0580496
0.311805
0.0220052
0.309548
0.327149
0.270073
0.143729
-0.280595
0.257939
0.170326
0.243052
0.198867
0.225394
0.228183
0.204712
0.25753
0.182116
0.285756
0.157704
0.309157
0.13362
0.335889
0.0863366
0.356832
0.413485
0.306115
0.156798
-0.319184
0.288563
0.187879
0.266939
0.220491
0.241175
0.253947
0.208739
0.289966
0.170147
0.324347
0.120527
0.358778
0.0675224
0.388893
0.0250301
0.399324
0.438515
0.32759
-0.312548
0.329444
0.322561
0.307109
0.286523
0.253058
0.214385
0.154773
0.081601
0.0406618
-0.145705
-0.0390133
0.0434279
-0.164344
0.0455969
-0.178097
0.0472007
-0.196524
0.0480264
-0.215514
0.0483415
-0.23602
0.0471454
-0.257988
0.0463823
-0.279832
0.0425627
-0.315365
-0.300499
0.0396417
-0.147541
-0.0378061
0.0424453
-0.167148
0.0445144
-0.180166
0.0458195
-0.197829
0.046528
-0.216222
0.0465834
-0.236075
0.045524
-0.256929
0.0442375
-0.278545
0.0406883
-0.311816
-0.287005
0.0376461
-0.149485
-0.0357015
0.0401653
-0.169667
0.0421
-0.182101
0.0431991
-0.198928
0.0438405
-0.216863
0.0438611
-0.236096
0.0429289
-0.255997
0.0418378
-0.277454
0.0379085
-0.307886
-0.272876
0.0350828
-0.151595
-0.0329727
0.0373042
-0.171889
0.0391881
-0.183985
0.0401791
-0.199919
0.0408155
-0.2175
0.0408866
-0.236167
0.0401876
-0.255298
0.0393416
-0.276608
0.0349342
-0.303479
-0.258206
0.0320128
-0.153862
-0.0297461
0.0339022
-0.173778
0.0357193
-0.185802
0.0366757
-0.200875
0.0373578
-0.218182
0.0375549
-0.236364
0.0371659
-0.254909
0.0365551
-0.275997
0.0316992
-0.298623
-0.243127
0.0283908
-0.156176
-0.026077
0.029957
-0.175344
0.031741
-0.187586
0.0327306
-0.201865
0.0335315
-0.218983
0.0339275
-0.23676
0.033923
-0.254904
0.0335608
-0.275635
0.0283103
-0.293373
-0.227699
0.0243284
-0.158434
-0.0220703
0.0255541
-0.17657
0.0273348
-0.189366
0.0283837
-0.202914
0.0293665
-0.219966
0.0300194
-0.237413
0.0304298
-0.255315
0.0302868
-0.275492
0.024788
-0.287874
-0.211992
0.0198731
-0.160489
-0.0178178
0.0207216
-0.177418
0.0225684
-0.191213
0.0236934
-0.204039
0.0249156
-0.221188
0.0258787
-0.238376
0.0267072
-0.256143
0.026744
-0.275529
0.0211697
-0.282299
-0.196175
0.0151354
-0.162218
-0.0134066
0.0155582
-0.177841
0.017525
-0.19318
0.0187446
-0.205258
0.02024
-0.222683
0.0215553
-0.239691
0.0227833
-0.257371
0.0229588
-0.275705
0.0173657
-0.276706
-0.180685
0.0102145
-0.16355
-0.00888252
0.0101734
-0.1778
0.0122968
-0.195303
0.0136438
-0.206605
0.0154114
-0.224451
0.0171025
-0.241382
0.0187154
-0.258984
0.0190611
-0.27605
0.0133401
-0.270985
-0.166092
0.00517697
-0.164431
-0.00429608
0.00467124
-0.177294
0.00700496
-0.197637
0.00848618
-0.208086
0.0105087
-0.226474
0.0125697
-0.243443
0.0145638
-0.260978
0.0151002
-0.276587
0.00928684
-0.265172
-0.152581
-0.000167657
-0.16474
0.000476952
-0.000704006
-0.176758
0.00159736
-0.199938
0.00331614
-0.209805
0.00557296
-0.22873
0.00798423
-0.245855
0.0103727
-0.263366
0.0110736
-0.277288
0.00519952
-0.259298
-0.140295
-0.00514317
-0.165353
0.00575563
-0.00585195
-0.176049
-0.00380818
-0.201982
-0.00179971
-0.211814
0.000592161
-0.231122
0.00342138
-0.248684
0.00616549
-0.26611
0.00709392
-0.278216
0.00066664
-0.25287
-0.129815
-0.0103482
-0.166207
0.0112024
-0.0106793
-0.175718
-0.00909262
-0.203569
-0.00679987
-0.214106
-0.00424781
-0.233674
-0.00117328
-0.251758
0.00187583
-0.26916
0.00331478
-0.279655
-0.0023013
-0.247254
-0.119691
-0.015517
-0.167392
0.0167024
-0.0151385
-0.176097
-0.0142067
-0.204501
-0.0116664
-0.216647
-0.00902487
-0.236316
-0.005678
-0.255105
-0.00203789
-0.2728
-0.000333536
-0.281359
-0.00521053
-0.242377
-0.109854
-0.0205163
-0.16863
0.021754
-0.0193062
-0.177307
-0.0190599
-0.204747
-0.0163856
-0.219321
-0.0136644
-0.239037
-0.0100284
-0.258741
-0.00599084
-0.276837
-0.0044177
-0.282933
-0.00820657
-0.238589
-0.100447
-0.0249884
-0.169375
0.0257339
-0.0230678
-0.179227
-0.0233451
-0.20447
-0.0206486
-0.222017
-0.0178301
-0.241856
-0.013958
-0.262613
-0.00973963
-0.281056
-0.00790274
-0.284769
-0.0111645
-0.235327
-0.0915397
-0.0282039
-0.169516
0.0283444
-0.0261437
-0.181287
-0.0266809
-0.203933
-0.0240659
-0.224632
-0.0212328
-0.244689
-0.0173201
-0.266526
-0.0130899
-0.285286
-0.0109839
-0.286875
-0.0140757
-0.232235
-0.0831563
-0.0304737
-0.169197
0.0301549
-0.0290339
-0.182727
-0.0296283
-0.203338
-0.0273762
-0.226884
-0.0246836
-0.247381
-0.0208937
-0.270316
-0.0166714
-0.289508
-0.0141423
-0.289404
-0.0170852
-0.229292
-0.0752965
-0.0349985
-0.166075
0.0318768
-0.0344156
-0.18331
-0.0348456
-0.202908
-0.0335469
-0.228183
-0.0310138
-0.249914
-0.0270868
-0.274243
-0.0223164
-0.294278
-0.018873
-0.292848
-0.0197456
-0.22842
-0.0673619
-0.0302495
-0.156774
0.0209481
-0.0289584
-0.184601
-0.0310068
-0.20086
-0.0319158
-0.227274
-0.029647
-0.252183
-0.027918
-0.275972
-0.0310802
-0.291116
-0.0497425
-0.274186
-0.0921128
-0.186049
-0.0323911
-0.0517414
-0.149947
0.0449144
-0.0561819
-0.180161
-0.0570846
-0.199957
-0.0571435
-0.227215
-0.0559596
-0.253367
-0.0559771
-0.275955
-0.0651435
-0.28195
-0.0948347
-0.244494
-0.141307
-0.139577
-0.00547645
-0.0730302
-0.144575
0.067658
-0.0781598
-0.175031
-0.081808
-0.196309
-0.083167
-0.225856
-0.0835156
-0.253018
-0.0869496
-0.272521
-0.103362
-0.265537
-0.140874
-0.206983
-0.18667
-0.0937803
0.0125248
-0.0977177
-0.137814
0.0909574
-0.105346
-0.167403
-0.110288
-0.191367
-0.113183
-0.222961
-0.115238
-0.250964
-0.123241
-0.264517
-0.148562
-0.240216
-0.193468
-0.162077
-0.236393
-0.0508549
0.0213761
-0.121706
-0.128116
0.112008
-0.132959
-0.15615
-0.140908
-0.183419
-0.146474
-0.217395
-0.152309
-0.245129
-0.167898
-0.248928
-0.203475
-0.20464
-0.252257
-0.113295
-0.287488
-0.0156245
0.0217787
-0.146142
-0.1143
0.132325
-0.161865
-0.140427
-0.174691
-0.170592
-0.185621
-0.206465
-0.199066
-0.231684
-0.225377
-0.222616
-0.269215
-0.160802
-0.315185
-0.0673245
-0.337988
0.00717787
0.0156936
-0.170372
-0.0932246
0.149297
-0.193423
-0.117376
-0.215265
-0.14875
-0.236255
-0.185475
-0.260314
-0.207625
-0.296491
-0.18644
-0.341686
-0.115607
-0.376823
-0.0321876
-0.385865
0.0162205
0.00715156
-0.199178
-0.0674391
0.173393
-0.231248
-0.0853062
-0.263253
-0.116746
-0.294207
-0.15452
-0.328889
-0.172943
-0.374334
-0.140995
-0.420172
-0.0697689
-0.444666
-0.0076936
-0.44139
0.0129451
-0.000667636
-0.208258
-0.0345409
0.17536
-0.245099
-0.0484652
-0.288448
-0.0733976
-0.339889
-0.103079
-0.404724
-0.108108
-0.477711
-0.0680075
-0.529801
-0.0176788
-0.541112
0.00361775
-0.529013
0.000845205
-0.00434607
-0.196569
0.162028
-0.245034
-0.318432
-0.421511
-0.529619
-0.597627
-0.615306
-0.611688
-0.610843
-0.0406718
0.0254582
0.0361617
-0.0431514
0.0473941
-0.0445551
0.0690617
-0.043609
0.0900113
-0.0408147
0.109214
-0.0366271
0.128138
-0.029065
0.141735
-0.0215605
0.165888
-0.0106094
0.164409
0.151419
-0.0397065
0.0284529
0.0367118
-0.0411021
0.0487897
-0.0419196
0.0698791
-0.0405087
0.0886004
-0.0377633
0.106469
-0.0332413
0.123616
-0.0272873
0.135781
-0.0188749
0.157476
-0.00996934
0.155503
0.14145
-0.0397871
0.0311937
0.0370463
-0.0403625
0.0493651
-0.0405267
0.0700433
-0.0385584
0.0866322
-0.0355122
0.103422
-0.0309803
0.119084
-0.0250647
0.129865
-0.017195
0.149606
-0.00915303
0.147461
0.132297
-0.0392341
0.0335446
0.0368833
-0.0395052
0.0496362
-0.0392919
0.06983
-0.0369659
0.0843061
-0.0336667
0.100123
-0.0290787
0.114496
-0.0232181
0.124004
-0.0158117
0.1422
-0.00847658
0.140126
0.12382
-0.0380352
0.0353766
0.0362031
-0.0380526
0.0496536
-0.0375569
0.0693344
-0.0350927
0.0818419
-0.0317291
0.0967596
-0.0272126
0.10998
-0.0215163
0.118308
-0.0145689
0.135252
-0.00777025
0.133328
0.11605
-0.0364535
0.0368026
0.0350275
-0.0362727
0.0494728
-0.0354398
0.0685014
-0.0329391
0.0793413
-0.0296199
0.0934404
-0.0252698
0.105629
-0.0198418
0.11288
-0.0133234
0.128734
-0.00692633
0.126931
0.109123
-0.0345579
0.0379209
0.0334396
-0.0343271
0.0492421
-0.0331528
0.067327
-0.0306954
0.0768839
-0.0274294
0.0901744
-0.0232759
0.101476
-0.0181724
0.107777
-0.0120465
0.122608
-0.00598309
0.120867
0.10314
-0.0324315
0.0388032
0.0315491
-0.0322452
0.0490558
-0.030779
0.0658608
-0.0284154
0.0745203
-0.0252057
0.0869647
-0.0212657
0.097536
-0.0165141
0.103025
-0.0107735
0.116867
-0.00503993
0.115134
0.0981003
-0.0301703
0.0395049
0.0294687
-0.0300732
0.0489588
-0.0283716
0.0641592
-0.0261299
0.0722786
-0.0229973
0.0838321
-0.0192826
0.0938212
-0.0148975
0.0986398
-0.00955339
0.111523
-0.00417318
0.109753
0.0939272
-0.0278422
0.0400372
0.0273099
-0.0278338
0.0489504
-0.0259816
0.062307
-0.0238861
0.0701831
-0.0208557
0.0808017
-0.017371
0.0903365
-0.013361
0.0946298
-0.00842444
0.106587
-0.00341743
0.104746
0.0905097
-0.0254776
0.0404232
0.0250916
-0.0255283
0.0490011
-0.0236434
0.0604221
-0.0217008
0.0682406
-0.0188075
0.0779083
-0.0155573
0.0870864
-0.0119304
0.0910029
-0.00740663
0.102063
-0.00278045
0.10012
0.0877293
-0.0230624
0.0406477
0.0228379
-0.0231782
0.0491168
-0.0213101
0.058554
-0.0195284
0.0664589
-0.0168441
0.075224
-0.0138513
0.0840937
-0.0106146
0.0877662
-0.00650125
0.0979496
-0.00225557
0.0958745
0.0854737
-0.0207088
0.040647
0.0207095
-0.0208861
0.0492941
-0.019069
0.0567369
-0.0174472
0.064837
-0.015012
0.0727889
-0.0122744
0.081356
-0.00942217
0.084914
-0.00570103
0.0942285
-0.00182877
0.0920023
0.0836449
-0.0185512
0.040451
0.0187473
-0.0187632
0.049506
-0.0170125
0.0549862
-0.0155061
0.0633305
-0.0133548
0.0706376
-0.0108404
0.0788416
-0.00835545
0.0824291
-0.0049935
0.0908665
-0.00148338
0.0884922
0.0821616
-0.0165945
0.0401328
0.0169127
-0.0167539
0.0496654
-0.0151917
0.0534241
-0.0137537
0.0618925
-0.0118697
0.0687535
-0.00954757
0.0765195
-0.00741303
0.0802945
-0.00437032
0.0878238
-0.00120962
0.0853315
0.0809519
-0.0148101
0.0397862
0.0151566
-0.014865
0.0497204
-0.0135447
0.0521038
-0.0122054
0.0605532
-0.0105465
0.0670946
-0.00838221
0.0743552
-0.00658296
0.0784953
-0.00382612
0.085067
-0.00100549
0.0825108
0.0799465
-0.0131558
0.0395155
0.0134265
-0.0131336
0.0496983
-0.0120292
0.0509993
-0.010797
0.0593209
-0.00935461
0.0656523
-0.00733298
0.0723336
-0.00585217
0.0770144
-0.00335776
0.0825726
-0.000873966
0.080027
0.0790725
-0.0115391
0.039404
0.0116506
-0.0114418
0.049601
-0.0105909
0.0501484
-0.00943242
0.0581625
-0.00826663
0.0644865
-0.00639492
0.0704619
-0.00521174
0.0758313
-0.00296114
0.080322
-0.000823622
0.0778895
0.0782489
-0.00991101
0.0394835
0.00983148
-0.00985886
0.0495488
-0.00924742
0.049537
-0.00816556
0.0570806
-0.00727807
0.063599
-0.00556248
0.0687463
-0.00465872
0.0749275
-0.00263788
0.0783011
-0.000867336
0.076119
0.0773815
-0.00836902
0.0404329
0.00741971
-0.00816839
0.0493482
-0.00785014
0.0492187
-0.00678247
0.0560129
-0.00621218
0.0630287
-0.00465511
0.0671892
-0.00409649
0.0743689
-0.00233673
0.0765414
-0.00101214
0.0747944
0.0763694
-0.0753733
0.0253894
0.0904168
-0.0643915
0.0383664
-0.0581312
0.0429585
-0.0510137
0.0488954
-0.0432777
0.0552927
-0.035399
0.0593105
-0.0261483
0.0651182
-0.0174187
0.0678117
-0.0096326
0.0670083
0.0667368
-0.0682548
0.0286444
0.0649998
-0.0620101
0.0321216
-0.0573832
0.0383316
-0.0511381
0.0426503
-0.043444
0.0475987
-0.0361042
0.0519707
-0.0264497
0.0554637
-0.0178594
0.0592214
-0.00966726
0.0588162
0.0570695
-0.0608733
0.0228746
0.0666431
-0.0553456
0.0265939
-0.0496445
0.0326306
-0.0439094
0.0369152
-0.0375439
0.0412332
-0.0311368
0.0455636
-0.0232835
0.0476104
-0.0158047
0.0517426
-0.00816741
0.0511788
0.0489021
-0.0559285
0.0189668
0.0598362
-0.0515762
0.0222416
-0.0462217
0.0272761
-0.040443
0.0311365
-0.0340736
0.0348639
-0.0275721
0.0390621
-0.0204578
0.0404961
-0.0135342
0.044819
-0.00658695
0.0442316
0.0423152
-0.0509914
0.0154752
0.0544831
-0.0470938
0.018344
-0.0422721
0.0224544
-0.0368999
0.0257643
-0.030913
0.028877
-0.0246303
0.0327793
-0.0181063
0.0339721
-0.0115995
0.0383122
-0.00533557
0.0379677
0.0369796
-0.0471107
0.0121937
0.0503922
-0.0433962
0.0146296
-0.0388048
0.0178629
-0.0336601
0.0206196
-0.027976
0.0231929
-0.0217974
0.0266007
-0.0158153
0.02799
-0.00960017
0.032097
-0.00407869
0.0324462
0.0329009
-0.0440462
0.00917684
0.0470631
-0.0404295
0.0110128
-0.0359679
0.0134013
-0.0309217
0.0155733
-0.0254139
0.0176851
-0.0190137
0.0202005
-0.0135168
0.0224932
-0.00715821
0.0257384
-0.00244149
0.0277295
0.0304594
-0.0418431
0.00634042
0.0446795
-0.0382373
0.00740695
-0.0337897
0.00895379
-0.0287196
0.0105032
-0.0232876
0.0122531
-0.0161677
0.0130807
-0.0111877
0.0175131
-0.00361567
0.0181664
0.000117904
0.0239959
0.0305773
-0.0428316
0.00365165
0.0455204
-0.0390977
0.00367302
-0.0344555
0.00431163
-0.0290938
0.00514148
-0.0235235
0.00668286
-0.0150586
0.00461569
-0.0102229
0.0126775
-9.3529e-05
0.00803699
0.00555654
0.0183458
0.0361339
-0.0996189
0.103271
-0.0959459
-0.0916342
-0.0864928
-0.0798099
-0.0751942
-0.0625167
-0.0544797
-0.0361339
-0.00944693
0.09138
0.00848373
-0.00541067
0.0609635
-0.00477457
0.066007
-0.00321857
0.0582802
-0.00227014
0.0535346
-0.00150133
0.0496234
-0.000909885
0.0464717
-0.000497687
0.0442673
-0.000577866
0.0456005
0.102693
-0.00763011
0.0900663
0.00894387
-0.00457656
0.05791
-0.00423538
0.0656658
-0.00277172
0.0568166
-0.00202866
0.0527916
-0.00135589
0.0489506
-0.000840516
0.0459563
-0.000461929
0.0438888
-0.000480701
0.0456193
0.102212
-0.00598589
0.087077
0.00897513
-0.00427415
0.0561982
-0.00370877
0.0651004
-0.00251545
0.0556232
-0.00187324
0.0521494
-0.00127748
0.0483548
-0.00081257
0.0454914
-0.000442668
0.0435189
-0.000373144
0.0455498
0.101839
-0.00378883
0.0831273
0.00773854
-0.00400088
0.0564103
-0.00319109
0.0642906
-0.00230413
0.0547363
-0.00173
0.0515752
-0.00120036
0.0478252
-0.000771033
0.0450621
-0.000402785
0.0431506
-0.000256127
0.0454031
0.101583
-0.00168784
0.0789244
0.00589077
-0.00355066
0.0582731
-0.00261833
0.0633583
-0.00204701
0.054165
-0.0015423
0.0510705
-0.00108291
0.0473658
-0.000692092
0.0446712
-0.000337224
0.0427957
-0.000137499
0.0452034
0.101445
-0.000467638
0.0751431
0.00424891
-0.00304631
0.0608518
-0.00205181
0.0623638
-0.00175482
0.053868
-0.00131747
0.0506332
-0.000930551
0.0469789
-0.000584006
0.0443247
-0.000256155
0.0424679
-3.26037e-05
0.0449798
0.101413
-3.94576e-05
0.0721472
0.00303536
-0.00255638
0.0633687
-0.00153508
0.0613425
-0.00144995
0.0537828
-0.0010719
0.0502551
-0.000755543
0.0466625
-0.000456963
0.0440261
-0.000164846
0.0421758
8.64701e-05
0.0447285
0.101499
8.24611e-05
0.0699554
0.00210933
-0.00205068
0.0655018
-0.00107148
0.0603633
-0.00112946
0.0538408
-0.000811425
0.0499371
-0.000565054
0.0464161
-0.000318681
0.0437797
-6.94061e-05
0.0419265
0.000185833
0.0444733
0.101685
0.000158245
0.068473
0.00132415
-0.00150183
0.0671619
-0.000659091
0.0595206
-0.000793296
0.053975
-0.00054145
0.0496852
-0.000366378
0.0462411
-0.000176354
0.0435897
2.37183e-05
0.0417264
0.000257642
0.0442394
0.101943
0.000343115
0.0675381
0.000591838
-0.000900535
0.0684056
-0.000292104
0.0589121
-0.000443852
0.0541268
-0.000268089
0.0495095
-0.000166593
0.0461396
-3.3443e-05
0.0434566
0.000107412
0.0415856
0.000305114
0.0440417
0.102248
0.000610057
0.0670394
-0.000111335
-0.000237665
0.0692533
4.41251e-05
0.0586303
-7.35961e-05
0.0542445
1.9148e-06
0.049434
2.93155e-05
0.0461122
0.000103076
0.0433828
0.000186282
0.0415023
0.000326469
0.0439015
0.102574
0.000926038
0.0667668
-0.000653421
0.000360429
0.0698189
0.000456822
0.0585339
0.000286517
0.0544148
0.000263729
0.0494567
0.00023373
0.0461422
0.000235579
0.0433809
0.000257612
0.0414803
0.000341012
0.0438181
0.102915
0.00120233
0.0668635
-0.00129912
0.000967033
0.0700542
0.000825732
0.0586752
0.000650517
0.05459
0.000527485
0.0495798
0.000429935
0.0462397
0.000362886
0.043448
0.000321339
0.0415219
0.000348935
0.0437905
0.103264
0.0014334
0.0674008
-0.00197069
0.00161604
0.0698716
0.00119124
0.0591001
0.00100161
0.0547796
0.000782216
0.0497992
0.000617554
0.0464044
0.000482872
0.0435827
0.000377667
0.0416271
0.000351456
0.0438167
0.103616
0.00174281
0.0683699
-0.00271187
0.00228467
0.0693297
0.00155918
0.0598256
0.00134087
0.0549979
0.00102799
0.0501121
0.000794276
0.0466381
0.000594154
0.0437828
0.000426909
0.0417943
0.000351599
0.043892
0.103967
0.0020826
0.0698485
-0.00356124
0.0029658
0.0684465
0.00193863
0.0608527
0.00167115
0.0552654
0.00126414
0.0505191
0.000958489
0.0469437
0.000695361
0.0440459
0.000469197
0.0420205
0.000352921
0.0440083
0.10432
0.00246477
0.0719505
-0.00456668
0.00361326
0.067298
0.00233062
0.0621354
0.0019854
0.0556106
0.00148337
0.0510211
0.00110587
0.0473212
0.000784031
0.0443678
0.000504834
0.0422997
0.00035977
0.0441533
0.10468
0.00294296
0.0748018
-0.00579428
0.00417783
0.0660631
0.0027642
0.063549
0.00229958
0.0560753
0.00169672
0.0516239
0.00124283
0.0477751
0.000863906
0.0447467
0.000537472
0.0426261
0.000379392
0.0443114
0.105059
0.00352677
0.0783975
-0.00712246
0.00461759
0.0649723
0.00320166
0.0649649
0.00255719
0.0567197
0.00186675
0.0523144
0.0013439
0.048298
0.000914242
0.0451763
0.000555881
0.0429845
0.000411398
0.0444559
0.105471
0.00404295
0.0829121
-0.00855755
0.0047569
0.0642584
0.00355511
0.0661667
0.00275124
0.0575236
0.00203302
0.0530326
0.00143146
0.0488995
0.000956926
0.0456509
0.000563371
0.043378
0.000462653
0.0445566
0.105933
-0.0434996
0.0805023
0.0459094
-0.0318056
0.0525644
-0.0256656
0.0600267
-0.0201391
0.0519971
-0.0159104
0.0488039
-0.0122471
0.0452362
-0.00897817
0.0423819
-0.00603789
0.0404377
-0.00409544
0.0426142
0.101838
-0.0355547
0.0673105
0.0487464
-0.0350471
0.0520568
-0.0281195
0.0530991
-0.0236299
0.0475075
-0.0191076
0.0442816
-0.0149323
0.041061
-0.0110069
0.0384565
-0.00723832
0.0366691
-0.00369435
0.0390702
0.0981435
-0.0395456
0.0539497
0.0529063
-0.0385468
0.051058
-0.0315429
0.0460953
-0.026969
0.0429336
-0.0220643
0.0393768
-0.0174125
0.0364092
-0.0128754
0.0339195
-0.00836034
0.032154
-0.00390955
0.0346194
0.0942339
-0.0460965
0.0452368
0.0548095
-0.0423643
0.0473258
-0.0355418
0.0392728
-0.0303106
0.0377024
-0.0250194
0.0340856
-0.019905
0.0312949
-0.0147981
0.0288125
-0.00956708
0.026923
-0.00435487
0.0294072
0.0898791
-0.0519677
0.0359698
0.0612347
-0.0458034
0.0411616
-0.0389841
0.0324534
-0.0330758
0.031794
-0.0274715
0.0284814
-0.0221101
0.0259334
-0.0168694
0.0235719
-0.0116652
0.0217187
-0.00620465
0.0239467
0.0836744
-0.0544379
0.0294696
0.0609381
-0.0492375
0.0359611
-0.042999
0.026215
-0.0370117
0.0258067
-0.0311746
0.0226443
-0.0252142
0.019973
-0.0187292
0.0170868
-0.0111711
0.0141607
-0.00298151
0.0157571
0.0806929
-0.0594716
0.0210402
0.067901
-0.0509308
0.0274203
-0.0442755
0.0195597
-0.0377464
0.0192776
-0.0319535
0.0168515
-0.0266345
0.014654
-0.0217644
0.0122168
-0.0172783
0.00967459
-0.0123277
0.0108065
0.0683652
-0.0614457
0.0144199
0.068066
-0.0546268
0.0206014
-0.0485068
0.0134397
-0.0423465
0.0131172
-0.0366287
0.0111337
-0.0310216
0.00904691
-0.0249065
0.00610162
-0.0165784
0.00134656
-0.00605972
0.000287802
0.0623054
-0.0643033
0.00841092
0.0703123
-0.0542627
0.0105608
-0.0480916
0.0072686
-0.0417227
0.00674827
-0.0361737
0.00558464
-0.0313381
0.00421132
-0.0274852
0.00224872
-0.0255
-0.000638606
-0.0236384
-0.00157383
0.0386671
-0.073077
0.081488
-0.0625162
-0.0552476
-0.0484993
-0.0429147
-0.0387034
-0.0364546
-0.0370933
-0.0386671
0.0101859
0.0472725
-0.0115489
0.00707532
0.051857
0.00545406
0.0545276
0.00380975
0.0564538
0.00320192
0.0618425
0.0017297
0.0624103
0.00175974
0.067871
0.000297631
0.0695281
0.00104868
0.0695612
0.0825366
0.00987252
0.0492924
-0.0118925
0.00716354
0.054566
0.00582786
0.0558633
0.00450412
0.0577775
0.00392825
0.0624184
0.00246066
0.0638779
0.00231771
0.0680139
0.000882403
0.0709634
0.00135281
0.0690908
0.0838894
0.00979151
0.0507853
-0.0112844
0.00818641
0.0561711
0.00717249
0.0568772
0.00597534
0.0589747
0.00518906
0.0632047
0.00369379
0.0653732
0.00318173
0.068526
0.00173274
0.0724124
0.00168909
0.0691345
0.0855785
0.0101643
0.0514151
-0.0107941
0.00942929
0.0569061
0.00870956
0.0575969
0.00744977
0.0602345
0.00646202
0.0641924
0.0048846
0.0669506
0.00406518
0.0693454
0.00252732
0.0739503
0.00195335
0.0697085
0.0875319
0.0110155
0.0514621
-0.0110625
0.0107344
0.0571872
0.0100094
0.058322
0.00876491
0.0614789
0.00760308
0.0653543
0.0059113
0.0686424
0.00483564
0.0704211
0.00315967
0.0756263
0.0021026
0.0707655
0.0896345
0.0123076
0.0512517
-0.0120971
0.0122091
0.0572856
0.0113949
0.0591362
0.0100669
0.0628069
0.00870547
0.0667157
0.00685879
0.070489
0.00552889
0.071751
0.00367014
0.077485
0.0021727
0.072263
0.0918072
0.0139189
0.0509772
-0.0136444
0.0138329
0.0573715
0.0129238
0.0600453
0.0114316
0.0642991
0.00984287
0.0683045
0.00780447
0.0725274
0.00620489
0.0733506
0.00412768
0.0795622
0.00221646
0.0741742
0.0940236
0.015721
0.0507043
-0.0154481
0.0155523
0.0575403
0.0144931
0.0611045
0.0128619
0.0659302
0.0110374
0.070129
0.00879077
0.0747741
0.0069024
0.0752389
0.00458064
0.081884
0.00227231
0.0764825
0.0962959
0.0175802
0.0504537
-0.0173297
0.017353
0.0577675
0.0161382
0.0623193
0.0143626
0.0677058
0.0123013
0.0721903
0.00984087
0.0772345
0.00764673
0.0774331
0.00505783
0.0844729
0.0023626
0.0791778
0.0986585
0.0194575
-0.0192112
0.0191988
0.0178374
0.0159291
0.0136376
0.0109601
0.00844885
0.00557364
0.00249755
0.00144199
-0.000463576
0.00489981
-0.012065
0.00909144
-0.0216656
0.0132766
-0.0266985
0.017263
-0.0283661
0.0211195
-0.0281662
0.0249885
-0.0271373
0.0290427
-0.0257599
0.0334475
-0.0245609
-0.0230403
0.00176028
-0.00222386
0.00549934
-0.015804
0.00971851
-0.0258847
0.0137492
-0.0307292
0.0175145
-0.0321313
0.0211612
-0.031813
0.0248568
-0.0308329
0.0287852
-0.0296883
0.0329511
-0.0287269
-0.0278952
0.00205282
-0.00427668
0.00595196
-0.0197032
0.0100557
-0.0299885
0.013816
-0.0344895
0.0172747
-0.0355901
0.0206341
-0.0351723
0.0240667
-0.0342656
0.0277039
-0.0333255
0.0315471
-0.0325701
-0.0320496
0.0022983
-0.00657497
0.00621884
-0.0236237
0.0100731
-0.0338427
0.0134674
-0.0378838
0.0165549
-0.0386777
0.0195726
-0.03819
0.0226836
-0.0373766
0.0259723
-0.0366141
0.0294202
-0.0360181
-0.0356021
0.0024761
-0.00905107
0.0062759
-0.0274235
0.00976575
-0.0373326
0.0127225
-0.0408405
0.0153941
-0.0413492
0.0180338
-0.0408297
0.0207837
-0.0401265
0.0236864
-0.0395168
0.0267007
-0.0390323
-0.0386475
0.00256861
-0.0116197
0.00611465
-0.0309696
0.00914917
-0.0403671
0.0116184
-0.0433098
0.0138436
-0.0435744
0.0160786
-0.0430647
0.0184383
-0.0424862
0.0209295
-0.0420081
0.0234978
-0.0416006
-0.0412267
0.00256386
-0.0141835
0.00574127
-0.034147
0.00825422
-0.04288
0.0102035
-0.0452591
0.0119604
-0.0453313
0.0137689
-0.0448733
0.0157158
-0.0444331
0.0177823
-0.0440745
0.0199133
-0.0437316
-0.0433836
0.00245754
-0.0166411
0.00517516
-0.0368646
0.00712349
-0.0448284
0.00853336
-0.0466689
0.009805
-0.0466029
0.0111682
-0.0462365
0.0126889
-0.0459538
0.0143342
-0.0457198
0.0160526
-0.04545
-0.0451488
0.00225371
-0.0188948
0.00444635
-0.0390573
0.00580826
-0.0461903
0.00666964
-0.0475303
0.00744197
-0.0473752
0.00834357
-0.0471381
0.00943358
-0.0470438
0.0106776
-0.0469639
0.0120181
-0.0467904
-0.0465374
0.00196344
-0.0208582
0.0035928
-0.0406866
0.00436645
-0.0469639
0.0046796
-0.0478435
0.00494137
-0.047637
0.00536592
-0.0475627
0.00602309
-0.0477009
0.006887
-0.0478278
0.00788432
-0.0477877
-0.0475355
0.00170584
-0.0225641
0.00278972
-0.0417705
0.00298529
-0.0471595
0.00274557
-0.0476037
0.00247281
-0.0473642
0.0023893
-0.0474792
0.00258877
-0.0479004
0.00305254
-0.0482915
0.00366854
-0.0484037
-0.0481631
0.00133884
-0.0239029
0.00186005
-0.0422917
0.0015082
-0.0468076
0.000744556
-0.0468401
-4.57425e-05
-0.0465739
-0.000638845
-0.0468861
-0.000912693
-0.0476266
-0.000868413
-0.0483358
-0.000655831
-0.0486163
-0.048342
0.000951982
-0.0248549
0.000935864
-0.0422756
7.84383e-05
-0.0459502
-0.0011523
-0.0456094
-0.0024424
-0.0452839
-0.00356617
-0.0457623
-0.00436265
-0.0468301
-0.00482127
-0.0478772
-0.00516108
-0.0482765
-0.0477474
0.000565227
-0.0254201
8.77416e-05
-0.0417981
-0.00123367
-0.0446288
-0.00288756
-0.0439555
-0.00463324
-0.0435382
-0.00628368
-0.0441118
-0.00766636
-0.0454474
-0.00876457
-0.046779
-0.00983366