/*--------------------------------*- C++ -*----------------------------------*\
  =========                 |
  \\      /  F ield         | OpenFOAM: The Open Source CFD Toolbox
   \\    /   O peration     | Website:  https://openfoam.org
    \\  /    A nd           | Version:  7
     \\/     M anipulation  |
\*---------------------------------------------------------------------------*/
FoamFile
{
    version     2.0;
    format      ascii;
    class       volVectorField;
    location    "9.8";
    object      U;
}
// * * * * * * * * * * * * * * * * * * * * * * * * * * * * * * * * * * * * * //

dimensions      [0 1 -1 0 0 0 0];

internalField   nonuniform List<vector> 
32000
(
(0.000223969 -0.00601006 -1.45891e-22)
(0.00141575 -0.0132703 0)
(0.00376949 -0.0162926 -1.31238e-21)
(0.00692103 -0.0158626 0)
(0.0108333 -0.0125639 1.37343e-21)
(0.0154245 -0.00685357 0)
(0.0206357 0.000903266 1.42394e-21)
(0.0264172 0.0104088 -1.08404e-21)
(0.0327259 0.02142 7.30726e-25)
(0.0395235 0.0337364 7.21228e-25)
(0.0467741 0.0471881 -3.74285e-22)
(0.0544427 0.0616298 1.51261e-21)
(0.0624936 0.0769338 0)
(0.0708899 0.0929841 -3.84695e-22)
(0.079592 0.109673 3.86289e-22)
(0.0885575 0.126898 0)
(0.0977412 0.144558 1.95791e-21)
(0.107095 0.162553 -3.93087e-22)
(0.116569 0.180785 0)
(0.12611 0.199151 7.99667e-22)
(0.135663 0.217552 8.02096e-22)
(0.145172 0.235887 0)
(0.154579 0.254058 0)
(0.163829 0.271965 0)
(0.172867 0.289515 0)
(0.18164 0.306618 0)
(0.190099 0.323189 0)
(0.198199 0.33915 0)
(0.2059 0.354433 -1.69732e-21)
(0.213165 0.368977 0)
(0.219967 0.38273 1.7281e-21)
(0.226281 0.395652 0)
(0.232092 0.407711 0)
(0.237389 0.418888 0)
(0.242167 0.429169 -1.79436e-21)
(0.246429 0.438551 -9.17116e-22)
(0.250183 0.44703 2.76299e-21)
(0.25345 0.454599 4.8462e-24)
(0.256252 0.461227 1.88454e-21)
(0.258477 0.466809 4.41507e-24)
(0.000343549 -0.00626255 0)
(0.00165318 -0.0139884 2.55925e-21)
(0.00399496 -0.0174567 6.54606e-22)
(0.00702277 -0.0174585 -1.75727e-24)
(0.0107123 -0.0145821 -6.86988e-22)
(0.0149952 -0.00928981 0)
(0.019825 -0.00194855 1.42592e-21)
(0.0251615 0.00714211 -1.44724e-21)
(0.030971 0.017738 0)
(0.0372232 0.02964 -2.96622e-21)
(0.0438889 0.0426798 0)
(0.050939 0.0567135 -4.53689e-21)
(0.0583442 0.0716161 0)
(0.0660735 0.087275 0)
(0.0740934 0.103586 1.54799e-21)
(0.0823679 0.120451 -1.55297e-21)
(0.0908581 0.137774 -1.56529e-21)
(0.0995223 0.15546 0)
(0.108316 0.173413 4.74536e-21)
(0.117194 0.19154 -1.5858e-21)
(0.126108 0.209742 3.12908e-24)
(0.135006 0.227925 -4.81381e-21)
(0.143837 0.245992 -3.23008e-21)
(0.152552 0.263849 -1.6361e-21)
(0.161098 0.281402 4.90346e-21)
(0.169427 0.298563 -4.95511e-21)
(0.177494 0.315248 5.00258e-21)
(0.185254 0.331378 -6.67953e-21)
(0.192668 0.346881 -1.67443e-21)
(0.199702 0.361694 3.53275e-23)
(0.206325 0.375763 -5.10986e-21)
(0.212513 0.389042 -3.44942e-21)
(0.218247 0.401495 7.02358e-21)
(0.223514 0.413094 -7.03602e-21)
(0.228306 0.423823 -1.76133e-21)
(0.232622 0.43367 -7.2206e-21)
(0.236467 0.442624 -1.01202e-23)
(0.23986 0.450668 1.85369e-21)
(0.242809 0.457764 -7.35852e-21)
(0.245182 0.463789 -1.03619e-20)
(0.000474149 -0.0065178 -5.86529e-22)
(0.00192015 -0.0147006 -1.27907e-21)
(0.00426376 -0.0185907 -5.91931e-21)
(0.00718092 -0.0190008 0)
(0.0106621 -0.0165268 6.88385e-22)
(0.0146532 -0.0116341 -7.00092e-22)
(0.0191197 -0.00469348 -8.55301e-21)
(0.0240311 0.00399507 2.89265e-21)
(0.0293631 0.0141875 -1.46722e-21)
(0.035093 0.0256841 8.89776e-21)
(0.0411974 0.0383178 2.99719e-21)
(0.047654 0.0519471 1.51351e-21)
(0.0544391 0.0664498 -6.0958e-21)
(0.061527 0.081716 0)
(0.0688897 0.0976454 0)
(0.0764963 0.114143 3.11206e-21)
(0.0843136 0.131118 1.06248e-23)
(0.0923059 0.148479 -3.13485e-21)
(0.100435 0.166137 -3.15975e-21)
(0.108661 0.184 -6.33876e-21)
(0.11694 0.201978 9.56966e-21)
(0.125229 0.219977 1.54079e-23)
(0.133481 0.237907 -7.28725e-24)
(0.14165 0.255675 3.23039e-21)
(0.14969 0.273191 -6.55185e-21)
(0.157557 0.290368 1.31219e-20)
(0.165206 0.307122 0)
(0.172598 0.323375 3.3446e-21)
(0.179695 0.339053 3.37172e-21)
(0.186461 0.354091 6.81072e-21)
(0.192868 0.368432 3.53118e-23)
(0.19889 0.382026 0)
(0.204507 0.394831 3.51281e-21)
(0.209703 0.406818 -3.44227e-21)
(0.214468 0.417961 -3.49301e-21)
(0.218798 0.428243 1.07844e-20)
(0.222695 0.437647 -1.07047e-20)
(0.226177 0.446147 7.32317e-21)
(0.229237 0.453694 -1.08869e-20)
(0.231727 0.460153 4.01245e-21)
(0.000614934 -0.00675102 4.69425e-21)
(0.00221159 -0.0153594 -5.13375e-21)
(0.00456705 -0.0196518 1.05325e-20)
(0.00738515 -0.0204518 0)
(0.0106705 -0.0183641 4.13218e-21)
(0.014383 -0.0138572 7.01559e-21)
(0.0185011 -0.00730567 1.4231e-21)
(0.0230049 0.000990101 2.22469e-24)
(0.0278785 0.010786 4.40249e-21)
(0.0331068 0.021882 -1.48303e-21)
(0.038673 0.0341133 7.493e-21)
(0.0445603 0.0473405 -9.07427e-21)
(0.05075 0.0614431 9.14099e-21)
(0.0572212 0.0763143 -3.07134e-21)
(0.063951 0.0918572 3.0841e-21)
(0.0709134 0.10798 -6.20651e-21)
(0.07808 0.124597 -9.36413e-21)
(0.0854205 0.14162 3.13078e-21)
(0.0929018 0.158965 -3.15839e-21)
(0.100489 0.176545 9.49753e-21)
(0.108144 0.194273 -6.37031e-21)
(0.115828 0.212062 -6.38579e-21)
(0.123501 0.229823 0)
(0.131121 0.247468 0)
(0.138646 0.264909 -6.48881e-21)
(0.146036 0.282062 -6.55722e-21)
(0.15325 0.298843 -6.56994e-21)
(0.160251 0.315175 0)
(0.167002 0.330983 0)
(0.173471 0.346202 -1.34863e-20)
(0.179628 0.36077 -8.8189e-23)
(0.185448 0.374636 6.86735e-21)
(0.19091 0.387754 -6.85215e-21)
(0.195996 0.400089 -7.00829e-21)
(0.200695 0.411612 7.02739e-21)
(0.205 0.422297 0)
(0.208912 0.432122 7.17281e-21)
(0.212447 0.441054 -1.44198e-20)
(0.215582 0.449034 1.45007e-20)
(0.218157 0.455914 -1.62463e-20)
(0.000764077 -0.00697599 -2.34295e-21)
(0.00252462 -0.0159911 3.85173e-21)
(0.00490166 -0.0206621 -5.26975e-21)
(0.00762921 -0.0218314 0)
(0.0107279 -0.0201116 -6.88968e-21)
(0.0141731 -0.0159753 -4.21104e-21)
(0.0179558 -0.00979941 5.70775e-21)
(0.0220669 -0.0018858 0)
(0.0264992 0.00752198 -8.80454e-21)
(0.0312451 0.0182249 -2.9692e-21)
(0.0362939 0.0300592 -2.99558e-21)
(0.041634 0.0428873 6.05183e-21)
(0.0472515 0.0565909 -6.09403e-21)
(0.0531302 0.0710664 3.06492e-21)
(0.0592512 0.0862198 0)
(0.0655929 0.101963 9.31261e-21)
(0.0721314 0.118213 3.12476e-21)
(0.0788408 0.134888 -6.27582e-21)
(0.0856926 0.151906 1.25869e-20)
(0.0926564 0.169185 -1.26427e-20)
(0.0996997 0.186643 1.26749e-20)
(0.106788 0.204196 6.38581e-21)
(0.113886 0.22176 0)
(0.120957 0.23925 6.46727e-21)
(0.127962 0.256582 3.85223e-23)
(0.134866 0.273672 0)
(0.141631 0.290441 6.56997e-21)
(0.148222 0.306809 -6.63385e-21)
(0.154606 0.322705 6.60624e-21)
(0.160751 0.33806 1.34434e-20)
(0.16663 0.352813 -1.34844e-20)
(0.172216 0.366908 1.3568e-20)
(0.177489 0.380297 0)
(0.18243 0.392941 0)
(0.187027 0.404805 1.39234e-20)
(0.191271 0.41586 0)
(0.195161 0.426076 0)
(0.198713 0.435413 -1.43068e-20)
(0.201889 0.443804 1.42787e-20)
(0.204514 0.451089 8.09271e-21)
(0.00092103 -0.00718664 1.17646e-21)
(0.00285606 -0.0165799 0)
(0.00526106 -0.0216067 1.05675e-20)
(0.00790454 -0.0231252 1.35255e-21)
(0.0108239 -0.0217558 1.38319e-21)
(0.0140102 -0.0179757 8.43997e-21)
(0.0174679 -0.0121639 1.14333e-20)
(0.0211992 -0.00462285 0)
(0.0252052 0.00440428 2.93768e-21)
(0.0294858 0.0147194 8.91118e-21)
(0.0340362 0.0261604 1.19947e-20)
(0.0388499 0.0385916 -3.02575e-21)
(0.0439174 0.0518972 -9.14099e-21)
(0.0492263 0.0659761 0)
(0.054762 0.0807372 1.2334e-20)
(0.0605063 0.096096 0)
(0.0664394 0.111972 1.86938e-20)
(0.0725392 0.128288 -6.24837e-21)
(0.0787812 0.144966 0)
(0.0851394 0.161929 -6.32458e-21)
(0.0915856 0.179098 -2.09336e-23)
(0.09809 0.196393 -6.33087e-21)
(0.104621 0.213734 -6.37187e-21)
(0.111145 0.23104 6.44642e-21)
(0.11763 0.24823 -6.42953e-21)
(0.124043 0.265224 0)
(0.130349 0.281942 -6.55874e-21)
(0.136517 0.298308 6.53368e-21)
(0.142517 0.31425 0)
(0.148318 0.329699 0)
(0.153893 0.344593 0)
(0.159218 0.358875 -1.35856e-20)
(0.164272 0.372494 1.35138e-20)
(0.169037 0.385406 0)
(0.173498 0.397574 -6.93392e-21)
(0.177646 0.408963 0)
(0.18148 0.419536 1.41331e-20)
(0.185015 0.429249 -6.94142e-21)
(0.188199 0.438026 -1.43493e-20)
(0.190843 0.445698 1.5868e-20)
(0.00108449 -0.00738369 8.25724e-21)
(0.00320237 -0.0171281 -1.16022e-20)
(0.00564008 -0.0224867 -1.98286e-20)
(0.00820355 -0.0243337 -1.08296e-20)
(0.0109483 -0.0232978 -2.76431e-21)
(0.0138822 -0.0198601 -5.62192e-21)
(0.0170234 -0.0144009 -2.57332e-20)
(0.0203854 -0.0072234 -8.70461e-21)
(0.0239784 0.0014299 -1.46893e-20)
(0.027809 0.0113625 -1.48501e-20)
(0.0318786 0.0224138 -2.09946e-20)
(0.0361851 0.0344502 -1.20979e-20)
(0.0407233 0.0473585 4.83275e-26)
(0.0454847 0.0610401 -1.22625e-20)
(0.0504576 0.0754066 -1.2334e-20)
(0.0556275 0.0903767 -1.85956e-20)
(0.0609778 0.105873 1.24446e-20)
(0.06649 0.121822 -6.24337e-21)
(0.072143 0.13815 0)
(0.0779144 0.154782 1.25948e-20)
(0.08378 0.171645 0)
(0.0897139 0.188662 2.54032e-20)
(0.0956881 0.205758 0)
(0.101674 0.222854 -6.42804e-21)
(0.107642 0.239873 6.48006e-21)
(0.113562 0.256737 -1.28817e-20)
(0.119405 0.27337 0)
(0.125142 0.289696 -1.31424e-20)
(0.130743 0.305645 1.30877e-20)
(0.136183 0.321149 0)
(0.141435 0.336143 0)
(0.146476 0.35057 0)
(0.151285 0.364377 -1.34727e-20)
(0.155845 0.377517 0)
(0.160141 0.38995 -1.38062e-20)
(0.164163 0.401635 2.76363e-20)
(0.167909 0.412532 -2.7845e-20)
(0.171395 0.42259 1.37794e-20)
(0.174554 0.431726 2.82556e-20)
(0.177185 0.439764 -1.57501e-20)
(0.00125338 -0.00756595 -1.06161e-20)
(0.00356006 -0.0176319 -1.55899e-23)
(0.00603279 -0.0232979 1.05814e-20)
(0.00851811 -0.0254531 2.16719e-20)
(0.0110907 -0.0247338 -2.76703e-21)
(0.0137767 -0.0216249 -1.12729e-20)
(0.0166079 -0.016508 1.14392e-20)
(0.0196097 -0.00968612 1.74119e-20)
(0.022801 -0.00140043 5.87512e-21)
(0.0261955 0.00815403 1.48585e-20)
(0.0298001 0.0188186 1.19976e-20)
(0.0336175 0.030462 1.8146e-20)
(0.0376462 0.0429734 3.65584e-20)
(0.0418809 0.0562569 1.83969e-20)
(0.046313 0.0702266 0)
(0.050931 0.0848041 6.19068e-21)
(0.0557211 0.0999158 6.2102e-21)
(0.0606678 0.11549 6.23471e-21)
(0.0657531 0.131458 1.25435e-20)
(0.0709577 0.147748 -6.29591e-21)
(0.0762609 0.16429 0)
(0.0816399 0.181012 -1.95834e-23)
(0.0870704 0.197842 -1.27174e-20)
(0.0925272 0.214705 1.27673e-20)
(0.0979844 0.231526 2.5673e-20)
(0.103416 0.248231 2.58261e-20)
(0.108795 0.264746 3.47785e-23)
(0.114095 0.280998 1.30038e-20)
(0.119291 0.296917 1.30735e-20)
(0.124357 0.312436 -1.31478e-20)
(0.12927 0.327491 1.32265e-20)
(0.134008 0.342023 1.33093e-20)
(0.138551 0.355978 2.68687e-20)
(0.142882 0.369307 -1.26323e-22)
(0.146987 0.381965 4.08227e-20)
(0.150855 0.39391 4.37756e-23)
(0.154484 0.405095 -1.37689e-20)
(0.157891 0.415466 -1.39718e-20)
(0.160996 0.424932 1.39584e-20)
(0.163584 0.433313 1.5681e-20)
(0.00142657 -0.00773174 9.46896e-21)
(0.00392561 -0.0180886 1.29144e-20)
(0.00643319 -0.024037 7.96193e-21)
(0.00884002 -0.0264799 -8.12818e-21)
(0.0112412 -0.0260608 -1.38444e-20)
(0.0136817 -0.0232682 1.12693e-20)
(0.0162077 -0.0184838 0)
(0.0188566 -0.0120101 1.16232e-20)
(0.0216561 -0.00408675 0)
(0.0246269 0.0050931 -2.37824e-20)
(0.0277812 0.0153732 6.00383e-21)
(0.0311262 0.0266247 -3.02523e-20)
(0.034664 0.0387394 -1.21865e-20)
(0.038392 0.0516235 6.13589e-21)
(0.0423045 0.0651943 8.46654e-24)
(0.0463925 0.0793759 -6.18873e-21)
(0.0506448 0.0940976 -1.2442e-20)
(0.0550482 0.109291 -2.4977e-20)
(0.0595874 0.12489 0)
(0.0642461 0.140827 1.85055e-23)
(0.0690061 0.157036 -1.25936e-20)
(0.0738477 0.173448 -1.26704e-20)
(0.0787496 0.189993 1.27175e-20)
(0.0836899 0.206601 -1.28198e-20)
(0.0886459 0.2232 1.27959e-20)
(0.0935944 0.23972 -2.56915e-20)
(0.098512 0.256088 3.6604e-23)
(0.103375 0.272234 -2.59296e-20)
(0.108161 0.288089 -1.30736e-20)
(0.112846 0.303588 -4.16291e-23)
(0.117409 0.318666 -9.99555e-23)
(0.121829 0.333264 -1.33094e-20)
(0.126088 0.347328 -1.3396e-20)
(0.130171 0.360806 -7.5369e-23)
(0.134062 0.373652 -1.35784e-20)
(0.137751 0.385818 -8.71682e-23)
(0.141239 0.397256 -1.38527e-20)
(0.14454 0.407906 4.12161e-20)
(0.147562 0.417673 -1.39585e-20)
(0.15008 0.426371 -1.57042e-20)
(0.00160279 -0.0078797 -9.47197e-21)
(0.00429523 -0.0184953 2.58458e-21)
(0.00683526 -0.0247004 -7.95371e-21)
(0.00916118 -0.0274104 -2.71336e-21)
(0.0113895 -0.0272758 1.10782e-20)
(0.0135853 -0.0247874 -2.82262e-21)
(0.0158097 -0.0203266 2.86516e-21)
(0.0181116 -0.0141947 -1.74387e-20)
(0.0205279 -0.00662946 5.88337e-21)
(0.0230859 0.00217863 1.18941e-20)
(0.0258036 0.0120758 0)
(0.0286919 0.0229359 2.42112e-20)
(0.0317561 0.0346532 0)
(0.0349967 0.0471367 -2.45287e-20)
(0.03841 0.0603062 -1.23301e-20)
(0.0419894 0.0740884 0)
(0.0457257 0.0884155 0)
(0.0496079 0.103222 2.49686e-20)
(0.0536231 0.118445 1.25459e-20)
(0.0577571 0.13402 -2.51377e-20)
(0.0619941 0.149884 1.25838e-20)
(0.0663168 0.165971 0)
(0.070707 0.182215 -1.27261e-20)
(0.0751454 0.19855 2.54558e-20)
(0.0796122 0.214907 -1.27416e-20)
(0.0840871 0.231216 -1.28816e-20)
(0.0885495 0.247411 1.28371e-20)
(0.0929785 0.263421 0)
(0.0973533 0.279181 2.60558e-20)
(0.101653 0.294625 -1.30096e-20)
(0.105859 0.309691 -1.32124e-20)
(0.109951 0.32432 -1.44304e-22)
(0.113914 0.338455 5.32272e-20)
(0.117732 0.352045 -4.00056e-20)
(0.121391 0.36504 0)
(0.124881 0.377391 -1.35859e-20)
(0.128204 0.389045 -2.7438e-20)
(0.131375 0.399942 1.34987e-20)
(0.134289 0.409979 1.37582e-20)
(0.136712 0.41897 0)
(0.00178074 -0.00800832 -1.90059e-20)
(0.00466518 -0.018849 -2.58905e-21)
(0.00723282 -0.0252847 2.12801e-20)
(0.00947332 -0.0282416 -2.17642e-20)
(0.0115259 -0.028376 0)
(0.0134763 -0.0261803 0)
(0.015401 -0.0220352 -5.73992e-21)
(0.0173607 -0.0162396 -3.63257e-24)
(0.0194013 -0.00902889 5.88763e-21)
(0.0215567 -0.000590599 0)
(0.0238501 0.00892444 0)
(0.0262964 0.0193929 -6.0507e-21)
(0.0289039 0.0307118 4.48109e-24)
(0.0316752 0.0427929 6.13453e-21)
(0.034609 0.0555583 1.23301e-20)
(0.0377005 0.0689377 0)
(0.0409424 0.0828657 1.24499e-20)
(0.0443254 0.0972799 -1.24548e-20)
(0.0478384 0.11212 -2.50489e-20)
(0.0514692 0.127324 2.51268e-20)
(0.0552041 0.142833 4.83507e-23)
(0.0590278 0.158583 -1.26118e-20)
(0.0629244 0.174513 1.27121e-20)
(0.0668773 0.190558 -2.54118e-20)
(0.0708691 0.206652 0)
(0.0748821 0.22273 1.28565e-20)
(0.0788983 0.238727 -2.57226e-20)
(0.0828991 0.254575 1.28611e-20)
(0.0868661 0.270211 -1.29878e-20)
(0.090781 0.28557 -1.3094e-20)
(0.0946261 0.300591 -1.32938e-20)
(0.0983847 0.315215 5.26625e-20)
(0.102041 0.329386 -3.95948e-20)
(0.105582 0.343052 -2.6777e-20)
(0.108995 0.35616 2.66237e-20)
(0.112269 0.368659 0)
(0.115409 0.380495 2.72705e-20)
(0.118429 0.391605 -2.70998e-20)
(0.121212 0.401882 -1.37583e-20)
(0.123516 0.411138 0)
(0.00195894 -0.00811591 4.04351e-20)
(0.00503133 -0.0191465 1.81943e-20)
(0.00761957 -0.0257864 -2.128e-20)
(0.00976842 -0.0289699 1.90405e-20)
(0.0116408 -0.0293584 -2.78094e-21)
(0.0133438 -0.0274449 5.65114e-21)
(0.0149697 -0.0236083 0)
(0.016591 -0.0181445 -5.8243e-21)
(0.0182625 -0.0112856 5.89215e-21)
(0.0200246 -0.00321602 5.95698e-21)
(0.0219055 0.00591686 -6.00908e-21)
(0.0239237 0.0159928 -6.05976e-21)
(0.0260902 0.0269118 6.09777e-21)
(0.0284098 0.038588 0)
(0.0308832 0.0509465 0)
(0.0335069 0.0639195 -1.24003e-20)
(0.0362754 0.0774441 1.24295e-20)
(0.0391808 0.0914606 -1.24973e-20)
(0.0422136 0.105911 1.25075e-20)
(0.045363 0.120737 1.25808e-20)
(0.0486168 0.135881 -2.51952e-20)
(0.0519619 0.151284 2.52682e-20)
(0.0553844 0.166886 6.21567e-23)
(0.0588695 0.182626 -1.26752e-20)
(0.0624023 0.198441 0)
(0.0659673 0.214268 1.28371e-20)
(0.0695488 0.230045 9.42042e-23)
(0.0731304 0.245707 -1.28378e-20)
(0.0766958 0.261192 0)
(0.0802288 0.276438 2.61136e-20)
(0.0837139 0.291383 -2.59891e-20)
(0.087136 0.305971 0)
(0.0904812 0.320145 2.65141e-20)
(0.093737 0.333852 -2.63679e-20)
(0.0968923 0.347038 0)
(0.0999385 0.359652 0)
(0.102879 0.371636 0)
(0.105731 0.382926 -2.7272e-20)
(0.108364 0.393412 2.70971e-20)
(0.110528 0.402907 3.10528e-20)
(0.00213583 -0.00820095 -1.90457e-20)
(0.00538956 -0.019385 -2.07878e-20)
(0.00798915 -0.026202 -2.66714e-21)
(0.0100383 -0.0295922 8.17801e-21)
(0.0117247 -0.0302206 -1.11206e-20)
(0.0131774 -0.0285795 1.13184e-20)
(0.0145046 -0.0250449 -1.14965e-20)
(0.0157906 -0.0199091 -1.74956e-20)
(0.0170989 -0.0134003 0)
(0.0184764 -0.00569903 -5.96095e-21)
(0.0199558 0.00305099 6.01309e-21)
(0.0215592 0.0127329 0)
(0.0232999 0.0232496 1.22102e-20)
(0.0251849 0.0345182 -1.22735e-20)
(0.0272162 0.0464665 -3.70375e-20)
(0.0293918 0.0590291 -1.67735e-23)
(0.0317076 0.0721459 2.48892e-20)
(0.0341568 0.0857596 -1.24744e-20)
(0.036731 0.0998146 0)
(0.0394205 0.114256 0)
(0.0422149 0.129027 2.51945e-20)
(0.0451025 0.144073 1.26584e-20)
(0.0480708 0.159336 -1.26375e-20)
(0.0511071 0.174757 -1.27377e-20)
(0.0541983 0.190277 2.54838e-20)
(0.0573311 0.205837 -1.27405e-20)
(0.0604915 0.221374 2.57392e-20)
(0.0636653 0.236828 -5.14785e-20)
(0.066838 0.252138 5.16724e-20)
(0.0699956 0.267244 -5.18794e-20)
(0.0731244 0.282087 5.20996e-20)
(0.076211 0.296609 -5.23328e-20)
(0.0792431 0.310754 2.61551e-20)
(0.0822097 0.32447 2.6558e-20)
(0.0851008 0.337702 2.91021e-22)
(0.0879088 0.350396 3.00819e-22)
(0.0906383 0.362496 -2.66761e-20)
(0.0933077 0.373935 2.14767e-22)
(0.095775 0.384601 -2.69527e-20)
(0.0977812 0.394309 0)
(0.00230968 -0.00826179 2.38792e-21)
(0.00573541 -0.0195614 -2.60621e-21)
(0.00833514 -0.0265284 8.01043e-21)
(0.0102752 -0.0301054 -1.09167e-20)
(0.0117686 -0.0309601 5.56485e-21)
(0.0129672 -0.0295823 0)
(0.0139951 -0.0263442 0)
(0.0149485 -0.0215334 2.33219e-20)
(0.0158992 -0.0153738 2.95266e-20)
(0.0169002 -0.00804114 -5.96373e-21)
(0.0179889 0.000324585 3.01031e-20)
(0.0191903 0.00961021 -6.06449e-21)
(0.0205201 0.0197219 0)
(0.0219868 0.0305797 0)
(0.023594 0.042114 2.46893e-20)
(0.0253409 0.0542622 0)
(0.0272241 0.0669667 1.24478e-20)
(0.029238 0.0801725 -1.25119e-20)
(0.031375 0.0938263 0)
(0.0336265 0.107875 -2.51381e-20)
(0.0359831 0.122266 -1.25721e-20)
(0.0384343 0.136946 -3.78799e-20)
(0.0409692 0.151859 -1.2697e-20)
(0.0435765 0.16695 1.26697e-20)
(0.0462449 0.182162 2.54733e-20)
(0.0489627 0.197438 0)
(0.0517175 0.212719 2.56214e-20)
(0.054497 0.227945 5.151e-20)
(0.0572885 0.243059 2.04156e-22)
(0.0600798 0.258002 -2.57885e-20)
(0.0628589 0.272716 -2.61151e-20)
(0.0656142 0.287144 2.59836e-20)
(0.068335 0.301233 2.63483e-20)
(0.0710114 0.314928 -5.26757e-20)
(0.0736349 0.328175 5.29222e-20)
(0.0761987 0.340919 -2.6633e-20)
(0.0787089 0.353103 2.65703e-20)
(0.0811845 0.364661 5.37105e-20)
(0.0834725 0.375479 2.69144e-20)
(0.0853061 0.385373 3.04607e-20)
(0.00247867 -0.00829696 -1.91649e-20)
(0.00606435 -0.019673 1.82826e-20)
(0.00865103 -0.0267625 -1.6062e-20)
(0.010471 -0.0305069 1.64106e-20)
(0.0117637 -0.0315748 2.78794e-20)
(0.0127039 -0.030452 -2.26986e-20)
(0.0134317 -0.0275056 2.88121e-20)
(0.0140548 -0.0230176 1.75285e-20)
(0.0146533 -0.0172068 -4.13582e-20)
(0.0152859 -0.0102438 1.19501e-20)
(0.0159943 -0.00226442 6.04323e-21)
(0.0168062 0.00662216 1.21439e-20)
(0.0177396 0.0163254 1.22374e-20)
(0.0188042 0.0267687 -2.46014e-20)
(0.020005 0.037885 2.47264e-20)
(0.0213419 0.0496146 3.72556e-20)
(0.0228125 0.0619021 -3.73593e-20)
(0.0244117 0.0746948 5.00055e-20)
(0.0261327 0.0879418 2.50879e-20)
(0.0279677 0.101592 3.77311e-20)
(0.0299082 0.115596 1.2637e-20)
(0.0319447 0.129901 2.52713e-20)
(0.0340674 0.144455 -2.53513e-20)
(0.0362663 0.159205 0)
(0.0385315 0.174097 -7.65024e-20)
(0.0408526 0.189075 5.10953e-20)
(0.0432189 0.204083 -2.54528e-20)
(0.0456194 0.219064 -2.55196e-20)
(0.0480432 0.233962 9.1172e-23)
(0.0504797 0.248721 0)
(0.0529186 0.263283 0)
(0.0553498 0.277594 2.60427e-20)
(0.0577639 0.291599 -2.6289e-20)
(0.0601525 0.305246 2.61441e-20)
(0.0625082 0.318479 -2.65219e-20)
(0.0648252 0.331244 -2.66476e-20)
(0.0671109 0.343483 0)
(0.0693847 0.355133 -2.66133e-20)
(0.0714832 0.366075 -2.66293e-20)
(0.0731322 0.37613 -9.15116e-20)
(0.00264086 -0.00830501 1.91628e-20)
(0.00637169 -0.019717 -1.8282e-20)
(0.00893031 -0.0269014 2.1408e-20)
(0.0106183 -0.0307942 -3.83116e-20)
(0.0117018 -0.0320629 -2.78866e-20)
(0.0123789 -0.0311875 2.26985e-20)
(0.0128056 -0.0285286 -4.61269e-20)
(0.0131008 -0.024362 -2.3366e-20)
(0.0133524 -0.0189002 2.9559e-20)
(0.0136248 -0.0123086 -5.37763e-20)
(0.0139632 -0.00471807 -3.6164e-20)
(0.0143983 0.0037662 -1.21661e-20)
(0.0149495 0.0130574 -3.66962e-20)
(0.0156281 0.023082 3.69034e-20)
(0.0164398 0.0337761 -2.47265e-20)
(0.0173855 0.0450824 -2.4835e-20)
(0.018463 0.056948 0)
(0.0196679 0.0693225 -2.50129e-20)
(0.020994 0.082157 -3.76542e-20)
(0.0224339 0.0954031 1.25678e-20)
(0.0239799 0.109012 -2.52235e-20)
(0.0256234 0.122935 0)
(0.0273553 0.137122 2.53515e-20)
(0.0291669 0.151521 2.54883e-20)
(0.0310491 0.166081 -2.54388e-20)
(0.0329931 0.180749 0)
(0.034989 0.19547 0)
(0.0370275 0.210191 0)
(0.039099 0.224855 -1.5689e-24)
(0.0411945 0.23941 0)
(0.0433049 0.253799 -5.1981e-20)
(0.0454216 0.26797 -1.26221e-22)
(0.0475365 0.281868 -5.23565e-20)
(0.0496425 0.295441 5.24513e-20)
(0.0517334 0.308635 -2.61997e-20)
(0.0538041 0.321394 2.64686e-20)
(0.0558631 0.333661 0)
(0.0579301 0.345376 5.34966e-20)
(0.059832 0.356418 -2.66223e-20)
(0.061287 0.366611 0)
(0.0027942 -0.00828461 2.4032e-21)
(0.00665259 -0.0196912 0)
(0.00916651 -0.0269429 -2.68409e-20)
(0.0107096 -0.0309655 3.28699e-20)
(0.0115749 -0.0324231 1.67769e-20)
(0.0119843 -0.031788 -2.27508e-20)
(0.012109 -0.0294132 2.30757e-20)
(0.0120788 -0.0255669 -2.34144e-20)
(0.0119892 -0.020455 0)
(0.0119096 -0.0142369 2.39124e-20)
(0.0118888 -0.00703822 -2.41524e-20)
(0.0119596 0.00104014 -2.56342e-23)
(0.0121431 0.00991518 0)
(0.0124516 0.0195169 2.46522e-20)
(0.0128916 0.0297842 -1.23893e-20)
(0.0134644 0.0406625 2.49046e-20)
(0.0141683 0.0521012 1.25094e-20)
(0.0149992 0.0640523 -2.50694e-20)
(0.0159511 0.0764687 0)
(0.0170173 0.0893043 3.78347e-20)
(0.0181905 0.102513 1.26696e-20)
(0.0194627 0.116046 0)
(0.0208256 0.129857 0)
(0.0222712 0.143897 0)
(0.0237915 0.158115 2.54983e-20)
(0.0253784 0.172461 0)
(0.0270234 0.186883 -2.57197e-20)
(0.0287181 0.201328 5.14153e-20)
(0.0304542 0.215744 -5.14598e-20)
(0.032224 0.230077 0)
(0.0340198 0.244275 2.59333e-20)
(0.0358339 0.258285 -2.60116e-20)
(0.0376597 0.272054 2.61114e-20)
(0.0394911 0.28553 0)
(0.0413228 0.298661 0)
(0.0431505 0.311389 2.65157e-20)
(0.0449836 0.323661 -2.63541e-20)
(0.0468416 0.335416 5.34365e-20)
(0.0485425 0.346535 -5.30938e-20)
(0.0497969 0.356843 0)
(0.00293657 -0.00823458 1.68807e-20)
(0.00690217 -0.0195934 5.2474e-21)
(0.00935323 -0.0268849 2.14757e-20)
(0.0107376 -0.031019 2.19701e-20)
(0.0113759 -0.0326542 -2.23634e-20)
(0.0115128 -0.0322531 2.27508e-20)
(0.011335 -0.0301594 2.31273e-20)
(0.0109825 -0.026633 2.34145e-20)
(0.0105578 -0.0218722 0)
(0.010135 -0.0160299 2.39635e-20)
(0.0097658 -0.00922647 2.41525e-20)
(0.0094852 -0.00155787 2.43416e-20)
(0.00931565 0.00689684 0)
(0.00927021 0.0160711 3.0065e-23)
(0.00935577 0.0259069 2.47785e-20)
(0.00957419 0.0363524 -1.2427e-20)
(0.00992386 0.0473592 -1.24563e-20)
(0.0104007 0.0588814 3.76269e-20)
(0.0109992 0.0708743 3.10145e-23)
(0.011713 0.0832935 -1.25611e-20)
(0.012535 0.0960945 -2.5282e-20)
(0.0134576 0.109232 0)
(0.0144733 0.12266 0)
(0.0155747 0.136331 0)
(0.0167545 0.150198 0)
(0.0180053 0.164212 0)
(0.0193194 0.178323 0)
(0.0206896 0.19248 2.58139e-20)
(0.0221087 0.206632 -2.57066e-20)
(0.0235698 0.220729 0)
(0.0250664 0.234718 0)
(0.026592 0.248549 2.60119e-20)
(0.0281408 0.26217 0)
(0.0297079 0.275529 2.62932e-20)
(0.0312887 0.288574 -2.61427e-20)
(0.0328793 0.30125 0)
(0.0344897 0.313503 5.31445e-20)
(0.0361392 0.325278 -5.28117e-20)
(0.0376374 0.336452 0)
(0.0386871 0.346855 0)
(0.00306575 -0.00815389 -1.9289e-20)
(0.00711552 -0.0194222 -5.25625e-21)
(0.00948419 -0.0267259 5.38222e-21)
(0.0106958 -0.0309539 -2.19701e-20)
(0.0110979 -0.0327559 0)
(0.0109582 -0.0325828 0)
(0.0104778 -0.0307678 -1.73416e-20)
(0.00980663 -0.027561 -5.86269e-21)
(0.00905354 -0.0231528 -1.1867e-20)
(0.00829682 -0.017689 -1.19763e-20)
(0.00759085 -0.0112841 -1.20994e-20)
(0.00697225 -0.00402922 1.21897e-20)
(0.00646459 0.00400085 1.22876e-20)
(0.00608153 0.0127431 -1.23382e-20)
(0.00583022 0.0221427 0)
(0.00571271 0.0321504 0)
(0.00572747 0.0427202 -2.50192e-20)
(0.00587047 0.0538083 0)
(0.00613632 0.0653722 0)
(0.0065188 0.0773692 2.5362e-20)
(0.00701115 0.0897568 8.54543e-23)
(0.00760615 0.102491 7.13848e-23)
(0.00829661 0.115529 -2.5524e-20)
(0.00907566 0.128824 2.54691e-20)
(0.00993661 0.142331 2.56096e-20)
(0.0108726 0.156004 -2.56671e-20)
(0.0118768 0.169793 0)
(0.0129426 0.18365 2.58462e-20)
(0.014064 0.197526 1.74996e-22)
(0.0152348 0.211372 -2.57978e-20)
(0.0164493 0.225137 0)
(0.0177021 0.238772 0)
(0.0189882 0.252227 2.62082e-20)
(0.0203033 0.26545 -2.60637e-20)
(0.0216435 0.278391 -2.63711e-20)
(0.0230052 0.290994 2.6215e-20)
(0.0243986 0.30321 0)
(0.0258426 0.314983 0)
(0.0271388 0.326195 0)
(0.0279819 0.336674 -3.02542e-20)
(0.00317949 -0.00804169 2.42101e-20)
(0.00728771 -0.0191761 -1.05336e-20)
(0.00955334 -0.026465 5.39139e-21)
(0.0105777 -0.0307695 0)
(0.0107349 -0.0327282 2.80607e-20)
(0.0103149 -0.0327776 6.65457e-25)
(0.0095328 -0.0312389 2.31826e-20)
(0.00854738 -0.0283519 -1.7611e-20)
(0.00747343 -0.0242978 2.37593e-20)
(0.00639287 -0.0192152 -1.20015e-20)
(0.00536228 -0.0132122 0)
(0.00441964 -0.00637489 1.22119e-20)
(0.00358931 0.00122631 -3.68571e-20)
(0.00288538 0.00953213 0)
(0.00231501 0.0184909 3.73234e-20)
(0.00188025 0.0280559 -2.49801e-20)
(0.00157957 0.0381837 -2.50813e-20)
(0.00140891 0.0488327 1.25719e-20)
(0.00136286 0.0599621 0)
(0.00143529 0.0715314 -2.53013e-20)
(0.00161962 0.0834996 -2.54403e-20)
(0.00190885 0.0958251 -2.05854e-23)
(0.00229612 0.108465 2.55496e-20)
(0.00277495 0.121377 2.56403e-20)
(0.00333903 0.134517 -5.11832e-20)
(0.00398199 0.147838 2.56674e-20)
(0.00469763 0.161296 0)
(0.00548014 0.174842 -2.58357e-20)
(0.00632398 0.188431 2.58931e-20)
(0.00722385 0.202013 2.59516e-20)
(0.00817471 0.215541 -2.60117e-20)
(0.00917184 0.228965 2.60737e-20)
(0.010211 0.242237 0)
(0.0112884 0.255308 2.62998e-20)
(0.0124004 0.268126 5.28712e-20)
(0.0135435 0.28064 -5.24366e-20)
(0.0147277 0.2928 5.30555e-20)
(0.015971 0.304555 4.69247e-22)
(0.0170682 0.315786 -2.6317e-20)
(0.0177051 0.326325 6.05794e-20)
(0.00327552 -0.00789734 -1.45284e-20)
(0.00741389 -0.0188546 -3.16734e-20)
(0.00955486 -0.0261017 2.16164e-20)
(0.0103774 -0.0304661 -1.65517e-20)
(0.0102815 -0.0325715 -5.58674e-21)
(0.00957837 -0.0328382 5.71213e-21)
(0.00849621 -0.0315739 -1.15829e-20)
(0.00720206 -0.0290067 -1.1753e-20)
(0.00581576 -0.0253082 1.18957e-20)
(0.00442232 -0.0206093 -2.40368e-20)
(0.00308015 -0.0150115 -5.54256e-24)
(0.00182817 -0.00859537 1.22218e-20)
(0.000691239 -0.00142698 0)
(-0.000316352 0.00643818 -1.23928e-20)
(-0.00118756 0.0149517 -1.24391e-20)
(-0.00192056 0.0240695 2.49994e-20)
(-0.00251697 0.0337506 0)
(-0.00298097 0.0439554 0)
(-0.00331804 0.0546453 2.53401e-20)
(-0.00353433 0.0657814 -2.53434e-20)
(-0.00363635 0.0773245 0)
(-0.00363092 0.0892347 2.55696e-20)
(-0.00352468 0.101471 -2.54406e-20)
(-0.00332383 0.113993 -5.1283e-20)
(-0.00303441 0.126756 -1.29665e-22)
(-0.00266237 0.139719 2.57228e-20)
(-0.00221339 0.152836 -5.1579e-20)
(-0.00169274 0.166062 2.5836e-20)
(-0.00110542 0.179352 -2.58934e-20)
(-0.000456195 0.192659 1.16352e-22)
(0.000250468 0.205936 6.79742e-23)
(0.00101042 0.219136 -2.6074e-20)
(0.00181988 0.232212 -2.61811e-20)
(0.00267544 0.245115 -2.62413e-20)
(0.00357331 0.257796 3.05035e-23)
(0.00450979 0.270204 0)
(0.00549455 0.282292 -2.64266e-20)
(0.00654406 0.294014 5.31811e-20)
(0.00744713 0.305251 -7.93748e-20)
(0.00788009 0.315834 5.22543e-22)
(0.00335154 -0.00772043 -4.85944e-21)
(0.00748937 -0.0184572 4.22778e-20)
(0.0094833 -0.0256363 -2.16139e-20)
(0.0100897 -0.0300443 1.6546e-20)
(0.00973298 -0.0322869 -4.49914e-20)
(0.00874497 -0.032766 5.71953e-21)
(0.00736558 -0.031774 -2.32377e-20)
(0.0057693 -0.0295266 0)
(0.00408028 -0.0261851 0)
(0.00238599 -0.021872 -2.40837e-20)
(0.000746197 -0.0166822 1.21484e-20)
(-0.000799576 -0.0106906 1.75233e-23)
(-0.00222632 -0.00395855 1.23245e-20)
(-0.00351974 0.00346216 0)
(-0.00467308 0.0115263 -3.74534e-20)
(-0.00568488 0.0201927 1.25237e-20)
(-0.00655698 0.0294227 -2.52023e-20)
(-0.00729371 0.0391788 0)
(-0.00790073 0.0494242 0)
(-0.00838428 0.060122 1.02589e-23)
(-0.00875086 0.0712346 -2.54716e-20)
(-0.00900717 0.0827237 2.56199e-20)
(-0.00915969 0.0945503 -2.57053e-20)
(-0.00921446 0.106675 2.56502e-20)
(-0.00917728 0.119056 2.84564e-23)
(-0.00905378 0.131651 3.29448e-23)
(-0.00884924 0.144419 2.58433e-20)
(-0.00856849 0.157316 -2.59713e-20)
(-0.00821613 0.170297 0)
(-0.0077965 0.183317 -2.613e-20)
(-0.00731365 0.196332 2.60054e-20)
(-0.00677134 0.209296 0)
(-0.0061731 0.222162 2.61815e-20)
(-0.0055223 0.234884 -2.6495e-20)
(-0.00482297 0.247414 2.6132e-20)
(-0.00407942 0.259703 0)
(-0.00328289 0.271705 7.9529e-20)
(-0.00241855 0.283381 -5.27696e-20)
(-0.00170284 0.294611 0)
(-0.00146979 0.305227 3.03623e-20)
(0.00340531 -0.0075108 3.90008e-20)
(0.00750964 -0.0179845 -2.11574e-20)
(0.00933361 -0.0250698 -5.41426e-21)
(0.00970981 -0.0295056 5.53035e-21)
(0.00908566 -0.0318763 2.25113e-20)
(0.00781206 -0.0325628 0)
(0.00613955 -0.0318409 2.32378e-20)
(0.00424902 -0.029913 3.53753e-20)
(0.00226815 -0.0269294 1.1922e-20)
(0.000286186 -0.0230039 1.20306e-20)
(-0.0016362 -0.0182243 1.21588e-20)
(-0.00345928 -0.0126598 -3.67714e-20)
(-0.00515819 -0.00636717 1.23439e-20)
(-0.00671891 0.000605858 4.97543e-20)
(-0.00813507 0.00821724 1.24628e-20)
(-0.00940571 0.0164285 1.25479e-20)
(-0.010533 0.0252034 2.52026e-20)
(-0.0115216 0.0345066 0)
(-0.0123772 0.0443031 0)
(-0.0131063 0.0545578 5.10271e-20)
(-0.0137155 0.0652348 -1.02419e-19)
(-0.0142113 0.0762974 -1.37467e-23)
(-0.0146002 0.0877083 0)
(-0.0148881 0.0994291 0)
(-0.0150806 0.111421 2.58054e-20)
(-0.015183 0.123642 0)
(-0.0152004 0.136053 0)
(-0.0151373 0.148611 -2.61377e-20)
(-0.0149979 0.161274 -5.22144e-20)
(-0.0147862 0.173998 0)
(-0.014506 0.18674 -5.24186e-20)
(-0.014161 0.199456 -1.05148e-19)
(-0.0137545 0.212101 5.23508e-20)
(-0.0132902 0.22463 -5.27194e-20)
(-0.0127726 0.236996 5.29591e-20)
(-0.012207 0.249153 -5.26456e-20)