-0.362837 	0.362837 	0.5 	0.55022
-0.380512 	0.380512 	0.5 	0.542725
-0.398188 	0.398188 	0.5 	0.538958
-0.415863 	0.415863 	0.5 	0.535377
-0.433538 	0.433538 	0.5 	0.532543
-0.451213 	0.451213 	0.5 	0.530253
-0.468888 	0.468888 	0.5 	0.528384
-0.486563 	0.486563 	0.5 	0.526836
-0.504238 	0.504238 	0.5 	0.52552
-0.521913 	0.521913 	0.5 	0.524368
-0.539588 	0.539588 	0.5 	0.523321
-0.557263 	0.557263 	0.5 	0.522335
-0.574938 	0.574938 	0.5 	0.521377
-0.592613 	0.592613 	0.5 	0.520419
-0.610288 	0.610288 	0.5 	0.519446
-0.627963 	0.627963 	0.5 	0.518443
-0.645638 	0.645638 	0.5 	0.517401
-0.663313 	0.663313 	0.5 	0.516315
-0.680988 	0.680988 	0.5 	0.515183
-0.698663 	0.698663 	0.5 	0.514003
-0.716338 	0.716338 	0.5 	0.512775
-0.734013 	0.734013 	0.5 	0.511499
-0.751688 	0.751688 	0.5 	0.510177
-0.769363 	0.769363 	0.5 	0.508811
-0.787038 	0.787038 	0.5 	0.507403
-0.804713 	0.804713 	0.5 	0.505953
-0.822388 	0.822388 	0.5 	0.504462
-0.840063 	0.840063 	0.5 	0.502932
-0.857738 	0.857738 	0.5 	0.501363
-0.875413 	0.875413 	0.5 	0.499753
-0.893088 	0.893088 	0.5 	0.498101
-0.910763 	0.910763 	0.5 	0.496402
-0.928438 	0.928438 	0.5 	0.494651
-0.946113 	0.946113 	0.5 	0.492836
-0.963788 	0.963788 	0.5 	0.490941
-0.981463 	0.981463 	0.5 	0.488951
-0.999138 	0.999138 	0.5 	0.48682
-1.01681 	1.01681 	0.5 	0.484285
-1.03449 	1.03449 	0.5 	0.481133
-1.05216 	1.05216 	0.5 	0.479158
-1.061 	1.061 	0.5 	0.478654
-1.12274 	1.12274 	0.5 	0.471244
-1.18448 	1.18448 	0.5 	0.476539
-1.24621 	1.24621 	0.5 	0.465396
-1.30795 	1.30795 	0.5 	0.449577
-1.36969 	1.36969 	0.5 	0.452646
-1.43142 	1.43142 	0.5 	0.43652
-1.49316 	1.49316 	0.5 	0.438888
-1.5549 	1.5549 	0.5 	0.440927
-1.61664 	1.61664 	0.5 	0.424677
-1.67838 	1.67838 	0.5 	0.426342
