1.11936e-18 	0.5125 	0.5 	0.0245181 	0.000298126 	0
1.11936e-18 	0.5375 	0.5 	0.0688681 	0.00255183 	0
1.11936e-18 	0.5625 	0.5 	0.10936 	0.00701311 	-5.85597e-22
1.11936e-18 	0.5875 	0.5 	0.146409 	0.0125414 	0
1.11936e-18 	0.6125 	0.5 	0.180382 	0.0188319 	0
1.11936e-18 	0.6375 	0.5 	0.211588 	0.0255403 	-6.35464e-22
1.11936e-18 	0.6625 	0.5 	0.240284 	0.0324246 	0
1.11936e-18 	0.6875 	0.5 	0.266689 	0.039305 	0
1.11936e-18 	0.7125 	0.5 	0.29099 	0.0460482 	0
1.11936e-18 	0.7375 	0.5 	0.313352 	0.0525573 	0
1.11936e-18 	0.7625 	0.5 	0.33392 	0.0587635 	0
1.11936e-18 	0.7875 	0.5 	0.352826 	0.0646198 	-6.99518e-22
1.11936e-18 	0.8125 	0.5 	0.370188 	0.0700961 	0
1.11936e-18 	0.8375 	0.5 	0.386119 	0.0751758 	0
1.11936e-18 	0.8625 	0.5 	0.400722 	0.0798525 	0
1.11936e-18 	0.8875 	0.5 	0.414091 	0.0841278 	0
1.11936e-18 	0.9125 	0.5 	0.426319 	0.0880098 	-1.81397e-22
1.11936e-18 	0.9375 	0.5 	0.437489 	0.0915111 	1.81771e-22
1.11936e-18 	0.9625 	0.5 	0.447681 	0.0946479 	0
1.11936e-18 	0.9875 	0.5 	0.456971 	0.0974389 	0
1.11936e-18 	1.0125 	0.5 	0.46543 	0.0999046 	7.2933e-22
1.11936e-18 	1.0375 	0.5 	0.473123 	0.102066 	0
1.11936e-18 	1.0625 	0.5 	0.480114 	0.103946 	0
1.11936e-18 	1.0875 	0.5 	0.486459 	0.105566 	0
1.11936e-18 	1.1125 	0.5 	0.492214 	0.106949 	0
1.11936e-18 	1.1375 	0.5 	0.497429 	0.108116 	0
1.11936e-18 	1.1625 	0.5 	0.502152 	0.109087 	0
1.11936e-18 	1.1875 	0.5 	0.506425 	0.109883 	7.15252e-22
1.11936e-18 	1.2125 	0.5 	0.51029 	0.110522 	0
1.11936e-18 	1.2375 	0.5 	0.513783 	0.111023 	-7.07346e-22
1.11936e-18 	1.2625 	0.5 	0.516939 	0.111403 	0
1.11936e-18 	1.2875 	0.5 	0.51979 	0.111677 	0
1.11936e-18 	1.3125 	0.5 	0.522363 	0.111859 	0
1.11936e-18 	1.3375 	0.5 	0.524686 	0.111964 	-3.43875e-22
1.11936e-18 	1.3625 	0.5 	0.526782 	0.112004 	3.42019e-22
1.11936e-18 	1.3875 	0.5 	0.528674 	0.11199 	0
1.11936e-18 	1.4125 	0.5 	0.530379 	0.111932 	0
1.11936e-18 	1.4375 	0.5 	0.531916 	0.11184 	0
1.11936e-18 	1.4625 	0.5 	0.533301 	0.111721 	0
1.11936e-18 	1.4875 	0.5 	0.534547 	0.111589 	0
1.11936e-18 	1.55625 	0.5 	0.537627 	0.11124 	2.38121e-22
1.11936e-18 	1.66875 	0.5 	0.541678 	0.110308 	0
1.11936e-18 	1.78125 	0.5 	0.545438 	0.109296 	0
1.11936e-18 	1.89375 	0.5 	0.5496 	0.108687 	2.27225e-22
1.11936e-18 	2.00625 	0.5 	0.554323 	0.108468 	2.21926e-22
1.11936e-18 	2.11875 	0.5 	0.559689 	0.108819 	-2.16259e-22
1.11936e-18 	2.23125 	0.5 	0.565633 	0.109656 	1.03648e-22
1.11936e-18 	2.34375 	0.5 	0.572091 	0.110974 	-3.07904e-22
