1.11936e-18 	0.5125 	0.5 	0.343478
1.11936e-18 	0.5375 	0.5 	0.350785
1.11936e-18 	0.5625 	0.5 	0.354451
1.11936e-18 	0.5875 	0.5 	0.358194
1.11936e-18 	0.6125 	0.5 	0.361452
1.11936e-18 	0.6375 	0.5 	0.364391
1.11936e-18 	0.6625 	0.5 	0.367076
1.11936e-18 	0.6875 	0.5 	0.369544
1.11936e-18 	0.7125 	0.5 	0.371822
1.11936e-18 	0.7375 	0.5 	0.373928
1.11936e-18 	0.7625 	0.5 	0.375872
1.11936e-18 	0.7875 	0.5 	0.377663
1.11936e-18 	0.8125 	0.5 	0.379306
1.11936e-18 	0.8375 	0.5 	0.380804
1.11936e-18 	0.8625 	0.5 	0.38216
1.11936e-18 	0.8875 	0.5 	0.383375
1.11936e-18 	0.9125 	0.5 	0.384453
1.11936e-18 	0.9375 	0.5 	0.385396
1.11936e-18 	0.9625 	0.5 	0.386207
1.11936e-18 	0.9875 	0.5 	0.386889
1.11936e-18 	1.0125 	0.5 	0.387446
1.11936e-18 	1.0375 	0.5 	0.387879
1.11936e-18 	1.0625 	0.5 	0.388194
1.11936e-18 	1.0875 	0.5 	0.388393
1.11936e-18 	1.1125 	0.5 	0.38848
1.11936e-18 	1.1375 	0.5 	0.388459
1.11936e-18 	1.1625 	0.5 	0.388333
1.11936e-18 	1.1875 	0.5 	0.388106
1.11936e-18 	1.2125 	0.5 	0.387784
1.11936e-18 	1.2375 	0.5 	0.387371
1.11936e-18 	1.2625 	0.5 	0.386869
1.11936e-18 	1.2875 	0.5 	0.386285
1.11936e-18 	1.3125 	0.5 	0.385621
1.11936e-18 	1.3375 	0.5 	0.38488
1.11936e-18 	1.3625 	0.5 	0.384067
1.11936e-18 	1.3875 	0.5 	0.383185
1.11936e-18 	1.4125 	0.5 	0.382235
1.11936e-18 	1.4375 	0.5 	0.381219
1.11936e-18 	1.4625 	0.5 	0.380138
1.11936e-18 	1.4875 	0.5 	0.379023
1.11936e-18 	1.55625 	0.5 	0.375942
1.11936e-18 	1.66875 	0.5 	0.369213
1.11936e-18 	1.78125 	0.5 	0.362147
1.11936e-18 	1.89375 	0.5 	0.353993
1.11936e-18 	2.00625 	0.5 	0.345495
1.11936e-18 	2.11875 	0.5 	0.336358
1.11936e-18 	2.23125 	0.5 	0.326856
1.11936e-18 	2.34375 	0.5 	0.316918
