-0.362837 	0.362837 	0.5 	0.0215884 	0.0205387 	1.54161e-23
-0.380512 	0.380512 	0.5 	0.0587777 	0.053815 	6.40755e-21
-0.398188 	0.398188 	0.5 	0.0919476 	0.0803553 	-3.26927e-21
-0.415863 	0.415863 	0.5 	0.121376 	0.101579 	2.63997e-20
-0.433538 	0.433538 	0.5 	0.147641 	0.118311 	0
-0.451213 	0.451213 	0.5 	0.171145 	0.131294 	2.03703e-20
-0.468888 	0.468888 	0.5 	0.192234 	0.14113 	3.44518e-20
-0.486563 	0.486563 	0.5 	0.211203 	0.148319 	2.0864e-20
-0.504238 	0.504238 	0.5 	0.228305 	0.153284 	-1.40078e-20
-0.521913 	0.521913 	0.5 	0.243757 	0.15638 	-3.55016e-20
-0.539588 	0.539588 	0.5 	0.257751 	0.15791 	0
-0.557263 	0.557263 	0.5 	0.270454 	0.158131 	2.87665e-20
-0.574938 	0.574938 	0.5 	0.282014 	0.157265 	1.44951e-20
-0.592613 	0.592613 	0.5 	0.292561 	0.155501 	-1.02786e-22
-0.610288 	0.610288 	0.5 	0.302212 	0.153001 	2.7767e-23
-0.627963 	0.627963 	0.5 	0.311068 	0.149903 	5.84292e-20
-0.645638 	0.645638 	0.5 	0.319222 	0.146326 	-1.46601e-20
-0.663313 	0.663313 	0.5 	0.326754 	0.142371 	4.38237e-20
-0.680988 	0.680988 	0.5 	0.333737 	0.138123 	-1.46493e-20
-0.698663 	0.698663 	0.5 	0.340235 	0.133656 	4.3718e-20
-0.716338 	0.716338 	0.5 	0.346304 	0.129031 	-2.91506e-20
-0.734013 	0.734013 	0.5 	0.351995 	0.124299 	4.35175e-20
-0.751688 	0.751688 	0.5 	0.357353 	0.119503 	1.4458e-20
-0.769363 	0.769363 	0.5 	0.362418 	0.114679 	-4.31705e-20
-0.787038 	0.787038 	0.5 	0.367224 	0.109856 	0
-0.804713 	0.804713 	0.5 	0.371803 	0.105058 	-2.84421e-20
-0.822388 	0.822388 	0.5 	0.376184 	0.100304 	0
-0.840063 	0.840063 	0.5 	0.38039 	0.0956089 	-2.80935e-20
-0.857738 	0.857738 	0.5 	0.384444 	0.0909854 	0
-0.875413 	0.875413 	0.5 	0.388367 	0.0864421 	2.76991e-20
-0.893088 	0.893088 	0.5 	0.392176 	0.0819857 	0
-0.910763 	0.910763 	0.5 	0.395888 	0.0776208 	2.72648e-20
-0.928438 	0.928438 	0.5 	0.399519 	0.0733505 	-2.70342e-20
-0.946113 	0.946113 	0.5 	0.403086 	0.0691758 	0
-0.963788 	0.963788 	0.5 	0.406605 	0.0650967 	-2.65481e-20
-0.981463 	0.981463 	0.5 	0.410096 	0.0611143 	2.62937e-20
-0.999138 	0.999138 	0.5 	0.413584 	0.0572305 	0
-1.01681 	1.01681 	0.5 	0.417148 	0.0534128 	0
-1.03449 	1.03449 	0.5 	0.420992 	0.0496247 	-2.5456e-20
-1.05216 	1.05216 	0.5 	0.425277 	0.046301 	-2.9574e-20
-1.061 	1.061 	0.5 	0.43908 	0.0416696 	2.43842e-20
-1.12274 	1.12274 	0.5 	0.431704 	0.0365319 	0
-1.18448 	1.18448 	0.5 	0.435697 	0.0177505 	0
-1.24621 	1.24621 	0.5 	0.453582 	0.0121971 	0
-1.30795 	1.30795 	0.5 	0.470451 	0.0114483 	0
-1.36969 	1.36969 	0.5 	0.469602 	-0.00558984 	0
-1.43142 	1.43142 	0.5 	0.48592 	-0.00551003 	0
-1.49316 	1.49316 	0.5 	0.486206 	-0.0220287 	0
-1.5549 	1.5549 	0.5 	0.487389 	-0.0385747 	0
-1.61664 	1.61664 	0.5 	0.503305 	-0.0370486 	0
-1.67838 	1.67838 	0.5 	0.505191 	-0.0528925 	0
