/*--------------------------------*- C++ -*----------------------------------*\
  =========                 |
  \\      /  F ield         | OpenFOAM: The Open Source CFD Toolbox
   \\    /   O peration     | Website:  https://openfoam.org
    \\  /    A nd           | Version:  7
     \\/     M anipulation  |
\*---------------------------------------------------------------------------*/
FoamFile
{
    version     2.0;
    format      ascii;
    class       volScalarField;
    location    "89";
    object      p;
}
// * * * * * * * * * * * * * * * * * * * * * * * * * * * * * * * * * * * * * //

dimensions      [0 2 -2 0 0 0 0];

internalField   nonuniform List<scalar> 
2000
(
0.00842342
0.00850712
0.00866773
0.00886841
0.00908184
0.00929092
0.00948385
0.0096549
0.00980312
0.0099151
0.00844704
0.0085734
0.00875102
0.00896881
0.00919908
0.00942411
0.00963107
0.00981319
0.00996921
0.0100773
0.00844589
0.00862456
0.00881959
0.00905302
0.00929714
0.00953426
0.00975131
0.00994115
0.0101033
0.0102065
0.00842485
0.00866288
0.0088755
0.00912217
0.00937586
0.00961962
0.00984091
0.0100329
0.0101968
0.0102928
0.00839062
0.00869311
0.00892208
0.00917832
0.00943597
0.00967946
0.00989743
0.010084
0.0102428
0.0103272
0.00835198
0.00872057
0.00896333
0.00922433
0.00947931
0.00971446
0.0099203
0.0100924
0.0102371
0.0103036
0.00831906
0.00875116
0.00900386
0.00926386
0.00950878
0.009727
0.0099114
0.0100594
0.0101802
0.0102208
0.00830287
0.00879128
0.00904883
0.00930129
0.00952855
0.00972142
0.00987559
0.00999068
0.0100785
0.0100858
0.00831484
0.00884766
0.00910382
0.00934177
0.00954397
0.00970409
0.00982108
0.00989764
0.00994906
0.00991947
0.0083662
0.0089271
0.00917487
0.00939114
0.00956143
0.0096826
0.00975762
0.00979382
0.00981319
0.00976086
0.0100575
0.0108506
0.0117193
0.0131669
0.0147194
0.0165708
0.017835
0.0196854
0.0196599
0.0209743
0.0101393
0.0108596
0.0115051
0.0127543
0.0141406
0.0158522
0.0170181
0.018731
0.018816
0.0199465
0.010173
0.0108556
0.011297
0.0123544
0.0135832
0.0151647
0.0162392
0.0178522
0.0179874
0.0189972
0.0101518
0.0108243
0.0110929
0.0119683
0.0130481
0.0145077
0.0155018
0.017031
0.0171825
0.018131
0.0100729
0.0107508
0.0108884
0.0115957
0.0125362
0.013882
0.0148057
0.0162603
0.0164241
0.0173465
0.00993862
0.0106234
0.0106764
0.0112353
0.0120477
0.0132862
0.0141448
0.0155271
0.0157046
0.0166254
0.00975821
0.0104369
0.0104482
0.0108841
0.0115833
0.0127235
0.0135262
0.0148459
0.015046
0.015974
0.00954032
0.0101827
0.0101915
0.0105389
0.0111391
0.0121814
0.0129275
0.0141764
0.0144007
0.0153675
0.00927662
0.0098475
0.0098812
0.0101905
0.0107336
0.0116987
0.0124053
0.0135919
0.0138427
0.0148331
0.00906935
0.00956913
0.00959905
0.0098335
0.0102908
0.01116
0.0118202
0.0129215
0.0132313
0.0143099
0.00959546
0.0100883
0.010336
0.0104705
0.0106145
0.0110373
0.0114728
0.0122382
0.0124895
0.0132744
0.0076395
0.00809434
0.00848766
0.00884901
0.00920715
0.00967728
0.0101149
0.0107224
0.0109214
0.0113794
0.00614255
0.00656285
0.00692954
0.00725596
0.00759129
0.00805118
0.00848769
0.00904183
0.00921929
0.00952297
0.00463333
0.00505877
0.00548091
0.00583984
0.00616264
0.00656857
0.00695325
0.00743856
0.00759173
0.00782998
0.0032197
0.00361667
0.00408287
0.0045078
0.00487398
0.00525731
0.00559191
0.00599909
0.00612549
0.00633082
0.00199464
0.00234713
0.00281463
0.00327556
0.00368749
0.00408048
0.00439715
0.00474547
0.0048467
0.00501225
0.00100981
0.00131225
0.00175097
0.00220052
0.00261174
0.00299412
0.00329288
0.00359845
0.00368388
0.003818
0.000291322
0.000535211
0.000921549
0.00132638
0.00169605
0.00203467
0.00229599
0.00255571
0.00261596
0.00270395
-9.17483e-05
5.49213e-05
0.00035563
0.000662268
0.000928086
0.0011683
0.00134648
0.00153971
0.00157014
0.00162364
-0.000611939
-0.000289637
-2.28641e-05
0.000174253
0.000310425
0.000424902
0.000490257
0.000583465
0.000563611
0.00056041
0.00901215
0.00736261
0.00592674
0.00446683
0.00311289
0.00193358
0.000986545
0.000271043
-6.58169e-05
-0.000608001
0.00867964
0.00710176
0.00568688
0.00426939
0.00297018
0.00184271
0.000941615
0.000259879
-5.34572e-05
-0.000526988
0.00835423
0.00686758
0.00547392
0.00409971
0.00284976
0.00177108
0.00091279
0.000267298
-3.12203e-05
-0.000425014
0.00810171
0.00670512
0.00532973
0.00399344
0.00278608
0.00174532
0.00091919
0.000300454
5.64036e-06
-0.000328764
0.00792497
0.0065973
0.00523734
0.00393535
0.00276323
0.0017543
0.000953362
0.000354062
5.45407e-05
-0.000240478
0.00782727
0.00654122
0.0051938
0.00391848
0.00277555
0.00179222
0.00101006
0.000423566
0.000112395
-0.000160177
0.0078159
0.00653335
0.00519696
0.00394055
0.00282031
0.00185596
0.00108601
0.000505509
0.000176581
-8.85373e-05
0.00787676
0.00657063
0.00524281
0.00399759
0.00289359
0.0019418
0.00117772
0.000596642
0.00024479
-2.56449e-05
0.00799897
0.00664874
0.00532636
0.00408501
0.00299103
0.00204576
0.00128163
0.000693997
0.000315072
2.91411e-05
0.00816999
0.00676211
0.00544176
0.00419797
0.00310814
0.00216396
0.00139441
0.000795045
0.000385897
7.68208e-05
0.00837459
0.00690248
0.0055815
0.00433069
0.00323999
0.00229247
0.00151295
0.000897675
0.000456104
0.000118406
0.00860171
0.00706341
0.0057399
0.0044791
0.00338296
0.00242844
0.00163501
0.00100046
0.000524993
0.000154832
0.00884454
0.00724194
0.00591354
0.0046411
0.0035349
0.00257014
0.00175923
0.00110263
0.000592288
0.000187029
0.00909651
0.00743542
0.00609886
0.00481457
0.00369385
0.00271613
0.00188464
0.00120375
0.00065793
0.000215778
0.00935219
0.00764236
0.00629292
0.00499779
0.00385837
0.00286534
0.00201062
0.00130362
0.000722011
0.000241713
0.00960674
0.00786199
0.00649314
0.00518914
0.0040273
0.00301686
0.00213675
0.0014022
0.0007847
0.000265352
0.00985287
0.00809184
0.00669641
0.00538637
0.00419945
0.00316983
0.00226273
0.0014995
0.000846216
0.00028715
0.0100859
0.00833551
0.00690551
0.00559134
0.00437662
0.00332546
0.00238952
0.00159626
0.000907096
0.000307584
0.0103268
0.0086241
0.00714092
0.00581774
0.00456876
0.00349013
0.00252114
0.00169478
0.000968459
0.000326801
0.0105021
0.00890587
0.00737017
0.0060369
0.00475821
0.00365023
0.00264944
0.00179
0.00102794
0.000343311
0.0100561
0.00899235
0.00760569
0.00632681
0.00506811
0.00393267
0.00289609
0.00197984
0.00115231
0.000383709
0.0100019
0.0089441
0.00760539
0.00640415
0.00518781
0.0040854
0.00305141
0.00211945
0.00125116
0.00042367
0.0102317
0.00915051
0.00779906
0.00661445
0.00539212
0.00428279
0.00322316
0.00226071
0.00134996
0.000468215
0.0107014
0.00949211
0.00808144
0.00686986
0.00561773
0.00448522
0.00339125
0.00239776
0.00145011
0.000520078
0.0114035
0.0099902
0.0084786
0.0071927
0.00588476
0.00470679
0.00356821
0.00254049
0.00155852
0.000580684
0.0122818
0.0106285
0.00898712
0.00758427
0.00619824
0.00495285
0.00376101
0.00269207
0.00167316
0.000642589
0.013232
0.0113407
0.0095592
0.00801697
0.00654172
0.00521566
0.00396643
0.00284607
0.00177815
0.000685746
0.0141248
0.0120218
0.0101079
0.00843134
0.00687199
0.00546842
0.00416445
0.00298361
0.0018527
0.00069579
0.0148254
0.0125559
0.0105366
0.00875662
0.00713358
0.00567106
0.00432308
0.00308499
0.00189144
0.000680756
0.0152132
0.0128471
0.0107692
0.00893385
0.00727794
0.00578488
0.00441293
0.00313863
0.00190383
0.000662724
0.0110252
0.0109816
0.0112764
0.0118253
0.0126126
0.0135738
0.0146227
0.0156336
0.0164521
0.0169167
0.0111833
0.0112859
0.0116761
0.0123136
0.0131799
0.0142051
0.0153051
0.0163528
0.0171943
0.0176723
0.0112022
0.0114741
0.0120003
0.0127681
0.0137526
0.0148808
0.0160606
0.0171541
0.0180087
0.0184869
0.0112713
0.0116743
0.0123125
0.0131954
0.0142875
0.0155193
0.0167923
0.0179557
0.0188502
0.0193483
0.0113866
0.0119256
0.0126676
0.0136529
0.0148387
0.0161619
0.0175227
0.0187624
0.0197124
0.0202445
0.0115158
0.0122047
0.0130644
0.0141573
0.0154383
0.0168499
0.0182921
0.019603
0.0206072
0.0211735
0.0116565
0.0124975
0.0134893
0.0146992
0.0160846
0.0175909
0.0191152
0.0204929
0.0215448
0.0221391
0.0118168
0.0128061
0.0139386
0.0152705
0.016768
0.0183763
0.0199877
0.0214329
0.0225287
0.0231453
0.012001
0.0131333
0.0144135
0.0158686
0.0174832
0.0191987
0.0209021
0.022418
0.0235581
0.0241938
0.0122109
0.0134777
0.0149136
0.0164921
0.0182281
0.0200544
0.0218544
0.023445
0.0246315
0.0252854
0.0124479
0.0138348
0.0154361
0.017137
0.019
0.0209411
0.0228426
0.0245123
0.0257484
0.0264203
0.0127104
0.0141994
0.0159759
0.0177974
0.0197943
0.0218548
0.0238642
0.0256188
0.0269088
0.0275994
0.0129893
0.0145679
0.0165235
0.0184671
0.0206049
0.022792
0.0249172
0.0267634
0.0281141
0.0288246
0.0132679
0.0149412
0.0170663
0.0191407
0.021424
0.0237473
0.0259975
0.0279452
0.0293678
0.0301007
0.0135077
0.0153165
0.0175995
0.0198166
0.0222477
0.0247177
0.0271032
0.0291613
0.0306622
0.0314237
0.0137162
0.015685
0.018105
0.0204759
0.0230631
0.0256918
0.0282257
0.030406
0.031994
0.0327921
0.0138809
0.0160306
0.0185745
0.0211081
0.0238617
0.0266637
0.0293614
0.0316782
0.0333639
0.0342079
0.0139761
0.0163443
0.0189994
0.0217021
0.0246294
0.0276181
0.0304962
0.0329677
0.0347674
0.0356701
0.0139781
0.0166206
0.0193802
0.0222644
0.0253797
0.0285719
0.0316451
0.0342846
0.0362099
0.0371845
0.0138214
0.0167966
0.01965
0.0227028
0.026003
0.0294138
0.0327165
0.0355697
0.0376627
0.0387389
0.0144535
0.0182516
0.0214424
0.0248532
0.0284787
0.032217
0.0358443
0.0390131
0.0413722
0.0426305
0.0181526
0.0218305
0.0252417
0.0292043
0.0334134
0.0377516
0.0419248
0.0455344
0.0481949
0.0495935
0.0222459
0.0261037
0.0299065
0.034473
0.039282
0.0442387
0.0489292
0.0529172
0.0558147
0.0573408
0.0265829
0.0308546
0.0352765
0.0405353
0.0459914
0.0515848
0.0567475
0.0610395
0.0640793
0.0656139
0.0311947
0.0359964
0.0411353
0.0471285
0.0532641
0.0594902
0.0650699
0.0695958
0.0727046
0.0742954
0.0361735
0.0415228
0.047437
0.0541799
0.0610141
0.0678653
0.073823
0.0785057
0.0814851
0.0827149
0.0410519
0.0470569
0.0536917
0.0611038
0.0685973
0.0760061
0.0823074
0.0870945
0.0898099
0.0909562
0.0459696
0.0523699
0.0597008
0.0678024
0.0759936
0.0839814
0.0907532
0.0958078
0.0980444
0.0970773
0.048636
0.0558678
0.0638376
0.0725076
0.0812411
0.0896442
0.0966853
0.101753
0.102851
0.104414
0.0521582
0.0595084
0.0679329
0.0771002
0.0865418
0.0956902
0.104083
0.111175
0.113647
0.0969919
0.0132938
0.0168703
0.0205632
0.0245736
0.0287058
0.0334826
0.0376774
0.0427087
0.0446986
0.0481653
0.0128934
0.0166383
0.0202684
0.0242116
0.028181
0.0328094
0.0367214
0.0416274
0.0432978
0.0467173
0.0127104
0.0166456
0.0202536
0.0241729
0.0280423
0.0324898
0.0361769
0.0407784
0.0422585
0.0454425
0.012486
0.0164978
0.0200715
0.0239313
0.0277428
0.0320216
0.0355546
0.0398664
0.0413346
0.0441688
0.0122396
0.0162483
0.0197782
0.0235551
0.0272939
0.0314144
0.0348397
0.0388799
0.040429
0.042913
0.0119931
0.01597
0.0194679
0.0231712
0.0268281
0.0307837
0.0341448
0.0378927
0.0395704
0.0417361
0.0117444
0.0156757
0.0191586
0.0228083
0.0263958
0.0302094
0.0335012
0.0370079
0.0387595
0.040671
0.0114942
0.0153679
0.0188473
0.0224595
0.0259945
0.0297002
0.0329165
0.0362439
0.0380228
0.0397233
0.0112491
0.0150551
0.0185389
0.0221257
0.0256212
0.0292483
0.0323956
0.0355855
0.0373665
0.0389162
0.0110166
0.0147467
0.0182428
0.0218164
0.0252835
0.0288541
0.0319459
0.0350236
0.0367988
0.03825
0.0108028
0.0144508
0.0179677
0.0215409
0.0249919
0.0285234
0.0315754
0.0345598
0.0363289
0.0377146
0.0106051
0.0141679
0.0177164
0.0213022
0.0247519
0.0282614
0.0312899
0.0341984
0.0359623
0.0373008
0.0104136
0.013896
0.0174884
0.0211001
0.0245653
0.0280708
0.0310929
0.0339428
0.0357019
0.0370058
0.0102197
0.0136378
0.0172836
0.0209349
0.0244331
0.0279534
0.0309859
0.0337942
0.035546
0.0368291
0.0100124
0.0133958
0.0171005
0.0208065
0.0243551
0.02791
0.0309697
0.0337535
0.0354935
0.0367767
0.00977714
0.0131691
0.0169346
0.020712
0.024329
0.0279382
0.0310425
0.0338191
0.0355343
0.0368515
0.00949767
0.0129522
0.0167788
0.0206463
0.0243516
0.028036
0.0312055
0.0339944
0.0356712
0.0370687
0.0091592
0.0127363
0.0166232
0.0205998
0.0244127
0.0281915
0.0314471
0.0342688
0.035871
0.0374322
0.00871538
0.0124962
0.0164634
0.020575
0.0245216
0.0284201
0.0317872
0.0346673
0.0361782
0.037969
0.00817525
0.012164
0.0162258
0.020487
0.0245827
0.0286195
0.0321311
0.0351104
0.0364703
0.0386577
0.00918268
0.0132666
0.0172202
0.0215713
0.0258997
0.0301222
0.0338169
0.036961
0.0381689
0.0407503
0.0115516
0.0158829
0.0200916
0.0248499
0.0296164
0.034295
0.0384378
0.0419256
0.0435012
0.0457704
0.0148911
0.0195454
0.0241686
0.0294818
0.0348151
0.0401238
0.0448661
0.048771
0.051045
0.0529745
0.018868
0.0239396
0.029107
0.0351412
0.041267
0.047484
0.0531254
0.057857
0.0611885
0.0635042
0.0230533
0.0286281
0.0344911
0.0414152
0.0485618
0.0559993
0.0629698
0.0691989
0.0742902
0.0783991
0.0274112
0.0334754
0.0401951
0.0481422
0.0565378
0.06554
0.0744445
0.08337
0.0922458
0.100935
0.0309146
0.0377058
0.0453529
0.0543659
0.0642411
0.0752282
0.0868991
0.100289
0.116179
0.135167
0.0347549
0.042114
0.0506878
0.0608352
0.0723692
0.0858057
0.101405
0.122101
0.151609
0.192175
0.0357744
0.0433107
0.052268
0.063111
0.0762867
0.0929294
0.115024
0.147647
0.200009
0.280042
0.0382285
0.047111
0.0576253
0.0706965
0.0875359
0.110024
0.141881
0.191535
0.276918
0.408482
0.00905576
0.0112329
0.0139737
0.0172858
0.0206089
0.0245506
0.0273041
0.0309951
0.0318561
0.0336383
0.00891019
0.0110985
0.0137429
0.0168997
0.0199771
0.0237029
0.0261658
0.0297223
0.0304168
0.0323715
0.00892416
0.0110616
0.0136248
0.016672
0.0196097
0.0231059
0.0253581
0.0286695
0.0291365
0.0314851
0.00901455
0.0110092
0.0134158
0.0163066
0.0190861
0.0223688
0.0244557
0.027546
0.0278109
0.0302763
0.0091415
0.010952
0.0131559
0.0158673
0.0184467
0.0215092
0.0234262
0.0263406
0.0264309
0.0287528
0.00929258
0.0109048
0.0128971
0.015413
0.0177989
0.0206328
0.02237
0.0251333
0.0250684
0.0271574
0.009458
0.0108696
0.0126486
0.0149385
0.0171856
0.0197824
0.0213551
0.0239766
0.0237826
0.0256736
0.00962746
0.0108472
0.0124067
0.0144753
0.0165641
0.0189525
0.0204039
0.0228718
0.0225956
0.0243534
0.00979074
0.0108379
0.0121705
0.0140272
0.015937
0.018121
0.0195254
0.021791
0.0215126
0.0231645
0.00993755
0.0108404
0.0119409
0.0135912
0.015319
0.0173248
0.0186753
0.0207178
0.0205382
0.0220509
0.00846868
0.00903704
0.00926881
0.00945621
0.00958815
0.00966478
0.00969294
0.00968367
0.00966445
0.00960506
0.00863885
0.0091871
0.0093933
0.00954432
0.00963204
0.00965935
0.00963578
0.00957379
0.00949968
0.00938579
0.0088815
0.0093818
0.00955404
0.00966237
0.00970151
0.00967665
0.00959944
0.00948375
0.00935628
0.00919101
0.00920142
0.00962605
0.0097567
0.00981699
0.00980437
0.0097261
0.00959541
0.00942741
0.00924885
0.00903599
0.00960131
0.00992353
0.0100056
0.0100132
0.0099467
0.00981489
0.00963213
0.00941419
0.00918679
0.00893055
0.0100799
0.0102753
0.0103025
0.0102538
0.0101319
0.00994718
0.00971446
0.0094495
0.00917614
0.00888651
0.0106313
0.0106791
0.0106462
0.010538
0.01036
0.0101235
0.00984332
0.0095354
0.00922039
0.00888049
0.0112456
0.011129
0.011032
0.010862
0.0106277
0.010341
0.0100162
0.00966883
0.00931524
0.00893714
0.0119067
0.011616
0.0114513
0.011218
0.0109279
0.0105931
0.010227
0.00984363
0.00945555
0.00904844
0.0125891
0.0121238
0.011891
0.0115947
0.0112503
0.0108702
0.0104662
0.0100509
0.00963309
0.00920395
0.0132565
0.0126297
0.0123338
0.0119778
0.0115826
0.0111607
0.010723
0.0102798
0.00983762
0.00939271
0.0139175
0.0131281
0.0127684
0.0123544
0.0119114
0.011452
0.0109851
0.0105188
0.0100578
0.00960345
0.0145395
0.0135953
0.0131756
0.0127083
0.012223
0.0117316
0.0112408
0.0107567
0.0102829
0.00982558
0.0150932
0.0140096
0.0135372
0.0130241
0.0125036
0.0119871
0.011479
0.0109828
0.0105025
0.0100491
0.0155543
0.0143514
0.0138363
0.0132872
0.0127408
0.0122075
0.0116894
0.0111879
0.0107074
0.0102653
0.0159017
0.0146034
0.014058
0.0134853
0.012924
0.0123835
0.0118638
0.0113639
0.0108898
0.0104663
0.0161176
0.0147508
0.0141902
0.0136082
0.0130448
0.0125081
0.011996
0.0115052
0.0110435
0.0106447
0.0161886
0.0147826
0.0142237
0.0136489
0.0130976
0.0125767
0.0120824
0.0116088
0.011163
0.0107905
0.0161067
0.0146919
0.0141531
0.0136036
0.01308
0.0125877
0.0121217
0.0116714
0.0112379
0.0108854
0.0158695
0.0144765
0.0139769
0.0134716
0.0129926
0.0125437
0.0121178
0.0116977
0.0112744
0.0109359
0.0154783
0.0141379
0.0136962
0.0132544
0.0128386
0.0124521
0.0120915
0.0117486
0.0114364
0.0112491
0.0149327
0.0136789
0.0133141
0.0129538
0.0126165
0.0123047
0.0120167
0.0117505
0.0115216
0.0113873
0.0142491
0.0131114
0.0128388
0.0125746
0.0123277
0.0120986
0.0118865
0.0116925
0.0115287
0.0114205
0.0134465
0.0124499
0.0122809
0.0121244
0.0119779
0.0118393
0.011709
0.0115908
0.0114943
0.0114289
0.0125465
0.0117114
0.0116542
0.011614
0.0115761
0.0115354
0.0114936
0.0114565
0.0114322
0.0114239
0.0115739
0.0109155
0.0109742
0.0110562
0.011133
0.0111965
0.0112489
0.011298
0.0113507
0.0114077
0.0105554
0.0100834
0.0102586
0.010465
0.0106606
0.0108327
0.0109841
0.0111237
0.0112583
0.011388
0.00951767
0.00923619
0.00952483
0.00985486
0.0101706
0.0104542
0.0107081
0.0109417
0.0111625
0.0113718
0.0084871
0.00839392
0.00879008
0.00923982
0.00967445
0.0100703
0.0104286
0.0107588
0.011069
0.0113634
0.00749842
0.00757939
0.00807201
0.00863358
0.00918283
0.00968938
0.0101522
0.0105802
0.0109817
0.0113652
0.00660129
0.00682574
0.00739306
0.00805247
0.00870731
0.00931975
0.00988502
0.01041
0.0109029
0.0113778
0.00574736
0.00611652
0.00675062
0.00749986
0.00825202
0.00896489
0.00962925
0.0102495
0.010832
0.0113978
0.00496438
0.0054687
0.00616037
0.00698318
0.00782308
0.00862886
0.00938685
0.0100988
0.0107677
0.0114182
0.00427121
0.00489488
0.00562983
0.00651165
0.00742572
0.00831396
0.00915832
0.00995682
0.010709
0.0114281
0.00367489
0.00440058
0.00516419
0.00608924
0.00706273
0.0080219
0.00894363
0.00982031
0.0106444
0.0114453
0.00317805
0.0039878
0.00476644
0.00571851
0.00673599
0.00775327
0.00874234
0.00968971
0.0105787
0.0114425
0.00278064
0.00365631
0.00443753
0.00540081
0.00644642
0.00750814
0.00855367
0.00956349
0.0105087
0.0114183
0.00247991
0.00340379
0.00417657
0.00513615
0.0061941
0.00728619
0.0083771
0.00944199
0.0104368
0.0113749
0.00227094
0.00322627
0.00398113
0.00492337
0.00597826
0.00708657
0.008212
0.0093274
0.0103744
0.011329
0.0021475
0.00311866
0.00384763
0.00476027
0.00579723
0.00690724
0.00805478
0.00921446
0.0103303
0.0113206
0.0021008
0.00307405
0.00377065
0.00464298
0.00564798
0.00674573
0.00790603
0.00911861
0.0104087
0.0117074
0.00211277
0.00308121
0.00374312
0.00456741
0.00552651
0.00659164
0.00773494
0.00893846
0.0102251
0.0115099
0.00218361
0.00313772
0.00376195
0.00453137
0.00543169
0.00644414
0.00754336
0.00870377
0.00993459
0.0111596
0.00230718
0.00323775
0.00382244
0.00453283
0.00536575
0.00631248
0.0073534
0.00846359
0.00964549
0.0108221
0.00247478
0.00337434
0.00391935
0.00456952
0.00533079
0.00620443
0.00717847
0.00823204
0.00936403
0.0104972
0.00267812
0.00354099
0.00404747
0.00463857
0.00532718
0.00612379
0.00702455
0.00801366
0.00908823
0.010177
0.0029097
0.00373175
0.00420166
0.00473651
0.0053539
0.00607225
0.00689575
0.00781425
0.00882442
0.00986504
0.00316262
0.00394096
0.00437677
0.00485934
0.00540889
0.00605014
0.00679481
0.00763872
0.00857896
0.00956675
0.00343082
0.00416346
0.00456771
0.00500262
0.00548907
0.00605631
0.00672266
0.00748984
0.00835595
0.0092865
0.00371068
0.00439654
0.00477135
0.00516303
0.00559155
0.00608894
0.00667891
0.00736877
0.00815786
0.00902734
0.00400089
0.00464089
0.00498833
0.00534077
0.00571633
0.00614827
0.00666447
0.00727721
0.00798698
0.0087913
0.00428782
0.00488319
0.00520589
0.00552405
0.00585302
0.0062258
0.00667303
0.00721115
0.00784109
0.00857591
0.0045719
0.00512423
0.0054241
0.0057119
0.00599981
0.0063193
0.00670243
0.00716884
0.00771891
0.00837891
0.00485265
0.00536334
0.00564171
0.00590232
0.00615398
0.00642573
0.00674973
0.00714774
0.0076185
0.00819808
0.00512909
0.00559911
0.0058569
0.00609289
0.00631255
0.00654181
0.00681175
0.00714513
0.00753765
0.00803088
0.00540086
0.00583073
0.00606852
0.0062819
0.00647323
0.00666488
0.00688591
0.00715883
0.0074747
0.00787493
0.00566822
0.00605798
0.00627615
0.00646856
0.00663471
0.00679328
0.00697061
0.00718802
0.00743002
0.00772978
0.0059317
0.00628101
0.00648
0.00665299
0.00679686
0.00692661
0.00706553
0.00723337
0.00740633
0.00759673
0.00619177
0.00650016
0.00668079
0.00683637
0.0069614
0.00706727
0.00717359
0.00729776
0.00740595
0.00746994
0.00644838
0.00671568
0.00687948
0.00702073
0.00713232
0.0072233
0.00731055
0.00741055
0.00748995
0.00745682
0.00670133
0.00692762
0.00707664
0.00720737
0.00731239
0.00740162
0.00749641
0.00763487
0.00788684
0.00829765
0.00695149
0.0071359
0.007272
0.00739575
0.00749864
0.00758959
0.00768859
0.00783035
0.00807868
0.00844339
0.00719457
0.00733886
0.00746454
0.00758464
0.0076887
0.00778272
0.00788259
0.00801505
0.00822394
0.00850477
0.00742672
0.0075345
0.00765272
0.00777261
0.00788139
0.00798158
0.0080849
0.0082122
0.00839405
0.00862116
0.00764492
0.00771981
0.00783454
0.00795769
0.00807464
0.00818429
0.00829402
0.00841917
0.00858087
0.00877077
0.00784364
0.0078936
0.00800757
0.00813742
0.00826563
0.00838761
0.00850638
0.00863204
0.00877877
0.00894178
0.00801914
0.00805299
0.00816962
0.00830905
0.00845131
0.00858812
0.00871852
0.00884805
0.00898575
0.00912986
0.00816798
0.0081957
0.00831834
0.00847008
0.00862858
0.00878227
0.00892667
0.00906343
0.00919778
0.00932893
0.00828732
0.00832013
0.0084519
0.00861814
0.00879438
0.00896635
0.0091265
0.00927332
0.00940915
0.00953156
0.0083739
0.00842467
0.00856881
0.00875136
0.00894611
0.00913685
0.00931356
0.00947228
0.00961325
0.00972974
)
;

boundaryField
{
    inlet
    {
        type            zeroGradient;
    }
    outlet
    {
        type            fixedValue;
        value           uniform 0;
    }
    cylinder
    {
        type            zeroGradient;
    }
    top
    {
        type            symmetryPlane;
    }
    bottom
    {
        type            symmetryPlane;
    }
    defaultFaces
    {
        type            empty;
    }
}


// ************************************************************************* //
