/*--------------------------------*- C++ -*----------------------------------*\
  =========                 |
  \\      /  F ield         | OpenFOAM: The Open Source CFD Toolbox
   \\    /   O peration     | Website:  https://openfoam.org
    \\  /    A nd           | Version:  7
     \\/     M anipulation  |
\*---------------------------------------------------------------------------*/
FoamFile
{
    version     2.0;
    format      ascii;
    class       surfaceScalarField;
    location    "89";
    object      phi;
}
// * * * * * * * * * * * * * * * * * * * * * * * * * * * * * * * * * * * * * //

dimensions      [0 3 -1 0 0 0 0];

internalField   nonuniform List<scalar> 
3880
(
-1.82864e-05
-0.000484693
0.000502979
-1.7559e-05
-0.00117075
0.00117002
1.29658e-05
-0.00157677
0.00154624
7.85578e-05
-0.0017433
0.00167771
0.00018431
-0.00169774
0.00159199
0.000336382
-0.00145884
0.00130677
0.000541553
-0.00104
0.000834831
0.000805438
-0.000452216
0.000188331
0.0011301
0.000293509
-0.000618174
0.00118495
0.00151135
-0.00156619
-6.94091e-06
-0.000477752
1.67218e-05
-0.00119441
7.65435e-05
-0.00163659
0.000174396
-0.00184115
0.000312934
-0.00183628
0.000496897
-0.0016428
0.000732552
-0.00127566
0.00102597
-0.000745633
0.00138062
-6.11447e-05
0.000771074
0.00179449
8.57312e-06
-0.000486325
6.24173e-05
-0.00124826
0.000161055
-0.00173523
0.000302069
-0.00198217
0.000485111
-0.00201932
0.000712826
-0.00187052
0.000990314
-0.00155314
0.00132355
-0.00107887
0.00171719
-0.000454784
0.000316788
0.00217148
2.74182e-05
-0.000513743
0.000117911
-0.00133875
0.000263456
-0.00188077
0.000457039
-0.00217575
0.00069503
-0.00225731
0.000977652
-0.00215314
0.00130843
-0.00188392
0.00169276
-0.0014632
0.00213591
-0.00089793
-0.000187618
0.00264031
4.90917e-05
-0.000562835
0.000180716
-0.00147037
0.000378786
-0.00207884
0.000631448
-0.00242841
0.000931776
-0.00255764
0.0012776
-0.00249896
0.0016708
-0.00227713
0.00211597
-0.00190837
0.00261845
-0.00140042
-0.000751395
0.00318223
7.24841e-05
-0.000635319
0.000247424
-0.00164531
0.000500224
-0.00233164
0.00081417
-0.00274236
0.00117925
-0.00292271
0.00159119
-0.0029109
0.00205054
-0.00273648
0.00256124
-0.00241907
0.00312856
-0.00196773
-0.00137969
0.00375685
9.63045e-05
-0.000731623
0.000313901
-0.00186291
0.000619439
-0.00263718
0.00099144
-0.00311436
0.00141709
-0.00334837
0.00189047
-0.00338428
0.00241127
-0.00325729
0.00298344
-0.00299124
0.00361261
-0.00259689
-0.00206957
0.00430249
0.000119119
-0.000850742
0.000375555
-0.00211935
0.000727201
-0.00298883
0.001148
-0.00353516
0.00162266
-0.00382303
0.00214393
-0.00390555
0.00271115
-0.00382451
0.00332905
-0.00360914
0.00400528
-0.00327312
-0.00280738
0.00474309
0.000139428
-0.00099017
0.000427648
-0.00240757
0.000814129
-0.00337531
0.0012686
-0.00398963
0.00177363
-0.00432805
0.00232087
-0.00445279
0.00290926
-0.0044129
0.00354448
-0.00424436
0.00423836
-0.00396699
-0.00357003
0.00500101
0.000155749
-0.00114592
0.000465622
-0.00271744
0.000871481
-0.00378117
0.00133955
-0.00445769
0.00185086
-0.00483937
0.0023963
-0.00499822
0.00297399
-0.0049906
0.0035889
-0.00485927
0.00425626
-0.00463435
0.00501871
-0.00433248
0.00269
0.0126467
-0.0138254
0.00403095
0.0313492
-0.0326901
0.00464951
0.0515857
-0.0522043
0.00459217
0.0703948
-0.0703375
0.00410301
0.0887528
-0.0882637
0.00332873
0.108057
-0.107283
0.00237123
0.130107
-0.129149
0.00126387
0.160345
-0.159238
0.000356814
0.206242
-0.205335
0.26108
-0.260724
0.00300051
0.0114407
0.00457771
0.029772
0.00547936
0.0506841
0.00561417
0.07026
0.00521809
0.0891489
0.00445297
0.108822
0.00343331
0.131127
0.00219601
0.161582
0.00094404
0.207494
0.262024
0.00333946
0.0102727
0.00509516
0.0280163
0.00628269
0.0494965
0.00662559
0.0699171
0.00633326
0.0894412
0.00558131
0.109574
0.00449879
0.132209
0.00312353
0.162958
0.0015382
0.209079
0.263563
0.00371225
0.00920079
0.0055709
0.0261576
0.00703609
0.0480314
0.007603
0.0693502
0.00742862
0.0896156
0.00669649
0.110306
0.00555463
0.133351
0.00404166
0.164471
0.00212574
0.210995
0.265688
0.00412065
0.00826237
0.00599859
0.0242797
0.00771846
0.0463115
0.00852368
0.068545
0.0084843
0.089655
0.00778284
0.111008
0.00658804
0.134546
0.00494061
0.166118
0.00270122
0.213234
0.26839
0.00455547
0.00746375
0.00637649
0.0224587
0.00831265
0.0443753
0.00936639
0.0674913
0.00948115
0.0895402
0.00882414
0.111665
0.00758559
0.135784
0.00580963
0.167894
0.00325742
0.215787
0.271647
0.00498988
0.00677635
0.00670244
0.0207461
0.00880643
0.0422713
0.0101124
0.0661853
0.0104023
0.0892503
0.00980736
0.11226
0.00853799
0.137054
0.00664293
0.169789
0.00379371
0.218636
0.275441
0.00537205
0.0061474
0.00696534
0.0191528
0.0091903
0.0400464
0.0107456
0.06463
0.0112285
0.0887674
0.010712
0.112776
0.00942546
0.13834
0.00742442
0.17179
0.00429764
0.221763
0.279738
0.00562401
0.0055244
0.00713604
0.0176408
0.00944969
0.0377327
0.0112561
0.0628236
0.0119632
0.0880603
0.0115505
0.113189
0.0102643
0.139626
0.0081666
0.173888
0.00477899
0.22515
0.284517
0.00571226
0.00483085
0.00725077
0.0161023
0.00960978
0.0353737
0.0116134
0.0608199
0.0125385
0.0871353
0.0122503
0.113477
0.0110077
0.140869
0.00881709
0.176078
0.00524114
0.228726
0.289759
0.0182812
0.00894699
-0.0223973
0.014092
0.0202915
0.0119304
0.0375354
0.0108281
0.0619222
0.00948191
0.0884815
0.00761323
0.115346
0.00514209
0.14334
0.00221215
0.179008
-5.01646e-05
0.230989
0.289708
0.0191037
0.0118007
-0.0219573
0.0150246
0.0243705
0.0120576
0.0405024
0.0105053
0.0634746
0.00910248
0.0898842
0.0072575
0.117191
0.00482144
0.145776
0.00201917
0.181811
-0.000112067
0.23312
0.289596
0.0186721
0.0132468
-0.0201182
0.0155079
0.0275347
0.0123611
0.0436492
0.0103167
0.0655189
0.00868399
0.091517
0.00683618
0.119039
0.00449656
0.148116
0.00182723
0.18448
-0.000151124
0.235098
0.289445
0.0173515
0.0137691
-0.0178738
0.0151378
0.0297485
0.0123769
0.04641
0.0101854
0.0677105
0.00838109
0.0933213
0.00650068
0.120919
0.00423517
0.150381
0.00172866
0.186986
-0.000114821
0.236942
0.28933
0.0156682
0.0136349
-0.0155341
0.0142389
0.0311778
0.0119942
0.0486548
0.00992169
0.0697829
0.00810256
0.0951404
0.00621701
0.122805
0.00400184
0.152596
0.00159683
0.189392
-0.000140466
0.238679
0.28919
0.0137954
0.0129448
-0.0131053
0.0130324
0.0319408
0.0112888
0.0503984
0.00946391
0.0716079
0.00776801
0.0968363
0.0059683
0.124604
0.00384565
0.154719
0.00156693
0.19167
-7.97152e-05
0.240326
0.28911
0.0118768
0.0117419
-0.010674
0.0117543
0.0320633
0.0105271
0.0516256
0.00895871
0.0731762
0.00739131
0.0984037
0.00568795
0.126308
0.00366183
0.156745
0.0014683
0.193864
-0.000100452
0.241894
0.28901
0.00992355
0.010063
-0.00824464
0.0103299
0.0316569
0.00960531
0.0523502
0.00839755
0.074384
0.00703284
0.0997684
0.00546401
0.127877
0.00354676
0.158662
0.00148382
0.195927
-8.92696e-06
0.243387
0.289001
0.00838973
0.00773279
-0.00605951
0.00938344
0.0306632
0.00903545
0.0526982
0.00801163
0.0754078
0.0067403
0.10104
0.00525169
0.129365
0.00340759
0.160507
0.00140938
0.197925
-2.6963e-05
0.244823
0.288974
0.00603337
-0.00338986
0.0078796
0.00831778
0.00772121
0.00663865
0.00519691
0.00343692
0.00147703
9.84935e-05
0.00487064
-0.0225726
-0.00469537
0.00443254
-0.0215192
0.0037041
-0.0193898
0.00289994
-0.0170696
0.00207421
-0.0147083
0.00124578
-0.0122769
0.000419728
-0.00984792
-0.000376376
-0.00744854
-0.00125526
-0.00518063
-0.0026777
0.00399179
-0.022405
-0.00415944
0.00332427
-0.0208517
0.00248105
-0.0185465
0.00160812
-0.0161967
0.000734004
-0.0138342
-0.000128452
-0.0114144
-0.000977638
-0.00899873
-0.00179442
-0.00663175
-0.00263769
-0.00433736
-0.00202922
0.00297344
-0.0219518
-0.0034266
0.0021138
-0.0199921
0.00118115
-0.0176139
0.000252459
-0.015268
-0.000651975
-0.0129298
-0.00152945
-0.010537
-0.00237654
-0.00815164
-0.00317827
-0.00583002
-0.00395022
-0.00356541
-0.00147111
0.00181368
-0.0212678
-0.00249769
0.000815842
-0.0189942
-0.00017677
-0.0166213
-0.00113508
-0.0143097
-0.00205325
-0.0120116
-0.00292404
-0.00966616
-0.00374411
-0.00733157
-0.00449967
-0.00507446
-0.00517628
-0.0028888
-0.0010176
0.000528711
-0.0203968
-0.00139966
-0.000554505
-0.017911
-0.00157254
-0.0156032
-0.00253901
-0.0133432
-0.00344382
-0.0111068
-0.00428351
-0.00882646
-0.00505271
-0.00656237
-0.00573647
-0.0043907
-0.00630307
-0.0023222
-0.000671409
-0.000837849
-0.0193903
-0.000168701
-0.00196547
-0.0167834
-0.00298143
-0.0145873
-0.00392716
-0.0123975
-0.00479479
-0.0102392
-0.00558115
-0.00804011
-0.00627929
-0.00586424
-0.00687307
-0.00379691
-0.00732464
-0.00187063
-0.000427591
-0.00224466
-0.018267
0.00112135
-0.00337518
-0.0156529
-0.00436361
-0.0135989
-0.0052663
-0.0114948
-0.00607701
-0.00942848
-0.00679255
-0.00732457
-0.00740572
-0.00525106
-0.00790011
-0.00330252
-0.00824006
-0.00153068
-0.000275805
-0.00363682
-0.0170754
0.00244522
-0.00474088
-0.0145488
-0.00568277
-0.012657
-0.00652511
-0.0106525
-0.00726488
-0.00868872
-0.00789843
-0.00669101
-0.00841999
-0.00472951
-0.00881411
-0.0029084
-0.00905242
-0.00129237
-0.000202355
-0.00496811
-0.0158539
0.00374665
-0.00602436
-0.0134926
-0.00690687
-0.0117745
-0.00767742
-0.0098819
-0.00833865
-0.00802749
-0.00888583
-0.00614384
-0.00931627
-0.00429907
-0.00961653
-0.00260814
-0.00976772
-0.00114119
-0.000191842
-0.00619947
-0.0146358
0.00498131
-0.00719427
-0.0124978
-0.00801069
-0.010958
-0.00870401
-0.00918858
-0.00928546
-0.00744603
-0.00974829
-0.005681
-0.0100944
-0.00395301
-0.0103126
-0.00238986
-0.0103939
-0.00105996
-0.000228329
-0.00730129
-0.0134471
0.00611266
-0.00822747
-0.0115716
-0.00897691
-0.0102086
-0.00959307
-0.00857243
-0.0100992
-0.0069399
-0.0104853
-0.00529494
-0.0107585
-0.00367977
-0.0109103
-0.00223807
-0.0109397
-0.0010305
-0.000296062
-0.00825846
-0.012307
0.00711831
-0.00911184
-0.0107182
-0.00979768
-0.00952277
-0.0103411
-0.00802897
-0.0107805
-0.00650051
-0.0111013
-0.00497415
-0.0113163
-0.0034648
-0.0114189
-0.00213549
-0.0114147
-0.0010347
-0.000379835
-0.00906145
-0.0112276
0.0079821
-0.00984133
-0.00993832
-0.0104705
-0.00889356
-0.0109497
-0.00754978
-0.011334
-0.00611619
-0.011604
-0.00470419
-0.0117771
-0.00329174
-0.0118484
-0.00206416
-0.0118279
-0.00105517
-0.000465147
-0.00970965
-0.0102143
0.00869632
-0.0104176
-0.00923037
-0.0109993
-0.00831182
-0.0114255
-0.00712358
-0.0117681
-0.00577363
-0.0120032
-0.00446912
-0.0121512
-0.0031437
-0.012209
-0.00200642
-0.0121886
-0.00107557
-0.000538232
-0.0102086
-0.00926425
0.00925851
-0.0108478
-0.0085911
-0.0113919
-0.00776772
-0.0117785
-0.00673701
-0.0120931
-0.00545903
-0.0123098
-0.00425241
-0.0124494
-0.00300408
-0.0125104
-0.0019454
-0.0125053
-0.00108067
-0.000585981
-0.0105675
-0.00836568
0.00966889
-0.0111436
-0.00801497
-0.0116588
-0.00725249
-0.0120205
-0.00637532
-0.0123205
-0.005159
-0.0125351
-0.0040378
-0.0126822
-0.00285708
-0.0127623
-0.00186528
-0.0127866
-0.00105632
-0.00059584
-0.0107966
-0.00749709
0.00992803
-0.0113192
-0.00749244
-0.0118116
-0.00676001
-0.0121639
-0.00602308
-0.0124619
-0.00486092
-0.01269
-0.00380977
-0.0128592
-0.00268783
-0.0129732
-0.00175127
-0.0130404
-0.000989194
-0.000555688
-0.0108992
-0.00663432
0.0100365
-0.0113856
-0.00700603
-0.0118598
-0.0062859
-0.012219
-0.00566388
-0.0125276
-0.00455232
-0.0127839
-0.00355343
-0.0129895
-0.0024822
-0.0131514
-0.00158936
-0.0132741
-0.000866516
-0.000453678
-0.010872
-0.00576426
0.0100019
-0.0113538
-0.00652423
-0.0118135
-0.00582616
-0.0121958
-0.00528157
-0.0125273
-0.00422079
-0.012826
-0.0032548
-0.0130814
-0.00222678
-0.0133044
-0.0013663
-0.0134951
-0.000675909
-0.000278034
-0.010759
-0.00487012
0.00986485
-0.0112667
-0.00601658
-0.0117003
-0.00539256
-0.0121079
-0.00487396
-0.0124716
-0.00385709
-0.0128228
-0.00290361
-0.0131413
-0.00190824
-0.0134386
-0.00106895
-0.0137109
-0.000403665
-1.75754e-05
-0.0481663
-0.00472601
0.0480222
-0.0493185
-0.00486441
-0.0505687
-0.00414239
-0.0518131
-0.00362959
-0.0528516
-0.0028185
-0.0536595
-0.00209573
-0.0542079
-0.00135989
-0.0545166
-0.000760235
-0.0546323
-0.000287965
-2.15662e-05
-0.0571379
-0.00474296
0.0571549
-0.0578525
-0.00414985
-0.0585533
-0.00344158
-0.0593323
-0.00285063
-0.0599762
-0.00217452
-0.0604799
-0.00159202
-0.060813
-0.00102684
-0.0609892
-0.000584011
-0.0610471
-0.000230109
-2.64938e-05
-0.0682605
-0.00486133
0.0683789
-0.0685953
-0.00381513
-0.0689494
-0.00308745
-0.0694074
-0.00239258
-0.0697714
-0.00181054
-0.0700794
-0.00128404
-0.0702662
-0.000840028
-0.0703665
-0.000483773
-0.0703878
-0.000208786
-2.92909e-05
-0.0819909
-0.00493206
0.0820617
-0.0821889
-0.00361716
-0.082376
-0.00290039
-0.0826616
-0.00210698
-0.0828675
-0.00160456
-0.0830654
-0.00108612
-0.083171
-0.000734492
-0.0832386
-0.000416147
-0.0832467
-0.000200651
-2.72314e-05
-0.0982909
-0.00478401
0.0981428
-0.0985216
-0.00338643
-0.0987051
-0.00271688
-0.09894
-0.00187209
-0.0990985
-0.00144604
-0.0992605
-0.000924148
-0.0993455
-0.000649447
-0.0994179
-0.000343758
-0.0994382
-0.000180331
-1.41189e-05
-0.11609
-0.00432941
0.115635
-0.116466
-0.00301041
-0.116764
-0.00241852
-0.117032
-0.00160457
-0.117224
-0.00125345
-0.117395
-0.000753244
-0.117502
-0.000542541
-0.117599
-0.000246847
-0.117645
-0.000134578
6.90912e-06
-0.13342
-0.00355186
0.132642
-0.133985
-0.00244567
-0.134441
-0.00196233
-0.134776
-0.00126948
-0.135035
-0.000994753
-0.135226
-0.000562032
-0.135366
-0.000402777
-0.135473
-0.000139846
-0.135534
-7.32939e-05
2.64584e-05
-0.148058
-0.00251075
0.147017
-0.148789
-0.00171468
-0.149379
-0.0013721
-0.149775
-0.000873398
-0.150087
-0.000682747
-0.150285
-0.000364359
-0.150434
-0.000253107
-0.150519
-5.48763e-05
-0.15057
-2.26509e-05
3.22163e-05
-0.158374
-0.00129759
0.15716
-0.15921
-0.000877808
-0.159881
-0.000701931
-0.160312
-0.000442005
-0.160649
-0.000345407
-0.160837
-0.000176738
-0.160971
-0.0001189
-0.161015
-1.13711e-05
-0.161036
-1.39e-06
2.16662e-05
-0.163639
0.162341
-0.164517
-0.165219
-0.165661
-0.166006
-0.166183
-0.166302
-0.166313
-0.166314
-0.0110478
0.0490245
0.0100455
-0.011786
0.0578931
-0.0123852
0.0689781
-0.0127045
0.082381
-0.0125254
0.0979637
-0.0115994
0.114709
-0.00977421
0.130817
-0.00708029
0.144323
-0.00372177
0.153802
0.158619
-0.0104892
0.0497912
0.00972249
-0.0111767
0.0585806
-0.0117054
0.0695068
-0.0119395
0.0826151
-0.0116886
0.0977128
-0.0107437
0.113764
-0.00899087
0.129064
-0.00647724
0.141809
-0.00339229
0.150717
0.155227
-0.00995367
0.0505006
0.00924429
-0.0105754
0.0592023
-0.0110253
0.0699567
-0.0111838
0.0827736
-0.0108832
0.0974122
-0.00994655
0.112828
-0.00828468
0.127402
-0.00594819
0.139473
-0.00310877
0.147877
0.152118
-0.00932618
0.0511845
0.0086423
-0.00988619
0.0597623
-0.0102548
0.0703253
-0.0103403
0.0828592
-0.00999954
0.0970714
-0.00908557
0.111914
-0.00753128
0.125848
-0.00538845
0.13733
-0.0028102
0.145299
0.149308
-0.00859176
0.0518341
0.00794213
-0.00909237
0.0602629
-0.00938759
0.0706205
-0.00941227
0.0828838
-0.00904709
0.0967062
-0.00817334
0.11104
-0.00674273
0.124418
-0.00480691
0.135394
-0.00250107
0.142993
0.146807
-0.00776905
0.0524397
0.00716348
-0.00820395
0.0606978
-0.00842961
0.0708461
-0.00840424
0.0828585
-0.00803043
0.0963324
-0.00721481
0.110224
-0.00592422
0.123127
-0.0042082
0.133678
-0.00218417
0.140969
0.144623
-0.0068754
0.0529928
0.00632232
-0.00724022
0.0610626
-0.00739806
0.071004
-0.00733066
0.0827911
-0.00696093
0.0959627
-0.00621838
0.109482
-0.00508174
0.12199
-0.00359636
0.132193
-0.00186164
0.139235
0.142761
-0.00592519
0.0534832
0.00543472
-0.00621913
0.0613566
-0.00631193
0.0710968
-0.00620966
0.0826888
-0.00585423
0.0956073
-0.0051962
0.108824
-0.00422369
0.121018
-0.00297653
0.130945
-0.00153592
0.137794
0.141225
-0.00493448
0.0538999
0.00451783
-0.00515877
0.0615809
-0.00518977
0.0711278
-0.00505928
0.0825583
-0.00472638
0.0952744
-0.00416129
0.108259
-0.00335954
0.120216
-0.00235465
0.12994
-0.00120989
0.136649
0.140015
-0.00392064
0.0542308
0.00358969
-0.00407874
0.061739
-0.00405012
0.0710992
-0.00389717
0.0824054
-0.00359272
0.0949699
-0.00312615
0.107792
-0.00249858
0.119589
-0.00173674
0.129179
-0.000886552
0.135799
0.139129
-0.00291112
0.0544692
0.00267277
-0.00300329
0.0618312
-0.00291609
0.071012
-0.00274443
0.0822337
-0.00247126
0.0946967
-0.00210548
0.107426
-0.00165188
0.119135
-0.00113006
0.128657
-0.000569543
0.135239
0.138559
-0.00192532
0.0546172
0.00177732
-0.00194666
0.0618525
-0.0018067
0.070872
-0.00161671
0.0820437
-0.0013757
0.0944557
-0.00110879
0.10716
-0.0008257
0.118852
-0.000539657
0.128371
-0.000261212
0.13496
0.138298
-0.000993904
0.0546893
0.000921759
-0.000934174
0.0617928
-0.000752904
0.0706907
-0.000544218
0.081835
-0.000337887
0.0942494
-0.000167418
0.106989
-5.01804e-05
0.118735
1.03648e-05
0.12831
2.67261e-05
0.134944
0.138325
-0.00015318
0.0547334
0.000109055
-6.63345e-06
0.0616462
0.000227601
0.0704565
0.000473013
0.0815896
0.000660703
0.0940617
0.000749384
0.1069
0.000716478
0.118767
0.00056283
0.128464
0.000312773
0.135194
0.138638
0.000686083
0.0546881
-0.000640791
0.000914708
0.0614176
0.00118468
0.0701865
0.00144227
0.081332
0.00160339
0.0939006
0.00160874
0.106895
0.0014296
0.118947
0.00107237
0.128821
0.000577764
0.135688
0.139215
0.00144457
0.0545804
-0.00133682
0.00173788
0.0611243
0.00204747
0.0698769
0.00232511
0.0810544
0.00246679
0.0937589
0.00239962
0.106962
0.00208778
0.119258
0.00154302
0.129366
0.000821771
0.13641
0.140037
0.00211873
0.0544396
-0.00197791
0.00247626
0.0607668
0.00282071
0.0695325
0.00311891
0.0807562
0.00324738
0.0936304
0.00311887
0.107091
0.00268886
0.119688
0.00197349
0.130081
0.0010442
0.137339
0.141081
0.0027171
0.0542956
-0.00257312
0.00312822
0.0603556
0.00350084
0.0691599
0.00381546
0.0804416
0.00393329
0.0935126
0.00375259
0.107271
0.00321943
0.120222
0.00235327
0.130947
0.00123921
0.138453
0.142321
0.00325378
0.0541797
-0.00313786
0.00370179
0.0599076
0.00410182
0.0687598
0.00443361
0.0801098
0.00454766
0.0933986
0.00432508
0.107494
0.00370078
0.120846
0.00269739
0.131951
0.00141457
0.139736
0.143735
0.00365493
0.0541898
-0.00366506
0.00409921
0.0594634
0.00452437
0.0683347
0.00486454
0.0797696
0.00497517
0.0932879
0.00472581
0.107743
0.00404013
0.121532
0.00294013
0.133051
0.0015352
0.141141
0.14527
-0.0355703
0.0499903
0.0397698
-0.0323331
0.0562262
-0.0301834
0.066185
-0.0278981
0.0774843
-0.0251331
0.0905229
-0.0215823
0.104193
-0.0171366
0.117086
-0.0118962
0.12781
-0.0060877
0.135332
0.139183
-0.043641
0.0463151
0.0473162
-0.0406511
0.0532363
-0.0379289
0.0634627
-0.0348029
0.0743583
-0.0311421
0.0868621
-0.0265614
0.0996119
-0.0209827
0.111507
-0.0145276
0.121355
-0.00745296
0.128258
0.13173
-0.0527274
0.0428289
0.0562137
-0.0496658
0.0501747
-0.046304
0.060101
-0.0423254
0.0703797
-0.0375974
0.0821341
-0.0317565
0.0937709
-0.0248634
0.104614
-0.0170752
0.113567
-0.00865467
0.119837
0.123075
-0.063641
0.039493
0.0669768
-0.0600974
0.0466311
-0.0559274
0.055931
-0.0509788
0.065431
-0.0450207
0.076176
-0.037749
0.0864993
-0.0293694
0.0962344
-0.0200893
0.104287
-0.0102346
0.109982
0.11284
-0.0758423
0.035612
0.0797233
-0.0714816
0.0422704
-0.066247
0.0506964
-0.0599469
0.059131
-0.0523436
0.0685728
-0.0433222
0.0774779
-0.0332495
0.0861617
-0.0223661
0.0934035
-0.0110994
0.0987158
0.101741
-0.0898129
0.0317194
0.0937055
-0.0843458
0.0368033
-0.0778557
0.0442063
-0.0700006
0.0512758
-0.0606755
0.0592476
-0.0499531
0.0667555
-0.0381525
0.0743611
-0.0255788
0.0808298
-0.0129331
0.08607
0.088808
-0.103112
0.0259738
0.108857
-0.0964551
0.0301468
-0.0884333
0.0361846
-0.0785614
0.0414039
-0.0671573
0.0478435
-0.0542452
0.0538435
-0.0401858
0.0603017
-0.025491
0.066135
-0.0113764
0.0719554
0.0774316
-0.11719
0.0203609
0.122803
-0.109425
0.022382
-0.100075
0.0268341
-0.088906
0.030235
-0.0762789
0.0352164
-0.0620232
0.0395878
-0.0466529
0.0449313
-0.0306996
0.0501818
-0.0161984
0.0574542
0.0612331
-0.131517
0.00991234
0.141965
-0.120418
0.0112834
-0.107291
0.0137073
-0.0925825
0.0155261
-0.075743
0.0183769
-0.057105
0.0209499
-0.036611
0.0244373
-0.0151965
0.0287673
0.0045973
0.0376604
0.0658304
-0.236539
0.246451
-0.225256
-0.211548
-0.196022
-0.177645
-0.156695
-0.132258
-0.103491
-0.0658304
0.00198314
0.0411701
-0.00338342
0.000726993
0.0485723
-0.000248153
0.0571888
-0.000895253
0.0676239
-0.00128991
0.080118
-0.00143484
0.0938504
-0.00121089
0.108633
-0.000903774
0.122496
-0.00165985
0.142721
0.244791
0.00231822
0.0425255
-0.00367357
0.00109057
0.0498
0.000110072
0.0581693
-0.000574141
0.0683081
-0.00100758
0.0805514
-0.00118426
0.0940271
-0.00103565
0.108485
-0.000781647
0.122242
-0.00146197
0.143402
0.24333
0.0027213
0.04378
-0.00397586
0.00153309
0.0509882
0.000588339
0.0591141
-0.000141958
0.0690384
-0.000581952
0.0809914
-0.000800228
0.0942454
-0.000713353
0.108398
-0.000567214
0.122096
-0.00126219
0.144097
0.242067
0.00312735
0.0449345
-0.0042818
0.00198538
0.0521302
0.00107266
0.0600268
0.000358376
0.0697527
-0.000104925
0.0814547
-0.0003635
0.094504
-0.000316258
0.10835
-0.000302742
0.122082
-0.00100595
0.1448
0.241061
0.00352773
0.0459851
-0.00457833
0.00245027
0.0532076
0.00157896
0.0608981
0.000898347
0.0704333
0.000436217
0.0819168
0.000121381
0.0948188
0.000130063
0.108342
-1.27973e-05
0.122225
-0.000704369
0.145492
0.240357
0.00393513
0.0469052
-0.00485524
0.00294386
0.0541989
0.0021222
0.0617197
0.00147707
0.0710785
0.00102368
0.0823702
0.000711725
0.0951308
0.000609728
0.108444
0.000421775
0.122413
-0.000361728
0.146275
0.239995
0.00434879
0.047662
-0.00510562
0.0034643
0.0550834
0.00270189
0.0624822
0.00209774
0.0716826
0.00165497
0.082813
0.00132878
0.0954569
0.00114478
0.108628
0.000863958
0.122694
2.49386e-05
0.147114
0.24002
0.00476367
0.0482217
-0.00532338
0.00400252
0.0558446
0.00330937
0.0631753
0.00275263
0.0722393
0.00232453
0.0832411
0.00198272
0.0957988
0.00172095
0.10889
0.00133765
0.123077
0.000395931
0.148056
0.240416
0.00517094
0.0485525
-0.00550166
0.00454808
0.0564674
0.00393433
0.0637891
0.0034314
0.0727423
0.00302402
0.0836485
0.00266721
0.0961556
0.00232976
0.109227
0.00184184
0.123565
0.000807482
0.14909
0.241224
0.00555847
0.0486269
-0.00563288
0.00508928
0.0569366
0.00456587
0.0643125
0.00412307
0.0731851
0.00374348
0.084028
0.00337248
0.0965266
0.00296298
0.109637
0.00237059
0.124158
0.00123987
0.150221
0.242464
0.00590896
0.048425
-0.00570712
0.0056093
0.0572363
0.00518891
0.0647329
0.00481177
0.0735622
0.00446612
0.0843737
0.00408464
0.0969081
0.00360858
0.110113
0.00291421
0.124852
0.00168391
0.151451
0.244147
0.0062148
0.0479372
-0.00572699
0.00610106
0.05735
0.00579537
0.0650385
0.00549012
0.0738675
0.00518425
0.0846796
0.00479789
0.0972944
0.00426113
0.110649
0.00346854
0.125644
0.00213651
0.152783
0.246284
0.00645915
0.047168
-0.00568988
0.00654681
0.0572623
0.00636582
0.0652195
0.00613932
0.074094
0.00587965
0.0849393
0.00549637
0.0976777
0.00490684
0.111239
0.00402304
0.126528
0.00259051
0.154216
0.248874
0.00663131
0.0461375
-0.00560082
0.00693217
0.0569615
0.00688501
0.0652667
0.00674409
0.0742349
0.00653755
0.0851458
0.00616672
0.0980485
0.00553432
0.111871
0.00456904
0.127494
0.00303953
0.155745
0.251914
0.00672419
0.0448832
-0.00546988
0.00724486
0.0564408
0.00733898
0.0651726
0.00728985
0.074284
0.00714393
0.0852917
0.00679575
0.0983967
0.00613256
0.112534
0.00509811
0.128528
0.00347754
0.157366
0.255392
0.00673646
0.043459
-0.00531229
0.00747562
0.0557017
0.00771561
0.0649326
0.00776341
0.0742362
0.00768582
0.0853693
0.00737043
0.0987121
0.0066903
0.113215
0.00560163
0.129617
0.0038964
0.159071
0.259288
0.00667537
0.0419297
-0.00514612
0.00761921
0.0547578
0.00800523
0.0645466
0.00815414
0.0740873
0.00815183
0.0853716
0.00788062
0.0989833
0.00719951
0.113896
0.00607389
0.130742
0.00429155
0.160853
0.263579
0.0065557
0.0403575
-0.0049835
0.00767423
0.0536393
0.00820223
0.0640186
0.00845236
0.0738372
0.0085285
0.0852955
0.00831075
0.0992011
0.00764431
0.114562
0.00650292
0.131884
0.00465005
0.162706
0.26823
0.00637524
0.0387824
-0.00480016
0.00763607
0.0523784
0.00831025
0.0633444
0.00866583
0.0734816
0.00882648
0.0851348
0.00867368
0.0993539
0.00803609
0.1152
0.0068979
0.133022
0.00497739
0.164627
0.273207
0.0061073
0.0371487
-0.00447358
0.00743528
0.0510505
0.00824928
0.0625304
0.00870567
0.0730252
0.00895589
0.0848846
0.00887819
0.0994316
0.0083025
0.115775
0.00718906
0.134135
0.00526925
0.166547
0.278476
-0.0163977
0.0372104
0.016336
-0.0146819
0.0493347
-0.0121922
0.0600407
-0.00930993
0.0701429
-0.0063102
0.0818849
-0.00309278
0.0962142
0.000217712
0.112465
0.00264149
0.131712
0.00192789
0.16726
0.280404
-0.0291929
0.0359428
0.0304605
-0.0265962
0.0467381
-0.022864
0.0563085
-0.018591
0.0658699
-0.0140698
0.0773637
-0.00915642
0.0913008
-0.00410828
0.107417
-0.000142419
0.127746
0.000651539
0.166466
0.281056
-0.0431947
0.0338152
0.0453223
-0.0394616
0.0430049
-0.0343486
0.0511955
-0.0286981
0.0602194
-0.0226345
0.0713001
-0.0158943
0.0845605
-0.00885437
0.100377
-0.0029292
0.121821
-0.00058044
0.164117
0.280475
-0.058401
0.0307862
0.0614301
-0.0532562
0.0378601
-0.0469558
0.0448951
-0.040048
0.0533116
-0.0323175
0.0635696
-0.0235664
0.0758095
-0.0144156
0.0912261
-0.006456
0.113861
-0.00219043
0.159852
0.278285
-0.075007
0.0263651
0.0794281
-0.0686393
0.0314924
-0.061517
0.0377729
-0.0532636
0.0450582
-0.0437074
0.0540134
-0.0329116
0.0650137
-0.0216176
0.0799321
-0.0113861
0.103629
-0.00454566
0.153011
0.273739
-0.0936501
0.0213472
0.098668
-0.0864266
0.0242689
-0.0783641
0.0297103
-0.0685682
0.0352623
-0.0573112
0.0427564
-0.04465
0.0523525
-0.0314521
0.0667343
-0.0189056
0.0910828
-0.00885748
0.142963
0.264882
-0.115249
0.01469
0.121906
-0.107574
0.0165941
-0.0987697
0.0209058
-0.0881056
0.0245982
-0.0760927
0.0307435
-0.0623761
0.0386359
-0.0477636
0.0521217
-0.0327735
0.0760927
-0.0178221
0.128012
0.24706
-0.145989
0.00781064
0.152869
-0.1379
0.00850458
-0.128425
0.0114306
-0.117444
0.0136181
-0.10499
0.0182894
-0.090886
0.0245316
-0.0753637
0.0365994
-0.0581765
0.0589055
-0.0359742
0.10581
0.211085
-0.203435
0.0019225
0.209323
-0.197304
0.00237372
-0.18953
0.00365617
-0.180948
0.00503652
-0.170449
0.00779007
-0.157971
0.0120542
-0.141544
0.0201718
-0.117593
0.0349548
-0.0762866
0.0645033
0.134799
-0.285339
0.287262
-0.282965
-0.279309
-0.274273
-0.266483
-0.254429
-0.234257
-0.199302
-0.134799
0.00209176
0.0171348
-0.00289061
0.000598946
0.0319533
-0.000957745
0.046879
-0.00235816
0.0628305
-0.003496
0.0805659
-0.00444444
0.0996164
-0.0050781
0.12254
-0.00556901
0.15336
-0.00471954
0.208474
0.282542
0.00182738
0.0176075
-0.00230003
0.00062803
0.0331527
-0.000784827
0.0482918
-0.00212788
0.0641735
-0.0032556
0.0816936
-0.00419113
0.100552
-0.00483542
0.123184
-0.00534373
0.153868
-0.0042877
0.207417
0.278254
0.00165849
0.0178276
-0.00187864
0.00074124
0.0340699
-0.000495404
0.0495285
-0.00172608
0.0654042
-0.00279951
0.0827671
-0.0037052
0.101458
-0.00437384
0.123853
-0.00485024
0.154344
-0.0039223
0.20649
0.274332
0.00157145
0.0178344
-0.00157825
0.000922428
0.0347189
-0.000139131
0.05059
-0.00123707
0.0665021
-0.00223559
0.0837656
-0.0031159
0.102338
-0.00379931
0.124536
-0.0042855
0.15483
-0.00350429
0.205708
0.270828
0.00156048
0.01764
-0.00136607
0.00118094
0.0350985
0.000329944
0.051441
-0.000664197
0.0674963
-0.00158582
0.0846872
-0.00243942
0.103192
-0.00314103
0.125238
-0.00365644
0.155346
-0.00304019
0.205092
0.267788
0.00162089
0.0172459
-0.00122676
0.00151927
0.0352001
0.000889326
0.052071
-2.08109e-05
0.0684064
-0.000838355
0.0855048
-0.00167273
0.104026
-0.0023975
0.125963
-0.00296225
0.155911
-0.00253736
0.204667
0.26525
0.00174554
0.0166534
-0.00115308
0.00193074
0.0350149
0.00152989
0.0524718
0.000806065
0.0691302
5.73563e-06
0.0863051
-0.000821282
0.104853
-0.00156471
0.126706
-0.00220686
0.156553
-0.00200225
0.204463
0.263248
0.00192491
0.0158706
-0.00114209
0.00240435
0.0345354
0.00224153
0.0526346
0.00167488
0.0696969
0.000944839
0.0870351
9.21036e-05
0.105706
-0.000641668
0.12744
-0.001402
0.157313
-0.00143953
0.2045
0.261809
0.00214849
0.0149167
-0.00119455
0.00292517
0.0337588
0.00300997
0.0525498
0.00260509
0.0701018
0.00195083
0.0876894
0.0011554
0.106501
0.000341484
0.128254
-0.000567092
0.158222
-0.00085133
0.204784
0.260957
0.00240635
-0.00131506
0.00347497
0.00382052
0.00358479
0.0030105
0.00222863
0.00133287
0.000316799
-0.000233588
0.000167294
-0.00131321
0.000485887
-0.00303603
0.000891673
-0.00418695
0.00134883
-0.00491485
0.00183814
-0.00532868
0.00235082
-0.00551091
0.00288493
-0.0055247
0.0034439
-0.00541825
0.00403844
-0.00522889
-0.00498941
0.000169869
-0.00148308
0.000481317
-0.00334748
0.000866218
-0.00457185
0.00128801
-0.00533664
0.00172849
-0.00576916
0.00218066
-0.00596307
0.0026443
-0.00598834
0.00312358
-0.00589753
0.00362574
-0.00573105
-0.00552312
0.000164425
-0.00164751
0.000452242
-0.0036353
0.000794278
-0.00491389
0.00115533
-0.00569769
0.0015198
-0.00613363
0.00188373
-0.006327
0.00224983
-0.00635444
0.00262433
-0.00627203
0.0030146
-0.00612132
-0.00593512
0.000150202
-0.00179771
0.000397484
-0.00388258
0.000675261
-0.00519167
0.000952029
-0.00597446
0.00121628
-0.00639789
0.00146797
-0.00657869
0.00171315
-0.00659962
0.00196057
-0.00651945
0.00221936
-0.00638011
-0.00621345
0.000126898
-0.00192461
0.000317338
-0.00407302
0.00051146
-0.00538579
0.00068387
-0.00614687
0.000828423
-0.00654244
0.00094944
-0.00669971
0.00105624
-0.00670642
0.00115974
-0.00662295
0.00127034
-0.0064907
-0.00634278
9.47206e-05
-0.00201933
0.000213589
-0.00419189
0.00030786
-0.00548006
0.0003605
-0.00619951
0.000371629
-0.00655357
0.000349986
-0.00667806
0.000307689
-0.00666413
0.00025731
-0.00657257
0.000209747
-0.00644314
-0.00630173
5.44222e-05
-0.00207375
8.93974e-05
-0.00422686
7.16953e-05
-0.00546236
-5.56986e-06
-0.00612225
-0.000135479
-0.00642366
-0.000305273
-0.00650827
-0.000500763
-0.00646864
-0.000708993
-0.00636434
-0.000919397
-0.00623273
-0.00609978
7.02135e-06
-0.00208077
-5.08334e-05
-0.00416901
-0.000188137
-0.00532506
-0.000399965
-0.00591042
-0.000672776
-0.00615085
-0.000990401
-0.00619064
-0.00133758
-0.00612146
-0.0017017
-0.00600022
-0.00207311
-0.00586133
-0.00572766
-4.55513e-05
-0.00203522
-0.000202045
-0.00401251
-0.000461836
-0.00506526
-0.000807819
-0.00556444
-0.00122016
-0.00573851