/*--------------------------------*- C++ -*----------------------------------*\
  =========                 |
  \\      /  F ield         | OpenFOAM: The Open Source CFD Toolbox
   \\    /   O peration     | Website:  https://openfoam.org
    \\  /    A nd           | Version:  7
     \\/     M anipulation  |
\*---------------------------------------------------------------------------*/
FoamFile
{
    version     2.0;
    format      ascii;
    class       volVectorField;
    location    "89";
    object      U;
}
// * * * * * * * * * * * * * * * * * * * * * * * * * * * * * * * * * * * * * //

dimensions      [0 1 -1 0 0 0 0];

internalField   nonuniform List<vector> 
2000
(
(-0.000113022 -0.00492909 -2.04515e-22)
(3.88594e-06 -0.011681 0)
(0.000481853 -0.0155729 0)
(0.00127009 -0.0170344 -1.04715e-21)
(0.00231898 -0.0163395 3.40389e-22)
(0.00360433 -0.0136695 1.35142e-23)
(0.00512414 -0.00915335 -5.85998e-22)
(0.00688199 -0.00290505 0)
(0.00887651 0.00494888 0)
(0.0109944 0.0142527 0)
(0.000359994 -0.00477634 0)
(0.00133613 -0.0117016 -7.98899e-22)
(0.00257197 -0.015819 7.36745e-22)
(0.00388553 -0.0175322 1.3989e-21)
(0.00523646 -0.0171226 0)
(0.00661155 -0.0147887 1.279e-21)
(0.00802435 -0.0106693 -1.18938e-21)
(0.00950087 -0.0048688 0)
(0.0110774 0.0025215 2.18763e-21)
(0.0126527 0.0113984 -4.2123e-21)
(0.000873792 -0.00470634 0)
(0.0028597 -0.0118202 6.37876e-21)
(0.00503198 -0.0161146 0)
(0.00704019 -0.0180156 5.70127e-21)
(0.00885313 -0.0178235 0)
(0.0104691 -0.0157642 -5.14301e-21)
(0.0119169 -0.0119942 0)
(0.0132435 -0.00661649 4.67065e-21)
(0.0145235 0.000307397 -4.37435e-21)
(0.0156646 0.00871842 -4.29127e-21)
(0.00146016 -0.00474144 -1.65842e-21)
(0.00461645 -0.0120612 -3.18562e-21)
(0.0078879 -0.0164716 -1.49147e-21)
(0.010739 -0.0184803 -2.80062e-21)
(0.0131526 -0.0184197 -2.67924e-21)
(0.0151437 -0.0165509 2.53067e-21)
(0.0167598 -0.013056 2.42908e-21)
(0.018069 -0.00804495 -2.57912e-23)
(0.0191825 -0.00155662 4.41456e-21)
(0.0200179 0.00638169 4.28927e-21)
(0.0021547 -0.00489459 -1.62929e-21)
(0.00664745 -0.012433 -3.24867e-21)
(0.0111544 -0.0168886 -6.16814e-21)
(0.0149612 -0.0189167 2.83787e-21)
(0.0180764 -0.0188939 0)
(0.020542 -0.0171228 0)
(0.0224315 -0.0138164 -4.98824e-21)
(0.023837 -0.00909784 -4.73367e-21)
(0.0249041 -0.00298989 4.4695e-21)
(0.0255637 0.00449896 1.29055e-20)
(0.00299375 -0.0051651 1.65659e-21)
(0.00898665 -0.0129225 1.68746e-21)
(0.0148272 -0.0173475 -9.14875e-21)
(0.0196537 -0.0193076 1.45306e-20)
(0.0235183 -0.0192348 -2.70893e-21)
(0.0265048 -0.0174767 0)
(0.0287239 -0.0142791 0)
(0.0302984 -0.00978149 2.35663e-20)
(0.0314065 -0.00399338 -2.2307e-20)
(0.0319948 0.00308662 4.23879e-21)
(0.00400968 -0.00553625 1.29111e-20)
(0.0116536 -0.0134935 0)
(0.0188767 -0.0178127 1.22271e-20)
(0.0247269 -0.0196285 -1.15983e-20)
(0.0293241 -0.0194367 0)
(0.0328114 -0.0176313 5.27198e-21)
(0.0353512 -0.0144904 -1.47833e-20)
(0.0371071 -0.0101692 -1.88233e-20)
(0.03829 -0.00466276 8.83342e-21)
(0.0388605 0.00204422 8.57781e-21)
(0.00522577 -0.00597561 -2.58204e-20)
(0.0146463 -0.0140893 -3.29032e-21)
(0.0232426 -0.0182334 -6.19845e-21)
(0.0300545 -0.0198485 -1.45731e-20)
(0.0352972 -0.0194988 -5.5769e-21)
(0.0391936 -0.017623 -5.26377e-21)
(0.0419727 -0.0145293 4.51058e-23)
(0.0438519 -0.0103886 0)
(0.0450807 -0.00517777 0)
(0.0456292 0.00115762 4.05046e-23)
(0.00665162 -0.0064374 1.29095e-20)
(0.0179348 -0.0146364 -1.31185e-20)
(0.0278314 -0.0185488 9.21703e-21)
(0.0354764 -0.0199346 2.05124e-20)
(0.0412112 -0.0194254 -5.47156e-21)
(0.045359 -0.0174987 5.26323e-21)
(0.0482283 -0.0144892 4.96157e-21)
(0.0501016 -0.0105868 0)
(0.0512838 -0.00575313 0)
(0.0517656 0.000135356 -2.0275e-22)
(0.00827985 -0.00686708 -1.62516e-21)
(0.0214572 -0.0150525 1.64602e-20)
(0.0325166 -0.0186959 -3.07946e-21)
(0.0408064 -0.0198583 0)
(0.0468278 -0.019229 0)
(0.0510233 -0.0173119 1.04124e-20)
(0.0537891 -0.0144597 0)
(0.055475 -0.0108844 -9.13937e-21)
(0.0564504 -0.0065618 1.40073e-23)
(0.0567713 -0.00132471 8.18335e-21)
(0.01527 0.0378132 1.60475e-22)
(0.0266636 0.0915818 -1.62276e-22)
(0.0351231 0.148344 -1.81831e-22)
(0.0369266 0.201038 -2.04746e-22)
(0.0331843 0.252814 -2.49398e-22)
(0.0294539 0.307539 -9.07734e-24)
(0.0186438 0.370224 1.30565e-22)
(0.0157815 0.456402 4.68197e-22)
(-0.0028026 0.587787 0)
(0.00460518 0.744968 -3.41668e-22)
(0.0151415 0.0341713 6.21595e-22)
(0.0241463 0.087001 -6.96263e-22)
(0.0326872 0.1456 1.24209e-21)
(0.034932 0.20018 2.05082e-22)
(0.0316224 0.253197 4.42326e-22)
(0.0282138 0.308733 7.59836e-22)
(0.0178883 0.37195 -2.82732e-22)
(0.0151191 0.458473 -3.14276e-22)
(-0.00267506 0.589233 6.07275e-22)
(0.00420431 0.744826 3.40861e-22)
(0.0164587 0.0305093 0)
(0.0223537 0.0816781 -6.78658e-22)
(0.0306198 0.141763 -3.59402e-22)
(0.0332017 0.19831 0)
(0.0302703 0.252692 -1.36237e-21)
(0.0271612 0.309128 4.26395e-22)
(0.0172644 0.372901 4.76455e-22)
(0.0145459 0.459721 1.69603e-21)
(-0.00251853 0.590201 -6.05308e-22)
(0.00384799 0.74451 1.23139e-21)
(0.0193031 0.0270326 0)
(0.0214299 0.0758428 6.84344e-22)
(0.0289417 0.136881 0)
(0.0317258 0.195415 1.59593e-21)
(0.0291136 0.251292 -1.60422e-21)
(0.02628 0.308723 -9.67203e-22)
(0.0167576 0.373065 -5.60047e-23)
(0.01407 0.460129 -1.66299e-21)
(-0.00233579 0.590497 -2.70993e-22)
(0.00351624 0.743846 -1.51385e-21)
(0.0236081 0.0239082 3.62302e-23)
(0.0215313 0.0697716 -1.95974e-21)
(0.027688 0.131049 5.41146e-23)
(0.0304967 0.191501 -1.44333e-21)
(0.0281371 0.248995 0)
(0.0255523 0.30754 -9.25706e-22)
(0.0163519 0.372511 -7.69588e-23)
(0.0136757 0.45989 2.08783e-21)
(-0.00214748 0.590446 2.74631e-22)
(0.00320999 0.74313 -2.75639e-22)
(0.0291066 0.0212276 -5.29578e-21)
(0.0227706 0.0637533 3.35526e-21)
(0.0269113 0.124417 1.41835e-21)
(0.0295106 0.1866 -1.41767e-21)
(0.0273277 0.245802 -7.63939e-22)
(0.0249671 0.305559 0)
(0.0160468 0.37116 -1.85223e-21)
(0.0133736 0.458744 9.30298e-22)
(-0.00194462 0.589486 1.00803e-21)
(0.00290931 0.741956 1.05279e-21)
(0.0353169 0.0189943 -6.36348e-22)
(0.0251339 0.0580557 0)
(0.0266706 0.117201 0)
(0.0287679 0.180769 0)
(0.0266682 0.241755 -8.12479e-22)
(0.0245029 0.302915 1.57401e-21)
(0.0158165 0.369324 1.80688e-21)
(0.013118 0.457353 -2.81816e-21)
(-0.00176606 0.588681 4.96027e-22)
(0.00263496 0.741016 -1.53395e-21)
(0.0415706 0.0171053 3.9831e-21)
(0.0283906 0.0527898 2.74145e-21)
(0.0269921 0.109629 -2.71641e-21)
(0.0282725 0.174114 2.86417e-21)
(0.0261564 0.236767 -3.5547e-21)
(0.0241625 0.299285 0)
(0.0156876 0.366353 -8.15039e-22)
(0.0129726 0.454482 4.00157e-23)
(-0.00155675 0.586244 -8.93923e-22)
(0.00234764 0.739287 -9.4913e-22)
(0.047037 0.0151747 -3.37776e-21)
(0.03204 0.0475715 0)
(0.0278283 0.101519 -3.05705e-21)
(0.0279961 0.166688 5.48834e-21)
(0.0257525 0.231388 -2.04007e-21)
(0.0238993 0.295797 -3.71864e-22)
(0.0155775 0.36401 8.1327e-22)
(0.0127843 0.452876 1.05266e-23)
(-0.00143999 0.585452 1.29349e-21)
(0.00209799 0.738395 1.37748e-21)
(0.0506972 0.0130672 -2.74537e-21)
(0.0353576 0.0423979 2.68531e-21)
(0.0290772 0.0925754 3.40864e-22)
(0.028042 0.157003 0)
(0.0254753 0.222878 0)
(0.02378 0.288881 3.66587e-22)
(0.0156708 0.357924 1.5444e-21)
(0.012871 0.446908 -1.50034e-21)
(-0.00118524 0.580599 -4.0384e-22)
(0.00180601 0.735892 3.90494e-22)
(0.0524764 0.0141823 0)
(0.0397486 0.0406757 0)
(0.0313712 0.0865237 0)
(0.0288498 0.151459 0)
(0.0255783 0.220367 0)
(0.0230766 0.28916 0)
(0.0150685 0.359935 0)
(0.0119125 0.450236 0)
(-0.00138776 0.583082 0)
(0.001271 0.735102 0)
(0.0539518 0.0285143 0)
(0.0432399 0.0583143 0)
(0.0328385 0.0988872 0)
(0.0282235 0.157659 0)
(0.0247348 0.224735 0)
(0.0219275 0.294018 0)
(0.0144197 0.366352 0)
(0.0108824 0.457961 0)
(-0.00123685 0.589118 0)
(0.000822905 0.735114 0)
(0.0510246 0.0323631 0)
(0.044189 0.0666996 0)
(0.0343944 0.107451 0)
(0.0281322 0.163816 0)
(0.0238732 0.229921 0)
(0.0206686 0.29921 0)
(0.0136541 0.372175 0)
(0.00990546 0.464038 0)
(-0.00112442 0.59351 0)
(0.000495079 0.734634 0)
(0.0461759 0.0345595 0)
(0.0424442 0.0729717 0)
(0.0346072 0.114505 0)
(0.028061 0.169307 0)
(0.0232622 0.234948 0)
(0.0196474 0.305005 0)
(0.0130135 0.379441 0)
(0.00914879 0.47222 0)
(-0.000809134 0.599768 0)
(0.000330117 0.73486 0)
(0.0408234 0.0350338 0)
(0.0392465 0.0775897 0)
(0.0334418 0.120773 0)
(0.0274724 0.174466 0)
(0.0226141 0.239111 0)
(0.0187813 0.309144 0)
(0.0124435 0.384129 0)
(0.00844796 0.47707 0)
(-0.00072898 0.603166 0)
(0.000123353 0.734278 0)
(0.0351857 0.0339941 0)
(0.0353295 0.0803942 0)
(0.0312695 0.12589 0)
(0.0261943 0.17957 0)
(0.0217048 0.243959 0)
(0.0179602 0.314665 0)
(0.012029 0.391094 0)
(0.00798697 0.484983 0)
(-0.00038648 0.609104 0)
(5.45568e-05 0.73442 0)
(0.0294943 0.0316238 0)
(0.0312409 0.0816641 0)
(0.0288763 0.129855 0)
(0.0247481 0.183788 0)
(0.0206604 0.247473 0)
(0.0170784 0.317835 0)
(0.0115258 0.39442 0)
(0.00749137 0.488248 0)
(-0.000354713 0.611276 0)
(-8.25599e-05 0.73378 0)
(0.0237451 0.0277596 0)
(0.0269019 0.0809231 0)
(0.0259718 0.13211 0)
(0.0229918 0.187727 0)
(0.0195852 0.25226 0)
(0.016304 0.323692 0)
(0.0111978 0.401784 0)
(0.00719679 0.496506 0)
(4.24651e-05 0.617325 0)
(-7.15527e-05 0.733972 0)
(0.0188918 0.0242784 0)
(0.0238951 0.0804831 0)
(0.02421 0.134089 0)
(0.021833 0.190137 0)
(0.0187412 0.25429 0)
(0.015632 0.32544 0)
(0.0107919 0.403589 0)
(0.00686586 0.498147 0)
(3.47718e-05 0.618382 0)
(-0.000148168 0.73353 0)
(0.0127017 0.0130297 0)
(0.0186311 0.073216 0)
(0.0214469 0.1327 0)
(0.0207437 0.192962 0)
(0.0183531 0.259259 0)
(0.0154152 0.332075 0)
(0.0108395 0.411941 0)
(0.00679682 0.507438 0)
(0.000569315 0.625029 0)
(-5.68925e-05 0.733869 0)
(0.0590409 0.00392578 2.39588e-21)
(0.0573806 0.00999863 -2.35468e-21)
(0.0520329 0.0105994 2.04575e-22)
(0.0459787 0.00986135 0)
(0.0397028 0.00784604 0)
(0.0332161 0.00484939 6.28133e-23)
(0.0267538 0.000978077 -8.23142e-23)
(0.0203673 -0.00399671 8.08869e-23)
(0.0145189 -0.00850555 -1.06043e-23)
(0.00772754 -0.0184377 1.04171e-23)
(0.0600306 -0.00028651 -3.16553e-21)
(0.0566559 0.00225467 0)
(0.0506224 0.00125032 1.15509e-21)
(0.044374 -0.000704196 -2.30103e-21)
(0.0380391 -0.00364876 1.1468e-21)
(0.0315347 -0.00731901 -6.13927e-23)
(0.0250552 -0.0116811 5.94874e-23)
(0.0186963 -0.0169699 2.32534e-23)
(0.0126441 -0.0218019 -1.81914e-23)
(0.00628698 -0.0308807 -2.04384e-23)
(0.0602231 -0.00457 3.56935e-21)
(0.0554869 -0.00513941 -1.66092e-21)
(0.0490788 -0.00774829 1.64497e-21)
(0.0427116 -0.0109654 -9.17712e-22)
(0.0363304 -0.0148677 7.19014e-22)
(0.0298058 -0.019215 0)
(0.0233164 -0.0240304 -5.96234e-23)
(0.0169994 -0.0295103 1.29154e-24)
(0.0108763 -0.0344699 2.68025e-24)
(0.00504078 -0.0424151 2.98434e-23)
(0.0597126 -0.00949339 -5.43407e-22)
(0.0538848 -0.0127098 0)
(0.0473379 -0.0167143 0)
(0.0409384 -0.0210594 0)
(0.0345606 -0.0258076 4.74797e-22)
(0.0280501 -0.0307302 -2.93229e-22)
(0.0215827 -0.0358899 2.10179e-23)
(0.0153285 -0.0414122 -6.38992e-26)
(0.00926787 -0.0462892 5.16286e-24)
(0.00394511 -0.0529991 1.29634e-23)
(0.058442 -0.0151579 -3.71651e-22)
(0.0517836 -0.0205535 -1.45536e-21)
(0.0452862 -0.0257165 -5.93503e-22)
(0.0389349 -0.0309843 5.93081e-22)
(0.0326297 -0.0364072 -1.793e-22)
(0.0262019 -0.0417527 0)
(0.0198254 -0.0471093 -6.04433e-23)
(0.0136992 -0.0525194 3.4306e-23)
(0.00783196 -0.0571281 -1.31857e-23)
(0.0030363 -0.0626204 -1.83239e-23)
(0.0564981 -0.021479 -4.02396e-21)
(0.0492881 -0.0285776 6.6594e-22)
(0.0429884 -0.0346836 1.67842e-22)
(0.0367466 -0.0406508 5.84571e-22)
(0.0305787 -0.0465644 0)
(0.0242946 -0.0521641 0)
(0.0180755 -0.0575636 0)
(0.0121484 -0.0627231 3.01241e-23)
(0.00657825 -0.0669273 0)
(0.00231127 -0.071295 0)
(0.0539501 -0.0283105 0)
(0.0465044 -0.0366161 1.15398e-21)
(0.0405146 -0.0434868 -7.44111e-22)
(0.0344421 -0.0499349 -4.31029e-22)
(0.0284662 -0.0561638 4.33244e-22)
(0.0223804 -0.0618569 9.4743e-23)
(0.0163776 -0.06716 -1.17024e-22)
(0.010712 -0.0719629 -1.2901e-22)
(0.00550806 -0.0756838 1.04393e-23)
(0.00174596 -0.0790649 4.46611e-24)
(0.0508899 -0.0354298 0)
(0.0435238 -0.044502 -4.10154e-22)
(0.0379253 -0.0519842 -1.6655e-22)
(0.0320777 -0.0587123 0)
(0.0263422 -0.0651027 6.04661e-23)
(0.0205048 -0.0707506 -2.19768e-22)
(0.0147678 -0.0758462 1.02127e-22)
(0.00941325 -0.0802264 7.02883e-24)
(0.0046123 -0.0834386 -9.20715e-24)
(0.00131328 -0.0859908 -3.77063e-24)
(0.0474421 -0.0426465 5.44051e-22)
(0.0404222 -0.0520883 3.72699e-22)
(0.0352748 -0.0600503 -1.25426e-22)
(0.0297051 -0.0668824 6.55195e-23)
(0.0242507 -0.0733074 9.38669e-23)
(0.0187055 -0.078802 9.79951e-23)
(0.0132721 -0.083613 -2.17037e-23)
(0.00826233 -0.087544 -1.21794e-23)
(0.00387398 -0.0902642 9.23727e-24)
(0.000987249 -0.0921455 8.79097e-25)
(0.0437265 -0.0498042 -1.14819e-22)
(0.0372668 -0.0592654 1.15864e-22)
(0.0326122 -0.0675924 -8.43007e-23)
(0.0273714 -0.0743816 -6.54202e-23)
(0.0222291 -0.0807417 4.2e-23)
(0.0170113 -0.086008 -7.62262e-23)
(0.0119059 -0.0904903 3.05898e-23)
(0.00725854 -0.0939795 3.23256e-24)
(0.0032717 -0.0962527 0)
(0.000744015 -0.0976087 -8.80987e-25)
(0.0398764 -0.0567854 1.17508e-22)
(0.0341303 -0.065969 -1.18536e-22)
(0.0299906 -0.0745578 -8.86343e-23)
(0.0251245 -0.0811888 -6.95834e-23)
(0.0203107 -0.0874085 -4.40741e-23)
(0.0154445 -0.0924032 6.51101e-24)
(0.0106769 -0.0965408 1.57671e-23)
(0.00639391 -0.0996202 2.54065e-23)
(0.00278317 -0.101506 0)
(0.000563061 -0.102463 -2.27116e-24)
(0.036028 -0.0635221 0)
(0.0310919 -0.072179 -3.98437e-22)
(0.0274634 -0.0809316 6.73377e-22)
(0.0230094 -0.0873221 6.9686e-23)
(0.0185237 -0.0933446 1.10356e-22)
(0.0140202 -0.0980525 1.18377e-22)
(0.00958622 -0.10185 -2.55323e-23)
(0.0056562 -0.104567 -1.55263e-23)
(0.00238768 -0.106129 1.84348e-23)
(0.000428093 -0.106791 2.26581e-24)
(0.0322888 -0.0699924 0)
(0.0282144 -0.0779165 -4.59369e-22)
(0.0250665 -0.0867312 -1.83627e-22)
(0.0210554 -0.0928338 0)
(0.0168836 -0.0986133 -3.05612e-22)
(0.0127428 -0.103042 1.16007e-22)
(0.008628 -0.106515 7.17627e-23)
(0.00503032 -0.108924 1.22022e-22)
(0.0020669 -0.110222 -1.83747e-23)
(0.000326601 -0.110673 1.32996e-23)
(0.0287338 -0.0762082 0)
(0.0255405 -0.0832419 4.63178e-22)
(0.0228192 -0.0919997 0)
(0.0192748 -0.0978027 5.42381e-22)
(0.0153946 -0.103298 -5.45194e-22)
(0.0116071 -0.10747 -1.48166e-22)
(0.00779141 -0.110643 3.09478e-23)
(0.00449996 -0.112797 -1.26429e-22)
(0.00180525 -0.113884 -2.33131e-23)
(0.000249029 -0.114189 -2.03698e-23)
(0.0254152 -0.082201 4.72879e-21)
(0.0231036 -0.0882492 -1.77449e-21)
(0.0207343 -0.0967989 -1.69195e-22)
(0.0176711 -0.102325 -7.24192e-22)
(0.014056 -0.107493 0)
(0.0106035 -0.111443 -1.57209e-22)
(0.0070642 -0.114336 5.04955e-23)
(0.00404987 -0.116288 1.88776e-22)
(0.0015903 -0.117204 7.8337e-24)
(0.000188408 -0.117414 -7.82973e-24)
(0.0223602 -0.0880031 3.97679e-22)
(0.0209308 -0.0930612 2.76325e-21)
(0.0188259 -0.101203 7.55631e-22)
(0.0162427 -0.106507 -7.55164e-22)
(0.0128669 -0.111299 -2.65805e-22)
(0.00972173 -0.115063 0)
(0.00643528 -0.117698 -2.56268e-22)
(0.00366728 -0.11949 1.3729e-22)
(0.00141284 -0.12027 7.05728e-23)
(0.00013991 -0.120423 1.77664e-23)
(0.0195829 -0.0936241 -6.60571e-22)
(0.0190557 -0.0978228 0)
(0.0171218 -0.105293 0)
(0.0149918 -0.110454 0)
(0.0118315 -0.114819 -2.11521e-22)
(0.00895508 -0.118431 4.76787e-22)
(0.00589708 -0.120822 2.62976e-22)
(0.00334302 -0.122491 -3.13251e-22)
(0.00126671 -0.12316 1.81263e-23)
(0.000100301 -0.123286 -3.55425e-23)
(0.0170761 -0.099029 -1.51559e-21)
(0.0174885 -0.10269 2.04977e-21)
(0.0156434 -0.109156 -2.03041e-21)
(0.0139069 -0.114264 1.31576e-21)
(0.010947 -0.11815 -1.5966e-21)
(0.00829274 -0.121639 0)
(0.00544055 -0.123797 -1.57891e-22)
(0.00306846 -0.125371 -6.22924e-24)
(0.001147 -0.125949 -5.9355e-23)
(6.70608e-05 -0.126072 -1.98557e-23)
(0.0146329 -0.104092 -7.1503e-22)
(0.016019 -0.107811 0)
(0.0142885 -0.112885 -2.00514e-21)
(0.0128823 -0.118027 3.12232e-21)
(0.0101475 -0.121387 -1.07462e-21)
(0.00768374 -0.124771 -1.16065e-22)
(0.0050333 -0.126703 1.57531e-22)
(0.00282343 -0.128205 1.984e-23)
(0.00104485 -0.128706 1.21758e-22)
(3.91672e-05 -0.128848 3.95168e-23)
(0.0122573 -0.10848 -2.88577e-21)
(0.0145611 -0.113321 2.82266e-21)
(0.0130704 -0.116607 2.58195e-22)
(0.0119109 -0.121836 0)
(0.00942368 -0.12463 0)
(0.00712566 -0.127917 1.19474e-22)
(0.0046718 -0.129622 2.91547e-22)
(0.00260794 -0.131065 -2.86134e-22)
(0.000961885 -0.1315 -2.17183e-23)
(2.73784e-05 -0.131681 2.12629e-23)
(0.0116806 -0.115542 0)
(0.0146915 -0.126531 0)
(0.0127772 -0.12536 0)
(0.0114081 -0.131004 0)
(0.0089558 -0.13254 0)
(0.00666352 -0.135686 0)
(0.00435925 -0.136876 0)
(0.00242757 -0.138197 0)
(0.000927556 -0.138453 0)
(5.95819e-05 -0.138686 0)
(0.0116437 -0.137487 0)
(0.0107193 -0.149886 0)
(0.00902303 -0.145434 0)
(0.00770702 -0.151163 0)
(0.00592769 -0.15072 0)
(0.00440294 -0.153558 0)
(0.00284246 -0.153716 0)
(0.00161193 -0.154835 0)
(0.000621954 -0.154691 0)
(6.3134e-05 -0.15497 0)
(0.0122177 -0.164988 0)
(0.010044 -0.178475 0)
(0.00818928 -0.171515 0)
(0.00654993 -0.177639 0)
(0.00495455 -0.175503 0)
(0.00357619 -0.178418 0)
(0.00231479 -0.17767 0)
(0.00133554 -0.178837 0)
(0.000553999 -0.178296 0)
(7.54002e-05 -0.178691 0)
(0.0124539 -0.19929 0)
(0.00941779 -0.213803 0)
(0.00758553 -0.205163 0)
(0.00568005 -0.211999 0)
(0.00430813 -0.208498 0)
(0.00299266 -0.211829 0)
(0.00199049 -0.210273 0)
(0.00114949 -0.211706 0)
(0.000522984 -0.210744 0)
(7.60187e-05 -0.211352 0)
(0.0123389 -0.240692 0)
(0.00888367 -0.255386 0)
(0.00713016 -0.246296 0)
(0.00502917 -0.25371 0)
(0.00386471 -0.249421 0)
(0.00254675 -0.253268 0)
(0.0017652 -0.251118 0)
(0.000976312 -0.252927 0)
(0.000488314 -0.251589 0)
(5.51944e-05 -0.25249 0)
(0.0115766 -0.286837 0)
(0.00812028 -0.300185 0)
(0.00652295 -0.292257 0)
(0.00438997 -0.299524 0)
(0.00342232 -0.29535 0)
(0.00211816 -0.299388 0)
(0.00152016 -0.297068 0)
(0.000750056 -0.299119 0)
(0.000401194 -0.297591 0)
(7.53852e-06 -0.298736 0)
(0.00998671 -0.332559 0)
(0.00691826 -0.343179 0)
(0.00555482 -0.337788 0)
(0.00362045 -0.343949 0)
(0.00284009 -0.340818 0)
(0.001644 -0.344424 0)
(0.00118847 -0.342472 0)
(0.000470569 -0.344389 0)
(0.000255411 -0.342984 0)
(-4.79663e-05 -0.344149 0)
(0.00764614 -0.371635 0)
(0.00525682 -0.379039 0)
(0.00420963 -0.376685 0)
(0.00268643 -0.381143 0)
(0.00210185 -0.37955 0)
(0.00113846 -0.382201 0)
(0.000802159 -0.380991 0)
(0.000213295 -0.382396 0)
(0.000107424 -0.381385 0)
(-7.92161e-05 -0.382284 0)
(0.0047764 -0.399313 0)
(0.00326178 -0.404066 0)
(0.00260773 -0.404242 0)
(0.0016412 -0.407094 0)
(0.00127841 -0.4069 0)
(0.000653325 -0.408528 0)
(0.000440471 -0.408072 0)
(5.25883e-05 -0.408858 0)
(1.53249e-05 -0.408303 0)
(-7.07119e-05 -0.408807 0)
(0.00162365 -0.413407 0)
(0.00109886 -0.416733 0)
(0.000882101 -0.41829 0)
(0.000549144 -0.42021 0)
(0.000428647 -0.420812 0)
(0.000210592 -0.421808 0)
(0.000137718 -0.421808 0)
(8.39741e-07 -0.422196 0)
(-5.84443e-06 -0.421941 0)
(-2.81972e-05 -0.422175 0)
(0.0117971 -0.12411 3.33152e-21)
(0.0130195 -0.147599 -3.26769e-21)
(0.0141172 -0.176622 4.18566e-22)
(0.0145146 -0.211636 0)
(0.0143439 -0.252412 0)
(0.013354 -0.29633 4.84652e-22)
(0.0114662 -0.338638 -2.08308e-21)
(0.00878478 -0.374095 2.05342e-21)
(0.00551029 -0.398917 5.57475e-22)
(0.00187441 -0.411488 -5.48675e-22)
(0.0121033 -0.1287 -3.95379e-21)
(0.0138072 -0.152172 0)
(0.0150265 -0.181268 2.86164e-21)
(0.0154493 -0.216176 -6.60593e-21)
(0.0152265 -0.256465 4.24127e-21)
(0.0141294 -0.299425 -4.50753e-22)
(0.0121153 -0.340454 1.00485e-21)
(0.00928918 -0.374636 2.12196e-21)
(0.00583799 -0.398488 5.97082e-22)
(0.00198334 -0.41055 5.79752e-22)
(0.0126534 -0.133445 4.60782e-21)
(0.0148735 -0.15696 -3.15262e-21)
(0.0161431 -0.185946 3.1227e-21)
(0.0165535 -0.220569 -3.49538e-21)
(0.0162425 -0.260231 2.58498e-21)
(0.0150054 -0.302152 0)
(0.0128302 -0.341902 -1.00728e-21)
(0.00982469 -0.374874 5.11007e-23)
(0.00617204 -0.397845 -1.11384e-21)
(0.00208801 -0.409456 -1.13737e-21)
(0.0134904 -0.137722 -7.43281e-22)
(0.0161657 -0.16135 0)
(0.0174444 -0.190268 0)
(0.0178202 -0.224628 0)
(0.0173979 -0.263688 2.87935e-21)
(0.0160008 -0.304614 -1.92643e-21)
(0.0136367 -0.343144 -1.40248e-23)
(0.0104178 -0.374956 -1.18933e-21)
(0.00653342 -0.397073 -6.10651e-22)
(0.00219809 -0.408236 -6.53963e-22)
(0.0146804 -0.141631 6.23836e-23)
(0.0176737 -0.165208 -2.23515e-21)
(0.0189157 -0.194011 -1.70096e-21)
(0.0192345 -0.228116 1.69988e-21)
(0.0186826 -0.266623 -9.39911e-22)
(0.0171134 -0.306651 0)
(0.0145434 -0.344084 -1.10688e-21)
(0.0110857 -0.374845 2.42571e-21)
(0.00694057 -0.396173 -1.24151e-21)
(0.00232334 -0.406913 1.27948e-21)
(0.0162566 -0.145225 -5.92875e-21)
(0.0194181 -0.168578 6.44673e-22)
(0.0205738 -0.197153 -1.24848e-22)
(0.0208035 -0.23096 1.74492e-21)
(0.0200991 -0.268928 0)
(0.0183425 -0.308146 0)
(0.0155501 -0.344619 0)
(0.0118317 -0.374469 1.29978e-21)
(0.00739917 -0.395115 0)
(0.00246802 -0.405487 0)
(0.0182302 -0.148415 0)
(0.021413 -0.171431 2.4372e-21)
(0.0224413 -0.19969 -1.64752e-21)
(0.0225448 -0.233157 -1.96166e-21)
(0.0216617 -0.270596 1.97185e-21)
(0.0196966 -0.309076 1.18182e-21)
(0.0166596 -0.344714 -1.17173e-21)
(0.0126558 -0.373794 -4.64287e-21)
(0.00790848 -0.393872 3.30525e-22)
(0.00263287 -0.403946 -1.13245e-21)
(0.0206106 -0.15109 0)
(0.0236643 -0.173696 -7.91526e-22)
(0.0245329 -0.201581 -4.4653e-22)
(0.0244722 -0.234697 0)
(0.0233851 -0.271632 5.75738e-22)
(0.0211875 -0.309456 -1.73532e-21)
(0.0178794 -0.344379 1.93845e-21)
(0.0135609 -0.372818 6.92557e-22)
(0.00846825 -0.392439 -7.57909e-22)
(0.0028182 -0.402279 1.50237e-21)
(0.0234094 -0.153169 7.09857e-22)
(0.0261774 -0.175316 8.57281e-22)
(0.0268584 -0.202782 -1.89566e-22)
(0.0265943 -0.235556 2.55903e-22)
(0.0252801 -0.272032 5.46203e-22)
(0.0228255 -0.309296 9.19877e-22)
(0.0192179 -0.343628 -3.46719e-22)
(0.0145522 -0.371552 -3.75104e-22)
(0.0090805 -0.390814 7.60405e-22)
(0.003025 -0.40048 4.12228e-22)
(0.0266363 -0.154584 -1.97469e-22)
(0.0289575 -0.176264 1.99356e-22)
(0.0294262 -0.203264 -2.2957e-22)
(0.0289174 -0.235715 -2.55565e-22)
(0.0273547 -0.271787 3.05072e-22)
(0.0246183 -0.308596 -6.23417e-22)
(0.0206826 -0.342465 5.30667e-22)
(0.0156361 -0.369999 1.90049e-22)
(0.0097489 -0.388999 0)
(0.0032548 -0.398546 -4.13152e-22)
(0.0302987 -0.155289 2.02012e-22)
(0.0320072 -0.176531 -2.04003e-22)
(0.0322439 -0.203016 -2.4595e-22)
(0.0314466 -0.235176 -2.75956e-22)
(0.0296159 -0.270898 -3.18342e-22)
(0.026572 -0.307359 -2.29374e-23)
(0.0222795 -0.340895 1.8686e-22)
(0.0168175 -0.368161 6.04383e-22)
(0.0104764 -0.386992 0)
(0.00350875 -0.396473 -4.51041e-22)
(0.0344016 -0.15527 0)
(0.0353267 -0.176114 -9.39581e-22)
(0.0353161 -0.202046 1.7039e-21)
(0.0341854 -0.233944 2.76415e-22)
(0.03207 -0.269369 6.44635e-22)
(0.0286928 -0.305587 1.06263e-21)
(0.0240159 -0.338914 -3.78895e-22)
(0.0181031 -0.366034 -4.10106e-22)
(0.0112674 -0.384789 9.07898e-22)
(0.00378802 -0.394256 4.49993e-22)
(0.0389475 -0.154561 0)
(0.0389162 -0.175009 -9.24042e-22)
(0.0386425 -0.200394 -5.12363e-22)
(0.0371366 -0.232042 0)
(0.0347216 -0.267229 -2.03347e-21)
(0.0309847 -0.303302 6.78602e-22)
(0.0258949 -0.336541 8.13137e-22)
(0.0194944 -0.363628 2.63072e-21)
(0.0121224 -0.382383 -9.04949e-22)
(0.00409235 -0.391884 1.95443e-21)
(0.0439324 -0.153277 0)
(0.0427767 -0.173222 9.31891e-22)
(0.0422136 -0.198102 0)
(0.0403035 -0.229479 2.58808e-21)
(0.0375738 -0.264489 -2.60137e-21)
(0.0334542 -0.300503 -1.60325e-21)
(0.0279248 -0.333765 -3.79033e-23)
(0.0210032 -0.360929 -2.70804e-21)
(0.0130495 -0.379764 -4.51408e-22)
(0.00442242 -0.389346 -2.43104e-21)
(0.0493034 -0.151454 6.69484e-21)
(0.0469341 -0.170752 -2.5701e-21)
(0.046021 -0.195195 2.88164e-22)
(0.0436888 -0.226278 -2.40218e-21)
(0.0406251 -0.261172 0)
(0.0361043 -0.297213 -1.67214e-21)
(0.0301068 -0.330611 -1.43753e-22)
(0.0226288 -0.357959 3.6777e-21)
(0.014048 -0.376954 5.04871e-22)
(0.00477714 -0.386653 -5.06833e-22)
(0.0550314 -0.149069 -7.07072e-22)
(0.0513837 -0.167678 4.81504e-21)
(0.0500433 -0.191747 2.49822e-21)
(0.047291 -0.222512 -2.49655e-21)
(0.0438747 -0.257315 -1.51753e-21)
(0.0389387 -0.293444 0)
(0.0324485 -0.327067 -3.75403e-21)
(0.0243807 -0.354699 1.88287e-21)
(0.0151267 -0.373938 2.0139e-21)
(0.00515929 -0.383791 2.16406e-21)
(0.0610487 -0.146213 -9.20518e-22)
(0.0561152 -0.164074 0)
(0.0542622 -0.187814 0)
(0.0511032 -0.218253 0)
(0.0473188 -0.253004 -1.75984e-21)
(0.0419514 -0.289298 3.27168e-21)
(0.0349377 -0.323239 3.82464e-21)
(0.0262413 -0.351228 -6.02891e-21)
(0.0162706 -0.370757 1.08046e-21)
(0.00556104 -0.380779 -3.21418e-21)
(0.0672466 -0.143027 -1.363e-21)
(0.0611202 -0.159984 4.75983e-21)
(0.0586562 -0.183416 -4.71447e-21)
(0.0551159 -0.213465 6.12278e-21)
(0.0509629 -0.248123 -7.70496e-21)
(0.0451683 -0.284582 0)
(0.0376215 -0.318908 -1.99955e-21)
(0.0282677 -0.347375 -8.31807e-23)
(0.0175263 -0.367311 -2.2464e-21)
(0.00599978 -0.377552 -2.2901e-21)
(0.0734796 -0.139755 -9.76704e-22)
(0.0663925 -0.15562 0)
(0.0631847 -0.178859 -6.3234e-21)
(0.0592705 -0.208624 1.19564e-20)
(0.054728 -0.243329 -4.63768e-21)
(0.048476 -0.280058 -9.43636e-22)
(0.040353 -0.31478 1.99519e-21)
(0.0303072 -0.343629 -1.02442e-22)
(0.0187799 -0.36385 3.27796e-21)
(0.00642707 -0.374243 3.3891e-21)
(0.0799197 -0.135164 -4.42029e-21)
(0.0725701 -0.149684 4.33428e-21)
(0.0683169 -0.172528 6.74574e-22)
(0.0639503 -0.201803 0)
(0.0589971 -0.236426 0)
(0.0523081 -0.273542 9.32204e-22)
(0.0436074 -0.309059 4.29095e-21)
(0.0328036 -0.338837 -4.20053e-21)
(0.0203453 -0.359801 -1.15235e-21)
(0.00696563 -0.370516 1.13318e-21)
(0.0901064 -0.135018 0)
(0.0864869 -0.147112 0)
(0.0794406 -0.170475 0)
(0.0738077 -0.199268 0)
(0.0675712 -0.233084 0)
(0.0595123 -0.268979 0)
(0.0493444 -0.303094 0)
(0.0369825 -0.331614 0)
(0.0228836 -0.351815 0)
(0.00773729 -0.362373 0)
(0.107733 -0.123529 0)
(0.109701 -0.140014 0)
(0.0990475 -0.165786 0)
(0.0923835 -0.194068 0)
(0.0838119 -0.226638 0)
(0.073252 -0.260365 0)
(0.0603533 -0.291926 0)
(0.0450422 -0.3179 0)
(0.027842 -0.335768 0)
(0.00958527 -0.344388 0)
(0.129959 -0.112499 0)
(0.134371 -0.13127 0)
(0.120308 -0.15728 0)
(0.113011 -0.184197 0)
(0.101479 -0.214978 0)
(0.0879875 -0.245983 0)
(0.0718368 -0.274896 0)
(0.0531912 -0.298966 0)
(0.0326403 -0.316272 0)
(0.0108299 -0.325839 0)
(0.157497 -0.104656 0)
(0.162635 -0.1239 0)
(0.144857 -0.148838 0)
(0.136932 -0.174317 0)
(0.121671 -0.203315 0)
(0.105025 -0.231517 0)
(0.0851434 -0.257729 0)
(0.0627103 -0.27912 0)
(0.0384383 -0.293583 0)
(0.0133553 -0.299778 0)
(0.189772 -0.0951947 0)
(0.193312 -0.112889 0)
(0.17163 -0.135383 0)
(0.16227 -0.158289 0)
(0.141912 -0.183936 0)
(0.121478 -0.208203 0)
(0.0970174 -0.231364 0)
(0.0705258 -0.2509 0)
(0.0425687 -0.26591 0)
(0.0134669 -0.276008 0)
(0.226411 -0.0875702 0)
(0.227406 -0.103093 0)
(0.202056 -0.12376 0)
(0.190618 -0.144006 0)
(0.164473 -0.16654 0)
(0.140718 -0.187733 0)
(0.111475 -0.208719 0)
(0.0807452 -0.225936 0)
(0.0488516 -0.237754 0)
(0.0179672 -0.240243 0)
(0.264626 -0.0726924 0)
(0.259327 -0.0847272 0)
(0.23111 -0.101606 0)
(0.21531 -0.116933 0)
(0.182776 -0.134574 0)
(0.154995 -0.151091 0)
(0.118889 -0.167978 0)
(0.083328 -0.182805 0)
(0.0475273 -0.197849 0)
(0.0112026 -0.216147 0)
(0.301405 -0.0634338 0)
(0.291892 -0.0714967 0)
(0.262841 -0.0855531 0)
(0.242672 -0.0971007 0)
(0.207362 -0.112639 0)
(0.176629 -0.127037 0)
(0.136417 -0.143595 0)
(0.0974813 -0.159142 0)
(0.0571821 -0.174427 0)
(0.0293018 -0.169759 0)
(0.339389 -0.0354845 0)
(0.326727 -0.0390125 0)
(0.284312 -0.0474546 0)
(0.257956 -0.0529614 0)
(0.210328 -0.062134 0)
(0.170944 -0.0691872 0)
(0.116838 -0.0781902 0)
(0.0651275 -0.0869921 0)
(0.0162796 -0.105683 0)
(-0.0412106 -0.157316 0)
(0.610386 -0.0186725 0)
(0.590762 -0.021625 0)
(0.551539 -0.0259374 0)
(0.520734 -0.0301114 0)
(0.472277 -0.0362191 0)
(0.427888 -0.0431048 0)
(0.365573 -0.0534631 0)
(0.297975 -0.0690881 0)
(0.208993 -0.0986106 0)
(0.150548 -0.157197 0)
(0.107471 -0.121635 4.52756e-21)
(0.127198 -0.109805 -4.45837e-21)
(0.149616 -0.0990621 7.41277e-22)
(0.176687 -0.0914051 0)
(0.208927 -0.0825905 0)
(0.244134 -0.0757576 1.14727e-21)
(0.281864 -0.0626109 -5.48459e-21)
(0.316792 -0.055354 5.40666e-21)
(0.365672 -0.0307048 1.54283e-21)
(0.631147 -0.0163734 -1.56703e-21)
(0.113494 -0.115801 -4.19357e-21)
(0.133058 -0.103858 0)
(0.155133 -0.0934993 5.33511e-21)
(0.181904 -0.0860557 -1.2934e-20)
(0.214155 -0.0775664 8.74705e-21)
(0.249306 -0.0711147 -1.07627e-21)
(0.287066 -0.0586131 2.33622e-21)
(0.322194 -0.0521647 5.29603e-21)
(0.375399 -0.0288433 1.42748e-21)
(0.639319 -0.0153958 1.45439e-21)
(0.118758 -0.109372 4.83491e-21)
(0.13808 -0.0976371 -4.95594e-21)
(0.159712 -0.0878265 4.90901e-21)
(0.186188 -0.0806723 -6.88296e-21)
(0.218241 -0.0726053 4.98516e-21)
(0.25348 -0.0666125 0)
(0.291182 -0.0548123 -2.34182e-21)
(0.327053 -0.0491725 -5.61365e-23)
(0.38401 -0.0271527 -2.70711e-21)
(0.64709 -0.0144559 -2.88765e-21)
(0.123846 -0.1025 -8.30197e-22)
(0.143291 -0.0912487 0)
(0.164561 -0.0820894 0)
(0.190862 -0.0752656 0)
(0.222613 -0.0676866 5.66549e-21)
(0.257858 -0.062221 -3.86311e-21)
(0.29534 -0.0511804 -1.61643e-22)
(0.331963 -0.0463082 -2.69399e-21)
(0.392037 -0.0256206 -1.36686e-21)
(0.654634 -0.0135968 -1.40892e-21)
(0.128419 -0.0952955 8.62897e-22)
(0.148183 -0.0847823 -2.64319e-21)
(0.169195 -0.0763419 -2.80082e-21)
(0.19539 -0.0698916 2.79907e-21)
(0.226939 -0.0628354 -1.77673e-21)
(0.262222 -0.057931 0)
(0.299414 -0.0476939 -2.27119e-21)
(0.336872 -0.0435274 5.09928e-21)
(0.399597 -0.0242128 -2.55915e-21)
(0.661862 -0.0128241 2.80258e-21)
(0.132315 -0.0877835 -6.23104e-21)
(0.152459 -0.0782602 2.79371e-22)
(0.173268 -0.0705935 -4.60463e-22)
(0.199334 -0.0645783 2.73359e-21)
(0.230759 -0.0580899 0)
(0.266143 -0.0537472 0)
(0.303098 -0.0443619 0)
(0.341451 -0.0408403 2.42827e-21)
(0.406592 -0.0229038 0)
(0.668675 -0.0121411 0)
(0.135456 -0.079987 0)
(0.156067 -0.0716779 3.17684e-21)
(0.176739 -0.0648311 -2.20877e-21)
(0.202638 -0.0593196 -3.13585e-21)
(0.233946 -0.053446 3.15214e-21)
(0.269421 -0.0496747 2.05146e-21)
(0.306303 -0.0411727 -1.92997e-21)
(0.345457 -0.0382596 -8.35042e-21)
(0.412923 -0.021686 5.90023e-22)
(0.674978 -0.0115335 -1.9864e-21)
(0.137744 -0.0719413 0)
(0.158974 -0.0650308 -9.7129e-22)