/*--------------------------------*- C++ -*----------------------------------*\
  =========                 |
  \\      /  F ield         | OpenFOAM: The Open Source CFD Toolbox
   \\    /   O peration     | Website:  https://openfoam.org
    \\  /    A nd           | Version:  7
     \\/     M anipulation  |
\*---------------------------------------------------------------------------*/
FoamFile
{
    version     2.0;
    format      ascii;
    class       surfaceScalarField;
    location    "6.2";
    object      phi;
}
// * * * * * * * * * * * * * * * * * * * * * * * * * * * * * * * * * * * * * //

dimensions      [0 3 -1 0 0 0 0];

internalField   nonuniform List<scalar> 
35640
(
4.92585e-06
-0.000154983
0.000150057
1.51491e-05
-0.000153467
0.000143244
2.91128e-05
0.000100124
-0.000114088
4.69162e-05
0.000520087
-0.000537891
6.9389e-05
0.00105095
-0.00107342
9.76297e-05
0.00165575
-0.00168399
0.000132751
0.00230873
-0.00234385
0.000175702
0.00299135
-0.0030343
0.000227243
0.00368999
-0.00374153
0.000287911
0.0043942
-0.00445486
0.000358003
0.00509548
-0.00516557
0.00043758
0.00578656
-0.00586614
0.000526534
0.00646098
-0.00654994
0.000624594
0.00711292
-0.00721098
0.000731357
0.00773709
-0.00784386
0.000846321
0.00832873
-0.0084437
0.000968914
0.00888369
-0.00900629
0.00109851
0.00939842
-0.00952802
0.00123446
0.00987004
-0.010006
0.0013761
0.0102964
-0.010438
0.0015228
0.0106759
-0.0108226
0.00167398
0.0110078
-0.011159
0.00182911
0.0112918
-0.0114469
0.00198773
0.0115281
-0.0116867
0.00214948
0.0117173
-0.0118791
0.00231407
0.0118603
-0.0120248
0.00248122
0.0119578
-0.012125
0.0026506
0.0120108
-0.0121802
0.00282157
0.0120214
-0.0121924
0.0119926
0.00299297
-0.012164
2.8678e-06
-0.000157851
8.52043e-06
-0.00015912
1.61141e-05
9.25305e-05
2.62417e-05
0.00050996
4.00668e-05
0.00103712
5.88739e-05
0.00163694
8.3976e-05
0.00228363
0.000116488
0.00295883
0.000157304
0.00364917
0.000207061
0.00434444
0.000266151
0.00503639
0.000334742
0.00571797
0.000412811
0.00638292
0.000500177
0.00702556
0.000596529
0.00764074
0.000701434
0.00822383
0.000814383
0.00877074
0.000934816
0.00927799
0.00106214
0.00974271
0.00119575
0.0101628
0.00133504
0.0105366
0.00147944
0.0108634
0.0016284
0.0111428
0.00178145
0.0113751
0.00193816
0.0115606
0.00209814
0.0117003
0.00226096
0.011795
0.00242608
0.0118457
0.00259265
0.0118549
0.011826
0.00275921
8.51616e-07
-0.000158703
2.08196e-06
-0.00016035
3.5364e-06
9.10762e-05
6.27861e-06
0.000507218
1.17976e-05
0.0010316
2.16983e-05
0.00162704
3.73975e-05
0.00226793
6.01403e-05
0.00293609
9.09332e-05
0.00361838
0.000130526
0.00430485
0.000179413
0.0049875
0.000237849
0.00565954
0.000305895
0.00631487
0.000383442
0.00694801
0.000470235
0.00755395
0.000565912
0.00812815
0.000670042
0.00866661
0.00078212
0.00916591
0.00090159
0.00962324
0.00102787
0.0100365
0.00116038
0.0104041
0.00129855
0.0107252
0.00144184
0.0109996
0.00158972
0.0112272
0.00174168
0.0114086
0.00189723
0.0115447
0.00205576
0.0116365
0.00221655
0.0116849
0.00237847
0.011693
0.0116647
0.00253981
-1.07484e-06
-0.000157628
-4.21109e-06
-0.000157214
-8.71706e-06
9.55822e-05
-1.30037e-05
0.000511504
-1.52382e-05
0.00103384
-1.36994e-05
0.0016255
-6.73768e-06
0.00226097
7.00751e-06
0.00292235
2.86286e-05
0.00359676
5.89632e-05
0.00427451
9.85956e-05
0.00494787
0.000147863
0.00561027
0.000206882
0.00625585
0.000275613
0.00687928
0.00035387
0.00747569
0.00044135
0.00804067
0.00053766
0.0085703
0.000642337
0.00906123
0.000754861
0.00951072
0.000874683
0.00991665
0.00100124
0.0102775
0.00113396
0.0105925
0.00127227
0.0108612
0.00141561
0.0110838
0.00156337
0.0112609
0.00171494
0.0113932
0.00186954
0.0114819
0.00202622
0.0115283
0.00218361
0.0115356
0.0115085
0.00233975
-2.97203e-06
-0.000154656
-1.02799e-05
-0.000149906
-2.04111e-05
0.000105713
-3.12851e-05
0.000522379
-4.07544e-05
0.00104331
-4.68565e-05
0.00163161
-4.78402e-05
0.00226195
-4.22337e-05
0.00291674
-2.88483e-05
0.00358337
-6.76792e-06
0.00425243
2.46549e-05
0.00491645
6.58255e-05
0.0055691
0.000116937
0.00620474
0.000177998
0.00681822
0.000248865
0.00740482
0.000329283
0.00796025
0.000418904
0.00848068
0.000517296
0.00896284
0.000623966
0.00940405
0.000738386
0.00980223
0.000860002
0.0101559
0.00098824
0.0104643
0.00112251
0.010727
0.00126217
0.0109442
0.00140657
0.0111165
0.00155493
0.0112448
0.00170631
0.0113305
0.00185955
0.011375
0.00201304
0.0113821
0.011357
0.00216454
-4.76722e-06
-0.000149889
-1.60447e-05
-0.000138628
-3.14606e-05
0.000121129
-4.84129e-05
0.000539331
-6.44604e-05
0.00105936
-7.74543e-05
0.0016446
-8.55217e-05
0.00227002
-8.70911e-05
0.00291831
-8.09058e-05
0.00357719
-6.5986e-05
0.00423751
-4.16159e-05
0.00489208
-7.33045e-06
0.00553481
3.71112e-05
0.0061603
9.17607e-05
0.00676357
0.000156521
0.00734006
0.000231175
0.0078856
0.000315399
0.00839646
0.000408784
0.00886945
0.000510864
0.00930197
0.000621128
0.00969197
0.000739029
0.010038
0.000863983
0.0103393
0.000995376
0.0105956
0.00113253
0.010807
0.0012747
0.0109743
0.00142098
0.0110985
0.00157029
0.0111812
0.00172122
0.0112241
0.00187194
0.0112314
0.011209
0.00201993
-6.47642e-06
-0.000143412
-2.14602e-05
-0.000123644
-4.17238e-05
0.000141393
-6.41754e-05
0.000561783
-8.60888e-05
0.00108127
-0.000105123
0.00166364
-0.000119309
0.00228421
-0.000127006
0.00292601
-0.000126887
0.00357707
-0.000117912
0.00422854
-9.93218e-05
0.00487349
-7.06026e-05
0.00550609
-3.14694e-05
0.00612116
1.81682e-05
0.00671393
7.82472e-05
0.00727998
0.000148574
0.00781527
0.000228846
0.00831619
0.000318675
0.00877962
0.000417613
0.00920303
0.000525163
0.00958442
0.000640781
0.00992241
0.000763885
0.0102162
0.000893842
0.0104656
0.00102994
0.0106709
0.00117137
0.0108329
0.0013171
0.0109528
0.00146591
0.0110324
0.00161619
0.0110738
0.00176586
0.0110817
0.0110627
0.00191214
-8.07529e-06
-0.000135337
-2.6461e-05
-0.000105259
-5.10986e-05
0.000166031
-7.84057e-05
0.00058909
-0.000105384
0.00110825
-0.000129534
0.00168778
-0.000148797
0.00230347
-0.000161468
0.00293868
-0.00016617
0.00358177
-0.000161824
0.00422419
-0.000147627
0.00485929
-0.000123027
0.0054815
-8.77085e-05
0.00608584
-4.15484e-05
0.00666777
1.5418e-05
0.00722302
8.30131e-05
0.00774768
0.000160947
0.00823825
0.000248848
0.00869172
0.000346282
0.00910559
0.000452764
0.00947794
0.000567761
0.00980742
0.000690698
0.0100933
0.000820935
0.0103354
0.00095775
0.0105341
0.00110027
0.0106904
0.0012474
0.0108057
0.00139778
0.010882
0.00154963
0.010922
0.00170064
0.0109307
0.0109157
0.0018477
-9.55244e-06
-0.000125784
-3.10053e-05
-8.38055e-05
-5.94919e-05
0.000194518
-9.09578e-05
0.000620556
-0.000122146
0.00113944
-0.000150414
0.00171605
-0.000173625
0.00232668
-0.000190028
0.00295508
-0.000198211
0.00358995
-0.000197065
0.00422305
-0.000185757
0.00484798
-0.000163709
0.00545945
-0.000130577
0.00605271
-8.62148e-05
0.00662341
-3.06406e-05
0.00716744
3.59802e-05
0.00768106
0.000113366
0.00816087
0.000201158
0.00860393
0.000298932
0.00900782
0.000406215
0.00937065
0.000522491
0.00969114
0.0006472
0.00996858
0.000779723
0.0102029
0.000919338
0.0103945
0.00106516
0.0105445
0.00121606
0.0106548
0.00137057
0.0107275
0.00152679
0.0107657
0.00168216
0.0107753
0.0107646
0.00183324
-1.08949e-05
-0.000114889
-3.50551e-05
-5.96449e-05
-6.68361e-05
0.000226299
-0.000101725
0.000655446
-0.00013622
0.00117393
-0.000167548
0.00174738
-0.000193508
0.00235264
-0.000212318
0.00297389
-0.000222548
0.00360018
-0.00022307
0.00422357
-0.000213032
0.00483794
-0.000191842
0.00543826
-0.000159135
0.00602001
-0.000114746
0.00657902
-5.86832e-05
0.00711138
8.89185e-06
0.00761348
8.77067e-05
0.00808205
0.000177408
0.00851423
0.000277581
0.00890765
0.000387767
0.00926046
0.000507475
0.00957143
0.000636173
0.00983988
0.00077328
0.0100658
0.000918109
0.0102497
0.0010698
0.0103928
0.00122725
0.0104973
0.00138894
0.0105658
0.00155286
0.0106018
0.00171627
0.0106119
0.0106056
0.0018753
-1.20916e-05
-0.000102797
-3.85869e-05
-3.31493e-05
-7.30882e-05
0.000260801
-0.000110638
0.000692996
-0.000147499
0.00121079
-0.000180784
0.00178067
-0.000208237
0.0023801
-0.000228061
0.00299372
-0.00023882
0.00361094
-0.000239382
0.00422413
-0.000228891
0.00482745
-0.000206743
0.00541611
-0.000172561
0.00598582
-0.000126171
0.00653263
-6.75785e-05
0.00705279
3.05958e-06
0.00754284
8.54752e-05
0.00799964
0.000179317
0.00842039
0.000284177
0.00880279
0.000399614
0.00914503
0.000525166
0.00944588
0.000660349
0.0097047
0.000804637
0.00992147
0.000957412
0.0100969
0.00111789
0.0102324
0.00128503
0.0103302
0.00145736
0.0103935
0.00163281
0.0104264
0.00180848
0.0104362
0.010434
0.00198005
-1.31377e-05
-8.96596e-05
-4.159e-05
-4.69673e-06
-7.82292e-05
0.00029744
-0.000117667
0.000732434
-0.000155938
0.00124906
-0.000190047
0.00181478
-0.000217696
0.00240775
-0.000237086
0.00301311
-0.000246788
0.00362064
-0.000245678
0.00422302
-0.000232907
0.00481468
-0.000207871
0.00539107
-0.000170185
0.00594814
-0.000119674
0.00648212
-5.63456e-05
0.00698946
1.96467e-05
0.00746685
0.000108033
0.00791125
0.000208463
0.00831996
0.000320534
0.00869071
0.000443825
0.00902174
0.000577908
0.00931179
0.000722354
0.00956025
0.000876711
0.00976711
0.00104046
0.00993313
0.00121296
0.0100599
0.00139327
0.0101499
0.00158003
0.0102067
0.00177122
0.0102352
0.00196379
0.0102437
0.0102448
0.002153
-1.40325e-05
-7.56269e-05
-4.40687e-05
2.53398e-05
-8.22689e-05
0.00033564
-0.000122826
0.000772991
-0.00016155
0.00128779
-0.000195341
0.00184857
-0.000221869
0.00243427
-0.00023934
0.00303058
-0.000246347
0.00362765
-0.000241785
0.00421846
-0.000224822
0.00479772
-0.000194861
0.00536111
-0.000151522
0.0059048
-9.46326e-05
0.00642523
-2.42021e-05
0.00691903
5.96119e-05
0.00738304
0.000156538
0.00781432
0.000266224
0.00821027
0.000388273
0.00856866
0.000522279
0.00888773
0.00066785
0.00916622
0.000824615
0.00940348
0.000992212
0.00959951
0.00117025
0.00975509
0.00135824
0.00987188
0.00155544
0.00995266
0.00176069
0.0100015
0.00197207
0.0100238
0.00218647
0.0100293
0.0100326
0.00239872
-1.47812e-05
-6.08454e-05
-4.60415e-05
5.66004e-05
-8.5245e-05
0.000374843
-0.000126175
0.000813921
-0.000164411
0.00132602
-0.000196752
0.00188091
-0.000220841
0.00245836
-0.000234896
0.00304464
-0.000237539
0.00363029
-0.000227696
0.00420862
-0.000204563
0.00477459
-0.000167558
0.0053241
-0.000116312
0.00585355
-5.06608e-05
0.00635958
2.93813e-05
0.00683899
0.000123653
0.00728877
0.000231877
0.0077061
0.000353698
0.00808845
0.000488721
0.00843364
0.000636554
0.0087399
0.000796835
0.00900594
0.000969247
0.00923107
0.00115352
0.00941524
0.00134939
0.00955921
0.00155657
0.00966471
0.00177456
0.00973467
0.00200245
0.00977358
0.00223854
0.00978771
0.00247979
0.00978801
0.00979176
0.00272059
-1.53938e-05
-4.54513e-05
-4.75408e-05
8.87477e-05
-8.72213e-05
0.000414524
-0.000127811
0.000854511
-0.000164657
0.00136287
-0.00019445
0.0019107
-0.000214806
0.00247872
-0.000223959
0.00305379
-0.000220565
0.0036269
-0.000203594
0.00419165
-0.000172272
0.00474326
-0.000126044
0.00527788
-6.45585e-05
0.00579207
1.23382e-05
0.00628268
0.000104625
0.0067467
0.000212132
0.00718126
0.000334578
0.00758365
0.0004716
0.00795143
0.000622806
0.00828243
0.000787804
0.0085749
0.000966254
0.00882749
0.00115788
0.00903945
0.00136249
0.00921063
0.00157996
0.00934174
0.00181017
0.00943449
0.00205292
0.00949192
0.00230762
0.00951889
0.00257286
0.00952246
0.00284581
0.00951506
0.00951705
0.00312051
-1.58844e-05
-2.95666e-05
-4.86111e-05
0.000121474
-8.82855e-05
0.000454198
-0.000127874
0.0008941
-0.000162479
0.00139747
-0.00018868
0.0019369
-0.00020406
0.0024941
-0.000206867
0.0030566
-0.000195792
0.00361582
-0.000169856
0.00416571
-0.000128323
0.00470173
-7.06685e-05
0.00522022
3.43411e-06
0.00571797
9.41233e-05
0.00619199
0.00020137
0.00663945
0.000324997
0.00705763
0.000464715
0.00744394
0.000620153
0.00779599
0.00079091
0.00811168
0.000976593
0.00838921
0.00117686
0.00862722
0.00139146
0.00882484
0.00162026
0.00898184
0.00186322
0.00909878
0.00212041
0.00917729
0.00239189
0.00922044
0.00267743
0.00923335
0.00297604
0.00922385
0.00328517
0.00920593
0.00920349
0.00359873
-1.62708e-05
-1.32958e-05
-4.93067e-05
0.000154511
-8.85438e-05
0.000493436
-0.000126532
0.000932088
-0.000158119
0.00142906
-0.000179761
0.00195855
-0.000188998
0.00250334
-0.000184083
0.00305168
-0.000163749
0.00359549
-0.000127063
0.00412902
-7.33321e-05
0.004648
-2.06852e-06
0.00514896
8.70252e-05
0.00562887
0.00019407
0.00608494
0.000319025
0.0065145
0.000461704
0.00691495
0.000621808
0.00728383
0.000798955
0.00761884
0.000992731
0.0079179
0.00120273
0.00817922
0.00142858
0.00840137
0.00167004
0.00858339
0.00192696
0.00872491
0.00219939
0.00882635
0.00248752
0.00888917
0.00279161
0.00891635
0.0031118
0.00891316
0.00344757
0.00888808
0.00379684
0.00885667
0.00884679
0.00415354
-1.65731e-05
3.27733e-06
-4.96889e-05
0.000187627
-8.81161e-05
0.000531863
-0.000123977
0.000967949
-0.000151855
0.00145694
-0.000168067
0.00197476
-0.000170094
0.00250537
-0.00015619
0.00303778
-0.000125117
0.00356442
-7.59889e-05
0.0040799
-8.15802e-06
0.00458017
7.88238e-05
0.00506198
0.000185223
0.00552247
0.000311137
0.00595903
0.00045651
0.00636913
0.000621147
0.00675031
0.000804735
0.00710024
0.00100688
0.0074167
0.00122714
0.00769764
0.00146508
0.00794128
0.0017203
0.00814615
0.00199249
0.0083112
0.00228149
0.00843592
0.00258732
0.00852052
0.00291022
0.00856626
0.00325063
0.00857594
0.00360898
0.00855481
0.00398522
0.00851184
0.00437784
0.00846404
0.00844354
0.0047811
-1.68125e-05
2.00899e-05
-4.98219e-05
0.000220636
-8.7128e-05
0.000569169
-0.000120416
0.00100124
-0.00014399
0.00148051
-0.000154011
0.00198478
-0.000147886
0.00249924
-0.000123855
0.00301375
-8.07031e-05
0.00352127
-1.75804e-05
0.00401677
6.61146e-05
0.00449647
0.000170791
0.0049573
0.000296679
0.00539658
0.000443852
0.00581186
0.000612235
0.00620074
0.000801618
0.00656093
0.00101167
0.00689019
0.00124198
0.00718639
0.00149208
0.00744755
0.00176146
0.00767189
0.00204968
0.00785793
0.00235634
0.00800454
0.00268119
0.00811107
0.00302416
0.00817755
0.00338547
0.00820496
0.00376558
0.00819583
0.00416515
0.00815524
0.00458457
0.00809242
0.00502299
0.00802562
0.00799133
0.0054752
-1.70096e-05
3.70995e-05
-4.9768e-05
0.000253395
-8.57025e-05
0.000605103
-0.00011605
0.00103158
-0.000134825
0.00149929
-0.000138017
0.00198797
-0.00012294
0.00248417
-8.78046e-05
0.00297861
-3.14048e-05
0.00346487
4.70802e-05
0.00393829
0.000148214
0.00439534
0.000272364
0.00483315
0.000419726
0.00524922
0.000590342
0.00564124
0.000784113
0.00600697
0.00100081
0.00634424
0.00124008
0.00665092
0.00150148
0.00692499
0.00178449
0.00716454
0.00208855
0.00736783
0.0024131
0.00753338
0.00275764
0.00766
0.00312176
0.00774694
0.00350526
0.00779405
0.00390818
0.00780203
0.00433093
0.00777308
0.00477425
0.00771192
0.00523888
0.00762779
0.00572463
0.00753988
0.00748885
0.0062271
-1.71828e-05
5.42823e-05
-4.95826e-05
0.000285794
-8.39495e-05
0.00063947
-0.000111065
0.0010587
-0.000124647
0.00151287
-0.000120494
0.00198382
-9.58157e-05
0.00245949
-4.87733e-05
0.00293157
2.18434e-05
0.00339425
0.000116841
0.00384329
0.00023675
0.00427543
0.000381898
0.004688
0.000552444
0.00507868
0.000748398
0.00544529
0.000969631
0.00578574
0.00121588
0.00609798
0.00148677
0.00638003
0.0017818
0.00662996
0.0021004
0.00684594
0.00244192
0.00702632
0.00280567
0.00716962
0.00319099
0.00727468
0.00359728
0.00734065
0.00402409
0.00736724
0.00447124
0.00735488
0.00493893
0.00730539
0.00542783
0.00722301
0.00593891
0.00711672
0.0064726
0.00700618
0.00693591
0.00702554
-1.73463e-05
7.16286e-05
-4.93084e-05
0.000317756
-8.19559e-05
0.000672117
-0.000105613
0.00108236
-0.000113694
0.00152095
-0.0001018
0.00197193
-6.70188e-05
0.00242471
-7.44849e-06
0.002872
7.81428e-05
0.00330866
0.000190558
0.00373087
0.000330304
0.00413568
0.000497674
0.00452063
0.000692787
0.00488356
0.000915616
0.00522246
0.00116599
0.00553536
0.00144362
0.00582036
0.00174807
0.00607558
0.00207878
0.00629924
0.0024351
0.00648962
0.00281627
0.00664515
0.00322146
0.00676444
0.00364979
0.00684634
0.00410043
0.00689002
0.00457262
0.00689504
0.00506584
0.00686166
0.00557997
0.00679126
0.00611545
0.00668752
0.00667333
0.00655884
0.0072546
0.00642491
0.00633346
0.00785705
-1.75089e-05
8.91375e-05
-4.89708e-05
0.000349218
-7.97758e-05
0.000702922
-9.97929e-05
0.00110237
-0.000102138
0.0015233
-8.22065e-05
0.00195199
-3.69532e-05
0.00237945
3.55959e-05
0.00279945
0.000136711
0.00320754
0.000267203
0.00360038
0.000427563
0.00397532
0.00061805
0.00433014
0.000838746
0.00466287
0.00108958
0.00497162
0.00137034
0.0052546
0.00168067
0.00551003
0.00202008
0.00573617
0.00238794
0.00593138
0.00278349
0.00609407
0.00320584
0.0062228
0.00365397
0.00631631
0.00412679
0.00637353
0.00462315
0.00639366
0.00514193
0.00637626
0.0056822
0.00632139
0.00624337
0.00623009
0.00682553
0.00610537
0.00742958
0.00595479
0.00805699
0.0057975
0.00568362
0.00870683
-1.76726e-05
0.00010681
-4.85736e-05
0.000380119
-7.7421e-05
0.000731769
-9.364e-05
0.00111859
-9.00555e-05
0.00151971
-6.18584e-05
0.0019238
-5.86857e-06
0.00232346
7.99704e-05
0.00271361
0.000196977
0.00309053
0.000345978
0.00345138
0.000527455
0.00379384
0.000741638
0.00411596
0.000988567
0.00441594
0.00126812
0.00469207
0.00158003
0.00494269
0.00192388
0.00516618
0.0022991
0.00536096
0.00270497
0.00552551
0.0031406
0.00565844
0.00360495
0.00575845
0.00409681
0.00582445
0.00461481
0.00585552
0.00515748
0.00585099
0.00572328
0.00581045
0.00631076
0.00573392
0.00691874
0.0056221
0.00754676
0.00547736
0.00819538
0.00530617
0.00886634
0.00512654
0.00498977
0.00956019
-1.78306e-05
0.000124641
-4.80952e-05
0.000410384
-7.48545e-05
0.000758528
-8.71081e-05
0.00113085
-7.74054e-05
0.00151001
-4.07464e-05
0.00188714
2.61896e-05
0.00225653
0.000125537
0.00261427
0.000258671
0.0029574
0.000426439
0.00328361
0.000629314
0.00359097
0.000867499
0.00387778
0.00114099
0.00414245
0.00144961
0.00438345
0.00179303
0.00459928
0.00217074
0.00478846
0.0025821
0.0049496
0.00302627
0.00508134
0.00350223
0.00518247
0.00400879
0.0052519
0.0045445
0.00528873
0.00510775
0.00529227
0.0056967
0.00526205
0.00630933
0.00519782
0.00694358
0.00509966
0.00759757
0.00496812
0.00826997
0.00480495
0.0089607
0.00461543
0.0096715
0.00441574
0.0042568
0.0104045
-1.79675e-05
0.000142608
-4.74868e-05
0.000439903
-7.19847e-05
0.000783026
-8.00627e-05
0.00113892
-6.40152e-05
0.00149396
-1.86424e-05
0.00184177
5.94189e-05
0.00217847
0.000172465
0.00250122
0.000321906
0.00280796
0.000508603
0.00309691
0.000733023
0.00336655
0.000995337
0.00361546
0.0012955
0.00384229
0.00163326
0.00404568
0.00200822
0.00422432
0.00241979
0.0043769
0.00286721
0.00450218
0.00334954
0.00459901
0.00386564
0.00466637
0.00441414
0.0047034
0.0049934
0.00470946
0.00560154
0.00468413
0.00623636
0.00462723
0.00689536
0.00453882
0.00757581
0.00441921
0.00827487
0.00426906
0.00899006
0.00408976
0.00972006
0.00388544
0.0104659
0.0036699
0.00349152
0.0112312
-1.80587e-05
0.000160667
-4.66717e-05
0.000468516
-6.86648e-05
0.000805019
-7.22764e-05
0.00114254
-4.9581e-05
0.00147127
4.75273e-06
0.00178743
9.42741e-05
0.00208895
0.000221277
0.00237422
0.00038724
0.002642
0.000593041
0.00289111
0.000839133
0.00312046
0.00112566
0.00332894
0.00145251
0.00351544
0.00181937
0.00367882
0.00222576
0.00381793
0.00267098
0.00393167
0.00315419
0.00401897
0.00367433
0.00407888
0.00423011
0.00411058
0.00482005
0.00411347
0.00544233
0.00408718
0.00609485
0.00403161
0.00677511
0.00394697
0.00748016
0.00383377
0.00820655
0.00369283
0.00895035
0.00352526
0.00970744
0.00333267
0.0104743
0.00311852
0.01125
0.00289427
0.00270334
0.0120382
-1.80717e-05
0.000178738
-4.55473e-05
0.000495992
-6.46948e-05
0.000824167
-6.34329e-05
0.00114127
-3.36484e-05
0.00144148
3.01194e-05
0.00172367
0.000131498
0.00198757
0.000272854
0.00223286
0.000455697
0.00245915
0.00068091
0.0026659
0.000948925
0.00285244
0.00125984
0.00301802
0.00161349
0.00316179
0.00200948
0.00328282
0.00244723
0.00338019
0.00292594
0.00345295
0.00344467
0.00350025
0.00400223
0.00352132
0.00459725
0.00351556
0.00522811
0.00348261
0.0058929
0.00342239
0.00658937
0.00333514
0.00731484
0.0032215
0.00806606
0.00308256
0.00883896
0.00291993
0.00962847
0.00273574
0.0104284
0.00253276
0.0112318
0.00231512
0.0120329
0.00209316
0.00190391
0.0128323
-1.79668e-05
0.000196705
-4.39881e-05
0.000522013
-5.98288e-05
0.000840007
-5.31365e-05
0.00113458
-1.56455e-05
0.00140399
5.81915e-05
0.00164983
0.000172075
0.00187368
0.000328418
0.00207652
0.000528746
0.00225882
0.000773936
0.00242071
0.00106439
0.00256199
0.00140014
0.00268227
0.00178096
0.00278097
0.00220635
0.00285743
0.00267563
0.00291091
0.0031879
0.00294068
0.00374208
0.00294607
0.00433688
0.00292651
0.00497083
0.00288161
0.00564223
0.00281122
0.00634911
0.00271551
0.0070892
0.00259504
0.00785985
0.00245085
0.0086578
0.00228461
0.00947889
0.00209884
0.0103174
0.0018972
0.0111652
0.00168502
0.01201
0.00147028
0.0128356
0.00126756
0.00110214
0.0136374
-1.7699e-05
0.000214404
-4.18509e-05
0.000546165
-5.3783e-05
0.000851939
-4.09286e-05
0.00112173
5.08887e-06
0.00135798
8.98853e-05
0.00156503
0.0002172
0.00174637
0.000389472
0.00190424
0.000608228
0.00204007
0.000874317
0.00215462
0.00118809
0.00224822
0.00154952
0.00232084
0.00195827
0.00237222
0.00241374
0.00240195
0.00291512
0.00240953
0.00346137
0.00239443
0.00405127
0.00235617
0.00468341
0.00229437
0.0053562
0.00220882
0.00606784
0.00209958
0.00681636
0.001967
0.00759955
0.00181184
0.008415
0.0016354
0.00925998
0.00143964
0.0101313
0.00122756
0.0110247
0.00100374
0.0119341
0.000775599
0.0128472
0.000557236
0.013733
0.000381781
0.0145148
0.000320283
0.00349698
0.0650043
-0.0655083
0.00403664
0.0609358
-0.0614755
0.00456263
0.0556077
-0.0561337
0.00510042
0.0508542
-0.051392
0.0056078
0.047311
-0.0478184
0.00604338
0.0450201
-0.0454557
0.0063722
0.0437638
-0.0440926
0.00657909
0.0432106
-0.0434175
0.00666886
0.0430966
-0.0431863
0.00665814
0.043255
-0.0432443
0.00656783
0.0436065
-0.0435162
0.00641675
0.0441067
-0.0439556
0.00621929
0.0447249
-0.0445275
0.00598602
0.0454237
-0.0451905
0.00572472
0.0461666
-0.0459053
0.00544104
0.0469244
-0.0466407
0.00513981
0.0476733
-0.047372
0.0048251
0.0483958
-0.0480811
0.00450007
0.0490839
-0.0487589
0.00416717
0.0497309
-0.049398
0.00382854
0.0503291
-0.0499905
0.00348569
0.0508795
-0.0505367
0.00313964
0.0513777
-0.0510317
0.00279133
0.0518219
-0.0514736
0.0024409
0.052212
-0.0518616
0.00208863
0.0525454
-0.0521931
0.00173411
0.0528285
-0.052474
0.00137822
0.0530775
-0.0527216
0.00102323
0.0533035
-0.0529485
0.0534616
-0.0531114
0.00331195
0.0644516
0.00391171
0.0603361
0.00449545
0.055024
0.0050929
0.0502568
0.00565468
0.0467492
0.00613574
0.0445391
0.00649936
0.0434002
0.00673059
0.0429794
0.00683539
0.0429918
0.0068325
0.0432579
0.00674443
0.0436946
0.00659215
0.044259
0.0063908
0.0449263
0.00615218
0.0456624
0.00588385
0.046435
0.00559224
0.047216
0.00528227
0.0479832
0.00495795
0.0487201
0.00462256
0.0494193
0.00427912
0.0500743
0.0039292
0.050679
0.0035749
0.0512338
0.00321726
0.0517354
0.00285693
0.0521822
0.00249478
0.0525742
0.00213052
0.0529097
0.00176438
0.0531946
0.00139727
0.0534446
0.00103134
0.0536694
0.0538224
0.00313175
0.0638596
0.00378648
0.0596813
0.00442588
0.0543846
0.00508243
0.0496003
0.00569909
0.0461326
0.00622642
0.0440117
0.00662558
0.043001
0.0068818
0.0427232
0.0070021
0.0428715
0.00700743
0.0432525
0.00692187
0.0437802
0.00676853
0.0444123
0.00656339
0.0451314
0.00631949
0.0459063
0.00604431
0.0467101
0.00574489
0.0475154
0.00542629
0.0483018
0.00509245
0.049054
0.00474679
0.049765
0.00439281
0.0504283
0.0040316
0.0510402
0.00366581
0.0515996
0.00329651
0.0521047
0.00292409
0.0525546
0.00255011
0.0529481
0.00217375
0.053286
0.00179582
0.0535725
0.00141731
0.0538231
0.00104013
0.0540466
0.0541944
0.00296091
0.0632385
0.00366469
0.0589776
0.00435671
0.0536925
0.00507089
0.0488861
0.00574215
0.0454613
0.00631598
0.0434379
0.00675108
0.0425659
0.00703272
0.0424415
0.00716898
0.0427352
0.00718276
0.0432388
0.00709999
0.043863
0.00694557
0.0445667
0.00673691
0.0453401
0.0064877
0.0461555
0.00620595
0.0469919
0.00589881
0.0478225
0.00557166
0.048629
0.00522843
0.0493972
0.00487267
0.0501207
0.00450803
0.0507929
0.0041357
0.0514125
0.0037584
0.0519769
0.0033773
0.0524858
0.0029929
0.052939
0.00260677
0.0533343
0.00221835
0.0536744
0.00182843
0.0539625
0.00143828
0.0542132
0.00104967
0.0544352
0.054578
0.00280471
0.0625983
0.00355053
0.0582317
0.00429121
0.0529519
0.00506051
0.0481168
0.00578515
0.0447367
0.00640504
0.042818
0.00687614
0.0420948
0.00718342
0.0421343
0.00733586
0.0425828
0.00735824
0.0432164
0.00727854
0.0439427
0.00712318
0.0447221
0.00691116
0.0455521
0.00665661
0.04641
0.00636849
0.04728
0.00605382
0.0481372
0.00571816
0.0489646
0.0053657
0.0497497
0.00500003
0.0504864
0.00462468
0.0511683
0.00424138
0.0517958
0.00385252
0.0523658
0.00345953
0.0528788
0.00306322
0.0533353
0.00266478
0.0537327
0.00226428
0.0540749
0.00186223
0.0543645
0.00146018
0.0546153
0.00105993
0.0548354
0.0549734
0.00266919
0.0619491
0.00344894
0.057452
0.00423304
0.0521677
0.00505367
0.0472961
0.00582955
0.0439608
0.00649435
0.0421532
0.00700103
0.0415882
0.00733387
0.0418014
0.00750264
0.042414
0.00753379
0.0431852
0.00745732
0.0440191
0.00730112
0.0448783
0.00708585
0.0457674
0.00682611
0.0466698
0.0065317
0.0475744
0.00620968
0.0484592
0.00586567
0.0493087
0.00550409
0.0501112
0.00512865
0.0508618
0.00474269
0.0515543
0.00434843
0.0521901
0.00394808
0.0527661
0.00354322
0.0532836
0.00313491
0.0537436
0.00272413
0.0541435
0.00231146
0.0544876
0.00189717
0.0547788
0.00148303
0.0550294
0.00107088
0.0552476
0.0553812
0.002561
0.0613002
0.00336535
0.0566476
0.0041863
0.0513468
0.00505309
0.0464294
0.00587692
0.043137
0.00658472
0.0414454
0.00712605
0.0410468
0.00748411
0.0414434
0.00766923
0.0422289
0.00770922
0.0431453
0.00763612
0.0440922
0.00747921
0.0450352
0.00726076
0.0459858
0.00699601
0.0469345
0.0066954
0.047875
0.00636618
0.0487885
0.00601399
0.0496608
0.00564344
0.0504818
0.00525832
0.051247
0.00486192
0.0519507
0.00445673
0.0525953
0.00404495
0.0531779
0.00362824
0.0537003
0.00320791
0.054164
0.00278478
0.0545666
0.00235982
0.0549126
0.00193321
0.0552054
0.00150679
0.0554558
0.00108249
0.0556719
0.0558015
0.00248736
0.0606605
0.00330569
0.0558293
0.00415547
0.050497
0.00506172
0.0455231
0.00592903
0.0422697
0.00667706
0.0406974
0.00725158
0.0404723
0.0076342
0.0410608
0.00783552
0.0420276
0.00788438
0.0430964
0.00781473
0.0441619
0.00765723
0.0451927
0.00743569
0.0462074
0.00716608
0.0472041
0.00685938
0.0481817
0.00652312
0.0491247
0.00616293
0.050021
0.00578355
0.0508611
0.00538888
0.0516416
0.0049822
0.0523573
0.00456615
0.0530113
0.00414301
0.053601
0.0037145
0.0541288
0.00328211
0.0545964
0.00284664
0.0550021
0.00240931
0.0553499
0.0019703
0.0556444
0.00153143
0.0558947
0.00109472
0.0561086
0.0562348
0.00245575
0.060038
0.00327626
0.0550088
0.00414535
0.0496279
0.00508281
0.0445857
0.0059878
0.0413647
0.00677238
0.0399128
0.00737804
0.0398666
0.00778423
0.0406546
0.0080014
0.0418104
0.00805908
0.0430387
0.00799294
0.044228
0.00783497
0.0453507
0.00761045
0.0464319
0.00733611
0.0474785
0.00702346
0.0484944
0.0066803
0.0494679
0.00631228
0.0503891
0.00592425
0.0512492
0.00552016
0.0520457
0.00510334
0.0527742
0.00467653
0.0534382
0.00424211
0.0540355
0.00380185
0.0545691
0.00335743
0.0550408
0.00290962
0.0554499
0.00245984
0.0557997
0.00200836
0.0560959
0.00155691
0.0563462
0.00110754
0.056558
0.0566813
0.00247374
0.0594396
0.00328362
0.0541989
0.00416101
0.0487505
0.00511982
0.0436268
0.00605534
0.0404292
0.00687181
0.0390963
0.00750591
0.0392325
0.00793434
0.0402261
0.00816679
0.0415779
0.00823318
0.0429723
0.00817057
0.0442906
0.00801222
0.045509
0.00778482
0.0466593
0.00750588
0.0477574
0.00718743
0.0488128
0.00683752
0.0498178
0.00646185
0.0507647
0.00606536
0.0516457
0.00565198
0.0524591
0.00522519
0.0532009
0.00478774
0.0538756
0.00434213
0.0544811
0.00389019
0.0550211
0.00343375
0.0554972
0.00297362
0.05591
0.00251135
0.0562619
0.00204733
0.0565599
0.00158318
0.0568103
0.00112092
0.0570202
0.0571413
0.00254865
0.058871
0.00333438
0.0534132
0.00420765
0.0478773
0.00517645
0.042658
0.00613394
0.0394717
0.0069766
0.0382537
0.00763575
0.0385734
0.00808466
0.0397772
0.00833162
0.041331
0.0084065
0.0428974
0.0083474
0.0443497
0.00818878
0.0456676
0.0079586
0.0468895
0.0076752
0.0480408
0.00735109
0.0491369
0.00699461
0.0501743
0.00661145
0.0511479
0.00620667
0.0520504
0.0057842
0.0528816
0.00534756
0.0536376
0.00489962
0.0543236
0.00444291
0.0549378
0.00397937
0.0554846
0.00351095
0.0559656
0.00303854
0.0563825
0.00256374
0.0567367
0.00208713
0.0570365
0.00161018
0.0572873
0.00113485
0.0574955
0.057615
0.0026872
0.0583368
0.00343497
0.0526654
0.00429048
0.0470218
0.0052565
0.041692
0.00622604
0.0385021
0.00708813
0.0373916
0.00776821
0.0378933
0.00823539
0.03931
0.00849586
0.0410705
0.00857889
0.0428144
0.00852323
0.0444054
0.00836444
0.0458264
0.00813158
0.0471223
0.00784387
0.0483285
0.00751426
0.0494665
0.00715136
0.0505372
0.0067609
0.0515383
0.00634802
0.0524633
0.00591663
0.053313
0.0054703
0.0540839
0.00501202
0.0547818
0.00454431
0.0554055
0.00406928
0.0559596
0.00358892
0.056446
0.00310426
0.0568671
0.00261693
0.0572241
0.00212769
0.0575258
0.00163784
0.0577771
0.00114927
0.0579841
0.0581027
0.00289515
0.0578404
0.00359131
0.0519692
0.0044146
0.0461985
0.00536383
0.0407428
0.00633422
0.0375317
0.00720786
0.0365179
0.007904
0.0371972
0.00838677
0.0388273
0.00865946
0.0407978
0.00875018
0.0427237
0.00869786
0.0444577
0.00853896
0.0459853
0.00830355
0.0473577
0.00801167
0.0486204
0.00767673
0.0498015
0.00730758
0.0509063
0.00691004
0.0519359
0.00648922
0.0528841
0.00604911
0.0537531
0.00559325
0.0545398
0.00512479
0.0552503
0.0046462
0.0558841
0.00415978
0.056446
0.00366754
0.0569382
0.00317069
0.057364
0.00267082
0.0577239
0.00216892
0.0580277
0.0016661
0.05828
0.00116416
0.0584861
0.0586044
0.00317693
0.057384
0.00380858
0.0513376
0.00458471
0.0454224
0.00550219
0.0398253
0.00646108
0.0365728
0.00733738
0.0356416
0.00804392
0.0364906
0.00853907
0.0383321
0.00882242
0.0405145
0.00892021
0.0426259
0.00887109
0.0445068
0.00871214
0.0461443