/*--------------------------------*- C++ -*----------------------------------*\
  =========                 |
  \\      /  F ield         | OpenFOAM: The Open Source CFD Toolbox
   \\    /   O peration     | Website:  https://openfoam.org
    \\  /    A nd           | Version:  7
     \\/     M anipulation  |
\*---------------------------------------------------------------------------*/
FoamFile
{
    version     2.0;
    format      ascii;
    class       volVectorField;
    location    "6.2";
    object      U;
}
// * * * * * * * * * * * * * * * * * * * * * * * * * * * * * * * * * * * * * //

dimensions      [0 1 -1 0 0 0 0];

internalField   nonuniform List<vector> 
18000
(
(0.000208863 -0.00460012 7.3976e-21)
(0.000693817 -0.0044963 0)
(0.00136048 0.00317007 0)
(0.0020733 0.0158327 0)
(0.00289131 0.0318388 -2.43633e-21)
(0.00387121 0.0500841 1.23255e-20)
(0.00506114 0.0697952 -2.49183e-21)
(0.00649001 0.0904142 2.50897e-21)
(0.00817197 0.111529 0)
(0.0101105 0.132823 -7.59507e-21)
(0.0122967 0.154037 -2.5398e-21)
(0.0147146 0.174949 0)
(0.0173423 0.195364 5.08016e-21)
(0.0201507 0.215102 5.08914e-21)
(0.0231102 0.234003 -1.01781e-20)
(0.026192 0.251923 -1.01654e-20)
(0.0293674 0.268736 0)
(0.0326098 0.284333 -1.52075e-20)
(0.0358939 0.298627 5.04395e-21)
(0.0391959 0.311553 -1.51262e-20)
(0.0424947 0.323066 5.01281e-21)
(0.0457729 0.33314 0)
(0.0490167 0.341769 -4.95702e-21)
(0.0522159 0.348958 -4.95499e-21)
(0.0553626 0.354728 0)
(0.0584521 0.359104 0)
(0.0614823 0.362113 -9.77227e-21)
(0.06446 0.363777 -9.71776e-21)
(0.0673769 0.364157 -9.70993e-21)
(0.0700824 0.36333 1.07224e-20)
(0.000283121 -0.00468851 1.05472e-20)
(0.00055387 -0.00468448 1.83543e-20)
(0.000664 0.00288816 -1.87836e-20)
(0.000645281 0.0154476 -1.91458e-20)
(0.000621285 0.0313226 -4.86538e-21)
(0.000696547 0.0494048 1.47568e-20)
(0.000949119 0.068924 -1.98841e-20)
(0.00142955 0.0893252 -2.00356e-20)
(0.00217039 0.110204 2.01501e-20)
(0.00318624 0.131253 2.02314e-20)
(0.00447421 0.152221 -1.01461e-20)
(0.00602648 0.172891 -2.03214e-20)
(0.00782774 0.193071 -1.01846e-20)
(0.00985374 0.212588 2.03316e-20)
(0.0120801 0.231285 -2.03241e-20)
(0.0144824 0.249018 2.02985e-20)
(0.0170345 0.265664 -4.05631e-20)
(0.0197114 0.281116 3.03026e-20)
(0.0224902 0.295287 -2.01428e-20)
(0.025349 0.30811 1.00695e-20)
(0.0282671 0.31954 -2.00089e-20)
(0.0312255 0.32955 0)
(0.0342089 0.33813 1.00517e-20)
(0.0372048 0.345286 -1.97429e-20)
(0.0402021 0.351033 1.96617e-20)
(0.0431928 0.355396 0)
(0.0461695 0.358402 -9.67927e-21)
(0.0491323 0.360075 9.62044e-21)
(0.05205 0.360485 3.84403e-20)
(0.0547774 0.359722 2.13528e-20)
(0.000361151 -0.00475621 -1.68872e-20)
(0.000426396 -0.0048183 -1.83539e-20)
(-6.7999e-06 0.00270789 2.81704e-20)
(-0.000738536 0.015186 4.7823e-20)
(-0.00158222 0.0309361 0)
(-0.00238252 0.0488509 -1.96894e-20)
(-0.0030309 0.0681638 1.98838e-20)
(-0.00345832 0.0883306 6.00534e-20)
(-0.00361793 0.108956 -2.01499e-20)
(-0.00348447 0.129737 -2.02328e-20)
(-0.00305201 0.150431 6.08075e-20)
(-0.00232335 0.170829 2.03213e-20)
(-0.00130797 0.190746 0)
(-2.43146e-05 0.210011 -4.06789e-20)
(0.00150615 0.228472 6.07964e-20)
(0.00326251 0.245987 -2.02626e-20)
(0.00522221 0.262435 2.0247e-20)
(0.00736263 0.27771 2.02205e-20)
(0.00966229 0.291726 7.36857e-23)
(0.0120999 0.304417 0)
(0.0146545 0.315735 6.00653e-20)
(0.0173073 0.325653 -3.96934e-20)
(0.0200413 0.33416 1.98481e-20)
(0.0228413 0.34126 0)
(0.0256935 0.346966 -1.96618e-20)
(0.0285848 0.351304 7.8073e-20)
(0.0315033 0.354299 -5.79794e-20)
(0.0344428 0.355981 -1.93381e-20)
(0.0373484 0.356426 1.9015e-20)
(0.0400798 0.355741 2.13634e-20)
(0.000438217 -0.0047361 0)
(0.000297711 -0.00478065 9.1616e-21)
(-0.000674921 0.00271539 1.88725e-24)
(-0.00210268 0.0151111 -4.77962e-20)
(-0.00373539 0.0307241 0)
(-0.00537524 0.0484532 -3.92778e-20)
(-0.00688496 0.0675392 0)
(-0.00817561 0.0874475 -6.00233e-20)
(-0.00918824 0.107791 2.00994e-20)
(-0.00988857 0.128276 -4.0356e-20)
(-0.0102632 0.148669 -4.05186e-20)
(-0.0103094 0.168768 -2.03003e-20)
(-0.0100329 0.188392 2.0261e-20)
(-0.00944756 0.207376 2.02149e-20)
(-0.00857023 0.22557 -2.03278e-20)
(-0.00741866 0.242838 -4.04496e-20)
(-0.00601359 0.25906 4.02821e-20)
(-0.00437595 0.27413 0)
(-0.00252546 0.287963 0)
(-0.000482386 0.300494 0)
(0.00173256 0.311675 0)
(0.00409982 0.321478 0)
(0.00660081 0.329891 0)
(0.00921771 0.336916 -3.9209e-20)
(0.0119337 0.342568 -3.91706e-20)
(0.014731 0.346869 -1.80961e-22)
(0.017593 0.349851 -3.87125e-20)
(0.0205059 0.351545 -3.49156e-22)
(0.023392 0.352038 -3.8568e-20)
(0.026115 0.351448 8.47358e-20)
(0.000508528 -0.00467042 0)
(0.00016076 -0.00465063 8.23051e-20)
(-0.00133703 0.00284241 1.53879e-24)
(-0.00343735 0.0151655 -2.8629e-20)
(-0.00582969 0.0306382 9.68665e-20)
(-0.0082705 0.0481709 5.89082e-20)
(-0.0105961 0.0670151 5.94157e-20)
(-0.0127024 0.0866459 0)
(-0.0145179 0.106688 0)
(-0.0159996 0.126857 6.05371e-20)
(-0.0171291 0.146925 3.70066e-23)
(-0.0178993 0.166699 -1.41705e-19)
(-0.0183111 0.186005 1.21431e-19)
(-0.0183742 0.204682 -4.05265e-20)
(-0.0181027 0.222586 4.03125e-20)
(-0.0175118 0.239583 4.0268e-20)
(-0.0166202 0.255552 -4.02739e-20)
(-0.0154468 0.270392 4.02456e-20)
(-0.0140099 0.284019 8.01314e-20)
(-0.0123292 0.296367 -3.9791e-20)
(-0.0104255 0.307389 -7.93098e-20)
(-0.00831857 0.317056 7.89399e-20)
(-0.00602866 0.325357 -7.85425e-20)
(-0.00357608 0.332293 3.9209e-20)
(-0.000981127 0.337878 0)
(0.00173439 0.342137 0)
(0.00454809 0.345104 3.48301e-22)
(0.00743884 0.346817 -1.52404e-19)
(0.0103076 0.34737 7.56503e-20)
(0.013019 0.346898 -8.47152e-20)
(0.000569359 -0.00454551 0)
(1.04657e-05 -0.00439845 -7.31535e-20)
(-0.00200202 0.00311363 7.4763e-20)
(-0.00475139 0.0153643 0)
(-0.00786666 0.0306878 -1.54871e-19)
(-0.0110656 0.0480105 -1.96063e-20)
(-0.01416 0.0665946 -3.96375e-20)
(-0.0170289 0.0859288 -1.9939e-20)
(-0.0195916 0.105648 0)
(-0.0217992 0.125479 -4.03122e-20)
(-0.0236274 0.1452 4.03519e-20)
(-0.0250647 0.164627 8.09356e-20)
(-0.0261091 0.183591 -8.09673e-20)
(-0.026767 0.20194 0)
(-0.0270495 0.21953 -8.08277e-20)
(-0.0269701 0.236231 8.05357e-20)
(-0.0265453 0.251926 8.04768e-20)
(-0.0257926 0.266515 1.20222e-19)
(-0.0247288 0.279914 -1.19814e-19)
(-0.0233731 0.29206 1.59156e-19)
(-0.0217462 0.302904 7.93652e-20)
(-0.0198688 0.312419 -7.89399e-20)
(-0.0177621 0.320593 1.56814e-19)
(-0.0154486 0.327427 0)
(-0.0129525 0.332937 7.73529e-20)
(-0.0102998 0.337151 1.54042e-19)
(-0.00751814 0.340105 -7.59996e-20)
(-0.00463638 0.341845 7.6188e-20)
(-0.00177355 0.342474 -6.52503e-23)
(0.000932768 0.342143 -8.43836e-20)
(0.000616432 -0.00436896 -8.40289e-21)
(-0.000160281 -0.0040439 0)
(-0.0026722 0.00350455 -9.34422e-20)
(-0.00604227 0.0156855 1.90355e-20)
(-0.00984274 0.0308519 5.80484e-20)
(-0.0137528 0.0479498 1.95739e-20)
(-0.0175626 0.0662587 7.90375e-20)
(-0.0211374 0.0852797 0)
(-0.0243887 0.104659 4.00967e-20)
(-0.0272615 0.124131 4.02123e-20)
(-0.029727 0.143486 -4.03742e-20)
(-0.031771 0.162547 1.21084e-19)
(-0.0333883 0.181151 0)
(-0.0345825 0.199151 0)
(-0.0353627 0.216408 1.2096e-19)
(-0.0357411 0.232795 -2.0111e-19)
(-0.0357323 0.248197 8.01769e-20)
(-0.0353516 0.262517 -8.00675e-20)
(-0.0346152 0.275672 -7.95928e-20)
(-0.0335421 0.287599 -2.38186e-19)
(-0.0321527 0.298251 -2.68021e-22)
(-0.0304679 0.3076 7.84482e-20)
(-0.0285103 0.315635 -1.56277e-19)
(-0.0263044 0.322358 7.7536e-20)
(-0.0238775 0.327788 -3.12644e-22)
(-0.0212603 0.331954 -7.68572e-20)
(-0.0184859 0.334901 7.63394e-20)
(-0.0155904 0.336679 0)
(-0.012711 0.337402 7.48318e-20)
(-0.00999202 0.337235 3.28304e-22)
(0.000647119 -0.0041449 -1.6787e-20)
(-0.000355339 -0.00359384 1.82332e-20)
(-0.00335107 0.00400692 -1.11886e-19)
(-0.00731113 0.0161159 -5.69898e-20)
(-0.0117539 0.0311158 7.71905e-20)
(-0.0163238 0.0479766 -1.1728e-19)
(-0.020792 0.0659952 -3.95529e-20)
(-0.0250119 0.0846866 -7.955e-20)
(-0.0288878 0.103709 8.00056e-20)
(-0.0323607 0.122807 -1.60746e-19)
(-0.0353982 0.141781 -8.05335e-20)
(-0.0379834 0.160458 -9.45538e-23)
(-0.040109 0.178686 4.03998e-20)
(-0.0417766 0.196321 -1.20864e-19)
(-0.042994 0.21323 -1.61043e-19)
(-0.0437717 0.229287 -6.23186e-23)
(-0.0441225 0.244382 -1.9869e-22)
(-0.0440604 0.258419 7.97494e-20)
(-0.0436009 0.271318 7.95927e-20)
(-0.0427625 0.283014 -4.63073e-23)
(-0.0415655 0.293462 -2.89851e-22)
(-0.0400307 0.302635 7.79467e-20)
(-0.0381814 0.310522 7.80056e-20)
(-0.0360445 0.317128 -4.01611e-24)
(-0.0336498 0.322473 -2.30806e-19)
(-0.0310321 0.326593 1.52406e-19)
(-0.0282301 0.329536 1.51845e-19)
(-0.0252874 0.331365 -1.50199e-19)
(-0.0223566 0.3322 -7.48316e-20)
(-0.0195943 0.332225 -8.32979e-20)
(0.00065859 -0.00387622 -1.50831e-19)
(-0.000578956 -0.00305851 -1.82102e-20)
(-0.00404106 0.00460576 9.32049e-20)
(-0.00855722 0.0166404 7.60006e-20)
(-0.0135962 0.031464 -7.719e-20)
(-0.0187711 0.0480741 7.81629e-20)
(-0.0238364 0.0657883 -3.94633e-20)
(-0.0286358 0.0841363 1.19285e-19)
(-0.0330682 0.102788 -8.00052e-20)
(-0.0370715 0.1215 8.03275e-20)
(-0.0406108 0.140078 4.02524e-20)
(-0.0436671 0.15836 -4.03789e-20)
(-0.0462319 0.176199 -2.41815e-19)
(-0.0483055 0.193457 1.61036e-19)
(-0.0498946 0.210005 8.04642e-20)
(-0.051008 0.225722 0)
(-0.0516571 0.2405 0)
(-0.0518548 0.254245 -3.51652e-22)
(-0.0516163 0.266877 -7.92986e-20)
(-0.0509593 0.278334 0)
(-0.0499034 0.288571 0)
(-0.0484695 0.297561 -7.82115e-20)
(-0.0466815 0.305294 0)
(-0.0445675 0.311778 -1.53949e-19)
(-0.0421594 0.317036 0)
(-0.0394959 0.32111 -7.61871e-20)
(-0.0366214 0.324056 1.51102e-19)
(-0.0335864 0.325945 -1.49465e-19)
(-0.0305562 0.326912 0)
(-0.0277063 0.327158 0)
(0.00064873 -0.00356825 1.34062e-19)
(-0.000834123 -0.00244924 0)
(-0.00474374 0.00528675 -1.86083e-20)
(-0.00977978 0.0172419 1.89623e-20)
(-0.0153657 0.0318781 -1.15454e-19)
(-0.0210869 0.0482248 2.086e-23)
(-0.0266843 0.0656218 -3.93878e-20)
(-0.0319935 0.0836144 0)
(-0.03691 0.101885 0)
(-0.0413697 0.120199 -4.01292e-20)
(-0.0453359 0.138372 4.01688e-20)
(-0.0487886 0.15625 -8.0584e-20)
(-0.0517188 0.173692 8.06101e-20)
(-0.0541262 0.190565 0)
(-0.0560161 0.206745 0)
(-0.0573963 0.222115 0)
(-0.0582772 0.23657 7.9595e-20)
(-0.0586708 0.250017 -1.44082e-22)
(-0.0585915 0.262377 7.94532e-20)
(-0.0580563 0.273591 -1.57364e-19)
(-0.0570839 0.283612 7.84573e-20)
(-0.0556952 0.292415 -3.89232e-19)
(-0.0539142 0.299992 7.47883e-24)
(-0.0517693 0.306351 1.53948e-19)
(-0.0492939 0.311522 -5.06631e-22)
(-0.04653 0.31555 1.51179e-19)
(-0.0435274 0.318503 -1.49831e-19)
(-0.0403435 0.320463 -1.491e-19)
(-0.0371526 0.32158 2.25562e-22)
(-0.034157 0.322076 -1.64026e-19)
(0.000615984 -0.00322622 -1.67276e-20)
(-0.00112301 -0.00177764 0)
(-0.00546028 0.00603431 3.71671e-20)
(-0.0109777 0.0179025 -3.78742e-20)
(-0.0170586 0.0323396 3.46243e-19)
(-0.0232644 0.04841 2.28384e-23)
(-0.029325 0.065478 -3.93393e-20)
(-0.0350709 0.083105 3.96832e-20)
(-0.0403948 0.100985 -1.9935e-19)
(-0.0452323 0.118895 0)
(-0.0495461 0.136657 0)
(-0.0533161 0.154126 -8.02494e-20)
(-0.0565332 0.171165 8.05928e-20)
(-0.0591969 0.18765 -8.04429e-20)
(-0.0613116 0.203458 8.01018e-20)
(-0.0628843 0.218479 0)
(-0.0639248 0.232609 -3.18849e-19)
(-0.0644444 0.245757 1.58632e-19)
(-0.0644564 0.257846 7.91206e-20)
(-0.0639769 0.268816 2.35894e-19)
(-0.063024 0.278622 0)
(-0.0616179 0.287239 1.55512e-19)
(-0.0597822 0.294658 1.54044e-19)
(-0.0575446 0.300893 1.52929e-19)
(-0.0549395 0.305976 -5.84292e-22)
(-0.0520114 0.30996 -1.50432e-19)
(-0.0488154 0.312921 1.4983e-19)
(-0.0454147 0.31496 0)
(-0.0419894 0.316241 2.63453e-22)
(-0.0387766 0.317015 3.27196e-19)
(0.000559074 -0.00285548 -1.33563e-19)
(-0.0014471 -0.00105593 0)
(-0.00619112 0.0068323 -1.48355e-19)
(-0.0121497 0.0186039 -1.89024e-19)
(-0.0186711 0.0328287 -1.15367e-19)
(-0.0252971 0.0486102 3.89244e-20)
(-0.0317493 0.065338 3.39661e-23)
(-0.0378549 0.0825906 -3.95958e-20)
(-0.0435061 0.100075 1.76249e-22)
(-0.0486389 0.117575 8.00878e-20)
(-0.0532168 0.134924 8.02111e-20)
(-0.0572202 0.151982 -8.02411e-20)
(-0.0606409 0.168619 8.0254e-20)
(-0.0634782 0.184715 -2.40766e-19)
(-0.0657364 0.200154 2.40107e-19)
(-0.0674219 0.214827 1.59643e-19)
(-0.0685438 0.228635 3.98048e-19)
(-0.0691131 0.241488 -7.94164e-20)
(-0.0691422 0.25331 -1.5756e-19)
(-0.0686459 0.264041 -3.41851e-22)
(-0.0676414 0.273637 -1.56078e-19)
(-0.066148 0.282071 4.64353e-19)
(-0.0641881 0.289337 -3.07988e-19)
(-0.0617884 0.295449 3.04771e-19)
(-0.0589832 0.300445 -1.51675e-19)
(-0.0558187 0.304384 3.00237e-19)
(-0.0523546 0.307355 4.63803e-22)
(-0.0486594 0.309474 -2.94867e-19)
(-0.0449149 0.310933 2.91586e-19)
(-0.0414022 0.31201 1.61845e-19)
(0.000477164 -0.00246154 1.33562e-19)
(-0.00180737 -0.000296154 0)
(-0.0069364 0.00766442 3.33563e-19)
(-0.0132945 0.0193272 1.13423e-19)
(-0.0202001 0.0333253 0)
(-0.0271795 0.0488045 0)
(-0.033949 0.0651814 0)
(-0.0403346 0.0820525 0)
(-0.0462295 0.0991363 7.96398e-20)
(-0.0515717 0.116226 7.98815e-20)
(-0.056326 0.133163 -1.60378e-19)
(-0.0604748 0.149812 1.60576e-19)
(-0.0640109 0.16605 2.40744e-19)
(-0.0669343 0.181763 8.03394e-20)
(-0.0692493 0.196838 7.99004e-20)
(-0.070962 0.211171 -2.39319e-19)
(-0.0720815 0.224665 -3.17881e-19)
(-0.0726179 0.237231 -1.5836e-19)
(-0.0725829 0.248795 1.57559e-19)
(-0.0719902 0.259297 -3.13343e-19)
(-0.0708559 0.268691 1.55328e-19)
(-0.0691981 0.276951 -3.0924e-19)
(-0.0670373 0.284071 1.53047e-19)
(-0.0643986 0.290066 -2.23643e-22)
(-0.0613154 0.294977 -1.50679e-19)
(-0.0578346 0.298872 -2.99411e-19)
(-0.0540201 0.301851 2.96476e-19)
(-0.0499451 0.30405 0)
(-0.0457884 0.305692 -3.14346e-22)
(-0.041884 0.307095 -3.22642e-19)
(0.000369751 -0.00204989 1.66611e-20)
(-0.00220429 0.000489606 0)
(-0.00769596 0.00851449 -1.48144e-19)
(-0.0144109 0.0200536 3.7725e-20)
(-0.0216428 0.0338089 -3.83063e-20)
(-0.0289074 0.0489717 0)
(-0.0359178 0.0649873 -3.92286e-20)
(-0.0425012 0.0814705 3.94995e-20)
(-0.0485536 0.0981515 7.95755e-20)
(-0.0540158 0.114832 -2.39407e-19)
(-0.0588557 0.13136 -8.01336e-20)
(-0.0630577 0.147607 -1.50581e-22)
(-0.0666167 0.163454 -8.17623e-23)
(-0.0695339 0.178792 -1.60151e-19)
(-0.0718138 0.193513 -8.00871e-20)
(-0.0734628 0.207518 0)
(-0.0744897 0.220709 -5.407e-23)
(-0.0749043 0.233003 1.58088e-19)
(-0.0747174 0.244324 -1.56947e-19)
(-0.0739421 0.25461 0)
(-0.0725928 0.263818 0)
(-0.070686 0.271918 0)
(-0.0682405 0.278903 0)
(-0.0652792 0.284791 -5.0086e-22)
(-0.0618338 0.289623 0)
(-0.057951 0.293475 0)
(-0.0536979 0.296458 1.47145e-19)
(-0.0491523 0.298731 1.45658e-19)
(-0.0444854 0.300559 1.44548e-19)
(-0.0400918 0.302303 -3.97424e-22)
(0.000236597 -0.00162583 1.66369e-20)
(-0.00263795 0.00128977 -3.61194e-20)
(-0.00846946 0.00936686 2.21609e-19)
(-0.0154976 0.0207647 -3.76591e-20)
(-0.0229973 0.0342593 3.82721e-20)
(-0.0304773 0.0490903 3.24696e-23)
(-0.0376508 0.0647338 1.17381e-19)
(-0.0443482 0.0808232 -1.57791e-19)
(-0.0504696 0.0971001 2.38237e-19)
(-0.0559603 0.113375 8.37637e-23)
(-0.0607916 0.1295 -7.99533e-20)
(-0.0649515 0.145353 1.60064e-19)
(-0.0684372 0.160821 -1.60064e-19)
(-0.0712515 0.175797 1.59878e-19)
(-0.0733997 0.19018 0)
(-0.0748888 0.203871 1.59011e-19)
(-0.0757275 0.216778 0)
(-0.0759254 0.228817 2.567e-22)
(-0.0754927 0.239914 -1.56681e-19)
(-0.0744416 0.250006 -1.55683e-19)
(-0.0727853 0.259047 1.54591e-19)
(-0.0705388 0.267006 -1.53415e-19)
(-0.0677185 0.273875 -1.5216e-19)
(-0.0643451 0.279669 -3.02161e-19)
(-0.0604482 0.284433 -1.49446e-19)
(-0.0560733 0.288245 1.48346e-19)
(-0.0512904 0.29123 -2.93909e-19)
(-0.0461813 0.293569 -1.45655e-19)
(-0.0409053 0.295576 0)
(-0.0359227 0.297671 -1.59061e-19)
(7.76679e-05 -0.00119423 0)
(-0.00310815 0.00209349 1.44139e-19)
(-0.00925639 0.0102067 -1.108e-19)
(-0.0165538 0.0214429 -1.87895e-19)
(-0.0242618 0.0346565 0)
(-0.0318869 0.0491391 0)
(-0.0391449 0.0643989 -2.34772e-19)
(-0.0458713 0.0800882 3.1527e-19)
(-0.0519721 0.0959601 -2.38038e-19)
(-0.0573978 0.111832 0)
(-0.0621244 0.127564 7.99018e-20)
(-0.0661442 0.143035 -8.01494e-20)
(-0.0694574 0.158137 1.78907e-22)
(-0.0720685 0.172769 -8.01566e-20)
(-0.0739844 0.186831 -7.96939e-20)
(-0.075213 0.200229 -2.10608e-22)
(-0.0757631 0.212874 1.58125e-19)
(-0.0756442 0.224681 1.57575e-19)
(-0.0748663 0.235578 1.75959e-23)
(-0.0734408 0.2455 3.11076e-19)
(-0.0713801 0.2544 -3.09101e-19)
(-0.0686974 0.262244 3.06524e-19)
(-0.0654072 0.26902 1.52157e-19)
(-0.061528 0.274742 1.50832e-19)
(-0.057087 0.279453 5.28524e-22)
(-0.052128 0.283235 0)
(-0.0467234 0.28622 1.46202e-19)
(-0.0409594 0.288615 -4.3388e-19)
(-0.0349784 0.29079 1.42725e-19)
(-0.0293088 0.293236 1.57759e-19)
(-0.000106932 -0.000759541 -9.93973e-20)
(-0.00361446 0.0028908 -3.24041e-19)
(-0.0100562 0.0110204 -2.19675e-24)
(-0.0175787 0.0220716 2.32981e-22)
(-0.0254355 0.0349818 -1.14314e-19)
(-0.0331351 0.0490974 0)
(-0.0403986 0.0639603 -7.79287e-20)
(-0.0470688 0.0792424 -4.72441e-19)
(-0.0530587 0.0947084 2.37725e-19)
(-0.0583252 0.110183 -1.59048e-19)
(-0.0628499 0.12553 2.39356e-19)
(-0.0666299 0.140632 -7.98218e-20)
(-0.0696692 0.155386 1.59883e-19)
(-0.0719746 0.169692 -3.99069e-19)
(-0.0735549 0.183455 2.38862e-19)
(-0.074419 0.196584 3.29994e-23)
(-0.0745765 0.208991 -4.73881e-19)
(-0.0740369 0.220594 1.57308e-19)
(-0.0728104 0.231319 -1.5613e-19)
(-0.070908 0.241102 0)
(-0.0683413 0.249891 1.53879e-19)
(-0.0651223 0.257651 0)
(-0.061264 0.264365 -1.51548e-19)
(-0.0567832 0.270043 1.50058e-19)
(-0.0517048 0.274725 1.48911e-19)
(-0.0460705 0.278492 1.46856e-19)
(-0.0399548 0.281483 0)
(-0.0334492 0.283926 0)
(-0.0266747 0.286252 -2.8527e-19)
(-0.0202258 0.289042 4.68362e-19)
(-0.000317023 -0.000325652 9.94693e-20)
(-0.00415625 0.0036727 1.79859e-19)
(-0.010868 0.0117952 -1.46961e-19)
(-0.0185713 0.0226354 2.99842e-19)
(-0.0265173 0.0352176 3.83505e-20)
(-0.0342209 0.0489457 3.86448e-20)
(-0.0414115 0.0633967 3.37551e-22)
(-0.0479406 0.0782631 -1.5704e-19)
(-0.0537296 0.0933212 -7.90757e-20)
(-0.058743 0.108403 2.06045e-22)
(-0.0629687 0.123374 -1.98566e-22)
(-0.0664091 0.138123 -2.39383e-19)
(-0.0690725 0.152545 -7.97796e-20)
(-0.0709686 0.166547 1.98045e-22)
(-0.0721085 0.180035 1.58917e-19)
(-0.0725027 0.192921 1.5836e-19)
(-0.0721618 0.205118 2.39143e-22)
(-0.0710958 0.216546 -1.56796e-19)
(-0.0693154 0.227131 1.56053e-19)
(-0.0668317 0.236808 -1.54791e-19)
(-0.0636559 0.245522 -3.07401e-19)
(-0.0597995 0.253234 -1.52468e-19)
(-0.0552747 0.259923 3.01874e-19)
(-0.0500971 0.265593 0)
(-0.0442902 0.270277 -1.47876e-19)
(-0.0378936 0.274054 -2.9315e-19)
(-0.0309836 0.277063 -2.89857e-19)
(-0.0236577 0.27955 1.43707e-19)
(-0.0160129 0.282013 -4.25155e-19)
(-0.00870196 0.285131 1.55115e-19)
(-0.000552403 0.000104072 -1.65138e-19)
(-0.00473275 0.0044313 3.58968e-20)
(-0.0116909 0.0125202 1.46963e-19)
(-0.0195304 0.0231208 -1.12367e-19)
(-0.0275062 0.0353482 3.81207e-20)
(-0.035144 0.0486662 -8.67741e-23)
(-0.0421837 0.0626884 3.89248e-19)
(-0.048488 0.0771286 1.57146e-19)
(-0.0539874 0.0917754 1.58137e-19)
(-0.058655 0.106466 2.38284e-19)
(-0.0624857 0.121071 -2.3881e-19)
(-0.065488 0.135479 1.59504e-19)
(-0.0676745 0.149589 3.19056e-19)
(-0.0690586 0.163308 1.59346e-19)
(-0.0696541 0.176546 2.65186e-23)
(-0.0694735 0.189215 -3.16472e-19)
(-0.0685288 0.201233 3.15278e-19)
(-0.0668313 0.212518 2.38124e-22)
(-0.0643926 0.222997 -1.55745e-19)
(-0.0612243 0.232604 1.54485e-19)
(-0.0573381 0.241281 1.53521e-19)
(-0.0527456 0.248985 -1.51837e-19)
(-0.0474591 0.255691 -3.01483e-19)
(-0.0414942 0.261394 1.12713e-23)
(-0.0348738 0.266121 1.48138e-19)
(-0.0276359 0.269942 1.46294e-19)
(-0.0198582 0.272993 2.88626e-19)
(-0.0116457 0.275529 -2.84874e-19)
(-0.00306897 0.278113 0)
(0.00517373 0.281541 1.53561e-19)
(-0.000812889 0.000526841 2.53318e-22)
(-0.00534298 0.00515991 0)
(-0.0125234 0.0131861 -1.09771e-19)
(-0.0204542 0.0235166 -3.73424e-20)
(-0.0284007 0.0353604 -1.51659e-19)
(-0.0359032 0.0482437 0)
(-0.0427155 0.0618182 -2.33391e-19)
(-0.0487127 0.0758196 7.8332e-20)
(-0.0538358 0.0900491 0)
(-0.0580673 0.10435 -1.58397e-19)
(-0.0614098 0.118596 0)
(-0.0638778 0.132675 -2.38756e-19)
(-0.0654891 0.146489 2.38601e-19)
(-0.0662613 0.159946 -1.59092e-19)
(-0.0662113 0.172958 -1.58469e-19)
(-0.065354 0.185439 0)
(-0.0637037 0.197306 0)
(-0.0612732 0.20848 1.56466e-19)
(-0.0580757 0.218888 1.37904e-22)
(-0.0541243 0.228461 1.54168e-19)
(-0.0494317 0.237141 -1.52945e-19)
(-0.0440107 0.24488 3.03471e-19)
(-0.037875 0.251648 -1.502e-19)
(-0.0310414 0.257431 0)
(-0.0235331 0.262246 4.41471e-19)
(-0.0153871 0.266154 -7.27059e-19)
(-0.00668275 0.26928 1.44209e-19)
(0.00246698 0.271882 1.42376e-19)
(0.0120178 0.27458 1.40028e-19)
(0.0212452 0.278299 3.02987e-19)
(-0.00109835 0.000940457 -1.31316e-19)
(-0.00598575 0.00585317 2.85641e-19)
(-0.0133636 0.0137855 1.46418e-19)
(-0.0213402 0.0238138 3.35209e-19)
(-0.0291978 0.035244 4.16541e-19)
(-0.0364961 0.0476668 7.68255e-20)
(-0.0430057 0.0607725 -3.87679e-19)
(-0.0486155 0.0743203 0)
(-0.0532785 0.088124 -3.14839e-19)
(-0.0569867 0.102033 -1.57911e-19)
(-0.0597513 0.115923 0)
(-0.0615931 0.129683 -1.58622e-19)
(-0.0625357 0.143216 3.45828e-23)
(-0.0626009 0.15643 -4.75887e-19)
(-0.0618093 0.169238 1.58468e-19)
(-0.0601793 0.181556 1.57864e-19)
(-0.0577274 0.193301 -3.13553e-19)
(-0.0544692 0.204396 -3.12189e-19)
(-0.05042 0.214766 -1.10153e-22)
(-0.0455952 0.224342 -2.10924e-22)
(-0.0400097 0.233063 0)
(-0.0336785 0.240879 -1.51217e-19)
(-0.026618 0.247753 -1.49306e-19)
(-0.0188476 0.253665 0)
(-0.0103922 0.258619 0)
(-0.0012888 0.262663 4.34882e-19)
(0.00838263 0.265909 -4.28959e-19)
(0.0185003 0.268603 0)
(0.0290449 0.271416 4.17942e-19)
(0.0392889 0.275407 -3.01058e-19)
(-0.0014087 0.00134326 5.42434e-22)
(-0.00665951 0.00650693 -2.85663e-19)
(-0.0142083 0.0143128 -3.6494e-20)
(-0.022184 0.0240063 -3.72359e-19)
(-0.0298926 0.0349926 -2.27167e-19)
(-0.0369183 0.0469279 7.66855e-20)
(-0.0430509 0.0595428 1.55199e-19)
(-0.0481952 0.0726202 3.9031e-19)
(-0.0523169 0.0859871 3.14841e-19)
(-0.0554187 0.0994991 3.1631e-19)
(-0.0575202 0.113033 0)
(-0.0586494 0.126481 4.91622e-22)
(-0.0588354 0.139744 0)
(-0.0581052 0.152731 3.17273e-19)
(-0.0564837 0.165355 0)
(-0.0539929 0.177532 -1.57593e-19)
(-0.0506526 0.189181 1.57204e-19)
(-0.0464816 0.200224 0)
(-0.0414985 0.210585 0)
(-0.0357217 0.220197 -4.603e-19)
(-0.0291695 0.228996 1.52235e-19)
(-0.0218607 0.23693 0)
(-0.0138156 0.243954 2.98745e-19)
(-0.00505766 0.250042 2.95921e-19)
(0.00438503 0.255186 -5.84321e-19)
(0.0144744 0.25942 5.77516e-19)
(0.0251303 0.262835 3.58392e-22)
(0.0362229 0.265659 2.81136e-19)
(0.0477554 0.268596 -2.78794e-19)
(0.0590225 0.272845 0)
(-0.00174382 0.00173398 3.28179e-19)
(-0.00736215 0.00711808 -3.56092e-20)
(-0.0150535 0.0147646 -2.91005e-19)
(-0.0229793 0.0240909 0)
(-0.0304778 0.0346035 -3.01523e-19)
(-0.0371617 0.0460249 0)
(-0.0428438 0.0581263 -3.86352e-19)
(-0.0474462 0.0707154 -2.34328e-19)
(-0.0509485 0.0836328 -3.13745e-19)
(-0.0533646 0.0967399 0)
(-0.054723 0.109916 7.92039e-20)
(-0.055059 0.123054 8.00007e-20)
(-0.0544078 0.136054 -1.58322e-19)
(-0.0528019 0.148826 -3.16235e-19)
(-0.0502709 0.161281 -1.5744e-19)
(-0.0468411 0.173336 -6.2856e-19)
(-0.0425364 0.184909 3.13013e-19)
(-0.0373796 0.195923 -1.04209e-22)
(-0.0313933 0.206303 -5.64255e-23)
(-0.0246001 0.215979 4.59908e-19)
(-0.0170229 0.224888 0)
(-0.00868555 0.232975 0)
(0.000386138 0.24019 -6.02685e-22)
(0.0101629 0.246499 3.30701e-22)
(0.0206119 0.251884 -2.90613e-19)
(0.0316924 0.256362 -2.87437e-19)
(0.0433249 0.260001 8.16201e-22)
(0.0553729 0.262999 -2.81125e-19)
(0.0678585 0.266077 -2.76652e-19)
(0.0801257 0.270571 9.82735e-22)
(-0.0021035 0.00211155 0)
(-0.00809075 0.00768432 2.83746e-19)
(-0.0158929 0.0151391 2.54667e-19)
(-0.0237174 0.0240675 3.70353e-20)
(-0.0309421 0.0340787 6.02395e-19)
(-0.0372142 0.0449612 -7.63844e-20)
(-0.0423719 0.0565278 6.17171e-19)
(-0.0463571 0.0686112 3.10901e-19)
(-0.0491641 0.0810655 4.70478e-19)
(-0.0508187 0.0937584 2.36011e-19)
(-0.0513587 0.106572 7.90673e-20)
(-0.0508269 0.119399 3.96024e-19)
(-0.0492651 0.132141 2.92224e-22)
(-0.0467115 0.144704 1.58395e-19)
(-0.0432012 0.157001 3.15376e-19)
(-0.0387652 0.168947 3.14138e-19)
(-0.033432 0.18046 0)
(-0.0272293 0.191464 0)
(-0.0201845 0.201883 0)
(-0.0123254 0.211648 0)
(-0.00368066 0.220694 3.02447e-19)
(0.00571945 0.228964 0)
(0.015842 0.236407 -3.02948e-22)
(0.0266501 0.242979 5.86656e-19)
(0.038104 0.248654 2.90303e-19)
(0.0501586 0.25343 2.86808e-19)
(0.062734 0.257351 5.65926e-19)
(0.0756894 0.260575 0)
(0.0890626 0.263817 -5.50536e-19)
(0.102272 0.268541 5.86374e-19)
(-0.00248724 0.00247492 2.60778e-19)
(-0.00884127 0.00820392 -2.83752e-19)
(-0.0167185 0.0154364 0)
(-0.0243861 0.0239392 -2.95319e-19)
(-0.0312704 0.0334247 -7.58779e-20)
(-0.0370581 0.0437471 -2.28179e-19)
(-0.0416164 0.0547604 -6.93096e-19)
(-0.0449087 0.0663227 -8.05778e-22)
(-0.0469456 0.0783014 -2.34391e-19)
(-0.0477653 0.0905708 -5.5005e-19)
(-0.0474151 0.103016 -7.87537e-20)
(-0.045946 0.11553 -3.15516e-19)
(-0.0434065 0.128014 -3.15501e-19)
(-0.0398411 0.140374 0)
(-0.0352906 0.152519 -3.14138e-19)
(-0.0297912 0.164366 -4.69518e-19)
(-0.0233769 0.175831 1.55714e-19)
(-0.0160804 0.186839 -3.09222e-19)
(-0.00793483 0.197313 -3.06936e-19)
(0.00102597 0.207185 0)
(0.0107667 0.216391 -6.0399e-19)
(0.0212495 0.224872 0)
(0.0324326 0.232573 -5.91867e-19)
(0.0442698 0.239448 -2.92196e-19)
(0.0567116 0.24546 -5.77916e-19)
(0.0697048 0.250592 2.85111e-19)
(0.0831672 0.254857 -8.45598e-19)
(0.0969538 0.258368 2.77477e-19)
(0.111114 0.261808 1.2469e-21)
(0.125167 0.266745 -2.89163e-19)
(-0.00289412 0.00282291 -2.60783e-19)
(-0.00960823 0.00867561 3.53408e-20)
(-0.0175194 0.0156579 2.52754e-19)
(-0.0249695 0.0237121 2.95326e-19)
(-0.031442 0.0326527 -3.00187e-19)
(-0.0366689 0.042399 7.12909e-22)
(-0.0405503 0.0528463 3.07681e-19)
(-0.0430722 0.0638763 -6.20138e-19)
(-0.0442636 0.0753704 -7.74665e-20)
(-0.0441754 0.0872098 7.05806e-19)
(-0.0428652 0.0992825 -4.71923e-19)
(-0.0403924 0.111483 7.87818e-19)
(-0.0368126 0.12371 7.88067e-19)
(-0.032177 0.135869 -1.57221e-19)
(-0.0265323 0.147868 3.14136e-19)
(-0.0199205 0.159622 4.69159e-19)
(-0.0123812 0.171049 1.55086e-19)
(-0.00395284 0.182071 7.94714e-22)
(0.00532549 0.192614 1.53695e-19)
(0.0154135 0.202609 1.51994e-19)
(0.0262686 0.211992 -1.49506e-19)
(0.0378444 0.220706 1.49091e-19)
(0.0500893 0.228697 -2.94199e-19)
(0.0629456 0.235914 2.9189e-19)
(0.0763504 0.242313 1.19109e-21)
(0.0902374 0.247863 2.83556e-19)
(0.104516 0.252549 1.28157e-21)
(0.119032 0.256427 -2.77079e-19)
(0.13384 0.260116 3.49512e-22)
(0.148586 0.265253 0)
(-0.00332263 0.00315415 0)
(-0.0103844 0.00909831 0)
(-0.0182817 0.0158066 -3.24999e-19)
(-0.0254473 0.0233947 3.67658e-20)
(-0.0314312 0.0317786 0)
(-0.0360156 0.0409407 3.03581e-19)
(-0.0391377 0.0508165 7.67361e-20)
(-0.0408084 0.0613103 2.32467e-19)
(-0.0410756 0.0723174 3.11859e-19)
(-0.0400047 0.0837257 -3.13404e-19)
(-0.0376638 0.0954267 3.14397e-19)
(-0.0341211 0.107315 -3.14867e-19)
(-0.0294399 0.119289 -3.14843e-19)
(-0.0236782 0.131253 0)
(-0.0168891 0.143114 0)
(-0.00912042 0.154784 0)
(-0.000417689 0.166182 -3.10442e-19)
(0.00917477 0.177229 4.62411e-19)
(0.0196119 0.187851 -1.52835e-19)
(0.0308469 0.197983 0)
(0.0428299 0.207561 4.5053e-19)
(0.0555057 0.21653 -1.48581e-19)
(0.0688121 0.224838 2.94191e-19)
(0.0826781 0.232436 -5.79371e-19)
(0.097024 0.239278 5.74082e-19)
(0.111763 0.245321 -9.90926e-22)
(0.126784 0.250526 3.12846e-22)
(0.141914 0.254887 2.75707e-19)
(0.157189 0.258919 5.66636e-22)
(0.17241 0.264266 2.85451e-19)
(-0.00377043 0.00346679 3.23661e-20)
(-0.0111606 0.00947081 -3.51653e-20)
(-0.0189883 0.015886 7.19673e-20)
(-0.0257949 0.0229981 -4.39786e-19)
(-0.0312058 0.0308224 7.45372e-20)
(-0.0350596 0.0394019 0)
(-0.0373331 0.0487103 3.05486e-19)
(-0.0380659 0.0586742 -3.08256e-19)
(-0.0373254 0.0692017 0)
(-0.0351923 0.0801873 3.90137e-19)
(-0.0317462 0.0915257 -7.82481e-20)
(-0.0270645 0.103112 0)
(-0.0212187 0.114845 -1.57003e-19)
(-0.0142739 0.126625 3.13224e-19)
(-0.00628965 0.13836 -1.56052e-19)
(0.0026799 0.149959 1.55507e-19)
(0.0125834 0.161341 -3.09165e-19)
(0.0233708 0.172427 1.84975e-23)
(0.0349912 0.183145 8.42916e-23)
(0.0473917 0.193428 -1.50394e-19)
(0.0605157 0.203218 -2.98782e-19)
(0.0743 0.212462 5.31952e-22)
(0.0886723 0.221116 9.36382e-22)
(0.103548 0.229135 2.89523e-19)
(0.118826 0.236478 -2.84857e-19)
(0.134392 0.243105 2.82266e-19)
(0.150096 0.248963 -5.55502e-19)
(0.165715 0.253987 -3.70165e-22)
(0.181233 0.258553 -5.39715e-19)
(0.196607 0.264221 2.82907e-19)
(-0.00423387 0.00375822 0)
(-0.0119246 0.00979117 -2.79957e-19)
(-0.0196181 0.0159002 0)
(-0.0259823 0.0225347 8.32816e-22)
(-0.0307276 0.0298068 7.44445e-20)
(-0.0337543 0.0378174 1.37729e-22)
(-0.0350825 0.0465752 -6.10017e-19)
(-0.0347825 0.0560281 2.31378e-19)
(-0.0329429 0.0660961 0)
(-0.029661 0.07668 -3.8995e-19)
(-0.0250283 0.0876777 7.80565e-20)
(-0.0191324 0.0989848 0)
(-0.0120533 0.110498 -1.56599e-19)
(-0.00386354 0.122118 1.56099e-19)
(0.00537041 0.133748 1.55205e-19)
(0.0155882 0.145299 3.10019e-19)
(0.0267324 0.156687 -1.54108e-19)
(0.0387472 0.167833 0)
(0.0515765 0.178665 0)
(0.065162 0.189119 3.01443e-19)
(0.0794414 0.199139 -2.97587e-19)
(0.0943454 0.208678 2.9488e-19)
(0.109794 0.217699 2.91783e-19)
(0.125692 0.22617 2.87109e-19)
(0.141921 0.234069 -2.84191e-19)
(0.15833 0.241376 2.80733e-19)
(0.174708 0.248062 2.75723e-19)
(0.190718 0.254052 -2.72728e-19)
(0.206154 0.25965 9.92894e-22)
(0.220959 0.266246 5.59529e-19)
(-0.00470955 0.00402676 3.21838e-20)
(-0.0126632 0.0100585 2.45073e-19)
(-0.0201473 0.0158545 0)
(-0.0259761 0.0220195 2.92284e-19)
(-0.0299531 0.0287586 0)
(-0.0320468 0.0362267 0)
(-0.0323235 0.0444654 2.28566e-19)
(-0.0308862 0.0534414 -1.76384e-22)
(-0.0278469 0.0630855 7.72195e-20)
(-0.0233198 0.0733045 7.77848e-20)
(-0.0174103 0.0839986 -2.33901e-19)
(-0.0102163 0.0950634 1.55949e-19)
(-0.00182716 0.106394 0)
(0.00767649 0.11789 0)
(0.018221 0.129452 -3.11001e-19)
(0.0297392 0.14099 0)
(0.0421676 0.152417 -1.53614e-19)
(0.0554446 0.163653 1.5256e-19)
(0.0695089 0.174627 1.51182e-19)
(0.0842974 0.185274 -2.22151e-22)
(0.0997436 0.195543 -1.48439e-19)
(0.115775 0.20539 0)
(0.132308 0.214787 -2.89315e-19)