/*--------------------------------*- C++ -*----------------------------------*\
  =========                 |
  \\      /  F ield         | OpenFOAM: The Open Source CFD Toolbox
   \\    /   O peration     | Website:  https://openfoam.org
    \\  /    A nd           | Version:  7
     \\/     M anipulation  |
\*---------------------------------------------------------------------------*/
FoamFile
{
    version     2.0;
    format      ascii;
    class       volScalarField;
    location    "8";
    object      p;
}
// * * * * * * * * * * * * * * * * * * * * * * * * * * * * * * * * * * * * * //

dimensions      [0 2 -2 0 0 0 0];

internalField   nonuniform List<scalar> 
2000
(
0.158622
0.160857
0.163563
0.168115
0.174266
0.181417
0.188918
0.196233
0.203028
0.209227
0.160351
0.16221
0.164555
0.168567
0.174062
0.180534
0.187406
0.194177
0.200512
0.206324
0.162124
0.163635
0.165704
0.169285
0.174221
0.180074
0.186334
0.192544
0.198376
0.20373
0.163928
0.165126
0.167004
0.170257
0.174725
0.180019
0.185686
0.191322
0.196609
0.201431
0.165733
0.166668
0.16844
0.171466
0.175556
0.180348
0.185446
0.190495
0.195201
0.199422
0.167495
0.16823
0.169988
0.172886
0.176684
0.181034
0.185583
0.190037
0.194129
0.197691
0.169146
0.169772
0.171605
0.174471
0.178061
0.182024
0.186043
0.189887
0.193334
0.196205
0.170611
0.171231
0.173219
0.176145
0.179604
0.183233
0.186733
0.189934
0.192686
0.194853
0.171799
0.172527
0.174742
0.177799
0.181189
0.184526
0.187513
0.190019
0.191972
0.193351
0.172618
0.173575
0.17607
0.179295
0.182649
0.185714
0.188176
0.189919
0.190938
0.190985
0.220848
0.231855
0.238369
0.243737
0.247186
0.250702
0.252501
0.254585
0.255347
0.256066
0.21782
0.228694
0.235088
0.240488
0.244017
0.24764
0.249508
0.251654
0.252433
0.253197
0.215006
0.225641
0.231832
0.23724
0.240854
0.244583
0.246531
0.248746
0.249542
0.250353
0.212397
0.222694
0.228616
0.234001
0.237707
0.24153
0.243578
0.24586
0.246679
0.247535
0.209994
0.219863
0.225456
0.230792
0.234588
0.238486
0.240653
0.242995
0.243844
0.244735
0.207777
0.217138
0.222365
0.227636
0.231508
0.23546
0.237757
0.240149
0.241035
0.241963
0.20572
0.214506
0.219369
0.224562
0.228486
0.232465
0.234899
0.237329
0.238241
0.239173
0.203751
0.211877
0.21645
0.22156
0.225516
0.229499
0.232067
0.234522
0.235472
0.236454
0.201993
0.209296
0.213684
0.218682
0.222651
0.226607
0.229312
0.231764
0.232673
0.233551
0.199948
0.20634
0.210871
0.215807
0.219802
0.223704
0.226517
0.228964
0.229967
0.231055
0.200512
0.200343
0.204585
0.209322
0.213537
0.217313
0.220495
0.222562
0.222516
0.221719
0.179684
0.18602
0.192279
0.197768
0.201812
0.204679
0.20711
0.209402
0.212948
0.217302
0.15901
0.169499
0.177095
0.183724
0.18936
0.194195
0.19748
0.198444
0.198148
0.200111
0.138669
0.151183
0.160124
0.167706
0.173705
0.178142
0.181886
0.184803
0.187059
0.190678
0.118143
0.13121
0.140121
0.148198
0.156035
0.162532
0.16616
0.167441
0.169503
0.172049
0.0961851
0.109573
0.119132
0.127352
0.134681
0.141098
0.14622
0.149261
0.151584
0.153241
0.0740242
0.086619
0.0962234
0.105061
0.113031
0.118785
0.122538
0.125527
0.127803
0.129977
0.0504377
0.0620702
0.0708927
0.0787701
0.0864105
0.0925089
0.0964237
0.0989224
0.100784
0.102217
0.0271002
0.0368748
0.0447921
0.0507541
0.0558083
0.0601798
0.0636722
0.0658539
0.0670252
0.0672164
0.0029517
0.0104364
0.0156397
0.0190068
0.0214067
0.023315
0.0249066
0.0261346
0.0266691
0.0268478
0.183272
0.167105
0.1459
0.125652
0.105738
0.0841897
0.0639957
0.041233
0.0217055
-0.00196153
0.178601
0.162301
0.140244
0.119784
0.100187
0.0790398
0.0593714
0.0372678
0.0194666
-0.00382153
0.172922
0.15669
0.134776
0.114323
0.0950388
0.074357
0.0552
0.0339278
0.0175092
-0.00557874
0.167419
0.150891
0.129464
0.109037
0.0899687
0.0698423
0.0511667
0.0308841
0.0157004
-0.00740235
0.162112
0.144919
0.124202
0.103988
0.085096
0.0655504
0.0473932
0.0282584
0.0141547
-0.00895782
0.156922
0.1391
0.119064
0.0991674
0.080417
0.0614519
0.0438606
0.0259718
0.012945
-0.00899815
0.151867
0.13356
0.114087
0.0945922
0.0760025
0.0575892
0.0406026
0.0239901
0.0121125
-0.00750016
0.147104
0.128463
0.109389
0.0903054
0.0719002
0.0539939
0.0376247
0.0222366
0.0114621
-0.00544765
0.14281
0.123928
0.105081
0.0863603
0.0681635
0.0507143
0.0349518
0.0206776
0.0108003
-0.00326293
0.139087
0.120005
0.101231
0.082789
0.0648087
0.0477718
0.0325984
0.0193286
0.0102185
-0.0013311
0.135938
0.116622
0.0978095
0.0795707
0.061811
0.0451544
0.030559
0.0182732
0.00972949
0.000220912
0.133375
0.113751
0.094813
0.0767116
0.0591643
0.0428505
0.0288176
0.0174377
0.00941611
0.00138213
0.131476
0.111478
0.0923008
0.0742573
0.0568924
0.0408646
0.027371
0.0167997
0.00926015
0.00219097
0.130318
0.109868
0.0902753
0.0721961
0.054984
0.0391985
0.0262148
0.016347
0.00922816
0.0027118
0.129865
0.108778
0.0885618
0.0703989
0.0533718
0.0378826
0.0253189
0.0160727
0.00929268
0.0030204
0.129827
0.107877
0.0869455
0.0687472
0.0520371
0.0368931
0.0246976
0.0159716
0.00944031
0.00318978
0.130081
0.107446
0.0858537
0.0675642
0.0511747
0.0362514
0.024346
0.016037
0.00969388
0.00328506
0.131912
0.109261
0.0867491
0.0678199
0.0511265
0.0360634
0.0242505
0.0162632
0.0100097
0.00335663
0.136604
0.11426
0.0900561
0.0696208
0.0520641
0.0363774
0.0243525
0.01664
0.0103589
0.00344055
0.138495
0.115439
0.0902241
0.0693689
0.0523463
0.0369399
0.0247175
0.0172373
0.0108045
0.00355099
0.130363
0.104668
0.0794865
0.0605641
0.0488876
0.038938
0.0282586
0.0192081
0.0115768
0.0036964
0.115505
0.0934635
0.0700779
0.0513852
0.0375681
0.0294957
0.0234809
0.0177839
0.0110644
0.0039396
0.105693
0.0865102
0.0700875
0.057863
0.0479774
0.0379969
0.0288506
0.0202723
0.0118742
0.00387129
0.105179
0.0855666
0.070796
0.0584241
0.0475521
0.0380316
0.0292689
0.0206828
0.0120712
0.00366217
0.112812
0.0936648
0.0774516
0.0640535
0.05173
0.0410994
0.0313405
0.0220148
0.0127252
0.00391487
0.1203
0.09998
0.081748
0.0669706
0.0541364
0.043476
0.0333693
0.0233296
0.0135294
0.00446361
0.126512
0.104932
0.0858657
0.0703489
0.0570138
0.0460161
0.035086
0.0244584
0.0142271
0.00467954
0.131542
0.109201
0.0895834
0.073926
0.0606052
0.0487339
0.0362908
0.0253301
0.0149389
0.00501021
0.136215
0.113218
0.0936626
0.0780428
0.0635153
0.0498206
0.037433
0.0267344
0.015813
0.00564302
0.141192
0.116118
0.0958831
0.0799679
0.0653646
0.050962
0.0381466
0.0272733
0.0165286
0.00573703
0.149829
0.140797
0.12863
0.126053
0.129421
0.13475
0.141061
0.146278
0.150906
0.15857
0.156367
0.146686
0.135503
0.134181
0.137317
0.142392
0.148556
0.154164
0.160056
0.167579
0.164378
0.153775
0.141546
0.140097
0.14465
0.15126
0.157951
0.164769
0.172976
0.179777
0.172867
0.161483
0.148843
0.146485
0.151368
0.159481
0.167199
0.175395
0.185415
0.192219
0.181986
0.169724
0.157002
0.15431
0.158645
0.167173
0.175802
0.18508
0.196193
0.203645
0.191592
0.178568
0.165784
0.163066
0.166941
0.175133
0.184237
0.194143
0.205791
0.214053
0.201577
0.187982
0.175214
0.172317
0.17591
0.18374
0.193075
0.20331
0.215155
0.224054
0.211789
0.197887
0.185272
0.182007
0.185182
0.192866
0.202519
0.213072
0.225027
0.234334
0.22206
0.208167
0.195863
0.19213
0.194693
0.202298
0.212459
0.223515
0.235711
0.245318
0.232178
0.218641
0.206831
0.202608
0.204517
0.211991
0.222711
0.234472
0.247147
0.2571
0.241882
0.229051
0.217976
0.213353
0.214681
0.222023
0.233158
0.245739
0.259113
0.269519
0.251061
0.23923
0.229163
0.224309
0.225163
0.232465
0.243756
0.257179
0.271407
0.282338
0.259672
0.249044
0.240225
0.235418
0.23592
0.243297
0.254538
0.268742
0.283932
0.295328
0.267602
0.25834
0.250949
0.24656
0.246866
0.25441
0.265554
0.280445
0.296684
0.308361
0.274766
0.267053
0.26116
0.257541
0.257884
0.265637
0.276821
0.292304
0.309688
0.321363
0.281099
0.274954
0.27067
0.268128
0.268825
0.276786
0.288283
0.304269
0.32281
0.334353
0.286577
0.282042
0.279333
0.278092
0.279501
0.287696
0.299811
0.316313
0.335915
0.347316
0.291147
0.288267
0.287056
0.287241
0.289679
0.298214
0.311103
0.328235
0.348681
0.360046
0.294807
0.293548
0.293745
0.295426
0.299159
0.30829
0.322024
0.34002
0.360975
0.372581
0.297558
0.298143
0.299625
0.302695
0.307707
0.31746
0.331782
0.350878
0.372395
0.384324
0.305528
0.310193
0.315043
0.321496
0.330208
0.342145
0.357001
0.376851
0.398309
0.412289
0.319229
0.326911
0.33518
0.345211
0.357531
0.373118
0.390437
0.410793
0.43166
0.445746
0.331613
0.340804
0.350966
0.362878
0.376509
0.392931
0.410488
0.428874
0.448028
0.459697
0.341836
0.351726
0.362772
0.375447
0.38921
0.40479
0.42095
0.435896
0.451194
0.459529
0.350009
0.36002
0.371264
0.384002
0.39743
0.411764
0.426302
0.438391
0.450146
0.455866
0.356102
0.366152
0.377345
0.389837
0.402773
0.415906
0.428985
0.439064
0.448127
0.452049
0.360152
0.370237
0.381371
0.393626
0.406147
0.418347
0.430284
0.438984
0.446002
0.449255
0.362501
0.372636
0.383766
0.395978
0.40841
0.420292
0.431686
0.43997
0.445943
0.446809
0.362521
0.373091
0.3842
0.396486
0.408794
0.42006
0.43156
0.439334
0.442542
0.448575
0.364787
0.374965
0.386412
0.398874
0.41146
0.424211
0.436202
0.446062
0.452255
0.437815
0.302116
0.313915
0.325742
0.335786
0.344197
0.350337
0.354458
0.357143
0.357215
0.359146
0.302637
0.313847
0.325044
0.334597
0.342649
0.348482
0.352427
0.355042
0.355235
0.356934
0.303855
0.315252
0.325715
0.334522
0.341853
0.347127
0.350719
0.353055
0.353425
0.354757
0.30371
0.315435
0.325574
0.333962
0.340803
0.345683
0.349018
0.351112
0.351645
0.35257
0.302998
0.3148
0.32475
0.332925
0.339472
0.34411
0.347288
0.349217
0.349887
0.350454
0.302219
0.314048
0.323791
0.331773
0.338077
0.342526
0.345587
0.347389
0.348183
0.348472
0.301326
0.313275
0.322849
0.330639
0.336713
0.340992
0.343948
0.345642
0.34655
0.346639
0.300257
0.312391
0.321871
0.329504
0.33538
0.339513
0.342376
0.343978
0.344988
0.344937
0.299042
0.311382
0.320834
0.32835
0.33407
0.338086
0.340871
0.342401
0.343494
0.343348
0.297734
0.310281
0.319755
0.327188
0.332791
0.336715
0.339435
0.340909
0.342063
0.341847
0.296369
0.309111
0.318654
0.326031
0.331553
0.335406
0.338071
0.3395
0.340697
0.340407
0.294918
0.307851
0.317527
0.324882
0.330363
0.334162
0.33679
0.338164
0.33939
0.339018
0.293316
0.306463
0.316359
0.323741
0.329216
0.33299
0.335582
0.3369
0.338133
0.33768
0.291555
0.304963
0.315142
0.32261
0.328109
0.331884
0.334449
0.335709
0.336912
0.336398
0.289658
0.303392
0.313867
0.32149
0.327043
0.330843
0.333387
0.334592
0.335713
0.335175
0.287499
0.301758
0.312559
0.320363
0.326018
0.329871
0.332396
0.333546
0.334519
0.334013
0.285213
0.300072
0.311198
0.319244
0.32504
0.328964
0.331476
0.332566
0.333316
0.332934
0.282666
0.298275
0.309777
0.318129
0.324098
0.328118
0.330626
0.331652
0.332083
0.331946
0.280012
0.296484
0.308329
0.317021
0.32319
0.327329
0.329847
0.330806
0.330836
0.331101
0.276354
0.294309
0.306661
0.315821
0.32227
0.326576
0.329129
0.330025
0.329489
0.330364
0.269698
0.289781
0.303106
0.313234
0.320272
0.324942
0.3276
0.328633
0.327542
0.329005
0.276845
0.292173
0.303657
0.312985
0.319603
0.324001
0.326266
0.32695
0.325513
0.326174
0.281255
0.294507
0.305119
0.31355
0.319753
0.323869
0.325727
0.325974
0.324363
0.324168
0.283854
0.295812
0.306295
0.314257
0.320314
0.324289
0.325857
0.325797
0.324298
0.323872
0.285493
0.296942
0.307252
0.315041
0.321143
0.32507
0.32645
0.326157
0.324701
0.324743
0.287608
0.298333
0.30838
0.316254
0.322497
0.326438
0.327512
0.326777
0.325568
0.328499
0.288757
0.299271
0.309207
0.317289
0.323741
0.327527
0.327817
0.326254
0.325715
0.337193
0.290356
0.300557
0.310621
0.319314
0.32629
0.330429
0.330657
0.329847
0.332165
0.363183
0.290755
0.30077
0.31087
0.320004
0.327318
0.331019
0.329416
0.326511
0.34676
0.419378
0.291533
0.301782
0.312551
0.323526
0.334441
0.342987
0.348238
0.3599
0.406313
0.529478
0.257702
0.266434
0.27026
0.274988
0.276858
0.280428
0.281441
0.283782
0.284127
0.285031
0.253712
0.2627
0.266478
0.271703
0.273628
0.277571
0.278493
0.281032
0.281305
0.282212
0.250965
0.259881
0.264052
0.269099
0.271059
0.274896
0.275784
0.278252
0.278495
0.279327
0.24754
0.256659
0.261332
0.26629
0.268476
0.272079
0.273097
0.275379
0.275705
0.27644
0.243612
0.253047
0.258163
0.263191
0.265638
0.269118
0.270291
0.272449
0.272874
0.273549
0.239565
0.249353
0.254851
0.259979
0.26265
0.266085
0.26739
0.269486
0.269995
0.270644
0.235523
0.245696
0.251546
0.256748
0.259614
0.263021
0.264443
0.266501
0.267082
0.267723
0.231548
0.24209
0.248252
0.253509
0.256555
0.259943
0.261475
0.263507
0.264152
0.264795
0.227728
0.23856
0.244955
0.250256
0.253465
0.256857
0.258493
0.260516
0.261214
0.261869
0.224145
0.23514
0.241659
0.246994
0.25034
0.253775
0.255499
0.257541
0.258276
0.258958
0.172982
0.174291
0.177095
0.180483
0.183793
0.186557
0.188426
0.189188
0.188662
0.183859
0.17281
0.174601
0.177711
0.181225
0.184429
0.186831
0.188097
0.187977
0.186694
0.181639
0.172054
0.174467
0.177837
0.181397
0.18438
0.186311
0.186929
0.186064
0.18409
0.179513
0.170687
0.173863
0.177423
0.180906
0.18352
0.184847
0.184727
0.183165
0.18043
0.176209
0.168735
0.172768
0.176438
0.179705
0.181808
0.182431
0.181548
0.179355
0.17604
0.172037
0.166229
0.171177
0.174873
0.177801
0.179302
0.179203
0.177634
0.174924
0.17127
0.167311
0.163206
0.169112
0.172749
0.17526
0.176153
0.175411
0.173307
0.170227
0.166403
0.162377
0.159747
0.166621
0.170125
0.172213
0.172588
0.171361
0.168903
0.165603
0.161707
0.157587
0.155971
0.163761
0.167112
0.168863
0.168886
0.167368
0.164724
0.161323
0.157404
0.153209
0.15203
0.160621
0.163885
0.165464
0.165336
0.163708
0.161005
0.157576
0.153649
0.149397
0.148093
0.157309
0.160675
0.162305
0.162216
0.160611
0.15792
0.154488
0.150539
0.146229
0.144492
0.154121
0.157836
0.159711
0.159779
0.15826
0.155596
0.152148
0.148145
0.143756
0.141472
0.151316
0.155654
0.157926
0.158204
0.156775
0.154119
0.150619
0.146519
0.142025
0.139292
0.149237
0.154415
0.157156
0.157633
0.156252
0.153553
0.149949
0.145703
0.141077
0.138211
0.148246
0.154361
0.157558
0.158167
0.156761
0.153949
0.150174
0.145729
0.140927
0.138481
0.148667
0.155683
0.159239
0.159877
0.158353
0.155346
0.151327
0.146607
0.141525
0.14035
0.150748
0.158513
0.16227
0.162811
0.161067
0.157778
0.153425
0.148299
0.142734
0.144042
0.154651
0.16292
0.166681
0.166994
0.164936
0.16129
0.156488
0.15075
0.144573
0.149725
0.160439
0.16892
0.172459
0.172423
0.169983
0.165936
0.16059
0.154109
0.147487
0.157472
0.168081
0.176476
0.179546
0.179038
0.176189
0.171744
0.165923
0.15895
0.152002
0.16727
0.177503
0.185467
0.187836
0.186743
0.183443
0.178621
0.17247
0.165385
0.159102
0.179127
0.188616
0.195651
0.197153
0.195386
0.191588
0.186366
0.179908
0.172836
0.166889
0.192859
0.200945
0.20679
0.207275
0.204774
0.200464
0.194881
0.188211
0.181138
0.175255
0.207979
0.214183
0.218604
0.21796
0.214686
0.209859
0.203947
0.19712
0.190052
0.184163
0.223957
0.227994
0.230781
0.228941
0.224889
0.219578
0.213396
0.206485
0.19946
0.193568
0.240247
0.241959
0.242986
0.239936
0.235137
0.229393
0.223017
0.216113
0.209205
0.203343
0.256285
0.255637
0.254881
0.250667
0.245184
0.239086
0.232609
0.225818
0.219122
0.213344
0.271527
0.268597
0.266138
0.260863
0.254797
0.248442
0.241969
0.235407
0.229025
0.223399
0.285462
0.280448
0.276461
0.270279
0.263759
0.257262
0.250905
0.244684
0.238724
0.233329
0.297617
0.290847
0.285591
0.278702
0.271882
0.265369
0.259237
0.253464
0.248029
0.24295
0.307592
0.299523
0.293325
0.285962
0.279013
0.272616
0.266814
0.261575
0.256757
0.252073
0.315316
0.306328
0.299523
0.291938
0.285041
0.278896
0.273517
0.268879
0.264743
0.260547
0.320623
0.311155
0.304109
0.296565
0.289906
0.284141
0.279272
0.275277
0.271863
0.268242
0.323447
0.313965
0.307056
0.29982
0.29358
0.288322
0.284036
0.280714
0.278039
0.275063
0.323822
0.314784
0.308387
0.301719
0.296074
0.291439
0.287802
0.285173
0.283241
0.28096
0.321865
0.3137
0.308169
0.302317
0.29743
0.293524
0.290593
0.288666
0.287465
0.285906
0.317757
0.310846
0.306506
0.301697
0.297717
0.294633
0.292455
0.291231
0.290729
0.289898
0.311732
0.306395
0.303532
0.299968
0.297025
0.29484
0.293453
0.292922
0.293071
0.292943
0.304064
0.300548
0.299401
0.297256
0.295458
0.294238
0.293675
0.293831
0.294569
0.295074
0.295047
0.293523
0.294281
0.293696
0.293132
0.292926
0.29321
0.29404
0.295256
0.296244
0.284973
0.285543
0.28834
0.289426
0.290164
0.291005
0.29215
0.293655
0.295307
0.296895
0.274083
0.27682
0.281749
0.284582
0.286675
0.288591
0.29061
0.292846
0.295173
0.29741
0.26273
0.267598
0.274676
0.279299
0.282777
0.285781
0.28867
0.29162
0.294575
0.297393
0.251211
0.258097
0.267277
0.273691
0.278564
0.282653
0.28639
0.29001
0.293516
0.29674
0.239779
0.24851
0.259687
0.267862
0.274118
0.279275
0.283835
0.288092
0.292113
0.295711
0.228646
0.238999
0.252024
0.261898
0.269509
0.275713
0.281071
0.285937
0.290448
0.294439
0.218006
0.229685
0.244388
0.255865
0.264792
0.272012
0.278144
0.283594
0.288565
0.292939
0.208154
0.220587
0.236854
0.249816
0.260006
0.268207
0.275085
0.281094
0.286494
0.291231
0.199038
0.212024
0.229459
0.243793
0.255179
0.264317
0.271911
0.278458
0.284266
0.289348
0.190743
0.204078
0.222235
0.237839
0.250331
0.26035
0.268632
0.275698
0.281897
0.287316
0.183441
0.196735
0.215357
0.231966
0.245467
0.256301
0.265243
0.272811
0.279388
0.285142
0.176815
0.189941
0.208819
0.226227
0.240621
0.252176
0.26175
0.269797
0.27673
0.282807
0.170942
0.183761
0.20264
0.220631
0.235737
0.248036
0.258154
0.266648
0.273911
0.28028
0.165865
0.178232
0.196842
0.215193
0.230887
0.243794
0.254438
0.263355
0.270926
0.277526
0.161563
0.173357
0.191446
0.209927
0.226065
0.23948
0.250592
0.259906
0.267788
0.274513
0.157994
0.169127
0.186476
0.204857
0.221278
0.235107
0.246634
0.256315
0.264506
0.27159
0.155113
0.165528
0.18195
0.200008
0.216543
0.230678
0.242556
0.252569
0.261027
0.268365
0.152873
0.162536
0.177882
0.195405
0.211878
0.226195
0.238344
0.248636
0.257315
0.264825
0.151221
0.160119
0.174281
0.191075
0.207306
0.221664
0.233979
0.244478
0.253312
0.260901
0.150104
0.158244
0.171152
0.187047
0.202856
0.217109
0.22947
0.240106
0.249089
0.256482
0.149465
0.156868
0.168493
0.183348
0.198568
0.212563
0.224813
0.235378
0.244384
0.251201
0.149206
0.15593
0.166292
0.180007
0.194488
0.208086
0.220112
0.230466
0.239323
0.246395
0.149316
0.155404
0.164543
0.177055
0.190677
0.203769
0.215526
0.22572
0.234522
0.241915
0.149758
0.155249
0.16323
0.174517
0.187196
0.199693
0.211136
0.221195
0.229959
0.237466
0.150483
0.155417
0.162328
0.172407
0.18409
0.195911
0.206963
0.216824
0.225488
0.232974
0.151445
0.155861
0.161805
0.170726
0.181388
0.192463
0.203035
0.212613
0.221099
0.228499
0.152602
0.156536
0.161624
0.169462
0.179108
0.189389
0.19941
0.208628
0.216873
0.224131
0.15392
0.157402
0.161744
0.168596
0.177261
0.18673
0.196148
0.204947
0.212894
0.219958
0.155368
0.158421
0.162125
0.168099
0.175846
0.18451
0.193296
0.201632
0.209233
0.216052
0.156933
0.15957
0.162732
0.167942
0.174849
0.182736
0.19088
0.198719
0.205935
0.212467
)
;

boundaryField
{
    inlet
    {
        type            zeroGradient;
    }
    outlet
    {
        type            fixedValue;
        value           uniform 0;
    }
    cylinder
    {
        type            zeroGradient;
    }
    top
    {
        type            symmetryPlane;
    }
    bottom
    {
        type            symmetryPlane;
    }
    defaultFaces
    {
        type            empty;
    }
}


// ************************************************************************* //
