/*--------------------------------*- C++ -*----------------------------------*\
  =========                 |
  \\      /  F ield         | OpenFOAM: The Open Source CFD Toolbox
   \\    /   O peration     | Website:  https://openfoam.org
    \\  /    A nd           | Version:  7
     \\/     M anipulation  |
\*---------------------------------------------------------------------------*/
FoamFile
{
    version     2.0;
    format      ascii;
    class       surfaceScalarField;
    location    "8";
    object      phi;
}
// * * * * * * * * * * * * * * * * * * * * * * * * * * * * * * * * * * * * * //

dimensions      [0 3 -1 0 0 0 0];

internalField   nonuniform List<scalar> 
3880
(
0.000445237
0.00181075
-0.00225598
0.00159344
0.00788075
-0.00902895
0.00331568
0.0143253
-0.0160476
0.00541496
0.0202857
-0.022385
0.00767376
0.0252797
-0.0275385
0.00991216
0.0291123
-0.0313507
0.0120139
0.0318015
-0.0339032
0.0139232
0.033489
-0.0353983
0.0156281
0.0343697
-0.0360747
0.0346287
0.0171436
-0.0361442
0.000365057
0.00144569
0.00135677
0.00688904
0.00291067
0.0127714
0.00488675
0.0183096
0.00710465
0.0230618
0.00939652
0.0268204
0.0116382
0.0295599
0.0137546
0.0313725
0.0157108
0.0324136
0.032843
0.0174965
0.000277702
0.00116799
0.00110143
0.00606531
0.00246492
0.0114079
0.0042793
0.0164953
0.00640174
0.0209394
0.00868229
0.0245399
0.0109966
0.0272456
0.0132571
0.029112
0.0154091
0.0302616
0.0308339
0.0174182
0.000182276
0.000985711
0.00082856
0.00541903
0.0019849
0.0102516
0.00360625
0.0148739
0.00558447
0.0189612
0.00779054
0.0223338
0.0101066
0.0249295
0.0124408
0.0267778
0.0147257
0.0279766
0.0286531
0.0169066
7.97687e-05
0.000905943
0.000543715
0.00495508
0.00148444
0.00931085
0.00289254
0.0134658
0.00468954
0.0171642
0.00676746
0.0202559
0.00901946
0.0226775
0.0113573
0.0244399
0.0137115
0.0256225
0.0263504
0.0160141
-2.71331e-05
0.000933076
0.000258618
0.00466933
0.000987948
0.00858152
0.0021794
0.0122744
0.00377754
0.015566
0.00569288
0.0183406
0.00783081
0.0205396
0.0101118
0.0221589
0.0124761
0.0232582
0.0239692
0.0148573
-0.000130421
0.0010635
-7.35664e-06
0.00454627
0.000532997
0.00804117
0.00152938
0.011278
0.00294179
0.0141536
0.00469468
0.0165877
0.00670254
0.0185317
0.00889278
0.0199686
0.0112199
0.0209311
0.0215492
0.0136399
-0.00022279
0.00128629
-0.000229558
0.00455303
0.000170381
0.00764123
0.00102829
0.0104201
0.00231472
0.0128672
0.00396355
0.0149388
0.00589175
0.0166035
0.00802102
0.0178394
0.0102994
0.0186527
0.0191476
0.012701
-0.000294091
0.00158038
-0.000378259
0.0046372
-3.8597e-05
0.00730157
0.000779058
0.00960241
0.00206123
0.011585
0.00374859
0.0132515
0.00575537
0.0145968
0.00797621
0.0156185
0.0102923
0.0163366
0.016923
0.0125168
-0.000334771
0.00191515
-0.000425501
0.00472793
-3.85478e-05
0.00691461
0.000884231
0.00867963
0.00234981
0.0101194
0.004313
0.0112883
0.00669845
0.0122113
0.00937585
0.0129411
0.0121268
0.0135856
0.0137381
0.0153117
0.0168537
0.123929
-0.123639
0.0156953
0.116038
-0.11488
0.0137345
0.109155
-0.107194
0.01146
0.105486
-0.103212
0.00925913
0.104407
-0.102207
0.00718756
0.10559
-0.103518
0.00533269
0.106677
-0.104822
0.00350453
0.109149
-0.107321
0.00181247
0.111348
-0.109656
0.115116
-0.113303
0.0181372
0.123289
0.0174069
0.116768
0.0155127
0.111049
0.0130819
0.107917
0.0106322
0.106857
0.0082702
0.107952
0.00610891
0.108838
0.00399149
0.111266
0.00205717
0.113282
0.117173
0.0190611
0.121646
0.0188656
0.116964
0.0171833
0.112731
0.0147141
0.110386
0.0120836
0.109488
0.00944593
0.110589
0.00697686
0.111307
0.00454577
0.113697
0.00233479
0.115493
0.119508
0.0195914
0.118961
0.0200318
0.116523
0.018699
0.114064
0.0163201
0.112765
0.0135877
0.11222
0.010713
0.113464
0.0079378
0.114082
0.00517619
0.116459
0.00265031
0.118019
0.122158
0.0197451
0.11523
0.0208974
0.115371
0.020032
0.114929
0.0178607
0.114937
0.0151109
0.11497
0.0120481
0.116527
0.0089809
0.117149
0.00588332
0.119557
0.00300542
0.120897
0.125164
0.0195788
0.110509
0.0214817
0.113468
0.021172
0.115239
0.0193053
0.116803
0.0166184
0.117657
0.0134211
0.119724
0.0100884
0.120482
0.00665826
0.122987
0.00339742
0.124158
0.128561
0.0191885
0.10496
0.0218221
0.110834
0.0221261
0.114935
0.0206362
0.118293
0.0180796
0.120213
0.014798
0.123006
0.0112301
0.12405
0.00747605
0.126741
0.00381523
0.127818
0.132376
0.0187185
0.0989425
0.0219558
0.107597
0.0228887
0.114002
0.0218257
0.119356
0.0194646
0.122574
0.0161574
0.126313
0.0124023
0.127805
0.00835508
0.130788
0.0042792
0.131894
0.136655
0.0184206
0.0930388
0.0220258
0.103992
0.0235525
0.112475
0.0229157
0.119993
0.0207654
0.124725
0.0174473
0.129631
0.0135078
0.131744
0.00913543
0.13516
0.00465782
0.136372
0.141313
0.0184117
0.0883652
0.0218827
0.100521
0.0239423
0.110416
0.0238283
0.120107
0.0220267
0.126526
0.0188091
0.132849
0.0148368
0.135717
0.0103359
0.139661
0.00542287
0.141285
0.146736
0.0423958
0.109118
-0.0631491
0.0385918
0.104325
0.0410414
0.107966
0.0424675
0.118681
0.0405947
0.128399
0.0346398
0.138803
0.0250045
0.145352
0.0128367
0.151829
0.00427276
0.149849
0.151009
0.101007
0.128433
-0.120321
0.0830554
0.122276
0.0697466
0.121275
0.0597246
0.128703
0.0519844
0.136139
0.0464097
0.144378
0.0433485
0.148413
0.0415147
0.153663
0.0278044
0.163559
0.178813
0.129539
0.14241
-0.143515
0.11166
0.140155
0.0947958
0.138139
0.0812327
0.142266
0.0671936
0.150178
0.0497777
0.161794
0.0283437
0.169847
0.00812082
0.173886
-1.93635e-05
0.171699
0.178794
0.141154
0.153258
-0.152003
0.125481
0.155828
0.105595
0.158026
0.0857778
0.162083
0.0711211
0.164835
0.0628987
0.170016
0.0567318
0.176014
0.0449376
0.18568
0.0221624
0.194475
0.200956
0.14527
0.163584
-0.155596
0.13396
0.167138
0.123457
0.168529
0.110242
0.175298
0.0892368
0.18584
0.0632264
0.196027
0.0392826
0.199958
0.0227866
0.202176
0.0113068
0.205954
0.212263
0.151263
0.172909
-0.160588
0.135667
0.182734
0.116106
0.188091
0.100851
0.190552
0.0920706
0.194621
0.0841692
0.203928
0.0699905
0.214137
0.0504624
0.221704
0.0270667
0.22935
0.23933
0.158799
0.179031
-0.164921
0.153583
0.187951
0.142313
0.19936
0.120132
0.212734
0.0932261
0.221527
0.0689206
0.228234
0.049033
0.234024
0.0313892
0.239348
0.0158359
0.244903
0.255166
0.159234
0.184041
-0.164244
0.144827
0.202358
0.13612
0.208067
0.130381
0.218472
0.120032
0.231875
0.102167
0.246099
0.0789813
0.25721
0.0524416
0.265888
0.0245031
0.272842
0.279669
0.177044
0.163932
-0.156935
0.17292
0.206482
0.153169
0.227819
0.131347
0.240294
0.110977
0.252245
0.0906802
0.266396
0.0691823
0.278708
0.0463059
0.288764
0.022643
0.296505
0.302312
0.150921
-0.114946
0.170702
0.172856
0.16189
0.143639
0.120775
0.0941918
0.064721
0.0332923
0.0445144
-0.0845364
-0.0231271
0.0534103
-0.129217
0.0559806
-0.146086
0.0564163
-0.152439
0.0562497
-0.155429
0.0557803
-0.160119
0.0531409
-0.162282
0.0473916
-0.158494
0.0350542
-0.144597
-0.102367
0.0491932
-0.103838
-0.0298919
0.0556419
-0.135666
0.0568629
-0.147307
0.0567428
-0.152319
0.056297
-0.154983
0.0549418
-0.158764
0.0510051
-0.158345
0.0434264
-0.150916
0.0304519
-0.131623
-0.0894551
0.051679
-0.11885
-0.0366669
0.0559863
-0.139973
0.056526
-0.147846
0.0562004
-0.151993
0.0554527
-0.154236
0.0532535
-0.156564
0.048109
-0.153201
0.0390032
-0.14181
0.0253818
-0.118001
-0.0765857
0.053076
-0.129375
-0.0425508
0.0557458
-0.142643
0.0558176
-0.147918
0.0552491
-0.151425
0.0540612
-0.153048
0.0508822
-0.153385
0.0444083
-0.146727
0.0339968
-0.131399
0.0201162
-0.104121
-0.0640291
0.0531537
-0.135886
-0.0466421
0.0546501
-0.14414
0.0545063
-0.147774
0.0537323
-0.150651
0.051975
-0.151291
0.047738
-0.149148
0.0400279
-0.139016
0.0285961
-0.119967
0.0147514
-0.0902761
-0.0521123
0.0521143
-0.139565
-0.0484361
0.0529567
-0.144982
0.0527049
-0.147523
0.0516537
-0.149599
0.0491884
-0.148825
0.0438771
-0.143837
0.0350553
-0.130195
0.0229143
-0.107826
0.0093221
-0.0766839
-0.0413134
0.0501418
-0.141634
-0.0480725
0.050676
-0.145516
0.0503323
-0.147179
0.0489276
-0.148195
0.0456713
-0.145569
0.039338
-0.137504
0.0296238
-0.120481
0.0171398
-0.0953416
0.0040335
-0.0635776
-0.0319748
0.0474554
-0.142996
-0.0460937
0.0478737
-0.145934
0.0473992
-0.146704
0.0455545
-0.14635
0.0414766
-0.141491
0.0342415
-0.130269
0.0239006
-0.11014
0.0114403
-0.0828813
-0.000940759
-0.0511965
-0.0242411
0.0442108
-0.144139
-0.0430677
0.0445664
-0.14629
0.0438913
-0.146029
0.0415447
-0.144003
0.0366847
-0.136631
0.0287222
-0.122306
0.018039
-0.0994565
0.00597338
-0.0708157
-0.0049008
-0.0403223
-0.0175848
0.040506
-0.145258
-0.0393864
0.040784
-0.146568
0.039844
-0.145089
0.0369727
-0.141132
0.0314288
-0.131087
0.0229492
-0.113827
0.0121973
-0.0887046
0.00082312
-0.0594415
-0.00870475
-0.0307945
-0.0122055
0.0364056
-0.146384
-0.0352798
0.0365722
-0.146735
0.0353215
-0.143839
0.0319493
-0.13776
0.0258661
-0.125004
0.0170965
-0.105057
0.00652067
-0.0781288
-0.00409342
-0.0488274
-0.0121669
-0.022721
-0.00808577
0.0319277
-0.147478
-0.0308342
0.0319712
-0.146778
0.0304186
-0.142286
0.0266147
-0.133956
0.0201623
-0.118552
0.0113285
-0.0962232
0.00115065
-0.0679509
-0.00851541
-0.0391614
-0.0152116
-0.0160248
-0.00511297
0.0271419
-0.148503
-0.0261168
0.0270718
-0.146708
0.0252674
-0.140482
0.0211365
-0.129825
0.0144959
-0.111911
0.00579909
-0.0875264
-0.00379914
-0.0583527
-0.012395
-0.0305655
-0.0178114
-0.0106084
-0.00311718
0.0221249
-0.149448
-0.0211793
0.0219671
-0.14655
0.0199888
-0.138503
0.0156649
-0.125501
0.00901452
-0.105261
0.000642193
-0.0791541
-0.00825485
-0.0494557
-0.015741
-0.0230793
-0.0199805
-0.00636892
-0.00190097
0.0169317
-0.150303
-0.0160772
0.0167295
-0.146348
0.0146974
-0.136471
0.0103412
-0.121145
0.00384788
-0.0987674
-0.00409487
-0.0712113
-0.0121893
-0.0413612
-0.0185736
-0.016695
-0.0217533
-0.00318925
-0.00125263
0.0116209
-0.151058
-0.0108662
0.0114744
-0.146202
0.00955153
-0.134548
0.00532369
-0.116917
-0.00083387
-0.0926098
-0.00834169
-0.0637035
-0.0155971
-0.0341058
-0.0209316
-0.0113604
-0.0232002
-0.000920737
-0.000980494
0.00646268
-0.151924
-0.00559657
0.0064998
-0.146239
0.00479318
-0.132842
0.000799389
-0.112923
-0.00518023
-0.0866302
-0.012058
-0.0568258
-0.018493
-0.0276708
-0.0228681
-0.00698533
-0.0243935
0.000604697
-0.0009195
0.00160627
-0.153152
-0.000378181
0.00208318
-0.146716
0.000649691
-0.131408
-0.00320585
-0.109068
-0.00886106
-0.080975
-0.0152403
-0.0504465
-0.020921
-0.0219901
-0.0244448
-0.00346149
-0.0253952
0.00155504
-0.000922627
-0.00260643
-0.155548
0.0050021
-0.00204223
-0.14728
-0.00323637
-0.130214
-0.00683442
-0.105469
-0.0121176
-0.0756918
-0.0179821
-0.044582
-0.0229438
-0.0170285
-0.025702
-0.0007033
-0.0262779
0.00213095
-0.000863685
-0.00817362
-0.157648
0.0102745
-0.00726012
-0.148193
-0.00778877
-0.129685
-0.0107372
-0.102521
-0.0153522
-0.0710768
-0.0203933
-0.0395409
-0.0245369
-0.0128849
-0.0267135
0.00147333
-0.0270925
0.00250992
-0.000619084
0.0704574
-0.143592
-0.084514
0.0476125
-0.125348
0.0145379
-0.0966108
-0.026919
-0.0610642
-0.0694945
-0.0285013
-0.100376
-0.00865979
-0.113106
-0.000154807
-0.113646
0.0020138
-0.111468
0.000332302
-0.000741198
0.00296221
-0.11713
-0.029424
-0.0378279
-0.0845583
-0.0808631
-0.0535756
-0.117638
-0.0242895
-0.140017
-0.00612193
-0.147656
-0.00102151
-0.14385
-0.0039599
-0.137689
-0.00414734
-0.136023
-0.00133385
0.000333991
-0.0746484
-0.0821984
0.0397168
-0.115851
-0.0433555
-0.145231
-0.0241961
-0.159735
-0.00978494
-0.160082
-0.00577569
-0.155557
-0.00554556
-0.153798
-0.00571926
-0.1551
-0.00284535
-0.156555
0.000120744
0.000547777
-0.152037
-0.0534625
0.123301
-0.175437
-0.0199546
-0.182896
-0.0167377
-0.183117
-0.00956345
-0.178323
-0.0105702
-0.17597
-0.00789847
-0.177147
-0.00454206
-0.179399
-0.000593104
-0.179711
0.000432792
-6.2909e-05
-0.20283
-0.0356435
0.185011
-0.20634
-0.0164446
-0.201727
-0.0213508
-0.200108
-0.0111828
-0.199493
-0.0111846
-0.202988
-0.00440433
-0.205516
-0.00201364
-0.205848
-0.000261406
-0.204765
-0.000649834
-0.000172677
-0.22626
-0.0286467
0.219264
-0.223523
-0.0191818
-0.224894
-0.0199798
-0.228733
-0.00734417
-0.231465
-0.00845254
-0.234388
-0.00148128
-0.233761
-0.00264031
-0.233208
-0.000814994
-0.232842
-0.00101572
0.000195302
-0.252226
-0.0228945
0.246474
-0.255779
-0.0156288
-0.263327
-0.0124315
-0.265992
-0.0046799
-0.267345
-0.00709915
-0.267755
-0.00107187
-0.2671
-0.00329482
-0.267793
-0.00012201
-0.267647
-0.00116148
0.000352992
-0.303275
-0.015821
0.296201
-0.309185
-0.0097185
-0.313471
-0.00814602
-0.313632
-0.00451806
-0.315705
-0.00502686
-0.315962
-0.000814808
-0.316725
-0.00253146
-0.317083
0.000236053
-0.31647
-0.00177472
0.000415761
-0.371224
-0.00845943
0.363862
-0.375366
-0.00557643
-0.379174
-0.00433813
-0.381833
-0.00185907
-0.384183
-0.00267629
-0.384075
-0.000923021
-0.385573
-0.00103348
-0.384991
-0.000346435
-0.385185
-0.00158071
0.000592109
-0.425738
0.417278
-0.431314
-0.435652
-0.437511
-0.440188
-0.441111
-0.442144
-0.44249
-0.444071
-0.0244819
-0.0763643
0.0163322
-0.0317039
-0.022202
-0.0349576
0.0429706
-0.0353905
0.123734
-0.0327642
0.182385
-0.0293351
0.215834
-0.0254649
0.242604
-0.0197468
0.290483
-0.0117486
0.355864
0.40553
-0.028867
-0.0683602
0.0208628
-0.0339685
-0.0171005
-0.0350017
0.0440038
-0.0336824
0.122414
-0.0303897
0.179092
-0.0269899
0.212435
-0.023235
0.238849
-0.0177194
0.284968
-0.0102355
0.34838
0.395294
-0.0325625
-0.0610751
0.0252774
-0.0362337
-0.0134292
-0.0359321
0.0437023
-0.0332835
0.119766
-0.0292325
0.175041
-0.0257492
0.208951
-0.0221454
0.235245
-0.016865
0.279687
-0.00954613
0.341061
0.385748
-0.0358757
-0.0543957
0.0291963
-0.0382563
-0.0110486
-0.0368574
0.0423033
-0.0330146
0.115923
-0.0281774
0.170204
-0.0244717
0.205246
-0.020945
0.231718
-0.0158827
0.274625
-0.00882491
0.334003
0.376923
-0.0387748
-0.0483076
0.0326867
-0.0401285
-0.00969498
-0.03775
0.0399248
-0.0327053
0.110878
-0.0271924
0.164691
-0.0232962
0.201349
-0.0197769
0.228199
-0.0148991
0.269747
-0.00815086
0.327255
0.368772
-0.0412673
-0.0427037
0.0356634
-0.0418844
-0.00907789
-0.0386792
0.0367196
-0.0324235
0.104623
-0.02623
0.158497
-0.0221836
0.197303
-0.0186675
0.224683
-0.0139622
0.265042
-0.00753845
0.320831
0.361234
-0.0433137
-0.0374828
0.0380927
-0.0435012
-0.00889034
-0.0396817
0.0329001
-0.0322972
0.0972379
-0.0253606
0.151561
-0.0210945
0.193037
-0.0175924
0.221181
-0.0130725
0.260522
-0.00697291
0.314732
0.354261
-0.0448613
-0.0325541
0.0399326
-0.0449152
-0.00883648
-0.0407577
0.0287426
-0.0324256
0.0889059
-0.0246984
0.143834
-0.0200611
0.1884
-0.0165458
0.217666
-0.0122242
0.2562
-0.00644479
0.308952
0.347816
-0.0458456
-0.0278621
0.0411536
-0.0460299
-0.00865219
-0.0418647
0.0245774
-0.0328798
0.079921
-0.0243359
0.13529
-0.0191447
0.183208
-0.0155577
0.214079
-0.0114285
0.252071
-0.0059559
0.30348
0.34186
-0.0462051
-0.0233973
0.0417404
-0.0467243
-0.00813307
-0.0429091
0.0207622
-0.0336774
0.0706893
-0.0243393
0.125952
-0.0183871
0.177256
-0.0146678
0.210359
-0.010715
0.248118
-0.00552946
0.298294
0.336331
-0.0459102
-0.0191928
0.0417056
-0.0469434
-0.00709985
-0.0437648
0.0175836
-0.0348208
0.0617453
-0.024759
0.11589
-0.0178297
0.170327
-0.0139017
0.206431
-0.0101129
0.24433
-0.00517353
0.293355
0.331157
-0.0451182
-0.0152062
0.0411316
-0.0466772
-0.00554084
-0.0443704
0.0152768
-0.0362368
0.0536117
-0.0256799
0.105333
-0.0176205
0.162267
-0.0133012
0.202112
-0.00964453
0.240673
-0.00490605
0.288616
0.326251
-0.043875
-0.0114321
0.0401009
-0.0458566
-0.00355921
-0.0445471
0.0139673
-0.0376614
0.046726
-0.02707
0.0947416
-0.0178501
0.153048
-0.0129269
0.197189
-0.00931172
0.237058
-0.00468908
0.283994
0.321562
-0.0422076
-0.00790352
0.0386791
-0.0444786
-0.00128822
-0.0441474
0.0136361
-0.0388014
0.04138
-0.0287654
0.0847056
-0.0185682
0.14285
-0.0128054
0.191426
-0.00914257
0.233395
-0.0045797
0.279431
0.316982
-0.0401795
-0.00465642
0.0369324
-0.0426017
0.001134
-0.043106
0.0141403
-0.0394022
0.0376762
-0.0305268
0.0758303
-0.0197744
0.132098
-0.0129653
0.184617
-0.00906136
0.229491
-0.00452429
0.274894
0.312458
-0.0378777
-0.00171291
0.0349342
-0.040313
0.00356932
-0.0414441
0.0152714
-0.0392985
0.0355306
-0.0320626
0.0685944
-0.0213897
0.121425
-0.013498
0.176725
-0.00913638
0.225129
-0.00455091
0.270308
0.307907
-0.0353893
0.000918273
0.0327581
-0.0377175
0.00589747
-0.0392518
0.0168057
-0.0384353
0.0347142
-0.0330839
0.063243
-0.0232024
0.111544
-0.0143549
0.167878
-0.0092013
0.219976
-0.00460679
0.265714
0.3033
-0.0327901
0.00324333
0.0304651
-0.0349305
0.00803784
-0.0366629
0.018538
-0.0368663
0.0349176
-0.0333933
0.05977
-0.0249799
0.10313
-0.0156884
0.158586
-0.00952334
0.213811
-0.00454746
0.260738
0.298753
-0.0301538
0.00529847
0.0280987
-0.0320603
0.00994433
-0.0338217
0.0202995
-0.0347148
0.0358106
-0.0328757
0.0579309
-0.0262624
0.0965167
-0.0170203
0.149344
-0.00984193
0.206632
-0.00472668
0.255623
0.294026
-0.0273259
0.00693577
0.0256886
-0.0289904
0.0116089
-0.0306922
0.0220012
-0.0320686
0.0371871
-0.0316983
0.0575606
-0.0273644
0.0921828
-0.0191549
0.141135
-0.0106999
0.198177
-0.0044338
0.249357
0.289592
-0.128165
0.0125618
0.122539
-0.135066
0.0185097
-0.143416
0.030352
-0.151306
0.0450769
-0.156625
0.0628794
-0.152781
0.0883389
-0.132411
0.120764
-0.0952532
0.16102
-0.0470472
0.201151
0.242545
-0.119186
0.0156727
0.116075
-0.123241
0.0225647
-0.127509
0.0346206
-0.13078
0.0483475
-0.132678
0.0647781
-0.130046
0.0857067
-0.118301
0.109019
-0.0931002
0.13582
-0.0535103
0.161561
0.189035
-0.109711
0.0168638
0.10852
-0.111524
0.0243772
-0.112656
0.0357528
-0.112351
0.0480424
-0.110272
0.062699
-0.104529
0.0799638
-0.0929698
0.0974595
-0.0729099
0.11576
-0.0430205
0.131671
0.146015
-0.10102
0.016595
0.101288
-0.10108
0.0244376
-0.0998645
0.0345372
-0.0969832
0.045161
-0.0920187
0.0577346
-0.0839068
0.0718519
-0.0715645
0.0851172
-0.053977
0.0981722
-0.0306145
0.108309
0.1154
-0.0929313
0.0163594
0.0931668
-0.0917254
0.0232317
-0.0890607
0.0318725
-0.0846452
0.0407455
-0.0780229
0.0511123
-0.0687395
0.0625684
-0.0564344
0.0728121
-0.0409863
0.0827241
-0.0224033
0.0897257
0.0929967
-0.0854369
0.0153717
0.0864246
-0.0833823
0.021177
-0.0798207
0.0283109
-0.0745379
0.0354627
-0.0671233
0.0436978
-0.0574236
0.0528687
-0.045601
0.0609895
-0.0316552
0.0687783
-0.0164555
0.074526
0.0765412
-0.0793973
0.0140969
0.0806721
-0.076587
0.0183667
-0.0722892
0.0240132
-0.0663394
0.0295128
-0.0584897
0.035848
-0.048568
0.042947
-0.0372537
0.0496753
-0.0246662
0.0561908
-0.0123164
0.0621763
0.0642248
-0.075457
0.0120215
0.0775324
-0.0717699
0.0146797
-0.0665499
0.0187932
-0.0598449
0.0228079
-0.0515809
0.027584
-0.0415995
0.0329656
-0.0312722
0.0393479
-0.019447
0.0443656
-0.0100907
0.05282
0.054134
-0.0902178
0.00586333
0.0963759
-0.0833564
0.00781824
-0.0744129
0.00984972
-0.0639897
0.0123846
-0.0515879
0.0151823
-0.0363553
0.017733
-0.0205424
0.023535
-0.00292926
0.0267525
0.0138506
0.0360401
0.0679847
-0.21728
0.223143
-0.209462
-0.199612
-0.187228
-0.172045
-0.154312
-0.130777
-0.104025
-0.0679847
-0.0190177
0.118704
0.0228524
-0.0152746
0.112331
-0.011884
0.10513
-0.00873821
0.0981427
-0.00601244
0.0904411
-0.00374482
0.084157
-0.00188303
0.0788103
-0.0010806
0.07673
-0.00195076
0.0972461
0.221193
-0.0176977
0.116071
0.0203305
-0.0144229
0.109057
-0.0112779
0.101985
-0.008308
0.0951728
-0.0057287
0.0878618
-0.00357687
0.0820052
-0.00182477
0.0770582
-0.00108634
0.0759916
-0.00180614
0.0979659
0.219387
-0.0155548
0.113737
0.0178893
-0.0128562
0.106358
-0.0101501
0.0992787
-0.00751627
0.0925389
-0.0052122
0.0855577
-0.00326335
0.0800563
-0.00168474
0.0754796
-0.00103036
0.0753372
-0.001622
0.0985575
0.217765
-0.0135709
0.111715
0.0155928
-0.0113209
0.104108
-0.00900656
0.0969644
-0.00669467
0.090227
-0.00466519
0.0835282
-0.0029168
0.0783079
-0.00151354
0.0740763
-0.000932127
0.0747558
-0.00139566
0.0990211
0.216369
-0.0119113
0.110157
0.0134689
-0.0100313
0.102228
-0.00800004
0.0949331
-0.00593747
0.0881644
-0.00413359
0.0817243
-0.00256119
0.0767355
-0.00131953
0.0728347
-0.000790508
0.0742267
-0.00113408
0.0993646
0.215235
-0.0103737
0.10902
0.0115111
-0.00882702
0.100682
-0.00705094
0.093157
-0.00520783
0.0863213
-0.00360363
0.0801201
-0.00219369
0.0753256
-0.00110095
0.0717419
-0.000607112
0.0737329
-0.000840892
0.0995984
0.214394
-0.00891334
0.108213
0.00972061
-0.00764414
0.0994123
-0.00611441
0.0916273
-0.00448164
0.0846886
-0.00306589
0.0787044
-0.00181181
0.0740715
-0.000856847
0.0707869
-0.00038592
0.073262
-0.000521595
0.0997341
0.213872
-0.00754407
0.107661
0.00809565
-0.00649153
0.0983598
-0.00519373
0.0903295
-0.00376289
0.0832577
-0.00252467
0.0774662
-0.00141927
0.0729661
-0.000590158
0.0699578
-0.0001327
0.0728045
-0.000185285
0.0997867
0.213687
-0.00627655
0.107304
0.00663316
-0.00538693
0.0974702
-0.00430194
0.0892445
-0.00306367
0.0820195
-0.00198926
0.0763918
-0.00102277
0.0719996
-0.00030668
0.0692417
0.000148137
0.0723497
0.000183697
0.0997511
0.213871
-0.00511696
0.107094
0.00532748
-0.00434752
0.0967007
-0.00345001
0.088347
-0.0023955
0.080965
-0.00146871
0.075465
-0.000630599
0.0711615
-1.97016e-05
0.0686308
0.000447411
0.0718826
0.000578814
0.0996197
0.21445
-0.00406844
0.10699
0.00417238
-0.00339743
0.0960297
-0.0026523
0.0876019
-0.00177209
0.0800847
-0.000973841
0.0746667
-0.000244844
0.0704325
0.000311444
0.0680746
0.000758249
0.0714358
0.000973696
0.0994043
0.215423
-0.00309841
0.106973
0.00311512
-0.0025272
0.0954585
-0.00189964
0.0869743
-0.00117546
0.0793606
-0.000503741
0.073995
0.000137291
0.0697915
0.000626287
0.0675856
0.00107621
0.0709859
0.00137148
0.099109
0.216795
-0.00217548
0.107039
0.00210994
-0.00170601
0.094989
-0.00118992
0.0864582
-0.000609013
0.0787797
-3.81276e-05
0.0734241
0.000489691
0.0692637
0.000931209
0.067144
0.00139494
0.0705221
0.00176644
0.0987375
0.218561
-0.00126162
0.107209
0.00109133
-0.00091111
0.0946385
-0.000521865
0.086069
-5.89399e-05
0.0783167
0.000357639
0.0730075
0.000820657
0.0688007
0.00122328
0.0667414
0.00170992
0.0700355
0.00215323
0.0982942
0.220714
-0.000347098
0.107561
-5.06131e-06
-9.75644e-05
0.094389
0.00010628
0.0858651
0.000391485
0.0780315
0.000724882
0.0726741
0.00112358
0.068402
0.00150173
0.0663633
0.00201646
0.0695208
0.00252414
0.0977865
0.223239
0.000611702
0.10797
-0.00102002
0.000602487
0.0943982
0.000658117
0.0858095
0.000813472
0.0778762
0.00105309
0.0724345
0.00139271
0.0680623
0.00175952
0.0659965
0.00230986
0.0689704
0.0028729
0.0972235
0.226111
0.00157736
0.108452
-0.00205967
0.00132314
0.0946524
0.00118979
0.0859428
0.00119829
0.0778677
0.00133932
0.0722935
0.00162252
0.0677791
0.00199005
0.0656289
0.00258528
0.0683752
0.00318593
0.0966228
0.229297
0.00243428
0.109016
-0.00299856
0.00201384
0.0950729
0.00168581
0.0862709
0.00154289
0.0780106
0.00158127
0.0722551
0.00180783
0.0675526
0.00218708
0.0652497
0.00283866
0.0677236
0.00346133
0.0960002
0.232759
0.00338949
0.109621
-0.00399399
0.00276334
0.095699
0.00218378
0.0868504
0.00185989
0.0783345
0.00178109
0.0723339
0.00194486
0.0673888
0.00234473
0.0648498
0.00306662
0.0670017
0.00368518
0.0953816
0.236444
0.00374524
0.110388
-0.00451275
0.00324585
0.0961984
0.00253597
0.0875603
0.00207973
0.0787907
0.00190909
0.0725046
0.00202023
0.0672777
0.00245351
0.0644165
0.00325597
0.0661993
0.00388103
0.0947566
0.240325
-0.0718294
0.0917451
0.0904724
-0.0553652
0.0797342
-0.0440088
0.0762039
-0.0332959
0.0680778
-0.0241619
0.0633706
-0.0153887
0.0585044
-0.0070514
0.0560793
-0.000704778
0.0598526
0.000937506
0.0931143
0.241262
-0.077151
0.0754818
0.0934143
-0.0630507
0.0656339
-0.0515119
0.064665
-0.0396054
0.0561713
-0.0294425
0.0532078
-0.019438
0.0484999
-0.0101903
0.0468316
-0.00295582
0.0526182
0.00013321
0.0900252
0.241396
-0.0807106
0.0586336
0.0975588
-0.0678188
0.052742
-0.0558749
0.0527212
-0.0445842
0.0448805
-0.033719
0.0423426
-0.0232484
0.0380292
-0.0135365
0.0371197
-0.00575472
0.0448364
-0.00190926
0.0861798
0.239486
-0.0833676
0.0473807
0.0946204
-0.0717046
0.041079
-0.0595075
0.0405242
-0.0490314
0.0344045
-0.0375159
0.0308271
-0.026438
0.0269513
-0.0157811
0.0264628
-0.00695123
0.0360065
-0.00179208
0.0810206
0.237694
-0.0854285
0.0365314
0.0962779
-0.0747229
0.0303734
-0.0631493
0.0289505
-0.0532682
0.0245234
-0.0416072
0.0191661
-0.0302154
0.0155595
-0.0189777
0.015225
-0.00963299
0.0266618
-0.00389721
0.0752849
0.233797
-0.0878961
0.0287003
0.0957272
-0.0785
0.0209774
-0.0680463
0.0184968
-0.0581591
0.0146362
-0.046114
0.00712096
-0.0334194
0.00286497
-0.0202795
0.00208517
-0.00961201
0.0159943
-0.00434756
0.0700204
0.22945
-0.090075
0.0194893
0.099286
-0.0817039
0.0126063
-0.0727736
0.00956648
-0.0633052
0.00516774
-0.0521329
-0.00405129
-0.0392833
-0.00998459
-0.0260371
-0.011161
-0.0162051
0.00616227
-0.0106297
0.064445
0.21882
-0.0938875
0.0126439
0.100733
-0.0873021
0.00602087
-0.0802888
0.00255322
-0.0721398
-0.00298123
-0.0625928
-0.0135984
-0.0515718
-0.0210056
-0.0410778
-0.0216551
-0.0318981
-0.00301738
-0.0251433
0.0576901
0.193677
-0.0960384
0.00529603
0.103386
-0.0914373
0.00141984
-0.0873663
-0.0015178
-0.0835513
-0.00679626
-0.0812223
-0.0159273
-0.0800464
-0.0221815
-0.0815881
-0.0201134
-0.0855484
0.000942876
-0.067095
0.0392368
0.126582
-0.101645
0.106941
-0.100225
-0.101743
-0.108539
-0.124466
-0.146648
-0.166761
-0.165818
-0.126582
0.00190477
0.0942172
-0.00564959
-0.000696097
0.0960152
-0.00117129
0.098034
-0.00121304
0.0946621
-0.0009252
0.09599
-0.000917857
0.0957199
-0.000732185
0.0991003
-0.000608393
0.100609
-0.000388463
0.103166
0.106552
0.0026947
0.0985074
-0.00698485
-4.6162e-05
0.0987561
-0.000412588
0.0984004
-0.000495091
0.0947446
-0.000256885
0.0957518
-0.000347772
0.0958107
-0.000229159
0.0989817
-0.000233804
0.100614
-0.000164113
0.103097
0.106388
0.00385281
0.102841
-0.00818644
0.00136358
0.101245
0.000828573
0.0989354
0.000567343
0.0950059
0.000683001
0.0956362
0.000403947
0.0960898
0.00039191
0.0989937
0.000208464
0.100797
7.78835e-05
0.103227
0.106466
0.00510708
0.107065
-0.00933086
0.00277825
0.103574
0.00218928
0.0995244
0.00177736
0.0954178
0.00166101
0.0957525
0.00122814
0.0965227
0.00102481
0.099197
0.000675691
0.101146
0.000326332
0.103577
0.106793
0.00647854
0.111079
-0.0104927
0.00428898
0.105764
0.00358468
0.100229
0.00298132
0.0960211
0.0026409
0.0960929
0.00202808
0.0971355
0.00164278
0.0995823
0.00111035
0.101679
0.000560923
0.104126
0.107353
0.00802967
0.114752
-0.0117024
0.00595138
0.107842
0.0050594
0.101121
0.00422162
0.0968589
0.00362929
0.0966853
0.00282169
0.0979431
0.00224262
0.100161
0.00152201
0.102399
0.000782581
0.104865
0.108136
0.00975446
0.117952
-0.012955
0.00777578
0.109821
0.00664064
0.102256
0.0055214
0.0979782
0.00464167
0.097565
0.00361911
0.0989656
0.00282789
0.100953
0.00191444
0.103313
0.000992255
0.105788
0.109128
0.0115984
0.120566
-0.0142121
0.00973323
0.111686
0.00832913
0.10366
0.00689407
0.0994132
0.00569283
0.0987663
0.00443439
0.100224
0.00340836
0.101979
0.00229485
0.104426
0.00119244
0.10689
0.110321
0.0134749
0.122492
-0.015401
0.0117651
0.113396
0.0101023
0.105323
0.00834586
0.10117
0.00679742
0.100315
0.00528684
0.101735
0.00400382
0.103262
0.00267543
0.105755
0.00138937
0.108176
0.11171
0.0152715
-0.0164189
0.0137875
0.0119165
0.00987431
0.00798236
0.00619893
0.00463886
0.00307289
0.0015934
-0.000338108
0.00225326
-0.000348404
0.00473823
0.000212342
0.00635387
0.00142848
0.0074635
0.00331081
0.00823712
0.00584503
0.00875406
0.00901054
0.0090458
0.012796
0.00915567
0.0174101
0.00897152
0.00959478
-0.000293606
0.00254686
-0.000121232
0.00456585
0.000761292
0.00547134
0.00245288
0.00577191
0.00497044
0.00571956
0.00830465
0.00541985
0.0124434
0.00490708
0.0173929
0.00420615
0.0231835
0.00318091
0.00288636
-0.00020109
0.00274795
0.000252098
0.00411266
0.00161224
0.0041112
0.00396125
0.0034229
0.00729595
0.00238485
0.0115687
0.00114715
0.016707
-0.000231222
0.0226329
-0.00171983
0.0292117
-0.0033979
-0.00456877
-4.98384e-05
0.00279779
0.000784368
0.00327846
0.00276201
0.00213356
0.00591553
0.000269372
0.0101709
-0.00187053
0.015391
-0.00407297
0.0214071
-0.00624728
0.0280341
-0.00834685
0.0350403
-0.0104041
-0.0120793
0.000139278
0.00265851
0.00146615
0.00195158
0.00417932
-0.000579602
0.00821188
-0.00376319
0.0133594
-0.00701802
0.0193536
-0.0100672
0.0259182
-0.0128119
0.0327847
-0.0152133
0.0396987
-0.017318
-0.0190227
0.000377943
0.00228057
0.00228258
4.69441e-05
0.00579324
-0.00409026
0.0106625
-0.00863246
0.0165025
-0.012858
0.0229107
-0.0164754
0.0295388
-0.0194401
0.0361123
-0.0217867
0.0424342
-0.0236399
-0.0250247
0.000663714
0.00161686
0.00320194
-0.00249128
0.00748551
-0.00837383
0.0130056
-0.0141525
0.0191844
-0.0190368
0.0255435
-0.0228345
0.0317503
-0.0256469
0.0376167
-0.0276531
0.0430582
-0.0290814
-0.030039
0.000989388
0.000627468
0.00417215
-0.00567404
0.00909541
-0.0132971
0.0149545
-0.0200117
0.0210501
-0.0251324
0.0269352
-0.0287195
0.0323914
-0.0311032
0.0373706
-0.0326322
0.0419089
-0.0336197
-0.0342238
0.001344
-0.000716532
0.00511871
-0.00944875
0.010445
-0.0186233
0.016273
-0.0258397
0.0219105
-0.0307699
0.0270493
-0.0338583
0.0316368
-0.0356906
0.0357561
-0.0367515
0.0395238
-0.0373875
-0.0377677
0.00170898
-0.00242551
0.00595092
-0.0136907
0.0113793
-0.0240517
0.0168364
-0.0312968
0.0217697
-0.0357032
0.0260653
-0.0381539
0.0298229
-0.0394482
0.0332057
-0.0401344
0.036355
-0.0405367
-0.0407991
0.00208785
-0.00451336
0.00663719
-0.01824
0.0118792
-0.0292938
0.0167225
-0.0361401
0.0208403
-0.0398211
0.0243085
-0.0416221
0.027328
-0.0424677
0.0300871
-0.0428935
0.0327113
-0.0431609
-0.0433676
0.00240965
-0.00692302
0.00702831
-0.0228587
0.0118221
-0.0340875
0.0159098
-0.0402279
0.0192068
-0.043118
0.0219284
-0.0443438
0.024318
-0.0448573
0.0265474
-0.0451228
0.0287067
-0.0453203
-0.0454951
0.00265462
-0.00957764
0.0071142
-0.0273183
0.011282
-0.0382553
0.0145645
-0.0435104
0.0170878
-0.0456412
0.019148
-0.046404
0.0209847
-0.046694
0.022733
-0.0468711
0.0244432
-0.0470305
-0.0471687
0.00279351
-0.0123712
0.00689099
-0.0314157
0.010331
-0.0416953
0.0128177
-0.0459972
0.0146333
-0.0474568
0.0161025
-0.0478732
0.017434
-0.0480255
0.0187211
-0.0481582
0.0199788
-0.0482883
-0.0483691
0.00280802
-0.0151792
0.00638531
-0.034993
0.0090549
-0.0443649
0.010785
-0.0477273
0.011956
-0.0486279