/*--------------------------------*- C++ -*----------------------------------*\
  =========                 |
  \\      /  F ield         | OpenFOAM: The Open Source CFD Toolbox
   \\    /   O peration     | Website:  https://openfoam.org
    \\  /    A nd           | Version:  7
     \\/     M anipulation  |
\*---------------------------------------------------------------------------*/
FoamFile
{
    version     2.0;
    format      ascii;
    class       volVectorField;
    location    "8";
    object      U;
}
// * * * * * * * * * * * * * * * * * * * * * * * * * * * * * * * * * * * * * //

dimensions      [0 1 -1 0 0 0 0];

internalField   nonuniform List<vector> 
2000
(
(0.00208679 0.0202618 -3.85108e-21)
(0.0135977 0.0848877 0)
(0.0345175 0.153173 0)
(0.0569912 0.215811 -1.9687e-20)
(0.078043 0.267682 6.67742e-21)
(0.0957543 0.306881 4.91715e-22)
(0.10947 0.33384 -1.15492e-20)
(0.119364 0.350276 0)
(0.12601 0.358388 0)
(0.131033 0.360233 0)
(0.000289114 0.0162445 0)
(0.005315 0.0746926 -1.50674e-20)
(0.0188027 0.138411 1.38932e-20)
(0.0350899 0.198413 2.63935e-20)
(0.0518737 0.249714 0)
(0.0673232 0.290009 2.46784e-20)
(0.0804908 0.319106 -2.29482e-20)
(0.0911171 0.338132 0)
(0.0992735 0.348855 4.43626e-20)
(0.105849 0.353117 -8.48777e-20)
(-0.00113416 0.0129003 0)
(-0.0018245 0.0653493 1.21294e-19)
(0.00483672 0.123927 0)
(0.0151839 0.180293 1.06472e-19)
(0.0275211 0.229837 0)
(0.0402103 0.270104 -9.66365e-20)
(0.0521716 0.30045 0)
(0.062852 0.321493 9.10254e-20)
(0.0719203 0.334572 -8.52501e-20)
(0.0794035 0.34121 -8.3434e-20)
(-0.00239621 0.0102975 -3.19444e-20)
(-0.00816575 0.0570079 -6.03162e-20)
(-0.00765263 0.110023 -2.82442e-20)
(-0.00279638 0.161942 -5.23979e-20)
(0.00517535 0.208682 -4.99491e-20)
(0.0148425 0.247835 4.75786e-20)
(0.0251062 0.27847 4.56211e-20)
(0.0352516 0.300804 -1.40814e-21)
(0.0446585 0.315794 8.46004e-20)
(0.0524187 0.32455 8.34948e-20)
(-0.00370872 0.00848501 -3.2182e-20)
(-0.0140134 0.0497599 -6.18114e-20)
(-0.0188856 0.0969345 -1.15953e-19)
(-0.0188806 0.143797 5.32881e-20)
(-0.0149372 0.186882 0)
(-0.00829159 0.223954 0)
(3.60269e-06 0.253935 -9.38065e-20)
(0.00918648 0.276744 -9.0015e-20)
(0.0184606 0.293023 8.49242e-20)
(0.0259836 0.303408 2.48503e-19)
(-0.00526482 0.00746872 3.25942e-20)
(-0.0195861 0.0436217 3.14222e-20)
(-0.0289594 0.0848319 -1.74832e-19)
(-0.0329655 0.126262 2.7269e-19)
(-0.0324532 0.165094 -5.06233e-20)
(-0.0285457 0.19933 0)
(-0.0222283 0.227834 0)
(-0.0142224 0.250309 4.44572e-19)
(-0.00538725 0.26713 -4.23445e-19)
(0.0015894 0.27844 8.23963e-20)
(-0.00721479 0.00718839 2.63913e-19)
(-0.0249779 0.0385426 0)
(-0.0377872 0.0738515 2.32469e-19)
(-0.0447266 0.109749 -2.17904e-19)
(-0.046754 0.144057 0)
(-0.044969 0.175019 9.87899e-20)
(-0.0403084 0.201489 -2.77966e-19)
(-0.0334159 0.222988 -3.55534e-19)
(-0.0251104 0.239614 1.67192e-19)
(-0.0187486 0.251006 1.63057e-19)
(-0.00963774 0.00751828 -5.29921e-19)
(-0.0301249 0.0344163 -6.35465e-20)
(-0.0450604 0.0641069 -1.1879e-19)
(-0.0535607 0.0947094 -2.76846e-19)
(-0.0568647 0.124633 -1.05115e-19)
(-0.0561468 0.152334 -1.00072e-19)
(-0.0523446 0.176678 -7.34122e-22)
(-0.0460703 0.196993 0)
(-0.0380797 0.213005 0)
(-0.0322183 0.223708 -2.40243e-21)
(-0.0125254 0.0082739 2.66013e-19)
(-0.034792 0.0310804 -2.55465e-19)
(-0.0502368 0.0556928 1.76868e-19)
(-0.0585818 0.0816405 3.89975e-19)
(-0.0614388 0.107799 -1.04009e-19)
(-0.0601567 0.132828 9.85478e-20)
(-0.0557491 0.155652 9.39992e-20)
(-0.0489603 0.175434 0)
(-0.0406908 0.191451 0)
(-0.0358946 0.20162 1.15529e-21)
(-0.0157692 0.00922514 -3.35329e-20)
(-0.0385801 0.0283398 3.20027e-19)
(-0.0525762 0.0487099 -5.94965e-20)
(-0.0586816 0.0710548 0)
(-0.0588729 0.0945309 0)
(-0.0547361 0.118062 1.98832e-19)
(-0.0474211 0.140737 0)
(-0.0380556 0.161876 -1.77474e-19)
(-0.0280514 0.181271 -4.70894e-22)
(-0.0289251 0.195384 1.58311e-19)
(0.131763 0.353283 3.45811e-21)
(0.132335 0.329423 -3.51403e-21)
(0.117749 0.308523 -3.70719e-21)
(0.107545 0.29762 -3.82506e-21)
(0.0796628 0.294672 -3.96816e-21)
(0.0758922 0.298307 -3.5776e-24)
(0.0426977 0.301801 2.0161e-21)
(0.0486317 0.308938 6.22138e-21)
(0.00993206 0.315532 0)
(0.0217798 0.326111 -4.25217e-21)
(0.115775 0.349962 1.28091e-20)
(0.125682 0.329981 -1.44437e-20)
(0.116166 0.312371 2.56061e-20)
(0.108008 0.302877 3.83162e-21)
(0.0806204 0.300048 7.73673e-21)
(0.0760798 0.303427 1.19284e-20)
(0.0429237 0.306491 -4.07231e-21)
(0.04766 0.313524 -4.14131e-21)
(0.00956951 0.319803 8.28275e-21)
(0.0213876 0.330678 4.24232e-21)
(0.0977978 0.343444 0)
(0.116982 0.328586 -1.40428e-20)
(0.113224 0.315162 -7.36247e-21)
(0.108221 0.30768 0)
(0.0819675 0.305274 -2.32738e-20)
(0.0771127 0.308564 7.70642e-21)
(0.0439572 0.311244 7.86233e-21)
(0.0473883 0.318136 2.42405e-20)
(0.00968391 0.323945 -8.25582e-21)
(0.0210487 0.335081 1.65146e-20)
(0.078182 0.333693 0)
(0.106294 0.32502 1.41642e-20)
(0.108819 0.316514 0)
(0.107985 0.311691 3.01012e-20)
(0.0835466 0.310114 -3.02521e-20)
(0.0789269 0.313619 -1.56347e-20)
(0.0458154 0.316026 -1.61705e-22)
(0.0479177 0.322807 -2.40049e-20)
(0.010371 0.328043 -4.01706e-21)
(0.0207936 0.33945 -2.04736e-20)
(0.0576561 0.32075 3.31934e-21)
(0.0940557 0.31913 -4.04544e-20)
(0.103134 0.316152 7.00197e-22)
(0.107238 0.314609 -2.93004e-20)
(0.0852193 0.314368 0)
(0.0813893 0.318484 -1.54613e-20)
(0.0484246 0.320814 -1.45858e-22)
(0.0492542 0.327569 3.15458e-20)
(0.0116626 0.332175 3.97299e-21)
(0.0206545 0.34375 -3.98853e-21)
(0.0373025 0.304788 -1.06385e-19)
(0.0809948 0.310789 6.92863e-20)
(0.0965857 0.313801 2.9157e-20)
(0.106075 0.31611 -2.91311e-20)
(0.0869092 0.317776 -1.48761e-20)
(0.0843569 0.322976 0)
(0.0516741 0.325503 -3.07026e-20)
(0.0513528 0.332374 1.53092e-20)
(0.0135323 0.336465 1.55296e-20)
(0.0206362 0.348454 1.55413e-20)
(0.0185224 0.286367 -1.34941e-20)
(0.0679506 0.300306 0)
(0.0896734 0.309572 0)
(0.104681 0.316234 0)
(0.0885988 0.320354 -1.50261e-20)
(0.0876581 0.327114 2.98523e-20)
(0.0553622 0.330163 3.04627e-20)
(0.0540097 0.337334 -4.56403e-20)
(0.0158236 0.340871 7.63372e-21)
(0.02074 0.352626 -2.29577e-20)
(0.0034708 0.265767 8.08966e-20)
(0.0561932 0.287278 5.77538e-20)
(0.0830437 0.302806 -5.71894e-20)
(0.103328 0.314391 5.91222e-20)
(0.0903475 0.321569 -7.32485e-20)
(0.0913019 0.330449 0)
(0.059527 0.334349 -1.48441e-20)
(0.0574098 0.342084 1.77583e-22)
(0.0187931 0.345772 -1.4816e-20)
(0.0210469 0.359066 -1.4775e-20)
(-0.00612368 0.246086 -6.87004e-20)
(0.0466465 0.274732 0)
(0.0774308 0.295481 -6.60513e-20)
(0.102484 0.311975 1.17093e-19)
(0.0922843 0.322484 -4.34865e-20)
(0.0948801 0.333854 -7.32802e-21)
(0.0634763 0.339038 1.48119e-20)
(0.0602882 0.347477 5.83468e-23)
(0.0207847 0.350181 2.18834e-20)
(0.0210219 0.36074 2.17527e-20)
(-0.00562716 0.22114 -5.76933e-20)
(0.0410864 0.256253 5.66266e-20)
(0.0719529 0.282828 7.22038e-21)
(0.101486 0.305628 0)
(0.0944074 0.320252 0)
(0.0995747 0.334815 7.17445e-21)
(0.0690765 0.341351 2.84868e-20)
(0.0664591 0.351363 -2.79605e-20)
(0.0274637 0.357168 -6.95371e-21)
(0.0227541 0.375639 6.83519e-21)
(0.0989834 0.232506 0)
(0.0972986 0.237333 0)
(0.0966426 0.261144 0)
(0.112299 0.295341 0)
(0.102223 0.321925 0)
(0.104688 0.346099 0)
(0.0713913 0.359381 0)
(0.0573217 0.368886 0)
(0.00663061 0.359254 0)
(0.0135403 0.341496 0)
(0.268546 0.303493 0)
(0.229387 0.284376 0)
(0.186298 0.28217 0)
(0.169289 0.304692 0)
(0.132096 0.325758 0)
(0.132304 0.351533 0)
(0.101324 0.366942 0)
(0.116194 0.393281 0)
(0.096714 0.414499 0)
(0.0497691 0.452865 0)
(0.343578 0.347805 0)
(0.302989 0.336105 0)
(0.255107 0.331712 0)
(0.226622 0.348383 0)
(0.184967 0.372435 0)
(0.158812 0.396463 0)
(0.0950546 0.405028 0)
(0.0498873 0.401419 0)
(-0.0113097 0.398327 0)
(0.0118994 0.422541 0)
(0.369218 0.374652 0)
(0.338556 0.375399 0)
(0.28926 0.370946 0)
(0.248307 0.373269 0)
(0.186066 0.382203 0)
(0.17571 0.409738 0)
(0.142761 0.440897 0)
(0.141659 0.472601 0)
(0.083047 0.494314 0)
(0.0358226 0.517026 0)
(0.380653 0.406073 0)
(0.350003 0.416517 0)
(0.31928 0.428652 0)
(0.307265 0.449936 0)
(0.25407 0.46391 0)
(0.20433 0.46979 0)
(0.115081 0.466925 0)
(0.0797448 0.473136 0)
(0.0349568 0.474071 0)
(0.0256407 0.476398 0)
(0.394779 0.422158 0)
(0.367189 0.435044 0)
(0.312195 0.432821 0)
(0.276384 0.439478 0)
(0.23439 0.468451 0)
(0.235695 0.510392 0)
(0.19175 0.540624 0)
(0.160604 0.563613 0)
(0.0922294 0.590571 0)
(0.0483699 0.62113 0)
(0.408384 0.458432 0)
(0.394405 0.491194 0)
(0.375263 0.521905 0)
(0.348632 0.5366 0)
(0.266054 0.534848 0)
(0.209301 0.539256 0)
(0.13591 0.550515 0)
(0.110356 0.552257 0)
(0.0485672 0.560207 0)
(0.0350289 0.584323 0)
(0.421574 0.448364 0)
(0.38459 0.465589 0)
(0.341374 0.486411 0)
(0.347468 0.534247 0)
(0.317523 0.580809 0)
(0.294711 0.617828 0)
(0.221273 0.650277 0)
(0.177814 0.67814 0)
(0.0869709 0.69801 0)
(0.0402194 0.722182 0)
(0.442487 0.485605 0)
(0.462481 0.561529 0)
(0.411265 0.580285 0)
(0.365079 0.586906 0)
(0.297638 0.603305 0)
(0.265372 0.62958 0)
(0.195197 0.650058 0)
(0.156901 0.668438 0)
(0.0773325 0.683314 0)
(0.0379655 0.696522 0)
(0.342868 0.325956 0)
(0.426151 0.47432 0)
(0.439211 0.57277 0)
(0.437801 0.637498 0)
(0.383191 0.686207 0)
(0.34601 0.73376 0)
(0.266969 0.774384 0)
(0.211768 0.807156 0)
(0.116279 0.831754 0)
(0.053147 0.851207 0)
(0.185903 0.251206 5.00819e-20)
(0.327157 0.310901 -4.84297e-20)
(0.381414 0.348602 4.80551e-21)
(0.400046 0.3732 0)
(0.407606 0.398213 0)
(0.419034 0.41327 2.57565e-21)
(0.427258 0.439438 -6.51833e-21)
(0.420789 0.408845 6.40887e-21)
(0.389754 0.39214 2.97273e-22)
(0.279922 0.2134 -2.9363e-22)
(0.254293 0.269282 -6.23769e-20)
(0.35759 0.324784 0)
(0.392676 0.356485 3.05425e-20)
(0.404692 0.377648 -6.438e-20)
(0.410888 0.398877 3.55175e-20)
(0.421468 0.411917 -2.65802e-21)
(0.422532 0.425947 3.67966e-21)
(0.406854 0.38343 4.05506e-21)
(0.362093 0.350806 -3.73798e-22)
(0.250795 0.167154 -5.29461e-22)
(0.303171 0.287416 7.10311e-20)
(0.374318 0.332918 -3.93311e-20)
(0.400177 0.358768 3.89457e-20)
(0.411083 0.378031 -2.77047e-20)
(0.416805 0.396459 2.10444e-20)
(0.424123 0.405646 0)
(0.418352 0.408099 -3.68768e-21)
(0.392512 0.354945 -2.03751e-22)
(0.333114 0.305696 -1.17023e-21)
(0.221113 0.120006 2.94065e-22)
(0.343147 0.303213 -1.11202e-20)
(0.389744 0.339806 0)
(0.406573 0.361156 0)
(0.415176 0.378575 0)
(0.419368 0.393234 1.61e-20)
(0.422344 0.39679 -1.03535e-20)
(0.407966 0.385661 5.32492e-22)
(0.370937 0.320902 -1.34552e-21)
(0.300616 0.257382 -1.32911e-22)
(0.191309 0.0735959 6.52871e-22)
(0.370498 0.315146 -4.14514e-21)
(0.399331 0.343961 -3.06281e-20)
(0.410905 0.361498 -1.47922e-20)
(0.418639 0.376939 1.47783e-20)
(0.421046 0.387188 -5.66525e-21)
(0.417917 0.383098 0)
(0.394167 0.357932 -3.18445e-21)
(0.346245 0.282702 3.27896e-21)
(0.267163 0.206649 -1.36879e-21)
(0.161912 0.0293084 -5.28785e-22)
(0.38813 0.322267 -7.84786e-20)
(0.406885 0.346083 1.22666e-20)
(0.414771 0.360861 2.55943e-21)
(0.420724 0.373792 1.40193e-20)
(0.419857 0.378254 0)
(0.409357 0.364841 0)
(0.375671 0.32557 0)
(0.317364 0.24068 1.62079e-21)
(0.232303 0.154269 0)
(0.128311 -0.0113614 0)
(0.398978 0.325406 0)
(0.412089 0.346478 2.39348e-20)
(0.417402 0.358731 -1.57291e-20)
(0.42115 0.368109 -1.08883e-20)
(0.415919 0.365433 1.09423e-20)
(0.397062 0.341474 3.16462e-21)
(0.353398 0.288724 -3.62307e-21)
(0.285983 0.195781 -5.82275e-21)
(0.196908 0.102122 5.53115e-22)
(0.102383 -0.0477568 4.62861e-22)
(0.405969 0.325839 0)
(0.41599 0.345406 -8.21074e-21)
(0.418964 0.354994 -3.38307e-21)
(0.419467 0.359603 0)
(0.408511 0.348446 1.7856e-21)
(0.380754 0.313282 -5.73956e-21)
(0.327621 0.248238 3.5073e-21)
(0.252772 0.149173 5.32634e-22)
(0.162226 0.0518769 -3.66141e-22)
(0.0791614 -0.0799403 -4.27736e-22)
(0.410735 0.324701 9.18203e-21)
(0.4183 0.342855 7.13225e-21)
(0.418774 0.34917 -2.20295e-21)
(0.415194 0.347669 1.33876e-21)
(0.397585 0.327004 2.23542e-21)
(0.36087 0.28059 2.47732e-21)
(0.29921 0.204877 -5.48003e-22)
(0.219053 0.101937 -3.27274e-22)
(0.130093 0.00462609 3.67334e-22)
(0.0591131 -0.107575 -3.80911e-23)
(0.41398 0.322519 -1.96522e-21)
(0.419061 0.338605 2.01101e-21)
(0.416626 0.340858 -1.61567e-21)
(0.408127 0.332056 -1.33636e-21)
(0.383195 0.301273 8.97088e-22)
(0.337858 0.244097 -1.69717e-21)
(0.268966 0.159634 7.58737e-22)
(0.185816 0.0549924 1.15087e-22)
(0.100923 -0.0396391 0)
(0.041833 -0.13181 3.81579e-23)
(0.416003 0.319386 1.9173e-21)
(0.418298 0.332369 -1.9595e-21)
(0.412389 0.329714 -1.50782e-21)
(0.398317 0.312668 -1.23425e-21)
(0.365819 0.271629 -8.5214e-22)
(0.312539 0.20463 1.52244e-22)
(0.237882 0.113483 2.83737e-22)
(0.153797 0.00931464 4.92226e-22)
(0.0752239 -0.0799754 0)
(0.0278263 -0.152908 -1.33077e-23)
(0.416877 0.315093 0)
(0.416126 0.323886 -6.48745e-21)
(0.406151 0.315619 1.09861e-20)
(0.386029 0.289741 1.23573e-21)
(0.346068 0.238735 1.85073e-21)
(0.285784 0.16316 2.05397e-21)
(0.206903 0.0674819 -4.81533e-22)
(0.123749 -0.0341214 -2.92091e-22)
(0.0533163 -0.115842 3.08148e-22)
(0.0171346 -0.171046 1.32725e-23)
(0.416449 0.309387 0)
(0.412424 0.313031 -6.92047e-21)
(0.397937 0.29867 -2.94587e-21)
(0.371582 0.263728 0)
(0.324622 0.203385 -4.97574e-21)
(0.258491 0.120668 1.79808e-21)
(0.17691 0.022562 1.0212e-21)
(0.0964371 -0.0745391 1.80313e-21)
(0.0352001 -0.146994 -3.07141e-22)
(0.00947928 -0.186511 1.61605e-22)
(0.414488 0.302155 0)
(0.40717 0.29985 6.97487e-21)
(0.388018 0.279154 0)
(0.355515 0.235255 8.10038e-21)
(0.302251 0.166428 -8.14449e-21)
(0.231479 0.078064 -2.10584e-21)
(0.148609 -0.0205177 3.8257e-22)
(0.0722921 -0.111477 -1.71824e-21)
(0.0207375 -0.173548 -3.20789e-22)
(0.00442061 -0.199711 -2.58145e-22)
(0.411057 0.29344 6.50269e-20)
(0.400867 0.284527 -2.47333e-20)
(0.377175 0.2575 -2.45185e-21)
(0.338713 0.205057 -1.01846e-20)
(0.279886 0.128728 0)
(0.205396 0.0361598 -2.03684e-21)
(0.122575 -0.061206 7.05038e-22)
(0.0515681 -0.144704 2.39326e-21)
(0.0097326 -0.195862 1.00086e-22)
(0.0014335 -0.211123 -9.98364e-23)
(0.406878 0.283352 5.13235e-21)
(0.394625 0.267356 3.76977e-20)
(0.366462 0.234294 1.00523e-20)
(0.322108 0.173984 -1.00508e-20)
(0.258285 0.0911872 -3.33099e-21)
(0.180728 -0.00432882 0)
(0.0992202 -0.0991589 -2.89531e-21)
(0.0343472 -0.174196 1.52537e-21)
(0.00193791 -0.214458 8.2006e-22)
(-2.27444e-05 -0.221236 2.07771e-22)
(0.402699 0.272013 -8.60782e-21)
(0.388566 0.24886 0)
(0.355675 0.210312 0)
(0.305608 0.14295 0)
(0.237275 0.0545802 -2.32571e-21)
(0.157896 -0.0429503 5.65368e-21)
(0.0787386 -0.134193 2.88063e-21)
(0.0205451 -0.200113 -3.36001e-21)
(-0.00306818 -0.229926 2.07578e-22)
(-0.000432077 -0.230496 -4.10803e-22)
(0.396487 0.260023 -2.02884e-20)
(0.379241 0.229887 2.62732e-20)
(0.34193 0.18625 -2.60455e-20)
(0.287228 0.112586 1.56729e-20)
(0.216143 0.0193743 -1.89151e-20)
(0.136907 -0.0795011 0)
(0.0611123 -0.166331 -1.56224e-21)
(0.00990998 -0.222714 -1.92491e-23)
(-0.0060382 -0.242857 -6.44602e-22)
(-0.000172422 -0.239326 -2.1226e-22)
(0.384598 0.249067 -9.34553e-21)
(0.36356 0.211175 0)
(0.323622 0.162165 -2.46577e-20)
(0.266154 0.0826894 3.75565e-20)
(0.194487 -0.0148165 -1.26296e-20)
(0.117391 -0.114366 -1.19097e-21)
(0.0464799 -0.19589 1.55873e-21)
(0.00232577 -0.242216 1.86571e-22)
(-0.00738829 -0.25378 1.26622e-21)
(0.000419767 -0.248225 4.21191e-22)
(0.376345 0.24016 -4.03634e-20)
(0.354725 0.192867 3.92224e-20)
(0.312572 0.137927 3.37492e-21)
(0.25122 0.053234 0)
(0.176882 -0.0481192 0)
(0.100322 -0.148025 1.24379e-21)
(0.0348257 -0.223324 2.76668e-21)
(-0.00232591 -0.258736 -2.70178e-21)
(-0.00759684 -0.263016 -2.27149e-22)
(0.00103349 -0.257646 2.22082e-22)
(0.396034 0.215202 0)
(0.375081 0.150145 0)
(0.32468 0.0823524 0)
(0.24855 -0.0121933 0)
(0.157274 -0.121707 0)
(0.0654666 -0.224506 0)
(0.00349669 -0.285049 0)
(-0.0132698 -0.291147 0)
(-0.00470023 -0.281526 0)
(0.00317943 -0.282646 0)
(0.342616 0.0683084 0)
(0.258667 -0.0475453 0)
(0.16382 -0.148484 0)
(0.0655915 -0.26069 0)
(0.0028217 -0.338427 0)
(-0.0118124 -0.374278 0)
(-0.00141953 -0.373184 0)
(0.00546749 -0.350631 0)
(0.00364766 -0.343282 0)
(0.000284322 -0.348101 0)
(0.264215 -0.109351 0)
(0.172426 -0.255292 0)
(0.100827 -0.338324 0)
(0.0451915 -0.397507 0)
(0.0199258 -0.409239 0)
(0.01427 -0.399932 0)
(0.0173658 -0.38966 0)
(0.0127196 -0.388629 0)
(0.00207205 -0.396377 0)
(-0.0019548 -0.397974 0)
(0.159121 -0.316484 0)
(0.0554987 -0.43848 0)
(0.0282335 -0.453129 0)
(0.0102031 -0.472188 0)
(0.0145011 -0.457421 0)
(0.018193 -0.44707 0)
(0.0150921 -0.443804 0)
(0.00350502 -0.451242 0)
(-0.00255464 -0.458113 0)
(-0.000510159 -0.454618 0)
(0.10201 -0.46829 0)
(0.0375953 -0.54553 0)
(0.0502709 -0.502397 0)
(0.0337023 -0.517393 0)
(0.0347656 -0.499642 0)
(0.0187698 -0.511522 0)
(0.00631369 -0.516833 0)
(-0.000977837 -0.522973 0)
(0.000139017 -0.521413 0)
(0.000809834 -0.519501 0)
(0.0732992 -0.550002 0)
(0.044867 -0.585819 0)
(0.0584434 -0.54922 0)
(0.0254466 -0.588427 0)
(0.0247604 -0.576149 0)
(0.00499125 -0.596264 0)
(0.00411921 -0.590455 0)
(0.00218802 -0.593123 0)
(0.00298207 -0.591293 0)
(-0.000126425 -0.592045 0)
(0.0694904 -0.61625 0)
(0.0506024 -0.655494 0)
(0.04158 -0.647509 0)
(0.0110607 -0.685786 0)
(0.0179637 -0.669331 0)
(0.00257869 -0.683396 0)
(0.00913701 -0.672839 0)
(0.00191587 -0.680805 0)
(0.00212341 -0.679489 0)
(-0.000733288 -0.679869 0)
(0.0502538 -0.74537 0)
(0.0285094 -0.79408 0)
(0.0207302 -0.78524 0)
(0.0129924 -0.804971 0)
(0.0178815 -0.791153 0)
(0.00205053 -0.804613 0)
(0.00725645 -0.798801 0)
(-0.00109948 -0.807084 0)
(0.00397903 -0.802935 0)
(-0.000923062 -0.803592 0)
(0.0264089 -0.929948 0)
(0.019077 -0.963472 0)
(0.0190258 -0.953645 0)
(0.00817345 -0.971483 0)
(0.00619617 -0.968509 0)
(0.00263668 -0.976336 0)
(0.00599149 -0.97523 0)
(-0.000437257 -0.979331 0)
(0.00473618 -0.975075 0)
(-0.00142307 -0.978391 0)
(0.012047 -1.07062 0)
(0.0073793 -1.09629 0)
(0.0015828 -1.1027 0)
(0.000852838 -1.11016 0)
(0.00703171 -1.1109 0)
(0.00157197 -1.1209 0)
(-0.00121658 -1.12097 0)
(0.00223694 -1.12132 0)
(0.00270896 -1.12421 0)
(-0.00164208 -1.12591 0)
(0.382904 0.223456 4.17334e-20)
(0.367869 0.0772252 -4.1642e-20)
(0.273318 -0.0991884 4.75706e-21)
(0.178645 -0.315386 0)
(0.114248 -0.474163 0)
(0.0837639 -0.5633 5.03597e-21)
(0.0772351 -0.632069 -2.06721e-20)
(0.0573232 -0.758265 2.0637e-20)
(0.0302527 -0.934134 5.58703e-21)
(0.0138922 -1.0606 -5.59199e-21)
(0.381548 0.203712 -5.76104e-20)
(0.373305 0.0599169 0)
(0.281407 -0.104465 3.20934e-20)
(0.188876 -0.314364 -7.2202e-20)
(0.119708 -0.471609 4.49556e-20)
(0.0882571 -0.563697 -4.49185e-21)
(0.0804687 -0.634387 9.81092e-21)
(0.0604779 -0.758972 2.00243e-20)
(0.0322858 -0.930766 5.7109e-21)
(0.0145584 -1.05399 5.68562e-21)
(0.380995 0.188521 6.97661e-20)
(0.376695 0.0497011 -3.97388e-20)
(0.290854 -0.108988 3.93129e-20)
(0.201557 -0.316867 -3.75086e-20)
(0.127 -0.469186 2.79625e-20)
(0.09372 -0.561872 0)
(0.0841561 -0.633739 -9.83561e-21)
(0.0642972 -0.755722 6.76479e-22)
(0.034744 -0.92311 -1.05353e-20)
(0.0148964 -1.04428 -1.09312e-20)
(0.381196 0.171388 -1.12524e-20)
(0.380891 0.0422634 0)
(0.302115 -0.108274 0)
(0.215804 -0.315292 0)
(0.136321 -0.466238 3.02057e-20)
(0.100674 -0.560477 -2.00742e-20)
(0.088721 -0.632828 1.19613e-23)
(0.0689211 -0.751682 -1.14784e-20)
(0.0377711 -0.915178 -6.03608e-21)
(0.015051 -1.03395 -6.60986e-21)
(0.381743 0.154992 -3.93441e-21)
(0.386053 0.0372223 -3.42725e-20)
(0.315917 -0.104832 -2.01273e-20)
(0.231482 -0.307792 2.00989e-20)
(0.147302 -0.460035 -9.99713e-21)
(0.109066 -0.558931 0)
(0.0943226 -0.632148 -1.10578e-20)
(0.0743075 -0.748 2.39191e-20)
(0.0414815 -0.908022 -1.23014e-20)
(0.0152271 -1.0241 1.27974e-20)
(0.382525 0.138714 -9.92374e-20)
(0.391777 0.034169 1.4162e-20)
(0.331933 -0.0992025 9.91097e-22)
(0.249024 -0.295904 2.10737e-20)
(0.159983 -0.44956 0)
(0.118671 -0.555651 0)
(0.100892 -0.630828 0)
(0.0803453 -0.744256 1.288e-20)
(0.0459082 -0.90111 0)
(0.0155772 -1.01471 0)
(0.383178 0.122573 0)
(0.397537 0.0322661 3.50986e-20)
(0.349311 -0.0915204 -2.30307e-20)
(0.268738 -0.280393 -2.2186e-20)
(0.174899 -0.435409 2.22964e-20)
(0.129514 -0.549774 1.2127e-20)
(0.108359 -0.627885 -1.21667e-20)
(0.0869406 -0.739506 -4.61877e-20)
(0.051007 -0.893453 3.25429e-21)
(0.0161763 -1.00516 -1.14902e-20)
(0.383352 0.106475 0)
(0.402723 0.0306662 -1.20744e-20)
(0.367106 -0.0823957 -6.00354e-21)
(0.290638 -0.261273 0)
(0.192766 -0.418116 6.00871e-21)
(0.14188 -0.541217 -1.85156e-20)
(0.116811 -0.622865 1.95498e-20)
(0.0940972 -0.73307 6.80785e-21)
(0.0567324 -0.884231 -7.57647e-21)
(0.0171092 -0.994701 1.521e-20)
(0.382707 0.0903992 1.44167e-20)
(0.406712 0.0285685 1.2575e-20)
(0.384282 -0.0727423 -3.53915e-21)
(0.314479 -0.238987 3.12127e-21)
(0.214237 -0.397577 6.05683e-21)
(0.156122 -0.529948 9.68409e-21)
(0.126455 -0.615755 -3.52829e-21)
(0.101921 -0.724788 -3.74532e-21)
(0.0630553 -0.873066 7.60156e-21)
(0.0184108 -0.982762 4.1862e-21)
(0.380981 0.0744808 -3.50778e-21)
(0.408974 0.0253789 3.49817e-21)
(0.399714 -0.0635 -3.15211e-21)
(0.339627 -0.214588 -3.11716e-21)
(0.239747 -0.373582 3.31869e-21)
(0.172556 -0.515573 -6.6792e-21)
(0.137479 -0.60663 5.38493e-21)
(0.110577 -0.714812 1.878e-21)
(0.0700331 -0.859977 0)
(0.0202583 -0.96912 -4.19531e-21)
(0.37805 0.0592845 3.66394e-21)
(0.409182 0.0209657 -3.65418e-21)
(0.412296 -0.05538 -3.50055e-21)
(0.364793 -0.189577 -3.45692e-21)
(0.269213 -0.346285 -3.48033e-21)
(0.1916 -0.497373 -1.42998e-22)
(0.149973 -0.595456 1.92685e-21)
(0.120176 -0.70336 6.07891e-21)
(0.0776226 -0.84519 0)
(0.0226121 -0.953663 -4.60759e-21)
(0.374033 0.0454047 0)
(0.40724 0.0154976 -1.45775e-20)
(0.421102 -0.0489855 2.55718e-20)
(0.388099 -0.165653 3.46246e-21)
(0.301624 -0.316331 7.3572e-21)
(0.213798 -0.474805 1.13119e-20)
(0.163951 -0.58201 -3.86916e-21)
(0.130807 -0.690542 -4.11449e-21)
(0.0859118 -0.828909 9.1634e-21)
(0.0257638 -0.936687 4.59662e-21)
(0.369138 0.0329192 0)
(0.403239 0.00920827 -1.58804e-20)
(0.425664 -0.0447201 -7.39723e-21)
(0.407679 -0.144247 0)
(0.334932 -0.284899 -2.26926e-20)
(0.239717 -0.447801 7.77155e-21)
(0.17948 -0.565868 8.38274e-21)
(0.142374 -0.67642 2.64848e-20)
(0.0945589 -0.811228 -9.1338e-21)
(0.0293633 -0.917887 2.00202e-20)
(0.363577 0.0217268 0)
(0.397498 0.00236829 1.60129e-20)
(0.426025 -0.0426566 0)
(0.422105 -0.126398 3.14689e-20)
(0.366418 -0.253689 -3.16383e-20)
(0.2695 -0.416827 -1.67602e-20)
(0.196951 -0.546425 -4.60062e-24)
(0.154868 -0.660754 -2.71434e-20)
(0.103778 -0.792001 -4.49497e-21)
(0.0337306 -0.898041 -2.48665e-20)
(0.357573 0.0119247 1.41546e-19)
(0.390449 -0.00451254 -5.2748e-20)
(0.422659 -0.0425508 -6.08648e-22)
(0.430654 -0.112627 -3.32857e-20)
(0.393376 -0.224583 0)
(0.302185 -0.383032 -1.75062e-20)
(0.217108 -0.5233 -8.63069e-22)
(0.167818 -0.643475 3.70504e-20)
(0.112528 -0.771303 5.13196e-21)
(0.0382355 -0.875951 -5.15034e-21)
(0.351403 0.00366185 1.77008e-21)
(0.382519 -0.0108328 8.95443e-20)
(0.416281 -0.0438774 3.48617e-20)
(0.433386 -0.102856 -3.48467e-20)
(0.413775 -0.199145 -1.7729e-20)
(0.335415 -0.348079 0)
(0.240916 -0.496104 -3.81481e-20)
(0.181527 -0.623687 1.89274e-20)
(0.121687 -0.748882 2.02402e-20)
(0.0424383 -0.853379 2.20117e-20)
(0.345324 -0.00304308 -1.92835e-20)
(0.374093 -0.0162746 0)
(0.40771 -0.0459726 0)
(0.430983 -0.0965335 0)
(0.42661 -0.178362 -1.90499e-20)
(0.365921 -0.314235 3.6732e-20)
(0.268355 -0.465754 3.88378e-20)
(0.19492 -0.601889 -6.04227e-20)
(0.129143 -0.725468 1.09259e-20)
(0.0472711 -0.827772 -3.26244e-20)
(0.339467 -0.00833848 -4.02446e-20)
(0.365501 -0.0207106 7.73961e-20)
(0.39775 -0.0482366 -7.66765e-20)
(0.424513 -0.0927702 7.61949e-20)
(0.431931 -0.162255 -9.48049e-20)
(0.390637 -0.282945 0)
(0.298662 -0.431966 -2.03789e-20)
(0.210958 -0.575398 -7.56803e-22)
(0.136527 -0.700183 -2.24631e-20)
(0.048369 -0.802659 -2.30225e-20)
(0.333784 -0.0120136 -2.06513e-20)
(0.357025 -0.0235264 0)
(0.387005 -0.0497484 -9.00791e-20)
(0.415142 -0.0904741 1.58418e-19)
(0.430673 -0.150768 -5.90267e-20)
(0.407358 -0.257318 -1.01832e-20)
(0.327251 -0.400108 2.03343e-20)
(0.2264 -0.548631 -1.03495e-21)
(0.142413 -0.674394 3.26632e-20)
(0.0537384 -0.775426 3.40009e-20)
(0.328236 -0.013742 -8.85531e-20)
(0.349022 -0.0251777 8.59763e-20)
(0.375617 -0.0502819 1.04409e-20)
(0.403296 -0.0880359 0)
(0.4236 -0.140426 0)
(0.416188 -0.232159 1.0119e-20)
(0.355935 -0.362863 4.26428e-20)
(0.249981 -0.513403 -4.11328e-20)
(0.145516 -0.646032 -1.10322e-20)
(0.0498275 -0.747359 1.07359e-20)
(0.316366 -0.0273003 0)
(0.335961 -0.0403542 0)
(0.353128 -0.0695368 0)
(0.375394 -0.107681 0)
(0.394602 -0.154421 0)
(0.399739 -0.226344 0)
(0.37483 -0.325598 0)
(0.297334 -0.449871 0)
(0.176449 -0.574881 0)
(0.0543938 -0.692042 0)
(0.298421 -0.0402604 0)
(0.309285 -0.0559798 0)
(0.319742 -0.0862049 0)
(0.326373 -0.121887 0)
(0.338654 -0.164054 0)
(0.334537 -0.220346 0)
(0.321645 -0.287337 0)
(0.282076 -0.3664 0)
(0.178919 -0.44753 0)
(0.0844126 -0.536363 0)
(0.277941 -0.0412723 0)
(0.281266 -0.0598765 0)
(0.28729 -0.0905157 0)
(0.282946 -0.123591 0)
(0.287487 -0.162933 0)
(0.273132 -0.210123 0)
(0.251686 -0.259744 0)
(0.22571 -0.313197 0)
(0.133793 -0.361506 0)
(0.0818798 -0.409235 0)
(0.258779 -0.0426261 0)
(0.2562 -0.0621104 0)
(0.258099 -0.0887831 0)
(0.247043 -0.117629 0)
(0.244013 -0.152231 0)
(0.225097 -0.191713 0)
(0.194241 -0.229939 0)
(0.175147 -0.268591 0)
(0.0900708 -0.299473 0)
(0.0664907 -0.324129 0)
(0.238338 -0.0424541 0)
(0.233821 -0.0612561 0)
(0.232277 -0.0847475 0)
(0.218261 -0.108948 0)
(0.209154 -0.137624 0)
(0.189613 -0.169455 0)
(0.152729 -0.198563 0)
(0.139465 -0.227085 0)
(0.0617663 -0.248032 0)
(0.0540555 -0.261338 0)
(0.22001 -0.039917 0)
(0.213831 -0.0564822 0)
(0.209664 -0.0766232 0)
(0.194461 -0.0969042 0)
(0.181037 -0.120414 0)
(0.162744 -0.146295 0)
(0.122593 -0.169022 0)
(0.113772 -0.191232 0)
(0.0418328 -0.206588 0)
(0.0439458 -0.209133 0)
(0.204449 -0.0372868 0)
(0.197647 -0.0501258 0)
(0.191075 -0.0661973 0)
(0.175157 -0.0821029 0)
(0.158423 -0.100264 0)
(0.141601 -0.120481 0)
(0.0993551 -0.138779 0)
(0.093639 -0.155506 0)
(0.0285424 -0.168623 0)
(0.0352131 -0.182914 0)
(0.193281 -0.0351349 0)
(0.187365 -0.0432462 0)
(0.177079 -0.0560371 0)
(0.160142 -0.0681549 0)
(0.140403 -0.0829698 0)
(0.124281 -0.100771 0)
(0.0821173 -0.1165 0)
(0.079334 -0.1346 0)
(0.0161288 -0.155798 0)
(0.0382781 -0.13615 0)
(0.228517 -0.0219981 0)
(0.224278 -0.0279458 0)
(0.200616 -0.0354391 0)
(0.175809 -0.0433771 0)
(0.144942 -0.052312 0)
(0.121567 -0.0594447 0)
(0.0573076 -0.0757963 0)
(0.0461803 -0.0809463 0)
(-0.0289533 -0.0970295 0)
(-0.0475706 -0.154292 0)
(0.555701 -0.0106105 0)
(0.545736 -0.014233 0)
(0.517344 -0.0176422 0)
(0.493102 -0.0230463 0)
(0.457228 -0.0288826 0)
(0.417376 -0.0368254 0)
(0.360614 -0.0511663 0)
(0.305858 -0.0648007 0)
(0.201929 -0.10105 0)
(0.16861 -0.170147 0)
(0.322049 -0.0283882 9.67299e-20)
(0.305205 -0.0310764 -9.37524e-20)
(0.284123 -0.0280994 1.20678e-20)
(0.263431 -0.0295828 0)
(0.240899 -0.0293296 0)
(0.222112 -0.0288068 1.20579e-20)
(0.206395 -0.0280167 -4.80481e-20)
(0.198682 -0.0278762 4.70841e-20)
(0.248894 -0.0176991 1.1709e-20)
(0.570746 -0.00852949 -1.19857e-20)
(0.317888 -0.0277574 -1.04877e-19)
(0.300557 -0.0266232 0)
(0.280236 -0.0223897 7.82884e-20)
(0.260191 -0.0240892 -1.78431e-19)
(0.238457 -0.0239286 1.11677e-19)
(0.220726 -0.0243165 -1.13462e-20)
(0.205873 -0.024223 2.25391e-20)
(0.20063 -0.0247923 4.49011e-20)
(0.256049 -0.0160262 1.10873e-20)
(0.576704 -0.00770561 1.09675e-20)
(0.313465 -0.0248398 1.2246e-19)
(0.293814 -0.0213887 -8.59833e-20)
(0.273907 -0.0166736 8.5213e-20)
(0.254718 -0.0188251 -8.91316e-20)
(0.234442 -0.0188881 6.60106e-20)
(0.21819 -0.0201647 0)
(0.204626 -0.0207059 -2.25927e-20)
(0.202331 -0.0217483 -1.25316e-22)
(0.262318 -0.0145263 -2.24237e-20)
(0.582479 -0.00698351 -2.22988e-20)
(0.312311 -0.0200535 -2.01116e-20)
(0.29071 -0.0152433 0)
(0.270193 -0.0107163 0)
(0.25096 -0.0135978 0)
(0.231491 -0.0140775 6.66365e-20)
(0.216155 -0.0162469 -4.43818e-20)
(0.203603 -0.0174204 -1.22848e-22)
(0.203927 -0.0187866 -2.25999e-20)
(0.268016 -0.0132473 -1.12583e-20)
(0.588062 -0.00639128 -1.11526e-20)
(0.311922 -0.0138651 2.98199e-21)
(0.289182 -0.00842447 -5.95327e-20)
(0.267886 -0.0044544 -4.24872e-20)
(0.248269 -0.00826629 4.24722e-20)
(0.229267 -0.00936425 -2.19598e-20)
(0.214491 -0.0124479 0)
(0.202771 -0.0142875 -2.24687e-20)
(0.20532 -0.0159326 4.51551e-20)
(0.273051 -0.0121874 -2.25594e-20)
(0.593269 -0.00592928 2.26251e-20)
(0.31128 -0.00635683 -1.53904e-19)
(0.287421 -0.00119434 1.78647e-20)
(0.265446 0.00196562 -1.13291e-21)
(0.245533 -0.00287749 4.20197e-20)
(0.227059 -0.00475304 0)
(0.212789 -0.00874704 0)
(0.201905 -0.0112889 0)
(0.206383 -0.0132171 2.24702e-20)
(0.277267 -0.0113098 0)
(0.597982 -0.00558305 0)
(0.310568 0.00247905 0)
(0.285337 0.0063453 5.98351e-20)
(0.262673 0.00843571 -4.03209e-20)
(0.242522 0.00251179 -4.25237e-20)
(0.224682 -0.00026719 4.27499e-20)
(0.210921 -0.00514628 2.20557e-20)
(0.200909 -0.00842582 -2.20693e-20)
(0.207037 -0.0106665 -7.87207e-20)
(0.280578 -0.01057 5.65596e-21)
(0.602159 -0.00533421 -1.70062e-20)
(0.309801 0.0126183 0)
(0.283138 0.0142011 -1.95684e-20)
(0.259813 0.0149418 -1.01218e-20)
(0.239385 0.00791267 0)
(0.2222 0.00411963 1.08681e-20)
(0.208915 -0.00162405 -3.26202e-20)
(0.199764 -0.00568646 3.33694e-20)
(0.207234 -0.00829368 1.13114e-20)
(0.282985 -0.00993017 -1.13225e-20)
(0.605823 -0.00516626 2.28431e-20)
(0.308743 0.0240479 1.79932e-20)
(0.280744 0.0224678 1.96712e-20)
(0.256945 0.0215304 -4.72854e-21)
(0.236208 0.0133772 5.18409e-21)
(0.219649 0.00846891 1.06769e-20)
(0.206789 0.0018581 1.63245e-20)
(0.198452 -0.00304756 -5.51724e-21)
(0.206934 -0.00610198 -5.58899e-21)
(0.284441 -0.00935826 1.13597e-20)
(0.608979 -0.00506534 5.68321e-21)
(0.307134 0.036728 -4.67572e-21)
(0.277955 0.0312997 4.71803e-21)
(0.253992 0.0282854 -5.01457e-21)
(0.23298 0.0189636 -5.17725e-21)
(0.217004 0.0128466 5.335e-21)
(0.204529 0.00533616 -1.08089e-20)
(0.196952 -0.000484651 8.27972e-21)
(0.20609 -0.00409292 2.80957e-21)
(0.284903 -0.00883154 0)
(0.611628 -0.00501975 -5.6957e-21)
(0.304868 0.0504842 4.65606e-21)
(0.274676 0.0407897 -4.6996e-21)
(0.250869 0.0352909 -4.98108e-21)