/*--------------------------------*- C++ -*----------------------------------*\
  =========                 |
  \\      /  F ield         | OpenFOAM: The Open Source CFD Toolbox
   \\    /   O peration     | Website:  https://openfoam.org
    \\  /    A nd           | Version:  7
     \\/     M anipulation  |
\*---------------------------------------------------------------------------*/
FoamFile
{
    version     2.0;
    format      ascii;
    class       volScalarField;
    location    "5";
    object      p;
}
// * * * * * * * * * * * * * * * * * * * * * * * * * * * * * * * * * * * * * //

dimensions      [0 2 -2 0 0 0 0];

internalField   nonuniform List<scalar> 
2000
(
0.2855
0.290303
0.294004
0.297921
0.301724
0.305286
0.308567
0.311557
0.314264
0.31668
0.282828
0.287974
0.291863
0.295888
0.299706
0.303203
0.306354
0.309159
0.311615
0.313776
0.280004
0.285593
0.289715
0.293882
0.297741
0.301194
0.304233
0.30687
0.309095
0.310974
0.277031
0.28316
0.287551
0.291885
0.295806
0.299231
0.302177
0.304669
0.306693
0.308274
0.273867
0.280646
0.285341
0.289866
0.293864
0.297276
0.300145
0.302521
0.304396
0.30568
0.27047
0.278029
0.28306
0.287793
0.291874
0.295279
0.298084
0.300375
0.302169
0.303193
0.266812
0.275289
0.280685
0.285633
0.289795
0.293186
0.295926
0.298152
0.29995
0.300808
0.262883
0.272419
0.278196
0.283356
0.287581
0.290937
0.293594
0.295767
0.29769
0.298605
0.258696
0.269422
0.275585
0.280935
0.285185
0.288457
0.290988
0.293131
0.295461
0.29703
0.254291
0.266316
0.272852
0.278353
0.282558
0.285627
0.287851
0.289724
0.292221
0.294787
0.321655
0.329857
0.334381
0.338909
0.342276
0.345099
0.347213
0.348768
0.349717
0.350185
0.318623
0.326782
0.331229
0.335739
0.339122
0.341972
0.344128
0.345723
0.346717
0.34723
0.315429
0.323747
0.328064
0.332556
0.335952
0.338831
0.341035
0.342677
0.34372
0.344279
0.312024
0.320739
0.324888
0.32936
0.332769
0.335678
0.337935
0.339629
0.340721
0.341324
0.308377
0.317725
0.321699
0.326152
0.329573
0.332515
0.334826
0.336576
0.337717
0.33836
0.30449
0.314667
0.318494
0.322929
0.326367
0.329341
0.331709
0.333514
0.334703
0.33538
0.300398
0.311503
0.315263
0.319682
0.323146
0.326154
0.32858
0.330439
0.331674
0.332376
0.296099
0.308066
0.311919
0.316349
0.319866
0.322926
0.32542
0.327339
0.328621
0.329341
0.291841
0.304166
0.308329
0.312832
0.316471
0.319626
0.322214
0.324205
0.325537
0.326269
0.289716
0.300789
0.305082
0.309609
0.31335
0.316542
0.319149
0.321138
0.322461
0.32316
0.294274
0.298169
0.30104
0.304894
0.308147
0.3107
0.312716
0.314226
0.315202
0.315672
0.270894
0.278141
0.283616
0.289156
0.293534
0.296728
0.299101
0.300815
0.301925
0.302457
0.244866
0.255149
0.263013
0.2703
0.276076
0.280275
0.2833
0.285407
0.286733
0.287357
0.216666
0.229416
0.239366
0.248365
0.255654
0.261043
0.264913
0.267607
0.269331
0.270152
0.185694
0.200291
0.212096
0.222751
0.231567
0.238213
0.242976
0.246205
0.248171
0.249091
0.151208
0.167394
0.180827
0.192929
0.203085
0.210936
0.216753
0.220917
0.223656
0.224983
0.114788
0.131724
0.146435
0.159504
0.170425
0.17884
0.184935
0.189104
0.191697
0.192979
0.0745
0.0921253
0.107463
0.120883
0.132083
0.140959
0.147786
0.15283
0.156162
0.157716
0.0383917
0.053114
0.0670909
0.0787392
0.0878633
0.0945872
0.09936
0.102664
0.104789
0.10591
-0.00391577
0.0099628
0.0204354
0.0290441
0.0361272
0.0417001
0.0457873
0.0486337
0.0503881
0.0510729
0.27359
0.253245
0.230013
0.20206
0.171295
0.136549
0.102136
0.0609778
0.0332357
-0.017115
0.271498
0.248095
0.224083
0.19544
0.164444
0.129578
0.09575
0.0544916
0.0302256
-0.0226781
0.268079
0.242259
0.217519
0.188411
0.157286
0.122475
0.0891793
0.0482086
0.0269081
-0.0278882
0.263277
0.236322
0.211052
0.181641
0.15041
0.115702
0.0828655
0.0424065
0.0236321
-0.0329326
0.257911
0.230593
0.20482
0.175153
0.143807
0.109238
0.0767954
0.0370575
0.0203352
-0.0382754
0.252412
0.22518
0.198905
0.168987
0.137506
0.103108
0.0710159
0.032222
0.0169532
-0.0445462
0.247145
0.220179
0.19341
0.16321
0.131569
0.0973616
0.0656037
0.0280068
0.0136593
-0.0503611
0.242471
0.215692
0.188427
0.157889
0.12605
0.0920404
0.0606227
0.0244739
0.0109894
-0.0488499
0.238701
0.211827
0.184037
0.153081
0.120993
0.0871736
0.0561085
0.0215956
0.00911282
-0.0407109
0.236073
0.208691
0.180304
0.148837
0.116438
0.0827803
0.0520692
0.0192706
0.00776651
-0.0334301
0.234751
0.206386
0.177285
0.145197
0.112414
0.0788724
0.0485028
0.0173366
0.00578621
-0.026775
0.234833
0.205015
0.175032
0.142201
0.108947
0.0754581
0.0454046
0.0157417
0.00422975
-0.0213658
0.236377
0.204677
0.173604
0.139894
0.106064
0.0725461
0.0427849
0.0145741
0.00303559
-0.0169479
0.239419
0.205452
0.173045
0.138307
0.10378
0.0701376
0.0406394
0.0136784
0.00222308
-0.0132807
0.243921
0.207342
0.173318
0.137402
0.102063
0.0682104
0.0388526
0.0131066
0.00174386
-0.010235
0.249602
0.210272
0.174291
0.13708
0.100844
0.0667293
0.037471
0.012757
0.00153965
-0.00771758
0.256234
0.214366
0.176157
0.137506
0.100229
0.0656978
0.0364724
0.0126119
0.00156106
-0.00564474
0.264434
0.220913
0.180132
0.13957
0.100772
0.0654144
0.0359396
0.0126726
0.00176564
-0.00393551
0.274823
0.230867
0.186953
0.143791
0.102875
0.0662028
0.0360907
0.0130826
0.00218782
-0.00250866
0.281264
0.237185
0.190892
0.145992
0.10399
0.0669033
0.0366924
0.0141155
0.00303489
-0.00132152
0.278204
0.234757
0.187519
0.14235
0.101412
0.0664763
0.0384054
0.0179956
0.00624337
0.000900965
0.275229
0.229332
0.177762
0.131137
0.09084
0.0582741
0.0339193
0.0176154
0.00803304
0.00221457
0.271104
0.221703
0.169751
0.123983
0.0865096
0.0575108
0.0362757
0.0216095
0.0114789
0.00350681
0.268018
0.216
0.164511
0.121006
0.086701
0.0607509
0.0414738
0.0269739
0.0152147
0.00480311
0.268277
0.215018
0.164835
0.124047
0.092174
0.0675991
0.0483477
0.032581
0.0187435
0.00603991
0.274121
0.22061
0.171814
0.132737
0.101578
0.0765685
0.0558823
0.0380752
0.022059
0.00716837
0.28596
0.232622
0.184413
0.145301
0.113014
0.0861753
0.0633213
0.0433165
0.0251889
0.00819187
0.301933
0.248572
0.199782
0.159127
0.124603
0.0953929
0.0702661
0.0481728
0.0280706
0.00913185
0.31771
0.263931
0.213956
0.171277
0.134474
0.103138
0.0760674
0.0522078
0.0304528
0.00993281
0.327597
0.27349
0.222603
0.178546
0.140367
0.107788
0.0795458
0.0545951
0.0318423
0.0103969
0.315431
0.314817
0.309529
0.307502
0.308635
0.314419
0.324903
0.339001
0.353368
0.3624
0.326891
0.325581
0.321598
0.320484
0.32242
0.328776
0.339408
0.353238
0.36721
0.376025
0.336922
0.334574
0.331211
0.330858
0.333582
0.340624
0.351713
0.365588
0.379231
0.387818
0.346804
0.343805
0.340872
0.341078
0.344383
0.351839
0.363119
0.376877
0.390141
0.398483
0.355921
0.352897
0.35051
0.351273
0.355102
0.362835
0.374091
0.387527
0.400299
0.408326
0.364697
0.36147
0.359652
0.360979
0.365307
0.37326
0.384396
0.3974
0.4096
0.417246
0.372581
0.369384
0.368111
0.36997
0.374735
0.382838
0.393786
0.406295
0.417881
0.425106
0.379517
0.37657
0.37582
0.378165
0.383292
0.391464
0.402156
0.414125
0.425075
0.431862
0.385502
0.382981
0.38273
0.385519
0.390932
0.399102
0.40948
0.420876
0.431185
0.437532
0.390549
0.388592
0.388818
0.392004
0.397638
0.405747
0.41577
0.426578
0.436251
0.442167
0.39471
0.39341
0.394091
0.397629
0.403425
0.411427
0.42107
0.431288
0.44034
0.445842
0.398063
0.397461
0.398579
0.402426
0.408335
0.416197
0.425448
0.435088
0.443543
0.448651
0.400706
0.400793
0.402337
0.40645
0.412433
0.420134
0.428995
0.438078
0.445962
0.4507
0.402743
0.403467
0.405429
0.409769
0.415798
0.423327
0.431808
0.440363
0.44771
0.4521
0.404271
0.40555
0.407923
0.412457
0.418513
0.425869
0.433989
0.442049
0.448891
0.452955
0.405378
0.407121
0.409895
0.414591
0.420661
0.427849
0.435632
0.443233
0.449606
0.453363
0.406139
0.408258
0.41141
0.416245
0.422319
0.429351
0.436825
0.444006
0.449943
0.45341
0.406573
0.408984
0.412475
0.417429
0.423514
0.430416
0.437624
0.444431
0.449971
0.453168
0.406586
0.40928
0.413068
0.418129
0.424238
0.431054
0.438056
0.444552
0.449744
0.452692
0.406361
0.409653
0.413783
0.418939
0.425009
0.431667
0.438399
0.444547
0.449374
0.45207
0.407321
0.41298
0.418337
0.423847
0.42953
0.435205
0.44055
0.44519
0.448699
0.450618
0.410151
0.415251
0.420547
0.425858
0.431036
0.435869
0.440079
0.443446
0.445797
0.447011
0.412558
0.41703
0.421909
0.426717
0.431216
0.435194
0.438419
0.440759
0.442215
0.44288
0.413874
0.418048
0.422584
0.426929
0.430806
0.434011
0.436354
0.437772
0.438407
0.438528
0.413977
0.418093
0.422394
0.426402
0.429816
0.432421
0.434041
0.43464
0.434449
0.433868
0.413014
0.417312
0.421505
0.425295
0.428401
0.430575
0.431618
0.431463
0.430383
0.428547
0.411263
0.416062
0.420221
0.423872
0.42678
0.428658
0.429242
0.428311
0.425793
0.422347
0.409656
0.415007
0.419081
0.422628
0.425351
0.426943
0.427028
0.425183
0.420537
0.412326
0.409881
0.415348
0.419347
0.422963
0.425564
0.426801
0.426119
0.423132
0.417065
0.399958
0.415249
0.42046
0.425388
0.43069
0.435429
0.439578
0.443666
0.447008
0.432962
0.348118
0.401808
0.405
0.407596
0.409573
0.410475
0.410709
0.410523
0.410662
0.410902
0.414566
0.399469
0.403616
0.406313
0.408416
0.40943
0.409779
0.409758
0.410186
0.410506
0.413765
0.397659
0.402941
0.405668
0.407735
0.408651
0.408882
0.40873
0.40907
0.409371
0.412288
0.396032
0.40219
0.404922
0.407
0.407818
0.407947
0.407683
0.407915
0.408146
0.410708
0.3945
0.401298
0.404035
0.406154
0.406902
0.40696
0.406629
0.406799
0.406979
0.409234
0.393103
0.400287
0.403168
0.405263
0.405952
0.405941
0.40555
0.405671
0.405816
0.407832
0.39191
0.399208
0.4023
0.404357
0.404993
0.404907
0.404455
0.404522
0.40463
0.406453
0.39081
0.398079
0.401425
0.403446
0.404038
0.403873
0.403355
0.403367
0.403427
0.405087
0.389779
0.396897
0.400555
0.402541
0.4031
0.402854
0.402264
0.402191
0.402245
0.403741
0.388802
0.395666
0.3997
0.401658
0.402195
0.401865
0.401194
0.401032
0.401061
0.402419
0.38785
0.394392
0.398869
0.400812
0.40134
0.400922
0.400156
0.399897
0.399888
0.40113
0.386887
0.393081
0.398065
0.400016
0.400549
0.400039
0.399162
0.398786
0.398732
0.399885
0.385863
0.391744
0.397288
0.399282
0.399835
0.399231
0.398222
0.397705
0.397599
0.398694
0.384713
0.390392
0.396529
0.398617
0.399211
0.398512
0.397348
0.396659
0.396495
0.397572
0.383361
0.389034
0.395773
0.398025
0.398683
0.397894
0.39655
0.395653
0.395423
0.396536
0.381714
0.387682
0.395004
0.397505
0.398256
0.397387
0.39584
0.394695
0.39439
0.395611
0.379677
0.386353
0.394214
0.397061
0.397939
0.397005
0.395226
0.393783
0.393397
0.39483
0.377106
0.385022
0.393401
0.396704
0.39775
0.396756
0.39469
0.392862
0.392409
0.39423
0.373594
0.383454
0.392448
0.396365
0.397653
0.39663
0.394225
0.391899
0.39137
0.393844
0.369244
0.381438
0.391067
0.39572
0.397414
0.396614
0.394194
0.391616
0.390903
0.393809
0.362758
0.377016
0.387091
0.393219
0.396361
0.397206
0.396697
0.395902
0.395618
0.396494
0.367641
0.379575
0.388549
0.394309
0.397194
0.397731
0.39677
0.39559
0.395203
0.39548
0.371385
0.382255
0.390605
0.396151
0.398906
0.3992
0.39786
0.396244
0.395445
0.395259
0.374349
0.384683
0.392884
0.398517
0.401339
0.401516
0.39993
0.39824
0.397678
0.397522
0.377327
0.387478
0.395772
0.401653
0.404575
0.404498
0.402445
0.40075
0.401476
0.402576
0.380307
0.390566
0.399236
0.405594
0.40871
0.408189
0.405436
0.40389
0.408022
0.413597
0.383066
0.393731
0.40315
0.410427
0.414109
0.413132
0.409037
0.40924
0.421141
0.438239
0.385481
0.396782
0.407389
0.416306
0.421631
0.421622
0.418488
0.423208
0.451871
0.497676
0.387326
0.39944
0.411619
0.423084
0.431839
0.435415
0.436115
0.450553
0.512183
0.619897
0.388518
0.401445
0.415375
0.430178
0.444439
0.456307
0.471318
0.515201
0.638503
0.86001
0.351853
0.359758
0.363592
0.367456
0.370928
0.3741
0.376676
0.378757
0.380088
0.380848
0.34708
0.356464
0.36045
0.364684
0.368266
0.371445
0.373927
0.375873
0.377035
0.377638
0.344034
0.354022
0.35794
0.362288
0.365776
0.368818
0.37115
0.372939
0.373975
0.374469
0.341288
0.351478
0.355345
0.359764
0.363165
0.36609
0.368306
0.369971
0.370917
0.371337
0.338496
0.348582
0.352601
0.357036
0.360395
0.36325
0.365395
0.366978
0.367866
0.368238
0.33572
0.345521
0.349699
0.354201
0.357538
0.360334
0.362434
0.363966
0.364821
0.365169
0.332965
0.342417
0.346725
0.351261
0.354587
0.357362
0.359442
0.360942
0.361785
0.362128
0.330202
0.33928
0.343699
0.348248
0.351572
0.354344
0.356412
0.357903
0.358755
0.359117
0.32741
0.336123
0.340626
0.345176
0.348509
0.351292
0.353357
0.354858
0.355734
0.356125
0.32457
0.332975
0.337516
0.342058
0.345407
0.348208
0.35029
0.351812
0.352722
0.353148
0.249737
0.263134
0.270017
0.275618
0.279692
0.282393
0.283969
0.284611
0.283938
0.279779
0.245128
0.259937
0.267127
0.272778
0.276683
0.279014
0.28003
0.279881
0.278104
0.273585
0.240633
0.256807
0.264243
0.269895
0.273605
0.275595
0.27617
0.275528
0.273409
0.269423
0.236426
0.253839
0.261442
0.267036
0.270527
0.272186
0.272378
0.271347
0.269025
0.265417
0.232695
0.251148
0.258823
0.2643
0.267546
0.268885
0.268736
0.267389
0.264924
0.261539
0.229646
0.248865
0.25651
0.261809
0.264792
0.265827
0.265373
0.263754
0.261149
0.257827
0.227495
0.247142
0.254648
0.259716
0.262425
0.263172
0.26244
0.260567
0.25779
0.254382
0.226468
0.246153
0.253408
0.258196
0.260623
0.261098
0.260106
0.257985
0.254997
0.251385
0.226781
0.246079
0.252975
0.257438
0.25958
0.259796
0.258556
0.256185
0.25295
0.249054
0.228502
0.247033
0.25349
0.257601
0.259462
0.259433
0.257954
0.255332
0.251828
0.247607
0.231446
0.248977
0.255003
0.258783
0.260389
0.260137
0.258434
0.255566
0.251787
0.247233
0.236423
0.252433
0.257902
0.261284
0.262598
0.262102
0.260157
0.257029
0.252966
0.248088
0.243371
0.2574
0.262221
0.265156
0.266148
0.265386
0.26318
0.259782
0.255436
0.250266
0.252228
0.263891
0.267998
0.270442
0.271076
0.270016
0.267527
0.263843
0.259219
0.253803
0.262946
0.271916
0.275247
0.277145
0.277373
0.275975
0.273169
0.269176
0.264275
0.258672
0.275407
0.281421
0.283914
0.285207
0.284974
0.283192
0.280033
0.275701
0.270512
0.264748
0.28941
0.292281
0.293879
0.294508
0.293759
0.291551
0.288006
0.283307
0.277782
0.271809
0.304681
0.304301
0.30496
0.304873
0.303565
0.300896
0.29694
0.291818
0.285796
0.279477
0.320873
0.317229
0.316918
0.316081
0.314197
0.311067
0.306693
0.301037
0.294112
0.287131
0.33758
0.330754
0.329467
0.327876
0.325442
0.321931
0.317279
0.311204
0.30332
0.295328
0.354406
0.344554
0.342301
0.339965
0.337031
0.333282
0.328674
0.322916
0.315796
0.311147
0.371139
0.358347
0.355099
0.352011
0.348594
0.344632
0.340068
0.33467
0.328484
0.32491
0.387126
0.371681
0.367482
0.36367
0.359792
0.355621
0.351068
0.34594
0.340334
0.336919
0.401893
0.384195
0.37913
0.37465
0.370349
0.365988
0.361447
0.356555
0.351382
0.348017
0.41508
0.395591
0.38977
0.384703
0.380036
0.375522
0.371011
0.366345
0.361549
0.358221
0.426406
0.405622
0.399182
0.393632
0.388676
0.384063
0.379616
0.37519
0.370768
0.367549
0.435672
0.414105
0.407204
0.401296
0.396145
0.391498
0.387162
0.383002
0.378972
0.37591
0.442769
0.420925
0.413735
0.407609
0.402369
0.397764
0.393588
0.389722
0.386105
0.383249
0.447676
0.426038
0.418737
0.412538
0.407319
0.402836
0.398874
0.395329
0.392137
0.389534
0.450446
0.429453
0.422223
0.416101
0.411015
0.406732
0.403036
0.399835
0.397073
0.39476
0.451226
0.431255
0.424269
0.418366
0.413521
0.409512
0.406128
0.40329
0.400954
0.398962
0.450267
0.431577
0.424963
0.419403
0.414895
0.411233
0.408208
0.405752
0.40384
0.402196
0.447747
0.43056
0.424439
0.419332
0.415251
0.411998
0.409373
0.407316
0.405819
0.404542
0.443893
0.428374
0.422848
0.418288
0.414708
0.411918
0.409729
0.408084
0.406993
0.406094
0.438945
0.425202
0.420347
0.416407
0.413388
0.411106
0.409382
0.40816
0.407463
0.406946
0.433147
0.421226
0.417093
0.413827
0.411414
0.409674
0.408439
0.40765
0.407333
0.407193
0.426727
0.416623
0.413241
0.410681
0.408903
0.40773
0.406999
0.406652
0.406703
0.406925
0.419896
0.411558
0.408933
0.407093
0.405967
0.405372
0.405157
0.405258
0.405668
0.406226
0.412846
0.406183
0.404301
0.403178
0.402703
0.40269
0.402993
0.403546
0.404311
0.405161
0.405742
0.400631
0.39946
0.399033
0.399198
0.399762
0.400579
0.401597
0.402778
0.403922
0.398704
0.395004
0.394499
0.394734
0.395518
0.396644
0.397972
0.399501
0.401386
0.403034
0.391702
0.389342
0.389481
0.390346
0.391715
0.393368
0.395152
0.397059
0.399245
0.401004
0.384927
0.383766
0.384494
0.385937
0.387845
0.389982
0.392187
0.394431
0.396848
0.398747
0.378466
0.378357
0.379596
0.381558
0.383955
0.38654
0.389141
0.391718
0.394383
0.396489
0.372375
0.373143
0.374826
0.377245
0.380084
0.383078
0.386051
0.388944
0.391855
0.394237
0.366674
0.368152
0.370213
0.373029
0.376257
0.379623
0.382939
0.386128
0.389263
0.391982
0.361365
0.363399
0.365774
0.368927
0.372494
0.376191
0.379821
0.383293
0.386642
0.389456
0.356435
0.358887
0.361515
0.364948
0.368807
0.372795
0.37671
0.380444
0.383998
0.387021
0.351862
0.354601
0.357431
0.361094
0.365198
0.36944
0.37361
0.377583
0.381326
0.384599
0.347709
0.350573
0.353538
0.357372
0.361673
0.366128
0.37052
0.374706
0.378615
0.382141
0.344175
0.346921
0.349904
0.353826
0.358256
0.362871
0.367443
0.371807
0.375855
0.379625
0.340682
0.343344
0.346362
0.350359
0.354895
0.359639
0.364361
0.368876
0.373031
0.37702
0.337312
0.339894
0.342936
0.346983
0.351593
0.356431
0.361268
0.365902
0.37013
0.374293
0.334097
0.336585
0.339629
0.343697
0.348347
0.353244
0.358159
0.362878
0.367138
0.37141
0.331006
0.333395
0.336425
0.340491
0.345152
0.350074
0.355032
0.359801
0.36405
0.36833
0.328006
0.330303
0.33331
0.337356
0.342004
0.346922
0.351889
0.356676
0.360873
0.36504
0.325071
0.327293
0.330272
0.334286
0.338903
0.343794
0.348743
0.353521
0.357635
0.36161
0.322181
0.324353
0.327304
0.331278
0.33585
0.340698
0.345611
0.35036
0.354373
0.358162
0.319323
0.321473
0.3244
0.328331
0.33285
0.337645
0.342507
0.347199
0.351063
0.354577
0.316489
0.318649
0.321558
0.325445
0.329911
0.334656
0.33947
0.344116
0.347955
0.351226
0.313661
0.315868
0.318764
0.32261
0.327026
0.331742
0.336569
0.341454
0.34665
0.351907
0.310722
0.31308
0.315998
0.319815
0.324169
0.32881
0.333548
0.338327
0.343512
0.348589
0.307767
0.310329
0.313282
0.317068
0.321341
0.325862
0.330443
0.335015
0.339822
0.344094
0.304831
0.30763
0.310626
0.314383
0.318566
0.322951
0.327367
0.331754
0.336275
0.34011
0.301923
0.304984
0.308034
0.311769
0.315864
0.320111
0.324359
0.328559
0.332823
0.336397
0.29905
0.302393
0.305511
0.309235
0.313249
0.31736
0.321437
0.325439
0.329444
0.332819
0.296217
0.299858
0.303062
0.306789
0.310732
0.314712
0.318619
0.322418
0.326165
0.329364
0.293423
0.297375
0.300683
0.304433
0.308318
0.312176
0.315917
0.319512
0.323
0.326028
0.29066
0.294932
0.298369
0.302162
0.306007
0.309756
0.313337
0.316728
0.319957
0.322803
0.287974
0.292548
0.296127
0.299982
0.303803
0.307455
0.310884
0.314074
0.317042
0.319687
)
;

boundaryField
{
    inlet
    {
        type            zeroGradient;
    }
    outlet
    {
        type            fixedValue;
        value           uniform 0;
    }
    cylinder
    {
        type            zeroGradient;
    }
    top
    {
        type            symmetryPlane;
    }
    bottom
    {
        type            symmetryPlane;
    }
    defaultFaces
    {
        type            empty;
    }
}


// ************************************************************************* //
