/*--------------------------------*- C++ -*----------------------------------*\
  =========                 |
  \\      /  F ield         | OpenFOAM: The Open Source CFD Toolbox
   \\    /   O peration     | Website:  https://openfoam.org
    \\  /    A nd           | Version:  7
     \\/     M anipulation  |
\*---------------------------------------------------------------------------*/
FoamFile
{
    version     2.0;
    format      ascii;
    class       volScalarField;
    location    "5.2";
    object      p;
}
// * * * * * * * * * * * * * * * * * * * * * * * * * * * * * * * * * * * * * //

dimensions      [0 2 -2 0 0 0 0];

internalField   nonuniform List<scalar> 
8000
(
0.278653
0.281073
0.282751
0.284648
0.286593
0.288566
0.290547
0.292514
0.294448
0.296336
0.298168
0.299939
0.301644
0.303282
0.304852
0.306354
0.307792
0.309169
0.310487
0.311741
0.277375
0.279823
0.281547
0.283493
0.285481
0.287487
0.28949
0.291466
0.293399
0.295275
0.297086
0.298826
0.300494
0.302086
0.303605
0.305051
0.306428
0.307738
0.308977
0.310177
0.276017
0.278527
0.280313
0.282321
0.284362
0.286408
0.288439
0.29043
0.292366
0.294234
0.296027
0.297741
0.299372
0.300921
0.30239
0.303779
0.305096
0.306338
0.307499
0.308635
0.274636
0.277225
0.279079
0.281154
0.283251
0.285341
0.287402
0.289411
0.291352
0.293215
0.294993
0.296682
0.29828
0.299787
0.301206
0.302539
0.303794
0.304969
0.306051
0.307114
0.273226
0.275907
0.277834
0.279982
0.28214
0.284278
0.286372
0.288402
0.290353
0.292214
0.293979
0.295645
0.297212
0.298679
0.30005
0.301329
0.302522
0.303629
0.304633
0.305614
0.271779
0.274565
0.276572
0.278799
0.281023
0.283214
0.285346
0.287401
0.289364
0.291225
0.292981
0.294628
0.296165
0.297594
0.298919
0.300144
0.301276
0.302316
0.303244
0.304131
0.270288
0.273194
0.275289
0.277601
0.279898
0.282145
0.28432
0.286402
0.28838
0.290246
0.291994
0.293624
0.295134
0.296529
0.29781
0.298984
0.300056
0.30103
0.301884
0.302666
0.26875
0.27179
0.27398
0.276385
0.278759
0.281068
0.283289
0.285403
0.287399
0.28927
0.291014
0.292628
0.294116
0.295478
0.296719
0.297844
0.298858
0.299768
0.300552
0.301219
0.267156
0.270349
0.272642
0.275147
0.277604
0.279979
0.28225
0.284398
0.286415
0.288294
0.290035
0.291637
0.293103
0.294437
0.295642
0.296721
0.29768
0.29853
0.299251
0.299791
0.265501
0.268866
0.271271
0.273883
0.27643
0.278876
0.281199
0.283385
0.285423
0.287312
0.289051
0.290643
0.292091
0.293399
0.294572
0.29561
0.29652
0.297315
0.29798
0.298385
0.263779
0.267339
0.269864
0.272592
0.275233
0.277754
0.280133
0.282357
0.284419
0.286318
0.288056
0.289639
0.291072
0.292358
0.293503
0.294507
0.295373
0.296121
0.296743
0.297005
0.261984
0.265762
0.268418
0.271269
0.274011
0.27661
0.279047
0.28131
0.283395
0.285304
0.287043
0.288618
0.290037
0.291305
0.292427
0.293404
0.294235
0.294948
0.295543
0.29566
0.260109
0.264133
0.26693
0.269913
0.27276
0.27544
0.277937
0.28024
0.282347
0.284266
0.286004
0.287571
0.288977
0.290229
0.291334
0.292292
0.2931
0.293793
0.294385
0.29436
0.258152
0.26245
0.265398
0.268521
0.271479
0.274243
0.276799
0.279141
0.281269
0.283195
0.28493
0.286488
0.28788
0.289117
0.29021
0.291159
0.291959
0.292653
0.293275
0.293124
0.256109
0.260711
0.263821
0.267092
0.270165
0.273014
0.27563
0.278009
0.280156
0.282086
0.283814
0.285358
0.286733
0.287956
0.289039
0.289988
0.290797
0.291522
0.292221
0.291978
0.253981
0.258918
0.2622
0.265626
0.268818
0.271753
0.274427
0.27684
0.279002
0.280931
0.282648
0.284172
0.285524
0.286727
0.287801
0.288756
0.28959
0.290381
0.291224
0.290956
0.251767
0.257071
0.260535
0.264123
0.267437
0.270458
0.273188
0.275632
0.277804
0.279726
0.281422
0.282917
0.284237
0.28541
0.286467
0.287428
0.288297
0.289187
0.29026
0.29009
0.249473
0.255174
0.258829
0.262585
0.266021
0.269128
0.271912
0.274381
0.276557
0.278465
0.280131
0.281584
0.282856
0.283983
0.285005
0.285957
0.286862
0.287883
0.289333
0.289523
0.247103
0.253232
0.257085
0.261014
0.264574
0.267764
0.270597
0.273088
0.275261
0.277145
0.278769
0.280165
0.281368
0.282419
0.283371
0.284279
0.2852
0.286423
0.288605
0.289837
0.24467
0.251253
0.25531
0.259414
0.263098
0.266367
0.269246
0.271752
0.273915
0.275765
0.277334
0.278654
0.27976
0.280693
0.281502
0.282247
0.283024
0.284257
0.286983
0.289663
0.314466
0.318855
0.322036
0.325256
0.327894
0.330337
0.332489
0.334435
0.336175
0.337726
0.339095
0.34029
0.341319
0.342189
0.34291
0.343492
0.343943
0.344273
0.344491
0.344599
0.313022
0.317256
0.320434
0.323627
0.326257
0.328694
0.330848
0.332799
0.334545
0.336106
0.337485
0.338693
0.339734
0.340618
0.341352
0.341947
0.342413
0.342755
0.342983
0.343105
0.311542
0.315678
0.318829
0.322001
0.32462
0.327051
0.329205
0.331159
0.332912
0.334482
0.335872
0.337093
0.338148
0.339046
0.339795
0.340404
0.340883
0.341238
0.341477
0.341613
0.310016
0.31412
0.317219
0.32038
0.322982
0.325408
0.32756
0.329517
0.331276
0.332856
0.334257
0.335491
0.33656
0.337473
0.338238
0.338861
0.339355
0.339722
0.339972
0.340121
0.308432
0.312582
0.315603
0.318763
0.321345
0.323764
0.325914
0.327873
0.329638
0.331226
0.33264
0.333887
0.334971
0.3359
0.33668
0.337318
0.337826
0.338208
0.338468
0.338629
0.306778
0.311063
0.313979
0.317149
0.319709
0.322122
0.324268
0.326228
0.327998
0.329594
0.33102
0.33228
0.33338
0.334325
0.335121
0.335775
0.336296
0.336692
0.336964
0.337136
0.305041
0.30956
0.312345
0.315537
0.318074
0.320481
0.322621
0.324581
0.326356
0.32796
0.329398
0.330672
0.331787
0.332748
0.333561
0.334231
0.334766
0.335176
0.335458
0.335642
0.303208
0.308069
0.310701
0.313926
0.316439
0.31884
0.320974
0.322933
0.324711
0.326323
0.327772
0.329061
0.330191
0.331169
0.331999
0.332685
0.333235
0.333659
0.333951
0.334145
0.30127
0.306584
0.309044
0.312313
0.314804
0.317199
0.319327
0.321283
0.323064
0.324684
0.326144
0.327447
0.328594
0.329588
0.330435
0.331137
0.331702
0.332139
0.332441
0.332644
0.299217
0.305097
0.307376
0.310696
0.313168
0.315556
0.317677
0.319631
0.321414
0.323041
0.324513
0.325831
0.326994
0.328005
0.328869
0.329587
0.330166
0.330616
0.330928
0.331139
0.297047
0.303599
0.305695
0.309073
0.31153
0.313911
0.316025
0.317975
0.31976
0.321394
0.322878
0.32421
0.32539
0.326419
0.3273
0.328034
0.328628
0.32909
0.32941
0.329629
0.294763
0.302076
0.304003
0.30744
0.309888
0.312262
0.314368
0.316314
0.318101
0.319743
0.321239
0.322587
0.323783
0.32483
0.325728
0.326479
0.327086
0.32756
0.327888
0.328112
0.292377
0.300513
0.302301
0.305793
0.308238
0.310604
0.312704
0.314647
0.316437
0.318087
0.319595
0.320958
0.322173
0.323237
0.324152
0.324919
0.32554
0.326025
0.326361
0.326589
0.289915
0.298892
0.30059
0.304127
0.306577
0.308934
0.31103
0.312971
0.314765
0.316425
0.317947
0.319326
0.320558
0.321641
0.322573
0.323356
0.32399
0.324485
0.324827
0.325057
0.287422
0.297197
0.298871
0.302437
0.304899
0.307249
0.309343
0.311285
0.313085
0.314756
0.316293
0.317689
0.31894
0.320041
0.32099
0.321788
0.322435
0.322939
0.323287
0.323516
0.284975
0.295424
0.297153
0.300725
0.303208
0.30555
0.307646
0.309592
0.3114
0.313084
0.314635
0.316049
0.317319
0.318438
0.319404
0.320216
0.320874
0.321386
0.321738
0.321965
0.282653
0.293548
0.295422
0.298982
0.301494
0.303833
0.305933
0.307885
0.309704
0.311402
0.31297
0.314403
0.315692
0.316829
0.317812
0.318638
0.319308
0.319826
0.320181
0.320404
0.280478
0.291417
0.293558
0.29711
0.299674
0.302021
0.304138
0.306108
0.307948
0.30967
0.311264
0.312724
0.314039
0.3152
0.316203
0.317047
0.317729
0.318256
0.318614
0.318831
0.27885
0.288994
0.291479
0.295022
0.297674
0.300059
0.302219
0.304232
0.306115
0.307878
0.309514
0.311012
0.312362
0.313553
0.314581
0.315444
0.316142
0.316676
0.317037
0.317246
0.279823
0.287634
0.290072
0.293472
0.296181
0.298585
0.30077
0.302798
0.304688
0.306448
0.308075
0.309559
0.310891
0.312064
0.313073
0.313917
0.314597
0.315114
0.31546
0.31565
0.289246
0.289801
0.290674
0.293415
0.295973
0.298158
0.30009
0.301822
0.30338
0.304785
0.306055
0.307198
0.308218
0.309114
0.309886
0.310532
0.311052
0.311444
0.311704
0.311838
0.278556
0.279963
0.281702
0.285043
0.288084
0.290608
0.292806
0.294751
0.296475
0.298009
0.299378
0.3006
0.301684
0.302634
0.303452
0.304139
0.304692
0.30511
0.305391
0.305532
0.266717
0.269422
0.272133
0.276026
0.279533
0.282454
0.284978
0.287188
0.289121
0.290819
0.292316
0.293639
0.294805
0.295822
0.296696
0.29743
0.298022
0.298471
0.298772
0.298924
0.254705
0.258629
0.262186
0.266574
0.270558
0.273924
0.276822
0.279333
0.2815
0.283375
0.285002
0.28642
0.287654
0.288722
0.289635
0.290398
0.291013
0.291477
0.291789
0.291945
0.241855
0.246776
0.251127
0.256035
0.260534
0.2644
0.26774
0.270623
0.273097
0.275216
0.277035
0.2786
0.279946
0.281098
0.282074
0.282885
0.283534
0.284022
0.28435
0.284513
0.228206
0.233922
0.238982
0.244405
0.249423
0.253806
0.257623
0.26093
0.263771
0.266199
0.268271
0.270039
0.271547
0.272826
0.2739
0.274785
0.275489
0.276016
0.276368
0.276543
0.213902
0.220252
0.22592
0.231827
0.23734
0.242228
0.246528
0.250282
0.253523
0.256301
0.25867
0.260685
0.262394
0.263834
0.265035
0.266017
0.266794
0.267372
0.267755
0.267946
0.198974
0.205841
0.212028
0.21838
0.224354
0.229719
0.234487
0.238687
0.242341
0.245489
0.248182
0.250473
0.252412
0.25404
0.255392
0.256491
0.257355
0.257994
0.258417
0.258627
0.183418
0.190718
0.197356
0.204113
0.210508
0.21631
0.221517
0.226143
0.230201
0.233722
0.236749
0.239332
0.241519
0.243355
0.244874
0.246105
0.247068
0.247779
0.248247
0.248478
0.167224
0.174902
0.181943
0.189066
0.195836
0.202029
0.207631
0.212649
0.217086
0.220963
0.224316
0.22719
0.229631
0.23168
0.233376
0.234749
0.23582
0.236608
0.237126
0.237381
0.150399
0.158413
0.165821
0.173269
0.180363
0.186893
0.192838
0.198199
0.202972
0.207172
0.210826
0.213973
0.216656
0.218915
0.220786
0.222301
0.223482
0.22435
0.224919
0.2252
0.132953
0.141269
0.149013
0.156738
0.1641
0.170905
0.17713
0.182773
0.187827
0.192298
0.19621
0.199596
0.202495
0.204943
0.206976
0.208624
0.20991
0.210854
0.211472
0.211777
0.114975
0.123527
0.131559
0.139496
0.147053
0.154059
0.160489
0.166339
0.171599
0.176274
0.180384
0.183957
0.187027
0.189629
0.191796
0.193556
0.194931
0.195941
0.196603
0.196929
0.0965069
0.105245
0.113498
0.121563
0.129223
0.136338
0.142881
0.148845
0.154221
0.159014
0.163242
0.166931
0.170113
0.172818
0.175078
0.176919
0.17836
0.179419
0.180113
0.180455
0.0779077
0.0866242
0.0949583
0.103009
0.110636
0.117733
0.124268
0.130227
0.135604
0.140406
0.144649
0.148359
0.151567
0.154301
0.156591
0.158459
0.159924
0.161002
0.161709
0.162058
0.0591108
0.0677656
0.0760147
0.0838831
0.0913115
0.098228
0.104597
0.110402
0.115639
0.120317
0.124455
0.128079
0.13122
0.133906
0.136163
0.138011
0.139464
0.140536
0.141239
0.14158
0.0413795
0.0492817
0.0570563
0.0644188
0.0713723
0.0778663
0.0838472
0.0892868
0.0941793
0.0985355
0.102378
0.105735
0.108639
0.11112
0.113203
0.114907
0.116246
0.117231
0.117879
0.118217
0.0234578
0.0310621
0.0381031
0.0446418
0.0507979
0.056572
0.0619075
0.0667665
0.0711399
0.075036
0.0784756
0.081487
0.084101
0.0863459
0.0882437
0.0898082
0.0910454
0.0919594
0.0925581
0.0928246
0.00956102
0.0146666
0.0204305
0.0255894
0.0303917
0.0348708
0.0389602
0.0426236
0.0458628
0.0486966
0.0511543
0.0532706
0.0550805
0.0566146
0.0578968
0.0589432
0.0597626
0.0603587
0.0607568
0.0610846
-0.012297
-0.00515717
-0.000361215
0.00388237
0.0077967
0.0113762
0.0146139
0.0175105
0.0200639
0.0222835
0.0241946
0.0258327
0.0272347
0.0284313
0.0294429
0.030279
0.0309412
0.0314225
0.031683
0.0316189
0.272433
0.262882
0.254315
0.243942
0.23239
0.219626
0.205866
0.191223
0.175808
0.159701
0.142997
0.125726
0.108099
0.0899795
0.072167
0.053567
0.037698
0.0180017
0.011919
-0.0222185
0.272699
0.260743
0.252188
0.241368
0.229527
0.216533
0.202608
0.187852
0.172371
0.156233
0.139538
0.122303
0.10477
0.0867488
0.0691888
0.0506679
0.0355324
0.015287
0.012223
-0.0261957
0.2727
0.25869
0.249938
0.238551
0.226357
0.213099
0.199005
0.184151
0.168628
0.152493
0.135835
0.118667
0.10124
0.0833429
0.0660095
0.0476323
0.0330966
0.0126213
0.0117482
-0.0295245
0.271429
0.256073
0.247295
0.235513
0.223092
0.209659
0.195453
0.180535
0.164989
0.148864
0.132247
0.115147
0.0978253
0.0800594
0.0629417
0.0447332
0.0307221
0.0101152
0.0110943
-0.0326657
0.269597
0.253303
0.244509
0.232409
0.219811
0.206241
0.191946
0.176978
0.161415
0.145302
0.128724
0.111694
0.0944787
0.0768522
0.0599458
0.041929
0.0283893
0.00771795
0.0103442
-0.0357695
0.267424
0.250541
0.241665
0.229286
0.216528
0.202837
0.188464
0.173453
0.157876
0.141778
0.125242
0.108284
0.0911775
0.0736993
0.057
0.0391986
0.0260768
0.00541115
0.00948011
-0.0388721
0.264939
0.247794
0.238772
0.226161
0.213258
0.199459
0.185018
0.16997
0.154382
0.1383
0.121807
0.104926
0.0879291
0.0706079
0.0541118
0.0365482
0.0237915
0.00319765
0.00850566
-0.0420211
0.262199
0.24507
0.235849
0.223052
0.210018
0.196124
0.181621
0.166539
0.150943
0.134877
0.118429
0.101626
0.0847429
0.0675866
0.0512914
0.0339865
0.0215455
0.00108565
0.00743289
-0.0452726
0.259274
0.242386
0.23292
0.219979
0.206826
0.192845
0.178285
0.163171
0.147566
0.131517
0.115115
0.0983929
0.0816258
0.0646423
0.0485473
0.0315217
0.0193514
-0.000911515
0.00627551
-0.0486653
0.256232
0.239757
0.230012
0.216961
0.203696
0.189636
0.175019
0.159874
0.14426
0.128227
0.11187
0.0952317
0.0785842
0.0617815
0.0458882
0.0291629
0.017224
-0.00277278
0.00503711
-0.0522794
0.253137
0.237194
0.227148
0.214013
0.200642
0.186507
0.171834
0.156655
0.14103
0.125013
0.108701
0.0921487
0.0756245
0.0590106
0.0433232
0.0269203
0.0151823
-0.00446216
0.00366418
-0.0565407
0.250053
0.23471
0.224353
0.211152
0.197679
0.183469
0.168739
0.153523
0.137884
0.12188
0.105614
0.0891496
0.072753
0.0563358
0.0408613
0.0248052
0.0132534
-0.00591136
0.00205492
-0.0622504
0.247038
0.232318
0.221652
0.208392
0.194819
0.180531
0.16574
0.150483
0.134827
0.118835
0.102614
0.0862398
0.0699753
0.0537627
0.0385106
0.022828
0.0114704
-0.0070192
0.000357396
-0.0677916
0.24415
0.230034
0.219065
0.205748
0.192072
0.177704
0.162846
0.147543
0.131866
0.115884
0.0997072
0.0834246
0.0672964
0.051296
0.0362779
0.0209959
0.00986003
-0.00772031
-0.000784761
-0.0638031
0.241439
0.227872
0.216615
0.203233
0.189451
0.174995
0.160065
0.14471
0.129007
0.11303
0.0968978
0.0807083
0.0647208
0.0489395
0.0341673
0.0193103
0.00843049
-0.00804384
-0.0014724
-0.0509849
0.23895
0.225851
0.214321
0.20086
0.186965
0.172413
0.157403
0.141988
0.126254
0.11028
0.0941902
0.078095
0.0622519
0.0466958
0.0321808
0.0177669
0.00717048
-0.00807608
-0.00206712
-0.0402947
0.236725
0.223988
0.2122
0.198642
0.184625
0.169966
0.154866
0.139384
0.123612
0.107637
0.0915883
0.0755881
0.0598927
0.0445664
0.0303182
0.0163574
0.00605976
-0.00792498
-0.00254424
-0.0327191
0.234797
0.222302
0.210268
0.196589
0.182439
0.16766
0.15246
0.136902
0.121086
0.105105
0.0890956
0.0731904
0.0576452
0.0425519
0.0285777
0.0150725
0.00508174
-0.00769123
-0.00345517
-0.0264138
0.233195
0.220811
0.208542
0.194714
0.180417
0.165504
0.150192
0.134548
0.118679
0.102688
0.0867151
0.0709042
0.0555108
0.0406524
0.026957
0.0139035
0.00422185
-0.00741116
-0.00415096
-0.0214138
0.231942
0.219532
0.207033
0.193025
0.178567
0.163502
0.148066
0.132325
0.116397
0.100389
0.0844492
0.0687314
0.0534905
0.0388674
0.0254531
0.0128431
0.00347123
-0.00710067
-0.00463088
-0.0174797
0.231056
0.218484
0.205754
0.191534
0.176895
0.161662
0.146087
0.130239
0.114241
0.0982103
0.0823006
0.0666737
0.0515852
0.0371961
0.0240634
0.0118854
0.00282503
-0.00676918
-0.00498632
-0.0143411
0.230555
0.217684
0.204718
0.19025
0.17541
0.159989
0.144261
0.128291
0.112216
0.0961551
0.0802703
0.0647313
0.0497937
0.0356361
0.0227835
0.0110242
0.00227606
-0.00645161
-0.00521879
-0.0118116
0.230447
0.217147
0.203934
0.189182
0.174119
0.158489
0.14259
0.126487
0.110323
0.094225
0.07836
0.0629054
0.0481165
0.0341867
0.0216111
0.0102549
0.0018078
-0.00613282
-0.00534422
-0.00976041
0.230742
0.216888
0.203412
0.188338
0.173028
0.157168
0.14108
0.124828
0.108565
0.0924218
0.0765711
0.0611966
0.0465533
0.0328465
0.0205437
0.00957384
0.00142694
-0.00581857
-0.00537886
-0.00808784
0.231444
0.21692
0.20316
0.187727
0.172143
0.15603
0.139733
0.123318
0.106943
0.0907467
0.0749042
0.059605
0.0451037
0.0316142
0.0195789
0.00898004
0.00112524
-0.00550323
-0.00533556
-0.00671605
0.232557
0.217256
0.203186
0.187358
0.171471
0.15508
0.138554
0.121959
0.10546
0.0892008
0.0733598
0.0581306
0.0437667
0.0304884
0.0187143
0.00846861
0.000899124
-0.00518181
-0.0052257
-0.00558444
0.234081
0.217908
0.203498
0.187237
0.171018
0.154323
0.137546
0.120753
0.104117
0.0877848
0.0719382
0.056773
0.0425415
0.0294678
0.0179476
0.00803758
0.000744334
-0.00485141
-0.00505985
-0.00464588
0.236014
0.218886
0.204103
0.187374
0.17079
0.153764
0.136712
0.119703
0.102915
0.0864994
0.0706393
0.0555319
0.041427
0.0285509
0.0172765
0.00768498
0.000657189
-0.00451008
-0.00484748
-0.00386362
0.238356
0.220201
0.205006
0.187778
0.170793
0.153407
0.136055
0.11881
0.101855
0.0853452
0.0694631
0.0544064
0.040422
0.0277362
0.0166986
0.0074086
0.000634121
-0.00415634
-0.00459685
-0.00320873
0.241105
0.221861
0.206215
0.188455
0.171032
0.153256
0.135578
0.118077
0.100939
0.0843222
0.0684091
0.0533958
0.0395259
0.0270211
0.0162115
0.00720605
0.00067159
-0.00378926
-0.00431498
-0.00265834
0.244248
0.223883
0.207734
0.189412
0.171511
0.153314
0.135283
0.117504
0.100167
0.08343
0.067477
0.0524994
0.0387361
0.0264044
0.0158127
0.00707482
0.000766092
-0.00340839
-0.00400782
-0.00219413
0.247764
0.226291
0.209567
0.190657
0.172236
0.153585
0.135172
0.117093
0.0995383
0.0826678
0.0666667
0.051715
0.0380509
0.0258836
0.0154993
0.00701219
0.000914152
-0.00301367
-0.0036803
-0.00180135
0.251654
0.229088
0.211723
0.192198
0.173213
0.154075
0.13525
0.116846
0.0990559
0.0820388
0.0659735
0.0510413
0.0374684
0.0254562
0.0152684
0.00701529
0.00111234
-0.00260534
-0.00333642
-0.0014679
0.255908
0.2323
0.214216
0.194046
0.174451
0.154792
0.135523
0.116769
0.0987215
0.0815411
0.065401
0.0504782
0.0369877
0.0251206
0.0151177
0.00708164
0.00135759
-0.00218369
-0.00297929
-0.00118378
0.260504
0.235928
0.217026
0.196183
0.175938
0.155728
0.135986
0.116857
0.0985344
0.0811758
0.0649502
0.0500273
0.0366098
0.024877
0.0150467
0.00721014
0.00164796
-0.00174849
-0.002611
-0.000940462
0.265354
0.239883
0.220065
0.198536
0.17762
0.15684
0.136607
0.117088
0.0984761
0.0809291
0.0646105
0.0496809
0.0363293
0.0247217
0.0150522
0.0073984
0.00198112
-0.00129975
-0.00223305
-0.000730566
0.270368
0.244171
0.223364
0.20114
0.17953
0.158152
0.137395
0.117454
0.0985268
0.0807716
0.064347
0.049403
0.0361124
0.0246255
0.015111
0.00762963
0.00234577
-0.000842419
-0.00184868
-0.000547632
0.275896
0.249463
0.227553
0.20453
0.182113
0.160013
0.13861
0.118133
0.0987945
0.0807568
0.0641727
0.0491791
0.0359284
0.0245513
0.0151869
0.00787373
0.00272019
-0.000388208
-0.00146368
-0.000385934
0.282271
0.256292
0.233077
0.209098
0.185726
0.162765
0.140588
0.11946
0.0996097
0.0812019
0.0643797
0.0492653
0.0359891
0.0246624
0.015396
0.00820635
0.0031482
8.66015e-05
-0.00106547
-0.000239735
0.285578
0.260393
0.236329
0.21182
0.187936
0.164589
0.142105
0.12075
0.100743
0.0822343
0.0653487
0.0501923
0.0368811
0.0255227
0.016221
0.00899744
0.00387807
0.000725668
-0.000582591
-0.00010326
0.280276
0.257991
0.23472
0.210696
0.187228
0.164495
0.142702
0.122076
0.102786
0.0849375
0.068598
0.0538243
0.0406908
0.0292959
0.0197504
0.0121341
0.00648115
0.00272831
0.000764943
0.000212152
0.2814
0.258197
0.233241
0.207627
0.182757
0.158903
0.13637
0.115389
0.0961319
0.0786862
0.0630881
0.0493418
0.0374351
0.0273461
0.0190399
0.0124556
0.00749495
0.00401891
0.00184999
0.000587654
0.279933
0.25632
0.230222
0.203677
0.178122
0.153748
0.131143
0.110386
0.0916137
0.0748612
0.0601036
0.0472852
0.0363292
0.0271407
0.0196047
0.0135828
0.00891079
0.00540651
0.00286258
0.000934738
0.277426
0.253682
0.226677
0.199454
0.173452
0.149047
0.126626
0.106367
0.0883229
0.072447
0.058636
0.0467563
0.0366564
0.0281728
0.0211349
0.0153672
0.0106905
0.00692477
0.00387598
0.00126952
0.275003
0.25026
0.22292
0.1954
0.169324
0.145163
0.123233
0.103671
0.0864517
0.0714511
0.0584961
0.0473913
0.0379324
0.029914
0.0231368
0.0174129
0.0125672
0.0084357
0.00484866
0.00159115
0.272586
0.247188
0.219583
0.192071
0.166241
0.142575
0.121328
0.102557
0.0861573
0.0719386
0.0596725
0.0491216
0.0400529
0.0322461
0.0254995
0.0196335
0.0144886
0.00992011
0.00578163
0.00190146
0.270784
0.244968
0.217251
0.190005
0.164659
0.141646
0.121146
0.103133
0.0874363
0.0738175
0.0620154
0.051773
0.0428504
0.0350315
0.0281275
0.0219762
0.0164371
0.011383
0.00668597
0.0022033
0.270115
0.244056
0.216411
0.189626
0.164892
0.142568
0.122754
0.105357
0.090161
0.0769043
0.0653157
0.0551392
0.0461443
0.0381305
0.0309274
0.0243907
0.0183952
0.0128266
0.0075692
0.00249863
0.270953
0.2448
0.217387
0.191167
0.167056
0.145338
0.12605
0.109053
0.0941133
0.0809675
0.0693532
0.0590295
0.0497844
0.0414368
0.0338336
0.0268441
0.0203531
0.0142534
0.00843638
0.00278873
0.273497
0.247381
0.220301
0.194648
0.171067
0.149788
0.130805
0.113963
0.0990333
0.0857673
0.0739238
0.0632837
0.0536556
0.0448758
0.0368038
0.0293175
0.0223062
0.0156658
0.009291
0.0030745
0.277767
0.251781
0.22507
0.1999
0.176685
0.155635
0.136722
0.1198
0.104663
0.0910871
0.0788571
0.0677767
0.0576728
0.0483944
0.0398089
0.0317974
0.0242506
0.0170644
0.0101346
0.00335638
0.283606
0.257805
0.23144
0.206613
0.183577
0.162543
0.143487
0.126289
0.110772
0.0967447
0.0840165
0.0724116
0.0617709
0.0519513
0.0428238
0.0342699
0.0261792
0.0184464
0.0109661
0.0036341
0.290715
0.265114
0.239036
0.2144
0.191367
0.170167
0.150798
0.133177
0.117159
0.102585
0.0892862
0.0771045
0.06589
0.0555044
0.0458193
0.036715
0.028079
0.0198036
0.0117813
0.00390629
0.298686
0.273273
0.247413
0.222831
0.199659
0.17816
0.158364
0.140224
0.123633
0.108457
0.0945499
0.0817653
0.0699604
0.0589996
0.0487538
0.0391014
0.0299272
0.0211208
0.0125714
0.00417014
0.307028
0.281782
0.256077
0.231447
0.208046
0.18617
0.165883
0.147181
0.129987
0.114193
0.0996691
0.0862803
0.073889
0.062361
0.0515666
0.0413818
0.0316888
0.0223737
0.0133223
0.00442097
0.315203
0.290101
0.264502
0.239765
0.216094
0.193813
0.173027
0.153764
0.13598
0.119586
0.104468
0.090501
0.0775511
0.0654856
0.0541741
0.0434904
0.0333141
0.023528
0.0140135
0.00465201
0.32265
0.297668
0.272145
0.247279
0.223339
0.200675
0.179425
0.159649
0.141326
0.124388
0.108733
0.0942439
0.0807915
0.0682443
0.0564712
0.0453444
0.0347408
0.02454
0.0146191
0.00485457
0.328824
0.303939
0.27847
0.253485
0.229315
0.206328
0.18469
0.164486
0.145716
0.128326
0.112226
0.0973045
0.0834369
0.0704927
0.0583404
0.0468507
0.0358984
0.0253604
0.01511
0.00501884
0.333247
0.308433
0.283
0.257926
0.23359
0.210369
0.188453
0.167942
0.14885
0.131135
0.114715
0.0994834
0.0853182
0.0720898
0.0596665
0.0479182
0.0367182
0.025941
0.0154572
0.00513495
0.335549
0.310763
0.285356
0.260235
0.235812
0.21247
0.190409
0.169737
0.150477
0.132593
0.116006
0.100613
0.0862929
0.0729166
0.0603526
0.0484702
0.0371419
0.0262411
0.0156362
0.00519412
0.303929
0.305366
0.304403
0.302565
0.30041
0.298378
0.296866
0.296201
0.296668
0.298468
0.301691
0.306292
0.312086
0.318757
0.325888
0.332985
0.339523
0.344988
0.348924
0.351011
0.310354
0.311806
0.310953
0.309283
0.307346
0.305567
0.304321
0.303892
0.304529
0.306408
0.309615
0.314111
0.319728
0.326171
0.333046
0.339885
0.346184
0.351456
0.355261
0.35732
0.315902
0.316721
0.315657
0.314044
0.31218
0.310537
0.309471
0.309255
0.310126
0.312236
0.315649
0.320306
0.326024
0.332504
0.339359
0.346134
0.352347
0.357536
0.361278
0.363331
0.321721
0.321906
0.32077
0.319089
0.317277
0.315739
0.314808
0.314744
0.315774
0.318037
0.321582
0.326339
0.332115
0.33861
0.345438
0.352157
0.358299
0.363421
0.367111
0.369159
0.327624
0.32725
0.326053
0.324362
0.322643
0.321241
0.320466
0.320557
0.321729
0.324107
0.32773
0.332521
0.338288
0.344733
0.351481
0.358101
0.36414
0.36917
0.372794
0.374824
0.333455
0.332537
0.331246
0.329573
0.327973
0.326726
0.326126
0.326387
0.327707
0.330197
0.333885
0.338691
0.344423
0.35079
0.35743
0.363925
0.369837
0.374758
0.378299
0.380299
0.339174
0.337669
0.336342
0.33468
0.333206
0.33212
0.331698
0.33213
0.333596
0.336193
0.339938
0.344746
0.35043
0.356706
0.363223
0.36958
0.375354
0.380154
0.383605
0.385564
0.344751
0.342765
0.341354
0.339697
0.33835
0.337426
0.337181
0.337781
0.339385
0.342077
0.345865
0.350661
0.356282
0.362455
0.368837
0.375045
0.380672
0.385344
0.388698
0.390609
0.350142
0.347732
0.346259
0.344612
0.343393
0.34263
0.342562
0.343323
0.345057
0.347833
0.351651
0.356421
0.361966
0.36802
0.374257
0.380306
0.385778
0.390315
0.393567
0.395423
0.355313
0.35254
0.351031
0.349404
0.348313
0.34771
0.347814
0.348732
0.350587
0.353436
0.357272
0.362004
0.36746
0.373386
0.379467
0.385349
0.390659
0.395057
0.398204
0.399998
0.360222
0.357182
0.35565
0.354055
0.353091
0.352644
0.352915
0.353981
0.355948
0.358861
0.362705
0.367388
0.372745
0.378534
0.384452
0.390161
0.395305
0.399559
0.402598
0.404327
0.364887
0.361644
0.360097
0.358549
0.357709
0.357415
0.357844
0.35905
0.36112
0.364086
0.367928
0.372554
0.377805
0.383448
0.389198
0.39473
0.399705
0.403813
0.406744
0.408403
0.369267
0.365907
0.364353
0.362869
0.362152
0.362005
0.362584
0.363921
0.366084
0.369094
0.372925
0.377486
0.382623
0.388118
0.393695
0.399048
0.403853
0.407814
0.410636
0.412225
0.373349
0.369955
0.368404
0.366999
0.366404
0.3664
0.36712
0.368578
0.370826
0.37387
0.377682
0.382172
0.387191
0.392532
0.397935
0.403109
0.407744
0.411559
0.414272
0.41579
0.377131
0.373778
0.372236
0.370929
0.370454
0.370588
0.371442
0.373011
0.375332
0.378402
0.382189
0.386602
0.391499
0.396685
0.401914
0.406908
0.411374
0.415045
0.417651
0.419099
0.380609
0.377369
0.375842
0.374648
0.374293
0.374561
0.375538
0.377209
0.379595
0.382684
0.386438
0.390769
0.395543
0.400574
0.405629
0.410445
0.414745
0.418273
0.420776
0.422154
0.383786
0.380723
0.379218
0.37815
0.377912
0.378311
0.379405
0.381167
0.38361
0.386709
0.390425
0.394673
0.399321
0.404197
0.40908
0.413721
0.417858
0.421247
0.423649
0.424959
0.386667
0.383835
0.38236
0.38143
0.38131
0.381835
0.383037
0.384883
0.387373
0.390476
0.39415
0.398311
0.402835
0.407557
0.41227
0.416741
0.420718
0.423972
0.426276
0.427522
0.38926
0.386708
0.38527
0.384488
0.384485
0.385131
0.386434
0.388356
0.390885
0.393987
0.397615
0.401688
0.406088
0.410658
0.415206
0.419509
0.423332
0.426455
0.428664
0.429849
0.391577
0.389342
0.387952
0.387324
0.387438
0.388202
0.389599
0.391588
0.39415
0.397245
0.400824
0.404809
0.409086
0.413508
0.417894
0.422035
0.425708
0.428705
0.430823
0.431951
0.393635
0.391743
0.390412
0.389944
0.390173
0.39105
0.392535
0.394585
0.397174
0.400258
0.403786
0.407682
0.411838
0.416116
0.420345
0.424329
0.427857
0.430732
0.432762
0.433836
0.395445
0.393915
0.392655
0.39235
0.392693
0.393679
0.395247
0.397352
0.399961
0.403031
0.406506
0.410314
0.414353
0.418491
0.422568
0.4264
0.429789
0.432547
0.434494
0.435517
0.397028
0.395864
0.394691
0.394548
0.395007
0.396097
0.397741
0.399895
0.402522
0.405574
0.408997
0.412718
0.416642
0.420644
0.424575
0.42826
0.431515
0.434162
0.436029
0.437005
0.398402
0.397601
0.39653
0.396548
0.397121
0.398312
0.400027
0.402226
0.404865
0.407898
0.411267
0.414905
0.418717
0.422588
0.426378
0.429924
0.43305
0.435589
0.437381
0.438313
0.399584
0.399134
0.398181
0.398359
0.399046
0.400332
0.402115
0.404353
0.407002
0.410013
0.41333
0.416886
0.420591
0.424337
0.427991
0.431403
0.434406
0.436843
0.438561
0.439453
0.400596
0.400473
0.399657
0.399989
0.400789
0.402167
0.404012
0.406287
0.408943
0.411932
0.415198
0.418674
0.422276
0.425901
0.429427
0.43271
0.435596
0.437934
0.439583
0.440437
0.401453
0.401628
0.400967
0.401449
0.402363
0.403827
0.405731
0.408038
0.4107
0.413666
0.416881
0.420281
0.423785
0.427296
0.430699
0.433859
0.436632
0.438877
0.44046
0.441278
0.402174
0.402611
0.402125
0.402751
0.403776
0.405323
0.407282
0.409618
0.412282
0.415225
0.418393
0.42172
0.425131
0.428533
0.431818
0.434862
0.437528
0.439684
0.441203
0.441988
0.402775
0.403434
0.403141
0.403905
0.405039
0.406664
0.408673
0.411036
0.413701
0.416622
0.419744
0.423003
0.426325
0.429624
0.432799
0.435731
0.438295
0.440366
0.441824
0.442578
0.40327
0.404109
0.404026
0.404922
0.406164
0.407861
0.409917
0.412302
0.414969
0.417868
0.420946
0.42414
0.42738
0.430582
0.433651
0.436478
0.438945
0.440934
0.442334
0.443058
0.403671
0.404649
0.404794
0.405813
0.407159
0.408923
0.411021
0.413427
0.416094
0.418973
0.422011
0.425144
0.428306
0.431417
0.434387
0.437115
0.439489
0.4414
0.442744
0.44344
0.403989
0.405068
0.405453
0.40659
0.408033
0.409858
0.411995
0.41442
0.417087
0.419947
0.422947
0.426025
0.429114
0.43214
0.435017
0.43765
0.439936
0.441773
0.443063
0.443731
0.404234
0.405381
0.406014
0.407261
0.408795
0.410674
0.412847
0.415289
0.417956
0.4208
0.423766
0.426792
0.429815
0.432761
0.43555
0.438094
0.440297
0.442062
0.443301
0.443942
0.404412
0.405604
0.406486
0.407833
0.409449
0.411377
0.413583
0.416042
0.41871
0.42154
0.424475
0.427455
0.430416
0.433288
0.435996
0.438456
0.440578
0.442276
0.443465
0.444081
0.404526
0.405751
0.406875
0.408315
0.410003
0.411976
0.414213
0.416687
0.419358
0.422176
0.425084
0.428022
0.430927
0.433731
0.436363
0.438743
0.44079
0.442423
0.443563
0.444154
0.404581
0.405843
0.407191
0.408715
0.410468
0.412481
0.414747
0.417237
0.419912
0.422721
0.425604
0.428504
0.431357
0.434099
0.436658
0.438964
0.440939
0.442509
0.443603
0.444169
0.404585
0.405895
0.407436
0.409036
0.410846
0.412898
0.41519
0.417697
0.420377
0.423177
0.42604
0.428906
0.431713
0.434397
0.43689
0.439125
0.441031
0.442541
0.44359
0.444131
0.404521
0.405872
0.40756
0.409228
0.411086
0.413173
0.415492
0.418018
0.420708
0.423509
0.426361
0.429205
0.431977
0.434614
0.437051
0.439224
0.441069
0.442523
0.443529
0.444046
0.404261
0.40569
0.407501
0.409244
0.411147
0.413268
0.415615
0.418164
0.420873
0.423685
0.426541
0.429378
0.432132
0.434738
0.437134
0.439258
0.441051
0.442456
0.443425
0.44392
0.40382
0.405628
0.407653
0.409553
0.411552
0.413729
0.416103