/*--------------------------------*- C++ -*----------------------------------*\
  =========                 |
  \\      /  F ield         | OpenFOAM: The Open Source CFD Toolbox
   \\    /   O peration     | Website:  https://openfoam.org
    \\  /    A nd           | Version:  7
     \\/     M anipulation  |
\*---------------------------------------------------------------------------*/
FoamFile
{
    version     2.0;
    format      ascii;
    class       surfaceScalarField;
    location    "5.2";
    object      phi;
}
// * * * * * * * * * * * * * * * * * * * * * * * * * * * * * * * * * * * * * //

dimensions      [0 3 -1 0 0 0 0];

internalField   nonuniform List<scalar> 
3880
(
8.68115e-05
0.00335802
-0.00344483
0.000587311
0.00923886
-0.00973936
0.00157579
0.0140092
-0.0149977
0.00299689
0.0177469
-0.019168
0.00473452
0.0204605
-0.0221981
0.00666518
0.0222186
-0.0241493
0.00868341
0.023174
-0.0251922
0.0107081
0.0235257
-0.0255504
0.0126795
0.0234852
-0.0254567
0.0232555
0.0145548
-0.0251308
-1.90248e-05
0.00337704
0.000306946
0.00891289
0.00110261
0.0132135
0.00235804
0.0164915
0.00399019
0.0188283
0.00589542
0.0203134
0.00797614
0.0210933
0.0101504
0.0213515
0.0123511
0.0212845
0.0210933
0.0145132
-0.000116377
0.00349342
4.61876e-05
0.00875033
0.000650291
0.0126094
0.00173141
0.0154104
0.00323645
0.0173233
0.00508698
0.0184629
0.00720243
0.0189778
0.00951148
0.0190425
0.0119532
0.0188428
0.0185942
0.0144523
-0.000199734
0.00369315
-0.000175649
0.00872624
0.000270032
0.0121638
0.00119621
0.0144842
0.00257958
0.0159399
0.00436852
0.0166739
0.00650345
0.0168429
0.00893027
0.0166156
0.0116051
0.0161679
0.0157327
0.0144667
-0.000256795
0.00394994
-0.000318077
0.00878753
3.11051e-05
0.0118146
0.000857958
0.0136573
0.0021716
0.0146263
0.00393958
0.0149059
0.00611938
0.0146631
0.00867064
0.0140644
0.0115649
0.0132736
0.012512
0.0147856
-0.000277232
0.00422718
-0.000351198
0.00886149
-3.8755e-06
0.0114673
0.000836482
0.012817
0.00219808
0.0132647
0.00405873
0.0130453
0.0063814
0.0123404
0.00912386
0.0113219
0.0122494
0.0101481
0.00895961
0.0158018
-0.000254478
0.00448165
-0.000250029
0.00885704
0.000218163
0.0109991
0.00124075
0.0117944
0.00283445
0.011671
0.00497827
0.0109015
0.00762165
0.00969705
0.0106967
0.00824683
0.0141218
0.00672298
0.00512611
0.0179553
-0.000187324
0.00466898
8.58842e-07
0.00866886
0.000742833
0.0102571
0.00213456
0.0104027
0.00418314
0.00962242
0.00684445
0.00824015
0.0100277
0.00651376
0.0136125
0.00466209
0.0174577
0.0028778
0.0010924
0.0214914
-7.78159e-05
0.00474679
0.000377938
0.00821311
0.00155149
0.00908353
0.00350706
0.00844709
0.00622881
0.00690068
0.00962827
0.00484069
0.0135517
0.00259031
0.0177912
0.000422656
0.0221621
-0.00149309
-0.00303456
0.026289
6.24361e-05
0.00468435
0.000873221
0.00740232
0.00260337
0.00735339
0.00528152
0.00576894
0.00883763
0.00334456
0.0131168
0.000561566
0.0179078
-0.00220076
0.0229572
-0.00462672
0.0280101
-0.006546
0.0318274
-0.00685186
0.0160955
0.0838168
-0.0853575
0.0163838
0.084671
-0.0849594
0.0155524
0.0870394
-0.086208
0.0138904
0.0892576
-0.0875955
0.011798
0.0912079
-0.0891155
0.00941285
0.0943993
-0.0920141
0.00703566
0.0948613
-0.0924842
0.00458426
0.098826
-0.0963746
0.00244359
0.0977007
-0.0955601
0.10574
-0.103296
0.0168412
0.0814888
0.0176182
0.0838941
0.0170939
0.0875637
0.0155368
0.0908147
0.0133825
0.0933621
0.0108371
0.0969447
0.0081799
0.0975186
0.00544025
0.101566
0.00285608
0.100285
0.108596
0.017676
0.0782651
0.0189362
0.0826339
0.0186802
0.0878197
0.0171897
0.0923052
0.0149729
0.0955789
0.0122613
0.0996563
0.00932674
0.100453
0.00628967
0.104603
0.00326515
0.103309
0.111861
0.0185726
0.0741592
0.0203139
0.0808925
0.0202934
0.0878403
0.0188377
0.0937609
0.0165606
0.097856
0.0136756
0.102541
0.0104665
0.103662
0.00712261
0.107947
0.00366615
0.106766
0.115527
0.0195387
0.0694061
0.0217106
0.0787206
0.0219084
0.0876425
0.020478
0.0951913
0.0181396
0.100194
0.015075
0.105606
0.0115975
0.10714
0.00793763
0.111606
0.00405941
0.110644
0.119587
0.020657
0.0645509
0.023109
0.0762686
0.0235009
0.0872505
0.0220966
0.0965956
0.0197025
0.102589
0.0164581
0.10885
0.0127231
0.110875
0.00873881
0.115591
0.00444717
0.114936
0.124034
0.0220851
0.0604212
0.0245276
0.073826
0.025054
0.0867242
0.0236743
0.0979753
0.0212394
0.105023
0.0178211
0.112269
0.0138432
0.114853
0.0095296
0.119904
0.00483616
0.119629
0.12887
0.0239896
0.057923
0.0260173
0.0717983
0.0265639
0.0861776
0.0251925
0.0993467
0.0227377
0.107478
0.0191637
0.115843
0.0149668
0.119049
0.01032
0.124551
0.00522273
0.124726
0.134093
0.0264246
0.0577874
0.0276185
0.0706044
0.0280351
0.085761
0.0266426
0.100739
0.0241834
0.109938
0.0204527
0.119573
0.0160628
0.123439
0.0110969
0.129517
0.00563173
0.130192
0.139725
0.0296243
0.0599904
0.0295607
0.0706681
0.0295992
0.0857224
0.0280939
0.102244
0.0256744
0.112357
0.0218238
0.123424
0.0172872
0.127976
0.0119327
0.134871
0.00604162
0.136083
0.145766
0.122524
0.0842066
-0.14674
0.102613
0.0905787
0.0878869
0.100449
0.0756997
0.114432
0.0643374
0.123719
0.0526812
0.13508
0.0402553
0.140402
0.0279433
0.147184
0.0148854
0.149141
0.160652
0.139173
0.102636
-0.157603
0.121201
0.108551
0.105212
0.116438
0.090414
0.129229
0.0757766
0.138357
0.0616958
0.149161
0.0479691
0.154129
0.0346038
0.160549
0.0166762
0.167068
0.177328
0.149008
0.117533
-0.163905
0.132687
0.124872
0.116472
0.132653
0.100883
0.144819
0.0839843
0.155255
0.0653179
0.167827
0.043802
0.175644
0.0200047
0.184346
0.00454609
0.182527
0.181874
0.158251
0.131131
-0.171848
0.142535
0.140587
0.125417
0.149771
0.10865
0.161586
0.0934906
0.170414
0.0810321
0.180286
0.07195
0.184727
0.066025
0.190271
0.0430049
0.205547
0.224879
0.168004
0.143974
-0.180847
0.154481
0.154111
0.139631
0.164621
0.122586
0.178631
0.100367
0.192633
0.0732824
0.20737
0.0412492
0.21676
0.008932
0.222588
-0.00312493
0.217604
0.221754
0.179276
0.157174
-0.192476
0.161337
0.17205
0.142081
0.183876
0.125484
0.195229
0.11367
0.204448
0.103582
0.217458
0.0924744
0.227868
0.073249
0.241814
0.0373675
0.253485
0.259121
0.195409
0.165792
-0.204027
0.188483
0.178975
0.174153
0.198207
0.150242
0.219139
0.119264
0.235426
0.0870036
0.249718
0.0591343
0.255737
0.037923
0.263025
0.0217793
0.269629
0.280901
0.198203
0.184832
-0.217243
0.17731
0.199869
0.16507
0.210447
0.158312
0.225898
0.149111
0.244627
0.132603
0.266226
0.105131
0.283208
0.0737631
0.294393
0.0388807
0.304511
0.319781
0.23881
0.174447
-0.228425
0.226066
0.212612
0.198494
0.238019
0.168121
0.256271
0.139692
0.273055
0.113713
0.292205
0.0869572
0.309964
0.057565
0.323786
0.0286988
0.333378
0.34848
0.209159
-0.173391
0.227194
0.227992
0.213862
0.190763
0.160668
0.126016
0.0857577
0.042968
0.049027
-0.154728
-0.0410393
0.0513478
-0.159924
0.05235
-0.164907
0.053301
-0.172799
0.0539373
-0.181484
0.0544841
-0.193023
0.0541664
-0.203709
0.0526289
-0.215705
0.0412556
-0.217051
-0.158815
0.0503463
-0.160162
-0.0449122
0.0515915
-0.161169
0.0523322
-0.165648
0.0531346
-0.173602
0.0537323
-0.182081
0.053967
-0.193258
0.0532851
-0.203027
0.0499421
-0.212362
0.0373945
-0.204504
-0.143378
0.049528
-0.162792
-0.0468978
0.0504716
-0.162112
0.0512113
-0.166388
0.0520051
-0.174396
0.052584
-0.18266
0.052615
-0.193289
0.0515138
-0.201926
0.0465559
-0.207404
0.0328823
-0.19083
-0.127627
0.0479781
-0.163714
-0.047056
0.0489504
-0.163085
0.0497009
-0.167138
0.0505292
-0.175224
0.0511198
-0.183251
0.0509636
-0.193133
0.0491893
-0.200152
0.0425865
-0.200802
0.0280678
-0.176312
-0.11177
0.0456193
-0.163772
-0.0455618
0.046878
-0.164343
0.0477004
-0.16796
0.0486026
-0.176126
0.0492154
-0.183864
0.0488033
-0.19272
0.0461934
-0.197542
0.0380905
-0.192699
0.0230373
-0.161258
-0.0960295
0.0427573
-0.163722
-0.0428068
0.0443491
-0.165935
0.0452775
-0.168889
0.0462814
-0.17713
0.0469069
-0.184489
0.0461742
-0.191988
0.0426007
-0.193968
0.0331402
-0.183238
0.017833
-0.145951
-0.08076
0.0394754
-0.163967
-0.0392302
0.0413095
-0.167769
0.0424096
-0.169989
0.0435404
-0.178261
0.0441472
-0.185096
0.0430084
-0.190849
0.0384202
-0.18938
0.0278504
-0.172668
0.0124249
-0.130526
-0.0665654
0.0358377
-0.164633
-0.0351713
0.0377997
-0.169731
0.0391514
-0.171341
0.0404203
-0.17953
0.0409537
-0.185629
0.0393424
-0.189238
0.0337782
-0.183816
0.022399
-0.161289
0.00705583
-0.115183
-0.0538353
0.0318647
-0.165675
-0.0308227
0.0338824
-0.171749
0.0355401
-0.172998
0.036934
-0.180923
0.0373291
-0.186024
0.0352026
-0.187111
0.0287769
-0.17739
0.0168849
-0.149397
0.00175566
-0.100053
-0.0428384
0.0276076
-0.167012
-0.0262711
0.0296631
-0.173805
0.0316305
-0.174966
0.0331217
-0.182415
0.0333185
-0.186221
0.0306706
-0.184463
0.0235454
-0.170265
0.0114589
-0.137311
-0.00276463
-0.0858297
-0.0331603
0.0231206
-0.168557
-0.0215761
0.025235
-0.175919
0.0274613
-0.177192
0.0290213
-0.183975
0.0289797
-0.186179
0.0258361
-0.18132
0.0181837
-0.162613
0.00618703
-0.125314
-0.00681053
-0.0728321
-0.0246589
0.0184177
-0.17023
-0.0167443
0.0206199
-0.178121
0.0230547
-0.179627
0.024663
-0.185583
0.0243764
-0.185893
0.020799
-0.177742
0.0128018
-0.154615
0.00111466
-0.113627
-0.0107841
-0.0609334
-0.017458
0.013556
-0.171973
-0.011813
0.0158644
-0.18043
0.018477
-0.182239
0.0201105
-0.187216
0.0196021
-0.185385
0.0156762
-0.173816
0.00750962
-0.146449
-0.00376824
-0.102349
-0.0145466
-0.050155
-0.0115305
0.00857183
-0.173732
-0.0068128
0.0109944
-0.182852
0.0137557
-0.185001
0.0154066
-0.188867
0.0147342
-0.184712
0.0105796
-0.169662
0.00240877
-0.138278
-0.00834863
-0.0915917
-0.0180212
-0.0404824
-0.00678466
0.00343142
-0.175372
-0.00179126
0.00601431
-0.185435
0.00889446
-0.187881
0.0106087
-0.190582
0.00987484
-0.183978
0.005634
-0.165421
-0.00240257
-0.130241
-0.0125021
-0.0814922
-0.0211548
-0.0318296
-0.00308539
-0.00160466
-0.17695
0.00318231
0.00106322
-0.188103
0.00404919
-0.190867
0.00588775
-0.19242
0.00520003
-0.183291
0.00101486
-0.161236
-0.00680858
-0.122418
-0.0162326
-0.0720682
-0.0239216
-0.0241406
-0.000265582
-0.00635634
-0.178747
0.00815318
-0.00374573
-0.190714
-0.000489741
-0.194123
0.00153015
-0.19444
0.000922065
-0.182682
-0.00328294
-0.157031
-0.0107921
-0.114909
-0.0195497
-0.0633106
-0.0263285
-0.0173618
0.00185938
-0.0105888
-0.181241
0.0130835
-0.00774708
-0.193555
-0.00441291
-0.197457
-0.00233838
-0.196515
-0.0028811
-0.18214
-0.00701481
-0.152897
-0.0143454
-0.107578
-0.0225051
-0.0551509
-0.0284371
-0.0114298
0.00345904
-0.0142944
-0.185067
0.0181199
-0.011452
-0.196398
-0.00819504
-0.200714
-0.00607916
-0.19863
-0.00654454
-0.181674
-0.0106169
-0.148825
-0.0176539
-0.100541
-0.0251959
-0.0476089
-0.0303216
-0.006304
0.00467264
-0.0199358
-0.188232
0.0231009
-0.018013
-0.19832
-0.0144731
-0.204254
-0.0116281
-0.201475
-0.0113751
-0.181927
-0.014848
-0.145352
-0.0211364
-0.0942529
-0.0277169
-0.0410284
-0.0321098
-0.0019111
0.0055343
0.0508437
-0.190821
-0.0482542
0.0521784
-0.199655
0.0471763
-0.199252
0.031002
-0.185301
-0.000834505
-0.150091
-0.0465538
-0.0996325
-0.0956426
-0.0451641
-0.128758
-0.00791333
-0.138043
0.00737445
0.00194981
0.025919
-0.198214
-0.0185267
0.0249268
-0.198663
0.00948486
-0.18381
-0.0254317
-0.150385
-0.0739446
-0.101578
-0.123065
-0.0505122
-0.157759
-0.0104699
-0.171013
0.00534056
-0.166091
0.00245241
-0.00247082
-0.00146625
-0.19829
0.00154233
-0.0171176
-0.183012
-0.048619
-0.152308
-0.0943365
-0.104667
-0.140651
-0.0552637
-0.174529
-0.0166342
-0.186861
0.00186284
-0.185231
0.00370978
-0.180464
-0.00231453
-0.00249188
-0.0478757
-0.187906
0.0374917
-0.0768267
-0.15406
-0.120514
-0.108621
-0.166704
-0.0584771
-0.200611
-0.0213571
-0.214773
-0.00247209
-0.212983
7.35941e-05
-0.205019
-0.00425445
-0.202639
-0.00469521
-0.000315868
-0.109165
-0.16195
0.0832092
-0.152525
-0.110701
-0.19831
-0.0628359
-0.230998
-0.0257885
-0.24314
-0.00921555
-0.239509
-0.00610346
-0.231951
-0.00748365
-0.230262
-0.00594409
-0.233198
-0.00175898
0.00105552
-0.188086
-0.119926
0.146062
-0.231989
-0.0667979
-0.260822
-0.034003
-0.270928
-0.0156828
-0.267065
-0.0130784
-0.260843
-0.0123256
-0.259835
-0.00849118
-0.263485
-0.00229434
-0.265925
0.000681563
0.000586283
-0.261453
-0.0801935
0.221721
-0.288791
-0.0394598
-0.297308
-0.0254862
-0.295642
-0.0173486
-0.292077
-0.0166429
-0.293887
-0.0105166
-0.298751
-0.00362701
-0.301286
0.000241387
-0.300386
-0.000218938
-0.000206461
-0.31981
-0.0512836
0.2909
-0.333522
-0.0257482
-0.335247
-0.0237607
-0.337401
-0.0151952
-0.342773
-0.0112703
-0.34799
-0.00529964
-0.350384
-0.00123383
-0.349327
-0.000815194
-0.3484
-0.00114589
2.95635e-05
-0.389702
-0.0257036
0.364122
-0.39539
-0.0200597
-0.403878
-0.0152729
-0.415668
-0.00340477
-0.4222
-0.00473881
-0.422737
-0.00476285
-0.423187
-0.000783398
-0.423375
-0.000627701
-0.424048
-0.000472136
3.23911e-05
-0.439407
0.413703
-0.459466
-0.474739
-0.478144
-0.482883
-0.487646
-0.488429
-0.489057
-0.489529
-0.0374592
-0.0400007
0.0292058
-0.0460364
-0.00994956
-0.052682
0.00818792
-0.0571729
0.0419827
-0.0578063
0.0838425
-0.0534294
0.141685
-0.0437848
0.212076
-0.0318694
0.278985
-0.0168047
0.349057
0.396898
-0.0404756
-0.0313799
0.0318548
-0.0480335
-0.00239162
-0.0539903
0.0141447
-0.0576593
0.0456516
-0.0574375
0.0836208
-0.0521816
0.136429
-0.0420527
0.201947
-0.0296579
0.26659
-0.0148047
0.334204
0.382094
-0.0429434
-0.0231464
0.0347098
-0.0499378
0.00460278
-0.0553829
0.0195898
-0.0586264
0.0488951
-0.0581474
0.0831418
-0.0527313
0.131013
-0.0423749
0.191591
-0.0296889
0.253904
-0.0139893
0.318504
0.368105
-0.0447771
-0.0152745
0.0369052
-0.0510039
0.0108295
-0.0560601
0.0246461
-0.0590139
0.0518488
-0.0584997
0.0826276
-0.0532064
0.12572
-0.0428464
0.181231
-0.029875
0.240933
-0.0133771
0.302006
0.354727
-0.0458276
-0.00797459
0.0385278
-0.0512829
0.0162848
-0.0559242
0.0292873
-0.0586807
0.0546054
-0.0583337
0.0822806
-0.0534247
0.120811
-0.0433813
0.171187
-0.0302505
0.227802
-0.0131359
0.284892
0.341591
-0.0461222
-0.00134459
0.0394922
-0.0507973
0.0209599
-0.0549972
0.0334872
-0.0575771
0.0571853
-0.0575168
0.0822202
-0.053209
0.116503
-0.0437851
0.161763
-0.0307502
0.214767
-0.0132456
0.267387
0.328346
-0.0457476
0.00459721
0.0398058
-0.0496245
0.0248369
-0.0533481
0.0372108
-0.0557138
0.059551
-0.0559711
0.0824775
-0.0524258
0.112958
-0.0439035
0.153241
-0.0313408
0.202205
-0.0137261
0.249772
0.31462
-0.0447047
0.00966646
0.0396354
-0.0478866
0.0280188
-0.0510854
0.0404097
-0.0531625
0.061628
-0.053682
0.082997
-0.0509707
0.110246
-0.043608
0.145878
-0.0319719
0.190568
-0.014689
0.232489
0.299931
-0.0431757
0.0139285
0.0389137
-0.0457203
0.0305633
-0.048354
0.0430434
-0.0500522
0.0633262
-0.0507057
0.0836505
-0.0487854
0.108326
-0.0427535
0.139846
-0.0324788
0.180294
-0.0162079
0.216218
0.283723
-0.04126
0.0174822
0.0377063
-0.0432483
0.0325516
-0.045316
0.0451111
-0.0465587
0.0645689
-0.0471731
0.084265
-0.0458895
0.107042
-0.0411816
0.135139
-0.0325659
0.171678
-0.0181182
0.201771
0.265605
-0.039046
0.0204261
0.0361021
-0.0406158
0.0341214
-0.0421232
0.0466185
-0.0429031
0.0653488
-0.0432915
0.0846533
-0.0424067
0.106157
-0.0388257
0.131558
-0.0319002
0.164753
-0.0198717
0.189742
0.245733
-0.0366256
0.0228673
0.0341845
-0.0378894
0.0353851
-0.0388887
0.0476179
-0.0392571
0.0657171
-0.0392926
0.0846888
-0.0385377
0.105403
-0.0357596
0.12878
-0.0302622
0.159255
-0.0207004
0.18018
0.225032
-0.0340952
0.0249282
0.0320343
-0.0351041
0.036394
-0.0357035
0.0482173
-0.0357248
0.0657384
-0.0353673
0.0843313
-0.0345337
0.104569
-0.0322123
0.126458
-0.0277007
0.154744
-0.0201125
0.172592
0.20492
-0.0314909
0.0266886
0.0297305
-0.0322905
0.0371935
-0.0325878
0.0485146
-0.0323535
0.0655041
-0.0316445
0.0836223
-0.0306166
0.103541
-0.0284784
0.12432
-0.0245146
0.15078
-0.0182091
0.166287
0.186711
-0.0288613
0.0282002
0.0273498
-0.0294879
0.0378201
-0.0295608
0.0485875
-0.029158
0.0651013
-0.0281917
0.0826559
-0.0269405
0.10229
-0.0248284
0.122208
-0.0211034
0.147055
-0.015525
0.160708
0.171186
-0.0262585
0.0294961
0.0249625
-0.0267406
0.0383022
-0.0266471
0.048494
-0.026141
0.0645953
-0.0250296
0.0815445
-0.0235847
0.100845
-0.0214504
0.120073
-0.0178057
0.14341
-0.0126436
0.155546
0.158542
-0.0237287
0.0305987
0.0226261
-0.0240902
0.0386637
-0.0238748
0.0482787
-0.0233047
0.0640251
-0.0221527
0.0803926
-0.0205695
0.0992619
-0.0184381
0.117942
-0.0148262
0.139798
-0.00996165
0.150682
0.148581
-0.0213031
0.031522
0.0203798
-0.0215673
0.0389279
-0.0212702
0.0479815
-0.020656
0.063411
-0.0195502
0.0792867
-0.0178892
0.0976009
-0.0158244
0.115877
-0.0122613
0.136235
-0.00766734
0.146088
0.140913
-0.0189968
0.0322817
0.018237
-0.0191852
0.0391163
-0.0188479
0.0476442
-0.0181984
0.0627615
-0.0171947
0.078283
-0.0154996
0.0959058
-0.0135656
0.113943
-0.0100985
0.132768
-0.00581488
0.141804
0.135098
-0.0167057
0.0327885
0.0161989
-0.0168575
0.0392681
-0.0165572
0.047344
-0.0159156
0.0621199
-0.0151291
0.0774966
-0.0134295
0.0942061
-0.0117429
0.112257
-0.00834547
0.129371
-0.00437081
0.137829
0.130728
-0.0989885
0.0312928
0.100484
-0.0972961
0.0375757
-0.0955012
0.0455491
-0.0922454
0.058864
-0.0861035
0.0713546
-0.0765045
0.0846072
-0.0626776
0.0984297
-0.0426966
0.10939
-0.0186395
0.113772
0.112088
-0.0904967
0.0281905
0.093599
-0.0876654
0.0347443
-0.0852525
0.0431362
-0.0798411
0.0534526
-0.0725965
0.0641101
-0.062931
0.0749416
-0.0498569
0.0853556
-0.0335288
0.0930615
-0.0154985
0.0957421
0.0965897
-0.0818698
0.0245993
0.085461
-0.0782382
0.0311128
-0.0745982
0.0394962
-0.0689466
0.0478011
-0.0616325
0.0567959
-0.052635
0.0659442
-0.0409792
0.0736998
-0.0279594
0.0800417
-0.0142116
0.0819943
0.0823781
-0.0748145
0.0208984
0.0785154
-0.0709883
0.0272865
-0.0663677
0.0348756
-0.0603799
0.0418132
-0.0529136
0.0493297
-0.0442652
0.0572958
-0.0339075
0.063342
-0.023036
0.0691702
-0.0119368
0.070895
0.0704413
-0.067831
0.0182148
0.0705146
-0.0640732
0.0235287
-0.0592433
0.0300458
-0.0532795
0.0358494
-0.0459477
0.041998
-0.0376129
0.048961
-0.0282652
0.0539943
-0.018642
0.059547
-0.0093159
0.0615689
0.0611254
-0.061844
0.0152176
0.0648412
-0.0579764
0.0196611
-0.0529647
0.0250341
-0.0470052
0.0298898
-0.0399134
0.0349062
-0.0318158
0.0408633
-0.0233345
0.045513
-0.0145702
0.0507827
-0.00669576
0.0536945
0.0544296
-0.0570877
0.012499
0.0598063
-0.0530551
0.0156284
-0.0478331
0.0198122
-0.0417001
0.0237568
-0.03471
0.0279161
-0.0265114
0.0326648
-0.0186781
0.0376797
-0.0106059
0.0427105
-0.00425731
0.047346
0.0501723
-0.0540892
0.00932584
0.0572624
-0.0496548
0.011194
-0.044052
0.0142094
-0.0374848
0.0171896
-0.0302792
0.0207105
-0.0213865
0.0237721
-0.0138654
0.0301586
-0.00507584
0.0339209
-0.000119559
0.0423897
0.0500528
-0.0643342
0.00427368
0.0693863
-0.0587262
0.00558609
-0.051509
0.00699212
-0.043038
0.00871858
-0.0339307
0.0116032
-0.0216881
0.0115295
-0.0103367
0.0188073
0.00343727
0.0201469
0.0162101
0.0296169
0.0662629
-0.179263
0.183537
-0.173677
-0.166685
-0.157967
-0.146363
-0.134834
-0.116027
-0.0958797
-0.0662629
-0.0115942
0.0981327
0.0139458
-0.00922297
0.0912277
-0.00710757
0.0833456
-0.00496185
0.0763697
-0.00330679
0.0688595
-0.0019847
0.0635191
-0.00099893
0.0588205
-0.000646218
0.0569097
-0.00148692
0.070227
0.18205
-0.0107493
0.0966692
0.0122128
-0.00858331
0.0890617
-0.00665057
0.0814129
-0.00463128
0.0743504
-0.0031081
0.0673363
-0.00187567
0.0622867
-0.000975456
0.0579203
-0.000647248
0.0565815
-0.00135669
0.0709365
0.180693
-0.00945844
0.0954466
0.010681
-0.00752194
0.0871252
-0.00590161
0.0797925
-0.00411058
0.0725594
-0.00278826
0.066014
-0.00168948
0.0611879
-0.000902941
0.0571338
-0.000599571
0.0562781
-0.00116126
0.0714982
0.179532
-0.00825409
0.0943533
0.00934741
-0.00649662
0.0853677
-0.00515281
0.0784487
-0.00358195
0.0709885
-0.00245268
0.0648847
-0.00148212
0.0602174
-0.000802205
0.0564539
-0.000511714
0.0559876
-0.000933213
0.0719197
0.178599
-0.00724165
0.0934278
0.00816717
-0.00559795
0.083724
-0.00446559
0.0773164
-0.00309022
0.0696132
-0.00212251
0.063917
-0.00126658
0.0593614
-0.000677309
0.0558646
-0.000388417
0.0556987
-0.00067902
0.0722103
0.17792
-0.00633564
0.0926722
0.00709123
-0.00478851
0.0821769
-0.00381608
0.0763439
-0.00262733
0.0684244
-0.00179731
0.063087
-0.00104517
0.0586093
-0.00053072
0.0553501
-0.000226793
0.0553948
-0.000407523
0.072391
0.177512
-0.00547669
0.092112
0.00603686
-0.00406116
0.0807614
-0.00319584
0.0754786
-0.00218887
0.0674174
-0.00147702
0.0623752
-0.000818662
0.0579509
-0.000365027
0.0548965
-2.59192e-05
0.0550557
-0.00013132
0.0724964
0.177381
-0.00457468
0.0917905
0.00489622
-0.00339395
0.0795806
-0.00260358
0.0746883
-0.00177405
0.0665879
-0.00116202
0.0617631
-0.000587815
0.0573767
-0.000183892
0.0544926
0.000169726
0.054702
0.000183153
0.072483
0.177564
-0.00354267
0.0917237
0.00360949
-0.00273995
0.0787779
-0.00203056
0.0739789
-0.00137887
0.0659362
-0.000850871
0.0612351
-0.00035426
0.0568801
1.12447e-06
0.0541372
0.000382804
0.0543204
0.000509303
0.0723565
0.178074
-0.00238032
0.0918795
0.00222447
-0.00206465
0.0784622
-0.00146738
0.0733816
-0.000993531
0.0654624
-0.000541833
0.0607834
-0.00011171
0.05645
0.000248204
0.0537773
0.000606517
0.0539621
0.000825103
0.0721379
0.178899
-0.00119559
0.0921972
0.000877898
-0.00134424
0.0786109
-0.000916688
0.072954
-0.000603866
0.0651496
-0.000238035
0.0604176
0.000133031
0.0560789
0.000473128
0.0534372
0.000832238
0.0536029
0.00113133
0.0718388
0.18003
-0.000134273
0.0926202
-0.000288716
-0.000588485
0.0790651
-0.000382286
0.0727478
-0.000201651
0.0649689
6.30458e-05
0.0601529
0.000367573
0.0557744
0.000687338
0.0531174
0.00105469
0.0532356
0.00142489
0.0714686
0.181455
0.000869736
0.092936
-0.00118554
0.000141887
0.0797929
0.000126149
0.0727636
0.000176483
0.0649186
0.000345177
0.0599842
0.000590562
0.055529
0.000884072
0.0528239
0.00126547
0.0528542
0.00169791
0.0710362
0.183153
0.00160474
0.093141
-0.00180975
0.000748102
0.0806496
0.000586444
0.0729252
0.000518469
0.0649866
0.000608898
0.0598938
0.000794211
0.0553437
0.0010649
0.0525532
0.00145705
0.052462
0.00194353
0.0705497
0.185096
0.0021438
0.0932184
-0.00222122
0.00130669
0.0814867
0.00100695
0.073225
0.000840753
0.0651527
0.000847726
0.0598868
0.000972129
0.0552193
0.0012211
0.0523043
0.00162217
0.052061
0.00215686
0.070015
0.187253
0.00253669
0.0931898
-0.00250809
0.00181621
0.0822072
0.00139191
0.0736493
0.00113754
0.0654071
0.00105839
0.059966
0.00111945
0.0551582
0.00134621
0.0520775
0.00175385
0.0516533
0.00233589
0.069433
0.189589
0.00286089
0.0930859
-0.0027569
0.00229467
0.0827734
0.00175174
0.0741922
0.00140819
0.0657507
0.00123977
0.0601344
0.00123302
0.055165
0.00143602
0.0518745
0.00184483
0.0512445
0.00247308
0.0688047
0.192062
0.00314466
0.0929495
-0.00300831
0.00274414
0.0831739
0.00209449
0.0748418
0.00165372
0.0661914
0.00139246
0.0603957
0.00131142
0.055246
0.00148815
0.0516978
0.00189182
0.0508409
0.00256715
0.0681294
0.194629
0.00353042
0.0928106
-0.00339155
0.00322857
0.0834758
0.00244848
0.0756219
0.00188034
0.0667596
0.00151762
0.0607584
0.00135375
0.0554099
0.00150082
0.0515507
0.00189282
0.0504488
0.00260599
0.0674162
0.197235
0.00356785
0.0927893
-0.00354649
0.00351733
0.0835263
0.00270662
0.0764326
0.00204208
0.0674241
0.00159611
0.0612044
0.00135385
0.0556522
0.00146738
0.0514372
0.00184355
0.0500727
0.00261738
0.0666424
0.199853
-0.0606707
0.0753851
0.0780748
-0.0448484
0.067704
-0.0364628
0.068047
-0.0277596
0.0587209
-0.0210908
0.0545356
-0.0148264
0.0493878
-0.00902217
0.0456329
-0.00424351
0.045294
-0.00237426
0.0647731
0.197478
-0.0637413
0.0635375
0.075589
-0.0516956
0.0556583
-0.0424185
0.0587698
-0.0337049
0.0500074
-0.0262332
0.0470639
-0.0192099
0.0423645
-0.0127859
0.0392089
-0.0073016
0.0398097
-0.00420576
0.0616773
0.193273
-0.0643152
0.0537433
0.0741094
-0.0560755
0.0474186
-0.0458179
0.0485122
-0.038084
0.0422735
-0.0301839
0.0391638
-0.0228142
0.0349948
-0.0157919
0.0321866
-0.00948076
0.0334986
-0.00481937
0.0570159
0.188453
-0.0652046
0.0475727
0.0713751
-0.0591696
0.0413837
-0.0494114
0.038754
-0.0422076
0.0350698
-0.0340046
0.0309608
-0.0260447
0.0270349
-0.0179033
0.0240451
-0.0100312
0.0256265
-0.00372584
0.0507105
0.184727
-0.0687417
0.0393796
0.0769348
-0.0619183
0.0345603
-0.0527316
0.0295672
-0.0456774
0.0280156
-0.037676
0.0229594
-0.0298088
0.0191677
-0.0216147
0.0158509
-0.013512
0.0175238
-0.00630123
0.0434998
0.178426
-0.0718072
0.033575
0.0776118
-0.0654583
0.0282114
-0.0573315
0.0214405
-0.0503022
0.0209863
-0.0422307
0.0148879
-0.0334428
0.0103798
-0.0231575
0.00556567
-0.0121387
0.00650498
-0.00387602
0.0352371
0.17455
-0.0749308
0.0249446
0.0835612
-0.0673663
0.0206469
-0.0601827
0.0142568
-0.053292
0.0140956
-0.0462943
0.00789018
-0.0387643
0.00284972
-0.0299906
-0.00320804
-0.0203302
-0.00315537
-0.012047
0.0269539
0.162503
-0.0781913
0.0183913
0.0847446
-0.0716244
0.01408
-0.0655352
0.00816772
-0.0596625
0.0082229
-0.0535872
0.0018149
-0.0463303
-0.00440718
-0.0374677
-0.0120707
-0.0272999
-0.0133231
-0.0180271
0.0176811
0.144476
-0.0798495
0.00893811
0.0893027
-0.0725353
0.00676579
-0.067882
0.00351436
-0.0625603
0.00290125
-0.0594826
-0.00126284
-0.0570903
-0.00679945
-0.0556648
-0.0134962
-0.0549788
-0.0140091
-0.0475153
0.0102176
0.0969608
-0.0847922
0.0937303
-0.0780264
-0.074512
-0.0716108
-0.0728736
-0.0796731
-0.0931693
-0.107178
-0.0969608
0.00274062
0.0800073
-0.00467307
0.00209274
0.0762368
0.0023456
0.0738566
0.00170457
0.0720162
0.00167555
0.0769638
0.000994074
0.0782933
0.0010514
0.0835039
0.000685865
0.0851101
0.000443606
0.089545
0.0941739
0.00425097
0.0820007
-0.00624441
0.00352914
0.0769587
0.00326718
0.0741185
0.00235996
0.0729234
0.00204318
0.0772806
0.00125443
0.079082
0.0011811
0.0835772
0.00069988
0.0855914
0.000477223
0.0897676
0.0946511
0.00620294
0.0836648
-0.00786707
0.00528684
0.0778748
0.00447166
0.0749337
0.00322308
0.074172
0.00256468
0.077939
0.00161904
0.0800276
0.00136966
0.0838266
0.000740699
0.0862203
0.00051568
0.0899926
0.0951668
0.00821451
0.0849407
-0.00949034
0.00708483
0.0790045
0.00577993
0.0762386
0.00418796
0.0757639
0.00323097
0.078896
0.00207594
0.0811827
0.00163013
0.0842724
0.000822091
0.0870284
0.000578105
0.0902366
0.0957449
0.0101038
0.08586
-0.0110231
0.00879569
0.0803125
0.00710762
0.0779267
0.00524237
0.0776292
0.00401014
0.0801282
0.002652
0.0825408
0.00198043
0.084944
0.000981356
0.0880274
0.000675901
0.0905421
0.0964208
0.0117504
0.0864524
-0.0123427
0.0103658
0.0816971
0.00845761
0.0798349
0.00641533
0.0796715
0.0049341
0.0816094
0.00338755
0.0840874
0.00245869
0.0858728
0.00125862
0.0892275
0.000824586
0.0909761
0.0972454
0.0130667
0.0867369
-0.0133513
0.0117635
0.0830003
0.00983335
0.0817651
0.00772347
0.0817813
0.00603664
0.0832963
0.00430902
0.085815
0.00309814
0.0870837
0.00168164
0.090644
0.00103735
0.0916204
0.0982827
0.0140554
0.0866996
-0.0140181
0.0129979
0.0840577
0.0112235
0.0835395
0.00915474
0.0838501
0.00731373
0.0851373
0.00541153
0.0877172
0.00390594
0.0885893
0.00225395
0.092296
0.00131764
0.0925567
0.0996004
0.0148095
0.086275
-0.0143849
0.0141275
0.0847397
0.0126264
0.0850406
0.01068
0.0857966
0.00873012
0.0870871
0.00666149
0.0897858
0.00485967
0.0903911
0.00295425
0.0942014
0.00165707
0.0938539
0.101257
0.0154541
-0.0145366
0.0152345
0.014067
0.0122681
0.0102397
0.00801139
0.00591834
0.00374516
0.00203897
0.000217414
0.00446694
0.00145785
0.00616189
0.00384749
0.00496375
0.00734906
0.00226737
0.0117978
-0.00110423
0.0169429
-0.00458346
0.022513
-0.00777091
0.0283104
-0.0104241
0.0343032
-0.0125387
-0.013588
0.000398443
0.0040685
0.00212004
0.00444029
0.00523021
0.00185357
0.00957403
-0.00207645
0.0148441
-0.00637434
0.0206734
-0.0104127
0.0267389
-0.0138364
0.0328304
-0.0165156
0.038802
-0.0185103
-0.0196983
0.000602283
0.00346621
0.00285268
0.00218989
0.00670591
-0.00199966
0.0118184
-0.00718891
0.0177036
-0.0122596
0.0238908
-0.0165999
0.0300379
-0.0199835
0.0359385
-0.0224162
0.0415234
-0.0240953
-0.0250726
0.00083832
0.00262789
0.00365543
-0.00062722
0.0082121
-0.00655632
0.0139067
-0.0128835
0.020081
-0.0184339
0.0262254
-0.0227443
0.0320488
-0.0258069
0.0374334
-0.0278008
0.0424074
-0.0290693
-0.0297212
0.00111434
0.00151356
0.0045094
-0.00402228
0.00964263
-0.0116896
0.0156262
-0.0188671
0.0217034
-0.0245111
0.0274262
-0.0284671
0.0326245
-0.0310052
0.0373092
-0.0324855
0.0415845
-0.0333445
-0.0336985
0.00142912
8.44346e-05
0.00536226
-0.00795543
0.0108506
-0.0171779
0.0167725
-0.024789
0.0223983
-0.0301369
0.0274327
-0.0335016
0.03186
-0.0354325
0.0358051
-0.0364306
0.0394083
-0.0369478
-0.037097
0.00176658
-0.00168214
0.00613046
-0.0123193
0.0116873
-0.0227348
0.0172189
-0.0303205
0.0221491
-0.0350671
0.0263784
-0.0377308
0.0300293
-0.0390833
0.0332909
-0.0396923
0.0363079
-0.0399647
-0.0400194
0.00210058
-0.00378272
0.00671954
-0.0169383
0.0120515
-0.0280667
0.0169524
-0.0352214
0.0210768
-0.0391915
0.0245073
-0.0411613
0.0274559
-0.042032
0.0301257
-0.042362
0.0326496
-0.0424886
-0.0425412
0.00239273
-0.00617545
0.00705137
-0.0215969
0.011915
-0.0329303
0.0160554
-0.0393618
0.0193691
-0.0425053
0.0220722
-0.0438644
0.0244122
-0.044372
0.0265737
-0.0445236
0.028671
-0.0445859
-0.0446929
0.0026056
-0.00878105
0.00708364
-0.026075
0.0113142
-0.0371609
0.0146562
-0.0427037
0.0172125
-0.0450616
0.0192744
-0.0459263
0.0210846
-0.0461823
0.022795
-0.0462339
0.0244959
-0.0462869
-0.046468
0.00277123
-0.0115523
0.00691152
-0.0302152
0.01043
-0.0406794
0.0129872
-0.045261
0.0148454
-0.0469197
0.0163259
-0.0474068
0.0176443
-0.0475007
0.0189171
-0.0475067
0.0202099
-0.0475797
-0.0478342
0.00278594
-0.0143382
0.00641884
-0.0338481
0.00918191
-0.0434424
0.0109991
-0.0470782
0.0122314
-0.048152
0.0131921
-0.0483676
0.0140576
-0.0483661
0.0149108
-0.0483599
0.0157956
-0.0484646
-0.0487829
0.00267887
-0.0170171
0.00570285
-0.0368721
0.00771175
-0.0454513
0.00884254
-0.048209
0.00950479
-0.0488143
0.00998114
-0.0488439
0.010407
-0.048792
0.0108378
-0.0487907
0.0113001
-0.0489268
-0.0492958
0.00245583
-0.0194729
0.00481242
-0.0392287
0.00609077
-0.0467297
0.00658785
-0.048706
0.00672173
-0.0489481
0.00673378
-0.048856
0.00672372
-0.0487819
0.00672639
-0.0487933
0.00675165
-0.0489521
-0.0493569
0.00213241
-0.0216053
0.00379599
-0.0408923
0.00437871
-0.0473124
0.0042884
-0.0486157
0.00392353