/*--------------------------------*- C++ -*----------------------------------*\
  =========                 |
  \\      /  F ield         | OpenFOAM: The Open Source CFD Toolbox
   \\    /   O peration     | Website:  https://openfoam.org
    \\  /    A nd           | Version:  7
     \\/     M anipulation  |
\*---------------------------------------------------------------------------*/
FoamFile
{
    version     2.0;
    format      ascii;
    class       volScalarField;
    location    "2.4";
    object      p;
}
// * * * * * * * * * * * * * * * * * * * * * * * * * * * * * * * * * * * * * //

dimensions      [0 2 -2 0 0 0 0];

internalField   nonuniform List<scalar> 
18000
(
1.85952
1.85889
1.85993
1.86135
1.86303
1.8648
1.86666
1.86869
1.87099
1.87363
1.87668
1.88019
1.88415
1.88855
1.89336
1.89849
1.90387
1.9094
1.91499
1.92057
1.92608
1.93145
1.93664
1.9416
1.94633
1.95083
1.95511
1.9592
1.96313
1.96674
1.85187
1.85158
1.8527
1.85417
1.85579
1.85742
1.85907
1.86081
1.86277
1.86504
1.86771
1.87083
1.87444
1.87852
1.88305
1.88796
1.89316
1.89854
1.90403
1.90954
1.915
1.92034
1.92551
1.93045
1.93517
1.93964
1.94389
1.94795
1.95183
1.9554
1.84403
1.84413
1.84534
1.84685
1.84844
1.84994
1.85138
1.85286
1.85448
1.85637
1.85865
1.86138
1.86463
1.86839
1.87263
1.87731
1.88232
1.88756
1.89294
1.89837
1.90377
1.90908
1.91422
1.91915
1.92384
1.9283
1.93252
1.93653
1.94037
1.9439
1.8361
1.83655
1.83786
1.83942
1.84099
1.84239
1.84365
1.84486
1.84615
1.84767
1.84955
1.8519
1.85477
1.8582
1.86216
1.86659
1.87141
1.8765
1.88177
1.88711
1.89245
1.89771
1.90282
1.90772
1.9124
1.91683
1.92102
1.92498
1.92877
1.93226
1.82814
1.82894
1.83034
1.83195
1.83351
1.83482
1.8359
1.83685
1.83782
1.83897
1.84046
1.84242
1.84493
1.84802
1.85168
1.85587
1.86048
1.86542
1.87056
1.87581
1.88108
1.88629
1.89135
1.89622
1.90086
1.90526
1.90941
1.91332
1.91704
1.92048
1.82015
1.82129
1.82278
1.82446
1.826
1.82724
1.82816
1.82886
1.82952
1.83032
1.83143
1.83301
1.83514
1.83789
1.84126
1.84519
1.8496
1.85437
1.85938
1.86452
1.8697
1.87484
1.87986
1.88468
1.88928
1.89363
1.89772
1.90157
1.90522
1.90859
1.81219
1.81364
1.81523
1.81698
1.81853
1.81969
1.82046
1.82094
1.8213
1.82176
1.82251
1.8237
1.82547
1.82788
1.83094
1.83462
1.83881
1.84339
1.84826
1.85328
1.85837
1.86343
1.86837
1.87314
1.87767
1.88196
1.88598
1.88975
1.89331
1.8966
1.80427
1.80603
1.80771
1.80953
1.81109
1.8122
1.81283
1.8131
1.81319
1.81332
1.81371
1.81453
1.81594
1.81801
1.82077
1.82419
1.82815
1.83254
1.83724
1.84213
1.84711
1.85207
1.85693
1.86161
1.86607
1.87027
1.8742
1.87788
1.88133
1.88454
1.79642
1.79846
1.80023
1.80213
1.80372
1.80478
1.8053
1.80537
1.80521
1.80503
1.80507
1.80553
1.80658
1.80833
1.8108
1.81394
1.81767
1.82185
1.82637
1.83111
1.83596
1.84081
1.84556
1.85014
1.8545
1.85859
1.86241
1.86597
1.86931
1.87241
1.78865
1.79095
1.79281
1.79479
1.79641
1.79744
1.79786
1.79777
1.79737
1.7969
1.79661
1.79673
1.79744
1.79886
1.80103
1.8039
1.80738
1.81134
1.81567
1.82025
1.82495
1.82966
1.83429
1.83874
1.84297
1.84694
1.85063
1.85407
1.85727
1.86025
1.78099
1.78351
1.78545
1.78752
1.78917
1.79019
1.79054
1.7903
1.78968
1.78894
1.78834
1.78813
1.78851
1.78962
1.79149
1.79408
1.7973
1.80104
1.80517
1.80956
1.81409
1.81865
1.82313
1.82744
1.83151
1.83533
1.83888
1.84217
1.84523
1.84807
1.77345
1.77615
1.77817
1.78031
1.78201
1.78304
1.78332
1.78296
1.78215
1.78115
1.78026
1.77974
1.77981
1.78061
1.78218
1.78449
1.78746
1.79096
1.79487
1.79905
1.8034
1.80778
1.81209
1.81623
1.82014
1.82379
1.82718
1.8303
1.8332
1.83589
1.76601
1.76887
1.77096
1.77318
1.77493
1.77597
1.77621
1.77573
1.77475
1.77352
1.77236
1.77154
1.77131
1.77181
1.77309
1.77513
1.77784
1.78109
1.78477
1.78875
1.79289
1.79707
1.80118
1.80513
1.80885
1.81232
1.81553
1.81847
1.82119
1.82371
1.75869
1.76167
1.76382
1.76611
1.76792
1.76898
1.76919
1.76861
1.76747
1.76604
1.76462
1.76353
1.76302
1.76323
1.76423
1.76599
1.76844
1.77145
1.77489
1.77863
1.78255
1.78651
1.79041
1.79415
1.79767
1.80093
1.80394
1.80669
1.80921
1.81156
1.75148
1.75454
1.75676
1.75911
1.76098
1.76205
1.76224
1.76158
1.7603
1.75867
1.75703
1.75568
1.75489
1.75483
1.75555
1.75705
1.75924
1.762
1.76519
1.76869
1.77237
1.77611
1.77977
1.78328
1.78658
1.78963
1.79243
1.79497
1.79729
1.79945
1.74437
1.74748
1.74975
1.75216
1.75408
1.75518
1.75534
1.75462
1.7532
1.7514
1.74954
1.74796
1.74692
1.74659
1.74705
1.7483
1.75023
1.75273
1.75567
1.75892
1.76236
1.76584
1.76926
1.77252
1.77558
1.77841
1.78099
1.78331
1.78542
1.78739
1.73733
1.74047
1.74278
1.74525
1.74721
1.74834
1.74848
1.74768
1.74615
1.74418
1.74213
1.74033
1.73905
1.73848
1.7387
1.7397
1.74138
1.74363
1.74631
1.74931
1.75248
1.7557
1.75886
1.76187
1.76469
1.76728
1.76963
1.77174
1.77363
1.7754
1.73036
1.7335
1.73584
1.73836
1.74036
1.7415
1.74162
1.74076
1.73911
1.73699
1.73476
1.73276
1.73127
1.73048
1.73047
1.73123
1.73266
1.73466
1.73709
1.73982
1.74272
1.74567
1.74856
1.75131
1.75388
1.75623
1.75835
1.76024
1.76193
1.7635
1.72342
1.72655
1.72892
1.73148
1.7335
1.73465
1.73474
1.73381
1.73205
1.72979
1.7274
1.72522
1.72354
1.72254
1.72232
1.72285
1.72405
1.7258
1.72797
1.73044
1.73306
1.73573
1.73835
1.74083
1.74315
1.74526
1.74716
1.74884
1.75032
1.75169
1.71649
1.7196
1.722
1.72458
1.72662
1.72776
1.72781
1.72679
1.72493
1.72254
1.72
1.71767
1.71582
1.71465
1.71423
1.71455
1.71552
1.71702
1.71894
1.72114
1.72348
1.72587
1.7282
1.73043
1.73249
1.73438
1.73606
1.73753
1.73881
1.74
1.70956
1.71263
1.71505
1.71765
1.71969
1.7208
1.72079
1.7197
1.71772
1.71522
1.71256
1.71009
1.7081
1.70677
1.70618
1.70629
1.70704
1.70831
1.70997
1.71189
1.71396
1.71606
1.71812
1.72008
1.7219
1.72356
1.72503
1.72632
1.72742
1.72844
1.70259
1.70563
1.70806
1.71066
1.71269
1.71376
1.71368
1.71249
1.71041
1.7078
1.70503
1.70245
1.70034
1.69888
1.69813
1.69806
1.69859
1.69962
1.70103
1.70268
1.70446
1.70628
1.70806
1.70977
1.71135
1.7128
1.71409
1.7152
1.71614
1.71703
1.69556
1.69857
1.70101
1.70361
1.7056
1.70661
1.70644
1.70515
1.70298
1.70027
1.69741
1.69474
1.69254
1.69096
1.69006
1.68982
1.69014
1.69094
1.6921
1.69348
1.69498
1.69651
1.69803
1.69948
1.70084
1.70209
1.70321
1.70419
1.705
1.70578
1.68845
1.69144
1.69388
1.69646
1.69841
1.69934
1.69907
1.69768
1.69541
1.69261
1.68968
1.68694
1.68466
1.68299
1.68197
1.68156
1.68169
1.68226
1.68316
1.68427
1.68549
1.68674
1.68799
1.6892
1.69034
1.69141
1.69239
1.69325
1.69399
1.69471
1.68124
1.68423
1.68666
1.68922
1.6911
1.69193
1.69156
1.69006
1.68769
1.68483
1.68183
1.67905
1.67672
1.67497
1.67383
1.67326
1.6732
1.67355
1.67419
1.67503
1.67597
1.67695
1.67793
1.6789
1.67983
1.68073
1.68158
1.68237
1.68307
1.68382
1.67392
1.67692
1.67935
1.68186
1.68366
1.68438
1.68389
1.68228
1.67984
1.67691
1.67388
1.67106
1.66869
1.66688
1.66564
1.66492
1.66467
1.6648
1.66519
1.66575
1.66641
1.66711
1.66783
1.66855
1.66928
1.67001
1.67075
1.67149
1.67222
1.67307
1.66649
1.66951
1.67192
1.67438
1.67609
1.67668
1.67606
1.67436
1.67184
1.66887
1.66582
1.66299
1.6606
1.65873
1.65739
1.65654
1.65611
1.656
1.65614
1.65643
1.6568
1.65722
1.65766
1.65813
1.65863
1.65919
1.65982
1.66053
1.66133
1.6624
1.65891
1.66198
1.66438
1.66678
1.66838
1.66884
1.66809
1.66629
1.66372
1.66072
1.65767
1.65484
1.65244
1.65053
1.6491
1.64811
1.64749
1.64717
1.64705
1.64706
1.64714
1.64726
1.64741
1.6476
1.64784
1.64818
1.64867
1.64934
1.65027
1.65165
1.6512
1.65433
1.65672
1.65905
1.66053
1.66085
1.65998
1.65809
1.65547
1.65247
1.64943
1.64663
1.64422
1.64227
1.64076
1.63964
1.63884
1.6383
1.63793
1.63765
1.63744
1.63725
1.63708
1.63695
1.63688
1.63692
1.63714
1.63767
1.63875
1.64071
1.64335
1.64657
1.64893
1.6512
1.65255
1.65273
1.65174
1.64978
1.64713
1.64414
1.64113
1.63836
1.63596
1.63397
1.63238
1.63113
1.63016
1.6294
1.62878
1.62822
1.6277
1.62719
1.62668
1.62619
1.62573
1.62533
1.62505
1.62499
1.62542
1.62774
1.97719
1.9921
2.00232
2.01152
2.01851
2.02393
2.02783
2.03047
2.03202
2.0326
2.03234
2.03142
2.03005
2.02837
2.02645
2.02437
2.02215
2.02001
2.01779
2.01587
2.01379
2.01218
2.01029
2.00921
2.00771
2.00755
2.00653
2.0081
2.00772
2.01307
1.96571
1.98147
1.99224
2.00191
2.00921
2.01489
2.01905
2.02192
2.02362
2.02432
2.0242
2.02345
2.0222
2.0206
2.01877
2.01679
2.01467
2.01261
2.01048
2.00862
2.00658
2.00504
2.00322
2.0022
2.00077
2.00065
1.99968
2.00129
2.00095
2.00637
1.95404
1.9707
1.98204
1.99221
1.99984
2.00581
2.01022
2.01331
2.01516
2.016
2.01603
2.01544
2.01431
2.0128
2.01107
2.0092
2.00717
2.0052
2.00316
2.00136
1.99939
1.99793
1.9962
1.99526
1.9939
1.99383
1.99293
1.99458
1.99428
1.99977
1.94221
1.95964
1.9717
1.98241
1.99042
1.99668
2.00134
2.00464
2.00667
2.00767
2.00785
2.00738
2.00639
2.005
2.00336
2.00159
1.99966
1.99778
1.99583
1.99411
1.99223
1.99085
1.98921
1.98837
1.98709
1.9871
1.98626
1.98797
1.98772
1.99328
1.93024
1.94863
1.96127
1.97253
1.98095
1.98752
1.99242
1.99591
1.99814
1.99932
1.99964
1.9993
1.99843
1.99718
1.99565
1.99398
1.99213
1.99035
1.98849
1.98686
1.98509
1.9838
1.98227
1.98153
1.98034
1.98046
1.97969
1.98146
1.98126
1.98689
1.91811
1.93751
1.95076
1.9626
1.97143
1.97831
1.98346
1.98717
1.98958
1.99094
1.99141
1.9912
1.99046
1.98934
1.98791
1.98635
1.98461
1.98291
1.98116
1.97963
1.97797
1.97679
1.97537
1.97475
1.97367
1.97389
1.9732
1.97505
1.9749
1.9806
1.90586
1.9263
1.94019
1.95261
1.96187
1.96906
1.97448
1.9784
1.98101
1.98254
1.98316
1.98309
1.98248
1.98149
1.98017
1.97872
1.97708
1.97549
1.97383
1.97241
1.97087
1.96981
1.96852
1.96803
1.96706
1.9674
1.9668
1.96873
1.96863
1.97442
1.8935
1.91501
1.92956
1.94258
1.95227
1.95979
1.96547
1.96961
1.97242
1.97412
1.9749
1.97496
1.97448
1.97362
1.97242
1.97107
1.96956
1.96807
1.96651
1.96521
1.96379
1.96286
1.9617
1.96136
1.96052
1.96098
1.96049
1.96251
1.96247
1.96834
1.88105
1.90362
1.91889
1.93253
1.94265
1.9505
1.95646
1.96082
1.96382
1.96569
1.96662
1.96683
1.96648
1.96575
1.96467
1.96343
1.96203
1.96066
1.95921
1.95804
1.95674
1.95595
1.95494
1.95475
1.95405
1.95464
1.95426
1.95639
1.95642
1.96236
1.86853
1.89216
1.90819
1.92245
1.93302
1.94121
1.94743
1.95202
1.95521
1.95726
1.95834
1.95869
1.95847
1.95787
1.95691
1.95579
1.95451
1.95325
1.95192
1.95088
1.94971
1.94908
1.94821
1.94819
1.94764
1.94838
1.94812
1.95037
1.95047
1.95648
1.85595
1.88063
1.89747
1.91237
1.92339
1.93191
1.93841
1.94322
1.94661
1.94882
1.95007
1.95055
1.95047
1.94999
1.94916
1.94816
1.94699
1.94586
1.94464
1.94374
1.94272
1.94224
1.94153
1.94168
1.9413
1.94219
1.94207
1.94444
1.94462
1.95071
1.84335
1.86907
1.88676
1.9023
1.91376
1.92263
1.9294
1.93443
1.93802
1.9404
1.9418
1.94243
1.94247
1.94213
1.94142
1.94053
1.93948
1.93848
1.93739
1.93662
1.93575
1.93543
1.93489
1.93522
1.93501
1.93607
1.93611
1.93862
1.93888
1.94505
1.83073
1.8575
1.87607
1.89225
1.90416
1.91336
1.92041
1.92566
1.92944
1.93199
1.93354
1.93431
1.9345
1.93428
1.93369
1.93291
1.93198
1.93111
1.93015
1.92953
1.9288
1.92866
1.92829
1.9288
1.92878
1.93002
1.93024
1.93289
1.93326
1.93951
1.81812
1.84595
1.86542
1.88223
1.89458
1.90412
1.91144
1.91692
1.92088
1.9236
1.92531
1.92622
1.92654
1.92644
1.92596
1.92531
1.92449
1.92376
1.92292
1.92245
1.92188
1.92191
1.92173
1.92243
1.9226
1.92405
1.92445
1.92728
1.92775
1.93408
1.80555
1.83443
1.85484
1.87225
1.88504
1.89492
1.90251
1.9082
1.91235
1.91524
1.91709
1.91815
1.91859
1.91861
1.91825
1.91772
1.91702
1.91642
1.91571
1.91538
1.91499
1.91519
1.9152
1.9161
1.91648
1.91815
1.91876
1.92177
1.92236
1.92879
1.79303
1.82299
1.84433
1.86233
1.87556
1.88576
1.89362
1.89953
1.90386
1.90691
1.90891
1.91011
1.91067
1.9108
1.91056
1.91015
1.90957
1.9091
1.90852
1.90833
1.90811
1.9085
1.90869
1.90981
1.91042
1.91231
1.91315
1.91637
1.9171
1.92362
1.7806
1.81167
1.83392
1.85247
1.86614
1.87667
1.88479
1.89091
1.89542
1.89863
1.90077
1.90209
1.90278
1.90302
1.90289
1.90259
1.90213
1.90178
1.90134
1.9013
1.90125
1.90183
1.90222
1.90355
1.9044
1.90655
1.90764
1.91109
1.91197
1.9186
1.76827
1.80052
1.82364
1.84269
1.85679
1.86764
1.87602
1.88235
1.88704
1.89039
1.89267
1.89412
1.89491
1.89526
1.89524
1.89506
1.89471
1.89448
1.89418
1.89429
1.8944
1.89517
1.89577
1.89733
1.89843
1.90085
1.9022
1.90592
1.90698
1.91372
1.75607
1.78956
1.81349
1.83302
1.84752
1.8587
1.86732
1.87386
1.87871
1.88221
1.88463
1.88619
1.88709
1.88754
1.88762
1.88755
1.88731
1.8872
1.88704
1.88729
1.88758
1.88854
1.88934
1.89113
1.8925
1.89521
1.89686
1.90086
1.90214
1.909
1.74403
1.77879
1.80348
1.82345
1.83835
1.84985
1.85871
1.86545
1.87046
1.8741
1.87664
1.8783
1.8793
1.87985
1.88003
1.88007
1.87993
1.87993
1.87992
1.88031
1.88076
1.88191
1.88293
1.88496
1.8866
1.88963
1.89159
1.89592
1.89745
1.90445
1.73219
1.7682
1.79363
1.81401
1.82929
1.84111
1.85019
1.85712
1.8623
1.86606
1.86871
1.87046
1.87157
1.8722
1.87247
1.87261
1.87258
1.87268
1.87281
1.87334
1.87395
1.87529
1.87653
1.87881
1.88074
1.88409
1.8864
1.8911
1.89292
1.9001
1.72059
1.7578
1.78394
1.80471
1.82036
1.83249
1.84179
1.8489
1.85422
1.8581
1.86085
1.86269
1.86388
1.86459
1.86494
1.86517
1.86524
1.86545
1.86571
1.86639
1.86715
1.86868
1.87014
1.87266
1.87489
1.87859
1.88128
1.88639
1.88857
1.89595
1.70928
1.74761
1.77444
1.79556
1.81158
1.824
1.83353
1.8408
1.84625
1.85022
1.85306
1.85497
1.85624
1.85702
1.85745
1.85776
1.85793
1.85824
1.85862
1.85944
1.86036
1.86207
1.86375
1.86653
1.86905
1.87313
1.87622
1.88179
1.8844
1.89203
1.69832
1.73769
1.76514
1.7866
1.80297
1.81567
1.8254
1.83282
1.83839
1.84245
1.84535
1.84733
1.84865
1.8495
1.85
1.85037
1.85064
1.85104
1.85154
1.85249
1.85357
1.85546
1.85735
1.86039
1.86322
1.86768
1.87122
1.87731
1.88042
1.88837
1.6878
1.728
1.75607
1.77783
1.79454
1.80752
1.81744
1.82499
1.83065
1.83478
1.83773
1.83976
1.84113
1.84202
1.84258
1.84302
1.84336
1.84386
1.84447
1.84555
1.84677
1.84885
1.85094
1.85425
1.85738
1.86224
1.86627
1.87292
1.87665
1.885
1.6778
1.71844
1.74723
1.7693
1.78634
1.79956
1.80965
1.8173
1.82305
1.82722
1.83021
1.83227
1.83367
1.8346
1.8352
1.8357
1.83611
1.83669
1.8374
1.83862
1.83997
1.84222
1.84452
1.84809
1.85153
1.8568
1.86135
1.86863
1.87308
1.88197
1.66847
1.70957
1.73868
1.76104
1.77838
1.79183
1.80205
1.8098
1.81559
1.8198
1.8228
1.82488
1.82629
1.82724
1.82787
1.82842
1.82888
1.82954
1.83035
1.83168
1.83317
1.83558
1.83808
1.8419
1.84566
1.85134
1.85644
1.86442
1.86973
1.87934
1.65984
1.70096
1.73028
1.75293
1.77056
1.7842
1.79456
1.80237
1.8082
1.81243
1.81543
1.8175
1.81891
1.81988
1.82053
1.82111
1.82163
1.82237
1.82326
1.82471
1.82633
1.8289
1.83159
1.83566
1.83974
1.84583
1.85152
1.86024
1.8666
1.87717
1.65159
1.69212
1.72164
1.74461
1.76255
1.77642
1.78692
1.79482
1.80069
1.80493
1.80794
1.81001
1.81143
1.81241
1.81309
1.8137
1.81428
1.8151
1.81608
1.81765
1.8194
1.82212
1.82502
1.82932
1.83373
1.84023
1.84654
1.85606
1.86365
1.87557
1.64407
1.68345
1.7131
1.73632
1.75451
1.76855
1.77919
1.78717
1.79308
1.79736
1.80039
1.80248
1.80391
1.80491
1.80562
1.80628
1.80691
1.80781
1.80888
1.81055
1.81244
1.8153
1.81839
1.82291
1.82764
1.83451
1.84144
1.85176
1.86077
1.87453
1.62351
1.66232
1.69203
1.71541
1.73371
1.74777
1.75841
1.76637
1.77222
1.77645
1.77942
1.78146
1.78284
1.7838
1.7845
1.78518
1.7859
1.78692
1.78816
1.79004
1.79222
1.79539
1.79894
1.80397
1.8095
1.81729
1.82588
1.83828
1.85161
1.87175
1.57784
1.6164
1.6458
1.66891
1.6873
1.70169
1.71273
1.7211
1.72739
1.73206
1.73548
1.73799
1.73986
1.74133
1.74259
1.74384
1.74517
1.74681
1.74872
1.75126
1.75417
1.7581
1.76248
1.76843
1.77503
1.78411
1.79436
1.80881
1.82495
1.84808
1.53356
1.57047
1.59901
1.62172
1.64007
1.65465
1.66597
1.67471
1.68143
1.68655
1.69045
1.69348
1.69589
1.69793
1.6998
1.70167
1.70364
1.70596
1.70856
1.71182
1.71545
1.72015
1.72532
1.73211
1.7396
1.74962
1.76084
1.77629
1.79345
1.81759
1.4892
1.52429
1.55176
1.5739
1.59209
1.60674
1.61829
1.62737
1.63448
1.64003
1.64442
1.64796
1.65092
1.65355
1.65601
1.65851
1.66114
1.66412
1.66739
1.67134
1.67568
1.6811
1.68698
1.69449
1.70267
1.71335
1.72513
1.74106
1.75858
1.7831
1.4443
1.47766
1.50401
1.52555
1.5435
1.55813
1.56985
1.57921
1.58667
1.59267
1.59755
1.60163
1.60516
1.60839
1.61146
1.6146
1.61787
1.62151
1.62544
1.63005
1.63504
1.64109
1.64759
1.65566
1.66436
1.67545
1.68753
1.70364
1.72121
1.74583
1.39844
1.43029
1.45559
1.47647
1.4941
1.50867
1.52049
1.5301
1.53792
1.54436
1.54974
1.55437
1.55849
1.56233
1.56603
1.56981
1.57372
1.578
1.58257
1.5878
1.59339
1.6
1.60702
1.61554
1.62461
1.63596
1.64816
1.66428
1.68172
1.7063
1.35142
1.38195
1.40626
1.42649
1.4438
1.45831
1.47022
1.48005
1.48822
1.49509
1.50097
1.50615
1.51086
1.5153
1.51963
1.52404
1.52858
1.53348
1.53866
1.54447
1.55061
1.55772
1.56518
1.57407
1.58341
1.59492
1.60715
1.62317
1.64039
1.66482
1.30308
1.33248
1.35591
1.37554
1.39256
1.40698
1.41896
1.42901
1.43751
1.4448
1.45118
1.4569
1.46218
1.46722
1.47217
1.4772
1.48236
1.48786
1.49362
1.49997
1.50662
1.51418
1.52203
1.53123
1.54079
1.5524
1.5646
1.58046
1.59736
1.62156
1.25335
1.28178
1.30443
1.32353
1.34026
1.3546
1.36665
1.3769
1.38573
1.39343
1.40029
1.40654
1.4124
1.41803
1.42358
1.42921
1.43497
1.44105
1.44736
1.45423
1.46135
1.46933
1.47754
1.48701
1.49676
1.50844
1.52057
1.53624
1.55275
1.57664
1.2022
1.22977
1.25176
1.27037
1.28684
1.30111
1.31323
1.32368
1.33282
1.34092
1.34825
1.35502
1.36143
1.36765
1.37379
1.38001
1.38635
1.39298
1.39983
1.40719
1.41476
1.42313
1.43167
1.4414
1.45131
1.46304
1.4751
1.49054
1.50662
1.53014
1.14961
1.17642
1.19782
1.216
1.23223
1.24646
1.25865
1.26928
1.27872
1.28721
1.29499
1.30228
1.30923
1.31601
1.32273
1.32952
1.33642
1.3436
1.35095
1.35878
1.36678
1.37553
1.38439
1.39436
1.40443
1.41621
1.42818
1.4434
1.45901
1.48211
1.09559
1.1217
1.14258
1.16037
1.17638
1.19058
1.20285
1.21366
1.22339
1.23225
1.24047
1.24825
1.25573
1.26306
1.27033
1.27768
1.28512
1.29282
1.30066
1.30895
1.31736
1.32648
1.33565
1.34585
1.35608
1.36791
1.37981
1.3948
1.40994
1.43257
1.04011
1.06558
1.086
1.10343
1.11925
1.13342
1.14578
1.15677
1.16676
1.17599
1.18463
1.19288
1.20087
1.20874
1.21655
1.22443
1.23239
1.24059
1.2489
1.25763
1.26644
1.27591
1.28539
1.29582
1.30621
1.3181
1.32995
1.34471
1.35939
1.38153
0.983216
1.00807
1.02806
1.04517
1.0608
1.07496
1.08739
1.09855
1.10881
1.11837
1.12742
1.13613
1.14461
1.15298
1.1613
1.1697
1.17816
1.18684
1.19561
1.20476
1.21396
1.22378
1.23354
1.24421
1.25477
1.26672
1.27853
1.29309
1.30732
1.32893
0.924898
0.94915
0.968733
0.985537
1.001
1.01514
1.02766
1.03897
1.04947
1.05936
1.0688
1.07793
1.08688
1.09573
1.10454
1.11342
1.12236
1.1315
1.1407
1.15026
1.15984
1.16998
1.18003
1.19093
1.20165
1.21368
1.22546
1.23984
1.25364
1.27472
0.865189
0.888826
0.908018
0.924531
0.939816
0.953935
0.966538
0.977991
0.988719
0.99891
1.0087
1.01824
1.02762
1.03693
1.04621
1.05555
1.06493
1.0745
1.08411
1.09406
1.10398
1.11444
1.12476
1.13588
1.14677
1.15888
1.17065
1.18487
1.19829
1.21883
0.804112
0.827113
0.845908
0.86213
0.877232
0.891326
0.904004
0.915587
0.926515
0.93698
0.947107
0.957018
0.966802
0.976534
0.986236
0.995996
1.00579
1.01576
1.02575
1.03605
1.0463
1.05703
1.06761
1.07893
1.08998
1.10215
1.11393
1.12798
1.14105
1.16105
0.741695
0.764017
0.782398
0.798326
0.813235
0.827291
0.840032
0.851726
0.862829
0.87354
0.883963
0.894209
0.904359
0.914472
0.92456
0.934704
0.944873
0.955198
0.965525
0.97613
0.986662
0.997651
1.00846
1.01995
1.03115
1.0434
1.05521
1.06915
1.08192
1.10137
0.677957
0.699542
0.717484
0.733115
0.747817
0.761817
0.774606
0.786387
0.797634
0.808555
0.819234
0.829773
0.840244
0.85069
0.861118
0.871599
0.882089
0.892715
0.903324
0.914185
0.92495
0.936139
0.94712
0.958739
0.970034
0.982292
0.994064
1.00782
1.02036
1.03926
0.61292
0.633701
0.651178
0.666498
0.680976
0.694894
0.707711
0.719555
0.730909
0.741997
0.752889
0.763674
0.774411
0.785136
0.795849
0.806606
0.817354
0.828217
0.83904
0.850089
0.861022
0.87235
0.883465
0.895186
0.906597
0.91892
0.930751
0.944389
0.956626
0.974887
0.5466
0.566505
0.583496
0.59849
0.612717
0.626523
0.63934
0.651219
0.662643
0.673853
0.684908
0.69588
0.706819
0.71776
0.728689
0.73965
0.750578
0.761597
0.772549
0.783694
0.794693
0.806046
0.817161
0.828824
0.840152
0.852309
0.863976
0.87737
0.88959
0.907341
0.479028
0.497983
0.514475
0.529122
0.543062
0.556713
0.569496
0.581381
0.592836
0.604117
0.615271
0.626359
0.637427
0.64851
0.659575
0.67065
0.681667
0.692747
0.703731
0.714873
0.725856
0.737177
0.748285
0.759936
0.771299
0.783424
0.795028
0.808086
0.819725
0.836712
0.410355
0.428262
0.444222
0.458466
0.472059
0.4855
0.498207
0.510061
0.521499
0.532783
0.543961
0.555088
0.566204
0.57734
0.588443
0.599531
0.610528
0.621546
0.632412
0.643375
0.654121
0.665134
0.675894
0.687139
0.698137
0.709917
0.721354
0.734251
0.746077
0.76211
0.341098
0.357761
0.373021
0.3867
0.399833
0.412976
0.425538
0.4373
0.448652
0.459864
0.470986
0.48206
0.493123
0.5042
0.515226
0.526213
0.537074
0.547911
0.558561
0.569278
0.579777
0.590519
0.601012
0.611913
0.622472
0.633573
0.64416
0.656036
0.667215
0.682935
0.272575
0.287513
0.301541
0.314276
0.326726
0.339388
0.351657
0.363225
0.374401
0.385441
0.396395
0.407299
0.418191
0.429088
0.439906
0.450641
0.461173
0.471587
0.481704
0.491772
0.501537
0.511476
0.521239
0.53152
0.541816
0.552901
0.56375
0.57536
0.585123
0.597389
0.207275
0.219524
0.231273
0.242324
0.253618
0.265403
0.277054
0.2882
0.299008
0.30968
0.320276
0.330838
0.341399
0.35196
0.36243
0.372799
0.382934
0.392898
0.402504
0.411961
0.420974
0.429944
0.438469
0.44721
0.455743
0.46496
0.474213
0.48468
0.495175
0.507793
0.148102
0.156547
0.164835
0.17321
0.182535
0.192704
0.203072
0.213241
0.223221
0.233133
0.243051
0.253014
0.263011
0.272998
0.282838
0.292465
0.301724
0.310692
0.319238
0.32762
0.335687
0.34384
0.351809
0.360004
0.367891
0.375896
0.383234
0.390895
0.397381
0.406019
0.097076
0.101238
0.105593
0.110485
0.116919
0.124432
0.132423
0.140547
0.148694
0.156917
0.165352
0.174095
0.183114
0.192302
0.20143
0.210321
0.21869
0.226492
0.233513
0.240002
0.245831
0.251525
0.257054
0.26304
0.269415
0.276644
0.28416
0.291871
0.297645
0.302554
0.054239
0.0551698
0.0561077
0.0572981
0.0605705
0.0647994
0.0695446
0.0745609
0.0797023
0.0850081
0.0906369
0.0967247
0.103311
0.110355
0.117672
0.125106
0.132349
0.139216
0.145349
0.150698
0.154942
0.158331
0.160777
0.162987
0.165253
0.168548
0.172966
0.178695
0.183538
0.185775
0.0173056
0.0161902
0.0133999
0.0128473
0.0139378
0.0151189
0.0164679
0.0179654
0.0195524
0.0212675
0.0232058
0.0254496
0.0280543
0.0310522
0.0343744
0.0379946
0.041723
0.0455203
0.0491077
0.0524536
0.0552279
0.0574924
0.0589847
0.0599949
0.0605294
0.0611648
0.0620161
0.0635675
0.0647596
0.0634964
1.58963
1.54441
1.50131
1.45779
1.41384
1.36874
1.32234
1.27458
1.22541
1.1748
1.12273
1.06927
1.01438
0.958073
0.900406
0.841408
0.78111
0.719556
0.656785
0.592831
0.527774
0.461729
0.394968
0.328143
0.262488
0.200284
0.143931
0.0951927
0.0537133
0.0181227
1.57798
1.53319
1.4906
1.44744
1.40386
1.35908
1.31296
1.26545
1.21652
1.16615
1.11432
1.06109
1.00644
0.950367
0.892949
0.834211
0.774188
0.712928
0.650475
0.58686
0.522175
0.456542
0.390238
0.323944
0.25892
0.197474
0.14197
0.0941173
0.0533083
0.0181797
1.56631
1.52234
1.48025
1.43744
1.39421
1.34976
1.30393
1.25668
1.20799
1.15787
1.10629
1.05329
0.998871
0.943043
0.88588
0.827403
0.767656
0.706689
0.644552
0.581269
0.516946
0.451714
0.385851
0.320056
0.255605
0.194803
0.139998
0.092912
0.0527885
0.0181449
1.55464
1.5117
1.47011
1.42765
1.38476
1.34061
1.29506
1.24806
1.19962
1.14973
1.09838
1.04561
0.991427
0.935838
0.878926
0.820705
0.76123
0.700552
0.638728
0.575774
0.511806
0.446966
0.381532
0.31622
0.252328
0.19218
0.138107
0.0917804
0.0523041
0.0180936
1.54312
1.5013
1.46025
1.41812
1.37555
1.33169
1.2864
1.23964
1.19143
1.14176
1.09063
1.03808
0.984128
0.928771
0.872101
0.814133
0.754925
0.694529
0.633008
0.570378
0.506757
0.4423
0.377287
0.312453
0.249114
0.189617
0.136283
0.0907169
0.0518665
0.0180349
1.53178
1.49111
1.45064
1.40885
1.36656
1.32297
1.27793
1.2314
1.18341
1.13396
1.08304
1.0307
0.97697
0.921839
0.865404
0.807685
0.748739
0.688616
0.627388
0.565078
0.501794
0.437707
0.373103
0.308738
0.245949
0.187109
0.134521
0.0897085
0.0514657
0.017966
1.52065
1.48112
1.44125
1.39983
1.3578
1.31446
1.26967
1.22335
1.17556
1.12632
1.07561
1.02347
0.969953
0.915044
0.858839
0.801366
0.742674
0.682817
0.621873
0.559878
0.496924
0.433194
0.368988
0.305086
0.242847
0.184664
0.132823
0.0887552
0.0510978
0.0178871
1.50976
1.47135
1.43208
1.39104
1.34926
1.30617
1.2616
1.21549
1.1679
1.11885
1.06834
1.0164
0.96308
0.908389
0.852408
0.795173
0.73673
0.677134
0.616468
0.554781
0.492147
0.428768
0.364957
0.301513
0.239822
0.182295
0.131195
0.0878587
0.0507623
0.0178002
1.49911
1.46178
1.42312
1.38247
1.34096
1.29808
1.25373
1.20782
1.16042
1.11156
1.06123
1.00948
0.956355
0.901877
0.846114
0.789109
0.730906
0.671568
0.611174
0.549788
0.487467
0.424434
0.361017
0.298028
0.236886
0.180008
0.129639
0.0870181
0.0504578
0.0177064
1.48874
1.45244
1.41437
1.37412
1.33287
1.29021
1.24605
1.20035
1.15312
1.10444
1.05429
1.00272
0.949784
0.895513
0.839958
0.783175
0.725206
0.666122
0.605993
0.544894
0.48288
0.420189
0.357166
0.294628
0.234036
0.177802
0.128155
0.0862302
0.0501816
0.017606
1.47866
1.44332
1.40584
1.366
1.325
1.28255
1.23858
1.19307
1.14602
1.0975
1.04752
0.996124
0.943374
0.8893
0.833943
0.777374
0.719634
0.660795
0.600921
0.540097
0.47838
0.416024
0.353392
0.291304
0.231262
0.175672
0.126738
0.0854914
0.0499309
0.0175
1.46888
1.43444
1.39752
1.35809
1.31734
1.2751
1.23132
1.18598
1.1391
1.09075
1.04093
0.989702
0.937128
0.883239
0.828072
0.77171
0.714192
0.655588
0.595958
0.535394
0.473965
0.411932
0.349684
0.288048
0.228558
0.173612
0.125389
0.0847991
0.0497038
0.0173897
1.45941
1.42581
1.38942
1.35039
1.30989
1.26786
1.22426
1.17909
1.13236
1.08417
1.03451
0.983453
0.931047
0.877333
0.82235
0.76619
0.708886
0.650504
0.591106
0.530789
0.469637
0.407917
0.346045
0.284862
0.225926
0.171625
0.124106
0.0841529
0.0494997
0.0172772
1.45025
1.41742
1.38154
1.34291
1.30267
1.26083
1.2174
1.17239
1.12582
1.07777
1.02827
0.977378
0.925132
0.871588
0.816786
0.760818
0.703718
0.645547
0.586371
0.526291
0.465407
0.403988
0.342484
0.281756
0.223376
0.169717
0.122891
0.0835532
0.0493404
0.0171643
1.44143
1.40929
1.37389
1.33564
1.29566
1.25401
1.21074
1.16589
1.11947
1.07156
1.02222
0.971477
0.919387
0.866008
0.811382
0.755598
0.698693
0.640723
0.581762
0.521911
0.461284
0.400159
0.339014
0.27874
0.220916
0.167894
0.121746
0.0829994
0.0491803
0.0170511
1.43295
1.40143
1.36648
1.3286
1.28887
1.24741
1.2043
1.15959
1.11331
1.06555
1.01635
0.965753
0.913814
0.860597
0.806143
0.750531
0.693811
0.636036
0.577282
0.517652
0.457275
0.396434
0.335643
0.27582
0.218551
0.166153
0.12067
0.0824902
0.0490386
0.0169387
1.42481
1.39386
1.35932
1.3218
1.28231
1.24102
1.19806
1.15349
1.10736
1.05972
1.01066
0.960209
0.908419
0.855357
0.801068
0.745618
0.689072
0.631485
0.572929
0.513513
0.453376
0.392813
0.332368
0.272992
0.216277
0.164492
0.119661
0.0820234
0.0489137
0.0168279
1.41702
1.38657
1.35242
1.31522
1.27597
1.23486
1.19205
1.14761
1.10161
1.0541
1.00517
0.95485
0.903202
0.850287
0.796152
0.740854
0.684472
0.627064
0.568697
0.509483
0.449577
0.389286
0.329182
0.27025
0.214078
0.162918
0.118716
0.0815966
0.0488033
0.0167195
1.40959
1.37957
1.34579
1.30889
1.26987
1.22893
1.18627
1.14195
1.09608
1.04868
0.99987
0.949681
0.898167
0.845387
0.791395
0.73624
0.68001
0.62277
0.564577
0.505555
0.445871
0.385844
0.326077
0.267587
0.211955
0.161418
0.117832
0.0812077
0.0487069
0.0166148
1.40252
1.37287
1.33942
1.30281
1.26401
1.22323
1.18071
1.13651
1.09076
1.04347
0.994773
0.944703
0.893314
0.840656
0.786796
0.731775
0.675686
0.618599
0.560568
0.501725
0.442255
0.382486
0.323052
0.265003
0.209909
0.159992
0.117008
0.0808558
0.0486237
0.0165146
1.3958
1.36648
1.33332
1.29698
1.2584
1.21777
1.17539
1.1313
1.08566
1.03847
0.989882
0.939921
0.888644
0.836097
0.782358
0.727464
0.671503
0.614555
0.556673
0.497999
0.438734
0.379215
0.320112
0.262508
0.207936
0.158642
0.116245
0.0805408
0.0485538
0.01642
1.38946
1.36041
1.32752
1.29141
1.25303
1.21255
1.1703
1.12632
1.08078
1.03369
0.985201
0.935337
0.884161
0.831716
0.778087
0.723312
0.667468
0.610646
0.552903
0.494386
0.435319
0.376042
0.317263
0.260116
0.206036
0.157371
0.115543
0.0802622
0.0484966
0.0163314
1.38348
1.35466
1.32201
1.28611
1.24792
1.20758
1.16545
1.12157
1.07612
1.02913
0.980729
0.930953
0.879867
0.827517
0.773989
0.719323
0.663586
0.60688
0.549267
0.490899
0.432018
0.372974
0.314513
0.257779
0.204267
0.15618
0.114902
0.0800187
0.0484509
0.016249
1.37788
1.34924
1.3168
1.28109
1.24307
1.20285
1.16084
1.11705
1.0717
1.02479
0.976468
0.926769
0.875766
0.823503
0.770066
0.7155
0.659862
0.603262
0.545771
0.487543
0.428837
0.370018
0.311866
0.255539
0.202585
0.155069
0.11432
0.0798075
0.0484149
0.0161726
1.37266
1.34416
1.31189
1.27635
1.23849
1.19838
1.15648
1.11277
1.0675
1.02067
0.972416
0.922785
0.871858
0.819674
0.766319
0.71184
0.656293
0.599791
0.542415
0.484317
0.425774
0.367172
0.309327
0.253393
0.200986
0.154032
0.113791
0.0796249
0.0483862
0.0161019
1.36781
1.33941
1.3073
1.27189
1.23417
1.19416
1.15236
1.10872
1.06353
1.01676
0.968573
0.919002
0.868142
0.816028
0.762743
0.70834
0.652876
0.596463
0.539193
0.481214
0.422821
0.364431
0.306894
0.251331
0.199468
0.153064
0.113312
0.0794675
0.0483628
0.0160371
1.36334
1.33501
1.30302
1.26772
1.23012
1.1902
1.14848
1.10491
1.05978
1.01307
0.964938
0.915419
0.864617
0.812561
0.759336
0.704996
0.649607
0.593273
0.536096
0.478225
0.419972
0.361787
0.304528
0.249378
0.198025
0.152159
0.112879
0.0793321
0.0483437
0.0159784
1.35925
1.33096
1.29906
1.26384
1.22635
1.1865
1.14486
1.10134
1.05626
1.0096
0.961512
0.912036
0.861282
0.80927
0.756094
0.701807
0.646482
0.590216
0.533119
0.475345
0.417222
0.359238
0.302251
0.247505
0.196654
0.151315
0.112487
0.0792175
0.0483286
0.0159265
1.35555
1.32726
1.29543
1.26027
1.22286
1.18307
1.14149
1.09801
1.05297
1.00634
0.958297
0.908853
0.858135
0.806158
0.753019
0.698774
0.643502
0.587291
0.53026
0.472572
0.414572
0.356781
0.300063
0.245712
0.195352
0.150528
0.112135
0.079123
0.048318
0.015882
1.35223
1.32391
1.29212
1.25699
1.21965
1.1799
1.13837
1.09493
1.04992