/*--------------------------------*- C++ -*----------------------------------*\
  =========                 |
  \\      /  F ield         | OpenFOAM: The Open Source CFD Toolbox
   \\    /   O peration     | Website:  https://openfoam.org
    \\  /    A nd           | Version:  7
     \\/     M anipulation  |
\*---------------------------------------------------------------------------*/
FoamFile
{
    version     2.0;
    format      ascii;
    class       surfaceScalarField;
    location    "2.4";
    object      phi;
}
// * * * * * * * * * * * * * * * * * * * * * * * * * * * * * * * * * * * * * //

dimensions      [0 3 -1 0 0 0 0];

internalField   nonuniform List<scalar> 
35640
(
-4.22474e-05
0.00192504
-0.0018828
-0.000140496
0.00463041
-0.00453216
-0.000279349
0.00656605
-0.0064272
-0.000440778
0.00783048
-0.00766905
-0.000606351
0.00855905
-0.00839347
-0.000758847
0.00887664
-0.00872415
-0.000883447
0.0088831
-0.0087585
-0.000968141
0.0086532
-0.00856851
-0.00100355
0.00824252
-0.00820711
-0.000982827
0.00769389
-0.00771461
-0.000901542
0.00704231
-0.0071236
-0.000757351
0.00631823
-0.00646242
-0.000549806
0.0055492
-0.00575675
-0.000280292
0.00476063
-0.00503014
4.81847e-05
0.00397555
-0.00430403
0.000431227
0.00321446
-0.0035975
0.000863328
0.00249472
-0.00292682
0.00133814
0.00183027
-0.00230508
0.00184873
0.00123155
-0.00174215
0.00238798
0.000705406
-0.00124465
0.00294883
0.000255269
-0.000816124
0.00352459
-0.000118386
-0.000457373
0.00410906
-0.000417646
-0.000166823
0.0046967
-0.000646609
5.89641e-05
0.00528277
-0.000810772
0.000224705
0.0058633
-0.000916567
0.00033603
0.00643508
-0.000970648
0.000398866
0.00699553
-0.000979314
0.000418869
0.00754259
-0.000944807
0.000397745
-0.000857841
0.00807374
0.000326693
-3.13435e-05
0.00195639
-0.00010786
0.00470693
-0.000219345
0.00667754
-0.000351049
0.00796219
-0.000486506
0.00869451
-0.000609649
0.00899979
-0.000706095
0.00897955
-0.000763921
0.00871103
-0.000773823
0.00825242
-0.000729002
0.00764907
-0.000624984
0.0069383
-0.000459389
0.00615264
-0.000231841
0.00532165
5.62042e-05
0.00447258
0.000401692
0.00363006
0.000800167
0.00281598
0.001246
0.00204888
0.00173269
0.00134359
0.00225325
0.000710982
0.00280055
0.000158111
0.00336751
-0.000311693
0.00394744
-0.000698321
0.00453424
-0.00100444
0.00512251
-0.00123489
0.0057077
-0.00139596
0.006286
-0.00149487
0.00685447
-0.00153912
0.00741088
-0.00153573
0.00795359
-0.00148752
-0.001385
0.00848075
-2.03826e-05
0.00197677
-7.43336e-05
0.00476088
-0.000156905
0.00676011
-0.000256764
0.00806204
-0.000359591
0.00879733
-0.000450483
0.00909068
-0.000515665
0.00904473
-0.000543549
0.00873891
-0.000524973
0.00823384
-0.00045318
0.00757727
-0.00032376
0.00680888
-0.000134425
0.0059633
0.000115129
0.0050721
0.000423375
0.00416433
0.000787112
0.00326632
0.00120174
0.00240135
0.00166153
0.00158909
0.00215993
0.000845187
0.00268989
0.000181022
0.00324422
-0.000396216
0.00381588
-0.000883362
0.00439832
-0.00128076
0.00498559
-0.00159171
0.00557249
-0.00182179
0.00615468
-0.00197815
0.00672866
-0.00206885
0.00729178
-0.00210224
0.00784212
-0.00208606
0.00837851
-0.0020239
-0.00190635
0.00889985
-9.46467e-06
0.00198624
-4.05008e-05
0.00479192
-9.30696e-05
0.00681268
-0.000159389
0.00812836
-0.000227313
0.00886526
-0.000283356
0.00914673
-0.000314546
0.00907592
-0.000309621
0.00873399
-0.000259701
0.00818392
-0.000158257
0.00747583
-9.30419e-07
0.00665155
0.000214418
0.00574795
0.000487913
0.0047986
0.000817867
0.00383438
0.00120094
0.00288325
0.0016324
0.00196989
0.00210638
0.00111511
0.00261623
0.000335336
0.00315487
-0.000357618
0.00371515
-0.000956496
0.00429014
-0.00145835
0.00487342
-0.00186405
0.00545928
-0.00217757
0.00604279
-0.00240531
0.00661992
-0.00255527
0.00718751
-0.00263644
0.00774324
-0.00265797
0.00828558
-0.0026284
0.00881381
-0.00255213
-0.00242012
0.00932758
1.18631e-06
0.00198505
-6.93381e-06
0.00480003
-2.89007e-05
0.00683464
-6.04187e-05
0.00815988
-9.1697e-05
0.00889654
-0.000110697
0.00916573
-0.000105369
0.0090706
-6.50618e-05
0.00869368
1.87655e-05
0.00810009
0.000152431
0.00734217
0.000340026
0.00646396
0.000583467
0.00550451
0.000882682
0.00449939
0.00123579
0.00348127
0.00163924
0.00247979
0.00208811
0.00152102
0.0025764
0.000626821
0.0030974
-0.000185659
0.00364401
-0.000904227
0.00420913
-0.00152162
0.004786
-0.00203523
0.00536845
-0.0024465
0.00595105
-0.00276017
0.00652922
-0.00298348
0.00709931
-0.00312536
0.00765856
-0.00319569
0.00820502
-0.00320443
0.00873755
-0.00316094
0.0092559
-0.00307048
-0.00292466
0.00976045
1.13996e-05
0.00197365
2.5815e-05
0.00478562
3.45619e-05
0.0068259
3.85658e-05
0.00815588
4.52783e-05
0.00888983
6.51156e-05
0.00914589
0.000109034
0.00902668
0.000186996
0.00861572
0.00030708
0.00798001
0.000475233
0.00717401
0.000695217
0.00624397
0.000968678
0.00523105
0.00129527
0.00417279
0.00167282
0.00310372
0.00209754
0.00205507
0.0025643
0.00105426
0.00306697
0.000124154
0.00359874
-0.000717429
0.00415254
-0.00145802
0.00472139
-0.00209047
0.00529874
-0.00261259
0.00587873
-0.00302649
0.00645629
-0.00333773
0.00702728
-0.00355446
0.00758849
-0.00368656
0.00813757
-0.00374477
0.00867306
-0.00373991
0.0091942
-0.00368208
0.00970118
-0.00357746
-0.00341858
0.0101951
2.09755e-05
0.00195268
5.72037e-05
0.00474939
9.62849e-05
0.00678682
0.000136071
0.00811609
0.000181577
0.00884432
0.000241543
0.00908593
0.000325743
0.00894248
0.000443256
0.00849821
0.00060157
0.0078217
0.000806183
0.0069694
0.00106045
0.00598971
0.00136563
0.00492587
0.00172103
0.00381739
0.00212416
0.0027006
0.00257092
0.00160831
0.00305596
0.000569219
0.00357298
-0.00039286
0.00411509
-0.00125955
0.00467528
-0.00201821
0.00524675
-0.00266194
0.00582323
-0.00318907
0.00639921
-0.00360246
0.00697006
-0.00390859
0.00753216
-0.00411656
0.00808279
-0.0042372
0.00862013
-0.00428211
0.00914313
-0.00426292
0.00965151
-0.00419046
0.0101459
-0.00407183
-0.00390074
0.010628
2.97454e-05
0.00192293
8.67006e-05
0.00469243
0.000155288
0.00671823
0.000230536
0.00804085
0.000315146
0.00875971
0.000416068
0.00898501
0.00054173
0.00881682
0.000700251
0.00833968
0.000898417
0.00762354
0.00114114
0.00672668
0.00143126
0.00569959
0.00176961
0.00458752
0.00215506
0.00343194
0.00258471
0.00227094
0.00305415
0.00113887
0.00355775
6.5622e-05
0.004089
-0.000924118
0.00464099
-0.00181153
0.00520677
-0.002584
0.00577977
-0.00323494
0.00635406
-0.00376335
0.00692456
-0.00417296
0.00748718
-0.00447122
0.00803886
-0.00466824
0.00857743
-0.00477577
0.00910162
-0.0048063
0.0096109
-0.00477219
0.0101054
-0.00468499
0.0105862
-0.00455262
-0.00437024
0.0110557
3.75809e-05
0.00188535
0.000113823
0.00461619
0.000210631
0.00662142
0.000320538
0.00793094
0.000444007
0.00863624
0.000586157
0.00884286
0.000753984
0.00864899
0.000954533
0.00813914
0.00119375
0.00738432
0.00147586
0.00644457
0.00180312
0.00537233
0.00217581
0.00421483
0.00259231
0.00301544
0.00304927
0.00181398
0.00354187
0.000646261
0.00406416
-0.000456675
0.00460947
-0.00146942
0.00517081
-0.00237287
0.00574136
-0.00315455
0.00631482
-0.0038084
0.00688566
-0.0043342
0.00744933
-0.00473663
0.00800235
-0.00502423
0.00854225
-0.00520814
0.00906751
-0.00530103
0.00957743
-0.00531622
0.010072
-0.00526677
0.0105518
-0.00516482
0.0110184
-0.00501915
-0.00482645
0.0114746
4.43605e-05
0.00184099
0.000138174
0.00452238
0.000261506
0.00649809
0.000404761
0.00778769
0.000566311
0.00847469
0.000749436
0.00865973
0.00095963
0.00843879
0.00120275
0.00789601
0.0014838
0.00710327
0.00180622
0.00612216
0.00217157
0.00500698
0.00257951
0.00380689
0.00302784
0.00256711
0.00351268
0.00132914
0.00402876
0.000130182
0.00456977
-0.000997689
0.00512882
-0.00202847
0.00569892
-0.00294297
0.00627339
-0.00372902
0.00684625
-0.00438126
0.00741246
-0.00490041
0.00796807
-0.00529224
0.00851026
-0.00556641
0.00903723
-0.00573511
0.00954815
-0.00581196
0.0100429
-0.005811
0.0105221
-0.00574594
0.0109867
-0.00562945
0.0114386
-0.00547102
-0.00526905
0.0118812
5.00093e-05
0.00179098
0.00015945
0.00441294
0.000307241
0.0063503
0.000482081
0.00761285
0.000680437
0.00827634
0.000903772
0.0084364
0.00115604
0.00818653
0.00144183
0.00761023
0.00176508
0.00678001
0.00212835
0.00575889
0.00253243
0.00460289
0.00297627
0.00336306
0.00345697
0.00208641
0.00397007
0.000816041
0.00450976
-0.000409509
0.00506934
-0.00155727
0.00564172
-0.00260084
0.00621988
-0.00352113
0.00679736
-0.0043065
0.00736856
-0.00495247
0.00792901
-0.00546086
0.00847542
-0.00583866
0.00900571
-0.0060967
0.00951883
-0.00624823
0.0100146
-0.00630777
0.0104937
-0.00629006
0.0109571
-0.00620932
0.0114063
-0.00607865
0.0118434
-0.00590818
-0.00569807
0.0122725
5.44849e-05
0.0017365
0.00017744
0.00428998
0.000347345
0.00618039
0.000551623
0.00740857
0.000785057
0.00804291
0.00104737
0.00817409
0.00134096
0.00789294
0.00166907
0.00728212
0.0020345
0.00641458
0.00243884
0.00535455
0.00288201
0.00415973
0.00336211
0.00288296
0.0038755
0.00157301
0.00441701
0.000274531
0.00498024
-0.000972738
0.00555806
-0.00213509
0.00614316
-0.00318595
0.00672857
-0.00410653
0.00730806
-0.00488599
0.00787652
-0.00552093
0.0084301
-0.00601444
0.00896629
-0.00637485
0.00948378
-0.00661419
0.00998232
-0.00674677
0.0104625
-0.00678794
0.0109255
-0.00675307
0.011373
-0.0066568
0.0118068
-0.00651252
0.0122295
-0.00633086
-0.00611379
0.0126452
5.77837e-05
0.00167871
0.00019205
0.00415572
0.000381522
0.00599092
0.00061279
0.0071773
0.000879207
0.00777649
0.00117887
0.00787443
0.00151262
0.00755919
0.00188232
0.00691241
0.00228958
0.00600732
0.0027349
0.00490923
0.00321722
0.00367742
0.0037337
0.00236647
0.00427985
0.00102686
0.00484968
-0.000295297
0.00543613
-0.00155919
0.00603163
-0.00273059
0.00662866
-0.00378298
0.00722031
-0.00469818
0.0078007
-0.00546639
0.00836528
-0.0060855
0.00891092
-0.00656009
0.00943595
-0.00689987
0.00993989
-0.00711814
0.0104233
-0.0072302
0.0108876
-0.00725218
0.0113345
-0.00719998
0.0117662
-0.00708853
0.0121851
-0.00693138
0.0125938
-0.00673956
-0.00651677
0.0129968
5.99369e-05
0.00161878
0.000203299
0.00401236
0.00040969
0.00578453
0.000665306
0.00692168
0.000962338
0.00747946
0.0012974
0.00753936
0.00166984
0.00718675
0.00208012
0.00650214
0.00252855
0.00555888
0.00301449
0.00442329
0.00353577
0.00315614
0.00408852
0.00181373
0.00466722
0.000448159
0.00526499
-0.000893068
0.00587406
-0.00216826
0.00648638
-0.00334291
0.00709427
-0.00439087
0.00769097
-0.00529488
0.008271
-0.00604642
0.00883048
-0.00664498
0.00936713
-0.00709674
0.00988014
-0.00741288
0.0103699
-0.00760794
0.0108379
-0.0076982
0.0112862
-0.00770045
0.0117172
-0.007631
0.0121336
-0.00750494
0.0125381
-0.00733585
0.0129335
-0.007135
-0.00690782
0.0133246
6.10109e-05
0.00155777
0.000211321
0.00386205
0.000431989
0.00556387
0.000709228
0.00664445
0.00103436
0.00715433
0.00140269
0.00717104
0.00181212
0.00677731
0.00226171
0.00605255
0.00275046
0.00507013
0.00327644
0.00389731
0.00383627
0.00259631
0.00442487
0.00122512
0.00503562
-0.000162584
0.00566062
-0.00151807
0.00629134
-0.00279899
0.0069193
-0.00397086
0.00753668
-0.00500825
0.00813696
-0.00589515
0.00871521
-0.00662467
0.00926832
-0.00719809
0.00979491
-0.00762333
0.0102951
-0.0079131
0.0107703
-0.00808314
0.0112228
-0.00815063
0.0116552
-0.00813291
0.0120708
-0.00804655
0.0124725
-0.00790666
0.0128634
-0.00772673
0.0132465
-0.00751813
-0.00728791
0.0136266
6.11072e-05
0.00149666
0.000216366
0.00370679
0.000448775
0.00533146
0.000744956
0.00634826
0.00109564
0.00680364
0.00149502
0.00677166
0.00193964
0.0063327
0.00242715
0.00556504
0.00295519
0.00454209
0.00352045
0.00333205
0.00411817
0.00199859
0.00474195
0.000601344
0.00538387
-0.000804508
0.00603499
-0.00216919
0.006686
-0.00345
0.00732798
-0.00461285
0.00795313
-0.0056334
0.00855526
-0.00649729
0.00913014
-0.00719955
0.00967552
-0.00774347
0.010191
-0.00813883
0.0106778
-0.00839986
0.0111381
-0.00854345
0.011575
-0.00858755
0.011992
-0.00854993
0.0123927
-0.00844725
0.0127806
-0.00829452
0.0131589
-0.008105
0.0135308
-0.00789002
-0.00765814
0.013901
6.03596e-05
0.0014363
0.000218784
0.00354836
0.000460614
0.00508963
0.000773222
0.00603566
0.00114703
0.00642983
0.00157528
0.00634341
0.00205328
0.0058547
0.00257729
0.00504102
0.0031435
0.00397589
0.0037471
0.00272845
0.0043818
0.00136389
0.0050397
-5.65603e-05
0.00571152
-0.00147633
0.00638719
-0.00284486
0.00705662
-0.00411943
0.00771059
-0.00526682
0.00834141
-0.00626422
0.0089434
-0.00709928
0.00951314
-0.00776928
0.0100494
-0.00827972
0.0105528
-0.00864225
0.0110255
-0.00887261
0.0114708
-0.00898873
0.0118925
-0.00900921
0.0122946
-0.00895207
0.0126813
-0.00883393
0.0130563
-0.00866953
0.0134231
-0.00847177
0.0137849
-0.00825185
-0.00801971
0.0141465
5.89284e-05
0.00137737
0.000219018
0.00338827
0.000468255
0.00484039
0.000795056
0.00570885
0.00118977
0.00603511
0.00164489
0.0058883
0.00215456
0.00534504
0.00271366
0.00448192
0.00331685
0.0033727
0.00395767
0.00208763
0.00462815
0.000693413
0.00531874
-0.00074715
0.00601869
-0.00217628
0.00671678
-0.00354295
0.00740226
-0.00480491
0.00806571
-0.00593027
0.00869973
-0.00689824
0.00929934
-0.00769888
0.00986205
-0.008332
0.0103877
-0.00880541
0.0108782
-0.00913266
0.0113365
-0.00933091
0.0117668
-0.00941902
0.0121736
-0.00941605
0.0125616
-0.00934009
0.0129352
-0.00920754
0.0132985
-0.00903277
0.0136549
-0.00882822
0.0140079
-0.00860484
-0.00837383
0.014362
5.6994e-05
0.00132038
0.00021758
0.00322769
0.000472597
0.00458538
0.000811732
0.00536972
0.00122548
0.00562136
0.00170572
0.00540805
0.00224552
0.00480523
0.00283839
0.00388906
0.0034773
0.00273379
0.00415402
0.0014109
0.00485873
-1.12893e-05
0.00558008
-0.0014685
0.00630581
-0.00290201
0.00702363
-0.00426077
0.00772224
-0.00550351
0.00839222
-0.00660025
0.00902666
-0.00753268
0.00962144
-0.00829367
0.0101752
-0.00888576
0.010689
-0.00931916
0.0111656
-0.00960928
0.0116092
-0.00977454
0.0120247
-0.00983457
0.0124174
-0.00980868
0.0127922
-0.00971487
0.0131538
-0.00956917
0.0135064
-0.00938542
0.0138538
-0.00917555
0.0141991
-0.00895017
-0.00872162
0.0145469
5.47497e-05
0.00126563
0.000215034
0.00306741
0.000474643
0.00432577
0.000824704
0.00501966
0.00125601
0.00519006
0.00175997
0.00490409
0.00232861
0.00423659
0.00295397
0.00326369
0.00362728
0.00206048
0.00433832
0.00069986
0.00507526
-0.000748227
0.0058249
-0.00221814
0.00657348
-0.00365059
0.00730774
-0.00499503
0.00801603
-0.0062118
0.00868918
-0.0072734
0.009321
-0.0081645
0.00990843
-0.0088811
0.0104513
-0.00942865
0.0109519
-0.00981973
0.0114141
-0.0100715
0.011843
-0.0102035
0.0122442
-0.0102358
0.0126234
-0.0101879
0.012986
-0.0100775
0.0133368
-0.00991998
0.0136801
-0.0097287
0.0140195
-0.00951493
0.0143583
-0.00928893
-0.00906407
0.0147007
5.23949e-05
0.00121323
0.000211962
0.00290784
0.000475456
0.00406227
0.000835533
0.00465958
0.00128339
0.0047422
0.00181002
0.00437746
0.00240643
0.00364019
0.0030631
0.00260702
0.00376933
0.00135425
0.00451277
-4.35855e-05
0.00527946
-0.00151491
0.00605431
-0.00299299
0.00682217
-0.00441845
0.00756901
-0.00574187
0.0082831
-0.00692589
0.00895577
-0.00794607
0.00958179
-0.00879052
0.0101593
-0.00945864
0.0106895
-0.00995885
0.0111758
-0.010306
0.0116232
-0.0105189
0.0120376
-0.0106178
0.0124252
-0.0106234
0.012792
-0.0105547
0.0131436
-0.010429
0.0134848
-0.0102612
0.0138199
-0.0100638
0.0141525
-0.00984749
0.0144856
-0.00962207
-0.00940196
0.0148235
5.01266e-05
0.00116311
0.00020895
0.00274901
0.000476107
0.00379511
0.000845794
0.00428989
0.00130965
0.00427835
0.00185829
0.00382882
0.00248159
0.00301689
0.00316837
0.00192024
0.00390582
0.000616796
0.00467934
-0.000817103
0.00547274
-0.00230831
0.00626912
-0.00378937
0.00705209
-0.00520142
0.00780716
-0.00649694
0.00852282
-0.00764155
0.00919118
-0.00861443
0.00980822
-0.00940756
0.0103735
-0.0100239
0.0108894
-0.0104748
0.0113606
-0.0107772
0.0117931
-0.0109513
0.0121934
-0.0110182
0.0125681
-0.0109982
0.0129237
-0.0109102
0.0132655
-0.0107709
0.0135985
-0.0105942
0.0139267
-0.010392
0.0142535
-0.0101743
0.0145818
-0.00995042
-0.00973591
0.0149158
4.81301e-05
0.00111498
0.000206551
0.00259059
0.000477616
0.00352405
0.000856995
0.00391051
0.00133674
0.00379861
0.00190701
0.00325855
0.00255646
0.00236743
0.00327207
0.00120464
0.00403877
-0.000149906
0.00483955
-0.00161788
0.00565604
-0.0031248
0.00646965
-0.00460298
0.00726307
-0.00599484
0.00802165
-0.00725553
0.00873444
-0.00835434
0.00939466
-0.00927464
0.00999965
-0.0100125
0.0105504
-0.0105746
0.0110507
-0.0109751
0.0115063
-0.0112328
0.011924
-0.011369
0.0123109
-0.0114051
0.012674
-0.0113613
0.0130196
-0.0112558
0.0133531
-0.0111044
0.0136792
-0.0109203
0.0140017
-0.0107145
0.0143237
-0.0104962
0.0146479
-0.0102747
-0.0100664
0.0149784
4.65709e-05
0.00106841
0.000205264
0.0024319
0.000480902
0.00324841
0.000870485
0.00352093
0.00136637
0.00330272
0.00195813
0.00266679
0.00263304
0.00169252
0.00337602
0.000461658
0.00416959
-0.000943481
0.0049943
-0.00244259
0.00582968
-0.00396018
0.00665572
-0.00542902
0.00745452
-0.00679364
0.00821168
-0.00801268
0.00891715
-0.00905981
0.0095655
-0.00992299
0.0101556
-0.0106027
0.01069
-0.011109
0.0111737
-0.0114588
0.0116135
-0.0116727
0.0120169
-0.0117724
0.0123915
-0.0117796
0.0127442
-0.0117139
0.0130812
-0.0115929
0.013408
-0.0114312
0.0137287
-0.011241
0.0140467
-0.0110326
0.0143648
-0.0108143
0.0146855
-0.0105954
-0.0103936
0.0150128
4.55875e-05
0.00102282
0.000205513
0.00227197
0.000486744
0.00296718
0.000887389
0.00312029
0.00139993
0.00279018
0.00201318
0.00205355
0.00271276
0.000992931
0.00348137
-0.000306952
0.004299
-0.00176111
0.00514379
-0.00328738
0.00599335
-0.00480974
0.0068266
-0.00626228
0.00762548
-0.00759252
0.00837623
-0.00876344
0.00907006
-0.00975364
0.00970311
-0.010556
0.0102759
-0.0111755
0.0107925
-0.0116255
0.011259
-0.0119254
0.0116832
-0.0120968
0.012073
-0.0121623
0.0124363
-0.0121429
0.0127801
-0.0120577
0.0131103
-0.0119231
0.013432
-0.0117528
0.0137489
-0.0115579
0.0140638
-0.0113475
0.014379
-0.0111295
0.0146967
-0.010913
-0.0107176
0.0150207
4.52881e-05
0.000977531
0.000207627
0.00210963
0.000495739
0.00267907
0.000908555
0.00270747
0.00143844
0.00226029
0.00207315
0.00141885
0.00279645
0.000269632
0.00358859
-0.00109909
0.00442699
-0.00259952
0.00528748
-0.00414787
0.0061461
-0.00566836
0.0069811
-0.00709728
0.0077747
-0.00838612
0.00851421
-0.00950295
0.00919238
-0.0104318
0.00980711
-0.0111708
0.0103606
-0.011729
0.0108582
-0.0121232
0.0113074
-0.0123745
0.0117164
-0.0125059
0.0120937
-0.0125396
0.0124471
-0.0124963
0.0127835
-0.0123942
0.0131087
-0.0122483
0.0134271
-0.0120712
0.013742
-0.0118727
0.0140554
-0.011661
0.014369
-0.011443
0.014684
-0.011228
-0.0110378
0.0150042
4.57473e-05
0.000931784
0.000211833
0.00194355
0.00050829
0.00238261
0.000934524
0.00228124
0.00148247
0.00171235
0.00213849
0.000762819
0.00288425
-0.000476125
0.00369741
-0.00191225
0.00455281
-0.00345493
0.00542424
-0.00501929
0.0062865
-0.00653063
0.0071177
-0.00792847
0.0079008
-0.00916922
0.00862454
-0.0102267
0.00928346
-0.0110907
0.00987731
-0.0117646
0.0104099
-0.0122616
0.010888
-0.0126012
0.0113199
-0.0128064
0.0117144
-0.0129004
0.0120803
-0.0129054
0.0124253
-0.0128413
0.0127562
-0.012725
0.0130782
-0.0125704
0.0133954
-0.0123884
0.0137104
-0.0121877
0.0140244
-0.011975
0.0143379
-0.0117565
0.014651
-0.0115412
-0.0113528
0.014966
4.70058e-05
0.000884778
0.000218251
0.0017723
0.000524598
0.00207626
0.000965521
0.00184031
0.00153214
0.00114573
0.00220911
8.58447e-05
0.00297571
-0.00124272
0.00380692
-0.00274346
0.00467514
-0.00432315
0.0055524
-0.00589655
0.00641278
-0.00739102
0.00723472
-0.00875041
0.00800239
-0.00993689
0.00870628
-0.0109306
0.0093429
-0.0117273
0.00991385
-0.0123356
0.0104246
-0.0127723
0.0108829
-0.0130596
0.0112979
-0.0132214
0.0116788
-0.0132813
0.0120345
-0.0132611
0.0123726
-0.0131794
0.0126996
-0.013052
0.0130205
-0.0128913
0.0133389
-0.0127068
0.0136566
-0.0125054
0.013974
-0.0122924
0.0142899
-0.0120724
0.0146028
-0.011854
-0.0116603
0.0149103
4.90732e-05
0.000835705
0.000226903
0.00159447
0.000544673
0.00175849
0.00100147
0.00138352
0.00158718
0.00056002
0.0022844
-0.000611379
0.0030698
-0.00202812
0.00391567
-0.00358932
0.00479217
-0.00519965
0.00566998
-0.00677436
0.006523
-0.00824404
0.00733048
-0.00955789
0.00807822
-0.0106846
0.00875873
-0.0116111
0.00937057
-0.0123392
0.00991717
-0.0128822
0.0104054
-0.0132605
0.010844
-0.0134982
0.0112427
-0.0136201
0.011611
-0.0136496
0.0119575
-0.0136077
0.01229
-0.0135119
0.0126147
-0.0133767
0.0129365
-0.0132131
0.0132588
-0.013029
0.0135832
-0.0128298
0.0139089
-0.0126181
0.0142315
-0.012395
0.0145403
-0.0121629
-0.0119587
0.0148388
5.19302e-05
0.000783774
0.000237724
0.00140868
0.000568353
0.00142786
0.00104202
0.000909851
0.00164695
-4.49099e-05
0.00236334
-0.00132777
0.00316508
-0.00282985
0.00402183
-0.00444608
0.00490181
-0.00607964
0.00577487
-0.00764741
0.00661522
-0.00908439
0.00740346
-0.0103461
0.00812734
-0.0114085
0.00878155
-0.0122653
0.00936673
-0.0129244
0.00988801
-0.0134035
0.0103535
-0.013726
0.0107728
-0.0139175
0.0111559
-0.0140032
0.0115123
-0.0140061
0.0118507
-0.0139461
0.0121786
-0.0138398
0.012502
-0.0137002
0.012826
-0.0135371
0.0131545
-0.0133575
0.0134903
-0.0131656
0.013835
-0.0129628
0.0141871
-0.0127472
0.014536
-0.0125118
0.0148125
-0.0122352
0.00939172
-0.000665108
-0.000652873
0.0101988
0.0036129
-0.00441993
0.0106406
0.00837667
-0.00881851
0.0108543
0.0125018
-0.0127155
0.0109144
0.0158006
-0.0158607
0.0108713
0.0183116
-0.0182686
0.0107571
0.0203436
-0.0202293
0.0105912
0.0221721
-0.0220062
0.0103862
0.0239329
-0.0237279
0.0101495
0.0256631
-0.0254265
0.00988675
0.0273443
-0.0270815
0.0096014
0.0289587
-0.0286733
0.00929686
0.0304892
-0.0301847
0.0089752
0.0319295
-0.0316078
0.00863937
0.0332786
-0.0329428
0.00829026
0.034535
-0.0341859
0.00793002
0.0356981
-0.0353379
0.00755968
0.0367679
-0.0363975
0.00718068
0.0377417
-0.0373627
0.00679388
0.0386227
-0.0382359
0.00640031
0.039399
-0.0390055
0.00600036
0.0400893
-0.0396893
0.00559404
0.0406629
-0.0402566
0.00518171
0.041158
-0.0407457
0.00476067
0.0415333
-0.0411122
0.00433359
0.0418163
-0.0413892
0.00389192
0.0420479
-0.0416062
0.00344132
0.0420647
-0.0416141
0.00297351
0.0422041
-0.0417363
0.0422904
-0.0418133
0.00970063
-0.00188495
0.0104474
0.00286612
0.0108547
0.00796947
0.0110485
0.0123079
0.0110975
0.0157516
0.0110483
0.0183609
0.0109301
0.0204618
0.0107616
0.0223407
0.0105538
0.0241406
0.0103144
0.0259025
0.0100483
0.0276104
0.00975944
0.0292475
0.0094506
0.0307981
0.0091239
0.0322561
0.00878235
0.0336201
0.00842689
0.0348905
0.00805961
0.0360654
0.00768155
0.0371459
0.00729418
0.0381291
0.00689851
0.0390184
0.00649524
0.0398023
0.00608531
0.0404992
0.00566856
0.0410796
0.00524546
0.0415811
0.0048134
0.0419653
0.00437511
0.0422546
0.00392222
0.0425008
0.00346055
0.0425264
0.00298174
0.0426829
0.0427785
0.0100111
-0.00299618
0.0106934
0.00218379
0.0110649
0.00759797
0.0112388
0.012134
0.011277
0.0157134
0.011222
0.0184159
0.0111002
0.0205835
0.0109293
0.0225116
0.0107193
0.0243506
0.0104775
0.0261443
0.0102084
0.0278794
0.0099162
0.0295397
0.00960332
0.0311109
0.00927192
0.0325875
0.00892484
0.0339672
0.00856325
0.0352521
0.00818906
0.0364396
0.0078034
0.0375316
0.00740784
0.0385247
0.00700334
0.0394229
0.00659053
0.0402151
0.0061707
0.040919
0.00574352
0.0415068
0.00530981
0.0420148
0.00486684
0.0424083
0.00441739
0.0427041
0.00395341
0.0429648
0.00348068
0.0429991
0.00299078
0.0431728
0.0432776
0.0103218
-0.00399039
0.010935
0.00157059
0.0112707
0.00726227
0.0114247
0.01198
0.0114525
0.0156856
0.0113919
0.0184765
0.0112672
0.0207083
0.0110943
0.0226845
0.0108824
0.0245625
0.0106385
0.0263882
0.0103668
0.0281511
0.0100715
0.0298351
0.00975489
0.0314275
0.00941909
0.0329233
0.0090667
0.0343196
0.00869918
0.0356196
0.00831828
0.0368205
0.00792516
0.0379247
0.00752164
0.0389282
0.00710826
0.0398363
0.00668623
0.0406372
0.00625649
0.0413488
0.00581902
0.0419443
0.00537479
0.0424591
0.00492085
0.0428623
0.0044605
0.0431644
0.00398535
0.0434399
0.00350171
0.0434828
0.00300065
0.0436739
0.0437879
0.0106292
-0.00485917
0.011173
0.00102679
0.0114712
0.00696405
0.0116056
0.0118457
0.0116235
0.0156677
0.011558
0.0185419
0.0114308
0.0208355
0.0112562
0.0228591
0.0110428
0.0247759
0.0107972
0.0266338
0.0105234
0.0284249
0.0102252
0.0301333
0.00990516
0.0317476
0.00956524
0.0332633
0.00920785
0.034677
0.00883464
0.0359928
0.00844726
0.0372079
0.0080468
0.0383251
0.00763543
0.0393396
0.00721326
0.0402584
0.00678223
0.0410682
0.00634267
0.0417883
0.00589497
0.042392
0.0054403
0.0429137
0.00497544
0.0433271
0.00450437
0.0436355
0.00401812
0.0439262
0.00352359
0.0439773
0.00301134
0.0441861
0.0443096
0.0109331
-0.0055972
0.0114052
0.00055471
0.0116661
0.0067032
0.0117812
0.0117305
0.0117899
0.015659
0.0117201
0.0186118
0.0115907
0.0209648
0.0114149
0.023035
0.0112004
0.0249904
0.0109535
0.0268807
0.0106779
0.0287005
0.0103772
0.030434
0.010054
0.0320708
0.00971026
0.033607
0.00934815
0.0350391
0.00896943
0.0363715
0.00857583
0.0376015
0.00816822
0.0387327
0.00774916
0.0397586
0.00731844
0.0406892
0.00687837
0.0415083
0.00642915
0.0422375
0.00597135
0.0428498
0.00550633
0.0433788
0.00503065
0.0438028
0.00454895
0.0441172
0.0040517
0.0444234
0.0035463
0.0444827
0.00302288
0.0447095
0.0448428
0.0112322
-0.00620131
0.0116305
0.00015635
0.0118546
0.00647915
0.0119514
0.0116336
0.0119515
0.0156589
0.0118778
0.0186855
0.0117469
0.0210958
0.0115702
0.0232116
0.011355
0.0252056
0.0111072
0.0271285
0.0108302
0.0289775
0.0105274
0.0307368
0.0102013
0.0323969
0.00985398
0.0339543
0.00948745
0.0354057
0.00910347
0.0367555
0.0087039
0.038001
0.00828939
0.0391473
0.00786272
0.0401853
0.00742368
0.0411282
0.00697464
0.0419573
0.00651593
0.0426963
0.0060481
0.0433176
0.00557283
0.043854
0.00508648
0.0442892
0.00459416
0.0446095
0.00408606
0.0449315
0.00356984
0.0449989
0.00303523
0.0452442
0.0453875
0.0115247
-0.00667031
0.0118483
-0.000167265
0.0120365
0.00629094
0.0121159
0.0115543
0.0121082
0.0156666
0.0120312
0.0187624
0.0118991
0.0212279
0.011722
0.0233888
0.0115065
0.0254211
0.011258
0.0273769
0.01098
0.0292556
0.0106754
0.0310413
0.0103468
0.0327256
0.00999627
0.0343048
0.00962564
0.0357763
0.00923666
0.0371445
0.00883136
0.0384063
0.0084102
0.0395684
0.00797605
0.0406194
0.00752893
0.0415753
0.00707102
0.0424152
0.00660293
0.0431643
0.00612518
0.0437954
0.00563976
0.0443395
0.00514288
0.044786
0.00464
0.0451124
0.00412117
0.0454504
0.00359419
0.0455259
0.00304839
0.04579
0.045944
0.0118085
-0.00700429
0.0120591
-0.000417832
0.0122117
0.00613834
0.0122747
0.0114913
0.0122599
0.0156814
0.0121802
0.0188421
0.0120473
0.0213607
0.0118701
0.023566
0.0116546
0.0256365
0.0114059
0.0276257
0.0111271
0.0295343
0.0108212
0.0313472
0.0104904
0.0330564
0.010137
0.0346582
0.0097626
0.0361507
0.0093689
0.0375382
0.00895807
0.0388172
0.00853056
0.0399959
0.00808909
0.0410609
0.00763409
0.0420303
0.00716745
0.0428818
0.00669012
0.0436417
0.00620255
0.0442829
0.00570705
0.044835
0.00519983
0.0452932
0.00468643
0.0456258
0.00415698
0.0459798
0.00361933
0.0460636
0.00306238
0.0463469
0.0465123
0.0120831
-0.00720613
0.0122619
-0.000596636
0.0123802
0.00602004
0.0124278
0.0114437
0.0124068
0.0157024
0.0123248
0.0189241
0.0121915
0.021494
0.0120144
0.0237431
0.0117993
0.0258516
0.0115506
0.0278744
0.0112716
0.0298134
0.0109646
0.0316541
0.0106321
0.033389
0.010276
0.0350142
0.00989817
0.0365286
0.00950008
0.0379363
0.00908395
0.0392333
0.00865039
0.0404295
0.00820179
0.0415095
0.00773907
0.042493
0.00726388
0.043357
0.00677744
0.0441281
0.00628018
0.0447802
0.00577466
0.0453405
0.00525725
0.0458107
0.00473341
0.0461496
0.00419346
0.0465197
0.00364523
0.0466118
0.00307721
0.0469149
0.0470926
0.0123472
-0.00728092
0.0124563
-0.000705646
0.0125418
0.00593446
0.0125754
0.0114101
0.0125489
0.0157289
0.0124652
0.0190079
0.0123316
0.0216276
0.0121549
0.0239199
0.0119404
0.026066
0.0116921
0.0281227
0.0114131
0.0300924
0.0111055
0.0319617
0.0107715
0.033723
0.0104132
0.0353725
0.0100322
0.0369096
0.00963007
0.0383384
0.00920889
0.0396545
0.00876955
0.0408688
0.00831407
0.041965
0.0078438
0.0429633
0.00736023
0.0438406
0.00686481
0.0446235
0.00635801
0.045287
0.00584255
0.0458559
0.00531506
0.0463382
0.00478089
0.0466838
0.00423058
0.0470701
0.00367186
0.0471705
0.00309286
0.0474939
0.0476849
0.0126
-0.00723566
0.012642
-0.000747723
0.0126968
0.0058797
0.0127176
0.0113893
0.0126866
0.01576
0.0126014
0.0190931
0.0124677
0.0217612
0.0122915
0.0240961
0.0120779
0.0262797
0.0118303
0.0283703
0.0115515
0.0303712
0.0112436
0.0322696
0.0109086
0.034058
0.0105484
0.0357327
0.0101646
0.0372934
0.00975874
0.0387443
0.00933279
0.0400804
0.00888793
0.0413137
0.00842584
0.042427
0.00794819
0.0434409
0.00745646
0.0443323
0.00695215
0.0451279
0.00643599
0.0458031
0.00591069
0.0463812
0.00537322
0.0468756
0.0048288
0.0472282
0.00426831
0.0476305
0.00369921
0.0477396
0.00310928
0.0480839
0.0482894
0.0128402
-0.00707908
0.012819
-0.000726535
0.0128452
0.00585353
0.0128547
0.0113798
0.0128198
0.0157949
0.0127335
0.0191793
0.0125999
0.0218949
0.0124243
0.0242716
0.0122116
0.0264924
0.0119649
0.028617
0.0116868
0.0306493
0.011379
0.0325774
0.0110433
0.0343936
0.0106815
0.0360945
0.0102952
0.0376796
0.00988596
0.0391536
0.00945555
0.0405108
0.00900543
0.0417638
0.00853701
0.0428955
0.00805216
0.0439258
0.00755247
0.044832
0.00703942
0.0456409
0.00651405
0.0463285
0.00597901
0.0469163
0.00543165
0.047423
0.0048771
0.0477828
0.00430659
0.0482011
0.00372725
0.0483189
0.00312647
0.0486846
0.048906
0.013067
-0.00682148
0.0129869
-0.000646454
0.0129869
0.00585349
0.0129866
0.0113801
0.0129486
0.0158329
0.0128616
0.0192664
0.012728
0.0220284
0.0125533
0.0244464
0.0123416
0.0267041
0.0120961
0.0288625
0.0118188
0.0309265
0.0115113
0.0328849
0.0111753
0.0347297
0.0108123
0.0364575
0.0104239
0.038068
0.0100116
0.0395659
0.00957705
0.0409454
0.00912195
0.0422189
0.00864747
0.0433699
0.0081556
0.0444177
0.0076482
0.0453394
0.00712657
0.0461625
0.00659212
0.0468629
0.00604744
0.0474609
0.00549032
0.0479801
0.00492572
0.0483474
0.00434536
0.0487814
0.00375594
0.0489084
0.00314442
0.0492962
0.0495348
0.0132795
-0.00647442
0.0131455
-0.000512472
0.013122
0.00587698
0.0131131