/*--------------------------------*- C++ -*----------------------------------*\
  =========                 |
  \\      /  F ield         | OpenFOAM: The Open Source CFD Toolbox
   \\    /   O peration     | Website:  https://openfoam.org
    \\  /    A nd           | Version:  7
     \\/     M anipulation  |
\*---------------------------------------------------------------------------*/
FoamFile
{
    version     2.0;
    format      ascii;
    class       volVectorField;
    location    "2.4";
    object      U;
}
// * * * * * * * * * * * * * * * * * * * * * * * * * * * * * * * * * * * * * //

dimensions      [0 1 -1 0 0 0 0];

internalField   nonuniform List<vector> 
18000
(
(-0.00184635 0.0571445 2.12631e-20)
(-0.00751393 0.137459 0)
(-0.016276 0.194859 0)
(-0.0256488 0.232352 0)
(-0.0346651 0.254031 -7.02046e-21)
(-0.0423596 0.263645 3.54882e-20)
(-0.0480777 0.264168 -7.18735e-21)
(-0.0514205 0.257811 7.23684e-21)
(-0.0521884 0.246203 0)
(-0.0503301 0.230595 -2.18677e-20)
(-0.0459154 0.211997 -7.32648e-21)
(-0.0390979 0.191292 0)
(-0.0300927 0.169274 1.45928e-20)
(-0.0191594 0.146674 1.46556e-20)
(-0.0065889 0.124156 -2.92146e-20)
(0.00730554 0.102308 -2.91386e-20)
(0.0222055 0.0816319 0)
(0.0378016 0.0625278 -4.34507e-20)
(0.0537977 0.0452971 1.44158e-20)
(0.069919 0.0301387 -4.30228e-20)
(0.0859207 0.0171544 1.42579e-20)
(0.101591 0.00636011 0)
(0.116757 -0.00230079 -1.3992e-20)
(0.131284 -0.00894247 -1.397e-20)
(0.145072 -0.0137195 0)
(0.158055 -0.0168144 0)
(0.17019 -0.0184142 -2.72211e-20)
(0.181468 -0.0186998 -2.69818e-20)
(0.19195 -0.017729 -2.68394e-20)
(0.201448 -0.0152299 2.86785e-20)
(-0.00309245 0.0582182 3.01594e-20)
(-0.0098168 0.139963 5.25797e-20)
(-0.0184775 0.198291 -5.38301e-20)
(-0.0272102 0.236219 -5.48988e-20)
(-0.03526 0.257824 -1.39822e-20)
(-0.0418238 0.266899 4.23018e-20)
(-0.0463426 0.266497 -5.71029e-20)
(-0.0484654 0.258913 -5.75472e-20)
(-0.0480147 0.245862 5.78727e-20)
(-0.0449615 0.228671 5.81414e-20)
(-0.0393891 0.208422 -2.90645e-20)
(-0.0314583 0.186053 -5.82863e-20)
(-0.0213984 0.162414 -2.92916e-20)
(-0.00948428 0.138282 5.82152e-20)
(0.00398109 0.114362 -5.80603e-20)
(0.0186741 0.0912777 5.81524e-20)
(0.0342656 0.0695539 -1.15745e-19)
(0.0504343 0.0496111 8.65223e-20)
(0.0668789 0.0317576 -5.7246e-20)
(0.0833253 0.0161907 2.86386e-20)
(0.0995302 0.0030029 -5.66148e-20)
(0.115286 -0.00780501 0)
(0.130427 -0.0163103 2.83353e-20)
(0.14483 -0.0226515 -5.55558e-20)
(0.158409 -0.0270093 5.50354e-20)
(0.171111 -0.0295892 0)
(0.182904 -0.0306059 -2.69046e-20)
(0.193794 -0.0302597 2.67698e-20)
(0.203859 -0.0286211 1.06428e-19)
(0.212929 -0.0254138 5.67739e-20)
(-0.00437532 0.0589008 -4.83958e-20)
(-0.0121845 0.141655 -5.25783e-20)
(-0.0207096 0.200815 8.07001e-20)
(-0.0287161 0.239191 1.36871e-19)
(-0.0356762 0.260798 0)
(-0.0409556 0.269441 -5.65214e-20)
(-0.0440926 0.268227 5.71004e-20)
(-0.0448048 0.259531 1.72139e-19)
(-0.0429525 0.24515 -5.78698e-20)
(-0.0385225 0.226481 -5.8092e-20)
(-0.0316166 0.204681 1.74109e-19)
(-0.0224174 0.180744 5.82832e-20)
(-0.0111667 0.155575 0)
(0.00184588 0.13 -1.16332e-19)
(0.0163011 0.104766 1.73513e-19)
(0.0318595 0.0805274 -5.75209e-20)
(0.0481801 0.0578368 5.77455e-20)
(0.0649366 0.0371315 5.74261e-20)
(0.0818234 0.0187275 2.48711e-22)
(0.0985633 0.00281977 0)
(0.114919 -0.01051 1.6966e-19)
(0.130692 -0.021277 -1.1202e-19)
(0.145729 -0.0295805 5.58699e-20)
(0.15992 -0.0355838 0)
(0.173196 -0.0394937 -5.50331e-20)
(0.185519 -0.0415417 2.17497e-19)
(0.196876 -0.0419685 -1.61292e-19)
(0.207287 -0.0409921 -5.36464e-20)
(0.21684 -0.038704 5.25306e-20)
(0.225397 -0.0348281 5.63905e-20)
(-0.00567789 0.0592556 0)
(-0.0145942 0.142723 2.61369e-20)
(-0.0229634 0.20255 2.08745e-23)
(-0.0301844 0.241327 -1.36624e-19)
(-0.0359412 0.262971 0)
(-0.0397904 0.271265 -1.12119e-19)
(-0.0413878 0.269343 0)
(-0.0405165 0.259646 -1.7178e-19)
(-0.0370805 0.244048 5.74583e-20)
(-0.0310992 0.224021 -1.15092e-19)
(-0.0226984 0.200782 -1.15878e-19)
(-0.0120797 0.17539 -5.7881e-20)
(0.00049569 0.1488 5.77674e-20)
(0.0147172 0.121889 5.73573e-20)
(0.0302467 0.0954406 -5.79963e-20)
(0.0467317 0.070146 -1.14378e-19)
(0.0638199 0.0465838 1.14338e-19)
(0.081175 0.0252068 0)
(0.0984876 0.00633485 0)
(0.115485 -0.00983935 0)
(0.131937 -0.0232432 0)
(0.14766 -0.0339117 0)
(0.162511 -0.041967 0)
(0.176401 -0.0475976 -1.09604e-19)
(0.18928 -0.0510366 -1.09211e-19)
(0.201131 -0.052542 -4.49306e-22)
(0.211957 -0.0523768 -1.0718e-19)
(0.221798 -0.0507838 -4.28143e-22)
(0.230754 -0.0478726 -1.06085e-19)
(0.238719 -0.0433734 2.23762e-19)
(-0.0069732 0.0592268 0)
(-0.0170091 0.143017 2.33744e-19)
(-0.0252202 0.203345 2.19334e-23)
(-0.0316088 0.242499 -8.15255e-20)
(-0.0360787 0.264231 2.7566e-19)
(-0.0383814 0.272269 1.68073e-19)
(-0.0382919 0.269761 1.69042e-19)
(-0.0356769 0.259196 0)
(-0.0304946 0.242515 0)
(-0.0227991 0.221263 1.72517e-19)
(-0.0127466 0.196717 5.39843e-23)
(-0.000566264 0.169997 -4.0222e-19)
(0.0134569 0.142113 3.44326e-19)
(0.0289908 0.113986 -1.15147e-19)
(0.0456767 0.0864431 1.13793e-19)
(0.0631446 0.0602088 1.14284e-19)
(0.0810293 0.035884 -1.13287e-19)
(0.0989867 0.0139355 1.13487e-19)
(0.116707 -0.00531074 2.25219e-19)
(0.133923 -0.0216662 -1.12032e-19)
(0.150415 -0.0350719 -2.22394e-19)
(0.166013 -0.0455825 2.20982e-19)
(0.180598 -0.0533442 -2.19471e-19)
(0.194098 -0.0585702 1.09599e-19)
(0.20649 -0.0615195 0)
(0.217776 -0.062477 0)
(0.227985 -0.0617274 8.70462e-22)
(0.237172 -0.0595358 -4.21884e-19)
(0.245455 -0.056033 2.08806e-19)
(0.252755 -0.0509639 -2.22224e-19)
(-0.00824531 0.058872 0)
(-0.0194019 0.142621 -2.07711e-19)
(-0.0274606 0.203263 2.11803e-19)
(-0.0329991 0.242728 0)
(-0.0361192 0.26457 -4.39996e-19)
(-0.0367717 0.272433 -5.57225e-20)
(-0.0348726 0.269448 -1.13e-19)
(-0.0303736 0.258141 -5.66587e-20)
(-0.0232915 0.240517 0)
(-0.0137311 0.21818 -1.14304e-19)
(-0.00188563 0.192469 1.14414e-19)
(0.0119872 0.164563 2.29548e-19)
(0.0275743 0.135525 -2.29387e-19)
(0.0445157 0.106321 0)
(0.0624293 0.0778186 -2.28475e-19)
(0.0809274 0.0507735 2.26471e-19)
(0.0996313 0.0258085 2.26944e-19)
(0.11819 0.00340279 3.37447e-19)
(0.136294 -0.0161138 -3.36852e-19)
(0.153684 -0.0325595 4.45671e-19)
(0.170156 -0.0458906 2.2202e-19)
(0.185558 -0.0561822 -2.20971e-19)
(0.199794 -0.0636046 4.37585e-19)
(0.212821 -0.0683967 0)
(0.224638 -0.0708434 2.14854e-19)
(0.235276 -0.071253 4.27095e-19)
(0.244787 -0.0699337 -2.10405e-19)
(0.253245 -0.0671696 2.10719e-19)
(0.260786 -0.0631145 -4.62554e-22)
(0.267362 -0.0575334 -2.20804e-19)
(-0.009473 0.0581903 -2.3728e-20)
(-0.0217446 0.141524 0)
(-0.0296712 0.202272 -2.64663e-19)
(-0.0343495 0.241968 5.38698e-20)
(-0.0360788 0.263937 1.6475e-19)
(-0.0350091 0.271693 5.54587e-20)
(-0.0311955 0.26834 2.23615e-19)
(-0.0246871 0.256428 0)
(-0.0155746 0.238005 1.13407e-19)
(-0.00401718 0.214732 1.13217e-19)
(0.00975133 0.18801 -1.13922e-19)
(0.0254361 0.159074 3.41068e-19)
(0.0426893 0.129036 0)
(0.0611215 0.0989077 0)
(0.0803259 0.069595 3.39295e-19)
(0.0998934 0.0418823 -5.64413e-19)
(0.11943 0.016412 2.24293e-19)
(0.138581 -0.00632554 -2.24629e-19)
(0.15704 -0.0259997 -2.22202e-19)
(0.174558 -0.0424378 -6.65293e-19)
(0.190947 -0.0556134 -9.75217e-22)
(0.20608 -0.0656236 2.18279e-19)
(0.219889 -0.0726623 -4.34893e-19)
(0.23236 -0.0769941 2.15191e-19)
(0.243523 -0.0789298 -1.3238e-21)
(0.253435 -0.0787989 -2.13094e-19)
(0.262177 -0.0769309 2.11279e-19)
(0.269843 -0.0736277 0)
(0.276584 -0.0690657 2.06191e-19)
(0.282388 -0.0630361 3.31554e-22)
(-0.0106431 0.0572094 -4.72481e-20)
(-0.0240118 0.139753 5.14067e-20)
(-0.0318315 0.200391 -3.15284e-19)
(-0.0356617 0.240218 -1.6061e-19)
(-0.0359806 0.262301 2.17743e-19)
(-0.0331339 0.270009 -3.31045e-19)
(-0.0273238 0.266393 -1.12057e-19)
(-0.0187057 0.254004 -2.24227e-19)
(-0.00745018 0.234927 2.25269e-19)
(0.00622139 0.210876 -4.52795e-19)
(0.0220261 0.183307 -2.26119e-19)
(0.0396258 0.153505 -1.13447e-21)
(0.0586352 0.122633 1.13243e-19)
(0.0786314 0.0917462 -3.38173e-19)
(0.0991777 0.0617849 -4.50552e-19)
(0.119842 0.0335592 3.99115e-22)
(0.140219 0.00772996 -8.95493e-22)
(0.159947 -0.0152039 2.21983e-19)
(0.178726 -0.0349147 2.22191e-19)
(0.196319 -0.0512424 3.7037e-22)
(0.212561 -0.0641786 -5.89223e-22)
(0.227353 -0.0738431 2.1598e-19)
(0.240661 -0.0804549 2.1677e-19)
(0.252501 -0.0843043 -4.08339e-22)
(0.262935 -0.0857248 -6.39196e-19)
(0.272054 -0.0850671 4.2132e-19)
(0.279965 -0.0826775 4.1901e-19)
(0.286786 -0.078875 -4.14467e-19)
(0.292684 -0.0738563 -2.06184e-19)
(0.29768 -0.0674458 -2.15968e-19)
(-0.0117416 0.0559577 -4.22565e-19)
(-0.0261802 0.137352 -5.11919e-20)
(-0.0339254 0.197645 2.62415e-19)
(-0.0369314 0.237479 2.14252e-19)
(-0.0358392 0.259647 -2.17738e-19)
(-0.0311842 0.26735 2.20526e-19)
(-0.0233186 0.263559 -1.11103e-19)
(-0.0125109 0.250816 3.36085e-19)
(0.000980321 0.231232 -2.25259e-19)
(0.0168638 0.206562 2.25865e-19)
(0.0348008 0.178313 1.13309e-19)
(0.0544043 0.14782 -1.13322e-19)
(0.0752461 0.116291 -6.74506e-19)
(0.0968652 0.0848214 4.49848e-19)
(0.118792 0.0543829 2.2464e-19)
(0.140572 0.0258101 0)
(0.161784 -0.000220659 0)
(0.182065 -0.0232067 -2.19939e-21)
(0.201122 -0.0428272 -2.19189e-19)
(0.218735 -0.0589368 0)
(0.234764 -0.0715473 0)
(0.249145 -0.0808018 -2.1693e-19)
(0.261878 -0.0869456 0)
(0.273017 -0.090294 -4.25061e-19)
(0.282659 -0.0912007 0)
(0.290928 -0.0900345 -2.10441e-19)
(0.29796 -0.0871561 4.1635e-19)
(0.303896 -0.0828988 -4.11837e-19)
(0.308919 -0.0774784 0)
(0.313084 -0.0707561 0)
(-0.0127586 0.0544679 3.7552e-19)
(-0.0282288 0.134364 0)
(-0.0359346 0.194068 -5.22129e-20)
(-0.0381511 0.233767 5.32048e-20)
(-0.0356644 0.25597 -3.23709e-19)
(-0.0291901 0.263686 4.46522e-23)
(-0.0192311 0.259797 -1.10626e-19)
(-0.00617512 0.246816 0)
(0.00962434 0.226866 0)
(0.0277988 0.201737 -1.12152e-19)
(0.0479469 0.17298 1.12259e-19)
(0.0696273 0.141975 -2.24425e-19)
(0.092363 0.109973 2.26236e-19)
(0.11565 0.078104 0)
(0.138983 0.0473695 0)
(0.161883 0.0186256 0)
(0.183916 -0.00744073 2.1959e-19)
(0.204716 -0.030328 -1.25683e-21)
(0.224001 -0.0497259 2.20456e-19)
(0.241572 -0.0655063 -4.34077e-19)
(0.257322 -0.0777032 2.16637e-19)
(0.271223 -0.0864853 -1.07372e-18)
(0.283313 -0.0921235 7.57791e-22)
(0.293688 -0.0949554 4.25045e-19)
(0.302482 -0.095354 -1.75713e-21)
(0.309856 -0.0937024 4.1647e-19)
(0.315972 -0.0903732 -4.11998e-19)
(0.320996 -0.0857101 -4.09941e-19)
(0.325126 -0.0799461 9.63921e-22)
(0.328453 -0.0729816 -4.23863e-19)
(-0.0136867 0.0527753 -4.66375e-20)
(-0.030139 0.130847 0)
(-0.03784 0.189712 1.03999e-19)
(-0.0393087 0.229113 -1.05974e-19)
(-0.0354571 0.251275 9.69932e-19)
(-0.0271699 0.259006 4.19262e-23)
(-0.0150991 0.255078 -1.10175e-19)
(0.000243941 0.241961 1.10909e-19)
(0.0184046 0.221779 -5.5611e-19)
(0.0389313 0.196348 0)
(0.0613528 0.167255 0)
(0.0851667 0.135921 -2.22224e-19)
(0.109841 0.103634 2.2404e-19)
(0.134825 0.0715553 -2.22445e-19)
(0.159576 0.0407144 2.21495e-19)
(0.183587 0.0119831 0)
(0.206413 -0.0139466 -8.79309e-19)
(0.227686 -0.0365789 4.36317e-19)
(0.24714 -0.0556178 2.17889e-19)
(0.264604 -0.0709561 6.49454e-19)
(0.280004 -0.0826524 0)
(0.293355 -0.0909021 4.28587e-19)
(0.304738 -0.0960005 4.23802e-19)
(0.314294 -0.0983052 4.20611e-19)
(0.322197 -0.0982057 -2.60409e-21)
(0.328641 -0.0960965 -4.12984e-19)
(0.333819 -0.0923591 4.11985e-19)
(0.337918 -0.0873429 0)
(0.341152 -0.0812953 1.00603e-21)
(0.343647 -0.0741575 8.44317e-19)
(-0.0145221 0.0509176 -3.70738e-19)
(-0.0318958 0.126862 0)
(-0.0396213 0.184634 -4.13217e-19)
(-0.0403864 0.223559 -5.27238e-19)
(-0.0352082 0.245583 -3.22912e-19)
(-0.025128 0.253307 1.08712e-19)
(-0.0109433 0.249381 -2.28794e-24)
(0.00670834 0.236217 -1.1048e-19)
(0.0272664 0.215929 1.85984e-21)
(0.0501895 0.190346 2.22282e-19)
(0.0749303 0.161087 2.21394e-19)
(0.100918 0.129606 -2.20172e-19)
(0.127561 0.0972242 2.21804e-19)
(0.154255 0.0651324 -6.62603e-19)
(0.180418 0.03438 6.60124e-19)
(0.205516 0.00585018 4.38006e-19)
(0.229089 -0.0197658 1.09327e-18)
(0.250777 -0.0419835 -2.19745e-19)
(0.27033 -0.0605259 -4.31532e-19)
(0.287612 -0.0753097 -2.48858e-21)
(0.302589 -0.0864211 -4.28089e-19)
(0.315322 -0.0940819 1.2729e-18)
(0.325941 -0.0986104 -8.45933e-19)
(0.334631 -0.100382 8.35266e-19)
(0.341608 -0.0997993 -4.1646e-19)
(0.347101 -0.0972653 8.23346e-19)
(0.351331 -0.0931654 1.64817e-21)
(0.354507 -0.0878516 -8.08604e-19)
(0.356856 -0.0815812 7.99367e-19)
(0.358538 -0.0743374 4.16683e-19)
(-0.0152636 0.0489326 3.70738e-19)
(-0.0334865 0.122477 0)
(-0.041257 0.178904 9.27916e-19)
(-0.0413595 0.217162 3.16461e-19)
(-0.0348963 0.238931 0)
(-0.0230514 0.246605 0)
(-0.00676284 0.242701 0)
(0.013205 0.229563 0)
(0.036182 0.20928 2.21934e-19)
(0.0615313 0.183688 2.21454e-19)
(0.0886217 0.154428 -4.43869e-19)
(0.116808 0.122982 4.43434e-19)
(0.14543 0.090698 6.61217e-19)
(0.17383 0.0587914 2.2122e-19)
(0.201381 0.0283264 2.17219e-19)
(0.227521 0.00019034 -6.56277e-19)
(0.25178 -0.0249329 -8.69702e-19)
(0.273807 -0.046576 -4.33854e-19)
(0.293377 -0.0644853 4.31513e-19)
(0.310394 -0.0786055 -8.57254e-19)
(0.324872 -0.0890517 4.24569e-19)
(0.33692 -0.0960723 -8.46121e-19)
(0.346721 -0.100006 4.17857e-19)
(0.354507 -0.101244 -1.66031e-21)
(0.360536 -0.100199 -4.1215e-19)
(0.365068 -0.0972766 -8.19791e-19)
(0.368354 -0.092863 8.11811e-19)
(0.370622 -0.0873082 0)
(0.37211 -0.0808758 -1.03688e-21)
(0.373011 -0.0735902 -8.30277e-19)
(-0.0159127 0.0468578 4.60532e-20)
(-0.0349014 0.117762 0)
(-0.042724 0.172598 -4.11543e-19)
(-0.0421962 0.209987 1.04816e-19)
(-0.0344868 0.231367 -1.06427e-19)
(-0.0209084 0.238929 0)
(-0.00253274 0.235049 -1.08846e-19)
(0.0197498 0.221991 1.09593e-19)
(0.045156 0.201812 2.19936e-19)
(0.0729481 0.176345 -6.60478e-19)
(0.102404 0.147243 -2.20399e-19)
(0.132796 0.11601 1.00605e-22)
(0.163393 0.0840161 -9.88325e-22)
(0.193473 0.0524942 -4.38091e-19)
(0.222364 0.0225165 -2.19367e-19)
(0.249478 -0.00503287 0)
(0.27434 -0.0294848 7.83473e-22)
(0.296613 -0.0503952 4.3149e-19)
(0.316107 -0.0675388 -4.27478e-19)
(0.332768 -0.0808916 0)
(0.346665 -0.0905994 0)
(0.357963 -0.0969358 0)
(0.366898 -0.100258 0)
(0.373751 -0.100968 -2.51747e-21)
(0.378819 -0.0994845 0)
(0.382395 -0.0962147 0)
(0.384754 -0.0915382 4.01552e-19)
(0.386142 -0.0857991 3.97787e-19)
(0.386805 -0.0792644 3.95497e-19)
(0.386968 -0.0719977 -1.10726e-21)
(-0.0164732 0.0447287 4.58644e-20)
(-0.0361328 0.112785 -9.98944e-20)
(-0.043997 0.165796 6.12786e-19)
(-0.0428567 0.202113 -1.04277e-19)
(-0.0339308 0.222957 1.06095e-19)
(-0.0186464 0.230325 3.87024e-23)
(0.00179854 0.226451 3.2446e-19)
(0.0263896 0.213513 -4.35684e-19)
(0.054228 0.193524 6.56395e-19)
(0.084469 0.168304 9.18813e-22)
(0.116293 0.139511 -2.18472e-19)
(0.148882 0.108665 4.37454e-19)
(0.181424 0.0771522 -4.36359e-19)
(0.213134 0.0462136 4.34915e-19)
(0.243293 0.0169222 0)
(0.27129 -0.00984954 4.31272e-19)
(0.296648 -0.0334552 0)
(0.319055 -0.0534805 2.27268e-21)
(0.338362 -0.0697335 -4.24395e-19)
(0.354569 -0.0822245 -4.21769e-19)
(0.367803 -0.09113 4.18982e-19)
(0.378288 -0.096747 -4.16032e-19)
(0.386317 -0.099448 -4.12918e-19)
(0.392216 -0.0996433 -8.21779e-19)
(0.396322 -0.0977522 -4.0622e-19)
(0.398956 -0.0941773 4.04241e-19)
(0.400417 -0.0892894 -8.01489e-19)
(0.400966 -0.0834222 -3.9778e-19)
(0.400852 -0.0768424 0)
(0.40033 -0.0696514 -4.09269e-19)
(-0.0169506 0.042578 0)
(-0.0371744 0.107615 3.96925e-19)
(-0.0450486 0.158581 -3.06322e-19)
(-0.0432937 0.193623 -5.18783e-19)
(-0.0331654 0.213777 0)
(-0.0161923 0.220856 0)
(0.00630937 0.216956 -6.48857e-19)
(0.0332033 0.204162 8.69764e-19)
(0.0634724 0.184434 -6.54632e-19)
(0.0961597 0.159571 0)
(0.13034 0.131233 2.19603e-19)
(0.165097 0.100944 -2.19103e-19)
(0.199532 0.0700982 1.97389e-21)
(0.232794 0.0399385 -2.18997e-19)
(0.264119 0.0115286 -2.15064e-19)
(0.292876 -0.0142802 -2.13524e-21)
(0.318599 -0.0368727 4.26953e-19)
(0.341008 -0.05587 4.26843e-19)
(0.360006 -0.0711186 7.57313e-22)
(0.375653 -0.0826653 8.41954e-19)
(0.38814 -0.090717 -8.37164e-19)
(0.397753 -0.0955908 8.30424e-19)
(0.404842 -0.0976707 4.12907e-19)
(0.409777 -0.0973706 4.09634e-19)
(0.412931 -0.0951065 2.49608e-21)
(0.414653 -0.0912717 0)
(0.415257 -0.0862237 3.97955e-19)
(0.415016 -0.0802831 -1.18192e-18)
(0.414182 -0.0737127 3.87854e-19)
(0.413034 -0.0666494 4.05602e-19)
(-0.0173514 0.0404347 -2.72235e-19)
(-0.0380207 0.102315 -8.91362e-19)
(-0.0458487 0.151039 -1.39025e-22)
(-0.043452 0.184611 1.50585e-21)
(-0.032114 0.203916 -3.14933e-19)
(-0.013453 0.210603 0)
(0.0111035 0.206631 -2.14376e-19)
(0.0402991 0.193991 -1.29923e-18)
(0.0729962 0.174584 6.53045e-19)
(0.108119 0.150182 -4.34486e-19)
(0.144628 0.122434 6.51881e-19)
(0.181501 0.0928659 -2.17392e-19)
(0.21775 0.0628687 4.34357e-19)
(0.252453 0.0336778 -1.07965e-18)
(0.284808 0.00633728 6.46102e-19)
(0.314173 -0.018333 -8.52075e-22)
(0.340104 -0.0397568 -1.27738e-18)
(0.362365 -0.0575972 4.23817e-19)
(0.380919 -0.0717433 -4.20639e-19)
(0.395895 -0.0822792 0)
(0.407553 -0.0894395 4.14274e-19)
(0.416242 -0.0935583 0)
(0.422365 -0.0950267 -4.09604e-19)
(0.426339 -0.0942579 4.05584e-19)
(0.428563 -0.0916594 4.03709e-19)
(0.42941 -0.087611 3.97621e-19)
(0.429208 -0.0824536 0)
(0.428236 -0.0764917 0)
(0.426747 -0.0699814 -7.77853e-19)
(0.425039 -0.0630924 1.20572e-18)
(-0.0176824 0.0383237 2.72521e-19)
(-0.0386659 0.096946 4.93886e-19)
(-0.0463641 0.143251 -4.03396e-19)
(-0.0432695 0.175171 8.24937e-19)
(-0.0306878 0.193472 1.06506e-19)
(-0.0103179 0.199659 1.06207e-19)
(0.0163069 0.195563 1.64553e-21)
(0.0478113 0.183077 -4.29603e-19)
(0.0829333 0.164041 -2.15495e-19)
(0.120471 0.140194 1.79671e-21)
(0.159264 0.113167 -1.84095e-21)
(0.198174 0.0844764 -6.47952e-19)
(0.236122 0.0555028 -2.14656e-19)
(0.27212 0.0274622 1.97956e-21)
(0.305334 0.00136759 4.26999e-19)
(0.335126 -0.0220028 4.24922e-19)
(0.361083 -0.0421191 2.11884e-21)
(0.383029 -0.0586924 -4.20227e-19)
(0.400997 -0.0716565 4.19058e-19)
(0.41519 -0.0811328 -4.15671e-19)
(0.42594 -0.0873801 -8.2623e-19)
(0.433661 -0.0907454 -4.10397e-19)
(0.438806 -0.0916219 8.12178e-19)
(0.441829 -0.0904173 0)
(0.443158 -0.0875261 -3.98772e-19)
(0.443179 -0.0833108 -7.92748e-19)
(0.44223 -0.0780929 -7.85685e-19)
(0.440593 -0.0721583 3.89639e-19)
(0.438518 -0.0657542 -1.15629e-18)
(0.436319 -0.0590809 3.99568e-19)
(-0.01795 0.0362646 -4.50662e-19)
(-0.0391034 0.0915582 9.81519e-20)
(-0.0465589 0.135296 4.034e-19)
(-0.042678 0.165399 -3.08886e-19)
(-0.0287881 0.182551 1.05227e-19)
(-0.00666275 0.188132 -7.6032e-23)
(0.0220623 0.183854 1.06738e-18)
(0.0558923 0.171518 4.30505e-19)
(0.0934356 0.152898 4.32071e-19)
(0.133357 0.129693 6.48415e-19)
(0.174363 0.103512 -6.48436e-19)
(0.215201 0.0758486 4.31707e-19)
(0.254697 0.0480641 8.5982e-19)
(0.291807 0.0213429 4.27748e-19)
(0.325674 -0.00334527 -9.4196e-22)
(0.355679 -0.025273 -8.48728e-19)
(0.381461 -0.0439642 8.4446e-19)
(0.402913 -0.0591823 1.28908e-21)
(0.420148 -0.0709074 -4.1682e-19)
(0.433449 -0.0792952 4.13452e-19)
(0.443223 -0.0846248 4.11957e-19)
(0.449943 -0.0872508 -4.06561e-19)
(0.454108 -0.0875644 -8.10417e-19)
(0.456205 -0.0859623 -5.53598e-22)
(0.456681 -0.0828222 3.99717e-19)
(0.455934 -0.0784858 3.95128e-19)
(0.454305 -0.0732531 7.80634e-19)
(0.452073 -0.0673898 -7.69675e-19)
(0.449484 -0.0611332 0)
(0.446864 -0.0547115 3.97033e-19)
(-0.0181597 0.0342714 1.45178e-21)
(-0.0393244 0.0861956 0)
(-0.0463942 0.127246 -2.99856e-19)
(-0.0416046 0.15539 -1.02224e-19)
(-0.0263094 0.171261 -4.15142e-19)
(-0.00235433 0.176138 0)
(0.0285225 0.171625 -6.38668e-19)
(0.0647038 0.159434 2.14016e-19)
(0.104661 0.141272 0)
(0.146917 0.118793 -4.29048e-19)
(0.190042 0.0935727 0)
(0.232661 0.0670788 -6.42249e-19)
(0.273515 0.040637 6.40492e-19)
(0.311511 0.0153878 -4.26878e-19)
(0.345791 -0.00775318 -4.22975e-19)
(0.375773 -0.0281189 0)
(0.401163 -0.0452925 0)
(0.421936 -0.0590932 4.17235e-19)
(0.438294 -0.0695459 4.95549e-22)
(0.450604 -0.0768371 4.10956e-19)
(0.459343 -0.081261 -4.08257e-19)
(0.465043 -0.0831749 8.12227e-19)
(0.46824 -0.0829627 -4.01834e-19)
(0.469448 -0.0810056 0)
(0.469126 -0.0776606 1.18698e-18)
(0.467676 -0.0732464 -1.95589e-18)
(0.465436 -0.0680401 3.88502e-19)
(0.462682 -0.0622867 3.85027e-19)
(0.459652 -0.0562124 3.78592e-19)
(0.45668 -0.0500726 7.86137e-19)
(-0.018315 0.0323528 -3.55963e-19)
(-0.0393179 0.080893 7.78028e-19)
(-0.0458286 0.119167 4.00182e-19)
(-0.0399738 0.145234 9.15424e-19)
(-0.0231433 0.159713 1.13857e-18)
(0.00274312 0.163801 2.09807e-19)
(0.0358415 0.159008 -1.05706e-18)
(0.0744059 0.146958 0)
(0.116763 0.129296 -8.53422e-19)
(0.161284 0.107623 -4.25365e-19)
(0.206397 0.0834767 0)
(0.250612 0.0582831 -4.24121e-19)
(0.292591 0.0333222 -1.12673e-21)
(0.331213 0.0096778 -1.27001e-18)
(0.365638 -0.0118 4.22968e-19)
(0.395341 -0.0305115 4.19884e-19)
(0.420112 -0.0461039 -8.32534e-19)
(0.440024 -0.0584522 -8.29807e-19)
(0.45537 -0.067624 -4.32138e-22)
(0.466603 -0.0738313 -1.3364e-21)
(0.474266 -0.0773778 0)
(0.478941 -0.0786182 -4.03331e-19)
(0.481197 -0.0779237 -3.97659e-19)
(0.481564 -0.0756563 0)
(0.480506 -0.0721491 0)
(0.478424 -0.0676964 1.16852e-18)
(0.475647 -0.0625516 -1.15155e-18)
(0.472443 -0.0569395 0)
(0.469041 -0.0510752 1.12856e-18)
(0.465782 -0.0452409 -7.8026e-19)
(-0.018417 0.0305122 3.01214e-21)
(-0.0390701 0.0756766 -7.77884e-19)
(-0.044819 0.111113 -9.93665e-20)
(-0.0377099 0.135016 -1.01656e-18)
(-0.0191827 0.148015 -6.20754e-19)
(0.00876143 0.151248 2.08946e-19)
(0.0441654 0.146141 4.23596e-19)
(0.0851454 0.13424 1.05916e-18)
(0.129873 0.117121 8.53419e-19)
(0.176561 0.0963339 8.54404e-19)
(0.223496 0.073365 0)
(0.269079 0.0495903 3.83241e-21)
(0.311912 0.0262302 0)
(0.350866 0.00429915 8.45896e-19)
(0.385144 -0.0154276 0)
(0.414303 -0.0324231 -4.17826e-19)
(0.438233 -0.0464009 4.19418e-19)
(0.45711 -0.0572905 0)
(0.471325 -0.0651975 0)
(0.481411 -0.0703532 -1.21931e-18)
(0.487976 -0.0730652 4.0381e-19)
(0.49164 -0.0736797 0)
(0.492996 -0.0725511 7.94445e-19)
(0.49258 -0.0700182 7.90164e-19)
(0.490858 -0.0663885 -1.56112e-18)
(0.488218 -0.0619306 1.54621e-18)
(0.484979 -0.0568751 2.733e-21)
(0.481396 -0.0514273 7.55259e-19)
(0.477687 -0.0457925 -7.52234e-19)
(0.474199 -0.04028 0)
(-0.0184647 0.0287485 8.8962e-19)
(-0.0385643 0.0705641 -9.65692e-20)
(-0.0433214 0.103134 -7.90573e-19)
(-0.034739 0.124813 0)
(-0.0143265 0.136273 -8.20123e-19)
(0.0158216 0.138606 0)
(0.0536233 0.133168 -1.0481e-18)
(0.097045 0.121431 -6.35552e-19)
(0.144093 0.104906 -8.46011e-19)
(0.192817 0.0850814 0)
(0.241367 0.0633867 2.11867e-19)
(0.288049 0.0411346 2.14999e-19)
(0.331427 0.0194733 -4.22016e-19)
(0.370395 -0.000663357 -8.38014e-19)
(0.404225 -0.0185821 -4.16005e-19)
(0.432574 -0.033832 -1.66096e-18)
(0.455448 -0.0461929 8.28496e-19)
(0.473135 -0.0556453 -2.37027e-22)
(0.486121 -0.0623264 -3.05252e-22)
(0.495016 -0.0664804 1.21673e-18)
(0.500479 -0.0684126 0)
(0.503164 -0.0684558 0)
(0.503674 -0.0669435 -1.99861e-21)
(0.502547 -0.0641883 2.70577e-21)
(0.500236 -0.0604706 -7.7339e-19)
(0.497116 -0.0560338 -7.68543e-19)
(0.493488 -0.0510864 2.16565e-21)
(0.489591 -0.0458161 -7.55262e-19)
(0.485634 -0.0404213 -7.45076e-19)
(0.481972 -0.0352386 2.32376e-21)
(-0.0184538 0.0270561 0)
(-0.0377808 0.0655652 7.68375e-19)
(-0.0412917 0.0952649 6.91898e-19)
(-0.030992 0.114695 1.00562e-19)
(-0.00848387 0.124584 1.63678e-18)
(0.0240273 0.125997 -2.07181e-19)
(0.0643189 0.12023 1.67282e-18)
(0.110193 0.108686 8.39723e-19)
(0.159482 0.0928097 1.26805e-18)
(0.210073 0.0740242 6.31605e-19)
(0.259988 0.0536905 2.10897e-19)
(0.307463 0.033047 1.05445e-18)
(0.351052 0.0131575 -4.92634e-22)
(0.389701 -0.00513378 4.19785e-19)
(0.422778 -0.0212199 8.33948e-19)
(0.450063 -0.0347269 8.29425e-19)
(0.471688 -0.0454987 0)
(0.488052 -0.0535607 0)
(0.499738 -0.0590751 0)
(0.50742 -0.0622919 0)
(0.511802 -0.0635086 7.96795e-19)
(0.513556 -0.0630397 0)
(0.513289 -0.0611941 -2.61998e-21)
(0.511528 -0.0582561 1.55406e-18)
(0.50871 -0.0544788 7.70756e-19)
(0.505189 -0.0500807 7.63233e-19)
(0.501244 -0.0452498 1.51161e-18)
(0.497095 -0.0401589 0)
(0.49294 -0.0350039 -1.47797e-18)
(0.489152 -0.03015 1.53396e-18)
(-0.0183776 0.0254263 7.02951e-19)
(-0.0366973 0.0606824 -7.68392e-19)
(-0.0386871 0.0875362 0)
(-0.0264068 0.10472 -7.99947e-19)
(-0.00157865 0.113037 -2.07326e-19)
(0.0334588 0.113536 -6.17099e-19)
(0.0763235 0.107462 -1.87341e-18)
(0.124639 0.096154 -3.57701e-21)
(0.176055 0.0809884 -6.28112e-19)
(0.228302 0.0633145 -1.47204e-18)
(0.279293 0.0444167 -2.10274e-19)
(0.327222 0.0254474 -8.3643e-19)
(0.370669 0.00737551 -8.3359e-19)
(0.408662 -0.00905037 0)
(0.440694 -0.0233114 -8.25894e-19)
(0.466682 -0.0351094 -1.23291e-18)
(0.48689 -0.0443471 4.09149e-19)
(0.501831 -0.0510881 -8.10744e-19)
(0.512172 -0.0555118 -8.04926e-19)
(0.518647 -0.0578676 0)
(0.521988 -0.0584395 -1.58908e-18)
(0.522877 -0.0575198 0)
(0.521913 -0.0553896 -1.56422e-18)
(0.519604 -0.052304 -7.73828e-19)
(0.516365 -0.048488 -1.53242e-18)
(0.512522 -0.0441364 7.58853e-19)
(0.508328 -0.0394183 -2.25276e-18)
(0.503982 -0.0344957 7.408e-19)
(0.49967 -0.0295676 4.75545e-21)
(0.495795 -0.025032 -7.61665e-19)
(-0.0182264 0.0238476 -7.02966e-19)
(-0.0352892 0.055912 9.54986e-20)
(-0.0354669 0.0799681 6.82763e-19)
(-0.0209304 0.094938 7.99963e-19)
(0.00644775 0.101711 -8.13115e-19)
(0.0441695 0.101329 3.7187e-21)
(0.0896714 0.0949923 8.30805e-19)
(0.140384 0.0839766 -1.66749e-18)
(0.193774 0.0695867 -2.04968e-19)
(0.247425 0.0530923 1.88369e-18)
(0.29917 0.0356911 -1.25219e-18)
(0.347192 0.0184389 2.08642e-18)
(0.390136 0.00220227 2.07874e-18)
(0.427145 -0.012369 -4.1424e-19)
(0.45786 -0.0248432 8.25897e-19)
(0.482348 -0.0349942 1.23084e-18)
(0.501006 -0.0427768 4.04934e-19)
(0.514456 -0.0482847 4.25997e-21)
(0.523439 -0.051707 4.03485e-19)
(0.528736 -0.0532865 3.98209e-19)
(0.531097 -0.0532885 -3.90552e-19)
(0.5312 -0.0519794 3.9152e-19)
(0.529629 -0.0496108 -7.73771e-19)
(0.526865 -0.0464072 7.71241e-19)
(0.523294 -0.0425656 4.83581e-21)
(0.519209 -0.0382578 7.51388e-19)
(0.514834 -0.0336357 4.86064e-21)
(0.510343 -0.0288538 -7.38228e-19)
(0.505902 -0.0241237 2.53152e-21)
(0.501966 -0.0198827 0)
(-0.0179882 0.0223067 0)
(-0.0335303 0.0512466 0)
(-0.0315943 0.0725748 -8.779e-19)
(-0.0145206 0.0853918 9.9262e-20)
(0.015634 0.090678 0)
(0.0561825 0.0894722 8.19649e-19)
(0.104358 0.0829357 2.06164e-19)
(0.157386 0.0722802 6.24239e-19)
(0.212554 0.0587339 8.34394e-19)
(0.26732 0.0434795 -8.35125e-19)
(0.319467 0.0276192 8.3436e-19)
(0.367211 0.0121033 -8.32425e-19)
(0.409296 -0.00230863 -8.29579e-19)
(0.445015 -0.0150653 0)
(0.474171 -0.025819 0)
(0.496991 -0.0344096 0)
(0.514003 -0.0408355 -8.12034e-19)
(0.525927 -0.0452126 1.2087e-18)
(0.53357 -0.0477324 -3.99191e-19)
(0.537742 -0.0486252 0)
(0.5392 -0.0481338 1.18055e-18)
(0.538609 -0.0464963 -3.89236e-19)
(0.536528 -0.0439329 7.73783e-19)
(0.533409 -0.0406362 -1.52582e-18)
(0.529598 -0.0367746 1.51544e-18)
(0.525354 -0.0324965 -2.30085e-21)
(0.520866 -0.0279365 2.58311e-21)
(0.516273 -0.0232449 7.33348e-19)
(0.511723 -0.0186611 -4.08317e-22)
(0.507725 -0.0146574 7.52649e-19)
(-0.0176489 0.0207903 8.69766e-20)
(-0.0313939 0.0466763 -9.44968e-20)
(-0.0270365 0.0653656 1.93954e-19)
(-0.00714724 0.0761153 -1.18476e-18)
(0.0259977 0.0799971 2.00899e-19)
(0.069491 0.0780497 0)
(0.120342 0.0713939 8.19165e-19)
(0.175562 0.0611756 -8.23821e-19)
(0.232271 0.0485405 0)
(0.287828 0.034577 1.03407e-18)
(0.340007 0.0202834 -2.07262e-19)
(0.3871 0.00649866 0)
(0.427988 -0.00612598 -4.11514e-19)
(0.462139 -0.0171347 8.19979e-19)
(0.489534 -0.0262586 -4.08032e-19)
(0.510558 -0.0333952 4.05405e-19)
(0.525867 -0.0385777 -8.05776e-19)
(0.536265 -0.0419362 5.36929e-23)
(0.542609 -0.043658 1.34549e-23)
(0.545728 -0.0439564 -3.91574e-19)
(0.546374 -0.0430484 -7.80946e-19)
(0.54519 -0.0411428 -6.3908e-23)
(0.542704 -0.0384264 2.36916e-21)
(0.539333 -0.0350592 7.61655e-19)
(0.535383 -0.031179 -7.51736e-19)
(0.531072 -0.0269065 7.4658e-19)
(0.526545 -0.0223531 -1.47268e-18)
(0.52189 -0.0176694 -2.61978e-21)
(0.517236 -0.0131215 -1.43986e-18)
(0.513137 -0.00924031 7.48413e-19)
(-0.0171921 0.0192843 0)
(-0.0288521 0.0421898 -7.51451e-19)
(-0.0217655 0.0583458 0)
(0.00120802 0.0671362 3.69819e-21)
(0.0375361 0.06972 2.00074e-19)
(0.0840595 0.0671331 -3.27705e-23)
(0.137544 0.0604533 -1.6345e-18)
(0.194789 0.0507551 6.18263e-19)
(0.252762 0.0390956 0)
(0.308762 0.0264619 -1.03305e-18)
(0.360597 0.0137415 2.06234e-19)
(0.406677 0.00165902 0)
(0.446057 -0.0092404 -4.09467e-19)
(0.4784 -0.0185914 4.08157e-19)
(0.503874 -0.026196 4.03864e-19)
(0.523018 -0.0319998 8.06849e-19)
(0.536603 -0.0360623 -4.0086e-19)
(0.545505 -0.03852 0)
(0.550616 -0.0395505 0)
(0.55277 -0.0393465 7.85413e-19)
(0.552702 -0.0380985 -7.76289e-19)
(0.55103 -0.0359847 7.69265e-19)
(0.548246 -0.0331588 7.64276e-19)
(0.544732 -0.0297483 7.54321e-19)
(0.540758 -0.0258559 -7.46689e-19)
(0.5365 -0.0215647 7.41476e-19)
(0.532043 -0.0169498 7.31301e-19)
(0.527378 -0.0121317 -7.23384e-19)
(0.522495 -0.00732932 2.08985e-21)
(0.517819 -0.00319938 1.48927e-18)
(-0.0166042 0.0177807 8.61941e-20)
(-0.0258813 0.0377807 6.58022e-19)
(-0.0157607 0.0515218 0)
(0.01055 0.0584793 7.85755e-19)
(0.0502256 0.0598913 0)
(0.0998253 0.0567843 0)
(0.155858 0.0501861 6.12092e-19)
(0.214915 0.0410936 2.85395e-22)
(0.273842 0.0304686 2.05224e-19)
(0.329919 0.0191897 2.05037e-19)
(0.381036 0.00802914 -6.14938e-19)
(0.425763 -0.00240224 4.09457e-19)
(0.46336 -0.0116605 0)
(0.493699 -0.0194634 0)
(0.517136 -0.0256742 -8.09601e-19)
(0.534358 -0.0302766 0)
(0.546233 -0.0333481 -3.9858e-19)
(0.553696 -0.0350246 3.95861e-19)
(0.557656 -0.0354697 3.92588e-19)
(0.558941 -0.0348537 -1.28822e-22)
(0.558263 -0.0333409 -3.85943e-19)
(0.556205 -0.0310793 0)
(0.553227 -0.0281932 -7.56954e-19)
(0.549677 -0.024779 7.49526e-19)
(0.545805 -0.0209023 0)
(0.541764 -0.0166043 0)
(0.537626 -0.0118913 0)
(0.533345 -0.00676136 0)
(0.52861 -0.00134391 -7.1071e-19)
(0.524047 0.00464531 1.47944e-18)
(0.22799 -0.000303586 -0.0219094)
(0.251113 0.021684 -0.0225238)
(0.267356 0.0467117 -0.0226504)
(0.274749 0.0686131 -0.0227341)
(0.278159 0.0862016 -0.0227459)
(0.278296 0.0996217 -0.0227159)
(0.276338 0.110515 -0.0226448)
(0.272854 0.120354 -0.0225451)