/*--------------------------------*- C++ -*----------------------------------*\
  =========                 |
  \\      /  F ield         | OpenFOAM: The Open Source CFD Toolbox
   \\    /   O peration     | Website:  https://openfoam.org
    \\  /    A nd           | Version:  7
     \\/     M anipulation  |
\*---------------------------------------------------------------------------*/
FoamFile
{
    version     2.0;
    format      ascii;
    class       volScalarField;
    location    "3";
    object      p;
}
// * * * * * * * * * * * * * * * * * * * * * * * * * * * * * * * * * * * * * //

dimensions      [0 2 -2 0 0 0 0];

internalField   nonuniform List<scalar> 
32000
(
0.967885
0.966783
0.966785
0.967024
0.967576
0.968371
0.969344
0.970449
0.971653
0.97293
0.974266
0.975661
0.977136
0.978716
0.980414
0.982231
0.98416
0.986188
0.9883
0.990483
0.992729
0.995032
0.997385
0.999778
1.0022
1.00463
1.00705
1.00946
1.01183
1.01417
1.01646
1.01869
1.02085
1.02294
1.02495
1.02689
1.02874
1.03052
1.03222
1.03366
0.965609
0.964643
0.964694
0.964971
0.965544
0.96634
0.967295
0.968358
0.969504
0.970708
0.971952
0.973239
0.974591
0.976033
0.977584
0.979249
0.981024
0.982899
0.984863
0.986904
0.989015
0.99119
0.993426
0.995717
0.99805
1.00041
1.00278
1.00514
1.00748
1.00978
1.01205
1.01426
1.01641
1.01849
1.0205
1.02243
1.02428
1.02606
1.02775
1.02919
0.963255
0.962448
0.962553
0.96287
0.963466
0.964264
0.965201
0.966222
0.967306
0.96843
0.969577
0.970751
0.971977
0.973281
0.974681
0.976189
0.977805
0.979521
0.981331
0.983226
0.985199
0.987245
0.989363
0.99155
0.993796
0.996085
0.998395
1.00071
1.00301
1.00529
1.00753
1.00973
1.01187
1.01394
1.01595
1.01788
1.01973
1.02151
1.0232
1.02464
0.96085
0.960193
0.960354
0.960716
0.961336
0.96214
0.963059
0.96404
0.965059
0.966098
0.967144
0.968204
0.969303
0.970466
0.971714
0.97306
0.974511
0.976064
0.977716
0.979462
0.981293
0.983208
0.985207
0.98729
0.989448
0.991664
0.993916
0.996182
0.998448
1.0007
1.00292
1.0051
1.00724
1.00931
1.01132
1.01326
1.01511
1.01688
1.01858
1.02003
0.958418
0.957924
0.958138
0.958544
0.959186
0.959991
0.960889
0.961827
0.962778
0.963728
0.96467
0.965613
0.966582
0.967602
0.968693
0.969875
0.971157
0.972545
0.974036
0.975628
0.977314
0.979095
0.980975
0.982954
0.985025
0.987167
0.989359
0.991577
0.993805
0.996029
0.998233
1.00041
1.00254
1.00461
1.00663
1.00856
1.01042
1.0122
1.01389
1.01535
0.955948
0.955616
0.955884
0.956334
0.956998
0.957804
0.958683
0.959578
0.960462
0.961324
0.962162
0.962987
0.963824
0.964698
0.965632
0.966648
0.967761
0.968981
0.970308
0.971741
0.973279
0.974925
0.976686
0.978563
0.980545
0.982612
0.984741
0.986909
0.989099
0.991295
0.993483
0.995649
0.997779
0.999857
1.00187
1.00381
1.00567
1.00746
1.00916
1.01063
0.953457
0.953293
0.953616
0.954111
0.954796
0.955606
0.956463
0.957314
0.95813
0.958905
0.959637
0.960343
0.961046
0.961774
0.962549
0.963398
0.964341
0.96539
0.966549
0.96782
0.969207
0.970719
0.972362
0.974136
0.976028
0.978017
0.98008
0.982197
0.984348
0.986518
0.98869
0.990849
0.992976
0.995056
0.997075
0.999022
1.00089
1.00267
1.00438
1.00587
0.950953
0.950961
0.95134
0.95188
0.952588
0.953401
0.954236
0.955043
0.955793
0.956479
0.957107
0.957693
0.958262
0.958841
0.959458
0.960141
0.960913
0.96179
0.962777
0.963884
0.96512
0.966498
0.968024
0.969694
0.971493
0.973402
0.975398
0.977462
0.979574
0.981717
0.983873
0.986023
0.988147
0.990227
0.992249
0.994201
0.996072
0.997863
0.999581
1.00107
0.948445
0.948624
0.949061
0.949648
0.950379
0.951194
0.95201
0.952772
0.953457
0.954059
0.954583
0.955049
0.955483
0.955916
0.956376
0.956894
0.957495
0.958198
0.959013
0.959955
0.961041
0.962286
0.963694
0.965257
0.966962
0.968788
0.970716
0.972726
0.974798
0.976914
0.979052
0.981191
0.983309
0.985387
0.987411
0.989367
0.991242
0.993037
0.994761
0.996259
0.945938
0.946291
0.946786
0.947419
0.948174
0.948992
0.949789
0.95051
0.951133
0.951653
0.952076
0.952423
0.952724
0.953012
0.953317
0.953672
0.954104
0.954632
0.955274
0.956053
0.956992
0.958104
0.959392
0.960847
0.962455
0.964197
0.966055
0.96801
0.970042
0.972128
0.974245
0.97637
0.97848
0.980554
0.982577
0.984535
0.986412
0.988208
0.989935
0.99144
0.943442
0.943965
0.944518
0.945199
0.945977
0.946798
0.947577
0.948262
0.948828
0.94927
0.949595
0.949826
0.949998
0.950144
0.950298
0.950493
0.950756
0.95111
0.951581
0.952201
0.952994
0.953973
0.955139
0.956484
0.957994
0.959651
0.961438
0.963337
0.965325
0.967378
0.969472
0.971579
0.973677
0.975744
0.977763
0.97972
0.981596
0.98339
0.985116
0.986625
0.940962
0.941651
0.942263
0.942991
0.943792
0.944616
0.945381
0.946034
0.946549
0.946917
0.947148
0.947269
0.947316
0.947325
0.947332
0.94737
0.947467
0.94765
0.947953
0.948416
0.949065
0.949911
0.950955
0.952188
0.953598
0.95517
0.956885
0.958725
0.960668
0.962686
0.964752
0.966838
0.968919
0.970974
0.972986
0.974938
0.976809
0.978595
0.980316
0.981823
0.938506
0.939355
0.940024
0.940799
0.941622
0.942451
0.943207
0.943834
0.944301
0.944602
0.944745
0.944761
0.944688
0.944566
0.944431
0.944316
0.94425
0.944267
0.944408
0.944718
0.945224
0.945937
0.946857
0.947978
0.949288
0.950773
0.952415
0.954196
0.95609
0.95807
0.960103
0.962163
0.964223
0.966262
0.968262
0.970203
0.972063
0.973836
0.975547
0.977048
0.936077
0.937078
0.937805
0.938625
0.939472
0.940308
0.941059
0.941664
0.942091
0.94233
0.942392
0.94231
0.942124
0.941877
0.941605
0.941342
0.941119
0.940976
0.940962
0.941122
0.941486
0.942066
0.942862
0.943871
0.945081
0.946479
0.948048
0.949767
0.95161
0.953546
0.955542
0.95757
0.959604
0.961622
0.963604
0.965528
0.967372
0.969126
0.970818
0.972309
0.93368
0.934824
0.935606
0.936472
0.937344
0.938192
0.938942
0.93953
0.939922
0.940106
0.940095
0.939923
0.939632
0.939266
0.938863
0.938458
0.938085
0.93779
0.937626
0.937641
0.937865
0.938312
0.938986
0.939882
0.940992
0.942303
0.943798
0.945453
0.947241
0.949129
0.951083
0.953074
0.955077
0.957068
0.959026
0.960927
0.962746
0.964474
0.966141
0.967614
0.931316
0.932593
0.933429
0.93434
0.935241
0.936104
0.936857
0.937434
0.937797
0.937934
0.93786
0.937606
0.937217
0.936739
0.936212
0.935672
0.935157
0.934717
0.93441
0.934284
0.934371
0.934688
0.935239
0.936024
0.937035
0.938259
0.939678
0.941268
0.942996
0.944831
0.946737
0.948687
0.950652
0.952611
0.954538
0.956408
0.958196
0.959888
0.961522
0.962972
0.928987
0.930384
0.931273
0.93223
0.933162
0.934045
0.934807
0.935378
0.93572
0.935819
0.935689
0.935363
0.934884
0.934301
0.933656
0.932988
0.93234
0.931765
0.931321
0.931059
0.931013
0.931201
0.931631
0.932306
0.933219
0.934357
0.935699
0.937219
0.938884
0.94066
0.942514
0.944417
0.946341
0.94826
0.950148
0.95198
0.953727
0.955376
0.956968
0.958387
0.926693
0.928198
0.929138
0.930142
0.931109
0.932016
0.93279
0.933361
0.933689
0.933759
0.933584
0.933194
0.932633
0.931952
0.931196
0.930409
0.929637
0.928935
0.928361
0.927968
0.927791
0.927854
0.928167
0.928734
0.929551
0.930603
0.931866
0.933313
0.934909
0.936623
0.938421
0.940272
0.942147
0.94402
0.945863
0.947648
0.949346
0.950944
0.952484
0.953867
0.924435
0.926034
0.927023
0.928076
0.92908
0.930014
0.930805
0.931383
0.931705
0.931755
0.931543
0.931098
0.930463
0.929691
0.928833
0.927935
0.927048
0.926227
0.92553
0.92501
0.924708
0.924648
0.924847
0.92531
0.926033
0.926999
0.928182
0.929552
0.931078
0.932725
0.934462
0.936256
0.938077
0.939897
0.941686
0.943416
0.945057
0.946595
0.948076
0.949416
0.922212
0.92389
0.924928
0.926029
0.927073
0.928039
0.928851
0.92944
0.929763
0.929802
0.929563
0.92907
0.928369
0.927515
0.926562
0.925563
0.924568
0.923635
0.922822
0.922182
0.921758
0.921582
0.921671
0.922034
0.922666
0.923546
0.924647
0.925938
0.92739
0.928968
0.930639
0.93237
0.934131
0.935891
0.937619
0.939287
0.940863
0.942333
0.943749
0.945039
0.920021
0.921766
0.922849
0.924
0.925086
0.926085
0.926923
0.92753
0.927861
0.927896
0.927636
0.927105
0.926347
0.925419
0.924379
0.923285
0.922191
0.921153
0.92023
0.919477
0.918938
0.91865
0.918635
0.918902
0.919444
0.920238
0.921256
0.922469
0.923844
0.925349
0.926951
0.928615
0.930309
0.932002
0.933663
0.935261
0.936765
0.938162
0.939504
0.940738
0.917859
0.919656
0.920784
0.921985
0.923115
0.92415
0.925017
0.925647
0.925992
0.926029
0.925756
0.925194
0.924387
0.923393
0.922275
0.921094
0.919907
0.918771
0.917746
0.916886
0.91624
0.915847
0.915733
0.915907
0.916361
0.91707
0.918006
0.919138
0.920435
0.921866
0.923394
0.924986
0.926608
0.928229
0.929816
0.931337
0.932764
0.934081
0.935343
0.936516
0.915723
0.917559
0.918729
0.919979
0.921155
0.92223
0.923131
0.923787
0.924151
0.924195
0.923916
0.923329
0.92248
0.921429
0.92024
0.918978
0.917705
0.916478
0.915358
0.914399
0.913653
0.913162
0.912953
0.913039
0.913407
0.914032
0.914886
0.915939
0.917159
0.918512
0.919964
0.921478
0.923023
0.924566
0.926074
0.927514
0.928858
0.93009
0.931267
0.932373
0.913608
0.915472
0.916681
0.91798
0.919202
0.92032
0.921257
0.921943
0.92233
0.922386
0.922104
0.921499
0.920615
0.919513
0.918261
0.916926
0.915572
0.914262
0.913054
0.912005
0.911166
0.910583
0.910286
0.910286
0.910571
0.911114
0.911888
0.912862
0.914004
0.915279
0.91665
0.918084
0.919548
0.921009
0.922434
0.923789
0.925045
0.926189
0.927277
0.928311
0.911511
0.913392
0.914637
0.915982
0.917252
0.918414
0.91939
0.92011
0.920521
0.920592
0.920311
0.919693
0.91878
0.917634
0.916324
0.914922
0.913495
0.912108
0.910821
0.909689
0.908765
0.908096
0.907717
0.907635
0.90784
0.908305
0.909001
0.909898
0.910962
0.912157
0.913446
0.914796
0.916176
0.917552
0.91889
0.920157
0.921324
0.922377
0.923373
0.924332
0.909428
0.911315
0.912593
0.913981
0.915298
0.916506
0.917523
0.918278
0.918716
0.918803
0.918526
0.917899
0.916963
0.915778
0.914415
0.912951
0.911457
0.910002
0.908642
0.907435
0.906434
0.905688
0.905231
0.905074
0.905202
0.905591
0.906212
0.907033
0.908019
0.909134
0.91034
0.911606
0.9129
0.91419
0.915439
0.916616
0.917692
0.918653
0.919557
0.920439
0.907352
0.909235
0.910542
0.911972
0.913336
0.91459
0.915649
0.91644
0.916907
0.917011
0.91674
0.916106
0.915149
0.913928
0.912517
0.910997
0.909444
0.907927
0.906503
0.905229
0.904159
0.903343
0.902815
0.902586
0.902643
0.90296
0.903508
0.904255
0.905165
0.906199
0.907323
0.908503
0.909711
0.910913
0.912073
0.913159
0.914146
0.915017
0.91583
0.916637
0.905277
0.907148
0.90848
0.909949
0.91136
0.912659
0.913762
0.914589
0.915083
0.915205
0.914941
0.914301
0.913324
0.91207
0.910616
0.909046
0.90744
0.905868
0.904389
0.903056
0.901924
0.901046
0.900455
0.90016
0.900149
0.900397
0.900876
0.901551
0.902385
0.90334
0.904381
0.905478
0.906599
0.907714
0.908785
0.909781
0.91068
0.911465
0.912191
0.912928
0.903195
0.905047
0.906401
0.907908
0.909363
0.910708
0.911853
0.912716
0.913236
0.913375
0.913116
0.91247
0.911475
0.910191
0.908697
0.907083
0.905431
0.903812
0.902284
0.9009
0.899716
0.898783
0.898135
0.89778
0.897706
0.89789
0.898302
0.898906
0.899666
0.900544
0.901504
0.902517
0.903554
0.904582
0.905566
0.906476
0.90729
0.907993
0.908637
0.909309
0.901098
0.902926
0.9043
0.905841
0.90734
0.908729
0.909916
0.910812
0.911356
0.911509
0.911254
0.910602
0.909589
0.908276
0.906748
0.905095
0.903404
0.901745
0.900175
0.898748
0.897521
0.896542
0.895844
0.895435
0.895302
0.895425
0.895771
0.896307
0.896994
0.897795
0.898676
0.899608
0.900561
0.901505
0.902406
0.903234
0.903971
0.904598
0.905167
0.905769
0.898978
0.90078
0.902171
0.903744
0.905283
0.906716
0.907942
0.908869
0.909434
0.909599
0.909346
0.908686
0.907654
0.906316
0.904756
0.903071
0.901347
0.899655
0.898051
0.89659
0.895326
0.894309
0.893568
0.89311
0.892924
0.892988
0.893271
0.893739
0.894355
0.895081
0.895884
0.896736
0.897609
0.898473
0.899295
0.900049
0.900716
0.90128
0.901785
0.902336
0.896827
0.898601
0.900008
0.901609
0.903187
0.904661
0.905924
0.90688
0.907463
0.907636
0.907382
0.906711
0.905661
0.904299
0.902713
0.901001
0.899251
0.897532
0.895902
0.894413
0.893122
0.892074
0.891296
0.890795
0.890559
0.890567
0.890788
0.89119
0.891734
0.892387
0.893114
0.893888
0.894684
0.895471
0.896221
0.89691
0.897519
0.89803
0.898487
0.899003
0.894637
0.896385
0.897806
0.899433
0.901047
0.902559
0.903855
0.904836
0.905435
0.905612
0.905354
0.90467
0.903601
0.902217
0.900609
0.898876
0.897106
0.895368
0.893718
0.89221
0.890898
0.889825
0.889017
0.888478
0.888196
0.88815
0.888311
0.888646
0.889121
0.8897
0.890352
0.891051
0.891771
0.892487
0.893172
0.893805
0.894367
0.894841
0.895267
0.895763
0.892402
0.894126
0.895559
0.89721
0.898857
0.900404
0.901729
0.902732
0.903342
0.903521
0.903254
0.902555
0.901467
0.900063
0.898437
0.896689
0.894906
0.893155
0.891493
0.889973
0.888646
0.887555
0.886722
0.886148
0.885823
0.885725
0.885827
0.886097
0.886501
0.887007
0.887585
0.888209
0.888857
0.889505
0.890132
0.890718
0.891247
0.8917
0.892115
0.892614
0.890113
0.891818
0.893263
0.894938
0.896614
0.898191
0.899541
0.900561
0.901179
0.901355
0.901075
0.900359
0.899252
0.897831
0.896192
0.894435
0.892645
0.890888
0.889221
0.887695
0.88636
0.885256
0.884401
0.883797
0.883431
0.883283
0.883327
0.883531
0.883865
0.884297
0.8848
0.885349
0.885926
0.88651
0.887084
0.887632
0.888139
0.888588
0.889017
0.889549
0.887764
0.889457
0.890914
0.892612
0.894315
0.895915
0.897285
0.898318
0.898939
0.899107
0.898812
0.898077
0.896952
0.895516
0.893869
0.892108
0.890318
0.888563
0.886897
0.885371
0.884034
0.882921
0.882049
0.881417
0.881012
0.880815
0.880801
0.880939
0.8812
0.881557
0.881982
0.882456
0.882961
0.883482
0.884006
0.884522
0.885018
0.885479
0.885945
0.886544
0.885351
0.887039
0.88851
0.890228
0.891953
0.893573
0.894958
0.895999
0.896617
0.896773
0.896461
0.895707
0.894565
0.893118
0.891467
0.889708
0.887924
0.886176
0.884518
0.882998
0.881663
0.880545
0.879659
0.879001
0.878559
0.878314
0.878241
0.878312
0.878499
0.878777
0.879122
0.879517
0.879947
0.880402
0.880875
0.881359
0.88185
0.882335
0.882862
0.883568
0.882869
0.884561
0.886046
0.887784
0.889528
0.891162
0.892557
0.893599
0.89421
0.89435
0.894019
0.893245
0.892088
0.890634
0.888984
0.887234
0.885462
0.883727
0.882082
0.880574
0.879246
0.878127
0.877228
0.876544
0.876065
0.875772
0.87564
0.875642
0.875753
0.875949
0.87621
0.876519
0.876867
0.877249
0.877662
0.878106
0.878587
0.879107
0.879724
0.880586
0.880314
0.88202
0.883519
0.885276
0.887034
0.888679
0.890079
0.891118
0.891715
0.891837
0.891486
0.890693
0.889524
0.888067
0.886424
0.884687
0.882932
0.881217
0.879591
0.878099
0.876782
0.875663
0.874751
0.874043
0.873527
0.873184
0.872992
0.872924
0.872956
0.873067
0.873238
0.873455
0.873711
0.874004
0.874334
0.874711
0.875153
0.875695
0.876454
0.877615
0.877687
0.879414
0.880928
0.882701
0.884472
0.886125
0.887524
0.888553
0.889133
0.889234
0.888862
0.888053
0.886875
0.88542
0.883789
0.882071
0.880339
0.878648
0.877045
0.875574
0.87427
0.873153
0.87223
0.871496
0.870941
0.870548
0.870294
0.870154
0.870105
0.870127
0.870204
0.870321
0.870472
0.870657
0.870874
0.871129
0.871442
0.87186
0.872509
0.873915
1.03794
1.04517
1.04916
1.05338
1.05634
1.05895
1.06106
1.06293
1.06457
1.06599
1.06722
1.06833
1.06928
1.07006
1.07067
1.07116
1.07153
1.07177
1.07193
1.072
1.07201
1.07193
1.07176
1.07153
1.07123
1.07083
1.07033
1.0697
1.06895
1.06805
1.067
1.06578
1.06438
1.06282
1.06106
1.05922
1.05718
1.05523
1.05309
1.0518
1.03346
1.04125
1.04555
1.05002
1.05313
1.05588
1.05809
1.06002
1.06169
1.0632
1.0645
1.06564
1.06661
1.06744
1.06812
1.06864
1.06902
1.0693
1.06949
1.0696
1.06963
1.06957
1.06944
1.06925
1.06897
1.0686
1.06811
1.0675
1.06676
1.06588
1.06484
1.06363
1.06224
1.06068
1.05894
1.05711
1.05509
1.05314
1.05102
1.04973
1.0289
1.03728
1.04189
1.04662
1.0499
1.05278
1.05509
1.05709
1.0588
1.06039
1.06176
1.06294
1.06392
1.06482
1.06555
1.0661
1.0665
1.06682
1.06705
1.0672
1.06725
1.06722
1.06713
1.06696
1.06671
1.06636
1.0659
1.06531
1.06458
1.06372
1.0627
1.0615
1.06013
1.05858
1.05686
1.05504
1.05303
1.05109
1.04899
1.0477
1.02427
1.03326
1.03818
1.04319
1.04665
1.04967
1.05207
1.05415
1.05593
1.05756
1.05899
1.06022
1.06125
1.06218
1.06295
1.06354
1.06398
1.06435
1.06461
1.06479
1.06488
1.06488
1.06482
1.06468
1.06445
1.06413
1.06369
1.06313
1.06241
1.06157
1.06057
1.05939
1.05803
1.05651
1.05481
1.053
1.05102
1.04908
1.047
1.04572
1.01955
1.0292
1.03443
1.03974
1.04338
1.04653
1.04903
1.05119
1.05304
1.05472
1.0562
1.05748
1.05857
1.05954
1.06034
1.06098
1.06147
1.06187
1.06217
1.06238
1.06251
1.06254
1.06252
1.0624
1.06219
1.0619
1.06148
1.06094
1.06026
1.05943
1.05845
1.0573
1.05596
1.05446
1.05279
1.051
1.04904
1.04712
1.04504
1.04379
1.01477
1.02509
1.03064
1.03625
1.04008
1.04337
1.04597
1.04822
1.05015
1.05187
1.05341
1.05473
1.05588
1.05689
1.05773
1.05841
1.05895
1.05938
1.05972
1.05996
1.06013
1.0602
1.06021
1.06012
1.05994
1.05967
1.05928
1.05877
1.05811
1.05731
1.05635
1.05523
1.05392
1.05244
1.05079
1.04903
1.04709
1.04519
1.04313
1.04189
1.00994
1.02095
1.02682
1.03274
1.03677
1.0402
1.0429
1.04524
1.04724
1.04902
1.0506
1.05198
1.05319
1.05423
1.05511
1.05584
1.05642
1.0569
1.05727
1.05755
1.05775
1.05786
1.0579
1.05784
1.05769
1.05744
1.05708
1.0566
1.05597
1.0552
1.05427
1.05317
1.05189
1.05045
1.04883
1.04709
1.04518
1.0433
1.04126
1.04003
1.00503
1.01678
1.02297
1.02921
1.03343
1.037
1.03982
1.04224
1.04432
1.04615
1.04779
1.04922
1.05048
1.05157
1.05249
1.05326
1.05389
1.05441
1.05481
1.05513
1.05537
1.05553
1.05559
1.05557
1.05544
1.05523
1.05489
1.05444
1.05384
1.0531
1.0522
1.05113
1.04989
1.04847
1.04689
1.04518
1.04329
1.04144
1.03942
1.03821
1.0001
1.01257
1.0191
1.02566
1.03007
1.0338
1.03673
1.03923
1.04138
1.04328
1.04498
1.04646
1.04776
1.0489
1.04986
1.05068
1.05135
1.05191
1.05236
1.05271
1.05299
1.05319
1.05328
1.05329
1.0532
1.05301
1.05271
1.05228
1.05172
1.05101
1.05014
1.04911
1.0479
1.04653
1.04498
1.0433
1.04144
1.03962
1.03762
1.03642
0.995131
1.00833
1.0152
1.02208
1.0267
1.03057
1.03362
1.03622
1.03845
1.04041
1.04216
1.04369
1.04504
1.04622
1.04723
1.04809
1.04881
1.04941
1.04989
1.05029
1.05061
1.05085
1.05098
1.05102
1.05096
1.0508
1.05053
1.05014
1.04961
1.04894
1.0481
1.04711
1.04594
1.0446
1.0431
1.04144
1.03963
1.03783
1.03585
1.03467
0.990146
1.00408
1.01129
1.01849
1.02331
1.02734
1.03051
1.0332
1.0355
1.03753
1.03934
1.04092
1.04232
1.04354
1.0446
1.04551
1.04627
1.0469
1.04743
1.04787
1.04823
1.04851
1.04867
1.04875
1.04872
1.04859
1.04836
1.048
1.04751
1.04687
1.04607
1.04512
1.04399
1.04269
1.04123
1.03962
1.03784
1.03607
1.03412
1.03295
0.98515
0.999819
1.00736
1.01488
1.01992
1.02409
1.02739
1.03017
1.03256
1.03465
1.03652
1.03815
1.0396
1.04087
1.04197
1.04292
1.04372
1.0444
1.04496
1.04545
1.04585
1.04616
1.04636
1.04647
1.04648
1.04639
1.04619
1.04586
1.04541
1.04481
1.04405
1.04314
1.04205
1.0408
1.03939
1.03782
1.03608
1.03435
1.03243
1.03127
0.980156
0.995416
1.00342
1.01126
1.01651
1.02084
1.02426
1.02714
1.02961
1.03177
1.0337
1.03537
1.03688
1.03819
1.03934
1.04033
1.04117
1.04189
1.0425
1.04303
1.04346
1.04382
1.04405
1.0442
1.04425
1.04418
1.04402
1.04373
1.04331
1.04276
1.04204
1.04117
1.04013
1.03893
1.03757
1.03605
1.03435
1.03266
1.03077
1.02963
0.97518
0.991152
0.999489
1.00764
1.01309
1.01758
1.02113
1.02411
1.02666
1.02889
1.03088
1.03261
1.03416
1.03552
1.03671
1.03774
1.03863
1.03939
1.04003
1.0406
1.04108
1.04147
1.04174
1.04193
1.04201
1.04198
1.04186
1.0416
1.04122
1.04071
1.04004
1.03922
1.03822
1.03708
1.03577
1.0343
1.03265
1.03099
1.02914
1.02801
0.970232
0.986909
0.995557
1.004
1.00966
1.01432
1.01799
1.02108
1.02372
1.02601
1.02806
1.02984
1.03144
1.03285
1.03409
1.03516
1.03608
1.03688
1.03757
1.03818
1.03869
1.03912
1.03943
1.03965
1.03978
1.03978
1.03969
1.03948
1.03914
1.03867
1.03805
1.03728
1.03634
1.03525
1.03399
1.03258
1.03097
1.02936
1.02754
1.02644
0.965321
0.982662
0.991633
1.00037
1.00623
1.01106
1.01486
1.01805
1.02078
1.02314
1.02524
1.02708
1.02873
1.03018
1.03146
1.03257
1.03353
1.03438
1.0351
1.03575
1.0363
1.03677
1.03712
1.03738
1.03754
1.03758
1.03753
1.03736
1.03706
1.03664
1.03606
1.03535
1.03446
1.03343
1.03224
1.03089
1.02933
1.02777
1.02598
1.0249
0.960455
0.978411
0.987717
0.996731
1.00281
1.00779
1.01173
1.01503
1.01784
1.02027
1.02243
1.02432
1.02602
1.02752
1.02884
1.02999
1.03099
1.03187
1.03264
1.03333
1.03392
1.03442
1.03481
1.0351
1.0353
1.03538
1.03537
1.03524
1.03499
1.03461
1.03408
1.03343
1.0326
1.03163
1.0305
1.02921
1.02771
1.0262
1.02446
1.02339
0.955646
0.974163
0.983815
0.993098
0.999378
1.00453
1.00861
1.01202
1.01491
1.01741
1.01963
1.02157
1.02332
1.02486
1.02623
1.02742
1.02845
1.02938
1.03018
1.03091
1.03153
1.03207
1.0325
1.03283
1.03307
1.03319
1.03321
1.03312
1.03292
1.03259
1.03211
1.03151
1.03075
1.02985
1.02878
1.02757
1.02613
1.02467
1.02297
1.02192
0.950903
0.969935
0.979933
0.989472
0.995957
1.00128
1.00549
1.00901
1.01199
1.01456
1.01683
1.01883
1.02063
1.02221
1.02362
1.02485
1.02592
1.02688
1.02772
1.02849
1.02915
1.02972
1.03019
1.03055
1.03082
1.03099
1.03105
1.031
1.03085
1.03057
1.03015
1.02961
1.02891
1.02809
1.02709
1.02594
1.02457
1.02317
1.02152
1.0205
0.946234
0.965751
0.976078
0.985855
0.992544
0.998031
1.00238
1.00601
1.00907
1.01172
1.01405
1.01611
1.01795
1.01957
1.02103
1.02229
1.0234
1.0244
1.02527
1.02607
1.02677
1.02737
1.02788
1.02828
1.02858
1.02879
1.02889
1.02889
1.02879
1.02855
1.02819
1.02771
1.02709
1.02633
1.02541
1.02434
1.02304
1.02171
1.02011
1.01911
0.941645
0.961632
0.972257
0.982252
0.989143
0.994797
0.999288
1.00303
1.00618
1.00889
1.01128
1.01339
1.01528
1.01695
1.01844
1.01974
1.02089
1.02192
1.02282
1.02365
1.02439
1.02502
1.02557
1.02601
1.02634
1.02659
1.02673
1.02677
1.02672
1.02654
1.02623
1.02583
1.02527
1.02459
1.02375
1.02277
1.02155
1.02029
1.01873
1.01777
0.937143
0.957584
0.968475
0.978668
0.985756
0.991579
0.99621
1.00006
1.00329
1.00608
1.00852
1.01069
1.01263
1.01434
1.01587
1.0172
1.01838
1.01944
1.02038
1.02124
1.02202
1.02267
1.02326
1.02373
1.0241
1.02439
1.02457
1.02466
1.02465
1.02453
1.02428
1.02394
1.02346
1.02287
1.02211
1.02122
1.02008
1.0189
1.0174
1.01646
0.932731
0.953606
0.964733
0.975106
0.982387
0.988379
0.993151
0.997109
1.00043
1.00328
1.00579
1.00801
1.00999
1.01174
1.01331
1.01467
1.01588
1.01698
1.01795
1.01884
1.01964
1.02033
1.02094
1.02146
1.02186
1.02219
1.02242
1.02255
1.02259
1.02252
1.02234
1.02206
1.02166
1.02115
1.02048
1.01969
1.01864
1.01755
1.01611
1.0152
0.928415
0.949673
0.96103
0.971568
0.97904
0.985201
0.990114
0.994181
0.997586
1.00051
1.00307
1.00534
1.00736
1.00915
1.01076
1.01215
1.01339
1.01452
1.01552
1.01644
1.01727
1.01799
1.01863
1.01919
1.01962
1.01999
1.02026
1.02043
1.02053
1.02051
1.02039
1.02019
1.01987
1.01944
1.01887
1.01817
1.01723
1.01623
1.01486
1.01398
0.924198
0.945622
0.957365
0.968055
0.975718
0.982047
0.987103
0.991277
0.994768
0.997759
1.00037
1.00269
1.00476
1.00659
1.00822
1.00964
1.01091
1.01207
1.01311
1.01404
1.0149
1.01565
1.01632
1.01691
1.01738
1.01779
1.0181
1.01832
1.01846
1.0185
1.01845
1.01831
1.01808
1.01774
1.01726
1.01668
1.01585
1.01494
1.01366
1.01281
0.920094
0.941659
0.953742
0.96457
0.972425
0.978921
0.98412
0.9884
0.991977
0.995033
0.997702
1.00007
1.00218
1.00404
1.0057
1.00715
1.00845
1.00963
1.0107
1.01166
1.01254
1.01331
1.01402
1.01464
1.01514
1.01559
1.01593
1.0162
1.01639
1.01649
1.0165
1.01644
1.01628
1.01604
1.01567
1.0152
1.01449
1.01369
1.0125
1.01168
0.916116
0.937845
0.950163
0.961116
0.969162
0.975826
0.981166
0.985552
0.989213
0.992335
0.995057
0.997472
0.999615
1.00151
1.00319
1.00467
1.00599
1.00721
1.00829
1.00928
1.01019
1.01098
1.01171
1.01237
1.0129
1.01338
1.01377
1.01408
1.01432
1.01448
1.01456
1.01456
1.01449
1.01434
1.01408
1.01374
1.01316
1.01248
1.01138
1.01061
0.912285
0.934102
0.94663
0.957695
0.965933
0.972765
0.978243
0.982737
0.986478
0.989666
0.99244
0.9949
0.997078
0.998996
1.00071
1.00221
1.00355
1.00479
1.0059
1.0069
1.00784
1.00866
1.00941
1.0101
1.01066
1.01118
1.01161
1.01196
1.01225
1.01246
1.01261
1.01269
1.0127
1.01265
1.0125
1.01229
1.01184
1.0113
1.01031
1.0096
0.9086
0.930432
0.943147
0.954313
0.962741
0.969741
0.975356
0.979955
0.983777
0.987029
0.989853
0.992357
0.994565
0.996507
0.998239
0.999761
1.00113
1.00239
1.00352
1.00454
1.00549
1.00634
1.00711
1.00782
1.00843
1.00897
1.00944
1.00983
1.01017
1.01045
1.01065
1.01081
1.01091
1.01096
1.01093
1.01085
1.01055
1.01016
1.0093
1.00864
0.904882
0.926841
0.939717
0.950974
0.959593
0.966757
0.972509
0.977211
0.981113
0.984429
0.987299
0.989843
0.992077
0.994042
0.995792
0.997333
0.998722
0.999993
1.00115
1.00218
1.00315
1.00402
1.00482
1.00555
1.00619
1.00676
1.00727
1.0077
1.00809
1.00842
1.0087
1.00893
1.00911
1.00926
1.00936
1.00941
1.00928
1.00905
1.00833
1.00775
0.901465
0.923332
0.936342
0.947683
0.956494
0.963817
0.969705
0.974508
0.97849
0.981868
0.984783
0.987362
0.989618
0.991601
0.993366
0.994924
0.996332
0.997614
0.998787
0.999834
1.00082
1.0017
1.00252
1.00328
1.00395
1.00455
1.00509
1.00557
1.006
1.00639
1.00673
1.00704
1.00731
1.00757
1.00778
1.00799
1.00803
1.00798
1.00743
1.00694
0.898184
0.919902
0.933027
0.944446
0.95345
0.960927
0.966949
0.971852
0.975911
0.97935
0.982305
0.984914
0.987188
0.989187
0.990965
0.992535
0.993959
0.995251
0.996438
0.997497
0.998498
0.999396
1.00024
1.00101
1.00171
1.00233
1.00292
1.00344
1.00391
1.00436
1.00476
1.00514
1.0055
1.00587
1.00621
1.00657
1.00679
1.00695
1.00659
1.00621
0.895047
0.916558
0.929776
0.941271
0.950464
0.958092
0.964243
0.969246
0.973381
0.976877
0.979868
0.982501
0.984789
0.986801
0.988589
0.990169
0.991606
0.992904
0.994102
0.995171
0.996182
0.997094
0.997953
0.99874
0.999465
1.00012
1.00074
1.0013
1.00182
1.00232
1.00278
1.00324
1.00369
1.00416
1.00463
1.00514
1.00555
1.00594
1.00581
1.00557
0.892083
0.913298
0.926594
0.938166
0.947542
0.955315
0.961592
0.966695
0.970901
0.974449
0.977473
0.980124
0.982424
0.984444
0.986238
0.987825
0.989272
0.990575
0.991779
0.992857
0.993874
0.994799
0.995673
0.996474
0.997222
0.997906
0.998551
0.999157
0.999716
1.00027
1.0008
1.00133
1.00186
1.00244
1.00304
1.00371
1.00433
1.00497
1.0051
1.00504
0.889306
0.910124
0.923489
0.935143
0.944693
0.952606
0.959004
0.964203
0.968477
0.972071
0.975123
0.977788
0.980095
0.98212
0.983917
0.985508
0.98696
0.988265
0.98947
0.990556
0.991576
0.992512
0.993397
0.994211
0.994978
0.995689
0.996361
0.997006
0.997607
0.998217
0.998801
0.999402
1.00003
1.00071
1.00144
1.00228
1.0031
1.00402
1.00446
1.00463
0.886735
0.907047
0.920482
0.932221
0.941933
0.949978
0.956492
0.961779
0.966118
0.96975
0.972823
0.975496
0.977807
0.979831
0.981628
0.98322
0.984672
0.985976
0.987179
0.988269
0.989289
0.990232
0.991125
0.99195
0.992734
0.99347
0.994166
0.99485
0.995493
0.996152
0.996796
0.997467
0.998176
0.99896
0.999817
1.00082
1.00187
1.00308
1.0039
1.00437
0.884391
0.904086
0.917596
0.929421
0.939279
0.947446
0.954069
0.959436
0.963831
0.967495
0.970582
0.973257
0.975565
0.977584
0.979376
0.980965
0.982412
0.983712
0.984907
0.985997
0.987013
0.98796
0.988857
0.989693
0.990489
0.991247
0.991968
0.992687
0.99337
0.994077
0.994779
0.99552
0.996313
0.997197
0.998181
0.99935
1.00062
1.00216
1.00341
1.00428
0.88227
0.901178
0.914755
0.926665
0.936654
0.944937
0.951667
0.957113
0.961562
0.965256
0.968354
0.971026
0.973327
0.975338
0.97712
0.978704
0.980141
0.981434
0.982619
0.983707
0.984718
0.985666
0.986565
0.98741
0.988218
0.988996
0.989743
0.990495
0.991219
0.991972
0.992734
0.993543
0.994418
0.995401
0.99651
0.997841
0.999347
1.00122
1.00297
1.0044
0.880214
0.898113
0.91176
0.923761
0.933883
0.942294
0.949138
0.954674
0.959186
0.962917
0.966033
0.968706
0.971004
0.973009
0.974785
0.976365
0.977795
0.979083
0.98026
0.981347
0.982355
0.983307
0.984209
0.985065
0.985887
0.986687
0.987463
0.988247
0.989016
0.989815
0.990639
0.991517
0.992474
0.993555
0.994786
0.996276
0.998018
1.00026
1.00259
1.00478
0.878543
0.895359
0.909056
0.921092
0.931285
0.939779
0.946698
0.952291
0.956838
0.960586
0.963713
0.966383
0.968679
0.970685
0.972458
0.974038
0.975461
0.976747
0.977918
0.979003
0.98001
0.980964
0.981868
0.982734
0.983569
0.984388
0.98519
0.986002
0.986811
0.987654
0.988532
0.989474
0.990505
0.991674
0.993016
0.994651
0.996612
0.999207
1.00217
1.00536
0.8733
0.888924
0.902727
0.914771
0.925006
0.933612
0.940639
0.946255
0.950732
0.954359
0.95738
0.959964
0.962215
0.964193
0.965941
0.967495
0.968882
0.970135
0.971273
0.972329
0.973311
0.974247
0.975142
0.976013
0.976864
0.977712
0.978564
0.979432
0.980326
0.981264
0.982263
0.983347
0.984546
0.985916
0.987509
0.989474
0.991945
0.995425
1.00013
1.00671
0.857921
0.872863
0.886111
0.897717
0.907716
0.916264
0.923384
0.929211
0.93397
0.9379
0.941207
0.944046
0.946522
0.948705
0.950646
0.952386
0.953958
0.955392
0.956713
0.957947
0.959111
0.960223
0.961297
0.962344
0.963375
0.964401
0.965433
0.966482
0.96756
0.968685
0.969875
0.971158
0.972567
0.974168
0.976029
0.97833
0.981282
0.985562
0.991559
0.999846
0.842145
0.856382
0.869015
0.880236
0.890019
0.898503
0.905699
0.911713
0.916728
0.920933
0.924505
0.927588
0.93029
0.932686
0.934831
0.936771
0.938542
0.940173
0.941691
0.943121
0.94448
0.945787
0.947054
0.948295
0.949518
0.950735
0.951956
0.953195
0.954464
0.955781
0.957165
0.958649
0.960267
0.962093
0.964202
0.966788
0.970077
0.974782
0.981309
0.990248
0.825867
0.83949
0.851587
0.862488
0.872099
0.880531
0.887787
0.893949
0.899163
0.903592
0.907391
0.910698
0.913616
0.916222
0.918572
0.920713
0.922682
0.92451
0.926225
0.927852
0.929409
0.930914
0.932381
0.933821
0.935243
0.93666
0.938082
0.939522
0.940992
0.942513
0.944102
0.945794
0.947627
0.949673
0.952012
0.954833
0.958349
0.96325
0.969908
0.979035
0.809192
0.822261
0.833873
0.844472
0.853917
0.862286
0.86958
0.875861
0.881253
0.885891
0.889914
0.893446
0.896587
0.899411
0.901975
0.904325
0.9065
0.908533
0.910451
0.912281
0.914041
0.915751
0.917423
0.919067
0.920695
0.922318
0.923946
0.925591
0.927267
0.928993
0.930785
0.932681
0.934716
0.936962
0.939493
0.942489
0.946136
0.95108
0.957641
0.966682
0.792071
0.804656
0.815829
0.826141
0.835422
0.843724
0.851042
0.857426
0.862979
0.867816
0.872055
0.875811
0.879176
0.882223
0.885008
0.887576
0.889966
0.892211
0.894341
0.89638
0.89835
0.900269
0.902148
0.904001
0.905836
0.907666
0.909499
0.911348
0.913225
0.915148