/*--------------------------------*- C++ -*----------------------------------*\
  =========                 |
  \\      /  F ield         | OpenFOAM: The Open Source CFD Toolbox
   \\    /   O peration     | Website:  https://openfoam.org
    \\  /    A nd           | Version:  7
     \\/     M anipulation  |
\*---------------------------------------------------------------------------*/
FoamFile
{
    version     2.0;
    format      ascii;
    class       surfaceScalarField;
    location    "3";
    object      phi;
}
// * * * * * * * * * * * * * * * * * * * * * * * * * * * * * * * * * * * * * //

dimensions      [0 3 -1 0 0 0 0];

internalField   nonuniform List<scalar> 
63520
(
-2.007e-05
0.000686072
-0.000666002
-6.72536e-05
0.00182969
-0.00178251
-0.000135083
0.00280127
-0.00273344
-0.00021797
0.00359937
-0.00351648
-0.000310901
0.00423966
-0.00414673
-0.000409253
0.0047427
-0.00464435
-0.000508813
0.00512902
-0.00502946
-0.000605805
0.00541696
-0.00531997
-0.000696901
0.00562222
-0.00553112
-0.000779223
0.00575745
-0.00567513
-0.000850312
0.0058327
-0.00576161
-0.000908112
0.00585589
-0.00579808
-0.000950917
0.00583331
-0.00579051
-0.000977327
0.00577014
-0.00574373
-0.000986212
0.00567083
-0.00566195
-0.000976676
0.00553947
-0.00554901
-0.000948053
0.00537992
-0.00540854
-0.000899876
0.00519592
-0.0052441
-0.000831875
0.00499123
-0.00505923
-0.000743975
0.00476959
-0.00485749
-0.000636281
0.0045347
-0.0046424
-0.000509072
0.00429021
-0.00441741
-0.000362811
0.00403968
-0.00418594
-0.000198136
0.00378655
-0.00395122
-1.58269e-05
0.00353404
-0.00371635
0.000183198
0.00328515
-0.00348418
0.00039788
0.00304261
-0.00325729
0.000627048
0.00280884
-0.00303801
0.000869439
0.00258596
-0.00282835
0.00112373
0.00237575
-0.00263004
0.00138854
0.00217967
-0.00244448
0.00166245
0.00199885
-0.00227276
0.00194403
0.00183413
-0.00211571
0.00223186
0.00168608
-0.00197391
0.00252451
0.00155508
-0.00184773
0.00282054
0.00144139
-0.00173742
0.00311846
0.00134525
-0.00164318
0.00341668
0.00126692
-0.00156514
0.00371337
0.00120907
-0.00150576
0.00117745
0.00400616
-0.00147024
-1.80744e-05
0.000704146
-6.08754e-05
0.00187249
-0.000122763
0.00286316
-0.000198865
0.00367547
-0.000284645
0.00432544
-0.000375826
0.00483388
-0.000468401
0.00522159
-0.000558716
0.00550727
-0.000643477
0.00570698
-0.000719816
0.00583379
-0.000785282
0.00589816
-0.000837797
0.0059084
-0.000875612
0.00587112
-0.000897283
0.00579181
-0.000901642
0.00567519
-0.000887752
0.00552558
-0.000854897
0.00534706
-0.000802582
0.00514361
-0.00073051
0.00491916
-0.000638563
0.00467765
-0.000526821
0.00442296
-0.000395558
0.00415894
-0.000245218
0.00388934
-7.64129e-05
0.00361774
0.000110074
0.00334755
0.000313306
0.00308192
0.000532215
0.0028237
0.000765624
0.00257543
0.00101226
0.00233933
0.00127076
0.00211725
0.00153972
0.00191071
0.00181771
0.00172086
0.00210329
0.00154855
0.00239501
0.00139437
0.00269144
0.00125866
0.00299115
0.00114168
0.0032927
0.00104371
0.00359452
0.000965107
0.00389482
0.000908763
0.000880973
0.0041913
-1.5959e-05
0.000720105
-5.40089e-05
0.00191054
-0.000109444
0.00291859
-0.000178102
0.00374412
-0.00025596
0.0044033
-0.000339109
0.00491702
-0.000423749
0.00530623
-0.000506384
0.00558991
-0.00058379
0.00578438
-0.00065313
0.00590313
-0.000711938
0.00595697
-0.000758106
0.00595457
-0.000789869
0.00590289
-0.000805754
0.0058077
-0.000804555
0.005674
-0.000785307
0.00550634
-0.000747269
0.00530903
-0.000689908
0.00508625
-0.000612892
0.00484215
-0.000516094
0.00458085
-0.000399575
0.00430644
-0.000263589
0.00402296
-0.000108575
0.00373432
6.48445e-05
0.00344432
0.000255888
0.00315651
0.000463626
0.00287418
0.000686983
0.00260034
0.000924755
0.00233766
0.00117564
0.00208845
0.00143827
0.00185462
0.00171123
0.00163775
0.00199305
0.00143903
0.00228229
0.00125931
0.0025775
0.00109916
0.00287724
0.00095891
0.00318012
0.000838799
0.00348472
0.000739114
0.00378952
0.000660297
0.00409285
0.00060544
0.000581385
0.00439243
-1.37017e-05
0.000733807
-4.67269e-05
0.00194357
-9.52703e-05
0.00296714
-0.000155901
0.00380475
-0.000225124
0.00447252
-0.000299409
0.00499131
-0.000375222
0.00538204
-0.000449214
0.0056639
-0.000518247
0.00585341
-0.000579521
0.0059644
-0.000630591
0.00600804
-0.000669343
0.00599332
-0.000693984
0.00592753
-0.000703018
0.00581673
-0.000695221
0.0056662
-0.000669598
0.00548072
-0.000625382
0.00526481
-0.000562028
0.00502289
-0.000479192
0.00475931
-0.000376722
0.00447838
-0.000254671
0.00418439
-0.000113298
0.00388158
4.69579e-05
0.00357407
0.000225486
0.00326579
0.0004215
0.00296049
0.000634049
0.00266163
0.000862044
0.00237235
0.00110427
0.00209544
0.00135941
0.0018333
0.00162608
0.00158795
0.00190285
0.00136099
0.00218824
0.00115364
0.00248079
0.000966764
0.00277905
0.000800895
0.00308162
0.000656348
0.00338709
0.000533322
0.00369412
0.000432087
0.00400127
0.00035315
0.00430694
0.00029977
0.000279343
0.00460898
-1.13677e-05
0.000745174
-3.91043e-05
0.0019713
-8.03564e-05
0.00300839
-0.000132413
0.00385681
-0.00019234
0.00453245
-0.000256993
0.00505596
-0.00032311
0.00544816
-0.000387508
0.0057283
-0.000447178
0.00591308
-0.00049937
0.00601659
-0.00054165
0.00605032
-0.00057191
0.00602358
-0.000588356
0.00594397
-0.000589472
0.00581785
-0.000574013
0.00565074
-0.00054098
0.00544768
-0.000489598
0.00521343
-0.000419305
0.0049526
-0.000329746
0.00466975
-0.000220772
0.0043694
-9.24408e-05
0.00405606
5.49949e-05
0.00373415
0.000221093
0.00340797
0.000405229
0.00308166
0.000606603
0.00275912
0.000824256
0.00244398
0.00105708
0.00213952
0.00130386
0.00184866
0.00156325
0.00157391
0.00183386
0.00131734
0.00211423
0.00108061
0.0024029
0.000864974
0.00269839
0.000671273
0.00299926
0.000500023
0.00330412
0.000351493
0.00361161
0.00022583
0.00392043
0.00012327
0.00422922
4.43568e-05
0.00453651
-7.52211e-06
-2.44345e-05
0.00484029
-8.94718e-06
0.000754121
-3.11831e-05
0.00199354
-6.48091e-05
0.00304201
-0.000107836
0.00389984
-0.000157868
0.00458248
-0.00021217
0.00511026
-0.000267781
0.00550377
-0.000321701
0.00578222
-0.000371046
0.00596243
-0.000413141
0.00605869
-0.000445593
0.00608277
-0.000466307
0.00604429
-0.00047348
0.00595114
-0.000465603
0.00580997
-0.000441431
0.00562657
-0.000399959
0.00540621
-0.000340407
0.00515388
-0.000262218
0.00487441
-0.000165041
0.00457257
-4.8733e-05
0.0042531
8.66416e-05
0.00392069
0.000240819
0.00357997
0.000413342
0.00323544
0.000603573
0.00289142
0.000810701
0.00255199
0.00103375
0.00222093
0.0012716
0.00190167
0.001523
0.00159726
0.00178662
0.00131029
0.00206105
0.00104291
0.00234482
0.000796841
0.00263646
0.000573333
0.00293451
0.000373226
0.00323753
0.000197004
0.00354415
4.48762e-05
0.00385305
-8.30734e-05
0.00416299
-0.000186672
0.00447272
-0.000265374
0.00478089
-0.000315694
-0.000329202
0.00508566
-6.48395e-06
0.000760605
-2.30658e-05
0.00201012
-4.87849e-05
0.00306773
-8.23681e-05
0.00393342
-0.000121978
0.00462209
-0.000165285
0.00515357
-0.000209628
0.00554811
-0.000252222
0.00582481
-0.000290327
0.00600053
-0.000321357
0.00608972
-0.000342967
0.00610438
-0.000353089
0.00605441
-0.000349943
0.005948
-0.000332027
0.00579205
-0.000298099
0.00559264
-0.000247165
0.00535528
-0.000178461
0.00508517
-9.14361e-05
0.00478739
1.42484e-05
0.00446689
0.000138716
0.00412863
0.00028188
0.00377752
0.000443461
0.00341839
0.000622987
0.00305592
0.000819799
0.00269461
0.00103306
0.00233873
0.00126179
0.00199221
0.00150483
0.00165863
0.00176094
0.00134115
0.00202876
0.00104246
0.00230688
0.000764795
0.00259383
0.000509892
0.00288814
0.000279023
0.00318835
7.30147e-05
0.00349305
-0.000107694
0.00380089
-0.00026296
0.0041106
-0.000392785
0.004421
-0.000497078
0.00473096
-0.000575326
0.00503926
-0.000623997
-0.000634201
0.00534426
-4.01305e-06
0.000764618
-1.48354e-05
0.00202094
-3.24363e-05
0.00308533
-5.62507e-05
0.00395723
-8.49797e-05
0.00465082
-0.000116705
0.00518529
-0.000149093
0.0055805
-0.000179579
0.00585529
-0.00020558
0.00602653
-0.000224617
0.00610875
-0.000234415
0.00611418
-0.000232949
0.00605295
-0.000218466
0.00593352
-0.000189487
0.00576308
-0.000144791
0.00554795
-8.34067e-05
0.00529389
-4.58761e-06
0.00500635
9.21958e-05
0.0046906
0.000207254
0.00435183
0.00034068
0.0039952
0.000492363
0.00362584
0.000661999
0.00324875
0.000849089
0.00286883
0.00105295
0.00249075
0.00127272
0.00211896
0.00150739
0.00175754
0.0017558
0.00141022
0.00201668
0.00108027
0.00228867
0.000770469
0.00257035
0.000483116
0.00286025
0.000219988
0.00315692
-1.76426e-05
0.0034589
-0.000228969
0.00376481
-0.000413604
0.00407334
-0.000571482
0.00438326
-0.000702707
0.00469347
-0.000807291
0.00500294
-0.000884796
0.00531064
-0.000931696
-0.000938732
0.00561517
-1.56129e-06
0.000766179
-6.58288e-06
0.00202596
-1.59325e-05
0.00309468
-2.97281e-05
0.00397103
-4.72024e-05
0.00466829
-6.68518e-05
0.00520494
-8.66688e-05
0.00560032
-0.000104333
0.00587296
-0.000117432
0.00603963
-0.000123612
0.00611493
-0.000120682
0.00611125
-0.000106676
0.00603894
-7.98865e-05
0.00590673
-3.88674e-05
0.00572206
1.75676e-05
0.00549151
9.03583e-05
0.0052211
0.000180219
0.00491649
0.000287646
0.00458318
0.00041291
0.00422657
0.000556066
0.00385205
0.000716971
0.00346493
0.000895288
0.00307044
0.00109048
0.00267363
0.00130184
0.0022794
0.00152847
0.00189232
0.00176934
0.00151667
0.00202327
0.00115629
0.00228898
0.000814555
0.00256511
0.000494347
0.00285021
0.000198011
0.00314285
-7.26479e-05
0.00344156
-0.000316357
0.00374493
-0.000532339
0.0040516
-0.000720268
0.00436028
-0.000880166
0.00466983
-0.00101225
0.0049792
-0.00111667
0.00528749
-0.00119309
0.00559384
-0.00123805
-0.00124202
0.00589713
8.53596e-07
0.000765326
1.60454e-06
0.00202521
5.56427e-07
0.00309573
-3.06113e-06
0.00397465
-8.99855e-06
0.00467423
-1.61673e-05
0.00521211
-2.28894e-05
0.00560704
-2.70991e-05
0.00587717
-2.65757e-05
0.00603911
-1.91064e-05
0.00610746
-2.60028e-06
0.00609474
2.48325e-05
0.00601151
6.48416e-05
0.00586672
0.000118822
0.00566808
0.000187913
0.00542242
0.000273014
0.005136
0.000374797
0.00481471
0.000493706
0.00446427
0.000629963
0.00409031
0.000783583
0.00369843
0.000954379
0.00329414
0.00114197
0.00288285
0.00134578
0.00246982
0.00156506
0.00206012
0.00179889
0.0016585
0.0020462
0.00126936
0.0023058
0.00089669
0.00257639
0.000543964
0.0028566
0.00021414
0.00314499
-9.03865e-05
0.00344014
-0.000367794
0.0037406
-0.000616817
0.00404498
-0.00083672
0.00435195
-0.00102724
0.00466029
-0.00118851
0.0049689
-0.00132086
0.00527682
-0.00142459
0.00558326
-0.00149952
0.00588752
-0.00154231
-0.00154327
0.00618878
3.19277e-06
0.000762133
9.63782e-06
0.00201877
1.68601e-05
0.00308851
2.3483e-05
0.00396802
2.92636e-05
0.00466845
3.48821e-05
0.00520649
4.16833e-05
0.00560024
5.14636e-05
0.00586739
6.6239e-05
0.00602433
8.8068e-05
0.00608564
0.00011892
0.00606389
0.000160589
0.00596984
0.000214654
0.00581265
0.000282448
0.00560028
0.000365049
0.00533982
0.000463302
0.00503775
0.000577821
0.00470019
0.000708995
0.00433309
0.000856986
0.00394232
0.00102175
0.00353366
0.00120306
0.00311283
0.00140048
0.00268543
0.00161339
0.00225691
0.00184099
0.00183252
0.00208232
0.00141716
0.0023363
0.00101539
0.00260169
0.000631293
0.0028772
0.000268455
0.00316144
-7.01011e-05
0.003453
-0.000381941
0.00375044
-0.000665233
0.00405235
-0.000918729
0.00435738
-0.00114174
0.00466423
-0.0013341
0.00497174
-0.00149602
0.00527887
-0.00162799
0.00558476
-0.00173048
0.00588871
-0.00180347
0.00619022
-0.00184383
-0.00184179
0.00648873
5.43924e-06
0.000756693
1.74325e-05
0.00200677
3.28083e-05
0.00307313
4.96388e-05
0.00395119
6.72152e-05
0.00465087
8.58178e-05
0.00518789
0.00010646
0.00557959
0.000130664
0.00584318
0.000160224
0.00599477
0.000197023
0.00604884
0.000242893
0.00601802
0.000299523
0.00591321
0.0003684
0.00574378
0.000450775
0.00551791
0.000547659
0.00524293
0.00065983
0.00492557
0.000787835
0.00457219
0.000931986
0.00418894
0.00109239
0.00378192
0.00126893
0.00335711
0.00146133
0.00292043
0.00166909
0.00247767
0.00189152
0.00203448
0.0021278
0.00159624
0.00237692
0.00116804
0.00263776
0.000754554
0.00290907
0.000359984
0.00318953
-1.20024e-05
0.00347775
-0.000358324
0.00377232
-0.000676518
0.00407184
-0.000964751
0.00437492
-0.00122181
0.00468024
-0.00144707
0.00498657
-0.00164043
0.0052928
-0.00180224
0.00559796
-0.00193315
0.00590127
-0.00203379
0.00620215
-0.00210435
0.00650029
-0.00214196
-0.00213693
0.00679543
7.56888e-06
0.000749124
2.49063e-05
0.00198944
4.82388e-05
0.0030498
7.51442e-05
0.00392429
0.000104483
0.00462153
0.000136154
0.00515622
0.000170845
0.0055449
0.00020979
0.00580424
0.000254553
0.00595001
0.000306826
0.00599656
0.000368287
0.00595656
0.000440499
0.005841
0.000524841
0.00565943
0.000622476
0.00542027
0.00073433
0.00513108
0.000861101
0.0047988
0.00100325
0.00443003
0.00116102
0.00403117
0.00133444
0.0036085
0.00152333
0.00316822
0.00172733
0.00271643
0.00194588
0.00225912
0.00217824
0.00180211
0.00242352
0.00135096
0.00268068
0.000910881
0.00294855
0.000486682
0.00322587
8.26669e-05
0.00351129
-0.000297424
0.00380343
-0.000650465
0.00410089
-0.000973977
0.00440228
-0.00126614
0.00470625
-0.00152578
0.00501154
-0.00175235
0.00531696
-0.00194585
0.00562148
-0.00210676
0.0059242
-0.00223587
0.00622444
-0.00233403
0.00652173
-0.00240165
0.00681593
-0.00243617
-0.0024281
0.00710711
9.56083e-06
0.000739563
3.19838e-05
0.00196701
6.2995e-05
0.00301879
9.97446e-05
0.00388754
0.000140704
0.00458057
0.000185413
0.00511151
0.000234235
0.00549608
0.000288121
0.00575035
0.000348386
0.00588974
0.000416519
0.00592843
0.000494027
0.00587905
0.000582332
0.00575269
0.000682692
0.00555907
0.000796161
0.0053068
0.000923572
0.00500367
0.00106553
0.00465685
0.00122241
0.00427316
0.00139435
0.00385923
0.00158131
0.00342154
0.00178304
0.00296649
0.00199909
0.00250038
0.00222883
0.00202938
0.00247147
0.00155948
0.00272604
0.00109639
0.00299145
0.000645466
0.00326651
0.000211628
0.0035499
-0.000200732
0.00384029
-0.000587811
0.00413628
-0.000946455
0.00443648
-0.00127418
0.00473953
-0.00156919
0.00504414
-0.00183038
0.00534907
-0.00205728
0.00565322
-0.00225
0.00595564
-0.00240917
0.0062555
-0.00253573
0.00655222
-0.00263075
0.00684545
-0.00269488
0.00713522
-0.00272594
-0.00271479
0.00742192
1.13956e-05
0.000728167
3.85953e-05
0.00193981
7.69323e-05
0.00298045
0.000123201
0.00384127
0.000175531
0.00452824
0.000233129
0.00505391
0.000296045
0.00543317
0.000364941
0.00568145
0.000440882
0.0058138
0.000525136
0.00584418
0.000619027
0.00578516
0.000723818
0.0056479
0.000840631
0.00544226
0.0009704
0.00517704
0.00111385
0.00486022
0.00127148
0.00449922
0.00144356
0.00410108
0.00163015
0.00367263
0.00183111
0.00322058
0.0020461
0.0027515
0.00227459
0.00227189
0.00251587
0.0017881
0.00276906
0.00130628
0.00303316
0.000832292
0.00330701
0.000371617
0.00358936
-7.07253e-05
0.00387889
-0.000490263
0.00417423
-0.000883149
0.00447399
-0.00124621
0.00477678
-0.00157698
0.0050813
-0.00187371
0.00538627
-0.00213536
0.00569055
-0.00236156
0.0059931
-0.00255256
0.00629304
-0.00270911
0.00658967
-0.00283235
0.00688247
-0.00292355
0.00717123
-0.00298364
0.00745613
-0.00301084
-0.00299653
0.00773786
1.3056e-05
0.000715111
4.46782e-05
0.00190819
8.99186e-05
0.00293521
0.000145291
0.0037859
0.000208638
0.0044649
0.000278859
0.00498369
0.000355707
0.00535632
0.000439559
0.0055976
0.000531218
0.00572214
0.000631727
0.00574367
0.000742208
0.00567468
0.000863754
0.00552636
0.000997335
0.00530868
0.00114375
0.00503062
0.00130361
0.00470036
0.0014773
0.00432553
0.00166497
0.0039134
0.00186659
0.00347101
0.00208192
0.00300526
0.00231051
0.00252291
0.00255176
0.00203065
0.00280485
0.00153501
0.00306886
0.00104228
0.00334268
0.000558475
0.0036251
8.9191e-05
0.00391484
-0.000360462
0.00421053
-0.000785951
0.00451078
-0.0011834
0.0048142
-0.00154964
0.00511944
-0.00188222
0.00542521
-0.00217947
0.00573031
-0.00244045
0.00603364
-0.0026649
0.00633427
-0.00285319
0.00663141
-0.00300625
0.00692444
-0.00312538
0.00721296
-0.00321208
0.00749688
-0.00326756
0.00777654
-0.0032905
-0.0032729
0.00805292
1.45277e-05
0.000700583
5.01793e-05
0.00187254
0.000101839
0.00288355
0.00016582
0.00372192
0.000239731
0.00439099
0.0003222
0.00490122
0.000412696
0.00526582
0.000511319
0.00549898
0.00061861
0.00561485
0.000735374
0.0056269
0.000862524
0.00554753
0.00100097
0.00538791
0.00115151
0.00515814
0.00131481
0.00486732
0.00149134
0.00452383
0.00168136
0.00413551
0.00188492
0.00370985
0.00210186
0.00325407
0.00233184
0.00277528
0.00257432
0.00228043
0.00282857
0.0017764
0.00309372
0.00126986
0.00336872
0.00076728
0.0036524
0.000274787
0.00394351
-0.000201912
0.00424067
-0.00065763
0.00454251
-0.00108779
0.00484761
-0.0014885
0.00515459
-0.00185661
0.00546211
-0.00218974
0.00576892
-0.00248628
0.00607388
-0.00274541
0.00637599
-0.00296701
0.0066744
-0.0031516
0.00696842
-0.00330026
0.00725753
-0.0034145
0.00754148
-0.00349602
0.00782025
-0.00354634
0.00809435
-0.00356461
-0.00354358
0.00836503
1.5799e-05
0.000684784
5.50552e-05
0.00183328
0.000112598
0.00282601
0.000184621
0.00364989
0.000268554
0.00430705
0.000362791
0.00480698
0.000466538
0.00516208
0.000579624
0.00538589
0.000702332
0.00549215
0.000835222
0.00549401
0.000978992
0.00540376
0.00113435
0.00523255
0.00130193
0.00499055
0.00148224
0.00468701
0.00167559
0.00433048
0.00188212
0.00392898
0.00210176
0.00349021
0.00233423
0.0030216
0.00257908
0.00253043
0.00283564
0.00202387
0.00310309
0.00150894
0.00338045
0.0009925
0.00366659
0.000481145
0.00396024
-1.88705e-05
0.00426008
-0.000501747
0.00456469
-0.000962238
0.00487263
-0.00139574
0.00518249
-0.00179836
0.00549287
-0.002167
0.00580248
-0.00249934
0.0061101
-0.0027939
0.00641467
-0.00304999
0.00671528
-0.00326762
0.00701117
-0.00344749
0.00730178
-0.00359087
0.00758671
-0.00369943
0.0078658
-0.00377511
0.00813918
-0.00381972
0.00840748
-0.00383291
-0.00380831
0.00867221
1.68613e-05
0.000667923
5.92738e-05
0.00179087
0.000122121
0.00276316
0.000201561
0.00357045
0.000294896
0.00421372
0.000400327
0.00470155
0.00051682
0.00504558
0.000643948
0.00525877
0.000781737
0.00535436
0.000930505
0.00534525
0.00109072
0.00524354
0.00126289
0.00506038
0.00144747
0.00480598
0.00164479
0.0044897
0.00185502
0.00412025
0.00207815
0.00370585
0.00231398
0.00325437
0.00256211
0.00277347
0.00282196
0.00227059
0.00309274
0.00175309
0.00337353
0.00122816
0.00366321
0.000702814
0.00396057
0.000183791
0.00426424
-0.000322547
0.00457282
-0.000810324
0.00488483
-0.00127425
0.00519879
-0.0017097
0.00551327
-0.00211284
0.00582688
-0.0024806
0.00613834
-0.0028108
0.00644652
-0.00310208
0.00675043
-0.0033539
0.00704926
-0.00356644
0.00734235
-0.00374059
0.00762928
-0.00387779
0.00790976
-0.00397992
0.00818378
-0.00404913
0.00845157
-0.00408751
0.0087139
-0.00409524
-0.00406694
0.00897253
1.77097e-05
0.000650213
6.28151e-05
0.00174576
0.00013036
0.00269561
0.000216543
0.00348427
0.000318598
0.00411166
0.000434569
0.00458558
0.000563211
0.00491694
0.000703856
0.00511812
0.000856282
0.00520193
0.00102056
0.00518096
0.00119694
0.00506716
0.00138572
0.00487161
0.00158714
0.00460455
0.00180138
0.00427546
0.00202845
0.00389318
0.00226818
0.00346611
0.00252024
0.00300232
0.00278409
0.00250962
0.00305901
0.00199567
0.00334409
0.001468
0.00363828
0.000933974
0.00394034
0.000400748
0.00424894
-0.000124808
0.00456263
-0.000636234
0.0048799
-0.00112759
0.00519921
-0.00159356
0.00551905
-0.00202955
0.00583796
-0.00243174
0.00615456
-0.00279721
0.00646763
-0.00312387
0.00677608
-0.00341054
0.00707904
-0.00365685
0.00737578
-0.00386318
0.00766579
-0.00403061
0.00794877
-0.00416076
0.00822459
-0.00425573
0.00849334
-0.00431788
0.0087554
-0.00434957
0.00901167
-0.00435151
-0.00431937
0.0092641
1.83432e-05
0.000631869
6.56722e-05
0.00169844
0.00013729
0.00262399
0.000229514
0.00339204
0.000339558
0.00400162
0.000465352
0.00445979
0.000605468
0.00477683
0.000759017
0.00496457
0.000925541
0.00503541
0.00110488
0.00500163
0.00129704
0.004875
0.0015021
0.00466654
0.00172014
0.00438651
0.00195113
0.00404447
0.00219491
0.0036494
0.00245117
0.00320985
0.00271942
0.00273407
0.00299898
0.00223006
0.00328898
0.00170567
0.00358838
0.0011686
0.00389598
0.000626376
0.00421042
8.63084e-05
0.00453023
-0.000444617
0.00485385
-0.000959858
0.00517969
-0.00145343
0.00550615
-0.00192002
0.00583165
-0.00235505
0.00615473
-0.00275482
0.00647404
-0.00311652
0.0067884
-0.00343823
0.00709681
-0.00371895
0.00739848
-0.00395852
0.00769283
-0.00415753
0.00797947
-0.00431726
0.00825825
-0.00443954
0.00852919
-0.00452667
0.00879253
-0.00458122
0.00904876
-0.00460581
0.00929891
-0.00460165
-0.00456559
0.00954513
1.87651e-05
0.000613104
6.78517e-05
0.00164935
0.000142917
0.00254893
0.000240461
0.0032945
0.000357733
0.00388435
0.000492589
0.00432493
0.000643447
0.00462597
0.000809222
0.0047988
0.000989228
0.0048554
0.00118307
0.00480778
0.00139055
0.00466752
0.00161152
0.00444557
0.00184586
0.00415218
0.00209334
0.00379699
0.00235365
0.00338909
0.00262631
0.00293719
0.00291066
0.00244971
0.00320587
0.00193485
0.00351091
0.00140063
0.00382459
0.000854917
0.00414555
0.000305416
0.00447229
-0.00024043
0.0048032
-0.000775527
0.00513661
-0.00129327
0.00547082
-0.00178764
0.00580417
-0.00225336
0.00613504
-0.00268593
0.00646197
-0.00308175
0.00678363
-0.00343818
0.00709891
-0.00375351
0.0074069
-0.00402694
0.00770692
-0.00425854
0.00799853
-0.00444914
0.00828151
-0.00460023
0.00855584
-0.00471388
0.00882171
-0.00479254
0.0090795
-0.00483901
0.00932986
-0.00485616
0.0095739
-0.0048457
-0.00480564
0.00981395
1.89825e-05
0.000594122
6.93747e-05
0.00159896
0.000147272
0.00247103
0.000249419
0.00319235
0.000373148
0.00376062
0.00051628
0.0041818
0.000677113
0.00446513
0.000854386
0.00462152
0.00104721
0.00466258
0.00125497
0.00460002
0.00147723
0.00444526
0.00171367
0.00420914
0.00196392
0.00390193
0.00222761
0.0035333
0.00250421
0.00311249
0.00279308
0.00264832
0.00309339
0.0021494
0.00340414
0.0016241
0.00372412
0.00108064
0.00405198
0.00052706
0.00438618
-2.87851e-05
0.00472506
-0.000579315
0.00506688
-0.00111734
0.00540983
-0.00163622
0.00575212
-0.00212994
0.00609202
-0.00259325
0.00642787
-0.00302179
0.00675823
-0.0034121
0.0070818
-0.00376175
0.00739755
-0.00406926
0.00770469
-0.00433408
0.00800266
-0.00455652
0.00829118
-0.00473766
0.00857018
-0.00487923
0.00883982
-0.00498351
0.00910044
-0.00505317
0.00935259
-0.00509116
0.00959703
-0.0051006
0.009835
-0.00508367
-0.00503961
0.010069
1.9007e-05
0.000575115
7.02762e-05
0.00154769
0.000150413
0.00239089
0.000256465
0.0030863
0.000385889
0.00363119
0.000536512
0.00403118
0.00070654
0.00429511
0.000894562
0.0044335
0.0010995
0.00445764
0.00132054
0.00437899
0.00155704
0.00420876
0.00180845
0.00395773
0.00207422
0.00363615
0.00235377
0.00325376
0.00264639
0.00281986
0.00295125
0.00234346
0.00326734
0.00183331
0.00359346
0.00129798
0.00392823
0.000745871
0.00427009
0.000185197
0.00461733
-0.000376028
0.00496812
-0.000930104
0.00532055
-0.00146977
0.00567269
-0.00198836
0.00602266
-0.0024799
0.00636864
-0.00293923
0.00670898
-0.00336213
0.00704224
-0.00374536
0.0073672
-0.00408671
0.00768291
-0.00438497
0.0079887
-0.00463987
0.00828418
-0.004852
0.00856922
-0.0050227
0.00884393
-0.00515394
0.00910863
-0.00524822
0.00936385
-0.00530838
0.00961027
-0.00533757
0.0098488
-0.00533912
0.0100808
-0.00531565
-0.0052676
0.0103088
1.88541e-05
0.00055626
7.06044e-05
0.00149594
0.000152428
0.00230907
0.000261722
0.00297701
0.00039611
0.00349681
0.000553459
0.00387383
0.000731913
0.00411665
0.000929941
0.00423547
0.0011463
0.00424129
0.00137997
0.00414531
0.00163013
0.0039586
0.00189602
0.00369185
0.00217688
0.00335529
0.00247194
0.0029587
0.00278029
0.00251151
0.00310089
0.00202286
0.00343253
0.00150167
0.00377381
0.000956701
0.00412315
0.000396538
0.00447876
-0.000170421
0.00483875
-0.000736017
0.00520109
-0.00129245
0.00556372
-0.0018324
0.00592457
-0.00234922
0.00628167
-0.00283699
0.00663315
-0.00329071
0.00697736
-0.00370634
0.0073129
-0.00408089
0.00763862
-0.00441244
0.0079537
-0.00470005
0.00825761
-0.00494378
0.00855012
-0.00514451
0.00883127
-0.00530385
0.00910136
-0.00542404
0.0093609
-0.00550776
0.00961057
-0.00555806
0.00985122
-0.00557822
0.0100839
-0.00557178
0.01031
-0.00554175
-0.00548979
0.0105322
1.85435e-05
0.000537717
7.04198e-05
0.00144406
0.000153428
0.00222606
0.000265354
0.00286508
0.000404026
0.00335813
0.000567379
0.00371047
0.00075353
0.0039305
0.000960847
0.00402816
0.00118794
0.00401419
0.00143364
0.00389961
0.00169689
0.00369534
0.00197676
0.00341198
0.0022723
0.00305975
0.0025825
0.0026485
0.00290627
0.00218775
0.00324233
0.00168679
0.00358927
0.00115474
0.00394544
0.000600526
0.00430904
3.2941e-05
0.00467806
-0.000539447
0.00505039
-0.00110834
0.0054238
-0.00166586
0.00579607
-0.00220467
0.00616501
-0.00271816
0.00652856
-0.00320054
0.00688482
-0.00364698
0.00723216
-0.00405368
0.00756923
-0.00441797
0.00789501
-0.00473821
0.00820879
-0.00501384
0.00851022
-0.00524521
0.00879925
-0.00543353
0.0090761
-0.0055807
0.00934126
-0.0056892
0.00959543
-0.00576192
0.00983945
-0.00580207
0.0100743
-0.00581309
0.0103012
-0.00579864
0.0105216
-0.00576214
-0.00570642
0.0107382
1.80986e-05
0.000519618
6.97941e-05
0.00139236
0.000153546
0.00214231
0.000267564
0.00275106
0.000409909
0.00321579
0.000578611
0.00354177
0.000771788
0.00373732
0.000987736
0.00381221
0.00122494
0.00377698
0.00148207
0.00364249
0.0017579
0.00341951
0.00205129
0.00311859
0.00236109
0.00274995
0.00268609
0.0023235
0.00302495
0.00184889
0.00337617
0.00133556
0.00373809
0.000792821
0.00410881
0.0002298
0.00448628
-0.000344525
0.00486825
-0.000921418
0.00525237
-0.00149246
0.00563622
-0.00204971
0.00601742
-0.00258587
0.00639367
-0.00309441
0.00676283
-0.0035697
0.00712301
-0.00400715
0.00747261
-0.00440328
0.00781038
-0.00475573
0.00813541
-0.00506325
0.00844718
-0.00532561
0.0087455
-0.00554353
0.00903051
-0.00571854
0.00930265
-0.00585284
0.00956259
-0.00594914
0.0098112
-0.00601053
0.0100495
-0.00604037
0.0102786
-0.0060422
0.0104998
-0.00601984
0.0107147
-0.00597703
-0.00591774
0.010926
1.75457e-05
0.000502072
6.88085e-05
0.0013411
0.000152938
0.00205818
0.00026859
0.00263541
0.000414081
0.0030703
0.000587563
0.00336829
0.000787178
0.00353771
0.00101117
0.00358821
0.00125793
0.00353023
0.00152597
0.00337445
0.0018139
0.00313157
0.00212039
0.0028121
0.00244408
0.00242627
0.00278353
0.00198406
0.00313715
0.00149527
0.00350319
0.000969519
0.00387971
0.0004163
0.00426455
-0.000155044
0.00465538
-0.000735352
0.0050497
-0.00131573
0.00544491
-0.00188767
0.00583841
-0.00244322
0.00622766
-0.00297512
0.00661026
-0.00347701
0.00698404
-0.00394348
0.00734713
-0.00437024
0.00769801
-0.00475416
0.00803553
-0.00509326
0.00835896
-0.00538668
0.00866795
-0.00563459
0.00896251
-0.00583809
0.00924298
-0.00599902
0.00951002
-0.00611987
0.00976447
-0.00620359
0.0100074
-0.00625344
0.0102399
-0.00627291
0.0104634
-0.00626564
0.0106791
-0.00623556
0.0108887
-0.00618668
-0.00612404
0.011095
1.69133e-05
0.000485158
6.75523e-05
0.00129046
0.000151775
0.00197396
0.000268698
0.00251849
0.000416909
0.00292209
0.000594701
0.0031905
0.000800267
0.00333214
0.00103182
0.00335666
0.00128766
0.00327439
0.00156617
0.00309594
0.0018658
0.00283194
0.00218502
0.00249288
0.00252225
0.00208904
0.0028758
0.00163051
0.00324383
0.00112724
0.0036243
0.000589048
0.00401497
2.5628e-05
0.00441339
-0.000553466
0.00481693
-0.00113889
0.00522283
-0.00172163
0.00562826
-0.0022931
0.00603043
-0.00284539
0.00642667
-0.00337136
0.0068145
-0.00386485
0.00719177
-0.00432074
0.00755663
-0.00473511
0.0079077
-0.00510522
0.00824396
-0.00542952
0.00856488
-0.0057076
0.0088703
-0.00594001
0.00916045
-0.00612824
0.00943589
-0.00627446
0.00969746
-0.00638144
0.0099462
-0.00645233
0.0101833
-0.00649056
0.0104101
-0.00649972
0.010628
-0.00648354
0.0108385
-0.00644602
0.0110433
-0.00639143
-0.00632572
0.0112449
1.6231e-05
0.000468927
6.61205e-05
0.00124057
0.00015024
0.00188984
0.000268173
0.00240055
0.000418787
0.00277147
0.000600537
0.00300875
0.00081168
0.003121
0.00105042
0.00311793
0.00131497
0.00300984
0.0016036
0.00280731
0.0019146
0.00252094
0.00224623
0.00216125
0.00259668
0.00173859
0.00296399
0.00126319
0.00334604
0.000745194
0.00374048
0.00019461
0.00414474
-0.000378635
0.00455606
-0.000964788
0.00497151
-0.00155434
0.00538805
-0.00213817
0.00580264
-0.00270769
0.00621231
-0.00325506
0.0066143
-0.00377334
0.00700609
-0.00425664
0.00738555
-0.0047002
0.00775095
-0.00510051
0.00810103
-0.0054553
0.00843498
-0.00576348
0.00875246
-0.00602507
0.00905353
-0.00624109
0.00933866
-0.00641337
0.0096086
-0.00654441
0.0098644
-0.00663724
0.0101073
-0.0066952
0.0103386
-0.00672186
0.0105598
-0.00672089
0.0107723
-0.00669607
0.0109777
-0.00665149
0.011178
-0.00659163
-0.00652354
0.0113758
1.55296e-05
0.000453397
6.46114e-05
0.00119149
0.000148525
0.00180592
0.000267312
0.00228176
0.000420133
0.00261865
0.00060561
0.00282327
0.00082208
0.00290453
0.00106774
0.00287227
0.00134074
0.00273684
0.00163923
0.00250882
0.00196134
0.00219884
0.00230511
0.00181748
0.00266848
0.00137522
0.0030492
0.000882473
0.00344482
0.000349569
0.00385267
-0.00021324
0.00426984
-0.000795806
0.00469324
-0.00138818
0.00511961
-0.00198072
0.00554567
-0.00256423
0.00596816
-0.00313018
0.00638398
-0.00367089
0.00679031
-0.00417967
0.00718463
-0.00465096
0.00756489
-0.00508046
0.0079295
-0.00546513
0.00827738
-0.00580317
0.00860793
-0.00609403
0.00892105
-0.00633818
0.00921703
-0.00653707
0.00949657
-0.0066929
0.00976063
-0.00680848
0.0100104
-0.00688705
0.0102474
-0.00693213
0.0104729
-0.00694739
0.0106886
-0.00693656
0.0108959
-0.00690344
0.0110966
-0.00685217
0.0112924
-0.00678745
-0.00671721
0.0114861
1.48397e-05
0.000438558
6.31241e-05
0.0011432
0.00014682
0.00172223
0.000266418
0.00216217
0.00042137
0.0024637
0.000610472
0.00263417
0.000832142
0.00268286
0.00108458
0.00261983
0.00136588
0.00245553
0.00167407
0.00220062
0.0020071
0.00186581
0.00236277
0.00146181
0.00273875
0.000999244
0.00313247
0.000488747
0.00354115
-5.91123e-05
0.00396175
-0.000633835
0.00439099
-0.00122505
0.00482545
-0.00182264
0.00526157
-0.00241684
0.00569583
-0.00299848
0.00612478
-0.00355914
0.00654524
-0.00409135
0.00695434
-0.00458877
0.00734965
-0.00504628
0.00772924
-0.00546005
0.00809168