/*--------------------------------*- C++ -*----------------------------------*\
  =========                 |
  \\      /  F ield         | OpenFOAM: The Open Source CFD Toolbox
   \\    /   O peration     | Website:  https://openfoam.org
    \\  /    A nd           | Version:  7
     \\/     M anipulation  |
\*---------------------------------------------------------------------------*/
FoamFile
{
    version     2.0;
    format      ascii;
    class       volVectorField;
    location    "3";
    object      U;
}
// * * * * * * * * * * * * * * * * * * * * * * * * * * * * * * * * * * * * * //

dimensions      [0 1 -1 0 0 0 0];

internalField   nonuniform List<vector> 
32000
(
(-0.000911837 0.0270332 -8.39924e-22)
(-0.00440355 0.072209 0)
(-0.010157 0.110622 -7.47899e-21)
(-0.0167691 0.142192 0)
(-0.023837 0.167541 7.79187e-21)
(-0.0309116 0.187489 0)
(-0.0376573 0.202852 8.0584e-21)
(-0.0438168 0.21436 -6.12748e-21)
(-0.049202 0.222634 2.64486e-24)
(-0.053682 0.228172 2.81456e-24)
(-0.0571721 0.23137 -2.11576e-21)
(-0.0596211 0.232537 8.53364e-21)
(-0.0610067 0.231917 0)
(-0.0613326 0.229712 -2.1692e-21)
(-0.0606189 0.226095 2.17822e-21)
(-0.0588961 0.221224 0)
(-0.0562053 0.215248 1.09915e-20)
(-0.0525942 0.208314 -2.20632e-21)
(-0.0481154 0.200565 0)
(-0.0428271 0.192148 4.44554e-21)
(-0.0367908 0.183207 4.43669e-21)
(-0.0300707 0.173883 0)
(-0.0227346 0.164314 0)
(-0.0148524 0.154635 0)
(-0.00649505 0.144969 0)
(0.00226654 0.135433 0)
(0.0113621 0.126134 0)
(0.0207221 0.117164 0)
(0.0302778 0.108607 -8.85037e-21)
(0.0399627 0.10053 0)
(0.0497134 0.0929923 8.80848e-21)
(0.0594697 0.0860363 0)
(0.0691752 0.0796948 0)
(0.0787786 0.0739908 0)
(0.0882326 0.0689387 -8.69171e-21)
(0.0974903 0.0645485 -4.34159e-21)
(0.106507 0.0608284 1.29605e-20)
(0.115258 0.0577863 -1.11953e-23)
(0.123722 0.0555245 8.56344e-21)
(0.131612 0.0542589 -1.41798e-23)
(-0.0013999 0.0277979 0)
(-0.00551771 0.0739782 1.45701e-20)
(-0.0115622 0.113076 3.74184e-21)
(-0.0182788 0.145105 -1.67523e-24)
(-0.0253204 0.170714 -3.90012e-21)
(-0.0322875 0.190743 0)
(-0.0388785 0.20603 8.02201e-21)
(-0.0448567 0.217324 -8.13715e-21)
(-0.0500454 0.225266 0)
(-0.0543207 0.230376 -1.67069e-20)
(-0.0576016 0.233066 0)
(-0.0598384 0.233664 -2.55537e-20)
(-0.0610089 0.232427 0)
(-0.0611149 0.229569 0)
(-0.0601749 0.225273 8.70153e-21)
(-0.0582191 0.219706 -8.72962e-21)
(-0.0552876 0.213025 -8.78761e-21)
(-0.0514277 0.205384 0)
(-0.046693 0.196935 2.64638e-20)
(-0.0411423 0.187831 -8.839e-21)
(-0.0348377 0.17822 -6.93579e-24)
(-0.0278455 0.168251 -2.65717e-20)
(-0.0202357 0.158067 -1.77189e-20)
(-0.0120794 0.147808 -8.88926e-21)
(-0.00344915 0.137603 2.65808e-20)
(0.0055805 0.127573 -2.65826e-20)
(0.014936 0.117829 2.65916e-20)
(0.0245459 0.108467 -3.53294e-20)
(0.0343401 0.0995707 -8.77267e-21)
(0.0442501 0.0912124 5.89109e-23)
(0.0542093 0.0834486 -2.63082e-20)
(0.0641563 0.0763236 -1.75084e-20)
(0.0740343 0.0698696 3.49223e-20)
(0.0837909 0.0641084 -3.47649e-20)
(0.0933776 0.0590531 -8.61501e-21)
(0.102749 0.0547124 -3.45272e-20)
(0.111861 0.0510962 2.25988e-23)
(0.120688 0.0482161 8.55662e-21)
(0.129211 0.0461826 -3.40293e-20)
(0.137144 0.0452281 -4.81243e-20)
(-0.00190922 0.0284379 -3.34106e-21)
(-0.00666403 0.0754507 -7.29148e-21)
(-0.0129857 0.115177 -3.3499e-20)
(-0.0197773 0.147649 0)
(-0.0267499 0.173525 3.88392e-21)
(-0.0335574 0.193659 -3.95004e-21)
(-0.039933 0.208902 -4.8164e-20)
(-0.045663 0.220018 1.63096e-20)
(-0.0505849 0.227666 -8.25479e-21)
(-0.0545861 0.232383 5.00303e-20)
(-0.0575878 0.234598 1.6853e-20)
(-0.0595405 0.234655 8.52662e-21)
(-0.0604235 0.232827 -3.42083e-20)
(-0.0602395 0.229339 0)
(-0.0590053 0.224385 0)
(-0.0567504 0.21814 1.74336e-20)
(-0.053516 0.21077 2.97974e-23)
(-0.0493494 0.202438 -1.75317e-20)
(-0.0443034 0.193301 -1.76256e-20)
(-0.0384389 0.183519 -3.51926e-20)
(-0.0318207 0.173249 5.29174e-20)
(-0.0245158 0.162643 5.37019e-23)
(-0.0165954 0.151853 1.68427e-23)
(-0.00813441 0.141022 1.76636e-20)
(0.000791884 0.130285 -3.54115e-20)
(0.0101072 0.119769 7.05927e-20)
(0.0197357 0.109587 0)
(0.0296035 0.0998394 1.76553e-20)
(0.0396379 0.0906132 1.76224e-20)
(0.0497679 0.0819805 3.5147e-20)
(0.0599263 0.0739991 5.87593e-23)
(0.0700504 0.0667138 0)
(0.0800825 0.0601558 1.73899e-20)
(0.0899693 0.0543453 -1.72584e-20)
(0.0996625 0.0492939 -1.71503e-20)
(0.109118 0.0450096 5.16633e-20)
(0.118292 0.0415014 -5.12249e-20)
(0.12716 0.0387845 3.41206e-20)
(0.135706 0.0369785 -5.0752e-20)
(0.143644 0.0363316 1.90704e-20)
(-0.00243557 0.0290056 2.66387e-20)
(-0.00783882 0.0767816 -2.90035e-20)
(-0.0144262 0.117072 5.94772e-20)
(-0.0212686 0.14995 0)
(-0.0281333 0.176081 2.32042e-20)
(-0.0347307 0.196324 3.93905e-20)
(-0.0408322 0.211534 8.08821e-21)
(-0.0462503 0.222493 8.43054e-24)
(-0.0508385 0.229869 2.46575e-20)
(-0.0544926 0.234215 -8.40868e-21)
(-0.0571402 0.235981 4.19781e-20)
(-0.0587363 0.235523 -5.08273e-20)
(-0.0592605 0.233127 5.1278e-20)
(-0.058715 0.22903 -1.72003e-20)
(-0.0571179 0.223438 1.7272e-20)
(-0.0544985 0.216535 -3.46691e-20)
(-0.0508973 0.208496 -5.22436e-20)
(-0.0463629 0.199489 1.74709e-20)
(-0.0409503 0.189681 -1.75443e-20)
(-0.0347214 0.179238 5.27383e-20)
(-0.0277425 0.168322 -3.5242e-20)
(-0.0200834 0.157093 -3.51281e-20)
(-0.011818 0.145709 0)
(-0.00302275 0.134318 0)
(0.00622445 0.123063 -3.51193e-20)
(0.0158441 0.112072 -3.52475e-20)
(0.0257576 0.101464 -3.50466e-20)
(0.0358889 0.0913418 0)
(0.0461637 0.0817957 0)
(0.056509 0.0728993 -6.9812e-20)
(0.0668565 0.0647115 -7.65278e-23)
(0.0771426 0.0572766 3.48176e-20)
(0.0873087 0.0506248 -3.45902e-20)
(0.0973016 0.0447746 -3.4541e-20)
(0.107074 0.0397356 3.45015e-20)
(0.116581 0.0355139 0)
(0.125783 0.0321179 3.41697e-20)
(0.134656 0.0295655 -6.78251e-20)
(0.143187 0.0279834 6.76002e-20)
(0.151089 0.0276371 -7.60801e-20)
(-0.00297318 0.0294512 -1.33377e-20)
(-0.00902976 0.0778473 2.1759e-20)
(-0.0158709 0.11863 -2.97039e-20)
(-0.0227388 0.151883 0)
(-0.0294594 0.178264 -3.86873e-20)
(-0.0358017 0.198629 -2.36427e-20)
(-0.0415748 0.213835 3.20129e-20)
(-0.0466193 0.224668 0)
(-0.0508076 0.231807 -4.93134e-20)
(-0.0540466 0.235822 -1.66542e-20)
(-0.0562704 0.237174 -1.68018e-20)
(-0.0574376 0.236233 3.38794e-20)
(-0.0575312 0.233301 -3.40641e-20)
(-0.0565547 0.228627 1.71291e-20)
(-0.0545257 0.222425 0)
(-0.0514744 0.214891 5.19855e-20)
(-0.0474431 0.206206 1.74411e-20)
(-0.0424815 0.196549 -3.48695e-20)
(-0.0366462 0.186091 6.98509e-20)
(-0.0300011 0.175007 -6.99736e-20)
(-0.0226156 0.163464 6.99545e-20)
(-0.0145615 0.151631 3.51274e-20)
(-0.00591473 0.139671 0)
(0.00324496 0.127739 3.50949e-20)
(0.0128363 0.11598 1.15641e-22)
(0.0227772 0.10453 0)
(0.0329872 0.0935107 3.50459e-20)
(0.0433879 0.0830295 -3.49488e-20)
(0.0539026 0.0731783 3.48031e-20)
(0.0644573 0.0640325 6.96473e-20)
(0.0749826 0.0556519 -6.93478e-20)
(0.0854143 0.0480804 6.91925e-20)
(0.0956934 0.041347 0)
(0.105767 0.0354678 0)
(0.115589 0.0304509 6.8433e-20)
(0.125117 0.0262993 0)
(0.134311 0.0230203 0)
(0.143151 0.0206332 -6.74604e-20)
(0.151626 0.019271 6.71837e-20)
(0.159453 0.0192161 3.78863e-20)
(-0.00351778 0.0298015 6.63392e-21)
(-0.0102286 0.0786994 0)
(-0.0173114 0.119903 5.91285e-20)
(-0.0241851 0.153492 7.56467e-21)
(-0.0307299 0.18011 7.72126e-21)
(-0.0367737 0.200604 4.70345e-20)
(-0.0421677 0.215823 6.37316e-20)
(-0.0467817 0.226555 0)
(-0.0505068 0.233489 1.63896e-20)
(-0.0532627 0.237204 4.96143e-20)
(-0.0549931 0.238174 6.68041e-20)
(-0.0556615 0.236784 -1.68696e-20)
(-0.0552535 0.233349 -5.08583e-20)
(-0.0537751 0.228127 0)
(-0.0512456 0.221346 6.85872e-20)
(-0.0476968 0.213209 0)
(-0.0431718 0.203907 1.0375e-19)
(-0.0377229 0.193626 -3.46924e-20)
(-0.0314093 0.182545 0)
(-0.0242977 0.170843 -3.48734e-20)
(-0.0164592 0.158699 -9.99843e-23)
(-0.00796876 0.146286 -3.47216e-20)
(0.00109419 0.133772 -3.48774e-20)
(0.0106468 0.12132 3.49359e-20)
(0.0206049 0.109079 -3.48444e-20)
(0.0308839 0.0971907 0)
(0.0414009 0.0857801 -3.48395e-20)
(0.0520753 0.0749586 3.47063e-20)
(0.0628285 0.0648204 0)
(0.0735855 0.0554427 0)
(0.0842763 0.0468857 0)
(0.0948361 0.0391928 -6.88922e-20)
(0.105206 0.0323914 6.85276e-20)
(0.115334 0.0264961 0)
(0.125176 0.0215117 -3.41356e-20)
(0.134691 0.0174387 0)
(0.143842 0.0142814 6.76077e-20)
(0.15261 0.0120601 -3.34831e-20)
(0.16099 0.010913 -6.69737e-20)
(0.168701 0.0111386 7.50524e-20)
(-0.00406359 0.0300421 4.62464e-20)
(-0.0114265 0.0793108 -6.47934e-20)
(-0.0187402 0.120855 -1.10734e-19)
(-0.0255989 0.154737 -6.02844e-20)
(-0.0319382 0.181579 -1.5395e-20)
(-0.0376463 0.202206 -3.13991e-20)
(-0.0426148 0.217456 -1.4322e-19)
(-0.046743 0.228116 -4.8337e-20)
(-0.0499449 0.234878 -8.16243e-20)
(-0.0521545 0.238329 -8.26965e-20)
(-0.0533243 0.238955 -1.16757e-19)
(-0.0534245 0.237154 -6.71697e-20)
(-0.0524461 0.233251 1.96015e-22)
(-0.0503976 0.227518 -6.8033e-20)
(-0.0473006 0.220192 -6.85856e-20)
(-0.0431887 0.211486 -1.03037e-19)
(-0.038108 0.2016 6.87441e-20)
(-0.0321136 0.190726 -3.4566e-20)
(-0.0252676 0.179052 0)
(-0.017639 0.166764 6.92678e-20)
(-0.00930229 0.154047 0)
(-0.000336069 0.141083 1.39008e-19)
(0.00917667 0.128044 0)
(0.01915 0.115098 -3.47756e-20)
(0.0294965 0.102401 3.49163e-20)
(0.0401292 0.0900989 -6.92947e-20)
(0.0509626 0.078321 0)
(0.0619141 0.0671822 -6.92313e-20)
(0.0729034 0.056779 6.89428e-20)
(0.0838545 0.0471899 0)
(0.0946972 0.0384755 0)
(0.105366 0.0306786 0)
(0.115804 0.0238251 -6.81034e-20)
(0.12596 0.0179275 0)
(0.135792 0.0129874 -6.78481e-20)
(0.145261 0.00900168 1.35021e-19)
(0.154332 0.00597149 -1.34448e-19)
(0.162989 0.00391637 6.66459e-20)
(0.171235 0.00297868 1.33207e-19)
(0.17879 0.0034721 -7.45533e-20)
(-0.00460663 0.0301754 -5.94615e-20)
(-0.0126152 0.0796784 1.4119e-22)
(-0.0201482 0.121482 5.89862e-20)
(-0.026975 0.155611 1.20426e-19)
(-0.0330836 0.182657 -1.53592e-20)
(-0.0384211 0.203419 -6.24503e-20)
(-0.0429211 0.218718 6.35678e-20)
(-0.0465139 0.229332 9.66853e-20)
(-0.0491366 0.235954 3.26844e-20)
(-0.0507384 0.239177 8.23069e-20)
(-0.0512833 0.239498 6.66256e-20)
(-0.05075 0.237324 1.00603e-19)
(-0.0491345 0.232993 2.0261e-19)
(-0.0464492 0.226787 1.01902e-19)
(-0.0427191 0.218955 0)
(-0.0379813 0.209717 3.43643e-20)
(-0.0322849 0.199284 3.41115e-20)
(-0.0256882 0.187853 3.43088e-20)
(-0.0182567 0.175621 6.9039e-20)
(-0.0100627 0.162783 -3.48246e-20)
(-0.00118434 0.149528 0)
(0.00829568 0.136045 -3.01885e-22)
(0.0182905 0.122513 -6.90407e-20)
(0.0287108 0.109105 6.90073e-20)
(0.0394661 0.0959824 1.38225e-19)
(0.0504666 0.0832956 1.3798e-19)
(0.0616247 0.0711788 -9.46706e-23)
(0.0728556 0.0597495 6.86541e-20)
(0.0840774 0.0491064 6.85148e-20)
(0.0952135 0.0393295 -6.83563e-20)
(0.106194 0.0304795 6.81791e-20)
(0.116953 0.0225984 6.79835e-20)
(0.127435 0.0157107 1.35872e-19)
(0.137592 0.00982616 -2.34364e-22)
(0.147382 0.00494312 2.02191e-19)
(0.156771 0.00105428 -9.71889e-23)
(0.165727 -0.00184319 -6.67384e-20)
(0.174236 -0.00373176 -6.67614e-20)
(0.182309 -0.00446653 6.61277e-20)
(0.189671 -0.00372083 7.39254e-20)
(-0.00514151 0.0302008 5.25835e-20)
(-0.0137859 0.0798016 7.17889e-20)
(-0.0215277 0.121777 4.40134e-20)
(-0.0283079 0.156103 -4.51181e-20)
(-0.0341641 0.183331 -7.65072e-20)
(-0.0391011 0.204226 6.24358e-20)
(-0.0430945 0.219587 0)
(-0.0461061 0.23018 6.41757e-20)
(-0.0480973 0.236694 0)
(-0.0490345 0.239727 -1.31498e-19)
(-0.0488943 0.239781 3.31884e-20)
(-0.0476648 0.237275 -1.67214e-19)
(-0.0453482 0.232557 -6.74373e-20)
(-0.0419625 0.225921 3.3661e-20)
(-0.0375369 0.217623 1.73896e-23)
(-0.0321126 0.207895 -3.41358e-20)
(-0.0257425 0.196954 -6.86165e-20)
(-0.0184889 0.185008 -1.37303e-19)
(-0.0104213 0.172258 0)
(-0.00161552 0.158908 -1.02097e-22)
(0.00784577 0.145154 -6.88449e-20)
(0.0178755 0.13119 -6.9048e-20)
(0.0283828 0.117202 6.9039e-20)
(0.0392746 0.103368 -6.92234e-20)
(0.0504573 0.089855 6.86309e-20)
(0.0618386 0.0768177 -1.37514e-19)
(0.0733284 0.0643943 -9.46912e-23)
(0.0848395 0.0527049 -1.37067e-19)
(0.0962891 0.0418505 -6.85132e-20)
(0.1076 0.0319123 9.32746e-23)
(0.118702 0.022951 -2.41959e-22)
(0.129532 0.0150077 -6.7982e-20)
(0.140035 0.00810549 -6.77682e-20)
(0.150164 0.0022509 -3.30677e-22)
(0.159883 -0.00256131 -6.72868e-20)
(0.169159 -0.00634284 -3.26611e-22)
(0.177964 -0.00910152 -6.65329e-20)
(0.186287 -0.0108231 1.98551e-19)
(0.194149 -0.0113621 -6.61265e-20)
(0.201282 -0.0103818 -7.37724e-20)
(-0.00566323 0.0301207 -5.25855e-20)
(-0.0149294 0.0796805 1.43049e-20)
(-0.0228708 0.121738 -4.40398e-20)
(-0.0295926 0.156206 -1.49773e-20)
(-0.0351788 0.183588 6.11955e-20)
(-0.03969 0.204609 -1.5561e-20)
(-0.0431435 0.220043 1.57957e-20)
(-0.0455332 0.230637 -9.62342e-20)
(-0.0468453 0.237075 3.24332e-20)
(-0.0470655 0.239954 6.56648e-20)
(-0.0461841 0.239782 0)
(-0.0441994 0.236986 1.33408e-19)
(-0.0411217 0.231925 0)
(-0.0369753 0.224901 -1.35024e-19)
(-0.0317951 0.216182 -6.77071e-20)
(-0.0256267 0.206009 0)
(-0.0185281 0.194605 0)
(-0.0105661 0.182186 1.3679e-19)
(-0.00181434 0.168964 6.85234e-20)
(0.00764689 0.155146 -1.37125e-19)
(0.01773 0.140936 6.85583e-20)
(0.0283429 0.126533 0)
(0.0393907 0.11213 -6.86268e-20)
(0.0507766 0.0979105 1.36754e-19)
(0.0624039 0.0840465 -6.84084e-20)
(0.074177 0.0706965 -6.84459e-20)
(0.0860034 0.0580023 6.82095e-20)
(0.0977943 0.0460868 0)
(0.109466 0.0350531 1.35929e-19)
(0.12094 0.0249831 -6.77784e-20)
(0.132148 0.0159375 -6.77482e-20)
(0.143028 0.00795641 -1.46346e-22)
(0.153527 0.00106068 2.68978e-19)
(0.163602 -0.00474575 -2.0114e-19)
(0.173218 -0.00947229 0)
(0.182349 -0.0131355 -6.66923e-20)
(0.190968 -0.0157487 -1.32619e-19)
(0.19907 -0.0173023 6.56726e-20)
(0.206683 -0.0176523 6.54856e-20)
(0.213552 -0.0164548 0)
(-0.00616735 0.029938 -1.04608e-19)
(-0.0160374 0.0793177 -1.42683e-20)
(-0.0241698 0.121365 1.16843e-19)
(-0.0308242 0.155914 -1.19437e-19)
(-0.0361273 0.183418 0)
(-0.0401923 0.204556 0)
(-0.0430776 0.220068 -3.15419e-20)
(-0.0448096 0.230683 -2.11064e-23)
(-0.0454008 0.237073 3.2355e-20)
(-0.0448566 0.239833 0)
(-0.0431821 0.239476 0)
(-0.0403877 0.236434 -3.33481e-20)
(-0.0364933 0.231074 5.60638e-24)
(-0.0315304 0.223709 3.37576e-20)
(-0.0255399 0.214616 6.77055e-20)
(-0.0185738 0.204044 0)
(-0.0106957 0.192225 6.80215e-20)
(-0.00197713 0.179382 -6.82366e-20)
(0.00750385 0.165734 -1.36463e-19)
(0.0176611 0.151496 1.3657e-19)
(0.0284015 0.136877 6.34953e-23)
(0.0396283 0.122082 -6.82633e-20)
(0.0512423 0.10731 6.83171e-20)
(0.0631427 0.0927496 -1.36544e-19)
(0.0752292 0.0785776 0)
(0.0874032 0.0649565 6.81192e-20)
(0.0995697 0.0520312 -1.35898e-19)
(0.111638 0.0399273 6.77542e-20)
(0.123524 0.0287493 -6.78435e-20)
(0.13515 0.0185799 -6.75911e-20)
(0.146448 0.00947942 -6.75603e-20)
(0.157357 0.00148675 2.68589e-19)
(0.167827 -0.00537949 -2.0083e-19)
(0.17782 -0.0111185 -1.33555e-19)
(0.187304 -0.0157436 1.3279e-19)
(0.196256 -0.0192767 0)
(0.204657 -0.0217373 1.31969e-19)
(0.212502 -0.0231215 -1.31142e-19)
(0.219833 -0.0232885 -6.54844e-20)
(0.226406 -0.0218903 0)
(-0.00664946 0.0296567 2.22011e-19)
(-0.0171016 0.0787193 9.95265e-20)
(-0.0254175 0.120661 -1.16842e-19)
(-0.0319985 0.155228 1.04517e-19)
(-0.037009 0.182816 -1.52298e-20)
(-0.0406123 0.204054 3.09513e-20)
(-0.0429068 0.219647 0)
(-0.0439513 0.230299 -3.19059e-20)
(-0.0437849 0.236667 3.22777e-20)
(-0.0424339 0.239343 3.26306e-20)
(-0.0399202 0.238839 -3.2916e-20)
(-0.0362671 0.235593 -3.31707e-20)
(-0.0315049 0.229981 3.33789e-20)
(-0.0256738 0.222323 0)
(-0.0188224 0.212905 0)
(-0.0110094 0.201984 -6.76091e-20)
(-0.00230451 0.1898 6.77685e-20)
(0.00721516 0.176584 -6.79012e-20)
(0.017466 0.162562 6.79563e-20)
(0.0283561 0.147954 6.80319e-20)
(0.0397863 0.132977 -1.36048e-19)
(0.0516547 0.11784 1.36019e-19)
(0.0638576 0.102749 8.1339e-23)
(0.0762901 0.0878957 -6.78658e-20)
(0.0888481 0.0734628 0)
(0.10143 0.0596157 6.77971e-20)
(0.113938 0.0465025 1.2563e-22)
(0.126281 0.0342509 -6.74299e-20)
(0.138373 0.0229668 0)
(0.150137 0.012733 1.34522e-19)
(0.161506 0.00360931 -1.3388e-19)
(0.172423 -0.00436686 0)
(0.182841 -0.0111792 1.33357e-19)
(0.192723 -0.0168301 -1.32621e-19)
(0.202045 -0.0213375 0)
(0.210789 -0.0247283 0)
(0.218938 -0.0270286 0)
(0.226496 -0.0282414 -1.30734e-19)
(0.233511 -0.028231 1.29896e-19)
(0.239759 -0.0266492 1.44197e-19)
(-0.00710587 0.0292822 -1.04336e-19)
(-0.018115 0.0778935 -1.13758e-19)
(-0.0266071 0.119631 -1.4559e-20)
(-0.033111 0.154148 4.46384e-20)
(-0.0378239 0.181778 -6.07e-20)
(-0.040955 0.203096 6.17857e-20)
(-0.0426411 0.218767 -6.27664e-20)
(-0.042974 0.229466 -9.53322e-20)
(-0.0420193 0.235836 0)
(-0.0398254 0.238458 -3.25487e-20)
(-0.0364316 0.237846 3.28334e-20)
(-0.0318761 0.23444 0)
(-0.0262007 0.228621 6.65686e-20)
(-0.0194552 0.220719 -6.69132e-20)
(-0.0116969 0.211026 -2.01328e-19)
(-0.00299249 0.199808 6.45258e-24)
(0.00658161 0.187312 1.35083e-19)
(0.0169425 0.173776 -6.76458e-20)
(0.0280001 0.159434 0)
(0.0396556 0.144511 0)
(0.0518042 0.12923 1.35219e-19)
(0.0643386 0.113805 6.77524e-20)
(0.0771502 0.0984467 -6.76406e-20)
(0.0901297 0.083353 -6.76544e-20)
(0.103169 0.0687093 1.35054e-19)
(0.116163 0.0546847 -6.73701e-20)
(0.129012 0.04143 1.34738e-19)
(0.141623 0.0290746 -2.68704e-19)
(0.153911 0.017725 2.68115e-19)
(0.165799 0.00746414 -2.67464e-19)
(0.177221 -0.00164898 2.66751e-19)
(0.188124 -0.00957872 -2.65974e-19)
(0.198465 -0.0163113 1.32425e-19)
(0.208211 -0.0218527 1.32251e-19)
(0.217342 -0.026225 2.67874e-22)
(0.225847 -0.0294608 2.56885e-22)
(0.233715 -0.031593 -1.30438e-19)
(0.240954 -0.032632 4.2816e-22)
(0.247624 -0.0324498 -1.29261e-19)
(0.253524 -0.0307009 0)
(-0.00753327 0.0288202 1.29912e-20)
(-0.0190709 0.0768505 -1.41733e-20)
(-0.0277325 0.118287 4.35626e-20)
(-0.034158 0.152682 -5.93711e-20)
(-0.0385715 0.180305 3.02667e-20)
(-0.0412246 0.201675 0)
(-0.0422907 0.217415 0)
(-0.0418935 0.228169 1.27143e-19)
(-0.0401258 0.234559 1.60523e-19)
(-0.0370586 0.237157 -3.24633e-20)
(-0.0327504 0.236473 1.63607e-19)
(-0.0272546 0.232948 -3.29965e-20)
(-0.0206262 0.226969 0)
(-0.0129258 0.218872 0)
(-0.00422033 0.208956 1.34152e-19)
(0.00541491 0.197493 0)
(0.0158962 0.18474 6.71028e-20)
(0.0271336 0.170941 -6.71756e-20)
(0.0390299 0.156335 0)
(0.0514795 0.141153 -1.34715e-19)
(0.0643714 0.125624 -6.77208e-20)
(0.0775926 0.109968 -2.02032e-19)
(0.0910292 0.0943985 -6.74223e-20)
(0.104567 0.0791188 6.72771e-20)
(0.118094 0.0643176 1.34155e-19)
(0.131503 0.0501671 0)
(0.14469 0.0368199 1.33691e-19)
(0.157563 0.024407 2.67269e-19)
(0.170035 0.0130351 2.64908e-22)
(0.182031 0.00278675 -1.3296e-19)
(0.193487 -0.00628012 -1.32879e-19)
(0.204354 -0.014132 1.32209e-19)
(0.214592 -0.0207578 1.32068e-19)
(0.224175 -0.0261672 -2.62951e-19)
(0.233087 -0.0303868 2.61983e-19)
(0.241324 -0.0334546 -1.30783e-19)
(0.248883 -0.0354104 1.29806e-19)
(0.255775 -0.0362733 2.58705e-19)
(0.262074 -0.035924 1.28436e-19)
(0.267603 -0.0340245 1.41757e-19)
(-0.00792904 0.0282777 -1.0354e-19)
(-0.0199638 0.0756029 9.87805e-20)
(-0.0287882 0.116639 -8.6784e-20)
(-0.0351358 0.150837 8.87029e-20)
(-0.0392515 0.178401 1.50909e-19)
(-0.0414252 0.199791 -1.22877e-19)
(-0.0418647 0.215585 1.5608e-19)
(-0.0407248 0.226395 9.48989e-20)
(-0.0381255 0.23282 -2.24413e-19)
(-0.034161 0.235419 6.46345e-20)
(-0.0289099 0.234696 3.23583e-20)
(-0.0224423 0.231093 6.58116e-20)
(-0.0148273 0.224999 6.60336e-20)
(-0.00613721 0.216755 -1.32882e-19)
(0.00355011 0.206667 1.33369e-19)
(0.0141502 0.195015 2.00683e-19)
(0.0255712 0.18206 -2.01519e-19)
(0.0377155 0.168055 2.68725e-19)
(0.0504779 0.153243 1.34213e-19)
(0.063746 0.137861 2.0195e-19)
(0.0774021 0.122143 6.69701e-20)
(0.091327 0.106314 1.34609e-19)
(0.105401 0.0905924 -1.33947e-19)
(0.119506 0.0751841 0)
(0.133525 0.0602814 -4.01684e-19)
(0.147348 0.0460588 2.67288e-19)
(0.160869 0.0326708 -1.33465e-19)
(0.173993 0.020249 -1.33172e-19)
(0.186635 0.00890001 -1.71804e-22)
(0.198722 -0.00129425 0)
(0.210192 -0.0102775 0)
(0.221 -0.0180186 1.31422e-19)
(0.23111 -0.0245096 -1.3144e-19)
(0.240504 -0.0297639 1.30715e-19)
(0.249171 -0.0338128 -1.30498e-19)
(0.257113 -0.0366996 -1.29988e-19)
(0.264336 -0.0384709 0)
(0.270855 -0.0391549 -1.28621e-19)
(0.276759 -0.0386433 -1.28225e-19)
(0.281898 -0.0366083 -4.23617e-19)
(-0.00829117 0.0276624 1.03523e-19)
(-0.0207894 0.0741652 -9.88441e-20)
(-0.0297698 0.114704 1.1574e-19)
(-0.036041 0.148627 -2.06834e-19)
(-0.0398632 0.176073 -1.50839e-19)
(-0.0415601 0.197444 1.22876e-19)
(-0.0413712 0.213272 -2.49379e-19)
(-0.0394814 0.224133 -1.26564e-19)
(-0.0360377 0.230603 1.60078e-19)
(-0.0311582 0.233224 -2.90838e-19)
(-0.0249421 0.232493 -1.95717e-19)
(-0.0174775 0.22885 -6.54924e-20)
(-0.00884842 0.222684 -1.98281e-19)
(0.000859938 0.214341 1.99247e-19)
(0.0115582 0.204133 -1.33366e-19)
(0.0231516 0.192345 -1.33729e-19)
(0.0355397 0.179245 0)
(0.0486161 0.165092 -1.34135e-19)
(0.0622675 0.150133 -2.01195e-19)
(0.076374 0.134613 6.69932e-20)
(0.090811 0.118767 -1.34171e-19)
(0.105453 0.102826 0)
(0.120174 0.0870115 1.33944e-19)
(0.134851 0.071534 1.33572e-19)
(0.149363 0.0565878 -1.32669e-19)
(0.163596 0.0423494 0)
(0.177442 0.0289742 0)
(0.190807 0.016594 0)
(0.203604 0.00531512 -5.85889e-22)
(0.215763 -0.00478188 0)
(0.227225 -0.0136427 -2.62859e-19)
(0.23795 -0.0212391 -4.38337e-22)
(0.247908 -0.0275664 -2.61223e-19)
(0.257085 -0.0326423 2.60476e-19)
(0.26548 -0.0365023 -1.29624e-19)
(0.273102 -0.039195 1.29546e-19)
(0.279963 -0.0407736 0)
(0.286088 -0.0412762 2.5664e-19)
(0.291573 -0.0406066 -1.274e-19)
(0.296308 -0.0384502 0)
(-0.00861835 0.0269824 1.28927e-20)
(-0.0215443 0.0725536 0)
(-0.0306733 0.1125 -1.44055e-19)
(-0.0368705 0.146067 1.77029e-19)
(-0.0404057 0.173332 9.01124e-20)
(-0.0416314 0.19464 -1.22335e-19)
(-0.0408165 0.210475 1.24551e-19)
(-0.0381746 0.221378 -1.26008e-19)
(-0.0338794 0.227896 0)
(-0.0280732 0.230556 1.29113e-19)
(-0.0208763 0.229844 -1.2993e-19)
(-0.0123957 0.226194 3.08972e-22)
(-0.00273119 0.219998 0)
(0.00801812 0.211603 1.32187e-19)
(0.0197506 0.201325 -6.62545e-20)
(0.0323605 0.189456 1.32913e-19)
(0.0457376 0.176268 6.64657e-20)
(0.0597666 0.162025 -1.33286e-19)
(0.0743253 0.14698 0)
(0.0892859 0.131381 2.00044e-19)
(0.104516 0.115469 6.64855e-20)
(0.119885 0.0994781 0)
(0.135259 0.0836336 0)
(0.15051 0.0681482 0)
(0.165512 0.0532184 1.33019e-19)
(0.180148 0.0390221 0)
(0.194309 0.0257152 -1.32343e-19)
(0.207899 0.0134289 2.63899e-19)
(0.220833 0.0022689 -2.63429e-19)
(0.233043 -0.00768619 0)
(0.244475 -0.0163848 1.31212e-19)
(0.255092 -0.0238018 -1.30236e-19)
(0.264872 -0.0299364 1.30393e-19)
(0.273807 -0.0348101 0)
(0.281904 -0.0384632 0)
(0.289181 -0.0409489 1.28757e-19)
(0.295658 -0.0423273 -1.27972e-19)
(0.301366 -0.042646 2.55228e-19)
(0.306416 -0.0418221 -2.53592e-19)
(0.310733 -0.0395573 0)
(-0.00890994 0.0262465 8.98799e-20)
(-0.0222262 0.0707856 2.80439e-20)
(-0.0314955 0.110045 1.15206e-19)
(-0.0376214 0.143175 1.17536e-19)
(-0.0408771 0.170194 -1.20173e-19)
(-0.0416399 0.191389 1.22334e-19)
(-0.0402049 0.207199 1.24013e-19)
(-0.0368133 0.218126 1.26007e-19)
(-0.0316646 0.224692 0)
(-0.0249253 0.227402 1.28544e-19)
(-0.0167377 0.22673 1.29929e-19)
(-0.00722795 0.223106 1.30847e-19)
(0.0034874 0.216917 0)
(0.0152946 0.208515 -3.26516e-22)
(0.028079 0.198217 1.32634e-19)
(0.0417233 0.186318 -6.65981e-20)
(0.0561067 0.173098 -6.68938e-20)
(0.0711038 0.158824 1.99803e-19)
(0.0865836 0.143753 -3.46953e-23)
(0.10241 0.128138 -6.69805e-20)
(0.118443 0.112223 -1.33202e-19)
(0.134543 0.0962452 0)
(0.150571 0.0804336 0)
(0.166394 0.0650028 0)
(0.181881 0.0501508 0)
(0.19691 0.0360559 0)
(0.211372 0.0228739 0)
(0.225169 0.0107353 1.31504e-19)
(0.23822 -0.000255925 -1.30956e-19)
(0.250458 -0.0100237 0)
(0.261834 -0.0185197 0)
(0.272317 -0.0257224 1.30233e-19)
(0.281892 -0.031635 0)
(0.29056 -0.0362831 1.29185e-19)
(0.298334 -0.0397114 -1.28446e-19)
(0.305242 -0.0419779 0)
(0.311314 -0.043149 2.55212e-19)
(0.316587 -0.0432816 -2.53615e-19)
(0.321185 -0.042307 0)
(0.325077 -0.0399455 0)
(-0.00916599 0.0254637 -1.02762e-19)
(-0.022834 0.0688796 -2.80163e-20)
(-0.0322343 0.107362 2.86874e-20)
(-0.0382907 0.139974 -1.17536e-19)
(-0.0412749 0.166677 0)
(-0.0415846 0.187705 0)
(-0.0395382 0.203451 -9.3033e-20)
(-0.0354026 0.214381 -3.13912e-20)
(-0.0294028 0.220986 -6.35567e-20)
(-0.0217292 0.223752 -6.43422e-20)
(-0.0125461 0.223138 -6.47332e-20)
(-0.00199955 0.219566 6.52156e-20)
(0.00977674 0.213421 6.54432e-20)
(0.0226536 0.205053 -6.59805e-20)
(0.0365026 0.194782 0)
(0.0511942 0.182906 0)
(0.0665962 0.169709 -1.32787e-19)
(0.0825729 0.155461 0)
(0.0989834 0.140425 0)
(0.115683 0.124854 1.32202e-19)
(0.132522 0.108999 -2.60278e-23)
(0.149356 0.0930987 -2.23769e-22)
(0.166037 0.077384 -1.32214e-19)
(0.182425 0.0620714 1.31929e-19)
(0.198386 0.0473594 1.3148e-19)
(0.213795 0.0334263 -1.31209e-19)
(0.228539 0.020427 0)
(0.242523 0.00849064 1.30966e-19)
(0.255667 -0.00228127 2.22382e-22)
(0.267907 -0.0118159 -1.30059e-19)
(0.2792 -0.0200687 0)
(0.289521 -0.0270223 0)
(0.298864 -0.032684 1.2908e-19)
(0.307237 -0.0370836 -1.28369e-19)
(0.314664 -0.0402701 -1.28118e-19)
(0.321181 -0.0423062 1.2736e-19)
(0.326829 -0.0432637 0)
(0.331652 -0.0432088 0)
(0.335786 -0.0420872 0)
(0.339247 -0.0396397 -1.37006e-19)
(-0.00938717 0.0246431 1.27888e-19)
(-0.0233676 0.0668549 -5.58633e-20)
(-0.0328878 0.104475 2.86218e-20)
(-0.0388752 0.136487 0)
(-0.0415956 0.162802 1.49288e-19)
(-0.0414622 0.183604 2.91533e-23)
(-0.0388148 0.199243 1.23515e-19)
(-0.0339438 0.210148 -9.40068e-20)
(-0.0270988 0.21678 1.26835e-19)
(-0.0184936 0.219603 -6.40659e-20)
(-0.00831483 0.219059 0)
(0.0032717 0.215563 6.50328e-20)
(0.0161143 0.209492 -1.96418e-19)
(0.0300678 0.201197 0)
(0.0449896 0.190997 1.97503e-19)
(0.0607371 0.179193 -1.31986e-19)
(0.0771662 0.166073 -1.32248e-19)
(0.0941297 0.151908 6.61917e-20)
(0.111477 0.136965 0)
(0.129052 0.121502 -1.32433e-19)
(0.1467 0.105769 -1.32088e-19)
(0.164264 0.0900106 -2.06775e-22)
(0.181591 0.0744573 1.31507e-19)
(0.198535 0.0593267 1.31537e-19)
(0.214955 0.0448176 -2.62669e-19)
(0.230724 0.0311071 1.31206e-19)
(0.245729 0.0183489 0)
(0.259874 0.00666962 -1.30104e-19)
(0.273082 -0.00383232 1.2976e-19)
(0.285295 -0.0130882 1.29394e-19)
(0.296474 -0.0210578 -1.29005e-19)
(0.306604 -0.027728 1.2859e-19)
(0.315686 -0.0331106 0)
(0.323738 -0.03724 1.28061e-19)
(0.330794 -0.040169 2.54967e-19)
(0.3369 -0.0419646 -2.53609e-19)
(0.342106 -0.0427038 2.52908e-19)
(0.346467 -0.0424609 3.85149e-22)
(0.350127 -0.0411965 -1.25236e-19)
(0.353155 -0.0386735 2.72877e-19)
(-0.00957472 0.0237938 -7.67075e-20)
(-0.0238276 0.0647309 -1.67097e-19)
(-0.0334546 0.101409 1.14132e-19)
(-0.0393715 0.132741 -8.7558e-20)
(-0.041834 0.158594 -3.00872e-20)
(-0.0412674 0.179109 3.03393e-20)
(-0.0380296 0.194593 -6.17899e-20)
(-0.0324334 0.20544 -6.2521e-20)
(-0.0247513 0.21208 6.32932e-20)
(-0.0152204 0.214955 -1.27861e-19)
(-0.00404913 0.214489 2.74324e-23)
(0.00857671 0.211086 6.49376e-20)
(0.0224872 0.205118 0)
(0.0375205 0.19693 -6.55069e-20)
(0.0535194 0.186843 -6.58599e-20)
(0.0703278 0.17516 1.31913e-19)
(0.0877886 0.162167 0)
(0.105743 0.148141 0)
(0.124028 0.13335 1.31878e-19)
(0.14248 0.118055 -1.31894e-19)
(0.160931 0.102508 0)
(0.179219 0.0869543 1.31506e-19)
(0.197181 0.0716268 -1.31487e-19)
(0.214664 0.0567425 -2.62105e-19)
(0.231524 0.042499 -9.49377e-23)
(0.247629 0.0290722 1.3073e-19)
(0.262867 0.0166133 -2.60065e-19)
(0.277143 0.00524584 1.30101e-19)
(0.290383 -0.00493608 -1.29757e-19)
(0.302535 -0.0138684 -1.41096e-22)
(0.313568 -0.0215157 3.67722e-22)
(0.323475 -0.0278696 -1.28587e-19)
(0.332266 -0.0329467 -1.27628e-19)
(0.33997 -0.0367854 -1.27151e-19)
(0.346631 -0.039443 -5.30355e-22)
(0.352306 -0.0409899 0)
(0.357055 -0.0415074 -1.25534e-19)
(0.360943 -0.0410776 2.50583e-19)
(0.364125 -0.0396757 -3.73837e-19)
(0.36672 -0.0370876 3.6389e-23)
(-0.00973041 0.0229248 -2.54767e-20)
(-0.0242154 0.0625272 2.22471e-19)
(-0.0339339 0.0981872 -1.14167e-19)
(-0.0397757 0.128761 8.75859e-20)
(-0.0419839 0.15408 -2.38056e-19)
(-0.040992 0.174244 3.02753e-20)
(-0.0371739 0.189522 -1.22984e-19)
(-0.0308626 0.200273 0)
(-0.0223528 0.206899 0)
(-0.0119038 0.209815 -1.27487e-19)
(0.00025455 0.20943 6.43253e-20)
(0.0139164 0.206134 -1.2226e-22)
(0.0288935 0.200291 6.51619e-20)
(0.0450071 0.192243 0)
(0.0620844 0.182308 -1.96587e-19)
(0.0799554 0.170789 6.57601e-20)
(0.0984493 0.157973 -1.31417e-19)
(0.117394 0.144139 0)
(0.136616 0.129558 0)
(0.15594 0.11449 1.32156e-22)
(0.175188 0.0991916 -1.31351e-19)
(0.194186 0.0839069 1.30911e-19)
(0.212767 0.0688694 -1.30883e-19)
(0.230768 0.054295 1.30601e-19)
(0.248041 0.0403798 2.60332e-22)
(0.264452 0.0272972 2.75091e-22)
(0.279889 0.0151953 1.29951e-19)
(0.29426 0.00419314 -1.2916e-19)
(0.307496 -0.00562 0)
(0.319549 -0.0141855 -1.28757e-19)
(0.330399 -0.0214732 1.28143e-19)
(0.340048 -0.0274799 0)
(0.348517 -0.0322269 1.27626e-19)
(0.355845 -0.0357571 -1.2685e-19)
(0.362088 -0.0381313 1.25903e-19)
(0.367314 -0.0394234 0)
(0.371594 -0.039718 3.76237e-19)
(0.375001 -0.0391043 -2.49136e-19)
(0.377702 -0.0375715 0)
(0.379868 -0.0349287 1.3505e-19)
(-0.00985644 0.0220448 2.03105e-19)
(-0.0245332 0.0602632 -1.11109e-19)
(-0.0343248 0.0948369 -2.84656e-20)
(-0.0400833 0.124579 2.90755e-20)
(-0.0420371 0.149291 1.18884e-19)
(-0.0406249 0.169038 0)
(-0.0362344 0.184056 1.22984e-19)
(-0.0292172 0.194671 1.86606e-19)
(-0.0198887 0.201254 6.30261e-20)
(-0.0085296 0.204197 6.38159e-20)
(0.00460948 0.203891 6.42263e-20)
(0.0193028 0.200711 -1.94062e-19)
(0.0353434 0.195013 6.50285e-20)
(0.0525357 0.187132 2.60767e-19)
(0.0706907 0.177385 6.56352e-20)
(0.0896235 0.166071 6.56113e-20)
(0.109149 0.15348 1.31415e-19)
(0.129082 0.139891 0)
(0.149236 0.125574 0)
(0.169421 0.110794 2.62339e-19)
(0.189452 0.0958039 -5.2339e-19)
(0.209144 0.0808508 -1.56852e-22)
(0.228319 0.0661665 0)
(0.24681 0.051965 0)
(0.264463 0.0384397 1.30123e-19)
(0.281143 0.0257608 0)
(0.29674 0.0140719 0)
(0.311163 0.00348691 -1.28274e-19)
(0.324351 -0.00591088 -2.56691e-19)
(0.336264 -0.0140687 0)
(0.346891 -0.0209622 -2.55082e-19)
(0.356245 -0.0265935 -5.09092e-19)
(0.364359 -0.0309886 2.5354e-19)
(0.371284 -0.034195 -2.52291e-19)
(0.377087 -0.0362767 2.51936e-19)
(0.381847 -0.0373103 -2.50446e-19)