/*--------------------------------*- C++ -*----------------------------------*\
  =========                 |
  \\      /  F ield         | OpenFOAM: The Open Source CFD Toolbox
   \\    /   O peration     | Website:  https://openfoam.org
    \\  /    A nd           | Version:  7
     \\/     M anipulation  |
\*---------------------------------------------------------------------------*/
FoamFile
{
    version     2.0;
    format      ascii;
    class       volScalarField;
    location    "1.1";
    object      p;
}
// * * * * * * * * * * * * * * * * * * * * * * * * * * * * * * * * * * * * * //

dimensions      [0 2 -2 0 0 0 0];

internalField   nonuniform List<scalar> 
18000
(
2.52901
2.53006
2.53287
2.53578
2.53894
2.5429
2.54822
2.55513
2.56351
2.57299
2.5831
2.59344
2.60365
2.6135
2.62286
2.63167
2.63993
2.64769
2.65503
2.66202
2.66872
2.67517
2.68142
2.6875
2.69346
2.69932
2.70513
2.71089
2.71664
2.7223
2.51745
2.51888
2.52176
2.52465
2.52764
2.53136
2.53644
2.54316
2.55141
2.56082
2.57091
2.58124
2.59145
2.6013
2.61063
2.6194
2.62761
2.63531
2.64256
2.64945
2.65603
2.66236
2.66847
2.67441
2.68021
2.68592
2.69155
2.69714
2.70269
2.70815
2.5057
2.50756
2.51055
2.51342
2.51625
2.51973
2.52457
2.53109
2.53921
2.54854
2.5586
2.56892
2.57912
2.58894
2.59824
2.60696
2.6151
2.62272
2.62988
2.63667
2.64313
2.64931
2.65528
2.66106
2.66671
2.67224
2.6777
2.6831
2.68846
2.6937
2.49387
2.49616
2.49925
2.5021
2.50478
2.50804
2.51264
2.51896
2.52694
2.53619
2.54621
2.5565
2.56667
2.57646
2.58571
2.59436
2.60242
2.60995
2.61701
2.62368
2.63
2.63605
2.64185
2.64748
2.65295
2.65831
2.66358
2.66879
2.67394
2.67898
2.48201
2.4847
2.48788
2.49072
2.49325
2.49629
2.50066
2.50679
2.51464
2.5238
2.53376
2.544
2.55413
2.56387
2.57305
2.58162
2.58959
2.59701
2.60396
2.6105
2.61669
2.62257
2.62822
2.63367
2.63897
2.64414
2.64922
2.65423
2.65917
2.66398
2.47011
2.47321
2.47648
2.47931
2.48169
2.48451
2.48867
2.49462
2.50232
2.51139
2.52127
2.53146
2.54154
2.5512
2.5603
2.56876
2.57663
2.58394
2.59076
2.59716
2.60319
2.60891
2.61439
2.61966
2.62478
2.62976
2.63464
2.63943
2.64414
2.64873
2.45821
2.4617
2.46506
2.46786
2.47011
2.47273
2.47668
2.48245
2.49001
2.49898
2.50879
2.5189
2.5289
2.53847
2.54746
2.55582
2.56356
2.57074
2.57742
2.58366
2.58953
2.59508
2.60038
2.60547
2.61039
2.61517
2.61984
2.62441
2.6289
2.63324
2.44631
2.45018
2.45361
2.4564
2.45851
2.46095
2.4647
2.4703
2.47773
2.48659
2.49631
2.50634
2.51623
2.5257
2.53457
2.5428
2.5504
2.55743
2.56396
2.57004
2.57573
2.5811
2.58621
2.59111
2.59583
2.6004
2.60485
2.6092
2.61344
2.61754
2.43443
2.43864
2.44215
2.44491
2.4469
2.44917
2.45275
2.45819
2.46549
2.47424
2.48386
2.49378
2.50356
2.51289
2.52163
2.52971
2.53716
2.54404
2.55039
2.5563
2.56181
2.56699
2.5719
2.5766
2.58111
2.58547
2.58969
2.5938
2.5978
2.60165
2.42255
2.42711
2.43068
2.43342
2.43529
2.43739
2.44081
2.44612
2.45331
2.46195
2.47145
2.48124
2.49088
2.50007
2.50865
2.51658
2.52387
2.53057
2.53674
2.54245
2.54777
2.55276
2.55747
2.56196
2.56625
2.57039
2.57437
2.57824
2.58199
2.58558
2.41069
2.41557
2.41919
2.4219
2.42366
2.42563
2.42891
2.4341
2.44117
2.4497
2.45908
2.46874
2.47822
2.48724
2.49565
2.5034
2.51051
2.51703
2.52301
2.52853
2.53364
2.53842
2.54293
2.5472
2.55128
2.55518
2.55892
2.56254
2.56604
2.56936
2.39884
2.40401
2.40768
2.41036
2.41202
2.41386
2.41703
2.42212
2.4291
2.43752
2.44676
2.45626
2.46558
2.47442
2.48264
2.4902
2.49712
2.50344
2.50922
2.51453
2.51944
2.52401
2.5283
2.53235
2.5362
2.53986
2.54336
2.54673
2.54996
2.55301
2.38699
2.39244
2.39614
2.39878
2.40035
2.40209
2.40518
2.41019
2.41708
2.42539
2.4345
2.44383
2.45296
2.4616
2.46962
2.47698
2.48369
2.4898
2.49537
2.50047
2.50516
2.50952
2.51359
2.51742
2.52103
2.52445
2.5277
2.53082
2.53379
2.53656
2.37513
2.38085
2.38457
2.38717
2.38866
2.39032
2.39335
2.39831
2.40512
2.41332
2.42228
2.43143
2.44036
2.44879
2.4566
2.46374
2.47023
2.47612
2.48147
2.48636
2.49083
2.49497
2.49882
2.50242
2.5058
2.50898
2.51198
2.51484
2.51754
2.52003
2.36325
2.36922
2.37296
2.37551
2.37693
2.37855
2.38154
2.38646
2.39322
2.4013
2.41011
2.41908
2.4278
2.436
2.44358
2.45049
2.45676
2.46242
2.46755
2.47221
2.47647
2.48038
2.48401
2.48738
2.49052
2.49345
2.49621
2.49881
2.50125
2.50346
2.35135
2.35755
2.36129
2.3638
2.36517
2.36676
2.36975
2.37466
2.38136
2.38934
2.39799
2.40677
2.41526
2.42323
2.43057
2.43724
2.44327
2.4487
2.4536
2.45803
2.46207
2.46576
2.46916
2.4723
2.47521
2.4779
2.48041
2.48276
2.48493
2.48686
2.33941
2.34583
2.34957
2.35204
2.35337
2.35495
2.35797
2.36289
2.36955
2.37744
2.38593
2.3945
2.40276
2.41049
2.41757
2.424
2.42978
2.43497
2.43964
2.44384
2.44765
2.45112
2.45429
2.4572
2.45988
2.46233
2.4646
2.46671
2.46862
2.47027
2.32742
2.33406
2.33778
2.34022
2.34153
2.34314
2.34621
2.35116
2.3578
2.36559
2.37391
2.38227
2.39029
2.39776
2.40459
2.41076
2.41629
2.42124
2.42567
2.42964
2.43322
2.43646
2.43941
2.4421
2.44454
2.44677
2.44881
2.45068
2.45234
2.45372
2.31538
2.32223
2.32594
2.32834
2.32965
2.33131
2.33446
2.33946
2.34609
2.35379
2.36195
2.37009
2.37786
2.38507
2.39163
2.39753
2.40281
2.40751
2.4117
2.41544
2.41879
2.42181
2.42453
2.427
2.42922
2.43123
2.43304
2.43469
2.43611
2.43723
2.30329
2.31034
2.31403
2.31641
2.31773
2.31948
2.32273
2.32781
2.33443
2.34205
2.35005
2.35796
2.36547
2.37241
2.37869
2.38433
2.38934
2.3938
2.39774
2.40125
2.40437
2.40716
2.40966
2.41191
2.41393
2.41573
2.41734
2.41877
2.41996
2.42085
2.29115
2.29839
2.30205
2.30441
2.30578
2.30764
2.31102
2.31619
2.32283
2.33036
2.33819
2.34588
2.35313
2.35979
2.36579
2.37115
2.3759
2.3801
2.3838
2.38706
2.38995
2.39252
2.39481
2.39685
2.39867
2.40028
2.40169
2.40294
2.40393
2.40461
2.27894
2.28638
2.29001
2.29237
2.2938
2.2958
2.29934
2.30462
2.31128
2.31873
2.3264
2.33385
2.34083
2.34721
2.35293
2.35801
2.36249
2.36643
2.36988
2.3729
2.37556
2.3779
2.37998
2.38182
2.38345
2.38488
2.38613
2.38721
2.38804
2.38855
2.26669
2.27431
2.27791
2.28028
2.28181
2.28398
2.28771
2.29311
2.2998
2.30717
2.31466
2.32188
2.32859
2.33468
2.34011
2.3449
2.34911
2.35278
2.35598
2.35876
2.36118
2.3633
2.36517
2.36682
2.36827
2.36954
2.37065
2.3716
2.3723
2.3727
2.25438
2.26219
2.26576
2.26815
2.2698
2.27218
2.27612
2.28167
2.28839
2.29567
2.30299
2.30997
2.31641
2.3222
2.32734
2.33184
2.33577
2.33918
2.34211
2.34464
2.34682
2.34871
2.35037
2.35182
2.35311
2.35424
2.35523
2.35609
2.35672
2.3571
2.24204
2.25002
2.25356
2.256
2.25781
2.26042
2.2646
2.2703
2.27705
2.28426
2.2914
2.29814
2.3043
2.3098
2.31463
2.31884
2.32249
2.32561
2.32828
2.33055
2.33248
2.33414
2.33558
2.33684
2.33795
2.33895
2.33985
2.34066
2.34129
2.34173
2.22966
2.23782
2.24134
2.24384
2.24584
2.24872
2.25315
2.25902
2.26581
2.27292
2.27989
2.28639
2.29227
2.29747
2.302
2.30591
2.30926
2.3121
2.31449
2.31649
2.31816
2.31957
2.32078
2.32183
2.32277
2.32364
2.32447
2.32526
2.32596
2.32659
2.21727
2.2256
2.2291
2.23169
2.23391
2.23709
2.24179
2.24783
2.25466
2.26169
2.26847
2.27473
2.28033
2.28523
2.28945
2.29306
2.29611
2.29866
2.30075
2.30246
2.30386
2.305
2.30596
2.30678
2.30752
2.30825
2.309
2.30981
2.31063
2.31164
2.20489
2.21338
2.21687
2.21958
2.22205
2.22555
2.23055
2.23676
2.24362
2.25057
2.25717
2.26318
2.26849
2.27309
2.27701
2.28031
2.28305
2.28529
2.28708
2.28849
2.28958
2.29043
2.2911
2.29165
2.29214
2.29267
2.29332
2.29416
2.29522
2.29687
2.19252
2.20117
2.20467
2.20752
2.21027
2.21413
2.21943
2.22582
2.23272
2.23957
2.24598
2.25175
2.25678
2.26107
2.26468
2.26766
2.27009
2.27201
2.27349
2.27458
2.27535
2.27588
2.27621
2.27641
2.27657
2.27677
2.27715
2.27787
2.27924
2.28206
2.1802
2.189
2.19251
2.19553
2.19861
2.20284
2.20845
2.21503
2.22195
2.2287
2.23493
2.24045
2.2452
2.24918
2.25247
2.25514
2.25725
2.25885
2.26
2.26076
2.26119
2.26135
2.2613
2.26109
2.26079
2.26046
2.26021
2.26016
2.26089
2.26452
2.74101
2.77534
2.80585
2.83743
2.86891
2.9002
2.93164
2.96328
2.99518
3.02759
3.05914
3.09155
3.12494
3.15948
3.19527
3.2322
3.27026
3.30951
3.34966
3.39145
3.43338
3.47829
3.52095
3.5702
3.61188
3.66669
3.70621
3.76731
3.80297
3.87441
2.72651
2.76192
2.7927
2.82465
2.85641
2.88782
2.91933
2.95114
2.98304
3.01548
3.04695
3.07941
3.11283
3.1474
3.18316
3.22014
3.25811
3.29734
3.33743
3.37923
3.42108
3.46598
3.50859
3.55779
3.59945
3.65425
3.69375
3.75487
3.79056
3.86208
2.71171
2.74822
2.7793
2.81165
2.84366
2.87522
2.90682
2.93877
2.97066
3.00292
3.03456
3.06706
3.10055
3.13516
3.17091
3.2079
3.24582
3.28503
3.32507
3.36689
3.40867
3.45356
3.49614
3.54532
3.58697
3.64177
3.68127
3.74245
3.77817
3.84978
2.69661
2.73426
2.76567
2.79844
2.83068
2.86242
2.89416
2.92615
2.95808
2.99016
3.02196
3.05453
3.0881
3.12277
3.15853
3.19547
3.2334
3.27259
3.31262
3.3544
3.39619
3.44103
3.4836
3.53277
3.57443
3.62925
3.66878
3.73003
3.7658
3.83752
2.68123
2.72004
2.75183
2.78501
2.81749
2.84944
2.88131
2.91333
2.9453
2.97719
3.00919
3.04183
3.07549
3.11025
3.14602
3.18289
3.22087
3.26001
3.30006
3.34179
3.3836
3.42841
3.47099
3.52016
3.56184
3.6167
3.65628
3.71761
3.75344
3.82529
2.6656
2.70559
2.73776
2.77139
2.80412
2.83626
2.86827
2.90033
2.93235
2.96399
2.99626
3.02898
3.06273
3.09757
3.13335
3.17019
3.20819
3.2473
3.28737
3.32907
3.3709
3.41569
3.4583
3.50749
3.54921
3.60414
3.64377
3.70521
3.74112
3.81309
2.64972
2.69092
2.7235
2.75757
2.79058
2.82291
2.85506
2.88717
2.91924
2.9507
2.9832
3.01602
3.04983
3.08475
3.12054
3.15737
3.19538
3.23446
3.27456
3.31623
3.35809
3.40288
3.44554
3.49477
3.53654
3.59156
3.63124
3.69283
3.72881
3.80092
2.63363
2.67604
2.70907
2.74359
2.77688
2.8094
2.84168
2.87387
2.90598
2.93735
2.97002
3.00294
3.03681
3.07179
3.10759
3.14443
3.18244
3.22152
3.26164
3.3033
3.34518
3.39
3.43269
3.48199
3.52382
3.57896
3.61871
3.68045
3.71653
3.78879
2.61733
2.66096
2.69446
2.72944
2.76302
2.79574
2.82815
2.86042
2.8926
2.92393
2.95673
2.98976
3.02367
3.0587
3.09451
3.13137
3.16937
3.20846
3.2486
3.29026
3.33217
3.37703
3.41978
3.46916
3.51107
3.56634
3.60617
3.66809
3.70427
3.77668
2.60086
2.64571
2.67971
2.71516
2.74904
2.78195
2.81449
2.84684
2.87908
2.91044
2.94334
2.97647
3.01043
3.04548
3.08131
3.1182
3.15619
3.1953
3.23546
3.27712
3.31907
3.36398
3.4068
3.45628
3.49828
3.5537
3.59362
3.65574
3.69203
3.76461
2.58422
2.6303
2.66483
2.70075
2.73492
2.76803
2.8007
2.83314
2.86546
2.89689
2.92986
2.96308
2.99708
3.03215
3.06801
3.10492
3.1429
3.18203
3.22221
3.26389
3.30588
3.35087
3.39375
3.44335
3.48544
3.54103
3.58106
3.6434
3.67981
3.75256
2.56745
2.61474
2.64984
2.68622
2.7207
2.75401
2.7868
2.81934
2.85174
2.8833
2.9163
2.94958
2.98365
3.01872
3.05459
3.09154
3.1295
3.16866
3.20886
3.25057
3.2926
3.33768
3.38064
3.43036
3.47256
3.52833
3.56849
3.63107
3.66761
3.74055
2.55056
2.59906
2.63475
2.6716
2.70637
2.73989
2.77281
2.80544
2.83793
2.86968
2.90267
2.936
2.97012
3.00519
3.04109
3.07806
3.11601
3.15519
3.19541
3.23716
3.27925
3.32441
3.36746
3.41731
3.45964
3.5156
3.5559
3.61874
3.65544
3.72858
2.53358
2.58327
2.61958
2.6569
2.69197
2.72569
2.75874
2.79146
2.82403
2.85603
2.88897
2.92233
2.9565
2.99157
3.02749
3.06448
3.10243
3.14164
3.18188
3.22367
3.26581
3.31107
3.35422
3.4042
3.44666
3.50284
3.54331
3.60642
3.64329
3.71664
2.51653
2.5674
2.60435
2.64213
2.67749
2.71142
2.7446
2.7774
2.81006
2.84234
2.87521
2.90859
2.9428
2.97787
3.0138
3.05082
3.08876
3.12799
3.16825
3.2101
3.2523
3.29766
3.34091
3.39104
3.43364
3.49006
3.5307
3.59411
3.63117
3.70475
2.49944
2.55146
2.58908
2.6273
2.66296
2.6971
2.73041
2.76329
2.79603
2.82858
2.86139
2.89478
2.92903
2.96409
3.00004
3.03706
3.07501
3.11427
3.15455
3.19645
3.23872
3.28417
3.32753
3.37781
3.42058
3.47724
3.51809
3.58182
3.61908
3.69291
2.48233
2.53547
2.57379
2.61244
2.64839
2.68273
2.71617
2.74913
2.78194
2.81477
2.84752
2.88091
2.9152
2.95025
2.9862
3.02323
3.06118
3.10047
3.14077
3.18272
3.22506
3.2706
3.31409
3.36453
3.40746
3.4644
3.50546
3.56953
3.60702
3.68112
2.46524
2.51945
2.55849
2.59755
2.63379
2.66834
2.7019
2.73493
2.76781
2.80092
2.83359
2.867
2.90131
2.93636
2.97229
3.00934
3.04729
3.08659
3.12692
3.16892
3.21133
3.25697
3.30058
3.35119
3.39429
3.45152
3.49282
3.55726
3.59501
3.66939
2.44822
2.50342
2.5432
2.58265
2.61918
2.65394
2.68762
2.72071
2.75364
2.78706
2.81963
2.85305
2.88738
2.92242
2.95833
2.99538
3.03333
3.07265
3.113
3.15506
3.19753
3.24327
3.287
3.33779
3.38107
3.43861
3.48017
3.545
3.58305
3.65772
2.43129
2.4874
2.52793
2.56776
2.60457
2.63953
2.67333
2.70648
2.73946
2.77318
2.80563
2.83907
2.87341
2.90843
2.94432
2.98136
3.01931
3.05865
3.09901
3.14112
3.18366
3.2295
3.27335
3.32434
3.3678
3.42566
3.46751
3.53275
3.57114
3.64614
2.41451
2.4714
2.51271
2.5529
2.58999
2.62514
2.65906
2.69225
2.72526
2.75928
2.7916
2.82507
2.85941
2.89442
2.93027
2.96729
3.00524
3.04459
3.08497
3.12713
3.16972
3.21566
3.25963
3.31082
3.35447
3.41267
3.45483
3.52052
3.55929
3.63464
2.39795
2.45546
2.49754
2.53807
2.57544
2.61078
2.64481
2.67804
2.71106
2.74533
2.77755
2.81106
2.8454
2.88037
2.91619
2.95319
2.99112
3.03047
3.07086
3.11307
3.15572
3.20176
3.24585
3.29723
3.34109
3.39963
3.44213
3.50829
3.54751
3.62325
2.38168
2.43959
2.48245
2.52332
2.56096
2.59648
2.6306
2.66387
2.69688
2.73132
2.76348
2.79704
2.83138
2.86631
2.90208
2.93905
2.97696
3.0163
3.05671
3.09895
3.14166
3.1878
3.232
3.28358
3.32764
3.38653
3.4294
3.49607
3.53581
3.61197
2.36576
2.42382
2.46744
2.50864
2.54654
2.58225
2.61646
2.64974
2.68272
2.71723
2.74941
2.78304
2.81736
2.85223
2.88796
2.92488
2.96277
3.00209
3.0425
3.08478
3.12754
3.17376
3.21809
3.26987
3.31414
3.37338
3.41665
3.48385
3.5242
3.60083
2.35029
2.40818
2.45251
2.49407
2.53222
2.5681
2.60238
2.63568
2.6686
2.70301
2.73534
2.76905
2.80334
2.83814
2.87382
2.91068
2.94854
2.98784
3.02825
3.07056
3.11336
3.15967
3.20411
3.25609
3.30058
3.36017
3.40386
3.47163
3.51268
3.58986
2.33539
2.39278
2.43778
2.47969
2.51807
2.5541
2.58845
2.62173
2.65456
2.68866
2.72128
2.75509
2.78935
2.82407
2.85969
2.89649
2.93431
2.97357
3.01397
3.0563
3.09914
3.14552
3.19008
3.24224
3.28695
3.34689
3.39103
3.4594
3.50127
3.57909
2.32124
2.37777
2.42335
2.46561
2.50419
2.54034
2.57472
2.60797
2.64071
2.67447
2.70728
2.74119
2.77541
2.81004
2.84558
2.8823
2.92007
2.95929
2.99968
3.04201
3.08489
3.13133
3.176
3.22833
3.27327
3.33353
3.37815
3.44715
3.48998
3.56855
2.3079
2.36274
2.40875
2.45137
2.49018
2.52646
2.5609
2.59415
2.62688
2.66039
2.69325
2.72723
2.76138
2.7959
2.83136
2.86799
2.9057
2.94487
2.98525
3.02758
3.07049
3.11698
3.16177
3.21427
3.25944
3.32002
3.36516
3.4348
3.47877
3.55829
2.29479
2.34665
2.39293
2.43606
2.47523
2.51175
2.54634
2.57966
2.61242
2.64576
2.67889
2.7129
2.74696
2.78139
2.81677
2.85334
2.89101
2.93014
2.97051
3.01286
3.05582
3.10238
3.14729
3.19996
3.24539
3.30629
3.35199
3.4223
3.46765
3.54835
2.28205
2.33131
2.37773
2.42135
2.46084
2.49753
2.5322
2.56545
2.59789
2.63063
2.66486
2.69896
2.73297
2.76733
2.80264
2.83915
2.87676
2.91585
2.9562
2.99855
3.04154
3.08812
3.13315
3.18591
3.23159
3.2927
3.33897
3.40981
3.45671
3.53891
2.24738
2.29813
2.34496
2.38943
2.42917
2.46566
2.49998
2.53276
2.56456
2.59545
2.63068
2.66439
2.69794
2.73187
2.76666
2.80275
2.83996
2.87872
2.91871
2.96081
3.00373
3.05003
3.09512
3.14777
3.19396
3.25522
3.30277
3.37465
3.42588
3.51277
2.18543
2.23666
2.28298
2.32752
2.36711
2.40317
2.43715
2.46985
2.50216
2.53494
2.56676
2.59938
2.63242
2.6662
2.70104
2.73689
2.77406
2.81272
2.85278
2.89478
2.93782
2.98425
3.02963
3.08243
3.12919
3.191
3.23984
3.31309
3.36742
3.45624
2.12474
2.17466
2.21992
2.26401
2.30345
2.33922
2.37281
2.40503
2.4366
2.46839
2.50027
2.53253
2.56537
2.59904
2.63378
2.66957
2.70676
2.74537
2.78546
2.82749
2.87067
2.91724
2.96296
3.01595
3.06329
3.12551
3.17529
3.24921
3.30479
3.39395
2.06305
2.11114
2.15526
2.19908
2.2385
2.27403
2.30729
2.33917
2.37052
2.40147
2.43274
2.46458
2.49715
2.53063
2.56518
2.60093
2.63806
2.67666
2.71676
2.75887
2.80218
2.84886
2.89488
2.9481
2.99593
3.0584
3.10883
3.18294
3.23895
3.32794
2.00051
2.04677
2.08965
2.1329
2.17205
2.20725
2.24014
2.27156
2.30224
2.33292
2.3638
2.39527
2.42756
2.46082
2.49523
2.53091
2.56798
2.60658
2.64673
2.68891
2.73235
2.77914
2.82543
2.87883
2.92702
2.98963
3.04042
3.11447
3.17044
3.25903
1.93661
1.98105
2.02247
2.06505
2.10396
2.1389
2.17147
2.20251
2.23278
2.26295
2.29341
2.32449
2.35646
2.38948
2.42372
2.4593
2.49632
2.53493
2.57511
2.61736
2.66092
2.70783
2.75432
2.80787
2.85631
2.91904
2.96998
3.04388
3.0996
3.18776
1.87113
1.91387
1.95384
1.99566
2.03429
2.06895
2.10121
2.13189
2.16175
2.19146
2.22147
2.25216
2.28378
2.31654
2.35059
2.38603
2.42298
2.46157
2.50178
2.54409
2.58775
2.63476
2.68142
2.73509
2.78372
2.84654
2.89751
2.97128
3.02664
3.11445
1.80398
1.8451
1.88362
1.9246
1.9629
1.99731
2.02928
2.05964
2.08909
2.11835
2.14792
2.17818
2.20943
2.24189
2.2757
2.31099
2.34784
2.38639
2.42661
2.46894
2.51268
2.55978
2.60659
2.66036
2.70912
2.77204
2.82297
2.89668
2.95164
3.03921
1.73506
1.77466
1.81174
1.85183
1.88977
1.92391
1.95563
1.98567
2.01474
2.04356
2.07266
2.10247
2.13331
2.16542
2.19896
2.23405
2.27077
2.30925
2.34945
2.39179
2.43559
2.48275
2.52969
2.58354
2.63242
2.69545
2.74631
2.82005
2.87461
2.9621
1.66438
1.70249
1.73815
1.7773
1.81483
1.84871
1.88017
1.90992
1.93863
1.967
1.99563
2.02496
2.05534
2.08705
2.12027
2.15511
2.19165
2.23002
2.27016
2.31249
2.35633
2.40353
2.45058
2.50451
2.5535
2.61666
2.66745
2.74131
2.79552
2.88305
1.5919
1.62858
1.66282
1.70096
1.73803
1.77163
1.80284
1.83232
1.86067
1.88861
1.91674
1.94555
1.97543
2.00669
2.03951
2.07404
2.11036
2.14857
2.18862
2.23091
2.27476
2.32198
2.36913
2.42313
2.47223
2.53553
2.58628
2.66034
2.71426
2.80197
1.51765
1.55291
1.58573
1.6228
1.65933
1.69262
1.72357
1.75279
1.7808
1.8083
1.83592
1.86417
1.8935
1.92423
1.95659
1.99074
2.02677
2.06477
2.10468
2.14689
2.19073
2.23794
2.28517
2.33923
2.38847
2.45192
2.50268
2.57699
2.63069
2.71866
1.44165
1.4755
1.50688
1.5428
1.57871
1.61163
1.6423
1.67126
1.69893
1.726
1.75308
1.78075
1.80946
1.83958
1.8714
1.90509
1.94075
1.97848
2.0182
2.06028
2.10407
2.15125
2.19855
2.25265
2.30204
2.36563
2.41647
2.49106
2.54465
2.63293
1.36394
1.39636
1.42629
1.46096
1.49615
1.52863
1.55898
1.58766
1.615
1.64162
1.66815
1.69519
1.72322
1.75267
1.78385
1.81698
1.85218
1.88956
1.92902
1.97093
2.01461
2.06174
2.10908
2.1632
2.21275
2.27648
2.32745
2.40232
2.45591
2.54451
1.28458
1.31553
1.34398
1.37731
1.41166
1.4436
1.47356
1.50193
1.52892
1.55508
1.58105
1.60741
1.6347
1.66339
1.69384
1.72631
1.76094
1.79786
1.83699
1.87864
1.92218
1.9692
2.01655
2.07066
2.12037
2.18421
2.23539
2.31051
2.36422
2.4531
1.20362
1.23308
1.26
1.29188
1.32524
1.35653
1.38601
1.414
1.44061
1.4663
1.49168
1.51734
1.54383
1.57168
1.60128
1.63296
1.6669
1.70325
1.74193
1.78325
1.82656
1.87342
1.92073
1.9748
2.02466
2.08858
2.14001
2.21535
2.26931
2.3584
1.12114
1.14906
1.17441
1.20472
1.23693
1.26743
1.29632
1.32385
1.35002
1.37521
1.39997
1.42488
1.45052
1.47743
1.50607
1.53683
1.56993
1.60556
1.64367
1.68454
1.72754
1.77415
1.82137
1.87533
1.92532
1.98926
2.041
2.1165
2.17083
2.26003
1.03721
1.06355
1.08729
1.11592
1.1468
1.17633
1.20447
1.23143
1.25709
1.28172
1.30582
1.32995
1.35467
1.38056
1.40813
1.43781
1.46991
1.50465
1.54203
1.58231
1.62487
1.67114
1.71817
1.77195
1.82202
1.88592
1.938
2.01358
2.06839
2.15758
0.951937
0.97663
0.998716
1.02555
1.05493
1.0833
1.11051
1.13673
1.16177
1.18577
1.20915
1.23244
1.25618
1.28097
1.30735
1.33581
1.36673
1.40039
1.43682
1.47634
1.51829
1.56408
1.61081
1.6643
1.71438
1.77814
1.83057
1.90615
1.96155
2.05059
0.865399
0.8884
0.908795
0.933721
0.961415
0.988422
1.01449
1.03978
1.06403
1.08729
1.10988
1.13226
1.15496
1.17856
1.20364
1.23074
1.26027
1.29262
1.32788
1.3664
1.40754
1.45267
1.49893
1.55197
1.60195
1.66544
1.7182
1.79367
1.84977
1.9385
0.777693
0.798946
0.817631
0.840566
0.866397
0.891826
0.916497
0.940618
0.963883
0.98623
1.00791
1.02931
1.05091
1.07325
1.09692
1.12248
1.15044
1.18124
1.21505
1.25228
1.29234
1.33654
1.38212
1.43451
1.48421
1.54725
1.60028
1.67548
1.73238
1.82061
0.688893
0.708352
0.725337
0.746223
0.770023
0.793645
0.816661
0.839333
0.86135
0.882583
0.903199
0.923507
0.943911
0.964909
0.987063
1.01096
1.03714
1.06613
1.09818
1.13378
1.1724
1.21535
1.25993
1.31137
1.36057
1.42288
1.47607
1.5508
1.60857
1.69607
0.599078
0.616709
0.632036
0.650856
0.672477
0.694043
0.715142
0.736052
0.756517
0.776371
0.795716
0.81478
0.833878
0.853442
0.873986
0.896087
0.920303
0.947214
0.97716
1.01072
1.04748
1.08873
1.1319
1.18199
1.23031
1.29153
1.34462
1.41857
1.4772
1.56359
0.508328
0.524115
0.5379
0.554682
0.574005
0.593392
0.612173
0.63096
0.649516
0.667675
0.685488
0.703106
0.720748
0.738764
0.757594
0.777769
0.799836
0.824405
0.851893
0.882969
0.917342
0.956346
0.997541
1.04572
1.09266
1.15226
1.2049
1.27764
1.33715
1.42203
0.416787
0.430767
0.443233
0.45804
0.474889
0.491649
0.508051
0.524339
0.540578
0.556674
0.572647
0.588565
0.604552
0.620857
0.637837
0.655957
0.675697
0.697672
0.722351
0.750468
0.781868
0.81794
0.856426
0.901927
0.946722
1.00387
1.05526
1.12582
1.18556
1.26806
0.325129
0.337277
0.348658
0.361598
0.375852
0.389937
0.403498
0.416802
0.430248
0.443847
0.457613
0.471498
0.48554
0.499896
0.514839
0.530726
0.547935
0.56708
0.588601
0.613274
0.641056
0.673413
0.708315
0.750164
0.791937
0.845643
0.895236
0.962844
1.02251
1.10135
0.23569
0.245511
0.255639
0.266669
0.278117
0.289153
0.299909
0.309712
0.319838
0.330457
0.341587
0.352999
0.364641
0.376639
0.389255
0.402619
0.416997
0.433026
0.451008
0.471727
0.495194
0.522909
0.553015
0.589772
0.626743
0.675026
0.720229
0.781899
0.838883
0.91276
0.153428
0.159774
0.167607
0.17614
0.184355
0.1918
0.199416
0.20578
0.212383
0.219703
0.227681
0.236024
0.244645
0.25368
0.263329
0.273526
0.284576
0.29697
0.310888
0.327058
0.345534
0.367731
0.39216
0.422617
0.453949
0.495572
0.536131
0.590577
0.640488
0.701382
0.0836997
0.0863099
0.0907065
0.0957528
0.100383
0.104019
0.106739
0.110375
0.113764
0.117757
0.122192
0.126966
0.132005
0.137389
0.143103
0.149225
0.156058
0.163639
0.172202
0.182357
0.194063
0.208613
0.224584
0.245692
0.267155
0.297898
0.32929
0.372792
0.417593
0.461212
0.0263205
0.0261087
0.0272326
0.0283493
0.0296728
0.0304178
0.0306002
0.0300755
0.0299822
0.0311648
0.0324645
0.0338534
0.0352907
0.0368237
0.038451
0.0402448
0.0423069
0.0445588
0.0471273
0.0502792
0.0539849
0.0588477
0.064067
0.0717545
0.0789463
0.091514
0.10369
0.124605
0.147149
0.166777
2.20575
2.14142
2.08313
2.02201
1.96061
1.8975
1.83278
1.76637
1.69821
1.62833
1.55671
1.48338
1.4084
1.33176
1.25357
1.17388
1.09274
1.01027
0.92654
0.84164
0.755669
0.668722
0.580941
0.492531
0.403825
0.315633
0.230075
0.151232
0.0828564
0.0278025
2.18993
2.12551
2.06811
2.00733
1.94639
1.88365
1.81929
1.75324
1.68544
1.61594
1.54471
1.47179
1.39725
1.32105
1.24333
1.16413
1.0835
1.00156
0.918383
0.834058
0.748678
0.662346
0.575211
0.487476
0.399503
0.312142
0.22751
0.14966
0.0820232
0.0280225
2.17421
2.11022
2.05366
1.99329
1.93281
1.87048
1.8065
1.74083
1.67341
1.60432
1.53349
1.461
1.38689
1.31115
1.23389
1.15518
1.07505
0.993623
0.910979
0.827198
0.742375
0.656624
0.570084
0.482963
0.395659
0.309049
0.225193
0.148101
0.0810629
0.0280468
2.15843
2.09517
2.03938
1.97945
1.91942
1.85749
1.7939
1.72862
1.66157
1.59288
1.52245
1.45038
1.37671
1.30142
1.22463
1.1464
1.06676
0.985851
0.903733
0.820484
0.736211
0.651034
0.565069
0.47854
0.391868
0.305974
0.22287
0.146565
0.0801917
0.0280421
2.14283
2.0805
2.02542
1.96596
1.90636
1.84483
1.7816
1.71671
1.65003
1.58173
1.5117
1.44004
1.36679
1.29195
1.21561
1.13786
1.0587
0.978298
0.896694
0.813961
0.73022
0.645604
0.560189
0.474215
0.388173
0.302955
0.22058
0.145046
0.0793797
0.0280249
2.12747
2.0662
2.01177
1.9528
1.89361
1.83248
1.7696
1.70509
1.63876
1.57085
1.5012
1.42995
1.35712
1.28272
1.20683
1.12953
1.05085
0.97093
0.889826
0.8076
0.724371
0.640298
0.555421
0.469945
0.384538
0.299968
0.218308
0.143542
0.0786017
0.0279799
2.11239
2.05227
1.99845
1.93999
1.88118
1.82044
1.75791
1.69377
1.62778
1.56025
1.49097
1.42012
1.3477
1.27372
1.19827
1.12143
1.04321
0.963755
0.883138
0.801411
0.718674
0.635123
0.550787
0.465736
0.38097
0.297027
0.216065
0.142057
0.0778512
0.0279051
2.09764
2.03871
1.98545
1.92752
1.86908
1.80872
1.74654
1.68275
1.6171
1.54994
1.48102
1.41057
1.33854
1.26497
1.18995
1.11355
1.03577
0.956777
0.876635
0.795388
0.713135
0.630083
0.546164
0.461709
0.377478
0.294138
0.213856
0.140592
0.0771242
0.0278042
2.08326
2.02554
1.9728
1.9154
1.85732
1.79734
1.73549
1.67205
1.60673
1.53992
1.47135
1.40129
1.32964
1.25648
1.18187
1.10589
1.02854
0.950004
0.870321
0.78953
0.70775
0.625203
0.541624
0.457786
0.374064
0.291304
0.211683
0.139149
0.0764168
0.0276806
2.06927
2.01275
1.96051
1.90364
1.84592
1.7863
1.72477
1.66168
1.59667
1.53022
1.46198
1.39229
1.321
1.24824
1.17404
1.09846
1.02154
0.943437
0.864191
0.783834
0.702508
0.620359
0.537299
0.453959
0.370728
0.288523
0.209544
0.137726
0.0757253
0.0275369
2.05571
2.00037
1.94859
1.89225
1.83487
1.77561
1.7144
1.65163
1.58694
1.52083
1.4529
1.38359
1.31264
1.24028
1.16645
1.09127
1.01476
0.93707
0.858241
0.778303
0.697393
0.615659
0.533097
0.450222
0.367461
0.285791
0.207439
0.136322
0.0750473
0.0273756
2.0426
1.98839
1.93704
1.88123
1.82418
1.76527
1.70437
1.64193
1.57753
1.51176
1.44413
1.37518
1.30456
1.23259
1.15911
1.08433
1.00821
0.9309
0.852474
0.772935
0.692409
0.61111
0.529009
0.44657
0.364263
0.283107
0.205367
0.134938
0.0743814
0.0271996
2.02995
1.97683
1.92588
1.87059
1.81386
1.75529
1.69469
1.63257
1.56846
1.50302
1.43567
1.36708
1.29676
1.22517
1.15201
1.07763
1.00186
0.92493
0.846894
0.767698
0.687609
0.606704
0.52503
0.443006
0.361134
0.280474
0.20333
0.133576
0.0737272
0.0270118
2.01778
1.96569
1.91513
1.86034
1.80391
1.74568
1.68538
1.62355
1.55973
1.49461
1.42753
1.35928
1.28927
1.21802
1.1452
1.07118
0.995712
0.91916
0.841464
0.762681
0.682973
0.602443
0.521168
0.439536
0.358079
0.277895
0.20133
0.132235
0.073085
0.0268147
2.00611
1.95498
1.90479
1.85048
1.79435
1.73644
1.67645
1.61489
1.55136
1.48654
1.41972
1.35179
1.28209
1.21112
1.13865
1.06498
0.989734
0.913593
0.836263
0.757853
0.678506
0.59833
0.517429
0.436166
0.355103
0.275374
0.199369
0.130919
0.072455
0.0266107
1.99494
1.94471
1.89487
1.84103
1.78518
1.72757
1.66791
1.60658
1.54334
1.47881
1.41225
1.34458
1.27521
1.20448
1.13235
1.05891
0.984087
0.908262
0.831273
0.753215
0.674208
0.594368
0.513817
0.432901
0.352207
0.272912
0.197447
0.129627
0.0718376
0.0264017
1.98431
1.93489
1.88539
1.83202
1.7764
1.7191
1.65974
1.59866
1.53567
1.47144
1.40508
1.33768
1.26862
1.19806
1.1263
1.05315
0.978684
0.90316
0.826493
0.748765
0.67008
0.590558
0.510333
0.429741
0.349393
0.270508
0.195563
0.12836
0.0712334
0.0261894
1.97423
1.92551
1.87636
1.82342
1.76803
1.71103
1.65193
1.5911
1.52834
1.46445
1.39818
1.33103
1.26229
1.19202
1.12053
1.04766
0.973521
0.898285
0.82192
0.744501
0.666122
0.586898
0.506977
0.426686
0.346657
0.268162
0.193719
0.127118
0.0706432
0.0259756
1.96475
1.91657
1.86779
1.81525
1.76003
1.70337
1.64451
1.58389
1.52132
1.45763
1.39173
1.32476
1.25627
1.18628
1.11503
1.04244
0.968595
0.893634
0.817553
0.740422
0.662329
0.583385
0.503747
0.423733
0.344001
0.265872
0.191914
0.125903
0.0700682
0.0257618
1.9559
1.90805
1.85967
1.80753
1.75238
1.69607
1.63735
1.57707
1.51473
1.4512
1.38561
1.31884
1.25057
1.18083
1.10982
1.03748
0.963909
0.889207
0.81339
0.736526
0.658701
0.580018
0.500641
0.420884
0.341425
0.263641
0.19015
0.124716
0.0695101
0.02555
1.94773
1.89991
1.85198
1.80003
1.74527
1.6892
1.63063
1.57064
1.50851
1.44515
1.37983
1.31324
1.24517
1.17567
1.10488
1.03279
0.959464
0.885003
0.809431
0.732813
0.655237
0.576799
0.497662
0.418142
0.338934
0.261474
0.188432
0.123562
0.0689706
0.0253416
1.93976
1.89255
1.84473
1.79303
1.73859
1.68274
1.62432
1.56459
1.50266
1.43947
1.37438
1.30798
1.2401
1.17082
1.10023
1.02836
0.955263
0.881025
0.805679
0.729289
0.651942
0.57373
0.494814
0.415511
0.336533
0.259374
0.186763
0.122441
0.0684515
0.0251381
1.93232
1.8857
1.83795
1.78648
1.73233
1.67669
1.61843
1.55892
1.49717
1.43416
1.36927
1.30305
1.23534
1.16626
1.09586
1.0242
0.951309
0.877276
0.802137
0.725956
0.64882
0.570816
0.492103
0.412997
0.33423
0.257348
0.185147
0.121357
0.0679546
0.0249408
1.92545
1.87934
1.83165
1.7804
1.72648
1.67104
1.61295
1.55364
1.49206
1.42922
1.3645
1.29845
1.2309
1.162
1.09179
1.0203
0.947605
0.873758
0.798808
0.722819
0.645876
0.568062
0.489533
0.410608
0.332031
0.255403
0.183589
0.120313
0.0674812
0.0247505
1.91915
1.87345
1.82584
1.77477
1.72107
1.6658
1.60787
1.54874
1.48732
1.42464
1.36008
1.29419
1.22679
1.15805
1.088
1.01668
0.944152
0.870475
0.795696
0.71988
0.643111
0.565471
0.487109
0.408347
0.329943
0.253544
0.182093
0.119311
0.0670327
0.0245683
1.91344
1.86804
1.8205
1.76959
1.71608
1.66098
1.60319
1.54423
1.48296
1.42042
1.35601
1.29026
1.223
1.1544
1.0845
1.01333
0.940952
0.867426
0.792801
0.71714
0.640526
0.563042
0.484832
0.406218
0.327971
0.251777
0.180663
0.118354
0.0666108
0.0243952
1.9083
1.86312
1.81565
1.76486
1.71152
1.65657
1.59892
1.54011
1.47896
1.41656
1.35228
1.28666
1.21953
1.15106
1.08128
1.01025
0.938003
0.864611
0.790121
0.714598
0.63812
0.560774
0.482703
0.404225
0.32612
0.250111
0.179308
0.117446
0.0662174
0.0242323
1.90372
1.85869
1.81129
1.76059
1.7074
1.65257
1.59505
1.53636
1.47534
1.41305
1.3489
1.28339
1.21637
1.14802
1.07836
1.00744
0.935304
0.862028
0.787655
0.71225
0.635891
0.558668
0.480723
0.402371
0.324398
0.248553
0.178033
0.116594
0.0658548
0.024081
1.89971
1.85476
1.8074
1.75676
1.70371
1.64898
1.59157
1.533
1.47209
1.4099
1.34586
1.28045
1.21353
1.14528
1.07571
1.00489
0.932852
0.859673
0.7854
0.710094
0.633838
0.556723
0.478892
0.400658
0.322809
0.247113
0.176849
0.115802
0.0655255
0.0239427
1.89626
1.85132
1.80399
1.75339
1.70044
1.6458
1.5885
1.53002
1.4692
1.40711
1.34315
1.27783
1.21101
1.14284
1.07334
1.00261
0.930647
0.857547
0.783354
0.70813
0.631961
0.554938
0.477211
0.39909
0.321361
0.245802
0.175765
0.115078
0.0652323
0.0238186
1.89335
1.84837
1.80105
1.75046
1.6976
1.64303
1.58581
1.52741
1.46667
1.40466
1.34079
1.27554
1.20879
1.14069
1.07126
1.00058
0.928686
0.855648
0.781518
0.706359
0.63026
0.553315
0.475683
0.397668