/*--------------------------------*- C++ -*----------------------------------*\
  =========                 |
  \\      /  F ield         | OpenFOAM: The Open Source CFD Toolbox
   \\    /   O peration     | Website:  https://openfoam.org
    \\  /    A nd           | Version:  7
     \\/     M anipulation  |
\*---------------------------------------------------------------------------*/
FoamFile
{
    version     2.0;
    format      ascii;
    class       surfaceScalarField;
    location    "3.2";
    object      phi;
}
// * * * * * * * * * * * * * * * * * * * * * * * * * * * * * * * * * * * * * //

dimensions      [0 3 -1 0 0 0 0];

internalField   nonuniform List<scalar> 
35640
(
-5.04936e-05
0.00123375
-0.00118325
-0.000163499
0.00314198
-0.00302897
-0.000320575
0.00469132
-0.00453425
-0.000505349
0.00590107
-0.0057163
-0.000703444
0.00682135
-0.00662325
-0.000902295
0.0075057
-0.00730685
-0.00109127
0.00799937
-0.0078104
-0.00126164
0.00833666
-0.00816629
-0.00140626
0.0085419
-0.00839727
-0.00151944
0.0086323
-0.00851912
-0.00159666
0.00862042
-0.0085432
-0.00163434
0.00851654
-0.00847887
-0.00162964
0.00833012
-0.00833482
-0.00158049
0.00807072
-0.00811988
-0.00148542
0.0077483
-0.00784337
-0.00134364
0.00737337
-0.00751515
-0.00115496
0.00695675
-0.00714543
-0.00091989
0.00650944
-0.00674452
-0.000639569
0.00604236
-0.00632268
-0.0003158
0.00556602
-0.00588979
4.90197e-05
0.00509027
-0.00545509
0.000451927
0.00462416
-0.00502707
0.000889473
0.00417566
-0.0046132
0.00135782
0.00375164
-0.00421998
0.00185279
0.00335792
-0.00385289
0.00236998
0.00299928
-0.00351647
0.00290466
0.00268001
-0.0032147
0.0034516
0.00240433
-0.00295126
0.00400467
0.00218027
-0.00273334
0.00202292
0.0045554
-0.00257365
-4.43166e-05
0.00127806
-0.000144525
0.00324219
-0.000285457
0.00483225
-0.000452787
0.0060684
-0.000633385
0.00700195
-0.000815396
0.00768771
-0.000988412
0.00817239
-0.0011437
0.00849195
-0.00127409
0.00867229
-0.00137379
0.00873199
-0.00143812
0.00868476
-0.00146337
0.00854179
-0.00144659
0.00831334
-0.00138556
0.00800969
-0.00127872
0.00764145
-0.00112514
0.00721979
-0.000924618
0.00675623
-0.000677628
0.00626245
-0.000385307
0.00575004
-4.94791e-05
0.00523019
0.00032739
0.0047134
0.000742237
0.00420931
0.0011915
0.00372639
0.00167124
0.0032719
0.00217721
0.00285195
0.00270491
0.00247158
0.00324969
0.00213523
0.00380655
0.00184747
0.00436962
0.00161719
0.00146184
0.0049307
-3.74956e-05
0.00131555
-0.000123433
0.00332813
-0.000246126
0.00495495
-0.000393391
0.00621566
-0.000553527
0.00716208
-0.0007154
0.00784958
-0.000868966
0.00832596
-0.00100559
0.00862858
-0.00111811
0.00878481
-0.00120062
0.00881449
-0.00124834
0.00873249
-0.00125747
0.00855092
-0.00122498
0.00828085
-0.00114858
0.00793329
-0.00102666
0.00751953
-0.000858285
0.00705142
-0.000643229
0.00654117
-0.000381964
0.00600119
-7.56879e-05
0.00544376
0.000273702
0.0048808
0.000663648
0.00432346
0.001091
0.00378196
0.0015521
0.00326529
0.00204288
0.00278111
0.00255902
0.0023358
0.00309605
0.00193455
0.00364938
0.00158191
0.00421418
0.00128267
0.00478506
0.00104631
0.000892583
0.00535432
-3.01691e-05
0.00134572
-0.000100742
0.0033987
-0.000203277
0.00505748
-0.000328072
0.00634046
-0.000464872
0.00729888
-0.000603425
0.00798814
-0.000734148
0.00845668
-0.000848529
0.00874296
-0.00093944
0.00887572
-0.00100097
0.00887603
-0.00102829
0.00875981
-0.00101753
0.00854016
-0.000965652
0.00822897
-0.000870357
0.00783799
-0.00073005
0.00737922
-0.000543824
0.0068652
-0.000311498
0.00630885
-3.36264e-05
0.00572331
0.000288516
0.00512162
0.000652943
0.00451637
0.00105699
0.00391941
0.0014974
0.00334155
0.00197042
0.00279228
0.00247188
0.00227965
0.00299742
0.00181027
0.00354253
0.00138944
0.00410272
0.00102172
0.00467347
0.000711916
0.00524989
0.00046989
0.000317549
0.00582493
-2.2454e-05
0.00136818
-7.66971e-05
0.00345294
-0.000157482
0.00513827
-0.000257632
0.00644061
-0.000368475
0.00740973
-0.000480699
0.00810036
-0.000585241
0.00856122
-0.000673877
0.0088316
-0.000739559
0.00894141
-0.000776386
0.00891286
-0.000779533
0.00876296
-0.000745154
0.00850578
-0.000670249
0.00815407
-0.000552559
0.0077203
-0.000390563
0.00721723
-0.000183464
0.0066581
6.88121e-05
0.00605657
0.00036561
0.00542652
0.000705531
0.0047817
0.00108646
0.00413544
0.00150561
0.00350026
0.00195962
0.00288754
0.00244463
0.00230727
0.00295641
0.00176787
0.00349052
0.00127615
0.0040425
0.000837464
0.00460796
0.000456256
0.00518264
0.000137233
0.00576222
-0.000109691
-0.000260702
0.00634048
-1.44977e-05
0.00138267
-5.1667e-05
0.00349011
-0.000109459
0.00519606
-0.000183143
0.00651429
-0.000265674
0.00749226
-0.000348785
0.00818347
-0.000424057
0.00863649
-0.000483608
0.00889115
-0.000520534
0.00897833
-0.000529031
0.00892135
-0.000504353
0.00873828
-0.000442719
0.00844415
-0.000341212
0.00805256
-0.000197708
0.0075768
-1.08259e-05
0.00703034
0.000220083
0.00642719
0.00049494
0.00578171
0.000812917
0.00510854
0.00117245
0.00442216
0.00157129
0.0037366
0.00200651
0.00306504
0.00247463
0.00241942
0.00297169
0.0018102
0.0034934
0.00124616
0.00403532
0.000734241
0.00459298
0.000279804
0.00516213
-0.0001129
0.00573883
-0.000439469
0.00631935
-0.000690204
-0.000839659
0.0068983
-6.49315e-06
0.00138917
-2.61559e-05
0.00350978
-6.00397e-05
0.00522994
-0.000105744
0.00656
-0.000157939
0.00754445
-0.000209474
0.00823501
-0.000252627
0.00867965
-0.000279967
0.00891849
-0.000284842
0.00898321
-0.000261596
0.00889811
-0.000205617
0.0086823
-0.000113266
0.0083518
1.82118e-05
0.00792108
0.000190763
0.00740424
0.000405572
0.00681554
0.000663076
0.00616968
0.00096298
0.00548181
0.00130425
0.00476727
0.00168514
0.00404127
0.0021032
0.00331854
0.00255537
0.00261286
0.00303805
0.00193674
0.00354719
0.00130106
0.00407846
0.000714888
0.00462739
0.000185308
0.0051896
-0.000282401
0.00576096
-0.000684266
0.00633786
-0.00101637
0.00691728
-0.00126962
-0.00141804
0.00749566
1.40202e-06
0.00138776
-6.54827e-07
0.00351183
-1.00491e-05
0.00523934
-2.67347e-05
0.00657669
-4.696e-05
0.00756468
-6.47941e-05
0.00825284
-7.33323e-05
0.00868819
-6.56676e-05
0.00891082
-3.54759e-05
0.00895301
2.26537e-05
0.00883998
0.000113123
0.00859183
0.000239369
0.00822555
0.000403929
0.00775652
0.000608507
0.00719967
0.000854029
0.00657001
0.00114068
0.00588303
0.00146789
0.0051546
0.00183439
0.00440077
0.00223819
0.00363747
0.00267666
0.00288007
0.00314657
0.00214295
0.00364419
0.00143912
0.00416539
0.000779861
0.0047058
0.000174473
0.00526098
-0.000369867
0.00582659
-0.000848011
0.00639866
-0.00125634
0.00697386
-0.00159156
0.00754971
-0.00184547
-0.00199204
0.00812371
9.00374e-06
0.00137876
2.43247e-05
0.00349651
3.9471e-05
0.00522419
5.24995e-05
0.00656366
6.54306e-05
0.00755175
8.29701e-05
0.0082353
0.000111135
0.00866002
0.000156216
0.00886574
0.000224105
0.00888513
0.000319885
0.0087442
0.000447676
0.00846404
0.000610644
0.00806258
0.000811044
0.00755612
0.00105029
0.00696042
0.001329
0.0062913
0.00164704
0.00556499
0.00200354
0.00479809
0.00239696
0.00400736
0.00282504
0.00320939
0.00328493
0.00242017
0.00377323
0.00165465
0.00428606
0.000926286
0.00481923
0.000246694
0.00536834
-0.000374638
0.00592898
-0.000930508
0.00649691
-0.00141594
0.00706833
-0.00182776
0.00764013
-0.00216337
0.00821039
-0.00241574
-0.00255944
0.00877779
1.61663e-05
0.00136259
4.82967e-05
0.00346438
8.7701e-05
0.00518479
0.000130548
0.00652081
0.000177299
0.007505
0.000231384
0.00818122
0.000297852
0.00859355
0.000382286
0.00878131
0.000490045
0.00877737
0.000625793
0.00860845
0.000793295
0.00829654
0.000995379
0.0078605
0.00123396
0.00731754
0.0015101
0.00668428
0.00182407
0.00597733
0.0021754
0.00521367
0.00256287
0.00441062
0.0029846
0.00358562
0.00343809
0.0027559
0.00392022
0.00193804
0.00442739
0.00114748
0.0049556
0.000398082
0.00550056
-0.000298267
0.00605787
-0.000931957
0.0066232
-0.00149583
0.00719241
-0.00198516
0.00776189
-0.00239724
0.00832883
-0.0027303
0.00889179
-0.0029787
-0.00311837
0.00945072
2.2748e-05
0.00133985
7.07959e-05
0.00341634
0.000133692
0.00512189
0.000205985
0.00644852
0.000286675
0.00742431
0.000377922
0.00808997
0.000483743
0.00848773
0.000608923
0.00865613
0.000758192
0.0086281
0.000935709
0.00843093
0.0011448
0.00808744
0.00138789
0.0076174
0.00166651
0.00703893
0.00198133
0.00636946
0.00233222
0.00562644
0.00271832
0.00482757
0.00313806
0.00399088
0.00358922
0.00313447
0.00406896
0.00227615
0.00457393
0.00143307
0.00510029
0.000621118
0.00564389
-0.000145516
0.00620037
-0.00085475
0.00676535
-0.00149693
0.00733455
-0.00206504
0.00790404
-0.00255464
0.0084704
-0.0029636
0.00903113
-0.00329103
0.00958525
-0.00353282
-0.00366702
0.0101339
2.86203e-05
0.00131123
9.1392e-05
0.00335356
0.000176591
0.00503669
0.000277442
0.00634767
0.000391627
0.00731012
0.000520056
0.00796154
0.000665678
0.00834211
0.000832401
0.00848941
0.00102423
0.00843627
0.00124474
0.00821043
0.00149674
0.00783544
0.0017822
0.00733195
0.00210219
0.00671893
0.00245697
0.00601469
0.00284598
0.00523743
0.00326794
0.00440561
0.0037209
0.00353792
0.00420227
0.0026531
0.00470886
0.00176955
0.00523703
0.000904904
0.00578271
7.54403e-05
0.00634157
-0.000704385
0.00690921
-0.00142238
0.00748122
-0.00206895
0.00805347
-0.00263729
0.00862222
-0.00312339
0.00918433
-0.00352572
0.00973762
-0.00384432
0.0102815
-0.00407675
-0.00420379
0.0108183
3.3676e-05
0.00127755
0.000109714
0.00327753
0.000215632
0.00493077
0.000343659
0.00621964
0.000490324
0.00716346
0.00065535
0.00779652
0.000840597
0.00815686
0.00104903
0.00828098
0.00128385
0.00820145
0.00154796
0.00794632
0.0018436
0.0075398
0.00217221
0.00700333
0.0025344
0.00635675
0.00292993
0.00561915
0.00335782
0.00480954
0.00381634
0.00394708
0.00430313
0.00305114
0.00481518
0.00214105
0.00534895
0.00123578
0.00590047
0.000353388
0.0064654
-0.000489495
0.00703926
-0.00127824
0.00761752
-0.00200065
0.00819586
-0.00264729
0.00877026
-0.0032117
0.00933725
-0.00369037
0.00989402
-0.00408249
0.0104387
-0.00438904
0.0109713
-0.00460932
-0.00472734
0.0114948
3.78317e-05
0.00123972
0.00012546
0.0031899
0.00025017
0.00480606
0.000403536
0.00606627
0.000581129
0.00698587
0.000781571
0.00759608
0.00100564
0.0079328
0.0012553
0.00803132
0.00153291
0.00792384
0.00184062
0.0076386
0.00218006
0.00720037
0.00255207
0.00663132
0.00295676
0.00595207
0.00339339
0.00518252
0.00386051
0.00434242
0.00435593
0.00345166
0.00487682
0.00253024
0.00541977
0.00159811
0.00598081
0.000674735
0.0065556
-0.000221399
0.00713952
-0.00107342
0.0077279
-0.00186662
0.00831613
-0.00258888
0.00889993
-0.00323109
0.00947549
-0.00378726
0.0100396
-0.00425452
0.01059
-0.00463282
0.0111251
-0.00492416
0.0116453
-0.00512955
-0.00523661
0.0121546
4.10306e-05
0.00119869
0.000138413
0.00309252
0.000279708
0.00466477
0.000456186
0.0058898
0.000662669
0.00677938
0.000896793
0.00736195
0.00115828
0.00767131
0.00144809
0.00774151
0.00176769
0.00760425
0.00211844
0.00728785
0.00250126
0.00681754
0.00291643
0.00621614
0.00336347
0.00550503
0.00384116
0.00470484
0.00434751
0.00383607
0.00487987
0.0029193
0.0054349
0.00197521
0.0060087
0.00102431
0.00659684
8.65875e-05
0.00719459
-0.000819144
0.00779701
-0.00167584
0.0083992
-0.00246881
0.00899651
-0.00318619
0.00958473
-0.00381932
0.0101603
-0.00436285
0.0107205
-0.00481467
0.0112633
-0.0051756
0.0117878
-0.00544867
0.0122948
-0.00563659
-0.0057308
0.012789
4.32474e-05
0.00115544
0.000148449
0.00298732
0.000303926
0.00450929
0.000500982
0.00569274
0.000733917
0.00654645
0.000999514
0.00709636
0.0012965
0.00737433
0.00162485
0.00741316
0.00198509
0.00724401
0.00237778
0.00689516
0.00280314
0.00639218
0.0032608
0.00575849
0.0037497
0.00501613
0.00426807
0.00418647
0.0048134
0.00329074
0.00538248
0.00235022
0.00597143
0.00138625
0.00657579
0.000419954
0.00719063
-0.000528252
0.00781074
-0.00143926
0.00843085
-0.00229596
0.00904586
-0.00308382
0.00965109
-0.00379141
0.0102425
-0.0044107
0.0108168
-0.00493714
0.0113716
-0.00536954
0.0119057
-0.00570966
0.0124186
-0.0059616
0.0129117
-0.00612969
-0.00620928
0.0133902
4.44898e-05
0.00111095
0.000155551
0.00287626
0.000322701
0.00434214
0.000537603
0.00547784
0.000794259
0.00628979
0.00108875
0.00680187
0.0014189
0.00704418
0.00178372
0.00704835
0.00218284
0.00684488
0.002616
0.006462
0.00308268
0.0059255
0.00358184
0.00525932
0.00411184
0.00448613
0.00467031
0.003628
0.00525415
0.0027069
0.00585954
0.00174484
0.00648196
0.000763833
0.00711632
-0.000214412
0.00775712
-0.00116905
0.00839866
-0.0020808
0.0090353
-0.0029326
0.00966177
-0.00371029
0.0102734
-0.00440303
0.0108663
-0.00500365
0.0114378
-0.00550858
0.0119859
-0.00591768
0.01251
-0.00623376
0.0130104
-0.00646202
0.013489
-0.00660826
-0.00667173
0.0139514
4.47998e-05
0.00106615
0.000159807
0.00276125
0.000336123
0.00416583
0.000566062
0.0052479
0.000843546
0.00601231
0.00116412
0.00648129
0.00152482
0.00668348
0.00192377
0.0066494
0.00235972
0.00640893
0.0028316
0.00599011
0.00333815
0.00541895
0.00387767
0.0047198
0.00444786
0.00391594
0.0050457
0.00303016
0.00566741
0.00208518
0.00630848
0.00110377
0.00696365
0.000108661
0.00762713
-0.000877886
0.00829275
-0.00183468
0.00895431
-0.00274236
0.00960584
-0.00358412
0.0102419
-0.00434637
0.010858
-0.00501912
0.0114506
-0.00559624
0.0120174
-0.00607536
0.0125572
-0.0064575
0.0130701
-0.00674662
0.013557
-0.006949
0.0140206
-0.00707183
-0.00711803
0.0144669
4.42535e-05
0.0010219
0.000161417
0.00264408
0.000344498
0.00398274
0.000586718
0.00500568
0.000882131
0.0057169
0.00122592
0.0061375
0.00161444
0.00629496
0.00204503
0.00621881
0.00251564
0.00593833
0.00302439
0.00548136
0.0035693
0.00487404
0.00414796
0.00414115
0.00475735
0.00330655
0.00539372
0.00239379
0.00605252
0.00142638
0.00672838
0.000427907
0.00741524
-0.000578193
0.00810647
-0.00156912
0.00879526
-0.00252346
0.00947487
-0.00342197
0.0101391
-0.00424831
0.0107824
-0.0049897
0.0114006
-0.00563729
0.0119905
-0.00618621
0.0125506
-0.00663543
0.0130804
-0.0069873
0.0135807
-0.00724695
0.0140534
-0.00742171
0.0145016
-0.00752001
-0.00754824
0.0149318
4.29592e-05
0.000978941
0.000160686
0.00252636
0.000348346
0.00379508
0.000600282
0.00475374
0.00091087
0.00540631
0.00127509
0.00577328
0.00168879
0.00588126
0.00214861
0.00575899
0.00265175
0.0054352
0.00319559
0.00493751
0.0037774
0.00429224
0.00439399
0.00352455
0.00504157
0.00265897
0.00571553
0.00171983
0.00641038
0.000731524
0.00711981
-0.000281519
0.00783678
-0.00129516
0.00855383
-0.00228618
0.00926345
-0.00323308
0.00995846
-0.00411697
0.0106324
-0.00492229
0.0112801
-0.00563736
0.0118975
-0.0062547
0.0124822
-0.00677095
0.0130334
-0.00718658
0.0135514
-0.00750532
0.014038
-0.00773349
0.0144957
-0.00787941
0.0149283
-0.0079526
-0.00796252
0.0153425
4.10543e-05
0.000937887
0.000158011
0.0024094
0.00034838
0.00360471
0.00060779
0.00449433
0.000931104
0.005083
0.00131327
0.00539112
0.00174975
0.00544479
0.00223662
0.00527212
0.00277039
0.00490142
0.00334772
0.00436018
0.00396509
0.00367486
0.0046185
0.00287114
0.00530322
0.00197425
0.00601362
0.00100943
0.00674315
1.99715e-06
0.00748438
-0.00102275
0.00822925
-0.00204003
0.00896943
-0.00302636
0.00969677
-0.00396042
0.0104038
-0.00482398
0.011084
-0.00560254
0.0117325
-0.00628588
0.012346
-0.00686814
0.0129227
-0.00734767
0.0134626
-0.00772653
0.0139672
-0.00800987
0.0144389
-0.00820516
0.0148811
-0.00832164
0.0152982
-0.00836968
-0.0083614
0.015697
3.8701e-05
0.000899186
0.000153876
0.00229423
0.000345486
0.0034131
0.000610564
0.00422925
0.000944599
0.00474896
0.00134265
0.00499307
0.00179993
0.00498751
0.00231204
0.00476
0.0028749
0.00433857
0.0034844
0.00375067
0.00413621
0.00302306
0.00482536
0.002182
0.00554602
0.00125358
0.00629141
0.000264043
0.00705371
-0.000760304
0.0078243
-0.00179334
0.00859404
-0.00280978
0.00935379
-0.00378611
0.0100949
-0.00470153
0.0108097
-0.00553882
0.0114921
-0.00628493
0.0121376
-0.00693138
0.0127437
-0.00747418
0.0133095
-0.0079135
0.013836
-0.00825307
0.0143256
-0.00849942
0.0147816
-0.00866112
0.0152081
-0.00874816
0.0156101
-0.00877165
-0.00874602
0.0159947
3.608e-05
0.000863106
0.000148822
0.00218148
0.000340676
0.00322125
0.000610147
0.00395978
0.000953457
0.00440565
0.00136589
0.00458064
0.00184253
0.00451087
0.0023786
0.00422393
0.00296939
0.00374778
0.00361007
0.00310999
0.00429532
0.00233781
0.00501907
0.00145825
0.00577423
0.000498424
0.00655263
-0.000514356
0.0073451
-0.00155277
0.00814174
-0.00258998
0.00893241
-0.00360044
0.00970727
-0.00456097
0.0104574
-0.00545166
0.0111753
-0.0062567
0.0118552
-0.00696489
0.0124936
-0.00756975
0.0130888
-0.00806934
0.013641
-0.00846573
0.0141522
-0.00876427
0.0146256
-0.0089728
0.0150653
-0.00910082
0.0154761
-0.00915899
0.0158635
-0.00915903
-0.00911764
0.0162351
3.33826e-05
0.000829723
0.000143429
0.00207144
0.000335044
0.00302963
0.000608227
0.0036866
0.000959994
0.00405388
0.00138594
0.00415469
0.00188112
0.0040157
0.00244038
0.00366467
0.00305841
0.00312975
0.0037295
0.0024389
0.00444724
0.00162006
0.00520426
0.000701236
0.00599199
-0.000289305
0.00680074
-0.00132311
0.0076199
-0.00237193
0.00843834
-0.00340842
0.00924503
-0.00440713
0.0100297
-0.00534562
0.0107834
-0.00620535
0.011499
-0.00697236
0.0121718
-0.00763761
0.0127989
-0.00819687
0.0133799
-0.00865034
0.0139161
-0.00900197
0.0144105
-0.00925862
0.0148669
-0.00942927
0.0152903
-0.00952417
0.0156857
-0.00955441
0.0160588
-0.00953214
-0.00947589
0.0164171
3.08018e-05
0.000798921
0.000138284
0.00196396
0.000329709
0.00283821
0.000606537
0.00340977
0.000966608
0.00369381
0.00140588
0.00371542
0.00191937
0.00350221
0.00250157
0.00308247
0.00314646
0.00248485
0.00384734
0.00173802
0.0045965
0.000870899
0.00538503
-8.72976e-05
0.00620275
-0.00110703
0.00703835
-0.00215871
0.00787976
-0.00321334
0.00871476
-0.00424342
0.00953169
-0.00522405
0.0103201
-0.00613404
0.0110715
-0.0069567
0.0117795
-0.00768035
0.0124402
-0.00829836
0.0130522
-0.00880892
0.0136163
-0.00921436
0.0141347
-0.00952041
0.0146113
-0.00973525
0.0150508
-0.00986875
0.0154583
-0.00993166
0.0158392
-0.00993528
0.016199
-0.009892
-0.00982205
0.0165452
2.85232e-05
0.000770398
0.000133954
0.00185852
0.000325752
0.00264641
0.00060676
0.00312876
0.000975621
0.00332495
0.00142864
0.00326241
0.00196077
0.00297007
0.00256607
0.00247718
0.00323767
0.00181325
0.00396765
0.00100804
0.00474681
9.17406e-05
0.00556452
-0.000905007
0.00640884
-0.00195134
0.00726681
-0.00301668
0.00812507
-0.0040716
0.00897053
-0.00508889
0.00979123
-0.00604475
0.010577
-0.00691979
0.0113199
-0.00769967
0.0120149
-0.0083753
0.0126593
-0.00894273
0.0132529
-0.00940256
0.0137977
-0.0097592
0.0142973
-0.0100199
0.014756
-0.010194
0.0151791
-0.0102919
0.0155719
-0.0103245
0.0159397
-0.010303
0.0162876
-0.01024
-0.0101573
0.0166229
2.67163e-05
0.000743682
0.000130958
0.00175428
0.000324162
0.00245321
0.000610432
0.00284249
0.000989136
0.00294625
0.00145685
0.00279469
0.00200839
0.00241854
0.00263718
0.00184839
0.00333532
0.0011151
0.00409347
0.000249892
0.00490067
-0.000715466
0.00574446
-0.00174879
0.00661107
-0.00281795
0.00748603
-0.00389165
0.00835489
-0.00494046
0.00920405
-0.00593805
0.0100217
-0.00686235
0.0107982
-0.00769631
0.0115268
-0.00842834
0.0122038
-0.00905227
0.012828
-0.00956689
0.0134006
-0.00997518
0.0139248
-0.0102834
0.0144051
-0.0105002
0.0148467
-0.0106356
0.0152549
-0.0107
0.0156348
-0.0107044
0.0159914
-0.0106596
0.0163291
-0.0105777
-0.0104817
0.0166535
2.55261e-05
0.000718155
0.000129738
0.00165007
0.000325785
0.00225716
0.000618853
0.00254942
0.00100891
0.0025562
0.00149266
0.00231094
0.0020646
0.0018466
0.00271732
0.00119567
0.00344164
0.000390778
0.00422653
-0.000535
0.00505914
-0.00154808
0.00592505
-0.0026147
0.00680877
-0.00370168
0.00769452
-0.0047774
0.0085671
-0.00581303
0.00941285
-0.0067838
0.0102204
-0.00766993
0.0109814
-0.00845726
0.0116904
-0.00913731
0.012345
-0.00970697
0.0129459
-0.0101678
0.0134957
-0.010525
0.0139987
-0.0107865
0.0144603
-0.0109619
0.0148862
-0.0110615
0.0152818
-0.0110956
0.0156518
-0.0110744
0.0159999
-0.0110076
0.0163292
-0.0109071
-0.0107944
0.0166419
2.50671e-05
0.000693088
0.000130643
0.00154449
0.000331279
0.00205652
0.000633021
0.00224768
0.00103624
0.00215298
0.00153757
0.0018096
0.00213094
0.00125323
0.00280786
0.000518757
0.00355758
-0.000358942
0.00436717
-0.00134459
0.00522175
-0.00240266
0.006105
-0.00349795
0.00699988
-0.00459656
0.00788962
-0.00566714
0.00875873
-0.00668215
0.00959394
-0.00761901
0.0103849
-0.00846087
0.0111245
-0.00919687
0.011809
-0.00982187
0.012438
-0.0103359
0.0130133
-0.0107431
0.0135392
-0.0110508
0.0140211
-0.0112684
0.0144653
-0.011406
0.0148779
-0.0114741
0.0152646
-0.0114823
0.0156293
-0.0114391
0.0159731
-0.0113515
0.0162927
-0.0112266
-0.0110942
0.0165925
2.54185e-05
0.000667669
0.000133916
0.001436
0.000341096
0.00184934
0.00065359
0.00193519
0.00107192
0.00173466
0.0015924
0.00128911
0.00220808
0.000637549
0.00290908
-0.000182245
0.00368284
-0.0011327
0.00451435
-0.0021761
0.00538669
-0.003275
0.00628176
-0.00439301
0.00718128
-0.00549608
0.00806793
-0.00655379
0.0089264
-0.00754062
0.00974427
-0.00843688
0.0105125
-0.00922914
0.0112258
-0.00991015
0.0118822
-0.0104782
0.0124828
-0.0109365
0.0130311
-0.0112915
0.0135327
-0.0115524
0.013994
-0.0117296
0.014422
-0.011834
0.014824
-0.011876
0.0152066
-0.0118649
0.0155756
-0.0118081
0.015934
-0.0117099
0.0162764
-0.0115691
0.0165521
-0.0113698
0.00652534
0.0102835
-0.0122535
0.00793178
0.0107392
-0.0121456
0.00881649
0.0136104
-0.0144951
0.00933853
0.0170943
-0.0176164
0.0095991
0.0204687
-0.0207292
0.00967701
0.0233234
-0.0234013
0.00963035
0.0256138
-0.0255672
0.00949931
0.027509
-0.027378
0.00931066
0.0291987
-0.02901
0.00908099
0.030805
-0.0305753
0.00881923
0.0323732
-0.0321115
0.00853171
0.0338953
-0.0336078
0.00822271
0.0353547
-0.0350457
0.0078953
0.0367411
-0.0364137
0.00755238
0.0380437
-0.0377008
0.00719637
0.0392581
-0.038902
0.00682881
0.0403891
-0.0400215
0.00645237
0.0414266
-0.0410502
0.00606759
0.0423795
-0.0419947
0.00567636
0.0432452
-0.042854
0.00527975
0.0440127
-0.0436161
0.00487824
0.0447027
-0.0443012
0.00447263
0.0452856
-0.04488
0.0040631
0.0457919
-0.0453824
0.00364878
0.0461866
-0.0457722
0.00323008
0.0465053
-0.0460866
0.00280349
0.0467202
-0.0462936
0.00237063
0.0468462
-0.0464133
0.00192864
0.0469341
-0.0464921
0.0470374
-0.0465968
0.00685654
0.0083577
0.00821758
0.0093781
0.00907009
0.0127578
0.00956974
0.0165947
0.00981551
0.0202229
0.00988343
0.0232555
0.00982948
0.0256678
0.00969314
0.0276453
0.00949971
0.0293921
0.00926492
0.0310398
0.00899861
0.0326396
0.00870609
0.0341879
0.00839129
0.0356695
0.00805791
0.0370745
0.00770835
0.0383933
0.00734486
0.0396215
0.00696983
0.0407641
0.0065844
0.0418121
0.00619078
0.0427731
0.00579
0.043646
0.00538287
0.0444198
0.00497098
0.0451146
0.00455404
0.0457025
0.00413313
0.0462128
0.00370685
0.0466128
0.00327613
0.046936
0.00283748
0.0471588
0.00239253
0.0472911
0.00193875
0.0473879
0.0474903
0.00721171
0.00650032
0.00851373
0.00807608
0.00932731
0.0119443
0.0098012
0.0161208
0.0100307
0.0199933
0.0100883
0.0231979
0.0100271
0.025729
0.00988545
0.027787
0.00968749
0.0295901
0.00944793
0.0312794
0.00917721
0.0329103
0.00887985
0.0344852
0.00855957
0.0359898
0.00822042
0.0374136
0.00786436
0.0387494
0.00749353
0.0399924
0.00711113
0.0411465
0.00671683
0.0422064
0.00631448
0.0431754
0.00590413
0.0440564
0.00548659
0.0448374
0.00506433
0.0455369
0.00463607
0.0461308
0.0042038
0.0466451
0.00376565
0.047051
0.00332289
0.0473787
0.00287224
0.0476095
0.00241513
0.0477483
0.0019494
0.0478536
0.0479556
0.00758946
0.00473579
0.00881913
0.0068464
0.00958723
0.0111762
0.0100323
0.0156757
0.0102445
0.0197812
0.0102913
0.023151
0.0102229
0.0257975
0.010076
0.0279338
0.00987371
0.0297924
0.0096299
0.0315232
0.00935484
0.0331853
0.00905285
0.0347872
0.00872752
0.0363151
0.00838261
0.0377585
0.00802021
0.0391118
0.00764243
0.0403701
0.00725245
0.0415365
0.00684979
0.042609
0.0064386
0.0435866
0.00601865
0.0444763
0.00559105
0.045265
0.00515812
0.0459698
0.00471879
0.0465701
0.0042751
0.0470888
0.00382519
0.0475009
0.00337047
0.0478334
0.00290773
0.0480722
0.00243849
0.0482175
0.00196057
0.0483316
0.0484334
0.00798841
0.00308786
0.00913262
0.00570219
0.00984904
0.0104597
0.0102624
0.0152624
0.010456
0.0195875
0.0104919
0.0231151
0.0104166
0.0258729
0.0102646
0.0280857
0.0100581
0.029999
0.00981056
0.0317707
0.00953136
0.0334645
0.00922485
0.0350937
0.00889484
0.0366451
0.00854435
0.038109
0.00817586
0.0394803
0.00779137
0.0407546
0.00739372
0.0419342
0.0069831
0.0430196
0.006563
0.0440067
0.0061335
0.0449058
0.00569605
0.0457024
0.00525241
0.0464134
0.00480213
0.0470204
0.00434698
0.0475439
0.00388536
0.0479625
0.00341873
0.0483001
0.00294389
0.0485471
0.0024625
0.0486989
0.00197226
0.0488218
0.048924
0.00840643
0.00157974
0.00945308
0.00465554
0.0101117
0.00980108
0.0104908
0.0148833
0.0106651
0.0194132
0.0106899
0.0230902
0.0106077
0.0259551
0.010451
0.0282424
0.0102405
0.0302095
0.00998954
0.0320217
0.00970655
0.0337475
0.00939583
0.0354044
0.00906132
0.0369796
0.00870553
0.0384648
0.00833117
0.0398546
0.00794013
0.0411457
0.00753504
0.0423393
0.00711655
0.0434381
0.00668765
0.0444356
0.00624878
0.0453447
0.00580145
0.0461497
0.00534722
0.0468677
0.00488602
0.0474816
0.00441948
0.0480105
0.00394616
0.0484358
0.00346764
0.0487786
0.00298073
0.049034
0.00248713
0.0491925
0.00198449
0.0493245
0.0494275
0.00883958
0.000235821
0.00977959
0.00371554
0.0103746
0.0092061
0.0107171
0.0145408
0.0108712
0.0192591
0.010885
0.0230764
0.0107962
0.0260439
0.010635
0.0284037
0.0104209
0.0304235
0.0101666
0.032276
0.00988019
0.034034
0.00956558
0.035719
0.0092268
0.0373184
0.00886599
0.0388256
0.00848598
0.0402346
0.00808857
0.0415431
0.00767628
0.0427515
0.00725004
0.0438644
0.00681247
0.0448732
0.00636439
0.0457928
0.0059072
0.0466069
0.0054425
0.0473324
0.00497039
0.0479537
0.00449255
0.0484883
0.00400756
0.0489208
0.00351717
0.049269
0.00301822
0.0495329
0.00251241
0.0496983
0.00199725
0.0498396
0.049944
0.00928887
-0.000929343
0.0101108
0.00289361
0.0106367
0.00868017
0.0109407
0.0142369
0.0110741
0.0191257
0.0110768
0.0230737
0.0109816
0.0261391
0.0108162
0.0285691
0.0105989
0.0306408
0.0103417
0.0325332
0.0100521
0.0343235
0.00973391
0.0360372
0.00939111
0.0376612
0.00902558
0.0391912
0.00864014
0.0406201
0.00823659
0.0419466
0.00781731
0.0431708
0.00738348
0.0442982
0.00693737
0.0453193
0.00648023
0.0462499
0.00601325
0.0470739
0.00553819
0.0478074
0.00505522
0.0484367
0.00456613
0.0489774
0.00406954
0.0494174
0.00356731
0.0497712
0.00305633
0.0500439
0.00253831
0.0502163
0.00201055
0.0503674
0.0504738
0.0097494
-0.00190095
0.0104454
0.00219762
0.0108975
0.00822807
0.0111611
0.0139732
0.0112735
0.0190134
0.0112652
0.023082
0.0111639
0.0262403
0.0109946
0.0287384
0.0107744
0.030861
0.0105144
0.0327932
0.0102221
0.0346159
0.00990063
0.0363586
0.00955408
0.0380077
0.00918412
0.0395611
0.00879353
0.0410107
0.00838407
0.0423561
0.007958
0.0435969
0.00751677
0.0447394
0.00706229
0.0457738
0.0065962
0.046716
0.00611955
0.0475506
0.00563424
0.0482927
0.00514046
0.0489304
0.00464017
0.0494777
0.00413206
0.0499255
0.00361802
0.0502853
0.00309501
0.0505669
0.0025648
0.0507465
0.0020244
0.0509078
0.051017
0.0102185
-0.00266875
0.0107805
0.00163561
0.011156
0.00785257
0.0113781
0.0137511
0.011469
0.0189225
0.0114499
0.0231011
0.0113429
0.0263474
0.0111699
0.0289114
0.0109471
0.0310838
0.0106847
0.0330556
0.0103899
0.0349107
0.0100655
0.036683
0.00971554
0.0383577
0.00934147
0.0399352
0.00894597
0.0414062
0.00853086
0.0427712
0.00809823
0.0440295
0.00764979
0.0451879
0.00718713
0.0462365
0.00671224
0.0471909
0.00622603
0.0480368
0.00573057
0.0487882
0.00522607
0.049435
0.00471463
0.0499891
0.00419506
0.0504451
0.00366928
0.050811
0.00313425
0.0511019
0.00259187
0.0512889
0.0020388
0.0514608
0.0515736
0.0106935
-0.00322832
0.0111134
0.00121565
0.0114117
0.00755432
0.0115912
0.0135716
0.0116607
0.018853
0.0116309
0.0231309
0.0115184
0.0264599
0.0113421
0.0290877
0.0111169
0.0313089
0.0108524
0.0333201
0.0105554
0.0352077
0.0102285
0.0370099
0.00987532
0.0387109
0.00949745
0.0403131
0.00909733
0.0418063
0.00867684
0.0431917
0.00823789
0.0444685
0.00778242
0.0456433
0.0073118
0.0467071
0.00682825
0.0476745
0.00633263
0.0485324
0.00582711
0.0492937
0.00531199
0.0499501
0.00478947
0.0505117
0.00425848
0.0509761
0.00372103
0.0513485
0.00317403
0.0516489
0.00261949
0.0518435
0.00205375
0.0520266
0.052144
0.0111658
-0.00357583
0.0114462
0.000935251
0.0116637
0.0073369
0.0118002
0.013435
0.0118482
0.0188051
0.0118081
0.023171
0.0116904
0.0265777
0.011511
0.0292671
0.0112837
0.0315361
0.0110174
0.0335864
0.0107184
0.0355067
0.0103893
0.0373391
0.0100332
0.0390669
0.00965189
0.0406944
0.00924745
0.0422107
0.00882185
0.0436173
0.00837685
0.0449135
0.00791456
0.0461056
0.00743621
0.0471854
0.00694415
0.0481665
0.00643926
0.0490373
0.0059238
0.0498092
0.00539817
0.0504757
0.00486464
0.0510452
0.00432226
0.0515185
0.00377322
0.0518975
0.00321431
0.0522078
0.00264764
0.0524101
0.00206923
0.052605
0.0527281
0.0116328
-0.00371378
0.0117751
0.000792907
0.0119113
0.0072007
0.0120048
0.0133416
0.0120315
0.0187783
0.0119814
0.0232211
0.0118588
0.0267003
0.0116765
0.0294494
0.0114474
0.0317653
0.0111794
0.0338544
0.0108788
0.0358074
0.0105477
0.0376701
0.0101891
0.0394255
0.00980462
0.0410789
0.00939617
0.0426192
0.00896574
0.0440477
0.00851499
0.0453642
0.00804609
0.0465745
0.00756025
0.0476713
0.00705985
0.0486669
0.00654586
0.0495513
0.00602056
0.0503345
0.00548454
0.0510117
0.00494008
0.0515896
0.00438638
0.0520722
0.00382579
0.0524581
0.00325507
0.0527786
0.00267632
0.0529889
0.00208523
0.0531961
0.0533262
0.0120904
-0.00364962
0.0120974
0.000785898
0.0121537
0.00714449
0.0122044
0.0132908
0.0122104
0.0187724
0.0121507
0.0232808
0.0120235
0.0268275
0.0118386
0.0296343
0.0116077
0.0319962
0.0113384
0.0341237
0.0110363
0.0361095
0.0107036
0.0380028
0.0103428
0.0397864
0.00995547
0.0414662
0.00954334
0.0430313
0.00910837
0.0444827
0.00865216
0.0458204
0.00817691
0.0470498
0.0076838
0.0481644
0.00717524
0.0491755
0.00665234
0.0500742
0.00611733
0.0508695
0.00557101
0.051558
0.00501573
0.0521449
0.00445077
0.0526371
0.0038787
0.0530302
0.00329624
0.053361
0.00270548
0.0535796
0.00210175