/*--------------------------------*- C++ -*----------------------------------*\
  =========                 |
  \\      /  F ield         | OpenFOAM: The Open Source CFD Toolbox
   \\    /   O peration     | Website:  https://openfoam.org
    \\  /    A nd           | Version:  7
     \\/     M anipulation  |
\*---------------------------------------------------------------------------*/
FoamFile
{
    version     2.0;
    format      ascii;
    class       volVectorField;
    location    "3.2";
    object      U;
}
// * * * * * * * * * * * * * * * * * * * * * * * * * * * * * * * * * * * * * //

dimensions      [0 1 -1 0 0 0 0];

internalField   nonuniform List<vector> 
18000
(
(-0.00174437 0.0362442 1.58916e-20)
(-0.0078768 0.0925009 0)
(-0.0175235 0.138233 0)
(-0.027996 0.173991 0)
(-0.0385094 0.201268 -5.23849e-21)
(-0.048286 0.221658 2.64901e-20)
(-0.0568185 0.236501 -5.36472e-21)
(-0.0637898 0.246802 5.40174e-21)
(-0.0690217 0.253271 0)
(-0.0724339 0.256404 -1.63423e-20)
(-0.0740147 0.256561 -5.47244e-21)
(-0.0737972 0.254036 0)
(-0.0718459 0.2491 1.09121e-20)
(-0.068246 0.242029 1.09491e-20)
(-0.0630988 0.233109 -2.18306e-20)
(-0.0565178 0.222646 -2.17697e-20)
(-0.048624 0.210954 0)
(-0.0395461 0.198348 -3.24478e-20)
(-0.0294211 0.185146 1.07642e-20)
(-0.0183921 0.17165 -3.21227e-20)
(-0.00660797 0.158146 1.06457e-20)
(0.00577949 0.144894 0)
(0.0186205 0.132124 -1.04467e-20)
(0.0317675 0.120034 -1.04356e-20)
(0.0450782 0.108793 0)
(0.0584178 0.0985376 0)
(0.0716524 0.0893924 -2.03552e-20)
(0.0846714 0.0814744 -2.01845e-20)
(0.0973749 0.0750105 -2.00928e-20)
(0.109336 0.0704126 2.19319e-20)
(-0.00258712 0.0376559 2.25687e-20)
(-0.00962015 0.0955902 3.93024e-20)
(-0.019537 0.142343 -4.0225e-20)
(-0.0300004 0.178649 -4.10144e-20)
(-0.0403402 0.206063 -1.04419e-20)
(-0.0498614 0.226243 3.16182e-20)
(-0.0580997 0.240592 -4.26739e-20)
(-0.0647549 0.250178 -4.30183e-20)
(-0.0696531 0.255762 4.32745e-20)
(-0.0727149 0.257884 4.34741e-20)
(-0.0739242 0.25694 -2.17538e-20)
(-0.073309 0.253252 -4.36044e-20)
(-0.0709323 0.247112 -2.18934e-20)
(-0.0668776 0.238814 4.35404e-20)
(-0.0612459 0.228664 -4.34176e-20)
(-0.0541534 0.216981 4.34552e-20)
(-0.0457266 0.204096 -8.6476e-20)
(-0.0361013 0.190344 6.46285e-20)
(-0.0254219 0.176057 -4.27504e-20)
(-0.0138397 0.161555 2.13829e-20)
(-0.00151302 0.147136 -4.22653e-20)
(0.0113969 0.133075 0)
(0.0247312 0.119612 2.11725e-20)
(0.0383342 0.106954 -4.14891e-20)
(0.0520585 0.0952732 4.11082e-20)
(0.0657629 0.0847137 0)
(0.0793091 0.0753993 -2.01032e-20)
(0.0925906 0.06746 2.00095e-20)
(0.105512 0.0611483 7.96214e-20)
(0.117641 0.0569336 4.3409e-20)
(-0.00347198 0.0387932 -3.61958e-20)
(-0.0114094 0.0980911 -3.93014e-20)
(-0.0215351 0.145813 6.03092e-20)
(-0.0318855 0.182681 1.02305e-19)
(-0.0419207 0.210285 0)
(-0.0510336 0.230326 -4.22299e-20)
(-0.0588074 0.244257 4.26723e-20)
(-0.064972 0.253199 1.28754e-19)
(-0.0693628 0.257963 -4.32728e-20)
(-0.0718972 0.259131 -4.345e-20)
(-0.0725597 0.257138 1.30323e-19)
(-0.0713778 0.25233 4.36026e-20)
(-0.0684115 0.245024 0)
(-0.063746 0.235535 -8.70168e-20)
(-0.0574854 0.224185 1.29807e-19)
(-0.0497514 0.211311 -4.30151e-20)
(-0.0406771 0.197261 4.31501e-20)
(-0.0304048 0.182389 4.28937e-20)
(-0.0190884 0.167044 1.76915e-22)
(-0.00689037 0.151561 0)
(0.00602224 0.136254 1.26649e-19)
(0.0194791 0.121412 -8.36188e-20)
(0.0333118 0.107285 4.17125e-20)
(0.047359 0.0940882 0)
(0.0614664 0.0819984 -4.11067e-20)
(0.0754881 0.0711606 1.62476e-19)
(0.0892876 0.0617015 -1.20496e-19)
(0.102758 0.0537567 -4.01174e-20)
(0.115807 0.0475971 3.92704e-20)
(0.128011 0.0437528 4.31152e-20)
(-0.00439746 0.0397504 0)
(-0.0132466 0.100234 1.95548e-20)
(-0.0235196 0.148811 1.05508e-23)
(-0.0336669 0.186201 -1.02156e-19)
(-0.0432676 0.214008 0)
(-0.0518206 0.233953 -8.38989e-20)
(-0.0589695 0.247518 0)
(-0.0644708 0.25587 -1.28548e-19)
(-0.0681734 0.259871 4.30151e-20)
(-0.0700012 0.260144 -8.62335e-20)
(-0.0699402 0.257153 -8.67627e-20)
(-0.0680185 0.251277 -4.33522e-20)
(-0.0642972 0.242856 4.3268e-20)
(-0.0588651 0.232222 4.29776e-20)
(-0.0518322 0.219717 -4.33696e-20)
(-0.0433259 0.205696 -8.55583e-20)
(-0.0334875 0.190526 8.54988e-20)
(-0.0224702 0.174577 0)
(-0.0104382 0.158214 0)
(0.00243607 0.141791 0)
(0.0159761 0.125639 0)
(0.030002 0.110057 0)
(0.0443367 0.0953074 0)
(0.0588121 0.0816125 -8.17711e-20)
(0.0732702 0.0691526 -8.15325e-20)
(0.0875623 0.0580731 -3.69004e-22)
(0.10155 0.0484994 -8.00811e-20)
(0.11513 0.0405667 -3.9843e-22)
(0.128222 0.0345614 -7.94128e-20)
(0.140403 0.0310722 1.70859e-19)
(-0.00533508 0.0404101 0)
(-0.0150889 0.101812 1.75068e-19)
(-0.0254625 0.151127 1.15702e-23)
(-0.0353229 0.189023 -6.1018e-20)
(-0.0443749 0.217069 2.06369e-19)
(-0.0522318 0.236977 1.25792e-19)
(-0.0585992 0.250254 1.26648e-19)
(-0.0632695 0.2581 0)
(-0.0661118 0.261417 0)
(-0.0670585 0.260869 1.2928e-19)
(-0.0660996 0.256954 4.13875e-23)
(-0.063268 0.250079 -3.01563e-19)
(-0.058629 0.240606 2.58117e-19)
(-0.0522769 0.228891 -8.62352e-20)
(-0.0443289 0.215293 8.52599e-20)
(-0.0349216 0.200187 8.55549e-20)
(-0.024207 0.183956 -8.46828e-20)
(-0.0123497 0.166988 8.4769e-20)
(0.000475016 0.149666 1.68112e-19)
(0.014084 0.132362 -8.36349e-20)
(0.0282902 0.11542 -1.65882e-19)
(0.0429039 0.0991536 1.64783e-19)
(0.0577405 0.0838356 -1.63639e-19)
(0.0726266 0.0696943 8.17674e-20)
(0.0873998 0.0569134 0)
(0.101911 0.0456362 0)
(0.116023 0.0359834 7.3401e-22)
(0.129633 0.028088 -3.15056e-19)
(0.142678 0.0222427 1.56025e-19)
(0.154742 0.0190909 -1.69598e-19)
(-0.00627508 0.0408377 0)
(-0.0169211 0.102895 -1.55578e-19)
(-0.0273525 0.152818 1.58696e-19)
(-0.0368577 0.191177 0)
(-0.0452616 0.219473 -3.29526e-19)
(-0.0522934 0.239394 -4.17483e-20)
(-0.0577336 0.25245 -8.46158e-20)
(-0.0614151 0.259864 -4.24659e-20)
(-0.063229 0.262576 0)
(-0.0631231 0.261286 -8.57464e-20)
(-0.0610973 0.256523 8.58307e-20)
(-0.0571901 0.248723 1.72135e-19)
(-0.0514737 0.238276 -1.71966e-19)
(-0.0440512 0.225555 0)
(-0.0350502 0.210942 -1.71096e-19)
(-0.0246183 0.194826 1.69509e-19)
(-0.0129194 0.177609 1.69695e-19)
(-0.000130845 0.159697 2.52087e-19)
(0.0135594 0.141491 -2.51537e-19)
(0.0279564 0.123378 3.3245e-19)
(0.0428628 0.105718 1.65526e-19)
(0.0580797 0.0888365 -1.64775e-19)
(0.0734148 0.0730159 3.26176e-19)
(0.08869 0.0584909 0)
(0.103741 0.0454463 1.60144e-19)
(0.118418 0.0340235 3.18536e-19)
(0.132588 0.0243352 -1.56877e-19)
(0.146151 0.0165066 1.57361e-19)
(0.159062 0.010831 -3.34106e-22)
(0.17092 0.00799993 -1.68285e-19)
(-0.00720012 0.041002 -1.77999e-20)
(-0.0187202 0.103436 0)
(-0.0291766 0.15382 -1.98311e-19)
(-0.038266 0.192584 4.03721e-20)
(-0.045934 0.221141 1.23409e-19)
(-0.05203 0.241123 4.15663e-20)
(-0.0564096 0.254026 1.6773e-19)
(-0.0589527 0.261092 0)
(-0.0595812 0.263287 8.5117e-20)
(-0.0582626 0.261341 8.50508e-20)
(-0.055008 0.255819 -8.55165e-20)
(-0.0498666 0.247185 2.56065e-19)
(-0.0429214 0.235852 0)
(-0.034287 0.222216 0)
(-0.0241028 0.206676 2.54203e-19)
(-0.0125295 0.189642 -4.22533e-19)
(0.000254266 0.17153 1.67732e-19)
(0.0140577 0.152766 -1.67826e-19)
(0.0286797 0.133765 -1.65837e-19)
(0.0439127 0.114932 -4.96161e-19)
(0.0595478 0.0966392 -7.14392e-22)
(0.075378 0.0792244 1.62601e-19)
(0.0912042 0.0629789 -3.23986e-19)
(0.106844 0.0481426 1.60267e-19)
(0.122131 0.034901 -1.08207e-21)
(0.13692 0.0233911 -1.58887e-19)
(0.151081 0.0137162 1.57608e-19)
(0.16452 0.00598838 0)
(0.177217 0.000492295 1.53934e-19)
(0.1888 -0.00204925 3.44951e-22)
(-0.00809771 0.0409101 -3.5463e-20)
(-0.0204667 0.10343 3.85555e-20)
(-0.0309213 0.154118 -2.36481e-19)
(-0.0395502 0.193219 -1.20468e-19)
(-0.0464113 0.22203 1.63321e-19)
(-0.0514736 0.24211 -2.48357e-19)
(-0.0546735 0.254929 -8.40419e-20)
(-0.0559443 0.261727 -1.68363e-19)
(-0.055243 0.263493 1.69212e-19)
(-0.0525613 0.260987 -3.40104e-19)
(-0.0479277 0.254803 -1.69904e-19)
(-0.0414053 0.245433 -7.5943e-22)
(-0.0330909 0.233314 8.49803e-20)
(-0.0231127 0.218864 -2.53747e-19)
(-0.0116254 0.202502 -3.37673e-19)
(0.00119486 0.184653 3.81006e-22)
(0.0151549 0.165752 -5.72891e-22)
(0.0300485 0.146239 1.65811e-19)
(0.04566 0.126548 1.65828e-19)
(0.0617689 0.107096 3.62198e-22)
(0.078155 0.0882691 -3.45034e-22)
(0.0946025 0.0704152 1.60799e-19)
(0.110907 0.0538335 1.61441e-19)
(0.126882 0.0387675 -3.35634e-22)
(0.142362 0.0254032 -4.76059e-19)
(0.157206 0.0138717 3.13794e-19)
(0.171289 0.00426503 3.12414e-19)
(0.184526 -0.00332274 -3.09023e-19)
(0.196918 -0.00862474 -1.53927e-19)
(0.208129 -0.0109084 -1.64117e-19)
(-0.00895369 0.040569 -3.17387e-19)
(-0.0221407 0.102883 -3.84149e-20)
(-0.0325767 0.153701 1.96858e-19)
(-0.0407135 0.193052 1.60692e-19)
(-0.0467132 0.222099 -1.63317e-19)
(-0.0506623 0.242306 1.6545e-19)
(-0.0525808 0.255098 -8.34282e-20)
(-0.0524609 0.261708 2.5236e-19)
(-0.0503005 0.263137 -1.69205e-19)
(-0.0461209 0.260168 1.69705e-19)
(-0.0399721 0.253424 8.51266e-20)
(-0.0319356 0.243424 -8.50996e-20)
(-0.0221248 0.230629 -5.06584e-19)
(-0.0106852 0.215478 3.37621e-19)
(0.00221195 0.198407 1.68383e-19)
(0.0163733 0.179859 0)
(0.0315888 0.160286 0)
(0.0476368 0.140143 -1.57687e-21)
(0.0642861 0.119878 -1.63394e-19)
(0.0813019 0.0999211 0)
(0.0984532 0.08067 0)
(0.115516 0.0624821 -1.6151e-19)
(0.13228 0.0456622 0)
(0.148557 0.0304571 -3.16209e-19)
(0.164184 0.0170512 0)
(0.179023 0.00556974 -1.56726e-19)
(0.192962 -0.00390819 3.10278e-19)
(0.20592 -0.0113094 -3.0691e-19)
(0.217924 -0.0163915 0)
(0.228687 -0.0184242 0)
(-0.00975641 0.0399924 2.82059e-19)
(-0.0237244 0.101808 0)
(-0.0341337 0.15257 -3.91937e-20)
(-0.0417607 0.192068 3.99388e-20)
(-0.0468621 0.221313 -2.43069e-19)
(-0.0496374 0.24166 5.90984e-23)
(-0.050192 0.254476 -8.30823e-20)
(-0.0485817 0.260972 0)
(-0.0448509 0.262152 0)
(-0.0390558 0.258821 -8.43377e-20)
(-0.0312728 0.251624 8.44197e-20)
(-0.0216054 0.241106 -1.68673e-19)
(-0.0101875 0.227752 1.69894e-19)
(0.00281583 0.212021 0)
(0.017214 0.194365 0)
(0.0327959 0.175244 0)
(0.0493336 0.155127 1.64336e-19)
(0.0665879 0.134482 -9.47758e-22)
(0.0843115 0.11377 1.64366e-19)
(0.102256 0.0934323 -3.23374e-19)
(0.120178 0.0738773 1.61224e-19)
(0.137847 0.0554695 -7.98765e-19)
(0.155046 0.0385184 6.79301e-22)
(0.171587 0.0232719 3.16192e-19)
(0.187309 0.00991213 -1.44054e-21)
(0.202085 -0.00144278 3.0986e-19)
(0.21581 -0.0107277 -3.06727e-19)
(0.228417 -0.0178921 -3.05614e-19)
(0.239958 -0.0227249 6.27373e-22)
(0.25021 -0.024512 -3.20721e-19)
(-0.0104959 0.0391977 -3.50532e-20)
(-0.0252018 0.100227 0)
(-0.0355842 0.150736 7.81048e-20)
(-0.0426974 0.190259 -7.95894e-20)
(-0.0468808 0.219647 7.28466e-19)
(-0.0484413 0.240132 5.7529e-23)
(-0.0475699 0.253008 -8.27851e-20)
(-0.0443902 0.259456 8.34071e-20)
(-0.0389982 0.260474 -4.18373e-19)
(-0.0314898 0.256879 0)
(-0.0219725 0.249339 0)
(-0.0105765 0.23842 -1.67282e-19)
(0.00254087 0.224629 1.6828e-19)
(0.0171926 0.208443 -1.66943e-19)
(0.0331672 0.190333 1.66231e-19)
(0.0502338 0.170774 0)
(0.0681455 0.150249 -6.57608e-19)
(0.0866449 0.129239 3.25822e-19)
(0.105468 0.108215 1.62394e-19)
(0.124352 0.087629 4.83673e-19)
(0.143043 0.0678985 0)
(0.161299 0.0493928 3.18796e-19)
(0.178902 0.0324244 3.15089e-19)
(0.195664 0.0172407 3.12681e-19)
(0.211429 0.00401989 -2.05194e-21)
(0.226079 -0.00712842 -3.07157e-19)
(0.239524 -0.0161536 3.06712e-19)
(0.25171 -0.0230293 0)
(0.262714 -0.0275806 6.52805e-22)
(0.272398 -0.0291249 6.37537e-19)
(-0.011165 0.0382071 -2.78817e-19)
(-0.0265604 0.0981727 0)
(-0.0369214 0.148223 -3.10567e-19)
(-0.043529 0.187633 -3.96208e-19)
(-0.0467914 0.217087 -2.42562e-19)
(-0.0471156 0.237689 8.17243e-20)
(-0.0447773 0.250648 3.30474e-23)
(-0.0399707 0.257102 -8.3092e-20)
(-0.0328482 0.258036 1.22907e-21)
(-0.02355 0.254274 1.67326e-19)
(-0.0122198 0.246499 1.6674e-19)
(0.000982376 0.235296 -1.65783e-19)
(0.0158723 0.221192 1.66854e-19)
(0.0322389 0.204683 -4.97715e-19)
(0.049848 0.186254 4.95411e-19)
(0.0684478 0.166398 3.28155e-19)
(0.0877712 0.145606 8.17559e-19)
(0.107541 0.124372 -1.64212e-19)
(0.127478 0.103179 -3.21772e-19)
(0.147302 0.0824846 -1.89599e-21)
(0.166748 0.0627135 -3.18378e-19)
(0.185566 0.0442385 9.46367e-19)
(0.203536 0.0273727 -6.28806e-19)
(0.22047 0.0123611 6.20682e-19)
(0.236221 -0.000624513 -3.09597e-19)
(0.250681 -0.0114837 6.12278e-19)
(0.263778 -0.0201814 1.37778e-21)
(0.275474 -0.0267156 -6.02211e-19)
(0.285874 -0.0309509 5.95722e-19)
(0.294935 -0.032249 3.14042e-19)
(-0.0117587 0.0370456 2.78816e-19)
(-0.0277909 0.0956854 0)
(-0.0381401 0.145066 6.97558e-19)
(-0.04426 0.184207 2.378e-19)
(-0.0466131 0.213633 0)
(-0.0456977 0.23431 0)
(-0.0418723 0.247357 0)
(-0.0354036 0.253858 0)
(-0.0265035 0.254777 1.67003e-19)
(-0.0153612 0.250937 1.6677e-19)
(-0.00216053 0.243031 -3.34214e-19)
(0.0129045 0.231661 3.33771e-19)
(0.0296208 0.217369 4.97442e-19)
(0.0477506 0.200668 1.66093e-19)
(0.0670358 0.18206 1.63004e-19)
(0.0872022 0.162047 -4.91831e-19)
(0.107961 0.141134 -6.50577e-19)
(0.129015 0.119824 -3.23985e-19)
(0.150067 0.0986071 3.21753e-19)
(0.170822 0.0779495 -6.38196e-19)
(0.191 0.058278 3.15985e-19)
(0.210346 0.0399673 -6.28898e-19)
(0.228637 0.0233283 3.10492e-19)
(0.245688 0.0086014 -1.25124e-21)
(0.261361 -0.00404975 -3.0624e-19)
(0.275564 -0.0145366 -6.09625e-19)
(0.288246 -0.0228388 6.0389e-19)
(0.299387 -0.0289792 0)
(0.309118 -0.0328635 -6.38203e-22)
(0.317511 -0.0339061 -6.24381e-19)
(-0.012275 0.0357412 3.46546e-20)
(-0.028887 0.0928123 0)
(-0.0392359 0.141308 -3.09446e-19)
(-0.0448928 0.180014 7.8827e-20)
(-0.0463601 0.209296 -8.00394e-20)
(-0.0442182 0.229987 0)
(-0.0389049 0.243107 -8.19418e-20)
(-0.0307594 0.24968 8.25052e-20)
(-0.0200565 0.250641 1.6571e-19)
(-0.00703736 0.246803 -4.97779e-19)
(0.00807028 0.238864 -1.66049e-19)
(0.0250354 0.227439 1.71996e-22)
(0.0436134 0.213082 -6.92092e-22)
(0.0635382 0.196322 -3.29351e-19)
(0.0845261 0.177671 -1.64509e-19)
(0.106279 0.157645 0)
(0.128484 0.136758 8.27778e-22)
(0.150824 0.11552 3.2226e-19)
(0.172982 0.0944299 -3.19026e-19)
(0.194646 0.0739566 0)
(0.215524 0.0545286 0)
(0.235353 0.0365188 0)
(0.253909 0.0202343 0)
(0.271014 0.00590682 -1.87193e-21)
(0.286541 -0.00631017 0)
(0.300416 -0.0163415 0)
(0.312613 -0.0241823 2.98736e-19)
(0.323135 -0.0298789 2.96191e-19)
(0.332139 -0.033379 2.94925e-19)
(0.339821 -0.0341537 -6.55684e-22)
(-0.0127148 0.0343236 3.45255e-20)
(-0.0298463 0.089606 -7.51684e-20)
(-0.0402052 0.137005 4.6114e-19)
(-0.0454269 0.175096 -7.84568e-20)
(-0.0460404 0.204103 7.98412e-20)
(-0.0426976 0.224725 5.85774e-23)
(-0.0359119 0.237885 2.44425e-19)
(-0.0260938 0.244539 -3.28337e-19)
(-0.0135821 0.245583 4.94881e-19)
(0.00132682 0.241815 6.24428e-22)
(0.0183591 0.233934 -1.6482e-19)
(0.0372441 0.222558 3.29803e-19)
(0.0577031 0.208255 -3.28718e-19)
(0.0794404 0.191562 3.27243e-19)
(0.102144 0.173006 0)
(0.125491 0.153109 3.23448e-19)
(0.149143 0.132395 0)
(0.17276 0.11138 1.59765e-21)
(0.196002 0.0905674 -3.16577e-19)
(0.218542 0.0704283 -3.14158e-19)
(0.240073 0.0513897 3.1172e-19)
(0.260328 0.03382 -3.09274e-19)
(0.279082 0.018018 -3.06823e-19)
(0.296167 0.00420491 -6.10532e-19)
(0.311472 -0.00747948 -3.01883e-19)
(0.324944 -0.0169744 3.00636e-19)
(0.336585 -0.0242914 -5.9616e-19)
(0.346426 -0.0294987 -2.96179e-19)
(0.354648 -0.0325852 0)
(0.36158 -0.0330798 -3.06684e-19)
(-0.0130813 0.032823 0)
(-0.0306689 0.0861231 2.98899e-19)
(-0.0410442 0.132219 -2.30518e-19)
(-0.0458577 0.16951 -3.90562e-19)
(-0.0456529 0.198094 0)
(-0.0411435 0.218549 0)
(-0.0329129 0.231696 -4.88808e-19)
(-0.021441 0.238419 6.55564e-19)
(-0.00713077 0.239573 -4.93763e-19)
(0.00966498 0.235932 0)
(0.0286242 0.228185 1.65606e-19)
(0.0494346 0.216957 -1.65101e-19)
(0.0717816 0.202819 1.28197e-21)
(0.0953373 0.186318 -1.64505e-19)
(0.11976 0.167988 -1.61588e-19)
(0.144698 0.14836 -1.43574e-21)
(0.169786 0.127965 3.1976e-19)
(0.194658 0.107323 3.18942e-19)
(0.218951 0.0869399 7.4765e-22)
(0.242318 0.0672859 6.27399e-19)
(0.264443 0.0487828 -6.22745e-19)
(0.28505 0.0317916 6.17476e-19)
(0.303921 0.0165992 3.06808e-19)
(0.3209 0.00341308 3.04347e-19)
(0.335896 -0.00764359 1.77747e-21)
(0.348883 -0.0165261 0)
(0.359894 -0.0232627 2.96239e-19)
(0.368993 -0.0279419 -8.80364e-19)
(0.376383 -0.0305917 2.88563e-19)
(0.382533 -0.030796 3.03079e-19)
(-0.0133801 0.0312698 -2.05148e-19)
(-0.0313575 0.0824223 -6.7137e-19)
(-0.0417488 0.127018 -9.59164e-23)
(-0.0461752 0.163322 9.84361e-22)
(-0.0451863 0.191327 -2.37277e-19)
(-0.0395474 0.211499 0)
(-0.029906 0.224563 -1.61645e-19)
(-0.0168086 0.231329 -9.79941e-19)
(-0.000720856 0.232602 4.92678e-19)
(0.0179476 0.229128 -3.2811e-19)
(0.0388254 0.221584 4.92207e-19)
(0.0615572 0.21059 -1.64086e-19)
(0.0857903 0.196721 3.27412e-19)
(0.111162 0.180528 -8.12978e-19)
(0.137299 0.162553 4.85855e-19)
(0.163815 0.143332 -8.58233e-22)
(0.190317 0.123399 -9.57228e-19)
(0.216408 0.103279 3.16603e-19)
(0.241702 0.0834768 -3.14226e-19)
(0.26583 0.0644573 0)
(0.288466 0.0466346 3.0843e-19)
(0.309334 0.0303574 0)
(0.328223 0.015898 -3.04469e-19)
(0.344996 0.00344546 3.01476e-19)
(0.359586 -0.006895 3.0008e-19)
(0.372 -0.0150971 2.95802e-19)
(0.382305 -0.0212051 0)
(0.390603 -0.0253262 0)
(0.39712 -0.0275239 -5.80208e-19)
(0.402458 -0.027433 9.00276e-19)
(-0.0136189 0.0296929 2.05341e-19)
(-0.0319167 0.0785624 3.72103e-19)
(-0.0423128 0.121476 -3.04003e-19)
(-0.0463632 0.156608 6.21515e-19)
(-0.0446169 0.183872 8.01076e-20)
(-0.037882 0.203635 8.01183e-20)
(-0.0268644 0.21653 1.14295e-21)
(-0.0121727 0.223296 -3.24428e-19)
(0.00566699 0.224683 -1.6289e-19)
(0.0261889 0.221404 1.12403e-21)
(0.048972 0.214118 -1.15058e-21)
(0.0736163 0.203435 -4.8938e-19)
(0.0997287 0.18993 -1.62027e-19)
(0.126909 0.174157 1.26086e-21)
(0.154746 0.156659 3.21397e-19)
(0.182818 0.137978 3.19236e-19)
(0.210697 0.11865 1.39255e-21)
(0.237954 0.0991988 -3.14463e-19)
(0.264175 0.0801255 3.12687e-19)
(0.288976 0.0618868 -3.10154e-19)
(0.312018 0.0448847 -6.15285e-19)
(0.333032 0.0294512 -3.05282e-19)
(0.35182 0.01584 6.04162e-19)
(0.368268 0.00421884 0)
(0.382345 -0.00532753 -2.9666e-19)
(0.394092 -0.012792 -5.89872e-19)
(0.403616 -0.0182347 -5.85221e-19)
(0.411058 -0.0217788 2.90044e-19)
(0.416668 -0.0235194 -8.62655e-19)
(0.421175 -0.023136 2.97702e-19)
(-0.0138063 0.0281192 -3.39862e-19)
(-0.0323515 0.0746009 7.40018e-20)
(-0.0427277 0.115667 3.04006e-19)
(-0.046398 0.149452 -2.32748e-19)
(-0.0439077 0.175812 7.92262e-20)
(-0.0361003 0.195033 -1.35876e-22)
(-0.0237339 0.207666 8.05509e-19)
(-0.00747457 0.214376 3.25015e-19)
(0.012094 0.215859 3.26391e-19)
(0.0344516 0.21279 4.90075e-19)
(0.0591273 0.205804 -4.90111e-19)
(0.085675 0.195501 3.26142e-19)
(0.113658 0.182448 6.48954e-19)
(0.142633 0.167198 3.22398e-19)
(0.172147 0.150296 -8.95179e-22)
(0.201739 0.132285 -6.38038e-19)
(0.230938 0.113698 6.32953e-19)
(0.259284 0.0950594 5.56569e-22)
(0.286333 0.0768587 -3.11198e-19)
(0.311686 0.059541 3.08677e-19)
(0.335002 0.0434911 3.06856e-19)
(0.356021 0.0290211 -3.02767e-19)
(0.374567 0.016361 -6.02923e-19)
(0.390561 0.00565548 -4.20743e-22)
(0.404006 -0.00303328 2.9724e-19)
(0.414989 -0.00971718 2.9407e-19)
(0.423659 -0.0144715 5.81706e-19)
(0.430197 -0.0174322 -5.73665e-19)
(0.434875 -0.018722 0)
(0.438536 -0.0180587 2.9576e-19)
(-0.0139518 0.0265723 9.62564e-22)
(-0.032667 0.0705913 0)
(-0.0429814 0.109668 -2.26219e-19)
(-0.0462476 0.141943 -7.70945e-20)
(-0.0430075 0.167242 -3.1325e-19)
(-0.0341341 0.185789 0)
(-0.0204319 0.198059 -4.82266e-19)
(-0.00261979 0.20465 1.61682e-19)
(0.0186644 0.206202 0)
(0.0428478 0.203347 -3.24738e-19)
(0.0694092 0.196697 0)
(0.0978535 0.186831 -4.85839e-19)
(0.127696 0.174311 4.84238e-19)
(0.158446 0.159683 -3.22066e-19)
(0.189603 0.14349 -3.18835e-19)
(0.220656 0.126273 0)
(0.251094 0.108562 0)
(0.280418 0.0908707 3.12242e-19)
(0.308162 0.073678 -1.50727e-22)
(0.333915 0.057411 3.06465e-19)
(0.357341 0.0424325 -3.04572e-19)
(0.378197 0.0290302 6.04885e-19)
(0.396343 0.0174075 -2.99265e-19)
(0.411737 0.00768399 0)
(0.424429 -0.000101354 8.838e-19)
(0.434552 -0.00597862 -1.45698e-18)
(0.442299 -0.0100367 2.89288e-19)
(0.447893 -0.0124206 2.87083e-19)
(0.451626 -0.0132765 2.82647e-19)
(0.45444 -0.0123539 5.85115e-19)
(-0.0140646 0.0250722 -2.68876e-19)
(-0.0328664 0.0665825 5.87285e-19)
(-0.0430574 0.103551 3.01881e-19)
(-0.0458717 0.134172 6.90946e-19)
(-0.0418513 0.158267 8.59479e-19)
(-0.0318948 0.176012 1.58494e-19)
(-0.0168485 0.187819 -7.99004e-19)
(0.00252033 0.194225 0)
(0.025523 0.195812 -6.4616e-19)
(0.0515353 0.193172 -3.22484e-19)
(0.0799841 0.186884 0)
(0.110322 0.17751 -3.21453e-19)
(0.14201 0.165596 -9.31827e-22)
(0.174504 0.151683 -9.59754e-19)
(0.207246 0.136307 3.18827e-19)
(0.239676 0.120002 3.1569e-19)
(0.271236 0.103292 -6.26154e-19)
(0.301391 0.0866757 -6.22027e-19)
(0.329658 0.0706141 1.93824e-22)
(0.355621 0.0555117 -6.49425e-22)
(0.378961 0.0417057 0)
(0.399466 0.0294551 -3.00601e-19)
(0.417036 0.0189348 -2.96456e-19)
(0.431679 0.0102381 0)
(0.443496 0.00338172 0)
(0.452669 -0.00168163 8.7096e-19)
(0.459437 -0.00505131 -8.58807e-19)
(0.464061 -0.00687887 0)
(0.466853 -0.0073272 8.43167e-19)
(0.468831 -0.00617151 -5.80016e-19)
(-0.014153 0.0236341 1.9685e-21)
(-0.0329508 0.0626169 -5.87187e-19)
(-0.0429341 0.0973856 -7.50224e-20)
(-0.0452215 0.126231 -7.67362e-19)
(-0.0403612 0.148995 -4.68653e-19)
(-0.029276 0.165823 1.57953e-19)
(-0.0128502 0.177077 3.2011e-19)
(0.00810385 0.183232 8.0185e-19)
(0.0328486 0.184822 6.46161e-19)
(0.0607083 0.182392 6.47218e-19)
(0.0910554 0.176491 0)
(0.123284 0.167657 2.3744e-21)
(0.156796 0.15642 0)
(0.190982 0.14331 6.3919e-19)
(0.225227 0.128852 0)
(0.258911 0.113571 -3.14373e-19)
(0.291432 0.097975 3.15101e-19)
(0.322229 0.082546 0)
(0.350803 0.0677207 0)
(0.376753 0.0538765 -9.11614e-19)
(0.399785 0.0413205 3.01702e-19)
(0.419731 0.0302807 0)
(0.436543 0.0209029 5.92457e-19)
(0.450285 0.0132538 5.88933e-19)
(0.461113 0.00732997 -1.16399e-18)
(0.469259 0.00306915 1.15319e-18)
(0.475006 0.000364149 1.99752e-21)
(0.478651 -0.000939287 5.64002e-19)
(0.480524 -0.00101655 -5.6184e-19)
(0.481703 0.000339004 0)
(-0.0142235 0.0222689 6.72027e-19)
(-0.0329177 0.0587294 -7.29608e-20)
(-0.0425849 0.0912348 -5.97373e-19)
(-0.0442404 0.11821 0)
(-0.0384482 0.139539 -6.2e-19)
(-0.0261561 0.155353 0)
(-0.0082848 0.165973 -7.93546e-19)
(0.0143103 0.171823 -4.8124e-19)
(0.0408431 0.173386 -6.41619e-19)
(0.070584 0.171166 0)
(0.102846 0.165676 1.60677e-19)
(0.136959 0.157429 1.62326e-19)
(0.172254 0.146936 -3.19842e-19)
(0.208055 0.134711 -6.34186e-19)
(0.243677 0.121265 -3.14688e-19)
(0.278448 0.107105 -1.25208e-18)
(0.311725 0.0927226 6.23553e-19)
(0.342925 0.0785736 3.97714e-22)
(0.371556 0.0650669 2.71109e-22)
(0.397238 0.0525482 9.1032e-19)
(0.419722 0.041292 0)
(0.438894 0.0314941 0)
(0.454769 0.0232711 -1.31081e-21)
(0.467469 0.0166658 1.72471e-21)
(0.477211 0.0116567 -5.7726e-19)
(0.484272 0.00816989 -5.73671e-19)
(0.488976 0.00609277 1.33018e-21)
(0.491651 0.00527141 -5.63997e-19)
(0.492642 0.0055209 -5.57065e-19)
(0.493073 0.00702937 1.42e-21)
(-0.0142805 0.0209823 0)
(-0.0327606 0.0549469 5.80992e-19)
(-0.0419775 0.0851538 5.22787e-19)
(-0.0428654 0.110193 7.60146e-20)
(-0.0360156 0.13001 1.2378e-18)
(-0.0224042 0.144736 -1.56851e-19)
(-0.00298932 0.154661 1.26689e-18)
(0.0213302 0.160164 6.36739e-19)
(0.0497174 0.161681 9.61807e-19)
(0.0813842 0.159675 4.79759e-19)
(0.115577 0.154623 1.6007e-19)
(0.151553 0.147009 7.99712e-19)
(0.188565 0.137323 -7.46465e-22)
(0.225862 0.126058 3.17343e-19)
(0.262692 0.113705 6.30003e-19)
(0.298332 0.100751 6.25353e-19)
(0.332109 0.0876597 0)
(0.363435 0.0748594 0)
(0.391837 0.0627255 0)
(0.416977 0.0515696 0)
(0.438666 0.041632 5.96181e-19)
(0.456855 0.0330771 0)
(0.471626 0.0259941 -1.64214e-21)
(0.483167 0.0204049 1.1607e-18)
(0.491748 0.0162734 5.75448e-19)
(0.497692 0.013518 5.69932e-19)
(0.501353 0.0120234 1.12922e-18)
(0.503084 0.0116377 0)
(0.503234 0.0121668 -1.10541e-18)
(0.50295 0.0137721 1.13869e-18)
(-0.0143255 0.0197755 5.31982e-19)
(-0.032468 0.0512877 -5.81005e-19)
(-0.0410749 0.0791888 0)
(-0.0410289 0.102257 -6.05305e-19)
(-0.0329622 0.120514 -1.56518e-19)
(-0.0178862 0.134105 -4.67637e-19)
(0.00320055 0.143295 -1.42016e-18)
(0.0293519 0.148427 -2.32751e-21)
(0.0596749 0.149893 -4.77291e-19)
(0.0933154 0.148112 -1.11835e-18)
(0.129445 0.143529 -1.59757e-19)
(0.167237 0.136596 -6.354e-19)
(0.205861 0.127776 -6.32596e-19)
(0.244489 0.117536 0)
(0.282305 0.106344 -6.24732e-19)
(0.318546 0.0946576 -9.30388e-19)
(0.352522 0.0829119 3.08481e-19)
(0.383662 0.0715002 -6.09705e-19)
(0.41153 0.0607622 -6.04306e-19)
(0.435851 0.0509741 0)
(0.456504 0.0423423 -1.18947e-18)
(0.473518 0.0350016 0)
(0.487046 0.0290178 -1.16892e-18)
(0.497339 0.0243956 -5.78176e-19)
(0.504717 0.0210895 -1.14505e-18)
(0.509539 0.019013 5.67159e-19)
(0.512184 0.018052 -1.68381e-18)
(0.513017 0.0180581 5.54054e-19)
(0.512385 0.0188302 3.33231e-21)
(0.511446 0.0205041 -5.65324e-19)
(-0.0143565 0.0186449 -5.31994e-19)
(-0.0320239 0.0477618 7.22745e-20)
(-0.039836 0.0733767 5.16905e-19)
(-0.0386609 0.0944694 6.05318e-19)
(-0.0291875 0.111151 -6.15561e-19)
(-0.0124719 0.123587 2.34062e-21)
(0.0104402 0.13203 6.30025e-19)
(0.038548 0.136786 -1.26625e-18)
(0.0708943 0.138209 -1.56318e-19)
(0.106549 0.136678 1.43219e-18)
(0.144597 0.1326 -9.52208e-19)
(0.184123 0.126394 1.58557e-18)
(0.224208 0.118491 1.57776e-18)
(0.263948 0.109329 -3.14226e-19)
(0.302476 0.0993453 6.24727e-19)
(0.339002 0.0889672 9.29015e-19)
(0.372844 0.0785925 3.05086e-19)
(0.403465 0.068578 2.78101e-21)
(0.430491 0.0592264 3.03006e-19)
(0.453722 0.0507782 2.98856e-19)
(0.473122 0.0434084 -2.92946e-19)
(0.488801 0.037226 2.93179e-19)
(0.500982 0.0322777 -5.79088e-19)
(0.509976 0.0285567 5.7655e-19)
(0.516145 0.0260122 3.20846e-21)
(0.519875 0.0245576 5.62052e-19)
(0.521556 0.0240824 3.32384e-21)
(0.521556 0.0244429 -5.5216e-19)
(0.520213 0.0254288 1.87457e-21)
(0.518687 0.0271458 0)
(-0.0143685 0.0175829 0)
(-0.0314075 0.0443715 0)
(-0.0382168 0.0677442 -6.64643e-19)
(-0.0356919 0.086887 7.51794e-20)
(-0.0245959 0.102008 0)
(-0.00604229 0.1133 6.21459e-19)
(0.0188657 0.121008 1.56605e-19)
(0.0490621 0.125407 4.74241e-19)
(0.0835136 0.126813 6.34383e-19)
(0.121202 0.125564 -6.35213e-19)
(0.161118 0.12203 6.34602e-19)
(0.202249 0.116593 -6.32768e-19)
(0.24359 0.10965 -6.29927e-19)
(0.284172 0.101604 0)
(0.32309 0.0928568 0)
(0.35955 0.0837996 0)
(0.392903 0.0747917 -6.12204e-19)
(0.42267 0.0661512 9.0945e-19)
(0.448558 0.0581442 -3.00261e-19)
(0.470457 0.0509777 0)
(0.488422 0.0447988 8.84744e-19)
(0.502645 0.0396955 -2.91703e-19)
(0.513419 0.0357006 5.79091e-19)
(0.521104 0.032802 -1.14211e-18)
(0.526096 0.0309486 1.13383e-18)
(0.528794 0.0300591 -1.52443e-21)
(0.529588 0.0300294 1.80219e-21)
(0.528836 0.0307205 5.4878e-19)
(0.526858 0.0319044 -4.56688e-22)
(0.524798 0.0336549 5.58503e-19)
(-0.0143525 0.0165788 6.59231e-20)
(-0.0305936 0.0411122 -7.16235e-20)
(-0.0361717 0.062309 1.46995e-19)
(-0.0320554 0.0795553 -8.98264e-19)
(-0.0191014 0.0931604 1.52325e-19)
(0.00150357 0.10335 0)
(0.0285851 0.11036 6.2268e-19)
(0.0609976 0.114441 -6.26823e-19)
(0.0976179 0.115869 0)
(0.137328 0.114945 7.87545e-19)
(0.179016 0.111997 -1.57802e-19)
(0.221571 0.107368 0)
(0.263911 0.101415 -3.12485e-19)
(0.305014 0.0945025 6.22135e-19)
(0.343963 0.0869959 -3.09321e-19)
(0.379988 0.079245 3.06201e-19)
(0.412494 0.0715697 -6.0804e-19)
(0.441086 0.0642501 5.28475e-22)
(0.465569 0.057517 4.29522e-22)
(0.485932 0.0515476 -2.94135e-19)
(0.502325 0.0464658 -5.85723e-19)
(0.51502 0.0423434 3.53826e-22)
(0.524372 0.0392058 1.73348e-21)
(0.530784 0.0370411 5.70239e-19)
(0.53467 0.0358052 -5.6285e-19)
(0.536431 0.0354283 5.58828e-19)
(0.536441 0.0358199 -1.10258e-18)
(0.535025 0.036844 -1.86559e-21)
(0.532477 0.0382537 -1.07831e-18)
(0.529904 0.0400683 5.55421e-19)
(-0.0142961 0.0156188 0)
(-0.0295528 0.0379734 -5.70019e-19)
(-0.0336545 0.0570794 0)
(-0.0276902 0.072508 2.38788e-21)
(-0.0126311 0.0846707 1.51919e-19)
(0.0102435 0.093824 1.17766e-22)
(0.0396712 0.100198 -1.24277e-18)
(0.0744101 0.104018 4.70435e-19)
(0.113232 0.105523 0)
(0.154909 0.104972 -7.86857e-19)
(0.198221 0.10265 1.57109e-19)
(0.241966 0.098858 0)
(0.284996 0.0939107 -3.11057e-19)
(0.326264 0.0881319 3.10054e-19)
(0.364865 0.081845 3.06408e-19)
(0.40008 0.0753593 6.10253e-19)
(0.431399 0.0689554 -3.02906e-19)
(0.458527 0.0628769 0)
(0.481379 0.0573231 0)
(0.500051 0.0524454 5.90135e-19)
(0.514786 0.0483494 -5.8266e-19)
(0.52593 0.0450959 5.77381e-19)
(0.533892 0.0427086 5.72847e-19)
(0.539106 0.0411808 5.65261e-19)
(0.542 0.0404831 -5.59539e-19)
(0.542964 0.0405678 5.55288e-19)
(0.542334 0.0413721 5.47758e-19)
(0.540358 0.0427849 -5.41829e-19)
(0.537214 0.0445943 1.467e-21)
(0.533823 0.0467098 1.10546e-18)
(-0.0141872 0.0146914 6.5418e-20)
(-0.0282561 0.0349435 4.9911e-19)
(-0.0306221 0.0520583 0)
(-0.0225438 0.0657697 5.96217e-19)
(-0.0051296 0.076587 0)
(0.0202277 0.0847943 0)
(0.0521575 0.0906155 4.65496e-19)
(0.0893037 0.0942474 1.00953e-22)
(0.130319 0.0958921 1.56361e-19)
(0.173857 0.0957652 1.56272e-19)
(0.218591 0.0941066 -4.6851e-19)
(0.26324 0.091171 3.11896e-19)
(0.306615 0.0872295 0)
(0.347666 0.0825627 0)
(0.385535 0.0774518 -6.13552e-19)
(0.419583 0.0721661 0)
(0.449404 0.0669488 -3.00819e-19)
(0.474824 0.0620107 2.9876e-19)
(0.495873 0.0575235 2.95461e-19)
(0.512753 0.0536177 -4.14653e-22)
(0.525794 0.050385 -2.90136e-19)
(0.535408 0.04788 0)
(0.542048 0.0461268 -5.67825e-19)
(0.546175 0.0451287 5.62251e-19)
(0.548224 0.0448749 0)
(0.548584 0.0453488 0)
(0.547578 0.0465405 0)
(0.545413 0.0484318 0)
(0.542041 0.0509068 -5.3246e-19)
(0.538253 0.0544435 1.09848e-18)
(0.145965 0.0613028 -0.0165291)
(0.185845 0.0622472 -0.0169607)
(0.215884 0.0765003 -0.0170759)
(0.232573 0.0945243 -0.0171583)
(0.242495 0.11223 -0.0171817)
(0.246586 0.127308 -0.0171843)
(0.246964 0.139464 -0.0171612)
(0.244742 0.149575 -0.0171242)
(0.240752 0.158641 -0.0170727)
(0.235516 0.167292 -0.0170078)
(0.229321 0.175759 -0.0169364)
(0.222384 0.183996 -0.0168644)
(0.214781 0.191901 -0.0167889)
(0.206663 0.199414 -0.0167104)
(0.198021 0.20648 -0.0166317)
(0.189053 0.213071 -0.0165478)
(0.17961 0.219212 -0.0164652)
(0.170066 0.224851 -0.0163786)