/*--------------------------------*- C++ -*----------------------------------*\
  =========                 |
  \\      /  F ield         | OpenFOAM: The Open Source CFD Toolbox
   \\    /   O peration     | Website:  https://openfoam.org
    \\  /    A nd           | Version:  7
     \\/     M anipulation  |
\*---------------------------------------------------------------------------*/
FoamFile
{
    version     2.0;
    format      ascii;
    class       volScalarField;
    location    "8.5";
    object      p;
}
// * * * * * * * * * * * * * * * * * * * * * * * * * * * * * * * * * * * * * //

dimensions      [0 2 -2 0 0 0 0];

internalField   nonuniform List<scalar> 
18000
(
0.397324
0.398365
0.399041
0.399713
0.400288
0.400766
0.401167
0.401529
0.401896
0.402314
0.402828
0.403484
0.404323
0.405383
0.406694
0.408282
0.410163
0.412351
0.414849
0.417654
0.420752
0.424123
0.427746
0.431595
0.43564
0.43985
0.444188
0.44862
0.453102
0.457567
0.396898
0.397887
0.398519
0.39914
0.399662
0.400086
0.400429
0.400731
0.401037
0.401391
0.401837
0.402414
0.403165
0.404125
0.405326
0.406793
0.408544
0.410592
0.41294
0.415585
0.418516
0.421716
0.425167
0.428845
0.432722
0.436768
0.440949
0.445231
0.449561
0.453891
0.396493
0.397421
0.398003
0.398567
0.399033
0.399404
0.399693
0.39994
0.400191
0.40049
0.400874
0.401383
0.402055
0.402928
0.404031
0.40539
0.407022
0.40894
0.411148
0.413644
0.416417
0.419455
0.42274
0.426251
0.429963
0.433845
0.437868
0.441996
0.446169
0.450358
0.396092
0.39695
0.397482
0.397992
0.398404
0.398723
0.398964
0.399164
0.399368
0.399617
0.399947
0.400397
0.401002
0.401798
0.402815
0.404077
0.405602
0.407402
0.40948
0.411835
0.41446
0.417343
0.420469
0.423818
0.427368
0.431089
0.434952
0.438923
0.442935
0.44698
0.395711
0.396493
0.396971
0.397425
0.397784
0.398053
0.398249
0.398407
0.39857
0.398776
0.39906
0.399459
0.400007
0.400737
0.40168
0.402858
0.404287
0.405978
0.407936
0.410162
0.412649
0.415386
0.41836
0.421553
0.424944
0.428504
0.432207
0.436019
0.439866
0.443763
0.395345
0.396043
0.396466
0.396863
0.397171
0.397393
0.39755
0.397673
0.397801
0.39797
0.398215
0.398571
0.399072
0.39975
0.40063
0.401734
0.403077
0.404671
0.406521
0.408628
0.410987
0.413587
0.416417
0.41946
0.422696
0.426098
0.429641
0.433292
0.436972
0.440715
0.394998
0.395606
0.395973
0.396312
0.396569
0.396749
0.396871
0.396964
0.397063
0.397202
0.397416
0.397739
0.398204
0.398839
0.399667
0.400709
0.401977
0.403485
0.405238
0.407237
0.409477
0.411949
0.414643
0.417543
0.420629
0.423876
0.42726
0.43075
0.434259
0.437844
0.394671
0.395183
0.395491
0.395771
0.395981
0.396123
0.396215
0.396284
0.396359
0.396474
0.396666
0.396966
0.397405
0.398008
0.398795
0.399783
0.400988
0.402421
0.404089
0.40599
0.408122
0.410476
0.413043
0.415806
0.418747
0.421842
0.425069
0.428398
0.431736
0.435159
0.394364
0.394773
0.395021
0.395243
0.395406
0.395515
0.395583
0.395632
0.39569
0.39579
0.395968
0.396255
0.396678
0.397258
0.398013
0.39896
0.400113
0.401483
0.403075
0.40489
0.406923
0.409169
0.411616
0.41425
0.417052
0.419999
0.423072
0.426241
0.429408
0.432665
0.394074
0.394374
0.394562
0.394727
0.394847
0.394926
0.394975
0.39501
0.395057
0.395151
0.395324
0.395608
0.396024
0.39659
0.397324
0.39824
0.399352
0.40067
0.402198
0.403937
0.405883
0.40803
0.410366
0.412878
0.415546
0.418351
0.421273
0.424283
0.427278
0.430367
0.393799
0.393984
0.394113
0.394222
0.394303
0.394357
0.394391
0.394418
0.394463
0.394558
0.394736
0.395024
0.395443
0.396006
0.396729
0.397625
0.398707
0.399983
0.401458
0.403132
0.405001
0.407058
0.409291
0.411689
0.414232
0.416899
0.419673
0.422526
0.425351
0.42827
0.393534
0.3936
0.393669
0.393726
0.393772
0.393806
0.39383
0.393855
0.393905
0.39401
0.394202
0.394504
0.394934
0.395504
0.396226
0.397112
0.398174
0.39942
0.400853
0.402474
0.404276
0.406252
0.408393
0.410684
0.413108
0.415643
0.418273
0.420972
0.42363
0.426376
0.393274
0.393217
0.39323
0.393237
0.393251
0.39327
0.393289
0.39332
0.393383
0.393506
0.393719
0.394045
0.394496
0.395082
0.395813
0.396699
0.397751
0.398977
0.400381
0.401958
0.403704
0.405611
0.407668
0.409861
0.412172
0.414581
0.417072
0.419621
0.422116
0.424691
0.393015
0.392832
0.392789
0.392751
0.392738
0.392745
0.392766
0.392808
0.392891
0.393041
0.393286
0.393643
0.394125
0.394736
0.395485
0.396381
0.397434
0.398652
0.400036
0.401582
0.403283
0.40513
0.407112
0.409216
0.411422
0.413712
0.416071
0.418475
0.420811
0.423214
0.39275
0.392438
0.392343
0.392264
0.392229
0.392228
0.392255
0.392316
0.392426
0.392612
0.392896
0.393294
0.393815
0.394461
0.395237
0.396152
0.397217
0.398437
0.399813
0.401339
0.403005
0.404802
0.406719
0.408742
0.410853
0.413031
0.415264
0.41753
0.419714
0.421947
0.392473
0.392033
0.391888
0.391771
0.391718
0.391715
0.391753
0.391838
0.391983
0.392212
0.392544
0.392992
0.39356
0.394248
0.395061
0.396006
0.397092
0.398326
0.399705
0.40122
0.402862
0.40462
0.406481
0.408433
0.410456
0.412531
0.414647
0.416781
0.418821
0.420887
0.392177
0.391609
0.391418
0.39127
0.391203
0.3912
0.391254
0.391369
0.391557
0.391836
0.392225
0.39273
0.393352
0.394091
0.394949
0.395933
0.397051
0.398309
0.399701
0.401217
0.402844
0.404572
0.406388
0.408277
0.410223
0.412205
0.414212
0.416224
0.418128
0.420032
0.391855
0.391161
0.390929
0.390752
0.390675
0.390679
0.390753
0.390904
0.39114
0.391478
0.39193
0.392499
0.393183
0.39398
0.394891
0.395923
0.397085
0.398376
0.399791
0.401316
0.402938
0.404645
0.406426
0.408263
0.410141
0.412041
0.413949
0.415849
0.417628
0.419376
0.3915
0.390684
0.390415
0.390214
0.390131
0.390144
0.390244
0.390436
0.390728
0.391131
0.391651
0.39229
0.393043
0.393905
0.394877
0.395967
0.39718
0.398514
0.399959
0.401502
0.403129
0.404826
0.40658
0.408377
0.410198
0.412026
0.413846
0.415644
0.417312
0.418912
0.391104
0.39017
0.389867
0.389647
0.389563
0.38959
0.38972
0.389959
0.390311
0.390784
0.39138
0.392094
0.39292
0.393853
0.394895
0.39605
0.397322
0.398706
0.400191
0.40176
0.4034
0.405096
0.406834
0.4086
0.410376
0.412143
0.413888
0.415597
0.417168
0.41863
0.390658
0.389612
0.389281
0.389045
0.388963
0.389009
0.389175
0.389465
0.389883
0.39043
0.391105
0.391898
0.392803
0.393814
0.394931
0.396158
0.397497
0.398938
0.400469
0.402072
0.403732
0.405436
0.407167
0.408912
0.410654
0.412373
0.414055
0.415691
0.417181
0.41852
0.390155
0.389003
0.388648
0.3884
0.388326
0.388395
0.3886
0.388946
0.389433
0.390059
0.390815
0.391693
0.39268
0.393773
0.394971
0.396277
0.397687
0.399191
0.400773
0.402416
0.404105
0.405823
0.407556
0.40929
0.411009
0.412693
0.414327
0.415904
0.417333
0.418565
0.389587
0.388337
0.387961
0.387706
0.387642
0.387739
0.387988
0.388393
0.388953
0.389659
0.390501
0.391464
0.392538
0.393716
0.395
0.396388
0.397875
0.399446
0.401084
0.402772
0.404494
0.406233
0.407976
0.409708
0.411414
0.413074
0.414674
0.416211
0.417599
0.418745
0.388946
0.387607
0.387214
0.386956
0.386907
0.387034
0.387331
0.387798
0.388431
0.38922
0.390149
0.391201
0.392363
0.39363
0.395002
0.396476
0.398042
0.399683
0.40138
0.403116
0.404875
0.40664
0.408398
0.410135
0.411837
0.413485
0.415066
0.41658
0.417952
0.419036
0.388223
0.386806
0.3864
0.386144
0.386113
0.386274
0.38662
0.387151
0.38786
0.388733
0.38975
0.39089
0.392142
0.393499
0.394962
0.396523
0.398169
0.399881
0.401639
0.403426
0.405223
0.407016
0.408793
0.41054
0.412244
0.413889
0.415463
0.416974
0.418356
0.41941
0.387412
0.385928
0.385515
0.385264
0.385255
0.385453
0.385851
0.386446
0.38723
0.388186
0.38929
0.39052
0.391861
0.39331
0.394863
0.396512
0.398238
0.40002
0.401839
0.403675
0.405511
0.407333
0.409128
0.410886
0.412596
0.414245
0.415823
0.417348
0.418768
0.41983
0.386505
0.384969
0.384553
0.384313
0.384329
0.384566
0.385016
0.385675
0.386534
0.387571
0.388761
0.390078
0.391509
0.393048
0.394691
0.396424
0.398227
0.400078
0.401955
0.403839
0.405712
0.40756
0.409371
0.411138
0.412851
0.414503
0.41609
0.417642
0.419128
0.420248
0.3855
0.383925
0.38351
0.383285
0.383329
0.383608
0.38411
0.384833
0.385763
0.386878
0.388151
0.389554
0.391072
0.392699
0.394428
0.396243
0.398119
0.400034
0.401965
0.403892
0.405797
0.407665
0.409486
0.411254
0.412962
0.414609
0.4162
0.41778
0.41936
0.420616
0.384392
0.382794
0.382386
0.382179
0.382254
0.382574
0.383129
0.383912
0.384911
0.386102
0.387453
0.388937
0.390539
0.392251
0.394061
0.39595
0.397894
0.399866
0.401845
0.403808
0.405738
0.407618
0.409439
0.411193
0.412879
0.414501
0.416075
0.417677
0.419397
0.420957
0.383179
0.381575
0.381177
0.380992
0.3811
0.381464
0.382069
0.382911
0.383974
0.385234
0.386659
0.38822
0.3899
0.391689
0.393573
0.395529
0.397532
0.399554
0.401572
0.403563
0.405506
0.407387
0.409192
0.410914
0.412548
0.414099
0.415598
0.417148
0.418907
0.420778
0.472687
0.494002
0.510908
0.523663
0.532765
0.539357
0.544054
0.547438
0.549794
0.551426
0.5525
0.553131
0.553405
0.553404
0.553143
0.552677
0.552057
0.551244
0.550284
0.549175
0.54791
0.546523
0.544991
0.543356
0.541592
0.539743
0.537834
0.535896
0.534143
0.532587
0.469051
0.490159
0.507312
0.520191
0.529435
0.536154
0.540937
0.544382
0.546823
0.548543
0.549686
0.550389
0.550733
0.550784
0.550597
0.550202
0.549617
0.548865
0.547952
0.546876
0.54566
0.544295
0.542801
0.541182
0.539443
0.537605
0.535705
0.533766
0.532011
0.530454
0.465525
0.486352
0.503724
0.516706
0.526091
0.532937
0.537808
0.541319
0.54385
0.545658
0.546871
0.547647
0.548063
0.54817
0.548058
0.547731
0.547185
0.546493
0.545627
0.544587
0.54342
0.542078
0.540625
0.539023
0.537312
0.535487
0.5336
0.531663
0.529907
0.528349
0.462125
0.48258
0.500141
0.51322
0.52274
0.529696
0.534663
0.538264
0.540881
0.542766
0.544055
0.544906
0.545394
0.545571
0.545522
0.545257
0.544769
0.544128
0.543308
0.542313
0.541184
0.539879
0.538457
0.536881
0.535194
0.533386
0.531514
0.529587
0.527832
0.526273
0.458849
0.478852
0.496572
0.509734
0.519382
0.52644
0.531509
0.535211
0.537911
0.539871
0.541242
0.542167
0.542728
0.54298
0.542993
0.542786
0.542363
0.54177
0.540997
0.540051
0.538957
0.537696
0.536301
0.534756
0.533092
0.531305
0.529451
0.527537
0.525783
0.524223
0.455697
0.475181
0.493026
0.506248
0.516019
0.523179
0.528351
0.532151
0.534938
0.536977
0.53843
0.539432
0.540066
0.540392
0.54047
0.540324
0.539962
0.539422
0.538696
0.537798
0.536743
0.535523
0.534159
0.532648
0.531009
0.529246
0.527411
0.525511
0.523761
0.5222
0.452672
0.471575
0.489506
0.502766
0.512653
0.519915
0.525189
0.529088
0.531964
0.534085
0.535621
0.5367
0.53741
0.53781
0.537954
0.53787
0.537569
0.537082
0.536404
0.535554
0.53454
0.533362
0.532033
0.530555
0.528946
0.527209
0.525394
0.52351
0.521765
0.520203
0.44978
0.468042
0.486017
0.499289
0.509285
0.516647
0.522024
0.526023
0.528991
0.531198
0.532817
0.533975
0.534761
0.535234
0.535447
0.535425
0.535183
0.53475
0.534123
0.53332
0.53235
0.531213
0.529921
0.528478
0.526901
0.525192
0.523401
0.521535
0.519795
0.518232
0.447024
0.46459
0.482562
0.495822
0.505915
0.513377
0.518857
0.522958
0.526021
0.528316
0.530018
0.531257
0.532121
0.532667
0.532948
0.53299
0.532807
0.532428
0.531853
0.531097
0.53017
0.529077
0.527824
0.526417
0.524875
0.523198
0.521431
0.519584
0.517852
0.516289
0.444407
0.461228
0.479146
0.492366
0.502545
0.510103
0.515688
0.519893
0.523053
0.52544
0.527227
0.528548
0.52949
0.530109
0.530458
0.530565
0.53044
0.530116
0.529593
0.528884
0.528003
0.526953
0.525741
0.524373
0.522867
0.521224
0.519486
0.517658
0.515935
0.514373
0.441932
0.457965
0.475773
0.488925
0.499175
0.506826
0.512517
0.51683
0.52009
0.522571
0.524445
0.525848
0.526869
0.527561
0.527978
0.52815
0.528084
0.527813
0.527342
0.526682
0.525847
0.524842
0.523673
0.522346
0.520878
0.519272
0.517564
0.515758
0.514045
0.512484
0.439605
0.454811
0.472447
0.485501
0.495806
0.503545
0.509346
0.513769
0.517132
0.519709
0.521673
0.523159
0.524258
0.525024
0.525509
0.525745
0.525738
0.525521
0.525102
0.524491
0.523703
0.522743
0.521619
0.520335
0.518909
0.517341
0.515665
0.513885
0.512183
0.510624
0.437427
0.451775
0.469174
0.482098
0.492438
0.500262
0.506174
0.51071
0.51418
0.516857
0.518912
0.520481
0.521659
0.522498
0.523052
0.523351
0.523403
0.523239
0.522873
0.52231
0.521571
0.520658
0.51958
0.518341
0.516958
0.515432
0.51379
0.512037
0.51035
0.508792
0.435402
0.448865
0.46596
0.478718
0.489072
0.496974
0.502999
0.507653
0.511234
0.514013
0.516162
0.517815
0.519073
0.519986
0.520607
0.520968
0.521079
0.520968
0.520654
0.520141
0.519451
0.518585
0.517555
0.516363
0.515026
0.513543
0.511939
0.510217
0.508545
0.506989
0.433534
0.446092
0.462812
0.475368
0.485711
0.493684
0.499823
0.504599
0.508296
0.51118
0.513426
0.515164
0.516501
0.517487
0.518175
0.518598
0.518766
0.518708
0.518446
0.517984
0.517342
0.516525
0.515544
0.514401
0.51311
0.511674
0.510111
0.508423
0.50677
0.505217
0.431825
0.443466
0.459738
0.472051
0.482356
0.490391
0.496644
0.501546
0.505365
0.508358
0.510704
0.512528
0.513945
0.515004
0.515758
0.516241
0.516466
0.51646
0.516251
0.515839
0.515246
0.514478
0.513546
0.512453
0.511212
0.509824
0.508306
0.506655
0.505026
0.503475
0.430279
0.440995
0.456746
0.468774
0.479008
0.487095
0.493462
0.498495
0.502441
0.505549
0.507996
0.509908
0.511405
0.512537
0.513355
0.513898
0.514178
0.514224
0.514067
0.513706
0.513161
0.512443
0.511561
0.510519
0.509329
0.507993
0.506523
0.504915
0.503313
0.501766
0.428898
0.43869
0.453847
0.465543
0.475671
0.483796
0.490276
0.495445
0.499523
0.50275
0.505302
0.507305
0.508883
0.510086
0.510968
0.511568
0.511903
0.512002
0.511895
0.511585
0.511089
0.510419
0.509588
0.508599
0.507461
0.50618
0.504764
0.503202
0.501632
0.500092
0.427686
0.436559
0.451051
0.462364
0.47235
0.480494
0.487086
0.492394
0.496611
0.499963
0.502624
0.50472
0.506378
0.507653
0.508596
0.509253
0.509643
0.509793
0.509736
0.509475
0.509027
0.508407
0.507626
0.506691
0.505607
0.504384
0.503026
0.501517
0.499986
0.498455
0.426645
0.43461
0.448369
0.459246
0.46905
0.477192
0.483893
0.489342
0.493705
0.497188
0.499961
0.502153
0.503891
0.505237
0.506242
0.506953
0.507396
0.507598
0.507588
0.507377
0.506977
0.506406
0.505674
0.504794
0.503767
0.502604
0.501309
0.49986
0.498374
0.496856
0.425777
0.43285
0.445813
0.456196
0.465776
0.473892
0.480695
0.486288
0.490803
0.494424
0.497314
0.499606
0.501424
0.50284
0.503905
0.50467
0.505165
0.505416
0.505453
0.50529
0.504937
0.504414
0.503733
0.502907
0.501939
0.50084
0.499614
0.498231
0.4968
0.495299
0.425086
0.431283
0.443394
0.453225
0.462537
0.470598
0.477493
0.483233
0.487906
0.491673
0.494685
0.497079
0.498977
0.500462
0.501586
0.502404
0.502949
0.503249
0.503331
0.503214
0.502907
0.502432
0.5018
0.501029
0.500122
0.499089
0.497937
0.49663
0.495263
0.493789
0.424572
0.429913
0.44112
0.450344
0.459339
0.467314
0.474287
0.480175
0.485013
0.488934
0.492074
0.494572
0.496552
0.498104
0.499287
0.500155
0.500749
0.501095
0.501222
0.501149
0.500888
0.500459
0.499876
0.49916
0.498314
0.49735
0.496277
0.495056
0.493766
0.492329
0.424238
0.428742
0.439001
0.447564
0.456192
0.464044
0.47108
0.477114
0.482125
0.486207
0.489481
0.492086
0.494147
0.495767
0.497007
0.497925
0.498565
0.498956
0.499125
0.499094
0.498877
0.498493
0.49796
0.497297
0.496515
0.495622
0.494633
0.493507
0.49231
0.490926
0.424084
0.427766
0.437043
0.444897
0.45311
0.460795
0.467875
0.474052
0.479241
0.483492
0.486906
0.48962
0.491765
0.493451
0.494747
0.495713
0.496397
0.49683
0.497041
0.497049
0.496875
0.496534
0.49605
0.495441
0.494722
0.493902
0.493002
0.491982
0.490897
0.489587
0.424116
0.426981
0.435251
0.442355
0.450106
0.457574
0.464676
0.470991
0.476362
0.48079
0.484348
0.487175
0.489405
0.491156
0.492506
0.493518
0.494245
0.494718
0.494967
0.495013
0.49488
0.494582
0.494146
0.493589
0.492933
0.492188
0.49138
0.490477
0.489527
0.488323
0.424338
0.426379
0.433631
0.439952
0.447194
0.454394
0.461489
0.467934
0.473491
0.478101
0.48181
0.484753
0.487069
0.488884
0.490286
0.491342
0.49211
0.49262
0.492905
0.492987
0.492893
0.492637
0.492246
0.491741
0.491147
0.490478
0.489764
0.488988
0.488199
0.487148
0.424727
0.42594
0.432181
0.4377
0.444391
0.451269
0.458323
0.464886
0.470627
0.475422
0.479286
0.482347
0.484749
0.486627
0.488081
0.489179
0.489985
0.490529
0.490849
0.490965
0.490909
0.490693
0.490347
0.489893
0.48936
0.488765
0.488148
0.487508
0.486908
0.486079
0.425219
0.425582
0.430847
0.435572
0.441678
0.448175
0.455144
0.461801
0.467718
0.472701
0.476728
0.479914
0.482409
0.484356
0.485864
0.487007
0.487852
0.488431
0.488785
0.488936
0.488917
0.488741
0.488441
0.488037
0.487563
0.487041
0.486521
0.486025
0.485646
0.485135
0.426442
0.425411
0.429676
0.433566
0.439019
0.445028
0.45184
0.458566
0.464678
0.469884
0.474111
0.477453
0.480062
0.48209
0.483659
0.484849
0.485731
0.486344
0.48673
0.486914
0.486928
0.48679
0.486531
0.486175
0.485754
0.4853
0.484872
0.484521
0.484387
0.484334
0.435208
0.428299
0.429078
0.429315
0.431764
0.435564
0.441728
0.448835
0.455827
0.461963
0.466947
0.47081
0.473742
0.475956
0.477629
0.478884
0.47981
0.480461
0.480884
0.481114
0.481182
0.481116
0.48094
0.480687
0.480393
0.480103
0.479901
0.479928
0.480512
0.48219
0.423469
0.420951
0.419457
0.417154
0.416927
0.419793
0.425784
0.433574
0.441591
0.448714
0.454465
0.458856
0.462125
0.464554
0.466369
0.467733
0.468749
0.469489
0.470003
0.470331
0.470503
0.470551
0.470502
0.470389
0.470255
0.470159
0.470206
0.470585
0.471715
0.474156
0.406238
0.406664
0.405146
0.402735
0.401829
0.404388
0.410589
0.419051
0.427923
0.435849
0.442232
0.447061
0.450609
0.453208
0.45513
0.456569
0.45765
0.458454
0.459038
0.459444
0.459703
0.459846
0.459901
0.459903
0.459896
0.45994
0.460141
0.460683
0.461983
0.464591
0.38685
0.389261
0.388736
0.387413
0.38702
0.389818
0.396344
0.405297
0.414749
0.423238
0.430096
0.435277
0.439058
0.441801
0.443812
0.445312
0.446445
0.447304
0.447949
0.448422
0.448758
0.448985
0.449131
0.449228
0.449317
0.449458
0.449747
0.45035
0.451655
0.454236
0.367382
0.371545
0.372616
0.372942
0.373793
0.377251
0.384038
0.393073
0.402585
0.411184
0.4182
0.423549
0.427473
0.43032
0.432406
0.433963
0.435148
0.436058
0.436759
0.437294
0.437697
0.437994
0.438213
0.438383
0.438541
0.438741
0.439069
0.439674
0.440902
0.443351
0.349045
0.354747
0.35759
0.359692
0.362088
0.366421
0.373357
0.382087
0.391182
0.399472
0.406348
0.411691
0.415679
0.41861
0.420776
0.422404
0.423652
0.424623
0.425383
0.425979
0.426443
0.426801
0.427078
0.427301
0.427503
0.427732
0.428066
0.428639
0.429757
0.432033
0.33203
0.33891
0.343322
0.347035
0.350921
0.356125
0.36313
0.371386
0.379861
0.387651
0.394242
0.399493
0.403513
0.406534
0.408803
0.41053
0.411867
0.412919
0.413752
0.414415
0.414939
0.415352
0.415677
0.415939
0.416169
0.416409
0.41673
0.417252
0.41825
0.420338
0.316015
0.323693
0.32932
0.334328
0.339421
0.345332
0.352368
0.360181
0.368069
0.375368
0.381665
0.386815
0.390873
0.394005
0.39641
0.39827
0.399728
0.400886
0.401813
0.402555
0.403147
0.403616
0.403985
0.404279
0.404527
0.404769
0.405067
0.405534
0.406415
0.408315
0.300627
0.308805
0.315296
0.321244
0.327191
0.333599
0.340654
0.348134
0.355564
0.362468
0.368525
0.373602
0.377717
0.380982
0.383551
0.385576
0.387186
0.388478
0.38952
0.390359
0.391031
0.391564
0.391981
0.392308
0.392572
0.392812
0.393085
0.393494
0.394259
0.395969
0.285581
0.294048
0.30111
0.307687
0.314192
0.320924
0.327988
0.335232
0.342329
0.34894
0.354822
0.359859
0.364047
0.367459
0.370209
0.372422
0.374208
0.375658
0.376837
0.377792
0.37856
0.379167
0.37964
0.380004
0.380287
0.380527
0.380778
0.381135
0.381793
0.383314
0.270677
0.279286
0.286699
0.293678
0.300539
0.307472
0.314526
0.321593
0.328447
0.334844
0.340603
0.345626
0.349896
0.353457
0.356392
0.358801
0.360777
0.362401
0.363734
0.364822
0.3657
0.366396
0.366937
0.367348
0.367658
0.367902
0.368132
0.368435
0.368991
0.370323
0.255772
0.264425
0.272043
0.279276
0.286358
0.293403
0.300427
0.307351
0.314021
0.320263
0.325935
0.330957
0.335305
0.339007
0.34212
0.344722
0.346891
0.348696
0.350193
0.351424
0.352425
0.353221
0.35384
0.354308
0.354654
0.354912
0.355132
0.355394
0.355861
0.357006
0.240771
0.249407
0.257137
0.264524
0.271737
0.278833
0.285812
0.292618
0.299145
0.305267
0.310875
0.3159
0.320319
0.324146
0.327421
0.330203
0.332557
0.33454
0.336202
0.337582
0.338713
0.33962
0.34033
0.340865
0.341254
0.341531
0.341743
0.341966
0.34235
0.34331
0.225605
0.234186
0.241974
0.24945
0.256732
0.263843
0.270769
0.277475
0.283886
0.289911
0.295466
0.300494
0.304972
0.308904
0.312319
0.315263
0.317785
0.319936
0.321757
0.323283
0.324544
0.325565
0.326369
0.326981
0.327427
0.327739
0.32796
0.32816
0.328477
0.329261
0.210225
0.218728
0.226544
0.234068
0.241382
0.248485
0.255357
0.261974
0.268288
0.274232
0.279739
0.284765
0.289287
0.293304
0.296836
0.299917
0.302587
0.304888
0.306856
0.308522
0.309912
0.311046
0.311948
0.312637
0.313138
0.313483
0.313713
0.313892
0.314151
0.31476
0.194604
0.203014
0.210847
0.218397
0.225716
0.232795
0.239612
0.24615
0.252379
0.25825
0.263713
0.268728
0.273278
0.277357
0.28098
0.284173
0.286968
0.289398
0.291494
0.293282
0.294786
0.296028
0.297026
0.2978
0.298371
0.298765
0.299019
0.299191
0.299409
0.299858
0.178736
0.187044
0.194895
0.202454
0.209757
0.216799
0.223559
0.230025
0.236177
0.241981
0.247396
0.252392
0.256952
0.261071
0.26476
0.268037
0.270931
0.273467
0.275673
0.277571
0.279179
0.280514
0.281593
0.282436
0.283061
0.283494
0.283767
0.28393
0.284109
0.284392
0.162662
0.17085
0.178713
0.186264
0.193529
0.20052
0.207219
0.213617
0.219696
0.225431
0.230792
0.235756
0.240306
0.244441
0.248169
0.251503
0.254466
0.257079
0.259365
0.261347
0.26304
0.264462
0.265625
0.266541
0.267228
0.267706
0.268004
0.268169
0.268322
0.26846
0.146471
0.154499
0.162348
0.169858
0.177056
0.183978
0.190612
0.19694
0.202945
0.208607
0.213905
0.218821
0.223344
0.227471
0.231208
0.234569
0.237574
0.240242
0.24259
0.244632
0.246383
0.247857
0.249069
0.250033
0.25076
0.251266
0.251574
0.251724
0.251837
0.251804
0.130309
0.138102
0.14587
0.153283
0.160371
0.167199
0.173755
0.180007
0.185931
0.191509
0.196728
0.201575
0.206045
0.210135
0.21385
0.217204
0.220213
0.222897
0.225273
0.227357
0.229157
0.230684
0.231946
0.232953
0.233718
0.234253
0.234576
0.234718
0.234798
0.234614
0.114379
0.121809
0.129374
0.136598
0.143517
0.150214
0.156671
0.162833
0.168664
0.174146
0.17927
0.184029
0.188418
0.19244
0.196102
0.199421
0.202411
0.205084
0.207452
0.20953
0.211329
0.212862
0.214135
0.215154
0.215926
0.216461
0.216767
0.216872
0.216885
0.216498
0.0989075
0.105801
0.11298
0.119885
0.126551
0.133065
0.139388
0.145435
0.151148
0.156506
0.161505
0.166141
0.170417
0.174333
0.1779
0.181135
0.184057
0.186684
0.189029
0.191098
0.192897
0.19443
0.195706
0.196732
0.197513
0.198053
0.198351
0.198419
0.198356
0.197784
0.0841037
0.0902553
0.0968235
0.103246
0.109551
0.11581
0.121949
0.127847
0.133417
0.13863
0.143477
0.14796
0.152084
0.155857
0.159297
0.162417
0.16523
0.167752
0.170001
0.171989
0.173726
0.175211
0.176445
0.177433
0.17818
0.178687
0.178944
0.178942
0.178753
0.177905
0.0701158
0.0753252
0.0810506
0.0868082
0.0926234
0.0985276
0.104403
0.110083
0.11545
0.120462
0.125109
0.129389
0.133308
0.136878
0.140127
0.14308
0.145755
0.148167
0.150323
0.15223
0.153896
0.155324
0.156515
0.157469
0.158188
0.158671
0.1589
0.158834
0.158496
0.157392
0.0570204
0.0611314
0.0658138
0.0707249
0.0759
0.0813322
0.0868547
0.0922488
0.0973636
0.102131
0.10653
0.110558
0.114224
0.117547
0.120551
0.123258
0.125696
0.12789
0.129858
0.131606
0.133135
0.134443
0.135529
0.136393
0.137035
0.137459
0.137636
0.137481
0.136932
0.135448
0.0448243
0.047768
0.0512717
0.0551713
0.0595406
0.0643382
0.0693415
0.0742964
0.0790346
0.0834647
0.0875355
0.0912283
0.0945571
0.0975585
0.100272
0.102726
0.104938
0.106925
0.1087
0.110277
0.111661
0.112849
0.113836
0.114615
0.115184
0.115556
0.115713
0.115513
0.114748
0.112928
0.0334803
0.0353014
0.0375695
0.0403185
0.0437592
0.0478132
0.0521729
0.0565631
0.0608148
0.0648133
0.0684736
0.0717532
0.0746535
0.0772099
0.0794779
0.0815117
0.0833489
0.085007
0.0864916
0.0878078
0.0889598
0.0899476
0.0907665
0.0914051
0.0918521
0.0921253
0.0922385
0.0920145
0.0910327
0.088791
0.0229095
0.0237538
0.024829
0.0262961
0.0286419
0.0317162
0.035151
0.0387249
0.0422941
0.0456995
0.0488065
0.0515583
0.0539654
0.0560709
0.0579255
0.0595722
0.0610424
0.0623585
0.0635353
0.0645809
0.0654971
0.0662823
0.066933
0.0674393
0.0677796
0.0679623
0.0680489
0.0678954
0.0668396
0.0643822
0.0129786
0.013035
0.0129921
0.0133582
0.0149327
0.0170378
0.019354
0.0218834
0.024547
0.0271344
0.0294435
0.0313852
0.0329874
0.0343394
0.0355261
0.03659
0.0375433
0.0383925
0.0391478
0.0398183
0.0404055
0.0409052
0.0413145
0.0416294
0.0418277
0.0418883
0.0418845
0.0418232
0.0409681
0.0385347
0.00379724
0.00270835
-0.000253954
-0.000965232
0.000845891
0.00224663
0.00339106
0.00473322
0.00629646
0.00788336
0.0093005
0.0104495
0.0113327
0.0120159
0.0125712
0.0130447
0.0134583
0.0138225
0.0141449
0.014432
0.014685
0.0149007
0.015076
0.0152124
0.0153007
0.0152995
0.0152168
0.0152182
0.0150632
0.0134615
0.420007
0.407772
0.391305
0.372959
0.35513
0.338309
0.32239
0.307078
0.292136
0.277393
0.262726
0.248032
0.233248
0.218326
0.203226
0.187943
0.172485
0.156899
0.141277
0.125747
0.110484
0.0956812
0.0815228
0.0681367
0.055597
0.0439119
0.0330135
0.0228141
0.0131769
0.00408475
0.41839
0.404544
0.387943
0.369518
0.351806
0.335132
0.319348
0.304159
0.289328
0.274687
0.260114
0.245507
0.230804
0.215962
0.200938
0.185733
0.170358
0.154865
0.139355
0.123965
0.108875
0.0942752
0.0803438
0.0671957
0.0548933
0.0434348
0.032734
0.0226947
0.0131744
0.00414991
0.416881
0.400795
0.384095
0.365752
0.348302
0.331873
0.316276
0.301237
0.28653
0.271993
0.257514
0.242994
0.228373
0.21361
0.198664
0.183536
0.168244
0.152843
0.137441
0.12218
0.107245
0.0928241
0.0790934
0.0661618
0.0540866
0.0428596
0.0323702
0.0225115
0.0131238
0.00419597
0.414786
0.396759
0.380168
0.361997
0.344829
0.328652
0.313241
0.29835
0.283765
0.269333
0.254946
0.240512
0.225971
0.211286
0.196415
0.181365
0.166157
0.15085
0.13556
0.120436
0.105664
0.0914313
0.0779072
0.065193
0.0533385
0.042327
0.0320383
0.0223429
0.0130748
0.00423011
0.412213
0.392592
0.376225
0.358278
0.341388
0.325463
0.310238
0.295496
0.281031
0.266703
0.252409
0.238061
0.223598
0.208989
0.194193
0.179219
0.164094
0.148883
0.133708
0.118725
0.104124
0.0900857
0.0767747
0.0642819
0.0526467
0.0418427
0.0317393
0.0221927
0.0130312
0.00425386
0.409221
0.388355
0.372264
0.354593
0.337981
0.322307
0.307269
0.292674
0.278331
0.264107
0.249905
0.235641
0.221255
0.20672
0.191998
0.177099
0.162057
0.146944
0.131889
0.117051
0.102625
0.0887864
0.0756923
0.0634222
0.0520033
0.0413986
0.0314672
0.0220564
0.0129902
0.0042691
0.405797
0.38409
0.368289
0.350945
0.334611
0.319187
0.304333
0.289886
0.275665
0.261545
0.247434
0.233253
0.218944
0.204481
0.18983
0.175006
0.160048
0.145035
0.130102
0.115415
0.101169
0.0875353
0.0746611
0.062614
0.0514074
0.0409928
0.0312207
0.0219326
0.0129516
0.00427757
0.401958
0.37983
0.364312
0.347339
0.331282
0.316104
0.301434
0.287133
0.273035
0.259018
0.244997
0.230899
0.216665
0.202273
0.187693
0.172942
0.158068
0.143158
0.128351
0.113819
0.0997573
0.0863336
0.0736815
0.0618567
0.0508577
0.0406241
0.0309991
0.0218208
0.0129158
0.00428085
0.397751
0.375601
0.360344
0.343774
0.327995
0.313058
0.298573
0.284416
0.27044
0.256527
0.242595
0.228579
0.214419
0.200096
0.185586
0.170908
0.156121
0.141314
0.126638
0.112266
0.0983932
0.0851825
0.0727532
0.061149
0.0503519
0.04029
0.0308004
0.0217202
0.0128828
0.00428066
0.393235
0.371414
0.356397
0.340252
0.324753
0.310051
0.295749
0.281737
0.267881
0.254071
0.240229
0.226293
0.212207
0.197952
0.183511
0.168907
0.154206
0.139507
0.124965
0.110757
0.0970784
0.084083
0.0718763
0.0604895
0.0498878
0.0399879
0.0306226
0.0216297
0.0128525
0.00427757
0.38848
0.367273
0.352484
0.336773
0.321558
0.307085
0.292965
0.279096
0.265359
0.251651
0.237899
0.224042
0.210029
0.19584
0.181468
0.16694
0.152327
0.137738
0.123334
0.109296
0.0958153
0.0830368
0.0710512
0.0598773
0.0494638
0.039716
0.0304641
0.0215489
0.0128248
0.00427245
0.38356
0.36318
0.348616
0.333338
0.318411
0.304161
0.290221
0.276494
0.262876
0.24927
0.235605
0.221827
0.207885
0.193763
0.17946
0.165006
0.150484
0.136008
0.121748
0.107886
0.094606
0.0820453
0.0702788
0.0593123
0.0490785
0.0394725
0.0303231
0.0214769
0.0127996
0.00426614
0.378547
0.359133
0.344805
0.329948
0.315314
0.301282
0.287518
0.273932
0.260432
0.246927
0.23335
0.219647
0.205776
0.19172
0.177486
0.163108
0.148678
0.13432
0.120208
0.106526
0.0934516
0.0811092
0.069559
0.0587935
0.0487301
0.0392553
0.0301981
0.0214128
0.0127766
0.00425922
0.373507
0.355134
0.341058
0.326607
0.312266
0.298447
0.284859
0.271412
0.258029
0.244624
0.231132
0.217504
0.203703
0.189712
0.175546
0.161247
0.146912
0.132676
0.118717
0.10522
0.0923527
0.0802284
0.0688909
0.0583192
0.0484163
0.039062
0.0300872
0.0213554
0.0127553
0.00425208
0.368493
0.351183
0.33738
0.323317
0.309268
0.295659
0.282243
0.268935
0.255668
0.242361
0.228953
0.215399
0.201666
0.18774
0.173643
0.159422
0.145185
0.131076
0.117276
0.103967
0.0913089
0.0794019
0.0682727
0.0578867
0.048134
0.0388898
0.0299883
0.0213037
0.0127355
0.00424503
0.363552
0.347285
0.333774
0.32008
0.306321
0.292918
0.279672
0.266502
0.253348
0.240139
0.226815
0.213332
0.199667
0.185805
0.171775
0.157635
0.143501
0.129522
0.115885
0.102768
0.0903201
0.0786284
0.0677021
0.057493
0.0478802
0.0387361
0.0298999
0.0212566
0.0127169
0.00423831
0.358717
0.343445
0.330244
0.316899
0.303424
0.290225
0.277146
0.264112
0.251071
0.237957
0.224716
0.211305
0.197705
0.183906
0.169944
0.155888
0.141859
0.128016
0.114546
0.101623
0.0893861
0.0779068
0.067177
0.0571354
0.0476522
0.0385986
0.0298206
0.0212138
0.0126995
0.00423213
0.354013
0.339668
0.326791
0.313775
0.300579
0.28758
0.274665
0.261766
0.248837
0.235818
0.222658
0.209317
0.195781
0.182045
0.168152
0.154182
0.140263
0.126559
0.11326
0.100534
0.0885074
0.0772364
0.0666955
0.0568117
0.0474479
0.0384756
0.0297494
0.0211746
0.0126834
0.00422659
0.349457
0.335962
0.323416
0.310712
0.297787
0.284983
0.272229
0.259464
0.246645
0.23372
0.220641
0.207369
0.193896
0.180223
0.1664
0.152519
0.138714