/*--------------------------------*- C++ -*----------------------------------*\
  =========                 |
  \\      /  F ield         | OpenFOAM: The Open Source CFD Toolbox
   \\    /   O peration     | Website:  https://openfoam.org
    \\  /    A nd           | Version:  7
     \\/     M anipulation  |
\*---------------------------------------------------------------------------*/
FoamFile
{
    version     2.0;
    format      ascii;
    class       surfaceScalarField;
    location    "8.5";
    object      phi;
}
// * * * * * * * * * * * * * * * * * * * * * * * * * * * * * * * * * * * * * //

dimensions      [0 3 -1 0 0 0 0];

internalField   nonuniform List<scalar> 
35640
(
1.83523e-05
-0.00030269
0.000284337
6.65781e-05
-0.000635229
0.000587003
0.000141631
-0.000722899
0.000647846
0.000241747
-0.000621685
0.000521569
0.000365963
-0.000371604
0.000247389
0.00051375
-2.61399e-06
-0.000145173
0.000684815
0.00046173
-0.000632794
0.000878955
0.00100273
-0.00119687
0.00109591
0.00160533
-0.00182228
0.00133529
0.0022571
-0.00249647
0.0015965
0.0029475
-0.00320871
0.00187869
0.00366732
-0.00394951
0.00218068
0.00440822
-0.00471021
0.00250095
0.00516244
-0.0054827
0.00283763
0.00592257
-0.00625925
0.00318852
0.0066815
-0.0070324
0.0035511
0.00743238
-0.00779496
0.00392256
0.00816863
-0.00854009
0.00429993
0.00888402
-0.00926139
0.00468011
0.00957277
-0.00995295
0.00505998
0.0102297
-0.0106095
0.00543648
0.0108502
-0.0112267
0.00580671
0.0114305
-0.0118007
0.00616801
0.0119675
-0.0123288
0.00651802
0.0124591
-0.0128091
0.0068548
0.0129037
-0.0132404
0.00717685
0.0133003
-0.0136224
0.00748325
0.013648
-0.0139544
0.00777371
0.0139453
-0.0142358
0.014187
0.00804869
-0.014462
1.75258e-05
-0.000320216
6.31997e-05
-0.000680903
0.000133879
-0.000793578
0.000227825
-0.000715631
0.000344189
-0.000487968
0.000482594
-0.000141018
0.000642875
0.00030145
0.000824941
0.00082066
0.00102867
0.0014016
0.00125381
0.00203196
0.00149991
0.0027014
0.00176626
0.00340096
0.00205191
0.00412258
0.00235556
0.00485879
0.0026756
0.00560253
0.00301008
0.00634701
0.00335679
0.00708568
0.00371321
0.00781221
0.00407663
0.00852059
0.00444422
0.00920518
0.00481305
0.00986084
0.00518023
0.010483
0.00554299
0.0110677
0.00589871
0.0116118
0.00624506
0.0121127
0.00658007
0.0125687
0.00690216
0.0129782
0.00721028
0.0133399
0.00750398
0.0136516
0.0139076
0.00778333
1.66139e-05
-0.00033683
5.94964e-05
-0.000723785
0.000125465
-0.000859546
0.000212898
-0.000803065
0.000321118
-0.000596187
0.000449912
-0.000269813
0.000599265
0.000152097
0.000769222
0.000650702
0.000959786
0.00121103
0.00117082
0.00182092
0.001402
0.00247022
0.00165279
0.00315017
0.00192238
0.00385299
0.00220966
0.0045715
0.00251325
0.00529894
0.00283146
0.00602881
0.0031623
0.00675484
0.00350354
0.00747097
0.00385271
0.00817141
0.00420722
0.00885068
0.00456435
0.00950371
0.00492139
0.0101259
0.0052757
0.0107134
0.00562475
0.0112627
0.00596625
0.0117712
0.00629822
0.0122367
0.00661904
0.0126574
0.00692758
0.0130314
0.00722319
0.013356
0.0136252
0.0075056
1.55908e-05
-0.000352421
5.53387e-05
-0.000763533
0.000116202
-0.000920409
0.000196742
-0.000883606
0.000296473
-0.000695918
0.000415383
-0.000388723
0.000553628
1.38525e-05
0.000711387
0.000492943
0.000888793
0.00103363
0.00108584
0.00162388
0.00130231
0.00225375
0.00153778
0.0029147
0.0017916
0.00359917
0.00206284
0.00430026
0.00235029
0.00501149
0.00265245
0.00572664
0.00296758
0.00643971
0.00329366
0.00714489
0.00362848
0.00783659
0.00396965
0.00850951
0.00431467
0.00915869
0.004661
0.00977961
0.00500613
0.0103683
0.00534765
0.0109212
0.00568333
0.0114355
0.0060112
0.0119088
0.00632963
0.012339
0.00663741
0.0127236
0.00693373
0.0130597
0.013341
0.00721796
1.4406e-05
-0.000366826
5.07049e-05
-0.000799832
0.000106053
-0.000975758
0.00017928
-0.000956832
0.000270152
-0.00078679
0.000378867
-0.000497437
0.000505772
-0.000113053
0.000651212
0.000347504
0.000815444
0.000869396
0.000998566
0.00144076
0.00120048
0.00205183
0.0014209
0.00269429
0.00165926
0.00336081
0.00191478
0.00404474
0.00218641
0.00473986
0.00247284
0.00544021
0.00277251
0.00614004
0.00308362
0.00683378
0.00340415
0.00751606
0.00373193
0.00818174
0.00406464
0.00882598
0.00439992
0.00944433
0.0047354
0.0100328
0.00506879
0.0105878
0.00539792
0.0111064
0.00572087
0.0115859
0.00603601
0.0120238
0.00634205
0.0124175
0.00663802
0.0127637
0.013056
0.00692298
1.30655e-05
-0.000379892
4.55513e-05
-0.000832318
9.49551e-05
-0.00102516
0.000160433
-0.00102231
0.00024204
-0.000868397
0.000340224
-0.000595621
0.000455545
-0.000228374
0.000588512
0.000214537
0.000739514
0.000718394
0.000908766
0.00127151
0.00109628
0.00186431
0.00130185
0.00248871
0.00152505
0.00313761
0.00176521
0.00380459
0.0020214
0.00448367
0.00229248
0.00516913
0.00257704
0.00585547
0.00287347
0.00653736
0.00317993
0.0072096
0.00349443
0.00786724
0.00381484
0.00850556
0.00413897
0.00912021
0.00446456
0.00970718
0.00478946
0.0102629
0.00511158
0.0107843
0.00542904
0.0112684
0.0057402
0.0117127
0.00604375
0.012114
0.00633855
0.0124689
0.0127713
0.00662333
1.15434e-05
-0.000391435
3.98569e-05
-0.000860631
8.28763e-05
-0.00106818
0.000140153
-0.00107959
0.000212091
-0.000940334
0.000299407
-0.000682938
0.000402884
-0.00033185
0.000523213
9.42075e-05
0.000660924
0.000580684
0.000816343
0.00111609
0.000989587
0.00169107
0.00118055
0.00229775
0.00138889
0.00292927
0.00161404
0.00357944
0.0018552
0.0042425
0.00211135
0.00491298
0.00238122
0.0055856
0.00266337
0.00625522
0.00295611
0.00691686
0.00325761
0.00756573
0.00356592
0.00819725
0.00387898
0.00880715
0.00419469
0.00939147
0.00451098
0.00994663
0.00482586
0.0104694
0.0051375
0.0109568
0.00544429
0.0114059
0.00574482
0.0118135
0.00603782
0.0121759
0.0124874
0.00632173
9.83264e-06
-0.000401268
3.36043e-05
-0.000884403
6.98006e-05
-0.00110438
0.000118438
-0.00112822
0.000180303
-0.0010022
0.000256416
-0.00075905
0.0003478
-0.000423234
0.000455335
-1.33274e-05
0.000579691
0.000456327
0.000721315
0.000974466
0.000880422
0.00153196
0.00105699
0.00212118
0.00125078
0.00273549
0.0014613
0.00336892
0.00168787
0.00401594
0.00192956
0.00467129
0.00218524
0.00532991
0.00245359
0.00598687
0.00273307
0.00663738
0.003022
0.00727679
0.00331857
0.00790069
0.00362085
0.00850487
0.00392687
0.00908545
0.00423467
0.00963883
0.00454234
0.0101617
0.00484809
0.010651
0.00515032
0.0111037
0.00544756
0.0115162
0.00573838
0.0118851
0.0122048
0.00602091
7.92733e-06
-0.000409195
2.67933e-05
-0.000903268
5.57375e-05
-0.00113332
9.53101e-05
-0.0011678
0.00014672
-0.00105361
0.000211318
-0.000823649
0.000290382
-0.000502297
0.000384982
-0.000107928
0.000495939
0.000345371
0.000623818
0.000846587
0.000768932
0.00138685
0.000931348
0.00195876
0.0011109
0.00255594
0.00130719
0.00317262
0.00151962
0.00380351
0.00174737
0.00444355
0.0019894
0.00508788
0.00224451
0.00573176
0.0025113
0.00637059
0.00278821
0.00699988
0.00307354
0.00761536
0.0033655
0.00821291
0.00366223
0.00878872
0.00396187
0.00933919
0.00426258
0.009861
0.00456262
0.010351
0.00486036
0.0108059
0.00515428
0.0112223
0.00544277
0.0115966
0.0119239
0.00572367
5.83019e-06
-0.000415025
1.9435e-05
-0.000916873
4.0718e-05
-0.0011546
7.08288e-05
-0.00119791
0.000111436
-0.00109422
0.000164245
-0.000876457
0.000230793
-0.000568845
0.000312351
-0.000189486
0.000409893
0.00024783
0.000524102
0.000732378
0.000655389
0.00125556
0.000803905
0.00181025
0.000969561
0.00239028
0.00115204
0.00299014
0.00135083
0.00360473
0.00156517
0.0042292
0.00179416
0.00485889
0.00203666
0.00548925
0.00229141
0.00611584
0.00255694
0.00673435
0.00283167
0.00734062
0.00311393
0.00793065
0.00340196
0.00850069
0.00369397
0.00904718
0.00398819
0.00956678
0.0042829
0.0100563
0.00457647
0.0105123
0.00486728
0.0109315
0.00515354
0.0113104
0.0116447
0.0054328
3.5462e-06
-0.000418571
1.15536e-05
-0.00092488
2.47982e-05
-0.00116785
4.50911e-05
-0.0012182
7.45948e-05
-0.00112372
0.000115385
-0.000917247
0.000169271
-0.000622731
0.000237725
-0.00025794
0.000321876
0.000163679
0.000422527
0.000631726
0.000540186
0.0011379
0.000675087
0.00167535
0.000827216
0.00223815
0.000996334
0.00282102
0.00118199
0.00341907
0.00138352
0.00402766
0.0016001
0.00464232
0.0018307
0.00525866
0.00207412
0.00587242
0.00232901
0.00647946
0.00259391
0.00707572
0.00286722
0.00765734
0.00314728
0.00822064
0.00343237
0.0087621
0.00372076
0.00927838
0.00401077
0.00976625
0.0043007
0.0102224
0.00458885
0.0106433
0.00487323
0.011026
0.0113668
0.0051511
1.08591e-06
-0.000419657
3.18688e-06
-0.000926981
8.05702e-06
-0.00117272
1.82274e-05
-0.00122837
3.63846e-05
-0.00114188
6.49882e-05
-0.00094585
0.000106124
-0.000663866
0.000161469
-0.000313284
0.000232307
9.28415e-05
0.000319562
0.000544471
0.000423836
0.00103363
0.000545445
0.00155374
0.00068445
0.00209914
0.000840684
0.00266479
0.00101376
0.00324599
0.00120311
0.00383831
0.00140797
0.00443746
0.0016274
0.00503923
0.00186028
0.00563954
0.00210538
0.00623436
0.00236129
0.0068198
0.00262652
0.00739211
0.00289948
0.00794768
0.00317851
0.00848306
0.00346194
0.00899496
0.00374805
0.00948014
0.0040351
0.00993536
0.00432127
0.0103572
0.00460436
0.0107429
0.0110898
0.00488134
-1.5377e-06
-0.000418119
-5.61521e-06
-0.000922903
-9.40378e-06
-0.00116893
-9.59718e-06
-0.00122818
-2.96074e-06
-0.00114851
1.33581e-05
-0.000962169
4.17249e-05
-0.000692232
8.4023e-05
-0.000355582
0.00014169
3.51746e-05
0.000215768
0.000470393
0.000306954
0.000942444
0.000415644
0.00144505
0.000541976
0.00197281
0.000685848
0.00252092
0.000846951
0.00308489
0.00102478
0.00366048
0.00121865
0.00424359
0.00142769
0.00483019
0.00165089
0.00541634
0.00188708
0.00599818
0.00213494
0.00657194
0.00239306
0.00713399
0.00265991
0.00768083
0.0029339
0.00820908
0.00321335
0.0087155
0.00349654
0.00919694
0.00378167
0.00965023
0.00406676
0.0100721
0.0043494
0.0104603
0.010813
0.00462625
-4.30465e-06
-0.000413815
-1.47907e-05
-0.000912417
-2.74603e-05
-0.00115626
-3.81858e-05
-0.00121745
-4.31655e-05
-0.00114353
-3.91491e-05
-0.000966185
-2.34898e-05
-0.000707891
5.90051e-06
-0.000384972
5.06112e-05
-9.53596e-06
0.0001118
0.000409205
0.000190257
0.000863987
0.00028646
0.00134884
0.000400618
0.00185865
0.000532701
0.00238883
0.000682467
0.00293512
0.000849483
0.00349347
0.00103313
0.00405994
0.00123263
0.00463069
0.00144704
0.00520193
0.00167527
0.00576995
0.00191608
0.00633112
0.00216814
0.00688194
0.00242997
0.007419
0.00270001
0.00793903
0.00297662
0.00843889
0.00325805
0.00891552
0.00354238
0.00936589
0.00382749
0.00978696
0.00411074
0.010177
0.0105352
0.00438849
-7.19322e-06
-0.000406621
-2.42653e-05
-0.000895345
-4.59674e-05
-0.00113456
-6.7311e-05
-0.00119611
-8.39149e-05
-0.00112693
-9.21298e-05
-0.00095797
-8.90286e-05
-0.000710992
-7.23217e-05
-0.000401678
-4.0273e-05
-4.15845e-05
8.38941e-06
0.000360542
7.45484e-05
0.000797828
0.000158761
0.00126463
0.000261309
0.00175611
0.000382229
0.00226791
0.000521351
0.002796
0.000678308
0.00333651
0.000852557
0.00388569
0.00104339
0.00443986
0.00124995
0.00499538
0.00147121
0.00554869
0.00170603
0.0060963
0.00195312
0.00663485
0.00221108
0.00716103
0.00247839
0.00767172
0.0027534
0.00816388
0.00303431
0.00863461
0.00331913
0.00908107
0.00360555
0.00950054
0.00389069
0.00989188
0.0102553
0.00417063
-1.0177e-05
-0.000396444
-3.39539e-05
-0.000871568
-6.47602e-05
-0.00110375
-9.67172e-05
-0.00116415
-0.000124858
-0.00109879
-0.000145136
-0.000937691
-0.000154348
-0.00070178
-0.000150009
-0.000406017
-0.000130239
-6.13538e-05
-9.36561e-05
0.000323959
-3.92858e-05
0.000743457
3.35071e-05
0.00119184
0.000125074
0.00166454
0.000235522
0.00215746
0.000364746
0.00266678
0.000512451
0.00318881
0.000678164
0.00371998
0.000861252
0.00425677
0.00106093
0.0047957
0.00127626
0.00533336
0.00150617
0.0058664
0.00174944
0.00639157
0.00200473
0.00690574
0.00227055
0.0074059
0.00254526
0.00788917
0.00282702
0.00835285
0.00311373
0.00879436
0.00340292
0.00921136
0.00369144
0.00960336
0.00997164
0.00397509
-1.3226e-05
-0.000383218
-4.37607e-05
-0.000841033
-8.36555e-05
-0.00106386
-0.000126123
-0.00112168
-0.000165609
-0.0010593
-0.000197678
-0.000905622
-0.000218857
-0.0006806
-0.000226472
-0.000398402
-0.000218505
-6.93209e-05
-0.000193464
0.000298918
-0.000150289
0.000700281
-8.82662e-05
0.00112981
-6.97592e-06
0.00158325
9.37575e-05
0.00205673
0.000213896
0.00254664
0.000353209
0.00304949
0.000511298
0.00356189
0.000687602
0.00408046
0.000881412
0.00460189
0.00109187
0.0051229
0.00131797
0.00564029
0.00155859
0.00615096
0.00181243
0.00665191
0.00207804
0.00714028
0.0023538
0.00761341
0.00263783
0.00806882
0.00292793
0.00850426
0.00322145
0.00891784
0.00351501
0.00930979
0.00968253
0.00380412
-1.63071e-05
-0.000366911
-5.35806e-05
-0.000803759
-0.000102454
-0.00101498
-0.000155224
-0.00106891
-0.000205755
-0.00100877
-0.000249232
-0.000862145
-0.000281923
-0.000647909
-0.000300973
-0.000379351
-0.000304231
-6.60628e-05
-0.000290102
0.000284788
-0.000257436
0.000667615
-0.000205448
0.00107783
-0.000133649
0.00151145
-4.17972e-05
0.00196488
7.01334e-05
0.00243471
0.000201979
0.00291765
0.00035341
0.00341046
0.000523937
0.00390994
0.000712924
0.0044129
0.000919591
0.00491623
0.00114302
0.00541687
0.00138214
0.00591184
0.00163574
0.0063983
0.00190243
0.0068736
0.00218058
0.00733526
0.00246831
0.00778109
0.00276334
0.00820924
0.00306286
0.00861832
0.00336327
0.00900938
0.00938603
0.00365978
-1.93836e-05
-0.000347527
-6.32996e-05
-0.000759843
-0.000120941
-0.000957342
-0.000183694
-0.00100616
-0.000244855
-0.00094761
-0.00029924
-0.000807759
-0.000342875
-0.000604274
-0.000372731
-0.000349495
-0.000386531
-5.22625e-05
-0.000382578
0.000280834
-0.00035964
0.000644678
-0.00031686
0.00103505
-0.000253679
0.00144827
-0.000169793
0.00188099
-6.5115e-05
0.00233003
6.0256e-05
0.00279228
0.000206054
0.00326466
0.000371858
0.00374413
0.000557104
0.00422765
0.000761087
0.00471225
0.000982964
0.00519499
0.00122175
0.00567305
0.00147631
0.00614375
0.0017453
0.0066046
0.00202717
0.00705339
0.00232001
0.00748824
0.00262151
0.00790774
0.00292873
0.00831109
0.00323789
0.00870022
0.00908004
0.00354388
-2.24163e-05
-0.000325111
-7.27964e-05
-0.000709463
-0.000138891
-0.000891248
-0.00021119
-0.000933861
-0.000282442
-0.000876358
-0.000347117
-0.000743084
-0.000401005
-0.000550385
-0.000440921
-0.000309579
-0.000464468
-2.87153e-05
-0.000469847
0.000286213
-0.000455753
0.000630583
-0.000421252
0.00100055
-0.000365722
0.00139274
-0.000288798
0.00180407
-0.000190332
0.00223156
-7.03658e-05
0.00267231
7.08945e-05
0.0031234
0.000233091
0.00358193
0.000415722
0.00404502
0.000618153
0.00450982
0.000839619
0.00497352
0.00107922
0.00543345
0.00133588
0.00588708
0.00160837
0.00633212
0.00189518
0.00676658
0.00219447
0.00718896
0.00250391
0.0075983
0.00282051
0.00799448
0.00314031
0.00838042
0.00876236
0.00345799
-2.53638e-05
-0.000299747
-8.19436e-05
-0.000652883
-0.000156066
-0.000817126
-0.000237355
-0.000852572
-0.000318035
-0.000795678
-0.000392249
-0.00066887
-0.000455577
-0.000487057
-0.000504686
-0.00026047
-0.000537054
3.65259e-06
-0.000550811
0.00029997
-0.000544561
0.000624333
-0.000517304
0.000973289
-0.000468354
0.00134379
-0.000397286
0.001733
-0.000303898
0.00213818
-0.000188178
0.00255659
-5.02784e-05
0.0029855
0.000109494
0.00342216
0.000290694
0.00386382
0.000492748
0.00430776
0.000714956
0.00475131
0.00095649
0.00519192
0.00121638
0.00562719
0.00149346
0.00605503
0.00178634
0.0064737
0.00209327
0.00688203
0.00241199
0.00727958
0.00273952
0.00766696
0.00307181
0.00804812
0.00843084
0.00340334
-2.81827e-05
-0.000271564
-9.06094e-05
-0.000590457
-0.000172223
-0.000735513
-0.000261819
-0.000762975
-0.000351132
-0.000706366
-0.000434005
-0.000585996
-0.000505824
-0.000415237
-0.000563119
-0.000203175
-0.00060327
4.38032e-05
-0.000624314
0.000321014
-0.000624787
0.000624805
-0.000603618
0.000952119
-0.000560059
0.00130023
-0.000493632
0.00166657
-0.000404081
0.00204863
-0.000291345
0.00244385
-0.000155533
0.00284969
3.08986e-06
0.00326354
0.000184121
0.00368279
0.00038703
0.00410485
0.000611171
0.00452717
0.000855778
0.00494731
0.00111996
0.00536302
0.00140265
0.00577234
0.00170259
0.00617377
0.00201816
0.00656645
0.00234726
0.00695048
0.00268703
0.00732719
0.00303345
0.0077017
0.00808341
0.00338088
-3.08286e-05
-0.000240736
-9.86597e-05
-0.000522626
-0.000187113
-0.000647059
-0.000284208
-0.00066588
-0.000381225
-0.000609349
-0.000471736
-0.000495484
-0.000550956
-0.000336017
-0.000615293
-0.000138838
-0.000662037
9.0547e-05
-0.000689144
0.000348121
-0.00069508
0.00063074
-0.000678709
0.000935749
-0.000639225
0.00126075
-0.000576095
0.00160344
-0.000489015
0.00196155
-0.00037788
0.00233272
-0.000242765
0.00271457
-8.39043e-05
0.00310468
9.8324e-05
0.00350056
0.000303416
0.00389976
0.000530752
0.00429984
0.000779602
0.00469846
0.00104913
0.00509349
0.00133837
0.0054831
0.00164618
0.00586595
0.00197116
0.00624148
0.00231142
0.00661022
0.00266437
0.00697424
0.00302618
0.00733989
0.00771833
0.00339126
-3.32567e-05
-0.000207479
-0.00010596
-0.000449922
-0.000200489
-0.000552531
-0.000304144
-0.000562224
-0.000407797
-0.000505696
-0.000504783
-0.000398499
-0.000590165
-0.000250636
-0.000660247
-6.87551e-05
-0.00071224
0.00014254
-0.000744029
0.00037991
-0.000754014
0.000640725
-0.000741
0.000922734
-0.000704122
0.00122387
-0.000642798
0.00154212
-0.000556676
0.00187542
-0.000445615
0.00222166
-0.000309661
0.00257862
-0.000149032
0.00294405
3.59028e-05
0.00331563
0.00024464
0.00369103
0.000476553
0.00406792
0.00073091
0.0044441
0.00100689
0.00481751
0.00130357
0.00518641
0.00161994
0.00554958
0.00195479
0.00590663
0.00230656
0.00625844
0.00267308
0.00660773
0.00305098
0.00696199
0.00733437
0.00343494
-3.54228e-05
-0.000172056
-0.000112379
-0.000372966
-0.000212105
-0.000452806
-0.000321253
-0.000453076
-0.000430336
-0.000396614
-0.000532482
-0.000296353
-0.000622629
-0.000160489
-0.000696995
5.61162e-06
-0.000752725
0.000198269
-0.000787641
0.000414826
-0.000800086
0.000653169
-0.000788808
0.000911457
-0.000752894
0.00118796
-0.000691708
0.00148093
-0.000604857
0.00178857
-0.000492166
0.00210897
-0.00035366
0.00244012
-0.00018955
0.00277994
-2.10908e-07
0.00312629
0.000213826
0.00347699
0.000451893
0.00382986
0.000713202
0.00418279
0.000996874
0.00453384
0.00130197
0.00488132
0.00162749
0.00522406
0.0019724
0.00556172
0.00233552
0.00589532
0.00271527
0.00622798
0.00310909
0.00656816
0.00693109
0.00351237
-3.72845e-05
-0.000134772
-0.000117789
-0.000292461
-0.000221723
-0.000348871
-0.000335172
-0.000339627
-0.000448335
-0.00028345
-0.000554174
-0.000190514
-0.000647525
-6.7138e-05
-0.000724538
8.26247e-05
-0.000782304
0.000256036
-0.000818598
0.00045112
-0.000831713
0.000666283
-0.000820349
0.000900093
-0.000783545
0.00115115
-0.000720621
0.00141801
-0.000631143
0.00169909
-0.000514906
0.00199273
-0.000371915
0.00229713
-0.000202378
0.0026104
-6.69133e-06
0.0029306
0.000214569
0.00325573
0.000460656
0.00358377
0.000730665
0.00391278
0.00102357
0.00424093
0.00133828
0.00456662
0.00167367
0.00488867
0.00202872
0.00520667
0.00240252
0.00552152
0.00279423
0.00583627
0.00320262
0.00615977
0.00650921
0.0036245
-3.88026e-05
-9.59691e-05
-0.000122071
-0.000209192
-0.000229122
-0.000241821
-0.000345552
-0.000223197
-0.00046131
-0.000167692
-0.000569218
-8.26059e-05
-0.000664038
2.76819e-05
-0.000741872
0.000160459
-0.000799774
0.000313937
-0.00083548
0.000486826
-0.000847247
0.000678049
-0.000833737
0.000886583
-0.000793948
0.00111136
-0.00072716
0.00135122
-0.000632902
0.00160484
-0.000510939
0.00187077
-0.000361259
0.00214745
-0.000184064
0.00243321
2.0229e-05
0.00272631
0.00025099
0.00302497
0.00050737
0.00332739
0.000788303
0.00363185
0.00109253
0.00393671
0.00141862
0.00424052
0.00176511
0.00454218
0.00213064
0.00484114
0.00251426
0.0051379
0.00291576
0.00543477
0.00333579
0.00573975
0.00607103
0.00377398
-3.9942e-05
-5.60272e-05
-0.000125117
-0.000124017
-0.000234094
-0.000132844
-0.000352074
-0.000105218
-0.000468802
-5.09633e-05
-0.000577
2.55923e-05
-0.000671379
0.000122061
-0.000748012
0.000237092
-0.000803929
0.000369854
-0.000836846
0.000519743
-0.000844992
0.000686195
-0.000827006
0.000868596
-0.000781853
0.00106621
-0.000708781
0.00127815
-0.000607288
0.00150334
-0.000477108
0.00174059
-0.000318207
0.00198854
-0.000130773
0.00224577
8.47697e-05
0.00251077
0.000327751
0.00278198
0.000597233
0.00305791
0.00089198
0.0033371
0.00121044
0.00361825
0.00155075
0.00390022
0.00191077
0.00418215
0.00228835
0.00446356
0.00268173
0.00474452
0.00309051
0.00502599
0.00351725
0.005313
0.00562012
0.00396816
-4.06727e-05
-1.53546e-05
-0.000126834
-3.78557e-05
-0.000236461
-2.32171e-05
-0.000354448
1.27689e-05
-0.000470394
6.4983e-05
-0.000576951
0.000132149
-0.000668803
0.000213913
-0.00074201
0.000310299
-0.000793596
0.00042144
-0.000821267
0.000547414
-0.000823244
0.000688173
-0.000798152
0.000843503
-0.000744938
0.001013
-0.000662826
0.00119604
-0.000551289
0.00139181
-0.000410035
0.00159933
-0.000238997
0.00181751
-3.83371e-05
0.00204511
0.000191544
0.00228089
0.000449981
0.00252355
0.000736007
0.00277188
0.0010483
0.00302481
0.00138509
0.00328145
0.00174411
0.0035412
0.00212246
0.0038038
0.00251671
0.0040693
0.00292329
0.00433794
0.00333943
0.00460985
0.00376666
0.00488576
0.00515815
0.00422863
-4.09702e-05
2.56156e-05
-0.000127144
4.83183e-05
-0.00023607
8.57087e-05
-0.000352426
0.000129125
-0.000465719
0.000178275
-0.00056856
0.000234991
-0.000655627
0.000300979
-0.000722984
0.000377657
-0.000767661
0.000466116
-0.00078737
0.000567122
-0.000780338
0.00068114
-0.00074519
0.000808355
-0.00068087
0.000948677
-0.000586592
0.00110176
-0.000461814
0.00126703
-0.000306219
0.00144374
-0.000119706
0.00163099
9.76117e-05
0.0018278
0.000345395
0.0020331
0.000623055
0.00224589
0.000929714
0.00246522
0.00126415
0.00269038
0.00162469
0.00292091
0.00200909
0.0031568
0.00241435
0.00339854
0.00283657
0.00364708
0.0032711
0.00390341
0.00371226
0.00416869
0.004155
0.00444303
0.00461794
0.00469521
0.00823359
0.0822694
-0.0824543
0.00801769
0.0834037
-0.0831878
0.00764534
0.0808573
-0.080485
0.00724716
0.0769724
-0.0765742
0.00690254
0.0728353
-0.0724907
0.00662718
0.0690291
-0.0687538
0.0064084
0.0657453
-0.0655266
0.00622494
0.0629799
-0.0627965
0.00605692
0.060685
-0.060517
0.00589047
0.058805
-0.0586386
0.00571729
0.0573124
-0.0571392
0.00553347
0.056181
-0.0559972
0.00533748
0.0553843
-0.0551883
0.00512949
0.0548778
-0.0546698
0.00490935
0.0546128
-0.0543926
0.00467708
0.0545347
-0.0543024
0.00443363
0.0545918
-0.0543483
0.00417898
0.0547448
-0.0544901
0.00391405
0.0549604
-0.0546955
0.00364005
0.0552115
-0.0549375
0.00335735
0.0554846
-0.0552019
0.00306784
0.0557589
-0.0554694
0.00277146
0.0560312
-0.0557348
0.00246997
0.0562851
-0.0559837
0.00216289
0.0565212
-0.0562141
0.00185112
0.0567275
-0.0564158
0.00153387
0.0569108
-0.0565936
0.00121157
0.0570695
-0.0567472
0.000885122
0.0572107
-0.0568843
0.0572916
-0.0569649
0.00809427
0.0819584
0.00797371
0.0835242
0.00766798
0.081163
0.00731229
0.0773281
0.00699422
0.0731534
0.00673635
0.069287
0.0065301
0.0659516
0.00635612
0.0631539
0.00619521
0.0608459
0.00603346
0.0589668
0.00586243
0.0574834
0.00567878
0.0563647
0.00548117
0.0555819
0.00526987
0.0550891
0.00504514
0.0548375
0.00480745
0.0547724
0.00455731
0.0548419
0.00429544
0.0550066
0.00402274
0.0552331
0.00374012
0.0554942
0.0034488
0.055776
0.00314972
0.056058
0.00284396
0.056337
0.00253224
0.0565969
0.00221508
0.0568384
0.00189263
0.05705
0.00156471
0.0572387
0.00123145
0.0574028
0.000894058
0.0575481
0.0576294
0.00794066
0.0815234
0.00791677
0.0835481
0.00767971
0.0814001
0.00736839
0.0776394
0.00707825
0.0734436
0.00683896
0.0695263
0.00664628
0.0661443
0.0064829
0.0633173
0.00633021
0.0609986
0.00617426
0.0591227
0.00600637
0.0576513
0.00582363
0.0565474
0.00562494
0.0557806
0.0054107
0.0553033
0.00518161
0.0550666
0.00493859
0.0550154
0.00468185
0.0550986
0.00441272
0.0552758
0.00413218
0.0555137
0.00384086
0.0557855
0.00354083
0.056076
0.00323209
0.0563667
0.00291686
0.0566522
0.00259483
0.0569189
0.00226752
0.0571657
0.00193432
0.0573832
0.00159569
0.0575774
0.00125144
0.0577471
0.000903054
0.0578965
0.0579783
0.00777429
0.080967
0.00784763
0.0834748
0.00768067
0.081567
0.00741524
0.0779048
0.00715425
0.0737045
0.00693456
0.069746
0.0067565
0.0663223
0.00660488
0.0634689
0.00646161
0.0611419
0.00631259
0.0592718
0.00614894
0.057815
0.00596789
0.0567285
0.00576866
0.0559798
0.00555196
0.05552
0.0053188
0.0552998
0.00507043
0.0552637
0.00480728
0.0553618
0.00453083
0.0555522
0.0042423
0.0558022
0.00394241
0.0560854
0.00363332
0.0563851
0.00331511
0.0566849
0.00299007
0.0569772
0.00265787
0.0572511
0.00232014
0.0575034
0.00197625
0.0577271
0.00162676
0.0579269
0.00127154
0.0581023
0.000912108
0.0582559
0.0583385
0.00759685
0.0802931
0.00776723
0.0833044
0.00767108
0.0816632
0.00745276
0.0781232
0.00722198
0.0739353
0.00702271
0.0699452
0.00686027
0.0664848
0.00672168
0.0636075
0.00658911
0.0612745
0.00644818
0.0594127
0.00628992
0.0579732
0.00611141
0.056907
0.00591224
0.056179
0.00569355
0.0557387
0.00545664
0.0555367
0.00520297
0.0555174
0.00493354
0.0556312
0.00464978
0.055836
0.00435315
0.0560988
0.00404471
0.0563938
0.00372636
0.0567034
0.00339873
0.0570126
0.00306365
0.0573123
0.00272131
0.0575934
0.00237299
0.0578517
0.00201839
0.0580817
0.00165795
0.0582873
0.00129174
0.0584685
0.000921232
0.0586264
0.05871
0.00741008
0.0795064
0.00767668
0.0830378
0.00765144
0.0816884
0.00748091
0.0782937
0.00728106
0.0741352
0.00710303
0.0701233
0.00695723
0.0666306
0.00683287
0.0637318
0.00671233
0.061395
0.0065808
0.0595442
0.00642908
0.058125
0.00625402
0.057082
0.00605562
0.0563774
0.00583536
0.055959
0.00559501
0.055777
0.00533626
0.0557762
0.00506058
0.0559069
0.00476956
0.056127
0.0044648
0.0564036
0.00414771
0.0567109
0.00382005
0.0570311
0.00348285
0.0573498
0.00313767
0.0576575
0.00278509
0.057946
0.00242611
0.0582107
0.00206074
0.0584471
0.00168931
0.0586587
0.00131207
0.0588457
0.000930428
0.0590081
0.0590928
0.00721591
0.0786122
0.00757721
0.0826765
0.00762233
0.0816433
0.00749981
0.0784162
0.00733131
0.0743037
0.00717521
0.0702794
0.00704697
0.0667588
0.00693805
0.0638407
0.00683093
0.0615021
0.00671018
0.059665
0.00656618
0.058269
0.00639555
0.0572526
0.00619863
0.0565743
0.0059773
0.0561803
0.00573382
0.0560205
0.00547023
0.0560397
0.00518838
0.0561888
0.00489013
0.0564252
0.00457724
0.0567165
0.00425142
0.0570367
0.00391441
0.0573681
0.00356751
0.0576966
0.00321217
0.0580128
0.00284921
0.058309
0.00247954
0.0585804
0.00210331
0.0588233
0.00172085
0.0590412
0.00133251
0.0592341
0.000939709
0.0594009
0.0594872
0.00701646
0.0776167
0.00747027
0.0822227
0.0075845
0.0815291
0.00750969
0.078491
0.00737263
0.0744407
0.00723894
0.0704131
0.00712915
0.0668686
0.00703686
0.063933
0.00694457
0.0615944
0.00683602
0.0597735
0.00670099
0.058404
0.0065358
0.0574178
0.00634112
0.056769
0.00611926
0.0564021
0.005873
0.0562667
0.00560481
0.0563079
0.00531691
0.0564767
0.00501148
0.0567307
0.00469047
0.0570375
0.00435586
0.0573713
0.00400943
0.0577145
0.00365274
0.0580533
0.00328716
0.0583784
0.00291372
0.0586824
0.00253327
0.0589608
0.00214612
0.0592104
0.00175258
0.0594347
0.00135309
0.0596336
0.000949085
0.0598049
0.059893
0.00681396
0.0765264
0.0073574
0.0816793
0.00753886
0.0813476
0.00751096
0.0785189
0.00740506
0.0745466
0.00729405
0.0705241
0.00720346
0.0669592
0.00712898
0.0640075
0.00705294
0.0616705
0.00695803
0.0598684
0.00683325
0.0585288
0.00667455
0.0575765
0.0064829
0.0569607
0.00626108
0.056624
0.00601243
0.0565154
0.00573991
0.0565804
0.00544611
0.0567705
0.00513356
0.0570432
0.00480446
0.0573666
0.00446101
0.0577148
0.00410512
0.0580704
0.00373853
0.0584199
0.00336266
0.0587543
0.00297862
0.0590665
0.00258733
0.0593521
0.00218917
0.0596086
0.00178452
0.0598394
0.00137383
0.0600442
0.000958562
0.0602202
0.0603104
0.00661076
0.0753484
0.00724033
0.0810497
0.0074865
0.0811015
0.00750418
0.0785012
0.00742877
0.074622
0.00734045
0.0706124
0.00726967
0.06703
0.0072141
0.0640631
0.00715572
0.0617289
0.0070759
0.0599482
0.0069627
0.058642
0.00681157
0.0577277
0.0066238
0.0571484
0.00640261
0.0568452
0.00615198
0.056766
0.00587541
0.056857
0.00557589
0.05707
0.00525633
0.0573628
0.00491917
0.0577037
0.00456687
0.0580671
0.00420148
0.0584358
0.00382491
0.0587965
0.00343866
0.0591405
0.00304395
0.0594612
0.00264172
0.0597544
0.0022325
0.0600178
0.00181667
0.0602552
0.00139474
0.0604662
0.000968154
0.0606467
0.0607395
0.00640932
0.0740902
0.00712092
0.0803381
0.00742869
0.0807937
0.00749009
0.0784398
0.00744411
0.074668
0.00737818
0.0706783
0.00732766
0.0670805
0.007292
0.0640987
0.00725262
0.0617682
0.00718936
0.0600115
0.00708907
0.0587422
0.00694664
0.0578701
0.0067636
0.0573315
0.00654367
0.0570651
0.00629151
0.0570182
0.00601121
0.0571373
0.00570616
0.057375
0.00537971
0.0576892
0.00503455
0.0580489
0.00467341
0.0584282
0.0042985
0.0588107
0.00391188
0.0591831
0.00351518
0.0595372
0.00310971
0.0598666
0.00269648
0.0601676
0.00227612
0.0604382
0.00184907
0.0606823
0.00141584
0.0608994
0.000977881
0.0610847
0.0611802
0.00621215
0.0727594
0.00700114
0.0795491
0.00736689
0.0804279
0.00746964
0.0783371
0.00745159
0.0746861
0.00740744
0.0707225
0.00737738
0.0671106
0.00736248
0.0641136
0.0073434
0.0617873
0.00729811
0.0600568
0.00721209
0.0588283
0.00707951
0.0580027
0.00690207
0.0575089
0.00668408
0.0572831
0.00643085
0.0572714
0.00614715
0.057421
0.00583682
0.0576854
0.00550362
0.0580224
0.00515055
0.058402
0.00478058
0.0587982
0.00439615
0.0591952
0.00399943
0.0595799
0.00359223
0.0599444
0.00317593
0.0602829
0.00275163
0.0605919
0.00232005
0.0608698
0.00188171
0.0611206
0.00143715
0.061344
0.000987765
0.0615341
0.0616327
0.00602187
0.0713638
0.00688306
0.0786879
0.00730274
0.0800083
0.00744397
0.0781959
0.00745194
0.0746781
0.00742859
0.0707458
0.00741892
0.0671202
0.00742546
0.0641071
0.00742784
0.0617849
0.00740192
0.0600827
0.0073315
0.0588987
0.00720992
0.0581243
0.00703901
0.0576798
0.00682363
0.0574985
0.00656984
0.0575252
0.00628309
0.0577078
0.00596774
0.0580007
0.00562797
0.0583622
0.00526711
0.0587628
0.00488835
0.0591769
0.00449441
0.0595891
0.00408756
0.0599867
0.0036698
0.0603622
0.0032426
0.0607101