/*--------------------------------*- C++ -*----------------------------------*\
  =========                 |
  \\      /  F ield         | OpenFOAM: The Open Source CFD Toolbox
   \\    /   O peration     | Website:  https://openfoam.org
    \\  /    A nd           | Version:  7
     \\/     M anipulation  |
\*---------------------------------------------------------------------------*/
FoamFile
{
    version     2.0;
    format      ascii;
    class       volVectorField;
    location    "8.5";
    object      U;
}
// * * * * * * * * * * * * * * * * * * * * * * * * * * * * * * * * * * * * * //

dimensions      [0 1 -1 0 0 0 0];

internalField   nonuniform List<vector> 
18000
(
(0.000496167 -0.00881297 4.55111e-21)
(0.00274055 -0.0183308 0)
(0.00680327 -0.0205157 0)
(0.011848 -0.017047 0)
(0.0177487 -0.0091138 -1.50834e-21)
(0.0243387 0.00238937 7.63198e-21)
(0.0315072 0.016758 -1.54414e-21)
(0.0391705 0.0334308 1.55474e-21)
(0.0472581 0.0519546 0)
(0.0557059 0.0719535 -4.70166e-21)
(0.064453 0.093108 -1.57244e-21)
(0.0734376 0.115137 0)
(0.0825941 0.137784 3.13736e-21)
(0.0918525 0.160811 3.14454e-21)
(0.101139 0.183989 -6.28019e-21)
(0.110378 0.207101 -6.27085e-21)
(0.119489 0.229932 0)
(0.128394 0.252282 -9.39092e-21)
(0.137015 0.27396 3.11748e-21)
(0.145277 0.294788 -9.36386e-21)
(0.153112 0.31461 3.10712e-21)
(0.160461 0.333288 0)
(0.167274 0.350709 -3.07925e-21)
(0.173511 0.366784 -3.09516e-21)
(0.179145 0.381452 0)
(0.184162 0.394673 0)
(0.188558 0.406423 -6.17945e-21)
(0.192352 0.416683 -6.17263e-21)
(0.195562 0.425415 -6.21939e-21)
(0.198105 0.432474 6.66087e-21)
(0.000734349 -0.00931952 6.48846e-21)
(0.00315692 -0.0196412 1.13148e-20)
(0.00708232 -0.0225108 -1.1594e-20)
(0.0117546 -0.0196521 -1.18319e-20)
(0.0170942 -0.0122824 -3.01115e-21)
(0.0229764 -0.00131305 9.1313e-21)
(0.0293242 0.0125413 -1.23116e-20)
(0.03608 0.0287155 -1.24048e-20)
(0.0431939 0.0467568 1.24714e-20)
(0.0506201 0.0662916 1.25191e-20)
(0.0583128 0.0870048 -6.26614e-21)
(0.0662234 0.108622 -1.255e-20)
(0.0743001 0.130894 -6.29145e-21)
(0.0824868 0.153591 1.25362e-20)
(0.0907226 0.176493 -1.25191e-20)
(0.0989434 0.19939 1.25182e-20)
(0.107082 0.222077 -2.49992e-20)
(0.115072 0.244359 1.86909e-20)
(0.122845 0.266048 -1.24228e-20)
(0.130336 0.28697 6.22956e-21)
(0.137482 0.306967 -1.23769e-20)
(0.14423 0.3259 0)
(0.150531 0.343651 6.29365e-21)
(0.156348 0.360123 -1.23037e-20)
(0.161651 0.375244 1.23029e-20)
(0.166422 0.388964 0)
(0.170656 0.401246 -6.0912e-21)
(0.174369 0.412054 6.0684e-21)
(0.177551 0.421331 2.4457e-20)
(0.1801 0.428908 1.32493e-20)
(0.00099726 -0.00982377 -1.0389e-20)
(0.0036289 -0.0209073 -1.13146e-20)
(0.00743108 -0.0244038 1.73909e-20)
(0.0117414 -0.0221104 2.95536e-20)
(0.0165335 -0.0152726 0)
(0.0217265 -0.00481765 -1.21874e-20)
(0.027276 0.00853389 1.23115e-20)
(0.0331524 0.0242143 3.71655e-20)
(0.0393263 0.0417711 -1.24713e-20)
(0.0457669 0.060834 -1.25152e-20)
(0.0524432 0.081093 3.75617e-20)
(0.0593197 0.10228 1.25499e-20)
(0.0663558 0.124153 0)
(0.0735064 0.146491 -2.50708e-20)
(0.0807222 0.169081 3.74396e-20)
(0.0879503 0.191721 -1.24556e-20)
(0.0951353 0.214215 1.24724e-20)
(0.10222 0.236373 1.24558e-20)
(0.109145 0.258013 6.0459e-23)
(0.115854 0.278965 0)
(0.122293 0.299071 3.71585e-20)
(0.128413 0.318189 -2.45567e-20)
(0.134168 0.3362 1.23374e-20)
(0.139523 0.353 0)
(0.144448 0.368509 -1.2303e-20)
(0.148924 0.382667 4.90179e-20)
(0.152944 0.395424 -3.64459e-20)
(0.156521 0.406728 -1.22539e-20)
(0.159623 0.416508 1.20541e-20)
(0.162128 0.424574 1.33036e-20)
(0.00128114 -0.0102709 0)
(0.00414072 -0.0220432 5.6509e-21)
(0.007824 -0.0261267 7.58225e-24)
(0.0117797 -0.0243696 -2.9528e-20)
(0.0160332 -0.018045 0)
(0.0205505 -0.00809444 -2.42918e-20)
(0.0253227 0.0047573 0)
(0.0303451 0.0199412 -3.71319e-20)
(0.0356088 0.0370054 1.24292e-20)
(0.0410993 0.0555847 -2.49214e-20)
(0.0467981 0.0753743 -2.50214e-20)
(0.0526801 0.0961116 -1.25124e-20)
(0.0587152 0.117563 1.24879e-20)
(0.0648683 0.139512 1.24338e-20)
(0.0710999 0.161757 -1.25143e-20)
(0.0773665 0.184102 -2.4838e-20)
(0.083622 0.206359 2.47647e-20)
(0.089818 0.228343 0)
(0.0959054 0.24988 0)
(0.101835 0.270801 0)
(0.10756 0.290952 0)
(0.113035 0.310192 0)
(0.118221 0.328395 0)
(0.123084 0.345458 -2.43594e-20)
(0.127594 0.361291 -2.44853e-20)
(0.131734 0.375824 -1.83273e-22)
(0.135495 0.388998 -2.44323e-20)
(0.138892 0.400748 -4.41045e-22)
(0.141865 0.410984 -2.47296e-20)
(0.144281 0.419505 5.23366e-20)
(0.0015816 -0.0106866 0)
(0.00468424 -0.0230866 5.07428e-20)
(0.00825038 -0.0277046 6.78431e-24)
(0.0118514 -0.0264475 -1.76852e-20)
(0.0155708 -0.0206126 5.98634e-20)
(0.019423 -0.0111529 3.643e-20)
(0.0234337 0.00120296 3.67263e-20)
(0.0276249 0.0158877 0)
(0.0320072 0.032453 0)
(0.0365806 0.0505376 3.73732e-20)
(0.0413382 0.0698425 1.06501e-23)
(0.0462651 0.0901117 -8.72712e-20)
(0.0513398 0.111118 7.47231e-20)
(0.0565356 0.132654 -2.49321e-20)
(0.0618209 0.154523 2.47503e-20)
(0.0671606 0.176538 2.47517e-20)
(0.0725165 0.198517 -2.47012e-20)
(0.0778487 0.220283 2.47243e-20)
(0.0831158 0.241666 4.92376e-20)
(0.088276 0.262502 -2.44657e-20)
(0.0932883 0.282641 -4.88392e-20)
(0.098114 0.30194 4.87099e-20)
(0.102718 0.320275 -4.85862e-20)
(0.107068 0.337535 2.43597e-20)
(0.111139 0.35363 0)
(0.114911 0.368479 0)
(0.118379 0.382012 3.55389e-22)
(0.121556 0.394155 -9.59927e-20)
(0.124361 0.404802 4.79091e-20)
(0.126646 0.413743 -5.25633e-20)
(0.00189524 -0.0110531 0)
(0.00524735 -0.0240045 -4.50981e-20)
(0.00869056 -0.0291086 4.6135e-20)
(0.0119342 -0.0283193 0)
(0.0151204 -0.0229556 -9.57012e-20)
(0.0183144 -0.0139792 -1.21177e-20)
(0.0215785 -0.00211885 -2.45112e-20)
(0.0249596 0.0120613 -1.232e-20)
(0.0284871 0.0281169 0)
(0.0321754 0.0456927 -2.48523e-20)
(0.0360283 0.0644964 2.48764e-20)
(0.0400393 0.0842782 4.98394e-20)
(0.0441944 0.104818 -4.98076e-20)
(0.0484739 0.125914 0)
(0.0528533 0.147378 -4.96383e-20)
(0.057304 0.16903 4.93875e-20)
(0.0617949 0.190694 4.93889e-20)
(0.0662932 0.2122 7.37418e-20)
(0.0707644 0.233383 -7.35691e-20)
(0.075173 0.254086 9.78216e-20)
(0.0794842 0.274158 4.88907e-20)
(0.0836646 0.29346 -4.87104e-20)
(0.0876832 0.311867 9.69572e-20)
(0.0915118 0.329268 0)
(0.0951266 0.345564 4.81093e-20)
(0.09851 0.36067 9.62927e-20)
(0.101659 0.374508 -4.75184e-20)
(0.104587 0.386992 4.80273e-20)
(0.107192 0.398005 4.55822e-23)
(0.109313 0.40733 -5.22473e-20)
(0.00221702 -0.0113695 -5.17194e-21)
(0.00581869 -0.0247959 0)
(0.00912926 -0.0303349 -5.76657e-20)
(0.0120077 -0.0299815 1.17505e-20)
(0.0146593 -0.0250724 3.58665e-20)
(0.0172012 -0.0165726 1.20928e-20)
(0.0197316 -0.00520938 4.88111e-20)
(0.0223225 0.00845786 0)
(0.0250215 0.0239916 2.47252e-20)
(0.0278566 0.0410438 2.47556e-20)
(0.0308407 0.0593287 -2.48442e-20)
(0.0339749 0.078603 7.44618e-20)
(0.0372518 0.0986534 0)
(0.0406576 0.119286 0)
(0.044173 0.140318 7.41599e-20)
(0.0477754 0.161575 -1.23286e-19)
(0.0514397 0.18289 4.91202e-20)
(0.0551389 0.204099 -4.91003e-20)
(0.0588441 0.225041 -4.8803e-20)
(0.0625259 0.245564 -1.46291e-19)
(0.0661548 0.26552 -2.22999e-22)
(0.0697025 0.284774 4.83263e-20)
(0.0731421 0.3032 -9.65457e-20)
(0.0764491 0.320684 4.80277e-20)
(0.0796021 0.337126 -2.25296e-22)
(0.0825856 0.352434 -4.79847e-20)
(0.0853988 0.366523 4.7861e-20)
(0.0880569 0.3793 0)
(0.0904366 0.390635 4.73178e-20)
(0.0923664 0.400312 5.27434e-22)
(0.00254217 -0.0116299 -1.03352e-20)
(0.00638576 -0.0254494 1.12477e-20)
(0.0095489 -0.0313732 -6.90459e-20)
(0.0120521 -0.0314253 -3.51912e-20)
(0.014166 -0.0269556 4.76715e-20)
(0.0160606 -0.0189291 -7.24243e-20)
(0.0178701 -0.0080679 -2.44285e-20)
(0.019691 0.00507644 -4.90747e-20)
(0.0215882 0.0200746 4.93125e-20)
(0.0236019 0.0365863 -9.9008e-20)
(0.0257535 0.0543332 -4.95311e-20)
(0.0280509 0.0730795 -9.27022e-23)
(0.0304918 0.0926185 2.47897e-20)
(0.0330671 0.112762 -7.41244e-20)
(0.0357623 0.133335 -9.86996e-20)
(0.0385596 0.15417 -1.6797e-23)
(0.0414387 0.175105 -1.3461e-22)
(0.0443774 0.195981 4.88426e-20)
(0.0473517 0.216644 4.88036e-20)
(0.0503374 0.236945 -5.23116e-23)
(0.0533099 0.256742 -2.65973e-22)
(0.0562451 0.2759 4.7938e-20)
(0.0591201 0.294295 4.81753e-20)
(0.061914 0.311812 6.86332e-23)
(0.0646083 0.328347 -1.43448e-19)
(0.0671894 0.343806 9.49808e-20)
(0.0696594 0.358097 9.53382e-20)
(0.0720344 0.37112 -9.43047e-20)
(0.0741718 0.382737 -4.73184e-20)
(0.0758893 0.392735 -5.19404e-20)
(0.00286514 -0.0118291 -9.29134e-20)
(0.00693585 -0.025957 -1.12351e-20)
(0.00993269 -0.0322147 5.75163e-20)
(0.0120483 -0.0326436 4.69262e-20)
(0.0136204 -0.0286011 -4.76712e-20)
(0.0148727 -0.0210469 4.82685e-20)
(0.0159747 -0.0106943 -2.43478e-20)
(0.0170467 0.001915 7.35903e-20)
(0.0181696 0.0163617 -4.93126e-20)
(0.0193948 0.0323148 4.94601e-20)
(0.0207513 0.0495039 2.47786e-20)
(0.0222525 0.0677007 -2.48011e-20)
(0.0239005 0.0867054 -1.48309e-19)
(0.0256901 0.106337 9.87446e-20)
(0.0276106 0.126425 4.92991e-20)
(0.0296481 0.14681 0)
(0.0317862 0.167334 0)
(0.0340065 0.187845 -2.52019e-22)
(0.0362893 0.208194 -4.86034e-20)
(0.0386147 0.228236 0)
(0.0409622 0.247833 0)
(0.0433118 0.266852 -4.81642e-20)
(0.0456442 0.28517 0)
(0.0479416 0.302673 -9.53409e-20)
(0.0501885 0.319255 0)
(0.0523732 0.334817 -4.75268e-20)
(0.0545004 0.349264 9.48756e-20)
(0.0565873 0.362491 -9.3847e-20)
(0.0584729 0.374353 0)
(0.0599632 0.384644 0)
(0.00318021 -0.0119625 8.25857e-20)
(0.00745601 -0.0263109 0)
(0.0102639 -0.0328522 -1.14874e-20)
(0.0119779 -0.0336311 1.17059e-20)
(0.0130044 -0.0300054 -7.12857e-20)
(0.0136203 -0.0229246 3.8921e-24)
(0.0140298 -0.0130896 -2.43074e-20)
(0.0143754 -0.00102932 0)
(0.0147532 0.0128488 0)
(0.0152243 0.0282239 -2.46743e-20)
(0.0158245 0.0448344 2.46984e-20)
(0.0165716 0.0624599 -4.94407e-20)
(0.0174712 0.0809076 4.94985e-20)
(0.0185214 0.100003 0)
(0.0197144 0.119582 0)
(0.0210394 0.13949 0)
(0.022483 0.159576 4.8702e-20)
(0.02403 0.179692 -8.68617e-23)
(0.0256644 0.199694 4.8706e-20)
(0.0273697 0.219442 -9.65507e-20)
(0.029129 0.238802 4.82651e-20)
(0.0309258 0.257643 -2.39803e-19)
(0.0327439 0.275843 -1.48111e-22)
(0.0345686 0.29329 9.53423e-20)
(0.0363868 0.309875 -4.68678e-22)
(0.0381889 0.325498 9.41568e-20)
(0.0399813 0.340058 -9.39436e-20)
(0.0417823 0.353452 -9.40969e-20)
(0.0434137 0.365527 -1.18038e-22)
(0.0446678 0.376087 -1.02123e-19)
(0.00348121 -0.0120255 -1.03121e-20)
(0.0079329 -0.0265045 0)
(0.0105261 -0.03328 2.2947e-20)
(0.011824 -0.0343836 -2.33834e-20)
(0.0123018 -0.0311668 2.13769e-19)
(0.0122891 -0.0245627 2.68877e-24)
(0.012023 -0.0152558 -2.4272e-20)
(0.0116673 -0.00375969 2.44435e-20)
(0.0113313 0.00953171 -1.22726e-19)
(0.011085 0.0243087 0)
(0.0109694 0.0403193 0)
(0.0110062 0.0573514 -4.92515e-20)
(0.0112037 0.0752193 4.93973e-20)
(0.0115624 0.0937548 -4.92573e-20)
(0.0120769 0.112801 4.9048e-20)
(0.0127386 0.132207 0)
(0.0135365 0.151828 -1.95146e-19)
(0.0144582 0.17152 9.71421e-20)
(0.0154904 0.191146 4.85195e-20)
(0.0166197 0.210569 1.44802e-19)
(0.017832 0.229656 0)
(0.0191138 0.248283 9.57957e-20)
(0.0204518 0.266329 9.50378e-20)
(0.0218339 0.283681 9.46339e-20)
(0.0232489 0.30023 -2.78274e-22)
(0.0246889 0.315875 -9.40064e-20)
(0.0261616 0.330513 9.3945e-20)
(0.0276854 0.34404 0)
(0.0290666 0.356301 -1.07122e-22)
(0.0300815 0.367111 2.04009e-19)
(0.0037617 -0.0120143 -8.24141e-20)
(0.00835319 -0.0265325 0)
(0.0107036 -0.0334936 -9.16209e-20)
(0.011571 -0.0348989 -1.1673e-19)
(0.0114987 -0.0320848 -7.12246e-20)
(0.0108676 -0.0259623 2.40123e-20)
(0.00994587 -0.0171954 1.52694e-24)
(0.00891662 -0.0062796 -2.44065e-20)
(0.00790109 0.00640619 1.34535e-22)
(0.00697638 0.0205646 4.92081e-20)
(0.00618801 0.035954 4.922e-20)
(0.00556042 0.0523707 -4.91823e-20)
(0.00510409 0.0696366 4.92089e-20)
(0.0048211 0.0875897 -1.47445e-19)
(0.00470788 0.106079 1.46998e-19)
(0.00475744 0.124958 9.77192e-20)
(0.00496081 0.144089 2.43682e-19)
(0.00530759 0.163332 -4.85837e-20)
(0.00578684 0.182553 -9.66367e-20)
(0.00638734 0.20162 -1.40458e-22)
(0.00709777 0.220406 -9.61319e-20)
(0.00790693 0.238786 2.86423e-19)
(0.008804 0.256644 -1.90379e-19)
(0.00977884 0.273865 1.89003e-19)
(0.0108221 0.290344 -9.44029e-20)
(0.0119265 0.305976 1.87754e-19)
(0.0131008 0.32066 4.34419e-22)
(0.0143622 0.334292 -1.86069e-19)
(0.0155033 0.346717 1.84732e-19)
(0.0162809 0.357762 1.01575e-19)
(0.00401496 -0.011926 8.2414e-20)
(0.00870354 -0.026391 0)
(0.0107813 -0.0334907 2.06032e-19)
(0.0112048 -0.0351762 7.0043e-20)
(0.0105833 -0.0327604 0)
(0.00934714 -0.0271258 0)
(0.00779317 -0.0189115 0)
(0.00612164 -0.00859267 0)
(0.00446389 0.00346851 4.90424e-20)
(0.00290285 0.0169881 4.9126e-20)
(0.00148739 0.0317353 -9.84774e-20)
(0.000243953 0.0475154 9.84999e-20)
(-0.000815723 0.0641575 1.47536e-19)
(-0.00168845 0.081506 4.91882e-20)
(-0.00237663 0.0994153 4.89439e-20)
(-0.00288595 0.117746 -1.46501e-19)
(-0.00322398 0.136362 -1.94683e-19)
(-0.00339941 0.15513 -9.7023e-20)
(-0.00342143 0.173921 9.66383e-20)
(-0.00329938 0.192606 -1.92626e-19)
(-0.00304249 0.21106 9.55565e-20)
(-0.00265983 0.229164 -1.91005e-19)
(-0.00216035 0.246802 9.48495e-20)
(-0.00155259 0.263863 3.49982e-22)
(-0.000844794 0.28024 -9.37978e-20)
(-4.37444e-05 0.295829 -1.87656e-19)
(0.000858603 0.310531 1.86231e-19)
(0.00187788 0.324244 0)
(0.00279433 0.336817 1.14885e-22)
(0.00334154 0.348085 -2.02968e-19)
(0.00423415 -0.0117582 1.02916e-20)
(0.00897087 -0.0260779 0)
(0.0107452 -0.0332705 -9.15185e-20)
(0.0107129 -0.0352168 2.32991e-20)
(0.00954644 -0.0331962 -2.36581e-20)
(0.00772226 -0.0280565 0)
(0.00556327 -0.0204079 -2.41747e-20)
(0.0032845 -0.0107025 2.43415e-20)
(0.00102545 0.000715461 4.89335e-20)
(-0.00112655 0.0135766 -1.47166e-19)
(-0.00312041 0.0276615 -4.91772e-20)
(-0.00492854 0.0427845 -5.23628e-23)
(-0.0065386 0.0587821 -3.85999e-23)
(-0.00794688 0.0755051 -9.81219e-20)
(-0.00915506 0.0928135 -4.90284e-20)
(-0.010168 0.110573 0)
(-0.0109921 0.128652 -1.09382e-22)
(-0.0116349 0.146923 9.69364e-20)
(-0.0121043 0.165258 -9.6332e-20)
(-0.0124079 0.183535 0)
(-0.0125532 0.201632 0)
(-0.0125478 0.219433 0)
(-0.012399 0.236823 0)
(-0.0121142 0.253694 -1.28968e-22)
(-0.0117011 0.269941 0)
(-0.0111669 0.285461 0)
(-0.0105051 0.300157 9.28756e-20)
(-0.00970301 0.313933 9.23846e-20)
(-0.00899085 0.32664 9.22426e-20)
(-0.00866248 0.338127 1.371e-22)
(0.00441238 -0.0115096 1.02846e-20)
(0.00914261 -0.0255929 -2.23273e-20)
(0.0105824 -0.0328345 1.36993e-19)
(0.010085 -0.0350234 -2.32731e-20)
(0.00838127 -0.0333962 2.36272e-20)
(0.0059904 -0.0287586 7.99485e-25)
(0.00325793 -0.0216885 7.23658e-20)
(0.000411035 -0.0126126 -9.71912e-20)
(-0.00240457 -0.00185543 1.46557e-19)
(-0.00509861 0.0103289 4.76911e-23)
(-0.00761897 0.0237327 -4.90809e-20)
(-0.00993774 0.0381795 9.82201e-20)
(-0.0120426 0.0535134 -9.81651e-20)
(-0.0139298 0.0695914 9.80205e-20)
(-0.0156008 0.0862792 0)
(-0.0170599 0.103447 9.75205e-20)
(-0.0183129 0.120969 0)
(-0.0193663 0.13872 3.96125e-23)
(-0.0202269 0.156578 -9.64347e-20)
(-0.0209011 0.174423 -9.60191e-20)
(-0.0213951 0.192138 9.55851e-20)
(-0.0217149 0.209609 -9.51362e-20)
(-0.0218669 0.226726 -9.4675e-20)
(-0.0218577 0.243382 -1.88496e-19)
(-0.021695 0.259474 -9.37193e-20)
(-0.0213873 0.274901 9.35317e-20)
(-0.0209309 0.289572 -1.85413e-19)
(-0.0203167 0.303394 -9.2386e-20)
(-0.019784 0.316228 0)
(-0.0196586 0.327931 -1.01327e-19)
(0.00454292 -0.01118 0)
(0.00920692 -0.0249377 8.918e-20)
(0.0102819 -0.0321862 -6.85001e-20)
(0.00931282 -0.0346011 -1.16152e-19)
(0.00708379 -0.0333656 0)
(0.00415212 -0.0292374 0)
(0.000882254 -0.0227578 -1.44737e-19)
(-0.00248928 -0.0143261 1.94253e-19)
(-0.00581266 -0.0042457 -1.46449e-19)
(-0.00899619 0.00724507 0)
(-0.0119878 0.0199507 4.90799e-20)
(-0.0147602 0.0337042 -4.91579e-20)
(-0.0173015 0.048357 5.76799e-23)
(-0.0196085 0.0637726 -4.90941e-20)
(-0.0216828 0.0798218 -4.89271e-20)
(-0.0235286 0.0963798 -2.70596e-23)
(-0.0251511 0.113325 9.71739e-20)
(-0.0265564 0.130537 9.68295e-20)
(-0.0277504 0.147897 -1.68881e-22)
(-0.0287384 0.165289 1.91845e-19)
(-0.0295253 0.182599 -1.91364e-19)
(-0.0301163 0.199718 1.90047e-19)
(-0.030517 0.216537 9.46766e-20)
(-0.0307336 0.232954 9.42042e-20)
(-0.0307743 0.248867 7.18922e-23)
(-0.0306495 0.264182 0)
(-0.0303598 0.278808 9.28879e-20)
(-0.0299007 0.292665 -2.76565e-19)
(-0.0295186 0.305619 9.05754e-20)
(-0.0295761 0.31754 1.00652e-19)
(0.00461928 -0.0107702 -6.15846e-20)
(0.00915297 -0.0241158 -2.0054e-19)
(0.00983386 -0.0313314 9.89279e-24)
(0.00839036 -0.0339566 1.27342e-22)
(0.00565276 -0.0331113 -7.06319e-20)
(0.0022111 -0.0294988 0)
(-0.00155527 -0.0236203 -4.80938e-20)
(-0.00540348 -0.0158455 -2.9106e-19)
(-0.00918174 -0.00645585 1.46322e-19)
(-0.0127985 0.00432693 -9.78113e-20)
(-0.0162028 0.0163197 1.47069e-19)
(-0.0193686 0.029365 -4.90283e-20)
(-0.0222852 0.0433218 9.81109e-20)
(-0.0249504 0.0580597 -2.44955e-19)
(-0.0273662 0.0734549 1.46593e-19)
(-0.0295369 0.0893872 1.28019e-22)
(-0.0314678 0.105739 -2.91384e-19)
(-0.0331645 0.122394 9.69821e-20)
(-0.0346323 0.139237 -9.62557e-20)
(-0.0358757 0.156156 0)
(-0.0368985 0.173041 9.55785e-20)
(-0.0377051 0.189786 0)
(-0.0383006 0.206285 -9.48477e-20)
(-0.0386913 0.22244 9.39155e-20)
(-0.0388863 0.238154 9.36504e-20)
(-0.0388986 0.253336 9.30785e-20)
(-0.038734 0.267903 0)
(-0.038394 0.281782 0)
(-0.0381298 0.294855 -1.83342e-19)
(-0.0383461 0.306996 3.02504e-19)
(0.00463539 -0.0102822 6.16199e-20)
(0.00897119 -0.0231332 1.1136e-19)
(0.00923095 -0.0302779 -9.09769e-20)
(0.00731432 -0.0330985 1.85451e-19)
(0.0040899 -0.0326414 2.36635e-20)
(0.000174222 -0.0295493 2.38268e-20)
(-0.00404285 -0.0242803 1.38176e-22)
(-0.00831521 -0.0171729 -9.67941e-20)
(-0.0124913 -0.00848509 -4.86725e-20)
(-0.0164812 0.00157804 8.81505e-23)
(-0.0202361 0.0128461 -7.16584e-23)
(-0.0237321 0.0251712 -1.47113e-19)
(-0.0269601 0.0384199 -4.90478e-20)
(-0.0299192 0.0524678 2.3164e-23)
(-0.0326123 0.0671961 9.77409e-20)
(-0.0350443 0.0824892 9.7493e-20)
(-0.0372205 0.0982334 -1.56784e-23)
(-0.0391466 0.114316 -9.68486e-20)
(-0.0408273 0.130626 9.66309e-20)
(-0.0422661 0.147055 -9.58497e-20)
(-0.0434666 0.163496 -1.91194e-19)
(-0.0444322 0.179846 -9.53342e-20)
(-0.0451677 0.196006 1.89088e-19)
(-0.0456797 0.211878 0)
(-0.0459785 0.227373 -9.36133e-20)
(-0.0460804 0.242403 -1.8614e-19)
(-0.0459973 0.256894 -1.85417e-19)
(-0.0457375 0.270787 9.15149e-20)
(-0.0455552 0.283976 -2.74306e-19)
(-0.0459023 0.296341 1.00525e-19)
(0.00458576 -0.00971939 -1.02459e-19)
(0.00865355 -0.0219979 2.22544e-20)
(0.00846791 -0.0290359 9.09779e-20)
(0.00608411 -0.0320371 -6.95165e-20)
(0.00239998 -0.0319649 2.35642e-20)
(-0.00194842 -0.0293958 -6.85206e-24)
(-0.00656537 -0.0247421 2.4019e-19)
(-0.0112048 -0.0183092 9.68482e-20)
(-0.0157175 -0.0103312 9.73685e-20)
(-0.0200167 -0.000996048 1.46601e-19)
(-0.0240569 0.00953879 -1.46866e-19)
(-0.0278166 0.0211351 9.80401e-20)
(-0.0312893 0.0336668 1.96148e-19)
(-0.0344755 0.0470155 9.80268e-20)
(-0.0373795 0.0610674 1.324e-22)
(-0.0400069 0.0757111 -1.9486e-19)
(-0.0423637 0.0908366 1.94563e-19)
(-0.0444555 0.106335 1.46284e-22)
(-0.0462866 0.122098 -9.66755e-20)
(-0.0478603 0.138022 9.5894e-20)
(-0.0491793 0.154003 9.56157e-20)
(-0.0502467 0.169941 -9.52018e-20)
(-0.0510671 0.185741 -1.89544e-19)
(-0.0516471 0.201312 -4.17105e-22)
(-0.0519988 0.216567 9.33857e-20)
(-0.0521419 0.231427 9.3061e-20)
(-0.0520952 0.245827 1.85351e-19)
(-0.0518744 0.25972 -1.83313e-19)
(-0.0517352 0.273023 0)
(-0.0521814 0.285614 1.00914e-19)
(0.00446563 -0.00908605 8.81771e-23)
(0.00819379 -0.0207198 0)
(0.00754201 -0.0276173 -6.80319e-20)
(0.00470211 -0.0307843 -2.31234e-20)
(0.000590963 -0.031092 -9.37999e-20)
(-0.00414344 -0.0290459 0)
(-0.00910441 -0.0250097 -1.44007e-19)
(-0.0140491 -0.0192546 4.8322e-20)
(-0.018833 -0.0119906 0)
(-0.0233742 -0.00338749 -9.75545e-20)
(-0.0276308 0.00640967 0)
(-0.031585 0.0172724 -1.46977e-19)
(-0.0352327 0.0290821 1.46908e-19)
(-0.0385767 0.0417262 -9.79117e-20)
(-0.0416228 0.0550956 -9.77519e-20)
(-0.044378 0.0690832 0)
(-0.0468488 0.0835824 0)
(-0.0490411 0.0984875 9.70955e-20)
(-0.0509592 0.113694 3.68373e-22)
(-0.052606 0.129101 9.65643e-20)
(-0.0539841 0.144608 -9.5509e-20)
(-0.055096 0.16012 1.90642e-19)
(-0.0559461 0.175543 -9.45342e-20)
(-0.0565415 0.190793 0)
(-0.0568954 0.205789 2.81371e-19)
(-0.0570314 0.22046 -4.65453e-19)
(-0.0569754 0.23475 9.20757e-20)
(-0.056751 0.24863 9.18658e-20)
(-0.0566137 0.26204 9.11931e-20)
(-0.0571239 0.274858 2.02343e-19)
(0.00427113 -0.00838784 -8.1691e-20)
(0.00758774 -0.0193111 1.77226e-19)
(0.00645329 -0.0260363 9.07249e-20)
(0.00317379 -0.0293537 2.07578e-19)
(-0.00132594 -0.0300338 2.57672e-19)
(-0.00639409 -0.028507 4.74532e-20)
(-0.0116382 -0.0250863 -2.39397e-19)
(-0.0168221 -0.0200079 0)
(-0.0218077 -0.0134571 -1.94109e-19)
(-0.0265194 -0.00558576 -9.73752e-20)
(-0.0309204 0.00347371 0)
(-0.0349965 0.0136026 -9.78443e-20)
(-0.038747 0.0246895 1.10691e-22)
(-0.0421771 0.0366277 -2.93556e-19)
(-0.0452944 0.0493129 9.77539e-20)
(-0.0481074 0.0626417 9.77153e-20)
(-0.0506238 0.076511 -1.94281e-19)
(-0.05285 0.090818 -1.93957e-19)
(-0.0547905 0.105462 -3.77981e-22)
(-0.0564483 0.120344 -1.5551e-22)
(-0.0578257 0.135367 0)
(-0.0589252 0.150439 -9.55192e-20)
(-0.0597507 0.165471 -9.51096e-20)
(-0.0603096 0.180383 0)
(-0.0606166 0.195101 0)
(-0.0606982 0.209562 2.79773e-19)
(-0.0605879 0.223722 -2.77276e-19)
(-0.0603169 0.23757 0)
(-0.0601387 0.251076 2.73913e-19)
(-0.0606751 0.264114 -2.01407e-19)
(0.00399947 -0.00763151 1.94486e-22)
(0.00683352 -0.0177857 -1.77272e-19)
(0.00520471 -0.0243087 -2.26381e-20)
(0.00150787 -0.0277599 -2.30585e-19)
(-0.00333616 -0.0288021 -1.40515e-19)
(-0.0086803 -0.0277867 4.73816e-20)
(-0.0141416 -0.0249748 9.58131e-20)
(-0.0194938 -0.0205667 2.40908e-19)
(-0.0246078 -0.0147228 1.94113e-19)
(-0.0294151 -0.00757782 1.94936e-19)
(-0.0338848 0.000749232 0)
(-0.0380075 0.0101489 1.08512e-22)
(-0.0417857 0.0205172 0)
(-0.0452274 0.031753 1.95789e-19)
(-0.0483426 0.0437568 0)
(-0.0511416 0.0564288 -9.77551e-20)
(-0.0536335 0.069669 9.70698e-20)
(-0.0558256 0.0833779 0)
(-0.0577228 0.0974575 0)
(-0.0593286 0.111811 -2.89197e-19)
(-0.0606455 0.126345 9.56736e-20)
(-0.061676 0.140969 0)
(-0.0624239 0.155598 1.89422e-19)
(-0.0628967 0.170157 1.88647e-19)
(-0.0631099 0.184578 -3.7523e-19)
(-0.0630925 0.198807 3.7284e-19)
(-0.0628848 0.212812 3.06036e-22)
(-0.0625254 0.226604 1.83928e-19)
(-0.0622637 0.240186 -1.82426e-19)
(-0.0627867 0.253429 0)
(0.00364907 -0.00682497 2.0414e-19)
(0.00593177 -0.0161595 -2.21347e-20)
(0.00380238 -0.0224521 -1.80531e-19)
(-0.00028357 -0.026019 0)
(-0.00542171 -0.0274092 -1.86652e-19)
(-0.0109786 -0.0268927 0)
(-0.0165861 -0.0246771 -2.38691e-19)
(-0.0220314 -0.020927 -1.446e-19)
(-0.027196 -0.0157781 -1.93636e-19)
(-0.0320202 -0.00934754 0)
(-0.0364799 -0.00174172 4.88748e-20)
(-0.0405704 0.00693925 4.92246e-20)
(-0.0442984 0.0165985 -9.77591e-20)
(-0.0476748 0.0271409 -1.95733e-19)
(-0.0507123 0.0384713 -9.76089e-20)
(-0.0534234 0.0504935 -3.90479e-19)
(-0.0558187 0.0631107 1.94347e-19)
(-0.0579068 0.0762265 -3.90029e-22)
(-0.0596938 0.0897453 -4.01233e-22)
(-0.0611839 0.103573 2.88883e-19)
(-0.0623804 0.117617 0)
(-0.063286 0.13179 0)
(-0.0639047 0.14601 4.9933e-22)
(-0.0642444 0.160204 3.04903e-22)
(-0.0643205 0.174311 -1.87904e-19)
(-0.0641639 0.188285 -1.86962e-19)
(-0.0638204 0.202107 -4.46526e-22)
(-0.0633343 0.21581 -1.8393e-19)
(-0.0629486 0.229438 -1.82826e-19)
(-0.0634181 0.242858 -3.47551e-22)
(0.00321968 -0.0059771 0)
(0.00488585 -0.0144498 1.76279e-19)
(0.00225561 -0.0204854 1.57997e-19)
(-0.00218503 -0.0241481 2.29666e-20)
(-0.00756122 -0.0258681 3.72943e-19)
(-0.0132622 -0.0258322 -4.72231e-20)
(-0.01894 -0.0241943 3.81426e-19)
(-0.0243984 -0.0210833 1.92064e-19)
(-0.0295319 -0.0166104 2.90404e-19)
(-0.0342905 -0.0108757 1.45752e-19)
(-0.0386575 -0.00397323 4.88374e-20)
(-0.0426341 0.00400594 2.44656e-19)
(-0.0462308 0.0129722 3.02814e-22)
(-0.0494622 0.0228362 9.80376e-20)
(-0.0523439 0.0335071 1.95563e-19)
(-0.0548906 0.0448925 1.95249e-19)
(-0.0571151 0.0568987 0)
(-0.0590276 0.0694324 0)
(-0.0606358 0.0824001 0)
(-0.0619454 0.0957094 0)
(-0.0629609 0.10927 1.92204e-19)
(-0.0636862 0.122995 0)
(-0.0641259 0.136806 -3.10846e-22)
(-0.0642883 0.150629 3.77981e-19)
(-0.0641891 0.16441 1.87625e-19)
(-0.0638597 0.178107 1.86416e-19)
(-0.0633492 0.191715 3.71014e-19)
(-0.0627055 0.205287 0)
(-0.0621608 0.218916 -3.6579e-19)
(-0.0625385 0.232466 4.03681e-19)
(0.0027125 -0.00509766 1.62507e-19)
(0.00370187 -0.0126754 -1.76283e-19)
(0.000577037 -0.0184289 0)
(-0.00417759 -0.0221651 -1.83081e-19)
(-0.00972989 -0.0241921 -4.69328e-20)
(-0.0155009 -0.0246124 -1.4115e-19)
(-0.0211682 -0.0235267 -4.28412e-19)
(-0.0265552 -0.0210283 -4.11891e-22)
(-0.0315714 -0.0172049 -1.4481e-19)
(-0.0361778 -0.0121398 -3.3976e-19)
(-0.0403659 -0.00591532 -4.86592e-20)
(-0.044143 0.00138646 -1.9526e-19)
(-0.0475242 0.00968302 -1.95528e-19)
(-0.0505278 0.0188906 0)
(-0.0531725 0.0289228 -1.95523e-19)
(-0.0554758 0.0396908 -2.93145e-19)
(-0.0574527 0.0511047 9.72567e-20)
(-0.0591156 0.0630737 -1.94454e-19)
(-0.0604743 0.075507 -1.9386e-19)
(-0.0615367 0.0883138 0)
(-0.0623095 0.101405 -3.84564e-19)
(-0.0627985 0.114695 0)
(-0.0630104 0.128104 -3.81114e-19)
(-0.0629547 0.141561 -1.89725e-19)
(-0.0626475 0.155009 -3.76369e-19)
(-0.0621202 0.168413 1.87328e-19)
(-0.0614232 0.181773 -5.56695e-19)
(-0.0606031 0.195166 1.84421e-19)
(-0.0598751 0.208732 -1.78312e-22)
(-0.0601276 0.222342 -2.02517e-19)
(0.00213024 -0.0041971 -1.6251e-19)
(0.00238886 -0.0108562 2.19515e-20)
(-0.00121742 -0.0163038 1.56894e-19)
(-0.00623893 -0.0200886 1.83085e-19)
(-0.0118996 -0.0223946 -1.85898e-19)
(-0.0176612 -0.0232404 4.16721e-22)
(-0.0232322 -0.0226737 1.90212e-19)
(-0.0284587 -0.0207537 -3.83245e-19)
(-0.033267 -0.0175448 -4.79588e-20)
(-0.0376303 -0.0131145 4.36253e-19)
(-0.0415492 -0.00753399 -2.92021e-19)
(-0.0450374 -0.000876679 4.87757e-19)
(-0.0481151 0.00678178 4.88817e-19)
(-0.0508045 0.015363 -9.76009e-20)
(-0.0531278 0.0247851 1.95527e-19)
(-0.0551053 0.034963 2.93157e-19)
(-0.0567548 0.0458105 9.76874e-20)
(-0.058091 0.0572401 -4.79151e-23)
(-0.0591265 0.0691634 9.66869e-20)
(-0.0598721 0.0814916 9.63897e-20)
(-0.0603378 0.0941367 -9.65452e-20)
(-0.0605327 0.107014 9.55541e-20)
(-0.0604671 0.120042 -1.90615e-19)
(-0.0601539 0.133148 1.89415e-19)
(-0.0596113 0.146273 -1.38554e-22)
(-0.0588711 0.159378 1.87194e-19)
(-0.0579834 0.172465 -1.40038e-22)
(-0.056988 0.185624 -1.84174e-19)
(-0.0560705 0.199045 2.21682e-22)
(-0.0561728 0.212611 0)
(0.0014771 -0.00328636 0)
(0.000958701 -0.0090128 0)
(-0.00310856 -0.0141322 -2.01743e-19)
(-0.00834343 -0.0179381 2.28109e-20)
(-0.014039 -0.0204898 0)
(-0.0197066 -0.0217231 1.87846e-19)
(-0.0250905 -0.0216345 4.74443e-20)
(-0.0300626 -0.0202497 1.43672e-19)
(-0.0345679 -0.0176112 1.92751e-19)
(-0.0385927 -0.0137716 -1.93775e-19)
(-0.0421475 -0.00879148 1.94539e-19)
(-0.0452531 -0.0027361 -1.95065e-19)
(-0.047935 0.00432538 -1.95378e-19)
(-0.0502197 0.0123197 0)
(-0.0521331 0.0211692 0)
(-0.0536987 0.0307931 0)
(-0.0549368 0.041109 -1.94956e-19)
(-0.0558653 0.0520329 2.91996e-19)
(-0.0564997 0.0634794 -9.67572e-20)
(-0.0568546 0.0753621 0)
(-0.056944 0.087595 2.88959e-19)
(-0.0567822 0.100094 -9.56052e-20)
(-0.0563854 0.112776 1.90617e-19)
(-0.0557728 0.125566 -3.79645e-19)
(-0.0549685 0.138398 3.7649e-19)
(-0.0540082 0.151224 4.15425e-22)
(-0.0529424 0.164031 2.96477e-22)
(-0.0517986 0.176908 1.84273e-19)
(-0.0507125 0.190083 -5.70167e-22)
(-0.0506482 0.203455 2.02009e-19)
(0.000758873 -0.00237679 2.01526e-20)
(-0.000573862 -0.00716638 -2.18957e-20)
(-0.00507402 -0.0119366 4.46505e-20)
(-0.0104623 -0.0157331 -2.72673e-19)
(-0.0161137 -0.0184916 4.61905e-20)
(-0.0215976 -0.0200675 0)
(-0.0266988 -0.0204076 1.88933e-19)
(-0.0313179 -0.0195058 -1.90611e-19)
(-0.03542 -0.0173839 0)
(-0.0390061 -0.0140806 2.41484e-19)
(-0.0420971 -0.00964678 -4.84464e-20)
(-0.0447215 -0.00414008 0)
(-0.0469105 0.00237625 -9.77396e-20)
(-0.0486954 0.00983368 1.95278e-19)
(-0.0501058 0.0181588 -9.74314e-20)
(-0.0511684 0.0272751 9.78141e-20)
(-0.0519067 0.0371041 -1.94905e-19)
(-0.0523413 0.0475658 -4.67529e-22)
(-0.0524912 0.0585784 -4.65456e-22)
(-0.0523751 0.0700589 -9.68762e-20)
(-0.0520118 0.0819247 -1.93008e-19)
(-0.051422 0.0940932 -8.67589e-22)
(-0.0506301 0.106483 -4.1498e-22)
(-0.0496658 0.119016 1.8964e-19)
(-0.0485651 0.131617 -1.88896e-19)
(-0.0473744 0.144223 1.8731e-19)
(-0.0461519 0.156792 -3.72029e-19)
(-0.0449143 0.169375 -3.20097e-22)
(-0.0437182 0.182197 -3.66983e-19)
(-0.0434685 0.195175 2.01965e-19)
(-1.70032e-05 -0.00148006 0)
(-0.00219107 -0.00533869 -1.74016e-19)
(-0.00708826 -0.00974014 0)
(-0.0125639 -0.0134938 5.44293e-22)
(-0.0180867 -0.0164147 4.60839e-20)
(-0.0232921 -0.0182809 5.32809e-23)
(-0.0280103 -0.0189918 -3.77291e-19)
(-0.0321727 -0.0185113 1.43068e-19)
(-0.0357667 -0.0168419 0)
(-0.0388089 -0.0140097 -2.41397e-19)
(-0.0413312 -0.0100567 4.83551e-20)
(-0.0433704 -0.00503368 0)
(-0.0449642 0.00100129 -9.76188e-20)
(-0.0461487 0.00798394 9.73096e-20)
(-0.0469576 0.0158449 9.72037e-20)
(-0.0474209 0.0245117 1.95031e-19)
(-0.0475651 0.0339101 -9.7158e-20)
(-0.0474137 0.0439641 0)
(-0.0469891 0.0545964 0)
(-0.0463135 0.0657289 1.9331e-19)
(-0.0454107 0.0772837 -1.92984e-19)
(-0.0443081 0.0891834 1.91232e-19)
(-0.0430395 0.101351 1.90717e-19)
(-0.0416481 0.113711 1.90026e-19)
(-0.040188 0.126186 -1.88097e-19)
(-0.0387287 0.1387 1.87277e-19)
(-0.0373555 0.151173 1.86318e-19)
(-0.036104 0.163589 -1.84295e-19)
(-0.0349615 0.176116 -3.47688e-22)
(-0.0345933 0.188606 4.04345e-19)
(-0.000842207 -0.000607171 2.00371e-20)
(-0.00387319 -0.00355059 1.52297e-19)
(-0.00912343 -0.0075651 0)
(-0.0146139 -0.0112399 1.81187e-19)
(-0.0199186 -0.0142733 0)
(-0.0247461 -0.0163703 0)
(-0.028976 -0.0173857 1.41363e-19)
(-0.0325735 -0.0172553 -1.18001e-22)
(-0.0355495 -0.015964 4.77672e-20)
(-0.0379372 -0.0135265 4.82093e-20)
(-0.0397806 -0.00997695 -1.45141e-19)
(-0.0411253 -0.00536019 9.68288e-20)
(-0.0420157 0.00027006 0)
(-0.0424935 0.00685318 0)
(-0.0425966 0.0143234 -1.95004e-19)
(-0.0423583 0.022612 0)
(-0.0418079 0.0316488 -9.75588e-20)