/*--------------------------------*- C++ -*----------------------------------*\
  =========                 |
  \\      /  F ield         | OpenFOAM: The Open Source CFD Toolbox
   \\    /   O peration     | Website:  https://openfoam.org
    \\  /    A nd           | Version:  7
     \\/     M anipulation  |
\*---------------------------------------------------------------------------*/
FoamFile
{
    version     2.0;
    format      ascii;
    class       volVectorField;
    location    "20.3";
    object      U;
}
// * * * * * * * * * * * * * * * * * * * * * * * * * * * * * * * * * * * * * //

dimensions      [0 1 -1 0 0 0 0];

internalField   nonuniform List<vector> 
2000
(
(0.00503849 0.019184 3.36852e-22)
(0.029691 0.0843967 0)
(0.0716979 0.157318 0)
(0.112956 0.226224 4.90199e-22)
(0.146905 0.284177 2.07379e-22)
(0.170777 0.328818 2.7365e-22)
(0.18482 0.360897 -3.76138e-22)
(0.19089 0.382599 0)
(0.191188 0.396461 0)
(0.188622 0.404606 0)
(0.0031267 0.011698 0)
(0.0203429 0.0649646 6.90704e-22)
(0.0542223 0.130138 -6.36784e-22)
(0.0907743 0.196602 -5.61815e-22)
(0.124127 0.257108 0)
(0.150444 0.307572 5.94385e-22)
(0.168369 0.346778 -5.52714e-22)
(0.178424 0.375383 0)
(0.181909 0.395045 3.51351e-21)
(0.18155 0.407696 -7.38564e-21)
(0.00224071 0.00552297 0)
(0.0137216 0.0473386 -5.46612e-21)
(0.0397987 0.103352 0)
(0.0703614 0.164578 -2.11637e-21)
(0.10096 0.22459 0)
(0.127723 0.278678 -6.03304e-22)
(0.14833 0.32418 0)
(0.1621 0.360172 4.38873e-21)
(0.169214 0.386994 -4.11042e-21)
(0.171761 0.405985 -5.3716e-21)
(0.00207876 0.000669049 1.63512e-21)
(0.00940996 0.0320402 2.784e-21)
(0.0285952 0.0783029 1.04091e-21)
(0.0527722 0.132148 1.38014e-21)
(0.0790154 0.188537 6.80094e-22)
(0.104124 0.243146 1.20855e-22)
(0.125572 0.292737 4.48622e-22)
(0.141933 0.335262 -1.10253e-21)
(0.152425 0.369692 3.00707e-21)
(0.158031 0.396499 5.36318e-21)
(0.00234434 -0.00291023 1.65858e-21)
(0.00685325 0.0193291 2.0442e-21)
(0.0203509 0.0559628 2.54842e-21)
(0.0385273 0.101178 -1.23768e-21)
(0.0596858 0.151373 0)
(0.0815268 0.203189 0)
(0.101872 0.253651 -1.30453e-21)
(0.119087 0.300341 -2.18582e-21)
(0.131958 0.341324 1.97548e-21)
(0.139707 0.375967 1.04182e-20)
(0.00276318 -0.00531594 -1.28204e-21)
(0.00545483 0.00922696 -6.42962e-22)
(0.0145101 0.0368609 4.33484e-21)
(0.0275655 0.0730684 -4.38728e-21)
(0.0437494 0.115433 6.76933e-22)
(0.0615545 0.161677 0)
(0.0793646 0.20958 0)
(0.0956952 0.257021 5.13542e-21)
(0.109643 0.302021 -7.89503e-21)
(0.117571 0.34228 2.99963e-21)
(0.00309895 -0.00668011 -9.46637e-21)
(0.00466003 0.00159445 0)
(0.0104005 0.0211547 -5.71027e-21)
(0.0194012 0.0486414 3.65488e-21)
(0.0312783 0.0824997 0)
(0.0450923 0.121359 -1.75884e-22)
(0.0597544 0.163848 2.50221e-22)
(0.0741094 0.208479 -2.49764e-21)
(0.0881392 0.254159 1.08426e-21)
(0.0941005 0.295608 2.73668e-21)
(0.00317063 -0.00715141 1.77967e-20)
(0.00402994 -0.00379409 1.58213e-21)
(0.00741262 0.00876993 2.45819e-21)
(0.0134004 0.0282596 4.44579e-21)
(0.0218674 0.0536966 7.94926e-22)
(0.0322458 0.0843478 3.44698e-22)
(0.0438648 0.119522 3.09371e-22)
(0.0560566 0.158434 0)
(0.0697097 0.201367 0)
(0.0727081 0.239375 -1.82905e-21)
(0.00285917 -0.00687464 -8.33043e-21)
(0.00331057 -0.00721035 6.37941e-21)
(0.00514434 -0.000456413 -3.96061e-21)
(0.00905796 0.0120591 -5.82597e-21)
(0.0150174 0.0297079 1.31066e-21)
(0.0226924 0.0521225 -3.163e-22)
(0.0317597 0.0790073 -7.69153e-25)
(0.0422287 0.110193 0)
(0.0556103 0.146987 0)
(0.0569463 0.176754 4.46503e-22)
(0.00212922 -0.00602793 8.87245e-22)
(0.00244331 -0.00892472 -7.80415e-21)
(0.00349131 -0.00666913 1.3127e-21)
(0.00618755 0.000164113 0)
(0.0104745 0.0111222 0)
(0.0161288 0.0259556 -1.1907e-21)
(0.0230624 0.0444525 0)
(0.0319257 0.0666035 2.69156e-22)
(0.044933 0.0930634 1.31263e-21)
(0.0508004 0.110386 -1.48155e-21)
(0.172561 0.412936 5.59601e-22)
(0.141467 0.405285 -5.69851e-22)
(0.112901 0.393723 -8.0652e-22)
(0.0886662 0.382996 -9.19793e-22)
(0.0643244 0.372791 -1.04118e-21)
(0.0443854 0.366958 2.12503e-24)
(0.0218245 0.38063 5.19594e-22)
(0.0104477 0.451144 1.61597e-21)
(-0.00540548 0.608801 0)
(0.0042645 0.80306 -1.0911e-21)
(0.169475 0.420827 1.23022e-21)
(0.138346 0.413493 -2.81038e-21)
(0.109826 0.401381 5.17111e-21)
(0.0858586 0.39049 9.21431e-22)
(0.0616574 0.379794 1.91063e-21)
(0.0416305 0.373265 3.05819e-21)
(0.0190282 0.385942 -1.06146e-21)
(0.00761252 0.454251 -1.0679e-21)
(-0.00715692 0.609365 2.01611e-21)
(0.00344424 0.802254 1.08851e-21)
(0.165793 0.427704 0)
(0.135399 0.421675 -2.22847e-21)
(0.107183 0.409316 -1.53656e-21)
(0.0834441 0.398189 0)
(0.0592508 0.38686 -5.7393e-21)
(0.0390754 0.379531 1.84081e-21)
(0.0162889 0.390882 1.90764e-21)
(0.00462841 0.456514 5.89363e-21)
(-0.00914908 0.608995 -2.00958e-21)
(0.00262688 0.800698 3.96527e-21)
(0.160772 0.432137 0)
(0.132318 0.42889 2.24807e-21)
(0.104855 0.417042 0)
(0.0813498 0.405827 6.82854e-21)
(0.0570958 0.393892 -6.86229e-21)
(0.0367528 0.385778 -3.77814e-21)
(0.013658 0.395518 -8.84792e-23)
(0.00155658 0.45805 -5.72443e-21)
(-0.011372 0.607675 -9.45078e-22)
(0.00182477 0.798531 -4.89153e-21)
(0.153469 0.432398 3.35801e-21)
(0.128875 0.43552 -3.11471e-21)
(0.102945 0.425346 1.10162e-21)
(0.079611 0.413752 -5.77008e-21)
(0.0551958 0.40101 0)
(0.0346442 0.392048 -3.6254e-21)
(0.0111132 0.399926 4.99352e-24)
(-0.00164654 0.458995 7.34584e-21)
(-0.013903 0.605478 9.02743e-22)
(0.000940175 0.7955 -9.06033e-22)
(0.143383 0.425556 -6.58203e-21)
(0.124498 0.438763 6.97618e-21)
(0.101038 0.43244 5.44281e-21)
(0.078054 0.421104 -5.43703e-21)
(0.0535851 0.407962 -3.20876e-21)
(0.0328725 0.398327 0)
(0.00883015 0.404218 -6.89784e-21)
(-0.00478353 0.459451 3.43639e-21)
(-0.0166283 0.602304 3.43096e-21)
(7.9117e-05 0.791931 3.42037e-21)
(0.130296 0.411115 -3.92303e-22)
(0.119498 0.44184 0)
(0.0995025 0.440891 0)
(0.0767294 0.429028 0)
(0.0521307 0.415108 -3.27147e-21)
(0.031185 0.404613 6.46861e-21)
(0.0065374 0.408403 6.74855e-21)
(-0.00814096 0.459631 -9.93796e-21)
(-0.0197967 0.598522 1.64103e-21)
(-0.000981832 0.787372 -5.01297e-21)
(0.115024 0.383775 8.73131e-22)
(0.112631 0.436528 7.35379e-21)
(0.0972024 0.445171 -7.27984e-21)
(0.075503 0.435275 1.14156e-20)
(0.0512368 0.421857 -1.4249e-20)
(0.0302252 0.410986 0)
(0.00498988 0.412718 -3.15314e-21)
(-0.0109467 0.459491 1.20896e-22)
(-0.0229096 0.59365 -3.03268e-21)
(-0.00199023 0.782402 -3.10409e-21)
(0.0987492 0.354291 -1.388e-23)
(0.106494 0.436792 0)
(0.0952388 0.453094 -9.9901e-21)
(0.0740094 0.443145 1.9849e-20)
(0.0497895 0.428988 -7.79373e-21)
(0.028485 0.417079 -1.50684e-21)
(0.0026149 0.416815 3.14642e-21)
(-0.014603 0.459617 7.78366e-23)
(-0.0268687 0.58896 4.46664e-21)
(-0.00329489 0.776297 4.53367e-21)
(0.0812191 0.29678 -2.44396e-21)
(0.0961627 0.415823 2.36486e-21)
(0.091688 0.450657 8.99385e-22)
(0.0734977 0.447563 0)
(0.0503952 0.435555 0)
(0.0293745 0.423901 1.45642e-21)
(0.00302487 0.421593 5.71591e-21)
(-0.0159752 0.45902 -5.59351e-21)
(-0.0298616 0.582325 -1.35805e-21)
(-0.00464358 0.770008 1.30831e-21)
(0.0497941 0.254057 0)
(0.0807656 0.417601 0)
(0.0799244 0.467651 0)
(0.0632155 0.467583 0)
(0.0402177 0.452202 0)
(0.0179268 0.43653 0)
(-0.00927288 0.430847 0)
(-0.0292148 0.462463 0)
(-0.0424535 0.571945 0)
(-0.00804019 0.751887 0)
(0.0273611 0.239079 0)
(0.0529354 0.40779 0)
(0.0520203 0.469118 0)
(0.0431002 0.480532 0)
(0.0288916 0.474931 0)
(0.0125741 0.466504 0)
(-0.01177 0.464259 0)
(-0.0337425 0.4902 0)
(-0.0508197 0.575501 0)
(-0.0163271 0.73088 0)
(0.0154566 0.244173 0)
(0.0334663 0.407595 0)
(0.0325168 0.477453 0)
(0.0257086 0.492897 0)
(0.0114775 0.487723 0)
(-0.00574027 0.478914 0)
(-0.0277826 0.475562 0)
(-0.0458387 0.494573 0)
(-0.0585931 0.556461 0)
(-0.0253071 0.675915 0)
(-0.000209931 0.247477 0)
(0.0111099 0.391588 0)
(0.010614 0.465376 0)
(0.0148834 0.495129 0)
(0.0108315 0.504369 0)
(0.000703234 0.506235 0)
(-0.0170582 0.507756 0)
(-0.0337727 0.52218 0)
(-0.047287 0.563545 0)
(-0.0246099 0.644158 0)
(-0.0080339 0.270117 0)
(0.00429923 0.399806 0)
(0.000644096 0.47121 0)
(-0.00182132 0.495051 0)
(-0.00907365 0.501414 0)
(-0.0158684 0.504523 0)
(-0.0262446 0.50869 0)
(-0.0343767 0.520903 0)
(-0.0403204 0.548163 0)
(-0.0209941 0.597979 0)
(-0.0169933 0.271616 0)
(-0.0107644 0.377607 0)
(0.00223055 0.46465 0)
(0.00957737 0.501852 0)
(0.00827217 0.51665 0)
(0.00456992 0.523397 0)
(-0.00402439 0.528613 0)
(-0.0120269 0.538465 0)
(-0.0197417 0.556719 0)
(-0.0116778 0.586385 0)
(-0.00231166 0.315671 0)
(-0.0150574 0.386691 0)
(-0.00958058 0.460201 0)
(-0.00865208 0.492323 0)
(-0.0112631 0.505431 0)
(-0.0112157 0.514255 0)
(-0.0127388 0.522571 0)
(-0.012798 0.532829 0)
(-0.014043 0.5462 0)
(-0.00701767 0.563813 0)
(0.0130906 0.321153 0)
(-0.00550728 0.375392 0)
(0.0100531 0.456249 0)
(0.0222515 0.504174 0)
(0.021031 0.521736 0)
(0.015874 0.528083 0)
(0.00814174 0.533761 0)
(0.00304875 0.54248 0)
(-0.00223778 0.554061 0)
(-0.00168208 0.567253 0)
(0.0499789 0.382243 0)
(-0.00105938 0.394393 0)
(-0.0185663 0.433205 0)
(-0.00871987 0.478793 0)
(0.00026293 0.508294 0)
(0.00546184 0.523917 0)
(0.00379441 0.532773 0)
(0.00175675 0.540759 0)
(-0.00233749 0.549253 0)
(-0.00136692 0.557913 0)
(0.0888877 0.387412 0)
(0.0672641 0.43925 0)
(0.0396679 0.468406 0)
(0.0266522 0.492677 0)
(0.0209813 0.512115 0)
(0.0195238 0.527217 0)
(0.0155316 0.5391 0)
(0.011782 0.54964 0)
(0.00550775 0.558244 0)
(0.00189984 0.564321 0)
(0.0331761 0.0879065 7.85256e-22)
(0.0344403 0.124497 -7.72586e-22)
(0.0323828 0.169789 8.32362e-23)
(0.0206385 0.203046 0)
(0.0131606 0.241598 0)
(0.00922909 0.261891 8.58263e-23)
(0.0221581 0.306153 -6.41869e-22)
(0.037119 0.313016 6.28881e-22)
(0.0632002 0.352372 1.2671e-22)
(0.077752 0.313234 -1.22295e-22)
(0.0452348 0.0497829 -4.21024e-22)
(0.0481735 0.101472 0)
(0.0429242 0.156852 3.72343e-22)
(0.0294742 0.197118 -7.54235e-22)
(0.0205305 0.237941 3.49624e-22)
(0.0175516 0.262017 -8.35458e-23)
(0.0293176 0.301466 2.15743e-22)
(0.0426094 0.304313 6.09297e-22)
(0.062184 0.32942 1.17445e-22)
(0.0711347 0.27784 -9.49318e-24)
(0.0605847 0.0449108 5.12184e-22)
(0.0641564 0.105999 -6.84407e-22)
(0.0544257 0.16261 6.77797e-22)
(0.038608 0.20297 -3.08006e-23)
(0.0281425 0.240741 -1.45081e-23)
(0.0253036 0.263342 0)
(0.0345609 0.293526 -2.16246e-22)
(0.0448995 0.288552 -4.35462e-23)
(0.0579196 0.298401 -3.28285e-22)
(0.0631642 0.239266 -1.02901e-22)
(0.0789128 0.0646496 -1.89729e-22)
(0.0802592 0.128168 0)
(0.0653513 0.179435 0)
(0.0469866 0.214489 0)
(0.0349679 0.244897 -2.03213e-22)
(0.0314116 0.261383 7.5245e-23)
(0.0372285 0.2794 -7.32499e-23)
(0.0438903 0.264869 -2.67107e-22)
(0.0509934 0.261097 -9.15567e-23)
(0.0542509 0.198773 2.28595e-23)
(0.100167 0.0980428 5.3736e-22)
(0.0950594 0.156294 -4.71918e-22)
(0.0743291 0.197789 2.94434e-22)
(0.053264 0.224001 -2.94201e-22)
(0.0395884 0.244432 1.26939e-22)
(0.0346141 0.25195 0)
(0.0366339 0.257056 -1.05922e-22)
(0.0395572 0.233472 4.23401e-22)
(0.0420363 0.219269 -2.21754e-22)
(0.0449637 0.157728 6.85744e-23)
(0.121733 0.133535 1.62281e-22)
(0.106782 0.180106 3.29499e-22)
(0.0803241 0.209291 2.72227e-22)
(0.0567122 0.225048 -5.74618e-22)
(0.0413759 0.234755 0)
(0.0345501 0.232624 0)
(0.0328824 0.226102 0)
(0.0325497 0.195655 1.12417e-22)
(0.0320314 0.174923 0)
(0.03587 0.117542 0)
(0.140254 0.161865 0)
(0.114214 0.192793 -9.64307e-22)
(0.0828898 0.208713 6.40346e-22)
(0.0572321 0.214087 8.56647e-22)
(0.0403631 0.2139 -8.6102e-22)
(0.0315187 0.20323 -1.39455e-22)
(0.0266255 0.187737 2.35882e-22)
(0.0238725 0.153528 -2.79053e-22)
(0.0219725 0.130202 4.39754e-23)
(0.0274475 0.0795233 -9.8025e-25)
(0.152817 0.177013 0)
(0.116946 0.191183 3.24368e-22)
(0.0821886 0.194362 3.2686e-22)
(0.0551754 0.190687 0)
(0.0369914 0.182471 -1.3236e-22)
(0.0261955 0.165439 5.77874e-22)
(0.0187828 0.144254 -8.59616e-23)
(0.0146156 0.10959 8.25071e-23)
(0.0127061 0.0871177 -8.00715e-23)
(0.0200889 0.0447295 3.18588e-23)
(0.158153 0.176259 -2.97383e-22)
(0.115329 0.175167 -6.66721e-22)
(0.0788571 0.167383 1.48576e-22)
(0.051163 0.156751 -1.93033e-22)
(0.0319296 0.142827 -2.68102e-22)
(0.019454 0.122001 -2.77356e-22)
(0.0103623 0.0984345 4.54088e-23)
(0.00579498 0.0663109 3.53418e-24)
(0.00481485 0.0473001 8.03333e-23)
(0.0140654 0.0138575 2.90006e-24)
(0.156864 0.160155 1.60599e-22)
(0.110274 0.147029 -1.63353e-22)
(0.0737642 0.130734 1.97677e-22)
(0.0459124 0.115449 1.92736e-22)
(0.0259282 0.0981304 -1.37299e-22)
(0.012221 0.0760201 2.41863e-22)
(0.00230682 0.053042 -6.03634e-23)
(-0.00176813 0.0258094 1.15367e-23)
(-0.00149167 0.0118017 0)
(0.00905213 -0.0128226 -2.89532e-24)
(0.150643 0.131832 -1.89221e-22)
(0.102932 0.110445 1.92248e-22)
(0.067743 0.0881223 2.4317e-22)
(0.0401116 0.0702942 2.29602e-22)
(0.0196988 0.0516274 1.50634e-22)
(0.00529272 0.0304453 -2.47233e-23)
(-0.00464475 0.0104471 -4.64265e-23)
(-0.0075589 -0.0103601 -3.98438e-23)
(-0.00588966 -0.0189066 0)
(0.00586867 -0.0355303 -3.32306e-24)
(0.14134 0.0955203 0)
(0.0944789 0.0693534 9.83915e-22)
(0.0614153 0.0431726 -1.74073e-21)
(0.0343423 0.0245187 -2.29937e-22)
(0.013851 0.00621299 -3.84577e-22)
(-0.000749533 -0.0122616 -3.96168e-22)
(-0.00996937 -0.0276452 6.59759e-23)
(-0.0114338 -0.0414559 2.00695e-23)
(-0.00829561 -0.044851 1.97371e-23)
(0.00353867 -0.0549575 3.31413e-24)
(0.130329 0.055198 0)
(0.0859788 0.0272037 1.00712e-21)
(0.0551582 -0.0010376 5.07154e-22)
(0.029023 -0.0192644 0)
(0.00881825 -0.035822 1.0483e-21)
(-0.0053078 -0.050376 -3.98784e-22)
(-0.013396 -0.0603285 -2.08337e-22)
(-0.0135055 -0.0674333 -2.31862e-22)
(-0.00919695 -0.066558 -1.96726e-23)
(0.00199742 -0.0718682 9.11466e-24)
(0.118541 0.0141058 0)
(0.077932 -0.0133281 -1.01542e-21)
(0.0494088 -0.0421671 0)
(0.0244888 -0.059185 -1.75248e-21)
(0.00495517 -0.0729789 1.76163e-21)
(-0.00811315 -0.0829782 4.39539e-22)
(-0.0149893 -0.087417 -1.28787e-22)
(-0.0140396 -0.0888307 2.35559e-22)
(-0.00907657 -0.0848858 3.43127e-23)
(0.0010865 -0.0869844 -1.03777e-23)
(0.106874 -0.0251689 -5.26908e-21)
(0.0706099 -0.0504027 2.18211e-21)
(0.0445296 -0.0786645 2.76411e-23)
(0.0209974 -0.0940693 1.95601e-21)
(0.00246461 -0.10448 0)
(-0.00933627 -0.109921 4.45957e-22)
(-0.0150437 -0.10943 -2.06535e-22)
(-0.0134457 -0.106561 -3.83527e-22)
(-0.00834083 -0.100775 -1.72892e-24)
(0.000589494 -0.100921 1.72865e-24)
(0.0959527 -0.0607999 1.17163e-21)
(0.0642887 -0.0831356 -3.89041e-21)
(0.0405297 -0.10969 -1.88657e-21)
(0.0186287 -0.123497 1.8856e-21)
(0.0013403 -0.130266 7.55483e-22)
(-0.00919893 -0.131712 0)
(-0.0139631 -0.127316 5.89197e-22)
(-0.012158 -0.121661 -3.19334e-22)
(-0.00730889 -0.115069 -9.69212e-23)
(0.000335909 -0.114154 -5.41846e-24)
(0.0862003 -0.0915091 3.86328e-22)
(0.0592012 -0.111477 0)
(0.0374257 -0.135002 0)
(0.0173095 -0.14768 0)
(0.00143017 -0.150857 5.36702e-22)
(-0.00805812 -0.149282 -1.29094e-21)
(-0.012176 -0.142195 -5.94706e-22)
(-0.0105451 -0.135088 5.95357e-22)
(-0.00620034 -0.12843 -1.3488e-23)
(0.000218151 -0.127027 1.87419e-23)
(0.0776808 -0.116572 2.94249e-22)
(0.0553373 -0.135986 -3.27946e-21)
(0.035264 -0.154864 3.24915e-21)
(0.0168762 -0.16727 -3.14515e-21)
(0.0024427 -0.167145 3.82298e-21)
(-0.00632315 -0.163729 0)
(-0.0100565 -0.155126 3.40197e-22)
(-0.00886457 -0.147597 7.49547e-24)
(-0.00513939 -0.141314 6.27006e-23)
(0.000177475 -0.139767 1.39034e-23)
(0.0697 -0.135585 2.74088e-22)
(0.0521432 -0.157631 0)
(0.0339264 -0.169979 3.61029e-21)
(0.0171504 -0.183132 -6.19212e-21)
(0.00411429 -0.180155 2.25625e-21)
(-0.00431654 -0.1761 2.57652e-22)
(-0.00782338 -0.166962 -3.39422e-22)
(-0.00723317 -0.159707 -5.41991e-23)
(-0.0041663 -0.15401 -1.65414e-22)
(0.000188499 -0.15252 -3.41086e-23)
(0.0629776 -0.148012 1.39039e-21)
(0.0486475 -0.177556 -1.35308e-21)
(0.0327846 -0.181537 -4.01139e-22)
(0.0173612 -0.196243 0)
(0.0061265 -0.190864 0)
(-0.00215258 -0.187232 -2.64849e-22)
(-0.00561071 -0.178283 -5.3986e-22)
(-0.00571492 -0.171718 5.29994e-22)
(-0.00326786 -0.166675 2.39557e-23)
(0.000229554 -0.165377 -2.34507e-23)
(0.0646693 -0.160006 0)
(0.0431131 -0.220463 0)
(0.0302495 -0.203554 0)
(0.0153629 -0.222942 0)
(0.00876815 -0.213134 0)
(0.000726152 -0.212307 0)
(-0.00192436 -0.204988 0)
(-0.00304897 -0.200833 0)
(-0.0014171 -0.197201 0)
(0.000288357 -0.1963 0)
(0.0405067 -0.234176 0)
(0.0314333 -0.270072 0)
(0.0261151 -0.253368 0)
(0.0135286 -0.268091 0)
(0.0131983 -0.257406 0)
(0.0039695 -0.261777 0)
(0.00348703 -0.254652 0)
(0.00013366 -0.254668 0)
(0.000913427 -0.251159 0)
(0.000167924 -0.251476 0)
(0.0389576 -0.28211 0)
(0.0273601 -0.315529 0)
(0.0230343 -0.301451 0)
(0.0144795 -0.314276 0)
(0.0129506 -0.306057 0)
(0.00574083 -0.312012 0)
(0.00550734 -0.305942 0)
(0.00128751 -0.308507 0)
(0.00217773 -0.30434 0)
(-0.000133453 -0.306093 0)
(0.03152 -0.338829 0)
(0.023581 -0.369734 0)
(0.0211378 -0.352015 0)
(0.0135176 -0.368581 0)
(0.0118389 -0.358864 0)
(0.00663931 -0.367764 0)
(0.00564497 -0.361364 0)
(0.00247859 -0.365265 0)
(0.00235206 -0.360748 0)
(-0.000342412 -0.363381 0)
(0.0274494 -0.400614 0)
(0.0206705 -0.43206 0)
(0.0174491 -0.413768 0)
(0.0122222 -0.432389 0)
(0.0103924 -0.420938 0)
(0.00640968 -0.432734 0)
(0.00540774 -0.424145 0)
(0.00295112 -0.430406 0)
(0.00223888 -0.424155 0)
(-2.82974e-05 -0.427612 0)
(0.0230773 -0.475178 0)
(0.0170565 -0.507199 0)
(0.0146754 -0.487367 0)
(0.0101463 -0.508323 0)
(0.00893788 -0.495338 0)
(0.00593656 -0.508902 0)
(0.00536344 -0.49884 0)
(0.00328882 -0.506775 0)
(0.00239384 -0.498354 0)
(8.95283e-05 -0.503955 0)
(0.017907 -0.569318 0)
(0.0135322 -0.600873 0)
(0.0117129 -0.581155 0)
(0.00847713 -0.60333 0)
(0.00750429 -0.589436 0)
(0.00529996 -0.604972 0)
(0.00473321 -0.593954 0)
(0.00281515 -0.60347 0)
(0.00184253 -0.594176 0)
(6.90781e-05 -0.601911 0)
(0.0138032 -0.689974 0)
(0.00996295 -0.717522 0)
(0.00838825 -0.701581 0)
(0.00582713 -0.722249 0)
(0.00521672 -0.710206 0)
(0.00353303 -0.72527 0)
(0.00298539 -0.715008 0)
(0.00131829 -0.724831 0)
(0.000774701 -0.715918 0)
(-0.000201832 -0.7247 0)
(0.00716544 -0.820109 0)
(0.0047929 -0.836473 0)
(0.00409713 -0.829611 0)
(0.00288637 -0.843232 0)
(0.00256471 -0.836932 0)
(0.00140929 -0.84674 0)
(0.000906759 -0.840092 0)
(-0.000234878 -0.846541 0)
(-0.000309775 -0.840402 0)
(-0.000379327 -0.846912 0)
(0.00134236 -0.903995 0)
(0.000909507 -0.913345 0)
(0.000859022 -0.913652 0)
(0.000750312 -0.919834 0)
(0.000591995 -0.918142 0)
(0.000245408 -0.92198 0)
(-1.08999e-05 -0.918865 0)
(-0.000381997 -0.920977 0)
(-0.00035928 -0.917721 0)
(-0.000182695 -0.920583 0)
(0.0549827 -0.186671 1.47645e-21)
(0.0402297 -0.252516 -1.45437e-21)
(0.0406716 -0.299815 3.13999e-22)
(0.0322153 -0.358431 0)
(0.0295723 -0.419418 0)
(0.0245732 -0.494382 5.70821e-22)
(0.0195719 -0.587718 -2.77429e-21)
(0.0147019 -0.703275 2.7671e-21)
(0.0088035 -0.826396 8.75331e-22)
(0.00274997 -0.901851 -8.69716e-22)
(0.0515691 -0.194239 -1.95848e-21)
(0.0404966 -0.25844 0)
(0.0412729 -0.305254 2.45398e-21)
(0.0325908 -0.36423 -6.03441e-21)
(0.0305223 -0.424842 4.26926e-21)
(0.0252434 -0.500076 -5.14824e-22)
(0.0203375 -0.593041 1.32863e-21)
(0.015143 -0.707184 3.00467e-21)
(0.00954407 -0.827233 9.60549e-22)
(0.00338505 -0.90179 9.678e-22)
(0.0489293 -0.20145 2.93286e-21)
(0.0410452 -0.265069 -2.62196e-21)
(0.042052 -0.310711 2.59714e-21)
(0.0332538 -0.369347 -3.76066e-21)
(0.0316615 -0.429409 2.75377e-21)
(0.0260471 -0.504644 0)
(0.0211887 -0.597126 -1.33195e-21)
(0.0157204 -0.710031 1.4676e-22)
(0.0100281 -0.827003 -1.6296e-21)
(0.00368641 -0.901819 -1.8108e-21)
(0.0469382 -0.208762 -5.13561e-22)
(0.0418102 -0.271949 0)
(0.0431212 -0.316223 0)
(0.034268 -0.374407 0)
(0.0330422 -0.43395 3.66252e-21)
(0.0270477 -0.508952 -2.46624e-21)
(0.02218 -0.600878 -4.45448e-23)
(0.0164415 -0.712457 -1.85734e-21)
(0.0103544 -0.82676 -9.71838e-22)
(0.00374485 -0.900925 -1.0753e-21)
(0.0455649 -0.215781 5.81448e-23)
(0.0427974 -0.278191 -1.88564e-21)
(0.0444838 -0.321039 -1.81218e-21)
(0.0355993 -0.378926 1.81103e-21)
(0.0346465 -0.438106 -1.18005e-21)
(0.0282516 -0.512859 0)
(0.0233276 -0.604262 -1.61482e-21)
(0.0172913 -0.714558 3.82713e-21)
(0.0107029 -0.826591 -1.99353e-21)
(0.00374878 -0.899235 2.07158e-21)
(0.0448649 -0.222292 -5.53894e-21)
(0.0440891 -0.283526 4.48641e-22)
(0.0461658 -0.32477 -3.18119e-22)
(0.0372216 -0.382436 1.95484e-21)
(0.0364436 -0.441376 0)
(0.0296421 -0.515939 0)
(0.0246179 -0.606908 0)
(0.0182548 -0.716086 2.11523e-21)
(0.0111824 -0.826212 0)
(0.00381919 -0.897132 0)
(0.0448846 -0.228183 0)
(0.0457858 -0.287998 2.55558e-21)
(0.0482327 -0.327412 -1.74629e-21)
(0.0391542 -0.384812 -2.57488e-21)
(0.0384348 -0.44355 2.58833e-21)
(0.0312187 -0.517934 1.80052e-21)
(0.0260418 -0.608553 -1.76174e-21)
(0.019319 -0.716819 -7.618e-21)
(0.0118014 -0.825406 5.38076e-22)
(0.00397486 -0.894879 -2.01243e-21)
(0.0456488 -0.233298 0)
(0.0479694 -0.291619 -8.11603e-22)
(0.0507476 -0.329014 -5.28841e-22)
(0.0414358 -0.386079 0)
(0.0406493 -0.444614 8.63416e-22)
(0.0330057 -0.518779 -2.60626e-21)
(0.0276111 -0.609094 3.12318e-21)
(0.0204912 -0.716621 1.16366e-21)
(0.0125444 -0.82402 -1.34055e-21)
(0.00420709 -0.89248 2.65171e-21)
(0.0471843 -0.237439 7.26105e-22)
(0.0507053 -0.294327 9.80691e-22)
(0.0537522 -0.329542 -1.78917e-22)
(0.0440987 -0.386246 3.49121e-22)
(0.043119 -0.444588 7.95975e-22)
(0.0350311 -0.518502 1.43542e-21)
(0.0293468 -0.60856 -5.81816e-22)
(0.0217777 -0.715535 -6.54659e-22)
(0.013375 -0.822092 1.34499e-21)
(0.0044783 -0.88992 7.61915e-22)
(0.0495338 -0.240399 -2.03519e-22)
(0.0540513 -0.296051 2.05265e-22)
(0.0572725 -0.328916 -2.82542e-22)
(0.0471641 -0.385279 -3.48699e-22)
(0.0458726 -0.443419 4.79516e-22)
(0.037322 -0.517099 -9.85734e-22)
(0.0312737 -0.606933 9.00728e-22)
(0.0232069 -0.713529 3.33915e-22)
(0.0143115 -0.819555 0)
(0.00480424 -0.887073 -7.63582e-22)
(0.0527548 -0.241984 2.08526e-22)
(0.0580608 -0.296762 -2.10427e-22)
(0.061326 -0.327069 -3.24224e-22)
(0.0506503 -0.383175 -3.99789e-22)
(0.0489284 -0.441089 -5.14214e-22)
(0.0398836 -0.514611 -5.73107e-23)
(0.0334041 -0.604269 3.26862e-22)
(0.0247743 -0.710743 1.09311e-21)
(0.0153263 -0.816557 0)
(0.00514793 -0.884011 -8.69652e-22)
(0.0569218 -0.241984 0)
(0.0627754 -0.296466 -1.16716e-21)
(0.0659217 -0.324029 2.19538e-21)
(0.0545651 -0.379919 4.00496e-22)
(0.0523191 -0.43753 1.05589e-21)
(0.0427366 -0.510948 1.8075e-21)
(0.035761 -0.600467 -6.67665e-22)
(0.0265196 -0.707006 -7.48417e-22)
(0.0164846 -0.812912 1.74912e-21)
(0.00557172 -0.880589 8.67585e-22)
(0.0621191 -0.240204 0)
(0.0682082 -0.295212 -1.05676e-21)
(0.0710842 -0.319886 -6.9683e-22)
(0.058932 -0.375496 0)
(0.0560571 -0.432926 -3.41376e-21)
(0.0458661 -0.506185 1.1404e-21)
(0.0383353 -0.595729 1.48655e-21)
(0.0284024 -0.702579 4.96023e-21)
(0.0177098 -0.808904 -1.74347e-21)
(0.00598775 -0.877012 3.92028e-21)
(0.0684432 -0.236484 0)
(0.0743531 -0.293016 1.06588e-21)
(0.0768328 -0.314938 0)
(0.0637291 -0.369793 4.1966e-21)
(0.060202 -0.427206 -4.21808e-21)
(0.049331 -0.500101 -2.91479e-21)
(0.0411701 -0.589749 -1.06545e-22)
(0.0305203 -0.696996 -5.16999e-21)
(0.0191299 -0.804101 -8.55653e-22)
(0.0065324 -0.872993 -4.87501e-21)
(0.0760131 -0.230779 5.52408e-21)
(0.0811547 -0.289889 -1.95912e-21)
(0.0832668 -0.30926 8.78543e-22)
(0.0690272 -0.362855 -3.63387e-21)
(0.0647205 -0.420496 0)
(0.0531051 -0.493134 -3.10254e-21)
(0.0441978 -0.583088 -3.97838e-22)
(0.0327408 -0.691035 7.10861e-21)
(0.0205469 -0.799155 1.03068e-21)
(0.00699502 -0.868931 -1.03436e-21)
(0.0849081 -0.223117 -1.90447e-21)
(0.0886501 -0.285527 4.70664e-21)
(0.0904153 -0.302641 3.85144e-21)
(0.0748595 -0.354804 -3.84885e-21)
(0.0696571 -0.412512 -2.70184e-21)
(0.0572703 -0.484832 0)
(0.0475757 -0.574881 -7.3386e-21)
(0.035313 -0.683532 3.66304e-21)
(0.0222783 -0.793092 4.07816e-21)
(0.0076932 -0.864237 4.58108e-21)
(0.0952562 -0.213629 -5.44461e-22)
(0.0968846 -0.280201 0)
(0.0981941 -0.295582 0)
(0.0811555 -0.346265 0)
(0.0749304 -0.404102 -3.32832e-21)
(0.0616671 -0.476377 6.0192e-21)
(0.0510602 -0.566813 7.5451e-21)
(0.0378498 -0.676474 -1.21626e-20)
(0.0238429 -0.787407 2.28476e-21)
(0.00814334 -0.859721 -6.80046e-21)
(0.107219 -0.202256 6.21152e-23)
(0.106076 -0.272424 6.25375e-21)
(0.106718 -0.287347 -6.1927e-21)
(0.0881307 -0.336154 1.06848e-20)
(0.0807907 -0.39375 -1.35918e-20)
(0.0666625 -0.465633 0)
(0.0551557 -0.556041 -4.01581e-21)
(0.041034 -0.66671 -2.39127e-22)
(0.0260107 -0.779865 -4.82025e-21)
(0.0090754 -0.854209 -5.01351e-21)
(0.120978 -0.190841 -4.79658e-22)
(0.115773 -0.265552 0)
(0.115376 -0.280735 -1.0067e-20)
(0.095144 -0.327553 2.02174e-20)
(0.0866345 -0.385368 -8.09264e-21)
(0.071474 -0.457273 -1.83565e-21)
(0.0589421 -0.548069 4.00733e-21)
(0.0437404 -0.659622 -3.29402e-22)
(0.0276008 -0.77393 6.94857e-21)
(0.00938924 -0.849336 7.41396e-21)
(0.136904 -0.171932 -3.06394e-21)
(0.128327 -0.249842 2.96869e-21)
(0.125923 -0.269291 9.99537e-22)
(0.10419 -0.313536 0)
(0.0939397 -0.371071 0)
(0.0778299 -0.442551 1.77022e-21)
(0.0642021 -0.533472 8.6618e-21)
(0.0479339 -0.646692 -8.39697e-21)
(0.0305003 -0.764491 -2.43106e-21)
(0.0107494 -0.842764 2.37411e-21)
(0.161613 -0.16882 0)
(0.155917 -0.249684 0)
(0.148067 -0.268147 0)
(0.11891 -0.308355 0)
(0.107932 -0.36522 0)
(0.0884941 -0.434823 0)
(0.0727193 -0.523924 0)
(0.0538442 -0.635137 0)
(0.0337352 -0.75164 0)
(0.0105819 -0.830403 0)
(0.200204 -0.156561 0)
(0.208217 -0.234518 0)
(0.177555 -0.250014 0)
(0.15386 -0.290473 0)
(0.134801 -0.352532 0)
(0.112299 -0.420972 0)
(0.0931255 -0.509941 0)
(0.0705392 -0.618487 0)
(0.0454436 -0.729712 0)
(0.0168873 -0.802731 0)
(0.244109 -0.138644 0)
(0.253669 -0.206635 0)
(0.205613 -0.219929 0)
(0.195943 -0.2606 0)
(0.16256 -0.325728 0)
(0.139408 -0.39356 0)
(0.115922 -0.480822 0)
(0.0869732 -0.586974 0)
(0.0550874 -0.69473 0)
(0.0174263 -0.76859 0)
(0.291443 -0.114742 0)
(0.294585 -0.176331 0)
(0.242285 -0.195793 0)
(0.241962 -0.236938 0)
(0.200607 -0.301475 0)
(0.176965 -0.375151 0)
(0.149793 -0.459328 0)
(0.113618 -0.560463 0)
(0.0731339 -0.660346 0)
(0.0272027 -0.723654 0)
(0.351001 -0.0804329 0)
(0.345309 -0.140956 0)
(0.292546 -0.167549 0)
(0.292071 -0.206428 0)
(0.250193 -0.26438 0)
(0.221113 -0.340651 0)
(0.185935 -0.417836 0)
(0.140819 -0.511281 0)
(0.0888916 -0.606433 0)
(0.0273573 -0.671532 0)
(0.430442 -0.0508039 0)
(0.418639 -0.113297 0)
(0.368444 -0.148975 0)
(0.361285 -0.190506 0)
(0.321468 -0.243483 0)
(0.284738 -0.317452 0)
(0.238325 -0.386268 0)
(0.182842 -0.469718 0)
(0.116833 -0.551617 0)
(0.0445301 -0.599046 0)
(0.526506 -0.013597 0)
(0.512866 -0.0736607 0)
(0.46412 -0.111715 0)
(0.444619 -0.152724 0)
(0.401155 -0.197116 0)
(0.352769 -0.260081 0)
(0.29192 -0.317802 0)
(0.220823 -0.391007 0)
(0.135639 -0.464611 0)
(0.039237 -0.517647 0)
(0.630093 -0.00759839 0)
(0.621702 -0.0564629 0)
(0.582099 -0.0924582 0)
(0.553253 -0.131479 0)
(0.50252 -0.169183 0)
(0.443556 -0.219082 0)
(0.36844 -0.264712 0)
(0.279682 -0.322731 0)
(0.176879 -0.37821 0)
(0.0732404 -0.40618 0)
(0.707768 0.0080874 0)
(0.709237 -0.018396 0)
(0.669901 -0.0410962 0)
(0.635552 -0.0667536 0)
(0.570889 -0.0906215 0)
(0.501962 -0.120692 0)
(0.405522 -0.148274 0)
(0.298527 -0.185271 0)
(0.170781 -0.229649 0)
(0.0246888 -0.28275 0)
(0.886353 -0.01335 0)
(0.881728 -0.0216801 0)
(0.84925 -0.0285074 0)
(0.81175 -0.0378389 0)
(0.748428 -0.0470668 0)
(0.676024 -0.0594779 0)
(0.575199 -0.0730495 0)
(0.456801 -0.0934273 0)
(0.307376 -0.124318 0)
(0.180698 -0.177384 0)
(0.193327 -0.109162 1.71353e-21)
(0.241735 -0.0917784 -1.68952e-21)
(0.292629 -0.0735586 7.58853e-22)
(0.343985 -0.0496752 0)
(0.40396 -0.020577 0)
(0.476426 0.00160579 2.1448e-21)
(0.559072 0.0250358 -1.16628e-20)
(0.644034 0.0184436 1.15848e-20)
(0.710928 0.0202387 3.67678e-21)
(0.888506 -0.0104212 -3.68924e-21)
(0.203298 -0.0833705 -2.67835e-22)
(0.252298 -0.0633628 0)
(0.30464 -0.0459693 6.49397e-21)
(0.357168 -0.0226439 -1.7502e-20)
(0.417297 0.0038143 1.33703e-20)
(0.487363 0.0225003 -1.94337e-21)
(0.565219 0.0401068 4.92273e-21)
(0.643728 0.0284754 1.19332e-20)
(0.708708 0.0247995 3.69027e-21)
(0.886828 -0.00923817 3.48969e-21)
(0.210803 -0.0551431 5.04311e-22)
(0.261393 -0.0323177 -4.70179e-21)
(0.313371 -0.0165484 4.657e-21)
(0.365779 0.0054558 -1.1054e-20)
(0.425133 0.028472 7.88383e-21)
(0.492756 0.0429241 0)
(0.566024 0.0543204 -4.93498e-21)
(0.638945 0.0373447 1.99032e-22)
(0.703749 0.0285202 -6.49701e-21)
(0.883435 -0.0081437 -6.84018e-21)
(0.217543 -0.0251631 -1.50627e-22)
(0.272137 0.000448996 0)
(0.323568 0.01415 0)
(0.375309 0.0341117 0)
(0.433056 0.0529123 1.11359e-20)
(0.497641 0.0624938 -7.67003e-21)
(0.566006 0.0674321 -3.90599e-22)
(0.633659 0.0450066 -6.67028e-21)
(0.698287 0.0314326 -3.45658e-21)
(0.880136 -0.00713401 -3.64064e-21)
(0.22397 0.0060316 1.68273e-21)
(0.282973 0.0339305 -1.59548e-21)
(0.333728 0.04522 -4.30986e-21)
(0.384813 0.0625439 4.30728e-21)
(0.440732 0.0765427 -3.41692e-21)
(0.501982 0.0808265 0)
(0.56541 0.0792409 -5.38258e-21)
(0.628186 0.0515151 1.29633e-20)
(0.69269 0.0336552 -6.64149e-21)
(0.877144 -0.00620369 7.16658e-21)
(0.230492 0.0380995 -4.88064e-21)
(0.292844 0.0673469 -8.13191e-22)
(0.342074 0.0758177 -1.58138e-21)
(0.392376 0.0899531 4.62184e-21)
(0.446344 0.0987478 0)
(0.504233 0.0975213 0)
(0.563007 0.0895456 0)
(0.621535 0.0568681 6.63609e-21)
(0.686455 0.0352527 0)
(0.874018 -0.00535361 0)
(0.237265 0.0705909 0)
(0.301434 0.1 4.83367e-21)
(0.348091 0.105253 -3.40586e-21)
(0.39728 0.115707 -6.83904e-21)
(0.448999 0.119057 6.87489e-21)
(0.503506 0.112278 5.37471e-21)
(0.557994 0.0982119 -5.10191e-21)
(0.613026 0.0610551 -2.32883e-20)
(0.679144 0.0362585 1.66443e-21)
(0.870374 -0.00458616 -5.66666e-21)
(0.244084 0.102888 0)
(0.308437 0.131163 -1.43345e-21)
(0.35177 0.132909 -1.21964e-21)
(0.399578 0.139322 0)
(0.448723 0.137166 2.49645e-21)
(0.499823 0.124939 -7.34303e-21)
(0.550386 0.105206 9.24219e-21)
(0.602667 0.0641116 3.57935e-21)
(0.670714 0.0367191 -3.71947e-21)
(0.866119 -0.0038945 7.54772e-21)
(0.250507 0.13428 9.70834e-22)
(0.313465 0.160125 2.1665e-21)
(0.353098 0.158224 -2.90054e-22)
(0.399426 0.160417 9.10042e-22)
(0.445824 0.152874 2.15092e-21)
(0.493595 0.135445 4.05954e-21)
(0.540629 0.110574 -1.62486e-21)
(0.590844 0.06613 -1.81918e-21)
(0.661396 0.0367072 3.73176e-21)