/*--------------------------------*- C++ -*----------------------------------*\
  =========                 |
  \\      /  F ield         | OpenFOAM: The Open Source CFD Toolbox
   \\    /   O peration     | Website:  https://openfoam.org
    \\  /    A nd           | Version:  7
     \\/     M anipulation  |
\*---------------------------------------------------------------------------*/
FoamFile
{
    version     2.0;
    format      ascii;
    class       volVectorField;
    location    "71.9";
    object      U;
}
// * * * * * * * * * * * * * * * * * * * * * * * * * * * * * * * * * * * * * //

dimensions      [0 1 -1 0 0 0 0];

internalField   nonuniform List<vector> 
2000
(
(-0.000134619 -0.00672363 -2.81868e-22)
(5.99497e-05 -0.0148592 0)
(0.000843489 -0.0187855 0)
(0.00219932 -0.0192078 -1.44613e-21)
(0.00408541 -0.0165395 4.66845e-22)
(0.00647068 -0.0110459 1.61304e-23)
(0.00932876 -0.00293475 -8.03069e-22)
(0.0126111 0.00757151 0)
(0.0162133 0.0201814 0)
(0.0199446 0.0345048 0)
(0.000427611 -0.00650865 0)
(0.0014999 -0.0149196 -1.10481e-21)
(0.00292008 -0.0192561 1.01885e-21)
(0.00458061 -0.0201794 1.9306e-21)
(0.00646971 -0.0181024 0)
(0.00859217 -0.0132966 1.7567e-21)
(0.0109665 -0.00595486 -1.6336e-21)
(0.0135967 0.00374791 0)
(0.0164377 0.0156023 2.97405e-21)
(0.0193188 0.0293262 -5.72345e-21)
(0.00102729 -0.00633662 0)
(0.00317288 -0.0150029 8.85593e-21)
(0.00547425 -0.0196741 0)
(0.00767044 -0.0210127 7.90371e-21)
(0.00977329 -0.0194513 0)
(0.0118173 -0.0152864 -7.1034e-21)
(0.0138603 -0.00871224 0)
(0.0159562 0.000132753 6.38251e-21)
(0.0181245 0.011121 -5.97757e-21)
(0.0202054 0.0240862 -5.83166e-21)
(0.00169892 -0.00624386 -2.31105e-21)
(0.00513373 -0.0151492 -4.4129e-21)
(0.00855921 -0.0200544 -2.07224e-21)
(0.0115189 -0.0216858 -3.88084e-21)
(0.0140459 -0.0205166 -3.7158e-21)
(0.016204 -0.0168866 3.4956e-21)
(0.0180876 -0.0110114 3.3547e-21)
(0.0197953 -0.00301056 -8.07699e-24)
(0.0214145 0.00706065 6.05131e-21)
(0.0227938 0.0191477 5.83e-21)
(0.0024845 -0.00626073 -2.28383e-21)
(0.00744125 -0.0153895 -4.52184e-21)
(0.0122184 -0.0204061 -8.58418e-21)
(0.0161461 -0.0221811 3.94709e-21)
(0.0192866 -0.0212456 0)
(0.0217391 -0.0179985 0)
(0.0236367 -0.0126945 -6.89101e-21)
(0.02512 -0.00545636 -6.51957e-21)
(0.0263448 0.00371769 6.15249e-21)
(0.0271742 0.0148662 1.76561e-20)
(0.00343246 -0.00640657 2.31885e-21)
(0.010151 -0.0157344 2.34264e-21)
(0.0164734 -0.0207279 -1.27622e-20)
(0.0215285 -0.022486 2.02495e-20)
(0.0254257 -0.0216119 -3.77235e-21)
(0.0283137 -0.0185727 0)
(0.0303724 -0.0136759 0)
(0.031787 -0.00706691 3.26289e-20)
(0.032781 0.00129277 -3.07653e-20)
(0.0332474 0.0115097 5.82356e-21)
(0.0045923 -0.00668267 1.81594e-20)
(0.0133063 -0.0161699 0)
(0.0213142 -0.0210045 1.70431e-20)
(0.0275887 -0.0225924 -1.61659e-20)
(0.0323146 -0.021619 0)
(0.0357107 -0.018622 7.34899e-21)
(0.0380189 -0.013967 -2.06222e-20)
(0.0394765 -0.00783721 -2.61356e-20)
(0.0403748 -0.00017621 1.22699e-20)
(0.0406562 0.00917041 1.18189e-20)
(0.00600768 -0.00706926 -3.62998e-20)
(0.0169287 -0.0166557 -4.59199e-21)
(0.0266897 -0.021205 -8.6486e-21)
(0.0341902 -0.0224958 -2.03534e-20)
(0.0397258 -0.0212996 -7.79467e-21)
(0.0436116 -0.0182204 -7.37326e-21)
(0.0461694 -0.0136793 2.41201e-23)
(0.0477006 -0.00790553 0)
(0.0485684 -0.000840751 0)
(0.048784 0.00771534 1.16557e-22)
(0.00770936 -0.00752572 1.81408e-20)
(0.0210067 -0.0171253 -1.82942e-20)
(0.0325022 -0.0212841 1.28594e-20)
(0.041139 -0.0221942 2.86594e-20)
(0.0473664 -0.0207107 -7.65042e-21)
(0.0516242 -0.0174913 7.35166e-21)
(0.0543303 -0.0130013 6.93613e-21)
(0.05586 -0.00751551 0)
(0.0566523 -0.00098649 0)
(0.0568195 0.0068274 -2.73128e-22)
(0.00970898 -0.00799396 -2.27535e-21)
(0.025488 -0.0174922 2.29541e-20)
(0.0386038 -0.021188 -4.29429e-21)
(0.0481911 -0.0216916 0)
(0.0549016 -0.0199302 0)
(0.0593296 -0.0165938 1.45902e-20)
(0.0620044 -0.012169 0)
(0.0633768 -0.00695996 -1.28349e-20)
(0.0639387 -0.000952325 4.43292e-24)
(0.0639143 0.00606236 1.14941e-20)
(0.0284042 0.0693099 2.22229e-22)
(0.0434232 0.137764 -2.24815e-22)
(0.0489842 0.198934 -2.60717e-22)
(0.0479808 0.254531 -2.98859e-22)
(0.0419212 0.311627 -3.68637e-22)
(0.0370255 0.373882 -1.30016e-23)
(0.0247091 0.443675 1.94678e-22)
(0.0214193 0.53013 6.93563e-22)
(0.000591494 0.653896 0)
(0.00669195 0.802326 -5.08886e-22)
(0.02547 0.0633906 8.45954e-22)
(0.0395863 0.132736 -9.76949e-22)
(0.0459051 0.196852 1.75397e-21)
(0.0455116 0.254321 2.9936e-22)
(0.0399381 0.312414 6.49233e-22)
(0.0354201 0.375328 1.11985e-21)
(0.0236475 0.445639 -4.20582e-22)
(0.0205153 0.532531 -4.65074e-22)
(0.000571411 0.655904 9.12388e-22)
(0.00624527 0.802985 5.07681e-22)
(0.0238425 0.0569913 0)
(0.0362474 0.126358 -9.25558e-22)
(0.0431715 0.193466 -5.09884e-22)
(0.0433274 0.253003 0)
(0.0381909 0.312218 -1.99938e-21)
(0.034027 0.375883 6.23217e-22)
(0.0227362 0.446786 7.06295e-22)
(0.0197191 0.534149 2.50589e-21)
(0.000592799 0.657477 -9.09435e-22)
(0.00584262 0.803451 1.83113e-21)
(0.0238167 0.0504531 0)
(0.0334812 0.11876 9.3335e-22)
(0.0407782 0.188757 0)
(0.0414071 0.250549 2.30688e-21)
(0.0366626 0.311029 -2.31883e-21)
(0.032828 0.375533 -1.42453e-21)
(0.0219623 0.447049 -9.10442e-23)
(0.0190414 0.534863 -2.44716e-21)
(0.000657756 0.658297 -4.01208e-22)
(0.00546385 0.803528 -2.25243e-21)
(0.0256653 0.0441532 3.94546e-23)
(0.0314233 0.110191 -2.66271e-21)
(0.0387222 0.182735 1.20902e-22)
(0.03973 0.246943 -2.02444e-21)
(0.0353331 0.308866 0)
(0.0318 0.374348 -1.35982e-21)
(0.0213022 0.446598 -1.18713e-22)
(0.018453 0.535012 3.07803e-21)
(0.000733033 0.658848 4.08856e-22)
(0.0051121 0.803549 -4.1034e-22)
(0.0295048 0.0384386 -7.25566e-21)
(0.030271 0.101024 4.5792e-21)
(0.0370086 0.17545 1.97376e-21)
(0.0382796 0.242178 -1.97278e-21)
(0.0341885 0.30569 -1.09952e-21)
(0.0309333 0.372203 0)
(0.0207611 0.445164 -2.72581e-21)
(0.0179786 0.534075 1.35757e-21)
(0.000847644 0.658345 1.49312e-21)
(0.00476863 0.80307 1.55614e-21)
(0.0351382 0.0335621 -8.77275e-22)
(0.0302389 0.0917365 0)
(0.0356601 0.167011 0)
(0.0370372 0.236294 0)
(0.0332035 0.301658 -1.17721e-21)
(0.0301983 0.369479 2.27319e-21)
(0.0202954 0.443416 2.65685e-21)
(0.0175412 0.533126 -4.14002e-21)
(0.000928492 0.658159 7.35213e-22)
(0.00445345 0.802817 -2.26933e-21)
(0.0419433 0.0296023 5.52343e-21)
(0.0314365 0.0827556 3.73609e-21)
(0.0347108 0.157639 -3.70232e-21)
(0.0360065 0.229224 4.04457e-21)
(0.0323721 0.296341 -5.02949e-21)
(0.0296076 0.365331 0)
(0.0199607 0.440046 -1.19403e-21)
(0.0172559 0.530279 6.04884e-23)
(0.00108639 0.656115 -1.32714e-21)
(0.00413118 0.801756 -1.3936e-21)
(0.0488094 0.0262207 -4.71199e-21)
(0.0336817 0.0738822 0)
(0.0341603 0.147335 -4.20052e-21)
(0.0351369 0.22158 7.64052e-21)
(0.0316712 0.291193 -2.85849e-21)
(0.0290863 0.361994 -5.35628e-22)
(0.0196086 0.43797 1.19147e-21)
(0.0168757 0.529208 8.68685e-24)
(0.00110772 0.655918 1.91594e-21)
(0.00384549 0.801472 2.02486e-21)
(0.0540654 0.0232768 -3.79104e-21)
(0.0363525 0.0649977 3.70292e-21)
(0.0341397 0.134743 4.60213e-22)
(0.03446 0.210019 0)
(0.0310425 0.281486 0)
(0.0287877 0.353932 5.23123e-22)
(0.0195564 0.431068 2.23767e-21)
(0.0168714 0.523186 -2.17368e-21)
(0.00136208 0.651543 -5.88488e-22)
(0.00352994 0.799687 5.69715e-22)
(0.0574207 0.0255311 0)
(0.039919 0.0603973 0)
(0.034955 0.126228 0)
(0.0341991 0.205047 0)
(0.0300942 0.28028 0)
(0.0271204 0.355163 0)
(0.0181838 0.43355 0)
(0.015367 0.526876 0)
(0.000892601 0.654597 0)
(0.00291919 0.799936 0)
(0.0605978 0.0473187 0)
(0.0433947 0.0809765 0)
(0.0339987 0.13594 0)
(0.031975 0.209572 0)
(0.0282847 0.284694 0)
(0.0252739 0.360676 0)
(0.0170694 0.440564 0)
(0.0139469 0.535424 0)
(0.000800813 0.662225 0)
(0.00236328 0.802342 0)
(0.0593251 0.0560778 0)
(0.0460961 0.0935535 0)
(0.0344326 0.144386 0)
(0.0304482 0.214813 0)
(0.0264943 0.289653 0)
(0.0231407 0.365715 0)
(0.0155775 0.445979 0)
(0.0124209 0.541137 0)
(0.000556719 0.666841 0)
(0.00188683 0.802768 0)
(0.0553735 0.0618356 0)
(0.0465788 0.104 0)
(0.0348506 0.152325 0)
(0.029285 0.219584 0)
(0.0252625 0.294662 0)
(0.0219576 0.3719 0)
(0.0149257 0.45357 0)
(0.0115651 0.549839 0)
(0.000754088 0.674372 0)
(0.00160934 0.805083 0)
(0.0504143 0.0648792 0)
(0.0453515 0.112792 0)
(0.0349426 0.160632 0)
(0.0285032 0.224488 0)
(0.0239464 0.298387 0)
(0.0203581 0.375614 0)
(0.0138349 0.457629 0)
(0.0105186 0.554092 0)
(0.000627446 0.677675 0)
(0.00129872 0.805028 0)
(0.0446327 0.0653499 0)
(0.0427644 0.119207 0)
(0.0339635 0.168082 0)
(0.0274747 0.229674 0)
(0.023373 0.303292 0)
(0.0199109 0.381585 0)
(0.0136752 0.465 0)
(0.0101092 0.562562 0)
(0.00097485 0.684829 0)
(0.001158 0.807143 0)
(0.0383278 0.0634128 0)
(0.0396669 0.12373 0)
(0.0333009 0.17568 0)
(0.0264933 0.234911 0)
(0.0219348 0.306277 0)
(0.018573 0.384024 0)
(0.0128953 0.467599 0)
(0.00943566 0.56521 0)
(0.000915783 0.686789 0)
(0.000970565 0.806754 0)
(0.0314204 0.058628 0)
(0.0352379 0.123969 0)
(0.0315373 0.180164 0)
(0.0261287 0.240588 0)
(0.0220316 0.312228 0)
(0.0185949 0.390773 0)
(0.0130517 0.475566 0)
(0.00931413 0.574142 0)
(0.00139328 0.694129 0)
(0.000933925 0.808961 0)
(0.0261661 0.0543496 0)
(0.0328371 0.125641 0)
(0.0310599 0.185479 0)
(0.0253611 0.244211 0)
(0.0209141 0.313809 0)
(0.0176911 0.391897 0)
(0.0125581 0.476854 0)
(0.00892906 0.575361 0)
(0.00135524 0.69503 0)
(0.000838251 0.808595 0)
(0.0181184 0.0383694 0)
(0.0272414 0.115696 0)
(0.0302035 0.185963 0)
(0.0270105 0.250862 0)
(0.0224417 0.321475 0)
(0.0185174 0.400035 0)
(0.0131802 0.486033 0)
(0.0090868 0.585445 0)
(0.00198331 0.703121 0)
(0.000868448 0.81117 0)
(0.0684397 0.0154172 3.38462e-21)
(0.0675019 0.0265134 -3.32779e-21)
(0.0625656 0.02987 2.89992e-22)
(0.0565345 0.0309561 0)
(0.0500068 0.0299319 0)
(0.0427153 0.0271728 8.78131e-23)
(0.0349662 0.0227789 -1.09339e-22)
(0.0269565 0.0163037 1.07468e-22)
(0.02012 0.0104184 -1.61062e-23)
(0.0113993 -0.00395846 1.5831e-23)
(0.0705774 0.0112575 -4.45165e-21)
(0.0675028 0.0176833 0)
(0.0615368 0.0184792 1.63768e-21)
(0.0550644 0.0176279 -3.26172e-21)
(0.0482633 0.015037 1.62203e-21)
(0.0407529 0.0110967 -8.59458e-23)
(0.0328077 0.00583012 7.52241e-23)
(0.0247568 -0.00116604 1.66777e-23)
(0.0174448 -0.00757055 -2.79986e-23)
(0.00930859 -0.0208779 -3.12307e-23)
(0.0716154 0.00657126 5.01744e-21)
(0.0668246 0.00880012 -2.34119e-21)
(0.0602377 0.0071944 2.31867e-21)
(0.0534471 0.00444271 -1.28648e-21)
(0.0464026 0.000302823 1.00771e-21)
(0.0386891 -0.00479426 0)
(0.0305809 -0.0108815 -7.5396e-23)
(0.0225175 -0.0182307 -7.99021e-25)
(0.0149092 -0.0249013 1.0478e-23)
(0.00746634 -0.036703 4.69411e-23)
(0.0717677 0.000603476 -7.65899e-22)
(0.0655227 -0.000832843 0)
(0.0585807 -0.00448006 0)
(0.0515686 -0.0088864 0)
(0.0443577 -0.0143688 6.42618e-22)
(0.036508 -0.0204306 -3.9531e-22)
(0.0283144 -0.0271502 2.83041e-23)
(0.0202685 -0.0346271 1.2822e-23)
(0.0126135 -0.0412718 1.12363e-23)
(0.0058273 -0.0513419 2.06417e-23)
(0.0709166 -0.00673703 -5.13644e-22)
(0.063509 -0.0112646 -2.03788e-21)
(0.0564442 -0.0166004 -8.24145e-22)
(0.0493168 -0.0223585 8.23551e-22)
(0.0420315 -0.0289119 -2.4423e-22)
(0.0341451 -0.0356749 0)
(0.0259796 -0.0427767 -7.04148e-23)
(0.018049 -0.0501393 2.11296e-23)
(0.0105631 -0.0564748 -5.63161e-24)
(0.00445135 -0.0647636 -3.22113e-23)
(0.0691533 -0.0152779 -5.59957e-21)
(0.0609151 -0.0222845 9.30751e-22)
(0.0539234 -0.0290098 2.38337e-22)
(0.0467655 -0.0358086 8.06398e-22)
(0.0394941 -0.0431527 0)
(0.0316654 -0.0503414 0)
(0.0236377 -0.0575683 0)
(0.0159284 -0.064593 2.56146e-23)
(0.00877385 -0.0703928 0)
(0.00334658 -0.0769864 0)
(0.0665814 -0.0247484 0)
(0.057874 -0.0335933 1.59711e-21)
(0.0511121 -0.041465 -1.02953e-21)
(0.0439979 -0.0490031 -5.80861e-22)
(0.0368337 -0.0568782 5.83841e-22)
(0.0291547 -0.0642345 1.14995e-22)
(0.0213608 -0.0713562 -1.45108e-22)
(0.0139671 -0.0778667 -1.22125e-22)
(0.00725596 -0.0829867 9.62681e-24)
(0.00248719 -0.0880638 9.7441e-24)
(0.0632846 -0.0348479 0)
(0.0545052 -0.0448838 -5.67959e-22)
(0.0480871 -0.0537039 -2.29205e-22)
(0.0410992 -0.0617005 0)
(0.0341273 -0.0698784 7.58851e-23)
(0.0266854 -0.0771822 -2.82501e-22)
(0.0192067 -0.0840163 1.1541e-22)
(0.0122047 -0.0898999 1.81029e-24)
(0.00600092 -0.0942804 -7.07233e-24)
(0.0018362 -0.09807 -1.10281e-23)
(0.0593923 -0.0452285 7.55836e-22)
(0.0509099 -0.0558872 5.14177e-22)
(0.0449227 -0.0654859 -1.73904e-22)
(0.0381455 -0.0736878 8.88017e-23)
(0.0314426 -0.0819787 1.24149e-22)
(0.0243166 -0.0890591 1.23693e-22)
(0.0172164 -0.0954803 -2.57681e-23)
(0.0106594 -0.10069 -1.29231e-23)
(0.00498439 -0.104344 7.09547e-24)
(0.00135395 -0.107089 3.46963e-26)
(0.0550673 -0.0556067 -1.59233e-22)
(0.0471778 -0.0663861 1.60656e-22)
(0.0416888 -0.0766151 -1.16001e-22)
(0.0352068 -0.0848033 -8.86665e-23)
(0.0288365 -0.0930581 5.47694e-23)
(0.0220928 -0.0997982 -9.81621e-23)
(0.0154132 -0.105737 3.60672e-23)
(0.0093306 -0.110283 2.5525e-24)
(0.00417282 -0.113275 0)
(0.0010023 -0.115204 -3.47689e-26)
(0.0504941 -0.0657556 1.6334e-22)
(0.0434117 -0.0762272 -1.6472e-22)
(0.0384646 -0.086953 -1.22455e-22)
(0.0323571 -0.0949501 -9.47677e-23)
(0.0263601 -0.103056 -5.78673e-23)
(0.0200477 -0.109392 9.31813e-24)
(0.0138071 -0.114825 1.99464e-23)
(0.00820484 -0.118763 2.98529e-23)
(0.00352999 -0.121182 0)
(0.000747682 -0.122499 -2.2221e-24)
(0.0458652 -0.0755167 0)
(0.039726 -0.0853241 -5.52872e-22)
(0.0353314 -0.0964195 9.33618e-22)
(0.0296673 -0.104096 9.49071e-23)
(0.0240556 -0.111969 1.48495e-22)
(0.0182028 -0.117883 1.54198e-22)
(0.0123968 -0.122822 -3.15974e-23)
(0.00726094 -0.126232 -1.80646e-23)
(0.00302172 -0.128179 2.12654e-23)
(0.000563052 -0.129052 2.21675e-24)
(0.0413348 -0.0848 0)
(0.0362111 -0.093657 -6.42165e-22)
(0.0323448 -0.104987 -2.54572e-22)
(0.0271831 -0.112267 0)
(0.0219445 -0.11984 -4.0918e-22)
(0.0165622 -0.125355 1.57116e-22)
(0.0111704 -0.129829 9.35738e-23)
(0.00647347 -0.132806 1.51806e-22)
(0.00261826 -0.134375 -2.1196e-23)
(0.000427863 -0.134939 1.57255e-23)
(0.0370147 -0.0935722 0)
(0.0329283 -0.101271 6.47484e-22)
(0.0295345 -0.112674 0)
(0.0249245 -0.119543 7.43014e-22)
(0.0200311 -0.126751 -7.46871e-22)
(0.0151155 -0.131919 -1.94808e-22)
(0.0101092 -0.135966 4.43239e-23)
(0.00581608 -0.138605 -1.58879e-22)
(0.00229531 -0.139875 -2.91257e-23)
(0.000326968 -0.140234 -2.43435e-23)
(0.0329875 -0.101842 6.68798e-21)
(0.0299259 -0.108273 -2.50486e-21)
(0.0269204 -0.119535 -2.44336e-22)
(0.0228979 -0.126041 -1.00941e-21)
(0.0183129 -0.132814 0)
(0.0138459 -0.137705 -2.09215e-22)
(0.0091934 -0.141358 7.04087e-23)
(0.00526482 -0.143746 2.42905e-22)
(0.00203431 -0.144782 9.8485e-24)
(0.000249671 -0.145017 -9.83776e-24)
(0.0293018 -0.109633 5.86196e-22)
(0.0272441 -0.114819 3.90509e-21)
(0.0245221 -0.12565 1.05821e-21)
(0.0211014 -0.131902 -1.05757e-21)
(0.0167876 -0.138154 -3.67604e-22)
(0.0127358 -0.142847 0)
(0.0084059 -0.146132 -3.40998e-22)
(0.00480009 -0.148346 1.82398e-22)
(0.00182204 -0.149194 9.15875e-23)
(0.000188719 -0.149366 2.32821e-23)
(0.0259886 -0.116954 -9.42896e-22)
(0.0249341 -0.12111 0)
(0.0223773 -0.13112 0)
(0.0195369 -0.137273 0)
(0.015461 -0.142909 -2.90482e-22)
(0.0117731 -0.14748 6.57354e-22)
(0.00773525 -0.150413 3.51932e-22)
(0.00440792 -0.152516 -4.16557e-22)
(0.00164998 -0.15321 2.38146e-23)
(0.000139217 -0.153367 -4.66224e-23)
(0.0230485 -0.12376 -2.18657e-21)
(0.0230211 -0.12737 2.90884e-21)
(0.0205152 -0.136057 -2.8814e-21)
(0.0181869 -0.142299 1.84366e-21)
(0.0143301 -0.14722 -2.23655e-21)
(0.0109402 -0.151731 0)
(0.00716867 -0.154322 -2.15636e-22)
(0.00407576 -0.156362 -1.00036e-23)
(0.00151153 -0.156925 -7.95452e-23)
(9.71419e-05 -0.157104 -2.69961e-23)
(0.0201785 -0.129887 -1.0249e-21)
(0.0212249 -0.133815 0)
(0.0187893 -0.140591 -2.84671e-21)
(0.016896 -0.147107 4.41518e-21)
(0.0133008 -0.151227 -1.51601e-21)
(0.0101631 -0.155723 -1.61603e-22)
(0.00666113 -0.157973 2.15145e-22)
(0.00377588 -0.159984 2.64312e-23)
(0.00139483 -0.160432 1.64062e-22)
(5.99322e-05 -0.160664 5.36051e-23)
(0.0173325 -0.134899 -4.15271e-21)
(0.019398 -0.140642 4.0582e-21)
(0.0172102 -0.14491 3.68573e-22)
(0.0156397 -0.151835 0)
(0.0123568 -0.155087 0)
(0.00943516 -0.159587 1.6641e-22)
(0.00620574 -0.161489 4.01619e-22)
(0.00350679 -0.163485 -3.94123e-22)
(0.00129976 -0.163827 -2.97739e-23)
(4.05847e-05 -0.16414 2.91289e-23)
(0.0174695 -0.142101 0)
(0.0197813 -0.156882 0)
(0.0170227 -0.154763 0)
(0.0151455 -0.162947 0)
(0.0118775 -0.164233 0)
(0.00890212 -0.168845 0)
(0.00586226 -0.169923 0)
(0.003294 -0.17189 0)
(0.00127463 -0.171926 0)
(7.63774e-05 -0.172385 0)
(0.0155883 -0.167445 0)
(0.0139568 -0.183195 0)
(0.0120288 -0.177095 0)
(0.0101737 -0.185328 0)
(0.0079958 -0.18399 0)
(0.00594511 -0.18836 0)
(0.00394484 -0.18799 0)
(0.00226086 -0.189824 0)
(0.000923623 -0.189236 0)
(9.40942e-05 -0.189835 0)
(0.0159861 -0.19739 0)
(0.0131174 -0.214037 0)
(0.010847 -0.2051 0)
(0.00865198 -0.213741 0)
(0.00668418 -0.210328 0)
(0.00482523 -0.214878 0)
(0.00323816 -0.213287 0)
(0.00188252 -0.215272 0)
(0.000842422 -0.214066 0)
(0.000107261 -0.214894 0)
(0.0157974 -0.234833 0)
(0.012102 -0.252756 0)
(0.00986094 -0.241711 0)
(0.00744711 -0.25124 0)
(0.00575942 -0.246089 0)
(0.00403489 -0.251237 0)
(0.0027946 -0.248532 0)
(0.00163924 -0.250944 0)
(0.000810618 -0.249081 0)
(0.000109008 -0.25028 0)
(0.0153371 -0.281555 0)
(0.0112433 -0.300068 0)
(0.00908598 -0.288179 0)
(0.00651796 -0.29854 0)
(0.00508632 -0.29229 0)
(0.00342051 -0.298189 0)
(0.00246336 -0.294626 0)
(0.00140352 -0.297623 0)
(0.000754261 -0.295167 0)
(7.98655e-05 -0.296875 0)
(0.0142348 -0.336001 0)
(0.0101238 -0.353177 0)
(0.00818029 -0.342508 0)
(0.00559528 -0.352748 0)
(0.00442404 -0.346591 0)
(0.00280017 -0.352774 0)
(0.00207627 -0.348958 0)
(0.00105454 -0.352334 0)
(0.000594329 -0.349595 0)
(4.61638e-06 -0.35173 0)
(0.0121662 -0.391983 0)
(0.00849237 -0.405779 0)
(0.00685633 -0.398336 0)
(0.00451504 -0.407023 0)
(0.00358709 -0.402326 0)
(0.00209658 -0.407809 0)
(0.00154536 -0.40458 0)
(0.000595876 -0.407706 0)
(0.000330729 -0.405222 0)
(-8.64256e-05 -0.407376 0)
(0.00922171 -0.440617 0)
(0.00635771 -0.450167 0)
(0.00510577 -0.44678 0)
(0.00327122 -0.452949 0)
(0.00257586 -0.450465 0)
(0.00137158 -0.454385 0)
(0.000951429 -0.452334 0)
(0.000177294 -0.454556 0)
(7.47089e-05 -0.452786 0)
(-0.000135289 -0.454417 0)
(0.00570325 -0.474943 0)
(0.00387933 -0.480934 0)
(0.00310407 -0.480934 0)
(0.00194908 -0.484708 0)
(0.00151902 -0.484225 0)
(0.000735158 -0.486476 0)
(0.000462113 -0.485611 0)
(-4.34102e-05 -0.486762 0)
(-5.30916e-05 -0.485797 0)
(-0.000118075 -0.486676 0)
(0.00192384 -0.492228 0)
(0.00128413 -0.496354 0)
(0.00103498 -0.498187 0)
(0.000638735 -0.500579 0)
(0.000500679 -0.501204 0)
(0.000225234 -0.502435 0)
(0.000133022 -0.502267 0)
(-4.55519e-05 -0.502739 0)
(-3.62307e-05 -0.50228 0)
(-4.70373e-05 -0.50265 0)
(0.0169213 -0.152227 4.88055e-21)
(0.0170683 -0.17887 -4.78476e-21)
(0.0181593 -0.210615 6.18854e-22)
(0.0181525 -0.249239 0)
(0.0176948 -0.295706 0)
(0.0163429 -0.347873 7.17951e-22)
(0.0139449 -0.399803 -3.08775e-21)
(0.0106241 -0.443892 3.04724e-21)
(0.00664424 -0.474577 8.29746e-22)
(0.0022596 -0.489935 -8.16813e-22)
(0.0170711 -0.157292 -5.75461e-21)
(0.0179459 -0.183738 0)
(0.0191876 -0.21559 4.2107e-21)
(0.0192191 -0.254256 -9.71968e-21)
(0.0187335 -0.300377 6.2426e-21)
(0.0172652 -0.351581 -6.62459e-22)
(0.01473 -0.402031 1.47752e-21)
(0.0112502 -0.444571 3.11953e-21)
(0.00706597 -0.47408 8.79716e-22)
(0.00240529 -0.488854 8.53533e-22)
(0.017583 -0.162558 6.72793e-21)
(0.0191915 -0.188896 -4.64656e-21)
(0.0204751 -0.220592 4.60257e-21)
(0.0204984 -0.25903 -5.15984e-21)
(0.0199355 -0.30461 3.81832e-21)
(0.0183076 -0.35474 0)
(0.0155893 -0.403714 -1.48112e-21)
(0.0119015 -0.444804 7.74795e-23)
(0.0074767 -0.473279 -1.63853e-21)
(0.00253511 -0.487567 -1.67416e-21)
(0.0184778 -0.167271 -1.08929e-21)
(0.020734 -0.193682 0)
(0.0220025 -0.225297 0)
(0.0219897 -0.263519 0)
(0.0213118 -0.308557 4.25779e-21)
(0.0194951 -0.357631 -2.8472e-21)
(0.0165564 -0.405179 -1.94357e-23)
(0.0126131 -0.444863 -1.75112e-21)
(0.00790633 -0.472312 -8.98823e-22)
(0.00266323 -0.486086 -9.62369e-22)
(0.0198234 -0.171522 1.15697e-22)
(0.0225452 -0.197862 -3.29455e-21)
(0.0237414 -0.229383 -2.52371e-21)
(0.0236686 -0.267418 2.52214e-21)
(0.0228474 -0.311962 -1.39145e-21)
(0.0208255 -0.360078 0)
(0.0176451 -0.406335 -1.63274e-21)
(0.013414 -0.444728 3.57485e-21)
(0.00838886 -0.471203 -1.82963e-21)
(0.0028078 -0.484458 1.88312e-21)
(0.0216612 -0.175397 -8.76316e-21)
(0.0246463 -0.201469 9.46098e-22)
(0.025705 -0.232773 -1.86481e-22)
(0.025535 -0.27058 2.59304e-21)
(0.024539 -0.314641 0)
(0.0222948 -0.361892 0)
(0.018855 -0.407019 0)
(0.0143122 -0.444292 1.91609e-21)
(0.00893797 -0.469915 0)
(0.00297798 -0.482707 0)
(0.0240036 -0.178804 0)
(0.0270571 -0.204489 3.62987e-21)
(0.027922 -0.235465 -2.45321e-21)
(0.0276077 -0.272983 -2.91335e-21)
(0.0264015 -0.316552 2.92851e-21)
(0.0239107 -0.363012 1.74565e-21)
(0.0201876 -0.40716 -1.73196e-21)
(0.0153066 -0.443491 -6.84493e-21)
(0.00955279 -0.468411 4.87341e-22)
(0.00317511 -0.480826 -1.66812e-21)
(0.0268586 -0.181611 0)
(0.029785 -0.206842 -1.17946e-21)
(0.0304129 -0.237421 -6.67105e-22)
(0.0299046 -0.274623 0)
(0.0284539 -0.317704 8.51325e-22)
(0.0256885 -0.363451 -2.56979e-21)
(0.0216513 -0.40676 2.86014e-21)
(0.0163987 -0.442312 1.02035e-21)
(0.0102305 -0.466672 -1.11673e-21)
(0.0033984 -0.478801 2.21309e-21)
(0.0302367 -0.183714 1.05864e-21)
(0.0328348 -0.208459 1.28206e-21)
(0.0331898 -0.238587 -2.83936e-22)
(0.0324364 -0.275475 3.81605e-22)
(0.030711 -0.318097 8.11012e-22)
(0.027642 -0.363229 1.36104e-21)
(0.0232566 -0.405843 -5.11822e-22)
(0.0175938 -0.440771 -5.53004e-22)
(0.0109715 -0.464699 1.12042e-21)
(0.0036479 -0.476619 6.07243e-22)
(0.0341484 -0.185024 -2.95888e-22)
(0.0362119 -0.209302 2.98616e-22)
(0.0362623 -0.23892 -3.43546e-22)
(0.0352093 -0.275516 -3.81113e-22)
(0.0331834 -0.317719 4.5237e-22)
(0.0297813 -0.362349 -9.2349e-22)
(0.0250138 -0.404418 7.83205e-22)
(0.0189001 -0.438875 2.80005e-22)
(0.0117798 -0.462493 0)
(0.00392527 -0.474275 -6.08599e-22)
(0.0386014 -0.185476 3.03412e-22)
(0.0399192 -0.209363 -3.06317e-22)
(0.03964 -0.238398 -3.69177e-22)
(0.0382282 -0.274743 -4.1206e-22)
(0.0358797 -0.316568 -4.72164e-22)
(0.0321134 -0.360818 -3.29997e-23)
(0.0269299 -0.402495 2.76065e-22)
(0.0203231 -0.436634 8.91216e-22)
(0.0126584 -0.460056 0)
(0.00423154 -0.471765 -6.64291e-22)
(0.0436007 -0.185049 0)
(0.0439569 -0.208642 -1.41258e-21)
(0.0433297 -0.237033 2.56098e-21)
(0.041495 -0.273163 4.12758e-22)
(0.0388083 -0.314646 9.58696e-22)
(0.0346453 -0.358633 1.57298e-21)
(0.0290143 -0.400067 -5.59385e-22)
(0.0218723 -0.434039 -6.04608e-22)
(0.0136141 -0.457382 1.33738e-21)
(0.00456895 -0.469085 6.62742e-22)
(0.0491476 -0.183789 0)
(0.0483244 -0.207132 -1.39323e-21)
(0.0473345 -0.234863 -7.70213e-22)
(0.0450143 -0.270799 0)
(0.0419746 -0.311991 -3.01933e-21)
(0.0373805 -0.355823 1.00925e-21)
(0.0312691 -0.397159 1.20124e-21)
(0.0235469 -0.43111 3.87843e-21)
(0.0146444 -0.45447 -1.33304e-21)
(0.00493553 -0.466222 2.87747e-21)
(0.0552378 -0.181811 0)
(0.0530245 -0.204824 1.40511e-21)
(0.0516422 -0.232031 0)
(0.0487859 -0.267638 3.85915e-21)
(0.0453846 -0.308616 -3.87895e-21)
(0.0403287 -0.352375 -2.36989e-21)
(0.0337054 -0.393747 -5.2832e-23)
(0.0253637 -0.427815 -3.99161e-21)
(0.0157645 -0.451295 -6.65359e-22)
(0.00533553 -0.463155 -3.57917e-21)
(0.0618447 -0.17922 1.01496e-20)
(0.0580579 -0.201698 -3.89572e-21)
(0.0562586 -0.228521 4.1769e-22)
(0.0528409 -0.26369 -3.60546e-21)
(0.0490271 -0.304554 0)
(0.043491 -0.348337 -2.47177e-21)
(0.0363186 -0.389886 -2.06343e-22)
(0.0273144 -0.424202 5.42168e-21)
(0.0169656 -0.447898 7.43207e-22)
(0.00576364 -0.459911 -7.46059e-22)
(0.0689142 -0.176004 -1.04505e-21)
(0.0634535 -0.197817 7.28933e-21)
(0.0611474 -0.224317 3.75182e-21)
(0.0571668 -0.259096 -3.74927e-21)
(0.0529076 -0.299829 -2.25886e-21)
(0.0468792 -0.343682 0)
(0.0391306 -0.385508 -5.53797e-21)
(0.0294264 -0.420201 2.77737e-21)
(0.0182711 -0.444233 2.96559e-21)
(0.00622883 -0.456456 3.1837e-21)
(0.0763746 -0.172216 -1.39986e-21)
(0.0692079 -0.19332 0)
(0.066279 -0.21956 0)
(0.061747 -0.253988 0)
(0.0570178 -0.294626 -2.60599e-21)
(0.0504695 -0.338651 4.85642e-21)
(0.0420997 -0.380863 5.64171e-21)
(0.0316466 -0.416006 -8.88301e-21)
(0.0196365 -0.440403 1.58969e-21)
(0.00670891 -0.452846 -4.72863e-21)
(0.0841034 -0.167965 -2.0939e-21)
(0.0753156 -0.188177 7.19492e-21)
(0.0716398 -0.214193 -7.12621e-21)
(0.06659 -0.24816 9.14217e-21)
(0.061393 -0.288611 -1.14971e-20)
(0.0543365 -0.332772 0)
(0.0453415 -0.375458 -2.94973e-21)
(0.0341067 -0.41124 -1.21501e-22)
(0.021167 -0.436199 -3.30415e-21)
(0.00724871 -0.448942 -3.36689e-21)
(0.0919104 -0.163812 -1.48789e-21)
(0.0816956 -0.182938 0)
(0.0771118 -0.208935 -9.51505e-21)
(0.0715584 -0.242584 1.7916e-20)
(0.0658594 -0.283047 -6.93415e-21)
(0.058245 -0.327473 -1.3963e-21)
(0.048563 -0.370591 2.94334e-21)
(0.0365086 -0.406799 -1.48706e-22)
(0.0226403 -0.432076 4.82299e-21)
(0.00774675 -0.445002 4.98264e-21)
(0.100121 -0.157771 -6.69433e-21)
(0.0892636 -0.175397 6.56203e-21)
(0.0834007 -0.201196 1.01367e-21)
(0.0772635 -0.234268 0)
(0.0710339 -0.274543 0)
(0.062896 -0.319347 1.37029e-21)
(0.0525302 -0.363442 6.2718e-21)
(0.0395682 -0.400868 -6.13487e-21)
(0.0245692 -0.427133 -1.67916e-21)
(0.00842547 -0.440476 1.65102e-21)
(0.111069 -0.158345 0)
(0.10576 -0.172601 0)
(0.096639 -0.199346 0)
(0.0890172 -0.231805 0)
(0.0813147 -0.271101 0)
(0.0715673 -0.31435 0)
(0.0594567 -0.35662 0)
(0.0446154 -0.392372 0)
(0.0276144 -0.417621 0)
(0.00929536 -0.430783 0)
(0.130597 -0.143935 0)
(0.133795 -0.163312 0)
(0.119787 -0.193291 0)
(0.111426 -0.225362 0)
(0.101082 -0.263604 0)
(0.0884387 -0.304421 0)
(0.0731013 -0.343525 0)
(0.0546954 -0.375987 0)
(0.0339031 -0.398222 0)
(0.0117565 -0.40888 0)
(0.157303 -0.130128 0)
(0.163745 -0.151911 0)
(0.144853 -0.182044 0)
(0.136415 -0.212759 0)
(0.122548 -0.249401 0)
(0.106527 -0.287158 0)
(0.0873223 -0.323068 0)
(0.0648446 -0.353118 0)
(0.0398406 -0.374547 0)
(0.0131504 -0.386317 0)
(0.190519 -0.120504 0)
(0.1982 -0.142409 0)
(0.174155 -0.171346 0)
(0.166055 -0.200805 0)
(0.147497 -0.23573 0)
(0.12786 -0.269984 0)
(0.104132 -0.302407 0)
(0.0769844 -0.328892 0)
(0.047379 -0.346712 0)
(0.0165932 -0.354418 0)
(0.229611 -0.108455 0)
(0.235555 -0.128574 0)
(0.206677 -0.1551 0)
(0.198025 -0.182078 0)
(0.172633 -0.213093 0)
(0.14876 -0.242376 0)
(0.119337 -0.270997 0)
(0.0871699 -0.294898 0)
(0.0527539 -0.31291 0)
(0.016628 -0.324613 0)
(0.275074 -0.0993158 0)
(0.277579 -0.116923 0)
(0.244753 -0.141651 0)
(0.234038 -0.165328 0)
(0.200745 -0.192288 0)
(0.173566 -0.217523 0)
(0.137941 -0.243112 0)
(0.100488 -0.263461 0)
(0.0612056 -0.27744 0)
(0.0225882 -0.280973 0)
(0.322189 -0.0815832 0)
(0.317173 -0.0953194 0)
(0.281406 -0.115877 0)
(0.265335 -0.133708 0)
(0.224055 -0.155197 0)
(0.193194 -0.175047 0)
(0.148442 -0.195541 0)
(0.105554 -0.212511 0)
(0.0609332 -0.229475 0)
(0.0151971 -0.248038 0)
(0.369523 -0.0693745 0)
(0.35787 -0.0789765 0)
(0.322254 -0.0959221 0)
(0.299614 -0.109009 0)
(0.255323 -0.127514 0)
(0.220327 -0.143642 0)
(0.169318 -0.162202 0)
(0.122792 -0.178848 0)
(0.0729291 -0.195395 0)
(0.035199 -0.192374 0)
(0.408074 -0.0380207 0)
(0.391563 -0.0423653 0)
(0.345046 -0.052559 0)
(0.315045 -0.0587563 0)
(0.259942 -0.0698858 0)
(0.216064 -0.0774364 0)
(0.15142 -0.0879371 0)
(0.094059 -0.0974865 0)
(0.0336384 -0.117394 0)
(-0.0332327 -0.167963 0)
(0.651172 -0.019512 0)
(0.629087 -0.0225533 0)
(0.587378 -0.0272032 0)
(0.553075 -0.0314187 0)
(0.500194 -0.0378721 0)
(0.451502 -0.0445233 0)
(0.383094 -0.0549265 0)
(0.311102 -0.0698543 0)
(0.21551 -0.0989556 0)
(0.153578 -0.156761 0)
(0.133317 -0.14199 6.83999e-21)
(0.155578 -0.127024 -6.73775e-21)
(0.182459 -0.113725 1.10537e-21)
(0.215346 -0.104411 0)
(0.254266 -0.0934107 0)
(0.297785 -0.0851384 1.68876e-21)
(0.343645 -0.069458 -8.06453e-21)
(0.387999 -0.0596161 7.95994e-21)
(0.434823 -0.0321933 2.27155e-21)
(0.672449 -0.0170196 -2.29837e-21)
(0.14059 -0.134975 -6.35434e-21)
(0.162656 -0.119797 0)
(0.1889 -0.107 7.88823e-21)
(0.22173 -0.0979815 -1.90777e-20)
(0.260729 -0.0874298 1.28703e-20)
(0.304133 -0.0795408 -1.57164e-21)
(0.349982 -0.0646292 3.42851e-21)
(0.394167 -0.0557493 7.72796e-21)
(0.44467 -0.0298994 2.10726e-21)
(0.680732 -0.0159549 2.09641e-21)
(0.14697 -0.127176 7.34345e-21)
(0.168521 -0.112182 -7.40491e-21)
(0.194108 -0.10011 7.33487e-21)
(0.226569 -0.0915097 -1.01525e-20)
(0.265481 -0.0814919 7.36096e-21)
(0.308896 -0.0740956 0)
(0.354802 -0.0600317 -3.4368e-21)
(0.399383 -0.0521656 -6.95375e-23)
(0.453279 -0.0278413 -3.98296e-21)
(0.68846 -0.0149338 -4.188e-21)
(0.153331 -0.118818 -1.26613e-21)
(0.174773 -0.10434 0)
(0.199956 -0.0930833 0)
(0.232002 -0.0849666 0)
(0.270682 -0.075579 8.35132e-21)
(0.314004 -0.0687639 -5.68914e-21)
(0.359797 -0.055627 -2.23031e-22)
(0.404675 -0.0487756 -3.92964e-21)
(0.461315 -0.0259887 -2.0007e-21)
(0.695867 -0.0139898 -2.04514e-21)
(0.159149 -0.110063 1.29019e-21)
(0.180712 -0.0963941 -4.01107e-21)
(0.205591 -0.0860137 -4.16741e-21)
(0.237498 -0.0784161 4.16482e-21)
(0.27593 -0.0697162 -2.62457e-21)
(0.319221 -0.0635547 0)
(0.364869 -0.0513775 -3.34865e-21)
(0.410004 -0.0455024 7.48654e-21)
(0.468952 -0.0242796 -3.76399e-21)
(0.702931 -0.0131243 4.08492e-21)
(0.164207 -0.100942 -9.45314e-21)
(0.185904 -0.0883638 4.71863e-22)
(0.21047 -0.0789371 -6.64535e-22)
(0.242322 -0.0719134 4.07206e-21)
(0.280598 -0.0639376 0)
(0.323984 -0.0584873 0)
(0.369449 -0.0472837 0)
(0.415061 -0.0423305 3.57996e-21)
(0.476043 -0.0226782 0)
(0.709553 -0.012327 0)
(0.168438 -0.0914734 0)
(0.190293 -0.0802357 4.77886e-21)
(0.214566 -0.0718312 -3.31735e-21)
(0.246294 -0.0654605 -4.6593e-21)
(0.284478 -0.0582639 4.68352e-21)
(0.32801 -0.0535409 3.03542e-21)
(0.373296 -0.0433568 -2.86426e-21)
(0.419584 -0.039285 -1.23287e-20)
(0.482402 -0.021162 8.72943e-22)
(0.715653 -0.0115978 -2.92487e-21)
(0.171739 -0.0816889 0)
(0.193851 -0.0720025 -1.46636e-21)
(0.217911 -0.0646738 -8.84636e-22)
(0.249462 -0.0590382 0)
(0.287575 -0.052675 1.41458e-21)
(0.331225 -0.0486977 -4.06885e-21)