/*--------------------------------*- C++ -*----------------------------------*\
  =========                 |
  \\      /  F ield         | OpenFOAM: The Open Source CFD Toolbox
   \\    /   O peration     | Website:  https://openfoam.org
    \\  /    A nd           | Version:  7
     \\/     M anipulation  |
\*---------------------------------------------------------------------------*/
FoamFile
{
    version     2.0;
    format      ascii;
    class       volScalarField;
    location    "1.4";
    object      p;
}
// * * * * * * * * * * * * * * * * * * * * * * * * * * * * * * * * * * * * * //

dimensions      [0 2 -2 0 0 0 0];

internalField   nonuniform List<scalar> 
32000
(
1.98246
1.98245
1.98354
1.98489
1.98644
1.98802
1.9896
1.99128
1.99327
1.99576
1.99879
2.00234
2.00638
2.01084
2.01567
2.02077
2.02603
2.03136
2.03665
2.04185
2.0469
2.05179
2.05649
2.06097
2.06524
2.06928
2.0731
2.07673
2.0802
2.08353
2.08674
2.08984
2.09284
2.09576
2.09859
2.10136
2.10408
2.10677
2.10943
2.11198
1.97631
1.97651
1.97767
1.97906
1.98059
1.9821
1.98356
1.9851
1.98693
1.98923
1.99209
1.99549
1.99939
2.00375
2.00849
2.01353
2.01875
2.02404
2.02931
2.03448
2.03953
2.0444
2.04908
2.05355
2.05778
2.06179
2.06557
2.06915
2.07257
2.07584
2.07899
2.08203
2.08496
2.0878
2.09055
2.09324
2.09587
2.09847
2.10103
2.10348
1.96999
1.97045
1.9717
1.97315
1.97468
1.97613
1.97748
1.97888
1.98055
1.98269
1.98537
1.98861
1.99237
1.99662
2.00128
2.00625
2.01142
2.01667
2.02191
2.02707
2.0321
2.03695
2.04161
2.04604
2.05024
2.0542
2.05794
2.06148
2.06484
2.06806
2.07114
2.07411
2.07697
2.07973
2.0824
2.085
2.08754
2.09004
2.09251
2.09487
1.96361
1.96431
1.96566
1.96718
1.96871
1.97011
1.97136
1.97264
1.97416
1.97613
1.97863
1.98171
1.98533
1.98947
1.99405
1.99895
2.00405
2.00926
2.01447
2.01961
2.02461
2.02945
2.03407
2.03846
2.04261
2.04654
2.05023
2.05372
2.05703
2.06018
2.06319
2.06609
2.06887
2.07155
2.07414
2.07665
2.0791
2.08151
2.08388
2.08615
1.9572
1.95816
1.95959
1.96118
1.96272
1.96406
1.96522
1.96638
1.96776
1.96955
1.97188
1.97479
1.97828
1.98231
1.9868
1.99162
1.99666
2.00182
2.007
2.01211
2.01709
2.02189
2.02647
2.03081
2.03492
2.0388
2.04244
2.04588
2.04912
2.05221
2.05515
2.05797
2.06067
2.06327
2.06578
2.0682
2.07055
2.07286
2.07513
2.07731
1.95078
1.95197
1.95349
1.95515
1.95669
1.95799
1.95908
1.96012
1.96134
1.96297
1.96513
1.96789
1.97124
1.97516
1.97954
1.98428
1.98926
1.99437
1.99952
2.00459
2.00953
2.01428
2.01882
2.02311
2.02718
2.031
2.03459
2.03796
2.04114
2.04416
2.04703
2.04977
2.05239
2.05491
2.05732
2.05965
2.06191
2.06412
2.06628
2.06837
1.94435
1.94577
1.94738
1.9491
1.95066
1.95193
1.95294
1.95386
1.95494
1.9564
1.95839
1.96099
1.96421
1.96801
1.9723
1.97695
1.98186
1.98693
1.99203
1.99706
2.00195
2.00665
2.01113
2.01537
2.01938
2.02314
2.02667
2.02998
2.03309
2.03603
2.03883
2.04149
2.04403
2.04646
2.04878
2.05101
2.05317
2.05528
2.05734
2.05934
1.93793
1.93956
1.94125
1.94305
1.94463
1.94588
1.94681
1.94761
1.94854
1.94984
1.95168
1.95413
1.95721
1.96089
1.96507
1.96964
1.97449
1.97949
1.98454
1.98952
1.99435
1.99899
2.00341
2.0076
2.01154
2.01524
2.0187
2.02194
2.02498
2.02785
2.03056
2.03315
2.03561
2.03794
2.04017
2.0423
2.04436
2.04637
2.04832
2.05021
1.93151
1.93334
1.93512
1.93699
1.93861
1.93983
1.94069
1.94138
1.94217
1.94332
1.945
1.9473
1.95024
1.9538
1.95788
1.96236
1.96714
1.97208
1.97707
1.98198
1.98675
1.99133
1.99568
1.9998
2.00367
2.0073
2.01069
2.01385
2.01681
2.01961
2.02225
2.02475
2.02711
2.02936
2.03148
2.03352
2.03548
2.03738
2.03922
2.04101
1.92511
1.92712
1.92899
1.93094
1.93259
1.9338
1.93459
1.93517
1.93583
1.93683
1.93836
1.94051
1.94332
1.94676
1.95073
1.95512
1.95983
1.9647
1.96961
1.97445
1.97915
1.98366
1.98795
1.99199
1.99578
1.99933
2.00264
2.00572
2.0086
2.01132
2.01388
2.01629
2.01857
2.02071
2.02274
2.02467
2.02653
2.02832
2.03005
2.03174
1.91871
1.92091
1.92286
1.92489
1.92658
1.92777
1.9285
1.92898
1.92952
1.93038
1.93176
1.93378
1.93645
1.93976
1.94363
1.94794
1.95256
1.95735
1.96218
1.96694
1.97157
1.976
1.98021
1.98417
1.98788
1.99134
1.99456
1.99756
2.00036
2.003
2.00547
2.0078
2.00998
2.01202
2.01395
2.01577
2.01752
2.01921
2.02082
2.0224
1.91234
1.9147
1.91673
1.91885
1.92058
1.92175
1.92242
1.92282
1.92324
1.92397
1.92522
1.92709
1.92963
1.93282
1.93659
1.94081
1.94535
1.95005
1.95478
1.95946
1.964
1.96835
1.97247
1.97634
1.97996
1.98333
1.98646
1.98937
1.99209
1.99464
1.99703
1.99926
2.00134
2.00329
2.00511
2.00683
2.00847
2.01005
2.01155
2.01302
1.90598
1.9085
1.91061
1.91281
1.91457
1.91574
1.91636
1.91668
1.91699
1.9176
1.91871
1.92045
1.92286
1.92594
1.9296
1.93373
1.93818
1.94278
1.94742
1.952
1.95645
1.96071
1.96474
1.96852
1.97204
1.97531
1.97835
1.98117
1.98381
1.98627
1.98857
1.9907
1.99268
1.99452
1.99624
1.99785
1.99939
2.00085
2.00224
2.0036
1.89964
1.90231
1.9045
1.90677
1.90857
1.90973
1.91031
1.91055
1.91077
1.91126
1.91224
1.91385
1.91614
1.91911
1.92267
1.92671
1.93105
1.93555
1.94009
1.94458
1.94893
1.95309
1.95702
1.9607
1.96412
1.96729
1.97023
1.97296
1.97551
1.97789
1.98009
1.98213
1.984
1.98573
1.98734
1.98885
1.99028
1.99163
1.9929
1.99415
1.89333
1.89614
1.8984
1.90074
1.90257
1.90372
1.90426
1.90444
1.90458
1.90496
1.90581
1.90729
1.90946
1.91233
1.9158
1.91973
1.92397
1.92836
1.9328
1.93718
1.94143
1.9455
1.94932
1.95289
1.9562
1.95927
1.96211
1.96475
1.96721
1.96949
1.9716
1.97353
1.9753
1.97693
1.97843
1.97983
1.98115
1.98239
1.98354
1.98468
1.88704
1.88997
1.89231
1.89471
1.89656
1.89771
1.89822
1.89835
1.8984
1.89867
1.89941
1.90077
1.90284
1.9056
1.90896
1.91279
1.91693
1.92121
1.92554
1.92982
1.93396
1.93792
1.94163
1.94509
1.94829
1.95125
1.954
1.95655
1.95891
1.9611
1.96311
1.96494
1.9666
1.96812
1.96951
1.97081
1.97202
1.97315
1.97418
1.97521
1.88077
1.88382
1.88622
1.88867
1.89055
1.89169
1.89218
1.89225
1.89223
1.89241
1.89304
1.89429
1.89625
1.89891
1.90217
1.9059
1.90992
1.9141
1.91832
1.92249
1.92652
1.93036
1.93396
1.9373
1.94039
1.94325
1.94589
1.94834
1.95061
1.9527
1.95461
1.95634
1.9579
1.95931
1.9606
1.96179
1.96289
1.96391
1.96482
1.96574
1.87452
1.87768
1.88014
1.88263
1.88453
1.88567
1.88613
1.88616
1.88607
1.88616
1.88669
1.88784
1.8897
1.89226
1.89543
1.89904
1.90296
1.90703
1.91114
1.91519
1.91911
1.92283
1.92631
1.92953
1.93251
1.93526
1.9378
1.94015
1.94232
1.94431
1.94612
1.94774
1.9492
1.95051
1.9517
1.95278
1.95378
1.95469
1.95549
1.95629
1.86829
1.87155
1.87405
1.87659
1.8785
1.87964
1.88008
1.88007
1.87991
1.87992
1.88036
1.88143
1.88319
1.88565
1.88871
1.89222
1.89603
1.89999
1.90399
1.90792
1.91172
1.91532
1.91867
1.92178
1.92464
1.92728
1.92972
1.93197
1.93403
1.93593
1.93763
1.93916
1.94052
1.94173
1.94282
1.9438
1.9447
1.9455
1.94618
1.94686
1.86207
1.86543
1.86797
1.87054
1.87246
1.8736
1.87402
1.87396
1.87374
1.87368
1.87405
1.87503
1.87671
1.87908
1.88203
1.88544
1.88913
1.89299
1.89687
1.90069
1.90436
1.90782
1.91105
1.91404
1.91679
1.91932
1.92165
1.9238
1.92577
1.92756
1.92917
1.9306
1.93186
1.93298
1.93397
1.93486
1.93565
1.93634
1.93691
1.93749
1.85586
1.8593
1.86188
1.86448
1.86641
1.86754
1.86793
1.86784
1.86757
1.86745
1.86775
1.86866
1.87026
1.87253
1.87539
1.87868
1.88227
1.88602
1.88978
1.89348
1.89702
1.90035
1.90345
1.90632
1.90896
1.91138
1.91361
1.91565
1.91752
1.91921
1.92073
1.92207
1.92324
1.92426
1.92517
1.92596
1.92665
1.92724
1.9277
1.92817
1.84964
1.85316
1.85578
1.8584
1.86034
1.86146
1.86183
1.86169
1.86138
1.86121
1.86145
1.86229
1.86382
1.86601
1.86877
1.87196
1.87544
1.87907
1.88273
1.8863
1.8897
1.8929
1.89588
1.89863
1.90115
1.90347
1.90559
1.90753
1.9093
1.9109
1.91232
1.91357
1.91465
1.91559
1.91641
1.91711
1.91771
1.9182
1.91855
1.91892
1.84341
1.847
1.84965
1.8523
1.85424
1.85534
1.85569
1.85552
1.85517
1.85495
1.85515
1.85594
1.85739
1.8595
1.86217
1.86527
1.86864
1.87216
1.87569
1.87913
1.88241
1.88548
1.88832
1.89095
1.89337
1.89558
1.89759
1.89943
1.90111
1.90262
1.90395
1.90511
1.90611
1.90697
1.90771
1.90833
1.90884
1.90923
1.90948
1.90975
1.83717
1.84083
1.84351
1.84617
1.84811
1.8492
1.84952
1.84932
1.84893
1.84868
1.84884
1.84958
1.85098
1.85302
1.8556
1.8586
1.86187
1.86527
1.86868
1.87199
1.87514
1.87807
1.88079
1.8833
1.88561
1.88771
1.88962
1.89137
1.89295
1.89437
1.89562
1.8967
1.89762
1.89841
1.89907
1.89961
1.90004
1.90035
1.90051
1.90068
1.8309
1.83463
1.83733
1.84001
1.84195
1.84302
1.84331
1.84308
1.84266
1.84238
1.84251
1.84322
1.84457
1.84655
1.84905
1.85195
1.85511
1.8584
1.86169
1.86487
1.86788
1.87068
1.87328
1.87568
1.87787
1.87987
1.88168
1.88333
1.88483
1.88616
1.88733
1.88833
1.88919
1.88991
1.8905
1.89097
1.89132
1.89155
1.89162
1.89172
1.8246
1.8284
1.83113
1.83381
1.83574
1.8368
1.83706
1.8368
1.83635
1.83606
1.83617
1.83685
1.83817
1.84009
1.84251
1.84532
1.84837
1.85155
1.85472
1.85777
1.86064
1.86332
1.8658
1.86808
1.87016
1.87205
1.87377
1.87533
1.87674
1.87799
1.87908
1.88002
1.88081
1.88147
1.882
1.88241
1.88269
1.88285
1.88285
1.88286
1.81827
1.82214
1.82489
1.82758
1.8295
1.83053
1.83076
1.83047
1.83001
1.8297
1.82981
1.83048
1.83177
1.83363
1.83598
1.8387
1.84165
1.84472
1.84776
1.85068
1.85343
1.85597
1.85833
1.86049
1.86247
1.86426
1.86589
1.86736
1.86869
1.86987
1.87089
1.87176
1.87249
1.8731
1.87358
1.87393
1.87416
1.87425
1.87419
1.87413
1.8119
1.81584
1.81861
1.8213
1.82321
1.82421
1.82442
1.82411
1.82363
1.82332
1.82343
1.8241
1.82537
1.82719
1.82947
1.83209
1.83494
1.83789
1.84081
1.84361
1.84622
1.84865
1.85089
1.85294
1.8548
1.8565
1.85803
1.85943
1.86068
1.86178
1.86273
1.86355
1.86423
1.86479
1.86523
1.86554
1.86572
1.86576
1.86565
1.86554
1.80549
1.8095
1.81229
1.81499
1.81687
1.81784
1.81802
1.81769
1.81721
1.81691
1.81704
1.81771
1.81896
1.82074
1.82295
1.82549
1.82824
1.83108
1.83387
1.83654
1.83903
1.84134
1.84346
1.8454
1.84716
1.84876
1.85021
1.85152
1.8527
1.85373
1.85463
1.85539
1.85603
1.85656
1.85696
1.85723
1.85738
1.85739
1.85724
1.85709
1.79903
1.80312
1.80593
1.80862
1.81047
1.81142
1.81158
1.81123
1.81075
1.81047
1.81062
1.81131
1.81255
1.8143
1.81645
1.8189
1.82155
1.82427
1.82694
1.82948
1.83185
1.83404
1.83605
1.83788
1.83954
1.84105
1.84241
1.84365
1.84475
1.84572
1.84656
1.84728
1.84789
1.84839
1.84876
1.84902
1.84914
1.84914
1.84897
1.8488
1.79251
1.79669
1.79951
1.8022
1.80403
1.80494
1.80507
1.80472
1.80425
1.804
1.80418
1.80489
1.80614
1.80785
1.80994
1.81232
1.81487
1.81747
1.82002
1.82244
1.82469
1.82676
1.82866
1.83039
1.83195
1.83336
1.83464
1.8358
1.83683
1.83774
1.83853
1.83922
1.83979
1.84027
1.84063
1.84088
1.841
1.841
1.84084
1.84066
1.78595
1.79021
1.79305
1.79572
1.79752
1.7984
1.79851
1.79816
1.79772
1.7975
1.79772
1.79847
1.79971
1.8014
1.80344
1.80574
1.80819
1.81068
1.81311
1.8154
1.81753
1.81949
1.82129
1.82291
1.82438
1.8257
1.82689
1.82797
1.82894
1.82979
1.83053
1.83118
1.83173
1.8322
1.83256
1.83281
1.83295
1.83297
1.83285
1.8327
1.77933
1.78368
1.78652
1.78918
1.79095
1.7918
1.7919
1.79155
1.79114
1.79098
1.79125
1.79203
1.79328
1.79495
1.79694
1.79917
1.80152
1.8039
1.8062
1.80838
1.81039
1.81224
1.81393
1.81545
1.81682
1.81805
1.81916
1.82016
1.82105
1.82185
1.82255
1.82316
1.8237
1.82415
1.82452
1.8248
1.82498
1.82505
1.82499
1.8249
1.77264
1.77709
1.77994
1.78258
1.78432
1.78514
1.78522
1.7849
1.78453
1.78443
1.78476
1.78558
1.78685
1.7885
1.79045
1.7926
1.79486
1.79713
1.79931
1.80136
1.80326
1.805
1.80658
1.808
1.80928
1.81042
1.81144
1.81236
1.81318
1.81392
1.81457
1.81515
1.81567
1.81613
1.81651
1.81682
1.81706
1.81721
1.81725
1.81727
1.7659
1.77044
1.7733
1.77593
1.77763
1.77842
1.7785
1.7782
1.7779
1.77786
1.77826
1.77912
1.78041
1.78205
1.78396
1.78604
1.78821
1.79036
1.79243
1.79436
1.79614
1.79777
1.79925
1.80057
1.80175
1.8028
1.80373
1.80457
1.80531
1.80598
1.80659
1.80714
1.80764
1.8081
1.8085
1.80885
1.80916
1.80942
1.8096
1.80978
1.7591
1.76374
1.7666
1.76921
1.77088
1.77164
1.77173
1.77147
1.77123
1.77127
1.77174
1.77266
1.77397
1.7756
1.77747
1.77949
1.78157
1.78361
1.78556
1.78737
1.78904
1.79055
1.79193
1.79315
1.79423
1.79519
1.79603
1.79678
1.79744
1.79805
1.7986
1.7991
1.79958
1.80003
1.80045
1.80086
1.80125
1.80164
1.80199
1.80238
1.75223
1.75698
1.75985
1.76243
1.76407
1.76481
1.76491
1.76471
1.76454
1.76467
1.76522
1.76619
1.76753
1.76915
1.77098
1.77294
1.77493
1.77687
1.77871
1.7804
1.78195
1.78335
1.78462
1.78574
1.78673
1.78758
1.78833
1.78899
1.78957
1.79009
1.79058
1.79103
1.79147
1.7919
1.79234
1.79279
1.79327
1.79379
1.79436
1.79504
1.74531
1.75016
1.75304
1.7556
1.7572
1.75793
1.75805
1.75791
1.75784
1.75806
1.75869
1.75972
1.76109
1.7627
1.7645
1.7664
1.7683
1.77014
1.77186
1.77344
1.77487
1.77617
1.77733
1.77835
1.77923
1.77999
1.78064
1.7812
1.78168
1.78212
1.78253
1.78291
1.78329
1.78368
1.7841
1.78457
1.78512
1.78579
1.78662
1.7877
1.73834
1.7433
1.74617
1.74871
1.75028
1.751
1.75116
1.75109
1.75112
1.75144
1.75217
1.75326
1.75465
1.75626
1.75803
1.75986
1.76168
1.76342
1.76503
1.76649
1.76782
1.769
1.77006
1.77097
1.77176
1.77241
1.77295
1.77341
1.77379
1.77413
1.77444
1.77474
1.77503
1.77534
1.77569
1.77611
1.77667
1.77745
1.77861
1.78039
1.73132
1.73638
1.73925
1.74176
1.7433
1.74403
1.74424
1.74425
1.74438
1.74483
1.74564
1.7468
1.74822
1.74983
1.75156
1.75334
1.75508
1.75672
1.75822
1.75958
1.76079
1.76186
1.76281
1.76362
1.7643
1.76484
1.76528
1.76562
1.7659
1.76613
1.76633
1.76651
1.76668
1.76686
1.76707
1.76734
1.76772
1.7683
1.76932
1.77173
2.12021
2.13437
2.14733
2.16089
2.17429
2.18778
2.20127
2.21474
2.22826
2.2418
2.25533
2.2689
2.28253
2.29625
2.31016
2.32424
2.33846
2.35281
2.36736
2.38217
2.39725
2.41259
2.42819
2.44403
2.46012
2.47647
2.49304
2.50988
2.52685
2.54417
2.56142
2.57913
2.59639
2.61443
2.63136
2.64989
2.66581
2.68584
2.69848
2.72477
2.11155
2.12638
2.13973
2.15363
2.16718
2.18092
2.19458
2.2081
2.22169
2.23537
2.249
2.26256
2.27623
2.29007
2.30404
2.31809
2.33233
2.34675
2.36136
2.37615
2.39123
2.4066
2.4222
2.43806
2.45415
2.47047
2.48701
2.50386
2.52085
2.53813
2.5554
2.57311
2.59039
2.60843
2.62538
2.64392
2.6599
2.67995
2.69266
2.71901
2.10277
2.11829
2.13203
2.14627
2.16002
2.17398
2.1878
2.20139
2.21507
2.22888
2.24259
2.25616
2.26988
2.28382
2.29784
2.31189
2.32614
2.34064
2.35529
2.37007
2.38515
2.40056
2.41615
2.43203
2.44812
2.46442
2.48095
2.49781
2.51483
2.53208
2.54938
2.56709
2.5844
2.60246
2.61943
2.638
2.65403
2.67411
2.68689
2.71329
2.0939
2.1101
2.12421
2.13885
2.15281
2.16695
2.18091
2.19465
2.20842
2.2223
2.23608
2.24972
2.2635
2.27749
2.29155
2.30564
2.31994
2.33446
2.34913
2.36395
2.37905
2.39445
2.41005
2.42594
2.44203
2.45833
2.47487
2.49174
2.50877
2.52604
2.54335
2.56109
2.57841
2.59651
2.61351
2.63213
2.6482
2.66833
2.68118
2.70763
2.08493
2.10182
2.11628
2.13135
2.14555
2.15985
2.17395
2.18785
2.20173
2.21566
2.22949
2.24324
2.25707
2.27108
2.28519
2.29934
2.31369
2.32822
2.34291
2.35778
2.3729
2.3883
2.40391
2.41979
2.43588
2.45221
2.46877
2.48564
2.50267
2.52
2.53731
2.55509
2.57244
2.59058
2.60762
2.6263
2.6424
2.66261
2.67552
2.70203
2.07584
2.09346
2.10829
2.12378
2.13822
2.15269
2.16693
2.18098
2.19498
2.20896
2.22285
2.2367
2.25059
2.26463
2.27879
2.29299
2.30738
2.32194
2.33664
2.35156
2.3667
2.3821
2.39772
2.4136
2.4297
2.44605
2.46264
2.47952
2.49656
2.51394
2.53128
2.5491
2.56648
2.58468
2.60176
2.62051
2.63666
2.65694
2.66993
2.6965
2.06666
2.08501
2.10023
2.11614
2.13083
2.14548
2.15986
2.17406
2.18816
2.20221
2.21617
2.2301
2.24405
2.25813
2.27233
2.28659
2.30102
2.31561
2.33033
2.34528
2.36044
2.37585
2.39148
2.40737
2.42348
2.43986
2.45647
2.47338
2.49044
2.50787
2.52524
2.54311
2.56053
2.57879
2.59593
2.61475
2.63096
2.65132
2.66439
2.69103
2.05738
2.07649
2.09211
2.10844
2.12337
2.13822
2.15275
2.16708
2.18129
2.19542
2.20943
2.22345
2.23745
2.25158
2.26583
2.28014
2.29461
2.30923
2.32398
2.33896
2.35415
2.36956
2.3852
2.40111
2.41722
2.43363
2.45027
2.46721
2.48431
2.50179
2.5192
2.53712
2.5546
2.57292
2.59012
2.60903
2.62531
2.64576
2.65891
2.68564
2.04802
2.06791
2.08393
2.10069
2.11586
2.1309
2.14559
2.16005
2.17437
2.18858
2.20266
2.21674
2.23081
2.24498
2.25928
2.27365
2.28815
2.30281
2.31759
2.33259
2.3478
2.36323
2.37889
2.3948
2.41094
2.42737
2.44404
2.46103
2.47817
2.49569
2.51316
2.53113
2.54868
2.56707
2.58435
2.60334
2.61971
2.64024
2.65349
2.6803
2.03859
2.05927
2.0757
2.09289
2.10831
2.12355
2.13838
2.15298
2.1674
2.18169
2.19585
2.21
2.22413
2.23834
2.25268
2.26711
2.28165
2.29634
2.31115
2.32618
2.34142
2.35686
2.37253
2.38845
2.40462
2.42109
2.43779
2.45482
2.472
2.48957
2.50711
2.52514
2.54276
2.56124
2.5786
2.59769
2.61415
2.63477
2.64812
2.67502
2.02909
2.05058
2.06743
2.08505
2.10071
2.11615
2.13114
2.14587
2.16039
2.17477
2.189
2.20321
2.2174
2.23167
2.24605
2.26053
2.27511
2.28984
2.30468
2.31972
2.33499
2.35044
2.36614
2.38207
2.39827
2.41477
2.43151
2.44858
2.46582
2.48344
2.50104
2.51915
2.53685
2.55542
2.57287
2.59207
2.60863
2.62935
2.6428
2.66981
2.01954
2.04185
2.05912
2.07717
2.09307
2.10872
2.12386
2.13872
2.15334
2.16782
2.18212
2.1964
2.21064
2.22497
2.23939
2.25392
2.26853
2.28329
2.29816
2.31323
2.32852
2.34399
2.3597
2.37566
2.39189
2.40843
2.4252
2.44233
2.45962
2.4773
2.49497
2.51316
2.53095
2.54962
2.56717
2.58648
2.60316
2.62398
2.63754
2.66465
2.00995
2.03309
2.05079
2.06926
2.08541
2.10126
2.11655
2.13153
2.14627
2.16083
2.17521
2.18955
2.20386
2.21824
2.2327
2.24727
2.26192
2.2767
2.29161
2.3067
2.32201
2.3375
2.35324
2.36922
2.38548
2.40206
2.41888
2.43605
2.45339
2.47114
2.48889
2.50716
2.52505
2.54383
2.56149
2.58092
2.59772
2.61866
2.63232
2.65955
2.00032
2.02431
2.04244
2.06134
2.07772
2.09377
2.10921
2.12432
2.13917
2.15382
2.16828
2.18268
2.19704
2.21148
2.22598
2.2406
2.25527
2.27008
2.28502
2.30013
2.31547
2.33097
2.34674
2.36275
2.37904
2.39566
2.41252
2.42975
2.44714
2.46497
2.48281
2.50116
2.51916
2.53805
2.55584
2.57538
2.59232
2.61338
2.62715
2.65451
1.99067
2.01552
2.03408
2.05339
2.07001
2.08626
2.10185
2.11709
2.13205
2.14678
2.16133
2.17579
2.1902
2.2047
2.21924
2.23389
2.2486
2.26343
2.2784
2.29353
2.3089
2.32442
2.3402
2.35626
2.37258
2.38923
2.40614
2.42342
2.44088
2.45879
2.47671
2.49516
2.51326
2.53229
2.55021
2.56988
2.58695
2.60816
2.62204
2.64952
1.98101
2.00672
2.02572
2.04543
2.06229
2.07873
2.09447
2.10984
2.12491
2.13973
2.15435
2.16887
2.18335
2.1979
2.21247
2.22715
2.2419
2.25675
2.27176
2.2869
2.30229
2.31783
2.33364
2.34973
2.36609
2.38278
2.39974
2.41708
2.4346
2.45258
2.4706
2.48915
2.50738
2.52654
2.5446
2.56441
2.58162
2.60298
2.61697
2.64458
1.97136
1.99794
2.01737
2.03747
2.05456
2.07118
2.08708
2.10257
2.11775
2.13266
2.14736
2.16194
2.17647
2.19107
2.20568
2.22039
2.23517
2.25005
2.26509
2.28025
2.29565
2.31122
2.32705
2.34318
2.35958
2.37631
2.39331
2.41072
2.4283
2.44636
2.46448
2.48314
2.5015
2.5208
2.53901
2.55896
2.57633
2.59784
2.61196
2.6397
1.96171
1.98918
2.00903
2.02951
2.04682
2.06363
2.07968
2.0953
2.11058
2.12558
2.14035
2.155
2.16958
2.18422
2.19887
2.21361
2.22843
2.24333
2.25839
2.27357
2.28898
2.30459
2.32044
2.3366
2.35304
2.36981
2.38686
2.40433
2.42198
2.44013
2.45834
2.47713
2.49561
2.51506
2.53344
2.55355
2.57107
2.59275
2.607
2.63488
1.9521
1.98045
2.00073
2.02156
2.03909
2.05607
2.07228
2.08802
2.10341
2.11849
2.13334
2.14805
2.16268
2.17737
2.19205
2.20682
2.22167
2.23659
2.25167
2.26686
2.28229
2.29793
2.3138
2.33
2.34647
2.36328
2.38039
2.39791
2.41565
2.43388
2.4522
2.47111
2.48973
2.50933
2.52787
2.54817
2.56584
2.58771
2.60211
2.63013
1.94252
1.97176
1.99247
2.01361
2.03136
2.04852
2.06488
2.08075
2.09624
2.1114
2.12633
2.14109
2.15578
2.1705
2.18522
2.20002
2.21489
2.22983
2.24493
2.26014
2.27558
2.29124
2.30715
2.32337
2.33989
2.35674
2.37389
2.39148
2.4093
2.42762
2.44604
2.46509
2.48385
2.50361
2.52232
2.54281
2.56066
2.58272
2.59728
2.62544
1.93301
1.96313
1.98425
2.00569
2.02365
2.04098
2.05749
2.07348
2.08907
2.10432
2.11932
2.13413
2.14888
2.16364
2.17839
2.19322
2.20811
2.22306
2.23818
2.25341
2.26886
2.28454
2.30047
2.31672
2.33328
2.35017
2.36738
2.38503
2.40292
2.42134
2.43987
2.45905
2.47796
2.49789
2.51678
2.53748
2.55552
2.57778
2.59251
2.62082
1.92356
1.95457
1.97608
1.99779
2.01596
2.03346
2.05011
2.06622
2.08191
2.09724
2.11231
2.12718
2.14198
2.15678
2.17155
2.18641
2.20131
2.21628
2.23141
2.24666
2.26211
2.27782
2.29378
2.31005
2.32666
2.34358
2.36085
2.37855
2.39653
2.41504
2.43368
2.453
2.47207
2.49218
2.51125
2.53217
2.55041
2.5729
2.5878
2.61627
1.9142
1.94608
1.96798
1.98992
2.0083
2.02596
2.04276
2.05899
2.07477
2.09018
2.10532
2.12024
2.13508
2.14991
2.16471
2.1796
2.19451
2.20949
2.22463
2.23989
2.25535
2.27108
2.28707
2.30335
2.32002
2.33697
2.3543
2.37207
2.39012
2.40873
2.42748
2.44694
2.46616
2.48645
2.50572
2.52687
2.54534
2.56806
2.58315
2.6118
1.90494
1.93767
1.95994
1.98209
2.00067
2.01848
2.03543
2.05178
2.06766
2.08314
2.09834
2.1133
2.12819
2.14306
2.15788
2.17278
2.1877
2.20269
2.21784
2.23311
2.24857
2.26432
2.28034
2.29665
2.31335
2.33035
2.34772
2.36556
2.3837
2.4024
2.42126
2.44086
2.46023
2.48072
2.50019
2.52159
2.54031
2.56328
2.57858
2.60741
1.8958
1.92935
1.95198
1.97429
1.99308
2.01105
2.02814
2.04461
2.06057
2.07612
2.09139
2.10639
2.12132
2.13621
2.15104
2.16596
2.18089
2.19589
2.21104
2.22632
2.24179
2.25754
2.2736
2.28992
2.30667
2.3237
2.34113
2.35904
2.37725
2.39605
2.41502
2.43477
2.45429
2.47498
2.49466
2.51631
2.5353
2.55855
2.57407
2.60309
1.88679
1.92113
1.94409
1.96654
1.98554
2.00365
2.02089
2.03747
2.05352
2.06913
2.08446
2.0995
2.11446
2.12938
2.14422
2.15915
2.17409
2.18909
2.20424
2.21952
2.23499
2.25076
2.26684
2.28319
2.29997
2.31705
2.33452
2.35249
2.37078
2.38967
2.40876
2.42864
2.44833
2.46921
2.48912
2.51105
2.53032
2.55388
2.56963
2.59886
1.87793
1.91301
1.93628
1.95888
1.97804
1.99631
2.01369
2.03038
2.04651
2.06219
2.07756
2.09264
2.10763
2.12256
2.13742
2.15234
2.16728
2.18229
2.19743
2.21272
2.22819
2.24397
2.26007
2.27644
2.29325
2.31038
2.32789
2.34593
2.36429
2.38327
2.40248
2.4225
2.44234
2.46342
2.48358
2.50578
2.52536
2.54926
2.56527
2.59472
1.86924
1.905
1.92855
1.95129
1.97061
1.98902
2.00654
2.02334
2.03955
2.05528
2.0707
2.08581
2.10083
2.11577
2.13063
2.14555
2.16048
2.17548
2.19062
2.20591
2.22138
2.23717
2.25329
2.26968
2.28651
2.30369
2.32125
2.33934
2.35778
2.37685
2.39617
2.41632
2.43632
2.45761
2.47802
2.50053
2.52043
2.54468
2.56098
2.59067
1.86073
1.89709
1.92088
1.9437
1.96324
1.98181
1.99946
2.01636
2.03263
2.04842
2.06388
2.07902
2.09406
2.109
2.12386
2.13877
2.1537
2.16869
2.18381
2.1991
2.21457
2.23036
2.24649
2.26291
2.27976
2.29699
2.31459
2.33274
2.35125
2.3704
2.38982
2.41012
2.43028
2.45178
2.47243
2.49526
2.51551
2.54016
2.55679
2.58674
1.85243
1.88928
1.91328
1.93628
1.95595
1.97467
1.99244
2.00944
2.02578
2.04163
2.05712
2.07228
2.08733
2.10226
2.11711
2.132
2.14692
2.1619
2.177
2.19228
2.20775
2.22355
2.23969
2.25613
2.273
2.29027
2.3079
2.32611
2.3447
2.36392
2.38345
2.40388
2.4242
2.44591
2.46683
2.48999
2.51061
2.53568
2.55268
2.58292
1.84435
1.88158
1.90576
1.9289
1.94875
1.96762
1.98551
2.00261
2.019
2.03489
2.05042
2.06559
2.08064
2.09555
2.11039
2.12526
2.14016
2.15512
2.1702
2.18547
2.20094
2.21673
2.23288
2.24934
2.26623
2.28354
2.30121
2.31946
2.33812
2.35742
2.37704
2.3976
2.41809
2.44001
2.46119
2.4847
2.50571
2.53125
2.54867
2.57924
1.83651
1.87396
1.8983
1.92156
1.94165
1.96067
1.97868
1.99585
2.01231
2.02823
2.04378
2.05896
2.074
2.08889
2.10371
2.11855
2.13342
2.14835
2.16341
2.17867
2.19413
2.20991
2.22607
2.24255
2.25944
2.27678
2.29449
2.31278
2.33151
2.35088
2.37061
2.39129
2.41194
2.43407
2.45552
2.47938
2.50082
2.52686
2.54477
2.57571
1.82894
1.86642
1.89091
1.91428
1.93466
1.95384
1.97194
1.9892
2.0057
2.02165
2.03721
2.05238
2.06741
2.08227
2.09705
2.11187
2.1267
2.1416
2.15663
2.17187
2.18732
2.2031
2.21926
2.23575
2.25265
2.27002
2.28776
2.30609
2.32488
2.34432
2.36413
2.38494
2.40575
2.42809
2.44981
2.47403
2.49592
2.52251
2.54099
2.57235
1.82163
1.85895
1.88361
1.9071
1.92778
1.94712
1.96532
1.98264
1.99918
2.01516
2.03072
2.04587
2.06087
2.0757
2.09044
2.10522
2.12
2.13488
2.14987
2.16509
2.18053
2.19629
2.21245
2.22895
2.24584
2.26324
2.28102
2.29937
2.31822
2.33773
2.35762
2.37855
2.39951
2.42206
2.44405
2.46864
2.49101
2.5182
2.53732
2.56919
1.81461
1.85156
1.87641
1.90006
1.92106
1.94054
1.95882
1.9762
1.99277
2.00875
2.0243
2.03943
2.05439
2.06918
2.08388
2.09861
2.11334
2.12818
2.14313
2.15832
2.17374
2.18949
2.20564
2.22214
2.23903
2.25645
2.27425
2.29263
2.31152
2.3311
2.35108
2.37211
2.39323
2.41598
2.43825
2.4632
2.48608
2.51391
2.53379
2.56625
1.80788
1.84427
1.86939
1.89322
1.91451
1.93412
1.95249
1.9699
1.98649
2.00246
2.01798
2.03308
2.048
2.06273
2.07737
2.09205
2.10672
2.12152
2.13643
2.15158
2.16698
2.18271
2.19883
2.21533
2.23222
2.24964
2.26747
2.28587
2.30481
2.32445
2.34449
2.36563
2.3869
2.40984
2.43238
2.45771
2.48111
2.50964
2.5304
2.56357
1.80152
1.83718
1.86262
1.88665
1.90818
1.92792
1.94634
1.96377
1.98036
1.99631
2.01179
2.02684
2.0417
2.05637
2.07094
2.08555
2.10016
2.1149
2.12976
2.14487
2.16024
2.17594
2.19204
2.20852
2.2254
2.24282
2.26067
2.2791
2.29806
2.31776
2.33787
2.35911
2.38052
2.40365
2.42646
2.45214
2.4761
2.50537
2.52716
2.56121
1.79548
1.83014
1.85592
1.88017
1.90194
1.92177
1.94023
1.95766
1.97424
1.99015
2.00557
2.02057
2.03536
2.04996
2.06446
2.079
2.09354
2.10822
2.12303
2.13809
2.15343
2.1691
2.18516
2.20163
2.2185
2.23591
2.25378
2.27223
2.29122
2.31097
2.33116
2.35249
2.37404
2.39735
2.42043
2.44647
2.47099
2.50105
2.52406
2.55922
1.78934
1.82263
1.84881
1.8733
1.89535
1.91528
1.93379
1.95124
1.9678
1.98369
1.99907
2.01403
2.02876
2.0433
2.05774
2.0722
2.08669
2.10131
2.11608
2.1311
2.14641
2.16206
2.1781
2.19455
2.21142
2.22883
2.24671
2.2652
2.28423
2.30403
2.32429
2.34572
2.36741
2.39091
2.41425
2.44063
2.46574
2.49663
2.52109
2.55767
1.7838
1.81565
1.8421
1.86666
1.88886
1.90889
1.92742
1.94487
1.96143
1.9773
1.99265
2.00758
2.02226
2.03675
2.05115
2.06555
2.07999
2.09456
2.10929
2.12428
2.13956
2.15518
2.17119
2.18763
2.2045
2.2219
2.2398
2.2583
2.27735
2.2972
2.31753
2.33903
2.36085
2.38449
2.40807
2.43474
2.46042
2.49206
2.51814
2.55645
1.76918
1.80021
1.82688
1.85133
1.87345
1.89325
1.91152
1.92876
1.94517
1.9609
1.97608
1.99085
2.00532
2.0196
2.03379
2.04798
2.06223
2.07662
2.09119
2.10602
2.12117
2.13666
2.15255
2.16888
2.18569
2.203
2.22087
2.23936
2.25843
2.27832
2.29877
2.32038
2.34246
2.36636
2.39047
2.41772
2.44471
2.4781
2.50876
2.55253
1.73528
1.76596
1.79193
1.81579
1.838
1.85783
1.87609
1.8933
1.90968
1.92538
1.94053
1.95529
1.96976
1.98405
1.99826
2.01247
2.02676
2.04119
2.05584
2.07075
2.08597
2.10155
2.11754
2.13399
2.15091
2.16837
2.18639
2.20505
2.22432
2.24441
2.26512
2.28702
2.30945
2.33377
2.35845
2.38646
2.41467
2.44987
2.48353
2.53047
1.70163
1.73136
1.75675
1.78057
1.80223
1.82187
1.84002
1.85716
1.87349
1.88915
1.90429
1.91904
1.93351
1.94782
1.96206
1.97631
1.99065
2.00514
2.01987
2.03486
2.05017
2.06587
2.08199
2.09856
2.11562
2.13324
2.15143
2.17028
2.18976
2.21008
2.23106
2.25326
2.27605
2.3008
2.32601
2.35469
2.38377
2.41999
2.45479
2.50284
1.66766
1.69642
1.72109
1.7443
1.76581
1.78528
1.80328
1.82032
1.83658
1.85218
1.86729
1.88202
1.89649
1.9108
1.92506
1.93935
1.95374
1.96829
1.98309
1.99816
2.01357
2.02938
2.04561
2.06232
2.07954
2.09733
2.1157
2.13475
2.15445
2.17502
2.19629
2.21879
2.24194
2.26709
2.29276
2.32194
2.35159
2.38829
2.42345
2.47176
1.63339
1.66113
1.68506
1.70773
1.72895
1.7482
1.766
1.7829
1.79906
1.81459
1.82966
1.84438
1.85885
1.87318
1.88747
1.9018
1.91625
1.93088
1.94575
1.96091
1.97643
1.99236
2.00872
2.02558
2.04296
2.06092
2.07948
2.09873
2.11866
2.13947
2.161
2.18378
2.20724
2.2327
2.25874
2.28822
2.31817
2.35498
2.39009
2.43827
1.59858
1.62538
1.64855
1.67066
1.69154
1.71053
1.72814
1.74488
1.76092
1.77639
1.79142
1.80611
1.82058
1.83493
1.84926
1.86364
1.87816
1.89286
1.90782
1.92309
1.93873
1.95478
1.97129
1.9883
2.00584
2.02397
2.04273
2.06218
2.08232
2.10335
2.12512
2.14814
2.17186
2.19756
2.22383
2.25348
2.28353
2.32025
2.3551
2.40301
1.56314
1.58904
1.61147
1.63304
1.65357
1.67231
1.68969
1.70626
1.72218
1.73756
1.75253
1.76721
1.78168
1.79606
1.81042
1.82486
1.83944
1.85423
1.86929
1.88467
1.90043
1.91662
1.93327
1.95043
1.96814
1.98645
2.00539
2.02503
2.04538
2.06661
2.08859
2.11181
2.13573
2.16161
2.18803
2.21774
2.24777
2.28429
2.31876
2.36631
1.52696
1.55204
1.57376
1.5948
1.61498
1.63345
1.6506
1.66699
1.68277
1.69807
1.71299
1.72763
1.74211
1.75651
1.77092
1.78541
1.80007
1.81494
1.83011
1.8456
1.86149
1.87781
1.89461
1.91193
1.9298
1.94828
1.9674
1.98722
2.00775
2.02917
2.05133
2.07472
2.0988
2.1248
2.15131
2.18102
2.21096
2.2472
2.28122
2.32838
1.48998
1.51431
1.53537
1.55589
1.57571
1.59393
1.61084
1.62704
1.64269
1.65789
1.67275
1.68737
1.70184
1.71626
1.73071
1.74526
1.75999
1.77496
1.79022
1.80584
1.82185
1.8383
1.85525
1.87272
1.89076
1.9094
1.92869
1.94868
1.96938
1.99096
2.01328
2.03682
2.06102
2.0871
2.11366
2.14333
2.17312
2.20906
2.2426
2.28936
1.45215
1.4758
1.49623
1.51624
1.53574
1.5537
1.57039
1.5864
1.6019
1.617
1.63179
1.64637
1.66084
1.67528
1.68976
1.70437
1.71918
1.73423
1.7496
1.76532
1.78146
1.79805
1.81514
1.83276
1.85095
1.86976
1.8892
1.90935
1.9302
1.95194
1.97439
1.99805
2.02235
2.0485
2.07507
2.10468
2.1343
2.16994
2.20297
2.24934
1.41343
1.43645
1.4563
1.47584
1.49501
1.51273
1.52919
1.54501
1.56038
1.57537
1.59009
1.60463
1.61908
1.63353
1.64805
1.66271
1.67759
1.69273
1.70819
1.72403
1.74029
1.75701
1.77424
1.792
1.81034
1.82929
1.84888
1.86918
1.89018
1.91205
1.93463
1.95839
1.98277
2.00897
2.03553
2.06507
2.09452
2.12985
2.16239
2.2084
1.37381
1.39625
1.41555
1.43464
1.4535
1.47099
1.48724
1.50287
1.51809
1.53297
1.54761
1.56211
1.57654
1.59099
1.60554
1.62025
1.63518
1.6504
1.66596
1.68191
1.69828
1.71513
1.73248
1.75039
1.76886
1.78796
1.80769
1.82813
1.84926
1.87125
1.89395
1.91781
1.94226
1.96849
1.99504
2.02451
2.05378
2.08882
2.12088
2.16655
1.33326
1.35516
1.37396
1.39261
1.41117
1.42844
1.44448
1.45993
1.47501
1.48977
1.50433
1.51877
1.53318
1.54762
1.56218
1.57693
1.59193
1.60722
1.62287
1.63892
1.6554
1.67236
1.68984
1.70787
1.72648
1.74571
1.76557
1.78614
1.8074
1.82951
1.85231
1.87625
1.90077
1.92703
1.95357
1.98297
2.01208
2.04686