/*--------------------------------*- C++ -*----------------------------------*\
  =========                 |
  \\      /  F ield         | OpenFOAM: The Open Source CFD Toolbox
   \\    /   O peration     | Website:  https://openfoam.org
    \\  /    A nd           | Version:  7
     \\/     M anipulation  |
\*---------------------------------------------------------------------------*/
FoamFile
{
    version     2.0;
    format      ascii;
    class       surfaceScalarField;
    location    "1.4";
    object      phi;
}
// * * * * * * * * * * * * * * * * * * * * * * * * * * * * * * * * * * * * * //

dimensions      [0 3 -1 0 0 0 0];

internalField   nonuniform List<scalar> 
63520
(
-1.41657e-05
0.00156038
-0.00154622
-4.39331e-05
0.00372016
-0.00369039
-8.18948e-05
0.00510763
-0.00506967
-0.000119258
0.00583995
-0.00580258
-0.000147003
0.00605257
-0.00602482
-0.00015685
0.00587306
-0.00586321
-0.000141858
0.00541115
-0.00542614
-9.67808e-05
0.00475715
-0.00480223
-1.81494e-05
0.00398308
-0.00406171
9.57943e-05
0.00314594
-0.00325988
0.000245178
0.00229034
-0.00243972
0.000428699
0.00145077
-0.00163429
0.000643906
0.00065338
-0.000868587
0.000887479
-8.28264e-05
-0.000160746
0.00115548
-0.000745003
0.000477
0.00144368
-0.0013256
0.0010374
0.00174779
-0.00182154
0.00151743
0.0020637
-0.00223342
0.00191752
0.00238756
-0.00256472
0.00224086
0.00271599
-0.00282099
0.00249256
0.0030461
-0.00300916
0.00267905
0.0033755
-0.00313695
0.00280755
0.00370229
-0.00321233
0.00288554
0.00402502
-0.00324308
0.00292035
0.00434266
-0.0032366
0.00291896
0.00465452
-0.00319965
0.00288779
0.00496019
-0.0031383
0.00283263
0.00525948
-0.00305786
0.00275857
0.00555236
-0.00296284
0.00266995
0.00583896
-0.00285709
0.00257049
0.00611946
-0.00274376
0.00246326
0.00639412
-0.00262543
0.00235078
0.0066632
-0.00250419
0.00223511
0.006927
-0.00238166
0.00211787
0.0071858
-0.00225913
0.00200033
0.00743989
-0.0021376
0.00188351
0.00768948
-0.00201784
0.00176825
0.00793477
-0.00190064
0.00165536
0.00817587
-0.00178543
0.00154433
-0.00166862
0.00841263
0.00143185
-9.99066e-06
0.00157037
-3.13474e-05
0.00374152
-5.81199e-05
0.0051344
-8.27097e-05
0.00586453
-9.69206e-05
0.00606678
-9.30613e-05
0.0058692
-6.46387e-05
0.00538273
-6.63657e-06
0.00469915
8.42697e-05
0.00389218
0.000209723
0.00302048
0.000369751
0.00213031
0.000562961
0.00125756
0.000786814
0.000429526
0.0010379
-0.000333916
0.00131225
-0.00101935
0.00160559
-0.00161894
0.00191364
-0.00212959
0.00223227
-0.00255206
0.00255772
-0.00289018
0.0028867
-0.00314997
0.00321642
-0.00333888
0.00354462
-0.00346515
0.00386953
-0.00353724
0.00418986
-0.00356341
0.00450469
-0.00355143
0.00481346
-0.00350842
0.00511588
-0.00344072
0.00541185
-0.00335383
0.00570145
-0.00325244
0.00598486
-0.0031405
0.00626233
-0.00302123
0.00653415
-0.00289725
0.00680063
-0.00277067
0.00706209
-0.00264312
0.00731882
-0.00251587
0.0075711
-0.00238988
0.0078192
-0.00226593
0.00806327
-0.00214472
0.00830343
-0.00202559
-0.00190478
0.0085396
-6.04035e-06
0.00157641
-1.90139e-05
0.00375449
-3.45072e-05
0.0051499
-4.61123e-05
0.00587614
-4.65359e-05
0.0060672
-2.86661e-05
0.00585133
1.35907e-05
0.00534047
8.50057e-05
0.00462773
0.000188682
0.0037885
0.000326104
0.00288306
0.000497195
0.00195922
0.000700453
0.00105431
0.000933226
0.000196753
0.00119202
-0.000592714
0.00147279
-0.00130011
0.0017712
-0.00191736
0.00208298
-0.00244137
0.00240405
-0.00287313
0.00273073
-0.00321686
0.00305983
-0.00347907
0.0033887
-0.00366775
0.00371522
-0.00379167
0.00403777
-0.0038598
0.0043552
-0.00388084
0.00466677
-0.003863
0.00497203
-0.00381369
0.00527082
-0.0037395
0.00556314
-0.00364615
0.00584915
-0.00353845
0.0061291
-0.00342044
0.00640329
-0.00329542
0.00667207
-0.00316603
0.00693578
-0.00303438
0.00719475
-0.00290209
0.00744931
-0.00277042
0.00769974
-0.00264031
0.00794627
-0.00251246
0.0081891
-0.00238755
0.00842836
-0.00226486
-0.00214042
0.00866401
-2.25915e-06
0.00157867
-6.97287e-06
0.0037592
-1.12258e-05
0.00515415
-9.74671e-06
0.00587466
3.89137e-06
0.00605356
3.61461e-05
0.00581907
9.26752e-05
0.00528394
0.000177958
0.00454245
0.000294886
0.00367157
0.000444755
0.00273319
0.000627329
0.00177664
0.000840969
0.000840665
0.00108289
-4.51731e-05
0.00134949
-0.000859308
0.00163662
-0.00158725
0.00193996
-0.0022207
0.00225522
-0.00275662
0.00257837
-0.00319628
0.00290585
-0.00354434
0.00323459
-0.00380781
0.00356211
-0.00399527
0.00388643
-0.004116
0.00420613
-0.00417949
0.0045202
-0.00419492
0.00482807
-0.00417086
0.00512942
-0.00411504
0.0054242
-0.00403429
0.00571254
-0.00393449
0.00599467
-0.00382058
0.00627091
-0.00369668
0.00654162
-0.00356613
0.00680718
-0.00343159
0.00706796
-0.00329516
0.00732432
-0.00315845
0.0075766
-0.0030227
0.00782506
-0.00288878
0.00806998
-0.00275738
0.00831155
-0.00262911
0.00854988
-0.00250319
-0.00237552
0.00878498
1.29304e-06
0.00157738
4.65621e-06
0.00375584
1.15813e-05
0.00514722
2.61957e-05
0.00586004
5.40485e-05
0.00602571
0.000100962
0.00577216
0.000172156
0.00521275
0.000271743
0.00444286
0.000402381
0.00354093
0.000565144
0.00257043
0.000759587
0.0015822
0.000983893
0.000616358
0.00123513
-0.000296414
0.00150957
-0.00113375
0.00180301
-0.00188068
0.00211106
-0.00252875
0.00242948
-0.00307504
0.00275432
-0.00352113
0.00308215
-0.00387216
0.00341006
-0.00413572
0.00373572
-0.00432092
0.00405735
-0.00443763
0.00437371
-0.00449584
0.00468398
-0.00450519
0.00498771
-0.00447459
0.00528477
-0.0044121
0.00557522
-0.00432474
0.00585927
-0.00421854
0.00613726
-0.00409857
0.00640956
-0.00396899
0.0066766
-0.00383317
0.00693878
-0.00369377
0.0071965
-0.00355288
0.00745014
-0.00341209
0.00770003
-0.00327259
0.00794647
-0.00313522
0.00818971
-0.00300062
0.00842993
-0.00286934
0.00866729
-0.00274054
-0.00261003
0.00890179
4.64744e-06
0.00157273
1.58566e-05
0.00374463
3.37898e-05
0.00512929
6.15099e-05
0.00583232
0.00010371
0.00598351
0.000165538
0.00571033
0.000251742
0.00512654
0.000366057
0.00432854
0.000510832
0.00339615
0.000686874
0.00239438
0.0008935
0.00137557
0.00112869
0.000381166
0.00138935
-0.000557069
0.0016716
-0.001416
0.00197116
-0.00218025
0.00228366
-0.00284125
0.00260488
-0.00339625
0.002931
-0.00384725
0.00325871
-0.00419987
0.00358528
-0.0044623
0.00390858
-0.00464422
0.00422704
-0.00475609
0.0045396
-0.0048084
0.00484562
-0.00481122
0.00514485
-0.00477382
0.00543726
-0.00470451
0.00572306
-0.00461053
0.00600256
-0.00449804
0.00627618
-0.00437219
0.00654436
-0.00423716
0.00680755
-0.00409636
0.0070662
-0.00395242
0.00732075
-0.00380742
0.00757156
-0.0036629
0.00781899
-0.00352001
0.00806333
-0.00337956
0.00830483
-0.00324212
0.00854368
-0.00310819
0.00878002
-0.00297688
-0.00284392
0.0090139
7.77557e-06
0.00156496
2.65664e-05
0.00372584
5.53274e-05
0.00510053
9.60828e-05
0.00579157
0.000152679
0.00592691
0.000229619
0.00563339
0.000331132
0.00502503
0.000460516
0.00419916
0.00061977
0.0032369
0.000809402
0.00220475
0.00102845
0.00115652
0.00127467
0.000134949
0.00154476
-0.000827155
0.00183472
-0.00170596
0.00214021
-0.00248574
0.00245685
-0.00315789
0.00278049
-0.00371989
0.00310743
-0.00417419
0.00343455
-0.00452699
0.0037593
-0.00478705
0.00407976
-0.00496469
0.00439458
-0.00507091
0.0047029
-0.00511673
0.0050043
-0.00511261
0.00529866
-0.00506818
0.00558612
-0.00499198
0.005867
-0.00489142
0.00614172
-0.00477277
0.00641077
-0.00464123
0.00667465
-0.00450104
0.00693385
-0.00435556
0.00718886
-0.00420743
0.00744012
-0.00405868
0.00768802
-0.0039108
0.0079329
-0.0037649
0.00817507
-0.00362173
0.00841478
-0.00348182
0.0086522
-0.00334562
0.00888749
-0.00321216
-0.00307715
0.00912072
1.0688e-05
0.00155427
3.67708e-05
0.00369975
7.61126e-05
0.00506119
0.000129769
0.00573791
0.000200777
0.0058559
0.000292958
0.00554121
0.00040999
0.00490799
0.000554711
0.00405444
0.00072872
0.00306289
0.000932177
0.00200129
0.00116382
0.000924877
0.00142113
-0.00012236
0.00170061
-0.00110663
0.00199813
-0.00200349
0.0023093
-0.00279691
0.00262973
-0.00347832
0.00295538
-0.00404554
0.00328271
-0.00450152
0.00360876
-0.00485304
0.00393121
-0.0051095
0.00424837
-0.00528184
0.00455912
-0.00538165
0.00486281
-0.00542042
0.00515921
-0.00540902
0.00544839
-0.00535736
0.00573063
-0.00527422
0.00600637
-0.00516715
0.00627612
-0.00504252
0.00654044
-0.00490555
0.00679987
-0.00476048
0.00705497
-0.00461066
0.00730624
-0.0044587
0.00755412
-0.00430656
0.00779902
-0.00415571
0.00804129
-0.00400717
0.00828122
-0.00386166
0.00851907
-0.00371966
0.00875501
-0.00358156
0.00898918
-0.00344634
-0.00330969
0.00922172
1.33851e-05
0.00154088
4.64385e-05
0.0036667
9.60804e-05
0.00501155
0.000162457
0.00567153
0.000247821
0.00577054
0.000355302
0.00543372
0.000487999
0.0047753
0.000648249
0.00389418
0.000837209
0.00287393
0.00105465
0.00178385
0.00129898
0.000680551
0.00156738
-0.000390764
0.00185615
-0.00139541
0.00216104
-0.00230838
0.00247758
-0.00311345
0.00280145
-0.00380219
0.0031287
-0.00437279
0.00345596
-0.00482878
0.00378048
-0.00517756
0.00410017
-0.00542919
0.00441359
-0.00559526
0.00471985
-0.00568792
0.00501855
-0.00571912
0.00530965
-0.00570011
0.00559338
-0.00564109
0.00587017
-0.00555101
0.00614057
-0.00543756
0.00640519
-0.00530713
0.00666464
-0.005165
0.00691954
-0.00501537
0.00717044
-0.00486156
0.00741788
-0.00470614
0.00766231
-0.004551
0.00790415
-0.00439754
0.00814373
-0.00424675
0.00838135
-0.00409929
0.00861726
-0.00395557
0.00885165
-0.00381594
0.00908464
-0.00367933
-0.00354145
0.0093164
1.587e-05
0.00152501
5.5556e-05
0.00362701
0.000115176
0.00495193
0.000194045
0.00559267
0.000293647
0.00567093
0.000416422
0.00531095
0.000564859
0.00462686
0.000740755
0.00371829
0.000944787
0.00266989
0.00117631
0.00155232
0.00143334
0.000423519
0.00171278
-0.000670201
0.00201069
-0.00169332
0.0023227
-0.00262038
0.00264429
-0.00343505
0.0029712
-0.0041291
0.00329962
-0.00470121
0.00362635
-0.00515551
0.00394888
-0.00550009
0.00426537
-0.00574568
0.00457464
-0.00590453
0.00487606
-0.00598934
0.00516944
-0.0060125
0.00545496
-0.00598563
0.00573301
-0.00591914
0.00600417
-0.00582217
0.00626909
-0.00570247
0.00652845
-0.0055665
0.00678295
-0.0054195
0.00703322
-0.00526564
0.00727986
-0.00510821
0.00752341
-0.00494969
0.00776434
-0.00479192
0.00800304
-0.00463625
0.00823987
-0.00448358
0.00847511
-0.00433453
0.008709
-0.00418947
0.00894174
-0.00404867
0.00917345
-0.00391105
-0.00377233
0.00940434
1.81467e-05
0.00150686
6.41158e-05
0.00358104
0.000133359
0.00488268
0.000224444
0.00550158
0.000338116
0.00555726
0.000476114
0.00517295
0.000640295
0.00446268
0.000831883
0.0035267
0.00105104
0.00245074
0.00129666
0.00130671
0.00156635
0.000153823
0.0018567
-0.000960553
0.00216355
-0.00200018
0.00248238
-0.00293922
0.00280867
-0.00376133
0.00313822
-0.00445864
0.00346736
-0.00503035
0.00379311
-0.00548126
0.0041132
-0.00582018
0.00442607
-0.00605856
0.00473081
-0.00620928
0.00502706
-0.00628558
0.00531484
-0.00630029
0.00559455
-0.00626533
0.00586673
-0.00619133
0.00613211
-0.00608755
0.00639144
-0.0059618
0.00664548
-0.00582053
0.00689496
-0.00566897
0.00714056
-0.00551125
0.0073829
-0.00535055
0.00762252
-0.00518931
0.00785989
-0.00502929
0.00809541
-0.00487176
0.00832942
-0.00471759
0.00856219
-0.00456731
0.00879398
-0.00442125
0.00902496
-0.00427965
0.00925528
-0.00414137
-0.00400221
0.00948516
2.02249e-05
0.00148664
7.21156e-05
0.00352915
0.000150604
0.00480419
0.000253594
0.00539859
0.000381113
0.00542974
0.000534203
0.00501986
0.000714067
0.00428281
0.000921328
0.00331944
0.00115559
0.00221647
0.00141526
0.00104705
0.00169751
-0.000128431
0.0019986
-0.00126164
0.00231412
-0.0023157
0.00263945
-0.00326454
0.00297003
-0.00409192
0.00330178
-0.00479038
0.00363119
-0.00535976
0.0039555
-0.00580558
0.00427271
-0.00613739
0.00458157
-0.00636741
0.00488144
-0.00650915
0.00517222
-0.00657635
0.00545417
-0.00658225
0.00572788
-0.00653903
0.00599407
-0.00645753
0.00625358
-0.00634706
0.00650725
-0.00621547
0.00675591
-0.0060692
0.00700035
-0.00591341
0.00724127
-0.00575217
0.0074793
-0.00558858
0.00771497
-0.00542498
0.00794875
-0.00526307
0.00818104
-0.00510405
0.00841216
-0.00494871
0.00864239
-0.00479754
0.00887197
-0.00465083
0.00910107
-0.00450875
0.00932986
-0.00437016
-0.00423093
0.00955858
2.21106e-05
0.00146453
7.95611e-05
0.0034717
0.000166904
0.00471685
0.000281453
0.00528404
0.000422551
0.00528864
0.00059055
0.00485186
0.000785978
0.00408738
0.00100883
0.00309659
0.00125812
0.00196718
0.00153171
0.000773455
0.00182635
-0.000423075
0.00213793
-0.00157322
0.00246182
-0.00263959
0.00279326
-0.00359598
0.00312772
-0.00442638
0.00346121
-0.00512387
0.00379041
-0.00568897
0.00411283
-0.006128
0.00442676
-0.00645132
0.00473124
-0.00667189
0.00502593
-0.00680384
0.00531098
-0.0068614
0.00558691
-0.00685818
0.00585448
-0.00680661
0.00611458
-0.00671763
0.00636817
-0.00660064
0.00661616
-0.00646347
0.00685946
-0.0063125
0.00709888
-0.00615283
0.00733513
-0.00598842
0.00756885
-0.00582229
0.00780057
-0.0056567
0.00803074
-0.00549325
0.00825976
-0.00533307
0.00848794
-0.00517688
0.00871554
-0.00502515
0.0089428
-0.00487808
0.00916988
-0.00473584
0.00939698
-0.00459726
-0.00445831
0.00962436
2.38132e-05
0.00144071
8.64668e-05
0.00340905
0.000182264
0.00462105
0.000308001
0.0051583
0.000462376
0.00513427
0.000645053
0.00466918
0.000855871
0.00387656
0.00109416
0.00285829
0.00135833
0.00170301
0.00164568
0.000486111
0.00195247
-0.000729872
0.00227425
-0.001895
0.00260613
-0.00297148
0.00294326
-0.0039331
0.00328113
-0.00476425
0.00361587
-0.00545861
0.0039444
-0.0060175
0.00426449
-0.00644808
0.00457473
-0.00676157
0.00487449
-0.00697165
0.00516371
-0.00709306
0.00544283
-0.00714052
0.0057126
-0.00712795
0.00597395
-0.00706796
0.00622792
-0.00697161
0.00647557
-0.0068483
0.00671792
-0.00670582
0.00695589
-0.00655047
0.00719032
-0.00638726
0.00742195
-0.00622005
0.0076514
-0.00605174
0.00787919
-0.00588449
0.00810577
-0.00571982
0.00833149
-0.00555879
0.00855667
-0.00540207
0.00878157
-0.00525004
0.00900638
-0.0051029
0.00923131
-0.00496077
0.00945653
-0.00482248
-0.00468415
0.00968237
2.53431e-05
0.00141537
9.28533e-05
0.00334154
0.000196702
0.0045172
0.000333244
0.00502176
0.000500563
0.00496695
0.000697649
0.0044721
0.000923634
0.00365058
0.00117717
0.00260476
0.00145601
0.00142417
0.00175686
0.000185262
0.00207551
-0.00104852
0.00240711
-0.0022266
0.00274657
-0.00331094
0.00308892
-0.00427545
0.0034297
-0.00510503
0.0037652
-0.00579411
0.00409257
-0.00634487
0.00440987
-0.00676539
0.00471605
-0.00706775
0.00501078
-0.00726637
0.00529431
-0.00737659
0.00556734
-0.00741355
0.00583083
-0.00739144
0.00608592
-0.00732304
0.00633377
-0.00721946
0.00657553
-0.00709006
0.00681229
-0.00694257
0.00704501
-0.00678319
0.00727455
-0.0066168
0.00750163
-0.00644713
0.00772687
-0.00627698
0.00795078
-0.0061084
0.00817377
-0.00594282
0.0083962
-0.00578122
0.00861835
-0.00562421
0.00884045
-0.00547215
0.00906272
-0.00532517
0.00928534
-0.00518338
0.0095085
-0.00504564
-0.00490822
0.00973257
2.67115e-05
0.00138866
9.87479e-05
0.0032695
0.000210253
0.0044057
0.000357208
0.00487481
0.000537121
0.00478703
0.000748311
0.00426091
0.000989199
0.00340969
0.00125772
0.00233623
0.00155096
0.00113094
0.001865
-0.000128783
0.00219514
-0.00137866
0.00253615
-0.00256761
0.0028827
-0.00365748
0.00322975
-0.0046225
0.00357291
-0.00544819
0.00390864
-0.00612984
0.00423436
-0.0066706
0.00454847
-0.00707949
0.00485023
-0.00736951
0.00513965
-0.00755579
0.00541729
-0.00765424
0.00568411
-0.00768037
0.00594128
-0.00764862
0.00619011
-0.00757187
0.00643188
-0.00746123
0.00666784
-0.00732602
0.00689911
-0.00717384
0.0071267
-0.00701078
0.00735145
-0.00684155
0.00757409
-0.00666977
0.00779522
-0.00649811
0.00801532
-0.00632849
0.00823477
-0.00616228
0.00845392
-0.00600036
0.008673
-0.0058433
0.00889226
-0.0056914
0.00911187
-0.00554478
0.00933203
-0.00540354
0.00955294
-0.00526656
-0.0051303
0.00977502
2.79313e-05
0.00136073
0.000104185
0.00319325
0.000222966
0.00428692
0.000379943
0.00471783
0.000572086
0.00459489
0.000797051
0.00403594
0.00105254
0.0031542
0.00133575
0.00205302
0.00164305
0.000823637
0.00196991
-0.000455649
0.00231111
-0.00171986
0.00266103
-0.00291753
0.00301413
-0.00401058
0.00336532
-0.00497369
0.00371029
-0.00579317
0.00404572
-0.00646527
0.00436931
-0.00699419
0.00467981
-0.00738999
0.00497682
-0.00766652
0.0052607
-0.00783967
0.00553229
-0.00792583
0.00579282
-0.00794089
0.00604366
-0.00789947
0.00628628
-0.00781449
0.00652207
-0.00769702
0.00675234
-0.00755629
0.00697827
-0.00739978
0.00720088
-0.00723338
0.00742099
-0.00706167
0.00763933
-0.00688811
0.00785647
-0.00671524
0.00807285
-0.00654487
0.00828884
-0.00637827
0.00850473
-0.00621625
0.00872075
-0.00605933
0.00893712
-0.00590776
0.00915399
-0.00576166
0.00937156
-0.00562111
0.00959005
-0.00548505
-0.00535016
0.00980992
2.90167e-05
0.00133171
0.000109204
0.00311306
0.000234899
0.00416122
0.000401519
0.00455121
0.000605523
0.00439089
0.000843915
0.00379755
0.00111366
0.00288446
0.0014112
0.00175548
0.00173218
0.000502654
0.00207143
-0.000794897
0.00242318
-0.00207161
0.00278146
-0.00327581
0.00314052
-0.00436964
0.00349523
-0.00532841
0.00384143
-0.00613936
0.004176
-0.00679984
0.00449699
-0.00731518
0.00480347
-0.00769648
0.00509544
-0.00795849
0.00537356
-0.00811779
0.00563899
-0.00819126
0.0058932
-0.0081951
0.00613776
-0.00814403
0.00637425
-0.00805098
0.0066042
-0.00792696
0.00682895
-0.00778105
0.00704972
-0.00762054
0.00726752
-0.00745117
0.00748317
-0.00727733
0.00769738
-0.00710231
0.00791066
-0.00692852
0.00812345
-0.00675766
0.00833607
-0.00659089
0.00854877
-0.00642895
0.00876177
-0.00627232
0.00897522
-0.00612122
0.00918931
-0.00597574
0.00940419
-0.005836
0.00962011
-0.00570097
-0.00556763
0.00983757
2.99838e-05
0.00130173
0.00011385
0.00302919
0.000246126
0.00402895
0.000422022
0.00437531
0.00063752
0.00417539
0.000888974
0.0035461
0.0011726
0.00260083
0.00148408
0.001444
0.0018183
0.000168433
0.00216943
-0.00114602
0.00253117
-0.00243335
0.00289719
-0.00364183
0.00326155
-0.004734
0.00361915
-0.00568601
0.00396594
-0.00648615
0.0042991
-0.007133
0.004617
-0.00763308
0.0049191
-0.00799858
0.00520575
-0.00824514
0.00547795
-0.00838999
0.00573715
-0.00845047
0.00598505
-0.008443
0.0062234
-0.00838238
0.00645391
-0.0082815
0.00667818
-0.00815123
0.00689761
-0.00800049
0.00711343
-0.00783636
0.00732663
-0.00766437
0.00753803
-0.00748873
0.00774829
-0.00731257
0.0079579
-0.00713813
0.00816725
-0.00696701
0.00837662
-0.00680026
0.00858623
-0.00663857
0.00879626
-0.00648234
0.00900684
-0.0063318
0.00921811
-0.00618702
0.00943025
-0.00604813
0.0096435
-0.00591422
-0.00578255
0.00985843
3.08502e-05
0.00127088
0.000118172
0.00294187
0.000256724
0.00389039
0.000441554
0.00419048
0.000668185
0.00394876
0.000932326
0.00328195
0.00122944
0.00230371
0.00155441
0.00111903
0.00190137
-0.000178527
0.00226381
-0.00150846
0.00263491
-0.00280445
0.00300799
-0.00401491
0.00337696
-0.00510298
0.00373675
-0.00604579
0.0040835
-0.0068329
0.00441468
-0.00746418
0.00472903
-0.00794743
0.0050264
-0.00829594
0.00530748
-0.00852623
0.00557364
-0.00865614
0.00582658
-0.00870341
0.00606822
-0.00868464
0.00630048
-0.00861463
0.00652518
-0.0085062
0.00674398
-0.00837003
0.00695832
-0.00821483
0.00716942
-0.00804746
0.00737826
-0.00787322
0.00758564
-0.00769612
0.00779217
-0.0075191
0.00799831
-0.00734427
0.0082044
-0.0071731
0.00841068
-0.00700654
0.00861733
-0.00684522
0.00882448
-0.0066895
0.00903225
-0.00653956
0.00924075
-0.00639552
0.00945014
-0.00625753
0.00966069
-0.00612477
-0.00599487
0.009873
3.16357e-05
0.00123924
0.000122222
0.00285128
0.00026678
0.00374583
0.000460227
0.00399703
0.000697641
0.00371134
0.000974086
0.00300551
0.00128426
0.00199354
0.00162225
0.000781053
0.00198139
-0.000537669
0.00235451
-0.00188159
0.00273427
-0.00318421
0.00311366
-0.0043943
0.0034865
-0.00547581
0.00384776
-0.00640705
0.00419381
-0.00717895
0.00452246
-0.00779282
0.00483281
-0.00825779
0.00512511
-0.00858824
0.00540044
-0.00880155
0.00566045
-0.00891615
0.00590714
-0.00895011
0.00614261
-0.00892011
0.00636893
-0.00884095
0.00658803
-0.00872529
0.00680159
-0.0085836
0.0070111
-0.00842433
0.00721774
-0.0082541
0.00742249
-0.00807797
0.0076261
-0.00789972
0.00782914
-0.00772214
0.00803203
-0.00754716
0.00823506
-0.00737613
0.00843844
-0.00720991
0.00864229
-0.00704907
0.00884671
-0.00689392
0.00905179
-0.00674464
0.00925761
-0.00660134
0.00946432
-0.00646424
0.0096722
-0.00633265
-0.00620458
0.00988191
3.23607e-05
0.00120688
0.000126053
0.00275759
0.000276387
0.0035955
0.00047816
0.00379526
0.00072602
0.00346348
0.00101438
0.00271715
0.00133717
0.00167074
0.00168764
0.000430584
0.00205836
-0.000908385
0.00244147
-0.00226469
0.00282913
-0.00357188
0.00321405
-0.00477922
0.00358995
-0.00585172
0.00395194
-0.00676903
0.00429662
-0.00752364
0.00462218
-0.00811837
0.00492811
-0.00856372
0.00521505
-0.00887518
0.00548444
-0.00907095
0.00573826
-0.00916998
0.00597875
-0.00919059
0.00620818
-0.00914954
0.00642876
-0.00906153
0.00664247
-0.00893901
0.00685107
-0.0087922
0.00705601
-0.00862928
0.00725848
-0.00845657
0.00745941
-0.0082789
0.00765952
-0.00809983
0.00785933
-0.00792195
0.00805922
-0.00774704
0.00825943
-0.00757633
0.00846011
-0.0074106
0.00866136
-0.00725032
0.00886324
-0.0070958
0.00906579
-0.00694719
0.00926908
-0.00680463
0.00947325
-0.00666841
0.00967857
-0.00653797
-0.00641179
0.00988578
3.30455e-05
0.00117383
0.000129721
0.00266092
0.000285636
0.00343959
0.000495475
0.00358542
0.000753456
0.0032055
0.00105334
0.00241727
0.00138827
0.00133581
0.00175066
6.81944e-05
0.00213229
-0.00129001
0.00252463
-0.00265704
0.00291938
-0.00396663
0.00330898
-0.00516883
0.00368713
-0.00622987
0.00404907
-0.00713097
0.00439173
-0.0078663
0.00471365
-0.00844029
0.00501475
-0.00886482
0.00529606
-0.00915649
0.00555939
-0.00933428
0.00580701
-0.00941759
0.00604136
-0.00942495
0.00626492
-0.0093731
0.00647997
-0.00927658
0.00668857
-0.00914761
0.00689248
-0.00899611
0.00709315
-0.00882995
0.00729174
-0.00865516
0.00748915
-0.00847631
0.00768604
-0.00829673
0.0078829
-0.0081188
0.00808004
-0.00794419
0.00827767
-0.00777396
0.0084759
-0.00760883
0.00867479
-0.00744921
0.00887434
-0.00729536
0.00907458
-0.00714743
0.00927555
-0.0070056
0.00947737
-0.00687023
0.00968033
-0.00674093
-0.00661668
0.00988523
3.37093e-05
0.00114012
0.000133282
0.00256134
0.00029462
0.00327825
0.000512292
0.00336775
0.000780085
0.00293771
0.0010911
0.00210625
0.00143767
0.000989237
0.00181137
-0.000305507
0.00220319
-0.00168182
0.00260396
-0.00305781
0.00300492
-0.00436759
0.00339832
-0.00556223
0.00377786
-0.0066094
0.00413898
-0.0074921
0.00447896
-0.00820627
0.00479672
-0.00875805
0.00509261
-0.00916071
0.00536807
-0.00943195
0.00562523
-0.00959144
0.00586666
-0.00965901
0.006095
-0.0096533
0.00631286
-0.00959096
0.00652263
-0.00948635
0.00672639
-0.00935137
0.00692591
-0.00919563
0.00712262
-0.00902666
0.00731764
-0.00885018
0.00751182
-0.00867049
0.00770579
-0.00849069
0.00789997
-0.00831299
0.00809464
-0.00813886
0.00828996
-0.00796928
0.008486
-0.00780487
0.00868277
-0.00764598
0.00888026
-0.00749284
0.00907844
-0.00734561
0.00927735
-0.0072045
0.00947708
-0.00706996
0.00967795
-0.00694181
-0.00681954
0.00988081
3.43704e-05
0.00110575
0.000136788
0.00245892
0.000303427
0.00311161
0.000528727
0.00314245
0.000806035
0.0026604
0.00112778
0.00178451
0.00148547
0.000631541
0.00186984
-0.000689871
0.00227108
-0.00208307
0.00267941
-0.00346614
0.00308567
-0.00477386
0.00348194
-0.0059585
0.003862
-0.00698946
0.00422153
-0.00785163
0.00455816
-0.00854291
0.00487126
-0.00907115
0.0051616
-0.00945105
0.005431
-0.00970135
0.00568195
-0.00984239
0.00591723
-0.0098943
0.00613971
-0.00987577
0.00635209
-0.00980334
0.00655683
-0.00969109
0.00675604
-0.00955058
0.00695147
-0.00939107
0.00714453
-0.00921971
0.00733628
-0.00904194
0.00752755
-0.00886175
0.00771889
-0.00868204
0.00791069
-0.00850479
0.00810317
-0.00833134
0.00829646
-0.00816257
0.00849058
-0.00799899
0.00868551
-0.00784091
0.0088812
-0.00768854
0.00907761
-0.00754202
0.00927474
-0.00740163
0.00947269
-0.00726792
0.0096718
-0.00714091
-0.0070207
0.00987296
3.50461e-05
0.00107071
0.000140288
0.00235368
0.000312138
0.00293976
0.000544887
0.0029097
0.000831426
0.00237386
0.00116349
0.00145245
0.00153176
0.000263272
0.0019261
-0.00108421
0.00233595
-0.00249292
0.00275093
-0.00388112
0.00316153
-0.00518446
0.00355973
-0.00635669
0.00393941
-0.00736914
0.00429657
-0.00820879
0.00462924
-0.00887557
0.0049372
-0.00937911
0.00522168
-0.00973553
0.00548487
-0.00996454
0.00572956
-0.0100871
0.00595879
-0.0101235
0.00617557
-0.0100926
0.0063827
-0.0100105
0.00658268
-0.00989107
0.00677764
-0.00974554
0.00696929
-0.00958272
0.00715901
-0.00940943
0.00734781
-0.00923074
0.00753646
-0.0090504
0.00772547
-0.00887105
0.00791518
-0.00869449
0.00810576
-0.00852192
0.00829729
-0.0083541
0.00848977
-0.00819146
0.00868314
-0.00803428
0.00887732
-0.00788272
0.00907226
-0.00773696
0.00926792
-0.00759729
0.00946442
-0.00746442
0.0096621
-0.00733859
-0.00722054
0.00986194
3.5752e-05
0.00103496
0.000143825
0.00224561
0.000320826
0.00276276
0.000560869
0.00266966
0.000856364
0.00207837
0.00119832
0.00111049
0.00157659
-0.000114998
0.00198018
-0.0014878
0.00239778
-0.00291052
0.00281846
-0.0043018
0.00323241
-0.00559841
0.00363156
-0.00675585
0.00400999
-0.00774756
0.00436402
-0.00856282
0.00469211
-0.00920366
0.00499451
-0.00968151
0.00527285
-0.0100139
0.0055297
-0.0102214
0.00576815
-0.0103255
0.00599143
-0.0103468
0.00620269
-0.0103038
0.00640482
-0.0102126
0.00660033
-0.0100866
0.00679133
-0.00993654
0.00697951
-0.0097709
0.00716619
-0.00959611
0.00735235
-0.0094169
0.00753868
-0.00923673
0.00772565
-0.00905802
0.00791354
-0.00888238
0.00810249
-0.00871088
0.00829255
-0.00854415
0.00848366
-0.00838258
0.00867575
-0.00822637
0.00886871
-0.00807569
0.00906247
-0.00793071
0.00925698
-0.0077918
0.00945236
-0.0076598
0.00964898
-0.00753521
-0.00741944
0.00984788
3.6502e-05
0.000998454
0.000147439
0.00213467
0.000329558
0.00258064
0.00057676
0.00242246
0.000880936
0.00177419
0.00123236
0.000759068
0.00162003
-0.000502665
0.0020321
-0.00189987
0.00245655
-0.00333496
0.00288193
-0.00472719
0.00329822
-0.00601469
0.00369735
-0.00715498
0.00407364
-0.00812386
0.00442381
-0.00891298
0.00474674
-0.00952659
0.00504317
-0.00997793
0.00531514
-0.0102858
0.00556557
-0.0104718
0.0057978
-0.0105578
0.00601527
-0.0105643
0.00622122
-0.0105098
0.00641859
-0.01041
0.0066099
-0.0102779
0.00679724
-0.0101239
0.00698226
-0.00995592
0.0071662
-0.00978005
0.00735
-0.0096007
0.0075343
-0.00942103
0.00771951
-0.00924323
0.00790586
-0.00906874
0.00809346
-0.00889848
0.0082823
-0.00873299
0.00847232
-0.00857259
0.0086634
-0.00841746
0.00885542
-0.00826771
0.00904827
-0.00812356
0.00924192
-0.00798545
0.00943649
-0.00785437
0.00963237
-0.0077311
-0.00761776
0.00983069
3.73072e-05
0.000961147
0.000151163
0.00202082
0.00033839
0.00239341
0.000592627
0.00216822
0.000905212
0.0014616
0.00126566
0.000398624
0.00166209
-0.0008991
0.00208184
-0.00231962
0.00251219
-0.00376531
0.00294127
-0.00515626
0.00335886
-0.00643228
0.003757
-0.00755312
0.00413029
-0.00849715
0.00447587
-0.00925857
0.00479312
-0.00984384
0.00508321
-0.010268
0.00534861
-0.0105512
0.00559256
-0.0107158
0.00581865
-0.0107839
0.00603045
-0.0107761
0.0062313
-0.0107106
0.00642417
-0.0106028
0.00661157
-0.0104653
0.00679554
-0.0103078
0.00697766
-0.010138
0.00715916
-0.00996154
0.00734088
-0.00978242
0.00752341
-0.00960357
0.00770712
-0.00942694
0.0078922
-0.00925381
0.0080787
-0.00908498
0.00826659
-0.00892088
0.00845577
-0.00876177
0.0086461
-0.00860779
0.00883743
-0.00845905
0.00902964
-0.00831578
0.00922269
-0.0081785
0.0094167
-0.00804838
0.00961213
-0.00792652
-0.0078158
0.00981016
3.81761e-05
0.000922971
0.000155022
0.00190397
0.000347364
0.00220107
0.000608524
0.00190706
0.000929239
0.00114089
0.00129824
2.96262e-05
0.00170278
-0.00130364
0.00212937
-0.00274622
0.00256466
-0.0042006
0.00299638
-0.00558799
0.00341423
-0.00685013
0.00381041
-0.0079493
0.00417987
-0.00886661
0.0045202
-0.00959889
0.00483126
-0.0101549
0.0051147
-0.0105515
0.00537337
-0.0108099
0.00561082
-0.0109532
0.00583084
-0.0110039
0.00603713
-0.0109824
0.00623311
-0.0109066
0.00642173
-0.0107915
0.00660548
-0.010649
0.00678635
-0.0104887
0.00696586
-0.0103176
0.00714517
-0.0101408
0.00732507
-0.00996232
0.00750609
-0.00978459
0.00768855
-0.0096094
0.00787259
-0.00943786
0.00805824
-0.00927062
0.00824542
-0.00910806
0.008434
-0.00895035
0.00862382
-0.0087976
0.0088147
-0.00864992
0.00900649
-0.00850757
0.00919915
-0.00837116
0.00939281
-0.00824205
0.00958799
-0.0081217
-0.00801376
0.00978596
3.91152e-05
0.000883855
0.000159038
0.00178405
0.000356514
0.00200359
0.000624483
0.00163909
0.000953043
0.000812329
0.00133011
-0.00034744
0.00174207
-0.0017156
0.00217463
-0.00317878
0.00261385
-0.00463982
0.00304717
-0.00602131
0.00346425
-0.00726721
0.00385753
-0.00834258
0.00422234
-0.00923143
0.00455678
-0.00993333
0.0048612
-0.0104593
0.00513771
-0.010828
0.00538953
-0.0110617
0.00562048
-0.0111842
0.00583454
-0.0112179
0.00603551
-0.0111833
0.00622683
-0.0110979
0.00641145
-0.0109761
0.0065918
-0.0108294
0.00676982
-0.0106667
0.00694697
-0.0104947
0.00712433
-0.0103182
0.00730264
-0.0101406
0.00748238
-0.00996433
0.00766381
-0.00979084
0.00784705
-0.00962109
0.00803207
-0.00945564
0.00821877
-0.00929476
0.00840698
-0.00913857
0.00859652
-0.00898714
0.00878716
-0.00884056
0.00897873
-0.00869914
0.00917116
-0.00856359
0.00936462
-0.0084355
0.00955966
-0.00831674
-0.00821179
0.00975768
4.01293e-05
0.000843726
0.000163225
0.00166095
0.000365858
0.00180096
0.000640522
0.00136442
0.000976629
0.000476223
0.00136125
-0.000732064
0.0017799
-0.00213425
0.00221753
-0.00361641
0.00265968
-0.00508196
0.00309353
-0.00645517
0.00350882
-0.0076825
0.00389827
-0.00873202
0.00425768
-0.00959084
0.00458563
-0.0102613
0.00488302
-0.0107567
0.00515236
-0.0110973
0.00539725
-0.0113066
0.00562174
-0.0114087
0.00582996
-0.0114262
0.00602578
-0.0113792
0.00621265
-0.0112848
0.00639349
-0.0111569
0.00657068
-0.0110066
0.00674608
-0.0108421
0.00692109
-0.0106697
0.00709671
-0.0104938
0.00727364
-0.0103176
0.0074523
-0.010143
0.00763291