/*--------------------------------*- C++ -*----------------------------------*\
  =========                 |
  \\      /  F ield         | OpenFOAM: The Open Source CFD Toolbox
   \\    /   O peration     | Website:  https://openfoam.org
    \\  /    A nd           | Version:  7
     \\/     M anipulation  |
\*---------------------------------------------------------------------------*/
FoamFile
{
    version     2.0;
    format      ascii;
    class       volVectorField;
    location    "1.4";
    object      U;
}
// * * * * * * * * * * * * * * * * * * * * * * * * * * * * * * * * * * * * * //

dimensions      [0 1 -1 0 0 0 0];

internalField   nonuniform List<vector> 
32000
(
(-0.00121634 0.0621341 -1.72038e-21)
(-0.00417446 0.14822 0)
(-0.00803829 0.203557 -1.53386e-20)
(-0.0115545 0.232852 0)
(-0.0141416 0.241538 1.59898e-20)
(-0.0152346 0.234708 0)
(-0.0144408 0.216734 1.65318e-20)
(-0.0115331 0.191196 -1.25648e-20)
(-0.00644534 0.160943 4.76822e-24)
(0.0007503 0.128221 5.93544e-24)
(0.00988161 0.0947809 -4.33976e-21)
(0.0207093 0.0619722 1.75025e-20)
(0.032948 0.0308141 0)
(0.0462815 0.00204795 -4.45731e-21)
(0.0603869 -0.0238273 4.47573e-21)
(0.074956 -0.046519 0)
(0.0897055 -0.0659079 2.26188e-20)
(0.104388 -0.0820167 -4.54194e-21)
(0.118796 -0.0949804 0)
(0.132768 -0.105014 9.16226e-21)
(0.146176 -0.112384 9.1471e-21)
(0.158934 -0.117392 0)
(0.170988 -0.120347 0)
(0.182309 -0.121551 0)
(0.192892 -0.121292 0)
(0.202751 -0.119835 0)
(0.211911 -0.117415 0)
(0.220407 -0.11424 0)
(0.228277 -0.110488 -1.81948e-20)
(0.235561 -0.10631 0)
(0.242302 -0.10183 1.80831e-20)
(0.248541 -0.0971488 0)
(0.254318 -0.0923503 0)
(0.25967 -0.0874982 0)
(0.264633 -0.0826443 -1.77957e-20)
(0.269239 -0.0778279 -8.87959e-21)
(0.273514 -0.0730812 2.6499e-20)
(0.277488 -0.0684373 -2.3388e-23)
(0.281209 -0.0638727 1.74941e-20)
(0.284521 -0.0592507 -2.69285e-23)
(-0.0023005 0.0626081 0)
(-0.00638261 0.149204 2.98416e-20)
(-0.0104245 0.204741 7.67543e-21)
(-0.0135231 0.23392 -5.77777e-24)
(-0.0152685 0.242166 -8.00751e-21)
(-0.0152527 0.234613 0)
(-0.0132033 0.215689 1.64269e-20)
(-0.00898282 0.189041 -1.66564e-20)
(-0.00258517 0.157584 0)
(0.0058778 0.12363 -3.4217e-20)
(0.0161974 0.0889918 0)
(0.0281072 0.0550699 -5.23792e-20)
(0.0413067 0.0229242 0)
(0.0554653 -0.00667674 0)
(0.0702516 -0.0332176 1.78809e-20)
(0.0853578 -0.0563992 -1.79382e-20)
(0.100504 -0.0761063 -1.8082e-20)
(0.115446 -0.0923728 0)
(0.129991 -0.10535 5.45154e-20)
(0.143987 -0.115273 -1.82113e-20)
(0.157323 -0.122433 -1.1281e-23)
(0.169928 -0.127151 -5.4792e-20)
(0.181761 -0.129759 -3.65433e-20)
(0.192811 -0.130576 -1.83241e-20)
(0.203086 -0.129907 5.47989e-20)
(0.21261 -0.128027 -5.47731e-20)
(0.221419 -0.125185 5.47493e-20)
(0.229556 -0.121596 -7.27274e-20)
(0.237067 -0.117443 -1.80597e-20)
(0.244 -0.11288 9.52845e-23)
(0.250399 -0.108034 -5.40588e-20)
(0.256309 -0.103009 -3.59423e-20)
(0.261772 -0.0978854 7.16135e-20)
(0.266827 -0.0927294 -7.12665e-20)
(0.271511 -0.0875893 -1.76578e-20)
(0.275854 -0.0825047 -7.06679e-20)
(0.279884 -0.0775062 4.77705e-23)
(0.283635 -0.072621 1.74914e-20)
(0.287138 -0.0678247 -6.9563e-20)
(0.290247 -0.0629756 -9.51538e-20)
(-0.00340579 0.0628705 -6.83656e-21)
(-0.00863571 0.149732 -1.49419e-20)
(-0.0128565 0.205386 -6.85932e-20)
(-0.0155164 0.234435 0)
(-0.0163833 0.242279 7.95977e-21)
(-0.0152125 0.234062 -8.09517e-21)
(-0.0118465 0.214252 -9.86586e-20)
(-0.0062371 0.186561 3.34164e-20)
(0.00155124 0.153973 -1.68995e-20)
(0.0113576 0.118859 1.02402e-19)
(0.0229375 0.0830909 3.45069e-20)
(0.0359969 0.0481225 1.74836e-20)
(0.0502121 0.0150541 -7.00806e-20)
(0.0652388 -0.0153181 0)
(0.0807378 -0.0424613 0)
(0.096397 -0.0660722 3.58367e-20)
(0.11194 -0.086041 9.31111e-23)
(0.127135 -0.102413 -3.6069e-20)
(0.141798 -0.115358 -3.63052e-20)
(0.155793 -0.125133 -7.2537e-20)
(0.169026 -0.132052 1.09129e-19)
(0.181442 -0.136458 1.10293e-22)
(0.193021 -0.138702 2.73313e-23)
(0.203764 -0.139123 3.64364e-20)
(0.213694 -0.13804 -7.30122e-20)
(0.22285 -0.135743 1.45552e-19)
(0.231277 -0.132487 0)
(0.239029 -0.128495 3.63451e-20)
(0.246157 -0.123955 3.62533e-20)
(0.252715 -0.119025 7.2254e-20)
(0.258751 -0.113833 9.50095e-23)
(0.264314 -0.108483 0)
(0.269448 -0.103056 3.56697e-20)
(0.274193 -0.0976164 -3.54252e-20)
(0.278585 -0.0922118 -3.51739e-20)
(0.282657 -0.0868801 1.05767e-19)
(0.286436 -0.081648 -1.04884e-19)
(0.289952 -0.0765424 6.97779e-20)
(0.293235 -0.071535 -1.03803e-19)
(0.296138 -0.0664762 3.77561e-20)
(-0.00452158 0.0629746 5.44194e-20)
(-0.0109159 0.14996 -5.93108e-20)
(-0.0153216 0.205618 1.21737e-19)
(-0.0175302 0.23448 0)
(-0.0174828 0.241901 4.74938e-20)
(-0.015101 0.233031 8.06282e-20)
(-0.0103522 0.212383 1.66096e-20)
(-0.00328176 0.183709 1.18146e-23)
(0.00597329 0.150054 5.04038e-20)
(0.0171988 0.113853 -1.726e-20)
(0.0301102 0.0770338 8.58384e-20)
(0.0443804 0.0410988 -1.04e-19)
(0.0596617 0.00718741 1.05024e-19)
(0.0755924 -0.0238771 -3.52714e-20)
(0.0918236 -0.0515485 3.54175e-20)
(0.108043 -0.0755196 -7.11883e-20)
(0.123979 -0.0956855 -1.07417e-19)
(0.139411 -0.112106 3.59358e-20)
(0.154168 -0.12497 -3.61505e-20)
(0.168132 -0.134557 1.0869e-19)
(0.181228 -0.141204 -7.26772e-20)
(0.19342 -0.145276 -7.25002e-20)
(0.204706 -0.147142 0)
(0.215107 -0.147161 0)
(0.22466 -0.145665 -7.25007e-20)
(0.233417 -0.142955 -7.26906e-20)
(0.241433 -0.139296 -7.22972e-20)
(0.248773 -0.134916 0)
(0.255495 -0.130008 0)
(0.261656 -0.124731 -1.4368e-19)
(0.267312 -0.119215 -1.0258e-22)
(0.272513 -0.113562 7.15224e-20)
(0.277305 -0.107853 -7.10549e-20)
(0.281728 -0.102152 -7.08467e-20)
(0.285819 -0.0965052 7.07237e-20)
(0.289611 -0.0909469 0)
(0.29313 -0.0855036 6.99496e-20)
(0.296408 -0.0801986 -1.38798e-19)
(0.299466 -0.0749999 1.38273e-19)
(0.302158 -0.0697562 -1.50759e-19)
(-0.00564137 0.0628962 -2.72505e-20)
(-0.0132099 0.149783 4.45093e-20)
(-0.0178008 0.205344 -6.0774e-20)
(-0.0195439 0.233984 0)
(-0.0185554 0.240996 -7.91855e-20)
(-0.014918 0.231521 -4.83948e-20)
(-0.00872598 0.210092 6.54978e-20)
(-0.000126772 0.180502 0)
(0.010668 0.145856 -1.00807e-19)
(0.0233856 0.108646 -3.40605e-20)
(0.0376951 0.070854 -3.43606e-20)
(0.053233 0.0340321 6.9326e-20)
(0.0696236 -0.000643028 -6.97089e-20)
(0.0864875 -0.0323229 3.50675e-20)
(0.103467 -0.0604473 0)
(0.120249 -0.0847066 1.06759e-19)
(0.136569 -0.105005 3.58786e-20)
(0.152217 -0.121416 -7.17893e-20)
(0.167042 -0.134151 1.43878e-19)
(0.180942 -0.143511 -1.44259e-19)
(0.193865 -0.149857 1.44319e-19)
(0.205797 -0.153574 7.24987e-20)
(0.216756 -0.155051 0)
(0.22678 -0.154663 7.24793e-20)
(0.235924 -0.152756 2.10109e-22)
(0.244251 -0.149643 0)
(0.251831 -0.145594 7.22959e-20)
(0.258734 -0.140844 -7.20606e-20)
(0.265029 -0.135588 7.17608e-20)
(0.270777 -0.129986 1.43398e-19)
(0.276038 -0.124168 -1.42728e-19)
(0.280864 -0.118236 1.42297e-19)
(0.285302 -0.11227 0)
(0.289394 -0.106332 0)
(0.293176 -0.100466 1.40399e-19)
(0.296682 -0.0947041 0)
(0.299936 -0.0890706 0)
(0.30297 -0.0835867 -1.3811e-19)
(0.305799 -0.0782179 1.37513e-19)
(0.308275 -0.072811 7.51608e-20)
(-0.00675579 0.0626656 1.35377e-20)
(-0.015498 0.14927 0)
(-0.0202771 0.204623 1.20791e-19)
(-0.0215478 0.232982 1.54658e-20)
(-0.0195882 0.239575 1.57845e-20)
(-0.0146494 0.229517 9.60922e-20)
(-0.00695877 0.207351 1.30175e-19)
(0.00323541 0.17691 0)
(0.0156403 0.141346 3.34646e-20)
(0.0299167 0.103208 1.0124e-19)
(0.0456835 0.0645297 1.36367e-19)
(0.0625375 0.0269093 -3.44819e-20)
(0.0800732 -0.00844094 -1.03964e-19)
(0.0978918 -0.0406485 0)
(0.115627 -0.0691423 1.40537e-19)
(0.132966 -0.0936133 0)
(0.149654 -0.113974 2.13234e-19)
(0.165495 -0.130316 -7.13366e-20)
(0.180356 -0.142872 0)
(0.194158 -0.151967 -7.19482e-20)
(0.206873 -0.157982 -2.24255e-22)
(0.218509 -0.161325 -7.17357e-20)
(0.229105 -0.162404 -7.20513e-20)
(0.23872 -0.161608 7.22025e-20)
(0.247423 -0.159297 -7.20133e-20)
(0.255294 -0.155791 0)
(0.262413 -0.151369 -7.19391e-20)
(0.268861 -0.146269 7.16644e-20)
(0.27471 -0.140686 0)
(0.280031 -0.134782 0)
(0.284884 -0.128687 0)
(0.289324 -0.122502 -1.41728e-19)
(0.2934 -0.116304 1.40979e-19)
(0.297153 -0.110154 0)
(0.300622 -0.104092 -7.0056e-20)
(0.303835 -0.0981506 0)
(0.306821 -0.0923499 1.38532e-19)
(0.309608 -0.0867086 -6.86499e-20)
(0.312205 -0.0811904 -1.37069e-19)
(0.314462 -0.0756415 1.4917e-19)
(-0.0078566 0.0622838 9.4272e-20)
(-0.017766 0.148412 -1.32209e-19)
(-0.0227315 0.203437 -2.26131e-19)
(-0.0235165 0.231462 -1.23102e-19)
(-0.0205621 0.237628 -3.14481e-20)
(-0.0142832 0.22701 -6.41879e-20)
(-0.00504007 0.204157 -2.92421e-19)
(0.00680911 0.172931 -9.85976e-20)
(0.0208849 0.136527 -1.66477e-19)
(0.0367791 0.0975447 -1.68761e-19)
(0.0540551 0.0580708 -2.38245e-19)
(0.0722657 0.0197445 -1.37084e-19)
(0.0909736 -0.016188 4.94314e-22)
(0.109761 -0.0488328 -1.39141e-19)
(0.128252 -0.0776102 -1.40533e-19)
(0.146138 -0.102213 -2.11413e-19)
(0.163173 -0.122565 1.41213e-19)
(0.17918 -0.138778 -7.10691e-20)
(0.194043 -0.151107 0)
(0.207713 -0.159898 1.42906e-19)
(0.220183 -0.165556 0)
(0.231488 -0.168508 2.87259e-19)
(0.241688 -0.169181 0)
(0.250862 -0.167979 -7.19242e-20)
(0.259098 -0.165272 7.21478e-20)
(0.266489 -0.161389 -1.43309e-19)
(0.273127 -0.156612 0)
(0.279101 -0.151182 -1.42993e-19)
(0.284491 -0.145297 1.42398e-19)
(0.289372 -0.139117 0)
(0.293807 -0.132771 0)
(0.297854 -0.126358 0)
(0.301561 -0.119955 -1.40204e-19)
(0.304971 -0.113617 0)
(0.308121 -0.107386 -1.39318e-19)
(0.311041 -0.101288 2.77137e-19)
(0.313756 -0.0953428 -2.75739e-19)
(0.316293 -0.0895663 1.36712e-19)
(0.318657 -0.0839203 2.7281e-19)
(0.320693 -0.0782518 -1.48417e-19)
(-0.00893706 0.0617617 -1.21212e-19)
(-0.0199966 0.147222 3.75827e-22)
(-0.0251437 0.201804 1.20409e-19)
(-0.0254321 0.229432 2.45818e-19)
(-0.0214589 0.235153 -3.13502e-20)
(-0.0138029 0.223997 -1.27394e-19)
(-0.00296097 0.200503 1.29748e-19)
(0.0105961 0.168555 1.9721e-19)
(0.0263982 0.131389 6.66771e-20)
(0.0439615 0.0916529 1.67713e-19)
(0.0627895 0.0514769 1.35893e-19)
(0.0823886 0.0125417 2.05208e-19)
(0.102288 -0.0238753 4.13752e-19)
(0.12205 -0.0568619 2.08395e-19)
(0.141293 -0.0858327 0)
(0.159709 -0.110485 7.04411e-20)
(0.177067 -0.130756 6.99905e-20)
(0.193207 -0.14678 7.0537e-20)
(0.20804 -0.158832 1.42258e-19)
(0.22154 -0.167283 -7.17675e-20)
(0.233731 -0.172558 0)
(0.24467 -0.175106 -5.48303e-22)
(0.254442 -0.175369 -1.42883e-19)
(0.263147 -0.173766 1.42871e-19)
(0.270891 -0.170674 2.86108e-19)
(0.277781 -0.166429 2.85602e-19)
(0.28392 -0.161318 -1.60461e-22)
(0.289406 -0.155582 1.42031e-19)
(0.294327 -0.149419 1.41651e-19)
(0.298759 -0.14299 -1.41215e-19)
(0.302769 -0.13642 1.40728e-19)
(0.306417 -0.129807 1.40196e-19)
(0.309752 -0.123225 2.79823e-19)
(0.312815 -0.116726 -3.69236e-22)
(0.315645 -0.110349 4.15669e-19)
(0.318269 -0.104119 -2.24402e-22)
(0.320712 -0.0980529 -1.36979e-19)
(0.323001 -0.0921634 -1.3685e-19)
(0.32513 -0.0864113 1.35505e-19)
(0.326945 -0.0806457 1.47405e-19)
(-0.00999073 0.0611099 1.0705e-19)
(-0.0221752 0.145716 1.46359e-19)
(-0.0274944 0.199732 8.97023e-20)
(-0.0272735 0.226897 -9.2072e-20)
(-0.0222593 0.232154 -1.56007e-19)
(-0.0131936 0.220475 1.27374e-19)
(-0.000711179 0.196383 0)
(0.0146011 0.163778 1.307e-19)
(0.0321768 0.125931 0)
(0.0514522 0.0855302 -2.67815e-19)
(0.0718667 0.0447496 6.76358e-20)
(0.0928783 0.00530738 -3.40859e-19)
(0.113982 -0.0314919 -1.37665e-19)
(0.134718 -0.0647218 6.87614e-20)
(0.1547 -0.0937931 1.52171e-22)
(0.173625 -0.11841 -6.99246e-20)
(0.191277 -0.138528 -1.40942e-19)
(0.207516 -0.154302 -2.82503e-19)
(0.222281 -0.16603 0)
(0.235576 -0.174105 -9.99734e-23)
(0.247451 -0.178975 -1.42186e-19)
(0.257992 -0.181107 -1.42802e-19)
(0.267307 -0.180959 1.4288e-19)
(0.275518 -0.17896 -1.43285e-19)
(0.282748 -0.175497 1.42203e-19)
(0.289119 -0.170909 -2.84784e-19)
(0.294745 -0.165486 -1.71843e-22)
(0.299733 -0.159469 -2.83662e-19)
(0.304175 -0.153056 -1.41649e-19)
(0.308152 -0.146405 1.95708e-22)
(0.311734 -0.139639 -3.80848e-22)
(0.314981 -0.132854 -1.40194e-19)
(0.317941 -0.126119 -1.3962e-19)
(0.320657 -0.119485 -5.88817e-22)
(0.323166 -0.112987 -1.38359e-19)
(0.325495 -0.106649 -5.9548e-22)
(0.327666 -0.100485 -1.36509e-19)
(0.329705 -0.0945043 4.07425e-19)
(0.331602 -0.0886681 -1.35504e-19)
(0.333194 -0.082828 -1.47319e-19)
(-0.0110114 0.0603373 -1.07063e-19)
(-0.0242872 0.143908 2.91219e-20)
(-0.0297646 0.197235 -8.97673e-20)
(-0.0290195 0.223867 -3.05194e-20)
(-0.0229434 0.228635 1.24775e-19)
(-0.0124387 0.216444 -3.1701e-20)
(0.00172144 0.191795 3.21785e-20)
(0.0188298 0.158598 -1.95953e-19)
(0.038219 0.120149 6.60145e-20)
(0.0592412 0.0791764 1.3368e-19)
(0.081269 0.0378924 0)
(0.103709 -0.0019516 2.71764e-19)
(0.126019 -0.0390281 0)
(0.147722 -0.0723996 -2.75758e-19)
(0.168425 -0.101476 -1.38479e-19)
(0.187832 -0.125974 0)
(0.205744 -0.145866 0)
(0.222046 -0.16133 2.81439e-19)
(0.236706 -0.172687 1.41356e-19)
(0.249758 -0.180353 -2.83088e-19)
(0.261283 -0.184797 1.41642e-19)
(0.271393 -0.186505 0)
(0.280224 -0.185947 -1.42193e-19)
(0.287918 -0.183562 2.83496e-19)
(0.294616 -0.179742 -1.41794e-19)
(0.300454 -0.174831 -1.41865e-19)
(0.305557 -0.16912 1.41376e-19)
(0.310039 -0.162849 0)
(0.313998 -0.156213 2.81378e-19)
(0.317517 -0.149368 -1.40251e-19)
(0.320669 -0.142434 -1.39939e-19)
(0.323513 -0.135503 -1.62047e-22)
(0.3261 -0.128642 5.54729e-19)
(0.328471 -0.121899 -4.14512e-19)
(0.33066 -0.115306 0)
(0.332694 -0.108883 -1.37085e-19)
(0.334595 -0.102643 -2.72276e-19)
(0.336386 -0.0965942 1.34924e-19)
(0.33805 -0.0906952 1.34288e-19)
(0.33942 -0.0848033 0)
(-0.011994 0.0594535 -2.12663e-19)
(-0.0263185 0.141814 -2.90263e-20)
(-0.0319352 0.194329 2.37772e-19)
(-0.0306491 0.220355 -2.43129e-19)
(-0.0234906 0.224603 0)
(-0.0115194 0.211908 0)
(0.00435087 0.186741 -6.41745e-20)
(0.0232898 0.153013 -1.71917e-23)
(0.0445252 0.114044 6.58001e-20)
(0.0673215 0.0725938 0)
(0.0909807 0.0309097 0)
(0.114856 -0.0092284 -6.78925e-20)
(0.138369 -0.0464746 1.05392e-22)
(0.161023 -0.0798836 6.89964e-20)
(0.182421 -0.10887 1.38476e-19)
(0.202279 -0.133162 0)
(0.220413 -0.152756 1.39802e-19)
(0.236737 -0.167852 -1.40109e-19)
(0.251253 -0.178793 -2.81293e-19)
(0.264025 -0.186019 2.82006e-19)
(0.275166 -0.19002 3.24551e-22)
(0.284817 -0.191297 -1.41267e-19)
(0.293139 -0.190332 1.41635e-19)
(0.300296 -0.187572 -2.8308e-19)
(0.306448 -0.183414 0)
(0.311742 -0.178202 1.41294e-19)
(0.316315 -0.172227 -2.81834e-19)
(0.320287 -0.165728 1.40489e-19)
(0.32376 -0.158898 -1.40496e-19)
(0.326822 -0.151887 -1.3985e-19)
(0.329545 -0.144813 -1.39517e-19)
(0.331989 -0.137764 5.54909e-19)
(0.334205 -0.130804 -4.14587e-19)
(0.336232 -0.123976 -2.75183e-19)
(0.338104 -0.117311 2.73609e-19)
(0.339846 -0.110828 0)
(0.341478 -0.104535 2.71057e-19)
(0.343023 -0.098438 -2.69362e-19)
(0.344457 -0.0924975 -1.34287e-19)
(0.345606 -0.0865759 0)
(-0.0129339 0.0584683 4.51203e-19)
(-0.028256 0.13945 2.02285e-19)
(-0.0339875 0.191032 -2.3777e-19)
(-0.0321408 0.216373 2.1277e-19)
(-0.0238785 0.220068 -3.09838e-20)
(-0.010416 0.206874 6.29732e-20)
(0.0071928 0.181224 0)
(0.0279914 0.147027 -6.48328e-20)
(0.0510986 0.107619 6.55868e-20)
(0.075688 0.0657864 6.63043e-20)
(0.100989 0.0238072 -6.68827e-20)
(0.126298 -0.0165155 -6.75119e-20)
(0.151001 -0.0538216 6.7934e-20)
(0.174583 -0.0871629 0)
(0.196645 -0.115961 0)
(0.216914 -0.139964 -1.38625e-19)
(0.235228 -0.159189 1.3895e-19)
(0.251534 -0.173858 -1.39833e-19)
(0.265865 -0.18434 1.39945e-19)
(0.27832 -0.191099 1.40629e-19)
(0.289043 -0.194642 -2.81432e-19)
(0.298208 -0.195485 2.81743e-19)
(0.305999 -0.19412 2.85532e-22)
(0.312603 -0.190998 -1.40773e-19)
(0.318197 -0.18652 0)
(0.32294 -0.181031 1.40721e-19)
(0.326979 -0.174819 2.13517e-22)
(0.33044 -0.16812 -1.39914e-19)
(0.33343 -0.161122 0)
(0.336037 -0.153973 2.78526e-19)
(0.338335 -0.146787 -2.77199e-19)
(0.340384 -0.139646 0)
(0.342233 -0.132612 2.75239e-19)
(0.343921 -0.125725 -2.73723e-19)
(0.34548 -0.119012 0)
(0.346934 -0.112489 0)
(0.3483 -0.106164 0)
(0.349602 -0.100041 -2.6835e-19)
(0.350807 -0.0940791 2.66631e-19)
(0.351735 -0.0881497 2.89691e-19)
(-0.0138272 0.0573913 -2.11968e-19)
(-0.030088 0.136835 -2.31215e-19)
(-0.0359034 0.187362 -2.95957e-20)
(-0.0334724 0.21194 9.07521e-20)
(-0.0240843 0.215045 -1.23405e-19)
(-0.00910656 0.201352 1.2558e-19)
(0.0102654 0.175253 -1.27516e-19)
(0.032947 0.140647 -1.93445e-19)
(0.0579449 0.100879 0)
(0.0843388 0.0587601 -6.60813e-20)
(0.111282 0.0165919 6.66578e-20)
(0.138015 -0.0238042 0)
(0.163887 -0.0610592 1.35586e-19)
(0.188365 -0.0942268 -1.36286e-19)
(0.211053 -0.122741 -4.11317e-19)
(0.231689 -0.146371 -3.05711e-22)
(0.250138 -0.165155 2.77199e-19)
(0.266381 -0.179343 -1.38975e-19)
(0.280485 -0.189328 0)
(0.292586 -0.195594 0)
(0.302861 -0.198668 2.79816e-19)
(0.311514 -0.199076 1.40471e-19)
(0.318756 -0.197317 -1.4024e-19)
(0.324795 -0.193849 -1.40477e-19)
(0.329822 -0.189073 2.80462e-19)
(0.334011 -0.183331 -1.39924e-19)
(0.337517 -0.176908 2.79745e-19)
(0.34047 -0.170036 -5.5774e-19)
(0.34298 -0.162899 5.56163e-19)
(0.345138 -0.155641 -5.54365e-19)
(0.347017 -0.148368 5.52364e-19)
(0.348677 -0.141161 -5.50176e-19)
(0.350165 -0.134077 2.73777e-19)
(0.35152 -0.127153 2.72773e-19)
(0.352772 -0.120414 2.26591e-22)
(0.353941 -0.113873 2.12924e-22)
(0.355045 -0.107537 -2.68403e-19)
(0.356106 -0.101406 7.07524e-22)
(0.357085 -0.0954437 -2.65403e-19)
(0.357794 -0.0895278 0)
(-0.0146708 0.0562314 2.63639e-20)
(-0.0318034 0.133988 -2.87777e-20)
(-0.037665 0.183339 8.84701e-20)
(-0.0346217 0.207074 -1.20599e-19)
(-0.0240838 0.209549 6.14846e-20)
(-0.00756786 0.195356 0)
(0.0135888 0.168838 0)
(0.0381718 0.133879 2.58054e-19)
(0.0650727 0.093832 3.2542e-19)
(0.0932744 0.0515233 -6.58344e-20)
(0.121852 0.00927331 3.31837e-19)
(0.14999 -0.0310843 -6.69734e-20)
(0.177001 -0.0681769 0)
(0.202337 -0.101065 0)
(0.225604 -0.1292 2.73944e-19)
(0.246558 -0.152373 0)
(0.265093 -0.17065 1.37419e-19)
(0.281225 -0.184305 -1.38268e-19)
(0.29506 -0.193756 0)
(0.30677 -0.199508 -2.78262e-19)
(0.316568 -0.202104 -1.40027e-19)
(0.324687 -0.202078 -4.18648e-19)
(0.331365 -0.199938 -1.39962e-19)
(0.336828 -0.196141 1.39662e-19)
(0.341285 -0.191089 2.78779e-19)
(0.344921 -0.185118 0)
(0.347896 -0.178512 2.77822e-19)
(0.350347 -0.171494 5.5504e-19)
(0.352385 -0.164246 3.45058e-22)
(0.354102 -0.156903 -2.7585e-19)
(0.355571 -0.14957 -2.75149e-19)
(0.35685 -0.142322 2.73765e-19)
(0.357986 -0.135211 2.72837e-19)
(0.359015 -0.128272 -5.42897e-19)
(0.359965 -0.121527 5.40232e-19)
(0.360855 -0.114988 -2.69329e-19)
(0.361701 -0.108659 2.67185e-19)
(0.362525 -0.10254 5.31578e-19)
(0.36328 -0.0965946 2.63635e-19)
(0.363772 -0.0907124 2.85987e-19)
(-0.0154617 0.0549972 -2.09879e-19)
(-0.033392 0.130925 2.00246e-19)
(-0.0392551 0.178986 -1.75995e-19)
(-0.0355663 0.201797 1.79926e-19)
(-0.0238519 0.2036 3.06182e-19)
(-0.00577504 0.1889 -2.49204e-19)
(0.0171854 0.161992 3.16385e-19)
(0.0436834 0.126737 1.92203e-19)
(0.0724928 0.0864901 -4.54677e-19)
(0.102498 0.0440879 1.30808e-19)
(0.132694 0.00186314 6.53197e-20)
(0.162209 -0.0383438 1.33618e-19)
(0.190319 -0.0751631 1.3414e-19)
(0.216465 -0.107668 -2.70376e-19)
(0.240258 -0.13533 2.71983e-19)
(0.261475 -0.157966 4.10513e-19)
(0.280044 -0.175671 -4.13084e-19)
(0.296016 -0.188744 5.52418e-19)
(0.309539 -0.197629 2.76546e-19)
(0.320823 -0.202849 4.17274e-19)
(0.330117 -0.20496 1.38715e-19)
(0.337683 -0.204506 2.79014e-19)
(0.343784 -0.201997 -2.7801e-19)
(0.348666 -0.197891 0)
(0.352553 -0.192584 -8.34857e-19)
(0.355638 -0.186412 5.55585e-19)
(0.35809 -0.179648 -2.77433e-19)
(0.360047 -0.172513 -2.7678e-19)
(0.361624 -0.165179 -4.09005e-22)
(0.362911 -0.157778 0)
(0.36398 -0.150409 0)
(0.364889 -0.143142 2.72124e-19)
(0.365682 -0.136025 -2.71633e-19)
(0.366394 -0.129091 2.70137e-19)
(0.36705 -0.122359 -2.69002e-19)
(0.367667 -0.11584 -2.67601e-19)
(0.36826 -0.109535 0)
(0.36885 -0.103444 -2.64479e-19)
(0.369385 -0.097534 -2.63482e-19)
(0.369661 -0.0917046 -8.565e-19)
(-0.0161979 0.0536973 2.09839e-19)
(-0.0348445 0.127664 -2.00416e-19)
(-0.0406569 0.174324 2.34738e-19)
(-0.0362837 0.19613 -4.19417e-19)
(-0.0233632 0.197218 -3.05986e-19)
(-0.00370197 0.182005 2.49202e-19)
(0.021079 0.154733 -5.05242e-19)
(0.0495011 0.119237 -2.564e-19)
(0.0802182 0.0788681 3.24141e-19)
(0.112013 0.0364681 -5.88661e-19)
(0.143803 -0.00562446 -3.96511e-19)
(0.174656 -0.0455695 -1.32678e-19)
(0.203819 -0.0820057 -4.02746e-19)
(0.230719 -0.114024 4.05221e-19)
(0.254978 -0.141122 -2.71979e-19)
(0.276399 -0.163145 -2.73406e-19)
(0.294944 -0.180216 0)
(0.310706 -0.192663 -2.75692e-19)
(0.323874 -0.200953 -4.14706e-19)
(0.334699 -0.205628 1.3818e-19)
(0.343464 -0.207252 -2.77656e-19)
(0.350461 -0.206377 0)
(0.355976 -0.203514 2.78007e-19)
(0.360275 -0.199119 2.77582e-19)
(0.363594 -0.193582 -2.75733e-19)
(0.366137 -0.187233 0)
(0.368075 -0.180339 0)
(0.369551 -0.173111 0)
(0.370678 -0.165718 -1.16353e-21)
(0.371548 -0.158283 0)
(0.372231 -0.1509 -5.44829e-19)
(0.372782 -0.143635 -7.21004e-22)
(0.373244 -0.136532 -5.40153e-19)
(0.373648 -0.129621 5.38076e-19)
(0.374018 -0.122919 -2.67599e-19)
(0.374369 -0.116436 2.66896e-19)
(0.374715 -0.110171 0)
(0.375075 -0.104123 5.27328e-19)
(0.375392 -0.0982633 -2.61703e-19)
(0.375456 -0.0925042 0)
(-0.0168775 0.0523396 2.61017e-20)
(-0.0361523 0.124225 0)
(-0.041854 0.169375 -2.91668e-19)
(-0.0367514 0.190098 3.58751e-19)
(-0.0225913 0.190427 1.82437e-19)
(-0.00132148 0.174693 -2.47623e-19)
(0.0252952 0.147081 2.52217e-19)
(0.055646 0.111398 -2.54754e-19)
(0.0882635 0.0709842 0)
(0.121828 0.0286815 2.61194e-19)
(0.155176 -0.0131731 -2.62682e-19)
(0.187321 -0.0527462 9.05105e-22)
(0.217477 -0.0886915 0)
(0.245068 -0.120123 2.68473e-19)
(0.269727 -0.146569 -1.3465e-19)
(0.291287 -0.167906 2.7171e-19)
(0.30975 -0.184287 1.36215e-19)
(0.325251 -0.196069 -2.73651e-19)
(0.338023 -0.20374 0)
(0.348356 -0.207857 4.13043e-19)
(0.356569 -0.208996 1.3764e-19)
(0.362984 -0.207711 0)
(0.367909 -0.204511 0)
(0.371627 -0.199848 0)
(0.374385 -0.194106 2.76522e-19)
(0.376395 -0.187606 0)
(0.377832 -0.180606 -2.75123e-19)
(0.378841 -0.173313 5.48482e-19)
(0.379535 -0.165883 -5.47276e-19)
(0.380003 -0.158437 0)
(0.380314 -0.151061 2.72055e-19)
(0.380521 -0.143817 -2.69745e-19)
(0.380664 -0.136745 2.69725e-19)
(0.380771 -0.129873 0)
(0.380865 -0.123216 0)
(0.380958 -0.116782 2.65141e-19)
(0.381062 -0.11057 -2.63527e-19)
(0.381197 -0.104579 5.24298e-19)
(0.3813 -0.0987832 -5.2094e-19)
(0.381155 -0.0931099 0)
(-0.017499 0.0509318 1.81716e-19)
(-0.0373072 0.120623 5.67289e-20)
(-0.0428305 0.164163 2.33228e-19)
(-0.036947 0.183727 2.37772e-19)
(-0.0215097 0.183254 -2.43337e-19)
(0.00139431 0.166989 2.47622e-19)
(0.0298603 0.13906 2.50606e-19)
(0.0621404 0.103242 2.54752e-19)
(0.0966445 0.06286 0)
(0.131949 0.0207484 2.59468e-19)
(0.166811 -0.0207638 2.62679e-19)
(0.20019 -0.0598566 2.64801e-19)
(0.231274 -0.0952057 0)
(0.259483 -0.125955 -9.3874e-22)
(0.28447 -0.151665 2.7004e-19)
(0.306101 -0.172247 -1.35821e-19)
(0.324421 -0.187886 -1.36922e-19)
(0.339609 -0.198968 4.10365e-19)
(0.351943 -0.206001 2.92566e-22)
(0.361754 -0.209555 -1.38181e-19)
(0.369397 -0.210213 -2.75518e-19)
(0.37522 -0.20853 0)
(0.379553 -0.205012 0)
(0.382695 -0.200104 0)
(0.384903 -0.19418 0)
(0.386394 -0.187554 0)
(0.387346 -0.180475 0)
(0.387905 -0.173139 2.73245e-19)
(0.388183 -0.165696 -2.72111e-19)
(0.388266 -0.158259 0)
(0.388222 -0.150909 0)
(0.3881 -0.143703 2.69744e-19)
(0.387936 -0.136678 0)
(0.387759 -0.129859 2.66715e-19)
(0.387587 -0.123259 -2.6519e-19)
(0.38743 -0.116886 0)
(0.3873 -0.110738 5.24875e-19)
(0.387215 -0.104814 -5.21592e-19)
(0.387109 -0.0990937 0)
(0.386761 -0.0935196 0)
(-0.018061 0.0494807 -2.07774e-19)
(-0.0383017 0.116875 -5.66293e-20)
(-0.0435709 0.15871 5.79855e-20)
(-0.0368482 0.177042 -2.37772e-19)
(-0.0200919 0.175724 0)
(0.00447363 0.158919 0)
(0.0348012 0.130696 -1.88054e-19)
(0.069007 0.0947956 -6.33796e-20)
(0.105377 0.0545204 -1.28221e-19)
(0.142385 0.0126926 -1.29948e-19)
(0.178707 -0.0283744 -1.30715e-19)
(0.213253 -0.0668813 1.31687e-19)
(0.245189 -0.101532 1.32129e-19)
(0.273937 -0.131506 -1.34086e-19)
(0.299175 -0.156402 0)
(0.320805 -0.176166 0)
(0.338917 -0.191019 -2.71639e-19)
(0.353741 -0.201371 0)
(0.365598 -0.207751 0)
(0.374861 -0.21074 2.72754e-19)
(0.381916 -0.210925 5.29636e-22)
(0.387141 -0.208859 -2.77856e-22)
(0.390886 -0.205044 -2.74391e-19)
(0.39346 -0.199912 2.73803e-19)
(0.39513 -0.193833 2.73159e-19)
(0.396118 -0.187105 -2.72695e-19)
(0.396605 -0.179971 0)
(0.396733 -0.172615 2.72086e-19)
(0.396614 -0.165179 2.77595e-22)
(0.396331 -0.15777 -2.70022e-19)
(0.395949 -0.150462 0)
(0.395514 -0.143309 0)
(0.39506 -0.136344 2.6682e-19)
(0.394611 -0.129589 -2.6535e-19)
(0.394184 -0.123058 -2.64131e-19)
(0.393787 -0.116754 2.62569e-19)
(0.393431 -0.110679 0)
(0.393133 -0.104831 0)
(0.392823 -0.0991948 0)
(0.392279 -0.093731 -2.79141e-19)
(-0.0185627 0.0479924 2.58124e-19)
(-0.0391283 0.112997 -1.128e-19)
(-0.04406 0.153038 5.77965e-20)
(-0.0364332 0.17007 0)
(-0.0183113 0.167867 3.0137e-19)
(0.00794458 0.150513 2.55207e-23)
(0.0401448 0.12202 2.48994e-19)
(0.0762684 0.0860874 -1.89513e-19)
(0.114477 0.0459939 2.55604e-19)
(0.153141 0.00454101 -1.29089e-19)
(0.19086 -0.0359803 0)
(0.226498 -0.073799 1.31333e-19)
(0.259201 -0.107655 -3.97038e-19)
(0.288403 -0.136767 0)
(0.313808 -0.160774 4.01122e-19)
(0.335362 -0.179665 -2.6826e-19)
(0.353205 -0.193691 -2.7016e-19)
(0.367613 -0.203291 1.35424e-19)
(0.378956 -0.209008 0)
(0.387645 -0.211434 -2.73002e-19)
(0.394101 -0.211156 -2.73117e-19)
(0.398726 -0.208726 -7.85102e-22)
(0.401886 -0.204633 2.72537e-19)
(0.403905 -0.199302 2.73116e-19)
(0.405054 -0.193091 -5.45561e-19)
(0.405559 -0.186287 2.72694e-19)
(0.405599 -0.179119 0)
(0.405318 -0.171764 -2.70217e-19)
(0.404823 -0.164355 2.69364e-19)
(0.404195 -0.15699 2.68404e-19)
(0.403494 -0.14974 -2.67344e-19)
(0.402763 -0.142652 2.66191e-19)
(0.402034 -0.135758 0)
(0.401328 -0.129078 2.64305e-19)
(0.400658 -0.122621 5.25312e-19)
(0.400033 -0.116395 -5.22735e-19)
(0.399459 -0.110399 5.19976e-19)
(0.398956 -0.104632 1.68406e-22)
(0.398449 -0.0990872 -2.57364e-19)
(0.397717 -0.0937422 5.57026e-19)
(-0.0190027 0.0464725 -1.54834e-19)
(-0.0397801 0.109003 -3.36943e-19)
(-0.0442831 0.147169 2.30133e-19)
(-0.0356807 0.162837 -1.7655e-19)
(-0.0161422 0.159712 -6.09528e-20)
(0.0118347 0.141803 6.11932e-20)
(0.0459171 0.113063 -1.24699e-19)
(0.083946 0.0771501 -1.25936e-19)
(0.123959 0.037312 1.27373e-19)
(0.164224 -0.0036766 -2.57328e-19)
(0.203268 -0.0435544 -4.19126e-23)
(0.239912 -0.0805866 1.30796e-19)
(0.273291 -0.113555 0)
(0.302853 -0.141723 -1.32699e-19)
(0.328339 -0.164777 -1.33926e-19)
(0.349741 -0.182744 2.68511e-19)
(0.367249 -0.195911 0)
(0.381192 -0.20474 0)
(0.391986 -0.20979 2.71148e-19)
(0.400081 -0.211659 -2.71182e-19)
(0.405928 -0.210933 0)
(0.409954 -0.208156 2.72217e-19)
(0.41254 -0.203809 -2.7211e-19)
(0.414018 -0.198303 -5.43621e-19)
(0.414665 -0.191984 -3.60176e-22)
(0.414708 -0.185126 2.71549e-19)
(0.414325 -0.177946 -5.40047e-19)
(0.413657 -0.170611 2.70217e-19)
(0.412808 -0.163245 -2.69364e-19)
(0.411856 -0.15594 -4.76868e-22)
(0.410856 -0.14876 6.91639e-22)
(0.409848 -0.141749 -2.66191e-19)
(0.408861 -0.134935 -2.63771e-19)
(0.407912 -0.128336 -2.62453e-19)
(0.407013 -0.121961 -1.19347e-21)
(0.40617 -0.115817 0)
(0.40539 -0.109903 -2.58133e-19)
(0.404691 -0.104222 5.14449e-19)
(0.403997 -0.0987723 -7.67372e-19)
(0.403087 -0.0935522 2.18547e-22)
(-0.01938 0.0449259 -5.13399e-20)
(-0.0402502 0.104907 4.48287e-19)
(-0.044226 0.141125 -2.30214e-19)
(-0.0345701 0.155372 1.76671e-19)
(-0.0135596 0.151291 -4.79708e-19)
(0.0161702 0.132823 6.09939e-20)
(0.0521428 0.103861 -2.47361e-19)
(0.0920599 0.0680188 0)
(0.133836 0.028509 0)
(0.175638 -0.0119279 -2.56021e-19)
(0.215925 -0.0510679 1.2939e-19)
(0.25348 -0.0872197 -4.68521e-22)
(0.287436 -0.119213 1.31249e-19)
(0.317261 -0.146364 0)
(0.342738 -0.168405 -3.98282e-19)
(0.363909 -0.185406 1.3342e-19)
(0.381019 -0.197688 -2.67707e-19)
(0.394451 -0.205734 0)
(0.404663 -0.210118 0)
(0.412146 -0.21144 7.56623e-22)
(0.41738 -0.210283 -2.70523e-19)
(0.420811 -0.207181 2.70398e-19)
(0.422835 -0.202602 -2.71106e-19)
(0.423791 -0.196945 2.70525e-19)
(0.423957 -0.190541 7.17623e-22)
(0.423561 -0.18365 7.25953e-22)
(0.422779 -0.176479 2.69819e-19)
(0.421749 -0.169181 -2.6793e-19)
(0.42057 -0.161874 0)
(0.419315 -0.154642 -2.6676e-19)
(0.418037 -0.147543 2.65491e-19)
(0.416772 -0.140618 0)
(0.415544 -0.13389 2.63771e-19)
(0.414369 -0.127378 -2.61379e-19)
(0.413255 -0.121089 2.59768e-19)
(0.412207 -0.115029 0)
(0.411232 -0.1092 7.73264e-19)
(0.410348 -0.103606 -5.1191e-19)
(0.409476 -0.0982533 0)
(0.408401 -0.0931619 2.76637e-19)
(-0.0196933 0.0433571 4.08644e-19)
(-0.0405318 0.100723 -2.23773e-19)
(-0.0438753 0.134927 -5.73102e-20)
(-0.0330819 0.1477 5.85374e-20)
(-0.01054 0.142636 2.39437e-19)
(0.020976 0.123607 0)
(0.0588443 0.0944496 2.47361e-19)
(0.100628 0.0587308 3.7448e-19)
(0.144117 0.0196215 1.26543e-19)
(0.187384 -0.0201783 1.28218e-19)
(0.228822 -0.0584898 1.28915e-19)
(0.267187 -0.0936728 -3.90301e-19)
(0.301614 -0.124612 1.30798e-19)
(0.3316 -0.150678 5.25777e-19)
(0.356975 -0.171654 1.32769e-19)
(0.377837 -0.187655 1.32945e-19)
(0.394488 -0.199032 2.67706e-19)
(0.407363 -0.20629 0)
(0.416966 -0.210014 0)
(0.423823 -0.210803 5.39526e-19)
(0.428442 -0.209234 -1.07783e-18)
(0.431287 -0.205829 -7.51961e-22)
(0.432765 -0.201042 0)
(0.433218 -0.195258 0)
(0.432927 -0.188791 2.69821e-19)
(0.432117 -0.181889 0)
(0.430963 -0.174743 0)
(0.429595 -0.167499 -2.65655e-19)
(0.42811 -0.160264 -5.31827e-19)
(0.426576 -0.153116 0)
(0.425041 -0.146107 -5.27698e-19)
(0.423538 -0.139274 -1.05201e-18)
(0.422087 -0.13264 5.23876e-19)
(0.420702 -0.126217 -5.20194e-19)
(0.419389 -0.120016 5.18669e-19)
(0.41815 -0.114042 -5.15603e-19)
(0.416993 -0.108299 -5.11502e-19)
(0.415935 -0.102791 0)
(0.4149 -0.0975354 0)
(0.413675 -0.0925744 0)
(-0.0199413 0.0417696 -4.08646e-19)
(-0.0406187 0.0964617 0)
(-0.0432178 0.128594 0)
(-0.0311975 0.13985 0)
(-0.0070613 0.133779 0)
(0.0262746 0.114192 0)
(0.0660418 0.0848688 1.23059e-19)
(0.109664 0.0493259 -6.24259e-19)
(0.15481 0.0106885 -3.77467e-19)
(0.199461 -0.0283914 -1.2737e-19)