/*--------------------------------*- C++ -*----------------------------------*\
  =========                 |
  \\      /  F ield         | OpenFOAM: The Open Source CFD Toolbox
   \\    /   O peration     | Website:  https://openfoam.org
    \\  /    A nd           | Version:  7
     \\/     M anipulation  |
\*---------------------------------------------------------------------------*/
FoamFile
{
    version     2.0;
    format      ascii;
    class       volScalarField;
    location    "7.3";
    object      p;
}
// * * * * * * * * * * * * * * * * * * * * * * * * * * * * * * * * * * * * * //

dimensions      [0 2 -2 0 0 0 0];

internalField   nonuniform List<scalar> 
32000
(
0.345297
0.345804
0.346038
0.346235
0.346413
0.346596
0.346776
0.346952
0.34715
0.347403
0.347739
0.348171
0.348702
0.349335
0.350077
0.350936
0.35192
0.35304
0.354302
0.355713
0.357278
0.358994
0.360858
0.36286
0.364991
0.367243
0.369606
0.372069
0.37462
0.377245
0.379932
0.382668
0.385442
0.388239
0.391049
0.393857
0.396655
0.399438
0.402182
0.404824
0.34546
0.345932
0.346137
0.3463
0.34645
0.346609
0.346766
0.34692
0.347098
0.34733
0.347641
0.348046
0.34855
0.349155
0.349868
0.350696
0.351645
0.352724
0.353941
0.355304
0.356817
0.358479
0.360284
0.362222
0.364283
0.36646
0.368745
0.37113
0.373602
0.376149
0.378758
0.381417
0.384111
0.38683
0.389561
0.392292
0.395014
0.397722
0.400386
0.402963
0.345632
0.346064
0.346241
0.346373
0.346496
0.34663
0.346765
0.346898
0.347059
0.347274
0.347565
0.347946
0.348424
0.349004
0.34969
0.350489
0.351407
0.35245
0.353627
0.354946
0.356413
0.358024
0.359773
0.361648
0.36364
0.365744
0.367954
0.370262
0.372656
0.375125
0.377655
0.380234
0.382848
0.385486
0.388135
0.390785
0.393429
0.396058
0.398641
0.401149
0.3458
0.346186
0.346339
0.346446
0.346544
0.346655
0.346769
0.346888
0.347035
0.347237
0.347511
0.347872
0.348328
0.348884
0.349547
0.35032
0.351209
0.35222
0.353362
0.354643
0.356067
0.35763
0.359324
0.361137
0.363063
0.365097
0.367234
0.369465
0.371783
0.374173
0.376623
0.379121
0.381653
0.384207
0.386773
0.389339
0.391901
0.394448
0.396945
0.399381
0.345977
0.346316
0.346446
0.34653
0.346605
0.346693
0.34679
0.346895
0.347032
0.347223
0.347483
0.347826
0.348263
0.348799
0.349439
0.350189
0.351053
0.352037
0.353147
0.354394
0.355778
0.357295
0.358936
0.360689
0.362551
0.364517
0.366582
0.36874
0.370981
0.373292
0.375662
0.378077
0.380525
0.382994
0.385474
0.387955
0.390431
0.392894
0.395302
0.39766
0.346156
0.346446
0.346554
0.346616
0.34667
0.346739
0.34682
0.346916
0.347045
0.347227
0.347477
0.347806
0.348227
0.348746
0.349367
0.350096
0.350939
0.351898
0.352983
0.354199
0.355547
0.35702
0.358608
0.360304
0.362104
0.364004
0.366001
0.368087
0.370251
0.372483
0.374771
0.377103
0.379466
0.381849
0.384241
0.386633
0.389021
0.391395
0.39371
0.395987
0.346338
0.34658
0.346667
0.346709
0.346746
0.346798
0.346866
0.346954
0.347077
0.347253
0.347495
0.347814
0.348223
0.348728
0.349333
0.350045
0.350868
0.351808
0.352871
0.35406
0.355373
0.356803
0.358341
0.359982
0.361723
0.363561
0.365491
0.367506
0.369595
0.371747
0.373953
0.376201
0.378478
0.380772
0.383074
0.385375
0.387671
0.389953
0.392171
0.394363
0.346523
0.346717
0.346784
0.346809
0.34683
0.346868
0.346926
0.347008
0.347127
0.347299
0.347536
0.347851
0.348252
0.348744
0.349336
0.350033
0.350842
0.351767
0.352811
0.353975
0.355256
0.356645
0.358136
0.359725
0.361409
0.363187
0.365052
0.366997
0.369011
0.371085
0.373208
0.375371
0.37756
0.379764
0.381974
0.384181
0.386383
0.388569
0.390687
0.392789
0.346709
0.346853
0.346903
0.346913
0.346922
0.34695
0.346999
0.347076
0.347193
0.347364
0.347601
0.347914
0.34831
0.348794
0.349375
0.350061
0.350859
0.351772
0.352801
0.353944
0.355194
0.356544
0.357991
0.359531
0.361162
0.362882
0.364684
0.36656
0.3685
0.370495
0.372537
0.374614
0.376714
0.378826
0.380942
0.383053
0.385157
0.387244
0.389259
0.391267
0.346892
0.346988
0.347023
0.34702
0.34702
0.347041
0.347085
0.347158
0.347275
0.347448
0.347688
0.348003
0.348397
0.348876
0.34945
0.350129
0.35092
0.351825
0.352842
0.353965
0.355187
0.356501
0.357906
0.3594
0.360981
0.362645
0.364386
0.366194
0.368061
0.369979
0.371938
0.37393
0.37594
0.377959
0.379978
0.381991
0.383995
0.38598
0.387889
0.389799
0.347071
0.34712
0.347141
0.34713
0.347124
0.34714
0.34718
0.347252
0.347371
0.347549
0.347796
0.348116
0.348511
0.348989
0.34956
0.350236
0.351024
0.351924
0.35293
0.354036
0.355232
0.356514
0.357881
0.359332
0.360865
0.362476
0.364157
0.365899
0.367694
0.369535
0.371413
0.373317
0.375238
0.377163
0.379084
0.380996
0.382897
0.384777
0.386577
0.388385
0.347246
0.347248
0.347257
0.34724
0.347231
0.347245
0.347284
0.347357
0.34748
0.347666
0.347923
0.348251
0.348651
0.349131
0.349704
0.350381
0.351169
0.352066
0.353064
0.354154
0.355328
0.356582
0.357914
0.359325
0.360813
0.362373
0.363995
0.365672
0.367397
0.369161
0.370958
0.372777
0.374606
0.376436
0.378259
0.380069
0.381864
0.383637
0.385326
0.387028
0.347416
0.34737
0.34737
0.347349
0.34734
0.347353
0.347393
0.34747
0.347601
0.347799
0.348067
0.348406
0.348815
0.349302
0.34988
0.350562
0.351353
0.352249
0.353241
0.354318
0.355473
0.356701
0.358003
0.359378
0.360823
0.362333
0.363899
0.365512
0.367167
0.368857
0.370574
0.372307
0.374046
0.37578
0.377503
0.379209
0.380898
0.382561
0.384138
0.38573
0.34758
0.347488
0.347479
0.347456
0.347448
0.347463
0.347507
0.347591
0.347732
0.347943
0.348226
0.348578
0.348999
0.349498
0.350087
0.350778
0.351574
0.35247
0.353456
0.354523
0.355662
0.35687
0.358145
0.359486
0.360892
0.362354
0.363864
0.365416
0.367004
0.368621
0.370259
0.371907
0.373555
0.375194
0.376816
0.378417
0.379998
0.381551
0.383014
0.384494
0.347738
0.3476
0.347583
0.347558
0.347553
0.347573
0.347623
0.347717
0.347871
0.348097
0.348397
0.348765
0.349203
0.349717
0.350321
0.351024
0.351827
0.352725
0.353708
0.354767
0.355894
0.357084
0.358336
0.359648
0.361016
0.362432
0.36389
0.365382
0.366904
0.368451
0.370011
0.371576
0.373134
0.374676
0.376198
0.377695
0.379167
0.380608
0.381958
0.383321
0.34789
0.347707
0.347682
0.347656
0.347654
0.34768
0.34774
0.347846
0.348016
0.348259
0.348577
0.348965
0.349422
0.349958
0.35058
0.351297
0.352109
0.35301
0.353993
0.355047
0.356166
0.357342
0.358573
0.359858
0.361191
0.362564
0.363972
0.365407
0.366867
0.368344
0.369829
0.371311
0.372779
0.374227
0.375649
0.377041
0.378405
0.379735
0.38097
0.382215
0.348034
0.347807
0.347774
0.347746
0.347749
0.347783
0.347855
0.347977
0.348164
0.348427
0.348765
0.349175
0.349656
0.350215
0.35086
0.351593
0.352416
0.353323
0.354307
0.35536
0.356473
0.357638
0.358853
0.360113
0.361414
0.362747
0.364107
0.365489
0.366889
0.368299
0.36971
0.37111
0.372491
0.373846
0.375168
0.376457
0.377713
0.378932
0.380055
0.381178
0.34817
0.3479
0.347859
0.347829
0.347836
0.347881
0.347967
0.348107
0.348315
0.348599
0.348959
0.349394
0.349902
0.350488
0.351156
0.351909
0.352745
0.35366
0.354649
0.355704
0.356813
0.357971
0.359171
0.36041
0.36168
0.362976
0.364292
0.365624
0.366966
0.368312
0.369651
0.370972
0.372267
0.37353
0.374756
0.375943
0.377093
0.378201
0.379212
0.380213
0.348298
0.347986
0.347936
0.347902
0.347915
0.347972
0.348076
0.348236
0.348466
0.348773
0.349158
0.34962
0.350158
0.350773
0.351467
0.352241
0.353093
0.354019
0.355016
0.356074
0.357183
0.358335
0.359523
0.360743
0.361987
0.363248
0.364523
0.365807
0.367095
0.368378
0.369647
0.370892
0.372104
0.373278
0.37441
0.375498
0.376543
0.377543
0.378445
0.379322
0.348416
0.348063
0.348002
0.347965
0.347984
0.348055
0.348178
0.348362
0.348616
0.348948
0.34936
0.349851
0.35042
0.351066
0.351788
0.352586
0.353456
0.354396
0.355403
0.356467
0.357578
0.358727
0.359906
0.361108
0.362328
0.363558
0.364795
0.366034
0.36727
0.368494
0.369696
0.370867
0.372
0.373088
0.374129
0.37512
0.376063
0.376957
0.377753
0.378507
0.348521
0.348128
0.348057
0.348016
0.348042
0.348128
0.348273
0.348482
0.348762
0.349121
0.349562
0.350085
0.350687
0.351366
0.352117
0.35294
0.353831
0.354788
0.355807
0.356879
0.357993
0.359141
0.360313
0.361502
0.3627
0.363902
0.365103
0.3663
0.367486
0.368654
0.369793
0.370895
0.371951
0.372957
0.373911
0.374809
0.375653
0.376444
0.377137
0.377768
0.348611
0.348179
0.348098
0.348054
0.348087
0.34819
0.348358
0.348594
0.348903
0.34929
0.349762
0.350319
0.350955
0.351667
0.35245
0.353299
0.354213
0.355189
0.356222
0.357304
0.358425
0.359573
0.36074
0.361917
0.363096
0.364273
0.365442
0.366599
0.367739
0.368853
0.369933
0.370969
0.371953
0.372882
0.373752
0.374561
0.375311
0.376003
0.376598
0.377107
0.348682
0.348213
0.348122
0.348075
0.348118
0.348239
0.348432
0.348697
0.349035
0.349453
0.349958
0.350549
0.351221
0.351968
0.352782
0.35366
0.354599
0.355595
0.356645
0.357739
0.358867
0.360018
0.361182
0.362349
0.363512
0.364665
0.365804
0.366925
0.368022
0.369087
0.37011
0.371084
0.372001
0.372856
0.373648
0.374373
0.375033
0.37563
0.376133
0.376522
0.348732
0.348228
0.348126
0.348079
0.348132
0.348272
0.348492
0.348786
0.349156
0.349607
0.350145
0.350772
0.351481
0.352263
0.35311
0.354018
0.354983
0.356002
0.357069
0.358176
0.359314
0.360469
0.361633
0.362793
0.363942
0.365074
0.366185
0.367272
0.368328
0.369347
0.370319
0.371235
0.372088
0.372875
0.373593
0.37424
0.374815
0.375323
0.37574
0.376014
0.348758
0.348219
0.34811
0.348063
0.348128
0.348289
0.348537
0.348861
0.349263
0.349748
0.350322
0.350986
0.351732
0.35255
0.353431
0.35437
0.355363
0.356405
0.357491
0.358612
0.35976
0.360923
0.362087
0.363241
0.364378
0.36549
0.366577
0.367632
0.368652
0.369627
0.37055
0.371413
0.372207
0.37293
0.373581
0.374155
0.374651
0.375076
0.375414
0.375578
0.348756
0.348186
0.348071
0.348026
0.348104
0.348288
0.348563
0.348919
0.349355
0.349875
0.350485
0.351186
0.35197
0.352825
0.353741
0.354712
0.355733
0.356799
0.357905
0.359042
0.360202
0.361372
0.362538
0.363688
0.364814
0.365909
0.366972
0.367999
0.368984
0.369919
0.370797
0.371609
0.372349
0.373014
0.373602
0.37411
0.374534
0.374884
0.375151
0.37521
0.348726
0.348127
0.348007
0.347967
0.348059
0.348266
0.348569
0.348957
0.349428
0.349984
0.350633
0.351372
0.352193
0.353085
0.354036
0.35504
0.35609
0.357181
0.358307
0.359461
0.360633
0.361811
0.36298
0.364127
0.365243
0.366323
0.367364
0.368364
0.369316
0.370214
0.371049
0.371814
0.372504
0.373116
0.373648
0.374097
0.374456
0.374738
0.374943
0.374904
0.348665
0.34804
0.347917
0.347883
0.347992
0.348222
0.348553
0.348974
0.34948
0.350075
0.350762
0.35154
0.352399
0.353327
0.354313
0.35535
0.356429
0.357545
0.358691
0.359862
0.361048
0.362235
0.363407
0.364551
0.365658
0.366724
0.367745
0.368719
0.369641
0.370503
0.371297
0.372019
0.372662
0.373226
0.373709
0.374104
0.374406
0.374628
0.374781
0.374654
0.348571
0.347923
0.347799
0.347775
0.347901
0.348155
0.348514
0.348967
0.34951
0.350143
0.35087
0.351687
0.352583
0.353548
0.354569
0.355638
0.356746
0.357887
0.359055
0.360242
0.361441
0.362636
0.363811
0.364953
0.366052
0.367105
0.368107
0.369057
0.369949
0.370776
0.371533
0.372213
0.372814
0.373335
0.373772
0.374121
0.374373
0.374544
0.374654
0.37445
0.348443
0.347776
0.347654
0.34764
0.347785
0.348062
0.34845
0.348935
0.349514
0.350187
0.350954
0.35181
0.352744
0.353744
0.354799
0.3559
0.357037
0.358203
0.359391
0.360595
0.361806
0.363009
0.364187
0.365326
0.366418
0.367457
0.368441
0.369367
0.37023
0.371024
0.371744
0.372386
0.372948
0.373428
0.373825
0.374134
0.374344
0.374473
0.374552
0.374283
0.348278
0.347595
0.347478
0.347478
0.347643
0.347943
0.348359
0.348876
0.349491
0.350203
0.35101
0.351905
0.352877
0.353912
0.355001
0.356133
0.357298
0.358488
0.359695
0.360915
0.362138
0.363348
0.364528
0.365664
0.366747
0.367774
0.36874
0.369642
0.370476
0.371238
0.371922
0.372527
0.373051
0.373494
0.373855
0.374129
0.374305
0.374402
0.37446
0.374139
0.348074
0.347379
0.34727
0.347286
0.347472
0.347797
0.348239
0.348788
0.349438
0.350189
0.351037
0.351971
0.352978
0.354048
0.35517
0.356332
0.357524
0.358736
0.359963
0.361198
0.362431
0.363646
0.364827
0.365959
0.367033
0.368046
0.368994
0.369872
0.370677
0.371405
0.372054
0.372623
0.373111
0.373519
0.373847
0.37409
0.374239
0.374313
0.374363
0.374008
0.34783
0.347128
0.347029
0.347062
0.34727
0.34762
0.348089
0.348669
0.349354
0.350143
0.35103
0.352002
0.353046
0.354149
0.355302
0.356494
0.357711
0.358945
0.360189
0.361437
0.362679
0.363898
0.365078
0.366204
0.367269
0.368267
0.369194
0.370047
0.370822
0.371517
0.37213
0.372662
0.373113
0.373487
0.373783
0.374
0.374129
0.374189
0.374245
0.373874
0.347543
0.346838
0.346752
0.346804
0.347036
0.347411
0.347908
0.348517
0.349237
0.350063
0.350988
0.351997
0.353076
0.354212
0.355395
0.356614
0.357855
0.359109
0.360369
0.361629
0.362878
0.364099
0.365275
0.366393
0.367446
0.368427
0.369332
0.370157
0.370901
0.37156
0.372137
0.37263
0.373044
0.373382
0.373647
0.37384
0.373952
0.37401
0.374085
0.373722
0.347213
0.346507
0.346437
0.346511
0.346767
0.347168
0.347692
0.348332
0.349084
0.349947
0.350909
0.351954
0.353066
0.354233
0.355445
0.35669
0.357952
0.359224
0.360498
0.361768
0.363021
0.364241
0.365411
0.366519
0.367557
0.368518
0.369399
0.370194
0.370903
0.371526
0.372062
0.372515
0.372888
0.373187
0.373418
0.373586
0.373686
0.373748
0.373861
0.373535
0.346836
0.346136
0.346082
0.34618
0.346462
0.34689
0.347442
0.34811
0.348895
0.349793
0.35079
0.351869
0.353014
0.354211
0.35545
0.356717
0.358
0.359287
0.360573
0.361849
0.363104
0.364319
0.365481
0.366575
0.367595
0.368533
0.369386
0.370148
0.37082
0.371401
0.371894
0.372302
0.372629
0.372883
0.373075
0.373213
0.3733
0.373373
0.373538
0.37329
0.346413
0.345721
0.345687
0.34581
0.34612
0.346576
0.347155
0.347852
0.348668
0.349599
0.35063
0.351742
0.352917
0.354141
0.355405
0.356693
0.357992
0.359293
0.360587
0.361867
0.36312
0.364328
0.365477
0.366554
0.367552
0.368464
0.369285
0.370011
0.370641
0.371177
0.371621
0.371977
0.372251
0.372451
0.372593
0.372691
0.372756
0.372837
0.373068
0.372948
0.345942
0.345262
0.345249
0.3454
0.34574
0.346223
0.346829
0.347554
0.348401
0.349364
0.350427
0.351569
0.352772
0.354022
0.355307
0.356614
0.357927
0.359238
0.360537
0.361817
0.363064
0.364261
0.365393
0.36645
0.367422
0.368304
0.369088
0.369772
0.370356
0.370842
0.371231
0.371528
0.371737
0.371872
0.371947
0.371985
0.372008
0.372082
0.372392
0.372489
0.345421
0.344758
0.344769
0.344949
0.345319
0.345831
0.346464
0.347217
0.348093
0.349086
0.350179
0.351349
0.352577
0.35385
0.355154
0.356475
0.3578
0.359116
0.360418
0.361694
0.36293
0.364112
0.365224
0.366256
0.367198
0.368044
0.368788
0.369426
0.369959
0.370388
0.370714
0.370941
0.371074
0.371124
0.371108
0.371052
0.370993
0.371033
0.371464
0.371994
0.344852
0.34421
0.344245
0.344457
0.344857
0.345397
0.346057
0.346838
0.347742
0.348764
0.349884
0.35108
0.35233
0.353622
0.354942
0.356274
0.357606
0.358925
0.360224
0.361491
0.362714
0.363876
0.364963
0.365965
0.366873
0.367678
0.368376
0.368964
0.36944
0.369805
0.370062
0.370209
0.37025
0.370191
0.370044
0.369828
0.369577
0.369418
0.3697
0.370444
0.413816
0.42624
0.436401
0.4447
0.450939
0.455976
0.459864
0.463078
0.465735
0.468045
0.470069
0.471855
0.473436
0.474862
0.476122
0.47723
0.478197
0.479043
0.479761
0.480353
0.480831
0.481211
0.481478
0.481647
0.481712
0.481669
0.48154
0.481316
0.480992
0.480575
0.48005
0.479438
0.478722
0.477906
0.476987
0.475968
0.474876
0.47367
0.472576
0.471149
0.411992
0.424211
0.43445
0.442769
0.449069
0.45415
0.458086
0.46135
0.464057
0.466407
0.468465
0.470298
0.471925
0.473379
0.474667
0.475816
0.476818
0.477682
0.478418
0.479041
0.479547
0.479943
0.480233
0.480412
0.480491
0.480471
0.480355
0.480141
0.47983
0.47942
0.478913
0.478305
0.477601
0.476797
0.475891
0.474882
0.473798
0.472605
0.471518
0.4701
0.410192
0.422189
0.432493
0.440828
0.447188
0.452313
0.456298
0.459616
0.462375
0.464766
0.466861
0.46874
0.470413
0.471896
0.473212
0.4744
0.475437
0.47632
0.477075
0.477727
0.47826
0.478672
0.478984
0.479175
0.479268
0.479272
0.479169
0.478966
0.478669
0.478268
0.477781
0.477177
0.476487
0.475695
0.474801
0.473803
0.47273
0.471549
0.470471
0.469065
0.408413
0.420175
0.430533
0.438879
0.445292
0.450465
0.454502
0.457872
0.460682
0.463123
0.465262
0.467182
0.468896
0.470415
0.471765
0.472982
0.474048
0.474959
0.475739
0.476414
0.476968
0.477399
0.47773
0.47794
0.47805
0.478069
0.47798
0.477792
0.477509
0.477123
0.476649
0.47606
0.475381
0.4746
0.473717
0.472731
0.471671
0.470503
0.469436
0.468043
0.406656
0.41817
0.428566
0.436918
0.443379
0.448603
0.452696
0.45612
0.458984
0.461477
0.463665
0.465625
0.467377
0.468935
0.47032
0.471564
0.472656
0.473598
0.474407
0.4751
0.475675
0.476126
0.476474
0.476706
0.476832
0.476866
0.476792
0.476621
0.476352
0.475982
0.47552
0.474949
0.474282
0.473512
0.472641
0.471668
0.470621
0.469466
0.468412
0.467034
0.40492
0.416176
0.426589
0.434943
0.44145
0.446728
0.450878
0.454361
0.45728
0.459828
0.462066
0.464069
0.46586
0.467457
0.468877
0.470148
0.471268
0.47224
0.473076
0.473789
0.474383
0.474855
0.47522
0.475472
0.475616
0.475664
0.475607
0.475452
0.475198
0.474845
0.474397
0.473843
0.47319
0.472432
0.471574
0.470614
0.469582
0.468439
0.467398
0.466034
0.403205
0.414195
0.424603
0.432955
0.439502
0.444836
0.449048
0.452594
0.455573
0.458178
0.460467
0.462515
0.464345
0.46598
0.467436
0.468735
0.469884
0.470883
0.471746
0.472479
0.473094
0.473585
0.473968
0.47424
0.474401
0.474465
0.474425
0.474286
0.474049
0.473713
0.473279
0.472741
0.472104
0.471359
0.470515
0.469569
0.468552
0.467423
0.466394
0.465045
0.40151
0.412227
0.422606
0.430951
0.437536
0.442928
0.447204
0.450818
0.45386
0.456525
0.458868
0.460962
0.462833
0.464506
0.465996
0.467326
0.468502
0.469528
0.470418
0.471172
0.471807
0.472318
0.472718
0.473009
0.473188
0.473269
0.473246
0.473125
0.472904
0.472585
0.472167
0.471646
0.471023
0.470294
0.469465
0.468534
0.467532
0.466417
0.4654
0.464064
0.399834
0.410275
0.420597
0.42893
0.435548
0.441001
0.445347
0.449032
0.452142
0.454871
0.457269
0.459411
0.461323
0.463035
0.46456
0.465919
0.467124
0.468176
0.469091
0.469867
0.470521
0.471054
0.47147
0.47178
0.471978
0.472075
0.472071
0.471967
0.471764
0.471462
0.471061
0.470556
0.46995
0.469236
0.468423
0.467508
0.466521
0.465421
0.464416
0.463093
0.398177
0.408339
0.418577
0.426894
0.433539
0.439055
0.443473
0.447236
0.450419
0.453214
0.45567
0.457861
0.459817
0.461566
0.463126
0.464516
0.465749
0.466827
0.467766
0.468564
0.469239
0.469792
0.470226
0.470555
0.470771
0.470886
0.470899
0.470813
0.470628
0.470344
0.469959
0.469473
0.468883
0.468187
0.46739
0.466492
0.465521
0.464436
0.463442
0.462132
0.396539
0.406422
0.416545
0.424841
0.431507
0.437088
0.441583
0.445429
0.448689
0.451555
0.454072
0.456314
0.458314
0.460102
0.461697
0.463116
0.464377
0.465481
0.466443
0.467265
0.467959
0.468532
0.468984
0.469332
0.469568
0.4697
0.469732
0.469664
0.469497
0.469231
0.468864
0.468395
0.467822
0.467145
0.466366
0.465484
0.46453
0.46346
0.462478
0.46118
0.394921
0.404526
0.414502
0.42277
0.42945
0.435098
0.439674
0.443609
0.446953
0.449893
0.452475
0.45477
0.456816
0.458642
0.460272
0.461722
0.46301
0.464139
0.465124
0.465968
0.466681
0.467275
0.467746
0.468113
0.468368
0.468518
0.468569
0.468519
0.468371
0.468123
0.467773
0.467323
0.466769
0.46611
0.46535
0.464487
0.463549
0.462494
0.461523
0.460237
0.393322
0.402653
0.41245
0.420682
0.427368
0.433084
0.437746
0.441776
0.445209
0.448228
0.450878
0.453229
0.455323
0.457188
0.458852
0.460331
0.461646
0.4628
0.463809
0.464675
0.465407
0.466022
0.466512
0.466897
0.467172
0.46734
0.46741
0.467378
0.467248
0.467019
0.466688
0.466257
0.465722
0.465083
0.464342
0.463498
0.462577
0.461537
0.460578
0.459303
0.391744
0.400807
0.410388
0.418576
0.425259
0.431045
0.435796
0.439929
0.443457
0.44656
0.449283
0.451692
0.453834
0.455739
0.457438
0.458946
0.460288
0.461466
0.462496
0.463385
0.464136
0.464771
0.46528
0.465684
0.465979
0.466165
0.466254
0.466242
0.466131
0.46592
0.465609
0.465198
0.464681
0.464063
0.463343
0.462518
0.461614
0.46059
0.459643
0.458379
0.390189
0.398989
0.408319
0.416454
0.423123
0.42898
0.433824
0.438065
0.441695
0.44489
0.447687
0.450159
0.452349
0.454295
0.456028
0.457566
0.458933
0.460136
0.461188
0.462098
0.462869
0.463523
0.464052
0.464474
0.464789
0.464994
0.465102
0.465109
0.465017
0.464825
0.464534
0.464144
0.463647
0.46305
0.462352
0.461547
0.460661
0.459652
0.458718
0.457465
0.388659
0.397204
0.406244
0.414314
0.420959
0.426886
0.431828
0.436185
0.439924
0.443215
0.446093
0.448629
0.45087
0.452856
0.454623
0.45619
0.457584
0.458811
0.459884
0.460814
0.461605
0.462278
0.462827
0.463266
0.463602
0.463826
0.463953
0.46398
0.463907
0.463734
0.463463
0.463095
0.462619
0.462045
0.461368
0.460584
0.459716
0.458723
0.457802
0.45656
0.387156
0.395454
0.404167
0.412159
0.418767
0.424764
0.429807
0.434286
0.438142
0.441536
0.444498
0.447103
0.449396
0.451423
0.453224
0.45482
0.456239
0.457489
0.458584
0.459534
0.460344
0.461036
0.461605
0.462062
0.462417
0.462662
0.462807
0.462853
0.462801
0.462648
0.462397
0.462051
0.461598
0.461046
0.460392
0.459629
0.45878
0.457804
0.456895
0.455664
0.385683
0.393744
0.402091
0.409989
0.416548
0.422611
0.427759
0.432367
0.436348
0.439852
0.442904
0.44558
0.447926
0.449996
0.45183
0.453456
0.4549
0.456173
0.457289
0.458259
0.459088
0.459797
0.460387
0.460861
0.461236
0.4615
0.461664
0.461729
0.461697
0.461564
0.461335
0.461012
0.460582
0.460054
0.459422
0.458682
0.457852
0.456893
0.455997
0.454778
0.384242
0.392075
0.40002
0.407806
0.414301
0.420428
0.425684
0.430428
0.434541
0.438162
0.44131
0.44406
0.446462
0.448574
0.450443
0.452098
0.453567
0.454862
0.455998
0.456988
0.457837
0.458563
0.459172
0.459665
0.460057
0.460341
0.460524
0.460608
0.460596
0.460484
0.460277
0.459977
0.459571
0.459067
0.458459
0.457741
0.456933
0.455992
0.455109
0.453901
0.382837
0.390453
0.397959
0.405612
0.412029
0.418214
0.423582
0.428467
0.432722
0.436467
0.439716
0.442543
0.445003
0.447159
0.449063
0.450746
0.45224
0.453558
0.454713
0.455721
0.45659
0.457332
0.457961
0.458472
0.458881
0.459185
0.459386
0.459489
0.459498
0.459408
0.459222
0.458946
0.458565
0.458085
0.457502
0.456809
0.456022
0.4551
0.45423
0.453034
0.381471
0.38888
0.395911
0.40341
0.409734
0.41597
0.421451
0.426483
0.430888
0.434764
0.43812
0.441028
0.443548
0.44575
0.447689
0.449402
0.45092
0.452259
0.453434
0.45446
0.455348
0.456107
0.456753
0.457283
0.457708
0.458031
0.458251
0.458373
0.458402
0.458334
0.458171
0.457919
0.457564
0.457109
0.456552
0.455884
0.45512
0.454219
0.453362
0.452178
0.380148
0.387359
0.393885
0.401202
0.407417
0.413696
0.419292
0.424477
0.429039
0.433055
0.436523
0.439516
0.442099
0.444348
0.446324
0.448065
0.449606
0.450967
0.452161
0.453204
0.454111
0.454886
0.455549
0.456098
0.456539
0.45688
0.457118
0.457259
0.457309
0.457263
0.457123
0.456896
0.456567
0.456138
0.455607
0.454966
0.454227
0.453346
0.452504
0.451333
0.378872
0.385895
0.391884
0.398995
0.405083
0.411395
0.417105
0.422449
0.427176
0.431338
0.434924
0.438007
0.440656
0.442953
0.444965
0.446735
0.4483
0.449681
0.450893
0.451954
0.452878
0.453669
0.454349
0.454916
0.455373
0.455732
0.455988
0.456148
0.456219
0.456194
0.456079
0.455876
0.455574
0.455171
0.454669
0.454056
0.453342
0.452484
0.451658
0.450498
0.377646
0.384489
0.389916
0.396791
0.402736
0.409069
0.414892
0.420398
0.425297
0.429613
0.433323
0.436501
0.439218
0.441565
0.443614
0.445412
0.447
0.448402
0.449632
0.450709
0.451649
0.452457
0.453153
0.453738
0.45421
0.454587
0.454861
0.455039
0.455131
0.455129
0.455038
0.45486
0.454584
0.454209
0.453736
0.453152
0.452465
0.451633
0.450825
0.449676
0.376473
0.383145
0.387988
0.394596
0.40038
0.406721
0.412654
0.418324
0.423403
0.427878
0.43172
0.434998
0.437787
0.440185
0.442271
0.444097
0.445708
0.44713
0.448377
0.44947
0.450426
0.45125
0.451961
0.452562
0.45305
0.453444
0.453736
0.453933
0.454045
0.454066
0.453999
0.453845
0.453598
0.453251
0.452808
0.452255
0.451597
0.450791
0.450004
0.448867
0.375357
0.381864
0.386106
0.392416
0.398021
0.404355
0.410394
0.416229
0.421492
0.426135
0.430115
0.433497
0.436361
0.438813
0.440936
0.442791
0.444423
0.445865
0.447128
0.448237
0.449207
0.450047
0.450773
0.451391
0.451894
0.452304
0.452615
0.452829
0.452962
0.453006
0.452962
0.452833
0.452614
0.452296
0.451884
0.451363
0.450736
0.449959
0.449195
0.448072
0.374302
0.380647
0.384277
0.390257
0.395666
0.401975
0.408114
0.414113
0.419566
0.424382
0.428507
0.431998
0.434941
0.437448
0.439609
0.441492
0.443146
0.444606
0.445885
0.447009
0.447994
0.448849
0.449589
0.450223
0.450741
0.451167
0.451496
0.451728
0.451881
0.451947
0.451927
0.451823
0.451631
0.451344
0.450963
0.450476
0.449884
0.449138
0.448401
0.447291
0.37331
0.379494
0.382507
0.388125
0.393322
0.399587
0.405816
0.411978
0.417624
0.42262
0.426896
0.430501
0.433527
0.436091
0.438291
0.440202
0.441877
0.443354
0.444648
0.445787
0.446785
0.447655
0.448409
0.449057
0.449592
0.450032
0.450379
0.450629
0.450801
0.450889
0.450893
0.450813
0.45065
0.450393
0.450045
0.449593
0.449038
0.448328
0.44762
0.446527
0.372385
0.378403
0.380802
0.386028
0.390996
0.397197
0.403506
0.409827
0.415667
0.420848
0.425281
0.429006
0.432117
0.434741
0.436981
0.438921
0.440616
0.442109
0.443417
0.44457
0.445582
0.446466
0.447232
0.447895
0.448446
0.448899
0.449264
0.449532
0.449723
0.449833
0.449859
0.449804
0.449668
0.449442
0.449128
0.448713
0.448199
0.447528
0.446854
0.445781
0.37153
0.377373
0.379166
0.383974
0.388696
0.394813
0.401188
0.407662
0.413698
0.419069
0.423663
0.427513
0.430713
0.433399
0.43568
0.437648
0.439362
0.440871
0.442193
0.443358
0.444383
0.44528
0.44606
0.446736
0.447302
0.447769
0.44815
0.448437
0.448645
0.448776
0.448825
0.448795
0.448686
0.448492
0.448213
0.447837
0.447366
0.44674
0.446104
0.445054
0.370748
0.376401
0.377604
0.381972
0.386433
0.392443
0.398869
0.405488
0.411719
0.417282
0.422042
0.426021
0.429314
0.432064
0.434388
0.436384
0.438117
0.43964
0.440975
0.442152
0.443189
0.444099
0.444891
0.445579
0.44616
0.44664
0.447037
0.447342
0.447568
0.447719
0.44779
0.447784
0.447704
0.447541
0.447297
0.446962
0.446538
0.445961
0.445371
0.444349
0.370042
0.375482
0.376121
0.380028
0.384216
0.390093
0.396555
0.403309
0.409732
0.415488
0.420418
0.424532
0.427921
0.430737
0.433104
0.435128
0.43688
0.438417
0.439764
0.440952
0.442001
0.442922
0.443726
0.444425
0.44502
0.445514
0.445925
0.446247
0.44649
0.446661
0.446754
0.446773
0.446719
0.446589
0.446381
0.446088
0.445713
0.445193
0.444655
0.443668
0.369416
0.374613
0.374718
0.378151
0.382054
0.387775
0.394253
0.401129
0.407738
0.413689
0.418792
0.423044
0.426534
0.429419
0.43183
0.433881
0.435652
0.437201
0.43856
0.439758
0.440817
0.441749
0.442564
0.443273
0.443882
0.444389
0.444814
0.445153
0.445412
0.445603
0.445717
0.44576
0.445733
0.445634
0.445463
0.445214
0.444892
0.444434
0.443958
0.443014
0.368878
0.373787
0.373401
0.376349
0.379957
0.385497
0.391971
0.398955
0.405743
0.411886
0.417164
0.421558
0.425151
0.428107
0.430564
0.432642
0.434433
0.435994
0.437363
0.438571
0.439638
0.44058
0.441406
0.442125
0.442745
0.443265
0.443703
0.444059
0.444335
0.444544
0.444679
0.444744
0.444743
0.444676
0.444542
0.444337
0.444071
0.443682
0.44328
0.442393
0.368433
0.372998
0.372169
0.37463
0.377934
0.383271
0.389717
0.396793
0.403748
0.410081
0.415536
0.420074
0.423775
0.426803
0.429306
0.431413
0.433222
0.434795
0.436173
0.43739
0.438464
0.439415
0.44025
0.440979
0.44161
0.442144
0.442594
0.442966
0.443257
0.443484
0.443639
0.443726
0.443751
0.443714
0.443616
0.443458
0.44325
0.442937
0.442621
0.441809
0.368094
0.372243
0.371024
0.373002
0.375995
0.381107
0.3875
0.394649
0.40176
0.408278
0.41391
0.418594
0.422405
0.425508
0.428059
0.430194
0.432021
0.433605
0.434991
0.436215
0.437297
0.438255
0.439099
0.439837
0.440478
0.441024
0.441486
0.441873
0.44218
0.442424
0.442597
0.442706
0.442755
0.442747
0.442686
0.442574
0.442426
0.442196
0.441982
0.441268
0.367872
0.371519
0.36997
0.371475
0.374152
0.379017
0.385336
0.392537
0.39979
0.406486
0.412291
0.417122
0.421044
0.424224
0.426823
0.428987
0.430832
0.432425
0.433818
0.435049
0.436136
0.437101
0.437952
0.438698
0.439348
0.439906
0.440379
0.440781
0.441103
0.441362
0.441553
0.441682
0.441755
0.441776
0.441751
0.441685
0.441599
0.441457
0.441361
0.440782
0.367767
0.370828
0.369015
0.370063
0.372422
0.377019
0.383232
0.390455
0.397825
0.404684
0.410656
0.415632
0.419668
0.422927
0.425578
0.427774
0.429637
0.43124
0.432641
0.433878
0.43497
0.435941
0.436799
0.437554
0.438213
0.438782
0.439267
0.439682
0.440019
0.440293
0.440501
0.44065
0.440746
0.440795
0.440805
0.440784
0.440762
0.440714
0.440754
0.440358
0.367826
0.370143
0.368126
0.368733
0.370768
0.375065
0.381126
0.388327
0.395781
0.402789
0.408927
0.414055
0.418216
0.421565
0.424279
0.426516
0.428403
0.430022
0.431434
0.43268
0.433781
0.43476
0.435626
0.436389
0.437059
0.43764
0.438139
0.438567
0.438919
0.439208
0.439435
0.439603
0.439722
0.439798
0.439842
0.439868
0.439909
0.439959
0.440154
0.440013
0.36853
0.369533
0.367213
0.367347
0.369024
0.372998
0.378899
0.386096
0.393667
0.400859
0.407195
0.4125
0.416803
0.420253
0.423033
0.425309
0.427218
0.428849
0.430268
0.431517
0.432622
0.433605
0.434476
0.435246
0.435923
0.436514
0.437023
0.437461
0.437827
0.438128
0.43837
0.438555
0.438694
0.438795
0.43887
0.438937
0.439036
0.439182
0.439542
0.439743
0.372391
0.368465
0.364336
0.362687
0.363097
0.366238
0.372004
0.379621
0.387937
0.395963
0.403061
0.408973
0.413704
0.417405
0.420286
0.42256
0.424405
0.425951
0.427288
0.428467
0.429521
0.430464
0.431309
0.432061
0.43273
0.433319
0.433835
0.434281
0.434663
0.434984
0.435252
0.435471
0.435653
0.435807
0.435952
0.436112
0.436339
0.43671
0.437504
0.438876
0.361344
0.358071
0.354669
0.353695
0.354667
0.358122
0.364127
0.371939
0.380423
0.388591
0.395819
0.401851
0.406692
0.410495
0.413471
0.415829
0.417747
0.419355
0.420744
0.421967
0.423059
0.42404
0.424923
0.425715
0.426425
0.427057
0.427615
0.428106
0.428532
0.428898
0.429211
0.429478
0.429708
0.429914
0.430118
0.43035
0.430673
0.43121
0.432306
0.434208
0.348091
0.346669
0.344867
0.345365
0.347463
0.351502
0.357678
0.365418
0.373735
0.381732
0.388837
0.394808
0.399643
0.403477
0.406506
0.408927