/*--------------------------------*- C++ -*----------------------------------*\
  =========                 |
  \\      /  F ield         | OpenFOAM: The Open Source CFD Toolbox
   \\    /   O peration     | Website:  https://openfoam.org
    \\  /    A nd           | Version:  7
     \\/     M anipulation  |
\*---------------------------------------------------------------------------*/
FoamFile
{
    version     2.0;
    format      ascii;
    class       surfaceScalarField;
    location    "7.3";
    object      phi;
}
// * * * * * * * * * * * * * * * * * * * * * * * * * * * * * * * * * * * * * //

dimensions      [0 3 -1 0 0 0 0];

internalField   nonuniform List<scalar> 
63520
(
5.13921e-06
-8.9709e-05
8.45698e-05
1.85194e-05
-0.000151269
0.000137888
3.90425e-05
-0.000111332
9.08087e-05
6.61696e-05
5.78724e-06
-3.29143e-05
9.96901e-05
0.00018303
-0.000216551
0.000139568
0.000407882
-0.00044776
0.00018586
0.000670584
-0.000716876
0.00023866
0.000963353
-0.00101615
0.000298069
0.00128003
-0.00133943
0.000364157
0.00161555
-0.00168164
0.000436958
0.0019658
-0.0020386
0.000516456
0.0023273
-0.00240679
0.000602573
0.00269705
-0.00278317
0.00069517
0.00307243
-0.00316503
0.000794048
0.00345104
-0.00354992
0.000898952
0.00383069
-0.00393559
0.00100956
0.00420933
-0.00431994
0.00112551
0.00458502
-0.00470097
0.00124637
0.00495593
-0.0050768
0.00137169
0.00532034
-0.00544565
0.00150095
0.00567659
-0.00580585
0.00163364
0.00602315
-0.00615584
0.00176921
0.0063586
-0.00649416
0.00190708
0.00668163
-0.00681951
0.00204671
0.00699108
-0.00713071
0.00218753
0.00728591
-0.00742673
0.00232899
0.00756524
-0.0077067
0.00247058
0.00782832
-0.00796991
0.0026118
0.00807457
-0.0082158
0.00275221
0.00830354
-0.00844395
0.0028914
0.00851493
-0.00865412
0.00302901
0.00870854
-0.00884616
0.00316476
0.00888431
-0.00902005
0.0032984
0.00904222
-0.00917587
0.00342978
0.00918232
-0.0093137
0.0035588
0.00930462
-0.00943364
0.00368544
0.009409
-0.00953564
0.00380973
0.00949511
-0.0096194
0.0039317
0.00956291
-0.00968487
0.00961211
0.00405131
-0.00973172
4.62081e-06
-9.43303e-05
1.67628e-05
-0.000163411
3.5386e-05
-0.000129955
6.00129e-05
-1.88403e-05
9.05116e-05
0.000152531
0.000126914
0.000371479
0.00016933
0.000628167
0.000217894
0.000914788
0.00027275
0.00122517
0.000334007
0.00155429
0.000401737
0.00189807
0.000475953
0.00225308
0.000556613
0.00261639
0.000643612
0.00298543
0.000736783
0.00335787
0.000835902
0.00373157
0.00094069
0.00410454
0.00105081
0.0044749
0.00116588
0.00484087
0.00128547
0.00520075
0.00140912
0.00555293
0.00153634
0.00589593
0.00166662
0.00622832
0.00179942
0.00654883
0.00193422
0.00685628
0.00207047
0.00714965
0.00220767
0.00742804
0.00234531
0.00769068
0.00248292
0.00793696
0.00262006
0.00816641
0.00275632
0.00837866
0.00289137
0.0085735
0.00302489
0.00875078
0.00315666
0.00891045
0.0032865
0.00905248
0.0034143
0.00917682
0.00354
0.0092833
0.0036636
0.00937152
0.00378505
0.00944145
0.00949289
0.00390427
4.10554e-06
-9.84357e-05
1.49756e-05
-0.000174281
3.16478e-05
-0.000146628
5.37381e-05
-4.09307e-05
8.11897e-05
0.000125079
0.000114094
0.000338575
0.000152624
0.000589637
0.00019696
0.000870453
0.000247291
0.00117484
0.000303762
0.00149782
0.000366473
0.00183536
0.000435475
0.00218408
0.000510753
0.00254111
0.000592233
0.00290395
0.000679785
0.00327031
0.000773217
0.00363814
0.000872278
0.00400548
0.000976667
0.00437051
0.00108604
0.0047315
0.0012
0.00508679
0.00131811
0.00543482
0.00143993
0.00577411
0.00156498
0.00610328
0.00169275
0.00642106
0.00182274
0.0067263
0.00195444
0.00701795
0.00208736
0.00729512
0.00222102
0.00755702
0.00235496
0.00780303
0.00248875
0.00803262
0.002622
0.00824541
0.00275436
0.00844114
0.00288553
0.00861961
0.00301527
0.00878071
0.00314339
0.00892436
0.00326976
0.00905045
0.0033943
0.00915876
0.00351694
0.00924887
0.0036376
0.00932079
0.0093744
0.00375609
3.60314e-06
-0.000102039
1.31447e-05
-0.000183823
2.78063e-05
-0.000161289
4.73019e-05
-6.04264e-05
7.16603e-05
0.000100721
0.000101045
0.00030919
0.000135683
0.000554999
0.000175803
0.000830333
0.000221635
0.001129
0.000273364
0.00144609
0.000331121
0.0017776
0.000394983
0.00212022
0.000464969
0.00247113
0.00054104
0.00282788
0.000623088
0.00318827
0.00071095
0.00355027
0.000804411
0.00391202
0.0009032
0.00427172
0.001007
0.0046277
0.00111544
0.00497834
0.00122814
0.00532211
0.00134468
0.00565758
0.00146458
0.00598337
0.0015874
0.00629824
0.00171265
0.00660105
0.00183985
0.00689075
0.00196853
0.00716644
0.00209822
0.00742733
0.00222849
0.00767276
0.00235891
0.0079022
0.0024891
0.00811523
0.00261871
0.00831153
0.00274744
0.00849088
0.00287504
0.00865311
0.00300131
0.00879809
0.0031261
0.00892566
0.00324928
0.00903558
0.00337074
0.0091274
0.00349036
0.00920118
0.00925692
0.00360784
3.0862e-06
-0.000105125
1.12654e-05
-0.000192002
2.38702e-05
-0.000173894
4.07364e-05
-7.72927e-05
6.19778e-05
7.94791e-05
8.78281e-05
0.00028334
0.000118575
0.000524252
0.000154503
0.000794404
0.000195876
0.00108763
0.000242916
0.00139905
0.000295788
0.00172473
0.000354599
0.0020614
0.000419396
0.00240633
0.000490163
0.00275711
0.000566827
0.0031116
0.000649251
0.00346785
0.000737246
0.00382402
0.000830569
0.0041784
0.000928934
0.00452934
0.00103201
0.00487526
0.00113943
0.00521469
0.0012508
0.00554621
0.0013657
0.00586847
0.00148368
0.00618026
0.00160429
0.00648043
0.00172708
0.00676796
0.00185159
0.00704193
0.00197737
0.00730154
0.002104
0.00754613
0.00223108
0.00777513
0.00235821
0.0079881
0.00248505
0.00818468
0.00261131
0.00836462
0.00273672
0.00852771
0.00286105
0.00867375
0.00298414
0.00880258
0.00310582
0.0089139
0.00322594
0.00900728
0.0033443
0.00908282
0.00914068
0.00346054
2.56261e-06
-0.000107688
9.3451e-06
-0.000198785
1.98546e-05
-0.000184404
3.40543e-05
-9.14926e-05
5.21545e-05
6.13787e-05
7.44655e-05
0.000261029
0.000101333
0.000497384
0.000133094
0.000762643
0.000170053
0.00105067
0.000212467
0.00135664
0.000260533
0.00167666
0.000314384
0.00200755
0.000374098
0.00234662
0.000439686
0.00269152
0.000511098
0.00304019
0.000588223
0.00339072
0.000670901
0.00374135
0.000758918
0.00409038
0.000852009
0.00443624
0.000949873
0.0047774
0.00105217
0.00511239
0.00115854
0.00543984
0.00126857
0.00575844
0.00138186
0.00606698
0.00149797
0.00636432
0.00161647
0.00664946
0.00173693
0.00692147
0.00185891
0.00717956
0.001982
0.00742304
0.0021058
0.00765133
0.00222993
0.00786397
0.00235405
0.00806056
0.00247784
0.00824082
0.00260105
0.0084045
0.00272342
0.00855138
0.00284475
0.00868125
0.00296485
0.00879381
0.00308351
0.00888862
0.00320046
0.00896587
0.00902585
0.00331528
2.02529e-06
-0.000109713
7.38313e-06
-0.000204143
1.57663e-05
-0.000192787
2.72777e-05
-0.000103004
4.22266e-05
4.64297e-05
6.10021e-05
0.000242253
8.40129e-05
0.000474373
0.000111648
0.000735008
0.000144252
0.00101807
0.000182115
0.00131878
0.000225465
0.00163331
0.000274466
0.00195855
0.00032922
0.00229186
0.000389762
0.00263098
0.000456068
0.00297389
0.000528053
0.00331874
0.000605581
0.00366382
0.00068846
0.00400751
0.000776455
0.00434825
0.00086929
0.00468456
0.000966652
0.00501503
0.0010682
0.0053383
0.00117355
0.00565309
0.00128232
0.0059582
0.0013941
0.00625254
0.00150848
0.00653508
0.00162503
0.00680492
0.00174335
0.00706124
0.00186303
0.00730336
0.00198367
0.00753069
0.00210491
0.00774273
0.00222639
0.00793908
0.0023478
0.00811941
0.00246885
0.00828345
0.00258929
0.00843095
0.00270887
0.00856167
0.00282735
0.00867532
0.00294449
0.00877148
0.00305994
0.00885042
0.00891258
0.00317321
1.47203e-06
-0.000111185
5.38289e-06
-0.000208054
1.16196e-05
-0.000199024
2.04294e-05
-0.000111814
3.22282e-05
3.46307e-05
4.74882e-05
0.000226993
6.66803e-05
0.000455181
9.02448e-05
0.000711443
0.000118567
0.000989746
0.000151971
0.00128537
0.000190713
0.00159457
0.000234987
0.00191428
0.000284917
0.00224193
0.000340565
0.00257533
0.000401928
0.00291252
0.000468946
0.00325172
0.000541506
0.00359126
0.000619439
0.00392957
0.000702537
0.00426515
0.000790545
0.00459656
0.000883175
0.0049224
0.000980103
0.00524137
0.00108098
0.00555221
0.00118544
0.00585374
0.0012931
0.00614489
0.00140355
0.00642463
0.0015164
0.00669207
0.00163124
0.0069464
0.00174768
0.00718692
0.00186533
0.00741304
0.00198383
0.00762424
0.00210281
0.00782009
0.00222196
0.00800026
0.00234097
0.00816443
0.00245956
0.00831236
0.00257744
0.00844379
0.00269434
0.00855842
0.00280996
0.00865587
0.00292388
0.0087365
0.00880091
0.00303555
9.04292e-07
-0.00011209
3.35021e-06
-0.0002105
7.42796e-06
-0.000203102
1.35352e-05
-0.000117921
2.21983e-05
2.59675e-05
3.39755e-05
0.000215215
4.94017e-05
0.000439755
6.8967e-05
0.000691877
9.30971e-05
0.000965616
0.000122149
0.00125632
0.000156409
0.00156031
0.000196096
0.00187459
0.000241359
0.00219667
0.000292281
0.00252441
0.000348882
0.00285592
0.000411126
0.00318948
0.000478919
0.00352347
0.000552119
0.00385637
0.000630538
0.00418673
0.000713945
0.00451315
0.000802072
0.00483427
0.000894619
0.00514882
0.000991259
0.00545557
0.00109164
0.00575336
0.00119541
0.00604112
0.00130217
0.00631787
0.00141154
0.0065827
0.00152313
0.00683481
0.00163655
0.0070735
0.00175143
0.00729816
0.00186739
0.00750828
0.00198407
0.00770341
0.00210114
0.00788319
0.00221827
0.0080473
0.00233515
0.00819548
0.00245146
0.00832747
0.00256689
0.008443
0.00268105
0.00854171
0.00279349
0.00862407
0.00869083
0.00290357
3.24958e-07
-0.000112415
1.29303e-06
-0.000211468
3.20686e-06
-0.000205016
6.62128e-06
-0.000121336
1.21776e-05
2.0411e-05
2.05201e-05
0.000206873
3.22479e-05
0.000428027
4.79022e-05
0.000676223
6.79485e-05
0.000945569
9.27747e-05
0.00123149
0.000122696
0.00153039
0.000157955
0.00183933
0.000198725
0.0021559
0.000245109
0.00247803
0.000297149
0.00280388
0.000354831
0.00313179
0.000418082
0.00346021
0.000486781
0.00378767
0.000560762
0.00411275
0.000639815
0.0044341
0.000723694
0.00475039
0.000812118
0.0050604
0.000904784
0.0053629
0.00100136
0.00565678
0.0011015
0.00594098
0.00120483
0.00621453
0.001311
0.00647654
0.0014196
0.0067262
0.00153027
0.00696283
0.00164263
0.00718581
0.0017563
0.00739461
0.00187093
0.00758879
0.00198615
0.00776796
0.00210163
0.00793183
0.00221702
0.0080801
0.00233195
0.00821253
0.00244607
0.00832888
0.00255893
0.00842884
0.00267001
0.00851299
0.00858225
0.00277859
-2.64786e-07
-0.00011215
-7.81327e-07
-0.000210951
-1.02623e-06
-0.000204771
-2.82737e-07
-0.00012208
2.2078e-06
1.79204e-05
7.17827e-06
0.000201902
1.52933e-05
0.000419912
2.71426e-05
0.000664374
4.32297e-05
0.000929482
6.3975e-05
0.00121075
8.97206e-05
0.00150464
0.000120733
0.00180832
0.000157203
0.00211943
0.000199257
0.00243597
0.000246959
0.00275618
0.000300312
0.00307844
0.000359265
0.00340126
0.000423719
0.00372322
0.000493526
0.00404295
0.000568498
0.00435912
0.000648407
0.00467049
0.000732996
0.00497581
0.000821979
0.00527392
0.000915042
0.00556372
0.00101186
0.00584417
0.00111207
0.00611432
0.00121532
0.00637328
0.00132125
0.00662028
0.00142947
0.00685461
0.00153962
0.00707566
0.00165131
0.00728292
0.00176417
0.00747592
0.00187785
0.00765429
0.00199196
0.00781772
0.00210613
0.00796593
0.00221995
0.00809871
0.00233301
0.00821583
0.0024448
0.00831705
0.00255472
0.00840307
0.00847497
0.00266199
-8.59857e-07
-0.00011129
-2.86283e-06
-0.000208949
-5.25359e-06
-0.00020238
-7.14808e-06
-0.000120185
-7.66685e-06
1.84391e-05
-5.98984e-06
0.000200225
-1.38713e-06
0.000415309
6.78016e-06
0.000656206
1.90535e-05
0.000917209
3.58831e-05
0.00119392
5.76355e-05
0.00148289
8.45992e-05
0.00178136
0.000116986
0.00208704
0.000154942
0.00239802
0.000198548
0.00271257
0.000247828
0.00302916
0.000302752
0.00334634
0.000363239
0.00366273
0.000429161
0.00397702
0.000500348
0.00428794
0.000576594
0.00459424
0.00065766
0.00489474
0.000743278
0.0051883
0.000833154
0.00547384
0.000926972
0.00575035
0.0010244
0.00601689
0.00112509
0.00627259
0.00122867
0.00651669
0.00133479
0.00674849
0.00144307
0.00696738
0.00155313
0.00717286
0.0016646
0.00736446
0.00177707
0.00754181
0.00189016
0.00770463
0.00200346
0.00785264
0.00211651
0.00798565
0.00222883
0.0081035
0.00233987
0.00820602
0.00244894
0.008294
0.00836872
0.00255519
-1.45878e-06
-0.000109831
-4.94319e-06
-0.000205464
-9.45644e-06
-0.000197867
-1.39432e-05
-0.000115699
-1.74026e-05
2.18984e-05
-1.8926e-05
0.000201748
-1.77169e-05
0.0004141
-1.30899e-05
0.000651579
-4.46746e-06
0.000908586
8.63024e-06
0.00118082
2.65938e-05
0.00146493
4.97306e-05
0.00175822
7.82716e-05
0.0020585
0.000112381
0.00236391
0.000152159
0.0026728
0.000197647
0.00298367
0.000248833
0.00329515
0.000305655
0.00360591
0.000368005
0.00391467
0.00043573
0.00422021
0.000508645
0.00452132
0.000586528
0.00481686
0.00066913
0.0051057
0.000756173
0.0053868
0.000847358
0.00565917
0.000942366
0.00592188
0.00104086
0.0061741
0.00114249
0.00641506
0.00124689
0.00664408
0.0013537
0.00686058
0.00146253
0.00706403
0.00157299
0.007254
0.00168467
0.00743013
0.00179716
0.00759214
0.00190999
0.0077398
0.00202269
0.00787296
0.00213469
0.0079915
0.00224539
0.00809532
0.00235402
0.00818537
0.0082631
0.00245964
-2.05844e-06
-0.000107773
-7.01241e-06
-0.00020051
-1.36157e-05
-0.000191264
-2.0638e-05
-0.000108676
-2.69554e-05
2.82156e-05
-3.15701e-05
0.000206363
-3.36207e-05
0.00041615
-3.23752e-05
0.000650334
-2.72209e-05
0.000903432
-1.76504e-05
0.00117125
-3.25208e-06
0.00145053
1.63003e-05
0.00173867
4.12556e-05
0.00203355
7.17947e-05
0.00233337
0.000108035
0.00263656
0.000150034
0.00294167
0.0001978
0.00324739
0.000251286
0.00355242
0.000310402
0.00385556
0.000375015
0.0041556
0.000444958
0.00445138
0.000520027
0.00474179
0.000599988
0.00502574
0.000684582
0.00530221
0.000773526
0.00557022
0.000866515
0.00582889
0.000963223
0.00607739
0.00106331
0.00631497
0.00116642
0.00654097
0.00127219
0.00675481
0.00138023
0.00695599
0.00149014
0.00714409
0.0016015
0.00731877
0.00171386
0.00747979
0.00182672
0.00762694
0.00193955
0.00776012
0.00205175
0.0078793
0.00216261
0.00798446
0.00227131
0.00807667
0.00815758
0.00237683
-2.65626e-06
-0.000105117
-9.06125e-06
-0.000194106
-1.77124e-05
-0.000182613
-2.72022e-05
-9.91865e-05
-3.62818e-05
3.72952e-05
-4.38647e-05
0.000213946
-4.90244e-05
0.00042131
-5.09841e-05
0.000652293
-4.90972e-05
0.000901545
-4.28305e-05
0.00116498
-3.17521e-05
0.00143945
-1.55194e-05
0.00172243
6.13306e-06
0.00201189
3.34015e-05
0.0023061
6.64189e-05
0.00260354
0.00010526
0.00290283
0.000149947
0.0032027
0.000200452
0.00350192
0.0002567
0.00379931
0.000318578
0.00409372
0.000385934
0.00438403
0.000458584
0.00466914
0.000536311
0.00494801
0.00061887
0.00521965
0.000705996
0.0054831
0.000797397
0.00573749
0.000892761
0.00598203
0.000991759
0.00621597
0.00109404
0.00643869
0.00119925
0.0066496
0.00130699
0.00684824
0.00141686
0.00703422
0.00152841
0.00720722
0.00164117
0.00736703
0.00175462
0.00751349
0.00186817
0.00764658
0.00198115
0.00776632
0.0020928
0.00787281
0.0022022
0.00796727
0.00805154
0.00230825
-3.24969e-06
-0.000101867
-1.10804e-05
-0.000186275
-2.17281e-05
-0.000171965
-3.36063e-05
-8.73083e-05
-4.53399e-05
4.90288e-05
-5.57533e-05
0.000224359
-6.38567e-05
0.000429413
-6.88288e-05
0.000657265
-6.99904e-05
0.000902706
-6.67845e-05
0.00116178
-5.8761e-05
0.00143143
-4.55616e-05
0.00170923
-2.69065e-05
0.00199324
-2.58512e-06
0.00228178
2.755e-05
0.0025734
6.35878e-05
0.0028668
0.000105565
0.00316072
0.000153469
0.00345401
0.000207243
0.00374554
0.00026679
0.00403417
0.000331976
0.00431884
0.000402632
0.00459848
0.000478558
0.00487208
0.000559528
0.00513868
0.000645289
0.00539734
0.000735565
0.00564722
0.000830059
0.00588753
0.000928453
0.00611758
0.00103041
0.00633673
0.00113556
0.00654445
0.00124354
0.00674027
0.00135391
0.00692385
0.00146623
0.0070949
0.00157999
0.00725326
0.00169465
0.00739883
0.00180958
0.00753165
0.00192404
0.00765186
0.00203719
0.00775965
0.00214805
0.00785641
0.00794419
0.0022554
-3.83625e-06
-9.80308e-05
-1.30606e-05
-0.000177051
-2.56448e-05
-0.000159381
-3.9822e-05
-7.31312e-05
-5.40894e-05
6.32962e-05
-6.71826e-05
0.000237452
-7.80496e-05
0.00044028
-8.58253e-05
0.000665041
-8.97995e-05
0.000906681
-8.93935e-05
0.00116137
-8.41401e-05
0.00142617
-7.36668e-05
0.00169876
-5.76808e-05
0.00197725
-3.59592e-05
0.00226006
-8.34194e-06
0.00254579
2.52731e-05
0.00283318
6.49356e-05
0.00312106
0.000110648
0.0034083
0.000162371
0.00369381
0.000220021
0.00397652
0.000283481
0.00425538
0.000352598
0.00452937
0.000427189
0.00479749
0.000507042
0.00505882
0.000591923
0.00531246
0.00068157
0.00555757
0.0007757
0.0057934
0.000874009
0.00601927
0.000976168
0.00623457
0.00108183
0.00643879
0.0011906
0.0066315
0.00130207
0.00681238
0.00141578
0.00698119
0.00153121
0.00713783
0.00164778
0.00728226
0.00176481
0.00741462
0.00188153
0.00753514
0.00199702
0.00764416
0.0021102
0.00774323
0.00783464
0.00221975
-4.41349e-06
-9.36174e-05
-1.49933e-05
-0.000166471
-2.94457e-05
-0.000144929
-4.58226e-05
-5.67544e-05
-6.24923e-05
7.99659e-05
-7.81023e-05
0.000253062
-9.15392e-05
0.000453717
-0.000101895
0.000675397
-0.000108431
0.000913216
-0.000110546
0.00116349
-0.000107759
0.00142339
-9.96846e-05
0.00169069
-8.6018e-05
0.00196359
-6.65259e-05
0.00224057
-4.10373e-05
0.0025203
-9.43857e-06
0.00280158
2.83324e-05
0.00308329
7.22916e-05
0.00336434
0.000122413
0.00364369
0.00017863
0.0039203
0.000240839
0.00419317
0.000308902
0.0044613
0.000382653
0.00472374
0.000461897
0.00497958
0.000546413
0.00522794
0.000635957
0.00546803
0.000730262
0.0056991
0.000829037
0.0059205
0.000931968
0.00613164
0.00103871
0.00633204
0.0011489
0.00652131
0.00126211
0.00669917
0.00137788
0.00686542
0.00149569
0.00702002
0.00161492
0.00716303
0.00173487
0.00729467
0.00185472
0.0074153
0.00197347
0.0075254
0.00208996
0.00762674
0.00772187
0.00220274
-4.97895e-06
-8.86386e-05
-1.687e-05
-0.000154581
-3.31148e-05
-0.000128684
-5.15827e-05
-3.82867e-05
-7.05132e-05
9.88965e-05
-8.84659e-05
0.000271015
-0.000104267
0.000469518
-0.000116967
0.000688097
-0.000125797
0.000922046
-0.00013014
0.00116783
-0.000129499
0.00142274
-0.000123476
0.00168466
-0.000111759
0.00195187
-9.41035e-05
0.00222291
-7.03307e-05
0.00249653
-4.03163e-05
0.00277157
-3.98751e-06
0.00304696
3.86838e-05
0.00332167
8.76842e-05
0.00359469
0.000142961
0.00386503
0.000204424
0.00413171
0.000271951
0.00439377
0.00034539
0.0046503
0.000424562
0.00490041
0.000509263
0.00514324
0.000599263
0.00537802
0.000694313
0.00560405
0.000794139
0.00582067
0.000898443
0.00602734
0.0010069
0.00622359
0.00111914
0.00640907
0.00123476
0.00658354
0.00135331
0.00674688
0.00147425
0.00689908
0.00159696
0.00704032
0.00172071
0.00717092
0.00184463
0.00729138
0.00196766
0.00740237
0.00208855
0.00750585
0.0076047
0.00220572
-5.53013e-06
-8.31085e-05
-1.86829e-05
-0.000141428
-3.66373e-05
-0.00011073
-5.70791e-05
-1.7845e-05
-7.81197e-05
0.000119937
-9.82311e-05
0.000291126
-0.00011618
0.000487466
-0.000130975
0.000702892
-0.000141822
0.000932893
-0.000148084
0.00117409
-0.000149251
0.00142391
-0.000144917
0.00168033
-0.000134759
0.00194171
-0.000118527
0.00220668
-9.60337e-05
0.00247403
-6.71473e-05
0.00274268
-3.17851e-05
0.0030116
1.00916e-05
0.00327979
5.84805e-05
0.0035463
0.000113341
0.00381017
0.000174596
0.00407045
0.000242136
0.00432623
0.000315824
0.00457662
0.000395496
0.00482073
0.000480962
0.00505777
0.000572011
0.00528698
0.000668411
0.00550765
0.000769905
0.00571918
0.000876214
0.00592103
0.000987028
0.00611277
0.001102
0.0062941
0.00122075
0.00646479
0.00134282
0.0066248
0.0014677
0.00677421
0.00159475
0.00691327
0.00172323
0.00704243
0.00185223
0.00716238
0.00198065
0.00727395
0.00210713
0.00737937
0.00748187
0.00222995
-6.06449e-06
-7.70441e-05
-2.04248e-05
-0.000127068
-3.99996e-05
-9.11549e-05
-6.22908e-05
4.44605e-06
-8.52825e-05
0.000142929
-0.00010736
0.000313203
-0.00012723
0.000507336
-0.000143862
0.000719525
-0.000156435
0.000945467
-0.000164295
0.00118195
-0.000166921
0.00142654
-0.000163895
0.0016773
-0.000154889
0.00193271
-0.000139648
0.00219144
-0.000117978
0.00245236
-8.97405e-05
0.00271444
-5.4844e-05
0.0029767
-1.32418e-05
0.00323819
3.50735e-05
0.00349799
9.00715e-05
0.00375517
0.000151687
0.00400884
0.000219822
0.0042581
0.000294354
0.00450208
0.000375131
0.00473996
0.000461979
0.00497092
0.000554705
0.00519425
0.000653092
0.00540926
0.000756904
0.00561536
0.000865882
0.00581205
0.00097974
0.00599892
0.00109816
0.00617568
0.00122077
0.00634218
0.00134714
0.00649843
0.00147678
0.00664457
0.00160907
0.00678098
0.00174326
0.00690825
0.00187841
0.00702722
0.00201338
0.00713899
0.00214671
0.00724604
0.00735203
0.00227656
-6.57955e-06
-7.04647e-05
-2.20891e-05
-0.000111559
-4.31892e-05
-7.00549e-05
-6.71986e-05
2.84553e-05
-9.19755e-05
0.000167706
-0.000115819
0.000337046
-0.000137376
0.000528894
-0.000155578
0.000737727
-0.000169579
0.000959467
-0.000178705
0.00119108
-0.000182426
0.00143026
-0.000180316
0.00167519
-0.000172042
0.00192443
-0.000157342
0.00217674
-0.000136019
0.00243104
-0.000107929
0.00268635
-7.29744e-05
0.00294175
-3.11007e-05
0.00319632
1.77066e-05
0.00344918
7.34261e-05
0.00369945
0.000136002
0.00394626
0.000205348
0.00418875
0.000281351
0.00442608
0.000363874
0.00465743
0.000452757
0.00488204
0.00054782
0.00509919
0.000648866
0.00530822
0.00075568
0.00550855
0.000868025
0.0056997
0.000985639
0.0058813
0.00110823
0.00605309
0.00123547
0.00621495
0.00136695
0.00636694
0.00150221
0.00650931
0.00164065
0.00664254
0.00178154
0.00676735
0.00192395
0.00688482
0.00206667
0.00699626
0.00220819
0.00710452
0.00721373
0.00234649
-7.07298e-06
-6.33918e-05
-2.36698e-05
-9.4962e-05
-4.6195e-05
-4.75299e-05
-7.17855e-05
5.40458e-05
-9.81757e-05
0.000194096
-0.000123578
0.000362448
-0.000146582
0.000551899
-0.000166081
0.000757225
-0.000181201
0.000974588
-0.000191256
0.00120113
-0.0001957
0.0014347
-0.000194103
0.0016736
-0.000186125
0.00191645
-0.000171503
0.00216212
-0.000150035
0.00240957
-0.000121573
0.00265789
-8.60152e-05
0.00290619
-4.33012e-05
0.0031536
6.58953e-06
0.00339929
6.36421e-05
0.0036424
0.000127809
0.00388209
0.000199012
0.00411755
0.00027715
0.00434794
0.000362094
0.00457249
0.000453698
0.00479044
0.000551797
0.00500109
0.00065621
0.0052038
0.000766742
0.00539802
0.00088318
0.00558327
0.00100529
0.00575919
0.00113282
0.00592556
0.00126546
0.00608231
0.00140287
0.00622954
0.00154461
0.00636757
0.00169013
0.00649701
0.00183874
0.00661875
0.0019895
0.00673405
0.00214121
0.00684456
0.00229225
0.00695348
0.0070655
0.00244048
-7.54277e-06
-5.58491e-05
-2.51616e-05
-7.73434e-05
-4.90067e-05
-2.36848e-05
-7.60365e-05
8.10755e-05
-0.000103863
0.000221922
-0.000130612
0.000389197
-0.000154818
0.000576105
-0.000175334
0.000777741
-0.000191262
0.000990517
-0.000201899
0.00121177
-0.000206688
0.00143949
-0.000205192
0.0016721
-0.000197068
0.00190833
-0.000182049
0.0021471
-0.000159931
0.00238746
-0.000130562
0.00262852
-9.38375e-05
0.00286946
-4.96938e-05
0.00310946
1.8944e-06
0.0033477
6.09173e-05
0.00358337
0.000127333
0.00381568
0.000201072
0.00404381
0.000282037
0.00426698
0.000370112
0.00448441
0.00046516
0.00469539
0.000567028
0.00489922
0.000675551
0.00509528
0.000790553
0.00528302
0.000911843
0.00546198
0.00103922
0.00563181
0.00117246
0.00579232
0.00131131
0.00594346
0.00145546
0.00608538
0.00160454
0.00621849
0.00175806
0.00634349
0.00191537
0.00646144
0.00207558
0.00657384
0.00223748
0.00668266
0.0023994
0.00679156
0.00690587
0.00255903
-7.98725e-06
-4.78619e-05
-2.65593e-05
-5.87715e-05
-5.16153e-05
1.37108e-06
-7.99379e-05
0.000109398
-0.000109018
0.000251002
-0.000136899
0.000417078
-0.000162057
0.000601264
-0.000183308
0.000798991
-0.000199728
0.00100694
-0.000210597
0.00122264
-0.000215348
0.00144424
-0.000213538
0.00167029
-0.000204818
0.00189961
-0.000188919
0.0021312
-0.000165635
0.00236417
-0.000134813
0.0025977
-9.63456e-05
0.002831
-5.01666e-05
0.00306328
3.75212e-06
0.00329378
6.54042e-05
0.00352172
0.000134752
0.00374633
0.00021173
0.00396683
0.000296249
0.00418246
0.000388196
0.00439247
0.000487444
0.00459614
0.000593848
0.00479281
0.000707258
0.00498187
0.000827512
0.00516276
0.000954444
0.00533504
0.00108788
0.00549838
0.00122763
0.00565257
0.00137349
0.0057976
0.00152521
0.00593366
0.00168248
0.00606122
0.00184489
0.00618108
0.00201186
0.00629447
0.00218256
0.00640314
0.0023558
0.00650943
0.00252988
0.00661747
0.00673339
0.00270236
-8.40504e-06
-3.94569e-05
-2.78584e-05
-3.93183e-05
-5.40123e-05
2.75249e-05
-8.34774e-05
0.000138863
-0.000113626
0.000281151
-0.000142418
0.00044587
-0.000168277
0.000627122
-0.000189977
0.000820692
-0.000206572
0.00102353
-0.000217322
0.00123339
-0.000221651
0.00144857
-0.000219106
0.00166775
-0.000209338
0.00188984
-0.000192073
0.00211393
-0.000167103
0.0023392
-0.000134274
0.00256487
-9.34776e-05
0.0027902
-4.46461e-05
0.00301445
1.22505e-05
0.00323688
7.72076e-05
0.00345677
0.00015019
0.00367335
0.000231135
0.00388589
0.000319956
0.00409364
0.000416546
0.00429588
0.000520779
0.00449191
0.00063252
0.00468107
0.000751625
0.00486276
0.000877947
0.00503644
0.00101134
0.00520166
0.00115164
0.00535807
0.00129872
0.0055055
0.0014524
0.00564392
0.00161251
0.00577356
0.00177879
0.00589493
0.00195094
0.00600893
0.00212846
0.00611695
0.00231061
0.00622099
0.00249626
0.00632378
0.00268371
0.00643002
0.00654672
0.00287038
-8.79489e-06
-3.0662e-05
-2.90545e-05
-1.90588e-05
-5.61898e-05
5.466e-05
-8.6643e-05
0.000169316
-0.00011767
0.000312178
-0.000147152
0.000475352
-0.000173456
0.000653426
-0.00019532
0.000842557
-0.00021177
0.00103998
-0.00022205
0.00124367
-0.000225572
0.00145209
-0.000221876
0.00166405
-0.000210607
0.00187857
-0.000191488
0.00209482
-0.000164311
0.00231202
-0.00012892
0.00252948
-8.52039e-05
0.00274649
-3.30964e-05
0.00296234
2.74338e-05
0.00317635
9.6383e-05
0.00338782
0.000173717
0.00359601
0.000259373
0.00380023
0.000353266
0.00399974
0.00045529
0.00419385
0.00056532
0.00438188
0.000683223
0.00456317
0.00080886
0.00473713
0.000942092
0.00490321
0.00108278
0.00506097
0.0012308
0.00521005
0.00138602
0.00535027
0.00154834
0.0054816
0.00171762
0.00560428
0.00189371
0.00571884
0.00207639
0.00582626
0.00226526
0.00592807
0.00245972
0.00602653
0.00265873
0.00612478
0.0028606
0.00622815
0.00634463
0.00306269
-9.15556e-06
-2.15065e-05
-3.01435e-05
1.92898e-06
-5.814e-05
8.26564e-05
-8.94228e-05
0.000200599
-0.000121136
0.000343891
-0.000151082
0.000505298
-0.000177574
0.000679919
-0.000199315
0.000864297
-0.000215302
0.00105597
-0.000224762
0.00125313
-0.000227095
0.00145442
-0.000221833
0.00165879
-0.000208613
0.00186535
-0.000187158
0.00207336
-0.000157255
0.00228212
-0.000118747
0.00249097
-7.15233e-05
0.00269926
-1.55159e-05
0.00290634
4.93057e-05
0.00311153
0.000122938
0.00331418
0.000205346
0.00351361
0.000296467
0.00370911
0.000396214
0.0039
0.000504478
0.00408559
0.000621134
0.00426522
0.000746046
0.00443826
0.000879073
0.0046041
0.00102008
0.0047622
0.00116893
0.00491212
0.00132551
0.00505348
0.00148971
0.00518606
0.00166147
0.00530985
0.0018407
0.00542504
0.00202734
0.0055322
0.00222125
0.00563235
0.00242219
0.00572713
0.00262968
0.00581904
0.00284281
0.00591165
0.00305999
0.00601097
0.00612611
0.00327851
-9.48574e-06
-1.20207e-05
-3.11211e-05
2.35642e-05
-5.98545e-05
0.00011139
-9.18044e-05
0.000232548
-0.000124006
0.000376092
-0.000154188
0.00053548
-0.000180612
0.000706343
-0.000201941
0.000885627
-0.000217148
0.00107118
-0.00022544
0.00126142
-0.000226204
0.00145519
-0.000218965
0.00165155
-0.000203352
0.00184974
-0.000179083
0.00204909
-0.000145942
0.00224898
-0.000103771
0.0024488
-5.24567e-05
0.00264795
8.06805e-06
0.00284581
7.78341e-05
0.00304177
0.000156837
0.00323518
0.00024504
0.0034254
0.00034238
0.00361177
0.000448766
0.00379361
0.000564083
0.00397027
0.000688202
0.0041411
0.00082098
0.00430548
0.000962269
0.00446281
0.00111192
0.00461255
0.00126981
0.00475423
0.00143581
0.00488748
0.00160983
0.00501204
0.00179182
0.00512785
0.00198176
0.00523511
0.00217962
0.00533434
0.00238539
0.00542658
0.00259897
0.00551355
0.00282004
0.00559797
0.00304787
0.00568383
0.00328099
0.00577784
0.00589038
0.00351673
-9.78403e-06
-2.23675e-06
-3.19828e-05
4.57628e-05
-6.13244e-05
0.000140731
-9.37741e-05
0.000264998
-0.000126264
0.000408582
-0.000156451
0.000565667
-0.000182544
0.000732436
-0.000203172
0.000906255
-0.000217282
0.00108528
-0.000224061
0.0012682
-0.000222882
0.00145401
-0.00021326
0.00164193
-0.000194818
0.0018313
-0.000167266
0.00202154
-0.000130385
0.0022121
-8.40135e-05
0.00240243
-2.80384e-05
0.00259197
3.76099e-05
0.00278016
0.000112962
0.00296642
0.000198012
0.00315013
0.000292722
0.00333069
0.000397026
0.00350746
0.000510827
0.00367981
0.000634006
0.00384709
0.000766423
0.00400869
0.000907925
0.00416398
0.00105835
0.00431238
0.00121754
0.00445336
0.00138534
0.00458643
0.00156162
0.00471119
0.0017463
0.00482737
0.0019393
0.00493485
0.00214064
0.00503377
0.00235036
0.00512462
0.00256852
0.00520841
0.00279517
0.0052869
0.00303018
0.00536297
0.00327303
0.00544098
0.00352246
0.0055284
0.00563696
0.00377588
-1.0049e-05
7.81214e-06
-3.27234e-05
6.84372e-05
-6.25397e-05
0.000170547
-9.53169e-05
0.000297775
-0.000127889
0.000441154
-0.000157844
0.000595623
-0.000183343
0.000757935
-0.00020298
0.000925891
-0.000215674
0.00109798
-0.000220595
0.00127312
-0.000217102
0.00145052
-0.000204698
0.00162952
-0.000182996
0.0018096
-0.000151702
0.00199025
-0.000110591
0.00217099
-5.94971e-05
0.00235134
1.69517e-06
0.00253078
7.30568e-05
0.0027088
0.000154618
0.00288485
0.000246374
0.00305837
0.000348285
0.00322878
0.000460281
0.00339547
0.000582259
0.00355783
0.000714092
0.00371526
0.000855629
0.00386715
0.0010067
0.00401291
0.00116713
0.00415196
0.00133673
0.00428376
0.00151532
0.00440784
0.00170275
0.00452376
0.00189889
0.00463122
0.00210368
0.00473006
0.0023171
0.00482035
0.00253923
0.00490249
0.00277021
0.00497743
0.00301021
0.00504691
0.00325929
0.00511388
0.0035172
0.00518307
0.00378297
0.00526263
0.00536574
0.0040542
-1.02789e-05
1.80909e-05
-3.33375e-05
9.14956e-05
-6.34892e-05
0.000200699
-9.64158e-05
0.000330702
-0.000128857
0.000473595
-0.00015834
0.000625105
-0.000182975
0.000782571
-0.000201325
0.00094424
-0.000212284
0.00110894
-0.000215004
0.00127584
-0.000208826
0.00144434
-0.000193243
0.00161394
-0.00016786
0.00178421
-0.000132374
0.00195476
-8.65537e-05
0.00212517
-3.02287e-05