/*--------------------------------*- C++ -*----------------------------------*\
  =========                 |
  \\      /  F ield         | OpenFOAM: The Open Source CFD Toolbox
   \\    /   O peration     | Website:  https://openfoam.org
    \\  /    A nd           | Version:  7
     \\/     M anipulation  |
\*---------------------------------------------------------------------------*/
FoamFile
{
    version     2.0;
    format      ascii;
    class       volVectorField;
    location    "7.3";
    object      U;
}
// * * * * * * * * * * * * * * * * * * * * * * * * * * * * * * * * * * * * * //

dimensions      [0 1 -1 0 0 0 0];

internalField   nonuniform List<vector> 
18000
(
(0.000460366 -0.00764966 5.86687e-21)
(0.00227401 -0.0139058 0)
(0.00536096 -0.0123692 0)
(0.00900822 -0.00514756 0)
(0.0131295 0.00631098 -1.93725e-21)
(0.0176238 0.0209575 9.80066e-21)
(0.022433 0.0379974 -1.98136e-21)
(0.0275122 0.0568147 1.99497e-21)
(0.0328233 0.0769267 0)
(0.038332 0.0979466 -6.03358e-21)
(0.0440008 0.119554 -2.01749e-21)
(0.0497908 0.141475 0)
(0.05566 0.163469 4.02999e-21)
(0.0615614 0.185316 4.03764e-21)
(0.0674469 0.206817 -8.07028e-21)
(0.0732692 0.22779 -8.05965e-21)
(0.0789821 0.248065 0)
(0.0845414 0.26749 -1.20645e-20)
(0.0899055 0.285929 4.00296e-21)
(0.0950358 0.303266 -1.20157e-20)
(0.0998995 0.319404 3.98407e-21)
(0.10447 0.334269 0)
(0.108727 0.347806 -3.94583e-21)
(0.112659 0.359977 -3.95289e-21)
(0.11626 0.370765 0)
(0.119533 0.380161 0)
(0.122491 0.388161 -7.84202e-21)
(0.125158 0.39475 -7.81417e-21)
(0.127547 0.399909 -7.83496e-21)
(0.129565 0.403566 8.52974e-21)
(0.000646146 -0.00806452 8.36557e-21)
(0.00248002 -0.0149072 1.4573e-20)
(0.00523557 -0.0138344 -1.49219e-20)
(0.00832998 -0.0070034 -1.52166e-20)
(0.0117372 0.00410208 -3.86828e-21)
(0.0154059 0.0184142 1.17314e-20)
(0.0193128 0.0351311 -1.58074e-20)
(0.0234396 0.0536321 -1.5924e-20)
(0.027771 0.073436 1.60092e-20)
(0.0322879 0.0941611 1.60698e-20)
(0.0369633 0.115492 -8.05011e-21)
(0.0417696 0.137158 -1.61221e-20)
(0.0466749 0.158925 -8.07984e-21)
(0.0516399 0.180578 1.61172e-20)
(0.0566255 0.201922 -1.61051e-20)
(0.0615919 0.222779 1.6092e-20)
(0.066499 0.242982 -3.21537e-20)
(0.0713076 0.262381 2.40285e-20)
(0.0759815 0.280839 -1.59762e-20)
(0.0804874 0.298242 7.99679e-21)
(0.0847953 0.314489 -1.5896e-20)
(0.0888794 0.329502 0)
(0.0927208 0.34322 8.02623e-21)
(0.0963071 0.355602 -1.57397e-20)
(0.0996316 0.366622 1.57097e-20)
(0.102696 0.376263 0)
(0.105509 0.384513 -7.75886e-21)
(0.108094 0.391348 7.71617e-21)
(0.110439 0.396743 3.09462e-20)
(0.112449 0.400627 1.69937e-20)
(0.000850536 -0.0084632 -1.33936e-20)
(0.00272429 -0.0158485 -1.45727e-20)
(0.00515596 -0.0151815 2.23805e-20)
(0.00770419 -0.00870613 3.80095e-20)
(0.0104045 0.00206457 0)
(0.0132601 0.016049 -1.5654e-20)
(0.0162843 0.0324375 1.58072e-20)
(0.0194833 0.0506122 4.77222e-20)
(0.0228614 0.0700949 -1.6009e-20)
(0.0264147 0.0905057 -1.60677e-20)
(0.0301284 0.111535 4.8255e-20)
(0.0339835 0.13292 1.61221e-20)
(0.0379566 0.15443 0)
(0.042017 0.175856 -3.22415e-20)
(0.0461314 0.197008 4.81723e-20)
(0.050267 0.217711 -1.60467e-20)
(0.0543897 0.237802 1.60464e-20)
(0.0584661 0.257132 1.603e-20)
(0.0624645 0.275567 6.63516e-23)
(0.0663551 0.29299 0)
(0.0701104 0.3093 4.7729e-20)
(0.0737074 0.324416 -3.15444e-20)
(0.0771282 0.338272 1.58076e-20)
(0.0803599 0.350823 0)
(0.0833956 0.362034 -1.57098e-20)
(0.0862344 0.371884 6.25063e-20)
(0.0888844 0.380351 -4.64527e-20)
(0.0913652 0.387404 -1.55419e-20)
(0.0936419 0.393014 1.53042e-20)
(0.0956176 0.397114 1.7042e-20)
(0.00106882 -0.00878455 0)
(0.00299264 -0.0166265 7.27666e-21)
(0.00509818 -0.0163323 4.73278e-24)
(0.00710269 -0.0101963 -3.79846e-20)
(0.00910746 0.00024265 0)
(0.0111652 0.0138935 -3.12202e-20)
(0.0133255 0.029942 0)
(0.0156219 0.0477725 -4.76897e-20)
(0.0180764 0.0669107 1.59659e-20)
(0.0206987 0.0869832 -3.20295e-20)
(0.0234851 0.107685 -3.21508e-20)
(0.0264249 0.12876 -1.60932e-20)
(0.0295016 0.149982 1.60619e-20)
(0.0326914 0.171149 1.60126e-20)
(0.0359679 0.192074 -1.61048e-20)
(0.0393043 0.212587 -3.20257e-20)
(0.042671 0.232528 3.19036e-20)
(0.0460391 0.25175 0)
(0.0493814 0.270121 0)
(0.0526719 0.287523 0)
(0.055886 0.303854 0)
(0.0590028 0.31903 0)
(0.0620053 0.332984 0)
(0.0648806 0.345664 -3.12542e-20)
(0.0676214 0.35703 -3.13089e-20)
(0.070225 0.367053 -1.78411e-22)
(0.0726985 0.375706 -3.10937e-20)
(0.0750584 0.382953 -4.10446e-22)
(0.0772463 0.388761 -3.11846e-20)
(0.0791641 0.39307 6.73745e-20)
(0.00129559 -0.0090601 0)
(0.00327511 -0.0172939 6.53677e-20)
(0.00505631 -0.0173277 4.08446e-24)
(0.00652145 -0.0115051 -2.27526e-20)
(0.00783792 -0.0013882 7.69927e-20)
(0.00911285 0.0119265 4.68211e-20)
(0.0104316 0.0276257 4.72085e-20)
(0.0118513 0.0450971 0)
(0.0134124 0.0638725 0)
(0.0151379 0.0835847 4.80405e-20)
(0.0170331 0.103935 2.07518e-23)
(0.0190946 0.124672 -1.1232e-19)
(0.0213127 0.145578 9.62139e-20)
(0.0236701 0.166454 -3.21028e-20)
(0.0261457 0.187121 3.1915e-20)
(0.028717 0.20741 3.18867e-20)
(0.0313594 0.227166 -3.18857e-20)
(0.0340481 0.246243 3.18848e-20)
(0.0367598 0.264511 6.35166e-20)
(0.0394718 0.281852 -3.15441e-20)
(0.0421622 0.298166 -6.29534e-20)
(0.044812 0.313364 6.27338e-20)
(0.0474051 0.327377 -6.25046e-20)
(0.0499289 0.340149 3.12544e-20)
(0.0523753 0.351635 0)
(0.0547407 0.3618 0)
(0.0570305 0.370612 3.41193e-22)
(0.0592576 0.378031 -1.2236e-19)
(0.0613412 0.384024 6.09023e-20)
(0.0631814 0.388539 -6.75524e-20)
(0.00152689 -0.00927262 0)
(0.00356261 -0.0178176 -5.80983e-20)
(0.00501557 -0.0181374 5.94059e-20)
(0.00594347 -0.0126106 0)
(0.00658283 -0.00281176 -1.23097e-19)
(0.00709201 0.0101614 -1.55801e-20)
(0.00759132 0.0254978 -3.14986e-20)
(0.00816341 0.042592 -1.58391e-20)
(0.00886468 0.0609837 0)
(0.00972908 0.0803114 -3.19749e-20)
(0.0107712 0.100283 3.20062e-20)
(0.0119948 0.120656 6.41512e-20)
(0.0133956 0.141217 -6.41456e-20)
(0.0149612 0.161773 0)
(0.0166756 0.18215 -6.39948e-20)
(0.0185203 0.202182 6.3749e-20)
(0.0204745 0.221718 6.3718e-20)
(0.0225173 0.240616 9.52162e-20)
(0.0246291 0.258746 -9.49319e-20)
(0.0267899 0.275991 1.26238e-19)
(0.02898 0.29225 6.30314e-20)
(0.0311821 0.307435 -6.27343e-20)
(0.0333813 0.321472 1.24799e-19)
(0.0355652 0.334302 0)
(0.0377246 0.345876 6.17723e-20)
(0.0398546 0.356156 1.23307e-19)
(0.0419591 0.365104 -6.0875e-20)
(0.0440471 0.372679 6.12033e-20)
(0.0460161 0.378846 1.99952e-23)
(0.0477627 0.383567 -6.72552e-20)
(0.00175735 -0.00942357 -6.66929e-21)
(0.00384388 -0.018203 0)
(0.00496558 -0.0187689 -7.42507e-20)
(0.00536006 -0.013518 1.51278e-20)
(0.00533287 -0.00403363 4.61396e-20)
(0.00509543 0.00859 1.55566e-20)
(0.00480182 0.0235505 6.27901e-20)
(0.00455756 0.0402502 0)
(0.00443421 0.0582361 3.18164e-20)
(0.00447657 0.0771556 3.18862e-20)
(0.0047073 0.0967248 -3.20009e-20)
(0.00513589 0.116707 9.59509e-20)
(0.00576289 0.136894 0)
(0.00658076 0.157102 0)
(0.00757712 0.177159 9.57471e-20)
(0.00873683 0.196905 -1.59189e-19)
(0.0100427 0.21619 6.34738e-20)
(0.0114777 0.234875 -6.34084e-20)
(0.0130249 0.252834 -6.3073e-20)
(0.0146664 0.26995 -1.88922e-19)
(0.0163849 0.286121 -2.4185e-22)
(0.0181646 0.301259 6.23601e-20)
(0.0199913 0.315288 -1.24393e-19)
(0.0218525 0.328146 6.18267e-20)
(0.0237383 0.339782 -2.29487e-22)
(0.025642 0.350152 -6.14957e-20)
(0.0275652 0.359217 6.12074e-20)
(0.0295128 0.366935 0)
(0.0313616 0.373272 6.02858e-20)
(0.0330027 0.378204 4.4961e-22)
(0.00198236 -0.00951104 -1.33273e-20)
(0.00410953 -0.0184458 1.44886e-20)
(0.00489477 -0.0192175 -8.89235e-20)
(0.00475998 -0.0142266 -4.53035e-20)
(0.00408003 -0.00505537 6.13558e-20)
(0.00311811 0.00721117 -9.31953e-20)
(0.00206043 0.021781 -3.1418e-20)
(0.00103435 0.0380667 -6.31646e-20)
(0.000125532 0.0556256 6.3492e-20)
(-0.000611823 0.0741139 -1.27501e-19)
(-0.00114802 0.0932555 -6.3839e-20)
(-0.00146834 0.112821 -7.94759e-23)
(-0.00156799 0.132609 3.199e-20)
(-0.00145092 0.152441 -9.56949e-20)
(-0.00112646 0.17215 -1.27478e-19)
(-0.00060656 0.19158 -5.60912e-23)
(9.49683e-05 0.210584 -1.61464e-22)
(0.000963981 0.229027 6.31709e-20)
(0.00198593 0.246784 6.30734e-20)
(0.00314497 0.263741 -7.66896e-23)
(0.00442538 0.279794 -3.03545e-22)
(0.00581297 0.294855 6.19554e-20)
(0.00729415 0.308848 6.20994e-20)
(0.00885581 0.321708 6.54344e-23)
(0.010487 0.333381 -1.84411e-19)
(0.0121789 0.343821 1.21977e-19)
(0.0139304 0.352989 1.21959e-19)
(0.0157416 0.360842 -1.20637e-19)
(0.0174699 0.367348 -6.02862e-20)
(0.0189982 0.372498 -6.67745e-20)
(0.00219674 -0.00953228 -1.19802e-19)
(0.0043494 -0.0185448 -1.44731e-20)
(0.00479232 -0.0194843 7.4079e-20)
(0.00413392 -0.0147382 6.04132e-20)
(0.00281726 -0.00587994 -6.13554e-20)
(0.00115596 0.00601966 6.21152e-20)
(-0.000633212 0.0201833 -3.13418e-20)
(-0.00240276 0.0360362 9.47225e-20)
(-0.00405437 0.053147 -6.3492e-20)
(-0.00552564 0.0711813 6.37116e-20)
(-0.00678066 0.0898716 3.1917e-20)
(-0.00780026 0.108996 -3.19849e-20)
(-0.00857635 0.128361 -1.91505e-19)
(-0.00911001 0.147791 1.27506e-19)
(-0.00940786 0.167125 6.36952e-20)
(-0.009479 0.186211 0)
(-0.00933432 0.204908 0)
(-0.00898564 0.223081 -2.68467e-22)
(-0.00844567 0.240609 -6.29146e-20)
(-0.00772826 0.257377 0)
(-0.00684751 0.273284 0)
(-0.00581679 0.288242 -6.2197e-20)
(-0.00464953 0.302173 0)
(-0.0033591 0.315011 -1.229e-19)
(-0.001958 0.326701 0)
(-0.00045775 0.337195 -6.10166e-20)
(0.00113717 0.346455 1.21449e-19)
(0.0028213 0.35444 -1.20133e-19)
(0.00443457 0.36112 0)
(0.00584781 0.366502 0)
(0.00239548 -0.00948679 1.06485e-19)
(0.00455392 -0.0185001 0)
(0.00464814 -0.0195709 -1.47943e-20)
(0.00347323 -0.0150565 1.50757e-20)
(0.00153864 -0.0065129 -9.17917e-20)
(-0.000793357 0.00500935 6.05083e-24)
(-0.0032776 0.0187512 -3.1296e-20)
(-0.00574846 0.0341525 0)
(-0.00809632 0.0507944 0)
(-0.0102518 0.068353 -3.18189e-20)
(-0.0121738 0.0865699 3.18502e-20)
(-0.0138395 0.10523 -6.38373e-20)
(-0.0152385 0.124147 6.38418e-20)
(-0.0163695 0.143152 0)
(-0.0172366 0.162087 0)
(-0.0178464 0.180805 0)
(-0.0182077 0.199169 6.30594e-20)
(-0.0183304 0.217047 -8.32931e-23)
(-0.0182252 0.234319 6.30118e-20)
(-0.0179045 0.250873 -1.24972e-19)
(-0.0173811 0.26661 6.24043e-20)
(-0.0166676 0.28144 -3.09914e-19)
(-0.0157777 0.295286 -1.46134e-22)
(-0.0147254 0.308082 1.22901e-19)
(-0.0135247 0.319772 -4.71467e-22)
(-0.0121904 0.330309 1.21093e-19)
(-0.0107316 0.339654 -1.20464e-19)
(-0.00915945 0.34777 -1.20219e-19)
(-0.00764972 0.354634 -1.75054e-23)
(-0.00634761 0.360266 -1.31669e-19)
(0.00257373 -0.00937436 -1.32943e-20)
(0.00471387 -0.0183133 0)
(0.00445262 -0.019481 2.95551e-20)
(0.00277019 -0.0151871 -3.01172e-20)
(0.000239628 -0.00696095 2.75276e-19)
(-0.00273082 0.00417287 6.65405e-24)
(-0.00586979 0.017477 -3.12598e-20)
(-0.00899568 0.0324084 3.15015e-20)
(-0.0119892 0.0485617 -1.5822e-19)
(-0.0147751 0.0656243 0)
(-0.0173084 0.0833468 0)
(-0.0195637 0.101522 -6.36145e-20)
(-0.0215284 0.11997 6.38229e-20)
(-0.0231996 0.138527 -6.37132e-20)
(-0.0245794 0.15704 6.34428e-20)
(-0.0256723 0.175368 0)
(-0.0264854 0.193376 -2.52686e-19)
(-0.0270269 0.210936 1.25828e-19)
(-0.027306 0.22793 6.28234e-20)
(-0.0273334 0.244248 1.87445e-19)
(-0.0271209 0.259791 0)
(-0.0266813 0.274473 1.23831e-19)
(-0.0260279 0.288214 1.22813e-19)
(-0.0251756 0.30095 1.22137e-19)
(-0.0241407 0.312626 -3.37145e-22)
(-0.0229417 0.323195 -1.20819e-19)
(-0.0215927 0.332622 1.20465e-19)
(-0.0201114 0.340875 0)
(-0.0186868 0.347935 6.44018e-24)
(-0.017485 0.353837 2.62963e-19)
(0.00272658 -0.00919543 -1.06222e-19)
(0.00482049 -0.0179873 0)
(0.00419708 -0.0192197 -1.18019e-19)
(0.00201811 -0.0151369 -1.50349e-19)
(-0.00108326 -0.00723241 -9.17232e-20)
(-0.00465605 0.00350136 3.09336e-20)
(-0.00840536 0.0163521 1.19627e-23)
(-0.0121359 0.0307958 -3.14518e-20)
(-0.0157203 0.0464422 1.23893e-22)
(-0.019079 0.06299 6.35165e-20)
(-0.0221641 0.0801994 6.35984e-20)
(-0.0249483 0.0978709 -6.36206e-20)
(-0.027418 0.11583 6.36004e-20)
(-0.0295689 0.13392 -1.90787e-19)
(-0.0314013 0.151993 1.90279e-19)
(-0.0329183 0.169911 1.26564e-19)
(-0.0341258 0.187542 3.15653e-19)
(-0.0350302 0.204763 -6.29033e-20)
(-0.0356395 0.221458 -1.25189e-19)
(-0.035963 0.237519 -1.60497e-22)
(-0.0360119 0.25285 -1.2436e-19)
(-0.0357986 0.267363 3.70355e-19)
(-0.0353369 0.280983 -2.45883e-19)
(-0.0346424 0.293644 2.43866e-19)
(-0.0337338 0.305295 -1.21559e-19)
(-0.032634 0.315889 2.41293e-19)
(-0.0313628 0.325396 4.27231e-22)
(-0.0299445 0.333792 -2.3805e-19)
(-0.0285793 0.341064 2.35891e-19)
(-0.0274593 0.347263 1.30677e-19)
(0.00284935 -0.00895122 1.06222e-19)
(0.00486544 -0.0175263 0)
(0.00387356 -0.018794 2.65393e-19)
(0.00121133 -0.0149147 9.02153e-20)
(-0.00243229 -0.00733698 0)
(-0.00656753 0.00298478 0)
(-0.0108787 0.0153667 0)
(-0.0151593 0.0293062 0)
(-0.0192758 0.0444287 6.3225e-20)
(-0.0231457 0.0604449 6.33954e-20)
(-0.026719 0.0771244 -1.27178e-19)
(-0.0299679 0.0942756 1.2729e-19)
(-0.0328781 0.11173 1.90856e-19)
(-0.0354443 0.129336 6.36525e-20)
(-0.0376658 0.146951 6.34231e-20)
(-0.0395449 0.164442 -1.8974e-19)
(-0.0410858 0.18168 -2.52241e-19)
(-0.042294 0.198545 -1.25705e-19)
(-0.0431762 0.214923 1.2519e-19)
(-0.0437407 0.23071 -2.49412e-19)
(-0.0439979 0.245811 1.23711e-19)
(-0.0439601 0.260139 -2.46912e-19)
(-0.0436413 0.273622 1.22485e-19)
(-0.0430581 0.286196 2.33974e-22)
(-0.042232 0.297811 -1.20869e-19)
(-0.0411899 0.308426 -2.41011e-19)
(-0.0399584 0.318014 2.3892e-19)
(-0.0385685 0.32656 0)
(-0.0372288 0.334062 -2.67017e-23)
(-0.0361636 0.340584 -2.60947e-19)
(0.00293754 -0.00864372 1.32604e-20)
(0.00484098 -0.0169361 0)
(0.00347501 -0.0182123 -1.17886e-19)
(0.000345243 -0.0145307 3.00144e-20)
(-0.00380866 -0.00728569 -3.04769e-20)
(-0.0084626 0.00261196 0)
(-0.0132833 0.0145103 -3.11707e-20)
(-0.0180553 0.0279302 3.13859e-20)
(-0.0226412 0.0425136 6.31676e-20)
(-0.0269565 0.0579834 -1.90033e-19)
(-0.0309508 0.0741191 -6.35634e-20)
(-0.0345962 0.0907363 -1.07238e-22)
(-0.0378786 0.107673 -3.21718e-23)
(-0.0407923 0.124782 -1.27015e-19)
(-0.0433361 0.141926 -6.34983e-20)
(-0.0455114 0.158975 0)
(-0.0473216 0.175805 -1.494e-22)
(-0.0487712 0.1923 1.25604e-19)
(-0.0498658 0.208347 -1.24816e-19)
(-0.0506129 0.223845 0)
(-0.0510223 0.238701 0)
(-0.0511058 0.252831 0)
(-0.0508777 0.266163 0)
(-0.0503557 0.278639 -2.16173e-22)
(-0.0495635 0.29021 0)
(-0.0485327 0.30084 0)
(-0.0472965 0.31051 1.18985e-19)
(-0.0458932 0.319215 1.18063e-19)
(-0.0445369 0.326966 1.1747e-19)
(-0.0434901 0.333841 -4.953e-23)
(0.00298691 -0.0082756 1.32483e-20)
(0.00474006 -0.0162234 -2.87583e-20)
(0.00299534 -0.0174842 1.76452e-19)
(-0.000583658 -0.013996 -2.99786e-20)
(-0.00521244 -0.00709063 3.04463e-20)
(-0.0103375 0.00237093 1.19902e-23)
(-0.0156113 0.0137719 9.3323e-20)
(-0.0208125 0.0266581 -1.25395e-19)
(-0.025801 0.0406888 1.89215e-19)
(-0.0304924 0.0556 4.41574e-23)
(-0.0348366 0.0711806 -6.34685e-20)
(-0.0388067 0.0872531 1.27036e-19)
(-0.0423894 0.103661 -1.27036e-19)
(-0.0455792 0.120263 1.26913e-19)
(-0.0483747 0.136926 0)
(-0.050777 0.153524 1.26353e-19)
(-0.0527891 0.169936 0)
(-0.0544145 0.186049 6.91067e-23)
(-0.0556579 0.201755 -1.24895e-19)
(-0.0565262 0.216953 -1.24284e-19)
(-0.0570284 0.231552 1.23621e-19)
(-0.0571761 0.245472 -1.2291e-19)
(-0.0569832 0.258643 -1.22152e-19)
(-0.0564684 0.27101 -2.42888e-19)
(-0.0556575 0.282528 -1.20502e-19)
(-0.0545862 0.293169 1.19921e-19)
(-0.053295 0.302921 -2.3763e-19)
(-0.0518295 0.311791 -1.18063e-19)
(-0.0504058 0.319809 0)
(-0.0493322 0.327066 -1.2967e-19)
(0.00299359 -0.00785015 0)
(0.00455641 -0.0153963 1.14842e-19)
(0.00242955 -0.0166207 -8.82277e-20)
(-0.00157768 -0.0133233 -1.49625e-19)
(-0.00664253 -0.00676476 0)
(-0.0121876 0.00224905 0)
(-0.0178545 0.0131398 -1.86656e-19)
(-0.0234186 0.0254796 2.50609e-19)
(-0.0287396 0.0389462 -1.891e-19)
(-0.0337341 0.0532888 0)
(-0.0383535 0.0683057 6.34157e-20)
(-0.042573 0.083826 -6.35923e-20)
(-0.0463805 0.099699 6.33941e-23)
(-0.0497715 0.115788 -6.35749e-20)
(-0.0527446 0.131963 -6.33825e-20)
(-0.0553014 0.148103 -4.81418e-23)
(-0.0574444 0.164091 1.25889e-19)
(-0.0591765 0.179816 1.2545e-19)
(-0.060502 0.195173 -1.60191e-22)
(-0.061427 0.210063 2.48331e-19)
(-0.0619598 0.224397 -2.47392e-19)
(-0.0621113 0.238098 2.45558e-19)
(-0.061895 0.251099 1.22152e-19)
(-0.0613301 0.263349 1.21349e-19)
(-0.0604439 0.274807 1.99455e-22)
(-0.0592759 0.285453 0)
(-0.0578736 0.295284 1.18699e-19)
(-0.0562901 0.304323 -3.52814e-19)
(-0.0547407 0.312622 1.15853e-19)
(-0.0535856 0.320288 1.28844e-19)
(0.00295404 -0.00737127 -7.92703e-20)
(0.0042847 -0.014464 -2.58231e-19)
(0.00177382 -0.0156337 6.79811e-24)
(-0.00263784 -0.0125259 1.57493e-22)
(-0.0080966 -0.00632175 -9.10225e-20)
(-0.0140068 0.00223319 0)
(-0.0200035 0.0126018 -6.20195e-20)
(-0.025861 0.0243841 -3.75623e-19)
(-0.0314409 0.0372773 1.88921e-19)
(-0.0366622 0.0510439 -1.26392e-19)
(-0.041479 0.0654913 1.90164e-19)
(-0.0458692 0.0804551 -6.34051e-20)
(-0.0498226 0.0957896 1.26975e-19)
(-0.0533364 0.111362 -3.17166e-19)
(-0.0564098 0.127048 1.8986e-19)
(-0.0590447 0.14273 1.52281e-22)
(-0.0612443 0.158291 -3.7743e-19)
(-0.0630108 0.173626 1.25556e-19)
(-0.0643484 0.18863 -1.24616e-19)
(-0.0652625 0.203208 0)
(-0.0657605 0.217274 1.23447e-19)
(-0.0658525 0.23075 0)
(-0.0655513 0.243575 -1.22124e-19)
(-0.0648758 0.255699 1.20924e-19)
(-0.0638545 0.26709 1.20303e-19)
(-0.0625294 0.277734 1.19171e-19)
(-0.0609551 0.287639 0)
(-0.0591919 0.296845 0)
(-0.0574512 0.305435 -2.32937e-19)
(-0.056152 0.313533 3.8518e-19)
(0.00286523 -0.0068434 7.93193e-20)
(0.00392063 -0.0134365 1.43377e-19)
(0.00102567 -0.0145362 -1.17153e-19)
(-0.00376369 -0.0116179 2.38891e-19)
(-0.00957089 -0.00577575 3.0497e-20)
(-0.0157881 0.00230996 3.07418e-20)
(-0.0220477 0.0121458 2.00876e-22)
(-0.0281263 0.0233614 -1.24948e-19)
(-0.0338884 0.0356739 -6.28852e-20)
(-0.0392573 0.0488595 1.04594e-22)
(-0.0441907 0.0627343 -8.85973e-23)
(-0.0486699 0.0771402 -1.90315e-19)
(-0.0526875 0.0919367 -6.34822e-20)
(-0.0562421 0.106995 4.9357e-23)
(-0.0593352 0.122194 1.26549e-19)
(-0.061969 0.137418 1.26228e-19)
(-0.0641472 0.152556 3.65532e-23)
(-0.0658725 0.167503 -1.25311e-19)
(-0.0671487 0.182157 1.24939e-19)
(-0.0679809 0.196424 -1.23929e-19)
(-0.0683758 0.21022 -2.46826e-19)
(-0.068342 0.223471 -1.22822e-19)
(-0.0678916 0.236117 2.43439e-19)
(-0.0670426 0.248111 0)
(-0.0658234 0.259427 -1.19964e-19)
(-0.0642779 0.270059 -2.38152e-19)
(-0.0624667 0.280028 -2.36344e-19)
(-0.0604577 0.289395 1.16898e-19)
(-0.0584551 0.298278 -3.48029e-19)
(-0.0569425 0.306825 1.27882e-19)
(0.0027246 -0.00627154 -1.31819e-19)
(0.00346106 -0.0123248 2.86406e-20)
(0.000184089 -0.013342 1.17155e-19)
(-0.0049532 -0.0106141 -8.95417e-20)
(-0.0110601 -0.00514111 3.03563e-20)
(-0.017523 0.00246609 -4.17905e-23)
(-0.0239759 0.0117602 3.09835e-19)
(-0.0302 0.0224015 1.25008e-19)
(-0.0360652 0.0341282 1.25756e-19)
(-0.0414999 0.04673 1.89466e-19)
(-0.0464667 0.0600318 -1.89874e-19)
(-0.0509507 0.0738817 1.2682e-19)
(-0.0549478 0.0881436 2.53839e-19)
(-0.0584589 0.102693 1.26893e-19)
(-0.0614876 0.117411 1.49829e-22)
(-0.0640378 0.132185 -2.52268e-19)
(-0.0661136 0.146907 2.51787e-19)
(-0.0677186 0.161472 1.97072e-22)
(-0.0688568 0.175783 -1.24893e-19)
(-0.069533 0.189746 1.23883e-19)
(-0.0697531 0.203278 1.23379e-19)
(-0.0695245 0.216307 -1.22529e-19)
(-0.068858 0.228773 -2.43661e-19)
(-0.0677703 0.240636 -2.91851e-22)
(-0.0662888 0.251871 1.19894e-19)
(-0.0644576 0.262481 1.18981e-19)
(-0.0623428 0.272502 2.35887e-19)
(-0.0600191 0.282015 -2.33096e-19)
(-0.0576808 0.291183 0)
(-0.0558811 0.300185 1.27533e-19)
(0.0025302 -0.00566115 1.45033e-22)
(0.00290415 -0.0111408 0)
(-0.000750298 -0.0120654 -8.75839e-20)
(-0.00620257 -0.00952932 -2.97786e-20)
(-0.0125572 -0.00443201 -1.20878e-19)
(-0.0192013 0.00268883 0)
(-0.025775 0.0114339 -1.85801e-19)
(-0.0320667 0.0214956 6.23598e-20)
(-0.0379535 0.0326334 0)
(-0.0433702 0.0446508 -1.26065e-19)
(-0.048285 0.0573816 0)
(-0.0526874 0.0706797 -1.90091e-19)
(-0.0565771 0.0844137 1.90033e-19)
(-0.0599579 0.0984618 -1.26713e-19)
(-0.0628359 0.112709 -1.26461e-19)
(-0.0652169 0.127044 0)
(-0.0671064 0.141362 0)
(-0.0685089 0.155559 1.25436e-19)
(-0.0694292 0.169539 3.53192e-22)
(-0.0698721 0.18321 1.24336e-19)
(-0.0698429 0.196489 -1.23117e-19)
(-0.0693479 0.209304 2.45172e-19)
(-0.0683964 0.221598 -1.21481e-19)
(-0.0670035 0.23333 0)
(-0.0651943 0.244481 3.59534e-19)
(-0.0630121 0.25506 -5.93506e-19)
(-0.0605269 0.265116 1.1755e-19)
(-0.0578198 0.274753 1.16649e-19)
(-0.0550722 0.284189 1.15266e-19)
(-0.0529102 0.293639 2.53747e-19)
(0.00228066 -0.00501804 -1.05e-19)
(0.00224944 -0.0098966 2.28061e-19)
(-0.00177509 -0.010721 1.16808e-19)
(-0.00750601 -0.00837848 2.67374e-19)
(-0.014053 -0.00366218 3.32067e-19)
(-0.0208111 0.00296631 6.12046e-20)
(-0.0274304 0.0111573 -3.0885e-19)
(-0.0337096 0.0206361 0)
(-0.0395345 0.0311842 -2.50712e-19)
(-0.0448475 0.0426188 -1.25816e-19)
(-0.0496232 0.0547828 0)
(-0.0538561 0.067536 -1.26483e-19)
(-0.0575498 0.0807513 1.31958e-22)
(-0.0607118 0.09431 -3.79649e-19)
(-0.0633508 0.108099 1.26462e-19)
(-0.065475 0.122011 1.2631e-19)
(-0.0670917 0.13594 -2.51043e-19)
(-0.068207 0.149786 -2.50439e-19)
(-0.0688266 0.163452 -3.47467e-22)
(-0.0689561 0.176848 -1.95987e-22)
(-0.0686004 0.189891 0)
(-0.0677652 0.202509 -1.22558e-19)
(-0.0664583 0.214643 -1.21585e-19)
(-0.0646929 0.226252 0)
(-0.0624915 0.237321 0)
(-0.0598948 0.247862 3.55939e-19)
(-0.0569751 0.257934 -3.51967e-19)
(-0.0538191 0.267668 0)
(-0.0505925 0.277341 3.45149e-19)
(-0.0479952 0.287216 -2.52542e-19)
(0.0019753 -0.00434835 3.17987e-22)
(0.001498 -0.00860498 -2.28099e-19)
(-0.0028859 -0.00932358 -2.91364e-20)
(-0.00885551 -0.00717619 -2.97015e-19)
(-0.0155361 -0.00284455 -1.81097e-19)
(-0.0223377 0.00328796 6.11142e-20)
(-0.0289251 0.0109224 1.23616e-19)
(-0.0351095 0.0198178 3.1098e-19)
(-0.0407874 0.0297777 2.50715e-19)
(-0.0459098 0.0406335 2.51886e-19)
(-0.0504582 0.0522371 0)
(-0.0544325 0.0644544 2.03475e-22)
(-0.0578407 0.0771625 0)
(-0.060694 0.0902456 2.53191e-19)
(-0.0630044 0.103593 0)
(-0.0647827 0.117099 -1.26262e-19)
(-0.0660386 0.130659 1.25601e-19)
(-0.06678 0.144175 0)
(-0.0670143 0.15755 0)
(-0.066748 0.170694 -3.71825e-19)
(-0.0659866 0.183524 1.23001e-19)
(-0.0647357 0.195966 0)
(-0.0630022 0.20796 2.42633e-19)
(-0.0607977 0.219463 2.41068e-19)
(-0.0581416 0.230457 -4.77862e-19)
(-0.0550711 0.240958 4.73592e-19)
(-0.0516591 0.251032 3.21378e-22)
(-0.0479959 0.26083 2.32054e-19)
(-0.0442293 0.270697 -2.30075e-19)
(-0.0411305 0.280954 0)
(0.00161418 -0.00365849 2.62401e-19)
(0.000652541 -0.00727899 -2.84631e-20)
(-0.00407615 -0.00788816 -2.32392e-19)
(-0.0102406 -0.00593656 0)
(-0.0169926 -0.00199095 -2.40551e-19)
(-0.0237642 0.00364492 0)
(-0.0302395 0.0107236 -3.07991e-19)
(-0.0362449 0.0190382 -1.86685e-19)
(-0.041689 0.0284145 -2.50074e-19)
(-0.0465326 0.038698 0)
(-0.0507646 0.04975 6.31632e-20)
(-0.0543906 0.0614425 6.36972e-20)
(-0.0574232 0.0736568 -1.26347e-19)
(-0.0598777 0.0862802 -2.52867e-19)
(-0.0617695 0.0992042 -1.2604e-19)
(-0.0631125 0.112324 -5.03995e-19)
(-0.0639187 0.125538 2.50934e-19)
(-0.0641985 0.138747 -3.5192e-22)
(-0.0639616 0.151857 -3.3699e-22)
(-0.063216 0.164777 3.71434e-19)
(-0.0619686 0.177422 0)
(-0.0602257 0.189717 0)
(-0.0579946 0.201599 1.14545e-22)
(-0.055286 0.21302 3.45879e-22)
(-0.0521168 0.223957 -2.38499e-19)
(-0.0485204 0.234425 -2.36609e-19)
(-0.0445679 0.244489 7.00331e-23)
(-0.040352 0.254321 -2.32051e-19)
(-0.035999 0.264329 -2.29412e-19)
(-0.0323449 0.274905 2.69774e-22)
(0.00119818 -0.00295518 0)
(-0.000282352 -0.00593202 2.26785e-19)
(-0.00533686 -0.00642947 2.03376e-19)
(-0.0116481 -0.00467302 2.95726e-20)
(-0.0184053 -0.00111183 4.8065e-19)
(-0.0250702 0.00403044 -6.09143e-20)
(-0.0313506 0.0105582 4.92118e-19)
(-0.0370906 0.0182984 2.47912e-19)
(-0.0422128 0.0270993 3.75037e-19)
(-0.0466883 0.0368202 1.88272e-19)
(-0.0505139 0.0473319 6.30984e-20)
(-0.0537015 0.058513 3.16136e-19)
(-0.0562684 0.070249 3.67653e-22)
(-0.0582342 0.0824302 1.2667e-19)
(-0.0596178 0.0949499 2.52536e-19)
(-0.0604362 0.107705 2.5196e-19)
(-0.0607042 0.120597 0)
(-0.0604352 0.133526 0)
(-0.0596411 0.146399 0)
(-0.0583325 0.159125 0)
(-0.0565187 0.171619 2.45855e-19)
(-0.0542079 0.183802 0)
(-0.0514094 0.195607 -3.5026e-22)
(-0.0481345 0.206981 4.80507e-19)
(-0.0443993 0.217891 2.38175e-19)
(-0.040234 0.228344 2.35992e-19)
(-0.0357074 0.2384 4.67624e-19)
(-0.0309119 0.248237 0)
(-0.0259483 0.258327 -4.57721e-19)
(-0.0217049 0.269136 4.98719e-19)
(0.000729066 -0.00224542 2.08762e-19)
(-0.00130015 -0.00457767 -2.2679e-19)
(-0.00665648 -0.00496202 0)
(-0.0130617 -0.00339806 -2.35835e-19)
(-0.0197541 -0.000215977 -6.04886e-20)
(-0.0262321 0.00444032 -1.82063e-19)
(-0.0322317 0.0104268 -5.52814e-19)
(-0.0376177 0.0176039 -5.53414e-22)
(-0.0423277 0.0258418 -1.87004e-19)
(-0.0463446 0.0350137 -4.38833e-19)
(-0.0496732 0.0450001 -6.28501e-20)
(-0.052332 0.0556862 -2.52158e-19)
(-0.0543433 0.0669616 -2.5243e-19)
(-0.0557308 0.0787197 0)
(-0.0565174 0.0908562 -2.52111e-19)
(-0.056723 0.10327 -3.77589e-19)
(-0.0563657 0.115864 1.25262e-19)
(-0.0554616 0.12854 -2.49777e-19)
(-0.0540256 0.141206 -2.4857e-19)
(-0.0520715 0.15377 0)
(-0.0496116 0.166148 -4.91445e-19)
(-0.0466581 0.178259 0)
(-0.0432238 0.19003 -4.84574e-19)
(-0.0393235 0.2014 -2.40257e-19)
(-0.0349756 0.212327 -4.75907e-19)
(-0.0302101 0.222802 2.35815e-19)
(-0.0250938 0.232868 -7.00048e-19)
(-0.0197175 0.242698 2.30717e-19)
(-0.014152 0.252811 4.88868e-22)
(-0.00931496 0.263745 -2.47737e-19)
(0.000209604 -0.00153642 -2.08767e-19)
(-0.00239224 -0.00322957 2.82497e-20)
(-0.00802071 -0.00349992 2.01995e-19)
(-0.0144623 -0.00212315 2.3584e-19)
(-0.0210151 0.000689635 -2.39612e-19)
(-0.0272223 0.00487309 5.11614e-22)
(-0.032852 0.0103338 2.45446e-19)
(-0.0377923 0.016965 -4.94748e-19)
(-0.0419978 0.024658 -6.19248e-20)
(-0.0454635 0.0332997 5.63391e-19)
(-0.0482034 0.0427804 -3.77081e-19)
(-0.0502422 0.0529915 6.29788e-19)
(-0.0516079 0.0638272 6.30884e-19)
(-0.0523284 0.075184 -1.25938e-19)
(-0.0524302 0.0869599 2.52112e-19)
(-0.0519364 0.0990565 3.77469e-19)
(-0.0508682 0.111377 1.25369e-19)
(-0.0492448 0.123828 2.70927e-22)
(-0.0470842 0.136316 1.24196e-19)
(-0.0444036 0.148752 1.23367e-19)
(-0.0412196 0.161051 -1.22513e-19)
(-0.0375495 0.173131 1.21723e-19)
(-0.033412 0.184917 -2.41547e-19)
(-0.0288292 0.196338 2.39905e-19)
(-0.0238264 0.20734 4.73448e-22)
(-0.018439 0.217896 2.34979e-19)
(-0.012737 0.228021 5.44906e-22)
(-0.00681168 0.237858 -2.30359e-19)
(-0.000698576 0.247946 3.04559e-22)
(0.00469194 0.258879 0)
(-0.000356445 -0.000835505 0)
(-0.00354785 -0.0019013 0)
(-0.00941241 -0.00205679 -2.59734e-19)
(-0.015827 -0.000858668 2.9378e-20)
(-0.022161 0.0015999 0)
(-0.0280088 0.00533007 2.42291e-19)
(-0.0331757 0.0102876 6.12395e-20)
(-0.0375754 0.0163971 1.85485e-19)
(-0.041181 0.0235702 2.48892e-19)
(-0.0440008 0.0317073 -2.50234e-19)
(-0.046058 0.0407077 2.51201e-19)
(-0.0473847 0.0504696 -2.5182e-19)
(-0.0480141 0.0608913 -2.52116e-19)
(-0.0479787 0.0718722 0)
(-0.0473085 0.0833133 0)
(-0.04603 0.0951184 0)
(-0.0441672 0.107193 -2.50511e-19)
(-0.0417422 0.119445 3.74345e-19)
(-0.0387764 0.131784 -1.23903e-19)
(-0.0352903 0.144124 0)
(-0.0313054 0.156381 3.6791e-19)
(-0.026845 0.168473 -1.21535e-19)
(-0.021936 0.180324 2.41544e-19)
(-0.0166112 0.191861 -4.78287e-19)
(-0.0109096 0.203016 4.74183e-19)
(-0.00488148 0.213741 -2.30289e-22)
(0.0013888 0.224015 3.44491e-22)
(0.00779851 0.233925 2.2972e-19)
(0.0143462 0.243976 -2.6826e-23)
(0.0201892 0.25477 2.45433e-19)
(-0.000964223 -0.000150135 2.59085e-20)
(-0.00475395 -0.000606343 -2.81493e-20)
(-0.0108115 -0.000645708 5.75145e-20)
(-0.0171299 0.000386094 -3.51382e-19)
(-0.0231602 0.0025115 5.95383e-20)
(-0.0285557 0.0058153 0)
(-0.0331623 0.0103003 2.43874e-19)
(-0.0369224 0.0159208 -2.46109e-19)
(-0.039829 0.0226075 0)
(-0.0419046 0.0302737 3.11793e-19)
(-0.0431826 0.0388277 -6.25462e-20)
(-0.0437025 0.0481734 0)
(-0.0435033 0.0582133 -1.25981e-19)
(-0.0426222 0.0688499 2.5157e-19)
(-0.0410928 0.0799869 -1.25453e-19)
(-0.0389446 0.0915303 1.25577e-19)
(-0.0362046 0.103388 -2.49989e-19)
(-0.0328976 0.115471 -3.3174e-22)
(-0.0290476 0.127691 -2.96949e-22)
(-0.0246785 0.139965 -1.23039e-19)
(-0.0198161 0.152214 -2.44834e-19)
(-0.0144899 0.16436 -3.4679e-22)
(-0.00873603 0.176329 1.59231e-22)
(-0.00260077 0.188049 2.38944e-19)
(0.00385665 0.199451 -2.36436e-19)
(0.0105582 0.21047 2.34401e-19)
(0.0173845 0.221049 -4.63123e-19)
(0.0241922 0.231191 -3.88596e-22)
(0.0309898 0.24129 -4.52812e-19)
(0.0371006 0.251851 2.43914e-19)
(-0.00160754 0.000512008 0)
(-0.00599493 0.000641766 -2.23974e-19)
(-0.0121947 0.000720561 0)
(-0.0183412 0.00160269 6.43861e-22)
(-0.0239774 0.00342267 5.94494e-20)
(-0.0288222 0.00633517 9.7858e-23)
(-0.0327662 0.0103874 -4.87027e-19)
(-0.0357831 0.0155612 1.84727e-19)
(-0.0378869 0.0218052 0)
(-0.0391159 0.0290445 -3.11673e-19)
(-0.0395141 0.0371957 6.24224e-20)
(-0.0391291 0.046168 0)
(-0.0380062 0.0558676 -1.2576e-19)
(-0.0361874 0.0661999 1.2536e-19)
(-0.03371 0.0770709 1.24996e-19)
(-0.0306067 0.088389 2.50343e-19)
(-0.0269071 0.100064 -1.246e-19)
(-0.0226381 0.11201 0)
(-0.017826 0.124143 0)
(-0.0124971 0.136382 2.46044e-19)
(-0.00668004 0.148655 -2.44279e-19)
(-0.000408934 0.160891 2.42059e-19)
(0.0062727 0.173025 2.40488e-19)
(0.0133058 0.184996 2.38014e-19)
(0.0206086 0.196747 -2.35597e-19)
(0.0280634 0.208223 2.33604e-19)
(0.0354855 0.219355 2.30654e-19)
(0.042622 0.23009 -2.28149e-19)
(0.0493588 0.240681 3.96332e-22)
(0.0552599 0.251336 4.8423e-19)
(-0.00228002 0.00114425 2.57683e-20)
(-0.00725385 0.00183087 1.96043e-19)
(-0.0135366 0.0020309 0)
(-0.0194286 0.00278463 2.33554e-19)
(-0.0245742 0.00433396 0)
(-0.0287642 0.006899 0)
(-0.0319378 0.0105681 1.8249e-19)
(-0.0341021 0.0153483 -1.5965e-22)
(-0.0352943 0.0212045 6.16873e-20)
(-0.0355688 0.0280728 6.22313e-20)
(-0.0349817 0.0358767 -1.87284e-19)
(-0.0335893 0.0445302 1.24919e-19)
(-0.0314436 0.0539425 0)
(-0.0285916 0.0640214 0)
(-0.0250748 0.0746749 -2.50645e-19)
(-0.020929 0.0858133 0)
(-0.0161863 0.0973488 -1.24697e-19)
(-0.0108755 0.109197 1.23843e-19)