/*--------------------------------*- C++ -*----------------------------------*\
  =========                 |
  \\      /  F ield         | OpenFOAM: The Open Source CFD Toolbox
   \\    /   O peration     | Website:  https://openfoam.org
    \\  /    A nd           | Version:  7
     \\/     M anipulation  |
\*---------------------------------------------------------------------------*/
FoamFile
{
    version     2.0;
    format      ascii;
    class       volScalarField;
    location    "0.2";
    object      p;
}
// * * * * * * * * * * * * * * * * * * * * * * * * * * * * * * * * * * * * * //

dimensions      [0 2 -2 0 0 0 0];

internalField   nonuniform List<scalar> 
400
(
7.05493e-06
-0.00589425
-0.0130428
-0.0184864
-0.0205079
-0.0183154
-0.0118454
-0.00154432
0.0117917
0.0271211
0.0432349
0.0588316
0.072603
0.0833446
0.0900951
0.0923088
0.0900654
0.0842942
0.0769032
0.0710314
0.00583209
-0.000238246
-0.005771
-0.00948281
-0.0105302
-0.00836294
-0.0029075
0.0055212
0.0163283
0.0287115
0.0417222
0.054332
0.0655096
0.0743164
0.0800184
0.0822148
0.0809866
0.0769925
0.071263
0.0652478
0.013398
0.00496684
-0.00100552
-0.0044212
-0.00527334
-0.00326497
0.0016002
0.00902279
0.0184934
0.029336
0.0407471
0.0518464
0.0617409
0.0696056
0.0747749
0.0768455
0.0758075
0.0720646
0.0658399
0.057444
0.0202074
0.00859673
0.00120711
-0.0026735
-0.00373213
-0.00189629
0.00272016
0.00977264
0.0187672
0.0290803
0.0399755
0.0506356
0.0602126
0.0678942
0.072981
0.0749784
0.0737382
0.0694433
0.0616711
0.0500072
0.0245932
0.0096491
0.000574194
-0.00398369
-0.00530523
-0.00351151
0.00116997
0.00832791
0.0174526
0.0279365
0.0390688
0.0500499
0.0600251
0.0681383
0.0735982
0.075768
0.0743332
0.0692744
0.0596219
0.0444195
0.0252982
0.00700132
-0.00381502
-0.00904715
-0.0105103
-0.00849983
-0.0033575
0.00442636
0.014307
0.0256688
0.0377992
0.049884
0.0610239
0.0702747
0.0767037
0.079483
0.0780962
0.0723162
0.0606657
0.0417426
0.0212469
-0.000434998
-0.0129431
-0.0186907
-0.020022
-0.0174086
-0.0113143
-0.00231844
0.0089879
0.0219692
0.0358977
0.0499268
0.0630886
0.074316
0.0824885
0.0865309
0.0856692
0.0794258
0.0657785
0.0428882
0.0113358
-0.0138135
-0.0278755
-0.0338236
-0.0345868
-0.0308447
-0.023202
-0.0123378
0.00110771
0.0164816
0.0330443
0.0499186
0.0660608
0.0802595
0.0911638
0.0973845
0.0978059
0.0916064
0.0760875
0.048887
-0.00572479
-0.0344834
-0.0498578
-0.0555017
-0.0550617
-0.0494921
-0.0395741
-0.0260984
-0.00974745
0.00882677
0.0288979
0.0495823
0.0697768
0.0881235
0.103007
0.112647
0.115468
0.110148
0.0930598
0.0611197
-0.0315501
-0.0641135
-0.080386
-0.0849392
-0.0823773
-0.0740446
-0.0609519
-0.0440132
-0.0239341
-0.00132583
0.0231492
0.0486554
0.0740785
0.0979416
0.118351
0.13306
0.139883
0.136751
0.1187
0.0815549
-0.0682717
-0.104859
-0.121287
-0.123496
-0.117456
-0.105081
-0.0876794
-0.0662935
-0.0416114
-0.0141364
0.0156172
0.0469551
0.0788445
0.109766
0.137576
0.159508
0.17259
0.173677
0.15581
0.113066
-0.118882
-0.159626
-0.174821
-0.172632
-0.161072
-0.142872
-0.119712
-0.0927376
-0.0625445
-0.0294204
0.00639382
0.0444849
0.0840528
0.123681
0.16109
0.192998
0.215496
0.223927
0.208357
0.159943
-0.187933
-0.23251
-0.243799
-0.233791
-0.213604
-0.18709
-0.15632
-0.122457
-0.0858598
-0.046438
-0.00398449
0.0415617
0.0898526
0.13982
0.18928
0.234596
0.270867
0.291452
0.282036
0.228823
-0.28305
-0.329529
-0.331632
-0.308101
-0.274617
-0.236378
-0.195715
-0.153568
-0.109801
-0.0637067
-0.0143994
0.0388997
0.0965829
0.158288
0.222356
0.285208
0.341171
0.381285
0.385116
0.330529
-0.418173
-0.459736
-0.442062
-0.395618
-0.342063
-0.2877
-0.234584
-0.1829
-0.131578
-0.0789467
-0.0231684
0.0375275
0.104608
0.178886
0.259888
0.344938
0.428412
0.499314
0.529623
0.48372
-0.619413
-0.636571
-0.578323
-0.494074
-0.411219
-0.335647
-0.267769
-0.20596
-0.147514
-0.0893465
-0.0283757
0.0384142
0.113885
0.200558
0.300056
0.412068
0.53294
0.651429
0.732447
0.720598
-0.935588
-0.87817
-0.741674
-0.598048
-0.474383
-0.372619
-0.288837
-0.217731
-0.153916
-0.092419
-0.0286664
0.0417618
0.123344
0.22081
0.339009
0.48225
0.652271
0.841654
1.01496
1.09628
-1.48059
-1.20195
-0.920993
-0.69254
-0.517671
-0.387696
-0.290188
-0.213417
-0.148153
-0.0872003
-0.0245182
0.0455689
0.129111
0.233306
0.36737
0.543129
0.772636
1.06029
1.39819
1.73407
-2.57156
-1.60192
-1.04346
-0.714824
-0.497794
-0.353382
-0.255524
-0.184277
-0.126588
-0.0737751
-0.0192002
0.0430748
0.119772
0.219661
0.356013
0.549829
0.829819
1.23508
1.88111
2.95926
-4.4451
-2.01726
-0.969792
-0.564335
-0.357042
-0.239031
-0.169353
-0.123292
-0.0871779
-0.0533612
-0.0166678
0.0275242
0.0843094
0.161204
0.271588
0.441372
0.718812
1.22151
2.38403
4.9294
)
;

boundaryField
{
    movingWall
    {
        type            zeroGradient;
    }
    fixedWalls
    {
        type            zeroGradient;
    }
    frontAndBack
    {
        type            empty;
    }
}


// ************************************************************************* //
