/*--------------------------------*- C++ -*----------------------------------*\
  =========                 |
  \\      /  F ield         | OpenFOAM: The Open Source CFD Toolbox
   \\    /   O peration     | Website:  https://openfoam.org
    \\  /    A nd           | Version:  7
     \\/     M anipulation  |
\*---------------------------------------------------------------------------*/
FoamFile
{
    version     2.0;
    format      ascii;
    class       surfaceScalarField;
    location    "0.2";
    object      phi;
}
// * * * * * * * * * * * * * * * * * * * * * * * * * * * * * * * * * * * * * //

dimensions      [0 3 -1 0 0 0 0];

internalField   nonuniform List<scalar> 
760
(
1.42603e-08
-1.42975e-08
-2.23546e-08
3.6615e-08
-1.14273e-07
9.19183e-08
-2.45393e-07
1.3112e-07
-3.95941e-07
1.50547e-07
-5.47168e-07
1.51227e-07
-6.82956e-07
1.35789e-07
-7.90399e-07
1.07442e-07
-8.59922e-07
6.95233e-08
-8.85346e-07
2.54246e-08
-8.64029e-07
-2.13177e-08
-7.97114e-07
-6.69145e-08
-6.89838e-07
-1.07275e-07
-5.51764e-07
-1.38075e-07
-3.9678e-07
-1.54984e-07
-2.42651e-07
-1.5413e-07
-1.0975e-07
-1.32901e-07
-1.85782e-08
-9.11719e-08
1.5771e-08
-3.43488e-08
1.57712e-08
-3.43523e-08
2.00548e-08
-1.80402e-07
1.82664e-07
-4.3398e-07
3.45496e-07
-7.64234e-07
4.61374e-07
-1.13175e-06
5.18069e-07
-1.49652e-06
5.15996e-07
-1.82238e-06
4.61645e-07
-2.07939e-06
3.64451e-07
-2.245e-06
2.35135e-07
-2.30471e-06
8.51355e-08
-2.2526e-06
-7.34308e-08
-2.09185e-06
-2.27659e-07
-1.83525e-06
-3.63882e-07
-1.50527e-06
-4.68052e-07
-1.13359e-06
-5.26663e-07
-7.5931e-07
-5.28411e-07
-4.25396e-07
-4.66815e-07
-1.72727e-07
-3.43842e-07
-3.09984e-08
-1.76077e-07
-1.52269e-08
-9.20523e-08
1.12107e-07
-3.56822e-07
4.47434e-07
-7.64275e-07
7.5295e-07
-1.26798e-06
9.65082e-07
-1.81391e-06
1.064e-06
-2.34797e-06
1.05005e-06
-2.82109e-06
9.34767e-07
-3.19238e-06
7.35744e-07
-3.4309e-06
4.73657e-07
-3.51674e-06
1.70975e-07
-3.44183e-06
-1.48346e-07
-3.21063e-06
-4.58861e-07
-2.84067e-06
-7.33835e-07
-2.36264e-06
-9.46086e-07
-1.81946e-06
-1.06984e-06
-1.26394e-06
-1.08393e-06
-7.54223e-07
-9.76533e-07
-3.46796e-07
-7.51269e-07
-8.71625e-08
-4.35711e-07
-1.02389e-07
-1.45064e-07
2.57171e-07
-5.25181e-07
8.27551e-07
-1.08114e-06
1.30891e-06
-1.74674e-06
1.63068e-06
-2.45324e-06
1.7705e-06
-3.13496e-06
1.73178e-06
-3.73359e-06
1.5334e-06
-4.20098e-06
1.20313e-06
-4.50083e-06
7.7351e-07
-4.60977e-06
2.79909e-07
-4.51811e-06
-2.39999e-07
-4.2307e-06
-7.46274e-07
-3.76753e-06
-1.197e-06
-3.16409e-06
-1.54953e-06
-2.47066e-06
-1.76326e-06
-1.75021e-06
-1.80438e-06
-1.07398e-06
-1.65277e-06
-5.14842e-07
-1.3104e-06
-1.3916e-07
-8.11393e-07
-2.41549e-07
-1.93488e-07
4.50659e-07
-6.84665e-07
1.31873e-06
-1.38499e-06
2.00924e-06
-2.20625e-06
2.45194e-06
-3.0641e-06
2.62835e-06
-3.88205e-06
2.54973e-06
-4.59446e-06
2.24581e-06
-5.14829e-06
1.75696e-06
-5.50398e-06
1.1292e-06
-5.63596e-06
4.11894e-07
-5.5332e-06
-3.42765e-07
-5.19992e-06
-1.07955e-06
-4.65663e-06
-1.74029e-06
-3.941e-06
-2.26516e-06
-3.10813e-06
-2.59614e-06
-2.22935e-06
-2.68316e-06
-1.38891e-06
-2.4932e-06
-6.78122e-07
-2.02119e-06
-1.87626e-07
-1.30189e-06
-4.29175e-07
-2.39808e-07
6.90466e-07
-8.39948e-07
1.91887e-06
-1.68251e-06
2.8518e-06
-2.65586e-06
3.42528e-06
-3.65922e-06
3.63171e-06
-4.60577e-06
3.49628e-06
-5.42402e-06
3.06406e-06
-6.05798e-06
2.39091e-06
-6.46657e-06
1.5378e-06
-6.62316e-06
5.68482e-07
-6.51541e-06
-4.50517e-07
-6.14597e-06
-1.449e-06
-5.53389e-06
-2.35237e-06
-4.71657e-06
-3.08248e-06
-3.75151e-06
-3.5612e-06
-2.71701e-06
-3.71766e-06
-1.71059e-06
-3.49963e-06
-8.44175e-07
-2.88761e-06
-2.36008e-07
-1.91006e-06
-6.65182e-07
-2.8658e-07
9.77046e-07
-9.96602e-07
2.62889e-06
-1.98116e-06
3.83636e-06
-3.10355e-06
4.54768e-06
-4.24612e-06
4.77427e-06
-5.31259e-06
4.56275e-06
-6.22756e-06
3.97903e-06
-6.93436e-06
3.09771e-06
-7.39248e-06
1.99592e-06
-7.57549e-06
7.5149e-07
-7.46997e-06
-5.56032e-07
-7.07596e-06
-1.84301e-06
-6.40887e-06
-3.01946e-06
-5.50283e-06
-3.98852e-06
-4.41471e-06
-4.64932e-06
-3.22755e-06
-4.90482e-06
-2.05174e-06
-4.67544e-06
-1.0219e-06
-3.91744e-06
-2.88047e-07
-2.64391e-06
-9.5323e-07
-3.36115e-07
1.31316e-06
-1.15978e-06
3.45255e-06
-2.28693e-06
4.96351e-06
-3.5534e-06
5.81415e-06
-4.82457e-06
6.04545e-06
-5.99665e-06
5.73482e-06
-6.99332e-06
4.9757e-06
-7.76057e-06
3.86496e-06
-8.26134e-06
2.49669e-06
-8.47133e-06
9.61474e-07
-8.37658e-06
-6.50779e-07
-7.97348e-06
-2.24611e-06
-7.27123e-06
-3.72171e-06
-6.2968e-06
-4.96295e-06
-5.10188e-06
-5.84424e-06
-3.77028e-06
-6.23642e-06
-2.42332e-06
-6.0224e-06
-1.21988e-06
-5.12088e-06
-3.47379e-07
-3.51641e-06
-1.30061e-06
-3.90667e-07
1.70383e-06
-1.33414e-06
4.39603e-06
-2.60367e-06
6.23304e-06
-4.00411e-06
7.21459e-06
-5.38456e-06
7.4259e-06
-6.63719e-06
6.98745e-06
-7.68964e-06
6.02816e-06
-8.49549e-06
4.67081e-06
-9.02528e-06
3.02648e-06
-9.25963e-06
1.19583e-06
-9.18521e-06
-7.25197e-07
-8.79393e-06
-2.63739e-06
-8.08576e-06
-4.42988e-06
-7.07549e-06
-5.97322e-06
-5.80305e-06
-7.11668e-06
-4.34628e-06
-7.6932e-06
-2.83278e-06
-7.53589e-06
-1.44592e-06
-6.50775e-06
-4.17632e-07
-4.54469e-06
-1.71824e-06
-4.53056e-07
2.15688e-06
-1.52472e-06
5.46769e-06
-2.93329e-06
7.64161e-06
-4.44801e-06
8.72931e-06
-5.90389e-06
8.88177e-06
-7.19518e-06
8.27874e-06
-8.26092e-06
7.09389e-06
-9.06924e-06
5.47913e-06
-9.60394e-06
3.56118e-06
-9.85452e-06
1.4464e-06
-9.81015e-06
-7.69562e-07
-9.45789e-06
-2.98966e-06
-8.78541e-06
-5.10235e-06
-7.78919e-06
-6.96943e-06
-6.48848e-06
-8.41739e-06
-4.94462e-06
-9.23706e-06
-3.28251e-06
-9.19801e-06
-1.70707e-06
-8.08318e-06
-5.0293e-07
-5.74884e-06
-2.22117e-06
-5.27803e-07
2.68469e-06
-1.7384e-06
6.67829e-06
-3.27601e-06
9.17922e-06
-4.86921e-06
1.03225e-05
-6.34441e-06
1.0357e-05
-7.60821e-06
9.54254e-06
-8.62179e-06
8.10748e-06
-9.37717e-06
6.23451e-06
-9.87846e-06
4.06247e-06
-1.01289e-05
1.69683e-06
-1.01229e-05
-7.75541e-07
-9.84313e-06
-3.26943e-06
-9.26241e-06
-5.68307e-06
-8.35241e-06
-7.87943e-06
-7.1006e-06
-9.6692e-06
-5.53676e-06
-1.08009e-05
-3.76742e-06
-1.09673e-05
-2.01002e-06
-9.84058e-06
-6.08799e-07
-7.15006e-06
-2.82997e-06
-6.23023e-07
3.30771e-06
-1.98579e-06
8.04105e-06
-3.62953e-06
1.0823e-05
-5.23922e-06
1.19322e-05
-6.64491e-06
1.17627e-05
-7.78205e-06
1.06797e-05
-8.64887e-06
8.9743e-06
-9.27239e-06
6.85803e-06
-9.68472e-06
4.47481e-06
-9.90794e-06
1.92005e-06
-9.94512e-06
-7.38361e-07
-9.77606e-06
-3.43849e-06
-9.35782e-06
-6.10132e-06
-8.63194e-06
-8.60531e-06
-7.54221e-06
-1.07589e-05
-6.06722e-06
-1.22759e-05
-4.27033e-06
-1.27642e-05
-2.36093e-06
-1.175e-05
-7.43697e-07
-8.76729e-06
-3.57367e-06
-7.53547e-07
4.06126e-06
-2.28251e-06
9.57002e-06
-3.98426e-06
1.25247e-05
-5.50623e-06
1.34542e-05
-6.70711e-06
1.29635e-05
-7.5766e-06
1.15492e-05
-8.16863e-06
9.56632e-06
-8.55662e-06
7.24602e-06
-8.80697e-06
4.72515e-06
-8.96432e-06
2.07741e-06
-9.04343e-06
-6.59247e-07
-9.02437e-06
-3.45755e-06
-8.85056e-06
-6.27514e-06
-8.43196e-06
-9.02391e-06
-7.6592e-06
-1.15317e-05
-6.43768e-06
-1.34974e-05
-4.75198e-06
-1.44499e-05
-2.76373e-06
-1.37382e-05
-9.21492e-07
-1.06095e-05
-4.49516e-06
-9.45625e-07
5.00688e-06
-2.64691e-06
1.12713e-05
-4.30817e-06
1.4186e-05
-5.57063e-06
1.47166e-05
-6.36875e-06
1.37617e-05
-6.78217e-06
1.19626e-05
-6.94013e-06
9.72428e-06
-6.96993e-06
7.27582e-06
-6.97335e-06
4.72856e-06
-7.0172e-06
2.12126e-06
-7.12919e-06
-5.47261e-07
-7.29396e-06
-3.29277e-06
-7.44819e-06
-6.12091e-06
-7.47653e-06
-8.99556e-06
-7.21553e-06
-1.17927e-05
-6.47935e-06
-1.42336e-05
-5.12966e-06
-1.57996e-05
-3.21258e-06
-1.56553e-05
-1.16473e-06
-1.26574e-05
-5.65989e-06
-1.2411e-06
6.24799e-06
-3.08346e-06
1.31137e-05
-4.50562e-06
1.56081e-05
-5.23275e-06
1.54438e-05
-5.35453e-06
1.38834e-05
-5.08214e-06
1.16902e-05
-4.63203e-06
9.27418e-06
-4.18102e-06
6.82481e-06
-3.85656e-06
4.4041e-06
-3.73945e-06
2.00416e-06
-3.86758e-06
-4.1913e-07
-4.23488e-06
-2.92547e-06
-4.78386e-06
-5.57194e-06
-5.39212e-06
-8.3873e-06
-5.85859e-06
-1.13262e-05
-5.90562e-06
-1.41866e-05
-5.23135e-06
-1.64739e-05
-3.66694e-06
-1.72197e-05
-1.50481e-06
-1.48195e-05
-7.1647e-06
-1.68692e-06
7.93491e-06
-3.51924e-06
1.4946e-05
-4.31582e-06
1.64047e-05
-4.08939e-06
1.52173e-05
-3.19455e-06
1.29886e-05
-2.00108e-06
1.04967e-05
-7.98183e-07
8.07128e-06
2.15736e-07
5.81089e-06
9.14261e-07
3.70558e-06
1.22136e-06
1.69706e-06
1.09764e-06
-2.95403e-07
5.36581e-07
-2.36442e-06
-4.27309e-07
-4.60805e-06
-1.69671e-06
-7.1179e-06
-3.07625e-06
-9.94669e-06
-4.23437e-06
-1.30284e-05
-4.69976e-06
-1.60085e-05
-3.97659e-06
-1.79429e-05
-1.96097e-06
-1.68351e-05
-9.12567e-06
-2.27131e-06
1.02062e-05
-3.60898e-06
1.62836e-05
-3.08283e-06
1.58786e-05
-1.34787e-06
1.34824e-05
8.92522e-07
1.07482e-05
3.15014e-06
8.23911e-06
5.13302e-06
6.0884e-06
6.68336e-06
4.26055e-06
7.72027e-06
2.66868e-06
8.20075e-06
1.21658e-06
8.09774e-06
-1.92399e-07
7.39258e-06
-1.65925e-06
6.08005e-06
-3.29552e-06
4.19196e-06
-5.22981e-06
1.84628e-06
-7.60101e-06
-6.70657e-07
-1.05115e-05
-2.80438e-06
-1.38748e-05
-3.68953e-06
-1.70577e-05
-2.46028e-06
-1.80644e-05
-1.1586e-05
-2.69695e-06
1.29032e-05
-2.20747e-06
1.57942e-05
7.13782e-07
1.29573e-05
4.46362e-06
9.73253e-06
8.126e-06
7.08583e-06
1.12941e-05
5.07102e-06
1.38218e-05
3.56071e-06
1.5681e-05
2.40136e-06
1.68846e-05
1.46504e-06
1.74477e-05
6.53498e-07
1.73688e-05
-1.13529e-07
1.66224e-05
-9.12835e-07
1.51584e-05
-1.8315e-06
1.2914e-05
-2.98541e-06
9.85168e-06
-4.53871e-06
6.05163e-06
-6.71144e-06
1.90009e-06
-9.72325e-06
-1.59538e-06
-1.35623e-05
-2.59409e-06
-1.70657e-05
-1.418e-05
-5.79035e-07
1.34822e-05
4.12016e-06
1.1095e-05
1.02998e-05
6.7777e-06
1.57882e-05
4.2441e-06
2.01499e-05
2.7241e-06
2.34494e-05
1.77154e-06
2.58526e-05
1.1575e-06
2.7514e-05
7.40018e-07
2.85468e-05
4.32174e-07
2.90191e-05
1.81218e-07
2.89548e-05
-4.92567e-08
2.83306e-05
-2.88651e-07
2.70728e-05
-5.73682e-07
2.50454e-05
-9.57993e-07
2.20428e-05
-1.53609e-06
1.781e-05
-2.47867e-06
1.2175e-05
-4.08827e-06
5.52155e-06
-6.90876e-06
9.59114e-08
-1.164e-05
-1.40841e-05
1.34822e-05
2.45772e-05
3.13549e-05
3.5599e-05
3.83231e-05
4.00946e-05
4.12521e-05
4.19921e-05
4.24243e-05
4.26055e-05
4.25563e-05
4.22676e-05
4.16939e-05
4.0736e-05
3.91999e-05
3.67212e-05
3.26329e-05
2.57242e-05
1.40841e-05
)
;

boundaryField
{
    movingWall
    {
        type            calculated;
        value           uniform 0;
    }
    fixedWalls
    {
        type            calculated;
        value           uniform 0;
    }
    frontAndBack
    {
        type            empty;
        value           nonuniform 0();
    }
}


// ************************************************************************* //
