/*--------------------------------*- C++ -*----------------------------------*\
  =========                 |
  \\      /  F ield         | OpenFOAM: The Open Source CFD Toolbox
   \\    /   O peration     | Website:  https://openfoam.org
    \\  /    A nd           | Version:  7
     \\/     M anipulation  |
\*---------------------------------------------------------------------------*/
FoamFile
{
    version     2.0;
    format      ascii;
    class       volVectorField;
    location    "0.2";
    object      U;
}
// * * * * * * * * * * * * * * * * * * * * * * * * * * * * * * * * * * * * * //

dimensions      [0 1 -1 0 0 0 0];

internalField   nonuniform List<vector> 
400
(
(0.000259511 -0.000254533 0)
(0.000149071 0.000104015 0)
(-0.00117528 0.00055091 0)
(-0.00348024 0.000867862 0)
(-0.00637496 0.00102684 0)
(-0.00946584 0.00104275 0)
(-0.0123986 0.000940558 0)
(-0.0148799 0.000746543 0)
(-0.016684 0.000485471 0)
(-0.0176525 0.000180974 0)
(-0.0176963 -0.000142915 0)
(-0.0167995 -0.000460269 0)
(-0.0150249 -0.000742326 0)
(-0.0125206 -0.000957485 0)
(-0.00952269 -0.00107247 0)
(-0.00635251 -0.00105529 0)
(-0.00339981 -0.000881152 0)
(-0.00108401 -0.0005431 0)
(0.000204085 -8.4306e-05 0)
(0.000273083 0.000265667 0)
(-6.73147e-05 -0.000174939 0)
(-0.00160153 0.00163796 0)
(-0.00569388 0.00360181 0)
(-0.0117179 0.00501482 0)
(-0.0188858 0.00572134 0)
(-0.0263889 0.00573832 0)
(-0.0334523 0.00515181 0)
(-0.0394057 0.00407657 0)
(-0.0437197 0.0026371 0)
(-0.0460211 0.00096277 0)
(-0.0461031 -0.000810585 0)
(-0.0439364 -0.00253783 0)
(-0.0396791 -0.00406361 0)
(-0.0336849 -0.00522573 0)
(-0.0265009 -0.00586481 0)
(-0.0188478 -0.00584291 0)
(-0.0115657 -0.00507471 0)
(-0.00551433 -0.00357431 0)
(-0.00148419 -0.00155388 0)
(-3.35595e-05 0.000232466 0)
(-0.000511903 0.00108942 0)
(-0.00369308 0.00573822 0)
(-0.0105859 0.010221 0)
(-0.0199855 0.013401 0)
(-0.0307523 0.0149388 0)
(-0.0418039 0.0148314 0)
(-0.052096 0.0132491 0)
(-0.0607157 0.0104509 0)
(-0.0669374 0.0067384 0)
(-0.0702486 0.00243731 0)
(-0.0703661 -0.0021059 0)
(-0.0672512 -0.00652257 0)
(-0.0611223 -0.0104242 0)
(-0.052463 -0.0134143 0)
(-0.0420173 -0.0151156 0)
(-0.0307604 -0.0152174 0)
(-0.0198224 -0.0135486 0)
(-0.0103604 -0.0101752 0)
(-0.00353079 -0.00555344 0)
(-0.000460718 -0.000946449 0)
(-0.000905724 0.00347702 0)
(-0.0056665 0.0122215 0)
(-0.0152963 0.0199153 0)
(-0.0279066 0.0251863 0)
(-0.0419675 0.0275836 0)
(-0.0561549 0.0271241 0)
(-0.0692221 0.0240968 0)
(-0.0800907 0.0189441 0)
(-0.0879095 0.0121889 0)
(-0.0920778 0.00440216 0)
(-0.0922618 -0.00380687 0)
(-0.0884097 -0.0117914 0)
(-0.0807675 -0.0188731 0)
(-0.0698901 -0.024364 0)
(-0.0566424 -0.0276133 0)
(-0.0421748 -0.028087 0)
(-0.027845 -0.0254848 0)
(-0.0150876 -0.0198847 0)
(-0.00548017 -0.0119289 0)
(-0.000839364 -0.00322217 0)
(-0.00125013 0.00687236 0)
(-0.00750434 0.0209505 0)
(-0.019798 0.0324981 0)
(-0.0355216 0.0400842 0)
(-0.0527208 0.0432687 0)
(-0.0698289 0.0421713 0)
(-0.0854275 0.0372582 0)
(-0.0983192 0.0291975 0)
(-0.107574 0.0187666 0)
(-0.11254 0.00680892 0)
(-0.112848 -0.00577888 0)
(-0.108426 -0.0180468 0)
(-0.099517 -0.0289973 0)
(-0.0866987 -0.0376134 0)
(-0.0709015 -0.0429222 0)
(-0.0534039 -0.044105 0)
(-0.0357688 -0.0406573 0)
(-0.0197271 -0.0325788 0)
(-0.00733817 -0.0205875 0)
(-0.00117455 -0.00649262 0)
(-0.00157175 0.0112076 0)
(-0.00927881 0.0318665 0)
(-0.024201 0.0479327 0)
(-0.0429863 0.058045 0)
(-0.0632297 0.0619074 0)
(-0.0831178 0.0598521 0)
(-0.101082 0.0526023 0)
(-0.115845 0.041105 0)
(-0.126436 0.0264227 0)
(-0.132182 0.00968607 0)
(-0.132693 -0.00791494 0)
(-0.127867 -0.0251222 0)
(-0.117913 -0.0406068 0)
(-0.103385 -0.0529938 0)
(-0.0852264 -0.0609353 0)
(-0.0648017 -0.0632468 0)
(-0.0438646 -0.059111 0)
(-0.0244668 -0.0483224 0)
(-0.00921276 -0.031549 0)
(-0.00150053 -0.0107199 0)
(-0.00189665 0.0164661 0)
(-0.0110736 0.0449602 0)
(-0.0286402 0.0662059 0)
(-0.0504601 0.0790232 0)
(-0.0736526 0.0834075 0)
(-0.0961631 0.0800369 0)
(-0.116304 0.0699915 0)
(-0.132761 0.0545585 0)
(-0.144573 0.0351133 0)
(-0.15108 0.0130755 0)
(-0.151886 -0.0100858 0)
(-0.146852 -0.0328214 0)
(-0.13612 -0.0534779 0)
(-0.120165 -0.0703053 0)
(-0.099881 -0.0815259 0)
(-0.0766591 -0.085489 0)
(-0.052413 -0.0809212 0)
(-0.0295302 -0.0672445 0)
(-0.011231 -0.0449237 0)
(-0.00185336 -0.0159389 0)
(-0.00224812 0.0226801 0)
(-0.0129678 0.0602796 0)
(-0.0332382 0.0873264 0)
(-0.0580562 0.10295 0)
(-0.0840373 0.107617 0)
(-0.108908 0.102516 0)
(-0.130916 0.0892044 0)
(-0.148777 0.069379 0)
(-0.161605 0.0447492 0)
(-0.168803 0.0170078 0)
(-0.169996 -0.0121342 0)
(-0.165002 -0.0408817 0)
(-0.153861 -0.0672901 0)
(-0.136904 -0.0892365 0)
(-0.114882 -0.104464 0)
(-0.0891238 -0.110741 0)
(-0.0616358 -0.106156 0)
(-0.0351285 -0.0895338 0)
(-0.0135196 -0.0609241 0)
(-0.0022682 -0.0222593 0)
(-0.00264983 0.029927 0)
(-0.0150394 0.0779267 0)
(-0.0380989 0.111308 0)
(-0.0658204 0.129692 0)
(-0.0942844 0.134259 0)
(-0.121049 0.12692 0)
(-0.144389 0.109856 0)
(-0.163154 0.0852452 0)
(-0.176625 0.0551408 0)
(-0.184341 0.0214718 0)
(-0.185989 -0.0138777 0)
(-0.181351 -0.0489462 0)
(-0.170322 -0.0815684 0)
(-0.153008 -0.109283 0)
(-0.129901 -0.129326 0)
(-0.102123 -0.138762 0)
(-0.0716452 -0.134816 0)
(-0.04144 -0.115408 0)
(-0.0162045 -0.0798574 0)
(-0.00278244 -0.0298633 0)
(-0.00313391 0.0383326 0)
(-0.0173835 0.098049 0)
(-0.0433209 0.138128 0)
(-0.0737237 0.158977 0)
(-0.104113 0.162834 0)
(-0.13198 0.152614 0)
(-0.155771 0.131291 0)
(-0.174622 0.1016 0)
(-0.188109 0.0659284 0)
(-0.196007 0.0263713 0)
(-0.198122 -0.0151189 0)
(-0.194215 -0.056538 0)
(-0.184008 -0.095619 0)
(-0.16729 -0.129648 0)
(-0.144138 -0.155365 0)
(-0.115265 -0.169021 0)
(-0.0823906 -0.166716 0)
(-0.0486 -0.145043 0)
(-0.019423 -0.102105 0)
(-0.00344358 -0.0390097 0)
(-0.00375555 0.0480922 0)
(-0.0201461 0.12084 0)
(-0.0490208 0.167677 0)
(-0.0816476 0.190287 0)
(-0.113001 0.192485 0)
(-0.140693 0.178553 0)
(-0.16357 0.152461 0)
(-0.181259 0.117552 0)
(-0.193797 0.0765043 0)
(-0.20131 0.0314733 0)
(-0.203802 -0.0156693 0)
(-0.201049 -0.0630484 0)
(-0.192581 -0.108474 0)
(-0.177782 -0.149134 0)
(-0.156142 -0.181357 0)
(-0.127697 -0.200524 0)
(-0.0935774 -0.201323 0)
(-0.0566858 -0.178471 0)
(-0.0233465 -0.128096 0)
(-0.00432353 -0.0500512 0)
(-0.00461957 0.0595225 0)
(-0.023574 0.146547 0)
(-0.0553506 0.199667 0)
(-0.0893313 0.222704 0)
(-0.120067 0.221818 0)
(-0.145625 0.203128 0)
(-0.165586 0.171792 0)
(-0.180332 0.131773 0)
(-0.190546 0.08594 0)
(-0.196828 0.0363536 0)
(-0.199464 -0.0153858 0)
(-0.198291 -0.0677485 0)
(-0.192663 -0.118859 0)
(-0.181507 -0.166051 0)
(-0.163565 -0.205436 0)
(-0.137879 -0.231578 0)
(-0.104519 -0.237512 0)
(-0.0656752 -0.215399 0)
(-0.0282128 -0.158262 0)
(-0.00554436 -0.0634785 0)
(-0.00592848 0.0731663 0)
(-0.0280856 0.17547 0)
(-0.0624714 0.233465 0)
(-0.0962071 0.254655 0)
(-0.123802 0.248661 0)
(-0.144353 0.223974 0)
(-0.158638 0.187068 0)
(-0.168085 0.142431 0)
(-0.174186 0.0929425 0)
(-0.178106 0.040356 0)
(-0.180471 -0.0142184 0)
(-0.181245 -0.0698357 0)
(-0.179663 -0.125215 0)
(-0.174223 -0.178168 0)
(-0.162828 -0.224935 0)
(-0.143233 -0.259513 0)
(-0.113859 -0.273211 0)
(-0.0753295 -0.254915 0)
(-0.0343638 -0.192946 0)
(-0.00732398 -0.0800078 0)
(-0.00806313 0.0899785 0)
(-0.0343399 0.207896 0)
(-0.0703778 0.267757 0)
(-0.100974 0.283515 0)
(-0.121527 0.269753 0)
(-0.133078 0.237803 0)
(-0.13815 0.195378 0)
(-0.139464 0.147212 0)
(-0.139378 0.0958892 0)
(-0.139611 0.0425981 0)
(-0.141126 -0.0122563 0)
(-0.144066 -0.0685305 0)
(-0.14767 -0.125813 0)
(-0.150154 -0.182776 0)
(-0.148683 -0.236306 0)
(-0.139584 -0.280389 0)
(-0.119032 -0.304911 0)
(-0.0848855 -0.294982 0)
(-0.042249 -0.232186 0)
(-0.0100467 -0.100728 0)
(-0.0116765 0.111596 0)
(-0.043174 0.243795 0)
(-0.0782887 0.299883 0)
(-0.100592 0.305008 0)
(-0.108325 0.280419 0)
(-0.105728 0.240363 0)
(-0.0975459 0.193271 0)
(-0.0878021 0.14354 0)
(-0.0795429 0.0930239 0)
(-0.0748342 0.0420771 0)
(-0.0748545 -0.00975327 0)
(-0.0799405 -0.0632409 0)
(-0.0895058 -0.119021 0)
(-0.101819 -0.176981 0)
(-0.113698 -0.235288 0)
(-0.120294 -0.288846 0)
(-0.115245 -0.327095 0)
(-0.0922716 -0.331598 0)
(-0.0522125 -0.275163 0)
(-0.0143125 -0.127269 0)
(-0.0176163 0.140746 0)
(-0.0548925 0.281882 0)
(-0.0828542 0.32452 0)
(-0.088083 0.312404 0)
(-0.0751254 0.274438 0)
(-0.0526307 0.226771 0)
(-0.0275139 0.177295 0)
(-0.00458166 0.129139 0)
(0.0130224 0.0829095 0)
(0.0233564 0.0379342 0)
(0.0253103 -0.00709619 0)
(0.0184169 -0.0537905 0)
(0.00288993 -0.103789 0)
(-0.0200832 -0.158355 0)
(-0.0477659 -0.217521 0)
(-0.0750561 -0.278344 0)
(-0.093619 -0.331705 0)
(-0.0922033 -0.357442 0)
(-0.0634703 -0.31895 0)
(-0.0207145 -0.162054 0)
(-0.0260057 0.182265 0)
(-0.0664809 0.317043 0)
(-0.0735134 0.330974 0)
(-0.0481296 0.295354 0)
(-0.00566402 0.24424 0)
(0.0411216 0.192417 0)
(0.0845532 0.145082 0)
(0.120432 0.102997 0)
(0.146592 0.0651493 0)
(0.161933 0.029888 0)
(0.165821 -0.00469017 0)
(0.157809 -0.0406612 0)
(0.137599 -0.0802906 0)
(0.1053 -0.125965 0)
(0.0621092 -0.179762 0)
(0.0116334 -0.242022 0)
(-0.0380039 -0.307776 0)
(-0.0719984 -0.359667 0)
(-0.0709824 -0.355767 0)
(-0.0285829 -0.209057 0)
(-0.0317429 0.241377 0)
(-0.063032 0.333928 0)
(-0.0219637 0.29965 0)
(0.0505821 0.240049 0)
(0.127421 0.183 0)
(0.196844 0.135438 0)
(0.254188 0.0974394 0)
(0.298107 0.0668802 0)
(0.328683 0.0413709 0)
(0.346324 0.0187804 0)
(0.351229 -0.00280662 0)
(0.343146 -0.0252889 0)
(0.3213 -0.0508209 0)
(0.28446 -0.0820838 0)
(0.231362 -0.122469 0)
(0.161954 -0.175651 0)
(0.0798366 -0.243231 0)
(-0.00334176 -0.318155 0)
(-0.0573592 -0.366744 0)
(-0.0309145 -0.270213 0)
(0.00230798 0.286369 0)
(0.0143152 0.294061 0)
(0.139843 0.210078 0)
(0.264888 0.143065 0)
(0.364212 0.0968714 0)
(0.44016 0.0655052 0)
(0.496572 0.0440272 0)
(0.536717 0.0287376 0)
(0.563298 0.0171035 0)
(0.57816 0.00743541 0)
(0.582233 -0.00149949 0)
(0.57554 -0.010807 0)
(0.557138 -0.0217566 0)
(0.524946 -0.0361771 0)
(0.475559 -0.0570183 0)
(0.404362 -0.0890477 0)
(0.305604 -0.139244 0)
(0.174283 -0.21545 0)
(0.0352056 -0.310938 0)
(0.0120833 -0.304779 0)
(0.293148 0.148893 0)
(0.389648 0.127925 0)
(0.557568 0.0758012 0)
(0.67474 0.0433821 0)
(0.743791 0.0252387 0)
(0.787087 0.0149516 0)
(0.815463 0.00898689 0)
(0.833938 0.00534985 0)
(0.845365 0.0029252 0)
(0.851349 0.00109786 0)
(0.852641 -0.000501987 0)
(0.849355 -0.00217149 0)
(0.840974 -0.00424121 0)
(0.826115 -0.00726094 0)
(0.802028 -0.0122937 0)
(0.763556 -0.0214609 0)
(0.69943 -0.0389172 0)
(0.58444 -0.0723432 0)
(0.409338 -0.128341 0)
(0.302176 -0.152205 0)
)
;

boundaryField
{
    movingWall
    {
        type            fixedValue;
        value           uniform (1 0 0);
    }
    fixedWalls
    {
        type            noSlip;
    }
    frontAndBack
    {
        type            empty;
    }
}


// ************************************************************************* //
