/*--------------------------------*- C++ -*----------------------------------*\
  =========                 |
  \\      /  F ield         | OpenFOAM: The Open Source CFD Toolbox
   \\    /   O peration     | Website:  https://openfoam.org
    \\  /    A nd           | Version:  7
     \\/     M anipulation  |
\*---------------------------------------------------------------------------*/
FoamFile
{
    version     2.0;
    format      ascii;
    class       volVectorField;
    location    "23.4";
    object      U;
}
// * * * * * * * * * * * * * * * * * * * * * * * * * * * * * * * * * * * * * //

dimensions      [0 1 -1 0 0 0 0];

internalField   nonuniform List<vector> 
2000
(
(0.00486403 0.0256899 2.5797e-22)
(0.0243985 0.089955 0)
(0.0540287 0.15568 0)
(0.080269 0.214193 3.2039e-22)
(0.100056 0.261907 1.73364e-22)
(0.113087 0.298936 2.05157e-22)
(0.120603 0.327187 -3.05659e-22)
(0.124297 0.348894 0)
(0.12568 0.365867 0)
(0.125828 0.37924 0)
(0.00291255 0.0188004 0)
(0.017205 0.0746061 5.04704e-22)
(0.0428024 0.136335 -4.65334e-22)
(0.0678264 0.194905 -3.63699e-22)
(0.0887472 0.24552 0)
(0.104084 0.28665 5.98039e-22)
(0.114023 0.318924 -5.56129e-22)
(0.119633 0.343906 0)
(0.122187 0.363255 2.81703e-21)
(0.122866 0.378266 -5.88562e-21)
(0.00180239 0.0125493 0)
(0.0116083 0.0593821 -3.82617e-21)
(0.0326451 0.115431 0)
(0.055242 0.17202 -9.35006e-22)
(0.0761059 0.22399 0)
(0.0930777 0.268619 -1.46367e-21)
(0.105395 0.305228 0)
(0.113334 0.334396 4.18504e-21)
(0.117678 0.357257 -3.91964e-21)
(0.119467 0.374967 -4.90657e-21)
(0.00136932 0.00715612 1.18364e-21)
(0.00757579 0.0450211 1.97272e-21)
(0.0239594 0.0941002 6.72225e-22)
(0.0432037 0.146631 8.28803e-22)
(0.0627157 0.197836 9.81022e-23)
(0.080225 0.244481 4.88574e-22)
(0.0943647 0.284902 9.06671e-22)
(0.104674 0.318648 -7.07851e-22)
(0.111286 0.346042 3.42567e-21)
(0.114821 0.36772 4.89446e-21)
(0.00140723 0.00276682 1.20961e-21)
(0.00491235 0.0321181 1.19793e-21)
(0.0169397 0.0734726 9.54039e-22)
(0.0323574 0.120181 -5.27186e-22)
(0.0494216 0.168297 0)
(0.0661804 0.214732 0)
(0.0810993 0.257396 -2.49925e-21)
(0.0932432 0.295102 -3.16624e-21)
(0.102171 0.327365 3.04944e-21)
(0.107745 0.353989 1.19342e-20)
(0.00169935 -0.000561168 -8.22462e-22)
(0.00332748 0.0210701 -1.76281e-22)
(0.0115803 0.0545086 1.62476e-21)
(0.0231773 0.094212 -2.61711e-22)
(0.0371347 0.13718 -7.16144e-23)
(0.0520128 0.180893 0)
(0.0664579 0.223383 0)
(0.0793941 0.263217 1.22803e-20)
(0.0901655 0.299466 -1.41058e-20)
(0.0972232 0.330824 3.66253e-21)
(0.00204794 -0.00285333 -5.78997e-21)
(0.00251084 0.0120721 0)
(0.00774262 0.03791 -2.22874e-21)
(0.0159203 0.0701151 3.39293e-22)
(0.026626 0.106517 0)
(0.0389291 0.14529 1.5538e-21)
(0.0518298 0.18492 -4.79059e-21)
(0.0643813 0.22416 -8.921e-21)
(0.0762688 0.262274 4.21888e-21)
(0.0833504 0.296072 5.44562e-21)
(0.00230535 -0.00420519 1.03244e-20)
(0.00220876 0.00515413 5.44355e-22)
(0.00526199 0.0241178 3.47231e-22)
(0.0106912 0.0489965 -4.09505e-22)
(0.0184454 0.0782277 -1.08659e-21)
(0.0280034 0.110577 -1.58752e-21)
(0.0387468 0.145052 1.4941e-22)
(0.0500693 0.180814 0)
(0.062395 0.217915 0)
(0.0679829 0.250413 -1.31234e-21)
(0.0023987 -0.00476502 -4.5344e-21)
(0.00228063 0.000224355 1.92093e-21)
(0.00404483 0.0133546 -9.70388e-22)
(0.00755886 0.0316504 1.18329e-21)
(0.0129753 0.0539174 -6.11558e-22)
(0.0200631 0.0792994 1.44522e-21)
(0.0285481 0.107172 1.80514e-21)
(0.0383547 0.137128 0)
(0.0507091 0.170041 0)
(0.0547735 0.196353 1.58672e-22)
(0.00233006 -0.00469904 3.82018e-22)
(0.00274311 -0.00291016 -2.1591e-21)
(0.00412857 0.00567246 2.19295e-22)
(0.00665532 0.0185982 0)
(0.0105379 0.0348339 0)
(0.0157134 0.0536705 2.64789e-21)
(0.022156 0.0745999 0)
(0.0303 0.0973708 -3.25761e-21)
(0.0421019 0.122555 8.4039e-22)
(0.048796 0.138753 2.09015e-21)
(0.123756 0.402657 4.21336e-22)
(0.110126 0.410036 -4.28094e-22)
(0.0937996 0.406825 -6.24199e-22)
(0.0788362 0.401847 -7.35229e-22)
(0.0623419 0.397938 -8.82218e-22)
(0.0499451 0.398555 -1.09176e-23)
(0.0329851 0.416028 4.52001e-22)
(0.0258309 0.488281 1.50494e-21)
(0.00318523 0.640536 0)
(0.00687914 0.825754 -1.0475e-21)
(0.12143 0.404003 9.64781e-22)
(0.108178 0.413495 -2.15438e-21)
(0.0922059 0.411067 3.97433e-21)
(0.0775425 0.406382 7.36546e-22)
(0.0613111 0.402318 1.56383e-21)
(0.0491292 0.402555 2.61043e-21)
(0.0326247 0.419709 -9.50299e-22)
(0.0253908 0.491533 -1.00094e-21)
(0.00362991 0.643192 1.92482e-21)
(0.0065682 0.826834 1.04501e-21)
(0.119559 0.404878 0)
(0.106554 0.41682 -1.69882e-21)
(0.0909472 0.415413 -1.18218e-21)
(0.0765284 0.411018 0)
(0.0604542 0.406658 -4.74224e-21)
(0.0484349 0.406375 1.48726e-21)
(0.0323079 0.422893 1.61777e-21)
(0.0249808 0.493966 5.39805e-21)
(0.00404776 0.645285 -1.91859e-21)
(0.00627363 0.827682 3.74756e-21)
(0.117882 0.404668 0)
(0.105188 0.419495 1.71372e-21)
(0.0899684 0.419523 0)
(0.0757421 0.415563 5.41641e-21)
(0.0597536 0.410904 -5.44325e-21)
(0.0478607 0.410041 -3.22232e-21)
(0.0320399 0.425625 -1.68289e-22)
(0.0246312 0.495581 -5.22466e-21)
(0.00447256 0.646543 -8.65653e-22)
(0.00601761 0.828192 -4.61781e-21)
(0.115792 0.402434 2.10881e-21)
(0.104052 0.421889 -2.7185e-21)
(0.0893657 0.423973 8.70154e-22)
(0.0751864 0.420278 -4.40935e-21)
(0.0591715 0.41514 0)
(0.0473499 0.413566 -3.04594e-21)
(0.031753 0.427947 -1.45193e-22)
(0.0242421 0.49655 6.58348e-21)
(0.00479232 0.647379 8.37368e-22)
(0.00573197 0.828552 -8.40399e-22)
(0.112563 0.39609 -6.38529e-21)
(0.102848 0.422233 5.72734e-21)
(0.0889443 0.427542 4.11469e-21)
(0.074798 0.424565 -4.1105e-21)
(0.0587636 0.419239 -2.48598e-21)
(0.0469955 0.417005 0)
(0.0315571 0.429926 -5.86872e-21)
(0.0239445 0.496688 2.91203e-21)
(0.005145 0.647099 3.08976e-21)
(0.00549631 0.828484 3.10054e-21)
(0.107272 0.384553 -5.38979e-22)
(0.101683 0.422769 0)
(0.0889645 0.432191 0)
(0.0745566 0.429291 0)
(0.0583546 0.423422 -2.57724e-21)
(0.0465518 0.420302 5.0541e-21)
(0.0311879 0.431591 5.68318e-21)
(0.0234201 0.496538 -8.5956e-21)
(0.00523714 0.646972 1.47042e-21)
(0.00517471 0.828454 -4.52704e-21)
(0.0997373 0.362992 2.3123e-21)
(0.0995285 0.417374 5.47002e-21)
(0.0887587 0.433819 -5.41558e-21)
(0.0745485 0.432833 8.54542e-21)
(0.0583825 0.427415 -1.06647e-20)
(0.0465534 0.423694 0)
(0.0312049 0.433026 -2.51698e-21)
(0.0232325 0.495174 1.68913e-22)
(0.00552978 0.644923 -2.61631e-21)
(0.00493757 0.827749 -2.69453e-21)
(0.0903332 0.338373 -1.42241e-21)
(0.0978813 0.416276 0)
(0.0889125 0.438573 -7.26645e-21)
(0.0742479 0.437698 1.45343e-20)
(0.0577865 0.431582 -5.69781e-21)
(0.04576 0.426718 -1.13469e-21)
(0.030392 0.43432 2.5116e-21)
(0.0222287 0.494745 6.88457e-23)
(0.00516512 0.644632 3.80254e-21)
(0.00453259 0.827491 3.91504e-21)
(0.0793101 0.28967 -2.37331e-21)
(0.0930767 0.397749 2.30185e-21)
(0.088323 0.434959 6.50445e-22)
(0.0751342 0.439986 0)
(0.059005 0.435647 0)
(0.0469277 0.430456 1.09604e-21)
(0.0314021 0.435208 4.48801e-21)
(0.0226435 0.490984 -4.38073e-21)
(0.00558376 0.639893 -1.11726e-21)
(0.00426582 0.826019 1.07667e-21)
(0.0605245 0.247693 0)
(0.0902621 0.395926 0)
(0.0848027 0.446326 0)
(0.0692606 0.452449 0)
(0.0515653 0.444562 0)
(0.0386157 0.435902 0)
(0.0238588 0.43907 0)
(0.0161599 0.495073 0)
(0.00239548 0.642867 0)
(0.00303637 0.825664 0)
(0.0465834 0.228559 0)
(0.0770013 0.388183 0)
(0.0733562 0.45294 0)
(0.0625793 0.468394 0)
(0.0498121 0.464406 0)
(0.0390139 0.455453 0)
(0.0244476 0.456475 0)
(0.0139873 0.50915 0)
(0.00121552 0.65214 0)
(0.00136091 0.830344 0)
(0.0401735 0.231189 0)
(0.0606245 0.389969 0)
(0.0537784 0.462468 0)
(0.039748 0.477226 0)
(0.0258154 0.470292 0)
(0.0163091 0.460218 0)
(0.00541563 0.462962 0)
(-0.00194686 0.51594 0)
(-0.00714894 0.654738 0)
(-0.000809923 0.827129 0)
(0.0266589 0.232418 0)
(0.037952 0.380516 0)
(0.0401768 0.465381 0)
(0.0355049 0.490628 0)
(0.0255999 0.487325 0)
(0.0148273 0.476556 0)
(0.000801125 0.477449 0)
(-0.0104868 0.525432 0)
(-0.0146528 0.656567 0)
(-0.00115015 0.824398 0)
(0.0135682 0.25133 0)
(0.0138779 0.385136 0)
(0.00952503 0.465053 0)
(0.00607385 0.491009 0)
(-0.000291989 0.490554 0)
(-0.00813598 0.483413 0)
(-0.0201131 0.486184 0)
(-0.0298435 0.529883 0)
(-0.0306374 0.648472 0)
(-0.00477063 0.809326 0)
(-0.00272752 0.250253 0)
(0.00228328 0.380609 0)
(0.00674737 0.467685 0)
(0.00752568 0.499776 0)
(-0.000534104 0.502018 0)
(-0.0124641 0.496591 0)
(-0.0283625 0.499731 0)
(-0.0415045 0.537297 0)
(-0.0442586 0.638624 0)
(-0.0111263 0.785977 0)
(-0.0128814 0.271855 0)
(-0.020858 0.380989 0)
(-0.0212008 0.461671 0)
(-0.0155447 0.497903 0)
(-0.0168997 0.508264 0)
(-0.0244657 0.508497 0)
(-0.0389447 0.512466 0)
(-0.0523093 0.542384 0)
(-0.0559945 0.623339 0)
(-0.0199184 0.749213 0)
(-0.0116218 0.274928 0)
(-0.00826012 0.384936 0)
(-0.00744849 0.466869 0)
(-0.0122164 0.499239 0)
(-0.0178879 0.51274 0)
(-0.0247542 0.519538 0)
(-0.036527 0.527774 0)
(-0.0480396 0.552229 0)
(-0.0527871 0.611018 0)
(-0.0227097 0.704985 0)
(-0.0164238 0.290709 0)
(-0.0314148 0.370688 0)
(-0.0166849 0.462348 0)
(-0.0146248 0.503561 0)
(-0.0191926 0.518736 0)
(-0.0261077 0.526413 0)
(-0.0362512 0.535712 0)
(-0.0452175 0.556784 0)
(-0.0486307 0.601411 0)
(-0.023222 0.670439 0)
(0.0194981 0.328259 0)
(-0.00615216 0.388382 0)
(-0.00671555 0.457989 0)
(-0.00518871 0.502793 0)
(-0.00752588 0.524504 0)
(-0.0116967 0.536608 0)
(-0.0185009 0.547617 0)
(-0.0241946 0.564276 0)
(-0.027105 0.591732 0)
(-0.0136848 0.630271 0)
(0.0478102 0.108786 2.57008e-22)
(0.0567724 0.134777 -2.52888e-22)
(0.057597 0.16797 -2.03819e-22)
(0.043576 0.187991 0)
(0.0257757 0.211971 0)
(0.00713367 0.217815 -3.21189e-22)
(-0.00140426 0.243615 6.91728e-22)
(-0.0012505 0.246349 -6.79053e-22)
(0.0047043 0.275297 8.74102e-24)
(0.029335 0.288719 -8.4362e-24)
(0.0580958 0.0816107 -7.92283e-22)
(0.0665944 0.119919 0)
(0.0628907 0.158306 -1.95701e-21)
(0.0465646 0.180204 4.82171e-21)
(0.0274739 0.202605 -3.37381e-21)
(0.00941494 0.209163 3.12659e-22)
(0.00188193 0.234093 -4.43592e-22)
(0.00265235 0.236096 -3.83567e-22)
(0.0100302 0.26551 1.12533e-22)
(0.0304626 0.266367 2.61608e-23)
(0.0715252 0.0814997 5.63739e-22)
(0.077549 0.126096 1.30979e-21)
(0.0682902 0.162195 -1.29714e-21)
(0.0489748 0.181045 2.84668e-21)
(0.0287606 0.198721 -2.11379e-21)
(0.0119467 0.203906 0)
(0.00513998 0.225252 4.44627e-22)
(0.00649331 0.225331 -7.96744e-24)
(0.0137194 0.250098 2.38611e-23)
(0.0298954 0.238716 -3.12507e-23)
(0.0867355 0.0968793 -6.27099e-23)
(0.0876689 0.141276 0)
(0.0726791 0.170984 0)
(0.0505933 0.184584 0)
(0.0296413 0.1963 -2.23182e-21)
(0.0140432 0.198806 1.43602e-21)
(0.00774041 0.214567 -1.07962e-22)
(0.00921916 0.211214 1.67687e-22)
(0.0152506 0.227871 5.59805e-24)
(0.0278054 0.206526 -1.65264e-23)
(0.102875 0.117667 -7.16576e-22)
(0.0958109 0.155852 3.47487e-22)
(0.0752303 0.177141 1.45402e-21)
(0.0508154 0.184913 -1.45285e-21)
(0.0295548 0.190796 7.85198e-22)
(0.0150778 0.19004 0)
(0.00902694 0.199237 4.75761e-22)
(0.0101043 0.191352 -4.35268e-22)
(0.0143665 0.198819 1.62488e-22)
(0.0244233 0.170918 1.11663e-23)
(0.117422 0.135471 1.43286e-21)
(0.101058 0.163237 4.2636e-22)
(0.0757874 0.17541 4.17482e-22)
(0.0497037 0.177712 -1.62808e-21)
(0.0284856 0.178584 0)
(0.0149042 0.17456 0)
(0.00875152 0.177231 0)
(0.00898369 0.164703 -2.95325e-22)
(0.0114758 0.16406 0)
(0.0202314 0.133396 0)
(0.127983 0.144236 0)
(0.103013 0.159776 -2.08065e-21)
(0.0745057 0.163171 1.4346e-21)
(0.0475544 0.160916 1.86646e-21)
(0.0266268 0.157844 -1.87598e-21)
(0.0135725 0.150969 -6.4073e-22)
(0.00696147 0.147999 7.6421e-22)
(0.00614546 0.131833 1.10977e-21)
(0.00733542 0.125583 -8.31216e-23)
(0.0157728 0.0956648 2.38335e-24)
(0.13331 0.140589 0)
(0.101866 0.144454 6.47649e-22)
(0.0717837 0.140239 4.86569e-22)
(0.04471 0.134641 0)
(0.0241916 0.128697 -3.81935e-22)
(0.0112628 0.119682 1.27343e-21)
(0.00397484 0.11257 -7.45364e-22)
(0.00222976 0.0946163 -9.37538e-23)
(0.00279777 0.0858166 4.13968e-23)
(0.01155 0.0593629 -1.19264e-23)
(0.13346 0.124063 -2.95771e-22)
(0.0982342 0.118535 -9.07588e-22)
(0.0681554 0.108327 1.72252e-22)
(0.0414955 0.100651 -2.74504e-22)
(0.0213971 0.0927927 -4.85493e-22)
(0.00828267 0.0825546 -6.0242e-22)
(0.000287201 0.0731494 1.40217e-22)
(-0.00209022 0.0556248 8.16754e-23)
(-0.00142239 0.0471192 -4.15322e-23)
(0.00792468 0.0258042 -5.71467e-24)
(0.129439 0.0967835 1.78257e-22)
(0.0929141 0.0848865 -1.8091e-22)
(0.064127 0.0702946 2.5768e-22)
(0.0381877 0.0616432 2.74084e-22)
(0.0184682 0.0526928 -2.27915e-22)
(0.00504256 0.0422739 4.33558e-22)
(-0.00350899 0.0325355 -1.96172e-22)
(-0.00603474 0.0174793 -2.5344e-23)
(-0.0048404 0.0113098 0)
(0.00486168 -0.00420455 5.71106e-24)
(0.122616 0.0623613 -1.88181e-22)
(0.0867799 0.0470205 1.90716e-22)
(0.0600395 0.0293634 2.67685e-22)
(0.0350112 0.0205769 2.80748e-22)
(0.01562 0.0112582 2.29149e-22)
(0.00198252 0.00172462 -2.60205e-23)
(-0.0068188 -0.00660366 -8.63329e-23)
(-0.00895542 -0.0176855 -1.41692e-22)
(-0.00709032 -0.020463 0)
(0.00288006 -0.0304345 6.30669e-24)
(0.11419 0.0245633 0)
(0.0806241 0.00826197 9.97091e-22)
(0.0560732 -0.0114671 -1.79931e-21)
(0.0321258 -0.0198278 -2.81158e-22)
(0.0130757 -0.0288367 -4.99172e-22)
(-0.0005083 -0.0365374 -6.10505e-22)
(-0.00914484 -0.0421841 1.42864e-22)
(-0.0106605 -0.0485747 8.45025e-23)
(-0.0080778 -0.0478137 -6.3709e-23)
(0.0015727 -0.0531902 -6.28927e-24)
(0.105126 -0.0134342 0)
(0.0747686 -0.028715 8.82616e-22)
(0.0524196 -0.0498031 5.2798e-22)
(0.0296634 -0.0573951 0)
(0.0110879 -0.0654634 1.39366e-21)
(-0.00212582 -0.0706772 -4.94531e-22)
(-0.0102479 -0.0729798 -3.34994e-22)
(-0.0111557 -0.0747668 -5.65715e-22)
(-0.00804336 -0.0710187 6.35009e-23)
(0.00079805 -0.0730533 -3.09079e-23)
(0.09614 -0.0491989 0)
(0.0693719 -0.0620984 -8.89891e-22)
(0.0492223 -0.0839997 0)
(0.0277649 -0.0906508 -2.0099e-21)
(0.00984736 -0.0972558 2.02039e-21)
(-0.0027457 -0.0997588 6.67398e-22)
(-0.0101942 -0.0986725 -1.11134e-22)
(-0.0106255 -0.0965948 5.54604e-22)
(-0.00732428 -0.0907819 9.80948e-23)
(0.000412366 -0.0906885 5.22828e-23)
(0.0876852 -0.0810994 -3.56611e-21)
(0.0646514 -0.0910623 1.4745e-21)
(0.0464509 -0.113121 -2.00995e-22)
(0.0265383 -0.118928 1.9432e-21)
(0.00941415 -0.123671 0)
(-0.00244698 -0.123716 6.49018e-22)
(-0.00919644 -0.119703 -2.13694e-22)
(-0.00938167 -0.114858 -7.7302e-22)
(-0.00623378 -0.10796 -2.28318e-23)
(0.000262044 -0.106712 2.28255e-23)
(0.0800763 -0.108237 1.34236e-21)
(0.0607104 -0.115613 -2.88337e-21)
(0.0441097 -0.136891 -1.8203e-21)
(0.0259805 -0.142288 1.81934e-21)
(0.00972636 -0.144907 8.571e-22)
(-0.00146516 -0.143154 0)
(-0.00755279 -0.136975 9.48032e-22)
(-0.00775462 -0.130518 -5.14779e-22)
(-0.00501861 -0.123356 -2.39852e-22)
(0.000228697 -0.121628 -4.16013e-23)
(0.0735183 -0.130356 1.73929e-22)
(0.0575816 -0.136382 0)
(0.0422434 -0.155574 0)
(0.0259882 -0.161332 0)
(0.0106527 -0.16169 6.8076e-22)
(0.000174212 -0.159049 -1.53616e-21)
(-0.00555822 -0.151543 -9.3717e-22)
(-0.00601636 -0.144469 1.06222e-21)
(-0.00384257 -0.137606 -4.93903e-23)
(0.000241478 -0.135814 9.01011e-23)
(0.0679222 -0.147639 -2.47519e-22)
(0.055192 -0.15436 -2.60749e-21)
(0.0408713 -0.169837 2.58327e-21)
(0.0264176 -0.17695 -3.26501e-21)
(0.012041 -0.175087 4.00707e-21)
(0.00215121 -0.172445 0)
(-0.00348154 -0.164297 4.8755e-22)
(-0.00435651 -0.157407 -4.55082e-24)
(-0.00279174 -0.151164 1.58016e-22)
(0.000268199 -0.149537 4.59845e-23)
(0.0623738 -0.160356 6.2291e-23)
(0.0529258 -0.170656 0)
(0.0398044 -0.180647 3.2074e-21)
(0.0270194 -0.190077 -5.92318e-21)
(0.0137666 -0.1861 2.24948e-21)
(0.0040712 -0.184241 3.12449e-22)
(-0.00166021 -0.175992 -4.8644e-22)
(-0.00285427 -0.169811 -7.71711e-23)
(-0.00187921 -0.164328 -3.3691e-22)
(0.000306172 -0.162984 -9.56928e-23)
(0.0573951 -0.168412 5.42256e-22)
(0.0502202 -0.18632 -5.28026e-22)
(0.0387607 -0.189253 -3.28501e-22)
(0.0272134 -0.201596 0)
(0.0154481 -0.195667 0)
(0.00590389 -0.195041 -3.21552e-22)
(0.000326219 -0.187106 -8.0024e-22)
(-0.00144499 -0.182013 7.85388e-22)
(-0.00103669 -0.177273 5.28893e-23)
(0.000347288 -0.17628 -5.17484e-23)
(0.0618018 -0.175526 0)
(0.0487359 -0.221554 0)
(0.0383222 -0.207096 0)
(0.0265991 -0.226566 0)
(0.0173065 -0.217004 0)
(0.00768125 -0.22007 0)
(0.00335454 -0.213189 0)
(0.000567232 -0.211049 0)
(0.000417656 -0.208029 0)
(0.000296655 -0.2077 0)
(0.0450331 -0.233825 0)
(0.0366576 -0.267999 0)
(0.0320792 -0.253319 0)
(0.0236575 -0.269741 0)
(0.0181676 -0.261654 0)
(0.00938555 -0.267349 0)
(0.00722104 -0.261741 0)
(0.002754 -0.262926 0)
(0.00214696 -0.260249 0)
(5.31135e-05 -0.261022 0)
(0.0413655 -0.283528 0)
(0.0324387 -0.316168 0)
(0.0286721 -0.30071 0)
(0.0209057 -0.317958 0)
(0.016356 -0.310362 0)
(0.00970049 -0.317677 0)
(0.0075571 -0.313033 0)
(0.00334199 -0.315904 0)
(0.00256862 -0.312948 0)
(-0.000133825 -0.314596 0)
(0.0361973 -0.338182 0)
(0.0282643 -0.370161 0)
(0.0246765 -0.353666 0)
(0.0179271 -0.372879 0)
(0.0144732 -0.363484 0)
(0.00906828 -0.373561 0)
(0.00713814 -0.367584 0)
(0.00360167 -0.372294 0)
(0.00245587 -0.368077 0)
(1.40862e-05 -0.370562 0)
(0.0307964 -0.401854 0)
(0.023782 -0.434153 0)
(0.0206127 -0.416 0)
(0.0150989 -0.436611 0)
(0.012193 -0.425457 0)
(0.00821074 -0.4376 0)
(0.00655759 -0.429876 0)
(0.0037651 -0.436259 0)
(0.00247286 -0.42993 0)
(0.00014389 -0.433997 0)
(0.0259159 -0.477676 0)
(0.0194545 -0.510514 0)
(0.0169978 -0.491207 0)
(0.0123999 -0.513341 0)
(0.010438 -0.500336 0)
(0.0072044 -0.514661 0)
(0.0060262 -0.505155 0)
(0.00352865 -0.513151 0)
(0.00228184 -0.505295 0)
(0.000144684 -0.511173 0)
(0.0203759 -0.57346 0)
(0.0153482 -0.605473 0)
(0.0134528 -0.586882 0)
(0.00977283 -0.609666 0)
(0.00834404 -0.596299 0)
(0.00581793 -0.611976 0)
(0.00487996 -0.601447 0)
(0.00276565 -0.610947 0)
(0.00173619 -0.602077 0)
(3.0639e-05 -0.609725 0)
(0.0155038 -0.692182 0)
(0.0111872 -0.719154 0)
(0.00961024 -0.704904 0)
(0.0066047 -0.724863 0)
(0.00573642 -0.713906 0)
(0.00371007 -0.72839 0)
(0.00301036 -0.718904 0)
(0.00123145 -0.728319 0)
(0.000671727 -0.7201 0)
(-0.000233114 -0.728397 0)
(0.00814527 -0.810918 0)
(0.00554752 -0.826489 0)
(0.0047564 -0.821363 0)
(0.00327988 -0.834139 0)
(0.00283805 -0.829086 0)
(0.00154079 -0.838133 0)
(0.000952291 -0.832371 0)
(-0.000221135 -0.838239 0)
(-0.000315555 -0.832781 0)
(-0.000366282 -0.838643 0)
(0.00149889 -0.882381 0)
(0.00108096 -0.892459 0)
(0.00101993 -0.893616 0)
(0.000888913 -0.899756 0)
(0.000700248 -0.898748 0)
(0.000335079 -0.902443 0)
(1.98655e-05 -0.89979 0)
(-0.000341613 -0.901754 0)
(-0.00033746 -0.898876 0)
(-0.000163858 -0.901436 0)
(0.0549605 -0.197753 1.89329e-21)
(0.0449653 -0.252215 -1.86027e-21)
(0.0426425 -0.301911 3.61161e-22)
(0.0374123 -0.357754 0)
(0.0326433 -0.421081 0)
(0.0277061 -0.496954 6.3995e-22)
(0.0222408 -0.591447 -3.08749e-21)
(0.0164985 -0.70407 3.07844e-21)
(0.0101211 -0.815941 9.74508e-22)
(0.00321398 -0.879006 -9.66768e-22)
(0.0526893 -0.204959 -2.39691e-21)
(0.0453615 -0.258169 0)
(0.0431908 -0.307505 2.8086e-21)
(0.038016 -0.363468 -6.87202e-21)
(0.0335161 -0.426549 4.8232e-21)
(0.0285208 -0.502505 -5.76974e-22)
(0.0230795 -0.596483 1.47551e-21)
(0.016989 -0.707438 3.3231e-21)
(0.0110271 -0.816252 1.05854e-21)
(0.00399932 -0.878877 1.06868e-21)
(0.0510832 -0.211863 3.22563e-21)
(0.0461831 -0.264461 -2.91399e-21)
(0.0439957 -0.312992 2.88633e-21)
(0.0389166 -0.368481 -4.23305e-21)
(0.0346203 -0.431069 3.10847e-21)
(0.0294942 -0.506881 0)
(0.0239879 -0.600209 -1.4792e-21)
(0.017611 -0.709698 1.58495e-22)
(0.0115882 -0.815506 -1.79511e-21)
(0.00436857 -0.879147 -2.00415e-21)
(0.0500337 -0.218436 -5.52032e-22)
(0.0472965 -0.270764 0)
(0.0451143 -0.318544 0)
(0.0401701 -0.373494 0)
(0.0360048 -0.435556 4.07284e-21)
(0.0306796 -0.511067 -2.74539e-21)
(0.0250332 -0.603642 -4.82772e-23)
(0.0183697 -0.711563 -2.04535e-21)
(0.0119061 -0.814792 -1.06099e-21)
(0.00441864 -0.878305 -1.16277e-21)
(0.049526 -0.224562 2.30385e-22)
(0.0486451 -0.276348 -1.9879e-21)
(0.0465211 -0.32342 -2.03908e-21)
(0.0417333 -0.378001 2.03782e-21)
(0.0376437 -0.439649 -1.3094e-21)
(0.0320704 -0.514895 0)
(0.0262381 -0.606753 -1.78459e-21)
(0.0192591 -0.713158 4.20735e-21)
(0.0122091 -0.814167 -2.18694e-21)
(0.00438076 -0.876387 2.25029e-21)
(0.0496018 -0.230211 -5.66406e-21)
(0.050283 -0.281012 3.90186e-22)
(0.0482382 -0.327226 -3.86319e-22)
(0.0435737 -0.381511 2.19416e-21)
(0.0395028 -0.442817 0)
(0.033639 -0.517884 0)
(0.0275884 -0.609136 0)
(0.0202737 -0.714228 2.32285e-21)
(0.012649 -0.813343 0)
(0.00441037 -0.873893 0)
(0.0502895 -0.235308 0)
(0.0522929 -0.284785 2.81825e-21)
(0.0503319 -0.32995 -1.93136e-21)
(0.0457067 -0.383894 -2.86765e-21)
(0.0415846 -0.444838 2.88262e-21)
(0.0353798 -0.519754 1.9867e-21)
(0.0290726 -0.610499 -1.94413e-21)
(0.0214035 -0.714528 -8.35722e-21)
(0.0132519 -0.812105 5.92457e-22)
(0.00454136 -0.871205 -2.18367e-21)
(0.0516092 -0.23973 0)
(0.0547414 -0.28765 -8.89481e-22)
(0.0528626 -0.331628 -5.9071e-22)
(0.0481662 -0.385179 0)
(0.0439196 -0.4457 9.55853e-22)
(0.0373165 -0.520442 -2.88268e-21)
(0.0307048 -0.610738 3.4274e-21)
(0.0226545 -0.713914 1.27578e-21)
(0.0140014 -0.810325 -1.46177e-21)
(0.00476351 -0.868415 2.87972e-21)
(0.0535946 -0.243349 7.1764e-22)
(0.0576844 -0.289538 1.0919e-21)
(0.0558666 -0.332228 -1.96313e-22)
(0.050978 -0.385379 3.90925e-22)
(0.0465389 -0.445432 8.7974e-22)
(0.0394785 -0.519989 1.58657e-21)
(0.0325078 -0.609897 -6.368e-22)
(0.0240285 -0.712431 -7.15406e-22)
(0.0148515 -0.80803 1.46661e-21)
(0.00503544 -0.865505 8.26448e-22)
(0.0563001 -0.246042 -2.24576e-22)
(0.0611768 -0.290377 2.26451e-22)
(0.059365 -0.331685 -3.15565e-22)
(0.0541575 -0.384457 -3.90453e-22)
(0.0494655 -0.444003 5.29303e-22)
(0.0418927 -0.518387 -1.08831e-21)
(0.0345121 -0.607976 9.85299e-22)
(0.0255541 -0.710059 3.64904e-22)
(0.0158131 -0.805176 0)
(0.00536364 -0.862361 -8.28258e-22)
(0.059798 -0.247708 2.33962e-22)
(0.0652721 -0.290133 -2.36048e-22)
(0.0633722 -0.32996 -3.6126e-22)
(0.0577186 -0.382398 -4.48333e-22)
(0.0527139 -0.441402 -5.66989e-22)
(0.0445676 -0.515683 -6.26977e-23)
(0.0367248 -0.605049 3.56365e-22)
(0.0272247 -0.706933 1.19151e-21)
(0.0168552 -0.801874 0)
(0.00571566 -0.858996 -9.40302e-22)
(0.0641722 -0.248261 0)
(0.0700171 -0.288813 -1.31684e-21)
(0.0678932 -0.327074 2.46057e-21)
(0.0616744 -0.379196 4.49127e-22)
(0.0562989 -0.437596 1.16185e-21)
(0.0475249 -0.511779 1.98968e-21)
(0.0391793 -0.601003 -7.28188e-22)
(0.029086 -0.7029 -8.15451e-22)
(0.0180412 -0.797986 1.89486e-21)
(0.00614228 -0.855309 9.3807e-22)
(0.0695036 -0.247648 0)
(0.0754429 -0.286494 -1.24269e-21)
(0.072938 -0.323107 -7.74314e-22)
(0.0660437 -0.374865 0)
(0.0602348 -0.43272 -3.75432e-21)
(0.0507545 -0.506852 1.25283e-21)
(0.0418488 -0.596018 1.61669e-21)
(0.0310931 -0.698205 5.38976e-21)
(0.0192989 -0.793726 -1.88874e-21)
(0.0065749 -0.851429 4.22436e-21)
(0.0758575 -0.245838 0)
(0.0815686 -0.283266 1.2534e-21)
(0.0785217 -0.318194 0)
(0.0708259 -0.369447 4.65919e-21)
(0.0645282 -0.426728 -4.68303e-21)
(0.0543289 -0.50067 -3.18143e-21)
(0.0448143 -0.589757 -1.04269e-22)
(0.0333374 -0.692419 -5.61532e-21)
(0.0207515 -0.788754 -9.30672e-22)
(0.00712106 -0.847164 -5.25411e-21)
(0.0832757 -0.242877 6.71128e-21)
(0.0883872 -0.279339 -2.57723e-21)
(0.084669 -0.312377 8.9275e-22)
(0.0760623 -0.362973 -4.05103e-21)
(0.0692016 -0.419747 0)
(0.0582102 -0.49352 -3.38155e-21)
(0.0479873 -0.582846 -4.15395e-22)
(0.0356761 -0.686245 7.70977e-21)
(0.0222125 -0.783585 1.10964e-21)
(0.00761453 -0.842794 -1.11362e-21)
(0.0916484 -0.238738 -2.27073e-21)
(0.0959607 -0.274511 5.83006e-21)
(0.0914594 -0.305535 4.29219e-21)
(0.0817715 -0.355329 -4.28925e-21)
(0.0742894 -0.411592 -2.96499e-21)
(0.0624817 -0.484997 0)
(0.0515239 -0.574468 -7.95192e-21)
(0.038378 -0.678641 3.97483e-21)
(0.0239765 -0.777443 4.40049e-21)
(0.00830381 -0.837889 4.91001e-21)
(0.100982 -0.233585 -7.65624e-22)
(0.104247 -0.269031 0)
(0.0988247 -0.298243 0)
(0.0878813 -0.347206 0)
(0.0796858 -0.403092 -3.63297e-21)
(0.0669803 -0.476307 6.58605e-21)
(0.0551535 -0.566218 8.169e-21)
(0.0410357 -0.6714 -1.31401e-20)
(0.0256018 -0.771544 2.45066e-21)
(0.00880564 -0.833067 -7.29065e-21)
(0.111196 -0.226727 -6.09614e-23)
(0.113367 -0.261928 7.2892e-21)
(0.106878 -0.28973 -7.21884e-21)
(0.0946011 -0.337532 1.18244e-20)
(0.0856449 -0.392785 -1.50088e-20)
(0.0720785 -0.465389 0)
(0.0594161 -0.555366 -4.34193e-21)
(0.044355 -0.661662 -2.50051e-22)
(0.0277867 -0.764046 -5.16454e-21)
(0.00970265 -0.82738 -5.35222e-21)
(0.121883 -0.220973 -7.3919e-22)
(0.122748 -0.256202 0)
(0.115071 -0.282675 -1.12189e-20)
(0.101334 -0.329483 2.24327e-20)
(0.0915099 -0.38445 -8.97637e-21)
(0.0769847 -0.45683 -1.99861e-21)
(0.0633231 -0.547215 4.33276e-21)
(0.0471829 -0.654355 -3.36036e-22)
(0.0294649 -0.75786 7.46093e-21)
(0.0101014 -0.822211 7.917e-21)
(0.134306 -0.207508 -4.31721e-21)
(0.134357 -0.244286 4.21911e-21)
(0.12509 -0.270755 1.11199e-21)
(0.10976 -0.316109 0)
(0.0989032 -0.370509 0)
(0.0834201 -0.442113 1.92746e-21)
(0.0687756 -0.53269 9.3303e-21)
(0.0514964 -0.641678 -9.04997e-21)
(0.0323368 -0.748637 -2.5973e-21)
(0.0113803 -0.815472 2.53976e-21)
(0.162401 -0.216813 0)
(0.163814 -0.247554 0)
(0.146287 -0.269466 0)
(0.125336 -0.312312 0)
(0.111953 -0.364783 0)
(0.094342 -0.433879 0)
(0.0773905 -0.522507 0)
(0.0577442 -0.629175 0)
(0.0359158 -0.734915 0)
(0.0115259 -0.802563 0)
(0.203367 -0.198702 0)
(0.210408 -0.231844 0)
(0.178739 -0.252003 0)
(0.15438 -0.298816 0)
(0.140298 -0.352302 0)
(0.117993 -0.421352 0)
(0.0978164 -0.508015 0)
(0.0737493 -0.611251 0)
(0.0468428 -0.711326 0)
(0.0174053 -0.772641 0)
(0.248049 -0.175323 0)
(0.253296 -0.200812 0)
(0.208167 -0.220682 0)
(0.190388 -0.274112 0)
(0.171388 -0.327543 0)
(0.144309 -0.393292 0)
(0.120215 -0.477867 0)
(0.0900925 -0.578014 0)
(0.0562421 -0.675946 0)
(0.0177746 -0.739119 0)
(0.292036 -0.153577 0)
(0.296299 -0.169413 0)
(0.24681 -0.197764 0)
(0.237878 -0.256384 0)
(0.208213 -0.308397 0)
(0.181423 -0.370745 0)
(0.151413 -0.454664 0)
(0.115289 -0.548931 0)
(0.0734001 -0.638658 0)
(0.0272331 -0.692103 0)
(0.338428 -0.125057 0)
(0.34515 -0.135117 0)
(0.297172 -0.170639 0)
(0.291751 -0.225596 0)
(0.250015 -0.273471 0)
(0.225132 -0.332563 0)
(0.185185 -0.412763 0)
(0.140581 -0.500373 0)
(0.0878056 -0.585205 0)
(0.0271069 -0.6411 0)
(0.402949 -0.106864 0)
(0.415077 -0.117839 0)
(0.368002 -0.158362 0)
(0.36154 -0.206809 0)
(0.311407 -0.252159 0)
(0.285151 -0.307988 0)
(0.233076 -0.378799 0)
(0.178412 -0.45724 0)
(0.113641 -0.529162 0)
(0.0430207 -0.569763 0)
(0.492791 -0.0787992 0)
(0.503359 -0.0915828 0)
(0.453409 -0.127066 0)
(0.440875 -0.166529 0)
(0.382157 -0.205165 0)
(0.346705 -0.253284 0)
(0.280596 -0.310561 0)
(0.212029 -0.380901 0)
(0.130972 -0.445722 0)
(0.0373771 -0.492049 0)
(0.613358 -0.0692316 0)
(0.614642 -0.0824298 0)
(0.564705 -0.111275 0)
(0.541303 -0.141993 0)
(0.477407 -0.172835 0)
(0.429221 -0.212965 0)
(0.350506 -0.257195 0)
(0.265696 -0.316147 0)
(0.168358 -0.362812 0)
(0.0695428 -0.385353 0)
(0.722397 -0.0332767 0)
(0.709288 -0.0408264 0)
(0.657005 -0.0584444 0)
(0.619445 -0.0764921 0)
(0.547688 -0.0951178 0)
(0.483974 -0.120017 0)
(0.387905 -0.145791 0)
(0.282804 -0.185684 0)
(0.159804 -0.221679 0)
(0.0213481 -0.271805 0)
(0.902152 -0.0188458 0)
(0.881924 -0.0226937 0)
(0.838949 -0.0295318 0)
(0.795731 -0.0371567 0)
(0.730436 -0.0457363 0)
(0.659911 -0.0574803 0)
(0.560732 -0.0706049 0)
(0.442052 -0.0919727 0)
(0.296457 -0.119767 0)
(0.178047 -0.173337 0)
(0.197034 -0.180351 1.73268e-21)
(0.24695 -0.164557 -1.71295e-21)
(0.29375 -0.145471 7.51383e-22)
(0.336015 -0.127298 0)
(0.382044 -0.103595 0)
(0.444565 -0.0875306 1.99839e-21)
(0.532334 -0.0621874 -1.06425e-20)
(0.644465 -0.0544984 1.06067e-20)
(0.749874 -0.0235374 3.38088e-21)
(0.91949 -0.0153748 -3.38975e-21)
(0.208241 -0.164399 8.57663e-22)
(0.257691 -0.149527 0)
(0.30404 -0.132973 6.15812e-21)
(0.346377 -0.116361 -1.66115e-20)
(0.393361 -0.0945312 1.25189e-20)
(0.456683 -0.0793128 -1.81907e-21)
(0.544401 -0.0550657 4.14792e-21)
(0.654478 -0.0480924 1.01479e-20)
(0.758743 -0.0192955 3.1515e-21)
(0.925169 -0.0138499 3.02959e-21)
(0.216529 -0.145902 -1.59398e-21)
(0.265282 -0.132379 -3.64627e-21)
(0.310152 -0.119239 3.61171e-21)
(0.352289 -0.10454 -9.64836e-21)
(0.40008 -0.0847766 6.79498e-21)
(0.464621 -0.0705128 0)
(0.552371 -0.0475794 -4.15819e-21)
(0.661257 -0.0415467 -8.45121e-23)
(0.76513 -0.0151077 -5.52346e-21)
(0.929248 -0.0123877 -5.97397e-21)
(0.223447 -0.125063 2.21787e-22)
(0.273422 -0.113293 0)
(0.317324 -0.103932 0)
(0.359277 -0.0913742 0)
(0.4075 -0.0739055 8.72804e-21)
(0.47269 -0.0608374 -6.07213e-21)
(0.560083 -0.0395561 -4.36573e-22)
(0.667403 -0.0348274 -5.20618e-21)
(0.770868 -0.0109956 -2.81951e-21)
(0.932768 -0.0109965 -2.95712e-21)
(0.228592 -0.102018 2.05592e-21)
(0.280542 -0.0925333 2.49995e-22)
(0.324294 -0.0869604 -2.95016e-21)
(0.366714 -0.0766635 2.94847e-21)
(0.415622 -0.0616686 -2.61738e-21)
(0.481302 -0.050103 0)
(0.568171 -0.0308345 -4.03316e-21)
(0.673529 -0.0278103 9.85373e-21)
(0.776348 -0.00688021 -5.04802e-21)
(0.935961 -0.00964476 5.83321e-21)
(0.231904 -0.0770613 2.28949e-21)
(0.285614 -0.0701054 -1.78508e-21)
(0.329647 -0.0682131 -1.43294e-21)
(0.372995 -0.0603053 2.76588e-21)
(0.422988 -0.0479798 0)
(0.489307 -0.0382631 0)
(0.575722 -0.0213705 0)
(0.679119 -0.0204335 4.62431e-21)
(0.781207 -0.00269672 0)
(0.938634 -0.00830441 0)
(0.233379 -0.0505534 0)
(0.288748 -0.045918 1.47791e-21)
(0.333186 -0.0475063 -1.22192e-21)
(0.37752 -0.0421525 -4.05878e-21)
(0.428796 -0.0327629 4.08002e-21)
(0.495768 -0.0252913 3.44753e-21)
(0.581804 -0.011173 -3.06328e-21)
(0.683448 -0.0127023 -1.58744e-20)
(0.784937 0.00156668 1.10477e-21)
(0.940496 -0.00697317 -4.22955e-21)
(0.233138 -0.0225751 0)
(0.290243 -0.0199666 -2.60057e-22)
(0.33496 -0.0247048 -4.60634e-22)
(0.380322 -0.0220885 0)
(0.432847 -0.0159374 1.52413e-21)
(0.500331 -0.0111369 -4.24916e-21)
(0.585941 -0.000241798 5.87036e-21)
(0.686033 -0.00463502 2.4987e-21)
(0.787143 0.00589844 -2.57603e-21)
(0.94132 -0.00564986 5.61901e-21)
(0.231473 0.00690136 -5.35806e-22)
(0.290207 0.00769334 5.82581e-22)
(0.33488 0.000184348 1.07146e-22)
(0.381463 -0.000132002 4.15149e-22)
(0.435074 0.00251773 1.16848e-21)
(0.502946 0.00422438 2.30873e-21)