/*--------------------------------*- C++ -*----------------------------------*\
  =========                 |
  \\      /  F ield         | OpenFOAM: The Open Source CFD Toolbox
   \\    /   O peration     | Website:  https://openfoam.org
    \\  /    A nd           | Version:  7
     \\/     M anipulation  |
\*---------------------------------------------------------------------------*/
FoamFile
{
    version     2.0;
    format      ascii;
    class       volScalarField;
    location    "1.3";
    object      p;
}
// * * * * * * * * * * * * * * * * * * * * * * * * * * * * * * * * * * * * * //

dimensions      [0 2 -2 0 0 0 0];

internalField   nonuniform List<scalar> 
32000
(
2.03705
2.037
2.03804
2.03933
2.04071
2.04208
2.04358
2.04537
2.04754
2.05014
2.05327
2.05698
2.06128
2.06607
2.07126
2.07672
2.08233
2.08799
2.09359
2.09908
2.10437
2.10943
2.11424
2.11882
2.12318
2.12734
2.13132
2.13512
2.13875
2.14224
2.14558
2.14882
2.15198
2.15507
2.15812
2.16114
2.16412
2.16708
2.17003
2.17284
2.0306
2.0307
2.03181
2.03316
2.03454
2.03588
2.03729
2.03896
2.04098
2.04344
2.04644
2.05004
2.05424
2.05896
2.06408
2.0695
2.07509
2.08074
2.08634
2.09181
2.09709
2.10213
2.10692
2.11147
2.11581
2.11993
2.12387
2.12763
2.13121
2.13463
2.13791
2.14107
2.14415
2.14716
2.15013
2.15306
2.15595
2.15882
2.16166
2.16438
2.02393
2.02424
2.02544
2.02688
2.02829
2.02961
2.03096
2.03251
2.03438
2.0367
2.03956
2.04305
2.04716
2.05181
2.05688
2.06225
2.06782
2.07344
2.07903
2.08448
2.08973
2.09474
2.09951
2.10404
2.10834
2.11244
2.11633
2.12003
2.12355
2.12691
2.13011
2.1332
2.1362
2.13913
2.14201
2.14485
2.14765
2.15043
2.15316
2.15579
2.01713
2.01769
2.01899
2.02051
2.02197
2.02329
2.02459
2.02601
2.02774
2.02991
2.03265
2.03603
2.04005
2.04463
2.04964
2.05497
2.06051
2.06611
2.07167
2.07708
2.0823
2.08729
2.09203
2.09653
2.1008
2.10485
2.10869
2.11234
2.11579
2.11908
2.12221
2.12523
2.12815
2.13099
2.13379
2.13654
2.13924
2.14191
2.14455
2.14708
2.01026
2.01108
2.01248
2.01409
2.0156
2.01693
2.01817
2.01948
2.02107
2.0231
2.02572
2.02899
2.03292
2.03742
2.04238
2.04767
2.05317
2.05875
2.06426
2.06964
2.07482
2.07977
2.08449
2.08895
2.09318
2.09718
2.10097
2.10455
2.10793
2.11115
2.11422
2.11715
2.11999
2.12275
2.12545
2.12811
2.13072
2.13329
2.13582
2.13826
2.00336
2.00442
2.00593
2.00764
2.00921
2.01054
2.01172
2.01293
2.01439
2.01629
2.01878
2.02195
2.02578
2.03021
2.03511
2.04036
2.04582
2.05135
2.05682
2.06215
2.06729
2.07221
2.07689
2.08132
2.0855
2.08944
2.09316
2.09667
2.09999
2.10314
2.10612
2.10898
2.11173
2.11441
2.11702
2.11958
2.12209
2.12456
2.12698
2.12932
1.99646
1.99775
1.99937
2.00118
2.0028
2.00414
2.00526
2.00637
2.00771
2.00948
2.01185
2.0149
2.01864
2.02299
2.02784
2.03305
2.03846
2.04394
2.04936
2.05464
2.05974
2.06462
2.06925
2.07363
2.07776
2.08164
2.08529
2.08873
2.09197
2.09504
2.09795
2.10072
2.10338
2.10597
2.10849
2.11096
2.11337
2.11573
2.11804
2.12028
1.98957
1.99108
1.9928
1.9947
1.99638
1.99771
1.99878
1.99981
2.00103
2.00267
2.00492
2.00786
2.01151
2.01579
2.02058
2.02574
2.0311
2.03652
2.04188
2.04711
2.05216
2.05699
2.06157
2.0659
2.06996
2.07378
2.07735
2.08072
2.08389
2.08687
2.08969
2.09238
2.09495
2.09744
2.09987
2.10224
2.10455
2.1068
2.109
2.11114
1.98271
1.98442
1.98623
1.98823
1.98995
1.99128
1.9923
1.99324
1.99435
1.99587
1.998
2.00084
2.0044
2.00861
2.01335
2.01844
2.02374
2.02909
2.03439
2.03956
2.04456
2.04933
2.05386
2.05813
2.06212
2.06586
2.06936
2.07265
2.07573
2.07863
2.08136
2.08396
2.08644
2.08884
2.09118
2.09344
2.09565
2.09779
2.09988
2.10191
1.97587
1.97778
1.97968
1.98175
1.98352
1.98484
1.98582
1.98668
1.98768
1.98909
1.9911
1.99384
1.99732
2.00146
2.00613
2.01116
2.01639
2.02167
2.0269
2.03202
2.03695
2.04166
2.04612
2.05032
2.05424
2.0579
2.06133
2.06453
2.06752
2.07033
2.07297
2.07547
2.07786
2.08017
2.0824
2.08457
2.08667
2.08871
2.09068
2.0926
1.96906
1.97116
1.97314
1.97529
1.97709
1.97841
1.97935
1.98013
1.98102
1.98232
1.98422
1.98686
1.99026
1.99433
1.99893
2.00389
2.00904
2.01425
2.01942
2.02447
2.02933
2.03397
2.03836
2.04248
2.04633
2.04991
2.05324
2.05636
2.05926
2.06197
2.06452
2.06692
2.06922
2.07143
2.07357
2.07563
2.07762
2.07955
2.08141
2.08322
1.9623
1.96456
1.96662
1.96884
1.97066
1.97198
1.97288
1.97359
1.97438
1.97556
1.97737
1.97992
1.98324
1.98723
1.99176
1.99664
2.00171
2.00685
2.01195
2.01692
2.02171
2.02627
2.03058
2.03462
2.03838
2.04188
2.04513
2.04815
2.05096
2.05357
2.05601
2.05832
2.06053
2.06264
2.06468
2.06664
2.06852
2.07034
2.07207
2.07377
1.95558
1.958
1.96013
1.9624
1.96426
1.96557
1.96643
1.96705
1.96775
1.96884
1.97054
1.97301
1.97625
1.98017
1.98461
1.98941
1.99441
1.99947
2.00449
2.00938
2.01409
2.01856
2.02279
2.02674
2.03041
2.03382
2.03698
2.0399
2.04261
2.04512
2.04747
2.04968
2.05179
2.05381
2.05575
2.0576
2.05937
2.06107
2.06269
2.06427
1.94889
1.95147
1.95365
1.95598
1.95786
1.95917
1.95998
1.96053
1.96114
1.96213
1.96375
1.96614
1.96931
1.97314
1.9775
1.98221
1.98713
1.99211
1.99705
2.00186
2.00647
2.01086
2.01499
2.01884
2.02242
2.02574
2.0288
2.03163
2.03423
2.03664
2.03889
2.041
2.04302
2.04494
2.04677
2.04852
2.05018
2.05177
2.05326
2.05473
1.94225
1.94496
1.9472
1.94958
1.95149
1.95278
1.95355
1.95403
1.95455
1.95546
1.957
1.95931
1.9624
1.96615
1.97043
1.97505
1.97988
1.98478
1.98964
1.99435
1.99887
2.00316
2.00718
2.01094
2.01442
2.01764
2.02061
2.02333
2.02583
2.02813
2.03028
2.0323
2.03421
2.03604
2.03777
2.03941
2.04096
2.04243
2.0438
2.04515
1.93564
1.93848
1.94077
1.9432
1.94512
1.94641
1.94713
1.94753
1.94797
1.9488
1.95028
1.95252
1.95553
1.9592
1.96339
1.96792
1.97267
1.97748
1.98224
1.98686
1.99128
1.99546
1.99938
2.00303
2.00642
2.00954
2.0124
2.01501
2.0174
2.0196
2.02165
2.02357
2.02539
2.02712
2.02875
2.03029
2.03172
2.03307
2.03432
2.03554
1.92905
1.93202
1.93436
1.93683
1.93878
1.94004
1.94071
1.94104
1.94141
1.94218
1.94358
1.94576
1.9487
1.95229
1.95638
1.96084
1.96549
1.97021
1.97488
1.97939
1.9837
1.98777
1.99158
1.99513
1.99841
2.00143
2.00418
2.00668
2.00897
2.01106
2.01301
2.01483
2.01656
2.01819
2.01972
2.02115
2.02247
2.02371
2.02483
2.02593
1.92249
1.92557
1.92797
1.93048
1.93243
1.93368
1.93429
1.93456
1.93487
1.93557
1.93692
1.93903
1.9419
1.94541
1.94942
1.95379
1.95835
1.96298
1.96753
1.97194
1.97614
1.9801
1.9838
1.98724
1.99041
1.99331
1.99595
1.99835
2.00053
2.00252
2.00436
2.00609
2.00772
2.00926
2.01069
2.01201
2.01322
2.01434
2.01534
2.01632
1.91595
1.91913
1.92158
1.92413
1.92609
1.92731
1.92787
1.92808
1.92833
1.92898
1.93027
1.93233
1.93513
1.93856
1.9425
1.94678
1.95125
1.95577
1.96021
1.96451
1.96859
1.97244
1.97603
1.97935
1.98241
1.9852
1.98773
1.99002
1.99209
1.99398
1.99572
1.99736
1.9989
2.00033
2.00167
2.00288
2.00398
2.00498
2.00586
2.00672
1.90941
1.9127
1.91519
1.91778
1.91974
1.92093
1.92144
1.9216
1.9218
1.9224
1.92365
1.92565
1.92839
1.93175
1.93561
1.9398
1.94417
1.94859
1.95292
1.9571
1.96107
1.96479
1.96827
1.97148
1.97442
1.97709
1.97951
1.98169
1.98366
1.98545
1.9871
1.98864
1.99008
1.99142
1.99266
1.99377
1.99476
1.99565
1.99641
1.99716
1.90288
1.90627
1.90881
1.91143
1.91339
1.91454
1.91501
1.91511
1.91527
1.91583
1.91704
1.919
1.92168
1.92498
1.92876
1.93286
1.93713
1.94143
1.94565
1.94971
1.95356
1.95717
1.96053
1.96361
1.96643
1.96899
1.9713
1.97337
1.97524
1.97693
1.97849
1.97993
1.98128
1.98253
1.98367
1.98468
1.98557
1.98635
1.98699
1.98763
1.89636
1.89984
1.90243
1.90507
1.90701
1.90813
1.90855
1.90862
1.90874
1.90927
1.91044
1.91236
1.91499
1.91823
1.92193
1.92595
1.93012
1.9343
1.9384
1.94234
1.94607
1.94957
1.9528
1.95577
1.95846
1.9609
1.9631
1.96507
1.96684
1.96843
1.9699
1.97125
1.97251
1.97367
1.97471
1.97562
1.97641
1.97709
1.97762
1.97815
1.88984
1.89342
1.89604
1.89869
1.90062
1.9017
1.90208
1.90211
1.9022
1.90271
1.90386
1.90575
1.90833
1.91151
1.91514
1.91906
1.92313
1.9272
1.93118
1.935
1.93861
1.94198
1.94509
1.94793
1.9505
1.95283
1.95492
1.95678
1.95845
1.95995
1.96133
1.9626
1.96377
1.96484
1.96579
1.96661
1.9673
1.96788
1.96831
1.96873
1.88331
1.88698
1.88964
1.8923
1.89421
1.89525
1.89558
1.89558
1.89565
1.89615
1.89729
1.89915
1.90169
1.90482
1.90837
1.91221
1.91617
1.92012
1.92398
1.92767
1.93116
1.93441
1.9374
1.94011
1.94256
1.94477
1.94675
1.94851
1.95008
1.9515
1.95279
1.95398
1.95507
1.95605
1.95691
1.95764
1.95825
1.95874
1.95907
1.95939
1.87677
1.88053
1.88322
1.88589
1.88777
1.88876
1.88905
1.88903
1.8891
1.88959
1.89072
1.89256
1.89507
1.89814
1.90163
1.90537
1.90922
1.91306
1.91679
1.92036
1.92373
1.92686
1.92971
1.9323
1.93463
1.93673
1.9386
1.94026
1.94174
1.94307
1.94428
1.94539
1.9464
1.9473
1.94808
1.94874
1.94926
1.94966
1.9499
1.95014
1.87021
1.87407
1.87678
1.87944
1.88129
1.88223
1.8825
1.88246
1.88252
1.88302
1.88415
1.88598
1.88847
1.89149
1.8949
1.89856
1.9023
1.90602
1.90963
1.91308
1.91632
1.91931
1.92204
1.9245
1.92672
1.9287
1.93047
1.93204
1.93343
1.93467
1.93581
1.93684
1.93778
1.9386
1.93931
1.93989
1.94034
1.94067
1.94083
1.94098
1.86363
1.86757
1.87031
1.87296
1.87477
1.87567
1.8759
1.87586
1.87593
1.87645
1.87759
1.87941
1.88187
1.88484
1.88819
1.89176
1.8954
1.899
1.90248
1.9058
1.90891
1.91178
1.91438
1.91672
1.91882
1.92069
1.92236
1.92383
1.92514
1.92631
1.92737
1.92833
1.9292
1.92995
1.93059
1.93111
1.9315
1.93176
1.93185
1.93192
1.85702
1.86105
1.8638
1.86644
1.8682
1.86906
1.86927
1.86922
1.86932
1.86986
1.87102
1.87284
1.87528
1.87821
1.88149
1.88497
1.8885
1.89199
1.89535
1.89854
1.90152
1.90426
1.90673
1.90895
1.91093
1.9127
1.91427
1.91565
1.91687
1.91797
1.91896
1.91986
1.92066
1.92135
1.92194
1.9224
1.92273
1.92294
1.92297
1.92298
1.85036
1.85449
1.85725
1.85986
1.86158
1.8624
1.86259
1.86256
1.86269
1.86327
1.86445
1.86628
1.86869
1.87159
1.8748
1.8782
1.88162
1.88499
1.88823
1.89129
1.89414
1.89675
1.89909
1.90119
1.90306
1.90472
1.90619
1.90748
1.90863
1.90966
1.91059
1.91142
1.91216
1.9128
1.91333
1.91375
1.91405
1.91422
1.9142
1.91416
1.84367
1.84788
1.85065
1.85324
1.85491
1.85569
1.85587
1.85586
1.85603
1.85666
1.85787
1.85971
1.86212
1.86497
1.86812
1.87143
1.87475
1.878
1.88112
1.88405
1.88677
1.88924
1.89146
1.89344
1.8952
1.89676
1.89813
1.89934
1.90041
1.90137
1.90224
1.90302
1.90371
1.9043
1.90479
1.90517
1.90544
1.90559
1.90555
1.90547
1.83694
1.84124
1.844
1.84656
1.84819
1.84893
1.84911
1.84913
1.84935
1.85003
1.85129
1.85315
1.85554
1.85836
1.86145
1.86467
1.86789
1.87103
1.87402
1.87683
1.87941
1.88175
1.88384
1.8857
1.88735
1.88881
1.89009
1.89121
1.89221
1.89311
1.89392
1.89464
1.89528
1.89583
1.89629
1.89666
1.89691
1.89705
1.89701
1.89693
1.83015
1.83454
1.8373
1.83983
1.84141
1.84213
1.84231
1.84237
1.84265
1.8434
1.8447
1.84658
1.84897
1.85175
1.85478
1.85792
1.86104
1.86406
1.86693
1.86961
1.87206
1.87427
1.87623
1.87797
1.87951
1.88087
1.88206
1.88311
1.88403
1.88486
1.88561
1.88629
1.88688
1.8874
1.88784
1.88819
1.88846
1.88861
1.88859
1.88853
1.82332
1.8278
1.83056
1.83305
1.83458
1.83528
1.83547
1.83558
1.83594
1.83675
1.83811
1.84002
1.84241
1.84516
1.84812
1.85117
1.85419
1.8571
1.85985
1.8624
1.86471
1.86679
1.86863
1.87025
1.87168
1.87294
1.87404
1.87501
1.87587
1.87663
1.87732
1.87794
1.8785
1.87899
1.87942
1.87978
1.88006
1.88025
1.88029
1.88027
1.81644
1.82101
1.82376
1.82621
1.8277
1.82838
1.8286
1.82877
1.8292
1.83009
1.83151
1.83346
1.83585
1.83857
1.84147
1.84443
1.84735
1.85014
1.85277
1.85519
1.85738
1.85932
1.86104
1.86254
1.86387
1.86502
1.86604
1.86693
1.86771
1.86841
1.86904
1.86961
1.87012
1.87059
1.87101
1.87138
1.87171
1.87196
1.87208
1.87216
1.80951
1.81418
1.81691
1.81932
1.82077
1.82144
1.8217
1.82193
1.82245
1.82343
1.82492
1.8269
1.82929
1.83198
1.83482
1.8377
1.84051
1.84319
1.8457
1.84799
1.85005
1.85187
1.85346
1.85485
1.85606
1.85712
1.85805
1.85885
1.85956
1.86019
1.86075
1.86127
1.86174
1.86218
1.8626
1.86299
1.86337
1.86371
1.86395
1.86417
1.80253
1.8073
1.81001
1.81238
1.8138
1.81446
1.81476
1.81508
1.81569
1.81676
1.81832
1.82035
1.82275
1.82541
1.82819
1.83098
1.83368
1.83625
1.83864
1.84081
1.84274
1.84443
1.8459
1.84717
1.84827
1.84923
1.85006
1.85078
1.85141
1.85196
1.85246
1.85291
1.85333
1.85374
1.85415
1.85457
1.855
1.85545
1.85585
1.85627
1.7955
1.80037
1.80307
1.8054
1.80678
1.80746
1.80781
1.80821
1.80892
1.81009
1.81173
1.8138
1.81621
1.81884
1.82156
1.82426
1.82687
1.82932
1.83159
1.83364
1.83545
1.83701
1.83836
1.83951
1.8405
1.84135
1.84208
1.84271
1.84325
1.84372
1.84413
1.84451
1.84488
1.84524
1.84563
1.84607
1.84656
1.84713
1.84772
1.8484
1.78843
1.79339
1.79607
1.79837
1.79973
1.80042
1.80083
1.80133
1.80216
1.80343
1.80515
1.80727
1.8097
1.8123
1.81495
1.81757
1.82007
1.82241
1.82456
1.82649
1.82817
1.82961
1.83084
1.83187
1.83274
1.83349
1.83412
1.83465
1.83509
1.83546
1.83578
1.83608
1.83636
1.83666
1.837
1.83743
1.83797
1.83865
1.83948
1.84055
1.78132
1.78638
1.78903
1.7913
1.79265
1.79337
1.79385
1.79445
1.7954
1.79678
1.79859
1.80076
1.8032
1.80577
1.80837
1.8109
1.8133
1.81553
1.81756
1.81936
1.82092
1.82224
1.82334
1.82425
1.82501
1.82564
1.82616
1.82658
1.82692
1.82719
1.8274
1.82759
1.82776
1.82796
1.82821
1.82857
1.82908
1.82984
1.83097
1.83273
1.77416
1.77931
1.78196
1.7842
1.78554
1.78629
1.78686
1.78757
1.78865
1.79015
1.79204
1.79427
1.79672
1.79927
1.80181
1.80425
1.80655
1.80866
1.81058
1.81226
1.8137
1.81489
1.81587
1.81666
1.8173
1.81781
1.81822
1.81853
1.81875
1.8189
1.81899
1.81905
1.81909
1.81914
1.81923
1.8194
1.8197
1.82022
1.82117
1.82354
2.18207
2.19805
2.21284
2.2284
2.2437
2.25933
2.27516
2.29119
2.3074
2.32368
2.3401
2.3567
2.37354
2.39054
2.40779
2.42529
2.443
2.46097
2.4793
2.49795
2.51689
2.53621
2.55583
2.57585
2.59623
2.61703
2.63821
2.65977
2.68161
2.70397
2.72629
2.74931
2.7718
2.79548
2.81779
2.84236
2.86367
2.8902
2.90764
2.94159
2.17347
2.19007
2.20517
2.22103
2.23655
2.25232
2.26828
2.2844
2.30065
2.31699
2.33352
2.35011
2.36694
2.38408
2.40138
2.41878
2.43655
2.45464
2.47291
2.49156
2.51051
2.52981
2.54947
2.56944
2.58985
2.61062
2.63174
2.65336
2.67521
2.69755
2.71986
2.74288
2.76536
2.78906
2.81137
2.83594
2.85728
2.88383
2.90133
2.93533
2.16473
2.18198
2.19739
2.21357
2.22929
2.24523
2.26132
2.27752
2.29383
2.31023
2.32685
2.34346
2.3603
2.37754
2.39489
2.41222
2.43006
2.44823
2.46645
2.48512
2.50407
2.52336
2.54305
2.56299
2.58344
2.60418
2.62525
2.64693
2.66878
2.69111
2.7134
2.73643
2.75892
2.78265
2.80496
2.82955
2.85091
2.8775
2.89505
2.9291
2.15588
2.17378
2.1895
2.20603
2.22195
2.23806
2.25428
2.27057
2.28694
2.30341
2.32007
2.33675
2.35363
2.37089
2.38828
2.40566
2.42351
2.44169
2.45995
2.47861
2.49758
2.51687
2.53656
2.55651
2.57695
2.5977
2.61878
2.64045
2.6623
2.68463
2.70694
2.72997
2.75249
2.77623
2.79857
2.82319
2.84457
2.87121
2.88881
2.9229
2.14691
2.16548
2.18151
2.1984
2.21452
2.23081
2.24715
2.26354
2.27999
2.29653
2.31322
2.32998
2.34691
2.36417
2.38158
2.39905
2.41691
2.43507
2.45339
2.47205
2.49103
2.51032
2.53001
2.54998
2.5704
2.59119
2.61229
2.63393
2.65579
2.67813
2.70046
2.7235
2.74606
2.76981
2.79219
2.81685
2.83826
2.86494
2.8826
2.91674
2.13782
2.15708
2.17344
2.1907
2.20702
2.22349
2.23995
2.25644
2.27297
2.28958
2.3063
2.32314
2.34012
2.35738
2.37482
2.39237
2.41023
2.42839
2.44676
2.46543
2.48443
2.50372
2.5234
2.54341
2.56382
2.58462
2.60575
2.62738
2.64925
2.6716
2.69396
2.71702
2.73962
2.7634
2.78583
2.81054
2.83199
2.85872
2.87643
2.91063
2.12862
2.1486
2.16527
2.18291
2.19944
2.21609
2.23268
2.24928
2.26588
2.28256
2.29933
2.31623
2.33326
2.35054
2.368
2.38561
2.40349
2.42166
2.44006
2.45874
2.47776
2.49707
2.51675
2.53678
2.55719
2.57801
2.59916
2.62079
2.64267
2.66505
2.68744
2.71053
2.73318
2.757
2.77947
2.80424
2.82573
2.85252
2.8703
2.90457
2.11933
2.14003
2.15703
2.17506
2.1918
2.20863
2.22535
2.24204
2.25872
2.27548
2.29229
2.30926
2.32634
2.34364
2.36113
2.37879
2.39669
2.41487
2.4333
2.452
2.47103
2.49036
2.51005
2.5301
2.55052
2.57135
2.59253
2.61416
2.63606
2.65847
2.6809
2.70402
2.72672
2.7506
2.77312
2.79795
2.81951
2.84636
2.86421
2.89856
2.10994
2.13139
2.14872
2.16714
2.18409
2.2011
2.21795
2.23475
2.25151
2.26834
2.2852
2.30223
2.31935
2.33669
2.35421
2.3719
2.38983
2.40802
2.42649
2.4452
2.46425
2.4836
2.5033
2.52338
2.54381
2.56465
2.58585
2.6075
2.62942
2.65187
2.67434
2.69751
2.72026
2.7442
2.76678
2.79168
2.81331
2.84022
2.85816
2.89259
2.10047
2.12268
2.14035
2.15917
2.17633
2.19351
2.2105
2.2274
2.24425
2.26115
2.27806
2.29514
2.31232
2.32968
2.34723
2.36496
2.38292
2.40113
2.41962
2.43835
2.45741
2.47679
2.4965
2.5166
2.53705
2.5579
2.57913
2.6008
2.62275
2.64524
2.66776
2.69098
2.71379
2.73781
2.76045
2.78543
2.80713
2.83412
2.85215
2.88667
2.09092
2.11391
2.13192
2.15114
2.16851
2.18587
2.20299
2.21999
2.23693
2.2539
2.27087
2.288
2.30523
2.32263
2.3402
2.35797
2.37595
2.39418
2.4127
2.43144
2.45053
2.46994
2.48966
2.50978
2.53025
2.55112
2.57237
2.59408
2.61606
2.63859
2.66117
2.68445
2.70732
2.73142
2.75413
2.77919
2.80097
2.82806
2.84617
2.88079
2.0813
2.1051
2.12345
2.14306
2.16065
2.17818
2.19544
2.21254
2.22956
2.24661
2.26363
2.28081
2.29809
2.31552
2.33313
2.35093
2.36893
2.38718
2.40572
2.42449
2.44359
2.46303
2.48277
2.50291
2.52341
2.54429
2.56557
2.58732
2.60933
2.63191
2.65455
2.6779
2.70084
2.72503
2.74782
2.77296
2.79484
2.82203
2.84023
2.87495
2.07163
2.09623
2.11494
2.13493
2.15274
2.17044
2.18784
2.20505
2.22215
2.23926
2.25635
2.27358
2.2909
2.30837
2.326
2.34383
2.36186
2.38014
2.3987
2.4175
2.43661
2.45608
2.47584
2.496
2.51653
2.53743
2.55874
2.58052
2.60259
2.62521
2.64791
2.67134
2.69435
2.71863
2.74151
2.76675
2.78873
2.81603
2.83433
2.86916
2.06191
2.08734
2.10639
2.12677
2.1448
2.16266
2.1802
2.19751
2.2147
2.23188
2.24903
2.2663
2.28366
2.30117
2.31883
2.3367
2.35475
2.37306
2.39164
2.41046
2.42959
2.44908
2.46887
2.48905
2.5096
2.53053
2.55186
2.5737
2.59581
2.61849
2.64125
2.66477
2.68785
2.71222
2.7352
2.76055
2.78264
2.81006
2.82847
2.86342
2.05215
2.07841
2.09783
2.11857
2.13682
2.15485
2.17253
2.18994
2.20722
2.22446
2.24166
2.25899
2.27639
2.29394
2.31163
2.32952
2.34761
2.36593
2.38453
2.40337
2.42253
2.44204
2.46186
2.48205
2.50263
2.5236
2.54496
2.56684
2.58901
2.61174
2.63458
2.65818
2.68134
2.70581
2.7289
2.75437
2.77658
2.80413
2.82265
2.85773
2.04237
2.06947
2.08925
2.11035
2.12882
2.14702
2.16482
2.18234
2.1997
2.21701
2.23427
2.25165
2.26909
2.28667
2.30439
2.32231
2.34042
2.35876
2.37738
2.39625
2.41542
2.43496
2.45481
2.47501
2.49562
2.51663
2.53802
2.55995
2.58218
2.60497
2.62787
2.65157
2.67481
2.69939
2.7226
2.74821
2.77054
2.79824
2.81687
2.85208
2.03257
2.06051
2.08066
2.10211
2.1208
2.13916
2.15709
2.17471
2.19215
2.20953
2.22685
2.24428
2.26175
2.27938
2.29712
2.31507
2.3332
2.35155
2.37019
2.38908
2.40828
2.42783
2.44771
2.46793
2.48857
2.50962
2.53106
2.55303
2.57532
2.59818
2.62115
2.64494
2.66827
2.69297
2.7163
2.74205
2.76452
2.79238
2.81113
2.84649
2.02277
2.05156
2.07207
2.09385
2.11276
2.13128
2.14934
2.16707
2.18459
2.20203
2.21941
2.23689
2.2544
2.27206
2.28983
2.3078
2.32594
2.34431
2.36297
2.38188
2.4011
2.42067
2.44058
2.46082
2.48149
2.50258
2.52406
2.54608
2.56843
2.59136
2.6144
2.63828
2.66172
2.68654
2.71
2.73591
2.75852
2.78655
2.80544
2.84093
2.01297
2.04262
2.0635
2.08559
2.1047
2.12339
2.14157
2.1594
2.17701
2.19451
2.21195
2.22948
2.24702
2.26471
2.28251
2.30049
2.31865
2.33704
2.35571
2.37464
2.39389
2.41347
2.43341
2.45368
2.47437
2.49551
2.51703
2.5391
2.56152
2.58451
2.60763
2.63161
2.65514
2.6801
2.7037
2.72978
2.75255
2.78075
2.79978
2.83542
2.0032
2.03369
2.05494
2.07733
2.09664
2.11549
2.1338
2.15172
2.16942
2.18698
2.20448
2.22205
2.23963
2.25735
2.27516
2.29316
2.31134
2.32974
2.34842
2.36737
2.38664
2.40624
2.4262
2.4465
2.46722
2.48841
2.50998
2.53209
2.55458
2.57764
2.60083
2.62491
2.64855
2.67364
2.6974
2.72365
2.74659
2.77499
2.79416
2.82996
1.99346
2.0248
2.04641
2.06907
2.08857
2.10759
2.12601
2.14403
2.16181
2.17944
2.197
2.21461
2.23222
2.24997
2.2678
2.28581
2.304
2.32241
2.3411
2.36006
2.37936
2.39898
2.41896
2.4393
2.46004
2.48127
2.50289
2.52506
2.5476
2.57073
2.594
2.61818
2.64194
2.66717
2.69109
2.71753
2.74065
2.76926
2.78858
2.82454
1.98377
2.01594
2.03792
2.06082
2.08051
2.09968
2.11822
2.13634
2.15421
2.1719
2.18952
2.20717
2.22481
2.24257
2.26042
2.27844
2.29663
2.31506
2.33375
2.35273
2.37205
2.39169
2.41169
2.43206
2.45283
2.47411
2.49578
2.518
2.5406
2.5638
2.58715
2.61143
2.63531
2.66069
2.68477
2.71142
2.73473
2.76356
2.78304
2.81917
1.97413
2.00713
2.02946
2.05259
2.07244
2.09178
2.11043
2.12866
2.14661
2.16436
2.18203
2.19973
2.21739
2.23517
2.25304
2.27105
2.28925
2.30769
2.32639
2.34538
2.36471
2.38437
2.40439
2.4248
2.44559
2.46692
2.48863
2.5109
2.53356
2.55684
2.58026
2.60465
2.62866
2.65419
2.67845
2.70532
2.72882
2.75789
2.77755
2.81385
1.96458
1.99838
2.02104
2.04437
2.06439
2.08389
2.10265
2.12097
2.13902
2.15683
2.17456
2.19228
2.20998
2.22777
2.24564
2.26366
2.28186
2.3003
2.319
2.33801
2.35735
2.37703
2.39706
2.4175
2.43833
2.45969
2.48146
2.50377
2.52649
2.54984
2.57335
2.59784
2.62198
2.64768
2.67213
2.69921
2.72294
2.75224
2.7721
2.80859
1.95511
1.98969
2.01268
2.03618
2.05635
2.07601
2.09488
2.11331
2.13144
2.14931
2.1671
2.18485
2.20257
2.22036
2.23825
2.25626
2.27446
2.2929
2.3116
2.33062
2.34997
2.36966
2.38972
2.41018
2.43104
2.45244
2.47426
2.49661
2.51939
2.54281
2.56641
2.59101
2.61529
2.64115
2.66579
2.69311
2.71706
2.74663
2.7667
2.80338
1.94575
1.98107
2.00437
2.02802
2.04834
2.06815
2.08713
2.10566
2.12388
2.14181
2.15965
2.17743
2.19517
2.21297
2.23085
2.24886
2.26705
2.28549
2.30419
2.32321
2.34258
2.36228
2.38235
2.40284
2.42373
2.44516
2.46702
2.48942
2.51226
2.53575
2.55944
2.58414
2.60857
2.6346
2.65943
2.68701
2.71121
2.74105
2.76135
2.79824
1.93652
1.97252
1.99611
2.01989
2.04036
2.06031
2.07941
2.09804
2.11635
2.13433
2.15223
2.17002
2.18778
2.20558
2.22345
2.24147
2.25964
2.27807
2.29677
2.3158
2.33517
2.35487
2.37496
2.39547
2.41639
2.43785
2.45976
2.4822
2.5051
2.52866
2.55244
2.57725
2.60182
2.62803
2.65306
2.6809
2.70536
2.7355
2.75606
2.79317
1.92742
1.96406
1.9879
2.0118
2.03241
2.05251
2.07173
2.09046
2.10885
2.12688
2.14483
2.16263
2.1804
2.1982
2.21607
2.23407
2.25223
2.27066
2.28934
2.30837
2.32775
2.34745
2.36756
2.38809
2.40904
2.43052
2.45247
2.47495
2.49791
2.52154
2.54541
2.57032
2.59504
2.62144
2.64667
2.67478
2.69952
2.72999
2.75082
2.78817
1.91849
1.95567
1.97976
2.00374
2.02452
2.04477
2.06409
2.08292
2.10139
2.11947
2.13746
2.15527
2.17305
2.19084
2.20869
2.22669
2.24483
2.26324
2.28192
2.30094
2.32032
2.34002
2.36014
2.38068
2.40166
2.42316
2.44516
2.46768
2.49069
2.51439
2.53835
2.56337
2.58823
2.61481
2.64026
2.66864
2.69369
2.72452
2.74564
2.78326
1.90974
1.94736
1.97166
1.99574
2.01669
2.03708
2.05651
2.07545
2.09399
2.1121
2.13012
2.14793
2.16571
2.1835
2.20134
2.21931
2.23744
2.25584
2.2745
2.29351
2.31288
2.33258
2.35271
2.37326
2.39426
2.41578
2.43781
2.46038
2.48344
2.5072
2.53125
2.55639
2.58139
2.60816
2.63383
2.66249
2.68787
2.71907
2.74054
2.77843
1.90118
1.93912
1.96361
1.98777
2.00895
2.02946
2.04899
2.06803
2.08663
2.10478
2.12282
2.14064
2.15841
2.17619
2.194
2.21196
2.23007
2.24844
2.26709
2.28608
2.30544
2.32514
2.34527
2.36582
2.38684
2.40838
2.43044
2.45305
2.47615
2.49999
2.52412
2.54937
2.57451
2.60147
2.62736
2.65632
2.68204
2.71366
2.7355
2.77371
1.89284
1.93094
1.9556
1.97986
2.00132
2.02193
2.04156
2.06068
2.07934
2.09751
2.11557
2.13338
2.15113
2.1689
2.18669
2.20462
2.22271
2.24105
2.25969
2.27866
2.298
2.31768
2.33781
2.35837
2.3794
2.40096
2.42304
2.44569
2.46884
2.49274
2.51696
2.54232
2.5676
2.59474
2.62086
2.65012
2.67622
2.70828
2.73056
2.76911
1.88473
1.92282
1.94764
1.97201
1.9938
2.0145
2.03422
2.05342
2.07211
2.09031
2.10836
2.12617
2.1439
2.16165
2.17941
2.19731
2.21537
2.23369
2.25229
2.27124
2.29056
2.31023
2.33035
2.35091
2.37194
2.39352
2.41561
2.43831
2.46149
2.48546
2.50976
2.53523
2.56065
2.58797
2.61433
2.6439
2.67038
2.70293
2.7257
2.76465
1.87686
1.91473
1.93974
1.96423
1.98639
2.00717
2.02698
2.04624
2.06496
2.08317
2.10122
2.11901
2.13672
2.15443
2.17217
2.19002
2.20806
2.22634
2.24491
2.26383
2.28312
2.30277
2.32287
2.34343
2.36447
2.38606
2.40816
2.4309
2.45412
2.47815
2.50253
2.5281
2.55366
2.58116
2.60775
2.63763
2.66453
2.6976
2.72094
2.76034
1.86924
1.90668
1.93191
1.95656
1.97911
1.99995
2.01985
2.03916
2.0579
2.07611
2.09415
2.11191
2.12959
2.14727
2.16497
2.18277
2.20077
2.21901
2.23754
2.25644
2.27568
2.29532
2.3154
2.33595
2.35698
2.37858
2.40069
2.42346
2.44671
2.4708
2.49526
2.52094
2.54662
2.5743
2.60113
2.63132
2.65865
2.69228
2.71628
2.75622
1.86189
1.8987
1.92422
1.94905
1.97178
1.99287
2.01286
2.0322
2.05095
2.06915
2.08716
2.10489
2.12253
2.14016
2.15782
2.17557
2.19353
2.21172
2.2302
2.24906
2.26826
2.28787
2.30792
2.32846
2.34948
2.37109
2.3932
2.416
2.43928
2.46342
2.48796
2.51373
2.53955
2.56739
2.59445
2.62496
2.65274
2.68697
2.71174
2.75231
1.85485
1.89089
1.91676
1.94179
1.96467
1.98598
2.00604
2.0254
2.04413
2.06232
2.08029
2.09797
2.11557
2.13313
2.15074
2.16843
2.18633
2.20447
2.22289
2.24171
2.26086
2.28043
2.30045
2.32098
2.34198
2.36359
2.3857
2.40852
2.43183
2.45602
2.48062
2.50648
2.53242
2.56043
2.58772
2.61854
2.64679
2.68165
2.70731
2.74866
1.8481
1.88307
1.90933
1.9346
1.95777
1.97913
1.99924
2.0186
2.0373
2.05547
2.07338
2.09101
2.10855
2.12604
2.14359
2.16122
2.17907
2.19715
2.21551
2.23427
2.25338
2.27291
2.2929
2.3134
2.33439
2.35599
2.37811
2.40094
2.42428
2.44852
2.47319
2.49914
2.5252
2.55336
2.58088
2.61201
2.64075
2.67628
2.703
2.74531
1.84124
1.87473
1.90142
1.92697
1.95046
1.97193
1.9921
2.01146
2.03013
2.0483
2.06616
2.08374
2.10124
2.11868
2.13617
2.15376
2.17155
2.18958
2.2079
2.22661
2.24568
2.26518
2.28514
2.30563
2.32662
2.34821
2.37034
2.39319
2.41657
2.44085
2.46559
2.49164
2.51783
2.54615
2.5739
2.60533
2.63458
2.67082
2.69878
2.74231
1.83499
1.86702
1.89401
1.91965
1.94316
1.96485
1.98509
2.00446
2.02311
2.04128
2.0591
2.07666
2.09411
2.11151
2.12895
2.1465
2.16424
2.18223
2.20051
2.21917
2.2382
2.25767
2.27761
2.29808
2.31906
2.34064
2.36278
2.38563
2.40904
2.43335
2.45815
2.48426
2.51057
2.53901
2.56698
2.59864
2.62839
2.66527
2.69462
2.73961
1.81882
1.85035
1.87769
1.9032
1.92655
1.94801
1.96806
1.98724
2.00574
2.02376
2.04137
2.05875
2.07598
2.09317
2.1104
2.12776
2.14529
2.1631
2.18119
2.19965
2.21853
2.23783
2.25763
2.27796
2.29885
2.32032
2.34241
2.36519
2.38861
2.41293
2.43782
2.46402
2.49054
2.51918
2.5476
2.57971
2.6106
2.64894
2.68219
2.7317
1.78399
1.81524
1.84191
1.86709
1.89055
1.91188
1.93185
1.95095
1.96937
1.9873
2.00484
2.02216
2.03934
2.05648
2.07369
2.09101
2.10854
2.12633
2.14444
2.16292
2.1818
2.20115
2.22099
2.24137
2.26231
2.28386
2.30604
2.32894
2.3525
2.37697
2.40207
2.42848
2.4553
2.48428
2.51319
2.54594
2.57788
2.61781
2.65377
2.70613
1.74936
1.77969
1.80581
1.8307
1.85396
1.87512
1.89495
1.91395
1.93229
1.95015
1.96764
1.98489
2.00203
2.01914
2.03631
2.05362
2.07115
2.08894
2.10707
2.12558
2.14449
2.16389
2.18379
2.20423
2.22525
2.2469
2.2692
2.29222
2.31594
2.34058
2.36589
2.39254
2.41965
2.44899
2.47834
2.51167
2.5444
2.58527
2.62233
2.67577
1.71436
1.74378
1.76926
1.7937
1.81672
1.83771
1.85736
1.87624
1.89448
1.91223
1.92964
1.94684
1.96392
1.98098
1.99812
2.01542
2.03293
2.05073
2.06887
2.08739
2.10635
2.1258
2.14576
2.16627
2.18739
2.20915
2.23157
2.25473
2.27862
2.30345
2.32898
2.35588
2.3833
2.41297
2.44274
2.4765
2.50978
2.55109
2.58857
2.64225
1.67901
1.70748
1.73229
1.75627
1.77898
1.79973
1.81918
1.8379
1.856
1.87364
1.89098
1.90811
1.92513
1.94216
1.95928
1.97656
1.99408
2.01188
2.03004
2.0486
2.06761
2.08711
2.10714
2.12775
2.14896
2.17083
2.19339
2.2167
2.24076
2.26577
2.29153
2.31865
2.34635
2.37628
2.40639
2.44042
2.47402
2.51543
2.55292
2.60648
1.64312
1.67068
1.69477
1.71824
1.74062
1.76113
1.78037
1.7989
1.81687
1.8344
1.85164
1.86869
1.88567
1.90266
1.91976
1.93704
1.95456
1.97238
1.99057
2.00917
2.02824
2.04781
2.06792
2.08862
2.10995
2.13194
2.15462
2.17808
2.20231
2.2275
2.25345
2.28078
2.3087
2.33885
2.36918
2.40338
2.4371
2.47844
2.51573
2.56903
1.60656
1.63327
1.65664
1.6796
1.70165
1.72191
1.74092
1.75926
1.77707
1.79448
1.81162
1.82859
1.84552
1.86248
1.87956
1.89683
1.91436
1.93221
1.95043
1.96909
1.98822
2.00786
2.02806
2.04886
2.07029
2.0924
2.11522
2.13883
2.16321
2.18856
2.21469
2.2422
2.2703
2.30061
2.3311
2.36537
2.39912
2.44028
2.47725
2.53023
1.56924
1.59516
1.61785
1.64029
1.66201
1.68201
1.70079
1.71893
1.73658
1.75385
1.77088
1.78778
1.80465
1.82157
1.83863
1.85589
1.87344
1.89132
1.90958
1.92829
1.94749
1.96721
1.9875
2.0084
2.02994
2.05217
2.07512
2.09886
2.12339
2.14889
2.17518
2.20283
2.23108
2.26151
2.2921
2.3264
2.36009
2.40103
2.43763
2.49025
1.53111
1.5563
1.57833
1.60026
1.62166
1.6414
1.65994
1.67787
1.69536
1.71249
1.72941
1.74622
1.76303
1.77991
1.79694
1.8142
1.83176
1.84967
1.86798
1.88674
1.90601
1.92581
1.94618
1.96718
1.98883
2.01117
2.03425
2.05812
2.08278
2.10842
2.13484
2.16262
2.19099
2.22151
2.25217
2.28646
2.32006
2.36075
2.39694
2.44923
1.49212
1.51663
1.53803
1.55947
1.58055
1.60004
1.61835
1.63607
1.65338
1.67037
1.68717
1.7039
1.72063
1.73746
1.75447
1.77173
1.78929
1.80722
1.82558
1.8444
1.86372
1.8836
1.90406
1.92515
1.9469
1.96936
1.99255
2.01655
2.04133
2.0671
2.09364
2.12153
2.15
2.18059
2.21128
2.24555
2.27904
2.31948
2.35526
2.40725
1.45223
1.47612
1.49693
1.51789
1.53865
1.55791
1.57597
1.59349
1.61062
1.62747
1.64415
1.66077
1.67743
1.6942
1.71118
1.72842
1.74599
1.76395
1.78234
1.8012
1.82059
1.84054
1.86109
1.88227
1.90412
1.92668
1.94998
1.97409
1.99899
2.02487
2.05152
2.07951
2.10806
2.13871
2.16943
2.20366
2.23703
2.27724
2.31263
2.36434
1.41142
1.43473
1.45498
1.47548
1.49593
1.51495
1.53279
1.5501
1.56706
1.58375
1.6003
1.61682
1.63339
1.6501
1.66704
1.68426
1.70183
1.7198
1.73822
1.75713
1.77657
1.79659
1.81721
1.83847
1.86042
1.88308
1.90648
1.93069
1.9557
1.98168
2.00843
2.03651
2.06514
2.09585
2.12658
2.16079
2.19404
2.23404
2.26906
2.32054
1.36969
1.39244
1.41217
1.43221
1.45236
1.47116
1.48877
1.50588
1.52266
1.53919
1.55561
1.57201
1.58849
1.60513
1.62202
1.6392
1.65676
1.67473
1.69317
1.71212
1.73161
1.75168
1.77238
1.79372
1.81575
1.8385
1.862
1.88631
1.91142
1.93749
1.96434
1.9925
2.0212
2.05196
2.08271
2.1169