/*--------------------------------*- C++ -*----------------------------------*\
  =========                 |
  \\      /  F ield         | OpenFOAM: The Open Source CFD Toolbox
   \\    /   O peration     | Website:  https://openfoam.org
    \\  /    A nd           | Version:  7
     \\/     M anipulation  |
\*---------------------------------------------------------------------------*/
FoamFile
{
    version     2.0;
    format      ascii;
    class       surfaceScalarField;
    location    "1.3";
    object      phi;
}
// * * * * * * * * * * * * * * * * * * * * * * * * * * * * * * * * * * * * * //

dimensions      [0 3 -1 0 0 0 0];

internalField   nonuniform List<scalar> 
63520
(
-1.47302e-05
0.00162758
-0.00161285
-4.28498e-05
0.0038206
-0.00379248
-7.62525e-05
0.00516341
-0.00513001
-0.000105458
0.00579854
-0.00576934
-0.000120879
0.00588288
-0.00586746
-0.000114068
0.00556152
-0.00556833
-7.82772e-05
0.00495764
-0.00499343
-8.71709e-06
0.00417123
-0.00424079
9.73317e-05
0.00328156
-0.00338761
0.00024064
0.00235017
-0.00249348
0.000420246
0.00142422
-0.00160383
0.00063377
0.000538929
-0.000752453
0.00087773
-0.000280429
3.64682e-05
0.00114788
-0.00101698
0.00074683
0.0014396
-0.00166092
0.0013692
0.00174818
-0.00220831
0.00189972
0.0020691
-0.00265991
0.00233899
0.00239818
-0.00302007
0.00269099
0.00273178
-0.00329566
0.00296205
0.00306684
-0.00349514
0.00316008
0.00340084
-0.00362775
0.00329375
0.00373184
-0.00370295
0.00337194
0.00405842
-0.00372986
0.00340328
0.00437958
-0.00371702
0.00339586
0.00469469
-0.00367214
0.00335703
0.00500341
-0.00360201
0.0032933
0.00530563
-0.00351249
0.00321027
0.0056014
-0.0034085
0.00311272
0.0058909
-0.00329413
0.00300464
0.00617436
-0.00317273
0.00288927
0.00645207
-0.00304697
0.00276925
0.00672435
-0.00291895
0.00264667
0.0069915
-0.00279031
0.00252316
0.00725385
-0.00266231
0.00239996
0.00751166
-0.00253585
0.00227804
0.00776519
-0.00241165
0.00215812
0.00801468
-0.00229022
0.00204073
0.00826027
-0.00217209
0.0019265
0.00850203
-0.00205687
0.00181511
-0.0019419
0.00873981
0.00170412
-1.04814e-05
0.00163806
-3.02208e-05
0.00384034
-5.24127e-05
0.0051856
-6.87732e-05
0.0058149
-7.06563e-05
0.00588477
-5.01802e-05
0.00554105
-9.48793e-07
0.0049084
8.15595e-05
0.00408873
0.000199858
0.00316326
0.000354548
0.00219548
0.00054456
0.00123421
0.000767398
0.000316089
0.00101947
-0.000532504
0.00129647
-0.00129398
0.00159371
-0.00195816
0.00190647
-0.00252107
0.00223024
-0.00298368
0.00256094
-0.00335077
0.00289502
-0.00362975
0.00322953
-0.00382965
0.00356213
-0.00396034
0.00389101
-0.00403183
0.0042149
-0.00405375
0.00453296
-0.00403508
0.00484471
-0.00398388
0.00514992
-0.00390723
0.00544859
-0.00381116
0.00574086
-0.00370076
0.00602696
-0.00358024
0.00630721
-0.00345298
0.00658192
-0.00332168
0.00685145
-0.00318848
0.00711614
-0.003055
0.00737629
-0.00292246
0.0076322
-0.00279177
0.00788414
-0.00266359
0.00813232
-0.00253839
0.00837688
-0.00241666
0.0086179
-0.00229789
-0.00217928
0.00885528
-6.47506e-06
0.00164454
-1.78365e-05
0.0038517
-2.878e-05
0.00519655
-3.22175e-05
0.00581834
-2.03265e-05
0.00587287
1.41843e-05
0.00550653
7.727e-05
0.00484532
0.00017313
0.00399287
0.000304094
0.0030323
0.000470599
0.00202897
0.000671407
0.0010334
0.000903867
8.36285e-05
0.00116427
-0.000792904
0.00144818
-0.0015779
0.00175088
-0.00226086
0.00206763
-0.00283782
0.00239398
-0.00331003
0.00272592
-0.00368271
0.00306005
-0.00396387
0.00339355
-0.00416316
0.00372424
-0.00429104
0.00405052
-0.0043581
0.00437127
-0.0043745
0.00468582
-0.00434963
0.00499381
-0.00429187
0.00529515
-0.00420857
0.00558995
-0.00410595
0.00587843
-0.00398924
0.0061609
-0.00386271
0.00643772
-0.0037298
0.00670928
-0.00359323
0.00697593
-0.00345513
0.00723802
-0.0033171
0.0074959
-0.00318033
0.00774985
-0.00304572
0.00800012
-0.00291386
0.00824695
-0.00278521
0.00849048
-0.00266019
0.00873076
-0.00253817
-0.00241623
0.00896771
-2.61084e-06
0.00164715
-5.7286e-06
0.00385482
-5.44995e-06
0.00519627
4.19128e-06
0.0058087
3.01104e-05
0.00584695
7.89861e-05
0.00545766
0.000156326
0.00476798
0.000266001
0.00388319
0.000410095
0.00288821
0.000588828
0.00185024
0.000800763
0.000821466
0.00104307
-0.000158677
0.00131188
-0.00106171
0.00160267
-0.00186869
0.00191065
-0.00256885
0.00223111
-0.00315828
0.00255966
-0.00363857
0.00289241
-0.00401547
0.0032261
-0.00429756
0.00355809
-0.00449515
0.00388638
-0.00461933
0.00420957
-0.00468129
0.00452673
-0.00469166
0.00483733
-0.00466023
0.00514118
-0.00459572
0.00543832
-0.00450571
0.00572895
-0.00439658
0.00601339
-0.00427368
0.00629202
-0.00414134
0.00656524
-0.00400302
0.00683347
-0.00386147
0.00709711
-0.00371876
0.00735652
-0.00357651
0.00761204
-0.00343585
0.00786396
-0.00329764
0.00811254
-0.00316244
0.00835799
-0.00303066
0.00860046
-0.00290265
0.00884001
-0.00277772
-0.0026528
0.00907657
1.02018e-06
0.00164613
6.00123e-06
0.00384983
1.74175e-05
0.00518485
4.01637e-05
0.00578595
8.02942e-05
0.00580682
0.000143824
0.00539413
0.00023579
0.00467601
0.00035971
0.00375927
0.000517348
0.00273057
0.000708679
0.00165891
0.000932026
0.000598118
0.00118435
-0.000411
0.00146161
-0.00133897
0.00175918
-0.00216626
0.00207224
-0.0028819
0.00239608
-0.00348213
0.00272643
-0.00396892
0.00305952
-0.00434857
0.00339227
-0.00463031
0.00372225
-0.00482512
0.00404766
-0.00494474
0.00436729
-0.00500092
0.00468041
-0.00500479
0.00498668
-0.0049665
0.00528604
-0.00489509
0.00557866
-0.00479833
0.00586486
-0.00468278
0.00614503
-0.00455385
0.00641962
-0.00441592
0.00668908
-0.00427248
0.00695386
-0.00412624
0.00721437
-0.00397928
0.007471
-0.00383314
0.00772408
-0.00368894
0.00797392
-0.00354748
0.00822076
-0.00340929
0.00846482
-0.00327472
0.00870623
-0.00314406
0.00894505
-0.00301655
-0.00288899
0.00918124
4.46176e-06
0.00164167
1.7306e-05
0.00383699
3.9741e-05
0.00516242
7.55919e-05
0.0057501
0.000130073
0.00575234
0.000208533
0.00531567
0.000315481
0.00456906
0.000454019
0.00362073
0.000625572
0.00255901
0.000829809
0.00145467
0.00106477
0.000363154
0.00132718
-0.000673414
0.00161284
-0.00162463
0.00191702
-0.00247044
0.00223485
-0.00319974
0.00256171
-0.00380899
0.0028934
-0.00430062
0.00322636
-0.00468153
0.00355767
-0.00496162
0.00388513
-0.00515257
0.00420717
-0.00526679
0.0045228
-0.00531656
0.00483148
-0.00531347
0.00513305
-0.00526806
0.0054276
-0.00518964
0.00571543
-0.00508616
0.00599696
-0.00496431
0.00627266
-0.00482955
0.00654304
-0.0046863
0.0068086
-0.00453804
0.00706981
-0.00438745
0.0073271
-0.00423657
0.00758087
-0.0040869
0.00783146
-0.00393952
0.00807916
-0.00379518
0.00832423
-0.00365436
0.00856686
-0.00351735
0.00880718
-0.00338438
0.00904527
-0.00325463
-0.00312482
0.0092811
7.70945e-06
0.00163396
2.8165e-05
0.00381653
6.14333e-05
0.00512915
0.000110349
0.00570118
0.000179286
0.0056834
0.000272874
0.00522208
0.000395078
0.00444686
0.000548549
0.00346726
0.000734307
0.00237326
0.000951666
0.00123731
0.00119836
0.00011646
0.00147087
-0.000945923
0.0017648
-0.00191857
0.00207534
-0.00278098
0.00239763
-0.00352202
0.00272709
-0.00413845
0.00305968
-0.00463321
0.00339201
-0.00501386
0.00372138
-0.005291
0.00404584
-0.00547703
0.00436407
-0.00558501
0.00467528
-0.00562777
0.00497915
-0.00561733
0.00527568
-0.0055646
0.00556514
-0.0054791
0.00584795
-0.00536897
0.0061246
-0.00524097
0.00639567
-0.00510062
0.0066617
-0.00495233
0.00692324
-0.00479958
0.00718078
-0.00464499
0.00743477
-0.00449057
0.00768561
-0.00433774
0.00793364
-0.00418756
0.00817916
-0.0040407
0.00842241
-0.00389761
0.00866357
-0.00375852
0.00890279
-0.0036236
0.00914011
-0.00349196
-0.00336026
0.00937555
1.07426e-05
0.00162322
3.85349e-05
0.00378874
8.24358e-05
0.00508524
0.000144324
0.0056393
0.000227738
0.00559999
0.000336595
0.00511322
0.00047427
0.00430918
0.000642905
0.00329862
0.000843075
0.00217309
0.0010737
0.00100669
0.00133217
-0.000142012
0.0016147
-0.00122846
0.00191674
-0.0022206
0.00223337
-0.00309761
0.00255974
-0.00384839
0.00289138
-0.00447009
0.0032244
-0.00496623
0.0035556
-0.00534506
0.00388257
-0.00561796
0.00420358
-0.00579804
0.00451756
-0.005899
0.00482396
-0.00593418
0.00512268
-0.00591605
0.0054139
-0.00585582
0.00569803
-0.00576323
0.00597559
-0.00564654
0.00624721
-0.00551258
0.0065135
-0.00536691
0.00677507
-0.0052139
0.00703249
-0.005057
0.00728628
-0.00489878
0.0075369
-0.00474118
0.00778475
-0.00458559
0.00803017
-0.00443297
0.00827345
-0.00428398
0.00851482
-0.00413898
0.00875448
-0.00399817
0.00899254
-0.00386166
0.00922907
-0.00372849
-0.00359528
0.00946409
1.3564e-05
0.00160965
4.84038e-05
0.0037539
0.000102688
0.00503096
0.000177405
0.00556458
0.000275266
0.00550213
0.000399466
0.00498902
0.000552746
0.0041559
0.000736699
0.00311467
0.00095141
0.00195838
0.00119536
0.000762743
0.00146558
-0.000412235
0.00175802
-0.0015209
0.00206793
-0.00253051
0.00239033
-0.00342001
0.0027204
-0.00417846
0.00305377
-0.00480346
0.00338674
-0.0052992
0.00371635
-0.00567467
0.00404044
-0.00594204
0.00435756
-0.00611517
0.0046669
-0.00620834
0.00496816
-0.00623544
0.00526143
-0.00620932
0.00554709
-0.00614147
0.00582567
-0.00604181
0.00609784
-0.0059187
0.00636428
-0.00577902
0.00662568
-0.00562831
0.00688271
-0.00547093
0.00713595
-0.00531023
0.00738592
-0.00514876
0.00763311
-0.00498837
0.00787791
-0.00483038
0.00812065
-0.00467572
0.00836163
-0.00452496
0.00860107
-0.00437843
0.00883915
-0.00423625
0.009076
-0.0040985
0.00931167
-0.00396417
-0.00382983
0.00954622
1.61748e-05
0.00159348
5.77566e-05
0.00371232
0.000122145
0.00496657
0.000209499
0.00547722
0.00032172
0.00538991
0.000461264
0.00484948
0.000630214
0.00398695
0.000829569
0.00291531
0.00105887
0.00172907
0.00131614
0.000505478
0.00159802
-0.000694122
0.00190018
-0.00182306
0.00221769
-0.00284803
0.00254551
-0.00374783
0.00287886
-0.00451181
0.00321351
-0.00513812
0.00354596
-0.00563165
0.0038735
-0.00600222
0.00419427
-0.00626281
0.0045071
-0.006428
0.00481144
-0.00651269
0.00510724
-0.00653124
0.00539481
-0.00649689
0.00567469
-0.00642135
0.00594757
-0.00631469
0.00621421
-0.00618534
0.00647538
-0.0060402
0.00673183
-0.00588476
0.00698424
-0.00572334
0.00723324
-0.00555923
0.00747935
-0.00539488
0.00772306
-0.00523207
0.00796475
-0.00507207
0.00820476
-0.00491573
0.00844337
-0.00476357
0.0086808
-0.00461586
0.00891723
-0.00447268
0.00915278
-0.00433405
0.00938751
-0.0041989
-0.00406382
0.0096215
1.85784e-05
0.0015749
6.65863e-05
0.00366431
0.000140774
0.00489238
0.00024053
0.00537747
0.000366967
0.00526347
0.000521801
0.00469464
0.000706416
0.00380234
0.000921179
0.00270055
0.00116506
0.00148519
0.00143557
0.000234969
0.00172896
-0.00098752
0.0020406
-0.0021347
0.0023654
-0.00317282
0.00269825
-0.00408068
0.00303444
-0.00484801
0.00336989
-0.00547357
0.00370133
-0.00596309
0.00402635
-0.00632724
0.00434337
-0.00657983
0.00465153
-0.00673615
0.00495056
-0.00681171
0.00524063
-0.00682132
0.00552229
-0.00677854
0.00579622
-0.00669529
0.00606327
-0.00658174
0.0063243
-0.00644636
0.00658014
-0.00629604
0.00683159
-0.00613621
0.00707936
-0.00597111
0.00732408
-0.00580395
0.0075663
-0.00563709
0.00780647
-0.00547225
0.00804501
-0.00531061
0.00828222
-0.00515295
0.00851839
-0.00499974
0.00875373
-0.0048512
0.0089884
-0.00470736
0.00922254
-0.00456818
0.00945621
-0.00443258
-0.00429713
0.00968952
2.07809e-05
0.00155412
7.48941e-05
0.0036102
0.000158553
0.00480873
0.00027044
0.00526558
0.000410904
0.00512301
0.000580911
0.00452463
0.000781123
0.00360212
0.00101123
0.00247044
0.0012696
0.00122683
0.00155321
-4.86438e-05
0.00185791
-0.00129222
0.00217874
-0.00245553
0.00251045
-0.00350453
0.0028479
-0.00441813
0.00318646
-0.00518657
0.00352224
-0.00580934
0.0038522
-0.00629306
0.00417426
-0.0066493
0.00448714
-0.00689271
0.00479028
-0.0070393
0.00508369
-0.00710513
0.00536782
-0.00710545
0.00564339
-0.00705411
0.00591126
-0.00696317
0.00617241
-0.00684288
0.00642777
-0.00670172
0.00667825
-0.00654652
0.00692468
-0.00638264
0.0071678
-0.00621423
0.00740824
-0.00604438
0.00764654
-0.00587539
0.00788316
-0.00570887
0.00811849
-0.00554594
0.00835284
-0.0053873
0.00858648
-0.00523338
0.00881962
-0.00508434
0.00905241
-0.00494016
0.009285
-0.00480077
0.00951746
-0.00466504
-0.00452959
0.00974992
2.27919e-05
0.00153133
8.26888e-05
0.0035503
0.000175475
0.00471594
0.000299193
0.00514186
0.000453454
0.00496875
0.000638465
0.00433962
0.000854144
0.00338644
0.00109948
0.0022251
0.00137218
0.00095412
0.0016687
-0.000345159
0.00198442
-0.00160794
0.00231409
-0.00278521
0.0026523
-0.00384274
0.00299389
-0.00475972
0.00333433
-0.00552701
0.00366993
-0.00614494
0.00399795
-0.00662108
0.00431662
-0.00696796
0.00462498
-0.00720107
0.00492279
-0.00733711
0.00521035
-0.00739269
0.00548835
-0.00738345
0.0057577
-0.00732346
0.00601944
-0.00722491
0.00627463
-0.00709808
0.00652432
-0.00695141
0.00676945
-0.00679165
0.00701089
-0.00662408
0.00724937
-0.00645271
0.00748553
-0.00628055
0.00771991
-0.00610977
0.00795295
-0.00594192
0.00818504
-0.00577802
0.00841646
-0.00561873
0.00864748
-0.0054644
0.0088783
-0.00531515
0.00910908
-0.00517094
0.00933995
-0.00503164
0.00957101
-0.00489609
-0.004761
0.00980242
2.46224e-05
0.0015067
8.99856e-05
0.00348494
0.000191547
0.00461438
0.000326774
0.00500663
0.000494565
0.00480095
0.000694368
0.00413982
0.000925329
0.00315548
0.0011857
0.00196473
0.00147253
0.00066729
0.00178168
-0.000654309
0.00210809
-0.00193435
0.00244621
-0.00312333
0.00279046
-0.00418699
0.00313569
-0.00510495
0.00347749
-0.00586881
0.00381241
-0.00647986
0.00413802
-0.00694669
0.00445288
-0.00728282
0.00475637
-0.00750457
0.00504858
-0.00762932
0.00533009
-0.0076742
0.00560182
-0.00765518
0.00586487
-0.00758651
0.00612044
-0.00748047
0.00636969
-0.00734733
0.00661373
-0.00719545
0.00685355
-0.00703147
0.00709003
-0.00686056
0.00732392
-0.00668659
0.00755584
-0.00651246
0.00778631
-0.00634025
0.00801578
-0.00617138
0.00824458
-0.00600682
0.00847301
-0.00584716
0.00870132
-0.0056927
0.00892968
-0.00554352
0.00915828
-0.00539954
0.00938724
-0.0052606
0.00961668
-0.00512553
-0.00499112
0.0098468
2.62854e-05
0.00148042
9.68072e-05
0.00341442
0.000206791
0.00450439
0.00035319
0.00486023
0.000534218
0.00461993
0.000748556
0.00392548
0.000994567
0.00290947
0.00126974
0.00168956
0.00157042
0.000366611
0.00189187
-0.000975764
0.00222858
-0.00227106
0.00257467
-0.00346942
0.00292445
-0.00453676
0.00327278
-0.00545327
0.0036154
-0.00621144
0.00394914
-0.0068136
0.00427189
-0.00726944
0.00458255
-0.00759348
0.00488086
-0.00780288
0.00516723
-0.00791569
0.00544252
-0.00794949
0.00570788
-0.00792054
0.00596461
-0.00784324
0.00621401
-0.00772988
0.00645736
-0.00759068
0.00669582
-0.00743391
0.00693041
-0.00726606
0.00716202
-0.00709216
0.00739137
-0.00691595
0.0076191
-0.00674019
0.0078457
-0.00656685
0.00807159
-0.00639726
0.00829708
-0.00623232
0.00852247
-0.00607255
0.00874796
-0.00591819
0.00897374
-0.00576931
0.00919999
-0.00562578
0.00942682
-0.00548744
0.0096544
-0.0053531
-0.00521968
0.00988295
2.77959e-05
0.00145262
0.000103182
0.00333903
0.000221242
0.00438633
0.000378469
0.00470301
0.000572417
0.00442598
0.000801002
0.00369689
0.00106178
0.00264869
0.00135145
0.00139989
0.00166564
5.24169e-05
0.00199901
-0.00130913
0.00234555
-0.0026176
0.00269911
-0.00382298
0.00305386
-0.00489151
0.00340471
-0.00580413
0.00374761
-0.00655433
0.00407965
-0.00714564
0.00439908
-0.00758887
0.00470518
-0.00789957
0.00499803
-0.00809574
0.00527836
-0.00819602
0.00554731
-0.00821844
0.00580626
-0.00817949
0.00605666
-0.00809364
0.00629996
-0.00797317
0.00653749
-0.00782822
0.00677047
-0.00766689
0.00699994
-0.00749553
0.00722676
-0.00731899
0.00745169
-0.00714087
0.0076753
-0.00696381
0.00789808
-0.00678963
0.0081204
-0.00661959
0.00834258
-0.0064545
0.00856487
-0.00629483
0.00878746
-0.00614078
0.00901053
-0.00599238
0.00923424
-0.00584949
0.00945874
-0.00571193
0.00968418
-0.00557855
-0.00544637
0.00991088
2.91703e-05
0.00142345
0.000109145
0.00325906
0.000234944
0.00426053
0.000402656
0.00453529
0.000609194
0.00421944
0.000851706
0.00345438
0.00112693
0.00237347
0.00143076
0.00109607
0.00175807
-0.000274895
0.00210288
-0.00165394
0.00245874
-0.00297346
0.00281919
-0.00418343
0.0031783
-0.00525063
0.00353108
-0.0061569
0.00387367
-0.00689693
0.00420351
-0.00747547
0.00451919
-0.00790456
0.00482038
-0.00820076
0.00510752
-0.00838288
0.00538166
-0.00847016
0.0056442
-0.00848099
0.00589673
-0.00843202
0.00614086
-0.00833777
0.00637813
-0.00821045
0.00660997
-0.00806005
0.0068376
-0.00789452
0.00706208
-0.00772
0.00728426
-0.00754117
0.00750487
-0.00736148
0.00772446
-0.0071834
0.00794349
-0.00700866
0.0081623
-0.0068384
0.00838117
-0.00667337
0.00860032
-0.00651398
0.00881993
-0.00636039
0.00904017
-0.00621261
0.00926118
-0.0060705
0.00948312
-0.00593387
0.00970617
-0.0058016
-0.00567091
0.00993071
3.04257e-05
0.00139303
0.000114734
0.00317475
0.000247955
0.00412731
0.000425811
0.00435744
0.000644599
0.00400065
0.000900695
0.00319828
0.00119
0.00208416
0.00150758
0.000778485
0.00184756
-0.000614867
0.0022033
-0.00200969
0.00256788
-0.00333804
0.00293459
-0.00455014
0.00329743
-0.00561346
0.00365149
-0.00651097
0.00399321
-0.00723864
0.00432033
-0.00780259
0.00463185
-0.00821608
0.00492781
-0.00849672
0.00520903
-0.0086641
0.00547686
-0.00873799
0.00573296
-0.00873709
0.0059791
-0.00867816
0.00621705
-0.00857572
0.00644844
-0.00844184
0.00667474
-0.00828635
0.00689718
-0.00811696
0.00711683
-0.00793965
0.00733453
-0.00775887
0.00755097
-0.00757791
0.00776667
-0.0073991
0.00798204
-0.00722403
0.0081974
-0.00705376
0.00841299
-0.00688896
0.00862899
-0.00672998
0.00884557
-0.00657698
0.00906287
-0.00642991
0.00928103
-0.00628866
0.00950021
-0.00615306
0.00972063
-0.00602202
-0.005893
0.00994272
3.158e-05
0.00136145
0.000119993
0.00308633
0.000260338
0.00398697
0.000448012
0.00416976
0.000678703
0.00376996
0.000948018
0.00292897
0.00125101
0.00178116
0.0015819
0.000447595
0.00193402
-0.000966985
0.00230011
-0.00237577
0.00267277
-0.0037107
0.00304505
-0.00492242
0.00341092
-0.00597933
0.00376563
-0.00686568
0.00410587
-0.00757889
0.00442978
-0.0081265
0.00473675
-0.00852305
0.0050272
-0.00878718
0.00530232
-0.00893922
0.00556377
-0.00899944
0.00581343
-0.00898675
0.00605327
-0.00891801
0.00628517
-0.00880761
0.00651084
-0.00866751
0.00673177
-0.00850728
0.00694923
-0.00833442
0.00716424
-0.00815466
0.00737764
-0.00797227
0.00759007
-0.00779034
0.00780202
-0.00761105
0.00801386
-0.00743586
0.00822586
-0.00726576
0.00843822
-0.00710132
0.0086511
-0.00694287
0.00886463
-0.00679051
0.00907892
-0.00664421
0.00929412
-0.00650385
0.00951038
-0.00636932
0.00972795
-0.0062396
-0.00611239
0.00994734
3.26505e-05
0.0013288
0.000124968
0.00299401
0.000272167
0.00383977
0.000469342
0.00397259
0.000711589
0.00352771
0.000993742
0.00264682
0.00131
0.00146491
0.0016537
0.000103895
0.00201738
-0.00133067
0.00239316
-0.00275155
0.0027732
-0.00409074
0.00315032
-0.00529955
0.00351851
-0.00634752
0.00387318
-0.00722035
0.00421137
-0.00791707
0.00453157
-0.00844671
0.00483362
-0.0088251
0.00511832
-0.00907188
0.00538721
-0.0092081
0.00564223
-0.00925445
0.0058855
-0.00923003
0.00611915
-0.00915166
0.00634516
-0.00903363
0.0065653
-0.00888765
0.00678109
-0.00872307
0.00699378
-0.00854711
0.00720438
-0.00836526
0.00741368
-0.00818158
0.0076223
-0.00799896
0.00783066
-0.00781942
0.00803911
-0.00764431
0.00824786
-0.00747451
0.00845709
-0.00731055
0.0086669
-0.00715268
0.0088774
-0.007001
0.00908867
-0.00685548
0.00930084
-0.00671602
0.00951407
-0.00658255
0.00972865
-0.00645417
-0.00632889
0.00994515
3.36544e-05
0.00129514
0.000129708
0.00289796
0.000283517
0.00368596
0.000489895
0.00376621
0.000743353
0.00327425
0.00103795
0.00235222
0.001367
0.00113586
0.00172296
-0.000252069
0.00209759
-0.0017053
0.00248235
-0.00313631
0.002869
-0.00447739
0.00325019
-0.00568074
0.00361994
-0.00671726
0.0039739
-0.00757432
0.00430944
-0.00825261
0.00462548
-0.00876275
0.00492225
-0.00912187
0.00520099
-0.00935061
0.00546354
-0.00947066
0.00571214
-0.00950305
0.00594911
-0.009467
0.00617672
-0.00937926
0.00639704
-0.00925394
0.00661188
-0.00910249
0.00682275
-0.00893395
0.00703091
-0.00875527
0.00723733
-0.00857169
0.00744277
-0.00838701
0.00764777
-0.00820396
0.00785275
-0.00802439
0.00805798
-0.00784954
0.00826364
-0.00768017
0.00846985
-0.00751676
0.00867669
-0.00735953
0.00888423
-0.00720854
0.00909251
-0.00706377
0.00930165
-0.00692516
0.00951182
-0.00679272
0.00972333
-0.00666568
-0.00654239
0.00993683
3.4608e-05
0.00126053
0.000134259
0.00279831
0.000294465
0.00352576
0.000509767
0.00355091
0.000774096
0.00300992
0.00108072
0.0020456
0.00142206
0.000794511
0.0017897
-0.000619705
0.00217458
-0.00209018
0.00256756
-0.00352929
0.00296002
-0.00486985
0.00334446
-0.00606518
0.003715
-0.0070878
0.00406755
-0.00792687
0.00439986
-0.00858492
0.00471129
-0.00907418
0.00500249
-0.00941308
0.00527507
-0.00962319
0.00553124
-0.00972682
0.00577345
-0.00974527
0.00600424
-0.00969779
0.00622599
-0.00960101
0.00644084
-0.00946879
0.00665061
-0.00931227
0.00685684
-0.00914017
0.00706073
-0.00895916
0.00726322
-0.00877418
0.00746503
-0.00858882
0.00766666
-0.00840559
0.00786846
-0.00822619
0.00807066
-0.00805174
0.00827341
-0.00788292
0.00847677
-0.00772012
0.00868078
-0.00756354
0.00888547
-0.00741323
0.00909087
-0.00726917
0.00929706
-0.00713135
0.00950421
-0.00699987
0.00971266
-0.00687413
-0.00675289
0.00992316
3.55279e-05
0.00122501
0.000138669
0.00269517
0.000305089
0.00335934
0.000529056
0.00332694
0.00080392
0.00273506
0.00112215
0.00172737
0.00147526
0.000441398
0.00185393
-0.000998373
0.00224832
-0.00248458
0.0026487
-0.00392968
0.00304611
-0.00526725
0.00343295
-0.00645203
0.00380349
-0.00745834
0.00415395
-0.00827733
0.00448247
-0.00891344
0.00478886
-0.00938056
0.00507421
-0.00969842
0.0053405
-0.00988949
0.00559025
-0.00997657
0.00582616
-0.00998118
0.00605092
-0.00992255
0.00626701
-0.00981711
0.00647663
-0.00967841
0.00668161
-0.00951725
0.00688345
-0.00934202
0.00708334
-0.00915905
0.00728218
-0.00897302
0.00748062
-0.00878726
0.00767912
-0.00860409
0.00787798
-0.00842505
0.00807738
-0.00825114
0.00827741
-0.00808295
0.00847812
-0.00792083
0.00867949
-0.00776491
0.0088815
-0.00761524
0.00908417
-0.00747184
0.00928755
-0.00733473
0.00949182
-0.00720413
0.00969734
-0.00707966
-0.00696049
0.00990495
3.64302e-05
0.00118858
0.000142983
0.00258862
0.000315462
0.00318686
0.000547858
0.00309454
0.000832925
0.00244999
0.00116231
0.00139798
0.00152663
7.70781e-05
0.00191565
-0.00138739
0.00231877
-0.0028877
0.00272569
-0.00433659
0.00312714
-0.0056687
0.00351552
-0.00684041
0.00388526
-0.00782808
0.00423293
-0.00862501
0.00455712
-0.00923763
0.00485808
-0.00968152
0.00513734
-0.00997768
0.00539723
-0.0101494
0.00564057
-0.0102199
0.00587029
-0.0102109
0.00608919
-0.0101415
0.00629986
-0.0100278
0.00650451
-0.00988305
0.00670497
-0.00971771
0.00690271
-0.00953976
0.00709889
-0.00935523
0.00729435
-0.00916848
0.00748969
-0.0089826
0.00768531
-0.00879972
0.00788148
-0.00862121
0.00807831
-0.00844797
0.00827587
-0.00828051
0.00847415
-0.0081191
0.00867309
-0.00796386
0.00887266
-0.00781481
0.00907282
-0.007672
0.00927362
-0.00753553
0.00947522
-0.00740574
0.00967802
-0.00728246
-0.00716543
0.00988296
3.73304e-05
0.00115125
0.000147244
0.0024787
0.000325655
0.00300845
0.000566261
0.00285394
0.000861202
0.00215505
0.0012013
0.00105788
0.00157623
-0.000297856
0.00197488
-0.00178604
0.00238588
-0.0032987
0.00279841
-0.00474913
0.00320299
-0.00607327
0.00359201
-0.00722943
0.00396015
-0.00819622
0.00430438
-0.00896923
0.00462372
-0.00955697
0.00491889
-0.0099767
0.00519184
-0.0102506
0.00544527
-0.0104028
0.00568225
-0.0104569
0.0059059
-0.0104345
0.00611915
-0.0103547
0.00632464
-0.0102333
0.00652459
-0.010083
0.00672081
-0.00991394
0.00691476
-0.00973371
0.00710751
-0.00954798
0.00729987
-0.00936084
0.00749238
-0.00917512
0.0076854
-0.00899274
0.00787913
-0.00881494
0.00807365
-0.0086425
0.00826899
-0.00847585
0.00846509
-0.0083152
0.00866187
-0.00816064
0.00885925
-0.00801219
0.00905717
-0.00786992
0.00925565
-0.00773401
0.00945488
-0.00760496
0.00965527
-0.00748286
-0.007368
0.00985785
3.82424e-05
0.001113
0.000151492
0.00236545
0.000335735
0.0028242
0.000584348
0.00260533
0.000888833
0.00185057
0.00123916
0.000707553
0.00162409
-0.000682781
0.00203159
-0.00219354
0.00244959
-0.0037167
0.0028668
-0.00516634
0.00327354
-0.00648001
0.0036623
-0.0076182
0.00402806
-0.00856198
0.00436819
-0.00930936
0.00468219
-0.00987097
0.00497125
-0.0102658
0.00523773
-0.0105171
0.00548466
-0.0106497
0.00571536
-0.0106876
0.00593309
-0.0106523
0.00614092
-0.0105625
0.00634148
-0.0104338
0.006537
-0.0102785
0.00672929
-0.0101062
0.00691972
-0.00992414
0.00710933
-0.0097376
0.00729888
-0.00955038
0.00748884
-0.00936508
0.00767952
-0.00918342
0.00787108
-0.0090065
0.00806356
-0.00883499
0.00825694
-0.00866923
0.00845113
-0.00850939
0.00864603
-0.00835553
0.0088415
-0.00820767
0.00903749
-0.00806591
0.00923399
-0.00793052
0.00943118
-0.00780215
0.00962952
-0.0076812
-0.00756859
0.00983011
3.91787e-05
0.00107382
0.000155761
0.00224887
0.000345758
0.00263421
0.000602186
0.0023489
0.000915884
0.00153687
0.00127596
0.000347478
0.00167022
-0.00107704
0.00208576
-0.00260908
0.00250984
-0.00414077
0.00293075
-0.00558725
0.00333868
-0.00688795
0.0037263
-0.00800581
0.00408889
-0.00892457
0.00442429
-0.00964476
0.0047325
-0.0101792
0.00501518
-0.0105484
0.00527505
-0.010777
0.00551548
-0.0108902
0.00573998
-0.0109121
0.00595199
-0.0108643
0.00615461
-0.0107652
0.00635051
-0.0106297
0.0065419
-0.0104699
0.00673053
-0.0102948
0.00691773
-0.0101113
0.0071045
-0.00992437
0.0072915
-0.00973739
0.00747918
-0.00955276
0.0076678
-0.00937203
0.00785746
-0.00919616
0.00804817
-0.0090257
0.00823986
-0.00886093
0.00843243
-0.00870196
0.00862573
-0.00854882
0.00881961
-0.00840155
0.00901398
-0.00826028
0.00920883
-0.00812537
0.00940435
-0.00799767
0.00960102
-0.00787787
-0.00776761
0.00980004
4.01498e-05
0.00103367
0.000160083
0.00212894
0.000355772
0.00243852
0.000619833
0.00208484
0.000942407
0.00121429
0.00131171
-2.18294e-05
0.00171462
-0.00147994
0.00213737
-0.00303183
0.00256656
-0.00456997
0.00299017
-0.00601085
0.00339832
-0.00729611
0.00378389
-0.00839138
0.00414256
-0.00928324
0.00447265
-0.00997485
0.00477466
-0.0104812
0.0050507
-0.0108245
0.00530387
-0.0110302
0.00553782
-0.0111241
0.00575626
-0.0111305
0.00596274
-0.0110708
0.00616039
-0.0109628
0.0063519
-0.0108212
0.00653942
-0.0106574
0.00672468
-0.0104801
0.00690894
-0.0102956
0.00709313
-0.0101086
0.00727786
-0.00992212
0.00746353
-0.00973843
0.00765034
-0.00955884
0.00783836
-0.00938418
0.00802757
-0.0092149
0.00821785
-0.00905122
0.00840908
-0.00889319
0.00860107
-0.00874082
0.00879367
-0.00859415
0.00898675
-0.00845336
0.00918029
-0.00831892
0.00937449
-0.00819187
0.00956986
-0.00807325
-0.00796546
0.00976771
4.11652e-05
0.000992509
0.000164483
0.00200562
0.000365815
0.00223718
0.00063733
0.00181332
0.000968435
0.000883188
0.00134644
-0.000399838
0.00175727
-0.00189077
0.00218634
-0.0034609
0.00261968
-0.00500331
0.00304496
-0.00643613
0.00345237
-0.00770351
0.00383501
-0.00877403
0.00418904
-0.00963726
0.00451326
-0.0102991
0.0048087
-0.0107766
0.00507788
-0.0110937
0.0053243
-0.0112766
0.00555182
-0.0113516
0.00576434
-0.0113431
0.00596549
-0.0112719
0.00615842
-0.0111557
0.00634579
-0.0110086
0.00652972
-0.0108414
0.00671187
-0.0106623
0.00689346
-0.0104772
0.00707533
-0.0102904
0.00725805
-0.0101048
0.00744196
-0.00992234
0.00762722
-0.0097441
0.00781386
-0.00957082
0.00800182
-0.00940287
0.00819097
-0.00924037
0.00838113
-0.00908335
0.00857211
-0.0089318
0.00876372
-0.00878575
0.00895581
-0.00864545
0.00914835
-0.00851146
0.00934155
-0.00838506
0.00953596
-0.00826766
-0.00816248
0.00973298
4.22325e-05
0.000950276
0.00016898
0.00187887
0.000375916
0.00203025
0.000654707
0.00153453
0.000993987
0.000543908
0.00138014
-0.000785988
0.00179814
-0.00230877
0.00223263
-0.00389539
0.00266911
-0.00543979
0.00309505
-0.00686208
0.00350073
-0.00810919
0.0038796
-0.0091529
0.00422829
-0.00998595
0.00454614
-0.0106169
0.00483467
-0.0110652
0.00509684
-0.0113558
0.00533646
-0.0115162
0.00555764
-0.0115728
0.0057644
-0.0115498
0.00596042
-0.0114679
0.00614886
-0.0113442
0.00633234
-0.0111921
0.00651295
-0.011022
0.00669225
-0.0108416
0.0068714
-0.0106563
0.00705119
-0.0104702
0.00723214
-0.0102858
0.00741453
-0.0101047
0.00759848
-0.00992805
0.00778399
-0.00975633
0.00797096
-0.00958984
0.00815924
-0.00942864
0.00834861
-0.00927272
0.00853885
-0.00912204
0.00872975
-0.00897665
0.00892112
-0.00883682
0.00911294
-0.00870328
0.0093054
-0.00857752
0.00949911
-0.00846138
-0.00835895
0.00969558
4.33577e-05
0.000906919
0.000173587
0.00174864
0.000386094
0.00181774
0.000671979
0.00124864
0.00101906
0.000196825
0.00141277
-0.0011797
0.00183716
-0.00273316
0.00227614
-0.00433437
0.00271474
-0.00587839
0.00314032
-0.00728765
0.00354332
-0.00851219
0.00391761
-0.00952719
0.00426031
-0.0103286
0.00457133
-0.010928
0.00485266
-0.0113465
0.00510768
-0.0116108
0.00534051
-0.011749
0.00555544
-0.0117877
0.0057566
-0.011751
0.0059477
-0.011659
0.00613189
-0.0115284
0.00631173
-0.0113719
0.00648924
-0.0111995
0.00666592
-0.0110182
0.00684286
-0.0108333
0.0070208
-0.0106482
0.00720019
-0.0104652
0.00738127
-0.0102858
0.00756414
-0.0101109
0.00774875
-0.00994095
0.00793498
-0.00977607
0.00812263
-0.0096163
0.00831148
-0.00946157
0.00850126
-0.00931182
0.00869171
-0.0091671
0.00888262
-0.00902774
0.00907394
-0.00889459
0.00926585
-0.00876943
0.00945904
-0.00865458
-0.00855502
0.00965512
4.45445e-05
0.000862374
0.000178314
0.00161487
0.000396358
0.0015997
0.000689149
0.000955853
0.00104364
-0.000157666
0.0014443
-0.00158036
0.00187428
-0.00316314
0.00231679
-0.00477688
0.00275649
-0.0063181
0.0031807
-0.00771186
0.0035801
-0.00891159
0.00394903
-0.00989611
0.00428514
-0.0106648
0.00458889
-0.0112317
0.00486278
-0.0116204
0.00511057
-0.0118586
0.00533662
-0.0119751
0.00554541
-0.0119965
0.00574115
-0.0119467
0.00592753
-0.0118454
0.00610768
-0.0117085
0.0062841
-0.0115484
0.00645872
-0.0113741
0.00663299
-0.0111925
0.00680793
-0.0110082
0.0069842
-0.0108244
0.00716222
-0.0106432
0.0073422
-0.0104658
0.00752418
-0.0102929
0.00770811
-0.0101249