/*--------------------------------*- C++ -*----------------------------------*\
  =========                 |
  \\      /  F ield         | OpenFOAM: The Open Source CFD Toolbox
   \\    /   O peration     | Website:  https://openfoam.org
    \\  /    A nd           | Version:  7
     \\/     M anipulation  |
\*---------------------------------------------------------------------------*/
FoamFile
{
    version     2.0;
    format      ascii;
    class       volVectorField;
    location    "1.3";
    object      U;
}
// * * * * * * * * * * * * * * * * * * * * * * * * * * * * * * * * * * * * * //

dimensions      [0 1 -1 0 0 0 0];

internalField   nonuniform List<vector> 
32000
(
(-0.0013206 0.0648158 -1.76775e-21)
(-0.00426109 0.152284 0)
(-0.00782129 0.205893 -1.57592e-20)
(-0.0107681 0.231377 0)
(-0.0124953 0.235021 1.6426e-20)
(-0.0124253 0.222613 0)
(-0.0102082 0.199053 1.69797e-20)
(-0.00569288 0.168307 -1.29056e-20)
(0.00111105 0.133503 5.08802e-24)
(0.0100684 0.0970662 6.17196e-24)
(0.020942 0.0608446 -4.45793e-21)
(0.0334179 0.0262165 1.798e-20)
(0.0471423 -0.00583152 0)
(0.0617533 -0.0346435 -4.57984e-21)
(0.0769024 -0.0598381 4.59876e-21)
(0.0922679 -0.081262 0)
(0.107569 -0.0989443 2.32478e-20)
(0.122574 -0.113053 -4.66819e-21)
(0.137098 -0.123856 0)
(0.151005 -0.131679 9.41897e-21)
(0.164202 -0.136883 9.40515e-21)
(0.176637 -0.139835 0)
(0.188284 -0.14089 0)
(0.199147 -0.140381 0)
(0.209243 -0.138609 0)
(0.218604 -0.13584 0)
(0.22727 -0.132302 0)
(0.235284 -0.128191 0)
(0.242694 -0.123666 -1.87078e-20)
(0.249546 -0.11886 0)
(0.255887 -0.113879 1.85939e-20)
(0.261758 -0.108805 0)
(0.267199 -0.103704 0)
(0.272247 -0.0986266 0)
(0.276935 -0.093609 -1.83013e-20)
(0.281291 -0.0886795 -9.13239e-21)
(0.285341 -0.0838594 2.72551e-20)
(0.289117 -0.0791713 -2.20858e-23)
(0.292654 -0.0746004 1.79971e-20)
(0.295792 -0.0700463 -2.54684e-23)
(-0.00245575 0.0652992 0)
(-0.0065402 0.153174 3.0658e-20)
(-0.0102428 0.206873 7.88647e-21)
(-0.0126881 0.23211 -5.41453e-24)
(-0.0134659 0.235174 -8.22588e-21)
(-0.0121763 0.221902 0)
(-0.00859512 0.197258 1.68707e-20)
(-0.00265944 0.165287 -1.71073e-20)
(0.00555007 0.1292 0)
(0.0158428 0.0914926 -3.51488e-20)
(0.0279468 0.0540766 0)
(0.0415227 0.0183804 -5.38101e-20)
(0.056195 -0.0145739 0)
(0.0715926 -0.0441081 0)
(0.0873653 -0.0698318 1.83764e-20)
(0.103191 -0.0915952 -1.84353e-20)
(0.118798 -0.109441 -1.8585e-20)
(0.133966 -0.123557 0)
(0.148528 -0.134235 5.60491e-20)
(0.162363 -0.141828 -1.87232e-20)
(0.175399 -0.14672 -1.0136e-23)
(0.1876 -0.149302 -5.63398e-20)
(0.198958 -0.149948 -3.75762e-20)
(0.209491 -0.149009 -1.88404e-20)
(0.219231 -0.146801 5.63452e-20)
(0.228221 -0.143598 -5.63192e-20)
(0.236509 -0.139639 5.62937e-20)
(0.244148 -0.135122 -7.47829e-20)
(0.251191 -0.130212 -1.8574e-20)
(0.257687 -0.125042 9.58691e-23)
(0.263687 -0.119718 -5.559e-20)
(0.269235 -0.114324 -3.69605e-20)
(0.274371 -0.108924 7.36481e-20)
(0.279134 -0.103567 -7.32929e-20)
(0.283554 -0.0982873 -1.81641e-20)
(0.287662 -0.0931128 -7.26898e-20)
(0.291483 -0.0880616 4.52555e-23)
(0.295046 -0.0831537 1.79969e-20)
(0.298382 -0.0783702 -7.15695e-20)
(0.301333 -0.0736057 -9.76714e-20)
(-0.00361538 0.0655853 -7.02348e-21)
(-0.00886387 0.153655 -1.53515e-20)
(-0.0127017 0.207362 -7.04592e-20)
(-0.0146334 0.232337 0)
(-0.0144261 0.234845 8.17552e-21)
(-0.0118567 0.220753 -8.31458e-21)
(-0.00683862 0.195089 -1.01325e-19)
(0.000592765 0.161964 3.43221e-20)
(0.0102841 0.124663 -1.73591e-20)
(0.0219912 0.0857546 1.05188e-19)
(0.0353992 0.047216 3.54483e-20)
(0.0501358 0.0105223 1.79618e-20)
(0.0658062 -0.0232676 -7.20083e-20)
(0.0820257 -0.053453 0)
(0.0984389 -0.079638 0)
(0.11473 -0.101678 3.68381e-20)
(0.130634 -0.119629 1.00039e-22)
(0.145948 -0.133703 -3.70813e-20)
(0.16052 -0.144214 -3.7327e-20)
(0.174252 -0.151542 -7.45942e-20)
(0.187092 -0.156097 1.12225e-19)
(0.199023 -0.15829 1.11131e-22)
(0.210056 -0.15852 2.58849e-23)
(0.220225 -0.157149 3.74685e-20)
(0.229577 -0.154508 -7.5077e-20)
(0.238166 -0.150882 1.49677e-19)
(0.24605 -0.146514 0)
(0.25329 -0.141609 3.7374e-20)
(0.259943 -0.136332 3.72807e-20)
(0.266066 -0.130818 7.43063e-20)
(0.27171 -0.125173 9.55988e-23)
(0.276921 -0.11948 0)
(0.28174 -0.113802 3.66902e-20)
(0.286206 -0.108186 -3.64372e-20)
(0.290351 -0.102666 -3.6187e-20)
(0.294203 -0.0972654 1.08802e-19)
(0.297787 -0.0920026 -1.07906e-19)
(0.301133 -0.0868936 7.17958e-20)
(0.304263 -0.0819149 -1.06813e-19)
(0.30702 -0.0769591 3.87602e-20)
(-0.00477882 0.0656881 5.58985e-20)
(-0.0112069 0.153799 -6.0918e-20)
(-0.0151877 0.2074 1.2504e-19)
(-0.0165784 0.232056 0)
(-0.015343 0.234005 4.87755e-20)
(-0.0114378 0.219125 8.28024e-20)
(-0.00491432 0.192487 1.70618e-20)
(0.00408869 0.158272 1.33005e-23)
(0.015342 0.119833 5.17703e-20)
(0.0285388 0.0798091 -1.77319e-20)
(0.0433158 0.0402314 8.81794e-20)
(0.0592673 0.00262655 -1.06852e-19)
(0.0759741 -0.0319133 1.07911e-19)
(0.0930381 -0.0626691 -3.6251e-20)
(0.110101 -0.0892381 3.64011e-20)
(0.126852 -0.111483 -7.31856e-20)
(0.143037 -0.129478 -1.10447e-19)
(0.15847 -0.143455 3.69493e-20)
(0.173021 -0.153756 -3.71771e-20)
(0.186616 -0.160786 1.11774e-19)
(0.199222 -0.164979 -7.4741e-20)
(0.210847 -0.16677 -7.45691e-20)
(0.22152 -0.166575 0)
(0.231292 -0.164774 0)
(0.240224 -0.161708 -7.45693e-20)
(0.248384 -0.157671 -7.47548e-20)
(0.255841 -0.152911 -7.4362e-20)
(0.26266 -0.147635 0)
(0.268906 -0.142012 0)
(0.274639 -0.136176 -1.4779e-19)
(0.279912 -0.130233 -1.06834e-22)
(0.284774 -0.124264 7.35639e-20)
(0.289267 -0.118332 -7.30885e-20)
(0.293428 -0.11248 -7.28806e-20)
(0.297291 -0.10674 7.27449e-20)
(0.300881 -0.101136 0)
(0.304224 -0.0956809 7.19672e-20)
(0.307347 -0.0903893 -1.42831e-19)
(0.310268 -0.0852341 1.42289e-19)
(0.312828 -0.0801056 -1.5481e-19)
(-0.00594737 0.065626 -2.79937e-20)
(-0.0135592 0.153559 4.57158e-20)
(-0.0176792 0.206958 -6.24185e-20)
(-0.0185146 0.231264 0)
(-0.0162144 0.232663 -8.13221e-20)
(-0.0109217 0.217032 -4.96996e-20)
(-0.00282846 0.189479 6.72638e-20)
(0.00782108 0.154245 0)
(0.020711 0.114746 -1.0354e-19)
(0.0354666 0.0736848 -3.49887e-20)
(0.0516736 0.0331526 -3.52955e-20)
(0.0688877 -0.00527834 7.12317e-20)
(0.0866637 -0.0404836 -7.16326e-20)
(0.10459 -0.0717257 3.60383e-20)
(0.122305 -0.0985998 0)
(0.139505 -0.120978 1.09759e-19)
(0.155951 -0.138953 3.68911e-20)
(0.171474 -0.152781 -7.38321e-20)
(0.185971 -0.162828 1.47977e-19)
(0.199391 -0.169527 -1.48378e-19)
(0.211728 -0.173336 1.48449e-19)
(0.22301 -0.174713 7.45676e-20)
(0.233288 -0.17409 0)
(0.242631 -0.171864 7.45525e-20)
(0.251116 -0.168383 2.10905e-22)
(0.258822 -0.163948 0)
(0.265828 -0.158814 7.43609e-20)
(0.272208 -0.153189 -7.41263e-20)
(0.278031 -0.147243 7.3818e-20)
(0.28336 -0.14111 1.4751e-19)
(0.288252 -0.134893 -1.46827e-19)
(0.292755 -0.128674 1.46382e-19)
(0.296913 -0.122511 0)
(0.300764 -0.116446 0)
(0.304339 -0.11051 1.44453e-19)
(0.307664 -0.104722 0)
(0.310762 -0.0990963 0)
(0.313661 -0.0936421 -1.42149e-19)
(0.316371 -0.0883296 1.41526e-19)
(0.31873 -0.0830476 7.71932e-20)
(-0.0071086 0.0653973 1.39026e-20)
(-0.0159035 0.152974 0)
(-0.0201587 0.206057 1.24025e-19)
(-0.0204186 0.22996 1.5881e-20)
(-0.0170213 0.230802 1.62081e-20)
(-0.0102896 0.214446 9.86646e-20)
(-0.000560453 0.186034 1.33667e-19)
(0.0118039 0.149849 0)
(0.0263982 0.10937 3.43712e-20)
(0.0427761 0.0673597 1.03988e-19)
(0.060465 0.0259661 1.40087e-19)
(0.0789792 -0.0131955 -3.54318e-20)
(0.0978472 -0.0489705 -1.06844e-19)
(0.116644 -0.0806078 0)
(0.135005 -0.107702 1.44484e-19)
(0.152637 -0.130138 0)
(0.169316 -0.148027 2.19305e-19)
(0.184898 -0.161651 -7.33678e-20)
(0.199305 -0.171402 0)
(0.212514 -0.177739 -7.40132e-20)
(0.224544 -0.181144 -2.27272e-22)
(0.235448 -0.182098 -7.38059e-20)
(0.245299 -0.181047 -7.41219e-20)
(0.254184 -0.178401 7.42781e-20)
(0.262195 -0.174517 -7.40835e-20)
(0.269425 -0.169703 0)
(0.275962 -0.164216 -7.40093e-20)
(0.281886 -0.158265 7.37268e-20)
(0.287273 -0.152021 0)
(0.292188 -0.145615 0)
(0.296689 -0.139152 0)
(0.300827 -0.132707 -1.45821e-19)
(0.304645 -0.126338 1.45051e-19)
(0.308181 -0.120084 0)
(0.311464 -0.113975 -7.20831e-20)
(0.31452 -0.108027 0)
(0.317371 -0.10225 1.4258e-19)
(0.320045 -0.0966535 -7.0657e-20)
(0.322543 -0.0912036 -1.411e-19)
(0.324699 -0.0857887 1.5324e-19)
(-0.0082554 0.0650136 9.67905e-20)
(-0.0182207 0.152044 -1.35732e-19)
(-0.0226052 0.204699 -2.32168e-19)
(-0.0222727 0.228142 -1.26383e-19)
(-0.0177428 0.228419 -3.22889e-20)
(-0.0095244 0.211371 -6.59097e-20)
(0.00189671 0.18215 -3.00252e-19)
(0.0160388 0.145086 -1.0124e-19)
(0.0323994 0.10371 -1.70962e-19)
(0.0504529 0.0608435 -1.73342e-19)
(0.0696662 0.0186852 -2.44745e-19)
(0.0895099 -0.0211072 -1.4085e-19)
(0.109485 -0.0573534 5.02747e-22)
(0.129152 -0.0892915 -1.43029e-19)
(0.148148 -0.116519 -1.44481e-19)
(0.166188 -0.138934 -2.1742e-19)
(0.183071 -0.156672 1.45257e-19)
(0.198678 -0.170038 -7.31016e-20)
(0.212958 -0.179452 0)
(0.225918 -0.185398 1.47031e-19)
(0.237605 -0.188385 0)
(0.248097 -0.188907 2.9555e-19)
(0.25749 -0.187431 0)
(0.265891 -0.184374 -7.40018e-20)
(0.273406 -0.180103 7.42225e-20)
(0.280141 -0.174929 -1.4745e-19)
(0.286193 -0.169111 0)
(0.291649 -0.16286 -1.4713e-19)
(0.296589 -0.156344 1.46518e-19)
(0.301081 -0.149693 0)
(0.305186 -0.143009 0)
(0.308953 -0.136365 0)
(0.312428 -0.129815 -1.44281e-19)
(0.315646 -0.123398 0)
(0.318635 -0.117138 -1.43382e-19)
(0.321421 -0.111052 2.85233e-19)
(0.324025 -0.105147 -2.83819e-19)
(0.326473 -0.0994275 1.40726e-19)
(0.328759 -0.09386 2.80854e-19)
(0.330711 -0.0883327 -1.52501e-19)
(-0.00938149 0.0644859 -1.2445e-19)
(-0.0204976 0.150781 4.0324e-22)
(-0.0249987 0.20289 1.23614e-19)
(-0.0240539 0.225816 2.52352e-19)
(-0.0183606 0.225517 -3.21849e-20)
(-0.00861212 0.207799 -1.30781e-19)
(0.00455389 0.177822 1.33214e-19)
(0.0205294 0.13995 2.02499e-19)
(0.0387084 0.0977636 6.84757e-20)
(0.0584827 0.0541356 1.72248e-19)
(0.0792546 0.0113156 1.39598e-19)
(0.100448 -0.029003 2.10838e-19)
(0.121537 -0.0656177 4.25222e-19)
(0.142068 -0.0977587 2.14233e-19)
(0.16168 -0.12503 0)
(0.180103 -0.147346 7.24313e-20)
(0.197156 -0.164866 7.2004e-20)
(0.212749 -0.177922 7.25711e-20)
(0.226865 -0.186959 1.46363e-19)
(0.239539 -0.192489 -7.38253e-20)
(0.250848 -0.195041 0)
(0.260896 -0.195129 -5.46905e-22)
(0.269804 -0.193232 -1.47036e-19)
(0.277697 -0.189776 1.47026e-19)
(0.284696 -0.185136 2.94412e-19)
(0.29092 -0.179624 2.93902e-19)
(0.296474 -0.1735 -1.55361e-22)
(0.301453 -0.166975 1.46167e-19)
(0.305938 -0.160213 1.45778e-19)
(0.310002 -0.153345 -1.45331e-19)
(0.313707 -0.146467 1.44832e-19)
(0.317102 -0.139651 1.44285e-19)
(0.320231 -0.132946 2.87976e-19)
(0.323129 -0.12639 -3.76762e-22)
(0.325826 -0.120004 4.27837e-19)
(0.328342 -0.113802 -2.16992e-22)
(0.330698 -0.10779 -1.41018e-19)
(0.33292 -0.101969 -1.40881e-19)
(0.334995 -0.0963034 1.39526e-19)
(0.336742 -0.0906844 1.51509e-19)
(-0.0104797 0.0638212 1.0988e-19)
(-0.0227177 0.149199 1.50234e-19)
(-0.0273191 0.200644 9.20633e-20)
(-0.0257411 0.222987 -9.45148e-20)
(-0.0188544 0.222095 -1.60129e-19)
(-0.00753576 0.20373 1.30759e-19)
(0.00742179 0.173047 0)
(0.0252786 0.134439 1.34184e-19)
(0.0453206 0.0915297 0)
(0.0668526 0.0472405 -2.75052e-19)
(0.0892083 0.0038648 6.94859e-20)
(0.111764 -0.0368721 -3.50215e-19)
(0.133964 -0.0737488 -1.41483e-19)
(0.155346 -0.105992 7.07052e-20)
(0.17555 -0.133216 1.74783e-22)
(0.194323 -0.155355 -7.19126e-20)
(0.21151 -0.172591 -1.44987e-19)
(0.227053 -0.185284 -2.90661e-19)
(0.240965 -0.193907 0)
(0.253316 -0.198997 -9.20893e-23)
(0.264212 -0.201104 -1.46317e-19)
(0.273788 -0.200756 -1.46951e-19)
(0.282186 -0.198445 1.47034e-19)
(0.289549 -0.194606 -1.47444e-19)
(0.296016 -0.189615 1.46358e-19)
(0.301717 -0.183788 -2.93078e-19)
(0.306764 -0.177385 -1.66574e-22)
(0.311258 -0.170612 -2.9193e-19)
(0.315285 -0.163635 -1.45776e-19)
(0.318919 -0.156577 1.92492e-22)
(0.322221 -0.149532 -3.84392e-22)
(0.325243 -0.14257 -1.44284e-19)
(0.328027 -0.135737 -1.43696e-19)
(0.330607 -0.129066 -5.90432e-22)
(0.33301 -0.122578 -1.42415e-19)
(0.335257 -0.116283 -5.96946e-22)
(0.337367 -0.110184 -1.40563e-19)
(0.339364 -0.104282 4.19497e-19)
(0.341228 -0.0985389 -1.39525e-19)
(0.342771 -0.0928491 -1.51435e-19)
(-0.0115442 0.0630303 -1.09893e-19)
(-0.024866 0.14731 2.98885e-20)
(-0.0295465 0.197971 -9.21336e-20)
(-0.0273125 0.219665 -3.13219e-20)
(-0.019203 0.21816 1.28071e-19)
(-0.00627766 0.199165 -3.2539e-20)
(0.0105121 0.167826 3.3029e-20)
(0.0302916 0.128554 -2.01179e-19)
(0.0522334 0.085011 6.77762e-20)
(0.0755509 0.0401629 1.37289e-19)
(0.0995068 -0.00365945 0)
(0.123428 -0.0447031 2.79225e-19)
(0.146731 -0.0817326 0)
(0.168942 -0.113976 -2.83499e-19)
(0.189709 -0.141061 -1.42413e-19)
(0.208795 -0.162943 0)
(0.226077 -0.179831 0)
(0.241528 -0.192111 2.89592e-19)
(0.255198 -0.200286 1.4547e-19)
(0.267189 -0.204915 -2.91334e-19)
(0.277642 -0.206566 1.45771e-19)
(0.286717 -0.205785 0)
(0.294583 -0.20307 -1.46353e-19)
(0.3014 -0.198863 2.91807e-19)
(0.307322 -0.193544 -1.45945e-19)
(0.312489 -0.187428 -1.4602e-19)
(0.317024 -0.180771 1.45517e-19)
(0.32103 -0.17378 0)
(0.324596 -0.166614 2.89636e-19)
(0.327799 -0.159395 -1.44363e-19)
(0.330701 -0.152211 -1.44043e-19)
(0.333351 -0.145129 -1.69101e-22)
(0.335791 -0.138193 5.71029e-19)
(0.338054 -0.131432 -4.26689e-19)
(0.340166 -0.124865 0)
(0.342145 -0.118499 -1.41131e-19)
(0.344011 -0.112336 -2.80365e-19)
(0.345785 -0.106372 1.38934e-19)
(0.347441 -0.100572 1.38304e-19)
(0.348779 -0.0948321 0)
(-0.0125697 0.062123 -2.18232e-19)
(-0.0269286 0.145132 -2.97868e-20)
(-0.0316609 0.194886 2.43975e-19)
(-0.0287455 0.21586 -2.49479e-19)
(-0.0193843 0.213719 0)
(-0.0048189 0.19411 0)
(0.013839 0.16216 -6.58708e-20)
(0.0355753 0.122297 -2.82618e-23)
(0.0594456 0.078212 6.75497e-20)
(0.0845682 0.0329093 0)
(0.110132 -0.0112479 0)
(0.135414 -0.0524841 -6.97455e-20)
(0.159802 -0.0895555 1.31482e-22)
(0.182815 -0.121696 7.09454e-20)
(0.204107 -0.14855 1.4241e-19)
(0.223466 -0.170096 0)
(0.2408 -0.186572 1.43853e-19)
(0.256117 -0.198392 -1.44156e-19)
(0.269504 -0.206086 -2.89491e-19)
(0.281101 -0.210237 2.90246e-19)
(0.29108 -0.211428 3.4052e-22)
(0.299632 -0.210216 -1.45406e-19)
(0.306945 -0.20711 1.45793e-19)
(0.313202 -0.202555 -2.91386e-19)
(0.31857 -0.196931 0)
(0.323198 -0.19055 1.45448e-19)
(0.327217 -0.183669 -2.90122e-19)
(0.330734 -0.176487 1.44621e-19)
(0.333842 -0.169161 -1.44623e-19)
(0.336616 -0.161808 -1.43966e-19)
(0.33912 -0.154513 -1.43624e-19)
(0.341402 -0.147337 5.71246e-19)
(0.343502 -0.140323 -4.26791e-19)
(0.345451 -0.133496 -2.83316e-19)
(0.347273 -0.126872 2.81696e-19)
(0.348988 -0.120457 0)
(0.350612 -0.114249 2.79141e-19)
(0.352165 -0.108245 -2.77395e-19)
(0.353613 -0.102407 -1.38304e-19)
(0.354748 -0.0966384 0)
(-0.0135515 0.0611085 4.6299e-19)
(-0.0288922 0.142678 2.0754e-19)
(-0.033643 0.191405 -2.43973e-19)
(-0.0300171 0.211587 2.18328e-19)
(-0.0193753 0.208783 -3.1794e-20)
(-0.00313903 0.188571 6.46171e-20)
(0.0174179 0.156057 0)
(0.0411393 0.115674 -6.65499e-20)
(0.0669592 0.0711393 6.73237e-20)
(0.0938974 0.0254881 6.80901e-20)
(0.121068 -0.0188901 -6.8684e-20)
(0.147696 -0.0602029 -6.93737e-20)
(0.173144 -0.0972042 6.98074e-20)
(0.196922 -0.129138 0)
(0.218699 -0.155669 0)
(0.238286 -0.176803 -1.42624e-19)
(0.255625 -0.192805 1.42958e-19)
(0.270765 -0.204121 -1.43911e-19)
(0.28383 -0.211306 1.44027e-19)
(0.294998 -0.214962 1.44755e-19)
(0.304475 -0.215689 -2.89695e-19)
(0.312481 -0.214055 2.90028e-19)
(0.319227 -0.210573 2.98372e-22)
(0.324913 -0.20569 -1.4492e-19)
(0.32972 -0.199784 0)
(0.333808 -0.193167 1.44874e-19)
(0.337311 -0.186089 2.21579e-22)
(0.340342 -0.178745 -1.44045e-19)
(0.342995 -0.171288 0)
(0.345345 -0.163828 2.86749e-19)
(0.347456 -0.156448 -2.85384e-19)
(0.349374 -0.149204 0)
(0.351139 -0.142135 2.83383e-19)
(0.352778 -0.135264 -2.81822e-19)
(0.354316 -0.128605 0)
(0.355769 -0.122162 0)
(0.357153 -0.115931 0)
(0.358487 -0.109905 -2.76409e-19)
(0.359729 -0.104049 2.74638e-19)
(0.360661 -0.0982724 2.98009e-19)
(-0.0144853 0.0599963 -2.17495e-19)
(-0.0307439 0.139965 -2.37224e-19)
(-0.0354733 0.187547 -3.03628e-20)
(-0.0311044 0.206863 9.31053e-20)
(-0.0191521 0.203364 -1.26609e-19)
(-0.00121603 0.182561 1.28848e-19)
(0.0212668 0.149526 -1.30848e-19)
(0.0469949 0.108694 -1.98517e-19)
(0.0747778 0.0638024 0)
(0.103534 0.0179098 -6.78555e-20)
(0.1323 -0.0265741 6.84473e-20)
(0.160252 -0.0678468 0)
(0.186725 -0.104666 1.39375e-19)
(0.211226 -0.13629 -1.40093e-19)
(0.233439 -0.162407 -4.23055e-19)
(0.253204 -0.183053 -3.49299e-22)
(0.270501 -0.198524 2.85232e-19)
(0.285418 -0.209294 -1.43016e-19)
(0.298122 -0.215945 0)
(0.308828 -0.219095 0)
(0.317779 -0.219358 2.88063e-19)
(0.32522 -0.217311 1.44616e-19)
(0.331386 -0.21347 -1.44379e-19)
(0.336494 -0.208281 -1.44632e-19)
(0.340739 -0.202119 2.88759e-19)
(0.344287 -0.195292 -1.44065e-19)
(0.347278 -0.188045 2.88032e-19)
(0.349828 -0.180569 -5.74265e-19)
(0.352032 -0.173007 5.7264e-19)
(0.353966 -0.165468 -5.70784e-19)
(0.35569 -0.158027 5.68721e-19)
(0.357251 -0.150739 -5.66473e-19)
(0.358686 -0.143638 2.8189e-19)
(0.360021 -0.136746 2.8089e-19)
(0.361279 -0.130072 2.57478e-22)
(0.362474 -0.12362 2.44967e-22)
(0.36362 -0.117385 -2.76439e-19)
(0.364737 -0.111356 7.28462e-22)
(0.365775 -0.105501 -2.734e-19)
(0.366504 -0.099737 0)
(-0.0153674 0.0587954 2.70474e-20)
(-0.0324717 0.13701 -2.95208e-20)
(-0.0371331 0.18333 9.07536e-20)
(-0.031984 0.201704 -1.23711e-19)
(-0.01869 0.197481 6.30716e-20)
(0.000973452 0.176092 0)
(0.0254051 0.142579 0)
(0.0531558 0.101369 2.64818e-19)
(0.0829076 0.0562134 3.33986e-19)
(0.113475 0.0101871 -6.75772e-20)
(0.143817 -0.034287 3.40772e-19)
(0.173061 -0.0754029 -6.87891e-20)
(0.200515 -0.111928 0)
(0.225689 -0.14314 0)
(0.248284 -0.168755 2.8175e-19)
(0.268172 -0.188841 0)
(0.285376 -0.203725 1.41397e-19)
(0.300025 -0.213913 -1.42324e-19)
(0.312329 -0.220006 0)
(0.322544 -0.222641 -2.86462e-19)
(0.330945 -0.222445 -1.44146e-19)
(0.337805 -0.219996 -4.31029e-19)
(0.343383 -0.215814 -1.44108e-19)
(0.34791 -0.210343 1.43799e-19)
(0.351593 -0.203952 2.87062e-19)
(0.354605 -0.196943 0)
(0.357091 -0.189556 2.8609e-19)
(0.359168 -0.181973 5.71546e-19)
(0.360932 -0.174334 3.51507e-22)
(0.362458 -0.16674 -2.84044e-19)
(0.363805 -0.159263 -2.83318e-19)
(0.365017 -0.151953 2.81893e-19)
(0.36613 -0.144842 2.8096e-19)
(0.367167 -0.137948 -5.59082e-19)
(0.368149 -0.131279 5.56383e-19)
(0.36909 -0.124837 -2.77395e-19)
(0.370001 -0.118615 2.75212e-19)
(0.370903 -0.112602 5.47624e-19)
(0.371738 -0.106765 2.7163e-19)
(0.372265 -0.101034 2.94311e-19)
(-0.0161945 0.0575148 -2.15292e-19)
(-0.0340642 0.133831 2.05395e-19)
(-0.0386038 0.178775 -1.80507e-19)
(-0.0326327 0.196133 1.84536e-19)
(-0.0179636 0.191151 3.1404e-19)
(0.0034541 0.169184 -2.55612e-19)
(0.0298541 0.135233 3.24561e-19)
(0.0596376 0.0937151 1.97193e-19)
(0.0913564 0.0483874 -4.66592e-19)
(0.12372 0.00233477 1.34258e-19)
(0.155609 -0.042014 6.70407e-20)
(0.186101 -0.0828566 1.37289e-19)
(0.214486 -0.118976 1.37882e-19)
(0.240275 -0.149676 -2.77979e-19)
(0.263191 -0.174704 2.79732e-19)
(0.283146 -0.194161 4.22352e-19)
(0.300203 -0.208408 -4.25062e-19)
(0.314538 -0.217979 5.68571e-19)
(0.326405 -0.223497 2.8468e-19)
(0.3361 -0.225613 4.2958e-19)
(0.343931 -0.224962 1.4283e-19)
(0.350199 -0.222127 2.87271e-19)
(0.355183 -0.217625 -2.86267e-19)
(0.35913 -0.211895 0)
(0.362255 -0.205301 -8.59701e-19)
(0.364739 -0.198138 5.72131e-19)
(0.366729 -0.190637 -2.85687e-19)
(0.368344 -0.182975 -2.85021e-19)
(0.369679 -0.175284 -4.1466e-22)
(0.370808 -0.167659 0)
(0.371788 -0.160169 0)
(0.372661 -0.152858 2.80232e-19)
(0.373458 -0.145755 -2.79742e-19)
(0.374205 -0.138878 2.78201e-19)
(0.374917 -0.132233 -2.77082e-19)
(0.375607 -0.125818 -2.75665e-19)
(0.376288 -0.119625 0)
(0.376976 -0.113644 -2.72474e-19)
(0.377609 -0.107843 -2.71449e-19)
(0.377935 -0.102164 -8.81554e-19)
(-0.0169637 0.0561628 2.15253e-19)
(-0.0355107 0.130444 -2.05568e-19)
(-0.0398673 0.173902 2.4076e-19)
(-0.033027 0.190171 -4.30151e-19)
(-0.016947 0.184396 -3.13832e-19)
(0.00625147 0.161855 2.5561e-19)
(0.0346364 0.127506 -5.18255e-19)
(0.066457 0.0857499 -2.63057e-19)
(0.100133 0.040342 3.32627e-19)
(0.134268 -0.00562959 -6.04186e-19)
(0.167665 -0.049738 -4.07163e-19)
(0.199355 -0.0901922 -1.3631e-19)
(0.228609 -0.125797 -4.13925e-19)
(0.254948 -0.155887 4.16585e-19)
(0.278122 -0.180246 -2.79728e-19)
(0.298081 -0.19901 -2.8128e-19)
(0.314936 -0.212575 0)
(0.328912 -0.221499 -2.83758e-19)
(0.340306 -0.226428 -4.26915e-19)
(0.349455 -0.228024 1.42256e-19)
(0.356699 -0.226927 -2.85875e-19)
(0.362366 -0.223723 0)
(0.366755 -0.218921 2.86264e-19)
(0.370125 -0.212958 2.85855e-19)
(0.372701 -0.206188 -2.8397e-19)
(0.374667 -0.198898 0)
(0.376173 -0.19131 0)
(0.377339 -0.183594 0)
(0.378259 -0.175874 -1.18165e-21)
(0.379003 -0.168241 0)
(0.379627 -0.160757 -5.61083e-19)
(0.380171 -0.153465 -7.36187e-22)
(0.380664 -0.146389 -5.56318e-19)
(0.381127 -0.139546 5.54205e-19)
(0.381575 -0.132938 -2.75633e-19)
(0.382021 -0.126565 2.74938e-19)
(0.382473 -0.120418 0)
(0.38295 -0.114483 5.43341e-19)
(0.383381 -0.108734 -2.69661e-19)
(0.383507 -0.103125 0)
(-0.0176725 0.0547471 2.67718e-20)
(-0.0368012 0.126866 0)
(-0.040906 0.168734 -2.99101e-19)
(-0.0331436 0.183841 3.67911e-19)
(-0.0156137 0.177239 1.8708e-19)
(0.00939185 0.154128 -2.53938e-19)
(0.0397752 0.11942 2.58698e-19)
(0.0736318 0.0774949 -2.61304e-19)
(0.109249 0.0320983 0)
(0.145121 -0.0136858 2.68073e-19)
(0.179977 -0.0574399 -2.69682e-19)
(0.212803 -0.0973924 9.44274e-22)
(0.242858 -0.132377 0)
(0.269675 -0.161764 2.76012e-19)
(0.293036 -0.185376 -1.38462e-19)
(0.312936 -0.203388 2.79579e-19)
(0.329534 -0.216228 1.40197e-19)
(0.343105 -0.224483 -2.81673e-19)
(0.353992 -0.228812 0)
(0.362571 -0.22989 4.25275e-19)
(0.369216 -0.22836 1.41735e-19)
(0.374277 -0.224803 0)
(0.378072 -0.219726 0)
(0.380872 -0.213554 0)
(0.382909 -0.206635 2.84779e-19)
(0.384371 -0.199244 0)
(0.385409 -0.191595 -2.83361e-19)
(0.386141 -0.183848 5.649e-19)
(0.38666 -0.176122 -5.63642e-19)
(0.387034 -0.168501 0)
(0.387316 -0.161043 2.80174e-19)
(0.387542 -0.153786 -2.77816e-19)
(0.38774 -0.146753 2.77795e-19)
(0.387928 -0.139958 0)
(0.388119 -0.133402 0)
(0.388325 -0.127084 2.73175e-19)
(0.388552 -0.120994 -2.71511e-19)
(0.38882 -0.115119 5.40282e-19)
(0.389051 -0.109436 -5.36821e-19)
(0.388978 -0.103913 0)
(-0.0183187 0.0532748 1.86359e-19)
(-0.037926 0.123114 5.81782e-20)
(-0.0417027 0.163291 2.39171e-19)
(-0.0329597 0.177167 2.43805e-19)
(-0.0139378 0.169706 -2.49533e-19)
(0.0129018 0.146029 2.53936e-19)
(0.0452943 0.111002 2.56988e-19)
(0.0811802 0.0689749 2.61302e-19)
(0.118712 0.0236802 0)
(0.156279 -0.0218109 2.66249e-19)
(0.192535 -0.0650988 2.69679e-19)
(0.226427 -0.104439 2.71984e-19)
(0.257206 -0.138701 0)
(0.284423 -0.167296 -9.71666e-22)
(0.307897 -0.190089 2.7773e-19)
(0.327671 -0.207295 -1.39715e-19)
(0.343956 -0.219376 -1.40883e-19)
(0.357077 -0.22694 4.22408e-19)
(0.367426 -0.230664 3.21349e-22)
(0.375416 -0.23123 -1.42258e-19)
(0.381451 -0.229281 -2.83699e-19)
(0.385905 -0.225393 0)
(0.389111 -0.220064 0)
(0.391352 -0.213709 0)
(0.392864 -0.206667 0)
(0.393838 -0.1992 0)
(0.394424 -0.191513 0)
(0.39474 -0.183759 2.81437e-19)
(0.394874 -0.176047 -2.80268e-19)
(0.394894 -0.168457 0)
(0.394847 -0.161041 0)
(0.394769 -0.153834 2.77816e-19)
(0.394683 -0.146858 0)
(0.394605 -0.140122 2.74761e-19)
(0.394548 -0.13363 -2.7319e-19)
(0.394518 -0.127378 0)
(0.394525 -0.121356 5.40865e-19)
(0.394586 -0.115552 -5.37482e-19)
(0.394619 -0.109946 0)
(0.394349 -0.104525 0)
(-0.0189003 0.0517526 -2.13083e-19)
(-0.0388764 0.119203 -5.80671e-20)
(-0.042241 0.157597 5.94577e-20)
(-0.0324527 0.170176 -2.43805e-19)
(-0.0118932 0.161823 0)
(0.0168075 0.137586 0)
(0.0512172 0.102278 -1.92843e-19)
(0.0891198 0.0602175 -6.49937e-20)
(0.128534 0.0151147 -1.31544e-19)
(0.167742 -0.0299794 -1.33373e-19)
(0.20533 -0.0726917 -1.34216e-19)
(0.240209 -0.111313 1.35213e-19)
(0.271627 -0.144754 1.35733e-19)
(0.29916 -0.172473 -1.37882e-19)
(0.322669 -0.194381 0)
(0.342248 -0.210734 0)
(0.358164 -0.222025 -2.79545e-19)
(0.370794 -0.228885 0)
(0.380576 -0.232004 0)
(0.387959 -0.232067 2.8086e-19)
(0.393378 -0.229714 5.68107e-22)
(0.397227 -0.225516 -2.70714e-22)
(0.399854 -0.21996 -2.82601e-19)
(0.401549 -0.213449 2.81995e-19)
(0.402553 -0.206308 2.81363e-19)
(0.403057 -0.19879 -2.80895e-19)
(0.40321 -0.191088 0)
(0.403128 -0.183346 2.80256e-19)
(0.402897 -0.175667 2.77725e-22)
(0.402578 -0.168124 -2.78122e-19)
(0.402219 -0.160765 0)
(0.40185 -0.153622 0)
(0.401492 -0.146713 2.74858e-19)
(0.401158 -0.140048 -2.73345e-19)
(0.40086 -0.133627 -2.72144e-19)
(0.400602 -0.127449 2.70535e-19)
(0.400393 -0.121504 0)
(0.40025 -0.115779 0)
(0.400088 -0.110261 0)
(0.399624 -0.104955 -2.87527e-19)
(-0.0194154 0.0501865 2.64675e-19)
(-0.039644 0.115149 -1.15659e-19)
(-0.0425051 0.151673 5.92593e-20)
(-0.031601 0.162893 0)
(-0.0094547 0.153621 3.08968e-19)
(0.0211346 0.12883 2.79321e-23)
(0.0575664 0.0932806 2.55285e-19)
(0.0974675 0.0512536 -1.94339e-19)
(0.138722 0.00643165 2.62164e-19)
(0.179511 -0.0381636 -1.32421e-19)
(0.218352 -0.0801938 0)
(0.254129 -0.117993 1.34912e-19)
(0.286095 -0.150521 -4.07935e-19)
(0.313855 -0.177287 0)
(0.337318 -0.198251 4.12559e-19)
(0.356634 -0.21371 -2.75947e-19)
(0.372125 -0.224186 -2.78023e-19)
(0.384224 -0.230333 1.39385e-19)
(0.393412 -0.23285 0)
(0.400176 -0.232422 -2.81099e-19)
(0.404976 -0.229686 -2.8126e-19)
(0.408226 -0.225201 -8.14863e-22)
(0.410285 -0.219442 2.80702e-19)
(0.411451 -0.2128 2.81318e-19)
(0.411965 -0.205586 -5.61947e-19)
(0.41202 -0.198039 2.80894e-19)
(0.411762 -0.190343 0)
(0.411303 -0.182632 -2.78353e-19)
(0.410724 -0.175002 2.77466e-19)
(0.410086 -0.167521 2.7647e-19)
(0.409431 -0.160231 -2.75377e-19)
(0.408785 -0.153161 2.74198e-19)
(0.408167 -0.146329 0)
(0.40759 -0.139742 2.72309e-19)
(0.407059 -0.133401 5.41297e-19)
(0.406581 -0.127302 -5.38621e-19)
(0.406161 -0.121439 5.35876e-19)
(0.405819 -0.115799 2.19852e-22)
(0.405464 -0.110378 -2.6524e-19)
(0.404814 -0.105195 5.73845e-19)
(-0.0198623 0.0485821 -1.58768e-19)
(-0.0402209 0.110968 -3.45448e-19)
(-0.0424797 0.145541 2.35928e-19)
(-0.0303835 0.155346 -1.80987e-19)
(-0.00659797 0.145129 -6.25057e-20)
(0.0259076 0.119793 6.27328e-20)
(0.0643633 0.0840421 -1.27847e-19)
(0.106238 0.0421165 -1.29115e-19)
(0.149284 -0.00233669 1.30648e-19)
(0.191582 -0.0463335 -2.63998e-19)
(0.231589 -0.0875788 -1.09903e-22)
(0.268168 -0.124458 1.34281e-19)
(0.300584 -0.155986 0)
(0.328477 -0.18173 -1.36443e-19)
(0.351811 -0.201697 -1.37767e-19)
(0.370794 -0.216227 2.76251e-19)
(0.385809 -0.225872 0)
(0.397339 -0.231302 0)
(0.40591 -0.233224 2.7918e-19)
(0.412045 -0.232322 -2.79215e-19)
(0.416227 -0.229223 0)
(0.418888 -0.224475 2.80367e-19)
(0.420394 -0.218539 -2.80241e-19)
(0.421049 -0.211791 -5.59955e-19)
(0.421096 -0.204525 -3.8238e-22)
(0.420724 -0.196971 2.79725e-19)
(0.420077 -0.1893 -5.5633e-19)
(0.419261 -0.181637 2.78353e-19)
(0.418357 -0.174072 -2.77466e-19)
(0.417418 -0.166664 -4.86073e-22)
(0.416483 -0.159454 7.06366e-22)
(0.415576 -0.152467 -2.74198e-19)
(0.414713 -0.145718 -2.71736e-19)
(0.413902 -0.139214 -2.70404e-19)
(0.41315 -0.132956 -1.21965e-21)
(0.412459 -0.126941 0)
(0.411836 -0.121164 -2.6603e-19)
(0.4113 -0.115613 5.30247e-19)
(0.41076 -0.110292 -7.90944e-19)
(0.40993 -0.105242 2.65786e-22)
(-0.0202394 0.0469439 -5.26365e-20)
(-0.0405994 0.106672 4.59581e-19)
(-0.0421503 0.139223 -2.36008e-19)
(-0.02878 0.147562 1.81116e-19)
(-0.00329981 0.13638 -4.9174e-19)
(0.0311494 0.110509 6.25233e-20)
(0.0716273 0.0745984 -2.53554e-19)
(0.115446 0.032842 0)
(0.160224 -0.0111557 0)
(0.20395 -0.0544569 -2.62618e-19)
(0.245028 -0.0948189 1.3283e-19)
(0.282305 -0.130685 -4.87288e-22)
(0.315066 -0.161135 1.34813e-19)
(0.342997 -0.185793 0)
(0.366118 -0.204719 -4.09634e-19)
(0.3847 -0.218293 1.3724e-19)
(0.399187 -0.227096 -2.75511e-19)
(0.410114 -0.231811 0)
(0.41805 -0.23315 0)
(0.423549 -0.231792 7.92891e-22)
(0.427119 -0.228353 -2.78576e-19)
(0.429202 -0.223367 2.78496e-19)
(0.430173 -0.217279 -2.79255e-19)
(0.430339 -0.210448 2.78657e-19)
(0.429941 -0.203154 7.38771e-22)
(0.429166 -0.195612 7.47023e-22)
(0.428153 -0.187983 2.77957e-19)
(0.427005 -0.180383 -2.76016e-19)
(0.425795 -0.172894 0)
(0.424575 -0.165571 -2.74791e-19)
(0.423379 -0.158449 2.73484e-19)
(0.422228 -0.151551 0)
(0.421133 -0.144891 2.71737e-19)
(0.420102 -0.138474 -2.69335e-19)
(0.419139 -0.132302 2.67647e-19)
(0.418246 -0.126372 0)
(0.417428 -0.12068 7.96951e-19)
(0.416706 -0.115219 -5.27601e-19)
(0.415986 -0.110002 0)
(0.414988 -0.105089 2.85081e-19)
(-0.020545 0.0452759 4.18921e-19)
(-0.0407722 0.102274 -2.29403e-19)
(-0.0415029 0.132738 -5.87465e-20)
(-0.0267715 0.139568 6.00043e-20)
(0.000461358 0.127404 2.45434e-19)
(0.036881 0.101013 0)
(0.0793755 0.064987 2.53554e-19)
(0.1251 0.0234682 3.83839e-19)
(0.171545 -0.0199889 1.29733e-19)
(0.21661 -0.0625006 1.31495e-19)
(0.258654 -0.101885 1.32265e-19)
(0.296518 -0.136654 -4.00815e-19)
(0.329515 -0.165954 1.34345e-19)
(0.357385 -0.189471 5.40472e-19)
(0.380208 -0.20732 1.36519e-19)
(0.398324 -0.219918 1.36752e-19)
(0.412234 -0.227873 2.7551e-19)
(0.422528 -0.231881 0)
(0.429814 -0.232652 0)
(0.434676 -0.230859 5.55579e-19)
(0.43764 -0.227104 -1.11001e-18)
(0.439161 -0.221906 -7.85262e-22)
(0.439618 -0.21569 0)
(0.439319 -0.208799 0)
(0.438501 -0.201497 2.77959e-19)
(0.437348 -0.193986 0)
(0.435994 -0.186415 0)
(0.434535 -0.178892 -2.73685e-19)
(0.433042 -0.17149 -5.47874e-19)
(0.431562 -0.164259 0)
(0.430123 -0.157232 -5.43606e-19)
(0.428743 -0.150428 -1.08378e-18)
(0.427432 -0.14386 5.39704e-19)
(0.426195 -0.137532 -5.35983e-19)
(0.425034 -0.131445 5.34483e-19)
(0.423949 -0.1256 -5.31324e-19)
(0.422946 -0.119993 -5.2717e-19)
(0.422047 -0.114622 0)
(0.421159 -0.109507 0)
(0.420007 -0.104734 0)
(-0.0207773 0.0435818 -4.18924e-19)
(-0.0407322 0.0977852 0)
(-0.0405243 0.126107 0)
(-0.0243403 0.131391 0)
(0.00470516 0.118235 0)
(0.0431208 0.0913433 0)
(0.0876219 0.0552473 1.26129e-19)
(0.135207 0.0140348 -6.39883e-19)
(0.183245 -0.0287979 -3.86958e-19)
(0.229551 -0.0704298 -1.30613e-19)
(0.272448 -0.10875 0)
(0.310782 -0.142342 5.3091e-19)