/*--------------------------------*- C++ -*----------------------------------*\
  =========                 |
  \\      /  F ield         | OpenFOAM: The Open Source CFD Toolbox
   \\    /   O peration     | Website:  https://openfoam.org
    \\  /    A nd           | Version:  7
     \\/     M anipulation  |
\*---------------------------------------------------------------------------*/
FoamFile
{
    version     2.0;
    format      ascii;
    class       volScalarField;
    location    "50";
    object      p;
}
// * * * * * * * * * * * * * * * * * * * * * * * * * * * * * * * * * * * * * //

dimensions      [0 2 -2 0 0 0 0];

internalField   nonuniform List<scalar> 
2000
(
0.0387947
0.0387205
0.0389994
0.0393999
0.039888
0.0404415
0.0410453
0.0416909
0.0423658
0.0430944
0.0390706
0.0390376
0.0393709
0.0398361
0.0403869
0.040991
0.0416235
0.0422667
0.0428975
0.0435227
0.0392332
0.0392764
0.0396711
0.0402036
0.0408177
0.041474
0.0421406
0.0427938
0.0434038
0.0439461
0.0392763
0.0394322
0.0398925
0.0404898
0.0411609
0.0418625
0.0425594
0.0432252
0.0438321
0.0443157
0.0392007
0.0395054
0.040032
0.0406863
0.0414009
0.0421321
0.0428448
0.0435141
0.0441231
0.0445713
0.0390132
0.0395018
0.0400909
0.0407897
0.0415281
0.042265
0.0429688
0.0436188
0.0442159
0.0446437
0.0387325
0.0394275
0.0400745
0.0408013
0.0415386
0.0422503
0.0429117
0.0435079
0.0440591
0.0444633
0.0383783
0.0392945
0.0399901
0.0407244
0.0414314
0.042082
0.0426617
0.0431632
0.043624
0.0439817
0.0379738
0.0391161
0.039846
0.0405634
0.0412071
0.0417561
0.0422088
0.0425705
0.0428996
0.0431936
0.0375489
0.0389056
0.0396515
0.0403248
0.0408699
0.0412735
0.0415438
0.0416951
0.0418036
0.0419686
0.0452322
0.0496378
0.0544182
0.0594145
0.0640336
0.0685267
0.0719719
0.0756869
0.0770678
0.0790092
0.0453204
0.0491557
0.0533056
0.0578627
0.0621557
0.0663815
0.0695695
0.0730714
0.074426
0.0761987
0.0453304
0.0487599
0.0522081
0.0563214
0.0603058
0.0642865
0.0672513
0.0705743
0.0718542
0.0735207
0.0452091
0.0484382
0.0511302
0.0548023
0.0584891
0.0622365
0.0650123
0.0681731
0.0693733
0.0709719
0.0449156
0.0481363
0.0500797
0.0533194
0.0567148
0.0602427
0.0628588
0.0658755
0.0670143
0.0685578
0.0444271
0.0477566
0.0490666
0.0518774
0.0549764
0.0582913
0.0607621
0.0636468
0.0647487
0.0662571
0.0437415
0.047191
0.0480962
0.0504872
0.053299
0.056415
0.0587596
0.0615274
0.0626037
0.0640725
0.0428644
0.0463628
0.0471486
0.0491154
0.0516324
0.0545454
0.0567733
0.0594325
0.0605069
0.0619665
0.0418171
0.0452215
0.0461897
0.0478494
0.0501067
0.0528143
0.0549359
0.0574765
0.0585367
0.0599529
0.0408251
0.0438854
0.0450259
0.0464276
0.048433
0.0509395
0.052982
0.0554185
0.056541
0.0579616
0.0397204
0.0427449
0.0443962
0.0452232
0.0462677
0.0479032
0.0495488
0.0513692
0.0524169
0.0533725
0.031699
0.0344835
0.0366808
0.0384085
0.0399224
0.0415756
0.0431018
0.0445333
0.0453814
0.0459775
0.023311
0.025847
0.028101
0.0301845
0.0321377
0.0341763
0.0359329
0.037433
0.0382944
0.0388066
0.0150548
0.0172976
0.0195754
0.0218992
0.0242235
0.0266056
0.0285701
0.0301928
0.0311858
0.0318051
0.00760851
0.00944191
0.0115813
0.0139522
0.0165346
0.0192695
0.0215347
0.0233303
0.0244144
0.0250844
0.00161019
0.00300054
0.00486698
0.00715595
0.00981096
0.0126494
0.0150401
0.0169715
0.0181863
0.0189129
-0.00246521
-0.00159805
-0.0002322
0.0017814
0.00441996
0.00728355
0.00962457
0.0114713
0.0126477
0.0133819
-0.00436886
-0.00393548
-0.00312251
-0.00164608
0.000580747
0.00319467
0.00534573
0.00700271
0.00801737
0.00865835
-0.00432319
-0.00423816
-0.00383926
-0.00283278
-0.00120917
0.000731983
0.0022975
0.00350413
0.00420549
0.00468797
-0.00220121
-0.0023647
-0.00239068
-0.0020181
-0.001228
-0.000241389
0.000476161
0.00102544
0.00126183
0.00149075
0.0362143
0.0287621
0.0210511
0.0134736
0.00667175
0.00118684
-0.00251285
-0.00420407
-0.0040656
-0.0019912
0.0344797
0.0270489
0.0195612
0.0123046
0.00588081
0.000751109
-0.00264877
-0.00414971
-0.00392769
-0.00191158
0.0327053
0.0255827
0.0183555
0.0113924
0.00529002
0.000452623
-0.00270081
-0.00404631
-0.00375502
-0.00183771
0.0311264
0.0243618
0.0173933
0.0107141
0.00491235
0.000328931
-0.00262794
-0.00387171
-0.00354963
-0.00174665
0.0298257
0.0233893
0.0166674
0.0102459
0.00471323
0.000347202
-0.00244776
-0.00362742
-0.00331709
-0.00162883
0.0288503
0.0226718
0.0161799
0.00998438
0.00468836
0.000501596
-0.00217403
-0.00332337
-0.0030518
-0.00149303
0.0282092
0.0222087
0.0159229
0.00992377
0.00482628
0.000781446
-0.00181179
-0.00296247
-0.00275565
-0.00134125
0.0278867
0.0219916
0.0158889
0.0100486
0.00511424
0.00117546
-0.00136979
-0.00254968
-0.00243149
-0.0011753
0.0278742
0.0220025
0.0160582
0.0103429
0.00553589
0.00167014
-0.000858628
-0.00209166
-0.00208331
-0.000998456
0.0281268
0.0222237
0.0164088
0.0107842
0.00607117
0.00224945
-0.000290209
-0.00159628
-0.00171621
-0.000815219
0.0285806
0.0226091
0.0169012
0.0113397
0.00669422
0.00289427
0.000322078
-0.00107247
-0.00133612
-0.000630208
0.0291932
0.0231232
0.0175061
0.0119857
0.00738426
0.00358859
0.00096567
-0.000529488
-0.000949179
-0.000447759
0.0299416
0.0237481
0.0182059
0.0127081
0.00812648
0.00431962
0.00162945
2.38832e-05
-0.000561199
-0.000271647
0.0308
0.0244655
0.0189806
0.0134918
0.00890617
0.00507496
0.00230339
0.000579797
-0.000177066
-0.000104274
0.0317462
0.0252623
0.0198121
0.0143233
0.00971065
0.00584365
0.00297898
0.00113171
0.00019956
5.31122e-05
0.0327584
0.0261263
0.0206817
0.0151894
0.0105287
0.00661593
0.00364928
0.00167453
0.000566325
0.000200122
0.0337995
0.0270363
0.021568
0.0160754
0.0113505
0.00738372
0.00430917
0.00220473
0.00092214
0.000337297
0.0348618
0.0280118
0.0224879
0.0169923
0.0121837
0.00814961
0.00495923
0.00272185
0.00126755
0.00046593
0.0360857
0.0292017
0.0235378
0.0180042
0.0130695
0.00893513
0.00560948
0.00322981
0.00160527
0.000586837
0.0371225
0.0303791
0.0245285
0.0189738
0.0139251
0.00968789
0.00623535
0.00371761
0.00193317
0.000695965
0.0364068
0.0312046
0.0255951
0.0203522
0.0154193
0.0111529
0.0075741
0.00480116
0.00266899
0.000930486
0.0356714
0.0307646
0.0255776
0.0207862
0.0162125
0.0121929
0.00870067
0.00585197
0.00345365
0.00126297
0.0362346
0.0313798
0.0262896
0.0216379
0.0171472
0.0131814
0.00965572
0.00669566
0.00408133
0.00155378
0.0371217
0.0321848
0.027114
0.022512
0.0180386
0.0140595
0.0104645
0.007409
0.00464039
0.00184817
0.038508
0.0333126
0.028133
0.0234576
0.0189164
0.0148659
0.0111851
0.00805431
0.00517759
0.00215823
0.0403263
0.0347663
0.0293687
0.0244987
0.0198251
0.0156563
0.0118816
0.00867296
0.00569795
0.00246408
0.0424309
0.0364602
0.0307416
0.025597
0.0207649
0.0164567
0.0125827
0.00926166
0.00613587
0.00265008
0.0445308
0.0379106
0.031999
0.0266637
0.0217048
0.0172592
0.0132665
0.0097519
0.00636699
0.0026184
0.046069
0.0395691
0.033336
0.0276559
0.0225076
0.0179282
0.0138053
0.010049
0.00635662
0.00241036
0.0474436
0.040066
0.0336745
0.0280062
0.0228989
0.0183099
0.0141193
0.0101991
0.0063105
0.00226188
0.0397559
0.0392356
0.0397507
0.0405809
0.0421275
0.0441228
0.0463851
0.0492654
0.0504405
0.052699
0.0406206
0.0405539
0.0412316
0.0421849
0.0439128
0.0460562
0.0484666
0.0512963
0.0527627
0.0546901
0.0411004
0.0414462
0.0424475
0.043758
0.0458287
0.0482579
0.0509299
0.0536156
0.0554496
0.0567266
0.0417628
0.0423407
0.0435682
0.045224
0.0476085
0.0503186
0.0532605
0.0559991
0.0580827
0.0590854
0.0425711
0.0434049
0.0448112
0.0467368
0.0493547
0.0522817
0.0554459
0.0583657
0.0606269
0.0617012
0.043404
0.0445659
0.0462027
0.0483818
0.0511987
0.054305
0.0576474
0.0607637
0.0631771
0.0644449
0.0442477
0.0457557
0.0476848
0.0501414
0.0531705
0.056465
0.0599765
0.0632648
0.0658152
0.0672501
0.0451307
0.0469717
0.0492256
0.0519757
0.0552423
0.0587535
0.0624519
0.0659004
0.0685749
0.0701135
0.0460699
0.0482271
0.0508254
0.0538658
0.057387
0.0611376
0.0650471
0.0686632
0.0714561
0.0730553
0.0470678
0.0495204
0.0524885
0.0558051
0.0595941
0.0635944
0.0677345
0.0715332
0.0744472
0.0760914
0.0481261
0.0508355
0.0542119
0.0577839
0.0618599
0.0661128
0.0705005
0.0744964
0.0775394
0.079228
0.0492445
0.052148
0.0559832
0.0597855
0.0641759
0.0686841
0.0733379
0.0775447
0.080728
0.0824653
0.0503996
0.0534422
0.0577737
0.0617944
0.0665258
0.0713073
0.0762465
0.0806782
0.0840176
0.0858089
0.051549
0.054713
0.0595421
0.0638008
0.0688889
0.073979
0.0792189
0.0838951
0.0874144
0.089273
0.0526391
0.0559642
0.0612416
0.0657945
0.0712599
0.0767085
0.0822592
0.0871999
0.0909125
0.0928459
0.0536087
0.057196
0.0628414
0.0677985
0.0736065
0.0794336
0.0853281
0.0905668
0.0944968
0.0965179
0.0543853
0.0584365
0.0643664
0.0697382
0.0759044
0.0821401
0.0884231
0.0939961
0.0981696
0.100299
0.0549288
0.0596309
0.0657424
0.0715305
0.0780811
0.0847583
0.0914781
0.0974404
0.101907
0.104182
0.0552854
0.0607252
0.0670029
0.0732358
0.0802007
0.0873543
0.0945424
0.100929
0.105726
0.108193
0.0552146
0.0614109
0.0678491
0.0745057
0.0818817
0.0895568
0.0973104
0.104266
0.109536
0.112297
0.0569631
0.0649279
0.0717635
0.079263
0.0874439
0.09611
0.104912
0.112956
0.119166
0.122562
0.0660535
0.0737707
0.0810897
0.0899378
0.0995761
0.10989
0.120357
0.129896
0.137235
0.14118
0.07579
0.0840735
0.0924563
0.102856
0.114094
0.126243
0.138398
0.149322
0.157632
0.162112
0.0858434
0.0951471
0.105131
0.117322
0.130423
0.144675
0.158541
0.170812
0.179976
0.184773
0.0962157
0.106886
0.118751
0.132892
0.148088
0.16456
0.180092
0.19367
0.203557
0.208813
0.107234
0.119359
0.133277
0.149468
0.166895
0.185536
0.202647
0.217425
0.227707
0.232734
0.118357
0.132085
0.147974
0.166158
0.185777
0.206309
0.224901
0.240615
0.250931
0.256175
0.129344
0.144447
0.162158
0.182233
0.203907
0.226039
0.246227
0.262849
0.272706
0.275887
0.137434
0.153763
0.172851
0.194361
0.21757
0.240924
0.26262
0.279946
0.289275
0.293481
0.143292
0.160188
0.180232
0.202761
0.22705
0.251503
0.274999
0.295238
0.307636
0.295332
0.054556
0.0629643
0.0715756
0.0808796
0.0903253
0.100753
0.110902
0.121491
0.128811
0.134587
0.054127
0.0628754
0.0711954
0.0802255
0.0893318
0.0994405
0.109133
0.119348
0.125992
0.131565
0.054263
0.0635039
0.0717736
0.0807162
0.0896502
0.0994583
0.108717
0.118325
0.124131
0.129233
0.0541732
0.0635982
0.0717923
0.0806981
0.089501
0.0990801
0.107976
0.117102
0.12238
0.127027
0.0539968
0.0633808
0.0714667
0.0802471
0.0888633
0.098189
0.106737
0.115501
0.120508
0.124832
0.0538234
0.0631062
0.0711745
0.079769
0.0881726
0.0972054
0.105396
0.113834
0.118657
0.122756
0.0536352
0.0628504
0.0709428
0.0793966
0.0876317
0.0963899
0.104255
0.11238
0.117026
0.120938
0.0534275
0.0626159
0.0707329
0.0790916
0.0872394
0.095774
0.103402
0.111221
0.115731
0.11945
0.0532202
0.0624095
0.0705539
0.0788505
0.0869445
0.0953016
0.102839
0.110305
0.114798
0.118292
0.0530399
0.0622488
0.0704301
0.0786959
0.0867447
0.0949878
0.102462
0.109658
0.114169
0.117443
0.0529122
0.0621487
0.0703806
0.0786439
0.0866631
0.0948402
0.102255
0.109284
0.113795
0.116906
0.0528285
0.0620951
0.0704005
0.0786912
0.0867083
0.0948605
0.102238
0.109172
0.11367
0.116678
0.0527564
0.0620586
0.0704734
0.0788243
0.0868758
0.0950489
0.102427
0.109316
0.113808
0.116752
0.0526788
0.0620333
0.0705933
0.0790347
0.0871603
0.0954014
0.102819
0.109711
0.11421
0.117118
0.0525805
0.0620245
0.0707569
0.0793185
0.0875614
0.0959153
0.103417
0.110358
0.11488
0.117769
0.0524299
0.0620276
0.0709482
0.0796619
0.0880656
0.0965718
0.104202
0.111235
0.1158
0.118698
0.0521899
0.0620392
0.0711541
0.080059
0.0886725
0.0973764
0.105189
0.11235
0.116978
0.119904
0.0517813
0.0620078
0.0713171
0.0804536
0.0893188
0.0982606
0.106315
0.113647
0.118371
0.121381
0.051252
0.0620014
0.0714976
0.0809027
0.0900659
0.099288
0.107635
0.115168
0.120019
0.123138
0.0501401
0.0615858
0.0713225
0.0810326
0.0905292
0.100085
0.108834
0.116694
0.121792
0.125164
0.0509405
0.0630613
0.0730995
0.0833325
0.0935128
0.103659
0.113158
0.121528
0.127197
0.13082
0.0603888
0.071433
0.0810952
0.0919922
0.103084
0.114382
0.125182
0.134631
0.141126
0.144803
0.0702038
0.0813746
0.0916985
0.10378
0.116118
0.129053
0.141505
0.152408
0.159874
0.163779
0.0797055
0.0915905
0.103412
0.117275
0.131547
0.146916
0.161663
0.174735
0.183861
0.188448
0.0888622
0.101982
0.115798
0.131793
0.148619
0.167122
0.184926
0.201272
0.213247
0.219451
0.0979554
0.112599
0.128769
0.147154
0.16713
0.189302
0.211047
0.232116
0.248986
0.259201
0.106467
0.122931
0.141335
0.162335
0.185829
0.21184
0.238609
0.26631
0.291155
0.310314
0.114697
0.132729
0.153333
0.177068
0.204046
0.234168
0.267326
0.303864
0.341583
0.379677
0.119266
0.13856
0.160838
0.186633
0.216634
0.251224
0.291858
0.339984
0.398825
0.470763
0.122796
0.144188
0.168171
0.196152
0.229457
0.269273
0.318351
0.381337
0.470268
0.589457
0.0474157
0.0561151
0.0643057
0.072976
0.0811422
0.0898077
0.0969115
0.104798
0.108827
0.11065
0.0464879
0.0551883
0.0632351
0.0714832
0.0791936
0.0875337
0.0940416
0.101701
0.105248
0.10756
0.0461913
0.0550341
0.0630977
0.0710855
0.0784336
0.0863124
0.0923043
0.0994799
0.102441
0.106018
0.0458318
0.0545175
0.0623928
0.0701671
0.0772043
0.0846532
0.0902158
0.0968947
0.0993974
0.103642
0.0455012
0.0537648
0.0612576
0.0687685
0.0754413
0.082441
0.0875889
0.0938087
0.0959286
0.100126
0.0452677
0.0529956
0.0600886
0.0671895
0.0735373
0.0800331
0.0847619
0.0905246
0.0922857
0.096056
0.0451196
0.0522504
0.0589616
0.0656144
0.071633
0.0776572
0.082014
0.0873113
0.0887578
0.092043
0.0450493
0.0515268
0.0578336
0.06407
0.0697325
0.0753054
0.0794272
0.0842507
0.085494
0.0883746
0.0450562
0.0508371
0.0566905
0.0625257
0.0678313
0.0729895
0.0769232
0.0812921
0.0825155
0.0850518
0.0451272
0.0502013
0.0555472
0.0609707
0.0659295
0.0707274
0.0744337
0.0784266
0.0797493
0.0819513
0.0371339
0.0386788
0.039419
0.0400207
0.0404354
0.0406564
0.0406966
0.0405592
0.0402515
0.0396489
0.0367682
0.0384575
0.0391674
0.0396728
0.0399345
0.0399559
0.0397614
0.0393633
0.0387922
0.0380351
0.036488
0.0382638
0.0389207
0.0393119
0.0394102
0.039232
0.0388173
0.0381959
0.0374258
0.0365324
0.0363318
0.038126
0.0387115
0.0389789
0.0389144
0.0385488
0.0379375
0.0371255
0.0361869
0.0351402
0.0363391
0.0380779
0.0385786
0.03872
0.0385019
0.037969
0.0371891
0.0362192
0.035139
0.0339472
0.0365464
0.038155
0.0385627
0.0385812
0.038223
0.0375451
0.0366244
0.0355258
0.0343273
0.0330102
0.036984
0.0383917
0.0387013
0.0386017
0.0381167
0.0373139
0.0362764
0.0350731
0.0337762
0.0323586
0.0376735
0.0388169
0.0390232
0.0388086
0.0382069
0.0372945
0.0361584
0.0348691
0.0334912
0.0319989
0.0386222
0.0394487
0.0395444
0.0392138
0.0385004
0.0374888
0.0362672
0.0349056
0.033461
0.0319095
0.0398063
0.040284
0.0402621
0.0398115
0.0389877
0.0378828
0.036585
0.0351626
0.0336641
0.0320697
0.0411636
0.0412949
0.0411558
0.0405808
0.0396466
0.038452
0.0370844
0.0356095
0.0340699
0.0324524
0.0427359
0.0424873
0.042208
0.041495
0.0404454
0.0391625
0.0377305
0.036211
0.0346428
0.033016
0.0444541
0.0438106
0.0433733
0.0425122
0.0413447
0.0399765
0.038486
0.03693
0.0353453
0.0337216
0.0462462
0.0452084
0.0446009
0.0435856
0.0423009
0.0408525
0.0393111
0.0377277
0.0361392
0.0345318
0.0480407
0.0466202
0.045836
0.0446657
0.043269
0.0417486
0.040166
0.038566
0.0369875
0.0354123
0.0497618
0.0479819
0.0470222
0.0457036
0.0442053
0.0426249
0.0410134
0.0394091
0.0378556
0.036331
0.0513342
0.0492293
0.0481056
0.046654
0.0450704
0.0434459
0.0418201
0.040225
0.03871
0.0372516
0.0526865
0.0503028
0.0490381
0.0474778
0.0458314
0.0441824
0.0425598
0.040986
0.0395151
0.0381308
0.0537561
0.0511505
0.0497791
0.0481442
0.0464638
0.0448139
0.0432119
0.0416647
0.040227
0.0389333
0.0544913
0.0517303
0.0502974
0.0486316
0.0469544
0.0453337
0.0437742
0.042257
0.0408397
0.0396695
0.0548538
0.0520115
0.0505705
0.0489252
0.0472981
0.0457544
0.0442988
0.0429077
0.0416514
0.0408283
0.0548168
0.0519722
0.050581
0.0490099
0.0474771
0.0460435
0.0447133
0.0434603
0.0423304
0.0415697
0.0543692
0.0516059
0.0503232
0.0488781
0.0474797
0.0461843
0.0449954
0.0438884
0.0428846
0.0421495
0.0535212
0.0509201
0.0498023
0.0485327
0.0473077
0.0461809
0.0451569
0.0442154
0.0433647
0.042722
0.0523007
0.0499358
0.0490348
0.0479872
0.0469734
0.0460459
0.0452124
0.0444573
0.0437807
0.0432742
0.0507511
0.0486863
0.0480469
0.0472637
0.0464962
0.045797
0.0451783
0.0446293
0.0441444
0.0437952
0.0489281
0.0472141
0.0468727
0.0463901
0.0459003
0.0454556
0.0450734
0.0447488
0.0444736
0.0443006
0.0468949
0.0455676
0.0455508
0.0453978
0.0452119
0.045044
0.044917
0.0448326
0.0447837
0.0448073
0.0447194
0.0437976
0.0441213
0.0443188
0.0444572
0.0445837
0.0447267
0.0448951
0.0450857
0.0453247
0.0424846
0.04196
0.0426255
0.0431843
0.0436602
0.0440937
0.0445174
0.0449477
0.0453872
0.0458568
0.0403006
0.0401246
0.0411105
0.0420273
0.042845
0.0435915
0.0443019
0.0449992
0.0456926
0.0464038
0.0381172
0.038295
0.0395947
0.0408656
0.0420256
0.0430871
0.0440864
0.0450518
0.0459996
0.0469593
0.0360027
0.0365168
0.0381096
0.0397205
0.0412161
0.0425891
0.0438747
0.045105
0.046301
0.0475076
0.0340106
0.0348302
0.0366824
0.0386097
0.040427
0.0421022
0.0436666
0.045154
0.0465856
0.0480261
0.0321746
0.0332632
0.0353311
0.0375461
0.0396649
0.0416278
0.0434594
0.0451923
0.0468416
0.048489
0.0305186
0.0318391
0.0340685
0.0365387
0.0389338
0.0411653
0.0432487
0.0452136
0.0470617
0.048872
0.029056
0.0305637
0.0329164
0.0355955
0.038235
0.0407133
0.0430305
0.045214
0.0472501
0.0491635
0.0277947
0.0294469
0.0318798
0.0347215
0.0375697
0.0402694
0.0428016
0.0451895
0.0474083
0.0493978
0.0267368
0.0284939
0.0309624
0.0339188
0.0369373
0.0398312
0.0425616
0.0451463
0.0475442
0.049664
0.0258799
0.0277057
0.0301669
0.0331887
0.0363351
0.0393915
0.042297
0.0450677
0.0476839
0.0500109
0.0252147
0.0270776
0.0294925
0.0325307
0.03576
0.0389445
0.0420037
0.0449614
0.0479267
0.0508493
0.0247083
0.0265947
0.0289347
0.0319438
0.0352065
0.0384695
0.0416243
0.0446577
0.0476585
0.0505781
0.0243695
0.026258
0.0284947
0.0314304
0.0346763
0.0379657
0.0411627
0.0442188
0.0471858
0.0500328
0.0241914
0.026061
0.0281712
0.0309954
0.0341807
0.0374562
0.0406668
0.0437446
0.0467184
0.0495423
0.0241591
0.0259925
0.027961
0.0306437
0.0337328
0.0369631
0.0401667
0.0432612
0.0462564
0.0490878
0.024257
0.0260409
0.0278593
0.0303785
0.0333421
0.0364997
0.0396756
0.0427726
0.0457818
0.0486323
0.02447
0.026194
0.0278598
0.0302008
0.0330153
0.0360756
0.0392037
0.0422886
0.0453022
0.0481732
0.0247824
0.0264387
0.0279545
0.0301092
0.0327568
0.035699
0.0387612
0.0418209
0.044831
0.0477202
0.0251796
0.0267615
0.0281333
0.0300999
0.0325688
0.035376
0.0383561
0.0413787
0.0443779
0.0472835
0.0256547
0.0271544
0.0283887
0.030169
0.0324517
0.0351102
0.0379937
0.0409677
0.0439495
0.0468711
0.0262127
0.0276222
0.0287246
0.0303208
0.0324115
0.0349087
0.037681
0.040594
0.0435506
0.0464874
0.0267965
0.0281205
0.0291063
0.0305314
0.0324344
0.0347653
0.0374159
0.0402572
0.0431797
0.0461259
0.027408
0.028649
0.0295301
0.0307964
0.0325172
0.0346784
0.0371976
0.0399555
0.0428323
0.0457753
0.0280447
0.0292037
0.0299901
0.0311095
0.032655
0.0346449
0.0370238
0.0396858
0.0425031
0.0454263
0.0286998
0.0297772
0.030478
0.0314628
0.0328418
0.0346613
0.0368926
0.0394463
0.0421881
0.0450704
0.0293674
0.0303633
0.0309868
0.0318493
0.0330722
0.0347246
0.0368031
0.0392364
0.0418842
0.0446968
0.0300433
0.0309574
0.0315108
0.0322632
0.0333413
0.0348322
0.0367552
0.0390581
0.0415928
0.0442985
0.0307244
0.0315561
0.0320459
0.0326996
0.0336452
0.0349823
0.0367501
0.0389168
0.0413233
0.0438759
0.0314088
0.0321572
0.0325891
0.0331551
0.0339809
0.0351736
0.0367898
0.038822
0.0411048
0.0434719
0.0320951
0.0327591
0.0331383
0.0336271
0.0343458
0.0354049
0.0368729
0.0387693
0.0409591
0.0431603
0.0327829
0.0333606
0.0336917
0.034113
0.0347374
0.0356762
0.0370072
0.0387884
0.0410575
0.0435789
0.0334716
0.0339593
0.0342473
0.0346114
0.035154
0.0359807
0.0371685
0.0387697
0.0408426
0.0432005
0.0341598
0.0345557
0.0348058
0.0351227
0.0355953
0.0363184
0.0373629
0.0387718
0.0405943
0.0427099
0.0348444
0.0351479
0.0353665
0.035647
0.0360636
0.036698
0.0376146
0.0388559
0.0404681
0.0423565
0.0355205
0.0357331
0.0359276
0.0361836
0.0365602
0.0371247
0.0379334
0.0390288
0.0404547
0.0421354
0.0361808
0.0363066
0.036486
0.0367307
0.0370843
0.0375985
0.0383199
0.0392874
0.0405403
0.042029
0.0368149
0.0368625
0.0370372
0.0372846
0.0376325
0.0381167
0.0387722
0.0396314
0.0407269
0.0420361
0.0374098
0.0373924
0.0375741
0.037839
0.0381988
0.0386733
0.039285
0.0400573
0.041014
0.0421566
0.0379499
0.0378861
0.0380871
0.0383844
0.0387729
0.0392573
0.039847
0.0405552
0.0413943
0.0423839
0.0384177
0.0383325
0.0385659
0.038909
0.0393413
0.0398531
0.0404412
0.0411076
0.0418524
0.0427035
)
;

boundaryField
{
    inlet
    {
        type            zeroGradient;
    }
    outlet
    {
        type            fixedValue;
        value           uniform 0;
    }
    cylinder
    {
        type            zeroGradient;
    }
    top
    {
        type            symmetryPlane;
    }
    bottom
    {
        type            symmetryPlane;
    }
    defaultFaces
    {
        type            empty;
    }
}


// ************************************************************************* //
