/*--------------------------------*- C++ -*----------------------------------*\
  =========                 |
  \\      /  F ield         | OpenFOAM: The Open Source CFD Toolbox
   \\    /   O peration     | Website:  https://openfoam.org
    \\  /    A nd           | Version:  7
     \\/     M anipulation  |
\*---------------------------------------------------------------------------*/
FoamFile
{
    version     2.0;
    format      ascii;
    class       volVectorField;
    location    "50";
    object      U;
}
// * * * * * * * * * * * * * * * * * * * * * * * * * * * * * * * * * * * * * //

dimensions      [0 1 -1 0 0 0 0];

internalField   nonuniform List<vector> 
2000
(
(-0.00145774 -0.0032987 -9.41919e-22)
(-0.00382129 -0.00302491 0)
(-0.00519515 0.00103924 0)
(-0.00454303 0.00790673 -4.66044e-21)
(-0.00198726 0.0172729 1.47376e-21)
(0.00229768 0.0290696 3.88521e-23)
(0.00809097 0.0432469 -2.5434e-21)
(0.0151048 0.0596652 0)
(0.022904 0.0780398 0)
(0.0309666 0.0978868 0)
(-0.00142669 -0.00213407 0)
(-0.00383944 -0.00200361 -3.61638e-21)
(-0.00540257 0.00110872 3.33506e-21)
(-0.00518425 0.00662703 6.21443e-21)
(-0.00332754 0.0143865 0)
(1.13896e-05 0.0244004 5.54548e-21)
(0.00467311 0.0367106 -5.15679e-21)
(0.0104638 0.0513091 0)
(0.0170429 0.0680929 9.42995e-21)
(0.0238877 0.0868449 -1.81913e-20)
(-0.00146128 -0.000981664 0)
(-0.00357904 -0.00102708 2.90431e-20)
(-0.00476664 0.00120253 0)
(-0.00439897 0.00548971 2.53134e-20)
(-0.0026897 0.0117706 0)
(0.000182069 0.0200917 -2.23771e-20)
(0.00408415 0.0305384 0)
(0.0088961 0.0431989 2.00849e-20)
(0.0143909 0.0581484 -1.88102e-20)
(0.0200211 0.0754741 -1.84273e-20)
(-0.00150939 4.08821e-05 -7.64156e-21)
(-0.0029129 -0.000243519 -1.44656e-20)
(-0.0030982 0.00122906 -6.74713e-21)
(-0.00193557 0.00449822 -1.25079e-20)
(0.00025205 0.00956046 -1.18278e-20)
(0.00322814 0.016447 1.10437e-20)
(0.00685384 0.0252309 1.0538e-20)
(0.0110522 0.0360397 -7.22826e-23)
(0.0157232 0.0490923 1.8997e-20)
(0.0203021 0.0647712 1.84222e-20)
(-0.00148927 0.000816939 -7.61208e-21)
(-0.00168652 0.00020478 -1.46713e-20)
(-0.000211216 0.00109371 -2.74637e-20)
(0.00241374 0.0036337 1.26573e-20)
(0.00573328 0.00784462 0)
(0.00943203 0.0137032 0)
(0.0133396 0.0212181 -2.1559e-20)
(0.0173906 0.0304887 -2.03937e-20)
(0.0216141 0.0418123 1.92776e-20)
(0.0254937 0.055798 5.58639e-20)
(-0.00129185 0.00124645 7.62184e-21)
(0.000271051 0.000206263 7.43993e-21)
(0.00405801 0.000714204 -4.08301e-20)
(0.00877883 0.00285734 6.40919e-20)
(0.0138417 0.00664521 -1.19233e-20)
(0.0188478 0.0119742 0)
(0.0235869 0.0187535 0)
(0.0279838 0.026993 1.01831e-19)
(0.0321801 0.0369833 -9.6386e-20)
(0.0358391 0.0494481 1.84738e-20)
(-0.000788928 0.00126817 5.98963e-20)
(0.0031382 -0.000304455 0)
(0.00983134 3.9483e-05 5.45538e-20)
(0.017185 0.0021267 -5.11832e-20)
(0.0244764 0.00592101 0)
(0.0312366 0.0112257 2.28606e-20)
(0.0372283 0.0178398 -6.39852e-20)
(0.0423643 0.0256469 -8.1401e-20)
(0.0468688 0.0348454 3.82124e-20)
(0.0507434 0.0461615 3.70857e-20)
(0.000149595 0.000868746 -1.19209e-19)
(0.00707879 -0.00132845 -1.46245e-20)
(0.0171737 -0.00092596 -2.71151e-20)
(0.0275348 0.00141956 -6.36488e-20)
(0.0373317 0.00558984 -2.41928e-20)
(0.0460561 0.0112915 -2.25975e-20)
(0.053472 0.0182263 3.50967e-22)
(0.0594996 0.0261534 0)
(0.0644149 0.0351207 0)
(0.068691 0.0457612 -1.03439e-22)
(0.00165122 7.77354e-05 5.9314e-20)
(0.0122192 -0.00278446 -5.75816e-20)
(0.0260677 -0.00210807 4.06543e-20)
(0.0395926 0.00075144 8.92468e-20)
(0.0519033 0.00555411 -2.36877e-20)
(0.0625063 0.0119113 2.29737e-20)
(0.0712135 0.0194604 2.14151e-20)
(0.0779793 0.0278899 0)
(0.083079 0.0371196 0)
(0.0874785 0.0476312 -6.10479e-22)
(0.00382435 -0.00102304 -7.2939e-21)
(0.0186256 -0.00451097 7.20828e-20)
(0.0363875 -0.00336566 -1.33638e-20)
(0.0529699 0.000176456 0)
(0.0675025 0.00571155 0)
(0.079599 0.012758 4.45824e-20)
(0.0892121 0.020929 0)
(0.0964158 0.0299379 -3.89082e-20)
(0.101446 0.0397352 -1.19124e-22)
(0.10528 0.0507727 3.47386e-20)
(0.050824 0.144256 7.27486e-22)
(0.0756138 0.224761 -7.36392e-22)
(0.0800511 0.288472 -8.43461e-22)
(0.075177 0.345902 -9.26412e-22)
(0.0636979 0.406157 -1.05658e-21)
(0.0547833 0.474581 -1.87996e-23)
(0.0383846 0.554396 5.49418e-22)
(0.0326521 0.648333 1.8227e-21)
(0.00798589 0.768066 0)
(0.0103374 0.905188 -1.2959e-21)
(0.0409154 0.132705 2.70349e-21)
(0.0687821 0.217271 -3.19054e-21)
(0.076449 0.286639 5.71846e-21)
(0.0729496 0.346874 9.2803e-22)
(0.0620442 0.408229 1.95416e-21)
(0.0533964 0.477099 3.18793e-21)
(0.0374076 0.55726 -1.14832e-21)
(0.0317495 0.65155 -1.21703e-21)
(0.00790547 0.771232 2.41373e-21)
(0.009876 0.9074 1.29281e-21)
(0.0330259 0.120106 0)
(0.0622028 0.207223 -3.04357e-21)
(0.0732267 0.282947 -1.6636e-21)
(0.071178 0.346573 0)
(0.0607938 0.409292 -5.94272e-21)
(0.0523522 0.478733 1.90872e-21)
(0.0366636 0.559339 2.05446e-21)
(0.0310101 0.654139 6.78291e-21)
(0.00790133 0.774114 -2.40593e-21)
(0.00946562 0.909529 4.792e-21)
(0.0283648 0.107343 0)
(0.0560383 0.194732 3.0694e-21)
(0.0703545 0.277265 0)
(0.0698232 0.344894 7.23029e-21)
(0.0599329 0.409264 -7.26746e-21)
(0.0516477 0.479344 -4.10235e-21)
(0.0361692 0.560345 -1.62233e-22)
(0.0304684 0.655617 -6.64483e-21)
(0.00798871 0.776025 -1.10281e-21)
(0.00908154 0.911149 -5.91507e-21)
(0.0282801 0.0954332 4.76491e-22)
(0.0506807 0.18027 -8.67691e-21)
(0.0678075 0.269482 3.32063e-22)
(0.0688329 0.341774 -6.64101e-21)
(0.0594325 0.408283 0)
(0.0512336 0.479261 -3.97376e-21)
(0.035852 0.560856 -1.82304e-22)
(0.0300503 0.65686 8.52645e-21)
(0.00811876 0.777962 1.10254e-21)
(0.00874368 0.912872 -1.10645e-21)
(0.0337708 0.0853781 -2.34142e-20)
(0.0468404 0.164745 1.50537e-20)
(0.0655955 0.259565 6.53868e-21)
(0.0681749 0.337019 -6.53527e-21)
(0.0592853 0.405993 -3.50241e-21)
(0.0511524 0.477895 0)
(0.0357988 0.55995 -7.88206e-21)
(0.0298373 0.656527 3.91367e-21)
(0.00833673 0.778445 4.14425e-21)
(0.00841319 0.913877 4.20851e-21)
(0.0449223 0.0779471 -2.85354e-21)
(0.0455267 0.14939 0)
(0.0637888 0.247608 0)
(0.0677943 0.330872 0)
(0.0594357 0.403149 -3.61731e-21)
(0.0512741 0.476487 7.10868e-21)
(0.035829 0.559396 7.73505e-21)
(0.0296669 0.656912 -1.17687e-20)
(0.00854871 0.779781 2.02576e-21)
(0.0081396 0.915363 -6.17433e-21)
(0.0606161 0.0733432 1.76032e-20)
(0.0477796 0.135512 1.25916e-20)
(0.0626426 0.233861 -1.2479e-20)
(0.0677171 0.32241 1.33235e-20)
(0.0599102 0.397975 -1.65367e-20)
(0.0518094 0.472676 0)
(0.0362273 0.556146 -3.5959e-21)
(0.029764 0.654374 1.29319e-22)
(0.0088777 0.778596 -3.76805e-21)
(0.00784416 0.915726 -3.83112e-21)
(0.078629 0.0707496 -1.48794e-20)
(0.0541933 0.123474 0)
(0.0623708 0.219576 -1.43369e-20)
(0.0678905 0.314301 2.57311e-20)
(0.0605499 0.394439 -9.58121e-21)
(0.0522701 0.471263 -1.68923e-21)
(0.0364652 0.555819 3.58835e-21)
(0.0297443 0.65502 2.82559e-23)
(0.00911386 0.780064 5.50128e-21)
(0.00763285 0.917246 5.6023e-21)
(0.0958094 0.0692744 -1.23266e-20)
(0.064771 0.112067 1.20687e-20)
(0.0640154 0.200613 1.5703e-21)
(0.0683984 0.298562 0)
(0.0616667 0.383329 0)
(0.0536402 0.462762 1.62435e-21)
(0.0374587 0.54845 6.59662e-21)
(0.0302049 0.649024 -6.4047e-21)
(0.00957326 0.77654 -1.63879e-21)
(0.00734931 0.916872 1.58886e-21)
(0.11753 0.0800833 0)
(0.0868357 0.114772 0)
(0.0729674 0.190747 0)
(0.0722056 0.293573 0)
(0.063428 0.386014 0)
(0.0539302 0.469459 0)
(0.0377278 0.556246 0)
(0.0300837 0.65709 0)
(0.00997241 0.783314 0)
(0.00702564 0.921532 0)
(0.125737 0.102976 0)
(0.105492 0.145286 0)
(0.0852595 0.207179 0)
(0.0781092 0.3012 0)
(0.0676326 0.395425 0)
(0.0554622 0.480231 0)
(0.0374295 0.56688 0)
(0.0281542 0.668893 0)
(0.00932841 0.795316 0)
(0.00628119 0.929535 0)
(0.121742 0.111091 0)
(0.110683 0.164162 0)
(0.0918512 0.225288 0)
(0.0804368 0.314634 0)
(0.0687956 0.410064 0)
(0.0566851 0.496742 0)
(0.0394987 0.582856 0)
(0.0294415 0.682196 0)
(0.0105953 0.805954 0)
(0.00624479 0.936771 0)
(0.11013 0.114268 0)
(0.105464 0.175485 0)
(0.0920504 0.239829 0)
(0.0807647 0.327603 0)
(0.0681066 0.423256 0)
(0.0541816 0.509993 0)
(0.0364803 0.596028 0)
(0.0266298 0.696358 0)
(0.00975362 0.819327 0)
(0.0056189 0.945497 0)
(0.0941351 0.11496 0)
(0.0929736 0.182111 0)
(0.0842137 0.250839 0)
(0.0753679 0.339558 0)
(0.0653008 0.437656 0)
(0.0540765 0.526757 0)
(0.037748 0.611444 0)
(0.0270518 0.708357 0)
(0.0101546 0.829004 0)
(0.0053997 0.952332 0)
(0.0750675 0.11406 0)
(0.0766671 0.184996 0)
(0.0728855 0.258928 0)
(0.0666498 0.349481 0)
(0.0568056 0.447835 0)
(0.0457397 0.53769 0)
(0.0317644 0.62404 0)
(0.0233711 0.722559 0)
(0.00896282 0.842125 0)
(0.00473948 0.961014 0)
(0.0550357 0.111431 0)
(0.05731 0.183331 0)
(0.0572657 0.260917 0)
(0.0565353 0.35554 0)
(0.052202 0.458595 0)
(0.0442973 0.551086 0)
(0.0309515 0.635763 0)
(0.0221149 0.731395 0)
(0.00841694 0.849449 0)
(0.00437396 0.966198 0)
(0.0364525 0.109088 0)
(0.0389887 0.182994 0)
(0.0397182 0.26318 0)
(0.0395885 0.358091 0)
(0.0371233 0.46118 0)
(0.0329337 0.556752 0)
(0.0242966 0.645742 0)
(0.0182737 0.743892 0)
(0.00696364 0.86124 0)
(0.00364581 0.973935 0)
(0.0192337 0.103306 0)
(0.0225708 0.176339 0)
(0.0274126 0.259325 0)
(0.032245 0.359493 0)
(0.0336688 0.467865 0)
(0.030741 0.564722 0)
(0.0223539 0.651839 0)
(0.0166853 0.748222 0)
(0.00627418 0.865004 0)
(0.00334176 0.97651 0)
(0.00259953 0.103696 0)
(0.00127889 0.174627 0)
(0.00376825 0.252423 0)
(0.0101415 0.349083 0)
(0.0172295 0.459762 0)
(0.0208578 0.564898 0)
(0.0172237 0.659201 0)
(0.0135216 0.758958 0)
(0.00509971 0.875453 0)
(0.00271681 0.983184 0)
(0.136174 0.0625539 9.36593e-21)
(0.136375 0.0708972 -9.23439e-21)
(0.12802 0.0719266 7.07688e-22)
(0.113625 0.0710273 0)
(0.0953662 0.0689141 0)
(0.0742715 0.0668499 3.21167e-23)
(0.0528075 0.0641719 4.36895e-22)
(0.0333076 0.0617832 -4.30097e-22)
(0.0165485 0.0575227 -9.5642e-23)
(0.00248665 0.0576286 9.41127e-23)
(0.138896 0.0547134 -1.26845e-20)
(0.133871 0.0580042 0)
(0.123829 0.0559218 3.64145e-21)
(0.109048 0.0531612 -6.70238e-21)
(0.091196 0.049682 2.76894e-21)
(0.0708676 0.0468891 -3.15755e-23)
(0.0503407 0.0439589 -1.71592e-22)
(0.0316014 0.0415041 -5.15379e-22)
(0.0156417 0.0377636 -7.90443e-23)
(0.00246226 0.0374707 -2.55915e-23)
(0.139521 0.0458427 1.40492e-20)
(0.131729 0.0449613 -5.91749e-21)
(0.120877 0.0403298 5.85987e-21)
(0.105709 0.0357978 -2.20441e-21)
(0.0879634 0.0307936 1.8185e-21)
(0.0680638 0.0270023 0)
(0.0482032 0.0234957 1.71984e-22)
(0.0301033 0.0208074 8.86026e-24)
(0.0148808 0.017449 2.43125e-22)
(0.00248121 0.0166942 1.17999e-22)
(0.13858 0.0351723 -2.10326e-21)
(0.128674 0.0306732 0)
(0.117435 0.0239271 0)
(0.102191 0.0179482 0)
(0.0848088 0.0116235 6.53693e-22)
(0.0654857 0.00695809 -3.39344e-22)
(0.0463089 0.00284635 4.58273e-23)
(0.0288088 -0.000132703 2.86262e-22)
(0.0141999 -0.00328165 8.46965e-23)
(0.00243864 -0.00452131 2.31292e-23)
(0.136242 0.0229708 -1.64838e-21)
(0.124908 0.0154265 -5.40252e-21)
(0.113594 0.00682767 -1.74196e-21)
(0.0984361 -0.000357991 1.74057e-21)
(0.0815465 -0.00783893 -3.11103e-22)
(0.0629034 -0.013225 0)
(0.044454 -0.0178986 1.63885e-22)
(0.0276015 -0.0211796 -4.6618e-22)
(0.0135496 -0.0242768 2.24108e-22)
(0.00239422 -0.0259595 -1.08759e-22)
(0.132773 0.00958614 -1.46727e-20)
(0.120604 -0.000409017 2.62808e-21)
(0.109461 -0.010695 8.12151e-22)
(0.0945414 -0.0188884 1.67872e-21)
(0.0782318 -0.0274077 0)
(0.0603188 -0.0333895 0)
(0.0426083 -0.0385893 0)
(0.0264248 -0.042183 -2.03866e-22)
(0.0128882 -0.0453474 0)
(0.00231434 -0.0473721 0)
(0.128357 -0.00464403 0)
(0.11586 -0.0164825 3.8027e-21)
(0.105085 -0.0283519 -2.41922e-21)
(0.0905232 -0.0373684 -9.40329e-22)
(0.0748769 -0.0468385 9.45116e-22)
(0.0577275 -0.0533334 -3.32812e-23)
(0.040768 -0.0590412 -1.81275e-23)
(0.0252439 -0.0629542 6.32683e-22)
(0.0121841 -0.0662558 -6.00676e-23)
(0.0021799 -0.0684841 4.9e-23)
(0.123147 -0.0194075 0)
(0.110737 -0.0324734 -1.38378e-21)
(0.100494 -0.0458595 -5.03499e-22)
(0.0863894 -0.055525 0)
(0.0714854 -0.0658811 3.06766e-23)
(0.0551203 -0.0728352 -2.48063e-22)
(0.0389016 -0.0790397 -1.66736e-22)
(0.0240235 -0.0832719 -1.15988e-22)
(0.0114249 -0.086727 7.42505e-23)
(0.00199605 -0.0890043 -8.31293e-23)
(0.117227 -0.0344181 1.91282e-21)
(0.105305 -0.0480999 1.18459e-21)
(0.0957029 -0.0629604 -4.38188e-22)
(0.0821532 -0.073113 1.67125e-22)
(0.0680414 -0.0842923 1.69878e-22)
(0.0524791 -0.091673 7.72761e-23)
(0.0369842 -0.0983545 9.32145e-24)
(0.0227449 -0.102892 3.01678e-23)
(0.0106141 -0.106466 -7.44932e-23)
(0.00177824 -0.108646 -1.50394e-23)
(0.110702 -0.0493864 -3.87055e-22)
(0.0996208 -0.0631459 3.90686e-22)
(0.0907382 -0.0794234 -2.54181e-22)
(0.077831 -0.0899246 -1.66865e-22)
(0.0645363 -0.101852 6.62544e-23)
(0.0497948 -0.10964 -9.83619e-23)
(0.0350064 -0.116754 -1.69874e-23)
(0.0214094 -0.121565 -2.24655e-23)
(0.00976823 -0.125186 0)
(0.0015445 -0.127151 1.50674e-23)
(0.103847 -0.0640629 3.93779e-22)
(0.0938029 -0.077456 -3.97159e-22)
(0.0856891 -0.0950637 -2.69367e-22)
(0.0734968 -0.105803 -1.84233e-22)
(0.0609982 -0.118373 -7.63551e-23)
(0.0470855 -0.126557 2.49118e-23)
(0.0329795 -0.134023 1.35064e-23)
(0.0200355 -0.139062 -1.61966e-23)
(0.00891209 -0.142635 0)
(0.00131131 -0.144314 8.95268e-24)
(0.0969599 -0.0782859 0)
(0.0880405 -0.0909324 -1.2642e-21)
(0.080684 -0.109732 2.10482e-21)
(0.0692549 -0.120639 1.84499e-22)
(0.0574812 -0.133699 2.4744e-22)
(0.0443895 -0.142282 1.7937e-22)
(0.0309331 -0.149984 -1.04481e-23)
(0.0186529 -0.155202 1.31012e-23)
(0.00807277 -0.158629 -2.4919e-23)
(0.00109041 -0.16 -8.92939e-24)
(0.0902236 -0.0919529 0)
(0.0824517 -0.103543 -1.50878e-21)
(0.0757908 -0.123314 -5.62671e-22)
(0.0651672 -0.134377 0)
(0.0540283 -0.147722 -6.45426e-22)
(0.0417428 -0.156719 2.73115e-22)
(0.0289059 -0.164513 1.00779e-22)
(0.0172954 -0.169872 4.66904e-23)
(0.00727552 -0.173066 2.48377e-23)
(0.000889756 -0.174153 -1.23998e-23)
(0.0837401 -0.104994 0)
(0.0770984 -0.115338 1.52122e-21)
(0.0710352 -0.135738 0)
(0.0612623 -0.147029 1.42751e-21)
(0.0506727 -0.160392 -1.43496e-21)
(0.0391752 -0.169838 -2.37554e-22)
(0.0269383 -0.177562 1.11421e-22)
(0.0159938 -0.183038 -6.88837e-23)
(0.00654074 -0.185933 -8.87924e-24)
(0.000713803 -0.186792 1.46165e-23)
(0.077593 -0.11736 1.60986e-20)
(0.0720465 -0.126445 -6.03798e-21)
(0.0664536 -0.146981 -6.99731e-22)
(0.0575679 -0.158662 -2.18908e-21)
(0.0474553 -0.171725 0)
(0.0367145 -0.181669 -2.84412e-22)
(0.0250687 -0.189161 1.52336e-22)
(0.0147721 -0.194748 1.88795e-22)
(0.0058823 -0.197297 2.05374e-24)
(0.000562566 -0.198006 -2.04921e-24)
(0.0718391 -0.128993 1.57497e-21)
(0.0673746 -0.137066 9.28359e-21)
(0.0621101 -0.157064 2.31966e-21)
(0.0541188 -0.169388 -2.31836e-21)
(0.0444293 -0.181806 -7.06936e-22)
(0.0343889 -0.192297 0)
(0.0233306 -0.199408 -4.28829e-22)
(0.0136465 -0.205115 2.24734e-22)
(0.00530791 -0.207292 7.23131e-23)
(0.00043323 -0.207933 1.72444e-23)
(0.0665742 -0.139792 -2.27878e-21)
(0.0632275 -0.14746 0)
(0.0581325 -0.166061 0)
(0.0509739 -0.179342 0)
(0.0416665 -0.190772 -5.06262e-22)
(0.0322315 -0.201848 1.21206e-21)
(0.0217538 -0.208457 4.66375e-22)
(0.0126276 -0.214297 -4.91792e-22)
(0.00482049 -0.216095 2.01423e-23)
(0.000321646 -0.216749 -3.69887e-23)
(0.0618075 -0.149582 -5.41511e-21)
(0.0596372 -0.157888 6.78922e-21)
(0.0545608 -0.174086 -6.7257e-21)
(0.0481117 -0.188649 3.85062e-21)
(0.0391881 -0.198805 -4.64254e-21)
(0.0302435 -0.210469 0)
(0.0203458 -0.216491 -3.39877e-22)
(0.0117145 -0.222476 -3.26965e-23)
(0.00441669 -0.223907 -9.09229e-23)
(0.000221388 -0.224649 -3.28799e-23)
(0.0566581 -0.157997 -2.49003e-21)
(0.0558163 -0.168556 0)
(0.0509128 -0.181323 -6.45254e-21)
(0.0451299 -0.197437 9.71056e-21)
(0.0367659 -0.206125 -3.2645e-21)
(0.0282822 -0.218333 -3.02749e-22)
(0.0190349 -0.223714 3.39105e-22)
(0.0108716 -0.229844 3.53002e-23)
(0.00407686 -0.230932 2.06933e-22)
(0.000125351 -0.231836 6.60924e-23)
(0.0514566 -0.164249 -1.01332e-20)
(0.051719 -0.179631 9.88137e-21)
(0.0474299 -0.188118 8.60272e-22)
(0.0421102 -0.20589 0)
(0.0344345 -0.213033 0)
(0.0263659 -0.225672 3.12573e-22)
(0.0178053 -0.230366 6.55031e-22)
(0.0100851 -0.236603 -6.42315e-22)
(0.00377903 -0.237367 -4.16551e-23)
(5.28037e-05 -0.238506 4.06774e-23)
(0.0559004 -0.172073 0)
(0.0526141 -0.20564 0)
(0.0477231 -0.203724 0)
(0.0408111 -0.225364 0)
(0.0327992 -0.229176 0)
(0.0241438 -0.242641 0)
(0.0160521 -0.245624 0)
(0.00875024 -0.251923 0)
(0.00330687 -0.251821 0)
(6.44546e-05 -0.253521 0)
(0.0409162 -0.216945 0)
(0.0348044 -0.248066 0)
(0.0326572 -0.241756 0)
(0.0267176 -0.260947 0)
(0.0221405 -0.260667 0)
(0.0160202 -0.272344 0)
(0.0109791 -0.272331 0)
(0.00598144 -0.277748 0)
(0.00246437 -0.27614 0)
(0.000135901 -0.278159 0)
(0.0371889 -0.260813 0)
(0.0298344 -0.290665 0)
(0.0268883 -0.280599 0)
(0.0207871 -0.298951 0)
(0.0169941 -0.29513 0)
(0.0118204 -0.306098 0)
(0.00823593 -0.303549 0)
(0.00444106 -0.308747 0)
(0.0020256 -0.305821 0)
(0.000132777 -0.308301 0)
(0.0318163 -0.310045 0)
(0.0243312 -0.339301 0)
(0.0217639 -0.325873 0)
(0.0160893 -0.344073 0)
(0.0132989 -0.337106 0)
(0.00895227 -0.348139 0)
(0.00652338 -0.343385 0)
(0.00351174 -0.348919 0)
(0.00182161 -0.344703 0)
(0.0001186 -0.34787 0)
(0.0272846 -0.368307 0)
(0.0203668 -0.397158 0)
(0.0177974 -0.381552 0)
(0.0127418 -0.399985 0)
(0.0106297 -0.390727 0)
(0.00696565 -0.402314 0)
(0.00532927 -0.395828 0)
(0.00281066 -0.402077 0)
(0.00163218 -0.396729 0)
(6.90802e-05 -0.400832 0)
(0.0232564 -0.437943 0)
(0.0169018 -0.464873 0)
(0.0145371 -0.449625 0)
(0.0100879 -0.467578 0)
(0.00849808 -0.457724 0)
(0.0053439 -0.469515 0)
(0.00421838 -0.462283 0)
(0.00201606 -0.46912 0)
(0.00125721 -0.463214 0)
(-6.26805e-05 -0.468175 0)
(0.0184268 -0.514865 0)
(0.0133553 -0.537058 0)
(0.0113179 -0.525667 0)
(0.00771734 -0.541145 0)
(0.00640033 -0.533059 0)
(0.00377239 -0.543571 0)
(0.00288351 -0.537148 0)
(0.0010226 -0.54358 0)
(0.000626628 -0.538187 0)
(-0.00022913 -0.543281 0)
(0.0141105 -0.586629 0)
(0.0100179 -0.602548 0)
(0.00823387 -0.596806 0)
(0.00530626 -0.607732 0)
(0.0042802 -0.603076 0)
(0.00216856 -0.610547 0)
(0.00150538 -0.606263 0)
(4.53771e-05 -0.61085 0)
(1.68599e-05 -0.607004 0)
(-0.000332791 -0.610909 0)
(0.00849739 -0.6396 0)
(0.0057406 -0.648132 0)
(0.0047454 -0.64818 0)
(0.00295407 -0.654398 0)
(0.00237926 -0.653542 0)
(0.000999361 -0.657348 0)
(0.000577943 -0.655534 0)
(-0.000357373 -0.657582 0)
(-0.000222712 -0.655603 0)
(-0.000277997 -0.657508 0)
(0.00227909 -0.66552 0)
(0.0015091 -0.672222 0)
(0.00136943 -0.674835 0)
(0.000929588 -0.678608 0)
(0.000758578 -0.679269 0)
(0.000315665 -0.681172 0)
(0.00014178 -0.680531 0)
(-0.000161884 -0.681274 0)
(-0.0001122 -0.680289 0)
(-9.55138e-05 -0.681079 0)
(0.0503686 -0.185008 1.2116e-20)
(0.0403666 -0.23051 -1.18906e-20)
(0.0384669 -0.275755 1.50051e-21)
(0.033419 -0.326639 0)
(0.0295314 -0.385402 0)
(0.0254594 -0.453464 1.61118e-21)
(0.0207703 -0.52609 -6.77113e-21)
(0.0156635 -0.591093 6.70431e-21)
(0.00978122 -0.639463 1.78346e-21)
(0.00318799 -0.662028 -1.75777e-21)
(0.0488548 -0.191573 -1.44444e-20)
(0.0406954 -0.236244 0)
(0.0391416 -0.281141 9.92219e-21)
(0.0342164 -0.33205 -2.26116e-20)
(0.0305636 -0.390647 1.42732e-20)
(0.0264558 -0.457968 -1.46232e-21)
(0.0217958 -0.528953 3.18258e-21)
(0.0163839 -0.592248 6.6108e-21)
(0.010357 -0.638459 1.81013e-21)
(0.00356132 -0.660805 1.78644e-21)
(0.0478996 -0.198485 1.6987e-20)
(0.0416525 -0.24282 -1.12585e-20)
(0.0402009 -0.286938 1.11517e-20)
(0.0353683 -0.337272 -1.1799e-20)
(0.0318641 -0.395322 8.76677e-21)
(0.0276513 -0.461638 0)
(0.0228662 -0.530898 -3.19048e-21)
(0.0171688 -0.592699 1.49871e-22)
(0.0108622 -0.636906 -3.4236e-21)
(0.00377379 -0.659387 -3.50518e-21)
(0.0475144 -0.204279 -2.74527e-21)
(0.0430547 -0.248734 0)
(0.0416216 -0.292383 0)
(0.0368967 -0.342223 0)
(0.0334553 -0.399761 9.49573e-21)
(0.0290772 -0.465066 -6.32591e-21)
(0.0240563 -0.532661 -1.80758e-23)
(0.0180443 -0.592779 -3.67861e-21)
(0.011348 -0.635331 -1.87296e-21)
(0.0038917 -0.65744 -1.98524e-21)
(0.0478394 -0.209307 -3.21371e-23)
(0.0448377 -0.253567 -8.27204e-21)
(0.0433399 -0.29686 -5.91318e-21)
(0.0387401 -0.346418 5.90953e-21)
(0.0352912 -0.403604 -3.12757e-21)
(0.0307119 -0.468045 0)
(0.0254106 -0.534165 -3.50525e-21)
(0.0190403 -0.592579 7.52637e-21)
(0.0118961 -0.633741 -3.83945e-21)
(0.00401134 -0.655088 3.90388e-21)
(0.048951 -0.213836 -2.23586e-20)
(0.0470458 -0.257505 2.62597e-21)
(0.0453731 -0.300294 -2.43886e-22)
(0.040871 -0.349613 6.06037e-21)
(0.0373399 -0.406521 0)
(0.0325299 -0.470228 0)
(0.0269317 -0.535099 0)
(0.0201693 -0.592001 4.01988e-21)
(0.0125514 -0.631978 0)
(0.00418343 -0.652513 0)
(0.0508523 -0.217724 0)
(0.049714 -0.260622 8.81546e-21)
(0.0477767 -0.302774 -5.92197e-21)
(0.0433076 -0.351802 -6.58122e-21)
(0.0396109 -0.408417 6.61552e-21)
(0.0345331 -0.471459 3.74797e-21)
(0.0286141 -0.535271 -3.74178e-21)
(0.0214291 -0.590927 -1.43505e-20)
(0.0133169 -0.629926 1.02361e-21)
(0.00441417 -0.649801 -3.43085e-21)
(0.0535345 -0.22074 0)
(0.0528449 -0.262812 -2.89996e-21)
(0.0505898 -0.304292 -1.5754e-21)
(0.0460756 -0.353006 0)
(0.0421327 -0.409305 1.84257e-21)
(0.0367442 -0.471734 -5.5956e-21)
(0.0304654 -0.534645 6.04656e-21)
(0.022821 -0.589302 2.1213e-21)
(0.0141824 -0.627532 -2.30278e-21)
(0.00469428 -0.646945 4.55751e-21)
(0.0569992 -0.222723 2.81103e-21)
(0.0564343 -0.263968 3.08209e-21)
(0.0538297 -0.304769 -7.27978e-22)
(0.049187 -0.353203 8.67144e-22)
(0.0449302 -0.409194 1.79587e-21)
(0.039188 -0.471093 2.9306e-21)
(0.0325001 -0.533264 -1.07664e-21)
(0.0243485 -0.587146 -1.14656e-21)
(0.0151361 -0.624803 2.31039e-21)
(0.0050133 -0.643914 1.24264e-21)
(0.0612497 -0.223561 -7.43492e-22)
(0.0604836 -0.26404 7.49504e-22)
(0.057507 -0.304132 -8.08693e-22)
(0.052644 -0.352356 -8.66075e-22)
(0.0480186 -0.408065 9.81614e-22)
(0.0418819 -0.469548 -1.99328e-21)
(0.0347376 -0.53115 1.64221e-21)
(0.0260265 -0.584468 5.77696e-22)
(0.0161835 -0.621741 0)
(0.00537205 -0.640676 -1.24539e-21)
(0.0662843 -0.223154 7.61615e-22)
(0.0649949 -0.263044 -7.68118e-22)
(0.061632 -0.302343 -8.62835e-22)
(0.0564462 -0.350449 -9.28743e-22)
(0.0514102 -0.405896 -1.01999e-21)
(0.0448352 -0.467117 -5.48416e-23)
(0.0371856 -0.528341 5.78875e-22)
(0.0278565 -0.581312 1.83867e-21)
(0.0173201 -0.618375 0)
(0.00576692 -0.637229 -1.35005e-21)
(0.0720946 -0.221464 0)
(0.0699629 -0.261012 -3.3672e-21)
(0.0662157 -0.299407 6.04539e-21)
(0.0605915 -0.347498 9.30366e-22)
(0.0551134 -0.402685 2.08578e-21)
(0.0480554 -0.463774 3.33716e-21)
(0.0398644 -0.524792 -1.16695e-21)
(0.0298625 -0.577635 -1.24387e-21)
(0.018568 -0.614672 2.7184e-21)
(0.00620887 -0.633555 1.34688e-21)
(0.0786673 -0.218559 0)
(0.0753781 -0.257967 -3.38739e-21)
(0.0712605 -0.295404 -1.79377e-21)
(0.0650784 -0.343519 0)
(0.0591432 -0.398475 -6.49789e-21)
(0.0515449 -0.459572 2.18478e-21)
(0.0427635 -0.520591 2.4975e-21)
(0.0320238 -0.573521 7.93827e-21)
(0.0199038 -0.610675 -2.70959e-21)
(0.00668335 -0.629663 5.80674e-21)
(0.0859867 -0.214573 0)
(0.08123 -0.253898 3.41645e-21)
(0.0767647 -0.290437 0)
(0.0699091 -0.33856 8.46803e-21)
(0.0634982 -0.393304 -8.51144e-21)
(0.0553194 -0.45443 -4.9387e-21)
(0.0459178 -0.515606 -7.35138e-23)
(0.0343915 -0.568829 -8.14274e-21)
(0.0213776 -0.606288 -1.35802e-21)
(0.00721495 -0.625482 -7.22251e-21)
(0.0940344 -0.209689 2.64116e-20)
(0.0875085 -0.248815 -1.00058e-20)
(0.0826906 -0.284711 6.29688e-22)
(0.0750956 -0.332611 -8.1588e-21)
(0.0682054 -0.387229 0)
(0.0593729 -0.448493 -5.13118e-21)
(0.0492772 -0.510065 -3.39499e-22)
(0.0369008 -0.563769 1.10493e-20)
(0.0229291 -0.601648 1.49435e-21)
(0.00776901 -0.621111 -1.49992e-21)
(0.102771 -0.204125 -1.40823e-21)
(0.0942057 -0.242647 1.80354e-20)
(0.089052 -0.278111 8.46309e-21)
(0.0806844 -0.325522 -8.4574e-21)
(0.0732582 -0.380115 -4.83713e-21)
(0.0637586 -0.441531 0)
(0.0529395 -0.503593 -1.12977e-20)
(0.0396756 -0.557995 5.6642e-21)
(0.0246641 -0.596548 5.97308e-21)
(0.00839947 -0.616417 6.35622e-21)
(0.11214 -0.198143 -3.61689e-21)
(0.101369 -0.235418 0)
(0.095774 -0.270834 0)
(0.0866169 -0.317864 0)
(0.0785771 -0.372577 -5.41899e-21)
(0.0683571 -0.434349 1.02388e-20)
(0.0567262 -0.49706 1.14877e-20)
(0.0424993 -0.552202 -1.79342e-20)
(0.0263987 -0.591371 3.17367e-21)
(0.00900372 -0.611617 -9.43999e-21)
(0.122014 -0.191573 -6.32402e-21)
(0.10907 -0.226979 1.68955e-20)
(0.102822 -0.262568 -1.67345e-20)
(0.0929779 -0.308992 1.97842e-20)
(0.0843299 -0.363546 -2.47907e-20)
(0.0734381 -0.4255 0)
(0.061011 -0.488944 -5.98827e-21)
(0.0457837 -0.545219 -2.21313e-22)
(0.028466 -0.585476 -6.57196e-21)
(0.0097568 -0.606312 -6.67467e-21)
(0.13202 -0.185431 -3.85628e-21)
(0.117055 -0.218993 0)
(0.109871 -0.255125 -2.13686e-20)
(0.0993769 -0.301237 3.93549e-20)
(0.0900363 -0.355989 -1.50381e-20)
(0.0783785 -0.418356 -2.88068e-21)
(0.0650504 -0.482416 5.97552e-21)
(0.0487765 -0.53929 -2.61873e-22)
(0.0302872 -0.580011 9.61588e-21)
(0.0103454 -0.601144 9.87719e-21)
(0.142672 -0.176515 -1.67337e-20)
(0.12669 -0.207377 1.6361e-20)
(0.118145 -0.243674 2.3052e-21)
(0.107029 -0.288993 0)
(0.0969666 -0.343531 0)
(0.0846012 -0.406325 2.79213e-21)
(0.0703678 -0.471775 1.23935e-20)
(0.0529117 -0.530621 -1.20949e-20)
(0.0329282 -0.573086 -3.25694e-21)
(0.0113311 -0.594989 3.20039e-21)
(0.153832 -0.178106 0)
(0.147144 -0.20308 0)
(0.134123 -0.240951 0)
(0.121437 -0.28529 0)
(0.109804 -0.3388 0)
(0.0955851 -0.399746 0)
(0.0792344 -0.462912 0)
(0.0593983 -0.519476 0)
(0.0367941 -0.560513 0)
(0.0122527 -0.582213 0)
(0.176824 -0.161209 0)
(0.182533 -0.190774 0)
(0.16179 -0.232116 0)
(0.149499 -0.275552 0)
(0.135077 -0.328329 0)
(0.117688 -0.386794 0)
(0.0975662 -0.446104 0)
(0.0732562 -0.498081 0)
(0.0456996 -0.534724 0)
(0.0160843 -0.552717 0)
(0.209162 -0.144154 0)
(0.22014 -0.174539 0)
(0.191484 -0.215405 0)
(0.181481 -0.257053 0)
(0.162677 -0.308645 0)
(0.141589 -0.36369 0)
(0.116796 -0.419047 0)
(0.0872004 -0.467632 0)
(0.0537981 -0.502807 0)
(0.0175888 -0.522026 0)
(0.250485 -0.132287 0)
(0.263059 -0.161275 0)
(0.227889 -0.200955 0)
(0.221156 -0.241391 0)
(0.195883 -0.291446 0)
(0.171144 -0.341789 0)
(0.140696 -0.392365 0)
(0.104902 -0.435429 0)
(0.0651615 -0.465137 0)
(0.0231456 -0.478796 0)
(0.300087 -0.117063 0)
(0.310956 -0.143744 0)
(0.270778 -0.180705 0)
(0.265214 -0.218004 0)
(0.230084 -0.2631 0)
(0.201369 -0.306613 0)
(0.16315 -0.351963 0)
(0.120477 -0.390455 0)
(0.0734243 -0.419137 0)
(0.0230477 -0.43649 0)
(0.360562 -0.107599 0)
(0.367392 -0.131457 0)
(0.323674 -0.165468 0)
(0.31584 -0.198069 0)
(0.269997 -0.237528 0)
(0.238927 -0.275045 0)
(0.191481 -0.315355 0)
(0.141448 -0.346934 0)
(0.0871165 -0.369124 0)
(0.0322293 -0.37696 0)
(0.425457 -0.0871414 0)
(0.423832 -0.106336 0)
(0.377336 -0.134761 0)
(0.362554 -0.160267 0)
(0.306756 -0.192694 0)
(0.272201 -0.222751 0)
(0.210374 -0.255079 0)
(0.153423 -0.280173 0)
(0.0900341 -0.304195 0)
(0.0241551 -0.324609 0)
(0.496349 -0.0743368 0)
(0.484627 -0.0886363 0)
(0.439235 -0.111617 0)
(0.414388 -0.130489 0)
(0.354782 -0.156788 0)
(0.313204 -0.179194 0)
(0.240195 -0.20504 0)
(0.179552 -0.226587 0)
(0.108349 -0.247979 0)
(0.0482098 -0.247873 0)
(0.548192 -0.0398971 0)
(0.527732 -0.0471022 0)
(0.475461 -0.0610212 0)
(0.439491 -0.0706037 0)
(0.371591 -0.0864255 0)
(0.318085 -0.0971834 0)
(0.231828 -0.112609 0)
(0.161855 -0.124878 0)
(0.0737289 -0.148103 0)
(-0.0147846 -0.19498 0)
(0.747908 -0.0200131 0)
(0.722541 -0.0237021 0)
(0.677175 -0.0293153 0)
(0.636089 -0.0343191 0)
(0.57433 -0.0418245 0)
(0.514862 -0.0488432 0)
(0.431908 -0.0598401 0)
(0.34726 -0.07372 0)
(0.234003 -0.102054 0)
(0.16137 -0.157597 0)
(0.183216 -0.156589 1.78646e-20)
(0.20958 -0.137632 -1.75926e-20)
(0.242927 -0.121697 2.62833e-21)
(0.283485 -0.110879 0)
(0.332244 -0.0976439 0)
(0.389974 -0.0893958 3.53867e-21)
(0.452647 -0.0717148 -1.62506e-20)
(0.519144 -0.061689 1.60886e-20)
(0.574984 -0.0320323 4.50793e-21)
(0.768878 -0.0170381 -4.5337e-21)
(0.191756 -0.147509 -1.81044e-20)
(0.217374 -0.127872 0)
(0.250618 -0.112752 1.80849e-20)
(0.291236 -0.102424 -4.28251e-20)
(0.340126 -0.0899707 2.8191e-20)
(0.397663 -0.0822064 -3.24805e-21)
(0.460188 -0.065571 6.97784e-21)
(0.526016 -0.0566366 1.52821e-20)
(0.584302 -0.0288883 4.17746e-21)
(0.776576 -0.0157765 4.07245e-21)
(0.199213 -0.137219 2.11253e-20)
(0.223561 -0.117655 -1.81567e-20)
(0.256043 -0.103677 1.79853e-20)
(0.296353 -0.0939373 -2.24432e-20)
(0.345184 -0.0823536 1.64021e-20)
(0.402699 -0.0751828 0)
(0.465281 -0.0596877 -6.99496e-21)
(0.531072 -0.0519604 -7.15717e-23)
(0.591997 -0.0260801 -7.91365e-21)
(0.783311 -0.0145885 -8.1725e-21)
(0.207045 -0.126191 -3.57196e-21)
(0.230897 -0.107167 0)
(0.262623 -0.0944406 0)
(0.302471 -0.0853616 0)
(0.351048 -0.0747387 1.80199e-20)
(0.408315 -0.0682784 -1.21841e-20)
(0.470776 -0.0540212 -3.33217e-22)
(0.536352 -0.0475701 -7.79231e-21)
(0.599313 -0.0235583 -3.98684e-21)
(0.789706 -0.0134891 -4.0417e-21)
(0.214345 -0.114753 2.1846e-21)
(0.238125 -0.0966231 -1.10877e-20)
(0.269154 -0.0851547 -9.80103e-21)
(0.30883 -0.0767926 9.7951e-21)
(0.357275 -0.0671784 -5.75527e-21)
(0.414364 -0.0615088 0)
(0.476696 -0.0485312 -6.92503e-21)
(0.541956 -0.0433557 1.51153e-20)
(0.606496 -0.0212193 -7.6152e-21)
(0.795852 -0.0124603 8.10634e-21)
(0.220813 -0.102978 -2.74567e-20)
(0.244409 -0.0860613 2.31678e-21)
(0.274665 -0.075865 -1.06503e-21)
(0.314314 -0.0683329 9.67307e-21)
(0.36276 -0.0597516 0)
(0.419862 -0.0549331 0)
(0.482196 -0.0432318 0)
(0.547282 -0.0392874 7.33249e-21)
(0.613263 -0.0190095 0)
(0.801591 -0.0114844 0)
(0.22645 -0.090874 0)
(0.249604 -0.0754516 1.23938e-20)
(0.279145 -0.0665542 -8.4806e-21)
(0.318684 -0.0599785 -1.06415e-20)
(0.367089 -0.0524729 1.06969e-20)
(0.42429 -0.048568 6.45894e-21)
(0.486743 -0.0381363 -6.20318e-21)
(0.551852 -0.0353797 -2.54224e-20)
(0.619283 -0.0169193 1.80713e-21)
(0.806752 -0.0105579 -5.93615e-21)
(0.231178 -0.0784606 0)
(0.253733 -0.064775 -3.92446e-21)
(0.282675 -0.0572136 -2.22502e-21)
(0.322023 -0.051681 0)
(0.370308 -0.0452981 3.0643e-21)
(0.427647 -0.0423867 -8.96175e-21)
(0.490157 -0.0332212 1.02069e-20)
(0.55556 -0.0316242 3.79612e-21)
(0.624378 -0.0149471 -3.79104e-21)
(0.811255 -0.00967844 7.94056e-21)
(0.234852 -0.0657517 2.98904e-21)