/*--------------------------------*- C++ -*----------------------------------*\
  =========                 |
  \\      /  F ield         | OpenFOAM: The Open Source CFD Toolbox
   \\    /   O peration     | Website:  https://openfoam.org
    \\  /    A nd           | Version:  7
     \\/     M anipulation  |
\*---------------------------------------------------------------------------*/
FoamFile
{
    version     2.0;
    format      ascii;
    class       surfaceScalarField;
    location    "1.1";
    object      phi;
}
// * * * * * * * * * * * * * * * * * * * * * * * * * * * * * * * * * * * * * //

dimensions      [0 3 -1 0 0 0 0];

internalField   nonuniform List<scalar> 
63520
(
-1.48481e-05
0.00175624
-0.00174139
-4.02039e-05
0.00395199
-0.00392663
-6.34238e-05
0.00510443
-0.0050812
-7.2282e-05
0.00543346
-0.0054246
-5.60956e-05
0.0051577
-0.00517389
-6.59867e-06
0.00446877
-0.00451827
8.17057e-05
0.00352331
-0.00361161
0.000211545
0.00244369
-0.00257353
0.000383003
0.00132245
-0.00149391
0.000593924
0.000227157
-0.000438077
0.000840456
-0.000795061
0.000548529
0.00111759
-0.00171361
0.00143648
0.00141965
-0.00251124
0.00220918
0.00174084
-0.00318126
0.00286008
0.00207562
-0.003725
0.00339022
0.00241902
-0.00414946
0.00380606
0.00276677
-0.00446541
0.00411765
0.0031154
-0.00468571
0.00433709
0.00346218
-0.00482402
0.00447723
0.00380512
-0.00489373
0.00455078
0.00414285
-0.00490744
0.00456971
0.00447449
-0.00487652
0.00454488
0.00479957
-0.00481087
0.00448579
0.00511793
-0.00471892
0.00440056
0.00542961
-0.00460769
0.004296
0.00573483
-0.0044829
0.00417768
0.00603386
-0.00434911
0.00405008
0.00632704
-0.00420994
0.00391675
0.00661475
-0.00406813
0.00378043
0.00689733
-0.00392581
0.00364322
0.00717513
-0.00378451
0.00350671
0.00744846
-0.00364535
0.00337202
0.00771762
-0.00350914
0.00323997
0.00798288
-0.00337638
0.00311112
0.00824447
-0.00324739
0.00298581
0.00850257
-0.00312236
0.00286426
0.00875736
-0.00300137
0.00274658
0.00900894
-0.00288446
0.00263288
0.00925732
-0.00277145
0.00252306
-0.00266178
0.00950224
0.00241687
-1.04235e-05
0.00176666
-2.73295e-05
0.0039689
-3.94253e-05
0.00511652
-3.55914e-05
0.00542963
-6.00659e-06
0.00512812
5.70196e-05
0.00440575
0.000158574
0.00342175
0.000301034
0.00230124
0.000484216
0.00113927
0.00070577
5.60401e-06
0.000961642
-0.00105093
0.00124663
-0.0019986
0.00155498
-0.00281959
0.00188087
-0.00350715
0.00221877
-0.0040629
0.00256379
-0.00449449
0.00291183
-0.00481344
0.00325955
-0.00503344
0.00360445
-0.00516892
0.00394473
-0.00523401
0.00427921
-0.00524192
0.00460719
-0.0052045
0.00492836
-0.00513204
0.00524269
-0.00503325
0.00555035
-0.00491535
0.00585163
-0.00478417
0.00614689
-0.00464437
0.00643652
-0.00449957
0.00672092
-0.00435254
0.00700048
-0.00420536
0.00727555
-0.00405958
0.00754646
-0.00391626
0.0078135
-0.00377618
0.00807692
-0.0036398
0.00833695
-0.00350742
0.00859377
-0.00337919
0.00884754
-0.00325513
0.00909834
-0.00313526
0.00934618
-0.00301928
-0.00290641
0.0095908
-6.27994e-06
0.00177294
-1.47354e-05
0.00397735
-1.55989e-05
0.00511739
1.09418e-06
0.00541294
4.43402e-05
0.00508487
0.000121234
0.00432886
0.000236395
0.00330659
0.000391858
0.00214577
0.000587145
0.000943981
0.000819623
-0.000226873
0.001085
-0.00131631
0.00137792
-0.00229151
0.00169249
-0.00313416
0.00202285
-0.0038375
0.00236354
-0.00440359
0.00270979
-0.00484073
0.00305764
-0.00516129
0.00340399
-0.00537979
0.00374654
-0.00551146
0.0040837
-0.00557117
0.0044145
-0.00557272
0.00473843
-0.00552843
0.00505534
-0.00544895
0.00536534
-0.00534325
0.00566871
-0.00521872
0.00596584
-0.0050813
0.00625715
-0.00493568
0.00654308
-0.0047855
0.00682406
-0.00463352
0.0071005
-0.0044818
0.00737277
-0.00433184
0.00764119
-0.00418469
0.00790606
-0.00404104
0.00816761
-0.00390136
0.00842608
-0.00376589
0.00868164
-0.00363474
0.00893441
-0.0035079
0.00918448
-0.00338534
0.00943184
-0.00326664
-0.00315082
0.00967626
-2.35209e-06
0.00177529
-2.4383e-06
0.00397744
7.95487e-06
0.00510699
3.76983e-05
0.00538319
9.48891e-05
0.00502768
0.000186003
0.00423774
0.000315193
0.0031774
0.000484057
0.00197691
0.000691766
0.000736272
0.000935395
-0.000470501
0.00121037
-0.00159129
0.00151114
-0.00259227
0.00183171
-0.00345474
0.00216623
-0.00417202
0.0025093
-0.00474666
0.0028563
-0.00518773
0.00320348
-0.00550847
0.00354795
-0.00572426
0.00388765
-0.00585116
0.00422123
-0.00590475
0.00454793
-0.00589942
0.00486744
-0.00584793
0.00517976
-0.00576127
0.00548516
-0.00564865
0.00578402
-0.00551758
0.0060768
-0.00537408
0.006364
-0.00522287
0.0066461
-0.00506759
0.00692355
-0.00491098
0.00719679
-0.00475505
0.00746619
-0.00460124
0.00773208
-0.00445057
0.00799474
-0.0043037
0.00825442
-0.00416103
0.00851131
-0.00402278
0.00876559
-0.00388901
0.00901737
-0.00375968
0.00926672
-0.00363469
0.00951363
-0.00351355
-0.00339507
0.00975787
1.32578e-06
0.00177397
9.46634e-06
0.0039693
3.11515e-05
0.00508531
7.40509e-05
0.0053403
0.000145433
0.0049563
0.000251097
0.00413208
0.000394649
0.00303385
0.000577241
0.00179432
0.000797644
0.000515871
0.00105256
-0.000725412
0.00133713
-0.00187586
0.00164561
-0.00290075
0.00197194
-0.00378106
0.00231023
-0.00451032
0.00265524
-0.00509167
0.00300251
-0.005535
0.00334851
-0.00585447
0.00369059
-0.00606634
0.00402697
-0.00618753
0.00435653
-0.00623432
0.00467874
-0.00622163
0.00499348
-0.00616267
0.00530093
-0.00606873
0.00560148
-0.0059492
0.00589562
-0.00581172
0.00618388
-0.00566235
0.00646683
-0.00550582
0.00674498
-0.00534575
0.00701882
-0.00518482
0.0072888
-0.00502502
0.00755528
-0.00486772
0.00781859
-0.00471388
0.00807901
-0.00456412
0.00833679
-0.0044188
0.00859209
-0.00427809
0.00884509
-0.00414201
0.00909588
-0.00401047
0.00934452
-0.00388333
0.00959098
-0.00376001
-0.00363914
0.00983505
4.79232e-06
0.00176918
2.09883e-05
0.0039531
5.38955e-05
0.0050524
0.000110054
0.00528414
0.00019584
0.00487052
0.000316337
0.00401158
0.000474568
0.00287562
0.00067116
0.00159773
0.000904424
0.000282609
0.00117067
-0.000991657
0.00146475
-0.00216995
0.00178073
-0.00321673
0.00211246
-0.00411279
0.00245412
-0.00485198
0.00280059
-0.00543813
0.00314761
-0.00588203
0.00349191
-0.00619876
0.00383112
-0.00640555
0.00416371
-0.00652013
0.00448885
-0.00655945
0.0048062
-0.00653899
0.00511586
-0.00647233
0.00541818
-0.00637104
0.00571365
-0.00624468
0.00600289
-0.00610095
0.00628649
-0.00594595
0.00656507
-0.0057844
0.00683919
-0.00561986
0.00710935
-0.00545498
0.00737599
-0.00529166
0.0076395
-0.00513123
0.0079002
-0.00497458
0.00815836
-0.00482228
0.00841421
-0.00467465
0.00866792
-0.0045318
0.00891964
-0.00439372
0.00916945
-0.00426028
0.00941739
-0.00413128
0.00966343
-0.00400605
-0.00388307
0.00990737
8.04891e-06
0.00176113
3.21115e-05
0.00392904
7.61575e-05
0.00500835
0.00014561
0.00521468
0.000245956
0.00477017
0.000381511
0.00387603
0.000554643
0.00270249
0.000765413
0.00138696
0.00101162
3.63978e-05
0.00128917
-0.0012692
0.0015926
-0.00247338
0.00191579
-0.00353992
0.00225254
-0.00444954
0.00259712
-0.00519655
0.00294455
-0.00578556
0.00329082
-0.00622829
0.00363291
-0.00654086
0.00396878
-0.00674142
0.00429716
-0.00684851
0.00461748
-0.00687977
0.00492965
-0.00685116
0.00523395
-0.00677663
0.00553089
-0.00666798
0.00582111
-0.0065349
0.00610529
-0.00638513
0.00638412
-0.00622478
0.00665825
-0.00605852
0.00692825
-0.00588987
0.00719466
-0.00572139
0.00745792
-0.00555492
0.00771842
-0.00539173
0.00797647
-0.00523263
0.00823234
-0.00507815
0.00848624
-0.00492855
0.00873833
-0.0047839
0.00898875
-0.00464414
0.00923758
-0.0045091
0.00948484
-0.00437854
0.00973047
-0.00425168
-0.0041269
0.0099743
1.11175e-05
0.00175001
4.28293e-05
0.00389733
9.78875e-05
0.0049533
0.000180632
0.00513194
0.000295628
0.00465518
0.000446384
0.00372528
0.000634562
0.00251432
0.000859605
0.00116192
0.00111877
-0.000222764
0.0014075
-0.00155793
0.00172006
-0.00278593
0.00205013
-0.00386999
0.0023915
-0.00479091
0.00273851
-0.00554357
0.0030864
-0.00613345
0.00343141
-0.0065733
0.00377082
-0.00688027
0.00410288
-0.00707348
0.00442665
-0.00717228
0.0047418
-0.00719492
0.00504849
-0.00715785
0.00534719
-0.00707533
0.00563856
-0.00695936
0.00592337
-0.0068197
0.00620238
-0.00666414
0.00647633
-0.00649873
0.00674591
-0.00632811
0.00701175
-0.0061557
0.00727435
-0.005984
0.00753419
-0.00581476
0.00779163
-0.00564917
0.00804699
-0.005488
0.00830053
-0.00533169
0.00855245
-0.00518046
0.0088029
-0.00503435
0.009052
-0.00489324
0.00929982
-0.00475692
0.00954638
-0.0046251
0.00979162
-0.00449692
-0.00437064
0.0100354
1.40049e-05
0.001736
5.31434e-05
0.00385819
0.000119055
0.00488738
0.000215035
0.00503596
0.000344704
0.00452551
0.000510731
0.00355925
0.000714027
0.00231102
0.000953358
0.000922591
0.0012254
-0.000494805
0.00152515
-0.00185768
0.00184655
-0.00310733
0.00218313
-0.00420657
0.00252867
-0.00513645
0.00287764
-0.00589254
0.00322548
-0.00648129
0.00356872
-0.00691654
0.00390498
-0.00721652
0.00423281
-0.00740132
0.00455159
-0.00749105
0.00486125
-0.00750458
0.00516219
-0.00745879
0.00545508
-0.00736822
0.00574072
-0.00724501
0.00601999
-0.00709897
0.00629373
-0.00693787
0.00656273
-0.00676774
0.00682772
-0.0065931
0.00708933
-0.00641731
0.00734809
-0.00624276
0.00760446
-0.00607112
0.0078588
-0.00590351
0.00811143
-0.00574063
0.00836259
-0.00558285
0.00861248
-0.00543035
0.00886123
-0.0052831
0.00910897
-0.00514098
0.00935574
-0.0050037
0.00960158
-0.00487093
0.0098464
-0.00474174
-0.00461428
0.01009
1.6726e-05
0.00171928
6.30575e-05
0.00381185
0.000139631
0.00481081
0.000248738
0.00492685
0.000393047
0.0043812
0.000574349
0.00337795
0.000792754
0.00209262
0.00104632
0.000669031
0.0013311
-0.000779593
0.00164164
-0.00216822
0.00197156
-0.00343724
0.00231424
-0.00454925
0.00266348
-0.00548569
0.00301389
-0.00624295
0.00336117
-0.00682856
0.00370215
-0.00725753
0.00403479
-0.00754916
0.004358
-0.00772452
0.00467143
-0.00780448
0.00497532
-0.00780847
0.00527029
-0.00775376
0.00555719
-0.00765512
0.00583698
-0.00752479
0.00611061
-0.0073726
0.00637901
-0.00720627
0.00664301
-0.00703175
0.00690337
-0.00685346
0.00716072
-0.00667466
0.0074156
-0.00649763
0.00766845
-0.00632397
0.00791965
-0.00615471
0.00816949
-0.00599047
0.00841821
-0.00583157
0.008666
-0.00567813
0.00891299
-0.00553009
0.00915929
-0.00538728
0.00940496
-0.00524937
0.00965
-0.00511597
0.00989434
-0.00498608
-0.00485777
0.0101378
1.92883e-05
0.00169999
7.25722e-05
0.00375857
0.000159594
0.00472379
0.000281679
0.00480477
0.000440534
0.00422234
0.000637049
0.00318143
0.000870492
0.00185918
0.00113816
0.000401363
0.00143549
-0.00107692
0.00175653
-0.00248926
0.00209458
-0.00377529
0.00244291
-0.00489759
0.00279535
-0.00583813
0.00314669
-0.00659429
0.00349289
-0.00717476
0.00383113
-0.00759577
0.00415972
-0.00787775
0.00447792
-0.00804272
0.00478569
-0.00811226
0.00508356
-0.00810634
0.00537238
-0.00804257
0.00565316
-0.0079359
0.00592699
-0.00779862
0.00619492
-0.00764053
0.00645794
-0.00746929
0.00671691
-0.00729072
0.00697261
-0.00710916
0.00722568
-0.00692772
0.00747664
-0.0067486
0.00772594
-0.00657328
0.00797394
-0.00640271
0.00822093
-0.00623745
0.00846714
-0.00607778
0.00871274
-0.00592373
0.00895787
-0.00577523
0.00920264
-0.00563204
0.0094471
-0.00549383
0.00969125
-0.00536012
0.00993502
-0.00522985
-0.00510103
0.0101783
2.17037e-05
0.00167829
8.16962e-05
0.00369858
0.000178929
0.00462656
0.000313803
0.00466989
0.000487066
0.00404908
0.000698674
0.00296983
0.000947017
0.00161083
0.00122861
0.000119774
0.00153822
-0.00138654
0.00186941
-0.00282045
0.00221517
-0.00412105
0.00256866
-0.00525108
0.00292378
-0.00619324
0.0032755
-0.00694602
0.00362011
-0.00751936
0.00395513
-0.00793079
0.00427926
-0.00820188
0.0045921
-0.00835556
0.00489394
-0.00841411
0.00518559
-0.00839798
0.00546809
-0.00832508
0.00574265
-0.00821046
0.00601046
-0.00806643
0.00627266
-0.00790273
0.00653028
-0.0077269
0.00678421
-0.00754466
0.00703525
-0.00736019
0.00728401
-0.00717648
0.00753103
-0.00699562
0.00777674
-0.00681899
0.00802149
-0.00664746
0.00826556
-0.00648152
0.00850916
-0.00632138
0.00875247
-0.00616704
0.00899562
-0.00601838
0.00923872
-0.00587514
0.00948183
-0.00573694
0.00972495
-0.00560324
0.00996801
-0.00547291
-0.00534392
0.0102109
2.39794e-05
0.00165431
9.04377e-05
0.00363212
0.000197629
0.00451937
0.000345074
0.00452245
0.000532562
0.00386159
0.000759089
0.0027433
0.00102214
0.00134779
0.0013174
-0.000175489
0.00163898
-0.00170812
0.00197992
-0.00316138
0.00233291
-0.00447404
0.00269104
-0.0056092
0.00304827
-0.00655048
0.00339984
-0.00729758
0.00374233
-0.00786186
0.00407368
-0.00826214
0.00439295
-0.00852116
0.00470012
-0.00866272
0.0049958
-0.00870979
0.00528104
-0.00868323
0.00555713
-0.00860116
0.0058254
-0.00847873
0.00608716
-0.00832819
0.00634362
-0.00815918
0.00659585
-0.00797913
0.00684476
-0.00779357
0.00709113
-0.00760656
0.00733559
-0.00742094
0.00757865
-0.00723868
0.00782073
-0.00706107
0.00806217
-0.00688889
0.00830323
-0.00672257
0.00854411
-0.00656226
0.008785
-0.00640793
0.00902603
-0.00625941
0.00926729
-0.00611641
0.00950886
-0.00597851
0.00975076
-0.00584513
0.00999291
-0.00571506
-0.00558626
0.0102353
2.61238e-05
0.00162818
9.88093e-05
0.00355944
0.000215698
0.00440248
0.000375471
0.00436268
0.000576961
0.0036601
0.000818188
0.00250207
0.00109569
0.00107028
0.00140433
-0.000484121
0.00173748
-0.00204127
0.00208771
-0.00351161
0.00244741
-0.00483375
0.00280961
-0.0059714
0.00316838
-0.00690925
0.00351923
-0.00764843
0.00385911
-0.00820174
0.00418634
-0.00858937
0.0045004
-0.00883521
0.00480161
-0.00896393
0.00509092
-0.0089991
0.00536963
-0.00896195
0.00563923
-0.00887076
0.00590118
-0.00874069
0.0061569
-0.00858391
0.00640765
-0.00840993
0.00665451
-0.008226
0.00689843
-0.00803749
0.00714016
-0.00784829
0.00738032
-0.0076611
0.00761941
-0.00747777
0.00785783
-0.00729949
0.00809589
-0.00712695
0.00833385
-0.00696052
0.0085719
-0.00680031
0.00881021
-0.00664624
0.00904893
-0.00649812
0.00928816
-0.00635563
0.00952797
-0.00621832
0.00976839
-0.00608555
0.0100094
-0.00595606
-0.00582779
0.0102509
2.81466e-05
0.00160004
0.000106826
0.00348076
0.000233147
0.00427616
0.000404985
0.00419084
0.000620224
0.00344487
0.000875885
0.00224641
0.00116755
0.000778619
0.00148918
-0.000805758
0.00183348
-0.00238557
0.00219248
-0.0038706
0.00255832
-0.00519959
0.00292398
-0.00633706
0.0032837
-0.00726897
0.00363327
-0.007998
0.00397003
-0.0085385
0.00429273
-0.00891207
0.00460123
-0.00914371
0.00489624
-0.00925894
0.00517901
-0.00928187
0.00545111
-0.00923404
0.00571418
-0.00913383
0.00596983
-0.00899634
0.00621954
-0.00883362
0.00646463
-0.00865501
0.00670619
-0.00846756
0.00694517
-0.00827646
0.0071823
-0.00808542
0.00741818
-0.00789698
0.00765329
-0.00771289
0.00788801
-0.00753421
0.00812263
-0.00736157
0.00835738
-0.00719528
0.00859246
-0.00703539
0.00882803
-0.00688181
0.00906423
-0.00673432
0.00930118
-0.00659258
0.00953896
-0.0064561
0.00977762
-0.0063242
0.0100171
-0.00619559
-0.00606819
0.0102575
3.00575e-05
0.00156998
0.000114508
0.00339631
0.000249995
0.00414067
0.000433623
0.00400721
0.000662328
0.00321616
0.000932121
0.00197662
0.00123759
0.000473155
0.00157181
-0.00113998
0.00192674
-0.0027405
0.00229394
-0.0042378
0.00266531
-0.00557096
0.0030338
-0.00670555
0.00339385
-0.00762902
0.00374157
-0.00834572
0.00407472
-0.00887165
0.00439248
-0.00922983
0.00469513
-0.00944636
0.00498373
-0.00954755
0.00525986
-0.009558
0.00552528
-0.00949947
0.00578183
-0.00939037
0.00603121
-0.00924572
0.00627499
-0.00907739
0.00651449
-0.00889451
0.00675083
-0.00870391
0.00698493
-0.00851056
0.00721752
-0.008318
0.00744915
-0.00812862
0.00768029
-0.00794402
0.00791128
-0.00776519
0.00814239
-0.00759268
0.00837384
-0.00742673
0.00860581
-0.00726736
0.00883846
-0.00711446
0.00907192
-0.00696778
0.00930632
-0.00682698
0.00954175
-0.00669153
0.00977829
-0.00656074
0.010016
-0.00643327
-0.00630708
0.0102549
3.1867e-05
0.00153811
0.000121877
0.0033063
0.000266271
0.00399628
0.000461403
0.00381208
0.00070327
0.00297429
0.000986854
0.00169304
0.00130572
0.000154286
0.00165205
-0.0014863
0.00201707
-0.00310552
0.00239185
-0.00461257
0.00276808
-0.00594719
0.00313873
-0.0070762
0.00349847
-0.00798876
0.00384379
-0.00869103
0.00417286
-0.00920073
0.00448531
-0.00954228
0.00478184
-0.00974288
0.00506387
-0.00982958
0.00533326
-0.00982738
0.005592
-0.00975821
0.00584206
-0.00964043
0.00608525
-0.00948892
0.00632319
-0.00931532
0.00655721
-0.00912853
0.00678843
-0.00893513
0.00701775
-0.00873988
0.00724586
-0.0085461
0.00747329
-0.00835605
0.00770047
-0.0081712
0.00792771
-0.00799244
0.00815526
-0.00782023
0.00838332
-0.00765478
0.00861204
-0.00749608
0.00884157
-0.00734399
0.00907205
-0.00719826
0.0093036
-0.00705853
0.00953635
-0.00692428
0.00977039
-0.00679478
0.0100058
-0.00666869
-0.006544
0.0102427
3.35863e-05
0.00150453
0.000128962
0.00321092
0.000282008
0.00384323
0.000488356
0.00360573
0.000743058
0.00271959
0.00104006
0.00139604
0.00137188
-0.000177539
0.00172978
-0.0018442
0.00210427
-0.00348001
0.00248596
-0.00499426
0.00286634
-0.00632758
0.00323847
-0.00744833
0.00359727
-0.00834756
0.00393962
-0.00903338
0.00426416
-0.00952527
0.00457096
-0.00984908
0.00486114
-0.0100331
0.00513647
-0.0101049
0.00539907
-0.01009
0.00565115
-0.0100103
0.0058948
-0.00988408
0.00613191
-0.00972603
0.00636412
-0.00954754
0.0065928
-0.0093572
0.00681902
-0.00916136
0.00704367
-0.00896452
0.00726738
-0.00876982
0.00749068
-0.00857935
0.00771393
-0.00839445
0.00793742
-0.00821593
0.00816137
-0.00804418
0.00838593
-0.00787934
0.00861127
-0.00772141
0.0088375
-0.00757022
0.00906475
-0.00742552
0.00929317
-0.00728694
0.00952287
-0.00715398
0.009754
-0.00702591
0.00998669
-0.00690138
-0.00677849
0.0102212
3.5227e-05
0.0014693
0.00013579
0.00311036
0.000297246
0.00368178
0.000514517
0.00338846
0.000781712
0.0024524
0.00109172
0.00108604
0.001436
-0.000521826
0.00180489
-0.00221308
0.00218818
-0.0038633
0.00257606
-0.00538213
0.00295986
-0.00671138
0.00333275
-0.00782122
0.00368997
-0.00870478
0.00402881
-0.00937222
0.00434838
-0.00984484
0.00464922
-0.0101499
0.00493285
-0.0103167
0.00520138
-0.0103734
0.0054572
-0.0103458
0.00570267
-0.0102558
0.00594002
-0.0101214
0.00617118
-0.0099572
0.00639783
-0.00977418
0.0066213
-0.00958067
0.00684267
-0.00938272
0.00706276
-0.00918461
0.00728219
-0.00898925
0.00750143
-0.00879858
0.0077208
-0.00861383
0.00794055
-0.00843568
0.00816087
-0.00826449
0.00838188
-0.00810036
0.00860372
-0.00794324
0.00882648
-0.00779298
0.00905029
-0.00764933
0.00927527
-0.00751193
0.00950158
-0.00738028
0.00972938
-0.00725371
0.00995888
-0.00713088
-0.00701003
0.0101904
3.68021e-05
0.0014325
0.000142394
0.00300476
0.000312027
0.00351214
0.000539929
0.00316056
0.000819258
0.00217307
0.00114182
0.000763477
0.00149803
-0.000878036
0.00187727
-0.00259232
0.00226865
-0.00425469
0.00266194
-0.00577542
0.0030484
-0.00709784
0.00342133
-0.00819415
0.00377631
-0.00905976
0.00411111
-0.00970702
0.00442532
-0.010159
0.00471992
-0.0104445
0.00499685
-0.0105936
0.00525853
-0.0106351
0.00550759
-0.0105949
0.00574655
-0.0104947
0.00597772
-0.0103526
0.0062031
-0.0101826
0.00642435
-0.00999542
0.00664279
-0.00979912
0.00685947
-0.0095994
0.00707515
-0.00940029
0.00729042
-0.00920452
0.00750569
-0.00901385
0.00772125
-0.00882939
0.00793731
-0.00865174
0.00815399
-0.00848118
0.00837142
-0.00831778
0.00858966
-0.00816148
0.00880882
-0.00801213
0.00902898
-0.00786949
0.00925028
-0.00773322
0.00947286
-0.00760287
0.00969695
-0.0074778
0.00992282
-0.00735675
-0.00723815
0.0101509
3.83247e-05
0.00139417
0.000148805
0.00289429
0.000326397
0.00333455
0.000564639
0.00292232
0.000855728
0.00188198
0.00119038
0.000428825
0.00155793
-0.00124559
0.00194683
-0.00298122
0.00234554
-0.00465339
0.00274344
-0.00617332
0.00313175
-0.00748614
0.00350398
-0.00856638
0.0038561
-0.00941189
0.00418635
-0.0100373
0.00449481
-0.0104675
0.00478294
-0.0107327
0.00505304
-0.0108637
0.00530786
-0.01089
0.00555022
-0.0108372
0.00578279
-0.0107273
0.00600795
-0.0105778
0.00622773
-0.0104024
0.00644377
-0.0102115
0.00665737
-0.0100127
0.00686953
-0.00981155
0.00708097
-0.00961173
0.00729222
-0.00941577
0.00750364
-0.00922528
0.00771549
-0.00904123
0.0079279
-0.00886415
0.00814099
-0.00869427
0.00835482
-0.00853161
0.00856944
-0.0083761
0.0087849
-0.00822759
0.00900127
-0.00808586
0.00921868
-0.00795062
0.00943727
-0.00782146
0.00965731
-0.00769783
0.00987916
-0.0075786
-0.00746242
0.0101034
3.98079e-05
0.00135437
0.000155053
0.00277904
0.000340401
0.0031492
0.000588694
0.00267403
0.000891151
0.00157953
0.00123738
8.25921e-05
0.00161565
-0.00162385
0.00201349
-0.00337906
0.0024187
-0.0050586
0.00282038
-0.006575
0.00320973
-0.00787549
0.00358052
-0.00893717
0.00392916
-0.00976052
0.00425436
-0.0103625
0.00455674
-0.0107699
0.00483819
-0.0110141
0.00510139
-0.0111269
0.00534936
-0.0111379
0.00558512
-0.011073
0.00581145
-0.0109536
0.00603078
-0.0107971
0.00624515
-0.0106167
0.00645619
-0.0104225
0.00666515
-0.0102217
0.00687299
-0.0100194
0.00708036
-0.0098191
0.00728775
-0.00962316
0.00749547
-0.009433
0.00770372
-0.00924948
0.00791259
-0.00907303
0.00812215
-0.00890383
0.00833243
-0.00874188
0.00854342
-0.00858709
0.00875516
-0.00843932
0.00896767
-0.00829837
0.00918105
-0.008164
0.00939548
-0.00803588
0.00961123
-0.00791358
0.00982877
-0.00779615
-0.00768251
0.0100489
4.12639e-05
0.0013131
0.00016117
0.00265913
0.000354084
0.00295629
0.000612137
0.00241598
0.000925558
0.0012661
0.00128284
-0.000274687
0.00167115
-0.00201216
0.00207714
-0.00378505
0.00248801
-0.00546947
0.0028926
-0.00697958
0.00328216
-0.00826506
0.00365079
-0.00930579
0.00399533
-0.0101051
0.00431504
-0.0106822
0.00461102
-0.0110659
0.00488562
-0.0112887
0.00514187
-0.0113832
0.00538305
-0.0113791
0.00561233
-0.0113023
0.00583258
-0.0111739
0.00604629
-0.0110108
0.00625548
-0.0108259
0.00646174
-0.0106288
0.00666628
-0.0104262
0.00686999
-0.0102231
0.0070735
-0.0100226
0.00727721
-0.00982687
0.00748139
-0.00963718
0.00768618
-0.00945426
0.00789164
-0.00927849
0.00809779
-0.00910997
0.0083046
-0.00894869
0.00851204
-0.00879453
0.00872009
-0.00864737
0.00892874
-0.00850703
0.00913808
-0.00837333
0.00934826
-0.00824606
0.00955961
-0.00812493
0.00977268
-0.00800922
-0.00789826
0.00998843
4.27042e-05
0.0012704
0.000167186
0.00253465
0.000367488
0.00275599
0.00063501
0.00214845
0.000958973
0.000942142
0.00132673
-0.000642449
0.00172439
-0.00240982
0.00213772
-0.00419838
0.00255336
-0.00588511
0.00295996
-0.00738618
0.00334891
-0.008654
0.00371464
-0.00967153
0.0040545
-0.0104449
0.00436829
-0.010996
0.00465761
-0.0113552
0.00492523
-0.0115563
0.00517452
-0.0116325
0.00540898
-0.0116136
0.00563192
-0.0115252
0.0058463
-0.0113883
0.00605461
-0.0112191
0.00625884
-0.0110301
0.00646055
-0.0108305
0.0066609
-0.0106266
0.00686071
-0.0104229
0.00706055
-0.0102224
0.00726077
-0.0100271
0.0074616
-0.009838
0.00766311
-0.00965577
0.00786532
-0.0094807
0.0080682
-0.00931285
0.00827169
-0.00915218
0.00847571
-0.00899855
0.00868019
-0.00885185
0.00888509
-0.00871193
0.00909046
-0.0085787
0.00929645
-0.00845205
0.00950342
-0.0083319
0.00971202
-0.00821783
-0.00810963
0.0099234
4.41393e-05
0.00122626
0.000173127
0.00240567
0.000380649
0.00254847
0.000657348
0.00187176
0.000991413
0.000608077
0.00136906
-0.0010201
0.00177532
-0.00281608
0.00219513
-0.00461818
0.00261463
-0.00630461
0.00302234
-0.00779389
0.00340984
-0.00904149
0.00377197
-0.0100337
0.0041066
-0.0107796
0.00441407
-0.0113035
0.0046965
-0.0116376
0.00495705
-0.0118169
0.00519939
-0.0118748
0.00542724
-0.0118414
0.00564401
-0.011742
0.00585273
-0.011597
0.00605585
-0.0114222
0.00625537
-0.0112297
0.00645277
-0.0110279
0.00664915
-0.010823
0.00684529
-0.010619
0.00704168
-0.0104188
0.00723863
-0.010224
0.0074363
-0.0100357
0.00763473
-0.0098542
0.00783389
-0.00967986
0.00803371
-0.00951267
0.00823407
-0.00935254
0.00843486
-0.00919934
0.00863597
-0.00905295
0.00883731
-0.00891328
0.0090389
-0.00878028
0.00924088
-0.00865402
0.00944364
-0.00853466
0.00964793
-0.00842213
-0.00831679
0.00985509
4.55789e-05
0.00118068
0.000179016
0.00227223
0.000393599
0.00233388
0.000679178
0.00158618
0.00102289
0.000264366
0.0014098
-0.00140701
0.00182388
-0.00323015
0.00224928
-0.00504358
0.00267171
-0.00672704
0.00307962
-0.0082018
0.00346484
-0.00942671
0.00382268
-0.0103915
0.00415156
-0.0111084
0.00445237
-0.0116043
0.0047277
-0.0119129
0.00498111
-0.0120703
0.00521656
-0.0121103
0.00543792
-0.0120628
0.00564872
-0.0119528
0.00585198
-0.0118002
0.00605017
-0.0116204
0.0062452
-0.0114247
0.00643853
-0.0112212
0.00663119
-0.0110156
0.00682388
-0.0108117
0.00701705
-0.010612
0.00721095
-0.0104179
0.00740569
-0.0102304
0.00760126
-0.0100498
0.0077976
-0.0098762
0.00799458
-0.00970965
0.00819206
-0.00955002
0.00838988
-0.00939716
0.00858788
-0.00925095
0.00878594
-0.00911134
0.00898404
-0.00897838
0.00918231
-0.00885229
0.00938117
-0.00873351
0.00958146
-0.00862242
-0.00852005
0.00978471
4.70318e-05
0.00113365
0.000184874
0.00213439
0.000406363
0.0021124
0.000700522
0.00129202
0.00105341
-8.85178e-05
0.00144893
-0.00180253
0.00187002
-0.00365125
0.00230009
-0.00547364
0.00272449
-0.00715145
0.00313169
-0.008609
0.00351383
-0.00980886
0.00386673
-0.0107444
0.00418936
-0.0114311
0.00448318
-0.0118981
0.00475126
-0.012181
0.00499752
-0.0123165
0.00522614
-0.0123389
0.00544117
-0.0122778
0.00564618
-0.0121578
0.00584421
-0.0119983
0.00603769
-0.0118139
0.0062285
-0.0116155
0.006418
-0.0114107
0.00660717
-0.0112048
0.00679665
-0.0110012
0.00698682
-0.0108022
0.0071779
-0.010609
0.00736994
-0.0104224
0.00756289
-0.0102427
0.00775666
-0.01007
0.00795107
-0.00990407
0.00814596
-0.00974491
0.00834111
-0.00959231
0.00853633
-0.00944617
0.00873146
-0.00930647
0.00892645
-0.00917336
0.0091214
-0.00904724
0.00931675
-0.00892887
0.00951345
-0.00881912
-0.00871981
0.00971321
4.85056e-05
0.00108514
0.000190717
0.00199218
0.000418961
0.00188415
0.00072139
0.000989591
0.00108295
-0.000450078
0.0014864
-0.00220598
0.00191367
-0.00407851
0.00234747
-0.00590744
0.00277289
-0.00757687
0.00317847
-0.00901459
0.00355675
-0.0101871
0.00390406
-0.0110917
0.00422
-0.011747
0.00450656
-0.0121846
0.00476726
-0.0124417
0.00500635
-0.0125556
0.00522826
-0.0125608
0.00543711
-0.0124866
0.00563654
-0.0123572
0.00582957
-0.0121913
0.00601859
-0.0120029
0.0062054
-0.0118023
0.0063913
-0.0115966
0.00657721
-0.0113907
0.0067637
-0.0111877
0.00695112
-0.0109896
0.00713961
-0.0107975
0.00732919
-0.010612
0.00751978
-0.0104333
0.00771125
-0.0102614
0.00790339
-0.0100962
0.008096
-0.00993751
0.00828882
-0.00978514
0.00848163
-0.00963899
0.00867424
-0.00949908
0.00886653
-0.00936566
0.00905862
-0.00923932
0.00925093
-0.00912119
0.00944451
-0.00901269
-0.00891655
0.00964125
5.0006e-05
0.00103514
0.000196556
0.00184563
0.000431405
0.0016493
0.000741785
0.000679212
0.00111151
-0.000819801
0.00152218
-0.00261665
0.00195475
-0.00451108
0.00239133
-0.00634403
0.0028168
-0.00800233
0.00321988
-0.00941766
0.00359352
-0.0105608
0.00393467
-0.0114328
0.00424351
-0.0120559
0.00452257
-0.0124637
0.0047758
-0.0126949
0.00500776
-0.0127876
0.00522305
-0.0127761
0.0054259
-0.0126895
0.00561997
-0.0125513
0.00580822
-0.0123795
0.005993
-0.0121877
0.00617604
-0.0119853
0.00635857
-0.0117791
0.00654144
-0.0115736
0.00672517
-0.0113714
0.00691005
-0.0111745
0.00709618
-0.0109836
0.00728355
-0.0107994
0.00747205
-0.0106218
0.0076615
-0.0104509
0.00785169
-0.0102864
0.00804235
-0.0101282
0.00823321
-0.009976
0.00842402
-0.00982979
0.00861452
-0.00968958
0.00880458
-0.00955572
0.00899426
-0.00942901
0.00918402
-0.00931094
0.00937494
-0.00920361
-0.00911071
0.0095691
5.15365e-05
0.0009836
0.000202401
0.00169476
0.0004437
0.001408
0.0007617
0.000361212
0.00113905
-0.00119715
0.0015562
-0.0030338
0.00199319
-0.00494807
0.00243159
-0.00678242
0.00285615
-0.00842689
0.00325585
-0.00981736
0.00362414
-0.0109291
0.00395856
-0.0117673
0.00425993
-0.0123572
0.00453129
-0.0127351
0.004777
-0.0129406
0.00500188
-0.0130125
0.00521069
-0.0129849
0.00540772
-0.0128865
0.00559662
-0.0127402
0.00578032
-0.0125632
0.00596107
-0.0123684
0.00614055
-0.0121648
0.00631993
-0.0119585
0.00649997
-0.0117536
0.00668114
-0.0115526
0.0068637
-0.011357
0.0070477
-0.0111676
0.00723311
-0.0109848
0.00741978
-0.0108085
0.00760751
-0.0106386
0.00779605
-0.0104749
0.00798512
-0.0103172
0.00817441
-0.0101653
0.00836362
-0.010019
0.00855246
-0.00987842
0.00874074
-0.009744
0.00892848
-0.00961674
0.00911611
-0.00949857
0.00930478
-0.00939228
-0.00930266
0.00949673
5.3099e-05
0.000930501
0.000208254
0.00153961
0.000455847
0.00116041
0.000781119
3.59407e-05
0.00116553
-0.00158156
0.0015884
-0.00345667
0.00202891
-0.00538858
0.00246815
-0.00722167
0.00289086
-0.0088496
0.00328633
-0.0102128
0.00364857
-0.0112913
0.00397577
-0.0120945
0.00426934
-0.0126508
0.00453285
-0.0129986
0.004771
-0.0131788
0.00498887
-0.0132303
0.00519134
-0.0131873
0.00538273
-0.0130779
0.00556666
-0.0129241
0.005746
-0.0127426
0.00592294
-0.0125454
0.00609907
-0.0123409
0.00627547
-0.0121349
0.00645287
-0.011931
0.00663169
-0.0117314
0.00681212
-0.0115375
0.00699421
-0.0113497
0.00717788
-0.0111685
0.00736298
-0.0109936
0.00754928
-0.0108249
0.00773651
-0.0106622
0.00792435
-0.0105051
0.00811247
-0.0103534
0.00830051
-0.010207
0.00848813
-0.010066
0.00867507
-0.00993094
0.00886128
-0.00980295
0.00904716
-0.00968446
0.0092339
-0.00957902
-0.00949264
0.00942388
5.46942e-05
0.000875807
0.000214116
0.00138019
0.000467836
0.000906692
0.000800015
-0.000296238
0.00119091
-0.00197245
0.00161872
-0.00388448
0.00206182
-0.00583168
0.00250094
-0.00766079
0.00292086
-0.00926952
0.00331129
-0.0106033
0.00366684
-0.0116469
0.00398635
-0.012414
0.00427185
-0.0129363
0.00452736
-0.0132541
0.00475795
-0.0134094
0.0049689
-0.0134413
0.00516517
-0.0133836
0.0053511
-0.0132638
0.00553026
-0.0131033
0.00570544
-0.0129178
0.00587874
-0.0127187
0.00605169
-0.0125139
0.00622529
-0.0123085
0.00640022
-0.0121059
0.00657684
-0.011908
0.00675533
-0.0117159
0.0069357
-0.0115301
0.00711787
-0.0113506
0.00730164
-0.0111774
0.0074868
-0.0110101
0.00767304
-0.0108484
0.00786002
-0.0106921
0.00804737
-0.0105408
0.00823468
-0.0103943
0.00842153
-0.0102529
0.00860757
-0.010117
0.00879265