/*--------------------------------*- C++ -*----------------------------------*\
  =========                 |
  \\      /  F ield         | OpenFOAM: The Open Source CFD Toolbox
   \\    /   O peration     | Website:  https://openfoam.org
    \\  /    A nd           | Version:  7
     \\/     M anipulation  |
\*---------------------------------------------------------------------------*/
FoamFile
{
    version     2.0;
    format      ascii;
    class       volVectorField;
    location    "1.1";
    object      U;
}
// * * * * * * * * * * * * * * * * * * * * * * * * * * * * * * * * * * * * * //

dimensions      [0 1 -1 0 0 0 0];

internalField   nonuniform List<vector> 
32000
(
(-0.00145481 0.0699642 -1.8775e-21)
(-0.0043383 0.157607 0)
(-0.00728178 0.203756 -1.6736e-20)
(-0.00881924 0.21721 0)
(-0.00830118 0.206694 1.74544e-20)
(-0.00523517 0.17983 0)
(0.000570417 0.142835 1.80593e-20)
(0.00906794 0.100551 -1.37324e-20)
(0.0200266 0.056624 9.13338e-24)
(0.0330853 0.0137105 1.0842e-23)
(0.0478073 -0.0263413 -4.7542e-21)
(0.0637227 -0.0623361 1.92025e-20)
(0.0803656 -0.0936007 0)
(0.0973091 -0.119872 -4.90187e-21)
(0.114187 -0.141202 4.92211e-21)
(0.1307 -0.157863 0)
(0.146617 -0.170272 2.49249e-20)
(0.161781 -0.17893 -5.00563e-21)
(0.176092 -0.184367 0)
(0.189498 -0.187108 1.011e-20)
(0.201987 -0.187643 1.00993e-20)
(0.213574 -0.186417 0)
(0.224295 -0.183818 0)
(0.234197 -0.180176 0)
(0.243336 -0.175769 0)
(0.251772 -0.170821 0)
(0.259563 -0.165513 0)
(0.266763 -0.159989 0)
(0.273425 -0.154357 -2.01231e-20)
(0.2796 -0.148701 0)
(0.285329 -0.143084 2.00121e-20)
(0.290652 -0.13755 0)
(0.295605 -0.132132 0)
(0.300218 -0.126851 0)
(0.30452 -0.121718 -1.97226e-20)
(0.308537 -0.116743 -9.84531e-21)
(0.312287 -0.11193 2.9389e-20)
(0.315801 -0.10728 -1.86313e-23)
(0.319109 -0.102789 1.94205e-20)
(0.322008 -0.0984413 -2.16006e-23)
(-0.00267546 0.0704349 0)
(-0.00668999 0.158361 3.25551e-20)
(-0.00962977 0.204322 8.37455e-21)
(-0.0104324 0.217158 -8.23092e-24)
(-0.00868743 0.20566 -8.74281e-21)
(-0.00411797 0.177555 0)
(0.00331571 0.139161 1.79399e-20)
(0.0134511 0.0954285 -1.82024e-20)
(0.0259699 0.0501018 0)
(0.040453 0.00591653 -3.74639e-20)
(0.0564236 -0.0352217 0)
(0.0733838 -0.0720788 -5.7469e-20)
(0.0908565 -0.103967 0)
(0.108417 -0.130631 0)
(0.12571 -0.152137 1.96846e-20)
(0.142452 -0.168787 -1.97476e-20)
(0.158438 -0.181033 -1.99252e-20)
(0.173532 -0.189409 0)
(0.187663 -0.194479 6.01509e-20)
(0.200803 -0.196795 -2.00945e-20)
(0.212963 -0.196873 -6.93354e-24)
(0.224177 -0.195177 -6.0506e-20)
(0.234498 -0.192111 -4.03669e-20)
(0.243989 -0.188014 -2.02451e-20)
(0.252714 -0.18317 6.0554e-20)
(0.260741 -0.177809 -6.05449e-20)
(0.268135 -0.172114 6.0529e-20)
(0.274956 -0.166227 -8.04237e-20)
(0.281259 -0.160258 -1.99854e-20)
(0.287093 -0.15429 1.05991e-22)
(0.292505 -0.148382 -5.98246e-20)
(0.297532 -0.142578 -3.97894e-20)
(0.302209 -0.136907 7.93337e-20)
(0.306569 -0.13139 -7.89643e-20)
(0.310636 -0.126037 -1.95826e-20)
(0.314435 -0.120854 -7.83785e-20)
(0.317987 -0.115843 3.8518e-23)
(0.321318 -0.111004 1.94237e-20)
(0.32445 -0.106327 -7.72331e-20)
(0.327181 -0.101791 -1.04841e-19)
(-0.00392298 0.0707198 -7.45842e-21)
(-0.00908815 0.158746 -1.63008e-20)
(-0.0120021 0.204437 -7.48243e-20)
(-0.0120324 0.21664 0)
(-0.00900483 0.204188 8.68832e-21)
(-0.00285568 0.174886 -8.83606e-21)
(0.00628697 0.135155 -1.07752e-19)
(0.0181424 0.0900448 3.6523e-20)
(0.0323057 0.0433938 -1.84936e-20)
(0.0482865 -0.00198278 1.12095e-19)
(0.065561 -0.0441231 3.78201e-20)
(0.0836066 -0.0817593 1.9193e-20)
(0.101933 -0.114191 -7.69817e-20)
(0.120116 -0.141167 0)
(0.137813 -0.162779 0)
(0.154764 -0.179357 3.94901e-20)
(0.170787 -0.191389 1.28578e-22)
(0.185778 -0.199443 -3.97721e-20)
(0.199692 -0.204117 -4.00578e-20)
(0.21253 -0.20599 -8.00876e-20)
(0.224324 -0.205604 1.20524e-19)
(0.235132 -0.203438 1.20985e-22)
(0.245023 -0.19991 2.01079e-23)
(0.254074 -0.195369 4.02591e-20)
(0.26236 -0.190105 -8.06978e-20)
(0.269959 -0.184351 1.60914e-19)
(0.276939 -0.178289 0)
(0.283365 -0.172062 4.01971e-20)
(0.289294 -0.16578 4.01074e-20)
(0.294779 -0.159521 7.99726e-20)
(0.299863 -0.153344 1.05727e-22)
(0.304586 -0.147292 0)
(0.308982 -0.14139 3.95418e-20)
(0.313081 -0.135657 -3.92561e-20)
(0.316909 -0.130102 -3.90204e-20)
(0.320488 -0.124729 1.17334e-19)
(0.323837 -0.119537 -1.16396e-19)
(0.326982 -0.114525 7.74837e-20)
(0.329939 -0.109677 -1.15294e-19)
(0.332499 -0.104968 4.16097e-20)
(-0.0051829 0.0708113 5.93664e-20)
(-0.0115084 0.158756 -6.4691e-20)
(-0.0143822 0.204079 1.3279e-19)
(-0.0135967 0.215605 0)
(-0.00922441 0.202207 5.1821e-20)
(-0.00142411 0.17175 8.80053e-20)
(0.0095123 0.130746 1.81527e-20)
(0.0231738 0.0843398 2.65589e-23)
(0.0390564 0.0364574 5.51302e-20)
(0.0565985 -0.0100146 -1.89113e-20)
(0.0752256 -0.0530575 9.40667e-20)
(0.0943839 -0.0913733 -1.14138e-19)
(0.113572 -0.124254 1.15346e-19)
(0.132372 -0.151458 -3.88083e-20)
(0.150455 -0.173098 3.8969e-20)
(0.167585 -0.18954 -7.84427e-20)
(0.183613 -0.201306 -1.1846e-19)
(0.198462 -0.209 3.96353e-20)
(0.212121 -0.213251 -3.99115e-20)
(0.224618 -0.214667 1.20002e-19)
(0.236011 -0.21381 -8.02669e-20)
(0.246381 -0.211177 -8.0114e-20)
(0.255814 -0.207196 0)
(0.2644 -0.202227 0)
(0.272226 -0.196562 -8.01674e-20)
(0.279377 -0.190434 -8.0374e-20)
(0.285928 -0.184029 -7.99818e-20)
(0.291946 -0.177487 0)
(0.297492 -0.170914 0)
(0.302617 -0.164389 -1.59098e-19)
(0.307367 -0.157968 -1.4077e-22)
(0.311779 -0.15169 7.92286e-20)
(0.315889 -0.145579 -7.87363e-20)
(0.319724 -0.139651 -7.85659e-20)
(0.323309 -0.133913 7.84049e-20)
(0.326665 -0.128368 0)
(0.329809 -0.123013 7.76384e-20)
(0.332767 -0.117843 -1.54175e-19)
(0.335547 -0.112841 1.53599e-19)
(0.337933 -0.107976 -1.66305e-19)
(-0.00644907 0.0707227 -2.97303e-20)
(-0.0139357 0.158391 4.8546e-20)
(-0.0167466 0.203253 -6.62884e-20)
(-0.0151091 0.214079 0)
(-0.00933603 0.199749 -8.6408e-20)
(0.000188966 0.168185 -5.28275e-20)
(0.0129962 0.125975 7.1524e-20)
(0.0285402 0.0783515 0)
(0.046213 0.0293258 -1.10263e-19)
(0.0653718 -0.0181449 -3.73083e-20)
(0.0853886 -0.0619922 -3.7636e-20)
(0.10568 -0.10089 7.61163e-20)
(0.125734 -0.134125 -7.65827e-20)
(0.145137 -0.161469 3.85479e-20)
(0.163581 -0.183062 0)
(0.180859 -0.199303 1.17658e-19)
(0.196853 -0.210753 3.95756e-20)
(0.211522 -0.21805 -7.92445e-20)
(0.224887 -0.221854 1.58855e-19)
(0.237006 -0.2228 -1.59339e-19)
(0.247966 -0.22147 1.59456e-19)
(0.257867 -0.218376 8.01126e-20)
(0.266815 -0.213956 0)
(0.274914 -0.208575 8.01461e-20)
(0.282262 -0.202529 2.29942e-22)
(0.28895 -0.196052 0)
(0.295059 -0.189329 7.99807e-20)
(0.300659 -0.182496 -7.97658e-20)
(0.305813 -0.17566 7.94341e-20)
(0.310572 -0.168894 1.5881e-19)
(0.314982 -0.162253 -1.5812e-19)
(0.31908 -0.155772 1.57673e-19)
(0.3229 -0.149473 0)
(0.326468 -0.143371 0)
(0.329808 -0.137471 1.55777e-19)
(0.332939 -0.131771 0)
(0.335877 -0.12627 0)
(0.338647 -0.120959 -1.53491e-19)
(0.341248 -0.115818 1.52803e-19)
(0.343458 -0.110814 8.29519e-20)
(-0.00770908 0.0704687 1.47665e-20)
(-0.0163492 0.157668 0)
(-0.0190786 0.201962 1.3173e-19)
(-0.0165473 0.212043 1.68719e-20)
(-0.00931558 0.19679 1.72286e-20)
(0.00200175 0.164159 1.04868e-19)
(0.0167553 0.120809 1.4212e-19)
(0.0342537 0.0720552 0)
(0.0537757 0.0219848 3.66121e-20)
(0.0745959 -0.0263794 1.10836e-19)
(0.0960301 -0.070921 1.4945e-19)
(0.117463 -0.110293 -3.78622e-20)
(0.138375 -0.143781 -1.14257e-19)
(0.158361 -0.171173 0)
(0.177137 -0.192641 1.54773e-19)
(0.194526 -0.208619 0)
(0.210447 -0.219704 2.35268e-19)
(0.224896 -0.226569 -7.87192e-20)
(0.237928 -0.229905 0)
(0.249634 -0.230372 -7.95041e-20)
(0.260128 -0.22857 -2.4958e-22)
(0.269533 -0.225023 -7.93139e-20)
(0.277973 -0.220179 -7.96601e-20)
(0.285565 -0.214406 7.9862e-20)
(0.292419 -0.208003 -7.96529e-20)
(0.298632 -0.201202 0)
(0.304289 -0.194186 -7.96296e-20)
(0.309463 -0.18709 7.93257e-20)
(0.314219 -0.180016 0)
(0.318608 -0.173036 0)
(0.322674 -0.166199 0)
(0.326456 -0.159539 -1.57144e-19)
(0.329984 -0.153075 1.56314e-19)
(0.333285 -0.146821 0)
(0.336379 -0.140777 -7.77414e-20)
(0.339285 -0.134943 0)
(0.342017 -0.129313 1.53919e-19)
(0.344599 -0.123877 -7.62706e-20)
(0.347022 -0.118612 -1.52427e-19)
(0.349054 -0.113483 1.64733e-19)
(-0.00895563 0.0700597 1.02816e-19)
(-0.01873 0.156591 -1.44168e-19)
(-0.021352 0.200209 -2.46601e-19)
(-0.017888 0.209504 -1.34263e-19)
(-0.00914362 0.193332 -3.43128e-20)
(0.00403124 0.159677 -7.00492e-20)
(0.0207981 0.115258 -3.19226e-19)
(0.0403124 0.0654612 -1.07682e-19)
(0.061734 0.0144475 -1.81995e-19)
(0.0842503 -0.0346987 -1.84748e-19)
(0.107119 -0.079822 -2.61123e-19)
(0.129694 -0.119558 -1.50434e-19)
(0.15145 -0.153196 5.32107e-22)
(0.171994 -0.180545 -1.53086e-19)
(0.191066 -0.20181 -1.54769e-19)
(0.208527 -0.217462 -2.33123e-19)
(0.224334 -0.228135 1.55838e-19)
(0.238522 -0.234536 -7.84421e-20)
(0.251183 -0.237387 0)
(0.262443 -0.237369 1.57948e-19)
(0.272442 -0.235097 0)
(0.281326 -0.23111 3.17641e-19)
(0.289238 -0.22586 0)
(0.296307 -0.219718 -7.95753e-20)
(0.302653 -0.212982 7.98212e-20)
(0.308381 -0.205884 -1.5859e-19)
(0.313579 -0.198603 0)
(0.318323 -0.191271 -1.5837e-19)
(0.322676 -0.183986 1.57711e-19)
(0.326692 -0.176817 0)
(0.330414 -0.16981 0)
(0.333878 -0.162995 0)
(0.337114 -0.156389 -1.55551e-19)
(0.340147 -0.150003 0)
(0.342996 -0.143837 -1.54706e-19)
(0.345678 -0.137887 3.07814e-19)
(0.348205 -0.132146 -3.06396e-19)
(0.3506 -0.126602 1.51935e-19)
(0.352847 -0.121228 3.0341e-19)
(0.354701 -0.115991 -1.64007e-19)
(-0.0101794 0.0695025 -1.32197e-19)
(-0.0210587 0.155171 4.18755e-22)
(-0.0235445 0.198001 1.31303e-19)
(-0.0191071 0.206461 2.68094e-19)
(-0.00879795 0.189374 -3.42026e-20)
(0.0062936 0.154737 -1.39006e-19)
(0.025133 0.109319 1.41617e-19)
(0.0467157 0.0585713 2.15418e-19)
(0.0700775 0.00672171 7.2898e-20)
(0.0943149 -0.0430916 1.83534e-19)
(0.118626 -0.0886795 1.48927e-19)
(0.142336 -0.128665 2.25144e-19)
(0.164913 -0.162347 4.54661e-19)
(0.185983 -0.189562 2.29343e-19)
(0.205313 -0.210547 0)
(0.222804 -0.225811 7.76268e-20)
(0.238454 -0.236027 7.72402e-20)
(0.252341 -0.241936 7.78932e-20)
(0.264596 -0.244286 1.57182e-19)
(0.275376 -0.24378 -7.92792e-20)
(0.284854 -0.241047 0)
(0.293196 -0.236633 -5.68408e-22)
(0.300561 -0.230997 -1.58091e-19)
(0.307094 -0.22451 1.58112e-19)
(0.312924 -0.217468 3.16659e-19)
(0.31816 -0.210101 3.16214e-19)
(0.322894 -0.202583 -1.37482e-22)
(0.327204 -0.195044 1.57341e-19)
(0.331154 -0.187575 1.5697e-19)
(0.334796 -0.180243 -1.5654e-19)
(0.338173 -0.173091 1.56056e-19)
(0.34132 -0.166145 1.55524e-19)
(0.344265 -0.15942 3.10497e-19)
(0.34703 -0.152924 -4.21099e-22)
(0.349636 -0.146655 4.61641e-19)
(0.352095 -0.140609 -1.93492e-22)
(0.354419 -0.134774 -1.52278e-19)
(0.356628 -0.129138 -1.52157e-19)
(0.358701 -0.123672 1.50777e-19)
(0.360377 -0.118344 1.63053e-19)
(-0.011373 0.0688057 1.16735e-19)
(-0.0233174 0.153419 1.59585e-19)
(-0.0256327 0.195345 9.78053e-20)
(-0.02018 0.20292 -1.0041e-19)
(-0.00825682 0.184918 -1.70152e-19)
(0.00880491 0.14934 1.38972e-19)
(0.029769 0.102995 0)
(0.0534642 0.0513918 1.42732e-19)
(0.0787969 -0.00118307 0)
(0.10477 -0.0515443 -2.93099e-19)
(0.130523 -0.0974756 7.41721e-20)
(0.155351 -0.137594 -3.74009e-19)
(0.178722 -0.171214 -1.51283e-19)
(0.200279 -0.198201 7.57266e-20)
(0.219826 -0.218829 2.53513e-22)
(0.237301 -0.233647 -7.70778e-20)
(0.252751 -0.243365 -1.55561e-19)
(0.266298 -0.248757 -3.12047e-19)
(0.27811 -0.250595 0)
(0.288382 -0.249601 -6.72958e-23)
(0.297313 -0.246416 -1.57233e-19)
(0.305094 -0.241593 -1.57965e-19)
(0.311899 -0.235593 1.58088e-19)
(0.317887 -0.228787 -1.5857e-19)
(0.323193 -0.221467 1.57448e-19)
(0.327933 -0.213859 -3.15308e-19)
(0.332201 -0.206133 -1.4761e-22)
(0.336076 -0.198413 -3.14237e-19)
(0.339623 -0.190789 -1.56969e-19)
(0.342892 -0.183321 1.68738e-22)
(0.345927 -0.176048 -4.29951e-22)
(0.348758 -0.168995 -1.55523e-19)
(0.351413 -0.162174 -1.54946e-19)
(0.353913 -0.155589 -6.11558e-22)
(0.356277 -0.149238 -1.53677e-19)
(0.358514 -0.143113 -6.17862e-22)
(0.360637 -0.137203 -1.51871e-19)
(0.362664 -0.131492 4.5316e-19)
(0.364563 -0.12595 -1.50776e-19)
(0.366062 -0.120548 -1.63009e-19)
(-0.0125295 0.0679776 -1.16747e-19)
(-0.025488 0.151346 3.1753e-20)
(-0.0275935 0.192253 -9.78753e-20)
(-0.0210825 0.198888 -3.32776e-20)
(-0.00749788 0.17997 1.3609e-19)
(0.0115829 0.143493 -3.45883e-20)
(0.034716 0.0962932 3.51089e-20)
(0.0605587 0.0439314 -2.14022e-19)
(0.0878841 -0.00925491 7.21206e-20)
(0.115599 -0.0600416 1.46296e-19)
(0.142783 -0.106192 0)
(0.168705 -0.146326 2.98238e-19)
(0.192835 -0.179777 0)
(0.214836 -0.206444 -3.03475e-19)
(0.234551 -0.226641 -1.52596e-19)
(0.251965 -0.240957 0)
(0.267172 -0.250138 0)
(0.280337 -0.25499 3.10932e-19)
(0.291674 -0.256309 1.56289e-19)
(0.301411 -0.25483 -3.13053e-19)
(0.309774 -0.251205 1.56665e-19)
(0.316977 -0.245993 0)
(0.323211 -0.239653 -1.57399e-19)
(0.328646 -0.232554 3.13884e-19)
(0.333425 -0.224984 -1.56994e-19)
(0.337667 -0.217165 -1.57149e-19)
(0.34147 -0.20926 1.56608e-19)
(0.344912 -0.201389 0)
(0.348058 -0.193636 3.11973e-19)
(0.350958 -0.186057 -1.55505e-19)
(0.353651 -0.178688 -1.55271e-19)
(0.35617 -0.171551 -2.40294e-22)
(0.358538 -0.164656 6.15926e-19)
(0.360776 -0.158003 -4.60309e-19)
(0.362899 -0.15159 0)
(0.364918 -0.145406 -1.52373e-19)
(0.366842 -0.13944 -3.02891e-19)
(0.368688 -0.133671 1.50082e-19)
(0.370417 -0.128068 1.49513e-19)
(0.371738 -0.12261 0)
(-0.0136428 0.0670264 -2.31871e-19)
(-0.0275548 0.148966 -3.16467e-20)
(-0.0294045 0.188738 2.5922e-19)
(-0.02179 0.194377 -2.65091e-19)
(-0.00649843 0.17454 0)
(0.0146453 0.137202 0)
(0.0399855 0.0892224 -7.00467e-20)
(0.0680025 0.0362018 -7.62978e-23)
(0.0973328 -0.0174799 7.1878e-20)
(0.126786 -0.0685673 0)
(0.155382 -0.114812 0)
(0.182365 -0.154841 -7.44509e-20)
(0.207209 -0.188017 2.25306e-22)
(0.229607 -0.214274 7.59857e-20)
(0.24944 -0.233967 1.52594e-19)
(0.266744 -0.247728 0)
(0.281662 -0.256338 1.54424e-19)
(0.294409 -0.260632 -1.54707e-19)
(0.305238 -0.261426 -3.1099e-19)
(0.314414 -0.259468 3.11917e-19)
(0.322192 -0.25542 4.07883e-22)
(0.328804 -0.24984 -1.5633e-19)
(0.33446 -0.243186 1.56815e-19)
(0.339338 -0.235822 -3.13424e-19)
(0.343589 -0.228032 0)
(0.347335 -0.22003 1.56552e-19)
(0.350674 -0.211974 -3.12315e-19)
(0.353687 -0.20398 1.55705e-19)
(0.356436 -0.196124 -1.55769e-19)
(0.35897 -0.18846 -1.55153e-19)
(0.361327 -0.18102 -1.549e-19)
(0.363536 -0.173822 6.15982e-19)
(0.365621 -0.166873 -4.60319e-19)
(0.367599 -0.160174 -3.05791e-19)
(0.369485 -0.153718 3.04042e-19)
(0.371287 -0.147494 0)
(0.373014 -0.141488 3.01622e-19)
(0.374681 -0.135679 -2.99735e-19)
(0.376241 -0.130034 -1.49512e-19)
(0.377387 -0.124537 0)
(-0.0147071 0.0659597 4.91934e-19)
(-0.0295017 0.146291 2.20512e-19)
(-0.0310438 0.184813 -2.59218e-19)
(-0.0222783 0.189399 2.31989e-19)
(-0.00523509 0.168638 -3.37934e-20)
(0.0180117 0.13048 6.86727e-20)
(0.04559 0.0817951 0)
(0.0757998 0.0282163 -7.08133e-20)
(0.107138 -0.0258426 7.16363e-20)
(0.138315 -0.0771039 7.25977e-20)
(0.168295 -0.123316 -7.32307e-20)
(0.196298 -0.163123 -7.41448e-20)
(0.221807 -0.195917 7.46082e-20)
(0.244547 -0.221675 0)
(0.264445 -0.240797 0)
(0.281588 -0.253953 -1.53021e-19)
(0.296172 -0.261961 1.5338e-19)
(0.308462 -0.265682 -1.54582e-19)
(0.318755 -0.265949 1.54706e-19)
(0.327348 -0.263523 1.55603e-19)
(0.334525 -0.259068 -3.1145e-19)
(0.340538 -0.253143 3.11886e-19)
(0.34561 -0.246202 3.54003e-22)
(0.349931 -0.238602 -1.55894e-19)
(0.353656 -0.23062 0)
(0.356909 -0.222465 1.55953e-19)
(0.359791 -0.214288 2.81933e-22)
(0.36238 -0.206196 -1.55104e-19)
(0.364738 -0.198264 0)
(0.366911 -0.190539 3.09075e-19)
(0.368936 -0.18305 -3.07603e-19)
(0.37084 -0.175813 0)
(0.372644 -0.168833 3.05796e-19)
(0.374366 -0.162107 -3.04112e-19)
(0.376017 -0.155626 0)
(0.377605 -0.149381 0)
(0.379137 -0.143355 0)
(0.380627 -0.137522 -2.98833e-19)
(0.38202 -0.131851 2.96918e-19)
(0.382989 -0.126335 3.21264e-19)
(-0.0157173 0.0647855 -2.31096e-19)
(-0.0313144 0.143338 -2.5205e-19)
(-0.0324901 0.180495 -3.2264e-20)
(-0.0225229 0.183971 9.89398e-20)
(-0.00368406 0.162281 -1.34552e-19)
(0.0217019 0.123341 1.3695e-19)
(0.0515434 0.074026 -1.39114e-19)
(0.0839565 0.019991 -2.11166e-19)
(0.117296 -0.0343255 0)
(0.150175 -0.0856333 -7.2348e-20)
(0.181499 -0.131686 7.29788e-20)
(0.210472 -0.171152 0)
(0.236589 -0.203461 1.49138e-19)
(0.259612 -0.228636 -1.49907e-19)
(0.279517 -0.24712 -4.53465e-19)
(0.296447 -0.259626 -4.93391e-22)
(0.310654 -0.267005 3.06152e-19)
(0.322452 -0.270141 -1.53555e-19)
(0.33218 -0.269884 0)
(0.340172 -0.267002 0)
(0.346735 -0.262161 3.09742e-19)
(0.352143 -0.255916 1.55549e-19)
(0.356632 -0.248715 -1.55294e-19)
(0.360397 -0.240908 -1.55633e-19)
(0.3636 -0.232764 3.10761e-19)
(0.366368 -0.224484 -1.5506e-19)
(0.368799 -0.216212 3.10182e-19)
(0.370971 -0.20805 -6.18523e-19)
(0.372944 -0.200066 6.16976e-19)
(0.374763 -0.192303 -6.15196e-19)
(0.376462 -0.184788 6.13203e-19)
(0.378066 -0.177533 -6.11015e-19)
(0.379595 -0.170541 3.04114e-19)
(0.381064 -0.163807 3.03265e-19)
(0.382483 -0.157321 3.91729e-22)
(0.383858 -0.151073 3.78713e-22)
(0.385195 -0.145043 -2.98685e-19)
(0.38651 -0.139204 8.21752e-22)
(0.387737 -0.133526 -2.95629e-19)
(0.388528 -0.128009 0)
(-0.0166689 0.0635109 2.87399e-20)
(-0.0329788 0.14012 -3.13687e-20)
(-0.0337227 0.175802 9.6438e-20)
(-0.0224995 0.17811 -1.31467e-19)
(-0.0018211 0.155485 6.70276e-20)
(0.0257369 0.115802 0)
(0.0578604 0.0659328 0)
(0.0924791 0.0115445 2.81668e-19)
(0.127805 -0.0429093 3.55555e-19)
(0.162351 -0.0941356 -7.19709e-20)
(0.194972 -0.139902 3.63604e-19)
(0.224856 -0.178911 -7.3434e-20)
(0.251518 -0.210635 0)
(0.274759 -0.235144 0)
(0.294612 -0.252929 3.01964e-19)
(0.311276 -0.264744 0)
(0.325062 -0.271472 1.51755e-19)
(0.336333 -0.274017 -1.52924e-19)
(0.345473 -0.273242 0)
(0.352847 -0.269919 -3.07953e-19)
(0.358789 -0.264713 -1.54968e-19)
(0.363589 -0.258174 -4.63601e-19)
(0.367496 -0.250741 -1.55052e-19)
(0.370712 -0.242756 1.5472e-19)
(0.373401 -0.234479 3.08982e-19)
(0.375691 -0.226102 0)
(0.37768 -0.217762 3.08097e-19)
(0.379444 -0.209554 6.15735e-19)
(0.381041 -0.201541 4.8698e-22)
(0.382514 -0.193763 -3.06129e-19)
(0.383893 -0.186242 -3.0558e-19)
(0.385202 -0.178989 3.04043e-19)
(0.386459 -0.172003 3.03269e-19)
(0.387678 -0.165279 -6.03589e-19)
(0.388867 -0.158806 6.00903e-19)
(0.390032 -0.152572 -2.99685e-19)
(0.391175 -0.146556 2.97403e-19)
(0.392315 -0.140729 5.92124e-19)
(0.393375 -0.13506 2.93838e-19)
(0.393988 -0.129562 3.17477e-19)
(-0.0175576 0.0621431 -2.28767e-19)
(-0.0344818 0.136652 2.18254e-19)
(-0.0347214 0.170751 -1.91822e-19)
(-0.0221844 0.171836 1.96112e-19)
(0.000377992 0.148271 3.33752e-19)
(0.0301378 0.107884 -2.71675e-19)
(0.0645564 0.057536 3.45054e-19)
(0.101375 0.00289771 2.09756e-19)
(0.13866 -0.0515726 -4.96636e-19)
(0.174832 -0.10259 1.4306e-19)
(0.208691 -0.147946 7.1486e-20)
(0.239419 -0.186384 1.46747e-19)
(0.266555 -0.217425 1.4757e-19)
(0.289947 -0.241191 -2.97661e-19)
(0.309685 -0.258221 2.99845e-19)
(0.326031 -0.269309 4.53162e-19)
(0.339352 -0.275367 -4.56264e-19)
(0.350066 -0.277318 6.10745e-19)
(0.358595 -0.276033 3.05947e-19)
(0.36534 -0.272287 4.61839e-19)
(0.370655 -0.266741 1.53634e-19)
(0.374848 -0.259935 3.08998e-19)
(0.378178 -0.252298 -3.08017e-19)
(0.380854 -0.244164 0)
(0.383038 -0.235781 -9.25435e-19)
(0.384861 -0.227334 6.1601e-19)
(0.386419 -0.21895 -3.07573e-19)
(0.387786 -0.21072 -3.0694e-19)
(0.389016 -0.202701 -3.7477e-22)
(0.39015 -0.194928 0)
(0.391216 -0.187421 0)
(0.392237 -0.180187 3.02372e-19)
(0.393227 -0.173225 -3.01996e-19)
(0.3942 -0.166528 3.00332e-19)
(0.395161 -0.160085 -2.99351e-19)
(0.396115 -0.153881 -2.97932e-19)
(0.397065 -0.147895 0)
(0.398029 -0.142096 -2.946e-19)
(0.398921 -0.136454 -2.93534e-19)
(0.399353 -0.130997 -9.51216e-19)
(-0.0183796 0.0606892 2.28725e-19)
(-0.035811 0.13295 -2.18439e-19)
(-0.0354665 0.165363 2.55849e-19)
(-0.0215537 0.16517 -4.5714e-19)
(0.0029374 0.14066 -3.33532e-19)
(0.034926 0.0996099 2.71673e-19)
(0.0716467 0.0488591 -5.50946e-19)
(0.11065 -0.00592539 -2.79792e-19)
(0.149861 -0.0602915 3.5411e-19)
(0.187604 -0.110973 -6.43785e-19)
(0.222634 -0.155797 -4.34493e-19)
(0.254132 -0.193553 -1.45714e-19)
(0.281666 -0.223818 -4.42812e-19)
(0.305136 -0.246768 4.46001e-19)
(0.324695 -0.262993 -2.99842e-19)
(0.340669 -0.273324 -3.01768e-19)
(0.353485 -0.278699 0)
(0.363612 -0.280057 -3.04818e-19)
(0.371513 -0.278275 -4.58843e-19)
(0.377618 -0.274125 1.52918e-19)
(0.382305 -0.268263 -3.07442e-19)
(0.385897 -0.261216 0)
(0.388659 -0.253405 3.08015e-19)
(0.390803 -0.245149 3.07696e-19)
(0.392496 -0.236689 -3.05697e-19)
(0.393864 -0.228196 0)
(0.395003 -0.219794 0)
(0.395984 -0.211563 0)
(0.396858 -0.203557 -1.23552e-21)
(0.397662 -0.195808 0)
(0.398424 -0.188332 -6.05294e-19)
(0.399162 -0.181134 -8.33335e-22)
(0.39989 -0.174211 -6.00614e-19)
(0.400619 -0.167557 5.98484e-19)
(0.401354 -0.161158 -2.97711e-19)
(0.402098 -0.155 2.97111e-19)
(0.402855 -0.14906 0)
(0.403641 -0.143305 5.87696e-19)
(0.404362 -0.137708 -2.91713e-19)
(0.404611 -0.132311 0)
(-0.0191313 0.0591558 2.84472e-20)
(-0.0369547 0.129029 0)
(-0.0359393 0.159657 -3.17858e-19)
(-0.0205845 0.158136 3.90997e-19)
(0.00588097 0.132677 1.98822e-19)
(0.0401224 0.0910042 -2.6989e-19)
(0.0791462 0.0399282 2.75015e-19)
(0.120313 -0.0148986 -2.77926e-19)
(0.161404 -0.0690406 0)
(0.200653 -0.119261 2.85662e-19)
(0.236779 -0.163433 -2.87738e-19)
(0.268963 -0.200401 9.97279e-22)
(0.296813 -0.229802 0)
(0.320287 -0.251871 2.95591e-19)
(0.339602 -0.267246 -1.48377e-19)
(0.355152 -0.276794 3.00104e-19)
(0.367424 -0.281477 1.50595e-19)
(0.376938 -0.282248 -3.02619e-19)
(0.384196 -0.279983 0)
(0.389656 -0.275453 4.57302e-19)
(0.393717 -0.2693 1.52481e-19)
(0.396714 -0.262041 0)
(0.398919 -0.254083 0)
(0.400546 -0.245733 0)
(0.401761 -0.23722 3.0659e-19)
(0.402689 -0.228707 0)
(0.403423 -0.220307 -3.05295e-19)
(0.404031 -0.212096 6.08731e-19)
(0.40456 -0.204122 -6.07515e-19)
(0.405044 -0.196414 0)
(0.405509 -0.188984 3.02232e-19)
(0.405971 -0.181836 -2.99841e-19)
(0.406442 -0.174967 2.99896e-19)
(0.406931 -0.168367 0)
(0.407441 -0.162027 0)
(0.407975 -0.155928 2.95318e-19)
(0.408536 -0.150049 -2.9352e-19)
(0.409142 -0.144353 5.84535e-19)
(0.409689 -0.138819 -5.80791e-19)
(0.409752 -0.133502 0)
(-0.0198095 0.0575495 1.98012e-19)
(-0.0379015 0.124905 6.18198e-20)
(-0.0361213 0.153655 2.54168e-19)
(-0.0192543 0.150757 2.59103e-19)
(0.00923187 0.124349 -2.65195e-19)
(0.0457474 0.0820952 2.69888e-19)
(0.0870693 0.0307716 2.7319e-19)
(0.130368 -0.0239934 2.77924e-19)
(0.173284 -0.0777926 0)
(0.213967 -0.127431 2.83731e-19)
(0.251101 -0.170835 2.87734e-19)
(0.283883 -0.206913 2.90569e-19)
(0.311963 -0.235369 0)
(0.335362 -0.256496 -1.02319e-21)
(0.354368 -0.270981 2.97741e-19)
(0.369443 -0.279727 -1.49855e-19)
(0.381135 -0.283716 -1.51207e-19)
(0.390013 -0.283907 4.5386e-19)
(0.396616 -0.281179 4.08981e-22)
(0.40143 -0.276291 -1.52922e-19)
(0.404871 -0.269874 -3.0515e-19)
(0.407283 -0.262431 0)
(0.408944 -0.254354 0)
(0.410069 -0.245936 0)
(0.410823 -0.237395 0)
(0.411327 -0.228883 0)
(0.411671 -0.220506 0)
(0.411919 -0.212333 3.03363e-19)
(0.412115 -0.204407 -3.02103e-19)
(0.412291 -0.196754 0)
(0.412468 -0.189384 0)
(0.412661 -0.182298 2.99841e-19)
(0.41288 -0.175494 0)
(0.41313 -0.168962 2.9684e-19)
(0.413417 -0.162691 -2.95143e-19)
(0.41374 -0.156664 0)
(0.414104 -0.150857 5.85002e-19)
(0.414526 -0.145235 -5.81343e-19)
(0.414895 -0.139778 0)
(0.41477 -0.134562 0)
(-0.020411 0.0558763 -2.26409e-19)
(-0.0386407 0.120592 -6.17058e-20)
(-0.035995 0.147379 6.31834e-20)
(-0.0175412 0.14306 -2.59103e-19)
(0.0130124 0.115705 0)
(0.0518202 0.0729129 0)
(0.0954288 0.0214202 -2.04983e-19)
(0.140819 -0.0331794 -6.91091e-20)
(0.185496 -0.0865187 -1.40106e-19)
(0.227529 -0.135455 -1.42206e-19)
(0.265579 -0.17798 -1.43303e-19)
(0.298862 -0.213073 1.44368e-19)
(0.327081 -0.240508 1.45126e-19)
(0.350325 -0.26064 -1.47754e-19)
(0.368958 -0.274204 0)
(0.383509 -0.282134 0)
(0.394587 -0.285429 -3.00181e-19)
(0.402809 -0.285055 0)
(0.408751 -0.281884 0)
(0.41292 -0.276663 3.02098e-19)
(0.415748 -0.27001 7.03758e-22)
(0.41759 -0.26241 -2.37059e-22)
(0.418723 -0.25424 -3.04205e-19)
(0.419365 -0.24578 3.03553e-19)
(0.419675 -0.237233 3.03002e-19)
(0.419772 -0.228743 -3.02581e-19)
(0.419743 -0.220406 0)
(0.419645 -0.212287 3.02126e-19)
(0.419522 -0.204424 4.1181e-22)
(0.4194 -0.196838 -2.99938e-19)
(0.419298 -0.189539 0)
(0.419229 -0.182527 0)
(0.4192 -0.175797 2.96867e-19)
(0.419217 -0.169342 -2.95232e-19)
(0.419281 -0.163148 -2.94153e-19)
(0.419393 -0.157202 2.92414e-19)
(0.419557 -0.151479 0)
(0.419791 -0.145942 0)
(0.419978 -0.140577 0)
(0.419662 -0.135481 -3.1071e-19)
(-0.0209328 0.0541418 2.8121e-19)
(-0.0391622 0.116106 -1.22899e-19)
(-0.0355436 0.140849 6.29716e-20)
(-0.0154246 0.135071 0)
(0.0172437 0.106773 3.2834e-19)
(0.0583585 0.0634894 3.98489e-23)
(0.104236 0.0119072 2.71399e-19)
(0.15167 -0.0424237 -2.06741e-19)
(0.198033 -0.0951881 2.79097e-19)
(0.241323 -0.143307 -1.41043e-19)
(0.280187 -0.184847 0)
(0.31387 -0.218867 1.44241e-19)
(0.342135 -0.245213 -4.36321e-19)
(0.365144 -0.264304 0)
(0.383338 -0.27692 4.42424e-19)
(0.397319 -0.284027 -2.96023e-19)
(0.407754 -0.286635 -2.98561e-19)
(0.415304 -0.285711 1.49729e-19)
(0.420579 -0.28212 0)
(0.424109 -0.276593 -3.02298e-19)
(0.426338 -0.269731 -3.02624e-19)
(0.427624 -0.262001 -9.09836e-22)
(0.428249 -0.253764 3.0216e-19)
(0.428425 -0.245285 3.02929e-19)
(0.428311 -0.236754 -6.0514e-19)
(0.42802 -0.228304 3.02582e-19)
(0.427634 -0.220024 0)
(0.427207 -0.211973 -3.00073e-19)
(0.426777 -0.204184 2.99226e-19)
(0.426369 -0.196677 2.98264e-19)
(0.425999 -0.189458 -2.97198e-19)
(0.425676 -0.182527 2.96036e-19)
(0.425406 -0.175879 0)
(0.425192 -0.169506 2.94251e-19)
(0.425035 -0.163398 5.85196e-19)
(0.424936 -0.157539 -5.82237e-19)
(0.424897 -0.151907 5.79713e-19)
(0.424941 -0.146464 4.61005e-22)
(0.424942 -0.141206 -2.86984e-19)
(0.424434 -0.136246 6.20308e-19)
(-0.0213722 0.0523512 -1.68681e-19)
(-0.0394561 0.11146 -3.67058e-19)
(-0.0347511 0.134088 2.50702e-19)
(-0.0128851 0.126818 -1.92328e-19)
(0.0219451 0.097586 -6.64349e-20)
(0.0653782 0.0538588 6.66659e-20)
(0.1135 0.00226779 -1.35866e-19)
(0.16292 -0.0516918 -1.37288e-19)
(0.210885 -0.103769 1.39159e-19)
(0.255331 -0.15096 -2.81365e-19)
(0.2949 -0.191415 -3.02118e-22)
(0.328877 -0.224279 1.43387e-19)
(0.357091 -0.249477 0)
(0.379785 -0.267488 -1.46229e-19)
(0.39748 -0.27914 -1.47792e-19)
(0.410847 -0.28542 2.96467e-19)
(0.420611 -0.287352 0)
(0.427478 -0.285899 0)
(0.432086 -0.281912 3.00202e-19)
(0.434985 -0.276107 -3.0024e-19)
(0.436628 -0.269062 0)
(0.437378 -0.26123 3.01771e-19)
(0.437514 -0.25295 -3.01583e-19)
(0.437246 -0.244473 -6.02946e-19)
(0.436728 -0.235977 -4.96791e-22)
(0.436069 -0.227584 3.01358e-19)
(0.435344 -0.219376 -5.99538e-19)
(0.434604 -0.211404 3.00073e-19)
(0.433883 -0.203701 -2.99227e-19)
(0.433201 -0.19628 -4.51736e-22)
(0.432572 -0.189148 8.02375e-22)
(0.432004 -0.182304 -2.96037e-19)
(0.431499 -0.175742 -2.93513e-19)
(0.431058 -0.169457 -2.92178e-19)
(0.430684 -0.163437 -1.2947e-21)
(0.430373 -0.157669 0)
(0.430132 -0.152133 -2.87767e-19)
(0.429981 -0.146792 5.73886e-19)
(0.429794 -0.14165 -8.56082e-19)
(0.429097 -0.136842 4.333e-22)
(-0.0217262 0.0505094 -5.59189e-20)
(-0.039513 0.106669 4.88317e-19)
(-0.0336025 0.127118 -2.50791e-19)
(-0.00990462 0.118329 1.92467e-19)
(0.0271342 0.0881764 -5.22536e-19)
(0.0728928 0.0440568 6.64406e-20)
(0.123227 -0.00746122 -2.69521e-19)
(0.174566 -0.060948 0)
(0.22404 -0.112228 0)
(0.269533 -0.158385 -2.79901e-19)
(0.309692 -0.197663 1.41845e-19)
(0.343853 -0.229298 -5.08236e-22)
(0.371919 -0.253295 1.44153e-19)
(0.394219 -0.270197 0)
(0.411354 -0.280871 -4.39336e-19)
(0.424067 -0.286331 1.47231e-19)
(0.433138 -0.287602 -2.9591e-19)
(0.439313 -0.285642 0)
(0.443259 -0.281285 0)
(0.445539 -0.275229 8.95704e-22)
(0.446614 -0.26803 -2.99681e-19)
(0.446847 -0.260121 2.99748e-19)
(0.446516 -0.251822 -3.0068e-19)
(0.445827 -0.243367 3.00035e-19)
(0.444927 -0.234923 8.25924e-22)
(0.443919 -0.226602 8.34054e-22)
(0.442875 -0.218477 2.99578e-19)
(0.441839 -0.210596 -2.97622e-19)
(0.44084 -0.202985 0)
(0.439898 -0.195658 -2.96559e-19)
(0.439023 -0.188617 2.95148e-19)
(0.438218 -0.181863 0)
(0.437485 -0.175391 2.93514e-19)
(0.436824 -0.169194 -2.91151e-19)
(0.436234 -0.163264 2.89223e-19)
(0.435715 -0.157588 0)
(0.43527 -0.15215 8.622e-19)
(0.434925 -0.146915 -5.70839e-19)
(0.434549 -0.141896 0)
(0.433668 -0.137252 3.08377e-19)
(-0.0219922 0.0486212 4.44991e-19)
(-0.0393243 0.101747 -2.4374e-19)
(-0.0320838 0.119961 -6.24224e-20)
(-0.00646674 0.109633 6.37587e-20)
(0.0328265 0.0785783 2.60798e-19)
(0.080913 0.0341208 0)
(0.133421 -0.0172416 2.6952e-19)
(0.186604 -0.0701555 4.08194e-19)
(0.237484 -0.120533 1.38049e-19)
(0.283907 -0.165556 1.40055e-19)
(0.324536 -0.203571 1.41064e-19)
(0.358768 -0.233911 -4.28416e-19)
(0.386589 -0.256665 1.43661e-19)
(0.408418 -0.272435 5.79022e-19)
(0.424936 -0.282128 1.46332e-19)
(0.436958 -0.286775 1.46715e-19)
(0.445318 -0.287405 2.95909e-19)
(0.450798 -0.284963 0)
(0.454087 -0.280265 0)
(0.455763 -0.273986 5.97646e-19)
(0.456289 -0.26666 -1.1944e-18)
(0.456029 -0.258698 -8.81245e-22)
(0.455255 -0.250401 0)
(0.454167 -0.241988 0)
(0.452908 -0.233612 2.99426e-19)
(0.451573 -0.225375 0)
(0.450228 -0.217344 0)
(0.448913 -0.209561 -2.95178e-19)
(0.447654 -0.20205 -5.91045e-19)
(0.446465 -0.19482 0)
(0.445355 -0.187874 -5.86866e-19)
(0.444324 -0.181212 -1.17051e-18)
(0.443372 -0.174829 5.82931e-19)
(0.442496 -0.16872 -5.79234e-19)
(0.441697 -0.162878 5.77896e-19)
(0.440972 -0.157293 -5.7448e-19)
(0.440327 -0.151951 -5.7031e-19)
(0.439789 -0.146822 0)
(0.439227 -0.141931 0)
(0.438172 -0.13746 0)
(-0.0221675 0.0466907 -4.44993e-19)
(-0.0388814 0.0967077 0)
(-0.0301822 0.11264 0)
(-0.00255676 0.100759 0)
(0.039035 0.0688267 0)
(0.089447 0.0240891 0)
(0.144082 -0.0270343 1.3411e-19)
(0.199025 -0.0792766 -6.80544e-19)
(0.251201 -0.12865 -4.11891e-19)
(0.298429 -0.172445 -1.39135e-19)
(0.339404 -0.20912 0)
(0.373593 -0.23811 5.67415e-19)
(0.401072 -0.259585 1.43561e-19)
(0.422354 -0.274209 -1.30035e-18)
(0.438204 -0.282923 0)