/*--------------------------------*- C++ -*----------------------------------*\
  =========                 |
  \\      /  F ield         | OpenFOAM: The Open Source CFD Toolbox
   \\    /   O peration     | Website:  https://openfoam.org
    \\  /    A nd           | Version:  7
     \\/     M anipulation  |
\*---------------------------------------------------------------------------*/
FoamFile
{
    version     2.0;
    format      ascii;
    class       surfaceScalarField;
    location    "65";
    object      phi;
}
// * * * * * * * * * * * * * * * * * * * * * * * * * * * * * * * * * * * * * //

dimensions      [0 3 -1 0 0 0 0];

internalField   nonuniform List<scalar> 
3880
(
-2.57468e-05
-0.000790704
0.00081645
-1.89072e-05
-0.00165499
0.00164815
4.92997e-05
-0.00200804
0.00193984
0.000199659
-0.00195235
0.001802
0.000449979
-0.00154656
0.00129624
0.000814845
-0.000826908
0.000462042
0.00130314
0.000179027
-0.000667326
0.00191511
0.0014423
-0.00205426
0.00263968
0.0029259
-0.00365047
0.00458036
0.00345239
-0.00539307
-2.58199e-05
-0.000764884
-1.7252e-05
-0.00166355
5.11761e-05
-0.00207647
0.000198199
-0.00209938
0.000442027
-0.00179039
0.000800084
-0.00118496
0.00128619
-0.000307083
0.00190652
0.000821979
0.00265529
0.00217713
0.00372507
0.00351057
-2.02404e-05
-0.000744643
8.77994e-07
-0.00168467
8.16524e-05
-0.00215725
0.000237549
-0.00225527
0.000484447
-0.00203729
0.000840388
-0.00154091
0.00132269
-0.000789382
0.00194321
0.000201455
0.00270276
0.00141757
0.00284369
0.00358414
-8.01929e-06
-0.000736624
3.67419e-05
-0.00172943
0.000145518
-0.00226602
0.000326207
-0.00243596
0.00059058
-0.00230166
0.000954877
-0.0019052
0.0014377
-0.00127221
0.00205546
-0.000416301
0.0028159
0.000657134
0.00195072
0.00370887
1.13074e-05
-0.000747932
9.26737e-05
-0.0018108
0.000245262
-0.00241861
0.000469054
-0.00265975
0.000769521
-0.00260213
0.00115874
-0.00229442
0.00165407
-0.00176754
0.00227442
-0.00103665
0.0030338
-0.00010224
0.00105316
0.00393136
3.70185e-05
-0.00078495
0.000167235
-0.00194102
0.000379406
-0.00263078
0.000664886
-0.00294524
0.00102193
-0.00295918
0.00145683
-0.00272932
0.00198344
-0.00229415
0.00262066
-0.00167387
0.0033877
-0.000869281
0.000147534
0.00429333
6.8644e-05
-0.000853594
0.000257352
-0.00212972
0.000541862
-0.00291529
0.000904627
-0.003308
0.00133661
-0.00339116
0.0018377
-0.00323042
0.00241679
-0.00287324
0.0030907
-0.00234778
0.00388129
-0.00165987
-0.000778494
0.00480732
0.000104431
-0.000958025
0.000357651
-0.00238294
0.00072183
-0.00327947
0.00117087
-0.00375704
0.00168912
-0.00390941
0.00227047
-0.00381177
0.00291828
-0.00352105
0.0036456
-0.00307509
0.00447487
-0.00248915
-0.00173701
0.00543339
0.000142131
-0.00110016
0.00046085
-0.00270166
0.000904496
-0.00372312
0.00143909
-0.00429164
0.00204361
-0.00451393
0.00270713
-0.00447529
0.00342771
-0.00424163
0.0042128
-0.00386017
0.00508202
-0.00335837
-0.00272934
0.00607436
0.000179085
-0.00127924
0.000558368
-0.00308094
0.00107241
-0.00423715
0.00168026
-0.00489949
0.0023572
-0.00519087
0.00308974
-0.00520783
0.00387276
-0.00502465
0.00470781
-0.00469523
0.00560268
-0.00425323
0.00660213
-0.0037288
0.00557643
0.0310036
-0.0331276
0.00680268
0.0569295
-0.0581558
0.00689854
0.0786677
-0.0787635
0.00639146
0.0983495
-0.0978424
0.00558887
0.118918
-0.118115
0.0045824
0.141724
-0.140717
0.00341243
0.16741
-0.16624
0.00206269
0.198227
-0.196877
0.000804487
0.240657
-0.239399
0.291087
-0.290282
0.00596714
0.028547
0.00767699
0.0552197
0.00809747
0.0782472
0.00776564
0.0986813
0.0070358
0.119648
0.00600753
0.142752
0.00471668
0.168701
0.00314173
0.199802
0.00146488
0.242334
0.292551
0.00627846
0.0258527
0.00848977
0.0530084
0.0092672
0.0774697
0.00913217
0.0988163
0.00848399
0.120296
0.00743697
0.143799
0.00602501
0.170113
0.00422277
0.201604
0.00212778
0.244429
0.294679
0.00650552
0.023056
0.00920705
0.0503068
0.0103746
0.0763022
0.0104621
0.0987288
0.00990915
0.120849
0.00885196
0.144856
0.00732328
0.171641
0.00529708
0.20363
0.00278485
0.246942
0.297464
0.00666634
0.020321
0.0097985
0.0471747
0.0113871
0.0747137
0.0117273
0.0983886
0.0112876
0.121288
0.0102325
0.145911
0.00859694
0.173277
0.00635223
0.205875
0.00343094
0.249863
0.300895
0.00679887
0.0178155
0.0102411
0.0437324
0.0122745
0.0726803
0.0128999
0.0977632
0.0125942
0.121594
0.011556
0.14695
0.00982759
0.175005
0.00737639
0.208326
0.00405937
0.25318
0.304954
0.00694585
0.015677
0.0105273
0.0401509
0.0130114
0.0701962
0.0139571
0.0968174
0.0138144
0.121737
0.0128136
0.14795
0.0110086
0.17681
0.00836245
0.210972
0.00466667
0.256876
0.309621
0.00712794
0.0139824
0.0106655
0.0366134
0.0135761
0.0672857
0.0148648
0.0955287
0.0149076
0.121694
0.0139647
0.148893
0.0121071
0.178668
0.00929322
0.213786
0.00524378
0.260925
0.314865
0.00731302
0.0127438
0.0106645
0.0332619
0.0139655
0.0639846
0.0156474
0.0938469
0.0159199
0.121422
0.0150544
0.149759
0.0131557
0.180567
0.0101775
0.216764
0.00579222
0.26531
0.320657
0.00748589
0.01186
0.010594
0.0301538
0.0141128
0.0604659
0.0161536
0.091806
0.0167012
0.120874
0.0159629
0.150497
0.0141037
0.182426
0.0109819
0.219886
0.00634065
0.269952
0.326998
0.0183749
0.0200647
-0.0265796
0.0139346
0.0345941
0.0134712
0.0609292
0.0129147
0.0923625
0.0115185
0.12227
0.00947729
0.152538
0.00689342
0.18501
0.00379163
0.222988
0.000951393
0.272792
0.327949
0.0211375
0.0265209
-0.0275937
0.014966
0.0407656
0.0128918
0.0630035
0.012051
0.0932033
0.010623
0.123698
0.00869027
0.154471
0.00630567
0.187394
0.00344955
0.225844
0.000844648
0.275397
0.328794
0.0228036
0.0306366
-0.0269193
0.0166726
0.0468965
0.0131708
0.0665054
0.0117261
0.094648
0.0101572
0.125267
0.00812165
0.156507
0.00573243
0.189783
0.00301414
0.228562
0.000675952
0.277735
0.32947
0.0230677
0.0328307
-0.0252618
0.0179256
0.0520386
0.013621
0.07081
0.0114124
0.0968566
0.00972098
0.126959
0.00784926
0.158378
0.00559454
0.192038
0.00299351
0.231163
0.000715283
0.280013
0.330185
0.0223874
0.0335399
-0.0230967
0.0186216
0.0558044
0.0143971
0.0750345
0.0117151
0.0995386
0.00959932
0.129074
0.00746978
0.160508
0.0051984
0.19431
0.00273626
0.233625
0.000630413
0.282119
0.330815
0.0208502
0.032971
-0.0202813
0.0184285
0.0582261
0.0145107
0.0789523
0.0116816
0.102368
0.00968715
0.131069
0.00767063
0.162524
0.00537713
0.196603
0.00289073
0.236112
0.000750819
0.284259
0.331566
0.0187271
0.0311788
-0.0169349
0.0179801
0.0589731
0.0149761
0.0819563
0.0119149
0.105429
0.00949215
0.133491
0.00731145
0.164705
0.00509142
0.198823
0.00272754
0.238476
0.000708776
0.286278
0.332275
0.0159136
0.0284373
-0.0131721
0.0164229
0.0584638
0.0145783
0.083801
0.0121896
0.107818
0.0100464
0.135635
0.00784529
0.166906
0.00544993
0.201218
0.00298439
0.240941
0.000878601
0.288383
0.333154
0.0138169
0.0245996
-0.0099791
0.0157593
0.0565213
0.014713
0.0848473
0.0121834
0.110347
0.00975327
0.138065
0.00755367
0.169106
0.00526095
0.203511
0.00289668
0.243305
0.000856514
0.290424
0.33401
0.0103898
-0.00602105
0.0138965
0.0148481
0.0134159
0.0110181
0.0084114
0.00583036
0.00321338
0.0010829
0.00828221
-0.0277899
-0.00707195
0.00853246
-0.0278439
0.00814664
-0.0265335
0.00744167
-0.0245568
0.00652502
-0.02218
0.00545073
-0.019207
0.00426354
-0.0157477
0.00306316
-0.0119718
0.00170153
-0.00861748
-0.00488245
0.0075642
-0.0284037
-0.00695036
0.00733621
-0.0276159
0.00664977
-0.025847
0.00573933
-0.0236464
0.00467185
-0.0211126
0.00348999
-0.0180252
0.00223506
-0.0144928
0.0010018
-0.0107385
-0.000375401
-0.00724028
-0.00384774
0.0065293
-0.0284987
-0.00643427
0.00591097
-0.0269976
0.00498977
-0.0249259
0.00391119
-0.0225678
0.00272129
-0.0199227
0.00145864
-0.0167625
0.000165059
-0.0131992
-0.00106405
-0.00950938
-0.00231736
-0.00598697
-0.00289483
0.00516673
-0.0281612
-0.00550428
0.00424888
-0.0260797
0.00315555
-0.0238325
0.00195674
-0.021369
0.000685263
-0.0186512
-0.000614038
-0.0154632
-0.00189434
-0.0119189
-0.00309146
-0.00831227
-0.00420496
-0.00487347
-0.00208765
0.00350735
-0.0274685
-0.00420001
0.00237477
-0.0249472
0.00116743
-0.0226252
-0.000108732
-0.0200928
-0.0013994
-0.0173605
-0.00269396
-0.0141687
-0.003926
-0.0106868
-0.00503766
-0.0072006
-0.00599072
-0.00392042
-0.0014446
0.00161772
-0.0264908
-0.0025954
0.000344243
-0.0236737
-0.000918066
-0.0213629
-0.00220822
-0.0188027
-0.00349715
-0.0160716
-0.00474326
-0.0129225
-0.00588715
-0.00954295
-0.00687674
-0.00621102
-0.00765626
-0.00314089
-0.000965987
-0.000411522
-0.0253026
-0.000776712
-0.00175962
-0.0223256
-0.00304091
-0.0200816
-0.0043183
-0.0175253
-0.0055561
-0.0148338
-0.0067164
-0.0117622
-0.00774273
-0.00851662
-0.00858678
-0.00536697
-0.00919192
-0.00253575
-0.000640436
-0.00250809
-0.0239489
0.00115435
-0.00387656
-0.0209571
-0.00513932
-0.0188188
-0.00636773
-0.0162969
-0.00752459
-0.0136769
-0.00857314
-0.0107137
-0.00946366
-0.00762609
-0.0101526
-0.004678
-0.0105937
-0.00209466
-0.000448827
-0.00457761
-0.0224904
0.00311917
-0.00593042
-0.0196043
-0.00714797
-0.0176013
-0.00830176
-0.0151431
-0.00935786
-0.0126208
-0.01028
-0.00979156
-0.0110285
-0.00687759
-0.0115659
-0.00414064
-0.011862
-0.00179848
-0.000367672
-0.00654874
-0.0209834
0.00504173
-0.00785777
-0.0182953
-0.00901243
-0.0164466
-0.0100746
-0.0140809
-0.0110204
-0.011675
-0.0118125
-0.00899954
-0.012424
-0.00626606
-0.0128239
-0.00374073
-0.0130002
-0.00162215
-0.000371665
-0.00836039
-0.0194735
0.00685045
-0.00960717
-0.0170485
-0.0106895
-0.0153643
-0.0116516
-0.0131187
-0.0124874
-0.0108392
-0.0131556
-0.00833134
-0.0136445
-0.00577715
-0.0139289
-0.00345634
-0.0140135
-0.00153756
-0.000435341
-0.00997386
-0.0179969
0.00849728
-0.0111441
-0.0158782
-0.0121511
-0.0143573
-0.0130121
-0.0122577
-0.0137459
-0.0101054
-0.0143045
-0.00777283
-0.0146915
-0.00539008
-0.0148868
-0.00326105
-0.0149085
-0.00151592
-0.000533987
-0.0113601
-0.0165816
0.00994484
-0.0124449
-0.0147934
-0.01338
-0.0134223
-0.0141458
-0.0114919
-0.0147919
-0.00945918
-0.015261
-0.00730373
-0.0155712
-0.00507993
-0.015706
-0.00312624
-0.0156927
-0.00152922
-0.000644069
-0.0125057
-0.0152462
0.0111702
-0.0135005
-0.0137986
-0.0143715
-0.0125513
-0.0150538
-0.0108096
-0.0156303
-0.00888268
-0.016034
-0.00690002
-0.0162938
-0.00482017
-0.0163968
-0.00302326
-0.0163748
-0.0015512
-0.000743409
-0.01341
-0.0139972
0.0121611
-0.0143135
-0.0128951
-0.015131
-0.0117338
-0.0157463
-0.0101943
-0.0162726
-0.00835635
-0.0166368
-0.00653585
-0.0168725
-0.00458447
-0.0169711
-0.00292467
-0.0169645
-0.00155772
-0.000811143
-0.0140824
-0.012827
0.0129122
-0.014897
-0.0120806
-0.0156712
-0.0109597
-0.0162395
-0.00962597
-0.0167348
-0.00786104
-0.0170854
-0.00618527
-0.0173219
-0.00434791
-0.0174416
-0.00280497
-0.0174726
-0.00152675
-0.000827621
-0.014538
-0.011711
0.0134221
-0.0152717
-0.0113468
-0.0160095
-0.0102219
-0.0165534
-0.00908205
-0.0170354
-0.00737909
-0.0173972
-0.00582348
-0.0176575
-0.00408755
-0.0178217
-0.00264084
-0.0179103
-0.00143814
-0.000774279
-0.0147827
-0.0106182
0.0136899
-0.0154556
-0.0106739
-0.0161614
-0.00951609
-0.0167065
-0.00853695
-0.0171925
-0.00689316
-0.0175889
-0.00542702
-0.0178944
-0.00378209
-0.0181243
-0.00241093
-0.0182893
-0.00127312
-0.000633451
-0.0148122
-0.00952933
0.0137234
-0.0154681
-0.010018
-0.0161454
-0.00883873
-0.016718
-0.00796444
-0.0172251
-0.006386
-0.0176776
-0.00497456
-0.0180475
-0.00341214
-0.0183625
-0.00209594
-0.0186214
-0.0010142
-0.00038809
-0.014691
-0.00841103
0.0135727
-0.0153837
-0.00932531
-0.0160077
-0.00821475
-0.0166133
-0.00735885
-0.0171531
-0.0058462
-0.0176754
-0.00445221
-0.0181285
-0.00295901
-0.0185472
-0.00167727
-0.0189205
-0.000640903
-2.35442e-05
-0.0646075
-0.00769668
0.0638932
-0.0667827
-0.00715012
-0.068792
-0.00620546
-0.0708204
-0.00533048
-0.072429
-0.00423756
-0.0737248
-0.00315641
-0.0745675
-0.00211631
-0.0750542
-0.00119061
-0.0752177
-0.000477405
-3.10119e-05
-0.0762044
-0.00706163
0.0755694
-0.0774723
-0.00588226
-0.0786113
-0.00506646
-0.0798533
-0.00408841
-0.0808261
-0.00326481
-0.0816184
-0.00236409
-0.0821143
-0.0016204
-0.0823909
-0.000914015
-0.0824641
-0.000404262
-3.93113e-05
-0.0890888
-0.00673856
0.0887658
-0.0897016
-0.00526946
-0.0903703
-0.00439777
-0.0910909
-0.00336781
-0.0916795
-0.00267624
-0.0921618
-0.00188181
-0.0924505
-0.0013317
-0.0926019
-0.000762537
-0.0926239
-0.000382342
-4.24919e-05
-0.10477
-0.00659689
0.104628
-0.105155
-0.0048847
-0.10556
-0.00399309
-0.106009
-0.00291812
-0.10637
-0.00231511
-0.106678
-0.00157458
-0.106853
-0.00115586
-0.106954
-0.000661491
-0.106963
-0.00037355
-3.96229e-05
-0.124184
-0.00626352
0.123851
-0.124571
-0.00449798
-0.124917
-0.00364693
-0.125283
-0.00255203
-0.125566
-0.00203289
-0.125819
-0.00132129
-0.125976
-0.000998666
-0.126092
-0.000545182
-0.126136
-0.000330036
-1.6797e-05
-0.146737
-0.00560093
0.146074
-0.1473
-0.00393527
-0.14776
-0.00318631
-0.148171
-0.00214112
-0.148491
-0.00171304
-0.148767
-0.00104501
-0.148969
-0.00079692
-0.149149
-0.000364888
-0.149256
-0.000223363
2.15174e-05
-0.169936
-0.00456106
0.168896
-0.170743
-0.0031284
-0.171412
-0.00251678
-0.171914
-0.00163909
-0.172319
-0.00130806
-0.172631
-0.00073318
-0.172892
-0.00053657
-0.173103
-0.000153683
-0.173243
-8.32725e-05
6.08954e-05
-0.190186
-0.00314084
0.188766
-0.191154
-0.00216061
-0.191941
-0.00173002
-0.192483
-0.001097
-0.192931
-0.000860459
-0.193231
-0.00043258
-0.193483
-0.000284834
-0.193639
2.42175e-06
-0.193739
1.6853e-05
7.12581e-05
-0.20427
-0.00164616
0.202776
-0.205361
-0.00107008
-0.206253
-0.000838078
-0.206826
-0.000523529
-0.207271
-0.000416131
-0.207514
-0.000189251
-0.207687
-0.000111612
-0.207728
4.34535e-05
-0.207749
3.78454e-05
4.65704e-05
-0.211618
0.209971
-0.212688
-0.213526
-0.214049
-0.214465
-0.214655
-0.214766
-0.214723
-0.214685
-0.0149877
0.0650534
0.0138275
-0.0156542
0.0762358
-0.0161142
0.0892258
-0.0162951
0.104809
-0.0160048
0.123561
-0.0148932
0.144963
-0.0126519
0.166655
-0.00921835
0.185333
-0.0048738
0.198431
0.205098
-0.0141484
0.0658203
0.0133815
-0.0147547
0.0768421
-0.0151531
0.0896242
-0.0152477
0.104904
-0.0148703
0.123183
-0.0137179
0.14381
-0.0115502
0.164487
-0.00835986
0.182142
-0.00439452
0.194466
0.200703
-0.0133884
0.0664906
0.012718
-0.0139187
0.0773725
-0.0142421
0.0899476
-0.0142724
0.104934
-0.0138493
0.12276
-0.0127079
0.142669
-0.0106485
0.162428
-0.00768131
0.179175
-0.00402685
0.190811
0.196676
-0.0125223
0.0671244
0.0118886
-0.0129861
0.0778362
-0.0132264
0.0901879
-0.013187
0.104895
-0.0127244
0.122298
-0.0116092
0.141554
-0.00967974
0.160498
-0.00695754
0.176453
-0.00363832
0.187492
0.193038
-0.0115256
0.0677172
0.0109328
-0.0119327
0.0782433
-0.0121027
0.0903579
-0.0120058
0.104798
-0.0115188
0.121811
-0.0104482
0.140483
-0.0086673
0.158717
-0.00620535
0.173991
-0.00323675
0.184524
0.189801
-0.0104219
0.0682579
0.00988116
-0.0107649
0.0785863
-0.0108707
0.0904637
-0.0107293
0.104657
-0.0102355
0.121317
-0.00923088
0.139479
-0.00761858
0.157105
-0.00543257
0.171805
-0.00282627
0.181917
0.186975
-0.00923639
0.068737
0.0087573
-0.00950784
0.0788577
-0.00954917
0.090505
-0.00937107
0.104478
-0.00888463
0.12083
-0.00796453
0.138559
-0.0065392
0.15568
-0.00464365
0.169909
-0.00240912
0.179683
0.184566
-0.00798807
0.0691412
0.00758393
-0.00818577
0.0790554
-0.00816278
0.090482
-0.0079537
0.104269
-0.00748496
0.120362
-0.00666345
0.137737
-0.00543872
0.154455
-0.00384418
0.168315
-0.0019878
0.177826
0.182578
-0.00669699
0.0694534
0.00638473
-0.00682174
0.0791802
-0.00673505
0.0903954
-0.00650086
0.104035
-0.00605768
0.119918
-0.00534489
0.137024
-0.00432938
0.153439
-0.0030414
0.167027
-0.0015657
0.176351
0.181012
-0.00538387
0.069653
0.0051843
-0.00544031
0.0792366
-0.00528789
0.0902429
-0.00503501
0.103782
-0.00462254
0.119506
-0.00402557
0.136427
-0.00322364
0.152637
-0.00224329
0.166046
-0.0011468
0.175254
0.179865
-0.00408287
0.0697227
0.00401317
-0.00407237
0.0792261
-0.00385006
0.0900206
-0.00358216
0.103514
-0.00320177
0.119126
-0.00272388
0.135949
-0.00213537
0.152049
-0.00145868
0.16537
-0.000735631
0.174531
0.17913
-0.0028271
0.0696634
0.00288636
-0.00273742
0.0791365
-0.00245314
0.0897363
-0.00216645
0.103228
-0.00182015
0.118779
-0.00145545
0.135585
-0.00107491
0.151668
-0.000696506
0.164991
-0.000336049
0.174171
0.178794
-0.00165575
0.0694905
0.00182868
-0.00146826
0.078949
-0.00113854
0.0894066
-0.000827803
0.102917
-0.000520981
0.118472
-0.000265018
0.135329
-8.64178e-05
0.15149
3.48626e-06
0.164902
3.41437e-05
0.17414
0.178828
-0.00060395
0.0692435
0.000850948
-0.00029549
0.0786405
2.91038e-05
0.089082
0.000427187
0.102519
0.000725502
0.118174
0.000895621
0.135159
0.000896033
0.151489
0.000721872
0.165076
0.000405623
0.174456
0.179234
0.000357773
0.0689491
-6.33275e-05
0.000820088
0.0781782
0.00125379
0.0886483
0.00164138
0.102131
0.001912
0.117904
0.00198697
0.135084
0.00181067
0.151666
0.00137988
0.165506
0.00074962
0.175086
0.179983
0.00129295
0.0685211
-0.000864931
0.00183791
0.0776332
0.00231904
0.0881672
0.00273564
0.101715
0.00298976
0.117649
0.00298488
0.135089
0.00264996
0.152001
0.00198463
0.166172
0.0010646
0.176006
0.181048
0.00209303
0.0680267
-0.00159867
0.00273868
0.0769876
0.00326711
0.0876388
0.00371581
0.101266
0.0039633
0.117402
0.00389436
0.135157
0.00342023
0.152475
0.00254166
0.16705
0.00135418
0.177194
0.182402
0.00277623
0.0675157
-0.00226522
0.00351515
0.0762487
0.00408353
0.0870704
0.00455792
0.100792
0.00480001
0.11716
0.00467837
0.135279
0.0040864
0.153067
0.00302388
0.168113
0.00160291
0.178615
0.184005
0.00339591
0.0670164
-0.00289658
0.00421648
0.0754281
0.00482611
0.0864608
0.00532709
0.100291
0.00557139
0.116916
0.00540765
0.135443
0.00470863
0.153766
0.00347374
0.169348
0.00183413
0.180255
0.185839
0.00376428
0.0667571
-0.00350502
0.004619
0.0745734
0.00526952
0.0858102
0.00578845
0.0997718
0.0060376
0.116666
0.00585711
0.135623
0.0051
0.154523
0.003759
0.170689
0.00197455
0.182039
0.187814
-0.0475337
0.0610429
0.0532479
-0.0428205
0.0698602
-0.0395958
0.0825855
-0.0362775
0.0964535
-0.032578
0.112967
-0.0280207
0.131066
-0.0223166
0.148819
-0.0155198
0.163892
-0.00793505
0.174454
0.179878
-0.0577272
0.0564087
0.0623614
-0.053587
0.06572
-0.0497282
0.0787267
-0.045422
0.0921472
-0.0406871
0.108232
-0.0348527
0.125231
-0.0276779
0.141644
-0.0192561
0.15547
-0.00993354
0.165132
0.169945
-0.0696484
0.0518137
0.0742434
-0.0653707
0.0614423
-0.0606656
0.0740217
-0.0553871
0.0868686
-0.0494052
0.10225
-0.0419605
0.117787
-0.0330519
0.132736
-0.022793
0.145211
-0.0115448
0.153883
0.1584
-0.0841119
0.0474749
0.0884507
-0.0791636
0.056494
-0.0735549
0.068413
-0.0672306
0.0805443
-0.0597315
0.0947512
-0.0503983
0.108454
-0.0395046
0.121842
-0.0271991
0.132906
-0.0139662
0.140651
0.144434
-0.100188
0.0423102
0.105353
-0.0944302
0.0507362
-0.0877303
0.061713
-0.079769
0.072583
-0.0700693
0.0850515
-0.0584019
0.0967861
-0.0452288
0.108669
-0.0306188
0.118296
-0.0152324
0.125264
0.129201
-0.119195
0.0370091
0.124496
-0.112216
0.0437572
-0.104042
0.053539
-0.0939919
0.0625334
-0.0819863
0.0730459
-0.0680747
0.0828745
-0.0524955
0.0930895
-0.0354991
0.101299
-0.0180876
0.107853
0.111114
-0.137691
0.0299274
0.144773
-0.129241
0.0353074
-0.119038
0.0433361
-0.106424
0.049919
-0.0918326
0.0584546
-0.0750742
0.0661162
-0.0563667
0.0743819
-0.0363675
0.0813001
-0.0167503
0.0882356
0.0943636
-0.157601
0.0226611
0.164867
-0.147708
0.0254139
-0.135659
0.0312872
-0.121238
0.0354988
-0.104746
0.0419623
-0.0857511
0.0471211
-0.0649254
0.0535563
-0.0431976
0.0595723
-0.0227279
0.0677659
0.0716357
-0.17222
0.0108746
0.184007
-0.159406
0.0125997
-0.143771
0.0156524
-0.12602
0.017748
-0.105361
0.0213027
-0.0822585
0.024019
-0.0566853
0.0279831
-0.0293911
0.032278
-0.00292549
0.0413002
0.0687102
-0.261593
0.272468
-0.248994
-0.233341
-0.215593
-0.194291
-0.170272
-0.142288
-0.11001
-0.0687102
0.0013237
0.0550743
-0.00315013
-0.000291057
0.0639761
-0.00140651
0.0753589
-0.00228426
0.0893284
-0.00283468
0.105903
-0.00302453
0.124685
-0.00275912
0.144507
-0.00213024
0.164238
-0.00219464
0.184071
0.270273
0.00173066
0.0568564
-0.00351269
0.000117921
0.0655889
-0.00104819
0.076525
-0.00196455
0.0902448
-0.00256325
0.106502
-0.00278385
0.124906
-0.0025956
0.144319
-0.00200571
0.163649
-0.00197224
0.184037
0.268301
0.00221942
0.0585209
-0.00388396
0.0006987
0.0671096
-0.000496194
0.0777199
-0.00140751
0.0911561
-0.00202949
0.107124
-0.00229066
0.125167
-0.00219746
0.144226
-0.00170527
0.163156
-0.00175413
0.184086
0.266547
0.0026978
0.0600873
-0.00426415
0.00124044
0.068567
5.12958e-05
0.078909
-0.000795986
0.0920034
-0.00139541
0.107723
-0.00170143
0.125473
-0.00167618
0.144201
-0.00133047
0.162811
-0.00146906
0.184225
0.265078
0.00316543
0.0615662
-0.00464434
0.00179188
0.0699405
0.000703216
0.0799977
-0.000174401
0.092881
-0.000728121
0.108277
-0.00106462
0.12581
-0.00109768
0.144234
-0.000901536
0.162615
-0.00113618
0.18446
0.263942
0.00364879
0.0629316
-0.00501424
0.00238275
0.0712065
0.00137737
0.0810031
0.000569815
0.0936885
-1.27168e-05
0.10886
-0.000372222
0.126169
-0.000453024
0.144314
-0.000425133
0.162587
-0.000763256
0.184798
0.263179
0.00414846
0.0641499
-0.00536675
0.0030114
0.0723436
0.00209778
0.0819167
0.00136839
0.0944179
0.000824083
0.109404
0.000421961
0.126571
0.000260681
0.144476
9.99546e-05
0.162747
-0.000349451
0.185247
0.262829
0.00465603
0.0651893
-0.00569541
0.00366584
0.0733338
0.00285439
0.0827281
0.00220328
0.0950691
0.00168848
0.109919
0.0012875
0.126972
0.00100923
0.144754
0.000740423
0.163016
9.97956e-05
0.185888
0.262929
0.00516557
0.0660157
-0.00599194
0.00433393
0.0741654
0.00363376
0.0834283
0.00306839
0.0956344
0.00259326
0.110394
0.00218008
0.127386
0.00180957
0.145125
0.00138536
0.16344
0.000541213
0.186732
0.26347
0.00566578
0.0665951
-0.00624527
0.00500308
0.0748281
0.00442367
0.0840077
0.00395161
0.0961065
0.00352525
0.11082
0.00309946
0.127811
0.00263998
0.145584
0.00205256
0.164028
0.00101447
0.18777
0.264485
0.00613616
0.0668971
-0.0064381
0.00565409
0.0753102
0.00520667
0.0844551
0.00483353
0.0964796
0.00446286
0.111191
0.00403011
0.128244
0.00348387
0.14613
0.00273592
0.164776
0.00150151
0.189004
0.265986
0.0065685
0.0668986
-0.00657002
0.00627921
0.0755995
0.00597293
0.0847614
0.00570518
0.0967474
0.00539673
0.111499
0.00496427
0.128677
0.00433573
0.146759
0.00343119
0.16568
0.0019974
0.190438
0.267983
0.00694185
0.0665887
-0.006632
0.0068561
0.0756853
0.00669814
0.0849194
0.00654186
0.0969037
0.00630321
0.111738
0.00588081
0.129099
0.00517891
0.147461
0.00412528
0.166734
0.00249483
0.192069
0.270478
0.00724232
0.0659693
-0.00662291
0.00736878
0.0755588
0.00736413
0.084924
0.00732332
0.0969445
0.00716299
0.111898
0.00676144
0.1295
0.00599812
0.148224
0.00480654
0.167925
0.00298608
0.193889
0.273464
0.00745525
0.0650605
-0.00654638
0.00780271
0.0752113
0.00795264
0.0847741
0.0080307
0.0968664
0.00795875
0.11197
0.00758972
0.12987
0.00678096
0.149033
0.00546606
0.16924
0.00346626
0.195889
0.276931
0.00757279
0.0639013
-0.00641365
0.00814565
0.0746385
0.00844765
0.0844721
0.0086458
0.0966683
0.00866935
0.111947
0.00834494
0.130194
0.00750951
0.149868
0.00608942
0.17066
0.00392451
0.198054
0.280855
0.00759602
0.0625503
-0.00624499
0.0083911
0.0738434
0.00884081
0.0840224
0.00915945
0.0963496
0.00928586
0.11182
0.00902166
0.130458
0.0081813
0.150709
0.00667518
0.172167
0.00435995
0.200369
0.285215
0.00753374
0.061085
-0.00606841
0.00852934
0.0728478
0.00911546
0.0834363
0.00954616
0.0959189
0.00977462
0.111592
0.00958035
0.130652
0.00875708
0.151532
0.00719635
0.173727
0.00475373
0.202812
0.289969
0.00741796
0.0595794
-0.00591244
0.00860304
0.0716627
0.00932084
0.0827185
0.0098599
0.0953799
0.0101932
0.111258
0.0100791
0.130766
0.00928463
0.152326
0.00768223
0.17533
0.00511853
0.205375
0.295087
0.00714543
0.058156
-0.00572203
0.00838238
0.0704258
0.0092422
0.0818587
0.00988157
0.0947405
0.0103258
0.110814
0.0103114
0.130781
0.00960577
0.153032
0.00801134
0.176924
0.00542662
0.20796
0.300514
-0.0305416
0.0551532
0.0335445
-0.0262121
0.0660963
-0.022248
0.0778946
-0.0182332
0.0907256
-0.0142411
0.106822
-0.0100194
0.126559
-0.00557959
0.148592
-0.00161997
0.172965
-7.19772e-05
0.206412
0.300442
-0.0457549
0.0511619
0.0497461
-0.0410335
0.0613749
-0.0358429
0.072704
-0.0303041
0.0851868
-0.0246105
0.101129
-0.0183571
0.120306
-0.0116304
0.141865
-0.00535453
0.166689
-0.0020507
0.203108
0.298391
-0.0622678
0.0466521
0.0667777
-0.0566171
0.0557242
-0.0501926
0.0662794
-0.0433017
0.078296
-0.0359746
0.0938015
-0.0275382
0.111869
-0.0183601
0.132687
-0.00955553
0.157884
-0.00370016
0.197253
0.294691
-0.0804852
0.0417098
0.0854274
-0.0736634
0.0489024
-0.0662264
0.0588424
-0.0580522
0.0701218
-0.0487945
0.0845439
-0.0378607
0.100935
-0.0259957
0.120822
-0.0144539
0.146342
-0.00584216
0.188641
0.288849
-0.100915
0.0355555
0.107069
-0.093375
0.0413627
-0.0851417
0.0506091
-0.0752997
0.0602797
-0.0637113
0.0729555
-0.0501385
0.0873626
-0.0354145
0.106098
-0.0206448
0.131573
-0.00860292
0.176599
0.280246
-0.124824
0.0292971
0.131083
-0.116282
0.0328201
-0.10665
0.0409778
-0.0947529
0.0483822
-0.0809175
0.0591201
-0.0649447
0.0713899
-0.0473744
0.0885281
-0.0292566
0.113455
-0.013318
0.160661
0.266928
-0.151514
0.0210625
0.159749
-0.142544
0.0238494
-0.131735
0.0301689
-0.118496
0.0351441
-0.103238
0.0438616
-0.0852056
0.0533574
-0.0651582
0.0684807
-0.0435009
0.0917975
-0.021784
0.138944
0.245144
-0.184272
0.0128418
0.192492
-0.17441
0.0139883
-0.16248
0.0182385
-0.148518
0.0211818
-0.132101
0.0274446
-0.112907
0.0341641
-0.0913223
0.0468955
-0.0671438
0.067619
-0.0386952
0.110495
0.206449
-0.236534
0.00454605
0.24483
-0.227809
0.00526314
-0.216741
0.00717085
-0.204422
0.00886305
-0.189189
0.0122117
-0.171484
0.0164582
-0.149206
0.0246183
-0.119739
0.0381518
-0.074805
0.0655611
0.131644
-0.309942
0.314488
-0.304679
-0.297508
-0.288645
-0.276433
-0.259975
-0.235357
-0.197205
-0.131644
0.00263813
0.0351159
-0.00420953
0.000327168
0.0520571
-0.00157809
0.0686829
-0.0032236
0.0870729
-0.0045069
0.108352
-0.00547849
0.132054
-0.00584338
0.160114
-0.00588692
0.192536
-0.00431214
0.243255
0.310176
0.0025608
0.0363292
-0.00377414
0.000588694
0.0540292
-0.00127166
0.0705433
-0.00290162
0.0887029
-0.00420392
0.109655
-0.00517008
0.133021
-0.00559194
0.160535
-0.00564644
0.19259
-0.00417701
0.241785
0.305999
0.00264114
0.0371668
-0.00347869
0.000979976
0.0556904
-0.000747918
0.0722712
-0.00228885
0.0902438
-0.00355757
0.110923
-0.00450803
0.133971
-0.00499025
0.161018
-0.00505391
0.192654
-0.00382076
0.240552
0.302178
0.00280387
0.0376619
-0.00329903
0.00143382
0.0570604
-0.000162881
0.0738679
-0.0015656
0.0916465
-0.00276456
0.112122
-0.0037103
0.134917
-0.00423729
0.161545
-0.00438362
0.1928
-0.00338481
0.239553
0.298793
0.00303598
0.037832
-0.00320604
0.00197173
0.0581247
0.00058345
0.0752562
-0.000760659
0.0929906
-0.00188189
0.113244
-0.00281871
0.135854
-0.00339931
0.162125
-0.00365084
0.193052
-0.00289201
0.238795
0.295901
0.00334833
0.0376624
-0.00317872
0.00261018
0.0588628
0.00143667
0.0764297
0.000150075
0.0942772
-0.000888314
0.114282
-0.00182605
0.136791
-0.00247526
0.162774
-0.00285005
0.193427
-0.00235284
0.238297
0.293548
0.00373678
0.0371258
-0.00320018
0.00334172
0.0592579
0.00239025
0.0773811
0.00128023
0.0953873
0.000229467
0.115333
-0.000735194
0.137756
-0.00144467
0.163484
-0.00198089
0.193963
-0.00177381
0.23809
0.291775
0.00418028
0.0361991
-0.00325361
0.00414933
0.0592888
0.00343264
0.0780978
0.00246575
0.0963541
0.0014813
0.116317
0.000481698
0.138756
-0.000291489
0.164257
-0.00105552
0.194727
-0.00115776
0.238193
0.290617
0.00465442
0.0348669
-0.00332222
0.00501217
0.0589311
0.00454511
0.0785649
0.00372386
0.0971754
0.00279536
0.117246
0.00181945
0.139731
0.000890235
0.165186
-0.00011566
0.195733
-0.000504585
0.238581
0.290112
0.00513101
-0.00339171
0.0059063
0.00570769
0.00504071
0.00417109
0.00318514
0.00213167
0.000987537
0.000169744
0.000213143
-0.00149239
0.000641732
-0.00350953
0.00120721
-0.00480263
0.00186307
-0.00555535
0.00258292
-0.00591072
0.00335371
-0.00597862
0.00417175
-0.0058427
0.00504268
-0.00556616
0.00599067
-0.00520122
-0.00481008
0.000237955
-0.00173034
0.000697523
-0.0039691
0.00128797
-0.00539308
0.00195804
-0.00622543
0.00268075
-0.00663343
0.00344453
-0.00674239
0.0042476
-0.00664577
0.00509505
-0.00641361
0.00599619
-0.00610236
-0.00576425
0.000252855
-0.0019832
0.000720687
-0.00443693
0.00130294
-0.00597533
0.00194554
-0.00686802
0.00262241
-0.0073103
0.00332454
-0.00744452
0.00405261
-0.00737384
0.00481202
-0.00717302
0.00560738
-0.00689771
-0.00659115
0.000255266
-0.00223846
0.000704915
-0.00488658
0.00124237
-0.00651278
0.00181353
-0.00743919
0.00239532
-0.00789209
0.00298269
-0.00803189
0.00358006
-0.00797121
0.00419549
-0.00778845
0.00483591
-0.00753813
-0.00725951
0.00024325
-0.00248171
0.000646413
-0.00528974
0.00110227
-0.00696864
0.00156037
-0.00789729
0.00200305
-0.00833476
0.00243074
-0.00845959
0.00285265
-0.00839312
0.00328085
-0.00821665
0.0037266
-0.00798388
-0.00773293
0.000215691
-0.0026974
0.000544282
-0.00561834
0.00088469
-0.00730904
0.00119426
-0.00820686
0.00146305
-0.00860355
0.00169807
-0.00869461
0.00191354
-0.00860859
0.00212524
-0.00842835
0.00234775
-0.00820639
-0.00798057
0.000172435
-0.00286984
0.000400636
-0.00584654
0.00059728
-0.00750569
0.000731549
-0.00834113
0.000802983
-0.00867499
0.000825357
-0.00871698
0.000817205
-0.00860044
0.000796729
-0.00840788
0.000779467
-0.00818913
-0.00797782
0.000114387
-0.00298422
0.000220398
-0.00595255
0.000252291
-0.00753758
0.000194346
-0.00828319
5.6374e-05
-0.00853702
-0.000141695
-0.00851891
-0.000378451
-0.00836368
-0.000635213
-0.00815112
-0.000897365
-0.00792698
-0.00772083
4.35671e-05
-0.00302779
1.11452e-05
-0.00592012
-0.000134829
-0.00739161
-0.000392118
-0.0080259
-0.000741082
-0.00818805
-0.00115719
-0.0081028
-0.00161797
-0.0079029
-0.00210591
-0.00766317
-0.00260878
-0.00742411
-0.00721044
-3.79878e-05
-0.0029898
-0.000218969
-0.00573914
-0.000547058
-0.00706352
-0.00100195
-0.007571
-0.00155503
-0.00763498
-0.00217882
-0.00747901
-0.00285142
-0.00723031
-0.00355768
-0.00695692
-0.00428862
-0.00669317
-0.00645733
-0.000111944
-0.00287786
-0.000440206
-0.00541088