/*--------------------------------*- C++ -*----------------------------------*\
  =========                 |
  \\      /  F ield         | OpenFOAM: The Open Source CFD Toolbox
   \\    /   O peration     | Website:  https://openfoam.org
    \\  /    A nd           | Version:  7
     \\/     M anipulation  |
\*---------------------------------------------------------------------------*/
FoamFile
{
    version     2.0;
    format      ascii;
    class       volVectorField;
    location    "42.5";
    object      U;
}
// * * * * * * * * * * * * * * * * * * * * * * * * * * * * * * * * * * * * * //

dimensions      [0 1 -1 0 0 0 0];

internalField   nonuniform List<vector> 
2000
(
(-0.00120795 0.00541968 -4.06182e-22)
(-0.000542457 0.0072242 0)
(0.00351725 0.00744278 0)
(0.00985935 0.0087831 -2.18786e-21)
(0.0178368 0.0127324 7.70756e-22)
(0.0269146 0.0200105 5.71635e-23)
(0.0366993 0.0308838 -1.32372e-21)
(0.0468699 0.0453328 0)
(0.0571187 0.0631353 0)
(0.0670347 0.0838995 0)
(-0.00138592 0.00552681 0)
(0.000103701 0.00578876 -1.59915e-21)
(0.00536791 0.0042906 1.47469e-21)
(0.0125585 0.00395838 2.94948e-21)
(0.0208867 0.00632414 0)
(0.0297881 0.0120974 2.79103e-21)
(0.038931 0.021552 -2.59537e-21)
(0.0481069 0.03472 0)
(0.0571237 0.0514822 4.8699e-21)
(0.0656466 0.0716309 -9.32209e-21)
(-0.00141792 0.00532897 0)
(0.00145571 0.00393924 1.20055e-20)
(0.00855729 0.000890681 0)
(0.0171698 -0.000850077 1.12608e-20)
(0.0263198 0.000212008 0)
(0.0354049 0.00470914 -1.0514e-20)
(0.044153 0.0128669 0)
(0.052475 0.0247297 9.88511e-21)
(0.0603222 0.0402653 -9.25776e-21)
(0.0674544 0.0594684 -8.6816e-21)
(-0.0012111 0.00477357 -3.01429e-21)
(0.00368469 0.00161838 -6.11485e-21)
(0.013272 -0.00273179 -2.79079e-21)
(0.0238621 -0.00552086 -5.58384e-21)
(0.0342864 -0.0053704 -5.24315e-21)
(0.0439075 -0.00179232 5.26756e-21)
(0.0525175 0.00532858 4.87801e-21)
(0.0601512 0.0159928 -2.73641e-22)
(0.0669259 0.0302157 8.86169e-21)
(0.0727328 0.0481788 8.6768e-21)
(-0.000647191 0.00380988 -2.77797e-21)
(0.00697553 -0.0011819 -5.84128e-21)
(0.0196748 -0.00652746 -1.11245e-20)
(0.032736 -0.00993485 5.22347e-21)
(0.044815 -0.0102229 0)
(0.0552649 -0.00710776 0)
(0.063963 -0.000641174 -9.52934e-21)
(0.0710772 0.00907346 -8.9831e-21)
(0.0769056 0.0220401 8.12197e-21)
(0.0815317 0.0385684 2.31823e-20)
(0.000407972 0.00241986 2.74428e-21)
(0.0115125 -0.00442922 3.00529e-21)
(0.0278786 -0.0104168 -1.51592e-20)
(0.0437794 -0.0139762 2.54138e-20)
(0.0577478 -0.0142007 -4.85382e-21)
(0.069184 -0.0110564 0)
(0.0780944 -0.0047985 0)
(0.0848037 0.00431975 4.17305e-20)
(0.0898001 0.0162296 -3.93673e-20)
(0.093438 0.0312797 7.4807e-21)
(0.0020932 0.000624992 1.89487e-20)
(0.0174566 -0.00803311 0)
(0.0379172 -0.0142768 2.08279e-20)
(0.0568319 -0.0175273 -2.01587e-20)
(0.0727029 -0.0172239 0)
(0.0850694 -0.0136085 9.01002e-21)
(0.0941362 -0.00714879 -2.46406e-20)
(0.100425 0.00173713 -3.17752e-20)
(0.104623 0.0128645 1.45397e-20)
(0.107424 0.0265312 1.39095e-20)
(0.00454002 -0.00150877 -3.65791e-20)
(0.0249206 -0.0118338 -5.13379e-21)
(0.0497165 -0.0179341 -9.34889e-21)
(0.0715642 -0.0204661 -2.29895e-20)
(0.0890761 -0.0192753 -9.03901e-21)
(0.102057 -0.0148843 -7.96895e-21)
(0.110998 -0.00795068 1.18051e-21)
(0.116667 0.000962903 0)
(0.119956 0.0115424 0)
(0.121926 0.0239739 -2.17031e-22)
(0.00785831 -0.00387007 1.76307e-20)
(0.0339387 -0.0156036 -1.85865e-20)
(0.0630688 -0.0211723 1.43099e-20)
(0.0874771 -0.0226724 3.18656e-20)
(0.106084 -0.0203965 -8.39108e-21)
(0.119115 -0.0151247 8.90806e-21)
(0.127442 -0.00765383 7.78507e-21)
(0.132119 0.00136364 0)
(0.134234 0.01151 0)
(0.135204 0.0228663 -1.36873e-21)
(0.0121226 -0.00630784 -1.9741e-21)
(0.0444394 -0.0190621 2.32737e-20)
(0.0776172 -0.0237545 -4.31919e-21)
(0.103922 -0.0240485 0)
(0.122837 -0.0206879 0)
(0.135187 -0.0146562 1.52851e-20)
(0.142312 -0.00681219 0)
(0.14557 0.00218211 -1.1303e-20)
(0.14622 0.0118882 8.76261e-22)
(0.145929 0.0224084 9.21708e-21)
(0.0874072 0.136232 3.93943e-22)
(0.115869 0.238553 -3.99311e-22)
(0.122168 0.328112 -4.74692e-22)
(0.113777 0.401768 -5.71859e-22)
(0.0949563 0.468912 -7.52186e-22)
(0.0784744 0.536908 -1.86087e-23)
(0.0547167 0.615514 3.95172e-22)
(0.0439039 0.710696 1.41162e-21)
(0.014965 0.828838 0)
(0.0126956 0.961838 -1.03382e-21)
(0.0829981 0.124496 1.38676e-21)
(0.109733 0.230448 -1.68155e-21)
(0.117956 0.326263 3.03312e-21)
(0.11111 0.404085 5.72882e-22)
(0.093153 0.473071 1.23634e-21)
(0.0770854 0.5416 2.21351e-21)
(0.0537226 0.620172 -8.59692e-22)
(0.0429104 0.715268 -9.41889e-22)
(0.0147843 0.83331 1.83879e-21)
(0.0122248 0.965364 1.03135e-21)
(0.0810872 0.112296 0)
(0.104396 0.220398 -1.37836e-21)
(0.113962 0.322342 -8.65727e-22)
(0.108674 0.404808 0)
(0.0916397 0.476078 -3.78795e-21)
(0.0760052 0.545433 1.13036e-21)
(0.052954 0.62412 1.33756e-21)
(0.0420675 0.719319 4.86638e-21)
(0.0146539 0.837575 -1.83285e-21)
(0.0117872 0.968902 3.57853e-21)
(0.0819847 0.100157 0)
(0.100012 0.208639 1.39008e-21)
(0.110183 0.316313 0)
(0.106399 0.40378 3.90683e-21)
(0.0903489 0.477674 -3.92689e-21)
(0.0751943 0.548022 -2.66188e-21)
(0.0524313 0.626828 -2.62948e-22)
(0.0414597 0.722098 -4.64954e-21)
(0.0146625 0.840655 -7.66722e-22)
(0.0113902 0.971743 -4.39399e-21)
(0.0859838 0.0886552 -1.00395e-22)
(0.0967973 0.195556 -3.33367e-21)
(0.106625 0.308188 3.59734e-22)
(0.104197 0.400997 -2.87874e-21)
(0.089219 0.478167 0)
(0.0745928 0.549995 -2.43244e-21)
(0.0520447 0.629224 -2.83694e-22)
(0.0409101 0.724849 5.71849e-21)
(0.0146453 0.843954 7.7033e-22)
(0.0110144 0.974861 -7.73034e-22)
(0.0931771 0.078338 -8.6362e-21)
(0.09503 0.181671 5.38329e-21)
(0.103329 0.298077 2.50884e-21)
(0.102008 0.396112 -2.50769e-21)
(0.0881513 0.476717 -1.59615e-21)
(0.0741804 0.55016 0)
(0.0519207 0.629826 -4.7265e-21)
(0.0406497 0.725701 2.30896e-21)
(0.014812 0.845456 2.6959e-21)
(0.0106767 0.97692 2.79306e-21)
(0.103174 0.069591 -8.29988e-22)
(0.0950098 0.167581 0)
(0.100335 0.286207 0)
(0.0997747 0.389795 0)
(0.0871247 0.474846 -1.74712e-21)
(0.0738259 0.55062 3.33767e-21)
(0.0517488 0.631156 4.4989e-21)
(0.040257 0.727639 -7.04979e-21)
(0.0148183 0.848204 1.29665e-21)
(0.010345 0.979826 -4.04999e-21)
(0.114814 0.0625332 5.22475e-21)
(0.096913 0.154009 3.26615e-21)
(0.0977909 0.272554 -3.23741e-21)
(0.0974239 0.380261 4.57823e-21)
(0.0859728 0.469313 -5.72237e-21)
(0.0736643 0.547577 0)
(0.0520108 0.629094 -1.80054e-21)
(0.0403582 0.72612 2.07528e-22)
(0.0151474 0.847846 -2.19707e-21)
(0.0100504 0.981001 -2.31549e-21)
(0.125928 0.0568312 -3.97374e-21)
(0.100404 0.140985 0)
(0.0957245 0.258821 -3.20609e-21)
(0.0951155 0.372207 6.72516e-21)
(0.0847747 0.466595 -2.58799e-21)
(0.0731671 0.54784 -6.58046e-22)
(0.0517285 0.630573 1.79681e-21)
(0.0399031 0.728346 2.5122e-23)
(0.0150569 0.850846 3.1022e-21)
(0.00974203 0.984068 3.33735e-21)
(0.132901 0.0510216 -2.15441e-21)
(0.104 0.125742 2.09934e-21)
(0.0940682 0.237903 2.78678e-22)
(0.092378 0.353715 0)
(0.083396 0.45363 0)
(0.0733891 0.539365 6.25971e-22)
(0.0525863 0.624271 3.04893e-21)
(0.0405181 0.723329 -2.96184e-21)
(0.0156196 0.84791 -8.84594e-22)
(0.00947561 0.984134 8.58335e-22)
(0.126858 0.0492319 0)
(0.102701 0.116949 0)
(0.0903102 0.228035 0)
(0.0866085 0.35007 0)
(0.0781546 0.456991 0)
(0.0691632 0.547653 0)
(0.0497096 0.634617 0)
(0.0381361 0.734637 0)
(0.0146532 0.858794 0)
(0.00875712 0.993182 0)
(0.112941 0.0826019 0)
(0.0874832 0.14814 0)
(0.072926 0.244586 0)
(0.0697662 0.35788 0)
(0.0657557 0.465211 0)
(0.0610595 0.559589 0)
(0.0452828 0.648742 0)
(0.0346016 0.748541 0)
(0.0131003 0.8702 0)
(0.00762381 0.999936 0)
(0.0910752 0.100276 0)
(0.0677265 0.16777 0)
(0.0524566 0.258165 0)
(0.0482532 0.364136 0)
(0.0468349 0.470225 0)
(0.0465612 0.568327 0)
(0.036176 0.662634 0)
(0.0289369 0.765359 0)
(0.0106281 0.887235 0)
(0.00645775 1.0137 0)
(0.064651 0.117033 0)
(0.0435761 0.184738 0)
(0.0293097 0.269797 0)
(0.0254187 0.368724 0)
(0.0267292 0.47191 0)
(0.0308095 0.571788 0)
(0.0256943 0.669766 0)
(0.0221313 0.773793 0)
(0.00748663 0.894836 0)
(0.00505543 1.01683 0)
(0.0391068 0.132582 0)
(0.0195626 0.200105 0)
(0.00519252 0.278319 0)
(-0.000338243 0.368378 0)
(0.00217515 0.467199 0)
(0.0101284 0.569979 0)
(0.0112792 0.674525 0)
(0.0132111 0.784312 0)
(0.00299959 0.907926 0)
(0.00331882 1.02752 0)
(0.0173234 0.147176 0)
(-0.00105913 0.215804 0)
(-0.0136297 0.288967 0)
(-0.019214 0.370669 0)
(-0.0162298 0.461566 0)
(-0.00670347 0.561413 0)
(-0.00148271 0.667045 0)
(0.00481775 0.780675 0)
(-0.000927338 0.905936 0)
(0.00160396 1.02328 0)
(0.00106836 0.160793 0)
(-0.0175864 0.230509 0)
(-0.0320097 0.297261 0)
(-0.0391266 0.370357 0)
(-0.0362816 0.45502 0)
(-0.025448 0.553604 0)
(-0.0156784 0.663205 0)
(-0.00441371 0.782837 0)
(-0.00542524 0.911296 0)
(0.000204336 1.02813 0)
(-0.00864599 0.172555 0)
(-0.0229914 0.24585 0)
(-0.0359098 0.310819 0)
(-0.0437994 0.375788 0)
(-0.043215 0.449691 0)
(-0.0344974 0.539678 0)
(-0.024279 0.646302 0)
(-0.0114862 0.768511 0)
(-0.00905652 0.899947 0)
(-0.00109083 1.01537 0)
(-0.0149728 0.18293 0)
(-0.0299387 0.255892 0)
(-0.0444987 0.316307 0)
(-0.0531795 0.375624 0)
(-0.0530267 0.445103 0)
(-0.0442482 0.533093 0)
(-0.0323376 0.641493 0)
(-0.0174553 0.767171 0)
(-0.0122941 0.901752 0)
(-0.00209491 1.0169 0)
(-0.00997428 0.196683 0)
(-0.0211455 0.276364 0)
(-0.0348691 0.336937 0)
(-0.0453418 0.38702 0)
(-0.0487142 0.442712 0)
(-0.0439544 0.517812 0)
(-0.0345539 0.61926 0)
(-0.0210011 0.746138 0)
(-0.0143831 0.884692 0)
(-0.00293895 0.999348 0)
(0.146158 0.0352711 -9.58459e-23)
(0.127699 0.0540763 9.47551e-23)
(0.101047 0.0663201 -3.87199e-22)
(0.0716582 0.0795028 0)
(0.0442209 0.0923921 0)
(0.0211083 0.104724 -5.58681e-22)
(0.00467773 0.116103 1.66663e-21)
(-0.00535565 0.125043 -1.63843e-21)
(-0.0105203 0.133426 -1.26319e-22)
(-0.00674025 0.142605 1.23348e-22)
(0.144761 0.0304199 -1.81819e-21)
(0.12412 0.0437499 0)
(0.0981488 0.0527054 -3.2228e-21)
(0.0703153 0.0636087 7.8595e-21)
(0.0444984 0.0748073 -5.36145e-21)
(0.0224224 0.0859083 5.45035e-22)
(0.00651227 0.0961765 -8.95971e-22)
(-0.003203 0.104084 -1.18476e-21)
(-0.00812941 0.11166 2.12784e-23)
(-0.00529192 0.118957 1.86235e-23)
(0.144231 0.0243346 1.53764e-21)
(0.121878 0.0331815 2.3179e-21)
(0.0963089 0.0392144 -2.29512e-21)
(0.0693992 0.0476349 4.19596e-21)
(0.0447927 0.0566354 -3.05702e-21)
(0.0237234 0.0661173 0)
(0.00827559 0.0750571 8.98045e-22)
(-0.00114497 0.0820052 2.00315e-23)
(-0.00597566 0.0888433 3.82995e-22)
(-0.00400268 0.0945695 1.03138e-22)
(0.142949 0.016038 -6.59941e-23)
(0.119432 0.0207811 0)
(0.0946842 0.0243701 0)
(0.0687784 0.0306572 0)
(0.0452524 0.037511 -3.10523e-21)
(0.0249929 0.0453315 2.06145e-21)
(0.00995489 0.0528739 -9.60068e-23)
(0.000646474 0.0589862 5.25598e-22)
(-0.00407652 0.0651501 1.19394e-22)
(-0.00288135 0.0695432 -1.36721e-23)
(0.140915 0.00559043 -1.73018e-21)
(0.116734 0.0065764 3.81817e-22)
(0.0930024 0.00793157 1.64482e-21)
(0.0681241 0.0123757 -1.64347e-21)
(0.0456633 0.0172698 1.02903e-21)
(0.0261706 0.0235784 0)
(0.0115413 0.0298503 8.46699e-22)
(0.00221365 0.035207 -1.12327e-21)
(-0.0023668 0.0406974 4.93201e-22)
(-0.00190345 0.0440285 -1.06675e-22)
(0.138202 -0.00675786 -2.08059e-22)
(0.113836 -0.00906806 6.93769e-22)
(0.0912921 -0.00989391 5.11481e-22)
(0.0674324 -0.00709488 -1.56208e-21)
(0.0459692 -0.0039887 0)
(0.0272328 0.00101733 0)
(0.0130044 0.00617867 0)
(0.00379998 0.0108946 -5.89957e-22)
(-0.00077367 0.0157493 0)
(-0.00107782 0.0182317 0)
(0.134848 -0.020639 0)
(0.110694 -0.0256475 -1.26201e-21)
(0.0894686 -0.0287035 9.59369e-22)
(0.0666563 -0.0273893 1.73983e-21)
(0.0461657 -0.0259395 -1.7487e-21)
(0.0281838 -0.0220366 -8.28068e-22)
(0.0143499 -0.0178324 9.09576e-22)
(0.00528121 -0.0136837 2.06769e-21)
(0.000528665 -0.00940128 -1.75493e-22)
(-0.000395179 -0.00756956 5.19705e-23)
(0.130747 -0.0356065 0)
(0.107274 -0.0425977 3.04798e-22)
(0.0874988 -0.0480067 2.65924e-22)
(0.065746 -0.0480244 0)
(0.0462584 -0.0481298 -4.33936e-22)
(0.0290248 -0.0451619 1.26147e-21)
(0.0155887 -0.0417949 -1.07208e-21)
(0.00662235 -0.0381318 -2.46153e-22)
(0.00153941 -0.0344238 1.6551e-22)
(0.000117228 -0.0331122 -1.09578e-22)
(0.125845 -0.0511782 3.48594e-22)
(0.103624 -0.0594315 -3.53762e-22)
(0.085392 -0.0672898 -2.24849e-23)
(0.0646887 -0.0684581 -1.66991e-22)
(0.0462264 -0.070043 -4.11951e-22)
(0.0297379 -0.0678926 -5.99537e-22)
(0.0166961 -0.0652951 1.68001e-22)
(0.00780635 -0.062103 1.29499e-22)
(0.00243549 -0.0589709 -1.66051e-22)
(0.000466675 -0.0580293 -2.65404e-23)
(0.120293 -0.0668755 -9.64337e-24)
(0.099736 -0.0757363 9.72734e-24)
(0.0830741 -0.0860643 1.14102e-22)
(0.0634559 -0.0881972 1.66734e-22)
(0.0460329 -0.0911905 -1.82009e-22)
(0.0303019 -0.0897954 3.74493e-22)
(0.0176416 -0.0879427 -2.39986e-22)
(0.0088209 -0.0852486 -5.70479e-23)
(0.00316272 -0.0826726 0)
(0.000675075 -0.0819922 2.65867e-23)
(0.114356 -0.0823067 3.21968e-23)
(0.0956367 -0.091203 -3.24508e-23)
(0.0805368 -0.10394 7.19823e-23)
(0.0620594 -0.106864 1.27887e-22)
(0.045651 -0.111177 1.66009e-22)
(0.0306936 -0.110525 -5.84642e-24)
(0.0183906 -0.10941 -7.86486e-23)
(0.00964213 -0.10726 -1.82688e-22)
(0.00371251 -0.105206 0)
(0.000804222 -0.104691 2.45262e-23)
(0.108294 -0.0971924 0)
(0.0914373 -0.105644 1.01881e-22)
(0.0778114 -0.120636 -2.72754e-22)
(0.0605394 -0.124224 -1.28072e-22)
(0.045066 -0.129725 -2.73487e-22)
(0.0308963 -0.129848 -4.54285e-22)
(0.0189142 -0.129451 1.45902e-22)
(0.0102497 -0.127891 1.14644e-22)
(0.004083 -0.126307 -1.35983e-22)
(0.00085103 -0.12589 -2.44594e-23)
(0.102273 -0.111368 0)
(0.0872412 -0.119007 -1.8716e-22)
(0.074939 -0.135974 9.83145e-23)
(0.0589364 -0.14019 0)
(0.0442839 -0.14668 8.04449e-22)
(0.0309111 -0.147645 -2.41553e-22)
(0.0192135 -0.14791 -2.59275e-22)
(0.0106545 -0.146978 -6.2496e-22)
(0.00429892 -0.145792 1.35539e-22)
(0.000834556 -0.145444 -8.49605e-23)
(0.0964033 -0.124757 0)
(0.0831205 -0.131373 1.887e-22)
(0.0719593 -0.149873 0)
(0.0572841 -0.154804 -7.34036e-22)
(0.0433315 -0.162001 7.37872e-22)
(0.0307527 -0.163901 4.76999e-22)
(0.0193176 -0.164723 9.17183e-24)
(0.0108895 -0.164445 5.96869e-22)
(0.00439949 -0.163576 1.14643e-22)
(0.000779253 -0.163293 1.2482e-22)
(0.0907649 -0.137334 6.35668e-21)
(0.0791513 -0.142941 -2.30122e-21)
(0.06892 -0.162323 -5.61217e-22)
(0.0556136 -0.168196 1.65204e-22)
(0.0422527 -0.175733 0)
(0.0304419 -0.178678 4.21965e-22)
(0.0192653 -0.179914 -4.49643e-23)
(0.0109881 -0.180302 -7.36833e-22)
(0.0044196 -0.179663 -3.69125e-23)
(0.000702668 -0.179463 3.68458e-23)
(0.0854119 -0.149067 1.82477e-21)
(0.0754326 -0.153999 3.21356e-21)
(0.0658999 -0.173366 2.48428e-23)
(0.0539605 -0.180549 -2.48295e-23)
(0.0411087 -0.187992 2.48943e-22)
(0.0300037 -0.192093 0)
(0.0190986 -0.193574 6.81738e-22)
(0.0109806 -0.194635 -3.72848e-22)
(0.00438902 -0.194142 -2.53543e-22)
(0.000616829 -0.194054 -6.1509e-23)
(0.080445 -0.159862 -1.16188e-21)
(0.0721345 -0.164893 0)
(0.0630404 -0.183095 0)
(0.052375 -0.192045 0)
(0.039979 -0.198944 2.68492e-22)
(0.0294726 -0.204295 -5.16658e-22)
(0.0188613 -0.205855 -6.40386e-22)
(0.0108936 -0.207586 8.37973e-22)
(0.00433242 -0.207165 -5.94031e-23)
(0.000530096 -0.207224 1.1961e-22)
(0.0758169 -0.169514 -3.35716e-21)
(0.0692833 -0.175952 2.14286e-21)
(0.0604033 -0.191641 -2.12291e-21)
(0.0508409 -0.202833 -1.66817e-22)
(0.0389215 -0.208793 2.6699e-22)
(0.0288869 -0.215444 0)
(0.0186102 -0.216941 2.51324e-22)
(0.010763 -0.219334 -3.19994e-23)
(0.00427513 -0.218928 1.49137e-22)
(0.000448233 -0.219172 4.59296e-23)
(0.0704787 -0.177584 -1.37156e-21)
(0.066057 -0.187432 0)
(0.0575981 -0.199232 -1.51877e-21)
(0.0490586 -0.213036 1.41489e-21)
(0.0378458 -0.217779 -2.76692e-22)
(0.0282272 -0.225715 7.6944e-23)
(0.018388 -0.227041 -2.50752e-22)
(0.0106412 -0.230072 -4.78179e-23)
(0.0042501 -0.229641 -2.72128e-22)
(0.000372665 -0.230118 -8.95959e-23)
(0.0648736 -0.183168 -5.54464e-21)
(0.0622613 -0.199532 5.39941e-21)
(0.0547143 -0.206313 2.77136e-22)
(0.0469494 -0.222828 0)
(0.0366285 -0.226214 0)
(0.0273707 -0.235318 -7.94432e-23)
(0.018051 -0.236385 -3.66256e-22)
(0.0104571 -0.239997 3.5916e-22)
(0.00421574 -0.23951 3.89497e-23)
(0.000298103 -0.240288 -3.80346e-23)
(0.0695918 -0.188647 0)
(0.0626787 -0.228319 0)
(0.0543955 -0.222826 0)
(0.0451574 -0.245371 0)
(0.0348591 -0.245774 0)
(0.0251831 -0.257396 0)
(0.0164877 -0.257758 0)
(0.00922501 -0.262575 0)
(0.00366488 -0.261702 0)
(0.000183648 -0.263173 0)
(0.052935 -0.238237 0)
(0.0454455 -0.273556 0)
(0.0417222 -0.264292 0)
(0.0338719 -0.285121 0)
(0.0274535 -0.282393 0)
(0.0197696 -0.294194 0)
(0.0134568 -0.292739 0)
(0.00752283 -0.298167 0)
(0.0031824 -0.296197 0)
(0.00024388 -0.298275 0)
(0.0475494 -0.285723 0)
(0.0388449 -0.319098 0)
(0.0348212 -0.307171 0)
(0.0273334 -0.327636 0)
(0.0221632 -0.322278 0)
(0.0156952 -0.334406 0)
(0.0109515 -0.331013 0)
(0.00610663 -0.336899 0)
(0.00278497 -0.333588 0)
(0.000212516 -0.336328 0)
(0.0411799 -0.33775 0)
(0.0326062 -0.370401 0)
(0.0289917 -0.355845 0)
(0.0220971 -0.376575 0)
(0.0180421 -0.368703 0)
(0.0125438 -0.381467 0)
(0.00902833 -0.376082 0)
(0.00503436 -0.382608 0)
(0.00251377 -0.37783 0)
(0.000181636 -0.381432 0)
(0.0352956 -0.398982 0)
(0.0273006 -0.431521 0)
(0.023976 -0.414869 0)
(0.0178477 -0.436218 0)
(0.0147044 -0.426175 0)
(0.0100671 -0.43985 0)
(0.0074954 -0.432625 0)
(0.00415649 -0.440063 0)
(0.00224425 -0.433874 0)
(0.000131959 -0.43863 0)
(0.0297091 -0.473531 0)
(0.0223678 -0.504692 0)
(0.0195125 -0.487978 0)
(0.0141925 -0.509311 0)
(0.0118433 -0.498371 0)
(0.00790099 -0.512613 0)
(0.0060298 -0.504312 0)
(0.00316338 -0.512609 0)
(0.00178321 -0.505534 0)
(2.63966e-07 -0.511508 0)
(0.0230631 -0.559664 0)
(0.0174989 -0.586408 0)
(0.0150998 -0.573331 0)
(0.0108716 -0.592431 0)
(0.0089629 -0.582991 0)
(0.00572725 -0.596187 0)
(0.00424778 -0.588461 0)
(0.00185227 -0.596607 0)
(0.000970329 -0.58986 0)
(-0.000202156 -0.596316 0)
(0.0180377 -0.645356 0)
(0.0131487 -0.665143 0)
(0.0109947 -0.658224 0)
(0.00739132 -0.672152 0)
(0.00601478 -0.666569 0)
(0.00337027 -0.676361 0)
(0.00232713 -0.671058 0)
(0.00041194 -0.677159 0)
(0.000117154 -0.672213 0)
(-0.000371741 -0.677439 0)
(0.0106624 -0.711463 0)
(0.00733425 -0.721745 0)
(0.00619322 -0.72225 0)
(0.0040565 -0.73032 0)
(0.00331749 -0.729613 0)
(0.00159975 -0.734684 0)
(0.000940301 -0.732538 0)
(-0.000283593 -0.73532 0)
(-0.00026047 -0.732807 0)
(-0.000326996 -0.735416 0)
(0.00241607 -0.743943 0)
(0.00178094 -0.752613 0)
(0.00166415 -0.755997 0)
(0.00129238 -0.761011 0)
(0.00102386 -0.762011 0)
(0.000526626 -0.76467 0)
(0.000222819 -0.763943 0)
(-0.000140748 -0.765032 0)
(-0.000150308 -0.763775 0)
(-0.000104545 -0.764902 0)
(0.062369 -0.205228 8.60018e-21)
(0.0522528 -0.25486 -8.43786e-21)
(0.0486889 -0.302883 1.1594e-21)
(0.0427586 -0.355821 0)
(0.0374231 -0.417455 0)
(0.0318114 -0.490698 1.40353e-21)
(0.0256224 -0.57275 -6.1331e-21)
(0.0195271 -0.650262 6.08648e-21)
(0.0121555 -0.711727 1.67875e-21)
(0.00374731 -0.739477 -1.6566e-21)
(0.0602623 -0.211568 -1.02779e-20)
(0.0525329 -0.260358 0)
(0.0493055 -0.308009 7.94169e-21)
(0.0435602 -0.360952 -1.83908e-20)
(0.0384215 -0.422587 1.1914e-20)
(0.0327984 -0.49531 -1.26655e-21)
(0.0267548 -0.57582 2.88027e-21)
(0.0202056 -0.651645 6.12227e-21)
(0.0128158 -0.710481 1.7266e-21)
(0.00432586 -0.738207 1.72041e-21)
(0.0590465 -0.21837 1.23908e-20)
(0.0535044 -0.266396 -8.84509e-21)
(0.0503 -0.31309 8.76129e-21)
(0.0447085 -0.365493 -1.00286e-20)
(0.0396832 -0.426782 7.43775e-21)
(0.0339974 -0.498748 0)
(0.0278809 -0.577661 -2.88747e-21)
(0.0209562 -0.652187 1.73931e-22)
(0.0133299 -0.708382 -3.19458e-21)
(0.00462497 -0.736866 -3.33386e-21)
(0.058609 -0.224502 -2.03964e-21)
(0.0550052 -0.272306 0)
(0.0517019 -0.318195 0)
(0.0462548 -0.370049 0)
(0.0412521 -0.430923 8.45628e-21)
(0.0354427 -0.502057 -5.64819e-21)
(0.0290955 -0.579404 -2.88241e-23)
(0.0218081 -0.652272 -3.49521e-21)
(0.0137671 -0.706351 -1.78743e-21)
(0.00473307 -0.734744 -1.91645e-21)
(0.0589773 -0.229839 2.59649e-22)
(0.0569111 -0.277299 -6.41255e-21)
(0.0534486 -0.322574 -5.01876e-21)
(0.0481472 -0.374091 5.01572e-21)
(0.0430921 -0.434664 -2.77061e-21)
(0.0371135 -0.505068 0)
(0.0304719 -0.581008 -3.26518e-21)
(0.0227926 -0.652056 7.16557e-21)
(0.0142552 -0.704435 -3.67336e-21)
(0.00481077 -0.731983 3.74785e-21)
(0.0602142 -0.234509 -1.75668e-20)
(0.0592295 -0.281232 1.88229e-21)
(0.055536 -0.325848 -3.88695e-22)
(0.0503437 -0.377128 5.21945e-21)
(0.0451628 -0.437491 0)
(0.0389777 -0.507294 0)
(0.0320239 -0.582044 0)
(0.0239239 -0.651432 3.86987e-21)
(0.0148717 -0.702396 0)
(0.00495166 -0.728899 0)
(0.0623362 -0.238438 0)
(0.0620052 -0.284166 7.4157e-21)
(0.0580161 -0.328014 -4.99842e-21)
(0.0528523 -0.379037 -5.92923e-21)
(0.0474653 -0.439187 5.96017e-21)
(0.0410297 -0.508462 3.5358e-21)
(0.0337428 -0.582221 -3.51672e-21)
(0.0251977 -0.650246 -1.38501e-20)
(0.0156257 -0.700046 9.86421e-22)
(0.00517196 -0.725677 -3.3849e-21)
(0.0653327 -0.241433 0)
(0.0652626 -0.286071 -2.42302e-21)
(0.0609389 -0.329112 -1.38268e-21)
(0.0557008 -0.37985 0)
(0.0500285 -0.439751 1.72978e-21)
(0.0432914 -0.508536 -5.25208e-21)
(0.0356342 -0.581456 5.80356e-21)
(0.0266147 -0.648407 2.06377e-21)
(0.0165026 -0.697297 -2.27201e-21)
(0.0054578 -0.722332 4.48756e-21)
(0.0691947 -0.243315 2.26838e-21)
(0.0690104 -0.286866 2.67975e-21)
(0.0643302 -0.329109 -6.03743e-22)
(0.0589078 -0.379585 7.9489e-22)
(0.0528831 -0.43922 1.66736e-21)
(0.0457916 -0.507574 2.78708e-21)
(0.0377132 -0.579809 -1.04643e-21)
(0.0281748 -0.64594 -1.12866e-21)
(0.0174787 -0.69416 2.27952e-21)
(0.00578835 -0.718829 1.24076e-21)
(0.0739188 -0.243935 -6.32073e-22)
(0.073256 -0.286494 6.36852e-22)
(0.0682021 -0.327939 -7.19409e-22)
(0.06248 -0.378213 -7.93925e-22)
(0.0560479 -0.43759 9.34824e-22)
(0.0485518 -0.505605 -1.90277e-21)
(0.0400051 -0.577307 1.60183e-21)
(0.0298983 -0.642849 5.70049e-22)
(0.0185595 -0.690634 0)
(0.00616322 -0.715109 -1.2435e-21)
(0.0795038 -0.243167 6.55919e-22)
(0.0780042 -0.284964 -6.61201e-22)
(0.0725631 -0.325552 -7.86358e-22)
(0.0664182 -0.375721 -8.6953e-22)
(0.0595367 -0.434839 -9.80052e-22)
(0.0515842 -0.502658 -6.5739e-23)
(0.0425179 -0.574021 5.69682e-22)
(0.0317817 -0.639215 1.8298e-21)
(0.0197324 -0.686774 0)
(0.00657313 -0.711174 -1.36492e-21)
(0.0859434 -0.240973 0)
(0.0832508 -0.282331 -3.03765e-21)
(0.0774231 -0.321945 5.49594e-21)
(0.0707224 -0.37212 8.71064e-22)
(0.0633572 -0.430966 2.01186e-21)
(0.0548952 -0.4987 3.26305e-21)
(0.0452797 -0.569878 -1.15136e-21)
(0.0338607 -0.634961 -1.24149e-21)
(0.0210323 -0.682524 2.75274e-21)
(0.00703743 -0.706986 1.3617e-21)
(0.0932225 -0.23744 0)
(0.0889895 -0.278639 -3.04861e-21)
(0.0827856 -0.317209 -1.65261e-21)
(0.0753882 -0.367457 0)
(0.067527 -0.426001 -6.3194e-21)
(0.0584906 -0.493797 2.1243e-21)
(0.0482721 -0.565007 2.49099e-21)
(0.0360994 -0.630232 8.00051e-21)
(0.0224192 -0.677972 -2.74383e-21)
(0.00753072 -0.702585 5.9381e-21)
(0.101322 -0.232718 0)
(0.0952123 -0.273888 3.07483e-21)
(0.0886481 -0.311432 0)
(0.0804305 -0.36174 8.18507e-21)
(0.0720458 -0.420043 -8.227e-21)
(0.0623809 -0.487832 -4.92299e-21)
(0.0515465 -0.559203 -8.85397e-23)
(0.0385719 -0.624796 -8.2417e-21)
(0.0239686 -0.67296 -1.37309e-21)
(0.00809543 -0.697862 -7.38685e-21)
(0.11022 -0.226998 2.31885e-20)
(0.101917 -0.268071 -8.81759e-21)
(0.0949782 -0.304889 7.94146e-22)
(0.0858265 -0.355039 -7.78015e-21)
(0.0769446 -0.413173 0)
(0.06658 -0.480982 -5.14747e-21)
(0.0550229 -0.552809 -4.0138e-22)
(0.0411727 -0.618997 1.12185e-20)
(0.0255799 -0.66771 1.53734e-21)
(0.00867002 -0.692968 -1.543e-21)
(0.119879 -0.220462 -1.83849e-21)
(0.109076 -0.261192 1.6352e-20)
(0.101776 -0.297454 8.12625e-21)
(0.09167 -0.347089 -8.12073e-21)
(0.0822453 -0.405048 -4.79654e-21)
(0.0711527 -0.472933 0)
(0.0588424 -0.545266 -1.15083e-20)
(0.0440878 -0.612283 5.76927e-21)
(0.0274187 -0.661881 6.14233e-21)
(0.00934813 -0.687696 6.5999e-21)
(0.13022 -0.213465 -3.25207e-21)
(0.116733 -0.253315 0)
(0.109002 -0.289318 0)
(0.0978893 -0.338545 0)
(0.0878168 -0.396547 -5.47865e-21)
(0.0759231 -0.464784 1.02576e-20)
(0.0627565 -0.537808 1.1733e-20)
(0.0470059 -0.605694 -1.844e-20)
(0.0292104 -0.656065 3.29718e-21)
(0.0099654 -0.682374 -9.80346e-21)
(0.141137 -0.205973 -5.25112e-21)
(0.124996 -0.243765 1.59766e-20)
(0.116649 -0.279997 -1.5824e-20)
(0.104617 -0.328571 1.96099e-20)
(0.0938872 -0.386316 -2.46289e-20)
(0.0812523 -0.45463 0)
(0.0672635 -0.528345 -6.15078e-21)
(0.0504876 -0.597542 -2.57509e-22)
(0.031422 -0.649323 -6.861e-21)
(0.010789 -0.676444 -6.9932e-21)
(0.152292 -0.199284 -3.4787e-21)
(0.133572 -0.234742 0)
(0.124202 -0.271923 -2.08487e-20)
(0.111327 -0.320117 3.88339e-20)
(0.0998358 -0.378002 -1.49447e-20)
(0.0863582 -0.446675 -2.93723e-21)
(0.0714241 -0.521014 6.13776e-21)
(0.0535609 -0.590898 -3.10127e-22)
(0.0332838 -0.643251 1.00161e-20)
(0.0113693 -0.670768 1.03496e-20)
(0.164452 -0.189036 -1.53772e-20)
(0.144091 -0.221501 1.50285e-20)
(0.133184 -0.259241 2.2234e-21)
(0.119533 -0.306594 0)
(0.107215 -0.364152 0)
(0.0929477 -0.433024 2.83621e-21)
(0.0770682 -0.508669 1.27997e-20)
(0.0579791 -0.580781 -1.24721e-20)
(0.036131 -0.635342 -3.40091e-21)
(0.0124668 -0.663924 3.33977e-21)
(0.175466 -0.19141 0)
(0.16566 -0.216507 0)
(0.149713 -0.256378 0)
(0.134247 -0.302385 0)
(0.120332 -0.358753 0)
(0.104174 -0.425671 0)
(0.0861569 -0.498897 0)
(0.0646383 -0.568525 0)
(0.0400829 -0.621495 0)
(0.0132945 -0.649911 0)
(0.197501 -0.171226 0)
(0.202425 -0.201127 0)
(0.17759 -0.245523 0)
(0.163153 -0.290487 0)
(0.146506 -0.346776 0)
(0.12727 -0.411642 0)
(0.10555 -0.481088 0)
(0.0794759 -0.545725 0)
(0.0497459 -0.593645 0)
(0.0176498 -0.61771 0)
(0.230059 -0.150678 0)
(0.240836 -0.181113 0)
(0.207334 -0.225425 0)
(0.196376 -0.268632 0)
(0.175204 -0.324621 0)
(0.152499 -0.386368 0)
(0.126095 -0.451884 0)
(0.0945102 -0.512765 0)
(0.0584928 -0.55877 0)
(0.0190672 -0.584044 0)
(0.272363 -0.136318 0)
(0.284893 -0.165535 0)
(0.244977 -0.208909 0)
(0.238503 -0.251083 0)
(0.210511 -0.306256 0)
(0.184642 -0.363335 0)
(0.152484 -0.423988 0)
(0.114381 -0.478552 0)
(0.0714148 -0.518075 0)
(0.0255518 -0.536893 0)
(0.323829 -0.118824 0)
(0.335076 -0.146238 0)
(0.290817 -0.186497 0)
(0.286202 -0.225492 0)
(0.247871 -0.276006 0)
(0.218564 -0.326086 0)
(0.178053 -0.38117 0)
(0.132416 -0.430153 0)
(0.0811148 -0.46772 0)
(0.0254651 -0.489918 0)
(0.388293 -0.108382 0)
(0.396245 -0.133437 0)
(0.349068 -0.170293 0)
(0.342529 -0.20506 0)
(0.293195 -0.250223 0)
(0.261999 -0.293743 0)
(0.211199 -0.342959 0)
(0.157394 -0.383244 0)
(0.097453 -0.41276 0)
(0.0361011 -0.424338 0)
(0.460128 -0.0865781 0)
(0.460262 -0.107235 0)
(0.410562 -0.138012 0)
(0.397145 -0.166205 0)
(0.337468 -0.203688 0)
(0.302706 -0.238835 0)
(0.235501 -0.278817 0)
(0.173592 -0.310789 0)
(0.102698 -0.341063 0)
(0.0282694 -0.363544 0)
(0.542333 -0.0745786 0)
(0.531856 -0.090347 0)
(0.483577 -0.115266 0)
(0.45929 -0.136709 0)
(0.395204 -0.166692 0)
(0.352209 -0.19296 0)
(0.271361 -0.224187 0)
(0.20513 -0.250218 0)
(0.12473 -0.275746 0)
(0.0543151 -0.277348 0)
(0.605402 -0.0397394 0)
(0.58464 -0.047967 0)
(0.530836 -0.0632398 0)
(0.4937 -0.0745195 0)
(0.421838 -0.0926163 0)
(0.365167 -0.105822 0)
(0.270738 -0.124645 0)
(0.194661 -0.139419 0)
(0.0935909 -0.164933 0)
(-0.00558608 -0.209943 0)
(0.793297 -0.0197208 0)
(0.767371 -0.0237425 0)
(0.721294 -0.0297966 0)
(0.678243 -0.0353039 0)
(0.613378 -0.0434295 0)
(0.549405 -0.0510564 0)
(0.459728 -0.0627631 0)
(0.368073 -0.0767529 0)
(0.245337 -0.104911 0)
(0.165663 -0.159222 0)
(0.208894 -0.167951 1.63524e-20)
(0.234791 -0.144593 -1.6094e-20)
(0.267814 -0.12583 2.55027e-21)
(0.308613 -0.112959 0)
(0.358709 -0.0979243 0)
(0.420069 -0.0890174 3.62446e-21)
(0.489534 -0.0703929 -1.68886e-20)
(0.566846 -0.061231 1.67456e-20)
(0.63216 -0.0313183 4.76163e-21)
(0.8138 -0.016588 -4.78075e-21)
(0.21784 -0.158001 -1.57239e-20)
(0.243161 -0.133725 0)
(0.276065 -0.115981 1.77145e-20)
(0.316908 -0.103736 -4.23352e-20)
(0.367136 -0.0896583 2.81849e-20)
(0.428292 -0.0813684 -3.31179e-21)
(0.497593 -0.0639492 7.17515e-21)
(0.574016 -0.0558643 1.58677e-20)
(0.641085 -0.0279295 4.41081e-21)
(0.820939 -0.0152705 4.27865e-21)
(0.225687 -0.146528 1.83561e-20)
(0.249485 -0.122431 -1.73182e-20)
(0.281496 -0.106036 1.71554e-20)
(0.322035 -0.0945142 -2.2432e-20)
(0.372281 -0.0814693 1.63533e-20)
(0.433478 -0.0738908 0)
(0.502816 -0.057752 -7.19285e-21)
(0.579004 -0.0508494 -6.95362e-23)
(0.648189 -0.0248663 -8.27396e-21)
(0.82687 -0.0140327 -8.5707e-21)
(0.234378 -0.134197 -3.16547e-21)
(0.257337 -0.110864 0)
(0.288418 -0.0959206 0)
(0.328369 -0.0852066 0)
(0.378352 -0.0732919 1.82308e-20)
(0.439315 -0.0665296 -1.23535e-20)
(0.508479 -0.0517566 -3.7448e-22)
(0.584274 -0.0461167 -8.10321e-21)
(0.655097 -0.0220856 -4.17682e-21)
(0.832583 -0.0128799 -4.24297e-21)
(0.242631 -0.12145 2.77385e-21)
(0.265147 -0.0992612 -1.00237e-20)
(0.29551 -0.0857615 -9.60256e-21)
(0.335133 -0.0758991 9.59695e-21)
(0.384942 -0.0651686 -5.79612e-21)
(0.445708 -0.0592982 0)
(0.514674 -0.0459295 -7.12432e-21)
(0.590008 -0.0415715 1.56993e-20)
(0.662069 -0.0194938 -7.92499e-21)
(0.838225 -0.0117917 8.50156e-21)
(0.249984 -0.108361 -2.42325e-20)
(0.271996 -0.087684 1.66392e-21)
(0.301494 -0.0756282 -1.27008e-21)
(0.341 -0.0666995 9.46498e-21)
(0.390782 -0.0571884 0)
(0.451543 -0.052262 0)
(0.520467 -0.0402973 0)
(0.595498 -0.0371945 7.58559e-21)
(0.668707 -0.0170441 0)
(0.843551 -0.0107552 0)
(0.256471 -0.0949652 0)
(0.277806 -0.0760795 1.17178e-20)
(0.306258 -0.0654837 -8.06487e-21)
(0.345609 -0.0576302 -1.06128e-20)
(0.395367 -0.0493715 1.06682e-20)
(0.456205 -0.0454489 6.60083e-21)
(0.525222 -0.0348779 -6.30991e-21)
(0.600161 -0.033 -2.62793e-20)
(0.67458 -0.0147329 1.86512e-21)
(0.848284 -0.00976857 -6.20272e-21)
(0.262031 -0.0813019 0)
(0.282524 -0.0644132 -3.66443e-21)
(0.310013 -0.0552922 -2.14794e-21)
(0.349112 -0.0486499 0)
(0.398723 -0.0416792 3.11487e-21)
(0.459629 -0.0388256 -9.07735e-21)
(0.528773 -0.0296489 1.04895e-20)
(0.603796 -0.0289819 3.93773e-21)
(0.679472 -0.0125574 -3.94389e-21)
(0.852296 -0.00883143 8.29414e-21)
(0.266515 -0.067384 2.49253e-21)
(0.286064 -0.0526738 3.92862e-21)
(0.31277 -0.045066 -7.54047e-22)