/*--------------------------------*- C++ -*----------------------------------*\
  =========                 |
  \\      /  F ield         | OpenFOAM: The Open Source CFD Toolbox
   \\    /   O peration     | Website:  https://openfoam.org
    \\  /    A nd           | Version:  7
     \\/     M anipulation  |
\*---------------------------------------------------------------------------*/
FoamFile
{
    version     2.0;
    format      ascii;
    class       surfaceScalarField;
    location    "58.6";
    object      phi;
}
// * * * * * * * * * * * * * * * * * * * * * * * * * * * * * * * * * * * * * //

dimensions      [0 3 -1 0 0 0 0];

internalField   nonuniform List<scalar> 
3880
(
-4.70608e-05
-0.000854751
0.000901811
-7.41773e-05
-0.00160052
0.00162763
-3.37265e-05
-0.00175033
0.00170988
0.000109035
-0.00145467
0.00131191
0.000381163
-0.000791592
0.000519464
0.000801692
0.000194532
-0.000615061
0.00137924
0.00147059
-0.00204814
0.0021094
0.00300101
-0.00373117
0.00297294
0.00473963
-0.00560317
0.00662405
0.00393454
-0.00758564
-5.62773e-05
-0.000798473
-9.70298e-05
-0.00155976
-7.52348e-05
-0.00177212
4.35455e-05
-0.00157345
0.000288325
-0.00103637
0.000683067
-0.000200209
0.0012437
0.00090996
0.00197384
0.00227086
0.00286059
0.00385288
0.00561446
0.00387018
-5.87742e-05
-0.000739699
-0.000100566
-0.00151797
-8.2458e-05
-0.00179023
2.64017e-05
-0.00168231
0.000253596
-0.00126357
0.000625325
-0.000571938
0.00116305
0.000372233
0.00187861
0.0015553
0.00276738
0.00296412
0.00458201
0.00379983
-5.27726e-05
-0.000686926
-7.97276e-05
-0.00149102
-4.54782e-05
-0.00182448
7.40213e-05
-0.00180181
0.000301775
-0.00149132
0.000662367
-0.00093253
0.00117987
-0.000145266
0.00187301
0.000862163
0.00274664
0.00209048
0.0035494
0.00377926
-3.70815e-05
-0.000649845
-3.10272e-05
-0.00149707
4.29196e-05
-0.00189843
0.000199636
-0.00195853
0.000454509
-0.00174619
0.000826819
-0.00130484
0.0013396
-0.00065805
0.00201504
0.000186724
0.00286755
0.00123797
0.00252942
0.00388753
-1.10942e-05
-0.000638751
4.64369e-05
-0.0015546
0.00018503
-0.00203702
0.000408931
-0.00218243
0.000723817
-0.00206108
0.00114086
-0.00172188
0.00167777
-0.00119496
0.00235672
-0.000492227
0.00319899
0.000395697
0.00151762
0.00421079
2.44448e-05
-0.000663196
0.000150531
-0.00168069
0.000376948
-0.00226344
0.000696811
-0.00250229
0.00110572
-0.00246999
0.00160525
-0.00222141
0.00220492
-0.00179463
0.00292256
-0.00120986
0.00378275
-0.000464499
0.000492372
0.004808
6.74199e-05
-0.000730616
0.000275579
-0.00188885
0.00060747
-0.00259533
0.00104559
-0.00294041
0.00157629
-0.0030007
0.00219189
-0.00283701
0.00289252
-0.00249526
0.00368818
-0.00200552
0.00460174
-0.00137806
-0.0005762
0.00567031
0.000115636
-0.000846252
0.000413071
-0.00218628
0.000858959
-0.00304122
0.00142571
-0.00350716
0.00209212
-0.0036671
0.0028432
-0.00358809
0.00367055
-0.00332262
0.00457376
-0.00290873
0.00556632
-0.00237061
-0.00170932
0.00669943
0.000165741
-0.00101199
0.000552252
-0.00257279
0.00110896
-0.00359792
0.00179877
-0.00419697
0.00259498
-0.00446332
0.00347915
-0.00447226
0.00443945
-0.00428292
0.00546849
-0.00393776
0.00655849
-0.00346062
0.00773424
-0.00288507
0.00636194
0.0398635
-0.0422909
0.00753878
0.0665113
-0.0676882
0.00750134
0.0876461
-0.0876086
0.0068836
0.10708
-0.106462
0.00600097
0.127886
-0.127003
0.00493738
0.151457
-0.150394
0.00371749
0.178348
-0.177128
0.00230721
0.209987
-0.208576
0.000948412
0.251913
-0.250554
0.301046
-0.300097
0.00676413
0.0369695
0.00850746
0.064768
0.00881222
0.0873413
0.00836372
0.107528
0.00754592
0.128703
0.00645149
0.152552
0.00509648
0.179703
0.00343486
0.211648
0.00163218
0.253716
0.302678
0.00705347
0.0337159
0.00940731
0.0624142
0.0100958
0.0866528
0.00983973
0.107784
0.00909457
0.129448
0.0079718
0.153674
0.00648045
0.181194
0.00456719
0.213561
0.00231836
0.255965
0.304996
0.00722018
0.0302749
0.0101994
0.0594349
0.011316
0.0855363
0.0112813
0.107819
0.0106215
0.130108
0.00947809
0.154818
0.00785465
0.182818
0.00569335
0.215723
0.00299926
0.258659
0.307996
0.00728825
0.0268742
0.0108475
0.0558757
0.012437
0.0839468
0.0126593
0.107597
0.0121027
0.130665
0.01095
0.15597
0.00920497
0.184563
0.00680133
0.218126
0.00367058
0.26179
0.311666
0.00732026
0.0237648
0.0113194
0.0518766
0.0134247
0.0818415
0.0139437
0.107078
0.0135105
0.131098
0.0123623
0.157119
0.0105098
0.186415
0.007877
0.220759
0.00432417
0.265342
0.31599
0.00739874
0.021174
0.011605
0.0476704
0.0142506
0.0791959
0.0151119
0.106216
0.014833
0.131377
0.0137098
0.158242
0.0117665
0.188359
0.00891686
0.223609
0.00495802
0.269301
0.320948
0.00758907
0.0192553
0.0117244
0.0435351
0.0148871
0.0760331
0.01612
0.104983
0.0160204
0.131477
0.0149421
0.15932
0.0129329
0.190368
0.009897
0.226645
0.00556041
0.273638
0.326509
0.00790039
0.0180543
0.0117149
0.0397205
0.0153432
0.0724048
0.0170101
0.103317
0.0171361
0.131351
0.0161208
0.160335
0.0140562
0.192433
0.0108349
0.229866
0.00613616
0.278337
0.332645
0.00835523
0.0174333
0.011667
0.0364087
0.0155133
0.0685586
0.0175895
0.10124
0.0180037
0.130936
0.0171037
0.161235
0.0150693
0.194467
0.0116888
0.233246
0.00671324
0.283312
0.339358
0.0202953
0.02788
-0.030742
0.0145424
0.0421617
0.0144597
0.0686413
0.0142285
0.101471
0.0128187
0.132346
0.0106329
0.163421
0.0078787
0.197221
0.00458342
0.236542
0.00142878
0.286467
0.340787
0.026202
0.0351294
-0.0334514
0.0181765
0.0501872
0.0152015
0.0716163
0.0141054
0.102567
0.0121975
0.134254
0.00979443
0.165824
0.00714898
0.199867
0.00413303
0.239558
0.001279
0.289321
0.342066
0.0295849
0.0391135
-0.033569
0.0222155
0.0575566
0.0171364
0.0766953
0.0149252
0.104779
0.0127779
0.136401
0.0101208
0.168481
0.0071835
0.202804
0.00403529
0.242706
0.00125272
0.292103
0.343319
0.0303869
0.0407274
-0.0320008
0.0248567
0.0630868
0.0190173
0.0825348
0.0153758
0.10842
0.0125547
0.139222
0.00981609
0.17122
0.00700662
0.205613
0.00401211
0.2457
0.00130427
0.294811
0.344623
0.0293822
0.0407511
-0.0294059
0.0259999
0.0664691
0.0209885
0.0875461
0.0170732
0.112336
0.013777
0.142519
0.0104881
0.174509
0.00726083
0.208841
0.0040975
0.248864
0.0013483
0.29756
0.345971
0.0268165
0.0395521
-0.0256175
0.0252861
0.0679994
0.0211903
0.091642
0.0170675
0.116458
0.0136583
0.145928
0.0105087
0.177659
0.00740952
0.21194
0.00430598
0.251967
0.00152663
0.30034
0.347498
0.0233072
0.0371977
-0.0209528
0.0238979
0.0674087
0.0218657
0.0936742
0.0184519
0.119872
0.0147509
0.149629
0.0110641
0.181345
0.00759638
0.215408
0.00434412
0.25522
0.00155241
0.303131
0.34905
0.0189918
0.0340036
-0.0157977
0.0207245
0.0656761
0.0199764
0.0944222
0.0176166
0.122232
0.0146827
0.152563
0.0114264
0.184602
0.0080338
0.2188
0.00470976
0.258544
0.00178258
0.306059
0.350833
0.0155847
0.0296989
-0.01128
0.0192094
0.0620514
0.020167
0.0934646
0.0183925
0.124006
0.0152221
0.155733
0.0116362
0.188187
0.00805179
0.222385
0.00471372
0.261882
0.00179503
0.308977
0.352628
0.0105412
-0.00620278
0.014936
0.0177481
0.0179599
0.0159302
0.0125524
0.00883045
0.00517277
0.00208923
0.0108997
-0.0326321
-0.00900956
0.0112686
-0.0338204
0.010739
-0.0330393
0.00976095
-0.0310228
0.0085294
-0.0281743
0.00715991
-0.024248
0.00574544
-0.0195383
0.004376
-0.0144283
0.00295192
-0.0098559
-0.00509496
0.0101752
-0.0336236
-0.0091837
0.00991889
-0.0335641
0.00903913
-0.0321596
0.00785232
-0.0298359
0.00648926
-0.0268113
0.00504051
-0.0227993
0.00358609
-0.0180839
0.00221004
-0.0130522
0.000799299
-0.00844516
-0.00407244
0.00904043
-0.0338824
-0.00878163
0.00831282
-0.0328365
0.00717432
-0.0310211
0.00582212
-0.0284837
0.00435266
-0.0253418
0.00284437
-0.021291
0.00137396
-0.0166135
3.55455e-05
-0.0117138
-0.00129501
-0.00711461
-0.00313793
0.00749631
-0.0335644
-0.00781433
0.0064272
-0.0317674
0.00511087
-0.0297047
0.00364908
-0.027022
0.0021181
-0.0238108
0.000587949
-0.0197608
-0.000861685
-0.0151638
-0.00216856
-0.0104069
-0.00334272
-0.00594045
-0.00231977
0.00560086
-0.0328035
-0.00636172
0.00429834
-0.0304649
0.00287212
-0.0282785
0.00135196
-0.0255018
-0.000200569
-0.0222583
-0.0016956
-0.0182658
-0.003091
-0.0137684
-0.00431464
-0.00918328
-0.00533793
-0.00491716
-0.00164952
0.00344416
-0.0317117
-0.00453597
0.00199577
-0.0290165
0.000509277
-0.026792
-0.00101211
-0.0239804
-0.00252614
-0.0207443
-0.00397593
-0.016816
-0.00528261
-0.0124618
-0.00639013
-0.00807576
-0.00725051
-0.00405678
-0.00113571
0.00112422
-0.0303791
-0.00245681
-0.000403252
-0.027489
-0.0018842
-0.0253111
-0.00338868
-0.0224759
-0.00484656
-0.0192864
-0.00620666
-0.0154559
-0.00739831
-0.0112701
-0.0083675
-0.00710657
-0.0090604
-0.00336388
-0.000773831
-0.00126107
-0.0288922
-0.00022583
-0.00280024
-0.0259498
-0.00426981
-0.0238415
-0.00572219
-0.0210235
-0.00709535
-0.0179132
-0.00834301
-0.0142082
-0.00940271
-0.0102104
-0.0102218
-0.00628747
-0.0107519
-0.00283382
-0.000550411
-0.0036266
-0.0272835
0.00201794
-0.00515106
-0.0244254
-0.00657462
-0.022418
-0.00795008
-0.0196481
-0.00922192
-0.0166414
-0.010344
-0.0130862
-0.0112643
-0.00929005
-0.0119324
-0.00561943
-0.0123129
-0.00245334
-0.000445744
-0.00589211
-0.0256237
0.00423224
-0.00737596
-0.0229415
-0.0087371
-0.0210568
-0.0100202
-0.018365
-0.0111827
-0.0154789
-0.0121749
-0.012094
-0.0129578
-0.00850712
-0.0134839
-0.00509331
-0.0137352
-0.00220209
-0.000436188
-0.00799168
-0.0239597
0.00632774
-0.00941693
-0.0215163
-0.0107072
-0.0197665
-0.0118899
-0.0171823
-0.0129431
-0.0144257
-0.0138095
-0.0112276
-0.0144654
-0.00785119
-0.0148671
-0.00469157
-0.0150146
-0.00205465
-0.000495962
-0.00988293
-0.0223286
0.00825178
-0.0112345
-0.0201647
-0.0124506
-0.0185505
-0.0135305
-0.0161023
-0.0144803
-0.013476
-0.015232
-0.0104759
-0.0157779
-0.00730527
-0.016079
-0.00439054
-0.0161509
-0.00198275
-0.000598489
-0.0115323
-0.0207593
0.00996307
-0.0127989
-0.0188981
-0.0139424
-0.017407
-0.0149232
-0.0151215
-0.0157812
-0.012618
-0.0164357
-0.00982139
-0.0168939
-0.00684703
-0.017122
-0.00416242
-0.0171478
-0.00195697
-0.000717379
-0.0129221
-0.019272
0.0114348
-0.0140956
-0.0177245
-0.0151718
-0.0163308
-0.0160626
-0.0142307
-0.0168439
-0.0118368
-0.0174233
-0.00924192
-0.0178193
-0.00645107
-0.0180043
-0.00397744
-0.0180129
-0.00194831
-0.000827043
-0.0140475
-0.0178749
0.0126504
-0.015123
-0.016649
-0.0161395
-0.0153144
-0.0169543
-0.0134159
-0.0176759
-0.0111151
-0.0182056
-0.00871224
-0.018566
-0.00609069
-0.0187377
-0.00380571
-0.0187568
-0.00192921
-0.000903057
-0.014915
-0.0165606
0.0136007
-0.015892
-0.015672
-0.0168557
-0.0143507
-0.0176129
-0.0126587
-0.0182923
-0.0104357
-0.0187988
-0.00820575
-0.0191501
-0.00573941
-0.0193373
-0.00361842
-0.0193926
-0.00187399
-0.000922321
-0.0155376
-0.0153032
0.0142801
-0.0164224
-0.0147872
-0.0173371
-0.013436
-0.0180588
-0.0119369
-0.0187125
-0.00978196
-0.0192222
-0.00769612
-0.0195897
-0.00537186
-0.0198196
-0.00338858
-0.0199347
-0.00175889
-0.000863073
-0.0159156
-0.0140728
0.0146852
-0.0167294
-0.0139734
-0.0175978
-0.0125676
-0.0183112
-0.0112236
-0.0189568
-0.00913636
-0.0194954
-0.00715752
-0.0199035
-0.00496373
-0.020201
-0.00309106
-0.0203982
-0.00156172
-0.000704735
-0.0160394
-0.0128573
0.0148239
-0.0168332
-0.0131797
-0.0176583
-0.0117425
-0.0183918
-0.0104901
-0.0190478
-0.00848042
-0.0196391
-0.00656622
-0.0201103
-0.00449253
-0.0204982
-0.00270315
-0.0207981
-0.00126182
-0.000427554
-0.0160046
-0.0116066
0.0147539
-0.0168393
-0.012345
-0.0175822
-0.0109995
-0.0183358
-0.00973653
-0.0190108
-0.00780539
-0.0196681
-0.00590893
-0.0202236
-0.00393702
-0.0207241
-0.00220263
-0.0211522
-0.00083377
-1.56069e-05
-0.0688935
-0.0102166
0.0675036
-0.0720778
-0.00916076
-0.0749375
-0.00813979
-0.0778476
-0.00682638
-0.0801633
-0.0054897
-0.0820492
-0.0040231
-0.0832739
-0.0027123
-0.0839844
-0.00149211
-0.0842193
-0.000598896
-2.84468e-05
-0.0826895
-0.00891061
0.0813835
-0.0846764
-0.00717386
-0.0864386
-0.0063776
-0.0882626
-0.00500237
-0.0896727
-0.00407963
-0.0908128
-0.00288299
-0.0915184
-0.00200673
-0.0919144
-0.00109603
-0.0920157
-0.000497653
-3.89178e-05
-0.0971099
-0.00799945
0.0961987
-0.0981703
-0.00611341
-0.0992757
-0.00527221
-0.100357
-0.00392153
-0.101223
-0.0032129
-0.101912
-0.00219394
-0.102317
-0.00160244
-0.102529
-0.000884127
-0.10256
-0.000466048
-4.10259e-05
-0.113927
-0.00749482
0.113422
-0.114584
-0.00545616
-0.115272
-0.00458369
-0.115924
-0.00327022
-0.116453
-0.0026835
-0.116875
-0.00177164
-0.117118
-0.00136012
-0.117253
-0.000748541
-0.117266
-0.00045364
-3.59391e-05
-0.134478
-0.00690363
0.133887
-0.135017
-0.00491665
-0.135543
-0.00405778
-0.136017
-0.00279687
-0.136408
-0.00229251
-0.136727
-0.00145267
-0.136934
-0.00115279
-0.137077
-0.000605681
-0.137129
-0.000401554
-7.85017e-06
-0.158615
-0.00605991
0.157772
-0.159277
-0.00425468
-0.159857
-0.00347841
-0.160342
-0.00231195
-0.160744
-0.00189028
-0.16107
-0.00112696
-0.161324
-0.00089872
-0.161538
-0.000391614
-0.161672
-0.000266881
3.45223e-05
-0.183905
-0.00491986
0.182764
-0.184852
-0.00330769
-0.185657
-0.00267247
-0.18623
-0.0017396
-0.186707
-0.00141303
-0.187065
-0.000768641
-0.187386
-0.00057792
-0.187642
-0.000135419
-0.187822
-8.73578e-05
8.18395e-05
-0.206688
-0.00322465
0.204993
-0.207669
-0.00232746
-0.208478
-0.0018632
-0.209054
-0.00116322
-0.209555
-0.000912364
-0.209894
-0.000429704
-0.210193
-0.000278487
-0.210379
5.07309e-05
-0.210507
3.98193e-05
9.49848e-05
-0.222142
-0.00177133
0.220689
-0.223388
-0.00108094
-0.224398
-0.00085389
-0.225039
-0.000521611
-0.225524
-0.000427501
-0.225776
-0.000177891
-0.225956
-9.83933e-05
-0.225982
7.71419e-05
-0.225999
5.63529e-05
6.06653e-05
-0.230703
0.228932
-0.231784
-0.232638
-0.23316
-0.233587
-0.233765
-0.233864
-0.233786
-0.23373
-0.0164746
0.0688504
0.0151277
-0.0172183
0.0821273
-0.0176605
0.0966409
-0.017762
0.113523
-0.0173849
0.13351
-0.0161725
0.156559
-0.0137847
0.180377
-0.0100497
0.201258
-0.00535002
0.215989
0.223582
-0.0155405
0.0696945
0.0146964
-0.0161866
0.0827734
-0.0165546
0.0970089
-0.0165671
0.113536
-0.0161023
0.133045
-0.0148494
0.155306
-0.0125304
0.178058
-0.00908268
0.19781
-0.00479515
0.211701
0.218787
-0.014733
0.070413
0.0140146
-0.0152729
0.0833132
-0.0155496
0.0972856
-0.0154979
0.113484
-0.0149916
0.132539
-0.0137553
0.15407
-0.0115494
0.175852
-0.00834892
0.19461
-0.00438862
0.207741
0.214398
-0.0138086
0.0710765
0.0131451
-0.0142615
0.0837662
-0.0144397
0.0974638
-0.0143142
0.113359
-0.0137698
0.131994
-0.0125634
0.152864
-0.0104949
0.173783
-0.00756154
0.191677
-0.00396053
0.20414
0.210438
-0.0127346
0.0716765
0.0121346
-0.0131156
0.0841472
-0.0132147
0.0975628
-0.0130302
0.113174
-0.0124634
0.131427
-0.011305
0.151705
-0.00939418
0.171872
-0.00674116
0.189024
-0.00352064
0.20092
0.206917
-0.0115436
0.0722016
0.0110184
-0.011844
0.0844476
-0.0118725
0.0975913
-0.0116447
0.112947
-0.0110744
0.130857
-0.00998636
0.150617
-0.00825502
0.170141
-0.00589828
0.186667
-0.00307249
0.198094
0.203845
-0.010266
0.0726439
0.00982372
-0.0104779
0.0846595
-0.0104352
0.0975487
-0.0101719
0.112683
-0.00961257
0.130298
-0.00861452
0.149619
-0.00708252
0.168609
-0.00503829
0.184623
-0.00261744
0.195673
0.201227
-0.00892274
0.0729903
0.00857637
-0.00904511
0.0847819
-0.008931
0.0974346
-0.00863695
0.112389
-0.00809806
0.129759
-0.00720456
0.148726
-0.00588657
0.167291
-0.004167
0.182903
-0.00215767
0.193664
0.199069
-0.00753577
0.0732227
0.00730332
-0.00757072
0.0848168
-0.00738537
0.0972492
-0.00706561
0.112069
-0.0065541
0.129247
-0.00577535
0.147947
-0.00468043
0.166196
-0.00329199
0.181515
-0.00169668
0.192068
0.197373
-0.00612807
0.0733186
0.00603223
-0.00608156
0.0847703
-0.00582153
0.0969892
-0.0054821
0.11173
-0.00500206
0.128767
-0.00434534
0.14729
-0.00347789
0.165329
-0.00242198
0.180459
-0.00123891
0.190885
0.196134
-0.00473476
0.0732566
0.00479673
-0.00461145
0.084647
-0.00427019
0.096648
-0.003914
0.111374
-0.00346569
0.128319
-0.00293417
0.146759
-0.00229359
0.164688
-0.00156657
0.179732
-0.000789099
0.190108
0.195345
-0.00339664
0.0730389
0.00361436
-0.00318289
0.0844333
-0.00276878
0.0962338
-0.00238976
0.110995
-0.00197516
0.127904
-0.00156069
0.146344
-0.0011408
0.164268
-0.000735419
0.179326
-0.000352593
0.189725
0.194992
-0.00215459
0.0726808
0.00251268
-0.00183152
0.0841102
-0.00136198
0.0957643
-0.000953302
0.110586
-0.000578072
0.127529
-0.000275685
0.146042
-7.20779e-05
0.164065
3.35286e-05
0.179221
5.19721e-05
0.189706
0.195044
-0.00104115
0.0722165
0.00150539
-0.000583726
0.0836528
-0.000110701
0.0952913
0.000382511
0.110093
0.000760668
0.127151
0.000979982
0.145823
0.000998717
0.164046
0.000810924
0.179408
0.000457352
0.19006
0.195501
-0.000106028
0.071731
0.00059157
0.000571763
0.082975
0.00117095
0.0946921
0.0016844
0.109579
0.00203819
0.126797
0.00216029
0.1457
0.00199276
0.164213
0.00152952
0.179872
0.000833909
0.190756
0.196335
0.000871737
0.0711017
-0.000242457
0.00164233
0.0822044
0.00229965
0.0940348
0.00284994
0.109029
0.00319326
0.126454
0.00323607
0.145658
0.00290264
0.164547
0.00218822
0.180586
0.00117791
0.191766
0.197513
0.00169247
0.0703853
-0.000976092
0.00258012
0.0813167
0.00329641
0.0933185
0.00389114
0.108434
0.00423602
0.126109
0.00421803
0.145676
0.00374034
0.165025
0.00279736
0.181529
0.00149589
0.193067
0.199009
0.00237648
0.069654
-0.00164515
0.00337568
0.0803175
0.00414195
0.0925522
0.00477428
0.107802
0.0051218
0.125761
0.00505577
0.145742
0.00445822
0.165622
0.00332049
0.182667
0.00176659
0.194621
0.200776
0.00299752
0.0689367
-0.00228024
0.00409722
0.0792178
0.00491703
0.0917324
0.00558877
0.10713
0.00594766
0.125402
0.00584425
0.145845
0.00513667
0.16633
0.00381446
0.183989
0.00202198
0.196414
0.202798
0.0033295
0.0685057
-0.00289844
0.00447135
0.078076
0.00534067
0.0908631
0.00604113
0.10643
0.00641513
0.125028
0.00630473
0.145956
0.0055446
0.16709
0.0041155
0.185418
0.00216988
0.198359
0.204968
-0.0520021
0.0625644
0.0579434
-0.0469148
0.0729888
-0.0432739
0.0872221
-0.0394842
0.10264
-0.0353377
0.120882
-0.0303521
0.14097
-0.0241734
0.160911
-0.0168169
0.178062
-0.00859421
0.190137
0.196373
-0.0629815
0.0577627
0.0677832
-0.0584647
0.068472
-0.0541689
0.0829263
-0.0493736
0.097845
-0.0441887
0.115697
-0.0378683
0.13465
-0.0301143
0.153157
-0.0209888
0.168936
-0.0108519
0.18
0.185522
-0.0757624
0.0530466
0.0804785
-0.0711019
0.0638115
-0.0659387
0.077763
-0.0601807
0.092087
-0.053726
0.109242
-0.0456879
0.126612
-0.03606
0.143529
-0.0249083
0.157784
-0.0126135
0.167705
0.172908
-0.0912505
0.0485385
0.0957587
-0.0859485
0.0585095
-0.0799565
0.071771
-0.0731855
0.085316
-0.0651395
0.101196
-0.0550742
0.116546
-0.0432976
0.131753
-0.0298883
0.144375
-0.0153908
0.153208
0.157517
-0.108564
0.0431561
0.113946
-0.102566
0.0525112
-0.0955208
0.0647263
-0.0870374
0.0768326
-0.0766342
0.0907929
-0.064059
0.103971
-0.0497931
0.117487
-0.0337901
0.128372
-0.0168226
0.13624
0.140695
-0.12936
0.0376752
0.134841
-0.122145
0.0452962
-0.113553
0.056134
-0.10286
0.0661402
-0.0900015
0.077934
-0.075011
0.0889806
-0.058078
0.100554
-0.0394028
0.109697
-0.0201345
0.116972
0.12056
-0.149897
0.030487
0.157085
-0.141121
0.0365204
-0.130361
0.0453738
-0.116975
0.0527541
-0.101355
0.0623148
-0.0832427
0.070868
-0.0627875
0.0800985
-0.0407512
0.0876605
-0.0190037
0.0952241
0.101556
-0.172188
0.0229733
0.179702
-0.16184
0.0261723
-0.149091
0.0326241
-0.13371
0.0373729
-0.115907
0.0445121
-0.095213
0.0501741
-0.0723105
0.057196
-0.0483066
0.0636566
-0.0254308
0.0723483
0.0761257
-0.187897
0.0110233
0.199847
-0.174688
0.0129634
-0.15834
0.016276
-0.13957
0.0186034
-0.117527
0.0224683
-0.0927108
0.0253583
-0.0651117
0.0295969
-0.0353785
0.0339234
-0.00604909
0.0430189
0.0700766
-0.272285
0.283309
-0.259322
-0.243046
-0.224442
-0.201974
-0.176616
-0.147019
-0.113096
-0.0700766
0.000471796
0.0599202
-0.00244859
-0.00104662
0.0693016
-0.0022373
0.0816692
-0.00314149
0.0966628
-0.0036914
0.114496
-0.00384282
0.134993
-0.00349773
0.15674
-0.00269916
0.178904
-0.00246489
0.199613
0.280844
0.000939941
0.0617902
-0.00280996
-0.000669651
0.0709112
-0.00191855
0.0829181
-0.00285279
0.0975971
-0.003447
0.11509
-0.00362243
0.135168
-0.0033487
0.156466
-0.00258314
0.178138
-0.00223132
0.199261
0.278612
0.00144742
0.0635333
-0.00319051
-0.000150312
0.0725089
-0.00134514
0.0841129
-0.00226792
0.0985199
-0.00288448
0.115707
-0.00309477
0.135378
-0.00291988
0.156291
-0.00225108
0.177469
-0.00200409
0.199014
0.276608
0.0019438
0.0651802
-0.00359075
0.000407849
0.0740449
-0.000726839
0.0852476
-0.00160491
0.0993979
-0.00219729
0.116299
-0.00245115
0.135632
-0.0023497
0.15619
-0.00183587
0.176955
-0.00170564
0.198884
0.274903
0.00243196
0.0667517
-0.00400344
0.00099587
0.075481
-0.000116695
0.0863601
-0.000923976
0.100205
-0.0014802
0.116856
-0.00175833
0.13591
-0.0017226
0.156154
-0.00136368
0.176597
-0.0013589
0.198879
0.273544
0.0029432
0.0682264
-0.00441793
0.00162445
0.0767997
0.000613566
0.087371
-0.00019123
0.10101
-0.000699865
0.117364
-0.00100281
0.136213
-0.00103392
0.156185
-0.000839304
0.176402
-0.000973018
0.199012
0.272571
0.00347981
0.0695733
-0.00482672
0.00229666
0.0779829
0.00138834
0.0882793
0.00067118
0.101727
0.000164017
0.117871
-0.000184089
0.136561
-0.000256429
0.156257
-0.000270191
0.176416
-0.00054711
0.199289
0.272024
0.00403398
0.0707624
-0.00522307
0.00300062
0.0790162
0.00220008
0.0890799
0.0015755
0.102352
0.0010991
0.118348
0.000755021
0.136905
0.000562041
0.15645
0.000387296
0.17659
-7.0591e-05
0.199747
0.271953
0.00459958
0.0717607
-0.00559783
0.00372388
0.0798919
0.00303903
0.0897647
0.00250795
0.102883
0.00207725
0.118778
0.00172415
0.137259
0.00142308
0.156751
0.00109331
0.17692
0.00038865
0.200452
0.272342
0.00516391
0.0725349
-0.00593817
0.00445379
0.080602
0.00389349
0.090325
0.00346141
0.103315
0.00308385
0.119156
0.00271768
0.137625
0.00232163
0.157148
0.00181313
0.177429
0.000877574
0.201387
0.273219
0.0057057
0.0730525
-0.00622322
0.00517039
0.0811373
0.00474416
0.0907513
0.00441608
0.103643
0.00409706
0.119475
0.00372349
0.137998
0.0032351
0.157636
0.00254725
0.178117
0.00138291
0.202552
0.274602
0.00621676
0.0732859
-0.00645017
0.00586525
0.0814889
0.00558034
0.0910362
0.00536198
0.103861
0.00510742
0.11973
0.00473405
0.138372
0.00415641
0.158214
0.00329338
0.17898
0.00189729
0.203948
0.276499
0.00667364
0.0732186
-0.00660639
0.00651374
0.0816488
0.00637646
0.0911735
0.00627212
0.103966
0.00608974
0.119912
0.00572635
0.138735
0.00506805
0.158872
0.00403827
0.180009
0.00241314
0.205573
0.278913
0.00705687
0.0728485
-0.00668674
0.00709825
0.0816074
0.00711162
0.0911601
0.00712441
0.103953
0.00702337
0.120013
0.00667987
0.139079
0.00595332
0.159598
0.00476857
0.181194
0.002922
0.20742
0.281835
0.0073518
0.0721873
-0.00669067
0.00760342
0.0813558
0.00776647
0.090997
0.00789882
0.103821
0.00788917
0.120023
0.0075775
0.13939
0.00680027
0.160376
0.00547558
0.182519
0.00342005
0.209475
0.285255
0.0075483
0.0712644
-0.00662532
0.00801568
0.0808884
0.00832366
0.0906891
0.0085751
0.103569
0.0086624
0.119935
0.00839516
0.139657
0.00758785
0.161183
0.00614181
0.183965
0.00389478
0.211722
0.289149
0.00764599
0.0701262
-0.00650784
0.00832958
0.0802048
0.00877649
0.0902421
0.00914622
0.103199
0.00933784
0.119744
0.00913111
0.139864
0.00831584
0.161998
0.00676859
0.185512
0.00434803
0.214143
0.293497
0.0076456
0.0688454
-0.00636482
0.00852756
0.0793228
0.00910084
0.0896689
0.00957815
0.102722
0.00987181
0.11945
0.00973495
0.140001
0.00893584
0.162797
0.00732192
0.187126
0.00475715
0.216708
0.298255
0.00760531
0.0674763
-0.00623615
0.00867642
0.0782517
0.00936729
0.088978
0.00994529
0.102144
0.0103421
0.119053
0.0102842
0.140059
0.00951116
0.16357
0.00784036
0.188797
0.00514071
0.219407
0.303395
0.00733295
0.0662399
-0.00609664
0.00847987
0.0771048
0.00930848
0.0881494
0.00997894
0.101474
0.0104854
0.118547
0.010528
0.140016
0.00984956
0.164249
0.00818172
0.190465
0.00545072
0.222138
0.308846
-0.0363214
0.0617041
0.0408573
-0.0308571
0.0716406
-0.0263429
0.0836351
-0.0218851
0.0970158
-0.0174785
0.11414
-0.0128302
0.135368
-0.00791105
0.15933
-0.00331597
0.18587
-0.00103592
0.219858
0.30781
-0.0518881
0.0565647
0.0570275
-0.0462968
0.0660493
-0.040575
0.0779133
-0.0345257
0.0909665
-0.0283951
0.10801
-0.0216757
0.128649
-0.0144006
0.152055
-0.00739347
0.178862
-0.00306068
0.215525
0.304749
-0.0688192
0.0510085
0.0743754
-0.0624007
0.0596307
-0.0554735
0.0709862
-0.0480853
0.0835783
-0.0403429
0.100267
-0.0313998
0.119706
-0.0216149
0.14227
-0.0119577
0.169205
-0.00486937
0.208437
0.29988
-0.0875352
0.0452776
0.0932661
-0.0800679
0.0521635
-0.0721988
0.063117
-0.0635661
0.0749456
-0.0538821
0.0905832
-0.0423683
0.108192
-0.0298002
0.129702
-0.0172153
0.15662
-0.0071679
0.19839
0.292712
-0.108608
0.0383931
0.115492
-0.100716
0.0442721
-0.0921
0.0545006
-0.0817688
0.0646144
-0.0696712
0.0784856
-0.0554212
0.0939417
-0.0398622
0.114143
-0.0237997
0.140558
-0.0100564
0.184646
0.282656
-0.133787
0.0316455
0.140535
-0.124912
0.0353968
-0.114804
0.0443932
-0.102382
0.0521915
-0.0879599
0.0640639
-0.071176
0.0771579
-0.0525155
0.0954821
-0.0327568
0.120799
-0.0149006
0.16679
0.267755
-0.162129
0.0229862
0.170788
-0.152809
0.0260767
-0.141418
0.0330018
-0.127606
0.0383803
-0.111553
0.0480103
-0.0923943
0.0579995
-0.0707512
0.073839
-0.0470953
0.0971432
-0.023229
0.142924
0.244526
-0.196157
0.0143876
0.204756
-0.185793
0.0157131
-0.17318
0.0203882
-0.158422
0.0236226
-0.140861
0.0304489
-0.120233
0.0373717
-0.0968842
0.0504903
-0.070404
0.070663
-0.0397148
0.112235
0.204811
-0.247455
0.00540656
0.256436
-0.237948
0.0062065
-0.225879
0.00831867
-0.212392
0.010136
-0.195651
0.0137074
-0.176262
0.0179836
-0.151977
0.0262048
-0.120574
0.0392605
-0.074305
0.0659652
0.130506
-0.318289
0.323696
-0.312082
-0.303764
-0.293628
-0.27992
-0.261937
-0.235732
-0.196472
-0.130506
0.00272523
0.0428121
-0.00468009
0.000108559
0.0596441
-0.00180872
0.0762926
-0.003492
0.0949494
-0.00479562
0.116796
-0.00576789
0.141507
-0.00607516
0.171096
-0.00599935
0.20468
-0.00426607
0.254702
0.319429
0.00272223
0.0444197
-0.00432976
0.000484066
0.0618823
-0.00146999
0.0782467
-0.00315221
0.0966316
-0.00448144
0.118125
-0.00544995
0.142475
-0.00582509
0.171471
-0.00575615
0.204611
-0.00414223
0.253089
0.315287
0.00289797
0.0456129
-0.00409124
0.000976344
0.0638039
-0.000870972
0.080094
-0.00247718
0.0982378
-0.0037819
0.11943
-0.00473853
0.143432
-0.00518248
0.171915
-0.00513058
0.204559
-0.00379401
0.251752
0.311493
0.00314801
0.0464168
-0.00395184
0.00151881
0.0654331
-0.00021228
0.0818251
-0.00168336
0.0997089
-0.00292263
0.120669
-0.00388113
0.144391
-0.00437596
0.17241
-0.00442529
0.204608
-0.00335327
0.25068
0.30814
0.0034567
0.0468468
-0.00388674
0.00214054
0.0667493
0.000607392
0.0833583
-0.000812547
0.101129
-0.00197502
0.121832
-0.00292941
0.145345
-0.00348275
0.172963
-0.0036594
0.204785
-0.00285138
0.249872
0.305289
0.00384078
0.0468805
-0.00387449
0.00286653
0.0677236
0.00154563
0.0846792
0.000168054
0.102506
-0.000914599
0.122914
-0.00187442
0.146305
-0.00250728
0.173596
-0.00282525
0.205103
-0.00230045
0.249347
0.302988
0.0043015
0.0464755
-0.00389646
0.00369059
0.0683345
0.00258864
0.0857811
0.0013879
0.103707
0.000279429
0.124023
-0.000717449
0.147302
-0.00142048
0.174299
-0.00192027
0.205603
-0.00170703
0.249134
0.301281
0.00481467
0.0455935
-0.00393276
0.00459404
0.0685551
0.00372582
0.0866493
0.00266395
0.104769
0.00161958
0.125067
0.000583436
0.148338
-0.000197197
0.175079
-0.000956764
0.206362
-0.00107291
0.24925
0.300208
0.00535209
0.0442042
-0.00396273
0.0055543
0.0683529
0.0049376
0.087266
0.00401643
0.10569
0.00302318
0.12606
0.00200306
0.149358
0.00104547
0.176037
5.72622e-06
0.207402
-0.000396266
0.249652
0.299812
0.00588124
-0.00396793
0.00654594
0.00620334
0.00543144
0.00448896
0.00345336
0.00236222
0.00118793
0.000285483
0.000214754
-0.00122675
0.000681906
-0.00303994
0.00133283
-0.00424885
0.00212134
-0.00498549
0.00301706
-0.00535904
0.004002
-0.00545719
0.00506897
-0.00534989
0.00622435
-0.00509314
0.00750557
-0.00474184
-0.00438906
0.000255934
-0.00148268
0.000785837
-0.00356985
0.00150238
-0.00496539
0.00234991
-0.00583302
0.00329426
-0.00630339
0.00431727
-0.0064802
0.00541304
-0.00644567
0.0065861
-0.0062662
0.00784728
-0.00600302
-0.00572548
0.000287304
-0.00176999
0.0008553
-0.00413784
0.00159857
-0.00570866
0.0024527
-0.00668715
0.00338049
-0.00723118
0.00436365
-0.00746335
0.00539644
-0.00747846
0.00648018
-0.00734994
0.00761457
-0.00713741
-0.00689254
0.000305385
-0.00207537
0.000880944
-0.0047134
0.00160565
-0.00643337
0.00240875
-0.00749025
0.00325224
-0.00807467
0.00411978
-0.00833089
0.00500813
-0.0083668
0.00592018
-0.00826199
0.00685749
-0.00807472
-0.00784937
0.000307331
-0.0023827
0.00085629
-0.00526236
0.00151514
-0.00709221
0.00221102
-0.00818614
0.00290887
-0.00877252
0.00359742
-0.00901944
0.00427888
-0.00904826
0.00496138
-0.00894449
0.0056533
-0.00876664
-0.0085578
0.000291155
-0.00267386
0.000778313
-0.00574952
0.00132638
-0.00764028
0.00186611
-0.00872587
0.00236961
-0.00927602
0.0028336
-0.00948343
0.00326757
-0.00948224
0.00368595
-0.00936287
0.00410373
-0.00918442
-0.00899003
0.000255946
-0.0029298
0.000647758
-0.00614133
0.00104627
-0.00803879
0.0013921
-0.0090717
0.00166824
-0.00955217
0.00188104
-0.00969622
0.00204729
-0.00964849
0.0021863
-0.00950189
0.00231639
-0.0093145
-0.00913045
0.000202037
-0.00313184
0.00046906
-0.00640835
0.000688102
-0.00825783
0.000815287
-0.00919889
0.000846911
-0.00958379
0.000798798
-0.00964811
0.000693569
-0.00954326
0.000553052
-0.00936137
0.000394819
-0.00915627
-0.00896146
0.000131049
-0.00326289
0.000249823
-0.00652713
0.000269752
-0.00827776
0.000166441
-0.00909557
-5.00103e-05
-0.00936734
-0.000355207
-0.00934292
-0.000723624
-0.00917484
-0.00113359
-0.0089514
-0.00156927
-0.0087206
-0.00851279
4.57815e-05
-0.00330867
8.64808e-07
-0.00648221
-0.000188364
-0.00808853
-0.000522516
-0.00876142
-0.000979112
-0.00891074
-0.0015287
-0.00879333
-0.00214459
-0.00855894
-0.0028074
-0.0082886
-0.00350479
-0.0080232
-0.00778534
-3.49152e-05
-0.00327376
-0.000246601
-0.00627052
-0.000642839
-0.00769229
-0.00120052
-0.00820374
-0.0018848
-0.00822646
-0.00266242
-0.00801571
-0.00350781
-0.00771356
-0.00440464
-0.00739176
-0.00534465
-0.0070832