/*--------------------------------*- C++ -*----------------------------------*\
  =========                 |
  \\      /  F ield         | OpenFOAM: The Open Source CFD Toolbox
   \\    /   O peration     | Website:  https://openfoam.org
    \\  /    A nd           | Version:  7
     \\/     M anipulation  |
\*---------------------------------------------------------------------------*/
FoamFile
{
    version     2.0;
    format      ascii;
    class       volScalarField;
    location    "0.1";
    object      p;
}
// * * * * * * * * * * * * * * * * * * * * * * * * * * * * * * * * * * * * * //

dimensions      [0 2 -2 0 0 0 0];

internalField   nonuniform List<scalar> 
400
(
-5.72183e-06
-0.00584757
-0.0129076
-0.0182693
-0.0202351
-0.0180225
-0.0115698
-0.00132014
0.0119372
0.0271703
0.0431819
0.058683
0.0723777
0.0830721
0.0898119
0.0920536
0.0898725
0.0841851
0.0768799
0.0710641
0.00574865
-0.000256726
-0.00572066
-0.00937211
-0.0103763
-0.00818872
-0.00273777
0.00566341
0.0164242
0.0287485
0.0416955
0.0542453
0.0653755
0.0741548
0.0798542
0.0820744
0.0808929
0.0769604
0.0712964
0.065337
0.0132232
0.00488035
-0.00102243
-0.00438415
-0.00519643
-0.00316503
0.0017054
0.00911665
0.018562
0.0293695
0.040741
0.0518025
0.0616675
0.0695169
0.0746893
0.0767831
0.0757866
0.0720985
0.0659394
0.0576186
0.0199501
0.00845246
0.0011403
-0.00268564
-0.00370317
-0.00184003
0.00278982
0.00984276
0.0188265
0.0291202
0.0399912
0.0506271
0.0601854
0.0678588
0.0729522
0.0749735
0.073774
0.0695339
0.0618345
0.0502674
0.0242839
0.00946882
0.000476891
-0.00402521
-0.00530381
-0.00347856
0.00122346
0.00839161
0.017517
0.0279934
0.0391128
0.0500791
0.0600425
0.0681514
0.0736193
0.0758124
0.0744171
0.0694132
0.0598388
0.0447482
0.0249805
0.00681567
-0.00391791
-0.00909516
-0.0105146
-0.00846928
-0.00330061
0.00450128
0.0143915
0.0257547
0.03788
0.0499559
0.0610875
0.0703351
0.0767707
0.0795704
0.0782196
0.0724919
0.0609197
0.0421131
0.0209688
-0.000591909
-0.0130244
-0.0187212
-0.0200098
-0.0173599
-0.0112351
-0.00221536
0.00910714
0.0220962
0.0360245
0.0500479
0.0632019
0.0744241
0.0825991
0.0866562
0.0858239
0.0796262
0.0660508
0.0432706
0.0111428
-0.0139094
-0.0279099
-0.0338146
-0.0345388
-0.0307603
-0.0230846
-0.0121925
0.00127387
0.0166598
0.0332253
0.0500947
0.0662274
0.0804168
0.0913171
0.0975438
0.0979847
0.09182
0.0763598
0.0492522
-0.00579577
-0.0344922
-0.0498251
-0.0554364
-0.0549634
-0.0493596
-0.0394079
-0.0259017
-0.00952675
0.00906227
0.0291377
0.0498166
0.0699986
0.0883301
0.103201
0.112836
0.115665
0.110364
0.0933156
0.0614427
-0.031476
-0.0640194
-0.0802745
-0.0848084
-0.0822217
-0.0738589
-0.0607333
-0.0437629
-0.0236576
-0.00103278
0.0234471
0.0489463
0.074353
0.0981945
0.118583
0.133275
0.140089
0.13696
0.118926
0.0818157
-0.068047
-0.104659
-0.121096
-0.1233
-0.117246
-0.104846
-0.0874141
-0.0659959
-0.0412859
-0.0137928
0.0159659
0.047295
0.079164
0.110057
0.137837
0.15974
0.1728
0.173871
0.155995
0.11325
-0.118521
-0.159333
-0.174563
-0.172385
-0.160821
-0.142604
-0.119415
-0.092408
-0.0621848
-0.0290406
0.00677915
0.0448598
0.0844033
0.123998
0.161368
0.193237
0.215699
0.224098
0.208495
0.160044
-0.18747
-0.232152
-0.243497
-0.233517
-0.213339
-0.186814
-0.156017
-0.122119
-0.0854879
-0.0460427
-0.00358224
0.0419524
0.0902154
0.140143
0.189558
0.234828
0.271054
0.291593
0.282123
0.228838
-0.282536
-0.329144
-0.331323
-0.307835
-0.27437
-0.236126
-0.195436
-0.153249
-0.109443
-0.0633199
-0.0140026
0.0392849
0.0969373
0.158598
0.222616
0.285416
0.341328
0.381389
0.38515
0.330466
-0.41767
-0.459372
-0.441788
-0.395399
-0.341873
-0.287506
-0.23436
-0.182629
-0.131259
-0.0785917
-0.0227983
0.0378881
0.104936
0.179166
0.260113
0.345107
0.428528
0.499376
0.529609
0.483589
-0.618982
-0.636275
-0.578124
-0.49394
-0.411118
-0.335541
-0.267625
-0.205759
-0.147256
-0.0890413
-0.028047
0.0387385
0.114179
0.200802
0.300241
0.412194
0.533012
0.651448
0.732392
0.720424
-0.935281
-0.87798
-0.741581
-0.598025
-0.474392
-0.372617
-0.288789
-0.217614
-0.153728
-0.0921723
-0.0283848
0.0420488
0.123607
0.221026
0.339165
0.482343
0.652307
0.84164
1.01488
1.09609
-1.48042
-1.20188
-0.921015
-0.692632
-0.517792
-0.387799
-0.290236
-0.213386
-0.148038
-0.0870107
-0.0242777
0.0458304
0.129362
0.23352
0.367526
0.54322
0.772665
1.06027
1.39811
1.7339
-2.57153
-1.60195
-1.04359
-0.715022
-0.498025
-0.353595
-0.255675
-0.184336
-0.126545
-0.0736348
-0.018983
0.0433389
0.120049
0.219918
0.356223
0.549976
0.829896
1.23509
1.88106
2.95914
-4.44512
-2.01736
-0.97
-0.564644
-0.357404
-0.239384
-0.169637
-0.123464
-0.0872161
-0.0532632
-0.0164509
0.0278286
0.0846616
0.161563
0.271915
0.441638
0.718998
1.22161
2.38405
4.92935
)
;

boundaryField
{
    movingWall
    {
        type            zeroGradient;
    }
    fixedWalls
    {
        type            zeroGradient;
    }
    frontAndBack
    {
        type            empty;
    }
}


// ************************************************************************* //
