/*--------------------------------*- C++ -*----------------------------------*\
  =========                 |
  \\      /  F ield         | OpenFOAM: The Open Source CFD Toolbox
   \\    /   O peration     | Website:  https://openfoam.org
    \\  /    A nd           | Version:  7
     \\/     M anipulation  |
\*---------------------------------------------------------------------------*/
FoamFile
{
    version     2.0;
    format      ascii;
    class       surfaceScalarField;
    location    "0.1";
    object      phi;
}
// * * * * * * * * * * * * * * * * * * * * * * * * * * * * * * * * * * * * * //

dimensions      [0 3 -1 0 0 0 0];

internalField   nonuniform List<scalar> 
760
(
1.40861e-08
-1.40563e-08
-2.22223e-08
3.63078e-08
-1.13211e-07
9.09887e-08
-2.42942e-07
1.29731e-07
-3.91857e-07
1.48916e-07
-5.41427e-07
1.4957e-07
-6.75726e-07
1.34299e-07
-7.82006e-07
1.0628e-07
-8.50813e-07
6.88069e-08
-8.7604e-07
2.52272e-08
-8.55066e-07
-2.09742e-08
-7.89004e-07
-6.60627e-08
-6.83002e-07
-1.06002e-07
-5.46485e-07
-1.36517e-07
-3.93168e-07
-1.53318e-07
-2.40609e-07
-1.52559e-07
-1.08976e-07
-1.31633e-07
-1.85897e-08
-9.03866e-08
1.55474e-08
-3.41372e-08
1.55474e-08
-3.40076e-08
1.99522e-08
-1.78543e-07
1.80843e-07
-4.29414e-07
3.41859e-07
-7.56076e-07
4.56393e-07
-1.11955e-06
5.12391e-07
-1.48028e-06
5.10299e-07
-1.80254e-06
4.56558e-07
-2.05676e-06
3.60501e-07
-2.22068e-06
2.32721e-07
-2.27994e-06
8.44956e-08
-2.22869e-06
-7.22312e-08
-2.07001e-06
-2.24738e-07
-1.81648e-06
-3.59534e-07
-1.49026e-06
-4.62733e-07
-1.12263e-06
-5.2095e-07
-7.52238e-07
-5.2295e-07
-4.21625e-07
-4.62246e-07
-1.71311e-07
-3.40701e-07
-3.07937e-08
-1.74654e-07
-1.52464e-08
-9.10671e-08
1.1102e-07
-3.53054e-07
4.42831e-07
-7.56214e-07
7.45019e-07
-1.25457e-06
9.54748e-07
-1.79465e-06
1.05248e-06
-2.32297e-06
1.03862e-06
-2.79104e-06
9.24626e-07
-3.15845e-06
7.27913e-07
-3.39463e-06
4.689e-07
-3.47989e-06
1.69751e-07
-3.4062e-06
-1.45921e-07
-3.17791e-06
-4.53028e-07
-2.81227e-06
-7.25173e-07
-2.33953e-06
-9.35477e-07
-1.80209e-06
-1.05839e-06
-1.25218e-06
-1.07285e-06
-7.47393e-07
-9.67037e-07
-3.43737e-07
-7.44357e-07
-8.64127e-08
-4.31978e-07
-1.01659e-07
-1.43561e-07
2.5458e-07
-5.19887e-07
8.19156e-07
-1.07035e-06
1.29548e-06
-1.72933e-06
1.61373e-06
-2.42878e-06
1.75192e-06
-3.10368e-06
1.71353e-06
-3.69636e-06
1.51731e-06
-4.15922e-06
1.19077e-06
-4.45636e-06
7.66044e-07
-4.56465e-06
2.78036e-07
-4.47445e-06
-2.36115e-07
-4.19047e-06
-7.37015e-07
-3.73237e-06
-1.18327e-06
-3.13516e-06
-1.53269e-06
-2.44856e-06
-1.74499e-06
-1.73488e-06
-1.78653e-06
-1.06474e-06
-1.63718e-06
-5.1046e-07
-1.29863e-06
-1.37968e-07
-8.04471e-07
-2.39627e-07
-1.91671e-07
4.4625e-07
-6.78455e-07
1.30594e-06
-1.37259e-06
1.98961e-06
-2.18659e-06
2.42773e-06
-3.03681e-06
2.60215e-06
-3.84748e-06
2.52419e-06
-4.55358e-06
2.22341e-06
-5.10264e-06
1.73982e-06
-5.45549e-06
1.1189e-06
-5.58681e-06
4.09355e-07
-5.48559e-06
-3.37333e-07
-5.15592e-06
-1.06668e-06
-4.61799e-06
-1.72121e-06
-3.90898e-06
-2.2417e-06
-3.0834e-06
-2.57057e-06
-2.21195e-06
-2.65798e-06
-1.37822e-06
-2.4709e-06
-6.72927e-07
-2.00393e-06
-1.86164e-07
-1.29123e-06
-4.25791e-07
-2.37905e-07
6.84156e-07
-8.3353e-07
1.90156e-06
-1.66984e-06
2.82592e-06
-2.63593e-06
3.39383e-06
-3.63176e-06
3.59797e-06
-4.57116e-06
3.46359e-06
-5.38327e-06
3.03552e-06
-6.01259e-06
2.36914e-06
-6.41843e-06
1.52474e-06
-6.57437e-06
5.65293e-07
-6.46811e-06
-4.43597e-07
-6.10215e-06
-1.43264e-06
-5.49526e-06
-2.3281e-06
-4.68437e-06
-3.05258e-06
-3.72646e-06
-3.52848e-06
-2.69922e-06
-3.68522e-06
-1.69954e-06
-3.47058e-06
-8.38738e-07
-2.86474e-06
-2.34456e-07
-1.89552e-06
-6.60246e-07
-2.84818e-07
9.68974e-07
-9.90694e-07
2.60744e-06
-1.96955e-06
3.80478e-06
-3.08538e-06
4.50965e-06
-4.22116e-06
4.73375e-06
-5.28122e-06
4.52365e-06
-6.19069e-06
3.94499e-06
-6.89333e-06
3.07178e-06
-7.34898e-06
1.98039e-06
-7.53137e-06
7.47685e-07
-7.42713e-06
-5.47836e-07
-7.03617e-06
-1.8236e-06
-6.37365e-06
-2.99062e-06
-5.47333e-06
-3.9529e-06
-4.39161e-06
-4.6102e-06
-3.21103e-06
-4.86581e-06
-2.04139e-06
-4.64021e-06
-1.01677e-06
-3.88936e-06
-2.86572e-07
-2.62571e-06
-9.46819e-07
-3.347e-07
1.30367e-06
-1.15504e-06
3.42778e-06
-2.27762e-06
4.92737e-06
-3.53884e-06
5.77087e-06
-4.80458e-06
5.99949e-06
-5.97151e-06
5.69058e-06
-6.96375e-06
4.93723e-06
-7.72764e-06
3.83567e-06
-8.22638e-06
2.47912e-06
-8.43579e-06
9.57099e-07
-8.34197e-06
-6.41658e-07
-7.94121e-06
-2.22436e-06
-7.24252e-06
-3.68932e-06
-6.2726e-06
-4.92282e-06
-5.0828e-06
-5.8e-06
-3.75652e-06
-6.19209e-06
-2.41463e-06
-5.98209e-06
-1.21554e-06
-5.08846e-06
-3.46122e-07
-3.49513e-06
-1.29294e-06
-3.89768e-07
1.69344e-06
-1.33111e-06
4.36913e-06
-2.59769e-06
6.19394e-06
-3.9947e-06
7.16788e-06
-5.37155e-06
7.37635e-06
-6.62074e-06
6.93977e-06
-7.67019e-06
5.98668e-06
-8.47371e-06
4.6392e-06
-9.00203e-06
3.00744e-06
-9.23587e-06
1.19094e-06
-9.16192e-06
-7.15607e-07
-8.77204e-06
-2.61424e-06
-8.06611e-06
-4.39525e-06
-7.05875e-06
-5.93018e-06
-5.78969e-06
-7.06906e-06
-4.33651e-06
-7.64527e-06
-2.82654e-06
-7.49207e-06
-1.44275e-06
-6.47225e-06
-4.16703e-07
-4.52117e-06
-1.70964e-06
-4.52791e-07
2.14623e-06
-1.52378e-06
5.44011e-06
-2.93134e-06
7.6015e-06
-4.44479e-06
8.68133e-06
-5.89925e-06
8.8308e-06
-7.1891e-06
8.22962e-06
-8.2535e-06
7.05108e-06
-9.06071e-06
5.44641e-06
-9.59461e-06
3.54134e-06
-9.84475e-06
1.44108e-06
-9.80034e-06
-7.60023e-07
-9.44841e-06
-2.96617e-06
-8.77663e-06
-5.06702e-06
-7.78145e-06
-6.92536e-06
-6.48206e-06
-8.36844e-06
-4.93974e-06
-9.18759e-06
-3.27925e-06
-9.15255e-06
-1.70536e-06
-8.04614e-06
-5.02406e-07
-5.72413e-06
-2.21205e-06
-5.28222e-07
2.67445e-06
-1.7397e-06
6.6516e-06
-3.27837e-06
9.14017e-06
-4.87262e-06
1.02756e-05
-6.34872e-06
1.03069e-05
-7.61321e-06
9.49411e-06
-8.62725e-06
8.06513e-06
-9.38283e-06
6.20198e-06
-9.88405e-06
4.04257e-06
-1.01341e-05
1.69118e-06
-1.01276e-05
-7.6657e-07
-9.84705e-06
-3.24672e-06
-9.26542e-06
-5.64866e-06
-8.35447e-06
-7.83631e-06
-7.10178e-06
-9.62113e-06
-5.53725e-06
-1.07521e-05
-3.76748e-06
-1.09223e-05
-2.00991e-06
-9.8037e-06
-6.08724e-07
-7.12532e-06
-2.82077e-06
-6.24099e-07
3.29855e-06
-1.98924e-06
8.01674e-06
-3.63603e-06
1.0787e-05
-5.249e-06
1.18885e-05
-6.65784e-06
1.17158e-05
-7.79777e-06
1.0634e-05
-8.66681e-06
8.93417e-06
-9.29184e-06
6.82702e-06
-9.70488e-06
4.45561e-06
-9.92795e-06
1.91425e-06
-9.96412e-06
-7.30405e-07
-9.79326e-06
-3.41758e-06
-9.37256e-06
-6.06935e-06
-8.64381e-06
-8.56506e-06
-7.55104e-06
-1.07139e-05
-6.07315e-06
-1.223e-05
-4.27376e-06
-1.27217e-05
-2.36247e-06
-1.1715e-05
-7.44083e-07
-8.74371e-06
-3.56486e-06
-7.5517e-07
4.05372e-06
-2.28776e-06
9.54932e-06
-3.99424e-06
1.24934e-05
-5.5214e-06
1.34157e-05
-6.72742e-06
1.29218e-05
-7.60157e-06
1.15082e-05
-8.19743e-06
9.53003e-06
-8.58818e-06
7.21776e-06
-8.84e-06
4.70743e-06
-8.99744e-06
2.07168e-06
-9.07523e-06
-6.52616e-07
-9.05353e-06
-3.43928e-06
-8.87596e-06
-6.24692e-06
-8.45281e-06
-8.98821e-06
-7.6751e-06
-1.14916e-05
-6.44867e-06
-1.34564e-05
-4.75858e-06
-1.44118e-05
-2.76682e-06
-1.37067e-05
-9.22318e-07
-1.05882e-05
-4.48718e-06
-9.47603e-07
5.00133e-06
-2.65334e-06
1.12551e-05
-4.32051e-06
1.41606e-05
-5.58958e-06
1.46848e-05
-6.39435e-06
1.37265e-05
-6.81391e-06
1.19278e-05
-6.97705e-06
9.69317e-06
-7.01069e-06
7.2514e-06
-7.01629e-06
4.71304e-06
-7.06054e-06
2.11593e-06
-7.17107e-06
-5.42085e-07
-7.33265e-06
-3.2777e-06
-7.48218e-06
-6.09739e-06
-7.5047e-06
-8.96569e-06
-7.23725e-06
-1.17591e-05
-6.49458e-06
-1.41991e-05
-5.13893e-06
-1.57675e-05
-3.21702e-06
-1.56286e-05
-1.16594e-06
-1.26393e-05
-5.65312e-06
-1.24317e-06
6.2445e-06
-3.09028e-06
1.31022e-05
-4.51888e-06
1.55892e-05
-5.25336e-06
1.54192e-05
-5.38269e-06
1.38559e-05
-5.11742e-06
1.16625e-05
-4.67345e-06
9.2492e-06
-4.22709e-06
6.80504e-06
-3.90544e-06
4.39139e-06
-3.78907e-06
1.99956e-06
-3.9158e-06
-4.15358e-07
-4.27966e-06
-2.91384e-06
-4.82344e-06
-5.55362e-06
-5.42514e-06
-8.36398e-06
-5.88427e-06
-1.12999e-05
-5.92378e-06
-1.41596e-05
-5.24253e-06
-1.64487e-05
-3.67236e-06
-1.71988e-05
-1.50632e-06
-1.48053e-05
-7.15944e-06
-1.68878e-06
7.93328e-06
-3.52555e-06
1.49389e-05
-4.32838e-06
1.63921e-05
-4.10931e-06
1.52002e-05
-3.22224e-06
1.29688e-05
-2.03629e-06
1.04765e-05
-8.40005e-07
8.05291e-06
1.68769e-07
5.79626e-06
8.64076e-07
3.69608e-06
1.17013e-06
1.69351e-06
1.04761e-06
-2.92838e-07
4.89918e-07
-2.35615e-06
-4.68729e-07
-4.59497e-06
-1.73144e-06
-7.10127e-06
-3.10341e-06
-9.92799e-06
-4.25371e-06
-1.30093e-05
-4.71177e-06
-1.59907e-05
-3.98248e-06
-1.79281e-05
-1.96264e-06
-1.68252e-05
-9.12209e-06
-2.27267e-06
1.0206e-05
-3.61394e-06
1.62802e-05
-3.09319e-06
1.58713e-05
-1.3649e-06
1.34719e-05
8.68182e-07
1.07357e-05
3.11854e-06
8.22617e-06
5.09491e-06
6.07654e-06
6.64009e-06
4.25108e-06
7.67364e-06
2.66253e-06
8.15288e-06
1.21427e-06
8.05083e-06
-1.90785e-07
7.3487e-06
-1.65402e-06
6.04102e-06
-3.28729e-06
4.15915e-06
-5.2194e-06
1.82056e-06
-7.58939e-06
-6.89048e-07
-1.04997e-05
-2.81586e-06
-1.38638e-05
-3.6952e-06
-1.70488e-05
-2.46189e-06
-1.80585e-05
-1.1584e-05
-2.69764e-06
1.29036e-05
-2.21051e-06
1.57931e-05
7.06703e-07
1.29541e-05
4.45116e-06
9.72742e-06
8.10735e-06
7.07952e-06
1.12691e-05
5.06439e-06
1.37911e-05
3.55462e-06
1.56456e-05
2.39652e-06
1.68462e-05
1.46194e-06
1.74081e-05
6.52384e-07
1.73299e-05
-1.12638e-07
1.6586e-05
-9.10129e-07
1.51261e-05
-1.82732e-06
1.28869e-05
-2.98022e-06
9.8305e-06
-4.53299e-06
6.03653e-06
-6.70571e-06
1.8907e-06
-9.71802e-06
-1.59999e-06
-1.35581e-05
-2.59541e-06
-1.70631e-05
-1.41794e-05
-5.79011e-07
1.34826e-05
4.11915e-06
1.10949e-05
1.02963e-05
6.77691e-06
1.57811e-05
4.24263e-06
2.01384e-05
2.72221e-06
2.34333e-05
1.76954e-06
2.58322e-05
1.15568e-06
2.74901e-05
7.38597e-07
2.85208e-05
4.313e-07
2.89922e-05
1.80955e-07
2.89285e-05
-4.89223e-08
2.83062e-05
-2.87791e-07
2.70513e-05
-5.72418e-07
2.50275e-05
-9.5647e-07
2.2029e-05
-1.53446e-06
1.78003e-05
-2.47708e-06
1.21692e-05
-4.08686e-06
5.51881e-06
-6.90769e-06
9.52149e-08
-1.16395e-05
-1.40842e-05
1.34826e-05
2.45775e-05
3.13544e-05
3.55971e-05
3.83193e-05
4.00888e-05
4.12445e-05
4.19831e-05
4.24144e-05
4.25953e-05
4.25464e-05
4.22586e-05
4.16862e-05
4.07297e-05
3.91953e-05
3.67182e-05
3.26313e-05
2.57236e-05
1.40842e-05
)
;

boundaryField
{
    movingWall
    {
        type            calculated;
        value           uniform 0;
    }
    fixedWalls
    {
        type            calculated;
        value           uniform 0;
    }
    frontAndBack
    {
        type            empty;
        value           nonuniform 0();
    }
}


// ************************************************************************* //
