/*--------------------------------*- C++ -*----------------------------------*\
  =========                 |
  \\      /  F ield         | OpenFOAM: The Open Source CFD Toolbox
   \\    /   O peration     | Website:  https://openfoam.org
    \\  /    A nd           | Version:  7
     \\/     M anipulation  |
\*---------------------------------------------------------------------------*/
FoamFile
{
    version     2.0;
    format      ascii;
    class       volScalarField;
    location    "8";
    object      p;
}
// * * * * * * * * * * * * * * * * * * * * * * * * * * * * * * * * * * * * * //

dimensions      [0 2 -2 0 0 0 0];

internalField   nonuniform List<scalar> 
32000
(
0.291674
0.2923
0.292627
0.292936
0.293216
0.293482
0.293724
0.293947
0.294176
0.294441
0.294762
0.295147
0.295604
0.296142
0.296773
0.29751
0.298361
0.299339
0.300455
0.301719
0.303138
0.304715
0.30645
0.308336
0.310367
0.312539
0.314842
0.317268
0.319803
0.322437
0.325158
0.327954
0.330812
0.333719
0.336659
0.339621
0.342592
0.345566
0.348518
0.351387
0.291855
0.292453
0.292754
0.293031
0.293281
0.293517
0.293731
0.293926
0.294131
0.294371
0.294662
0.295015
0.295439
0.295943
0.296539
0.297238
0.298048
0.29898
0.300046
0.301256
0.302617
0.304134
0.305802
0.307617
0.309572
0.311663
0.313883
0.316225
0.318678
0.32123
0.323869
0.326583
0.329359
0.332186
0.335049
0.337935
0.340833
0.343736
0.346613
0.349419
0.292045
0.29261
0.292885
0.293132
0.293351
0.293557
0.293742
0.293913
0.294096
0.294313
0.294578
0.294901
0.295294
0.295766
0.29633
0.296995
0.297768
0.298659
0.29968
0.300842
0.302152
0.303611
0.305218
0.306964
0.308846
0.310859
0.313
0.315262
0.317633
0.320103
0.322661
0.325293
0.327988
0.330734
0.333517
0.336325
0.339148
0.341978
0.344777
0.347517
0.292232
0.292757
0.29301
0.293231
0.293422
0.293599
0.293758
0.293907
0.294071
0.294269
0.294512
0.294809
0.295173
0.295617
0.296151
0.296784
0.297525
0.29838
0.299361
0.30048
0.301743
0.30315
0.304697
0.306378
0.30819
0.310129
0.312194
0.314377
0.316669
0.31906
0.321536
0.324087
0.3267
0.329364
0.332065
0.334793
0.337539
0.340293
0.343013
0.345685
0.292427
0.292912
0.293143
0.293339
0.293503
0.293652
0.293787
0.293917
0.294065
0.294244
0.294466
0.294739
0.295078
0.295496
0.296004
0.296609
0.29732
0.298143
0.29909
0.300171
0.301391
0.302749
0.304239
0.305858
0.307603
0.309473
0.311465
0.313572
0.315787
0.318099
0.320495
0.322964
0.325496
0.328077
0.330696
0.333343
0.336009
0.338684
0.341322
0.343923
0.292626
0.293068
0.293277
0.293449
0.293588
0.293711
0.293824
0.293938
0.294071
0.294235
0.294438
0.294691
0.295009
0.295405
0.295889
0.296469
0.297154
0.297951
0.298868
0.299915
0.301096
0.302407
0.303845
0.305405
0.307087
0.308891
0.310813
0.312849
0.314989
0.317222
0.319539
0.321928
0.324377
0.326875
0.329411
0.331975
0.33456
0.337155
0.339707
0.342234
0.292833
0.293229
0.293416
0.293565
0.29368
0.293781
0.293875
0.293974
0.294093
0.294243
0.294431
0.294668
0.294969
0.295345
0.295808
0.296368
0.297031
0.297805
0.298698
0.299715
0.300859
0.302127
0.303515
0.30502
0.306644
0.308385
0.310242
0.312208
0.314274
0.316431
0.318669
0.320978
0.323345
0.325761
0.328213
0.330693
0.333195
0.335706
0.338169
0.34062
0.293045
0.293394
0.29356
0.293687
0.293781
0.293862
0.293938
0.294024
0.294132
0.29427
0.294445
0.29467
0.294957
0.295317
0.295763
0.296306
0.296951
0.297707
0.298579
0.299571
0.300681
0.301908
0.303249
0.304704
0.306273
0.307956
0.30975
0.311649
0.313644
0.315726
0.317887
0.320117
0.322403
0.324735
0.327103
0.329498
0.331914
0.334339
0.336713
0.339082
0.293261
0.293563
0.293708
0.293815
0.29389
0.293953
0.294015
0.294089
0.294186
0.294314
0.294481
0.294697
0.294973
0.295321
0.295754
0.296282
0.296915
0.297657
0.298512
0.299481
0.300561
0.301751
0.30305
0.304458
0.305977
0.307605
0.30934
0.311174
0.313099
0.315109
0.317194
0.319345
0.321551
0.323799
0.326082
0.32839
0.33072
0.333057
0.335338
0.337624
0.29348
0.293732
0.293857
0.293946
0.294005
0.294054
0.294103
0.294166
0.294254
0.294376
0.294538
0.294749
0.295018
0.295357
0.29578
0.296299
0.296923
0.297656
0.298497
0.299446
0.300499
0.301656
0.302916
0.304282
0.305754
0.307331
0.309009
0.310782
0.312641
0.31458
0.316591
0.318665
0.320789
0.322954
0.325151
0.327372
0.329613
0.331861
0.334047
0.336247
0.293702
0.293903
0.294009
0.294081
0.294127
0.294164
0.294202
0.294256
0.294338
0.294456
0.294616
0.294825
0.29509
0.295424
0.295842
0.296356
0.296976
0.297702
0.298532
0.299464
0.300494
0.301622
0.302849
0.304177
0.305606
0.307135
0.30876
0.310473
0.312268
0.314138
0.316077
0.318074
0.320119
0.322201
0.324312
0.326445
0.328596
0.330752
0.332842
0.334953
0.293925
0.294075
0.294162
0.294219
0.294254
0.29428
0.29431
0.294358
0.294436
0.294553
0.294714
0.294923
0.295189
0.295523
0.29594
0.296454
0.297072
0.297795
0.298617
0.299535
0.300546
0.301649
0.302847
0.304141
0.305531
0.307016
0.30859
0.310246
0.311979
0.313784
0.315652
0.317574
0.31954
0.321539
0.323564
0.325608
0.327668
0.329732
0.331724
0.333744
0.294149
0.294246
0.294315
0.294358
0.294384
0.294402
0.294427
0.294471
0.294548
0.294667
0.294831
0.295044
0.295314
0.295651
0.296073
0.296591
0.297212
0.297933
0.298749
0.299657
0.300653
0.301736
0.302909
0.304173
0.305529
0.306972
0.308498
0.3101
0.311775
0.313515
0.315315
0.317164
0.319052
0.320969
0.322908
0.324862
0.326831
0.328801
0.330695
0.332621
0.294374
0.294417
0.294468
0.294499
0.294516
0.294529
0.29455
0.294594
0.294672
0.294795
0.294965
0.295186
0.295463
0.29581
0.29624
0.296766
0.297391
0.298113
0.298927
0.299828
0.300813
0.30188
0.303033
0.304272
0.305596
0.307002
0.308482
0.310034
0.311652
0.313332
0.315066
0.316843
0.318654
0.32049
0.322343
0.324208
0.326085
0.32796
0.329756
0.331586
0.294599
0.294588
0.294621
0.294639
0.294649
0.294659
0.29468
0.294725
0.294808
0.294937
0.295115
0.295346
0.295636
0.295996
0.29644
0.296977
0.297609
0.298334
0.299148
0.300045
0.301023
0.30208
0.303217
0.304435
0.305731
0.307102
0.308541
0.310045
0.311611
0.313233
0.314903
0.31661
0.318346
0.320101
0.32187
0.323646
0.325431
0.327212
0.328909
0.330641
0.294824
0.294758
0.294774
0.294778
0.294782
0.29479
0.294813
0.294863
0.294952
0.29509
0.29528
0.295524
0.29583
0.296208
0.296669
0.29722
0.297862
0.298593
0.29941
0.300308
0.301283
0.302334
0.303459
0.304659
0.305931
0.30727
0.308672
0.310132
0.311648
0.313215
0.314824
0.316464
0.318126
0.319802
0.321487
0.323176
0.324869
0.326556
0.328155
0.329787
0.295049
0.294927
0.294924
0.294915
0.294913
0.294922
0.29495
0.295007
0.295105
0.295254
0.295457
0.295719
0.296045
0.296444
0.296926
0.297494
0.298148
0.298889
0.299712
0.300614
0.30159
0.302638
0.303756
0.304942
0.306193
0.307505
0.308872
0.310292
0.311763
0.313278
0.314827
0.316402
0.317992
0.319592
0.321195
0.322798
0.324401
0.325994
0.327496
0.329027
0.295271
0.295094
0.295071
0.295048
0.295042
0.295053
0.295088
0.295155
0.295265
0.295427
0.295647
0.295929
0.296279
0.296703
0.297207
0.297795
0.298465
0.299218
0.300051
0.300961
0.301942
0.302991
0.304104
0.30528
0.306514
0.307802
0.309139
0.310523
0.311952
0.313417
0.31491
0.316422
0.317944
0.319469
0.320992
0.32251
0.324025
0.325526
0.326932
0.32836
0.295491
0.295257
0.295215
0.295177
0.295167
0.295182
0.295226
0.295306
0.29543
0.295609
0.295848
0.296153
0.29653
0.296981
0.297511
0.29812
0.29881
0.299578
0.300425
0.301346
0.302336
0.303388
0.304501
0.30567
0.306891
0.308158
0.309469
0.310821
0.31221
0.313629
0.315069
0.316521
0.317977
0.319431
0.320877
0.322313
0.323741
0.325152
0.326464
0.327789
0.295706
0.295415
0.295352
0.2953
0.295286
0.295307
0.295363
0.295458
0.295599
0.295797
0.296059
0.29639
0.296795
0.297276
0.297834
0.298468
0.299179
0.299968
0.300832
0.301767
0.302767
0.303827
0.304942
0.306108
0.307319
0.30857
0.309859
0.311182
0.312535
0.313911
0.315301
0.316697
0.31809
0.319475
0.320848
0.322205
0.323548
0.324871
0.326091
0.327313
0.295914
0.295567
0.295482
0.295416
0.2954
0.295428
0.295497
0.295609
0.295771
0.29599
0.296277
0.296637
0.297073
0.297585
0.298173
0.298835
0.299572
0.300383
0.301267
0.302219
0.303234
0.304304
0.305424
0.306589
0.307794
0.309032
0.310302
0.3116
0.312921
0.314257
0.315602
0.316945
0.31828
0.3196
0.320902
0.322183
0.323446
0.324682
0.325814
0.326933
0.296111
0.295708
0.295603
0.295522
0.295505
0.295541
0.295626
0.295758
0.295941
0.296185
0.2965
0.296891
0.29736
0.297906
0.298525
0.299217
0.299982
0.300819
0.301726
0.302699
0.30373
0.304813
0.305941
0.30711
0.308311
0.309541
0.310795
0.312071
0.313363
0.314664
0.315967
0.317262
0.318542
0.319802
0.321038
0.322247
0.323431
0.324585
0.325633
0.32665
0.296295
0.295835
0.29571
0.295617
0.2956
0.295647
0.295749
0.295902
0.296109
0.29638
0.296725
0.297149
0.297653
0.298233
0.298887
0.299611
0.300407
0.301272
0.302205
0.3032
0.304251
0.30535
0.30649
0.307664
0.308865
0.310089
0.311331
0.312589
0.313856
0.315126
0.316391
0.317642
0.318872
0.320076
0.32125
0.322391
0.323501
0.324577
0.325544
0.326461
0.29646
0.295946
0.295803
0.295699
0.295683
0.295742
0.295862
0.296039
0.296272
0.296572
0.296949
0.297408
0.297948
0.298565
0.299254
0.300013
0.300842
0.301738
0.302699
0.303719
0.304792
0.305909
0.307063
0.308246
0.30945
0.310671
0.311905
0.313147
0.314394
0.315637
0.316868
0.31808
0.319264
0.320417
0.321534
0.322612
0.323653
0.324654
0.325547
0.326366
0.296606
0.296039
0.295877
0.295764
0.295752
0.295824
0.295965
0.296165
0.296427
0.296758
0.29717
0.297665
0.298243
0.298897
0.299624
0.30042
0.301283
0.302212
0.303203
0.304251
0.305347
0.306486
0.307656
0.30885
0.31006
0.311281
0.312509
0.31374
0.314969
0.316189
0.317391
0.318567
0.319711
0.320817
0.321883
0.322904
0.323881
0.324813
0.325637
0.326361
0.296727
0.29611
0.295933
0.295812
0.295805
0.295892
0.296053
0.29628
0.296571
0.296936
0.297383
0.297917
0.298533
0.299227
0.299992
0.300826
0.301726
0.30269
0.303713
0.304789
0.305912
0.307074
0.308263
0.30947
0.310688
0.311911
0.313137
0.31436
0.315575
0.316775
0.317952
0.319097
0.320204
0.32127
0.322289
0.323259
0.324178
0.325048
0.32581
0.326444
0.296823
0.296157
0.295966
0.295841
0.295841
0.295943
0.296126
0.296379
0.296703
0.297102
0.297587
0.29816
0.298816
0.299549
0.300355
0.301229
0.302167
0.303167
0.304223
0.305329
0.306481
0.307666
0.308876
0.310099
0.311327
0.312555
0.31378
0.314998
0.316202
0.317386
0.318541
0.319659
0.320735
0.321765
0.322745
0.32367
0.324538
0.325352
0.32606
0.326608
0.296889
0.296178
0.295976
0.295849
0.295857
0.295975
0.29618
0.296461
0.296818
0.297255
0.297779
0.298391
0.299088
0.299862
0.300709
0.301623
0.302601
0.303637
0.304727
0.305866
0.307046
0.308258
0.309489
0.310729
0.311969
0.313204
0.314432
0.315646
0.316843
0.318013
0.319149
0.320245
0.321294
0.322294
0.32324
0.324126
0.32495
0.325716
0.326379
0.326848
0.296924
0.296171
0.295961
0.295834
0.295852
0.295987
0.296214
0.296524
0.296914
0.297389
0.297954
0.298608
0.299346
0.300162
0.301049
0.302004
0.303022
0.304096
0.305222
0.306393
0.307603
0.308841
0.310095
0.311353
0.312606
0.313851
0.315082
0.316296
0.317486
0.318646
0.319767
0.320843
0.321871
0.322846
0.323763
0.324618
0.325405
0.326131
0.326757
0.327155
0.296924
0.296134
0.295918
0.295794
0.295824
0.295976
0.296226
0.296564
0.296989
0.297504
0.29811
0.298806
0.299586
0.300443
0.301372
0.302369
0.303427
0.304539
0.3057
0.306904
0.308144
0.30941
0.310687
0.311963
0.313231
0.314486
0.315723
0.316938
0.318124
0.319275
0.320383
0.321444
0.322453
0.323408
0.324303
0.325132
0.32589
0.326585
0.327185
0.327521
0.296888
0.296064
0.295845
0.295727
0.29577
0.29594
0.296213
0.296581
0.29704
0.297595
0.298243
0.298982
0.299803
0.300702
0.301673
0.302711
0.30381
0.30496
0.306156
0.307394
0.308664
0.309957
0.311257
0.312552
0.313836
0.315102
0.316345
0.317562
0.318745
0.319888
0.320986
0.322034
0.323028
0.323967
0.324844
0.325654
0.326391
0.327065
0.32765
0.327935
0.296812
0.295959
0.295741
0.295631
0.295688
0.295877
0.296174
0.29657
0.297065
0.297659
0.29835
0.299131
0.299994
0.300934
0.301947
0.303027
0.304166
0.305354
0.306585
0.307855
0.309156
0.310475
0.311797
0.313112
0.314411
0.315688
0.316939
0.318158
0.319338
0.320475
0.321563
0.3226
0.323582
0.324508
0.325372
0.326169
0.326892
0.327554
0.328136
0.328383
0.296695
0.295818
0.295602
0.295503
0.295576
0.295784
0.296105
0.296531
0.29706
0.297694
0.298426
0.299249
0.300154
0.301137
0.302191
0.303312
0.30449
0.305715
0.306981
0.308283
0.309613
0.310957
0.312302
0.313635
0.314949
0.316237
0.317494
0.318714
0.319892
0.321023
0.322103
0.323129
0.3241
0.325015
0.32587
0.326659
0.327375
0.328035
0.328628
0.328851
0.296533
0.295637
0.295428
0.29534
0.295431
0.29566
0.296005
0.29646
0.297024
0.297696
0.29847
0.299335
0.300281
0.301305
0.3024
0.303562
0.304778
0.306039
0.307339
0.308672
0.310029
0.311398
0.312763
0.314114
0.315441
0.316739
0.318001
0.319221
0.320395
0.32152
0.322591
0.323607
0.324567
0.32547
0.326317
0.327102
0.327819
0.328486
0.329104
0.329324
0.296325
0.295415
0.295214
0.295142
0.295252
0.295502
0.295873
0.296357
0.296955
0.297665
0.298479
0.299384
0.300372
0.301435
0.302571
0.303771
0.305024
0.306321
0.307653
0.309016
0.310399
0.31179
0.313174
0.31454
0.315879
0.317184
0.318449
0.319668
0.320837
0.321953
0.323013
0.324017
0.324964
0.325856
0.326694
0.327476
0.328198
0.328883
0.329542
0.329782
0.29607
0.295151
0.29496
0.294905
0.295035
0.295309
0.295705
0.296218
0.29685
0.297597
0.29845
0.299395
0.300422
0.301525
0.3027
0.303937
0.305226
0.306555
0.307918
0.309309
0.310716
0.312126
0.313527
0.314905
0.316253
0.317564
0.318829
0.320044
0.321205
0.32231
0.323357
0.324345
0.325276
0.326152
0.326978
0.327755
0.328484
0.329195
0.329912
0.330204
0.295765
0.294842
0.294665
0.294628
0.294781
0.295078
0.2955
0.296043
0.296707
0.297491
0.298381
0.299364
0.300429
0.30157
0.302783
0.304056
0.305378
0.306738
0.30813
0.309545
0.310973
0.312401
0.313814
0.315203
0.316557
0.317869
0.319131
0.320339
0.321488
0.322578
0.323608
0.324575
0.325484
0.326337
0.327144
0.327909
0.32864
0.329378
0.330171
0.33056
0.295409
0.294488
0.294326
0.29431
0.294486
0.294809
0.295257
0.295829
0.296525
0.297344
0.29827
0.29929
0.300391
0.301569
0.302816
0.304122
0.305475
0.306864
0.308281
0.309718
0.311164
0.312606
0.31403
0.315425
0.316781
0.318091
0.319346
0.320542
0.321676
0.322747
0.323752
0.324692
0.32557
0.32639
0.327165
0.327904
0.328624
0.329381
0.330269
0.330834
0.295001
0.294088
0.293942
0.293949
0.29415
0.294498
0.294973
0.295574
0.296302
0.297154
0.298115
0.299169
0.300305
0.301517
0.302796
0.304133
0.305514
0.306929
0.308368
0.309824
0.311284
0.312736
0.314166
0.315564
0.316919
0.318222
0.319466
0.320646
0.321759
0.322803
0.323778
0.324681
0.325516
0.326289
0.32701
0.327699
0.328382
0.329147
0.330186
0.331134
0.294541
0.293641
0.293514
0.293544
0.293771
0.294145
0.294647
0.295277
0.296036
0.29692
0.297914
0.299
0.300169
0.301411
0.302721
0.304085
0.305491
0.306927
0.308385
0.309856
0.311326
0.312785
0.314217
0.315613
0.316961
0.318253
0.31948
0.320639
0.321726
0.322738
0.323673
0.324529
0.325307
0.32601
0.326646
0.327231
0.327797
0.328465
0.3295
0.330774
0.361226
0.375084
0.386938
0.396632
0.404178
0.410209
0.41491
0.418719
0.42183
0.424475
0.426754
0.428741
0.430494
0.432076
0.433489
0.43475
0.43587
0.436874
0.43775
0.438508
0.439153
0.439701
0.440141
0.44048
0.440717
0.440846
0.440886
0.440831
0.440674
0.440424
0.440067
0.439622
0.439075
0.438428
0.437677
0.436828
0.4359
0.434858
0.433917
0.432616
0.35933
0.373003
0.384985
0.39472
0.402342
0.408419
0.413169
0.417024
0.420177
0.422852
0.425159
0.427187
0.428985
0.430593
0.432033
0.433335
0.434493
0.435518
0.436416
0.437205
0.43788
0.438447
0.43891
0.439263
0.439515
0.439668
0.439724
0.43968
0.439538
0.439296
0.438958
0.438519
0.437984
0.43735
0.436612
0.435772
0.434854
0.433822
0.432889
0.431597
0.357485
0.370945
0.383043
0.392809
0.400504
0.406625
0.411421
0.415323
0.41852
0.421227
0.423563
0.425631
0.427474
0.429109
0.430578
0.431919
0.433114
0.434161
0.435083
0.435901
0.436606
0.437191
0.437677
0.438044
0.438313
0.43849
0.438561
0.438529
0.438404
0.438171
0.437853
0.43742
0.4369
0.436277
0.435552
0.434722
0.433815
0.432795
0.431872
0.430589
0.355694
0.368916
0.381112
0.390898
0.39866
0.404827
0.409671
0.413615
0.416853
0.419598
0.42197
0.424075
0.425956
0.427626
0.429129
0.430502
0.431728
0.432805
0.433755
0.434598
0.435327
0.435933
0.43644
0.436828
0.437114
0.437309
0.437396
0.437379
0.43727
0.437051
0.436749
0.436331
0.435822
0.43521
0.434498
0.433679
0.432784
0.431776
0.430863
0.429593
0.353954
0.366915
0.379194
0.388989
0.396811
0.403024
0.407916
0.411901
0.415179
0.417966
0.420379
0.422518
0.424434
0.426144
0.427683
0.429084
0.430339
0.431449
0.43243
0.433296
0.434047
0.434675
0.435202
0.435613
0.435917
0.436128
0.43623
0.436231
0.436137
0.435937
0.435647
0.435247
0.434752
0.43415
0.433449
0.432643
0.431762
0.430766
0.429864
0.428607
0.352265
0.364945
0.377287
0.38708
0.394956
0.401214
0.406154
0.410182
0.413502
0.416331
0.418786
0.420961
0.422913
0.424662
0.426238
0.427668
0.428953
0.430095
0.431107
0.431995
0.432769
0.43342
0.433966
0.434399
0.434722
0.434949
0.435068
0.435087
0.435009
0.434827
0.43455
0.434167
0.433686
0.433096
0.432409
0.431614
0.430749
0.429764
0.428874
0.427629
0.350629
0.363008
0.375391
0.385172
0.393097
0.399398
0.404385
0.408458
0.411821
0.414694
0.41719
0.419404
0.421393
0.42318
0.424792
0.426254
0.42757
0.428743
0.429784
0.430696
0.431493
0.432167
0.432732
0.433187
0.433529
0.433772
0.43391
0.433946
0.433884
0.43372
0.433459
0.433092
0.432625
0.43205
0.431376
0.430594
0.429744
0.428773
0.427893
0.426661
0.349044
0.361106
0.373507
0.383265
0.391231
0.397573
0.402609
0.406729
0.410137
0.413054
0.415592
0.417847
0.419874
0.421699
0.423348
0.424842
0.42619
0.427392
0.428463
0.429399
0.430219
0.430916
0.4315
0.431977
0.432337
0.432599
0.432755
0.432809
0.432764
0.432617
0.432372
0.432022
0.431571
0.431009
0.430351
0.429583
0.428747
0.42779
0.426922
0.4257
0.347513
0.359242
0.371636
0.38136
0.389359
0.395741
0.400825
0.404994
0.408448
0.411412
0.413994
0.41629
0.418356
0.42022
0.421906
0.423432
0.424813
0.426044
0.427143
0.428105
0.428948
0.429668
0.430271
0.430769
0.431149
0.431429
0.431603
0.431675
0.431649
0.431519
0.431291
0.430958
0.430522
0.429976
0.429334
0.42858
0.42776
0.426817
0.425959
0.424749
0.346035
0.357418
0.369778
0.379457
0.38748
0.393899
0.399031
0.403251
0.406755
0.409767
0.412395
0.414734
0.41684
0.418742
0.420466
0.422025
0.423438
0.424698
0.425825
0.426813
0.427678
0.428422
0.429046
0.429564
0.429964
0.430263
0.430456
0.430546
0.430538
0.430426
0.430215
0.429899
0.429479
0.42895
0.428324
0.427586
0.426781
0.425852
0.425006
0.423806
0.344611
0.355637
0.367933
0.377556
0.385594
0.392047
0.397229
0.401502
0.405057
0.40812
0.410795
0.413178
0.415326
0.417268
0.419029
0.420622
0.422066
0.423355
0.42451
0.425524
0.426412
0.42718
0.427823
0.428362
0.428783
0.4291
0.429313
0.429421
0.429432
0.429338
0.429143
0.428845
0.428442
0.427931
0.427322
0.426601
0.425811
0.424896
0.424061
0.422871
0.343241
0.353902
0.366104
0.375658
0.3837
0.390185
0.395416
0.399744
0.403354
0.40647
0.409195
0.411624
0.413815
0.415796
0.417596
0.419222
0.420697
0.422016
0.423198
0.424238
0.425148
0.42594
0.426604
0.427164
0.427606
0.427941
0.428174
0.428301
0.42833
0.428255
0.428076
0.427797
0.427411
0.426919
0.426327
0.425623
0.424849
0.423949
0.423126
0.421944
0.341927
0.352216
0.36429
0.373763
0.381798
0.388312
0.393591
0.397977
0.401645
0.404817
0.407594
0.410072
0.412308
0.414329
0.416166
0.417827
0.419333
0.420681
0.421889
0.422955
0.423887
0.424703
0.425388
0.425969
0.426432
0.426786
0.427039
0.427185
0.427232
0.427175
0.427015
0.426755
0.426386
0.425913
0.42534
0.424655
0.423896
0.42301
0.422198
0.421027
0.340668
0.350581
0.362494
0.371873
0.379888
0.386427
0.391754
0.396201
0.399929
0.40316
0.405993
0.408522
0.410803
0.412866
0.414742
0.416436
0.417973
0.419351
0.420584
0.421677
0.422631
0.423469
0.424176
0.424777
0.425261
0.425634
0.425907
0.426072
0.426138
0.4261
0.425958
0.425718
0.425367
0.424913
0.42436
0.423694
0.422951
0.42208
0.421279
0.420118
0.339467
0.349001
0.360716
0.369989
0.377968
0.384529
0.389904
0.394414
0.398206
0.401501
0.404392
0.406974
0.409303
0.411408
0.413321
0.415049
0.416618
0.418024
0.419284
0.420401
0.421378
0.422238
0.422967
0.423587
0.424094
0.424487
0.424778
0.424963
0.425049
0.425028
0.424906
0.424686
0.424354
0.423921
0.423387
0.422741
0.422013
0.421157
0.420369
0.419217
0.338324
0.34748
0.35896
0.368111
0.37604
0.382619
0.388039
0.392616
0.396475
0.399838
0.402791
0.405429
0.407806
0.409953
0.411906
0.413667
0.415267
0.416703
0.417988
0.41913
0.420129
0.421011
0.421762
0.422401
0.42293
0.423343
0.423653
0.423857
0.423963
0.423961
0.423858
0.423659
0.423347
0.422935
0.422421
0.421795
0.421084
0.420243
0.419468
0.418325
0.337241
0.346021
0.357226
0.366241
0.374104
0.380695
0.38616
0.390805
0.394736
0.398171
0.401189
0.403886
0.406313
0.408504
0.410495
0.412291
0.413922
0.415386
0.416696
0.417864
0.418885
0.419788
0.420562
0.421219
0.421768
0.422202
0.422531
0.422755
0.42288
0.422897
0.422814
0.422637
0.422345
0.421955
0.421462
0.420856
0.420162
0.419337
0.418574
0.417441
0.336218
0.344627
0.355518
0.364379
0.37216
0.378756
0.384265
0.38898
0.392988
0.396499
0.399586
0.402346
0.404824
0.407059
0.409089
0.41092
0.412582
0.414075
0.41541
0.416602
0.417646
0.418569
0.419365
0.420041
0.42061
0.421065
0.421413
0.421655
0.421801
0.421838
0.421774
0.421618
0.421349
0.42098
0.420508
0.419923
0.419248
0.41844
0.417688
0.416566
0.335257
0.343301
0.353839
0.362529
0.370208
0.376803
0.382354
0.387141
0.39123
0.394821
0.397982
0.400807
0.403339
0.40562
0.407689
0.409556
0.411248
0.41277
0.41413
0.415345
0.416412
0.417354
0.418172
0.418868
0.419455
0.419931
0.420298
0.420558
0.420724
0.420781
0.420738
0.420604
0.420357
0.420011
0.419561
0.418998
0.418342
0.41755
0.416811
0.4157
0.33436
0.342046
0.352193
0.360692
0.368251
0.374836
0.380426
0.385287
0.389461
0.393138
0.396377
0.399269
0.401857
0.404186
0.406296
0.408198
0.409921
0.411471
0.412856
0.414094
0.415184
0.416145
0.416984
0.4177
0.418304
0.4188
0.419186
0.419465
0.419651
0.419728
0.419706
0.419594
0.41937
0.419047
0.418619
0.418079
0.417443
0.416669
0.415942
0.414842
0.333527
0.340865
0.350582
0.358869
0.366291
0.372855
0.378481
0.383416
0.387681
0.391449
0.39477
0.397733
0.40038
0.402757
0.404909
0.406847
0.408601
0.410179
0.411588
0.412848
0.413962
0.414941
0.4158
0.416536
0.417158
0.417673
0.418078
0.418375
0.41858
0.418678
0.418677
0.418588
0.418388
0.418088
0.417684
0.417167
0.416552
0.415797
0.415082
0.413994
0.33276
0.339761
0.349012
0.357065
0.364327
0.370861
0.376518
0.381529
0.385888
0.389752
0.39316
0.396198
0.398906
0.401335
0.403529
0.405503
0.407288
0.408894
0.410326
0.411609
0.412745
0.413742
0.414621
0.415377
0.416015
0.416549
0.416972
0.417288
0.417513
0.417632
0.417653
0.417586
0.41741
0.417134
0.416754
0.416262
0.415669
0.414934
0.414232
0.413156
0.332062
0.338736
0.347486
0.355281
0.362364
0.368854
0.374538
0.379626
0.384083
0.388047
0.391547
0.394664
0.397437
0.399918
0.402157
0.404166
0.405981
0.407615
0.409072
0.410376
0.411534
0.41255
0.413447
0.414223
0.414876
0.415429
0.41587
0.416204
0.416448
0.416588
0.416632
0.416587
0.416436
0.416184
0.41583
0.415363
0.414794
0.414079
0.413393
0.412328
0.331432
0.337793
0.346008
0.353522
0.360404
0.366837
0.372541
0.377705
0.382264
0.386334
0.389931
0.393132
0.395972
0.398509
0.400791
0.402837
0.404682
0.406344
0.407824
0.409149
0.410327
0.411363
0.412277
0.413073
0.413742
0.414312
0.414771
0.415123
0.415387
0.415548
0.415614
0.415592
0.415466
0.415239
0.414912
0.414471
0.413926
0.413234
0.412565
0.411511
0.330872
0.336932
0.344585
0.351791
0.35845
0.364811
0.370528
0.375767
0.380432
0.384611
0.388312
0.391601
0.394511
0.397106
0.399433
0.401516
0.403391
0.40508
0.406583
0.407929
0.409127
0.410181
0.411112
0.411927
0.412612
0.413199
0.413676
0.414045
0.414329
0.414511
0.414599
0.414599
0.414499
0.414298
0.413997
0.413585
0.413065
0.412398
0.411747
0.410705
0.330382
0.336153
0.343218
0.350091
0.356507
0.362778
0.368501
0.373811
0.378584
0.382879
0.386688
0.39007
0.393056
0.39571
0.398082
0.400202
0.402107
0.403823
0.405348
0.406714
0.407931
0.409005
0.409952
0.410786
0.411486
0.412089
0.412584
0.412971
0.413273
0.413477
0.413587
0.413609
0.413535
0.41336
0.413087
0.412704
0.412212
0.41157
0.410941
0.409911
0.329963
0.335458
0.341914
0.348425
0.354578
0.360741
0.36646
0.371837
0.376721
0.381135
0.38506
0.38854
0.391604
0.39432
0.396739
0.398897
0.400832
0.402573
0.40412
0.405506
0.406742
0.407834
0.408796
0.409648
0.410364
0.410983
0.411496
0.4119
0.41222
0.412445
0.412577
0.412621
0.412573
0.412425
0.41218
0.411827
0.411366
0.410753
0.410148
0.409131
0.329616
0.334842
0.340675
0.346798
0.352668
0.358703
0.364407
0.369847
0.374843
0.379381
0.383426
0.387009
0.390156
0.392937
0.395404
0.397601
0.399565
0.401331
0.402899
0.404304
0.405558
0.406668
0.407646
0.408513
0.409247
0.40988
0.41041
0.410831
0.41117
0.411415
0.411568
0.411634
0.411612
0.411491
0.411276
0.410955
0.410527
0.409944
0.409366
0.408366
0.32934
0.334305
0.339504
0.345214
0.350782
0.35667
0.362345
0.367842
0.372948
0.377615
0.381786
0.385478
0.388712
0.391561
0.394078
0.396313
0.398306
0.400096
0.401685
0.403109
0.40438
0.405506
0.4065
0.407383
0.408133
0.408779
0.409327
0.409765
0.41012
0.410386
0.41056
0.410648
0.410652
0.410558
0.410373
0.410085
0.409694
0.409146
0.408598
0.407617
0.329135
0.333841
0.338403
0.343678
0.348924
0.354644
0.360276
0.365823
0.37104
0.375839
0.38014
0.383947
0.387272
0.390191
0.39276
0.395034
0.397056
0.398868
0.400478
0.401919
0.403207
0.40435
0.405358
0.406255
0.407022
0.407681
0.408245
0.408701
0.409073
0.409357
0.409553
0.409663
0.409691
0.409627
0.409473
0.409219
0.408866
0.408357
0.407844
0.406885
0.329001
0.333446
0.337375
0.342195
0.347103
0.352631
0.358206
0.363793
0.369119
0.374053
0.378489
0.382415
0.385836
0.388828
0.39145
0.393764
0.395814
0.397649
0.399279
0.400736
0.40204
0.403198
0.404221
0.405131
0.405914
0.406586
0.407166
0.407639
0.408025
0.40833
0.408545
0.408678
0.408731
0.408695
0.408572
0.408355
0.408043
0.407578
0.407104
0.406172
0.328936
0.333113
0.336419
0.340769
0.345324
0.350637
0.356137
0.361755
0.367187
0.372256
0.376832
0.380882
0.384403
0.387472
0.390149
0.392502
0.394582
0.396437
0.398086
0.39956
0.400878
0.402052
0.403088
0.40401
0.404808
0.405494
0.406087
0.406578
0.406979
0.407303
0.407538
0.407692
0.40777
0.407762
0.407672
0.407492
0.407224
0.406808
0.406381
0.405481
0.32894
0.332835
0.335537
0.339405
0.343594
0.348669
0.354077
0.359712
0.365244
0.37045
0.375169
0.379349
0.382974
0.386123
0.388857
0.391249
0.393358
0.395234
0.396902
0.398391
0.399723
0.40091
0.40196
0.402893
0.403705
0.404404
0.405011
0.405518
0.405934
0.406276
0.40653
0.406706
0.406807
0.406828
0.40677
0.406628
0.406408
0.406046
0.405673
0.404814
0.329013
0.332603
0.334729
0.338107
0.341919
0.346733
0.352029
0.357669
0.363294
0.368636
0.373501
0.377814
0.381548
0.384779
0.387572
0.390005
0.392143
0.39404
0.395725
0.397229
0.398573
0.399774
0.400836
0.40178
0.402605
0.403317
0.403936
0.404459
0.40489
0.405249
0.405522
0.405718
0.405843
0.405892
0.405866
0.405764
0.405593
0.405292
0.404983
0.404176
0.329156
0.332408
0.333994
0.336882
0.340307
0.344839
0.350002
0.355631
0.361339
0.366814
0.371827
0.376278
0.380126
0.383442
0.386296
0.38877
0.390938
0.392855
0.394556
0.396075
0.397431
0.398643
0.399717
0.400671
0.401508
0.402233
0.402863
0.403402
0.403847
0.404222
0.404513
0.404729
0.404876
0.404952
0.404959
0.404898
0.404777
0.404543
0.40431
0.403571
0.32937
0.332242
0.333331
0.335736
0.338766
0.342994
0.348001
0.353602
0.359383
0.364987
0.37015
0.374741
0.378707
0.382112
0.385028
0.387545
0.389743
0.39168
0.393396
0.394928
0.396295
0.397518
0.398602
0.399566
0.400414
0.401151
0.401793
0.402347
0.402806
0.403196
0.403504
0.403739
0.403908
0.40401
0.404049
0.404028
0.403961
0.403799
0.403654
0.403005
0.329657
0.3321
0.332742
0.334676
0.337305
0.341208
0.346039
0.351593
0.357434
0.363163
0.368475
0.373207
0.377294
0.38079
0.383771
0.386331
0.388558
0.390515
0.392246
0.39379
0.395167
0.396399
0.397494
0.398467
0.399325
0.400074
0.400726
0.401293
0.401766
0.40217
0.402494
0.402747
0.402936
0.403063
0.403134
0.403154
0.403142
0.403058
0.403015
0.402487
0.329989
0.331964
0.332221
0.333703
0.335933
0.339494
0.344127
0.349612
0.355496
0.361338
0.366792
0.371664
0.375872
0.37946
0.382508
0.385114
0.387372
0.389348
0.391095
0.392651
0.394037
0.395279
0.396382
0.397364
0.398232
0.398992
0.399655
0.400235
0.400722
0.401139
0.401479
0.401749
0.401958
0.402109
0.402211
0.402271
0.402314
0.402313
0.402388
0.402024
0.330377
0.331797
0.331722
0.332779
0.334613
0.337815
0.34222
0.347607
0.353507
0.359445
0.365034
0.370046
0.374382
0.37807
0.381194
0.383854
0.386148
0.388151
0.389916
0.391487
0.392886
0.394138
0.395252
0.396244
0.397123
0.397896
0.398571
0.399163
0.399665
0.400095
0.40045
0.400738
0.400966
0.401142
0.401274
0.401374
0.401473
0.401558
0.401768
0.40163
0.331452
0.331832
0.331335
0.33191
0.333281
0.33606
0.34018
0.345436
0.351349
0.357405
0.363165
0.368357
0.372857
0.376675
0.379895
0.38262
0.384958
0.386988
0.388773
0.390356
0.391765
0.393025
0.394147
0.395147
0.396033
0.396815
0.397501
0.398103
0.398616
0.399057
0.399425
0.399727
0.399973
0.40017
0.400329
0.400466
0.400615
0.400786
0.401137
0.401304
0.337605
0.333976
0.331588
0.330109
0.329494
0.330598
0.333686
0.338609
0.344782
0.351477
0.358022
0.363966
0.369089
0.373359
0.376861
0.379731
0.382114
0.384135
0.385886
0.387428
0.388802
0.390031
0.391132
0.392116
0.392995
0.393775
0.394463
0.395069
0.395596
0.39605
0.396439
0.396769
0.39705
0.397292
0.39751
0.397728
0.397989
0.398358
0.399083
0.40029
0.329671
0.326699
0.324223
0.322478
0.321361
0.32193
0.324749
0.329726
0.336218
0.34337
0.350402
0.356786
0.362267
0.366804
0.370494
0.373495
0.375967
0.378048
0.379841
0.381414
0.382812
0.384063
0.385186
0.386193
0.387097
0.387903
0.388621
0.389255
0.389812
0.390298
0.390719
0.391083
0.391399
0.391679
0.391942
0.392216
0.392554
0.393062
0.394045
0.39573
0.318276
0.316579
0.314659
0.313586
0.312932
0.313702
0.31666
0.32181
0.328533
0.335955
0.343266
0.349904
0.355599
0.360307
0.364126
0.36722
0.369759
0.371886