/*--------------------------------*- C++ -*----------------------------------*\
  =========                 |
  \\      /  F ield         | OpenFOAM: The Open Source CFD Toolbox
   \\    /   O peration     | Website:  https://openfoam.org
    \\  /    A nd           | Version:  7
     \\/     M anipulation  |
\*---------------------------------------------------------------------------*/
FoamFile
{
    version     2.0;
    format      ascii;
    class       volVectorField;
    location    "8";
    object      U;
}
// * * * * * * * * * * * * * * * * * * * * * * * * * * * * * * * * * * * * * //

dimensions      [0 1 -1 0 0 0 0];

internalField   nonuniform List<vector> 
32000
(
(0.000210122 -0.00428842 -2.53111e-22)
(0.00125964 -0.00827309 0)
(0.00324682 -0.00819179 -2.2666e-21)
(0.00578987 -0.0049234 0)
(0.00883679 0.000909839 2.36383e-21)
(0.0123073 0.00883737 0)
(0.0161515 0.0184825 2.44415e-21)
(0.0203331 0.0295376 -1.85849e-21)
(0.024821 0.0417538 5.27357e-25)
(0.0295869 0.0549233 6.30515e-25)
(0.0346037 0.0688732 -6.40103e-22)
(0.0398454 0.0834562 2.58368e-21)
(0.0452865 0.0985437 0)
(0.0509002 0.114021 -6.56362e-22)
(0.0566592 0.129783 6.59085e-22)
(0.0625349 0.145732 0)
(0.0684977 0.161778 3.33476e-21)
(0.0745176 0.177831 -6.69135e-22)
(0.0805637 0.19381 0)
(0.0866046 0.209634 1.35553e-21)
(0.0926089 0.225226 1.35888e-21)
(0.098546 0.240512 0)
(0.104386 0.255425 0)
(0.1101 0.269898 0)
(0.115661 0.283873 0)
(0.121046 0.297296 0)
(0.126229 0.310119 0)
(0.131192 0.322302 0)
(0.135916 0.33381 -2.79792e-21)
(0.140388 0.344617 0)
(0.144597 0.354701 2.81789e-21)
(0.148534 0.36405 0)
(0.152194 0.372655 0)
(0.155575 0.380514 0)
(0.15868 0.387627 -2.85398e-21)
(0.161513 0.393998 -1.44071e-21)
(0.164084 0.399622 4.32073e-21)
(0.166411 0.404487 4.8114e-24)
(0.1685 0.408576 2.90101e-21)
(0.170243 0.411843 4.22554e-24)
(0.000290605 -0.00451872 0)
(0.001369 -0.0088886 4.42343e-21)
(0.00324629 -0.00914717 1.13219e-21)
(0.00557537 -0.00618612 -1.0411e-24)
(0.00832208 -0.000641126 -1.182e-21)
(0.0114248 0.00700901 0)
(0.0148474 0.0163834 2.4438e-21)
(0.0185649 0.0271722 -2.47758e-21)
(0.0225551 0.0391261 0)
(0.0267965 0.0520373 -5.07124e-21)
(0.0312691 0.0657335 0)
(0.0359528 0.0800692 -7.74782e-21)
(0.0408258 0.0949179 0)
(0.0458664 0.110167 0)
(0.0510514 0.125713 2.63989e-21)
(0.0563552 0.141461 -2.64839e-21)
(0.0617521 0.157323 -2.66641e-21)
(0.0672159 0.173214 0)
(0.0727188 0.189051 8.06978e-21)
(0.0782325 0.204757 -2.69495e-21)
(0.0837294 0.220257 4.43446e-24)
(0.0891814 0.235478 -8.1539e-21)
(0.0945605 0.250353 -5.45922e-21)
(0.099841 0.264818 -2.75121e-21)
(0.104998 0.278813 8.24301e-21)
(0.110009 0.292285 -8.29131e-21)
(0.114852 0.305184 8.32967e-21)
(0.119506 0.31747 -1.11028e-20)
(0.123956 0.329106 -2.77882e-21)
(0.128188 0.340064 3.27747e-23)
(0.132189 0.35032 -8.38534e-21)
(0.135951 0.359859 -5.61953e-21)
(0.139469 0.368669 1.13344e-20)
(0.142739 0.376745 -1.13195e-20)
(0.145763 0.384085 -2.82726e-21)
(0.148543 0.390686 -1.14294e-20)
(0.151089 0.396541 -1.02594e-23)
(0.153417 0.401634 2.8842e-21)
(0.155522 0.405944 -1.14543e-20)
(0.157292 0.409422 -1.62854e-20)
(0.000380661 -0.00474948 -1.01435e-21)
(0.00150122 -0.00949968 -2.21164e-21)
(0.00327497 -0.0100731 -1.02047e-20)
(0.00539579 -0.0073988 0)
(0.00784911 -0.0021265 1.18243e-21)
(0.0105912 0.00525812 -1.20255e-21)
(0.0136002 0.0143704 -1.46626e-20)
(0.0168631 0.0248991 4.95539e-21)
(0.0203666 0.0365931 -2.50897e-21)
(0.0240961 0.0492465 1.52097e-20)
(0.0280378 0.0626885 5.11986e-21)
(0.0321771 0.0767743 2.58415e-21)
(0.0364969 0.0913793 -1.04034e-20)
(0.040979 0.106393 0)
(0.0456037 0.121715 0)
(0.0503499 0.137253 5.30555e-21)
(0.0551944 0.152921 1.48809e-23)
(0.060114 0.168635 -5.34121e-21)
(0.0650846 0.184316 -5.37515e-21)
(0.070081 0.199888 -1.07802e-20)
(0.0750776 0.215278 1.62479e-20)
(0.0800493 0.230415 1.77931e-23)
(0.084971 0.245232 -1.03178e-23)
(0.089819 0.259666 5.45778e-21)
(0.0945706 0.273658 -1.10094e-20)
(0.0992043 0.287155 2.20223e-20)
(0.1037 0.300107 0)
(0.108038 0.312472 5.55752e-21)
(0.112203 0.324212 5.57668e-21)
(0.116182 0.335297 1.12035e-20)
(0.119962 0.345701 3.27692e-23)
(0.123535 0.355408 0)
(0.126894 0.364402 5.67268e-21)
(0.130036 0.372675 -5.59379e-21)
(0.132961 0.380221 -5.63053e-21)
(0.135671 0.387035 1.71075e-20)
(0.138173 0.393106 -1.6996e-20)
(0.140485 0.398413 1.14595e-20)
(0.142586 0.402934 -1.70579e-20)
(0.144366 0.406615 6.40537e-21)
(0.000479078 -0.00494938 8.11482e-21)
(0.00165135 -0.0100384 -8.85574e-21)
(0.00332536 -0.0109078 1.81468e-20)
(0.00524138 -0.00850632 0)
(0.00740493 -0.00349722 7.09434e-21)
(0.00979218 0.00362781 1.20314e-20)
(0.0123954 0.0124803 2.44372e-21)
(0.0152124 0.0227492 1.31987e-24)
(0.0182391 0.034182 7.52404e-21)
(0.0214684 0.0465742 -2.53716e-21)
(0.0248924 0.0597563 1.27942e-20)
(0.0285011 0.0735856 -1.54873e-20)
(0.0322822 0.0879395 1.56006e-20)
(0.0362212 0.10271 -5.24005e-21)
(0.0403015 0.117798 5.26186e-21)
(0.0445049 0.133114 -1.05867e-20)
(0.0488115 0.148575 -1.59658e-20)
(0.053201 0.164099 5.33652e-21)
(0.0576519 0.179609 -5.37613e-21)
(0.0621417 0.195031 1.6157e-20)
(0.0666477 0.210293 -1.08208e-20)
(0.0711471 0.225327 -1.08448e-20)
(0.0756169 0.240067 0)
(0.0800358 0.25445 0)
(0.0843832 0.268418 -1.09514e-20)
(0.088639 0.281918 -1.10101e-20)
(0.0927841 0.2949 -1.10193e-20)
(0.0968012 0.30732 0)
(0.100675 0.319141 0)
(0.104391 0.33033 -2.22964e-20)
(0.10794 0.34086 -8.73035e-23)
(0.111311 0.350712 1.12201e-20)
(0.114498 0.359869 -1.11855e-20)
(0.117498 0.368319 -1.13058e-20)
(0.120308 0.376053 1.1289e-20)
(0.122931 0.383062 0)
(0.125373 0.389332 1.13628e-20)
(0.127651 0.39484 -2.2732e-20)
(0.129732 0.39956 2.27324e-20)
(0.131504 0.403438 -2.58086e-20)
(0.00058407 -0.00513737 -4.05433e-21)
(0.00181636 -0.0105425 6.64296e-21)
(0.0033939 -0.0116855 -9.07528e-21)
(0.00510813 -0.00953997 0)
(0.00698613 -0.00478108 -1.18253e-20)
(0.00902323 0.00209324 -7.21971e-21)
(0.0112269 0.0106918 9.77571e-21)
(0.0136062 0.0207031 0)
(0.0161661 0.0318752 -1.50481e-20)
(0.0189063 0.0440048 -5.0714e-21)
(0.0218248 0.056924 -5.11602e-21)
(0.0249169 0.0704924 1.03277e-20)
(0.028174 0.0845896 -1.03984e-20)
(0.0315845 0.0991091 5.22947e-21)
(0.0351354 0.113955 0)
(0.0388113 0.129041 1.58847e-20)
(0.042595 0.144283 5.32699e-21)
(0.0464683 0.159605 -1.06968e-20)
(0.0504127 0.174931 2.14473e-20)
(0.0544085 0.190188 -2.15276e-20)
(0.0584347 0.205308 2.15745e-20)
(0.0624706 0.220222 1.08448e-20)
(0.0664961 0.234866 0)
(0.0704917 0.249178 1.09384e-20)
(0.0744386 0.263102 4.15785e-23)
(0.078318 0.276584 0)
(0.0821125 0.289573 1.10194e-20)
(0.0858058 0.302027 -1.10775e-20)
(0.0893832 0.313907 1.10315e-20)
(0.0928317 0.325177 2.22616e-20)
(0.0961405 0.335812 -2.22648e-20)
(0.0993006 0.345788 2.2299e-20)
(0.102305 0.355086 0)
(0.10515 0.363692 0)
(0.107833 0.371595 2.24828e-20)
(0.110355 0.378782 0)
(0.112722 0.385236 0)
(0.114951 0.39093 -2.26417e-20)
(0.116996 0.395839 2.25486e-20)
(0.118744 0.399907 1.28863e-20)
(0.00069425 -0.00530357 2.03072e-21)
(0.00199222 -0.0109906 0)
(0.00347535 -0.0123842 1.8167e-20)
(0.00498941 -0.0104782 2.32091e-21)
(0.00658403 -0.00595874 2.36741e-21)
(0.00827527 0.000671637 1.4446e-20)
(0.0100854 0.00901998 1.95563e-20)
(0.0120346 0.0187747 0)
(0.0141365 0.0296849 5.01693e-21)
(0.0163986 0.0415489 1.52093e-20)
(0.0188243 0.0542009 2.0468e-20)
(0.0214131 0.0675029 -5.16244e-21)
(0.0241602 0.0813363 -1.55943e-20)
(0.0270574 0.0955971 0)
(0.0300944 0.110192 2.10448e-20)
(0.0332583 0.125037 0)
(0.0365341 0.140051 3.18936e-20)
(0.0399064 0.155158 -1.06587e-20)
(0.0433588 0.170287 0)
(0.0468735 0.185366 -1.07746e-20)
(0.0504319 0.200327 -2.65242e-23)
(0.0540154 0.215104 -1.07897e-20)
(0.057606 0.229635 -1.08332e-20)
(0.0611859 0.243859 1.09212e-20)
(0.064738 0.257719 -1.08926e-20)
(0.0682452 0.271162 0)
(0.0716913 0.284139 -1.10193e-20)
(0.0750609 0.296605 1.09773e-20)
(0.0783404 0.308521 0)
(0.0815175 0.319853 0)
(0.0845818 0.33057 0)
(0.0875243 0.340649 -2.23352e-20)
(0.0903381 0.350068 2.22172e-20)
(0.0930186 0.358811 0)
(0.0955636 0.366864 -1.12189e-20)
(0.0979731 0.374211 0)
(0.100254 0.380833 2.25587e-20)
(0.10242 0.386702 -1.11398e-20)
(0.104415 0.391788 -2.26129e-20)
(0.106125 0.396039 2.55168e-20)
(0.000808242 -0.00545077 1.42307e-20)
(0.00217555 -0.0113868 -1.99571e-20)
(0.00356481 -0.0130079 -3.40718e-20)
(0.00487954 -0.0113254 -1.85739e-20)
(0.00619303 -0.00703417 -4.73396e-21)
(0.0075419 -0.000640544 -9.62841e-21)
(0.00896377 0.007461 -4.40048e-20)
(0.0104902 0.0169598 -1.4869e-20)
(0.0121437 0.027607 -2.50797e-20)
(0.0139385 0.0392024 -2.53479e-20)
(0.0158834 0.0515829 -3.58208e-20)
(0.0179825 0.0646128 -2.0637e-20)
(0.0202343 0.0781758 1.84484e-24)
(0.0226332 0.0921704 -2.09209e-20)
(0.0251718 0.106506 -2.10448e-20)
(0.0278395 0.1211 -3.17341e-20)
(0.0306235 0.135875 2.12417e-20)
(0.0335103 0.150757 -1.06539e-20)
(0.0364855 0.165676 0)
(0.0395334 0.180563 2.14874e-20)
(0.0426372 0.195351 0)
(0.0457805 0.209976 4.32637e-20)
(0.048947 0.224377 0)
(0.0521207 0.238495 -1.09064e-20)
(0.0552859 0.252273 1.09528e-20)
(0.0584269 0.265659 -2.18088e-20)
(0.0615289 0.278604 0)
(0.0645775 0.291063 -2.20539e-20)
(0.06756 0.302996 2.19622e-20)
(0.0704649 0.314367 0)
(0.0732822 0.325147 0)
(0.0760031 0.335308 0)
(0.0786207 0.344829 -2.21985e-20)
(0.0811304 0.353691 0)
(0.0835294 0.361876 -2.23968e-20)
(0.0858175 0.369367 4.4697e-20)
(0.088001 0.376142 -4.47602e-20)
(0.0900935 0.382172 2.21961e-20)
(0.0920256 0.387425 4.48541e-20)
(0.0936847 0.391852 -2.54301e-20)
(0.000924388 -0.00557673 -1.82963e-20)
(0.00236244 -0.0117281 -1.00863e-23)
(0.00365736 -0.0135533 1.81754e-20)
(0.00477273 -0.0120777 3.71553e-20)
(0.00580636 -0.00800397 -4.73538e-21)
(0.00681626 -0.00184106 -1.92707e-20)
(0.00785529 0.00601686 1.95585e-20)
(0.00896643 0.0152604 2.974e-20)
(0.0101806 0.0256426 1.00315e-20)
(0.0115191 0.036966 2.5349e-20)
(0.012996 0.0490705 2.0468e-20)
(0.0146191 0.0618225 3.09514e-20)
(0.01639 0.0751082 6.23622e-20)
(0.0183062 0.0888289 3.13873e-20)
(0.0203625 0.102897 0)
(0.0225503 0.117231 1.05634e-20)
(0.0248587 0.131757 1.06049e-20)
(0.0272761 0.146402 1.06469e-20)
(0.0297901 0.161099 2.14104e-20)
(0.0323862 0.175781 -1.07317e-20)
(0.0350498 0.190383 0)
(0.0377663 0.204842 -1.34665e-23)
(0.0405211 0.219098 -2.16683e-20)
(0.0432996 0.233093 2.17239e-20)
(0.0460874 0.246772 4.35776e-20)
(0.0488704 0.260083 4.37319e-20)
(0.0516347 0.272977 4.91088e-23)
(0.0543672 0.28541 2.19255e-20)
(0.057056 0.29734 2.19718e-20)
(0.0596905 0.308732 -2.20163e-20)
(0.0622609 0.319555 2.20589e-20)
(0.0647587 0.32978 2.20992e-20)
(0.0671772 0.339384 4.43355e-20)
(0.0695117 0.348346 -1.12689e-22)
(0.0717593 0.356646 6.6678e-20)
(0.0739189 0.364265 4.3756e-23)
(0.075997 0.371179 -2.22542e-20)
(0.078006 0.377357 -2.23623e-20)
(0.0798652 0.382769 2.22854e-20)
(0.0814618 0.387364 2.53835e-20)
(0.00104131 -0.00568077 1.62865e-20)
(0.0025493 -0.0120126 2.2189e-20)
(0.00374801 -0.014018 1.36474e-20)
(0.0046632 -0.0127333 -1.39345e-20)
(0.00541793 -0.00886681 -2.36854e-20)
(0.00609197 -0.00292852 1.92693e-20)
(0.00675354 0.00468832 0)
(0.00745695 0.0136762 1.98345e-20)
(0.0082415 0.0237914 0)
(0.00913511 0.0348394 -4.05645e-20)
(0.0101568 0.0466628 1.02392e-20)
(0.0113178 0.0591309 -5.15941e-20)
(0.012623 0.0721324 -2.07872e-20)
(0.0140723 0.0855717 1.04691e-20)
(0.0156627 0.0993631 1.70832e-23)
(0.0173874 0.113429 -1.05623e-20)
(0.0192371 0.127695 -2.124e-20)
(0.0212021 0.142094 -4.26517e-20)
(0.0232712 0.156558 0)
(0.0254317 0.171023 3.53592e-23)
(0.0276705 0.185425 -2.15035e-20)
(0.0299749 0.199704 -2.16096e-20)
(0.0323316 0.2138 2.16684e-20)
(0.0347274 0.227657 -2.17842e-20)
(0.0371491 0.241221 2.17594e-20)
(0.0395839 0.25444 -4.35859e-20)
(0.0420191 0.267266 5.00657e-23)
(0.0444425 0.279654 -4.37696e-20)
(0.0468431 0.291564 -2.19719e-20)
(0.0492111 0.302959 -5.09985e-23)
(0.0515371 0.313807 -9.67356e-23)
(0.0538129 0.324077 -2.20994e-20)
(0.0560318 0.333746 -2.2137e-20)
(0.0581893 0.342791 -6.08755e-23)
(0.0602821 0.35119 -2.22028e-20)
(0.0623087 0.358921 -7.18118e-23)
(0.0642753 0.365961 -2.23306e-20)
(0.0661931 0.372278 6.64972e-20)
(0.0679709 0.377838 -2.22856e-20)
(0.0694948 0.382597 -2.54146e-20)
(0.0011576 -0.0057617 -1.62881e-20)
(0.00273268 -0.0122384 4.4392e-21)
(0.00383188 -0.0144003 -1.36431e-20)
(0.00454525 -0.0132907 -4.6477e-21)
(0.00502179 -0.00962142 1.89494e-20)
(0.00536317 -0.00390238 -4.82009e-21)
(0.0056528 0.00347534 4.89274e-21)
(0.00595631 0.0122073 -2.97544e-20)
(0.00632128 0.0220531 1.00356e-20)
(0.00678189 0.0328218 2.0284e-20)
(0.00736159 0.044359 0)
(0.00807514 0.0565369 4.12856e-20)
(0.0089302 0.0692476 0)
(0.00992905 0.0823978 -4.18463e-20)
(0.0110704 0.0959047 -2.1042e-20)
(0.0123492 0.109693 0)
(0.0137579 0.123691 0)
(0.0152879 0.137833 4.26515e-20)
(0.0169293 0.152053 2.14365e-20)
(0.0186711 0.166289 -4.29502e-20)
(0.0205017 0.180479 2.15001e-20)
(0.0224097 0.194564 0)
(0.0243832 0.208487 -2.17004e-20)
(0.0264101 0.222192 4.33989e-20)
(0.0284786 0.235625 -2.16982e-20)
(0.0305769 0.248736 -2.18557e-20)
(0.0326931 0.261478 2.17804e-20)
(0.0348165 0.273805 0)
(0.0369366 0.285677 4.38962e-20)
(0.0390443 0.297058 -2.18901e-20)
(0.0411307 0.307912 -2.20649e-20)
(0.0431877 0.318212 -1.45078e-22)
(0.045209 0.327929 8.82741e-20)
(0.04719 0.337041 -6.61264e-20)
(0.0491271 0.345523 0)
(0.0510182 0.353354 -2.21587e-20)
(0.0528693 0.360507 -4.44306e-20)
(0.0546904 0.366951 2.19611e-20)
(0.0563799 0.372653 2.21145e-20)
(0.0578226 0.37757 0)
(0.00127175 -0.00581849 -3.26203e-20)
(0.00290891 -0.0124042 -4.44213e-21)
(0.00390412 -0.0146989 3.64238e-20)
(0.00441359 -0.0137487 -3.72127e-20)
(0.00461235 -0.0102672 0)
(0.00462423 -0.00476255 0)
(0.00454789 0.00237777 -9.79045e-21)
(0.00445996 0.010853 -2.29398e-24)
(0.00441585 0.0204268 1.00385e-20)
(0.00445571 0.0309119 0)
(0.00460738 0.0421577 0)
(0.00488864 0.0540396 -1.03165e-20)
(0.00530971 0.0664525 1.05603e-23)
(0.00587501 0.0793063 1.04672e-20)
(0.00658498 0.0925207 2.1042e-20)
(0.00743594 0.106022 0)
(0.00842165 0.119743 2.12689e-20)
(0.00953478 0.133618 -2.12708e-20)
(0.0107667 0.147584 -4.28137e-20)
(0.0121076 0.161579 4.29528e-20)
(0.0135473 0.175546 7.73168e-23)
(0.0150758 0.189425 -2.15543e-20)
(0.0166821 0.203162 2.16943e-20)
(0.0183554 0.2167 -4.33469e-20)
(0.0200849 0.229989 0)
(0.0218597 0.242978 2.184e-20)
(0.0236692 0.25562 -4.36474e-20)
(0.0255033 0.26787 2.17992e-20)
(0.0273526 0.279688 -2.19078e-20)
(0.0292082 0.291037 -2.19948e-20)
(0.0310619 0.301883 -2.21634e-20)
(0.0329058 0.312195 8.79427e-20)
(0.0347337 0.321946 -6.59106e-20)
(0.036541 0.331109 -4.42051e-20)
(0.0383236 0.339662 4.39522e-20)
(0.040079 0.347578 0)
(0.0418126 0.354833 4.4288e-20)
(0.0435333 0.361396 -4.40109e-20)
(0.0451295 0.367232 -2.21147e-20)
(0.0464841 0.372304 0)
(0.00138224 -0.00585039 6.9348e-20)
(0.00307449 -0.0125088 3.11351e-20)
(0.0039601 -0.0149125 -3.64235e-20)
(0.00426289 -0.0141066 3.25596e-20)
(0.00418428 -0.010804 -4.74293e-21)
(0.00387027 -0.00550918 9.64625e-21)
(0.00343432 0.001395 0)
(0.00296379 0.00961227 -9.92621e-21)
(0.00252184 0.0189111 1.00419e-20)
(0.00215409 0.0291086 1.01519e-20)
(0.00189222 0.0400577 -1.02407e-20)
(0.00175697 0.0516374 -1.03319e-20)
(0.001761 0.0637459 1.03967e-20)
(0.00191052 0.0762961 0)
(0.00220729 0.0892102 0)
(0.002649 0.102417 -2.11778e-20)
(0.00323063 0.115852 2.12278e-20)
(0.00394583 0.12945 -2.13643e-20)
(0.00478704 0.143151 2.13817e-20)
(0.00574579 0.156897 2.1516e-20)
(0.00681307 0.170629 -4.3086e-20)
(0.00797971 0.184291 4.31968e-20)
(0.00923601 0.197828 8.90272e-23)
(0.0105722 0.211188 -2.16465e-20)
(0.0119782 0.224318 0)
(0.0134442 0.23717 2.18298e-20)
(0.0149606 0.249698 1.14142e-22)
(0.016518 0.261856 -2.17854e-20)
(0.0181078 0.273606 0)
(0.0197217 0.284909 4.39354e-20)
(0.0213516 0.295731 -4.37261e-20)
(0.0229901 0.30604 0)
(0.024631 0.315809 4.40768e-20)
(0.0262695 0.325011 -4.38339e-20)
(0.0279012 0.33362 0)
(0.0295227 0.341611 0)
(0.0311389 0.348958 0)
(0.0327573 0.355632 -4.41519e-20)
(0.0342572 0.361597 4.38689e-20)
(0.0355185 0.366821 5.0536e-20)
(0.00148751 -0.00585659 -3.26461e-20)
(0.0032258 -0.012551 -3.558e-20)
(0.00399515 -0.0150406 -4.5568e-21)
(0.00408823 -0.0143642 1.39646e-20)
(0.00373273 -0.0112319 -1.89771e-20)
(0.00309667 -0.00614294 1.93014e-20)
(0.00230812 0.000525884 -1.95942e-20)
(0.00146468 0.00848384 -2.9795e-20)
(0.000636777 0.0175047 0)
(-0.00012482 0.0274102 -1.01558e-20)
(-0.000784807 0.0380573 1.02447e-20)
(-0.00131984 0.0493289 0)
(-0.00171521 0.0611266 2.08235e-20)
(-0.00196308 0.0733661 -2.09314e-20)
(-0.00206045 0.0859726 -6.32123e-20)
(-0.00200857 0.0988774 -4.06171e-23)
(-0.00181148 0.112017 4.25235e-20)
(-0.00147451 0.12533 -2.13189e-20)
(-0.00100418 0.138757 0)
(-0.000407979 0.152242 0)
(0.000306017 0.165729 4.31099e-20)
(0.0011296 0.179162 2.1645e-20)
(0.00205413 0.192489 -2.16095e-20)
(0.0030707 0.205658 -2.17434e-20)
(0.00417016 0.218617 4.34728e-20)
(0.00534341 0.23132 -2.17199e-20)
(0.00658172 0.243719 4.3721e-20)
(0.00787675 0.255772 -8.73392e-20)
(0.00922033 0.267439 8.74453e-20)
(0.0106045 0.278681 -8.75398e-20)
(0.0120215 0.289465 8.76222e-20)
(0.0134642 0.299759 -8.76916e-20)
(0.0149264 0.309532 4.37427e-20)
(0.0164031 0.318759 4.40254e-20)
(0.0178894 0.327413 2.64717e-22)
(0.019381 0.335469 2.65142e-22)
(0.0208819 0.3429 -4.37745e-20)
(0.022398 0.349678 1.82157e-22)
(0.0238004 0.355768 -4.37392e-20)
(0.0249648 0.361142 0)
(0.00158597 -0.00583655 4.08542e-21)
(0.00335933 -0.0125303 -4.45174e-21)
(0.00400483 -0.0150827 1.36765e-20)
(0.00388484 -0.0145217 -1.86279e-20)
(0.00325316 -0.0115518 9.49254e-21)
(0.00229947 -0.006665 0)
(0.00116595 -0.000230997 0)
(-4.00054e-05 0.00746596 3.97229e-20)
(-0.00124106 0.0162056 5.02675e-20)
(-0.00238177 0.0258147 -1.01553e-20)
(-0.00342363 0.0361548 5.12753e-20)
(-0.0043409 0.0471125 -1.03326e-20)
(-0.00511709 0.0585932 0)
(-0.00574303 0.0705155 0)
(-0.00621475 0.0828071 4.21333e-20)
(-0.00653253 0.095402 0)
(-0.00669951 0.108238 2.12628e-20)
(-0.00672017 0.121257 -2.13997e-20)
(-0.00660014 0.134403 0)
(-0.00634607 0.147618 -4.30177e-20)
(-0.00596523 0.16085 -2.15112e-20)
(-0.00546493 0.174044 -6.48168e-20)
(-0.00485291 0.187149 -2.17046e-20)
(-0.00413725 0.200115 2.16581e-20)
(-0.00332638 0.212892 4.34895e-20)
(-0.00242855 0.225432 0)
(-0.00145165 0.237691 4.36103e-20)
(-0.000403338 0.249625 8.7431e-20)
(0.000708706 0.261196 2.31239e-22)
(0.00187686 0.272365 -4.36253e-20)
(0.00309364 0.283097 -4.38985e-20)
(0.00435207 0.293362 4.36775e-20)
(0.00564597 0.303128 4.39443e-20)
(0.00696986 0.312369 -8.76565e-20)
(0.00831818 0.321058 8.76586e-20)
(0.0096858 0.329168 -4.38601e-20)
(0.0110755 0.336676 4.36807e-20)
(0.0124913 0.343553 8.75728e-20)
(0.0137968 0.349766 4.36847e-20)
(0.0148627 0.355289 5.00258e-20)
(0.001676 -0.00578979 -3.27207e-20)
(0.00347155 -0.0124465 3.11873e-20)
(0.00398482 -0.0150391 -2.7377e-20)
(0.00364829 -0.0145797 2.79641e-20)
(0.00274145 -0.0117648 4.74938e-20)
(0.00147511 -0.00707697 -3.86447e-20)
(5.08156e-06 -0.000877651 4.90363e-20)
(-0.00155207 0.0065565 2.98217e-20)
(-0.00311259 0.0150117 -7.03894e-20)
(-0.00461676 0.0243202 2.03343e-20)
(-0.00602324 0.0343483 1.02762e-20)
(-0.00730422 0.0449867 2.06943e-20)
(-0.00844172 0.0561446 2.08584e-20)
(-0.00942554 0.0677433 -4.19508e-20)
(-0.0102509 0.0797135 4.219e-20)
(-0.0109173 0.0919914 6.36197e-20)
(-0.011427 0.104517 -6.38276e-20)
(-0.0117838 0.117235 8.54979e-20)
(-0.0119926 0.130089 4.2918e-20)
(-0.0120594 0.143026 6.45696e-20)
(-0.0119906 0.155994 2.16298e-20)
(-0.0117929 0.168939 4.32418e-20)
(-0.0114731 0.181813 -4.33649e-20)
(-0.0110387 0.194566 0)
(-0.0104972 0.207148 -1.306e-19)
(-0.00985622 0.219515 8.71268e-20)
(-0.00912287 0.231621 -4.34026e-20)
(-0.00830421 0.243425 -4.34433e-20)
(-0.00740747 0.254887 1.12805e-22)
(-0.00644002 0.26597 0)
(-0.00540915 0.276639 0)
(-0.00432172 0.286862 4.37588e-20)
(-0.00318402 0.29661 -4.38967e-20)
(-0.00200208 0.305854 4.36548e-20)
(-0.000782228 0.314568 -4.38856e-20)
(0.000469229 0.322725 -4.38731e-20)
(0.00175361 0.330303 0)
(0.00307297 0.337276 -4.35769e-20)
(0.00428431 0.34361 -4.34576e-20)
(0.00525164 0.349283 -1.50161e-19)
(0.00175597 -0.00571609 3.27212e-20)
(0.00355901 -0.0122995 -3.11846e-20)
(0.00393099 -0.0149105 3.64988e-20)
(0.00337442 -0.0145396 -6.52599e-20)
(0.0021939 -0.0118726 -4.74982e-20)
(0.000620579 -0.00738099 3.86446e-20)
(-0.00117668 -0.0014164 -7.84784e-20)
(-0.00307273 0.00575304 -3.97581e-20)
(-0.00497799 0.0139206 5.02964e-20)
(-0.00682896 0.0229244 -9.15067e-20)
(-0.00858176 0.0326358 -6.1576e-20)
(-0.0102069 0.0429499 -2.07189e-20)
(-0.0116852 0.0537794 -6.25441e-20)
(-0.0130058 0.0650489 6.29205e-20)
(-0.0141631 0.0766914 -4.21902e-20)
(-0.0151561 0.0886459 -4.24041e-20)
(-0.0159863 0.100855 0)
(-0.0166568 0.113264 -4.27663e-20)
(-0.0171721 0.125819 -6.44188e-20)
(-0.0175375 0.13847 2.15034e-20)
(-0.0177589 0.151165 -4.31708e-20)
(-0.0178421 0.163853 0)
(-0.0177934 0.176486 4.33652e-20)
(-0.0176193 0.189015 4.3551e-20)
(-0.017327 0.201393 -4.34701e-20)
(-0.0169231 0.213575 0)
(-0.0164142 0.225517 0)
(-0.0158068 0.237179 0)
(-0.0151078 0.248521 1.06933e-23)
(-0.0143244 0.259507 0)
(-0.0134635 0.270101 -8.75985e-20)
(-0.0125322 0.280272 -1.23847e-22)
(-0.0115368 0.289991 -8.75985e-20)
(-0.0104842 0.299228 8.7469e-20)
(-0.00938155 0.307959 -4.35985e-20)
(-0.00823656 0.316157 4.37149e-20)
(-0.00704966 0.323801 0)
(-0.00582096 0.330867 8.7343e-20)
(-0.00469914 0.337321 -4.34227e-20)
(-0.00382839 0.343147 0)
(0.00182429 -0.00561536 4.09476e-21)
(0.00361838 -0.01209 0)
(0.00383941 -0.014698 -4.56674e-20)
(0.00305938 -0.014403 5.59546e-20)
(0.00160716 -0.0118775 2.8525e-20)
(-0.000266654 -0.00757963 -3.86791e-20)
(-0.00238089 -0.00184996 3.92482e-20)
(-0.00460253 0.00505279 -3.97969e-20)
(-0.00683676 0.0129295 0)
(-0.00901674 0.0216248 4.06817e-20)
(-0.0110965 0.0310153 -4.10906e-20)
(-0.0130452 0.0410004 -2.83592e-23)
(-0.0148429 0.0514966 0)
(-0.0164779 0.0624314 4.20179e-20)
(-0.0179445 0.0737409 -2.11215e-20)
(-0.019241 0.085366 4.25258e-20)
(-0.0203685 0.0972518 2.13736e-20)
(-0.0213295 0.109345 -4.2851e-20)
(-0.022128 0.121596 0)
(-0.022769 0.133953 6.47331e-20)
(-0.0232576 0.146367 2.16772e-20)
(-0.0235991 0.158789 0)
(-0.0237991 0.171173 0)
(-0.0238637 0.183469 0)
(-0.0237992 0.195633 4.3547e-20)
(-0.0236117 0.207621 0)
(-0.0233071 0.21939 -4.37621e-20)
(-0.0228914 0.230899 8.7394e-20)
(-0.0223714 0.24211 -8.73289e-20)
(-0.0217538 0.252987 0)
(-0.0210457 0.263496 4.37429e-20)
(-0.0202539 0.273605 -4.3742e-20)
(-0.0193855 0.283285 4.37375e-20)
(-0.0184478 0.292508 0)
(-0.0174494 0.301248 0)
(-0.0163993 0.309481 4.37402e-20)
(-0.0153001 0.317186 -4.34736e-20)
(-0.0141544 0.324343 8.72431e-20)
(-0.0131155 0.33092 -8.66839e-20)
(-0.0123374 0.336902 0)
(0.00187934 -0.00548768 2.86996e-20)
(0.00364642 -0.0118187 8.92581e-21)
(0.00370641 -0.0144031 3.65359e-20)
(0.00269969 -0.0141721 3.73338e-20)
(0.000978347 -0.0117821 -3.80306e-20)
(-0.00118861 -0.00767584 3.86792e-20)
(-0.00360857 -0.00218146 3.92849e-20)
(-0.00614139 0.00445266 3.9797e-20)
(-0.00868769 0.0120357 0)
(-0.0111778 0.0204189 4.07296e-20)
(-0.013564 0.0294844 4.10908e-20)
(-0.0158145 0.0391364 4.14356e-20)
(-0.017909 0.0492949 0)
(-0.0198354 0.0598905 3.80101e-23)
(-0.0215875 0.070862 4.22634e-20)
(-0.0231635 0.0821529 -2.12067e-20)
(-0.024564 0.0937101 -2.12788e-20)
(-0.0257912 0.105483 6.43183e-20)
(-0.0268487 0.117422 6.24903e-23)
(-0.0277411 0.129479 -2.14975e-20)
(-0.0284731 0.141606 -4.32592e-20)
(-0.0290494 0.153755 0)
(-0.0294751 0.165881 0)
(-0.0297556 0.177937 0)
(-0.0298966 0.189878 0)
(-0.0299036 0.201662 0)
(-0.0297819 0.213248 0)
(-0.0295374 0.224594 4.38286e-20)
(-0.0291763 0.235665 -4.36464e-20)
(-0.0287052 0.246423 0)
(-0.0281311 0.256837 0)
(-0.0274611 0.266874 4.37423e-20)
(-0.0267027 0.276506 0)
(-0.0258641 0.285706 4.37933e-20)
(-0.0249551 0.294449 -4.35427e-20)
(-0.0239866 0.302712 0)
(-0.0229636 0.310476 8.72638e-20)
(-0.0218912 0.317724 -8.67176e-20)
(-0.0209264 0.324425 0)
(-0.020235 0.330567 0)
(0.00191959 -0.00533335 -3.2795e-20)
(0.00364006 -0.0114869 -8.92741e-21)
(0.00352855 -0.0140279 9.14136e-21)
(0.00229219 -0.0138496 -3.73338e-20)
(0.000305017 -0.0115895 0)
(-0.0021468 -0.00767305 0)
(-0.00486016 -0.00241442 -2.94601e-20)
(-0.00768863 0.00394918 -9.9555e-21)
(-0.0105289 0.0112357 -2.01604e-20)
(-0.013309 0.0193037 -2.03648e-20)
(-0.0159801 0.0280409 -2.05766e-20)
(-0.0185097 0.0373562 2.07302e-20)
(-0.0208773 0.0471731 2.09006e-20)
(-0.0230707 0.0574257 -2.10344e-20)
(-0.0250836 0.0680552 0)
(-0.026914 0.0790076 0)
(-0.0285622 0.090232 -4.27252e-20)
(-0.0300303 0.101679 0)
(-0.0313216 0.113302 0)
(-0.0324404 0.125054 4.33495e-20)
(-0.033391 0.136887 1.46358e-22)
(-0.0341776 0.148757 1.07112e-22)
(-0.0348047 0.160618 -4.36154e-20)
(-0.0352774 0.172426 4.35219e-20)
(-0.0356007 0.184137 4.36958e-20)
(-0.0357794 0.195709 -4.37415e-20)
(-0.0358185 0.207102 0)
(-0.0357234 0.218277 4.38681e-20)
(-0.0355002 0.229197 1.96876e-22)
(-0.0351551 0.239828 -4.36864e-20)
(-0.0346953 0.250137 0)
(-0.0341279 0.260094 0)
(-0.0334611 0.26967 4.38263e-20)
(-0.0327042 0.27884 -4.35848e-20)
(-0.0318682 0.28758 -4.37285e-20)
(-0.0309662 0.295868 4.34698e-20)
(-0.030006 0.303688 0)
(-0.0289953 0.311027 0)
(-0.0280937 0.317856 0)
(-0.027481 0.324164 -4.96947e-20)
(0.00194355 -0.00515289 4.10464e-20)
(0.00359643 -0.0110962 -1.78692e-20)
(0.00330273 -0.0135749 9.14597e-21)
(0.00183416 -0.0134387 0)
(-0.000414808 -0.0113034 4.75959e-20)
(-0.00314219 -0.00757514 1.25467e-24)
(-0.00613551 -0.00255275 3.9324e-20)
(-0.00924292 0.00353861 -2.98892e-20)
(-0.0123579 0.0105263 4.03337e-20)
(-0.0154069 0.0182763 -2.03773e-20)
(-0.01834 0.0266823 0)
(-0.0211248 0.0356578 2.07718e-20)
(-0.0237407 0.0451302 -6.27166e-20)
(-0.0261757 0.0550367 0)
(-0.0284235 0.0653211 6.36061e-20)
(-0.030482 0.0759317 -4.25787e-20)
(-0.0323517 0.0868196 -4.28055e-20)
(-0.0340345 0.0979379 2.1463e-20)
(-0.0355334 0.10924 0)
(-0.0368525 0.120682 -4.32515e-20)
(-0.037996 0.132217 -4.34789e-20)
(-0.0389674 0.143802 -4.47621e-23)
(-0.039771 0.155392 4.363e-20)
(-0.0404112 0.166946 4.37544e-20)
(-0.0408925 0.178419 -8.73362e-20)
(-0.0412192 0.189772 4.37418e-20)
(-0.0413959 0.200965 0)
(-0.0414277 0.211961 -4.38511e-20)
(-0.0413202 0.222722 4.38563e-20)
(-0.0410797 0.233217 4.38495e-20)
(-0.040713 0.243413 -4.38306e-20)
(-0.040228 0.25328 4.37993e-20)
(-0.0396333 0.262793 0)
(-0.0389392 0.271926 4.37844e-20)
(-0.0381583 0.280657 8.75361e-20)
(-0.037306 0.288967 -8.69215e-20)
(-0.0363932 0.296841 8.71126e-20)
(-0.0354305 0.304271 3.39553e-22)
(-0.0345791 0.311232 -4.31121e-20)
(-0.0340347 0.317713 9.93797e-20)
(0.00194981 -0.00494705 -2.46339e-20)
(0.00351286 -0.0106489 -5.36373e-20)
(0.00302615 -0.0130473 3.6606e-20)
(0.00132327 -0.0129431 -2.80349e-20)
(-0.00118261 -0.010928 -9.50771e-21)
(-0.00417523 -0.00738639 9.68384e-21)
(-0.00743392 -0.00260064 -1.96527e-20)
(-0.0108024 0.00321696 -1.99305e-20)
(-0.0141717 0.00990372 2.01852e-20)
(-0.017467 0.0173335 -4.07974e-20)
(-0.0206383 0.0254061 -2.24729e-23)
(-0.0236533 0.0340395 2.07624e-20)
(-0.0264916 0.0431652 0)
(-0.0291417 0.0527233 -2.11018e-20)
(-0.0315974 0.0626603 -2.12076e-20)
(-0.0338569 0.0729268 4.26269e-20)
(-0.0359207 0.0834758 0)
(-0.0377907 0.0942621 0)
(-0.0394701 0.105241 4.32726e-20)
(-0.0409626 0.116369 -4.32782e-20)
(-0.0422721 0.127602 0)
(-0.0434019 0.138898 4.36559e-20)
(-0.0443559 0.150213 -4.34669e-20)
(-0.0451381 0.161507 -8.74768e-20)
(-0.0457523 0.172737 -1.73815e-22)
(-0.0462024 0.183864 4.38024e-20)
(-0.0464926 0.194851 -8.76755e-20)
(-0.0466277 0.205659 4.38514e-20)
(-0.046613 0.216254 -4.38566e-20)
(-0.0464545 0.226605 1.17725e-22)
(-0.0461592 0.236679 7.28184e-23)
(-0.0457351 0.24645 -4.37995e-20)
(-0.0451917 0.255891 -4.37868e-20)
(-0.0445403 0.264981 -4.3722e-20)
(-0.0437951 0.273698 1.29204e-23)
(-0.0429739 0.282025 0)
(-0.0420913 0.289952 -4.34531e-20)
(-0.041161 0.297474 8.68452e-20)
(-0.0403445 0.304571 -1.29526e-19)
(-0.0398559 0.311231 3.14561e-22)
(0.00193704 -0.00471677 -8.21907e-21)
(0.0033869 -0.0101472 7.15332e-20)
(0.00269637 -0.0124483 -3.66038e-20)
(0.000757666 -0.012367 2.8033e-20)
(-0.00199935 -0.0104677 -7.61979e-20)
(-0.00524578 -0.00711139 9.68748e-21)
(-0.0087541 -0.0025626 -3.93562e-20)
(-0.0123645 0.00298001 0)
(-0.0159665 0.00936426 0)
(-0.0194847 0.0164721 -4.08357e-20)
(-0.0228691 0.0242096 2.06252e-20)
(-0.0260881 0.0324995 1.55072e-23)
(-0.0291218 0.041277 2.094e-20)
(-0.0319593 0.0504854 0)
(-0.0345949 0.0600738 -6.37581e-20)
(-0.0370271 0.0699948 2.13292e-20)
(-0.0392566 0.0802035 -4.29488e-20)
(-0.0412856 0.0906562 0)
(-0.0431172 0.10131 0)
(-0.0447551 0.112122 3.76609e-23)
(-0.0462028 0.123051 -4.34676e-20)
(-0.0474636 0.134054 4.36876e-20)
(-0.0485411 0.145091 -4.38222e-20)
(-0.0494386 0.156121 4.37282e-20)
(-0.0501597 0.167103 4.77313e-23)
(-0.0507078 0.178 5.14954e-23)
(-0.0510867 0.188773 4.39005e-20)
(-0.0513008 0.199388 -4.39839e-20)
(-0.051355 0.20981 0)
(-0.0512552 0.220009 -4.40217e-20)
(-0.0510083 0.229955 4.38119e-20)
(-0.0506229 0.239621 0)
(-0.0501089 0.248984 4.37871e-20)
(-0.0494788 0.258023 -4.39182e-20)
(-0.0487485 0.266721 4.34943e-20)
(-0.0479385 0.275062 0)
(-0.0470671 0.283039 1.30513e-19)
(-0.0461514 0.290653 -8.65142e-20)
(-0.0453523 0.297891 0)
(-0.0449046 0.304739 4.9645e-20)
(0.00190403 -0.00446317 6.5812e-20)
(0.00321639 -0.0095941 -3.57749e-20)
(0.00231134 -0.011782 -9.15475e-21)
(0.000135939 -0.011715 9.35104e-21)
(-0.00286546 -0.00992751 3.81054e-20)
(-0.00635314 -0.0067551 0)
(-0.0100942 -0.00244339 3.93564e-20)
(-0.0139263 0.00282336 5.98745e-20)
(-0.0177381 0.00890404 2.0194e-20)
(-0.0214543 0.0156889 2.03995e-20)
(-0.0250257 0.0230903 2.06154e-20)
(-0.0284214 0.031036 -6.24331e-20)
(-0.0316225 0.0394648 2.09596e-20)
(-0.0346188 0.0483231 8.45561e-20)
(-0.0374053 0.0575627 2.12105e-20)
(-0.0399808 0.0671381 2.13563e-20)
(-0.0423466 0.0770062 4.29491e-20)
(-0.0445052 0.0871248 0)
(-0.0464597 0.0974525 0)
(-0.0482138 0.107948 8.70153e-20)
(-0.0497711 0.118571 -1.74547e-19)
(-0.0511345 0.129281 -4.05588e-23)
(-0.0523075 0.140037 0)
(-0.053293 0.1508 0)
(-0.0540942 0.161531 4.39081e-20)