/*--------------------------------*- C++ -*----------------------------------*\
  =========                 |
  \\      /  F ield         | OpenFOAM: The Open Source CFD Toolbox
   \\    /   O peration     | Website:  https://openfoam.org
    \\  /    A nd           | Version:  7
     \\/     M anipulation  |
\*---------------------------------------------------------------------------*/
FoamFile
{
    version     2.0;
    format      ascii;
    class       volScalarField;
    location    "8.1";
    object      p;
}
// * * * * * * * * * * * * * * * * * * * * * * * * * * * * * * * * * * * * * //

dimensions      [0 2 -2 0 0 0 0];

internalField   nonuniform List<scalar> 
2000
(
0.159602
0.163925
0.167135
0.170663
0.174251
0.177782
0.1812
0.184461
0.187539
0.19044
0.157876
0.16246
0.165796
0.169377
0.172936
0.176364
0.179622
0.182673
0.185476
0.188137
0.15614
0.161034
0.164538
0.168209
0.171771
0.175124
0.178242
0.181099
0.183636
0.186028
0.154411
0.159655
0.163359
0.167154
0.170749
0.174054
0.177058
0.179743
0.182033
0.184126
0.152648
0.158295
0.162234
0.166186
0.169847
0.173134
0.176053
0.178598
0.180676
0.182449
0.1508
0.156918
0.161131
0.165276
0.169033
0.172332
0.175198
0.177644
0.179568
0.181022
0.148812
0.155493
0.160018
0.164385
0.168264
0.171601
0.174442
0.176834
0.178689
0.17987
0.146633
0.153987
0.158857
0.163471
0.167488
0.170878
0.173715
0.1761
0.178023
0.179089
0.14422
0.15237
0.157614
0.162485
0.16664
0.170079
0.172919
0.175365
0.177646
0.179064
0.141545
0.15062
0.156253
0.161375
0.165638
0.169067
0.171823
0.17424
0.176871
0.179063
0.196779
0.205329
0.210699
0.215522
0.218978
0.221794
0.223868
0.225346
0.226267
0.226768
0.194641
0.202546
0.207846
0.21256
0.216001
0.218808
0.22089
0.222376
0.223306
0.223818
0.192526
0.199872
0.205037
0.209626
0.213043
0.215843
0.217937
0.219438
0.22038
0.220909
0.190405
0.197321
0.202282
0.206735
0.210116
0.212907
0.215016
0.216534
0.217493
0.218039
0.188244
0.194893
0.19959
0.203896
0.20723
0.210008
0.21213
0.213667
0.214643
0.215204
0.186019
0.192581
0.196967
0.201116
0.204394
0.207152
0.209285
0.21084
0.211831
0.212402
0.183716
0.190355
0.194417
0.198401
0.201611
0.204343
0.206482
0.208051
0.209055
0.209629
0.181247
0.188091
0.191886
0.195716
0.198863
0.201568
0.203714
0.205297
0.206311
0.20688
0.178627
0.1856
0.189255
0.192983
0.196103
0.198801
0.200964
0.202567
0.203594
0.204152
0.1777
0.18361
0.186928
0.1905
0.193571
0.196224
0.198358
0.199933
0.200932
0.201448
0.186347
0.18448
0.185073
0.187222
0.189418
0.191387
0.192982
0.194118
0.194795
0.195106
0.170342
0.171919
0.174018
0.176871
0.179335
0.181295
0.182796
0.183846
0.184477
0.184765
0.151183
0.15622
0.160339
0.164484
0.167764
0.170143
0.171825
0.172946
0.173605
0.173904
0.130525
0.138391
0.144577
0.150213
0.154613
0.157717
0.15981
0.161148
0.161918
0.162258
0.108421
0.118345
0.126475
0.133647
0.139304
0.143319
0.145967
0.147586
0.14847
0.148856
0.0851299
0.0963469
0.105993
0.114494
0.121361
0.126399
0.129822
0.131981
0.133201
0.133722
0.0621222
0.0735488
0.0840151
0.0932863
0.100859
0.106472
0.110267
0.112598
0.113863
0.114427
0.0384566
0.0496069
0.0600255
0.069452
0.0773829
0.0835316
0.087933
0.0908142
0.0924759
0.0931663
0.0188437
0.027662
0.0366306
0.0444217
0.050757
0.0555024
0.0587475
0.0607606
0.0618759
0.0624346
-0.00680643
0.002669
0.00994496
0.0160544
0.0211621
0.0251878
0.0280658
0.0299047
0.0308972
0.0312063
0.170247
0.155956
0.13934
0.119673
0.0986501
0.0760629
0.0548902
0.0307818
0.0170085
-0.0160672
0.169244
0.152523
0.135388
0.115098
0.0939034
0.0714173
0.0509235
0.0270233
0.0156645
-0.0197894
0.16755
0.148412
0.130753
0.110078
0.0888786
0.0666775
0.0468506
0.0234471
0.0139623
-0.0231334
0.164452
0.143895
0.125927
0.105124
0.0840613
0.0622551
0.0430728
0.0202773
0.0122387
-0.026477
0.160504
0.139316
0.121094
0.100296
0.0794458
0.0581065
0.0395505
0.0174871
0.0104692
-0.0302648
0.155987
0.134794
0.116338
0.0956333
0.0750522
0.0542358
0.0362938
0.0151142
0.00873671
-0.0337083
0.151144
0.130393
0.111747
0.0911979
0.0709278
0.0506739
0.0333404
0.013198
0.00737376
-0.0324903
0.146282
0.126187
0.107411
0.0870489
0.0671134
0.0474424
0.030713
0.0117258
0.0064687
-0.0269511
0.14172
0.122258
0.103407
0.0832374
0.0636405
0.0445535
0.0284155
0.0106342
0.00584429
-0.0218301
0.137741
0.118693
0.0997956
0.0798054
0.060533
0.0420132
0.0264449
0.00982664
0.00484937
-0.0171444
0.134562
0.115584
0.0966274
0.076785
0.0578077
0.0398228
0.0247959
0.0092884
0.00415772
-0.0133155
0.132327
0.113019
0.0939405
0.0741993
0.0554746
0.0379787
0.0234603
0.00901832
0.00372929
-0.0101774
0.131104
0.111088
0.0917687
0.0720671
0.0535404
0.0364758
0.02241
0.00893088
0.00353664
-0.00758394
0.1309
0.109864
0.0901372
0.0703991
0.0520069
0.0353095
0.0216434
0.00899486
0.00352432
-0.00545768
0.131662
0.109379
0.0890426
0.0691883
0.0508685
0.0344724
0.0211449
0.00920076
0.00365605
-0.00373414
0.133265
0.10957
0.088433
0.0683984
0.050101
0.0339391
0.0208942
0.00953609
0.0039065
-0.00234851
0.13556
0.110436
0.0883144
0.0680055
0.0496637
0.0336762
0.0208587
0.00998126
0.004254
-0.00123841
0.138639
0.112575
0.0890218
0.0681675
0.049622
0.0336919
0.0210237
0.0105248
0.00468541
-0.000343502
0.142892
0.116403
0.0910372
0.0692482
0.0502459
0.0341706
0.0214891
0.0112209
0.00521006
0.000390074
0.14506
0.119242
0.0929837
0.0706897
0.0514583
0.0352529
0.0224029
0.0121775
0.00583322
0.000973002
0.140275
0.118864
0.0942136
0.0729323
0.0545239
0.0386798
0.0254871
0.0150124
0.00748915
0.0019836
0.131843
0.110393
0.0867085
0.0668023
0.0503284
0.0366803
0.0254164
0.0162408
0.00890175
0.00275419
0.126809
0.105513
0.0841063
0.0661902
0.0510351
0.0382404
0.0273935
0.0182129
0.0103619
0.00332747
0.125556
0.104467
0.0844517
0.0678394
0.0533987
0.0409082
0.0299784
0.0203805
0.0117979
0.00383553
0.12804
0.107028
0.0874518
0.0711334
0.056656
0.0439549
0.0326305
0.0224648
0.0131323
0.00429756
0.133326
0.111946
0.0921367
0.0754364
0.0604648
0.0472296
0.0353081
0.0244747
0.0143831
0.00472538
0.140181
0.118035
0.0976159
0.0801795
0.0644961
0.050567
0.0379482
0.0263988
0.0155554
0.00512258
0.147363
0.124278
0.103138
0.0848425
0.0683798
0.0537102
0.0403838
0.0281419
0.0166041
0.00547695
0.153489
0.129559
0.10779
0.0887205
0.0715731
0.0562584
0.0423322
0.0295207
0.0174273
0.00575527
0.157068
0.132624
0.1105
0.0909598
0.0734105
0.0577132
0.0434382
0.0302972
0.0178862
0.0059076
0.172077
0.165888
0.157474
0.15229
0.151151
0.153859
0.159114
0.165421
0.171113
0.174562
0.17939
0.172595
0.164564
0.15962
0.158598
0.161373
0.166626
0.172915
0.178595
0.182109
0.185048
0.176713
0.168277
0.163981
0.163893
0.167545
0.173408
0.180064
0.185933
0.189573
0.191421
0.181987
0.173045
0.169002
0.16946
0.173739
0.180119
0.187145
0.193236
0.197014
0.19809
0.188009
0.178942
0.175109
0.175856
0.180469
0.187149
0.194415
0.200659
0.20453
0.204853
0.194297
0.185314
0.181754
0.182746
0.187592
0.194468
0.201886
0.208217
0.212129
0.211701
0.200803
0.191983
0.188695
0.189901
0.194933
0.201958
0.209484
0.215864
0.219778
0.217957
0.207474
0.198921
0.195886
0.197256
0.202418
0.209549
0.21715
0.223552
0.22744
0.224678
0.214256
0.206044
0.203269
0.204767
0.210006
0.217197
0.224838
0.231242
0.23508
0.231009
0.221006
0.213237
0.210745
0.212358
0.217636
0.22485
0.232503
0.238892
0.242666
0.236882
0.227593
0.220374
0.218204
0.219937
0.225235
0.232446
0.240091
0.246456
0.250157
0.242295
0.233906
0.227328
0.225528
0.227403
0.232719
0.239916
0.247541
0.253881
0.25751
0.247201
0.239842
0.233988
0.232609
0.23466
0.240005
0.247188
0.254792
0.261112
0.264675
0.251555
0.245308
0.240251
0.23934
0.241613
0.247012
0.254193
0.261783
0.268091
0.271604
0.255343
0.250234
0.246033
0.245633
0.248175
0.253661
0.260863
0.268451
0.274762
0.278245
0.25858
0.254585
0.25128
0.251418
0.254274
0.259886
0.267137
0.274744
0.281073
0.284548
0.261295
0.258347
0.255951
0.25664
0.25985
0.265627
0.272962
0.280611
0.286975
0.290465
0.263491
0.261481
0.259962
0.261193
0.264791
0.270791
0.278266
0.286
0.292424
0.295956
0.265188
0.264026
0.263311
0.265025
0.269009
0.275276
0.282961
0.290848
0.297381
0.300989
0.266712
0.266627
0.266816
0.269019
0.273307
0.2797
0.287435
0.295336
0.301878
0.305524
0.270474
0.274333
0.278026
0.282512
0.287943
0.294209
0.300836
0.30711
0.312105
0.314873
0.275664
0.280747
0.286164
0.292176
0.298718
0.305493
0.311986
0.317598
0.321741
0.323933
0.281009
0.286513
0.292665
0.299214
0.305945
0.312503
0.318402
0.323162
0.326433
0.328072
0.285396
0.29137
0.29797
0.304739
0.311358
0.317418
0.322463
0.326137
0.328332
0.329265
0.288347
0.294896
0.301852
0.308776
0.315281
0.320908
0.325192
0.327844
0.328922
0.328996
0.290023
0.297302
0.304624
0.311746
0.318248
0.323609
0.327312
0.329041
0.328915
0.327698
0.290904
0.29912
0.306797
0.314196
0.32084
0.32614
0.329465
0.330332
0.328785
0.325113
0.292063
0.301038
0.308977
0.316723
0.323595
0.328966
0.332015
0.331862
0.328464
0.319091
0.294677
0.303932
0.312127
0.320352
0.327525
0.33297
0.335706
0.334964
0.329781
0.311029
0.301683
0.311042
0.32049
0.330549
0.339978
0.348421
0.35602
0.361735
0.348518
0.2628
0.267888
0.271279
0.276301
0.280795
0.284093
0.286637
0.288629
0.290907
0.292847
0.298247
0.266441
0.27028
0.275295
0.279613
0.282821
0.285283
0.287261
0.289672
0.291455
0.29642
0.264899
0.269836
0.274887
0.278908
0.281822
0.283946
0.285614
0.287811
0.289451
0.294023
0.263324
0.269205
0.274241
0.27803
0.280678
0.282515
0.283911
0.285877
0.287353
0.291527
0.261816
0.268412
0.273352
0.276991
0.27939
0.280995
0.282188
0.283977
0.285314
0.289136
0.260411
0.267525
0.272406
0.275864
0.278034
0.279423
0.280439
0.282075
0.283303
0.286837
0.259126
0.266559
0.271425
0.27469
0.276644
0.277823
0.278672
0.280162
0.281298
0.284591
0.257974
0.265513
0.27041
0.273486
0.275238
0.276214
0.276905
0.27825
0.279315
0.282395
0.256932
0.26439
0.269382
0.272274
0.273836
0.274615
0.275154
0.276358
0.277365
0.280257
0.255988
0.263206
0.268364
0.271077
0.272461
0.273047
0.273435
0.274506
0.275465
0.278178
0.25512
0.261978
0.267377
0.269918
0.271135
0.271529
0.271763
0.272703
0.273619
0.276181
0.254294
0.260727
0.266437
0.268821
0.269881
0.270078
0.270149
0.270957
0.271835
0.274283
0.253458
0.259473
0.265549
0.267803
0.268717
0.26871
0.268605
0.269274
0.270124
0.272492
0.252541
0.258237
0.264716
0.266881
0.267658
0.267441
0.267141
0.26766
0.268494
0.270822
0.251457
0.257036
0.263931
0.266067
0.266718
0.266282
0.265764
0.26612
0.266954
0.269288
0.250111
0.255882
0.263183
0.265368
0.265907
0.265246
0.264484
0.264656
0.265509
0.267913
0.248418
0.254794
0.26247
0.264792
0.265236
0.264343
0.263302
0.263268
0.264167
0.266722
0.246234
0.253746
0.261787
0.264354
0.264717
0.263559
0.262176
0.2619
0.262907
0.265745
0.243052
0.252493
0.261009
0.263983
0.264313
0.262875
0.261073
0.260489
0.261673
0.265008
0.238857
0.250819
0.259853
0.263402
0.26393
0.262503
0.260557
0.259749
0.260924
0.264594
0.233473
0.247827
0.257009
0.261732
0.263523
0.26364
0.263366
0.263732
0.264714
0.26616
0.240224
0.251369
0.258594
0.262132
0.262974
0.262348
0.261622
0.261948
0.263349
0.264772
0.245064
0.254448
0.260265
0.262741
0.262708
0.261454
0.260482
0.260961
0.262857
0.264621
0.248346
0.256583
0.261439
0.26307
0.262356
0.260801
0.260282
0.262056
0.265739
0.268415
0.251119
0.258539
0.262484
0.263145
0.261652
0.259823
0.260458
0.265144
0.27295
0.278104
0.253702
0.260551
0.263594
0.263042
0.260316
0.258699
0.261688
0.271907
0.287777
0.29863
0.256329
0.262958
0.265383
0.263821
0.260318
0.259398
0.266616
0.28626
0.316297
0.339237
0.259265
0.266353
0.269115
0.267724
0.264921
0.266673
0.281195
0.3158
0.36977
0.420343
0.262529
0.271018
0.275573
0.276176
0.276088
0.282667
0.307717
0.363142
0.4543
0.563456
0.265526
0.275927
0.283359
0.287825
0.293733
0.311172
0.352714
0.437183
0.590227
0.812865
0.223011
0.232902
0.237772
0.242117
0.245737
0.248918
0.251715
0.254227
0.256357
0.258237
0.218223
0.229799
0.234786
0.23956
0.243377
0.246659
0.249429
0.251767
0.253546
0.255027
0.215249
0.227678
0.23255
0.237447
0.241175
0.244336
0.246932
0.249055
0.250596
0.251777
0.212757
0.225421
0.230224
0.235199
0.238826
0.241866
0.244298
0.246232
0.247588
0.248542
0.21038
0.22282
0.227643
0.232701
0.236271
0.239237
0.241551
0.243337
0.244546
0.245329
0.208041
0.220024
0.224918
0.230037
0.233565
0.236483
0.23871
0.240385
0.241482
0.242142
0.205728
0.217122
0.222127
0.227262
0.230756
0.233637
0.235799
0.237391
0.23841
0.238987
0.203438
0.214111
0.219343
0.224399
0.22787
0.230725
0.232841
0.234376
0.235344
0.235869
0.201179
0.211126
0.21648
0.22147
0.224933
0.227768
0.229856
0.231355
0.232292
0.232793
0.198957
0.208197
0.213584
0.218499
0.221962
0.224787
0.22686
0.228342
0.229265
0.229759
0.138599
0.148723
0.15475
0.160099
0.164415
0.167714
0.170134
0.171825
0.172509
0.170759
0.135371
0.146676
0.153096
0.158646
0.162978
0.166117
0.168203
0.169337
0.169076
0.166676
0.131955
0.144516
0.151305
0.157022
0.161338
0.164309
0.166113
0.166868
0.166231
0.163974
0.128447
0.142288
0.149402
0.155236
0.159498
0.162283
0.163814
0.164247
0.163371
0.161287
0.124965
0.14005
0.147428
0.153321
0.157481
0.160056
0.16132
0.161471
0.160435
0.158497
0.121652
0.137883
0.145446
0.151331
0.155345
0.157688
0.158688
0.158586
0.157425
0.155574
0.118678
0.135887
0.143543
0.149351
0.153174
0.155268
0.156006
0.155663
0.154376
0.152528
0.116237
0.134189
0.141833
0.147493
0.151089
0.152918
0.153393
0.152813
0.151376
0.149443
0.114535
0.132937
0.140455
0.145899
0.149235
0.150791
0.151001
0.150179
0.14856
0.14646
0.113694
0.13224
0.139534
0.144708
0.147764
0.149045
0.148993
0.147924
0.146088
0.143756
0.113666
0.132108
0.139135
0.144024
0.146807
0.147827
0.147523
0.146205
0.144125
0.14152
0.115106
0.132982
0.139611
0.144145
0.146622
0.147365
0.146794
0.145207
0.142845
0.139941
0.118088
0.134939
0.141063
0.14519
0.147337
0.147788
0.146932
0.145052
0.142376
0.13916
0.122686
0.138074
0.143609
0.147286
0.149077
0.149214
0.148046
0.145837
0.142807
0.139277
0.128988
0.142496
0.147363
0.150542
0.151941
0.151727
0.150206
0.147619
0.144185
0.140333
0.137024
0.148271
0.152395
0.155023
0.155984
0.155373
0.153446
0.15042
0.146517
0.142304
0.146753
0.15541
0.158724
0.160744
0.161213
0.160153
0.157767
0.154238
0.149775
0.145094
0.158064
0.163865
0.166306
0.167663
0.167591
0.166035
0.163141
0.15903
0.153847
0.148525
0.170766
0.173522
0.175039
0.175686
0.175041
0.172978
0.169564
0.164783
0.158567
0.152196
0.184587
0.1842
0.184762
0.184664
0.183447
0.180943
0.177157
0.171915
0.16488
0.157413
0.199242
0.19569
0.195265
0.19439
0.192606
0.189756
0.185885
0.180914
0.174953
0.170999
0.214611
0.207799
0.206305
0.204591
0.202196
0.19896
0.194916
0.190052
0.184689
0.181288
0.230089
0.220126
0.217549
0.214965
0.211924
0.208249
0.20394
0.199005
0.193755
0.189957
0.245197
0.232325
0.228689
0.225235
0.221536
0.217399
0.212788
0.207705
0.202386
0.198165
0.25953
0.244072
0.239434
0.235141
0.230805
0.226219
0.221309
0.216061
0.210633
0.206054
0.272719
0.255065
0.249513
0.244448
0.239532
0.234546
0.229381
0.224007
0.218518
0.213689
0.28444
0.265033
0.25869
0.252957
0.247549
0.242241
0.236897
0.231477
0.226027
0.221088
0.294439
0.273753
0.266771
0.260501
0.254717
0.249189
0.24376
0.238383
0.233076
0.228113
0.302528
0.281057
0.27361
0.266956
0.260929
0.2553
0.249891
0.244655
0.239586
0.234776
0.308565
0.286817
0.279103
0.272237
0.266114
0.260506
0.255226
0.250224
0.24548
0.240923
0.312464
0.290956
0.283199
0.276307
0.270238
0.264775
0.259726
0.255047
0.250713
0.246507
0.314511
0.293573
0.285923
0.279161
0.273281
0.268079
0.263358
0.259079
0.255231
0.251472
0.314734
0.294696
0.287315
0.280835
0.275274
0.270438
0.266129
0.262313
0.259003
0.255765
0.313249
0.294412
0.287454
0.281396
0.276271
0.271892
0.268065
0.264762
0.26202
0.259352
0.310236
0.292853
0.286448
0.280933
0.276343
0.272498
0.269209
0.266452
0.264292
0.262225
0.305909
0.290171
0.284424
0.279552
0.275577
0.272327
0.26962
0.267432
0.265852
0.264395
0.300492
0.286533
0.281526
0.277371
0.274074
0.271463
0.269367
0.267761
0.266747
0.265892
0.294217
0.282114
0.277901
0.274516
0.271937
0.269996
0.268529
0.267507
0.267038
0.266757
0.287313
0.277088
0.273697
0.27111
0.269274
0.268017
0.267186
0.266747
0.266792
0.267034
0.280004
0.271625
0.269056
0.267275
0.266187
0.265615
0.265417
0.265555
0.26609
0.266805
0.272468
0.265868
0.264103
0.263114
0.262764
0.262866
0.263285
0.263987
0.264996
0.266119
0.264743
0.259902
0.258938
0.258725
0.259093
0.259847
0.260854
0.262092
0.263608
0.265081
0.257086
0.253893
0.253685
0.254207
0.255255
0.256625
0.258183
0.259905
0.261853
0.263609
0.24966
0.247959
0.248441
0.249639
0.251319
0.253264
0.255333
0.257499
0.259823
0.261844
0.242562
0.242182
0.243278
0.245088
0.247344
0.249818
0.252361
0.254937
0.257603
0.259899
0.235872
0.236621
0.238253
0.240605
0.243379
0.246334
0.249315
0.25227
0.255248
0.257836
0.22964
0.231319
0.23341
0.236231
0.239462
0.242849
0.246229
0.249533
0.252793
0.255669
0.223884
0.226304
0.228776
0.231994
0.23562
0.239389
0.243129
0.246754
0.250267
0.253384
0.218608
0.22158
0.224361
0.227909
0.231871
0.235972
0.240033
0.243949
0.247693
0.251076
0.213894
0.217194
0.220194
0.223996
0.228231
0.232613
0.236955
0.241129
0.245075
0.248728
0.209962
0.213279
0.216358
0.220309
0.224735
0.229334
0.233906
0.238301
0.242415
0.246325
0.206204
0.209524
0.212679
0.216753
0.221334
0.226111
0.230878
0.235459
0.239707
0.24385
0.202706
0.205984
0.209187
0.213345
0.218037
0.22295
0.227869
0.232601
0.236944
0.241284
0.199495
0.202673
0.205887
0.210085
0.214846
0.219849
0.22488
0.229723
0.234118
0.238604
0.196531
0.199565
0.202758
0.206962
0.211754
0.216809
0.22191
0.226825
0.231224
0.235787
0.193767
0.196632
0.199783
0.203966
0.208758
0.213831
0.218966
0.223916
0.228269
0.232813
0.191163
0.193849
0.196945
0.201088
0.205855
0.210919
0.21606
0.221016
0.22528
0.229694
0.188682
0.191196
0.19423
0.198318
0.203045
0.208082
0.213209
0.218158
0.22231
0.226454
0.186293
0.188655
0.191626
0.195653
0.200328
0.205328
0.21043
0.215357
0.219355
0.222989
0.183973
0.186212
0.189123
0.193086
0.19771
0.202683
0.207777
0.212723
0.216765
0.219968
0.181687
0.183847
0.186701
0.190601
0.195175
0.200151
0.205334
0.210688
0.21651
0.222468
0.179304
0.181499
0.184333
0.188175
0.192679
0.197592
0.202712
0.207981
0.213803
0.219477
0.176907
0.17921
0.182035
0.185812
0.190213
0.194996
0.199952
0.204982
0.210364
0.215514
0.174524
0.17699
0.179814
0.183523
0.187805
0.192428
0.197198
0.202012
0.207067
0.211906
0.172163
0.17484
0.177675
0.181321
0.185477
0.18993
0.194502
0.199108
0.203874
0.208123
0.169835
0.172767
0.175629
0.179219
0.183253
0.187533
0.191902
0.196286
0.200756
0.204644
0.167559
0.170779
0.173685
0.177231
0.18115
0.185261
0.189429
0.193589
0.197779
0.201449
0.165349
0.16888
0.171848
0.175368
0.179183
0.183133
0.187105
0.191039
0.194953
0.19844
0.163221
0.16707
0.170122
0.173635
0.177363
0.181164
0.184945
0.188654
0.192291
0.195598
0.16125
0.165385
0.168528
0.17205
0.175706
0.179369
0.182967
0.186453
0.189812
0.192927
)
;

boundaryField
{
    inlet
    {
        type            zeroGradient;
    }
    outlet
    {
        type            fixedValue;
        value           uniform 0;
    }
    cylinder
    {
        type            zeroGradient;
    }
    top
    {
        type            symmetryPlane;
    }
    bottom
    {
        type            symmetryPlane;
    }
    defaultFaces
    {
        type            empty;
    }
}


// ************************************************************************* //
