0 	0.516667 	0.5 	0.0148541 	0.000611325 	-2.02429e-22
0 	0.55 	0.5 	0.0437278 	0.00485048 	-1.58625e-23
0 	0.583333 	0.5 	0.0716213 	0.0131761 	-2.52122e-22
0 	0.616667 	0.5 	0.0983903 	0.023516 	-2.88825e-22
0 	0.65 	0.5 	0.123959 	0.0353673 	-2.67859e-22
0 	0.683333 	0.5 	0.148299 	0.0481606 	-3.94852e-23
0 	0.716667 	0.5 	0.171409 	0.0614952 	-3.36598e-22
0 	0.75 	0.5 	0.193301 	0.0750726 	-3.04669e-22
0 	0.783333 	0.5 	0.213999 	0.0886664 	-4.42376e-23
0 	0.816667 	0.5 	0.233533 	0.102105 	-3.67727e-22
0 	0.85 	0.5 	0.251936 	0.115257 	0
0 	0.883333 	0.5 	0.269244 	0.128025 	-3.80892e-22
0 	0.916667 	0.5 	0.285495 	0.140335 	-9.67005e-23
0 	0.95 	0.5 	0.300728 	0.152133 	-2.92586e-22
0 	0.983333 	0.5 	0.314982 	0.163382 	-3.91552e-22
0 	1.01667 	0.5 	0.328297 	0.174057 	-3.931e-22
0 	1.05 	0.5 	0.340713 	0.184144 	1.9701e-22
0 	1.08333 	0.5 	0.352269 	0.193636 	-5.89566e-22
0 	1.11667 	0.5 	0.363004 	0.202535 	1.96421e-22
0 	1.15 	0.5 	0.372956 	0.210847 	-3.90639e-22
0 	1.18333 	0.5 	0.382161 	0.218585 	1.94115e-22
0 	1.21667 	0.5 	0.390654 	0.225764 	-3.87441e-22
0 	1.25 	0.5 	0.39847 	0.232402 	0
0 	1.28333 	0.5 	0.405638 	0.238521 	0
0 	1.31667 	0.5 	0.412188 	0.244144 	-3.78086e-22
0 	1.35 	0.5 	0.418145 	0.249296 	0
0 	1.38333 	0.5 	0.423531 	0.254001 	-3.70402e-22
0 	1.41667 	0.5 	0.428365 	0.258287 	0
0 	1.45 	0.5 	0.432658 	0.262173 	-3.60554e-22
0 	1.48333 	0.5 	0.436415 	0.265702 	3.9752e-22
0 	1.575 	0.5 	0.445286 	0.27469 	0
0 	1.725 	0.5 	0.455453 	0.283633 	-1.15005e-22
0 	1.875 	0.5 	0.459554 	0.286762 	-1.12139e-22
0 	2.025 	0.5 	0.460193 	0.285909 	0
0 	2.175 	0.5 	0.457671 	0.281207 	-1.03142e-22
0 	2.325 	0.5 	0.452794 	0.273561 	0
