/*--------------------------------*- C++ -*----------------------------------*\
  =========                 |
  \\      /  F ield         | OpenFOAM: The Open Source CFD Toolbox
   \\    /   O peration     | Website:  https://openfoam.org
    \\  /    A nd           | Version:  7
     \\/     M anipulation  |
\*---------------------------------------------------------------------------*/
FoamFile
{
    version     2.0;
    format      ascii;
    class       surfaceScalarField;
    location    "49";
    object      phi;
}
// * * * * * * * * * * * * * * * * * * * * * * * * * * * * * * * * * * * * * //

dimensions      [0 3 -1 0 0 0 0];

internalField   nonuniform List<scalar> 
3880
(
-0.000130436
-0.00010777
0.000238206
-0.000261568
5.53812e-05
7.57506e-05
-0.000300612
0.000465254
-0.00042621
-0.000191629
0.00107198
-0.00118096
0.000104014
0.00187391
-0.00216956
0.00061385
0.00288187
-0.0033917
0.00135379
0.00410497
-0.00484491
0.00232473
0.00554426
-0.00651521
0.00350742
0.00718995
-0.00837264
0.0090184
0.00485377
-0.0103648
-0.000131004
2.32337e-05
-0.000255109
0.000179486
-0.000286494
0.000496638
-0.000176069
0.000961557
0.000110911
0.00158693
0.000602493
0.00239028
0.00132026
0.00338721
0.00227507
0.00458945
0.00345953
0.0060055
0.00764493
0.004833
-0.000118314
0.000141547
-0.000209989
0.00027116
-0.000200878
0.000487526
-5.25699e-05
0.000813249
0.000260991
0.00127337
0.000763565
0.00188771
0.00147733
0.00267345
0.00241961
0.00364716
0.00359474
0.00483037
0.0062654
0.00497427
-9.11642e-05
0.000232711
-0.000122299
0.000302295
-3.48901e-05
0.000400117
0.00019526
0.000583098
0.000582808
0.000885824
0.00114175
0.00132877
0.00188914
0.00192605
0.00284337
0.00269294
0.00401785
0.00365589
0.00488203
0.00540122
-4.95584e-05
0.00028227
8.43111e-06
0.000244305
0.00021298
0.000195568
0.000573374
0.000222704
0.00108957
0.000369631
0.00176262
0.000655713
0.00259918
0.00108949
0.00361238
0.00167974
0.00481952
0.00244874
0.00347245
0.0062291
7.30987e-06
0.00027496
0.000178873
7.27424e-05
0.000536749
-0.000162308
0.00107248
-0.000313031
0.00177082
-0.000328703
0.00261814
-0.000191612
0.00360729
0.000100343
0.00474078
0.000546246
0.0060329
0.00115663
0.00199571
0.00750964
7.30354e-05
0.000201924
0.00038144
-0.000235663
0.00092112
-0.000701988
0.00166689
-0.0010588
0.00258848
-0.00125029
0.00365776
-0.0012609
0.00485332
-0.00109521
0.0061636
-0.000764039
0.00759345
-0.000273221
0.000411015
0.00917815
0.000147964
5.396e-05
0.000606027
-0.000693726
0.00134343
-0.00143939
0.00231615
-0.00203152
0.00347902
-0.00241316
0.00479091
-0.00257278
0.00621742
-0.00252173
0.0077334
-0.00228002
0.00932984
-0.00186966
-0.00129975
0.0110406
0.000227778
-0.000173818
0.000840022
-0.00130597
0.00177541
-0.00237478
0.00296897
-0.00322509
0.00436085
-0.00380504
0.00589961
-0.00411154
0.00754223
-0.00416434
0.00925245
-0.00399024
0.0110034
-0.00362059
-0.0031186
0.0128222
0.000308699
-0.000482517
0.00106932
-0.00206659
0.00218521
-0.00349067
0.00356785
-0.00460773
0.00514332
-0.00538052
0.0068546
-0.00582282
0.00866006
-0.0059698
0.010528
-0.00585818
0.0124207
-0.00551331
0.0142579
-0.00495584
0.0084832
0.0487796
-0.052409
0.0104566
0.0784983
-0.0804717
0.0104051
0.102739
-0.102687
0.0093727
0.123848
-0.122816
0.00796874
0.145307
-0.143903
0.00643123
0.169317
-0.16778
0.00481008
0.197344
-0.195722
0.00306423
0.230334
-0.228588
0.00135803
0.272211
-0.270505
0.319981
-0.318623
0.00888372
0.0447288
0.0116663
0.0757157
0.0120781
0.102327
0.011214
0.124712
0.0098205
0.1467
0.00818751
0.17095
0.00637165
0.199159
0.00431169
0.232394
0.00209961
0.274423
0.322081
0.00918025
0.0405229
0.012768
0.0721279
0.0137148
0.10138
0.0130646
0.125362
0.0116923
0.148072
0.0099637
0.172679
0.0079462
0.201177
0.00556664
0.234773
0.00284382
0.277146
0.324924
0.00943303
0.0364911
0.0137159
0.067845
0.0152683
0.0998279
0.0148868
0.125744
0.0135556
0.149404
0.0117368
0.174498
0.00951992
0.203394
0.00681956
0.237474
0.00358543
0.28038
0.32851
0.00974123
0.0329789
0.0144764
0.0631098
0.0166925
0.0976118
0.0166439
0.125793
0.0153824
0.150665
0.0134826
0.176397
0.011073
0.205803
0.00805777
0.240489
0.00431997
0.284118
0.33283
0.0102149
0.0302737
0.0150453
0.0582794
0.0179456
0.0947115
0.018294
0.125444
0.0171393
0.15182
0.0151771
0.17836
0.0125876
0.208393
0.00926936
0.243807
0.00503881
0.288349
0.337869
0.0109333
0.0285186
0.0154635
0.0537491
0.0189967
0.0911783
0.0198119
0.124629
0.018814
0.152818
0.0168085
0.180365
0.0140533
0.211148
0.010446
0.247415
0.0057407
0.293054
0.343609
0.0119002
0.027659
0.0158085
0.0498408
0.0198127
0.0871742
0.021127
0.123315
0.0203408
0.153604
0.0183298
0.182376
0.0154345
0.214043
0.0115634
0.251286
0.00640997
0.298207
0.350019
0.0130023
0.0274788
0.0161456
0.0466976
0.020441
0.0828788
0.0223203
0.121435
0.0217947
0.154129
0.0197876
0.184383
0.0167662
0.217065
0.0126405
0.255411
0.00705833
0.303789
0.357078
0.0140616
0.0276752
0.0164874
0.0442718
0.0207398
0.0786263
0.0231567
0.119018
0.0230328
0.154253
0.0211198
0.186296
0.0180403
0.220144
0.0136608
0.259791
0.00771589
0.309734
0.364793
0.0439248
0.0371006
-0.0533502
0.0349791
0.0532174
0.0317797
0.0818257
0.029181
0.121617
0.0247166
0.158718
0.0193933
0.191619
0.0140128
0.225525
0.00859137
0.265212
0.00348855
0.314837
0.368282
0.0481061
0.0419905
-0.052996
0.0400403
0.0612833
0.0345162
0.0873499
0.0307548
0.125379
0.0256338
0.163839
0.0195352
0.197718
0.0135931
0.231467
0.00806007
0.270745
0.00322535
0.319672
0.371507
0.0470848
0.0443557
-0.0494501
0.0412119
0.0671561
0.0351897
0.0933722
0.0304554
0.130113
0.0253125
0.168982
0.0195671
0.203463
0.0138829
0.237151
0.00837244
0.276256
0.00343569
0.324609
0.374943
0.0425325
0.0452746
-0.0434513
0.0390823
0.0706063
0.0342748
0.0981797
0.029556
0.134832
0.0242018
0.174336
0.0182218
0.209443
0.0125223
0.24285
0.00741688
0.281361
0.00299184
0.329034
0.377935
0.0358047
0.0454697
-0.0359998
0.0339468
0.0724643
0.0304784
0.101648
0.0267383
0.138572
0.0225717
0.178502
0.0176964
0.214319
0.0125298
0.248017
0.0074929
0.286398
0.00301618
0.33351
0.380951
0.0280992
0.0449721
-0.0276017
0.0277416
0.0728218
0.0257761
0.103614
0.0227965
0.141551
0.0189178
0.182381
0.0144515
0.218785
0.0101213
0.252347
0.00611052
0.290409
0.00246919
0.337152
0.38342
0.0197995
0.0443786
-0.019206
0.0200308
0.0725906
0.0196406
0.104004
0.018837
0.142355
0.0170318
0.184186
0.0137734
0.222043
0.00973362
0.256387
0.00575544
0.294387
0.00226373
0.340643
0.385684
0.0124237
0.0437143
-0.0117594
0.0127754
0.0722389
0.0126677
0.104112
0.0123336
0.142689
0.0114537
0.185066
0.00967804
0.223819
0.00723161
0.258833
0.00444307
0.297176
0.00174145
0.343345
0.387425
0.00561799
0.0433273
-0.00523096
0.00647623
0.0713806
0.00801286
0.102575
0.00968944
0.141012
0.0103368
0.184419
0.00914287
0.225013
0.00669473
0.261282
0.00401269
0.299858
0.00153468
0.345823
0.38896
-0.00127605
7.05114e-05
-0.00199548
-0.00100539
0.00168352
0.00462431
0.00577951
0.00496959
0.00306221
0.00118823
0.0163271
-0.0539593
-0.015718
0.0152234
-0.0518923
0.0135062
-0.0477328
0.0116535
-0.0415987
0.00995877
-0.0343051
0.00856942
-0.0262123
0.00758589
-0.0182224
0.00696154
-0.0111351
0.00679048
-0.00505991
-0.000204569
0.014822
-0.0535413
-0.01524
0.0132533
-0.0503236
0.011381
-0.0458605
0.00950001
-0.0397177
0.00783274
-0.0326378
0.00649266
-0.0248722
0.005546
-0.0172758
0.00493806
-0.0105271
0.00473321
-0.00485505
-0.00036946
0.0128931
-0.0524753
-0.0139591
0.0110639
-0.0484944
0.00910911
-0.0439057
0.00721643
-0.037825
0.00557623
-0.0309976
0.00428216
-0.0235782
0.00337515
-0.0163688
0.00279915
-0.00995114
0.00257077
-0.00462666
-0.000451724
0.0105762
-0.0509911
-0.0120605
0.00860367
-0.0465219
0.00663438
-0.0419364
0.00477784
-0.0359684
0.00319842
-0.0294182
0.00196995
-0.0223497
0.00111361
-0.0155124
0.000572753
-0.00941028
0.000335196
-0.00438911
-0.000466215
0.00795822
-0.0492351
-0.00971417
0.00592482
-0.0444885
0.00398907
-0.0400007
0.00220589
-0.0341852
0.000720266
-0.0279325
-0.000417507
-0.0212119
-0.00122334
-0.0147066
-0.0017233
-0.00891032
-0.0019681
-0.0041443
-0.000446584
0.0051335
-0.0473006
-0.00706796
0.0031009
-0.0424559
0.00123434
-0.0381341
-0.000441554
-0.0325094
-0.00183239
-0.0265417
-0.00288512
-0.0201592
-0.00361202
-0.0139797
-0.00406026
-0.00846208
-0.00429852
-0.00390604
-0.000413957
0.00220384
-0.0452573
-0.00424717
0.000211392
-0.0404634
-0.00156417
-0.0363586
-0.0031365
-0.030937
-0.00440522
-0.025273
-0.00535499
-0.0192094
-0.0060055
-0.0133292
-0.00640358
-0.008064
-0.00662358
-0.00368604
-0.00038747
-0.000729362
-0.0431746
-0.0013534
-0.00266705
-0.0385257
-0.00433844
-0.0346872
-0.00579237
-0.0294831
-0.00694306
-0.0241223
-0.00779123
-0.0183613
-0.00836803
-0.0127524
-0.00871671
-0.00771531
-0.00890841
-0.00349434
-0.000384098
-0.00362443
-0.0410618
0.00151169
-0.00546001
-0.0366901
-0.00702084
-0.0331263
-0.00835531
-0.0281486
-0.00939521
-0.0230824
-0.0101488
-0.0176077
-0.0106585
-0.0122427
-0.0109595
-0.00741431
-0.0111152
-0.00333863
-0.0004155
-0.00636175
-0.0389756
0.00427551
-0.00809864
-0.0349533
-0.00955291
-0.0316721
-0.0107716
-0.0269299
-0.0117133
-0.0221407
-0.0123834
-0.0169376
-0.0128352
-0.0117909
-0.0130916
-0.00715789
-0.0132074
-0.00322283
-0.000486241
-0.00888544
-0.0369564
0.00686624
-0.010526
-0.0333127
-0.0118851
-0.0303131
-0.0129947
-0.0258203
-0.0138551
-0.0212802
-0.0144545
-0.0163382
-0.014859
-0.0113864
-0.0150761
-0.00694071
-0.0151533
-0.00314567
-0.000593126
-0.0111673
-0.0350251
0.00923606
-0.012706
-0.031774
-0.0139811
-0.029038
-0.0149915
-0.0248099
-0.0157867
-0.020485
-0.0163294
-0.0157955
-0.0166975
-0.0110184
-0.0168835
-0.00675469
-0.0169291
-0.0031001
-0.000725478
-0.0131736
-0.0331992
0.0113477
-0.0146072
-0.0303404
-0.0158111
-0.0278341
-0.016735
-0.023886
-0.0174805
-0.0197395
-0.017983
-0.0152929
-0.0183269
-0.0106745
-0.0184939
-0.00658772
-0.0185206
-0.00307337
-0.000866077
-0.0148876
-0.0314882
0.0131765
-0.0162131
-0.0290149
-0.0173584
-0.0266888
-0.0182106
-0.0230338
-0.0189206
-0.0190295
-0.019401
-0.0148126
-0.0197346
-0.0103409
-0.0198987
-0.00642358
-0.0199242
-0.00304791
-0.000992965
-0.0163049
-0.0298894
0.0147061
-0.0175199
-0.0277999
-0.0186175
-0.0255912
-0.0194152
-0.022236
-0.0201025
-0.0183422
-0.0205802
-0.0143348
-0.0209189
-0.0100022
-0.0211
-0.00624249
-0.0211454
-0.00300254
-0.00108128
-0.0174325
-0.0283821
0.0159252
-0.018538
-0.0266944
-0.0195936
-0.0245356
-0.0203569
-0.0214727
-0.0210318
-0.0176673
-0.0215276
-0.0138391
-0.0218884
-0.00964133
-0.0221087
-0.00602222
-0.0221974
-0.00291385
-0.0011048
-0.0182826
-0.0269251
0.0168256
-0.019287
-0.02569
-0.0202987
-0.0235239
-0.0210502
-0.0207212
-0.0217224
-0.0169952
-0.0222572
-0.0133043
-0.0226589
-0.00923959
-0.0229421
-0.00573903
-0.0230988
-0.00275721
-0.00103712
-0.0188391
-0.0254883
0.0174024
-0.0197706
-0.0247585
-0.0207374
-0.0225571
-0.0215074
-0.0199512
-0.0221903
-0.0163122
-0.0227867
-0.0127079
-0.0232505
-0.00877581
-0.0236213
-0.00536825
-0.0238712
-0.00250728
-0.000852179
-0.0190728
-0.0240904
0.0176749
-0.0200039
-0.0238274
-0.0209282
-0.0216328
-0.0217481
-0.0191314
-0.0224587
-0.0156016
-0.0231379
-0.0120286
-0.0236857
-0.00822806
-0.0241684
-0.0048855
-0.0245371
-0.00213858
-0.000524234
-0.0191188
-0.0227048
0.0177332
-0.0201144
-0.0228317
-0.0209297
-0.0208175
-0.0217871
-0.018274
-0.0225316
-0.0148571
-0.0233073
-0.0112529
-0.0239695
-0.00756588
-0.0245964
-0.00425859
-0.0251248
-0.00161024
-3.36028e-05
-0.0758632
-0.0197564
0.0729148
-0.0811738
-0.0175211
-0.0858448
-0.0161465
-0.0905612
-0.0135576
-0.0943783
-0.01104
-0.0975426
-0.00808863
-0.0996565
-0.00545194
-0.100932
-0.00298304
-0.101377
-0.00116538
-4.7171e-05
-0.0937475
-0.0167948
0.0907859
-0.0973453
-0.0139234
-0.100709
-0.0127831
-0.104072
-0.0101938
-0.106792
-0.00832076
-0.108996
-0.00588461
-0.110423
-0.0040243
-0.111239
-0.00216787
-0.111487
-0.000917403
-5.18033e-05
-0.111018
-0.0142504
0.108474
-0.113627
-0.011314
-0.116205
-0.0102058
-0.118618
-0.00778026
-0.12056
-0.00637899
-0.122065
-0.00437946
-0.123002
-0.00308745
-0.123513
-0.00165736
-0.123642
-0.000787665
-4.98904e-05
-0.130436
-0.0124073
0.128593
-0.132388
-0.00936199
-0.134294
-0.00830009
-0.13599
-0.00608387
-0.137345
-0.00502408
-0.138376
-0.00334788
-0.138997
-0.00246729
-0.139337
-0.0013175
-0.13941
-0.000713798
-4.23832e-05
-0.153537
-0.0106437
0.151773
-0.155059
-0.00783992
-0.156526
-0.00683279
-0.157766
-0.00484391
-0.158771
-0.00401894
-0.159529
-0.00258972
-0.160007
-0.00198965
-0.160301
-0.00102319
-0.160395
-0.000620179
-6.27075e-06
-0.18083
-0.00882915
0.179016
-0.182205
-0.00646537
-0.183531
-0.00550633
-0.184589
-0.00378661
-0.185462
-0.0031451
-0.186117
-0.00193526
-0.186597
-0.00150922
-0.186948
-0.000672123
-0.187151
-0.000417523
4.94353e-05
-0.210124
-0.00692468
0.208219
-0.21191
-0.00467908
-0.213439
-0.00397721
-0.214472
-0.00275374
-0.215319
-0.00229847
-0.215948
-0.00130604
-0.216492
-0.000964941
-0.216909
-0.000255896
-0.217181
-0.000145392
0.000119224
-0.238881
-0.00454848
0.236505
-0.240041
-0.00351978
-0.241119
-0.00289836
-0.24203
-0.00184276
-0.242864
-0.00146524
-0.243458
-0.000711403
-0.243958
-0.000465006
-0.244272
5.82184e-05
-0.244468
5.06604e-05
0.000143392
-0.256845
-0.00241204
0.254708
-0.258983
-0.00138118
-0.260715
-0.00116651
-0.261798
-0.00076047
-0.262617
-0.000646071
-0.263027
-0.000301317
-0.263323
-0.00016903
-0.263364
9.8935e-05
-0.263389
7.61395e-05
8.44939e-05
-0.268707
0.266295
-0.270088
-0.271254
-0.272015
-0.272661
-0.272962
-0.273131
-0.273032
-0.272956
-0.0201263
0.0745857
0.0184555
-0.0209488
0.0916083
-0.0213129
0.108838
-0.0211927
0.128473
-0.0205482
0.151129
-0.0190183
0.177486
-0.0163522
0.205553
-0.0112916
0.231445
-0.00646516
0.249882
0.25983
-0.0189875
0.0755131
0.0180601
-0.0196507
0.0922716
-0.0199063
0.109093
-0.0196809
0.128247
-0.0189414
0.150389
-0.0173854
0.17593
-0.0147345
0.202902
-0.0106479
0.227358
-0.00572585
0.24496
0.254104
-0.0180953
0.0762716
0.0173368
-0.0186003
0.0927766
-0.0187275
0.109221
-0.0184298
0.127949
-0.0176538
0.149613
-0.0161327
0.174409
-0.0135795
0.200349
-0.00983544
0.223614
-0.00521675
0.240341
0.248887
-0.01707
0.0769628
0.0163788
-0.0174537
0.0931603
-0.0174451
0.109212
-0.0170582
0.127563
-0.0162437
0.148799
-0.0147607
0.172926
-0.0123471
0.197935
-0.00893461
0.220201
-0.00469153
0.236098
0.244195
-0.015865
0.0775749
0.015253
-0.0161524
0.0934477
-0.0160391
0.109099
-0.0155827
0.127106
-0.0147456
0.147962
-0.0133146
0.171495
-0.0110716
0.195692
-0.00797841
0.217108
-0.004169
0.232289
0.240026
-0.0145228
0.0780924
0.0140053
-0.0147025
0.0936273
-0.0145002
0.108896
-0.0139968
0.126603
-0.0131587
0.147124
-0.0118029
0.170139
-0.00975728
0.193647
-0.00699205
0.214343
-0.00364538
0.228942
0.236381
-0.0130817
0.0785064
0.0126676
-0.013144
0.0936896
-0.0128543
0.108607
-0.0123141
0.126062
-0.0114902
0.1463
-0.0102313
0.16888
-0.00840506
0.191821
-0.00598786
0.211926
-0.00311502
0.226069
0.233266
-0.0115662
0.0788029
0.0112697
-0.0115122
0.0936356
-0.0111362
0.108231
-0.0105635
0.12549
-0.00976213
0.145498
-0.00861568
0.167733
-0.00702464
0.19023
-0.00497305
0.209874
-0.00257823
0.223675
0.230688
-0.010001
0.078961
0.00984291
-0.00983676
0.0934714
-0.00937619
0.10777
-0.00877561
0.124889
-0.00800162
0.144724
-0.00697798
0.16671
-0.00563158
0.188883
-0.00395482
0.208197
-0.00203895
0.221759
0.228649
-0.00841187
0.0789538
0.0084191
-0.008148
0.0932075
-0.00759966
0.107222
-0.00697803
0.124268
-0.00623292
0.143979
-0.00534003
0.165817
-0.00424276
0.187786
-0.0029427
0.206897
-0.00150322
0.220319
0.227146
-0.00683225
0.0787495
0.00703654
-0.00648418
0.0928595
-0.00583907
0.106577
-0.00520141
0.12363
-0.00448263
0.143261
-0.00372393
0.165058
-0.00287451
0.186937
-0.00194656
0.205969
-0.000976289
0.219349
0.226169
-0.00532055
0.0783529
0.00571709
-0.00487789
0.0924168
-0.00414427
0.105843
-0.00348247
0.122968
-0.0027913
0.142569
-0.00215488
0.164422
-0.00154454
0.186326
-0.000980389
0.205405
-0.000464936
0.218833
0.225704
-0.00392049
0.0777804
0.00449299
-0.00336676
0.0918631
-0.00256082
0.105037
-0.00186601
0.122273
-0.00120758
0.141911
-0.000684151
0.163898
-0.000304758
0.185947
-8.62707e-05
0.205187
-3.62158e-06
0.218751
0.225701
-0.00265954
0.0770586
0.0033814
-0.00197163
0.0911752
-0.00112605
0.104192
-0.000396771
0.121544
0.000233786
0.14128
0.000713953
0.163418
0.000904824
0.185756
0.000808684
0.205283
0.000477776
0.219082
0.226179
-0.00155781
0.0762281
0.0023883
-0.000715022
0.0903324
0.000115224
0.103361
0.00103014
0.120629
0.00169927
0.140611
0.0020641
0.163053
0.00205278
0.185767
0.00164634
0.205689
0.000918911
0.219809
0.227097
-0.000631591
0.0753521
0.00150759
0.000411995
0.0892888
0.00142867
0.102345
0.00233341
0.119724
0.00299192
0.139953
0.00328188
0.162763
0.00309554
0.185954
0.00240925
0.206376
0.00131951
0.220899
0.228417
0.00013113
0.0745052
0.000715709
0.00147415
0.0879458
0.00253119
0.101288
0.0034876
0.118768
0.00415715
0.139283
0.00439584
0.162525
0.00406112
0.186288
0.00312074
0.207316
0.00169437
0.222325
0.230111
0.0009517
0.0735939
-4.03277e-05
0.00234783
0.0865496
0.00344643
0.100189
0.00444632
0.117768
0.00512744
0.138602
0.00532761
0.162325
0.00487415
0.186742
0.00372244
0.208468
0.00200819
0.224039
0.23212
0.00166062
0.0726726
-0.000739331
0.00315328
0.085057
0.00430383
0.0990385
0.00534769
0.116724
0.00605076
0.137899
0.00622373
0.162152
0.00565985
0.187306
0.00430399
0.209824
0.00231309
0.22603
0.234433
0.00199861
0.0721073
-0.00143331
0.00353423
0.0835214
0.00472881
0.0978439
0.00579622
0.115657
0.00651936
0.137176
0.00669901
0.161972
0.00609574
0.187909
0.00463494
0.211284
0.00247626
0.228189
0.236909
-0.0619326
0.0654504
0.0685895
-0.0557255
0.0773143
-0.0511984
0.0933167
-0.0463888
0.110847
-0.041227
0.132014
-0.0352566
0.156001
-0.0280406
0.180693
-0.0195053
0.202749
-0.00996221
0.218646
0.226947
-0.0733291
0.0601192
0.0786603
-0.0678782
0.0718634
-0.0627176
0.0881562
-0.0569066
0.105036
-0.0508179
0.125925
-0.0435481
0.148732
-0.0347053
0.17185
-0.0242654
0.192309
-0.0125966
0.206977
0.21435
-0.086604
0.0548475
0.0918757
-0.081102
0.0663613
-0.0751174
0.0821715
-0.0684819
0.0984007
-0.0612365
0.11868
-0.0522043
0.139699
-0.0413787
0.161024
-0.0286943
0.179625
-0.014544
0.192827
0.199806
-0.102852
0.0497296
0.10797
-0.0968859
0.0603952
-0.0902713
0.075557
-0.0828146
0.090944
-0.0740196
0.109885
-0.0628903
0.12857
-0.0497812
0.147915
-0.0345672
0.164411
-0.0178981
0.176158
0.181908
-0.121445
0.0437946
0.12738
-0.115079
0.0540292
-0.107544
0.0680228
-0.0984176
0.0818171
-0.0871747
0.0986422
-0.0733795
0.114775
-0.0575259
0.132062
-0.0392877
0.146173
-0.0196072
0.156477
0.162301
-0.144663
0.0380329
0.150424
-0.137201
0.0465674
-0.128126
0.0589473
-0.116779
0.0704704
-0.102954
0.0848168
-0.0865432
0.0983646
-0.0676384
0.113157
-0.0462392
0.124773
-0.0238378
0.134076
0.138463
-0.168509
0.0307171
0.175825
-0.159501
0.0375595
-0.14819
0.0476358
-0.134068
0.0563485
-0.117198
0.0679466
-0.0972257
0.0783926
-0.0740815
0.0900128
-0.0486443
0.0993364
-0.0231465
0.108578
0.115316
-0.195261
0.0229503
0.203028
-0.184517
0.0268153
-0.171059
0.0341785
-0.15461
0.0398994
-0.135043
0.0483794
-0.111881
0.0552307
-0.0856138
0.0637453
-0.0577293
0.0714519
-0.0304213
0.0812699
0.0848952
-0.214251
0.0110283
0.226173
-0.200721
0.0132854
-0.183578
0.0170351
-0.163511
0.0198325
-0.139465
0.024334
-0.111953
0.0277187
-0.0808839
0.0326758
-0.0466794
0.0372474
-0.0119842
0.0465747
0.072911
-0.291615
0.302643
-0.278329
-0.261294
-0.241461
-0.217128
-0.189409
-0.156733
-0.119486
-0.072911
-0.00105179
0.0705322
-0.0008909
-0.00254198
0.0801505
-0.00372482
0.0930585
-0.0046054
0.108851
-0.00511985
0.127894
-0.00521935
0.150524
-0.0047599
0.175366
-0.00370206
0.20197
-0.0029806
0.225452
0.299662
-0.000580852
0.0724744
-0.00136137
-0.00219657
0.0817662
-0.00345879
0.0943208
-0.00436432
0.109756
-0.00491892
0.128449
-0.00503244
0.150637
-0.00463703
0.17497
-0.00360387
0.200937
-0.00272276
0.22457
0.296939
1.77688e-05
0.0743066
-0.00184999
-0.00156793
0.0833519
-0.00282268
0.0955755
-0.00371749
0.110651
-0.00430012
0.129031
-0.00444263
0.15078
-0.00414954
0.174677
-0.00321408
0.200001
-0.00247382
0.22383
0.294466
0.000609647
0.0760593
-0.00236235
-0.000944014
0.0849056
-0.00209114
0.0967226
-0.00294752
0.111507
-0.00350968
0.129594
-0.00370156
0.150972
-0.00348976
0.174465
-0.00272569
0.199237
-0.00214685
0.223251
0.292319
0.00118519
0.0777705
-0.00289635
-0.000340502
0.0864313
-0.00137549
0.0977576
-0.00217357
0.112305
-0.00269904
0.130119
-0.00291277
0.151186
-0.00277251
0.174325
-0.00217848
0.198643
-0.00177172
0.222845
0.290547
0.00179079
0.0794187
-0.00343901
0.000367906
0.0878541
-0.000597581
0.0987231
-0.00133759
0.113045
-0.00182871
0.13061
-0.0020591
0.151416
-0.00200053
0.174267
-0.00157632
0.198219
-0.00135899
0.222627
0.289188
0.00243261
0.0809686
-0.0039825
0.00116815
0.0891186
0.000264806
0.0996264
-0.000421273
0.113731
-0.000870767
0.13106
-0.0011224
0.151668
-0.00114415
0.174288
-0.00091713
0.197992
-0.000907198
0.222617
0.288281
0.00309961
0.0823895
-0.00452053
0.00198882
0.0902294
0.00119598
0.100419
0.000592718
0.114335
0.000174677
0.131478
-0.000123237
0.151966
-0.000184468
0.174349
-0.000215749
0.198023
-0.00041247
0.222814
0.287868
0.00378389
0.083649
-0.00504336
0.00283037
0.0911829
0.00215062
0.101099
0.00165291
0.114832
0.00127202
0.131859
0.000985183
0.152252
0.000780456
0.174554
0.000577814
0.198226
0.000117676
0.223274
0.287986
0.00447315
0.084712
-0.0055362
0.00368225
0.0919738
0.00312652
0.101655
0.00273021
0.115229
0.00240463
0.132184
0.00210416
0.152553
0.00178877
0.17487
0.00139241
0.198622
0.000628342
0.224038
0.288614
0.00514663
0.0855385
-0.00597315
0.00452312
0.0925973
0.00410012
0.102078
0.00381033
0.115518
0.00354425
0.13245
0.00323438
0.152863
0.00281822
0.175286
0.00221395
0.199227
0.00116638
0.225086
0.289781
0.00579573
0.0860921
-0.0063493
0.00534354
0.0930495
0.0050609
0.10236
0.00488268
0.115697
0.004681
0.132652
0.00437093
0.153173
0.0038555
0.175801
0.0030471
0.200035
0.00171506
0.226418
0.291496
0.00638683
0.0863543
-0.00664909
0.00611547
0.0933209
0.00597938
0.102496
0.0059163
0.11576
0.00578829
0.13278
0.00548784
0.153473
0.00488141
0.176408
0.00387952
0.201037
0.00226514
0.228032
0.293761
0.006902
0.0863168
-0.00686441
0.00681996
0.0934029
0.00683112
0.102485
0.00688592
0.115705
0.00684281
0.132823
0.0065604
0.153756
0.00587665
0.177091
0.0046946
0.202219
0.00280643
0.22992
0.296567
0.00732627
0.0859809
-0.00699043
0.00744171
0.0932875
0.00759657
0.10233
0.00777045
0.115531
0.00782094
0.132773
0.00757119
0.154005
0.00683093
0.177832
0.00548425
0.203566
0.00333676
0.232068
0.299904
0.00764612
0.085364
-0.00702918
0.0079646
0.092969
0.00825505
0.10204
0.00854557
0.115241
0.00869447
0.132624
0.00848955
0.15421
0.00771579
0.178605
0.00622517
0.205056
0.00384105
0.234452
0.303745
0.00786443
0.0844929
-0.00699333
0.00838979
0.0924437
0.0088059
0.101624
0.00921032
0.114836
0.00946497
0.132369
0.00932172
0.154354
0.0085366
0.179391
0.00692438
0.206668
0.00432484
0.237052
0.30807
0.00795843
0.0834386
-0.00690414
0.00867893
0.0917232
0.00920687
0.101096
0.00971236
0.114331
0.0100692
0.132012
0.00999697
0.154426
0.00922851
0.180159
0.00753568
0.208361
0.00475888
0.239828
0.312829
0.00805619
0.0821967
-0.0068143
0.00895754
0.0908218
0.00957503
0.100478
0.0101665
0.113739
0.0106222
0.131556
0.0106272
0.154421
0.00988174
0.180904
0.00811343
0.21013
0.00516894
0.242773
0.317998
0.00775987
0.0811558
-0.00671897
0.00879385
0.0897878
0.00954094
0.0997314
0.0102145
0.113066
0.0107791
0.130992
0.0108875
0.154312
0.0102472
0.181545
0.00848033
0.211897
0.00548465
0.245768
0.323483
-0.0463834
0.0741284
0.0534108
-0.0388209
0.0822253
-0.0330686
0.093979
-0.0276321
0.107629
-0.0224118
0.125772
-0.0170709
0.148971
-0.0114975
0.175971
-0.0060541
0.206453
-0.00258241
0.242297
0.3209
-0.0626212
0.0670975
0.0696522
-0.0553697
0.0749738
-0.0484856
0.087095
-0.0412935
0.100437
-0.0342523
0.11873
-0.0267466
0.141466
-0.0186979
0.167923
-0.0107124
0.198468
-0.0047995
0.236384
0.316101
-0.080327
0.0598961
0.0875284
-0.0724292
0.067076
-0.0642468
0.0789125
-0.0557116
0.0919019
-0.0471238
0.110143
-0.0373628
0.131705
-0.026718
0.157278
-0.0158641
0.187614
-0.00690395
0.227424
0.309197
-0.0997978
0.0525593
0.107135
-0.0907825
0.0580607
-0.0818236
0.0699536
-0.0722569
0.0823352
-0.0617879
0.0996735
-0.0493734
0.11929
-0.0358113
0.143716
-0.0217043
0.173507
-0.00940971
0.215129
0.299787
-0.121365
0.0441355
0.129789
-0.112362
0.0490577
-0.103024
0.0606159
-0.091773
0.071084
-0.0788466
0.0867471
-0.0636517
0.104095
-0.046969
0.127033
-0.0290232
0.155561
-0.0125406
0.198646
0.287246
-0.147741
0.0361769
0.1557
-0.138146
0.039462
-0.127334
0.0498043
-0.113997
0.0577471
-0.098858
0.0716078
-0.0810161
0.0862536
-0.060903
0.10692
-0.0386376
0.133296
-0.017643
0.177652
0.269603
-0.17828
0.0264806
0.187977
-0.16845
0.0296311
-0.156177
0.0375315
-0.141593
0.0431632
-0.124651
0.0546657
-0.103877
0.0654794
-0.0800049
0.0830481
-0.0532259
0.106517
-0.0258482
0.150274
0.243755
-0.214962
0.0171622
0.224281
-0.203899
0.0185682
-0.190252
0.0238841
-0.174532
0.0274434
-0.155357
0.0354909
-0.132504
0.0426256
-0.106302
0.056847
-0.076058
0.0762722
-0.0416116
0.115828
0.202144
-0.265859
0.00698683
0.276034
-0.255113
0.0078225
-0.241467
0.0102385
-0.226268
0.0122446
-0.207085
0.0163078
-0.185071
0.0206117
-0.157398
0.0291733
-0.12248
0.0413542
-0.0735778
0.0669258
0.128566
-0.333244
0.340231
-0.325422
-0.315183
-0.302939
-0.286631
-0.266019
-0.236846
-0.195492
-0.128566
0.00316812
0.0557767
-0.00553406
0.000265482
0.0725548
-0.00178484
0.0895787
-0.00353132
0.108881
-0.00491986
0.131177
-0.00596055
0.156741
-0.00625905
0.188275
-0.0060779
0.224099
-0.00415312
0.274109
0.336078
0.00335274
0.0577865
-0.00536252
0.000842542
0.075065
-0.00129927
0.0917205
-0.00308303
0.110665
-0.00452523
0.132619
-0.00557924
0.157795
-0.00597804
0.188674
-0.00580911
0.22393
-0.00402649
0.272327
0.332051
0.00377733
0.0592513
-0.00524213
0.00160263
0.0772397
-0.0004843
0.0938075
-0.00222102
0.112402
-0.00367577
0.134074
-0.00474393
0.158863
-0.00524046
0.189171
-0.00510976
0.2238
-0.00367884
0.270896
0.328373
0.00426181
0.060166
-0.00517649
0.0024178
0.0790837
0.000464269
0.095761
-0.00122633
0.114092
-0.00264165
0.135489
-0.00374553
0.159967
-0.00431906
0.189744
-0.00432911
0.22381
-0.00322437
0.269791
0.325148
0.00478588
0.0605279
-0.00514782
0.00330886
0.0805608
0.00155836
0.0975115
-0.000189764
0.11584
-0.00151709
0.136817
-0.00264964
0.161099
-0.00330369
0.190398
-0.00349168
0.223998
-0.00269781
0.268997
0.32245
0.00537607
0.0602867
-0.00513488
0.00431761
0.0816192
0.00276867
0.0990604
0.00115994
0.117449
-0.000284366
0.138261
-0.00144465
0.16226
-0.00219646
0.19115
-0.00258548
0.224387
-0.00211542
0.268527
0.320335
0.00602192
0.0593841
-0.00511928
0.00543968
0.0822015
0.0041137
0.100386
0.00261027
0.118952
0.00119066
0.139681
-0.00015487
0.163605
-0.000980122
0.191975
-0.0016044
0.225011
-0.00148357
0.268406
0.318851
0.00669538
0.0577745
-0.00508577
0.00664842
0.0822484
0.00557564
0.101459
0.00417312
0.120355
0.00276643
0.141087
0.0014331
0.164938
0.000373639
0.193035
-0.000563708
0.225948
-0.0008032
0.268646
0.318048
0.00735949
0.0554397
-0.0050247
0.00791177
0.0816962
0.00712977
0.102241
0.00583744
0.121647
0.00443225
0.142493
0.00304599
0.166325
0.00179159
0.194289
0.000599104
0.227141
-5.67807e-05
0.269302
0.317991
0.00797035
-0.00493965
0.00919483
0.00874865
0.00758029
0.00617032
0.00471527
0.00328203
0.00183487
0.000631442
0.000387554
-0.000870071
0.00128025
-0.00295928
0.00254058
-0.004751
0.00405435
-0.0061215
0.00573482
-0.00706099
0.00752403
-0.00761203
0.00939149
-0.00783727
0.0113353
-0.00780194
0.0133964
-0.00757447
-0.00727745
0.000456817
-0.00132689
0.00145176
-0.00395423
0.00280328
-0.00610252
0.00437109
-0.00768931
0.00605777
-0.00874768
0.00780598
-0.00936024
0.00959181
-0.00962309
0.0114181
-0.00962819
0.0133044
-0.00946078
-0.00921306
0.000513037
-0.00183992
0.00157135
-0.00501254
0.00294846
-0.00747963
0.00448176
-0.00922261
0.00606914
-0.0103351
0.00765903
-0.0109501
0.00923605
-0.0112001
0.0108066
-0.0111988
0.0123829
-0.011037
-0.0107893
0.000551248
-0.00239117
0.00162576
-0.00608706
0.00295634
-0.0088102
0.00436678
-0.0106331
0.00575999
-0.0117283
0.00709807
-0.0122882
0.00838001
-0.012482
0.00962277
-0.0124415
0.0108458
-0.0122601
-0.012004
0.000566848
-0.00295802
0.0016054
-0.00712561
0.00281799
-0.0100228
0.00402775
-0.0118428
0.0051535
-0.012854
0.00617783
-0.0133125
0.00711746
-0.0134217
0.00800175
-0.0133258
0.00885938
-0.0131177
-0.0128588
0.000556188
-0.00351421
0.00150578
-0.0080752
0.00253655
-0.0110536
0.00348555
-0.0127918
0.00429658
-0.013665
0.00497582
-0.0139918
0.00555661
-0.0140025
0.00607753
-0.0138467
0.00657223
-0.0136124
-0.0133545
0.000517166
-0.00403138
0.00132828
-0.00888631
0.00212626
-0.0118515
0.00277532
-0.0134409
0.00324923
-0.0141389
0.00357641
-0.014319
0.00380213
-0.0142282
0.00396863
-0.0140132
0.00410879
-0.0137526
-0.0134929
0.000449646
-0.00448102
0.00108006
-0.00951673
0.00160991
-0.0123814
0.00194006
-0.013771
0.0020746
-0.0142735
0.0020594
-0.0143038
0.0019456
-0.0141144
0.00177356
-0.0138412
0.00157105
-0.01355
-0.0132753
0.000355582
-0.0048366
0.000773003
-0.00993415
0.00101534
-0.0126237
0.00102481
-0.0137805
0.000832141
-0.0140808
0.000494295
-0.0139659
6.23741e-05
-0.0136825
-0.000427564
-0.0133513
-0.000955504
-0.0130221
-0.0127191
0.000238685
-0.00507529
0.000422069
-0.0101175
0.000372108
-0.0125738
7.20741e-05
-0.0134805
-0.000426032
-0.0135827
-0.00106073
-0.0133312
-0.00178466
-0.0129585
-0.0025696
-0.0125663
-0.0034011
-0.0121906
-0.0118446
0.000128896
-0.00520419
7.83483e-05
-0.010067
-0.00025619
-0.0122392
-0.000847976
-0.0128887
-0.00162922
-0.0128015
-0.00253731
-0.0124231
-0.00353071
-0.0119652
-0.00458754
-0.0115095
-0.00569904
-0.0110791
-0.0106774
-8.82797e-06
-0.00519536
-0.000300623
-0.0097752
-0.00090505
-0.0116348
-0.00176104
-0.0120327
-0.0027921
-0.0117704
-0.00393944
-0.0112758
-0.00516848
-0.0107361
-0.00646305
-0.0102149
-0.00781812
-0.00972403
-0.00925951
-0.000150334
-0.00504502