/*--------------------------------*- C++ -*----------------------------------*\
  =========                 |
  \\      /  F ield         | OpenFOAM: The Open Source CFD Toolbox
   \\    /   O peration     | Website:  https://openfoam.org
    \\  /    A nd           | Version:  7
     \\/     M anipulation  |
\*---------------------------------------------------------------------------*/
FoamFile
{
    version     2.0;
    format      ascii;
    class       volVectorField;
    location    "49";
    object      U;
}
// * * * * * * * * * * * * * * * * * * * * * * * * * * * * * * * * * * * * * //

dimensions      [0 1 -1 0 0 0 0];

internalField   nonuniform List<vector> 
2000
(
(-0.00162041 -0.00180608 -9.52185e-22)
(-0.00411926 -0.000269393 0)
(-0.00547102 0.00423917 0)
(-0.00468059 0.0110754 -4.72043e-21)
(-0.00191668 0.0201373 1.50065e-21)
(0.00261734 0.0314802 4.42142e-23)
(0.00868829 0.0451378 -2.58985e-21)
(0.0160088 0.0610396 0)
(0.0241553 0.0789674 0)
(0.0325921 0.0985094 0)
(-0.00167085 -0.000607353 0)
(-0.00420533 0.000728785 -3.65518e-21)
(-0.0056354 0.00422601 3.37084e-21)
(-0.00514964 0.00966768 6.29738e-21)
(-0.00296154 0.0170926 0)
(0.000727546 0.02663 5.6388e-21)
(0.005736 0.0383953 -5.24356e-21)
(0.0118675 0.05244 0)
(0.0187994 0.068724 9.62158e-21)
(0.0260016 0.0871104 -1.85571e-20)
(-0.00177806 0.000533049 0)
(-0.00397086 0.00160918 2.92784e-20)
(-0.00487438 0.00416736 0)
(-0.00406875 0.00834934 2.55811e-20)
(-0.00186242 0.0142936 0)
(0.00150347 0.0221519 -2.26742e-20)
(0.00586317 0.0320709 0)
(0.0110874 0.0441835 2.04332e-20)
(0.0169717 0.058616 -1.91364e-20)
(0.0229739 0.0755355 -1.87329e-20)
(-0.00188216 0.00149442 -7.692e-21)
(-0.00327934 0.00221899 -1.45948e-20)
(-0.00299515 0.00396618 -6.80069e-21)
(-0.00119072 0.00711769 -1.26422e-20)
(0.00169321 0.0118661 -1.19508e-20)
(0.00534143 0.0183388 1.11957e-20)
(0.00957151 0.0266568 1.06727e-20)
(0.0142892 0.0369742 -1.11971e-22)
(0.0194178 0.0495414 1.92755e-20)
(0.0244215 0.0648066 1.87253e-20)
(-0.0018936 0.00216091 -7.64219e-21)
(-0.0019677 0.00241769 -1.47653e-20)
(0.000190187 0.00352855 -2.76484e-20)
(0.00368205 0.00594969 1.27523e-20)
(0.00791452 0.00988774 0)
(0.0124802 0.0154085 0)
(0.0171567 0.0225571 -2.17948e-20)
(0.0218544 0.0314411 -2.06247e-20)
(0.0266209 0.042363 1.94659e-20)
(0.0310044 0.0559717 5.64443e-20)
(-0.00169437 0.00243518 7.64565e-21)
(0.000142658 0.00210465 7.48833e-21)
(0.0048449 0.00278015 -4.09745e-20)
(0.0106646 0.00480877 6.44479e-20)
(0.0168536 0.00837502 -1.20016e-20)
(0.0229111 0.0134555 0)
(0.0285714 0.0199878 0)
(0.0337319 0.0279771 1.02589e-19)
(0.0385444 0.0376914 -9.71787e-20)
(0.0427791 0.0498626 1.86349e-20)
(-0.00114854 0.00226839 5.98429e-20)
(0.00324037 0.00122793 0)
(0.011089 0.00168462 5.48008e-20)
(0.0197643 0.00366595 -5.14542e-20)
(0.0283675 0.00729188 0)
(0.0363221 0.0124352 2.29671e-20)
(0.0433376 0.0189182 -6.42103e-20)
(0.0493048 0.0266146 -8.18048e-20)
(0.0544482 0.0356786 3.83619e-20)
(0.0589147 0.0468136 3.72572e-20)
(-0.00012366 0.0016596 -1.18989e-19)
(0.00749539 -0.000195175 -1.4647e-20)
(0.0189858 0.000271154 -2.71271e-20)
(0.0308635 0.00252321 -6.37521e-20)
(0.042106 0.00657447 -2.42464e-20)
(0.0520976 0.0121871 -2.25758e-20)
(0.0605581 0.0190813 4.91535e-22)
(0.0674006 0.0270078 0)
(0.0728967 0.0359613 0)
(0.0776806 0.0465274 -1.79406e-22)
(0.00151149 0.000650517 5.91474e-20)
(0.013036 -0.00205514 -5.75035e-20)
(0.0285098 -0.00135507 4.07119e-20)
(0.0437006 0.0014276 8.93345e-20)
(0.0575175 0.00615313 -2.36947e-20)
(0.0693697 0.0124702 2.3067e-20)
(0.079044 0.0200282 2.14299e-20)
(0.086511 0.0285128 0)
(0.0920509 0.0377939 0)
(0.0967739 0.0483012 -7.24069e-22)
(0.00386697 -0.000665234 -7.25276e-21)
(0.0199246 -0.00416443 7.19788e-20)
(0.0395182 -0.00302082 -1.33398e-20)
(0.0578527 0.00046559 0)
(0.073863 0.00595509 0)
(0.0870908 0.0129835 4.44855e-20)
(0.0974958 0.0211678 0)
(0.105201 0.0302208 -3.85604e-20)
(0.11048 0.0400506 -2.08871e-23)
(0.114443 0.0511133 3.43102e-20)
(0.0531147 0.144657 7.43415e-22)
(0.0799318 0.227216 -7.52569e-22)
(0.0851131 0.293343 -8.60567e-22)
(0.079932 0.352093 -9.45587e-22)
(0.0675684 0.412832 -1.0802e-21)
(0.0577289 0.481286 -1.83523e-23)
(0.0404842 0.561194 5.60964e-22)
(0.0340366 0.655318 1.86152e-21)
(0.0087918 0.774946 0)
(0.0106418 0.911795 -1.32198e-21)
(0.0434952 0.13265 2.75866e-21)
(0.0731008 0.219202 -3.25329e-21)
(0.0816808 0.2914 5.8287e-21)
(0.0779139 0.353228 9.47243e-22)
(0.066103 0.41518 1.99174e-21)
(0.0564888 0.484072 3.25279e-21)
(0.0396057 0.564304 -1.17302e-21)
(0.0331957 0.65873 -1.24255e-21)
(0.00873697 0.778268 2.46056e-21)
(0.0101899 0.914165 1.31884e-21)
(0.0362818 0.119755 0)
(0.0665876 0.208605 -3.09559e-21)
(0.0786236 0.287535 -1.69355e-21)
(0.0763497 0.353063 0)
(0.0650436 0.416524 -6.0538e-21)
(0.0555948 0.485996 1.94114e-21)
(0.0389614 0.566642 2.08949e-21)
(0.032517 0.661538 6.90623e-21)
(0.00875547 0.781341 -2.45261e-21)
(0.00978685 0.916487 4.87534e-21)
(0.032722 0.106896 0)
(0.0606198 0.195614 3.12186e-21)
(0.0759162 0.281618 0)
(0.0751956 0.351482 7.33896e-21)
(0.0643735 0.416762 -7.37669e-21)
(0.0550428 0.486892 -4.17111e-21)
(0.0385735 0.567896 -1.70191e-22)
(0.0320484 0.663219 -6.75758e-21)
(0.00887608 0.783409 -1.12173e-21)
(0.00941244 0.91825 -6.01726e-21)
(0.0340832 0.0951015 4.81888e-22)
(0.055669 0.180793 -8.77383e-21)
(0.0735436 0.273548 3.31149e-22)
(0.0743951 0.348421 -6.71568e-21)
(0.064058 0.416048 0)
(0.0547754 0.48712 -4.03122e-21)
(0.0383542 0.568691 -1.87041e-22)
(0.0316915 0.664712 8.65872e-21)
(0.00902762 0.785565 1.11918e-21)
(0.00907959 0.920189 -1.12315e-21)
(0.0411574 0.0853429 -2.3584e-20)
(0.0525131 0.165123 1.51785e-20)
(0.0715368 0.263316 6.59047e-21)
(0.0739175 0.343666 -6.5871e-21)
(0.0640878 0.413976 -3.53061e-21)
(0.0548433 0.486029 0)
(0.0384128 0.568031 -7.97631e-21)
(0.0315625 0.664576 3.95824e-21)
(0.00928666 0.786184 4.1986e-21)
(0.00875949 0.921315 4.2599e-21)
(0.0537511 0.0782988 -2.84811e-21)
(0.0521646 0.149849 0)
(0.0699944 0.251062 0)
(0.0737074 0.3375 0)
(0.0643976 0.41138 -3.64205e-21)
(0.055091 0.484956 7.16152e-21)
(0.0385229 0.56779 7.81807e-21)
(0.0314389 0.665253 -1.18929e-20)
(0.0095138 0.787789 2.04846e-21)
(0.00848914 0.923062 -6.24767e-21)
(0.0704798 0.0740444 1.75446e-20)
(0.0555523 0.136221 1.2589e-20)
(0.0692031 0.237084 -1.24766e-20)
(0.0738003 0.328908 1.33452e-20)
(0.0650249 0.406313 -1.65609e-20)
(0.0557714 0.481372 0)
(0.0390454 0.564756 -3.6159e-21)
(0.0316378 0.662876 1.40125e-22)
(0.00989579 0.786695 -3.79718e-21)
(0.00820608 0.923498 -3.86165e-21)
(0.0889261 0.0716917 -1.47612e-20)
(0.0630234 0.124478 0)
(0.0693734 0.222705 -1.42716e-20)
(0.0741326 0.320793 2.56473e-20)
(0.0657728 0.403037 -9.54785e-21)
(0.0563011 0.480324 -1.68915e-21)
(0.0393082 0.56478 3.60832e-21)
(0.0316248 0.663886 3.1615e-23)
(0.0101317 0.788521 5.53962e-21)
(0.00799456 0.92535 5.64455e-21)
(0.105789 0.0701432 -1.2155e-20)
(0.0741681 0.113185 1.1903e-20)
(0.071518 0.203491 1.55795e-21)
(0.0748405 0.304669 0)
(0.0670474 0.391845 0)
(0.05785 0.47198 1.62213e-21)
(0.0404793 0.557581 6.59969e-21)
(0.0322298 0.657966 -6.40808e-21)
(0.0106614 0.784985 -1.64376e-21)
(0.00772489 0.924954 1.59382e-21)
(0.125008 0.0798915 0)
(0.0953287 0.115833 0)
(0.0807524 0.194042 0)
(0.0787657 0.300016 0)
(0.0687211 0.395112 0)
(0.057897 0.479458 0)
(0.0404258 0.5663 0)
(0.0318986 0.667211 0)
(0.0109932 0.792989 0)
(0.00738797 0.930696 0)
(0.130305 0.101945 0)
(0.110691 0.14579 0)
(0.0910603 0.21122 0)
(0.0836556 0.308896 0)
(0.0723342 0.405703 0)
(0.0592319 0.491226 0)
(0.0402059 0.577316 0)
(0.0300357 0.6786 0)
(0.010301 0.804394 0)
(0.00660307 0.938293 0)
(0.124084 0.109951 0)
(0.112851 0.164019 0)
(0.0946687 0.229186 0)
(0.0836502 0.322994 0)
(0.0715649 0.421364 0)
(0.0586846 0.509011 0)
(0.0408517 0.595056 0)
(0.0306275 0.694109 0)
(0.0113866 0.816935 0)
(0.00652804 0.947007 0)
(0.110326 0.113534 0)
(0.104957 0.175077 0)
(0.0919499 0.24327 0)
(0.0815577 0.335786 0)
(0.0693331 0.434562 0)
(0.0554988 0.522149 0)
(0.0373215 0.607419 0)
(0.0270991 0.70714 0)
(0.00999278 0.829746 0)
(0.00570949 0.95545 0)
(0.0923228 0.115033 0)
(0.089997 0.18196 0)
(0.0811401 0.254061 0)
(0.0730477 0.347541 0)
(0.0635687 0.448988 0)
(0.0529968 0.539494 0)
(0.0373169 0.624179 0)
(0.0271446 0.720526 0)
(0.0103304 0.840373 0)
(0.00548342 0.963095 0)
(0.071687 0.115055 0)
(0.0718767 0.185296 0)
(0.0678413 0.261735 0)
(0.0626364 0.356357 0)
(0.0540876 0.457922 0)
(0.0437726 0.548894 0)
(0.0299932 0.634788 0)
(0.0221432 0.733099 0)
(0.00841089 0.852599 0)
(0.00460938 0.971057 0)
(0.0505711 0.113721 0)
(0.0508023 0.184678 0)
(0.0497534 0.26376 0)
(0.0495775 0.361443 0)
(0.0470447 0.467626 0)
(0.0412393 0.562312 0)
(0.0291268 0.647338 0)
(0.0209332 0.742311 0)
(0.00777254 0.860003 0)
(0.00419836 0.976435 0)
(0.0316956 0.113036 0)
(0.0321084 0.185996 0)
(0.0318061 0.266464 0)
(0.0320612 0.362839 0)
(0.0311556 0.467995 0)
(0.0285186 0.565004 0)
(0.0210766 0.65449 0)
(0.0161961 0.752953 0)
(0.00587238 0.870456 0)
(0.00333504 0.982962 0)
(0.0142096 0.109003 0)
(0.0146241 0.180731 0)
(0.0177157 0.26239 0)
(0.0227727 0.362647 0)
(0.0268226 0.473296 0)
(0.0268827 0.573081 0)
(0.0198411 0.661137 0)
(0.0147274 0.757187 0)
(0.00510131 0.873964 0)
(0.00301455 0.985479 0)
(-0.00108374 0.113174 0)
(-0.00523398 0.183198 0)
(-0.00533332 0.258094 0)
(3.18554e-05 0.35137 0)
(0.0085912 0.460889 0)
(0.0153319 0.568415 0)
(0.0140164 0.665435 0)
(0.011435 0.766122 0)
(0.00383166 0.882729 0)
(0.00234922 0.990489 0)
(0.143145 0.0617658 8.92303e-21)
(0.141018 0.0697274 -8.80295e-21)
(0.130537 0.0709775 6.3063e-22)
(0.113949 0.0706709 0)
(0.0937046 0.0694947 0)
(0.0711341 0.0685168 -3.99894e-23)
(0.0488355 0.0671515 6.40018e-22)
(0.0292499 0.0662541 -6.30063e-22)
(0.0127534 0.0636081 -1.08532e-22)
(-2.85415e-05 0.0666774 1.06719e-22)
(0.144974 0.0536219 -1.23194e-20)
(0.137924 0.0567426 0)
(0.126002 0.0549832 3.09238e-21)
(0.109249 0.0528773 -5.45089e-21)
(0.0896311 0.0503641 1.98838e-21)
(0.0680038 0.0487036 3.92974e-23)
(0.0467842 0.0471075 -2.79662e-22)
(0.028021 0.0460975 -6.51539e-22)
(0.012426 0.0438892 -7.35201e-23)
(0.000413602 0.0462436 -1.76331e-23)
(0.145118 0.0445121 1.35795e-20)
(0.135529 0.0436135 -5.38298e-21)
(0.122917 0.0393649 5.33047e-21)
(0.105889 0.0355246 -1.59696e-21)
(0.0865227 0.0314908 1.3684e-21)
(0.0654615 0.028848 0)
(0.0450339 0.0266827 2.80301e-22)
(0.0269892 0.0254071 1.28804e-23)
(0.0121994 0.0235024 2.86263e-22)
(0.000798415 0.0250836 1.21891e-22)
(0.143793 0.0336693 -2.01311e-21)
(0.132247 0.0292357 0)
(0.119379 0.022894 0)
(0.102405 0.0176303 0)
(0.0835516 0.0122701 2.46242e-22)
(0.0631861 0.00875148 -7.20355e-23)
(0.0435275 0.00596726 3.31941e-23)
(0.0261319 0.00436531 3.42029e-22)
(0.0120069 0.00259386 9.60549e-23)
(0.00116498 0.0033753 1.72764e-23)
(0.141169 0.0213477 -1.76249e-21)
(0.128323 0.0138997 -5.10997e-21)
(0.1155 0.0056937 -1.47048e-21)
(0.0987356 -0.000772588 1.46929e-21)
(0.0805161 -0.00730837 -1.72916e-22)
(0.0609416 -0.0115577 0)
(0.0420693 -0.0149298 2.62365e-22)
(0.0253515 -0.0168803 -5.88942e-22)
(0.0118068 -0.0186758 2.7764e-22)
(0.00142163 -0.0186551 -1.14229e-22)
(0.137476 0.00786868 -1.40083e-20)
(0.123912 -0.0020302 2.58451e-21)
(0.111375 -0.0119597 8.35779e-22)
(0.0949763 -0.0194454 1.4204e-21)
(0.0774497 -0.0270519 0)
(0.058706 -0.0319115 0)
(0.0406237 -0.035847 0)
(0.0245939 -0.038167 -2.67865e-22)
(0.0115475 -0.0401143 0)
(0.00162001 -0.040745 0)
(0.132878 -0.0064492 0)
(0.119095 -0.0182024 3.48196e-21)
(0.107037 -0.0297709 -2.19748e-21)
(0.0911227 -0.038099 -6.93365e-22)
(0.0743587 -0.0467015 6.96894e-22)
(0.0564669 -0.0520984 -1.31379e-22)
(0.039186 -0.0565896 9.11694e-23)
(0.0238162 -0.0592946 8.59428e-22)
(0.0111986 -0.0614786 -7.94696e-23)
(0.00171123 -0.0626061 5.24324e-23)
(0.127514 -0.0213022 0)
(0.113918 -0.0342886 -1.2845e-21)
(0.102509 -0.0474463 -4.49378e-22)
(0.0871666 -0.0564491 0)
(0.0712492 -0.065994 -2.22197e-23)
(0.0542142 -0.0718831 -8.77514e-23)
(0.0377121 -0.0769308 -2.88882e-22)
(0.0229723 -0.0800324 -1.41631e-22)
(0.0107453 -0.0824878 9.22343e-23)
(0.00170253 -0.08393 -9.23804e-23)
(0.121449 -0.0364003 1.85619e-21)
(0.108444 -0.050001 1.08775e-21)
(0.0978035 -0.0647197 -4.19714e-22)
(0.0831181 -0.0742364 1.39986e-22)
(0.068092 -0.0846721 1.13824e-22)
(0.0519222 -0.0910306 2.83004e-24)
(0.0361671 -0.0966296 2.90066e-23)
(0.0220352 -0.100129 4.462e-23)
(0.0101898 -0.102837 -9.25357e-23)
(0.00161365 -0.10441 -1.77107e-23)
(0.114788 -0.0514482 -3.68911e-22)
(0.102734 -0.0651213 3.72349e-22)
(0.0929313 -0.0813496 -2.28966e-22)
(0.0789868 -0.0912436 -1.39769e-22)
(0.0648692 -0.102505 4.18078e-23)
(0.0495731 -0.109325 -4.97176e-23)
(0.0345332 -0.115446 -4.50115e-23)
(0.0209998 -0.119325 -2.85241e-23)
(0.00954948 -0.122222 0)
(0.00146999 -0.123769 1.77434e-23)
(0.10781 -0.0661947 3.77306e-22)
(0.0968961 -0.0794926 -3.80516e-22)
(0.0879751 -0.0971449 -2.47638e-22)
(0.0748396 -0.10731 -1.60461e-22)
(0.0615986 -0.119296 -5.32399e-23)
(0.047175 -0.12658 2.31726e-23)
(0.0328135 -0.133158 3.50187e-24)
(0.0198804 -0.137383 -3.77216e-23)
(0.00885177 -0.140372 0)
(0.00129585 -0.141778 1.17232e-23)
(0.100818 -0.0804763 0)
(0.0911185 -0.0930176 -1.18786e-21)
(0.0830571 -0.111953 1.96607e-21)
(0.0707735 -0.122324 1.60692e-22)
(0.0583238 -0.134888 2.03186e-22)
(0.0447571 -0.14265 1.16902e-22)
(0.0310308 -0.149577 7.54572e-24)
(0.0187053 -0.154105 2.65429e-23)
(0.00812852 -0.157081 -4.10845e-23)
(0.00110996 -0.158285 -1.16925e-23)
(0.0939894 -0.0941899 0)
(0.0855162 -0.105667 -1.44924e-21)
(0.0782404 -0.125655 -5.22485e-22)
(0.0668458 -0.136236 0)
(0.0550825 -0.149166 -5.18696e-22)
(0.0423509 -0.157439 2.31024e-22)
(0.0292218 -0.164574 6.4606e-23)
(0.0175105 -0.169364 -3.24977e-23)
(0.00741192 -0.172224 4.09504e-23)
(0.000927047 -0.173217 -2.30101e-23)
(0.0874223 -0.107266 0)
(0.0801479 -0.117495 1.46117e-21)
(0.0735475 -0.13818 0)
(0.0630817 -0.149058 1.26773e-21)
(0.0519069 -0.16208 -1.27435e-21)
(0.0399853 -0.170911 -1.68195e-22)
(0.0274292 -0.178088 1.07127e-22)
(0.0163317 -0.183113 8.40135e-24)
(0.00673004 -0.185769 5.81789e-24)
(0.000757892 -0.186582 3.02566e-23)
(0.0811954 -0.119656 1.58818e-20)
(0.075077 -0.128638 -5.95008e-21)
(0.0690122 -0.149502 -7.23233e-22)
(0.0595069 -0.160862 -2.05111e-21)
(0.0488387 -0.173647 0)
(0.0376893 -0.183094 -2.18626e-22)
(0.0256959 -0.190139 1.39814e-22)
(0.0151989 -0.195385 8.78931e-23)
(0.00610344 -0.19777 -2.8261e-24)
(0.000607285 -0.198462 2.81984e-24)
(0.0753618 -0.1313 1.67024e-21)
(0.0703828 -0.139307 9.10934e-21)
(0.0646994 -0.159643 2.19349e-21)
(0.0561556 -0.171763 -2.19228e-21)
(0.0459336 -0.183946 -6.38678e-22)
(0.0354941 -0.194067 0)
(0.0240615 -0.20082 -3.2169e-22)
(0.0141348 -0.206283 1.66652e-22)
(0.00554571 -0.208352 3.63771e-23)
(0.000475379 -0.208993 8.11155e-24)
(0.0700198 -0.142094 -2.27059e-21)
(0.0662157 -0.149768 0)
(0.0607412 -0.168676 0)
(0.053088 -0.181893 0)
(0.0432671 -0.193118 -4.45303e-22)
(0.0334363 -0.203953 1.083e-21)
(0.0225617 -0.210276 3.61842e-22)
(0.0131561 -0.215959 -3.59697e-22)
(0.00506492 -0.21769 1.13234e-23)
(0.000359443 -0.218352 -1.92308e-23)
(0.0651718 -0.151858 -5.4544e-21)
(0.0626038 -0.160286 6.63425e-21)
(0.057176 -0.176721 -6.57223e-21)
(0.0502798 -0.191375 3.61041e-21)
(0.0408625 -0.201343 -4.345e-21)
(0.0315205 -0.212892 0)
(0.0212098 -0.21869 -2.89347e-22)
(0.0122679 -0.224594 -3.45139e-23)
(0.00466222 -0.225985 -6.64438e-23)
(0.000254175 -0.226739 -2.48263e-23)
(0.0598818 -0.160216 -2.49017e-21)
(0.0587176 -0.171067 0)
(0.0535007 -0.183966 -6.24661e-21)
(0.0473175 -0.200331 9.30398e-21)
(0.0384917 -0.208844 -3.10562e-21)
(0.0296103 -0.221055 -2.75637e-22)
(0.0199431 -0.226265 2.8869e-22)
(0.0114425 -0.232381 2.75399e-23)
(0.00432248 -0.233446 1.60122e-22)
(0.000153564 -0.234365 5.04085e-23)
(0.0545265 -0.166359 -1.01327e-20)
(0.0545189 -0.182278 9.87895e-21)
(0.0499671 -0.190777 8.4106e-22)
(0.0442857 -0.208947 0)
(0.0361876 -0.215926 0)
(0.027722 -0.228675 2.84638e-22)
(0.0187417 -0.233243 5.69974e-22)
(0.0106639 -0.239523 -5.58879e-22)
(0.00402247 -0.240277 -3.40485e-23)
(7.51279e-05 -0.241437 3.32465e-23)
(0.059343 -0.17388 0)
(0.0554981 -0.208642 0)
(0.0503165 -0.206494 0)
(0.042975 -0.228811 0)
(0.0345178 -0.2325 0)
(0.0254211 -0.246285 0)
(0.0169085 -0.249238 0)
(0.00924092 -0.2557 0)
(0.00349519 -0.2556 0)
(7.38683e-05 -0.25734 0)
(0.0435036 -0.219727 0)
(0.0372141 -0.251694 0)
(0.0349423 -0.245301 0)
(0.028669 -0.265093 0)
(0.0237553 -0.264814 0)
(0.01722 -0.276912 0)
(0.0117926 -0.276927 0)
(0.00643753 -0.282579 0)
(0.00264397 -0.280953 0)
(0.000147992 -0.283042 0)
(0.0394614 -0.264232 0)
(0.0318443 -0.294891 0)
(0.0287604 -0.284847 0)
(0.0223491 -0.303813 0)
(0.018269 -0.300038 0)
(0.0127547 -0.311445 0)
(0.00886376 -0.308915 0)
(0.0047892 -0.314352 0)
(0.0021643 -0.311366 0)
(0.000141055 -0.313935 0)
(0.0337323 -0.314102 0)
(0.0259908 -0.344125 0)
(0.0232945 -0.330728 0)
(0.0173339 -0.349532 0)
(0.0142971 -0.342601 0)
(0.00967466 -0.354061 0)
(0.00700774 -0.349283 0)
(0.00378147 -0.355043 0)
(0.00193137 -0.350725 0)
(0.000125266 -0.354001 0)
(0.0288198 -0.373033 0)
(0.0216617 -0.402634 0)
(0.0189977 -0.386996 0)
(0.0136942 -0.406012 0)
(0.0114018 -0.396731 0)
(0.00751714 -0.408729 0)
(0.00570594 -0.402158 0)
(0.0030221 -0.408628 0)
(0.001721 -0.403136 0)
(7.52112e-05 -0.407373 0)
(0.0244366 -0.443553 0)
(0.0178732 -0.471223 0)
(0.0154461 -0.455855 0)
(0.0107976 -0.47438 0)
(0.00908772 -0.464431 0)
(0.00575892 -0.476625 0)
(0.00450965 -0.469253 0)
(0.00217665 -0.476322 0)
(0.00132707 -0.47024 0)
(-5.86857e-05 -0.475375 0)
(0.0192495 -0.521794 0)
(0.0140671 -0.544677 0)
(0.0119801 -0.53315 0)
(0.00823679 -0.549162 0)
(0.00683026 -0.540951 0)
(0.00406945 -0.551846 0)
(0.00308965 -0.545265 0)
(0.00112666 -0.551933 0)
(0.000668715 -0.546362 0)
(-0.000230735 -0.551655 0)
(0.0147955 -0.595306 0)
(0.0105538 -0.611742 0)
(0.00870689 -0.605936 0)
(0.00564816 -0.617266 0)
(0.00456427 -0.612544 0)
(0.00234587 -0.620316 0)
(0.00162565 -0.615922 0)
(8.52477e-05 -0.620697 0)
(2.80929e-05 -0.616719 0)
(-0.000341914 -0.620794 0)
(0.00889474 -0.649706 0)
(0.00602965 -0.658493 0)
(0.005004 -0.658684 0)
(0.00314004 -0.665158 0)
(0.00253599 -0.664366 0)
(0.00108872 -0.668332 0)
(0.00063301 -0.666495 0)
(-0.000352387 -0.668626 0)
(-0.000226719 -0.66659 0)
(-0.000286611 -0.668577 0)
(0.00232016 -0.676346 0)
(0.00156645 -0.683346 0)
(0.00143122 -0.686109 0)
(0.000991243 -0.690071 0)
(0.000806146 -0.690805 0)
(0.000347489 -0.692811 0)
(0.000156117 -0.692171 0)
(-0.000160077 -0.692957 0)
(-0.000115972 -0.691944 0)
(-9.73252e-05 -0.692775 0)
(0.053303 -0.187023 1.2286e-20)
(0.0427753 -0.233447 -1.20573e-20)
(0.0406361 -0.279288 1.52683e-21)
(0.0352439 -0.330785 0)
(0.0310081 -0.390232 0)
(0.0266052 -0.45922 1.64463e-21)
(0.0216086 -0.53317 -6.91722e-21)
(0.0163465 -0.599711 6.85099e-21)
(0.0102075 -0.64956 1.82492e-21)
(0.0032753 -0.672692 -1.79891e-21)
(0.0516142 -0.193592 -1.46593e-20)
(0.0430495 -0.239147 0)
(0.041267 -0.284633 1.01058e-20)
(0.0360073 -0.336157 -2.30367e-20)
(0.0320197 -0.395453 1.45512e-20)
(0.0275923 -0.463722 -1.49134e-21)
(0.0226452 -0.536031 3.25092e-21)
(0.0170584 -0.600848 6.75472e-21)
(0.01079 -0.648521 1.85038e-21)
(0.00367313 -0.671444 1.82813e-21)
(0.0505197 -0.200543 1.72672e-20)
(0.0439712 -0.245721 -1.14705e-20)
(0.0422848 -0.29039 1.13617e-20)
(0.0371297 -0.341324 -1.20421e-20)
(0.0333034 -0.400082 8.9483e-21)
(0.028783 -0.467361 0)
(0.0237242 -0.537946 -3.259e-21)
(0.0178336 -0.601278 1.55338e-22)
(0.0112909 -0.646883 -3.49758e-21)
(0.00389738 -0.67001 -3.58471e-21)
(0.0500201 -0.206383 -2.79321e-21)
(0.0453504 -0.251665 0)
(0.0436704 -0.295825 0)
(0.0386369 -0.346242 0)
(0.0348834 -0.404491 9.70601e-21)
(0.0302085 -0.47077 -6.4657e-21)
(0.0249207 -0.539693 -1.79948e-23)
(0.0187018 -0.601338 -3.76332e-21)
(0.0117662 -0.645225 -1.91559e-21)
(0.00401581 -0.668014 -2.03105e-21)
(0.0502517 -0.211447 -2.4588e-23)
(0.0471147 -0.25652 -8.43574e-21)
(0.0453584 -0.300294 -6.04248e-21)
(0.0404666 -0.350415 6.03876e-21)
(0.0367133 -0.408315 -3.19714e-21)
(0.0318459 -0.47374 0)
(0.026281 -0.541192 -3.58592e-21)
(0.0196941 -0.601119 7.70151e-21)
(0.0123044 -0.643565 -3.92916e-21)
(0.0041321 -0.665584 3.99338e-21)
(0.0512918 -0.216006 -2.28341e-20)
(0.0493064 -0.260458 2.67821e-21)
(0.0473646 -0.303703 -2.52423e-22)
(0.0425889 -0.353578 6.19777e-21)
(0.0387593 -0.411207 0)
(0.0336684 -0.47591 0)
(0.0278091 -0.542117 0)
(0.0208223 -0.600514 4.1157e-21)
(0.012954 -0.64174 0)
(0.0043022 -0.662922 0)
(0.0531431 -0.21992 0)
(0.0519617 -0.263557 9.01999e-21)
(0.0497459 -0.306137 -6.05878e-21)
(0.0450211 -0.355717 -6.73724e-21)
(0.0410299 -0.413062 6.77237e-21)
(0.0356773 -0.477114 3.83755e-21)
(0.0294992 -0.542267 -3.8318e-21)
(0.0220838 -0.599403 -1.46947e-20)
(0.0137181 -0.639625 1.04817e-21)
(0.00453351 -0.660124 -3.51396e-21)
(0.0557949 -0.222953 0)
(0.0550845 -0.265719 -2.96783e-21)
(0.0525431 -0.307595 -1.61389e-21)
(0.0477889 -0.356858 0)
(0.0435537 -0.413893 1.88686e-21)
(0.0378953 -0.477342 -5.73194e-21)
(0.0313592 -0.541599 6.19269e-21)
(0.0234795 -0.597729 2.17219e-21)
(0.0145854 -0.637161 -2.35904e-21)
(0.00481609 -0.657184 4.66768e-21)
(0.0592466 -0.224941 2.87965e-21)
(0.0586707 -0.266833 3.15836e-21)
(0.0557744 -0.308002 -7.46162e-22)
(0.0509047 -0.356983 8.88965e-22)
(0.0463565 -0.413711 1.84e-21)
(0.040348 -0.47664 3.00276e-21)
(0.0334038 -0.540162 -1.10328e-21)
(0.0250125 -0.59551 -1.17486e-21)
(0.0155427 -0.634356 2.36683e-21)
(0.00513825 -0.654071 1.27335e-21)
(0.0634998 -0.225768 -7.62373e-22)
(0.062722 -0.266853 7.68469e-22)
(0.0594508 -0.307284 -8.29019e-22)
(0.0543705 -0.356054 -8.87871e-22)
(0.0494539 -0.412496 1.00631e-21)
(0.043053 -0.475019 -2.04313e-21)
(0.0356531 -0.537975 1.6829e-21)
(0.0266985 -0.592758 5.9186e-22)
(0.0165956 -0.631211 0)
(0.00550059 -0.65075 -1.27617e-21)
(0.068552 -0.225332 7.81503e-22)
(0.0672411 -0.265791 -7.8811e-22)
(0.0635819 -0.3054 -8.85557e-22)
(0.0581856 -0.354058 -9.52923e-22)
(0.0528587 -0.410227 -1.046e-21)
(0.0460199 -0.4725 -5.61965e-23)
(0.038115 -0.535082 5.93591e-22)
(0.0285385 -0.58952 1.88486e-21)
(0.0177385 -0.627759 0)
(0.00589889 -0.64722 -1.38395e-21)
(0.0743937 -0.22359 0)
(0.072223 -0.263687 -3.45683e-21)
(0.0681784 -0.302353 6.20651e-21)
(0.0623479 -0.351011 9.5459e-22)
(0.0565793 -0.406902 2.1405e-21)
(0.0492554 -0.469057 3.42266e-21)
(0.0408109 -0.531434 -1.19642e-21)
(0.0305574 -0.585749 -1.27514e-21)
(0.018995 -0.623963 2.78727e-21)
(0.00634513 -0.64346 1.38069e-21)
(0.0810103 -0.220614 0)
(0.077659 -0.260566 -3.47991e-21)
(0.0732424 -0.298231 -1.84196e-21)
(0.0668535 -0.346932 0)
(0.0606321 -0.402562 -6.6677e-21)
(0.0527629 -0.464742 2.24266e-21)
(0.0437294 -0.527123 2.562e-21)
(0.0327331 -0.581536 8.14054e-21)
(0.0203397 -0.619875 -2.77824e-21)
(0.00682316 -0.639481 5.95436e-21)
(0.0883855 -0.216537 0)
(0.0835377 -0.256419 3.50977e-21)
(0.078774 -0.293121 0)
(0.0717091 -0.341856 8.69428e-21)
(0.0650137 -0.397263 -8.73885e-21)
(0.0565558 -0.459468 -5.06641e-21)
(0.0469072 -0.52201 -7.43777e-23)
(0.0351183 -0.576729 -8.35086e-21)
(0.0218261 -0.615391 -1.39274e-21)
(0.00736113 -0.635207 -7.40625e-21)
(0.0965001 -0.211549 2.71632e-20)
(0.0898521 -0.251246 -1.02889e-20)
(0.0847322 -0.287297 6.43998e-22)
(0.0769116 -0.335773 -8.38331e-21)
(0.0697551 -0.391066 0)
(0.0606343 -0.45338 -5.26491e-21)
(0.0502894 -0.516337 -3.46904e-22)
(0.0376437 -0.571554 1.13334e-20)
(0.0233886 -0.610652 1.53266e-21)
(0.00792034 -0.630748 -1.53837e-21)
(0.105321 -0.205834 -1.44203e-21)
(0.0965788 -0.245009 1.85488e-20)
(0.0911425 -0.280611 8.69841e-21)
(0.0825303 -0.328496 -8.69257e-21)
(0.0748435 -0.383795 -4.96803e-21)
(0.0650523 -0.446244 0)
(0.0539796 -0.509705 -1.15916e-20)
(0.0404417 -0.565641 5.81151e-21)
(0.0251403 -0.605438 6.12706e-21)
(0.00855881 -0.625959 6.52006e-21)
(0.114784 -0.199766 -3.72486e-21)
(0.103762 -0.237669 0)
(0.0979359 -0.273207 0)
(0.0884998 -0.320678 0)
(0.0801948 -0.376102 -5.56359e-21)
(0.0696815 -0.438907 1.05139e-20)
(0.0577895 -0.503032 1.17871e-20)
(0.0432828 -0.559726 -1.83996e-20)
(0.0268855 -0.600157 3.25567e-21)
(0.00916673 -0.62107 -9.68346e-21)
(0.124811 -0.193136 -6.50266e-21)
(0.111512 -0.229001 1.73821e-20)
(0.105049 -0.26479 -1.72164e-20)
(0.0949073 -0.311646 2.03312e-20)
(0.0859894 -0.36688 -2.54747e-20)
(0.0748038 -0.429857 0)
(0.0621111 -0.494719 -6.14555e-21)
(0.0465993 -0.552576 -2.27466e-22)
(0.0289751 -0.594136 -6.74246e-21)
(0.00993048 -0.615663 -6.84768e-21)
(0.134925 -0.186963 -3.97214e-21)
(0.119557 -0.220864 0)
(0.112146 -0.257251 -2.1979e-20)
(0.101347 -0.303781 4.04619e-20)
(0.0917283 -0.359194 -1.54579e-20)
(0.0797728 -0.422583 -2.95786e-21)
(0.066172 -0.488068 6.13248e-21)
(0.0496074 -0.546537 -2.68631e-22)
(0.0308045 -0.588572 9.86567e-21)
(0.0105198 -0.610408 1.01333e-20)
(0.145725 -0.1779 -1.72311e-20)
(0.129285 -0.209068 1.68459e-20)
(0.120491 -0.245638 2.37127e-21)
(0.109069 -0.291346 0)
(0.0987195 -0.346514 0)
(0.0860541 -0.410307 2.86533e-21)
(0.0715425 -0.477184 1.27088e-20)
(0.053788 -0.537668 -1.24002e-20)
(0.0334773 -0.581505 -3.33813e-21)
(0.0115216 -0.604142 3.27996e-21)
(0.156836 -0.179569 0)
(0.149856 -0.204692 0)
(0.136517 -0.242872 0)
(0.123511 -0.287563 0)
(0.111583 -0.34167 0)
(0.0970734 -0.403592 0)
(0.0804435 -0.468161 0)
(0.0603028 -0.526334 0)
(0.037358 -0.568721 0)
(0.0124339 -0.591156 0)
(0.179713 -0.162352 0)
(0.185419 -0.19207 0)
(0.1642 -0.233821 0)
(0.151672 -0.277586 0)
(0.136967 -0.330986 0)
(0.119305 -0.390452 0)
(0.0989134 -0.451142 0)
(0.0742892 -0.50466 0)
(0.0463622 -0.542565 0)
(0.0163317 -0.561215 0)
(0.212098 -0.144936 0)
(0.223153 -0.17542 0)
(0.193891 -0.216727 0)
(0.183809 -0.258684 0)
(0.164706 -0.310979 0)
(0.143374 -0.367031 0)
(0.118311 -0.423738 0)
(0.0883715 -0.473805 0)
(0.0545405 -0.510186 0)
(0.0178261 -0.530057 0)
(0.253575 -0.132815 0)
(0.266231 -0.161887 0)
(0.230446 -0.202037 0)
(0.223805 -0.242792 0)
(0.198177 -0.293626 0)
(0.173254 -0.344935 0)
(0.142519 -0.396813 0)
(0.106338 -0.44124 0)
(0.0660927 -0.472024 0)
(0.0234955 -0.48623 0)
(0.303462 -0.117342 0)
(0.314445 -0.144142 0)
(0.273714 -0.181535 0)
(0.268338 -0.21915 0)
(0.23276 -0.265033 0)
(0.203929 -0.309437 0)
(0.165341 -0.356022 0)
(0.1222 -0.395739 0)
(0.0745184 -0.425388 0)
(0.023393 -0.443253 0)
(0.364496 -0.107794 0)
(0.371498 -0.131819 0)
(0.327303 -0.166218 0)
(0.319681 -0.199162 0)
(0.273316 -0.239386 0)
(0.242197 -0.277688 0)
(0.19424 -0.319113 0)
(0.143643 -0.351677 0)
(0.0885185 -0.374645 0)
(0.0327471 -0.382879 0)
(0.430295 -0.0871662 0)
(0.428893 -0.106548 0)
(0.38195 -0.135311 0)
(0.367349 -0.161184 0)
(0.310962 -0.194284 0)
(0.276355 -0.225004 0)
(0.213738 -0.258271 0)
(0.156096 -0.284116 0)
(0.0916849 -0.308808 0)
(0.0246801 -0.329409 0)
(0.502601 -0.0744299 0)
(0.490997 -0.0889336 0)
(0.445191 -0.112186 0)
(0.420382 -0.13139 0)
(0.360117 -0.158171 0)
(0.318324 -0.181045 0)
(0.244223 -0.20752 0)
(0.182848 -0.229544 0)
(0.110438 -0.251376 0)
(0.0489834 -0.251446 0)
(0.555669 -0.0399068 0)
(0.535131 -0.0472512 0)
(0.482647 -0.0613556 0)
(0.446487 -0.071156 0)
(0.378036 -0.0872727 0)
(0.324087 -0.0983108 0)
(0.236717 -0.114135 0)
(0.165978 -0.126668 0)
(0.0762013 -0.150134 0)
(-0.0136434 -0.196772 0)
(0.753623 -0.0199858 0)
(0.728158 -0.0237111 0)
(0.682679 -0.0293854 0)
(0.641308 -0.0344506 0)
(0.579125 -0.0420372 0)
(0.51906 -0.0491195 0)
(0.43524 -0.0601909 0)
(0.349735 -0.0740539 0)
(0.235327 -0.102353 0)
(0.161887 -0.157751 0)
(0.186721 -0.157806 1.8417e-20)
(0.213022 -0.138395 -1.8135e-20)
(0.246359 -0.122182 2.70936e-21)
(0.287003 -0.111166 0)
(0.335988 -0.0977383 0)
(0.394235 -0.0894371 3.63881e-21)
(0.457778 -0.07163 -1.66898e-20)
(0.525622 -0.0616766 1.65265e-20)
(0.582468 -0.0319583 4.62873e-21)
(0.77454 -0.016989 -4.65402e-21)
(0.195285 -0.148629 -1.86568e-20)
(0.220869 -0.128497 0)
(0.254104 -0.113126 1.86254e-20)
(0.294816 -0.102617 -4.4089e-20)
(0.343936 -0.0899914 2.90108e-20)
(0.401992 -0.0821857 -3.33784e-21)
(0.465383 -0.0654421 7.16658e-21)
(0.532531 -0.0565787 1.5682e-20)
(0.591745 -0.0287782 4.28816e-21)
(0.782177 -0.0157189 4.17822e-21)
(0.202768 -0.138203 2.17764e-20)
(0.227052 -0.118142 -1.87154e-20)
(0.259515 -0.103941 1.85389e-20)
(0.299922 -0.094039 -2.31014e-20)
(0.348996 -0.0823022 1.6886e-20)
(0.407042 -0.0751004 0)
(0.470489 -0.0595135 -7.18419e-21)
(0.537577 -0.0518569 -7.10897e-23)
(0.599372 -0.0259352 -8.1226e-21)
(0.788822 -0.0145236 -8.38486e-21)
(0.210689 -0.127019 -3.68357e-21)
(0.23443 -0.107513 0)
(0.266127 -0.0945938 0)
(0.306059 -0.0853704 0)
(0.354882 -0.0746152 1.85389e-20)
(0.412684 -0.0681337 -1.25326e-20)
(0.476005 -0.0538005 -3.38554e-22)
(0.542856 -0.0474222 -7.99721e-21)
(0.60664 -0.0233801 -4.09332e-21)
(0.795139 -0.0134171 -4.14914e-21)
(0.218082 -0.115415 2.25765e-21)
(0.241703 -0.0968286 -1.14371e-20)
(0.272722 -0.0851962 -1.01003e-20)
(0.312463 -0.0767061 1.00942e-20)
(0.361153 -0.0669814 -5.92347e-21)
(0.418779 -0.0613006 0)
(0.481961 -0.0482636 -7.11606e-21)
(0.548481 -0.0431653 1.5522e-20)
(0.613795 -0.0210087 -7.82096e-21)
(0.801222 -0.0123808 8.32235e-21)
(0.224633 -0.103463 -2.83271e-20)
(0.248035 -0.0861301 2.39534e-21)
(0.278276 -0.0757982 -1.09143e-21)
(0.317989 -0.0681476 9.96968e-21)
(0.366679 -0.0594818 0)
(0.424323 -0.0546611 0)
(0.487501 -0.0429182 0)
(0.553833 -0.0390574 7.53188e-21)
(0.620546 -0.0187675 0)
(0.806908 -0.0113972 0)
(0.230351 -0.0911791 0)
(0.253289 -0.0753812 1.27875e-20)
(0.282764 -0.0663772 -8.74879e-21)
(0.322377 -0.059698 -1.09614e-20)
(0.371039 -0.052131 1.10186e-20)
(0.428784 -0.0482334 6.6424e-21)
(0.492076 -0.0377779 -6.38336e-21)
(0.55842 -0.0351124 -2.61195e-20)
(0.626547 -0.0166474 1.85674e-21)
(0.812013 -0.0104627 -6.09759e-21)
(0.235155 -0.0785823 0)
(0.257464 -0.0645615 -4.05032e-21)
(0.2863 -0.0569199 -2.29555e-21)
(0.325717 -0.0513085 0)
(0.37427 -0.0448872 3.15239e-21)
(0.432148 -0.0419893 -9.22347e-21)
(0.495517 -0.0328197 1.04943e-20)
(0.56212 -0.0313233 3.89826e-21)
(0.631621 -0.0146466 -3.89586e-21)
(0.816454 -0.00957554 8.15667e-21)
(0.238902 -0.0656857 3.08508e-21)
(0.260533 -0.0536582 4.27043e-21)
(0.288838 -0.0474232 -8.78039e-22)