/*--------------------------------*- C++ -*----------------------------------*\
  =========                 |
  \\      /  F ield         | OpenFOAM: The Open Source CFD Toolbox
   \\    /   O peration     | Website:  https://openfoam.org
    \\  /    A nd           | Version:  7
     \\/     M anipulation  |
\*---------------------------------------------------------------------------*/
FoamFile
{
    version     2.0;
    format      ascii;
    class       volScalarField;
    location    "0.25";
    object      p;
}
// * * * * * * * * * * * * * * * * * * * * * * * * * * * * * * * * * * * * * //

dimensions      [0 2 -2 0 0 0 0];

internalField   nonuniform List<scalar> 
400
(
6.00356e-06
-0.00589667
-0.0130465
-0.0184912
-0.0205134
-0.0183211
-0.0118509
-0.00154907
0.011788
0.0271187
0.0432339
0.0588318
0.0726042
0.0833465
0.0900972
0.0923105
0.0900663
0.0842939
0.0769017
0.0710291
0.00583141
-0.000239888
-0.00577359
-0.00948617
-0.0105341
-0.0083671
-0.0029116
0.00551749
0.0163253
0.0287093
0.0417209
0.0543314
0.0655095
0.0743166
0.0800188
0.0822151
0.0809863
0.0769913
0.0712609
0.0652449
0.0133984
0.00496609
-0.00100722
-0.00442361
-0.00527624
-0.00326814
0.00159695
0.00901968
0.0184907
0.0293338
0.0407455
0.0518453
0.0617402
0.069605
0.0747742
0.0768446
0.0758061
0.0720626
0.0658371
0.0574401
0.0202089
0.00859672
0.00120607
-0.00267526
-0.00373441
-0.00189888
0.00271742
0.00976987
0.0187646
0.029078
0.0399735
0.050634
0.0602113
0.067893
0.0729796
0.0749767
0.0737361
0.0694405
0.0616675
0.0500023
0.0245953
0.00964952
0.000573544
-0.00398507
-0.00530716
-0.0035138
0.00116747
0.00832527
0.01745
0.0279339
0.0390664
0.0500478
0.0600233
0.0681365
0.0735963
0.0757657
0.0743304
0.0692709
0.0596176
0.0444138
0.0253003
0.00700177
-0.00381562
-0.00904846
-0.0105122
-0.00850212
-0.00336007
0.00442362
0.0143041
0.0256659
0.0377963
0.0498812
0.0610214
0.0702723
0.0767013
0.0794803
0.0780929
0.0723122
0.0606608
0.0417363
0.0212485
-0.000434936
-0.0129439
-0.0186923
-0.0200241
-0.0174112
-0.0113172
-0.00232156
0.00898463
0.0219659
0.0358942
0.0499234
0.0630853
0.0743129
0.0824855
0.0865277
0.0856655
0.0794215
0.0657734
0.0428818
0.0113362
-0.0138143
-0.027877
-0.0338256
-0.0345894
-0.0308477
-0.0232054
-0.0123416
0.00110383
0.0164776
0.0330403
0.0499146
0.0660568
0.0802557
0.0911602
0.0973809
0.0978021
0.0916021
0.0760824
0.0488807
-0.00572596
-0.0344853
-0.0498602
-0.0555044
-0.0550649
-0.0494957
-0.0395782
-0.0261028
-0.00975209
0.00882206
0.0288932
0.0495777
0.0697723
0.088119
0.103002
0.112643
0.115464
0.110144
0.093055
0.061114
-0.0315531
-0.0641168
-0.0803895
-0.0849428
-0.0823812
-0.0740488
-0.0609565
-0.0440183
-0.0239394
-0.00133134
0.0231437
0.0486501
0.0740734
0.0979367
0.118346
0.133056
0.139878
0.136747
0.118696
0.08155
-0.0682767
-0.104863
-0.121291
-0.1235
-0.117461
-0.105086
-0.0876845
-0.0662991
-0.0416174
-0.0141427
0.015611
0.0469491
0.0788389
0.10976
0.137572
0.159503
0.172586
0.173673
0.155806
0.113062
-0.118888
-0.159631
-0.174826
-0.172637
-0.161077
-0.142877
-0.119717
-0.0927435
-0.0625508
-0.029427
0.00638713
0.0444784
0.0840468
0.123676
0.161085
0.192993
0.215491
0.223923
0.208353
0.159941
-0.18794
-0.232517
-0.243804
-0.233796
-0.21361
-0.187096
-0.156326
-0.122463
-0.0858662
-0.0464447
-0.00399132
0.041555
0.0898463
0.139814
0.189275
0.234592
0.270863
0.291449
0.282033
0.228821
-0.283059
-0.329536
-0.331637
-0.308106
-0.274622
-0.236383
-0.195721
-0.153574
-0.109807
-0.0637132
-0.014406
0.0388931
0.0965767
0.158283
0.222352
0.285204
0.341168
0.381282
0.385114
0.330528
-0.418182
-0.459742
-0.442068
-0.395623
-0.342068
-0.287705
-0.234589
-0.182906
-0.131583
-0.0789528
-0.0231746
0.0375214
0.104602
0.17888
0.259884
0.344934
0.428409
0.499312
0.529622
0.483719
-0.61942
-0.636576
-0.578328
-0.494078
-0.411222
-0.33565
-0.267773
-0.205964
-0.147519
-0.0893521
-0.0283814
0.0384085
0.11388
0.200553
0.300052
0.412065
0.532938
0.651427
0.732446
0.720599
-0.935594
-0.878175
-0.741677
-0.598051
-0.474385
-0.372621
-0.288839
-0.217734
-0.15392
-0.092424
-0.0286717
0.0417566
0.123339
0.220805
0.339005
0.482247
0.652269
0.841653
1.01496
1.09628
-1.48059
-1.20195
-0.920995
-0.692541
-0.517671
-0.387696
-0.290189
-0.21342
-0.148157
-0.0872045
-0.0245231
0.0455638
0.129106
0.233302
0.367366
0.543126
0.772634
1.06029
1.39819
1.73407
-2.57157
-1.60192
-1.04346
-0.714824
-0.497794
-0.353382
-0.255524
-0.184278
-0.12659
-0.0737786
-0.0192047
0.0430697
0.119767
0.219656
0.356009
0.549826
0.829816
1.23508
1.88111
2.95926
-4.4451
-2.01726
-0.969791
-0.564334
-0.35704
-0.239029
-0.169351
-0.123292
-0.0871793
-0.0533642
-0.0166722
0.0275186
0.0843032
0.161198
0.271582
0.441367
0.718808
1.22151
2.38403
4.9294
)
;

boundaryField
{
    movingWall
    {
        type            zeroGradient;
    }
    fixedWalls
    {
        type            zeroGradient;
    }
    frontAndBack
    {
        type            empty;
    }
}


// ************************************************************************* //
