/*--------------------------------*- C++ -*----------------------------------*\
  =========                 |
  \\      /  F ield         | OpenFOAM: The Open Source CFD Toolbox
   \\    /   O peration     | Website:  https://openfoam.org
    \\  /    A nd           | Version:  7
     \\/     M anipulation  |
\*---------------------------------------------------------------------------*/
FoamFile
{
    version     2.0;
    format      ascii;
    class       surfaceScalarField;
    location    "0.25";
    object      phi;
}
// * * * * * * * * * * * * * * * * * * * * * * * * * * * * * * * * * * * * * //

dimensions      [0 3 -1 0 0 0 0];

internalField   nonuniform List<scalar> 
760
(
1.42657e-08
-1.42974e-08
-2.2355e-08
3.66208e-08
-1.14286e-07
9.19314e-08
-2.45425e-07
1.31139e-07
-3.95994e-07
1.50569e-07
-5.47243e-07
1.51249e-07
-6.83051e-07
1.35808e-07
-7.90508e-07
1.07457e-07
-8.60041e-07
6.95324e-08
-8.85467e-07
2.54267e-08
-8.64145e-07
-2.13227e-08
-7.97219e-07
-6.69259e-08
-6.89927e-07
-1.07292e-07
-5.51832e-07
-1.38095e-07
-3.96827e-07
-1.55005e-07
-2.42677e-07
-1.5415e-07
-1.0976e-07
-1.32917e-07
-1.8578e-08
-9.11824e-08
1.57739e-08
-3.4352e-08
1.57739e-08
-3.43554e-08
2.0058e-08
-1.80425e-07
1.8269e-07
-4.34039e-07
3.45545e-07
-7.6434e-07
4.6144e-07
-1.13191e-06
5.18143e-07
-1.49674e-06
5.1607e-07
-1.82264e-06
4.61711e-07
-2.07968e-06
3.64501e-07
-2.24532e-06
2.35166e-07
-2.30503e-06
8.51429e-08
-2.25291e-06
-7.34471e-08
-2.09213e-06
-2.27698e-07
-1.83549e-06
-3.63938e-07
-1.50546e-06
-4.6812e-07
-1.13373e-06
-5.26736e-07
-7.59401e-07
-5.2848e-07
-4.25445e-07
-4.66873e-07
-1.72745e-07
-3.43882e-07
-3.10008e-08
-1.76096e-07
-1.52269e-08
-9.20646e-08
1.12123e-07
-3.5687e-07
4.47496e-07
-7.6438e-07
7.53055e-07
-1.26816e-06
9.65218e-07
-1.81416e-06
1.06415e-06
-2.34829e-06
1.0502e-06
-2.82148e-06
9.34897e-07
-3.19282e-06
7.35844e-07
-3.43137e-06
4.73716e-07
-3.51722e-06
1.70989e-07
-3.44228e-06
-1.48379e-07
-3.21104e-06
-4.58938e-07
-2.84104e-06
-7.33947e-07
-2.36293e-06
-9.46223e-07
-1.81968e-06
-1.06999e-06
-1.26409e-06
-1.08407e-06
-7.5431e-07
-9.76654e-07
-3.46835e-07
-7.51358e-07
-8.71718e-08
-4.35759e-07
-1.02399e-07
-1.45083e-07
2.57206e-07
-5.25249e-07
8.27662e-07
-1.08128e-06
1.30909e-06
-1.74696e-06
1.6309e-06
-2.45355e-06
1.77074e-06
-3.13537e-06
1.73201e-06
-3.73407e-06
1.5336e-06
-4.20151e-06
1.20329e-06
-4.5014e-06
7.73604e-07
-4.61034e-06
2.7993e-07
-4.51867e-06
-2.40052e-07
-4.23121e-06
-7.46395e-07
-3.76798e-06
-1.19718e-06
-3.16445e-06
-1.54975e-06
-2.47094e-06
-1.7635e-06
-1.75041e-06
-1.80461e-06
-1.07409e-06
-1.65297e-06
-5.14898e-07
-1.31055e-06
-1.39175e-07
-8.11482e-07
-2.41574e-07
-1.93511e-07
4.50717e-07
-6.84744e-07
1.3189e-06
-1.38515e-06
2.00949e-06
-2.2065e-06
2.45225e-06
-3.06445e-06
2.62869e-06
-3.88249e-06
2.55006e-06
-4.59498e-06
2.24609e-06
-5.14887e-06
1.75717e-06
-5.50459e-06
1.12933e-06
-5.63659e-06
4.11922e-07
-5.5338e-06
-3.42839e-07
-5.20047e-06
-1.07972e-06
-4.65711e-06
-1.74054e-06
-3.9414e-06
-2.26546e-06
-3.10844e-06
-2.59646e-06
-2.22957e-06
-2.68348e-06
-1.38904e-06
-2.49349e-06
-6.78187e-07
-2.02141e-06
-1.87645e-07
-1.30202e-06
-4.29218e-07
-2.39832e-07
6.90549e-07
-8.40029e-07
1.91909e-06
-1.68267e-06
2.85214e-06
-2.65611e-06
3.42569e-06
-3.65957e-06
3.63214e-06
-4.60621e-06
3.49669e-06
-5.42454e-06
3.06443e-06
-6.05855e-06
2.39119e-06
-6.46718e-06
1.53796e-06
-6.62377e-06
5.68517e-07
-6.516e-06
-4.50611e-07
-6.14651e-06
-1.44921e-06
-5.53437e-06
-2.35268e-06
-4.71697e-06
-3.08286e-06
-3.75182e-06
-3.56161e-06
-2.71723e-06
-3.71807e-06
-1.71073e-06
-3.49999e-06
-8.44243e-07
-2.88789e-06
-2.36027e-07
-1.91024e-06
-6.65245e-07
-2.86602e-07
9.77151e-07
-9.96676e-07
2.62917e-06
-1.98131e-06
3.83677e-06
-3.10378e-06
4.54816e-06
-4.24643e-06
4.77479e-06
-5.31298e-06
4.56325e-06
-6.22802e-06
3.97946e-06
-6.93487e-06
3.09803e-06
-7.39302e-06
1.99611e-06
-7.57603e-06
7.51531e-07
-7.4705e-06
-5.56142e-07
-7.07645e-06
-1.84326e-06
-6.4093e-06
-3.01982e-06
-5.5032e-06
-3.98897e-06
-4.41499e-06
-4.64982e-06
-3.22775e-06
-4.90531e-06
-2.05186e-06
-4.67588e-06
-1.02196e-06
-3.9178e-06
-2.88066e-07
-2.64413e-06
-9.53311e-07
-3.36133e-07
1.31328e-06
-1.15984e-06
3.45287e-06
-2.28704e-06
4.96397e-06
-3.55358e-06
5.8147e-06
-4.82482e-06
6.04603e-06
-5.99695e-06
5.73538e-06
-6.99368e-06
4.97619e-06
-7.76097e-06
3.86532e-06
-8.26177e-06
2.49691e-06
-8.47176e-06
9.61522e-07
-8.377e-06
-6.50902e-07
-7.97387e-06
-2.24639e-06
-7.27158e-06
-3.72212e-06
-6.29709e-06
-4.96345e-06
-5.10211e-06
-5.8448e-06
-3.77044e-06
-6.23698e-06
-2.42342e-06
-6.0229e-06
-1.21993e-06
-5.12128e-06
-3.47394e-07
-3.51667e-06
-1.3007e-06
-3.90678e-07
1.70396e-06
-1.33418e-06
4.39637e-06
-2.60374e-06
6.23354e-06
-4.00422e-06
7.21518e-06
-5.38472e-06
7.42652e-06
-6.63738e-06
6.98805e-06
-7.68987e-06
6.02868e-06
-8.49575e-06
4.6712e-06
-9.02555e-06
3.02671e-06
-9.25991e-06
1.19588e-06
-9.18549e-06
-7.25325e-07
-8.79418e-06
-2.63769e-06
-8.08599e-06
-4.43031e-06
-7.07569e-06
-5.97376e-06
-5.80321e-06
-7.11728e-06
-4.34639e-06
-7.6938e-06
-2.83286e-06
-7.53643e-06
-1.44595e-06
-6.50819e-06
-4.17642e-07
-4.54498e-06
-1.71835e-06
-4.53059e-07
2.15702e-06
-1.52473e-06
5.46804e-06
-2.93331e-06
7.64212e-06
-4.44804e-06
8.72992e-06
-5.90393e-06
8.88241e-06
-7.19524e-06
8.27936e-06
-8.26099e-06
7.09442e-06
-9.06933e-06
5.47954e-06
-9.60404e-06
3.56142e-06
-9.85462e-06
1.44646e-06
-9.81025e-06
-7.69689e-07
-9.45799e-06
-2.98996e-06
-8.7855e-06
-5.1028e-06
-7.78928e-06
-6.96999e-06
-6.48855e-06
-8.418e-06
-4.94468e-06
-9.23767e-06
-3.28254e-06
-9.19857e-06
-1.70709e-06
-8.08364e-06
-5.02935e-07
-5.74914e-06
-2.22128e-06
-5.27797e-07
2.68482e-06
-1.73838e-06
6.67863e-06
-3.27598e-06
9.17971e-06
-4.86916e-06
1.03231e-05
-6.34434e-06
1.03576e-05
-7.60813e-06
9.54314e-06
-8.62171e-06
8.108e-06
-9.37708e-06
6.23491e-06
-9.87837e-06
4.06271e-06
-1.01288e-05
1.69689e-06
-1.01228e-05
-7.7566e-07
-9.84306e-06
-3.26972e-06
-9.26235e-06
-5.68351e-06
-8.35237e-06
-7.87997e-06
-7.10057e-06
-9.6698e-06
-5.53675e-06
-1.08015e-05
-3.76741e-06
-1.09679e-05
-2.01002e-06
-9.84103e-06
-6.08799e-07
-7.15036e-06
-2.83008e-06
-6.23008e-07
3.30783e-06
-1.98574e-06
8.04136e-06
-3.62944e-06
1.08234e-05
-5.23909e-06
1.19327e-05
-6.64474e-06
1.17632e-05
-7.78184e-06
1.06802e-05
-8.64863e-06
8.97479e-06
-9.27213e-06
6.85841e-06
-9.68445e-06
4.47504e-06
-9.90768e-06
1.92012e-06
-9.94487e-06
-7.38468e-07
-9.77583e-06
-3.43875e-06
-9.35762e-06
-6.10172e-06
-8.63178e-06
-8.6058e-06
-7.54209e-06
-1.07595e-05
-6.06714e-06
-1.22764e-05
-4.27029e-06
-1.27648e-05
-2.36091e-06
-1.17504e-05
-7.43692e-07
-8.76758e-06
-3.57377e-06
-7.53526e-07
4.06135e-06
-2.28245e-06
9.57028e-06
-3.98413e-06
1.25251e-05
-5.50603e-06
1.34547e-05
-6.70685e-06
1.29641e-05
-7.57628e-06
1.15497e-05
-8.16826e-06
9.56677e-06
-8.55621e-06
7.24636e-06
-8.80654e-06
4.72536e-06
-8.9639e-06
2.07747e-06
-9.04303e-06
-6.59336e-07
-9.024e-06
-3.45778e-06
-8.85023e-06
-6.27549e-06
-8.43169e-06
-9.02435e-06
-7.65899e-06
-1.15322e-05
-6.43754e-06
-1.34979e-05
-4.7519e-06
-1.44504e-05
-2.76369e-06
-1.37386e-05
-9.21481e-07
-1.06098e-05
-4.49525e-06
-9.456e-07
5.00695e-06
-2.64683e-06
1.12715e-05
-4.30801e-06
1.41863e-05
-5.57039e-06
1.4717e-05
-6.36843e-06
1.37621e-05
-6.78177e-06
1.1963e-05
-6.93966e-06
9.72466e-06
-6.96942e-06
7.27612e-06
-6.9728e-06
4.72875e-06
-7.01666e-06
2.12132e-06
-7.12866e-06
-5.4733e-07
-7.29348e-06
-3.29296e-06
-7.44776e-06
-6.12121e-06
-7.47618e-06
-8.99593e-06
-7.21526e-06
-1.17931e-05
-6.47916e-06
-1.4234e-05
-5.12954e-06
-1.58e-05
-3.21253e-06
-1.56556e-05
-1.16471e-06
-1.26576e-05
-5.65997e-06
-1.24108e-06
6.24803e-06
-3.08337e-06
1.31138e-05
-4.50546e-06
1.56084e-05
-5.2325e-06
1.54441e-05
-5.35418e-06
1.38838e-05
-5.0817e-06
1.16905e-05
-4.63151e-06
9.27448e-06
-4.18044e-06
6.82505e-06
-3.85595e-06
4.40425e-06
-3.73884e-06
2.00421e-06
-3.86699e-06
-4.19181e-07
-4.23433e-06
-2.92562e-06
-4.78337e-06
-5.57217e-06
-5.39171e-06
-8.38759e-06
-5.85828e-06
-1.13266e-05
-5.9054e-06
-1.41869e-05
-5.23121e-06
-1.64742e-05
-3.66687e-06
-1.722e-05
-1.50479e-06
-1.48197e-05
-7.16476e-06
-1.68689e-06
7.93492e-06
-3.51916e-06
1.49461e-05
-4.31567e-06
1.64049e-05
-4.08914e-06
1.52176e-05
-3.1942e-06
1.29888e-05
-2.00064e-06
1.0497e-05
-7.97665e-07
8.0715e-06
2.16316e-07
5.81107e-06
9.1488e-07
3.70569e-06
1.22199e-06
1.6971e-06
1.09825e-06
-2.95437e-07
5.37152e-07
-2.36452e-06
-4.26803e-07
-4.60821e-06
-1.69629e-06
-7.11811e-06
-3.07592e-06
-9.94692e-06
-4.23414e-06
-1.30287e-05
-4.69961e-06
-1.60087e-05
-3.97652e-06
-1.79431e-05
-1.96095e-06
-1.68352e-05
-9.12572e-06
-2.2713e-06
1.02062e-05
-3.60892e-06
1.62837e-05
-3.08271e-06
1.58787e-05
-1.34766e-06
1.34825e-05
8.92822e-07
1.07484e-05
3.15053e-06
8.23927e-06
5.13349e-06
6.08854e-06
6.6839e-06
4.26066e-06
7.72084e-06
2.66875e-06
8.20133e-06
1.2166e-06
8.09832e-06
-1.9242e-07
7.39311e-06
-1.65931e-06
6.08053e-06
-3.29562e-06
4.19235e-06
-5.22993e-06
1.84659e-06
-7.60115e-06
-6.70435e-07
-1.05116e-05
-2.80424e-06
-1.38749e-05
-3.68947e-06
-1.70578e-05
-2.46026e-06
-1.80644e-05
-1.1586e-05
-2.69695e-06
1.29032e-05
-2.20744e-06
1.57942e-05
7.13869e-07
1.29573e-05
4.46377e-06
9.7326e-06
8.12623e-06
7.08591e-06
1.12944e-05
5.0711e-06
1.38222e-05
3.56078e-06
1.56814e-05
2.40142e-06
1.68851e-05
1.46508e-06
1.74482e-05
6.5351e-07
1.73693e-05
-1.13541e-07
1.66228e-05
-9.12869e-07
1.51588e-05
-1.83155e-06
1.29143e-05
-2.98548e-06
9.85194e-06
-4.53878e-06
6.05181e-06
-6.71151e-06
1.90021e-06
-9.72331e-06
-1.59532e-06
-1.35623e-05
-2.59407e-06
-1.70657e-05
-1.418e-05
-5.79036e-07
1.34822e-05
4.12017e-06
1.1095e-05
1.02998e-05
6.77771e-06
1.57883e-05
4.24412e-06
2.01501e-05
2.72412e-06
2.34496e-05
1.77157e-06
2.58529e-05
1.15752e-06
2.75142e-05
7.40035e-07
2.85471e-05
4.32185e-07
2.90194e-05
1.81221e-07
2.89551e-05
-4.92612e-08
2.83309e-05
-2.88661e-07
2.70731e-05
-5.73698e-07
2.50456e-05
-9.58012e-07
2.2043e-05
-1.53611e-06
1.78101e-05
-2.47869e-06
1.21751e-05
-4.08829e-06
5.52158e-06
-6.90877e-06
9.59195e-08
-1.164e-05
-1.40841e-05
1.34822e-05
2.45772e-05
3.13549e-05
3.5599e-05
3.83231e-05
4.00947e-05
4.12522e-05
4.19923e-05
4.24244e-05
4.26057e-05
4.25564e-05
4.22677e-05
4.1694e-05
4.0736e-05
3.91999e-05
3.67212e-05
3.26329e-05
2.57242e-05
1.40841e-05
)
;

boundaryField
{
    movingWall
    {
        type            calculated;
        value           uniform 0;
    }
    fixedWalls
    {
        type            calculated;
        value           uniform 0;
    }
    frontAndBack
    {
        type            empty;
        value           nonuniform 0();
    }
}


// ************************************************************************* //
