/*--------------------------------*- C++ -*----------------------------------*\
  =========                 |
  \\      /  F ield         | OpenFOAM: The Open Source CFD Toolbox
   \\    /   O peration     | Website:  https://openfoam.org
    \\  /    A nd           | Version:  7
     \\/     M anipulation  |
\*---------------------------------------------------------------------------*/
FoamFile
{
    version     2.0;
    format      ascii;
    class       volScalarField;
    location    "5.9";
    object      p;
}
// * * * * * * * * * * * * * * * * * * * * * * * * * * * * * * * * * * * * * //

dimensions      [0 2 -2 0 0 0 0];

internalField   nonuniform List<scalar> 
18000
(
0.681691
0.681837
0.681979
0.682129
0.682317
0.682582
0.682987
0.683592
0.684438
0.68555
0.686941
0.688622
0.690603
0.692885
0.695456
0.698293
0.701371
0.704661
0.708133
0.711756
0.715494
0.71931
0.723167
0.727035
0.730885
0.734693
0.738436
0.742103
0.745665
0.749028
0.680998
0.681063
0.681176
0.681302
0.681474
0.681726
0.682117
0.682703
0.68352
0.684595
0.685939
0.687559
0.689461
0.691648
0.694106
0.696816
0.699755
0.702893
0.706201
0.709647
0.713199
0.71682
0.720478
0.724142
0.727786
0.731386
0.734925
0.738388
0.741749
0.744936
0.680291
0.68028
0.680362
0.680467
0.680629
0.680874
0.681262
0.681836
0.682632
0.683675
0.684977
0.686542
0.688371
0.690465
0.692813
0.695397
0.698196
0.70118
0.70432
0.707584
0.710943
0.714363
0.717813
0.721263
0.724691
0.728074
0.731396
0.734644
0.737788
0.740786
0.67955
0.679465
0.679527
0.679618
0.679778
0.680028
0.680418
0.68099
0.681773
0.682791
0.684056
0.68557
0.68733
0.689335
0.691574
0.694034
0.696691
0.699519
0.702486
0.705564
0.708724
0.711935
0.715168
0.718397
0.721599
0.724755
0.727848
0.730868
0.733782
0.736572
0.678797
0.678647
0.678689
0.67877
0.678932
0.679191
0.679589
0.680164
0.68094
0.681939
0.683173
0.684638
0.686332
0.68825
0.690384
0.692721
0.695237
0.697905
0.700695
0.703582
0.706538
0.709533
0.712543
0.715543
0.71851
0.721428
0.724281
0.727061
0.729733
0.732301
0.678023
0.677808
0.677835
0.677912
0.678081
0.678354
0.678766
0.67935
0.680126
0.681114
0.68232
0.68374
0.68537
0.687205
0.689238
0.691453
0.693828
0.696334
0.698945
0.701636
0.704382
0.707158
0.709938
0.7127
0.715425
0.718094
0.720697
0.723224
0.725643
0.727974
0.67723
0.676955
0.676971
0.677047
0.677227
0.677519
0.67795
0.678548
0.679331
0.680312
0.681494
0.682872
0.684442
0.686198
0.688132
0.690228
0.69246
0.694802
0.69723
0.699723
0.702257
0.704807
0.707351
0.709871
0.712344
0.714757
0.717099
0.719363
0.721519
0.7236
0.676412
0.676085
0.676093
0.676172
0.676366
0.676679
0.677134
0.677754
0.678549
0.679527
0.680688
0.682028
0.683541
0.685222
0.687062
0.689038
0.691126
0.693304
0.695549
0.697841
0.700158
0.702479
0.704784
0.707055
0.709271
0.711419
0.713492
0.715485
0.71737
0.719189
0.675566
0.675196
0.675197
0.675282
0.675492
0.675831
0.676316
0.676961
0.677772
0.678752
0.679897
0.681202
0.682663
0.684274
0.686019
0.687877
0.689822
0.691835
0.693896
0.695985
0.698085
0.700175
0.702237
0.704254
0.706208
0.708086
0.709884
0.7116
0.713208
0.714751
0.674689
0.674283
0.67428
0.674373
0.674603
0.67497
0.675489
0.676164
0.676996
0.67798
0.679113
0.680389
0.681802
0.683345
0.684998
0.686739
0.688544
0.690393
0.692268
0.694155
0.696036
0.697893
0.699711
0.701471
0.703159
0.704764
0.706283
0.707717
0.709046
0.710304
0.673777
0.673343
0.673339
0.673441
0.673694
0.674094
0.674649
0.675358
0.676213
0.677206
0.678331
0.679582
0.680952
0.682429
0.683993
0.685619
0.687285
0.688972
0.690664
0.692348
0.69401
0.695635
0.697206
0.698709
0.700129
0.70146
0.702699
0.70385
0.704898
0.705865
0.672828
0.672373
0.672369
0.672485
0.672762
0.673197
0.673791
0.674537
0.675418
0.676425
0.677546
0.678776
0.680106
0.681521
0.682998
0.684512
0.686042
0.687569
0.689079
0.690562
0.692007
0.6934
0.694725
0.69597
0.697124
0.698181
0.69914
0.700009
0.700779
0.701451
0.671838
0.671369
0.671368
0.671499
0.671803
0.672276
0.672912
0.673696
0.674607
0.675629
0.67675
0.677963
0.679256
0.680613
0.682006
0.683413
0.684809
0.686178
0.68751
0.688795
0.690025
0.691188
0.692268
0.693257
0.694147
0.694933
0.695615
0.696205
0.696705
0.697083
0.670804
0.670327
0.670333
0.67048
0.670815
0.671327
0.672007
0.672831
0.673773
0.674813
0.675937
0.677136
0.678397
0.679698
0.681013
0.682314
0.683579
0.684795
0.685952
0.687045
0.688064
0.688999
0.689838
0.690575
0.691204
0.691723
0.692134
0.692452
0.692691
0.692782
0.669725
0.669245
0.669258
0.669425
0.669792
0.670346
0.67107
0.671936
0.672911
0.673971
0.675101
0.67629
0.677522
0.678771
0.680009
0.681209
0.682348
0.683415
0.684403
0.685307
0.68612
0.686833
0.687436
0.687924
0.688297
0.688557
0.688704
0.68876
0.688752
0.688567
0.668597
0.668119
0.668142
0.668331
0.668732
0.669329
0.670098
0.671006
0.672015
0.673097
0.674236
0.675418
0.676624
0.677825
0.678989
0.680091
0.681109
0.682033
0.682858
0.68358
0.684193
0.684689
0.68506
0.685307
0.685432
0.68544
0.685333
0.685139
0.6849
0.684456
0.66742
0.666946
0.666982
0.667194
0.667631
0.668271
0.669086
0.670037
0.671081
0.672187
0.673337
0.674515
0.675697
0.676852
0.677947
0.678955
0.679857
0.680644
0.681313
0.68186
0.682279
0.682564
0.682711
0.682723
0.682609
0.682377
0.68203
0.681599
0.681146
0.680464
0.666192
0.665725
0.665775
0.666014
0.666487
0.667171
0.668031
0.669024
0.670104
0.671235
0.672399
0.673575
0.674736
0.675846
0.676874
0.677793
0.678585
0.679242
0.679762
0.68014
0.680373
0.680454
0.680386
0.680174
0.679832
0.679371
0.678798
0.678146
0.677497
0.676603
0.664912
0.664454
0.66452
0.664787
0.665298
0.666024
0.666929
0.667964
0.669079
0.670239
0.671418
0.672594
0.673735
0.674803
0.675767
0.6766
0.677287
0.677821
0.678198
0.678416
0.67847
0.678357
0.678082
0.677658
0.6771
0.676425
0.675641
0.674784
0.673956
0.672878
0.663578
0.663129
0.663213
0.663511
0.66406
0.664829
0.665777
0.666853
0.668005
0.669193
0.67039
0.671567
0.672688
0.673716
0.674617
0.675369
0.675956
0.676373
0.676615
0.676679
0.676562
0.676264
0.675794
0.675169
0.67441
0.673535
0.672557
0.671512
0.670524
0.669291
0.662188
0.66175
0.661853
0.662183
0.662771
0.663583
0.664574
0.66569
0.666877
0.668095
0.66931
0.670488
0.671589
0.672577
0.673419
0.674092
0.674584
0.674889
0.675002
0.674919
0.674639
0.674166
0.673512
0.6727
0.671753
0.670695
0.66954
0.668327
0.667195
0.665837
0.660741
0.660312
0.660437
0.660801
0.661429
0.662283
0.663315
0.66447
0.665693
0.66694
0.668172
0.66935
0.670432
0.67138
0.672163
0.672761
0.673162
0.673359
0.673347
0.673124
0.672688
0.672049
0.671223
0.670236
0.669116
0.66789
0.666577
0.665214
0.663957
0.662504
0.659234
0.658815
0.658963
0.659362
0.660031
0.660927
0.662
0.663193
0.66445
0.665725
0.666973
0.668149
0.669209
0.670117
0.670842
0.671366
0.671677
0.671769
0.671637
0.671278
0.670694
0.669896
0.668907
0.667757
0.666477
0.665099
0.663646
0.662154
0.660791
0.659273
0.657664
0.657256
0.657428
0.657863
0.658573
0.659512
0.660625
0.661855
0.663145
0.664445
0.665705
0.666876
0.667913
0.668779
0.669447
0.669897
0.670119
0.670107
0.669856
0.669364
0.668636
0.667686
0.666542
0.665238
0.663809
0.662291
0.660714
0.659114
0.657667
0.656118
0.656031
0.655632
0.65583
0.656302
0.657054
0.658034
0.659186
0.660452
0.661773
0.663095
0.664364
0.665526
0.666536
0.667358
0.667966
0.668341
0.668473
0.668356
0.667986
0.667363
0.666493
0.665395
0.6641
0.662646
0.661075
0.659427
0.657738
0.65605
0.654545
0.653007
0.654329
0.653943
0.654167
0.654677
0.65547
0.656492
0.657682
0.658981
0.660331
0.661671
0.662943
0.66409
0.665069
0.665843
0.666388
0.666685
0.666725
0.666501
0.666011
0.665254
0.664242
0.662995
0.66155
0.659948
0.658235
0.656459
0.654665
0.652903
0.651365
0.649888
0.652556
0.652184
0.652436
0.652985
0.653821
0.654882
0.656108
0.657439
0.658813
0.660166
0.661435
0.662562
0.663503
0.664224
0.664701
0.664916
0.664859
0.664524
0.663909
0.663017
0.661859
0.66046
0.65886
0.657103
0.655242
0.653331
0.651427
0.649594
0.648042
0.646685
0.650708
0.650354
0.650636
0.651226
0.652103
0.653203
0.654463
0.655822
0.657215
0.658575
0.659833
0.660932
0.661829
0.66249
0.662893
0.663018
0.662858
0.662407
0.661663
0.66063
0.65932
0.657763
0.655999
0.654076
0.65205
0.649982
0.647945
0.646026
0.64447
0.6433
0.648781
0.648449
0.648765
0.649397
0.650316
0.651451
0.652742
0.654125
0.655531
0.656889
0.658128
0.659192
0.660036
0.660629
0.660949
0.660978
0.660708
0.660133
0.659253
0.658072
0.656605
0.654882
0.652943
0.650837
0.648616
0.646344
0.644106
0.642031
0.640463
0.639608
0.646772
0.64647
0.646823
0.647499
0.648457
0.649626
0.650943
0.652343
0.653756
0.655103
0.656314
0.657331
0.658113
0.658629
0.658856
0.658779
0.65839
0.657684
0.656662
0.655328
0.653699
0.651804
0.649681
0.647372
0.644919
0.64237
0.639782
0.637268
0.635205
0.634099
0.759716
0.773957
0.783237
0.791109
0.79628
0.800404
0.803208
0.805172
0.80639
0.807052
0.80724
0.807016
0.80645
0.805606
0.804515
0.803195
0.801704
0.800059
0.798267
0.796328
0.79424
0.792017
0.789667
0.787219
0.784668
0.782063
0.77943
0.776866
0.774641
0.773034
0.755333
0.769396
0.778797
0.786911
0.792315
0.796623
0.799563
0.801655
0.802978
0.803712
0.803949
0.803797
0.803294
0.802502
0.801445
0.800174
0.79872
0.797108
0.795346
0.793438
0.791373
0.789173
0.786839
0.784397
0.781859
0.779253
0.776623
0.774056
0.771813
0.770198
0.750823
0.764731
0.774259
0.782642
0.788302
0.792814
0.795907
0.798133
0.799563
0.800372
0.80066
0.800577
0.800136
0.799395
0.798375
0.797156
0.795741
0.794162
0.792433
0.790557
0.788518
0.786343
0.78403
0.781598
0.779079
0.776475
0.773853
0.771286
0.769026
0.767402
0.746165
0.759955
0.769629
0.778304
0.784233
0.788979
0.792246
0.794606
0.796137
0.797031
0.797387
0.797361
0.796976
0.796283
0.795314
0.79414
0.792767
0.791226
0.789529
0.787684
0.785675
0.783524
0.781239
0.778827
0.776326
0.773735
0.77112
0.768553
0.76628
0.764642
0.741362
0.755065
0.764894
0.773894
0.780116
0.78512
0.788578
0.791076
0.792709
0.79369
0.794121
0.794148
0.793815
0.79317
0.792257
0.791128
0.789796
0.788297
0.786633
0.784819
0.782845
0.780721
0.778464
0.776081
0.773599
0.771029
0.768422
0.765857
0.763577
0.761918
0.73642
0.750058
0.760043
0.769409
0.775955
0.781239
0.784901
0.787545
0.789285
0.790351
0.790858
0.790938
0.790658
0.790062
0.789202
0.788119
0.78683
0.785372
0.783746
0.781964
0.780027
0.777935
0.775708
0.773357
0.770898
0.768354
0.765759
0.763199
0.760913
0.759232
0.731338
0.744932
0.755072
0.764846
0.771749
0.777335
0.781216
0.784014
0.785865
0.787016
0.787597
0.787731
0.787507
0.78696
0.78615
0.785115
0.783869
0.782453
0.780867
0.779121
0.777221
0.775165
0.772972
0.770655
0.768225
0.765709
0.763131
0.760577
0.758287
0.756585
0.726119
0.739687
0.749983
0.760203
0.767497
0.77341
0.777525
0.780484
0.78245
0.783687
0.784341
0.78453
0.78436
0.783864
0.783103
0.782118
0.780915
0.779542
0.777998
0.776289
0.774428
0.772412
0.770256
0.767976
0.765578
0.763093
0.760536
0.757992
0.755701
0.753978
0.720771
0.734328
0.744775
0.755479
0.763198
0.769463
0.773828
0.776956
0.779041
0.780363
0.78109
0.781336
0.781221
0.780775
0.780063
0.779128
0.77797
0.776639
0.775138
0.77347
0.771648
0.769674
0.76756
0.76532
0.762957
0.760506
0.757976
0.755445
0.753153
0.751411
0.715306
0.728861
0.739454
0.750674
0.758852
0.765494
0.770124
0.77343
0.775639
0.777048
0.777847
0.77815
0.778089
0.777694
0.777031
0.776146
0.775034
0.773746
0.772287
0.770662
0.768883
0.766953
0.764883
0.762687
0.760363
0.757948
0.755449
0.752935
0.750643
0.748883
0.709743
0.723298
0.734027
0.745789
0.75446
0.761503
0.766416
0.769909
0.772244
0.773743
0.774613
0.774974
0.774966
0.774623
0.774009
0.773173
0.772107
0.770862
0.769447
0.767865
0.766132
0.764248
0.762225
0.760075
0.757795
0.755419
0.752955
0.750462
0.748173
0.746395
0.704104
0.717656
0.728505
0.740829
0.750022
0.757491
0.762704
0.766393
0.76886
0.77045
0.77139
0.771809
0.771854
0.771561
0.770996
0.770208
0.769188
0.767988
0.766616
0.76508
0.763395
0.761558
0.759585
0.757484
0.755251
0.752919
0.750494
0.748027
0.745744
0.743949
0.698419
0.711958
0.722905
0.735798
0.745541
0.753458
0.75899
0.762883
0.765486
0.76717
0.76818
0.768656
0.768753
0.768511
0.767994
0.767253
0.76628
0.765123
0.763797
0.762307
0.760672
0.758884
0.756964
0.754915
0.752733
0.750448
0.748066
0.74563
0.743356
0.741546
0.692719
0.706229
0.717247
0.730704
0.741022
0.749404
0.755273
0.759381
0.762125
0.763903
0.764983
0.765516
0.765665
0.765474
0.765004
0.764308
0.763382
0.762269
0.760989
0.759546
0.757963
0.756226
0.75436
0.752366
0.750239
0.748005
0.745672
0.743271
0.74101
0.739186
0.687041
0.7005
0.711555
0.72556
0.736467
0.745333
0.751555
0.755886
0.758777
0.76065
0.7618
0.762389
0.76259
0.762449
0.762027
0.761374
0.760494
0.759426
0.758193
0.756798
0.755268
0.753583
0.751774
0.749838
0.747769
0.74559
0.74331
0.74095
0.738708
0.736871
0.681424
0.694808
0.705859
0.720378
0.731884
0.741245
0.747837
0.752401
0.755443
0.757412
0.758633
0.759278
0.75953
0.759439
0.759063
0.758452
0.757617
0.756593
0.755409
0.754062
0.752586
0.750956
0.749203
0.747329
0.745321
0.743202
0.74098
0.738668
0.736451
0.734604
0.67591
0.68919
0.700191
0.715177
0.727279
0.737146
0.744118
0.748925
0.752124
0.75419
0.755482
0.756184
0.756485
0.756443
0.756111
0.755541
0.754752
0.753773
0.752636
0.751338
0.749917
0.748343
0.746648
0.744836
0.742893
0.740839
0.738682
0.736425
0.734241
0.732386
0.67054
0.683685
0.694584
0.709977
0.722662
0.733039
0.740402
0.745461
0.748821
0.750986
0.752348
0.753107
0.753457
0.753461
0.753173
0.752643
0.751897
0.750963
0.749875
0.748627
0.747258
0.745743
0.744107
0.742359
0.740484
0.738499
0.736413
0.73422
0.732078
0.73022
0.665353
0.678332
0.689075
0.7048
0.718045
0.728929
0.736691
0.74201
0.745535
0.747803
0.749235
0.75005
0.750447
0.750495
0.750249
0.749759
0.749055
0.748165
0.747125
0.745927
0.744611
0.743155
0.741578
0.739895
0.738092
0.736182
0.734174
0.732055
0.729965
0.72811
0.66039
0.673169
0.683699
0.69967
0.71344
0.724823
0.732986
0.738573
0.742268
0.744641
0.746143
0.747014
0.747455
0.747544
0.747338
0.746888
0.746226
0.745379
0.744384
0.743238
0.741973
0.740577
0.73906
0.737444
0.735716
0.733885
0.731964
0.72993
0.727905
0.72606
0.655682
0.66823
0.678492
0.69461
0.708862
0.720726
0.729292
0.735149
0.739021
0.741502
0.743074
0.743999
0.744482
0.744609
0.744443
0.74403
0.743408
0.742604
0.741655
0.74056
0.739346
0.738007
0.736552
0.735003
0.733353
0.731608
0.729781
0.727844
0.7259
0.724077
0.65126
0.663542
0.673484
0.689646
0.704325
0.716645
0.725609
0.731741
0.735793
0.738385
0.740027
0.741006
0.741529
0.741693
0.741564
0.741187
0.740603
0.739841
0.738935
0.73789
0.736727
0.735446
0.734052
0.732572
0.731002
0.729348
0.727623
0.725799
0.723954
0.722165
0.647147
0.659129
0.668705
0.684802
0.699844
0.71259
0.721941
0.728351
0.732586
0.735292
0.737004
0.738036
0.738597
0.738795
0.738701
0.738357
0.737811
0.73709
0.736226
0.73523
0.734115
0.732891
0.731558
0.730149
0.728661
0.727103
0.725489
0.723792
0.722069
0.720333
0.64336
0.655006
0.664175
0.680102
0.695436
0.70857
0.718293
0.72498
0.7294
0.732223
0.734005
0.73509
0.735687
0.735917
0.735855
0.735542
0.735031
0.734351
0.733527
0.732576
0.73151
0.730342
0.72907
0.727731
0.726328
0.72487
0.723376
0.721822
0.720247
0.718591
0.639916
0.651183
0.65991
0.675569
0.691117
0.704595
0.714671
0.721632
0.726239
0.729179
0.731033
0.732169
0.7328
0.733059
0.733027
0.732742
0.732265
0.731623
0.730838
0.72993
0.72891
0.727796
0.726586
0.725317
0.723999
0.722646
0.72128
0.719886
0.718491
0.716949
0.63683
0.647662
0.655921
0.671223
0.686908
0.700678
0.711082
0.718312
0.723105
0.726164
0.728091
0.729275
0.729939
0.730222
0.730217
0.729959
0.729514
0.728906
0.728157
0.727291
0.726316
0.725254
0.724104
0.722906
0.721673
0.720427
0.719195
0.71798
0.716799
0.715423
0.634124
0.644438
0.652213
0.667086
0.682829
0.696834
0.707537
0.715026
0.720001
0.723182
0.72518
0.72641
0.727102
0.727408
0.727426
0.727193
0.726776
0.726199
0.725485
0.724657
0.723725
0.722713
0.721622
0.720495
0.719347
0.718208
0.717117
0.716097
0.715172
0.714033
0.631843
0.64151
0.648785
0.66314
0.678844
0.693013
0.703985
0.71173
0.716895
0.720204
0.72228
0.723555
0.724276
0.724603
0.724642
0.724433
0.724042
0.723494
0.722812
0.722022
0.721132
0.720168
0.719135
0.718076
0.717012
0.715982
0.715036
0.714226
0.713603
0.712804
0.630008
0.63881
0.645568
0.659289
0.674827
0.689088
0.700311
0.708327
0.713702
0.717162
0.71933
0.72066
0.721417
0.72177
0.721832
0.72165
0.721286
0.720769
0.72012
0.719367
0.718519
0.717604
0.716631
0.71564
0.714659
0.713737
0.712937
0.71235
0.712078
0.711767
0.628708
0.636217
0.642509
0.655687
0.671073
0.685388
0.696802
0.705037
0.710588
0.714174
0.71642
0.717795
0.71858
0.718956
0.719036
0.718878
0.718538
0.718048
0.71743
0.716709
0.715901
0.715031
0.714112
0.713184
0.712281
0.71146
0.710802
0.710439
0.710558
0.710941
0.624786
0.627909
0.633143
0.646063
0.661961
0.676797
0.688677
0.697277
0.70304
0.706694
0.708902
0.710188
0.710882
0.711191
0.711227
0.711053
0.710712
0.710238
0.709651
0.708979
0.708241
0.70746
0.706661
0.705881
0.705166
0.704595
0.704293
0.704531
0.705804
0.708778
0.605291
0.611447
0.619626
0.632847
0.647522
0.66088
0.671742
0.679883
0.685612
0.689463
0.691965
0.693552
0.694527
0.695087
0.69535
0.69539
0.695254
0.694979
0.694593
0.694123
0.69359
0.693023
0.69245
0.691915
0.691476
0.691233
0.691347
0.692168
0.694344
0.698545
0.585606
0.595629
0.606177
0.618967
0.632073
0.643984
0.653948
0.661723
0.667464
0.671542
0.674365
0.676291
0.677588
0.678443
0.678977
0.679269
0.679372
0.679325
0.679161
0.678907
0.678589
0.678238
0.677885
0.677579
0.677381
0.677397
0.677792
0.678916
0.681427
0.685989
0.566681
0.578924
0.590535
0.602744
0.614795
0.625851
0.635313
0.642927
0.64877
0.653109
0.656262
0.65853
0.660157
0.661324
0.66215
0.662718
0.663081
0.663283
0.663356
0.66333
0.663233
0.663097
0.662956
0.662859
0.662865
0.663079
0.663659
0.664934
0.667516
0.672136
0.547736
0.560932
0.572982
0.584876
0.596354
0.606891
0.616023
0.623549
0.629521
0.634132
0.637629
0.640262
0.642248
0.643757
0.644905
0.645775
0.646424
0.646895
0.647221
0.647434
0.647563
0.647641
0.647701
0.647789
0.647964
0.648324
0.649015
0.650342
0.652857
0.657362
0.528367
0.541971
0.554234
0.565963
0.577068
0.587227
0.596115
0.603592
0.609697
0.614575
0.618417
0.621426
0.623791
0.625664
0.627157
0.628351
0.629305
0.630061
0.630654
0.631116
0.631477
0.631766
0.632017
0.632274
0.632591
0.633059
0.63381
0.635127
0.637501
0.641808
0.508535
0.522309
0.534636
0.546215
0.557042
0.56693
0.575657
0.583127
0.589372
0.594505
0.598676
0.602052
0.604794
0.607036
0.608882
0.610411
0.611679
0.612729
0.613596
0.614313
0.614906
0.615406
0.615842
0.616257
0.616699
0.617253
0.618034
0.619305
0.621503
0.62556
0.488226
0.502033
0.514319
0.525751
0.536377
0.546087
0.554725
0.562222
0.568611
0.573984
0.578463
0.582187
0.585291
0.587894
0.590089
0.591951
0.593532
0.594876
0.596019
0.596991
0.597816
0.598524
0.599142
0.599709
0.600269
0.6009
0.601702
0.602915
0.604922
0.608695
0.467421
0.481183
0.493378
0.50468
0.515167
0.524767
0.533362
0.540909
0.547443
0.553041
0.557807
0.561857
0.565304
0.568252
0.570785
0.57297
0.574858
0.576491
0.577905
0.579127
0.580181
0.581093
0.581888
0.582604
0.583279
0.583984
0.584807
0.585964
0.587784
0.591246
0.446124
0.459799
0.471886
0.483076
0.493466
0.502999
0.511584
0.519196
0.525873
0.531685
0.536718
0.541071
0.544839
0.548114
0.55097
0.553465
0.555649
0.557563
0.559238
0.560702
0.561978
0.563089
0.56406
0.564923
0.565715
0.566497
0.567344
0.568452
0.570101
0.573263
0.424345
0.43791
0.449885
0.46098
0.4713
0.480796
0.489393
0.497082
0.5039
0.509913
0.515195
0.51983
0.523898
0.52748
0.53064
0.533431
0.5359
0.538082
0.540007
0.541703
0.543191
0.544493
0.545632
0.546637
0.547541
0.5484
0.549278
0.55035
0.551848
0.554699
0.402094
0.415535
0.427399
0.438413
0.448683
0.458163
0.46679
0.474562
0.48152
0.487723
0.493236
0.498131
0.502479
0.506347
0.509792
0.512862
0.5156
0.518036
0.520201
0.522118
0.523809
0.525295
0.526596
0.52774
0.528753
0.529687
0.530596
0.531639
0.533015
0.535606
0.379379
0.392686
0.404444
0.415387
0.425623
0.435103
0.443772
0.451633
0.458726
0.465108
0.470836
0.475971
0.480575
0.484707
0.488418
0.49175
0.494739
0.497415
0.499804
0.50193
0.503811
0.505468
0.50692
0.508193
0.509312
0.510323
0.511269
0.512287
0.513542
0.515846
0.356204
0.369369
0.381026
0.39191
0.402124
0.411617
0.420335
0.428287
0.435511
0.44206
0.447985
0.45334
0.45818
0.462554
0.466508
0.470081
0.473303
0.476203
0.478803
0.481125
0.483187
0.485007
0.486601
0.487993
0.489202
0.490271
0.491244
0.49225
0.493433
0.495517
0.332575
0.345589
0.357154
0.367988
0.378192
0.387705
0.396477
0.404517
0.411866
0.41857
0.424675
0.43023
0.435281
0.439874
0.444048
0.447838
0.451274
0.454377
0.45717
0.459669
0.461893
0.46386
0.465586
0.467095
0.468401
0.469539
0.470537
0.471504
0.472566
0.474384
0.308495
0.32135
0.332833
0.34363
0.353829
0.363366
0.372192
0.380318
0.387783
0.394627
0.400893
0.406625
0.411864
0.41665
0.421019
0.425002
0.428628
0.431916
0.434884
0.437549
0.439924
0.442023
0.443859
0.445452
0.446819
0.448
0.449026
0.449997
0.45102
0.452626
0.283974
0.296658
0.308072
0.318841
0.32904
0.338601
0.347477
0.355683
0.363252
0.370221
0.376628
0.382513
0.387913
0.392864
0.3974
0.401549
0.405336
0.408779
0.411895
0.4147
0.417207
0.419431
0.421384
0.423077
0.424516
0.425724
0.426726
0.427621
0.428522
0.42988
0.259029
0.271524
0.282886
0.293637
0.303833
0.313412
0.322331
0.330606
0.338267
0.345343
0.351868
0.357879
0.36341
0.368494
0.373164
0.377449
0.38137
0.384948
0.388194
0.391118
0.393727
0.396032
0.398047
0.399794
0.401286
0.402549
0.403595
0.404491
0.405333
0.406455
0.233701
0.245978
0.257303
0.268037
0.27822
0.287804
0.296755
0.305087
0.312823
0.319985
0.326602
0.332709
0.338338
0.343521
0.348288
0.352668
0.356684
0.360356
0.363697
0.36672
0.369433
0.371839
0.373936
0.375725
0.377209
0.37842
0.379386
0.380189
0.380931
0.381798
0.208084
0.22009
0.231372
0.242074
0.252219
0.261786
0.270751
0.279124
0.286915
0.294138
0.300816
0.306982
0.312668
0.317908
0.322734
0.327176
0.331256
0.33499
0.338385
0.341448
0.344188
0.346621
0.34876
0.35061
0.352165
0.353425
0.354389
0.355126
0.355751
0.356367
0.182352
0.193992
0.205182
0.2158
0.225856
0.235371
0.244329
0.252722
0.260544
0.267798
0.274503
0.280689
0.286391
0.291641
0.296472
0.300917
0.305007
0.308765
0.312204
0.315322
0.318111
0.320559
0.322667
0.32445
0.325927
0.327118
0.328019
0.328669
0.329166
0.329449
0.156814
0.167913
0.178872
0.189293
0.199177
0.208586
0.217503
0.225887
0.233709
0.240954
0.247637
0.253792
0.259457
0.264666
0.269456
0.27386
0.277903
0.281607
0.284984
0.28805
0.29082
0.293296
0.295461
0.297293
0.298774
0.299912
0.300715
0.301234
0.301584
0.301593
0.131918
0.142203
0.152664
0.162681
0.172256
0.181476
0.1903
0.198637
0.206421
0.213621
0.220243
0.226318
0.231882
0.236974
0.241644
0.245942
0.249909
0.253561
0.256892
0.259887
0.26254
0.264869
0.266897
0.268634
0.270062
0.271153
0.271871
0.272223
0.27232
0.271873
0.108193
0.117304
0.126868
0.136171
0.145229
0.154129
0.162773
0.170992
0.178669
0.185753
0.192244
0.198171
0.20357
0.208482
0.212956
0.217044
0.220797
0.224257
0.227448
0.230373
0.23301
0.235326
0.2373
0.238937
0.240251
0.241249
0.241888
0.242121
0.241998
0.241165
0.0861388
0.0936926
0.101885
0.110079
0.118331
0.12671
0.135036
0.143042
0.150546
0.15746
0.163759
0.169454
0.174585
0.179219
0.183436
0.187296
0.19083
0.194045
0.196949
0.199569
0.201935
0.204056
0.205909
0.207453
0.208659
0.20952
0.209996
0.21
0.209513
0.208083
0.0661229
0.0718073
0.0781903
0.0848581
0.091952
0.0995071
0.107244
0.114808
0.121962
0.12858
0.13459
0.139967
0.144731
0.148952
0.152736
0.156187
0.159387
0.162367
0.165106
0.167567
0.16973
0.17161
0.173237
0.174614
0.175714
0.176513
0.176942
0.176811
0.17594
0.173941
0.048289
0.0519999
0.0563036
0.0610788
0.0666659
0.0730636
0.0798825
0.0867267
0.0933313
0.0994959
0.105069
0.109988
0.114279
0.118025
0.121312
0.124224
0.126848
0.129266
0.131522
0.133609
0.135483
0.137112
0.138485
0.139603
0.140455
0.141054
0.141378
0.141159
0.139915
0.137201
0.0325105
0.0344133
0.0366811
0.039335
0.0430859
0.0478312
0.0531225
0.0586905
0.0643409
0.069785
0.0747182
0.0789732
0.0825645
0.0856239
0.0883035
0.0907154
0.0929188
0.0949236
0.0967219
0.0983261
0.0997649
0.101055
0.102184
0.103112
0.103787
0.104209
0.10443
0.104218
0.102769
0.0995979
0.0183221
0.0188099
0.0193063
0.0200844
0.0223753
0.0253736
0.0286935
0.0324171
0.0365073
0.0406815
0.0445754
0.0479038
0.0505472
0.0525789
0.0542093
0.0556674
0.0570843
0.0584533
0.0596951
0.0607567
0.0616553
0.062441
0.0631415
0.0637389
0.0641724
0.0643929
0.0644636
0.0643333
0.0630575
0.0597327
0.0054984
0.0044535
0.000642526
-0.000185603
0.00223333
0.00402289
0.00537869
0.00699272
0.00901594
0.0112728
0.0135105
0.0154967
0.0170809
0.0182417
0.0190739
0.0197195
0.0202984
0.0208625
0.0213976
0.0218689
0.0222635
0.0225952
0.0228795
0.0231188
0.0232914
0.0233418
0.0232706
0.0232434
0.0229081
0.0206026
0.606884
0.590893
0.572987
0.554563
0.535758
0.516347
0.496448
0.476102
0.455295
0.434034
0.412332
0.390188
0.367612
0.344611
0.321195
0.297388
0.27321
0.248721
0.223994
0.199159
0.174408
0.150022
0.126399
0.103951
0.0830837
0.064093
0.0471092
0.0320307
0.0183845
0.00583212
0.605013
0.587549
0.569185
0.550479
0.531591
0.512182
0.492319
0.472025
0.451279
0.430084
0.408456
0.386388
0.363893
0.340978
0.317652
0.293943
0.269869
0.245497
0.220903
0.196227
0.171675
0.147539
0.12423
0.102151
0.0816892
0.0631126
0.0465133
0.0317523
0.0183271
0.00589967
0.602354
0.583909
0.565298
0.546437
0.527502
0.508103
0.488272
0.468021
0.447331
0.4262
0.404641
0.382649
0.360235
0.337408
0.314173
0.290563
0.266595
0.242343
0.217884
0.193368
0.169011
0.145113
0.122088
0.100334
0.0802299
0.062034
0.0458159
0.0313935
0.018212
0.0059357
0.599282
0.580224
0.561415
0.542431
0.523453
0.504069
0.484273
0.464067
0.443431
0.422361
0.40087
0.37895
0.356615
0.333874
0.310728
0.287213
0.263351
0.239215
0.214891
0.190535
0.166379
0.142726
0.119999
0.0985848
0.0788514
0.0610353
0.0451797
0.031068
0.0181051
0.00595738
0.595897
0.576486
0.557537
0.538472
0.519462
0.500095
0.480334
0.460173
0.439588
0.418575
0.397148
0.375299
0.35304
0.33038
0.307321
0.2839
0.260141
0.236121
0.211932
0.187739
0.163786
0.140385
0.117962
0.0968971
0.0775426
0.0601095
0.0446065
0.0307824
0.0180129
0.00596894
0.592266
0.572704
0.553677
0.534563
0.515529
0.496183
0.476456
0.456337
0.435802
0.414843
0.393478
0.371697
0.349509
0.326928
0.303954
0.280625
0.256967
0.233062
0.209009
0.18498
0.161236
0.138094
0.115982
0.0952727
0.0763001
0.0592474
0.044086
0.0305285
0.017932
0.00597143
0.58845
0.568889
0.549838
0.530707
0.511658
0.492334
0.472641
0.452561
0.432073
0.411167
0.389861
0.368144
0.346025
0.32352
0.300628
0.277388
0.25383
0.230038
0.206123
0.182263
0.158731
0.135855
0.114062
0.0937157
0.0751262
0.0584489
0.0436156
0.0303035
0.0178612
0.00596676
0.584501
0.565051
0.546024
0.526906
0.507849
0.488548
0.468889
0.448846
0.428403
0.407549
0.386298
0.364642
0.34259
0.320157
0.297344
0.274191
0.250731
0.227053
0.203277
0.179588
0.156275
0.133672
0.112206
0.0922284
0.0740225
0.0577143
0.0431943
0.0301065
0.0177999
0.00595755
0.580469
0.561206
0.542239
0.523159
0.504105
0.484825
0.465199
0.445193
0.424794
0.403989
0.382791
0.361193
0.339205
0.316841
0.294104
0.271034
0.247673
0.224107
0.200471
0.176957
0.153868
0.131546
0.110414
0.0908109
0.0729882
0.0570414
0.0428192
0.0299356
0.0177469
0.00594547
0.576394
0.557365
0.538491
0.519466
0.500427
0.481167
0.461573
0.441604
0.421247
0.400488
0.37934
0.357798
0.335872
0.313575
0.29091
0.267922
0.244657
0.221204
0.197708
0.174373
0.151513
0.129478
0.108687
0.0894615
0.0720208
0.0564269
0.0424865
0.0297881
0.0177008
0.00592993
0.57231
0.553543
0.534783
0.515828
0.496813
0.477577
0.458013
0.438079
0.417762
0.397047
0.375948
0.354461
0.332594
0.310359
0.287764
0.264855
0.241685
0.218345
0.194989
0.171836
0.149211
0.12747
0.107025
0.0881788
0.0711176
0.0558672
0.0421921
0.0296609
0.0176603
0.00591326
0.568243
0.549748
0.531122
0.512246
0.493265
0.474053
0.454519
0.434618
0.414339
0.393667
0.372614
0.35118
0.329369
0.307194
0.284668
0.261837
0.238759
0.215532
0.192319
0.16935
0.146965
0.125524
0.105429
0.0869631
0.0702772
0.0553591
0.0419328
0.0295515
0.0176247
0.00589665
0.564216
0.545993
0.527511
0.508724
0.489784
0.470598
0.451093
0.431222
0.410979
0.390348
0.369341
0.347957
0.326199
0.304083
0.281624
0.258869
0.235882
0.212767
0.189699
0.166921
0.14478
0.123643
0.103902
0.0858157
0.0694987
0.0549005
0.041706
0.0294579
0.0175934
0.00588092
0.560245
0.542287
0.523958
0.505264
0.486372
0.467212
0.447735
0.427893
0.407684
0.387094
0.366129
0.344791
0.323086
0.301026
0.278632
0.255953
0.233056
0.210053
0.187133
0.16455
0.14266
0.121833
0.102447
0.0847381
0.0687817
0.0544893
0.0415092
0.0293783
0.0175658
0.00586666
0.556346
0.53864
0.520468
0.50187
0.48303
0.463897
0.444447
0.424634
0.404457
0.383904
0.362978
0.341685
0.320029
0.298026
0.275695
0.253089
0.230281
0.207392
0.184624
0.162241
0.140607
0.120094
0.101065
0.0837304
0.0681252
0.054123
0.0413398
0.0293107
0.0175412
0.00585422
0.55253
0.535063
0.517046
0.498545
0.479761
0.460655
0.441232
0.421445
0.401298
0.380779
0.359891
0.33864
0.317032
0.295082
0.272813
0.250278
0.227559
0.204785
0.182173
0.159995
0.138622
0.118429
0.0997573
0.0827921
0.0675268
0.0537986
0.0411946
0.0292535
0.0175197
0.00584383
0.548805
0.531562
0.513699
0.495291
0.476565
0.457489
0.438091
0.418329
0.398209
0.377723
0.356869
0.335657
0.314096
0.292197
0.269987
0.247521
0.224891
0.202234
0.179781
0.157812
0.136705
0.116836
0.0985223
0.0819211
0.0669833
0.0535125
0.0410708
0.0292049
0.0175015
0.00583566
0.54518
0.528145
0.510431
0.492112
0.473445
0.454398
0.435025
0.415288
0.395192
0.374735
0.353914
0.33274
0.311222
0.289371
0.267218
0.24482
0.222279
0.19974
0.177447
0.155692
0.134858
0.115316
0.0973589
0.0811147
0.0664916
0.0532612
0.0409655
0.0291638
0.0174895
0.00582991
0.541662
0.524819
0.507247
0.489012
0.470402
0.451386
0.432036
0.41232
0.392248
0.371818
0.351028
0.329889
0.308411
0.286605
0.264507
0.242176
0.219724
0.197305
0.175175
0.153638
0.133081
0.113869
0.0962661
0.0803711
0.066049
0.0530418
0.0408765
0.0291289