/*--------------------------------*- C++ -*----------------------------------*\
  =========                 |
  \\      /  F ield         | OpenFOAM: The Open Source CFD Toolbox
   \\    /   O peration     | Website:  https://openfoam.org
    \\  /    A nd           | Version:  7
     \\/     M anipulation  |
\*---------------------------------------------------------------------------*/
FoamFile
{
    version     2.0;
    format      ascii;
    class       volVectorField;
    location    "5.9";
    object      U;
}
// * * * * * * * * * * * * * * * * * * * * * * * * * * * * * * * * * * * * * //

dimensions      [0 1 -1 0 0 0 0];

internalField   nonuniform List<vector> 
18000
(
(8.06482e-05 -0.00310143 7.80863e-21)
(-9.44248e-06 -0.000263314 0)
(-0.000321812 0.00975273 0)
(-0.000730448 0.0243117 0)
(-0.00111706 0.0417625 -2.57018e-21)
(-0.00136423 0.0610338 1.30031e-20)
(-0.00138638 0.0814016 -2.62914e-21)
(-0.00113047 0.102358 2.64723e-21)
(-0.000565801 0.123536 0)
(0.000321677 0.144654 -8.01677e-21)
(0.00152977 0.16548 -2.68094e-21)
(0.00304744 0.185813 0)
(0.00485671 0.20547 5.3646e-21)
(0.00693147 0.224286 5.3741e-21)
(0.00924405 0.242111 -1.07496e-20)
(0.0117672 0.258814 -1.07362e-20)
(0.0144732 0.274281 0)
(0.0173355 0.288421 -1.60591e-20)
(0.0203286 0.301162 5.32605e-21)
(0.0234269 0.312458 -1.59675e-20)
(0.0266072 0.322283 5.29111e-21)
(0.0298493 0.330632 0)
(0.0331356 0.337516 -5.22939e-21)
(0.0364509 0.34296 -5.22512e-21)
(0.0397817 0.347 0)
(0.0431154 0.349678 0)
(0.0464409 0.35104 -1.02895e-20)
(0.0497567 0.351127 -1.02272e-20)
(0.0530479 0.350031 -1.02115e-20)
(0.0561439 0.347871 1.13137e-20)
(0.000107133 -0.00304521 1.1133e-20)
(-0.00027465 -0.000120635 1.93679e-20)
(-0.00119804 0.0099289 -1.98186e-20)
(-0.00237066 0.0244712 -2.01989e-20)
(-0.00361241 0.0418477 -5.13289e-21)
(-0.00476158 0.0609905 1.55692e-20)
(-0.00570622 0.081185 -2.09804e-20)
(-0.00637452 0.101929 -2.11431e-20)
(-0.00671907 0.122866 2.12674e-20)
(-0.00671638 0.143725 2.13554e-20)
(-0.00636379 0.164284 -1.07134e-20)
(-0.0056651 0.184346 -2.14583e-20)
(-0.00463221 0.203735 -1.07548e-20)
(-0.00328757 0.22229 2.14736e-20)
(-0.00165412 0.239865 -2.14672e-20)
(0.000244843 0.25633 2.14388e-20)
(0.0023831 0.271575 -4.28407e-20)
(0.00473519 0.285509 3.20022e-20)
(0.00727743 0.298062 -2.12693e-20)
(0.00998572 0.309188 1.06301e-20)
(0.0128365 0.31886 -2.1118e-20)
(0.0158079 0.327073 0)
(0.0188802 0.333837 1.05981e-20)
(0.0220358 0.339177 -2.08197e-20)
(0.0252573 0.343127 2.0721e-20)
(0.0285289 0.345731 0)
(0.0318338 0.347034 -1.01912e-20)
(0.0351626 0.347084 1.01292e-20)
(0.0384784 0.345982 4.04402e-20)
(0.0416172 0.343863 2.25222e-20)
(0.000131419 -0.00297269 -1.78253e-20)
(-0.000536023 6.5084e-05 -1.93675e-20)
(-0.00205271 0.0101882 2.97221e-20)
(-0.00396387 0.0247313 5.04534e-20)
(-0.00602959 0.042037 0)
(-0.00804291 0.0610464 -2.07729e-20)
(-0.00986514 0.0810525 2.09801e-20)
(-0.0114089 0.101568 6.33755e-20)
(-0.0126145 0.122248 -2.12671e-20)
(-0.0134497 0.142827 -2.13582e-20)
(-0.0139036 0.163092 6.42028e-20)
(-0.0139762 0.182857 2.14582e-20)
(-0.0136744 0.201951 0)
(-0.0130151 0.220217 -4.29648e-20)
(-0.0120191 0.237513 6.42155e-20)
(-0.0107072 0.253713 -2.14027e-20)
(-0.00910212 0.268708 2.13845e-20)
(-0.00722788 0.282409 2.13532e-20)
(-0.0051074 0.294747 7.5952e-23)
(-0.00276431 0.305677 0)
(-0.000222644 0.315173 6.3388e-20)
(0.00249523 0.323227 -4.1887e-20)
(0.0053681 0.329851 2.09344e-20)
(0.00837532 0.335068 0)
(0.0114965 0.338915 -2.07211e-20)
(0.0147107 0.341434 8.22289e-20)
(0.0179959 0.342675 -6.10526e-20)
(0.021336 0.34269 -2.03514e-20)
(0.0246717 0.341591 1.99984e-20)
(0.0278439 0.339527 2.25165e-20)
(0.000149848 -0.00281534 0)
(-0.000805703 0.000412141 9.66684e-21)
(-0.00290716 0.0106177 1.10562e-24)
(-0.00553196 0.0251557 -5.04261e-20)
(-0.00838238 0.0423752 0)
(-0.0112148 0.0612317 -4.14421e-20)
(-0.0138659 0.0810289 0)
(-0.0162318 0.101293 -6.33472e-20)
(-0.0182432 0.121687 2.12141e-20)
(-0.01986 0.141961 -4.26055e-20)
(-0.0210651 0.161908 -4.27819e-20)
(-0.021854 0.18135 -2.14391e-20)
(-0.0222304 0.200123 2.13976e-20)
(-0.0222074 0.218074 2.13516e-20)
(-0.0218017 0.235066 -2.14715e-20)
(-0.0210314 0.250975 -4.27243e-20)
(-0.0199182 0.265696 4.25474e-20)
(-0.0184848 0.279141 0)
(-0.0167527 0.291241 0)
(-0.0147448 0.301953 0)
(-0.0124853 0.311251 0)
(-0.00999731 0.319128 0)
(-0.00730353 0.325594 0)
(-0.00442734 0.330675 -4.13321e-20)
(-0.00139222 0.334406 -4.12671e-20)
(0.00177616 0.336834 -1.83193e-22)
(0.00505073 0.338011 -4.07335e-20)
(0.00840806 0.337996 -3.27984e-22)
(0.0117667 0.336913 -4.05264e-20)
(0.014971 0.334921 8.93604e-20)
(0.000156282 -0.0026182 0)
(-0.00108973 0.000832622 8.68438e-20)
(-0.0037554 0.0111406 8.94566e-25)
(-0.00706221 0.0256777 -3.02045e-20)
(-0.0106585 0.0428058 1.02198e-19)
(-0.0142617 0.0614981 6.21557e-20)
(-0.017687 0.0810726 6.27004e-20)
(-0.0208185 0.101068 0)
(-0.0235769 0.121161 0)
(-0.0259151 0.141111 6.39135e-20)
(-0.0278122 0.160721 4.21487e-23)
(-0.0292599 0.179819 -1.49652e-19)
(-0.030258 0.198249 1.28251e-19)
(-0.0308159 0.215864 -4.28058e-20)
(-0.0309481 0.232532 4.258e-20)
(-0.0306709 0.248131 4.25354e-20)
(-0.0300043 0.262558 -4.25312e-20)
(-0.0289693 0.275726 4.24966e-20)
(-0.0275863 0.287571 8.45919e-20)
(-0.0258778 0.298047 -4.20077e-20)
(-0.0238681 0.30713 -8.36876e-20)
(-0.0215807 0.314813 8.32684e-20)
(-0.0190394 0.321108 -8.28171e-20)
(-0.01627 0.32604 4.13321e-20)
(-0.0132991 0.329647 0)
(-0.0101565 0.331977 0)
(-0.0068747 0.333091 3.54919e-22)
(-0.00348477 0.333053 -1.60355e-19)
(-8.83384e-05 0.331997 7.95441e-20)
(0.00315913 0.330099 -8.92561e-20)
(0.000149075 -0.00237032 0)
(-0.00139122 0.00135434 -7.71877e-20)
(-0.00460419 0.0117782 7.8877e-20)
(-0.00856083 0.0263098 0)
(-0.0128569 0.0433356 -1.63395e-19)
(-0.0171785 0.06185 -2.06885e-20)
(-0.0213214 0.0811853 -4.1827e-20)
(-0.0251564 0.100896 -2.10426e-20)
(-0.0285975 0.120671 0)
(-0.0315935 0.140278 -4.25641e-20)
(-0.0341187 0.159531 4.26061e-20)
(-0.0361613 0.178267 8.54737e-20)
(-0.0377187 0.196336 -8.55155e-20)
(-0.0387979 0.213599 0)
(-0.0394107 0.229924 -8.53743e-20)
(-0.0395721 0.245197 8.50569e-20)
(-0.0393007 0.259313 8.49935e-20)
(-0.0386158 0.272189 1.26936e-19)
(-0.0375369 0.283763 -1.26499e-19)
(-0.0360859 0.293989 1.67961e-19)
(-0.0342871 0.302844 8.3725e-20)
(-0.0321641 0.310321 -8.32682e-20)
(-0.0297415 0.316433 1.65332e-19)
(-0.0270468 0.321206 0)
(-0.0241099 0.324681 8.14742e-20)
(-0.0209643 0.326911 1.62162e-19)
(-0.0176475 0.327962 -7.99827e-20)
(-0.0141981 0.327909 8.01483e-20)
(-0.0107367 0.326894 -9.65989e-23)
(-0.00742273 0.325111 -8.88964e-20)
(0.000124715 -0.00208132 -8.86739e-21)
(-0.00171531 0.00195264 0)
(-0.00545317 0.0125006 -9.85834e-20)
(-0.0100227 0.0270242 2.00824e-20)
(-0.0149713 0.0439377 6.12424e-20)
(-0.0199547 0.0622602 2.06521e-20)
(-0.024752 0.0813438 8.34062e-20)
(-0.0292247 0.100756 0)
(-0.0332812 0.120197 4.23299e-20)
(-0.036866 0.139448 4.24581e-20)
(-0.03995 0.158331 -4.26349e-20)
(-0.0425194 0.176691 1.27867e-19)
(-0.0445696 0.194386 0)
(-0.0461048 0.211281 0)
(-0.0471357 0.227253 1.27747e-19)
(-0.0476763 0.242185 -2.1239e-19)
(-0.0477433 0.255979 8.46579e-20)
(-0.0473543 0.268553 -8.45398e-20)
(-0.0465282 0.279846 -8.40063e-20)
(-0.0452868 0.289812 -2.51333e-19)
(-0.0436535 0.298429 -2.77069e-22)
(-0.0416516 0.305691 8.27152e-20)
(-0.0393065 0.311611 -1.64729e-19)
(-0.0366466 0.316218 8.16829e-20)
(-0.0337044 0.319556 -3.5117e-22)
(-0.030517 0.321684 -8.09133e-20)
(-0.0271268 0.322674 8.03287e-20)
(-0.0235796 0.322612 0)
(-0.0200123 0.321653 7.86426e-20)
(-0.0165949 0.320005 2.91533e-22)
(8.16753e-05 -0.0017573 -1.77132e-20)
(-0.00206373 0.00261718 1.92356e-20)
(-0.00630346 0.013295 -1.18033e-19)
(-0.0114463 0.0278032 -6.01205e-20)
(-0.0169952 0.0445936 8.14366e-20)
(-0.0225795 0.0627131 -1.23747e-19)
(-0.0279651 0.0815325 -4.17419e-20)
(-0.0330053 0.100634 -8.39586e-20)
(-0.0376045 0.119731 8.44527e-20)
(-0.0417043 0.138614 -1.69708e-19)
(-0.0452737 0.157116 -8.50335e-20)
(-0.0482967 0.17509 -1.04331e-22)
(-0.0507673 0.192401 4.26654e-20)
(-0.0526885 0.208921 -1.27638e-19)
(-0.05407 0.224528 -1.70068e-19)
(-0.0549243 0.239113 -5.46118e-23)
(-0.0552665 0.252577 -2.10068e-22)
(-0.0551132 0.264843 8.4175e-20)
(-0.0544827 0.275848 8.40059e-20)
(-0.053396 0.285549 -2.53534e-23)
(-0.0518755 0.293922 -2.75141e-22)
(-0.0499442 0.300963 8.21687e-20)
(-0.047627 0.306686 8.2214e-20)
(-0.0449536 0.311122 -3.51087e-23)
(-0.0419579 0.314319 -2.43012e-19)
(-0.0386796 0.316342 1.60385e-19)
(-0.0351664 0.317272 1.5967e-19)
(-0.0314707 0.317208 -1.57939e-19)
(-0.0277433 0.316317 -7.86422e-20)
(-0.0241712 0.314829 -8.75619e-20)
(1.8282e-05 -0.00140297 -1.59126e-19)
(-0.0024384 0.00333411 -1.921e-20)
(-0.0071549 0.0141425 9.8324e-20)
(-0.0128285 0.0286275 8.0176e-20)
(-0.0189225 0.0452835 -8.14359e-20)
(-0.0250437 0.0631876 8.24709e-20)
(-0.0309473 0.0817319 -4.16466e-20)
(-0.0364806 0.100513 1.25892e-19)
(-0.0415455 0.119258 -8.44521e-20)
(-0.0460822 0.137766 8.4805e-20)
(-0.0500581 0.15588 4.25007e-20)
(-0.0534565 0.173462 -4.26421e-20)
(-0.0562704 0.190384 -2.55342e-19)
(-0.0585021 0.206523 1.70055e-19)
(-0.0601606 0.221762 8.49681e-20)
(-0.0612571 0.235996 0)
(-0.0618051 0.249129 0)
(-0.0618208 0.261085 -3.89137e-22)
(-0.0613216 0.271801 -8.36331e-20)
(-0.0603273 0.281235 0)
(-0.0588592 0.289363 0)
(-0.0569396 0.296182 -8.2442e-20)
(-0.0545931 0.301705 0)
(-0.0518489 0.305967 -1.62073e-19)
(-0.0487415 0.309019 0)
(-0.0453134 0.310935 -8.01587e-20)
(-0.0416166 0.311806 1.58832e-19)
(-0.0377097 0.311743 -1.5711e-19)
(-0.0337547 0.310932 0)
(-0.0299631 0.309625 0)
(-6.62899e-05 -0.00102532 1.41434e-19)
(-0.00283991 0.00408913 0)
(-0.00800657 0.0150251 -1.96289e-20)
(-0.0141664 0.029476 2.00023e-20)
(-0.0207476 0.045985 -1.21793e-19)
(-0.0273385 0.0636624 2.69813e-23)
(-0.0336863 0.0819222 -4.15597e-20)
(-0.0396345 0.100376 0)
(-0.045084 0.118763 0)
(-0.0499748 0.136893 -4.2365e-20)
(-0.054274 0.154616 4.24068e-20)
(-0.0579644 0.171804 -8.50846e-20)
(-0.0610392 0.188335 8.51333e-20)
(-0.0635005 0.204093 0)
(-0.0653563 0.218965 0)
(-0.0666168 0.232849 0)
(-0.0672949 0.245654 8.39921e-20)
(-0.0674059 0.257302 -1.74856e-22)
(-0.0669661 0.267733 8.38176e-20)
(-0.0659941 0.276903 -1.65901e-19)
(-0.0645101 0.28479 8.26772e-20)
(-0.0625351 0.291389 -4.10026e-19)
(-0.0600928 0.296714 7.90586e-23)
(-0.0572116 0.300801 1.62071e-19)
(-0.0539254 0.303708 -5.28213e-22)
(-0.0502785 0.305514 1.59007e-19)
(-0.0463273 0.306323 -1.57434e-19)
(-0.042136 0.306263 -1.56587e-19)
(-0.0378735 0.30554 3.07648e-22)
(-0.0337855 0.304437 -1.72221e-19)
(-0.000172252 -0.000630876 -1.76438e-20)
(-0.003268 0.00486815 0)
(-0.00885727 0.0159241 3.92029e-20)
(-0.015457 0.0303275 -3.99488e-20)
(-0.0224655 0.046676 3.65254e-19)
(-0.0294564 0.0641152 2.90835e-23)
(-0.0361716 0.0820821 -4.15066e-20)
(-0.0424532 0.100204 4.18808e-20)
(-0.0482024 0.118229 -2.10395e-19)
(-0.0533605 0.13598 0)
(-0.057895 0.153314 0)
(-0.0617893 0.17011 -8.47097e-20)
(-0.0650374 0.186254 8.5094e-20)
(-0.0676414 0.201634 -8.49143e-20)
(-0.0696086 0.216145 8.45543e-20)
(-0.0709487 0.229686 0)
(-0.0716741 0.242169 -3.36418e-19)
(-0.0717992 0.253518 1.67301e-19)
(-0.0713392 0.263672 8.34143e-20)
(-0.0703113 0.272589 2.48629e-19)
(-0.0687345 0.280243 0)
(-0.0666285 0.286628 1.63808e-19)
(-0.0640154 0.291761 1.62189e-19)
(-0.0609217 0.295677 1.60937e-19)
(-0.0573807 0.298438 -6.88764e-22)
(-0.0534376 0.300133 -1.5807e-19)
(-0.0491522 0.300876 1.57432e-19)
(-0.0445939 0.300816 0)
(-0.0399344 0.300186 3.48131e-22)
(-0.0354628 0.299305 3.43341e-19)
(-0.000299494 -0.000226016 -1.40847e-19)
(-0.00372173 0.00565703 0)
(-0.00970524 0.0168208 -1.56457e-19)
(-0.0166975 0.0311607 -1.99366e-19)
(-0.0240718 0.0473334 -1.217e-19)
(-0.0313909 0.0645225 4.10663e-20)
(-0.0383946 0.0821885 4.12026e-23)
(-0.0449252 0.0999735 -4.17802e-20)
(-0.0508861 0.117638 1.99991e-22)
(-0.0562208 0.135012 8.45339e-20)
(-0.0608985 0.151961 8.4659e-20)
(-0.064904 0.168372 -8.46744e-20)
(-0.0682326 0.184136 8.47125e-20)
(-0.0708867 0.199148 -2.54091e-19)
(-0.0728735 0.213307 2.53368e-19)
(-0.0742023 0.226517 1.68413e-19)
(-0.0748851 0.23869 4.19849e-19)
(-0.0749355 0.249753 -8.38107e-20)
(-0.0743677 0.259645 -1.66053e-19)
(-0.0731976 0.268322 -4.25078e-22)
(-0.0714427 0.275756 -1.6434e-19)
(-0.0691211 0.281941 4.88775e-19)
(-0.0662534 0.286891 -3.24124e-19)
(-0.0628638 0.290644 3.20498e-19)
(-0.0589841 0.293265 -1.59457e-19)
(-0.0546594 0.294847 3.15399e-19)
(-0.0499531 0.29552 4.90515e-22)
(-0.0449386 0.295455 -3.09452e-19)
(-0.039786 0.294919 3.05862e-19)
(-0.0348365 0.294275 1.69556e-19)
(-0.000447495 0.000183113 1.40847e-19)
(-0.0041998 0.00644247 0)
(-0.0105487 0.0176972 3.51765e-19)
(-0.0178853 0.0319543 1.1963e-19)
(-0.0255629 0.0479343 0)
(-0.0331375 0.0648604 0)
(-0.040349 0.0822176 0)
(-0.0470422 0.0996634 0)
(-0.0531239 0.116969 8.40455e-20)
(-0.0585414 0.13397 8.43003e-20)
(-0.0632665 0.150542 -1.69275e-19)
(-0.0672862 0.166577 1.69485e-19)
(-0.0705977 0.181974 2.54045e-19)
(-0.0732042 0.196631 8.47881e-20)
(-0.0751129 0.210453 8.4245e-20)
(-0.0763332 0.223347 -2.52462e-19)
(-0.0768768 0.235228 -3.35197e-19)
(-0.0767564 0.246024 -1.66958e-19)
(-0.0759854 0.255673 1.66051e-19)
(-0.0745786 0.264129 -3.30016e-19)
(-0.0725521 0.271363 1.63556e-19)
(-0.0699225 0.277367 -3.25371e-19)
(-0.0667083 0.282152 1.60908e-19)
(-0.0629316 0.285755 -4.05337e-22)
(-0.0586224 0.288243 -1.5833e-19)
(-0.0538252 0.289716 -3.14365e-19)
(-0.0486062 0.290316 3.11203e-19)
(-0.0430427 0.290237 0)
(-0.0372977 0.289791 -4.04127e-22)
(-0.0317728 0.289394 -3.3777e-19)
(-0.000615447 0.00059073 1.75658e-20)
(-0.00470053 0.00721183 0)
(-0.0113857 0.0185361 -1.56219e-19)
(-0.0190183 0.0326879 3.97857e-20)
(-0.0269364 0.0484557 -4.03989e-20)
(-0.0346931 0.0651044 0)
(-0.0420306 0.0821444 -4.13859e-20)
(-0.0487984 0.0992485 4.16717e-20)
(-0.0549084 0.116197 8.39677e-20)
(-0.0603125 0.132833 -2.52616e-19)
(-0.0649861 0.149039 -8.45602e-20)
(-0.0689195 0.164712 -1.53666e-22)
(-0.0721122 0.179756 -1.05596e-22)
(-0.0745686 0.194075 -1.68952e-19)
(-0.0762966 0.207579 -8.4485e-20)
(-0.0773056 0.220177 0)
(-0.077607 0.231789 2.42239e-24)
(-0.077213 0.24234 1.66609e-19)
(-0.0761365 0.25177 -1.65343e-19)
(-0.0743914 0.260031 0)
(-0.0719924 0.267092 0)
(-0.0689549 0.272939 0)
(-0.0652956 0.277583 0)
(-0.0610346 0.281057 -6.14871e-22)
(-0.0561999 0.283428 0)
(-0.0508353 0.2848 0)
(-0.0450095 0.285327 1.54278e-19)
(-0.0388035 0.285226 1.52646e-19)
(-0.0323684 0.28486 1.5143e-19)
(-0.0261705 0.284715 -4.97502e-22)
(-0.00080238 0.000991665 1.75376e-20)
(-0.00522213 0.00795366 -3.8081e-20)
(-0.0122146 0.0193216 2.33648e-19)
(-0.0200951 0.0333422 -3.97084e-20)
(-0.028191 0.0488755 4.0364e-20)
(-0.0360564 0.0652303 3.89209e-23)
(-0.043438 0.0819435 1.23812e-19)
(-0.0501919 0.098703 -1.66452e-19)
(-0.0562365 0.115297 2.51341e-19)
(-0.0615293 0.131578 1.01698e-22)
(-0.0660506 0.14743 -8.43437e-20)
(-0.0697946 0.162756 1.68854e-19)
(-0.0727636 0.177466 -1.68831e-19)
(-0.0749638 0.191468 1.68602e-19)
(-0.076404 0.204675 0)
(-0.0770941 0.217003 1.67591e-19)
(-0.0770455 0.22837 0)
(-0.07627 0.238704 3.35654e-22)
(-0.07478 0.247945 -1.6492e-19)
(-0.072589 0.256041 -1.63782e-19)
(-0.0697108 0.26296 1.62542e-19)
(-0.0661599 0.268684 -1.6121e-19)
(-0.0619517 0.273217 -1.59797e-19)
(-0.0571049 0.276591 -3.17229e-19)
(-0.0516461 0.278869 -1.56763e-19)
(-0.0456178 0.280157 1.5553e-19)
(-0.0390917 0.280615 -3.08148e-19)
(-0.0321528 0.280487 -1.52642e-19)
(-0.0249349 0.280192 0)
(-0.0179707 0.280295 -1.66092e-19)
(-0.00100725 0.00138151 0)
(-0.0057628 0.00865802 1.51933e-19)
(-0.013034 0.0200393 -1.16817e-19)
(-0.0211148 0.0338993 -1.98102e-19)
(-0.0293264 0.0491727 0)
(-0.0372276 0.0652146 0)
(-0.044572 0.0815893 -2.47634e-19)
(-0.0512238 0.0979997 3.32549e-19)
(-0.0571091 0.114243 -2.5111e-19)
(-0.0621923 0.130175 0)
(-0.0664595 0.145687 8.43067e-20)
(-0.0699095 0.160685 -8.45553e-20)
(-0.0725481 0.175081 2.27505e-22)
(-0.0743837 0.188789 -8.45518e-20)
(-0.0754265 0.201726 -8.39712e-20)
(-0.0756871 0.21381 -2.7749e-22)
(-0.0751772 0.224962 1.66532e-19)
(-0.0739084 0.235111 1.65941e-19)
(-0.0718935 0.244195 9.96922e-23)
(-0.0691455 0.252163 3.27264e-19)
(-0.0656781 0.258976 -3.24906e-19)
(-0.0615053 0.264613 3.22102e-19)
(-0.0566421 0.269074 1.59793e-19)
(-0.0511067 0.272385 1.58307e-19)
(-0.0449248 0.274604 6.4906e-22)
(-0.0381385 0.275834 0)
(-0.0308221 0.276241 1.53111e-19)
(-0.0230663 0.276085 -4.54256e-19)
(-0.0149827 0.275849 1.49447e-19)
(-0.00716634 0.276195 1.64574e-19)
(-0.00122907 0.00175672 -1.04736e-19)
(-0.00632086 0.00931654 -3.41547e-19)
(-0.0138427 0.0206771 -7.18634e-24)
(-0.0220769 0.0343434 2.55699e-22)
(-0.0303433 0.049328 -1.20528e-19)
(-0.0382086 0.0650348 0)
(-0.0454354 0.0810566 -8.2174e-20)
(-0.0518979 0.0971113 -4.98288e-19)
(-0.0575312 0.113004 2.50753e-19)
(-0.0623075 0.128597 -1.67747e-19)
(-0.0662191 0.143783 2.52433e-19)
(-0.0692707 0.15847 -8.41846e-20)
(-0.071472 0.172574 1.686e-19)
(-0.0728339 0.186014 -4.20661e-19)
(-0.0733686 0.198707 2.51754e-19)
(-0.0730881 0.210577 -2.94233e-23)
(-0.0720045 0.221545 -4.99015e-19)
(-0.07013 0.231543 1.65513e-19)
(-0.0674777 0.240507 -1.64273e-19)
(-0.0640612 0.248384 0)
(-0.0598943 0.255132 1.61625e-19)
(-0.0549917 0.260727 0)
(-0.0493687 0.265161 -1.58966e-19)
(-0.0430442 0.268454 1.57403e-19)
(-0.0360442 0.270657 1.56104e-19)
(-0.0284109 0.271868 1.53768e-19)
(-0.0202219 0.272248 0)
(-0.011575 0.272076 0)
(-0.00255621 0.271894 -2.98424e-19)
(0.00618722 0.272473 4.87728e-19)
(-0.00146695 0.00211463 1.04813e-19)
(-0.00689482 0.00992253 1.89557e-19)
(-0.0146397 0.0212244 -1.54894e-19)
(-0.0229814 0.0346605 3.16087e-19)
(-0.0312427 0.0493242 4.04503e-20)
(-0.0390019 0.0646704 4.0754e-20)
(-0.0460328 0.0803214 3.79603e-22)
(-0.052221 0.096011 -1.65593e-19)
(-0.0575115 0.111553 -8.33857e-20)
(-0.0618853 0.126812 2.43264e-22)
(-0.0653421 0.141683 -2.39803e-22)
(-0.0678926 0.156078 -2.52371e-19)
(-0.0695512 0.169912 -8.40697e-20)
(-0.070332 0.183108 2.54576e-22)
(-0.0702496 0.195587 1.6739e-19)
(-0.0693178 0.207273 1.66734e-19)
(-0.0675499 0.218091 3.1444e-22)
(-0.0649593 0.227973 -1.64916e-19)
(-0.0615599 0.236855 1.64022e-19)
(-0.0573663 0.244681 -1.62696e-19)
(-0.0523938 0.251408 -3.2279e-19)
(-0.0466581 0.257006 -1.59942e-19)
(-0.0401764 0.261462 3.16576e-19)
(-0.0329693 0.264789 0)
(-0.0250647 0.267028 -1.54832e-19)
(-0.0165054 0.268267 -3.06854e-19)
(-0.00737302 0.268663 -3.03179e-19)
(0.00222569 0.268496 1.50388e-19)
(0.0122321 0.268371 -4.44439e-19)
(0.0219636 0.269178 1.61378e-19)
(-0.00172024 0.00245341 -1.73968e-19)
(-0.00748342 0.010471 3.78221e-20)
(-0.0154241 0.0216734 1.54895e-19)
(-0.0238281 0.0348395 -1.18448e-19)
(-0.0320259 0.049147 4.01928e-20)
(-0.0396106 0.0641036 -9.94095e-23)
(-0.0463696 0.0793626 4.10422e-19)
(-0.0522011 0.0946741 1.65714e-19)
(-0.0570611 0.10986 1.66764e-19)
(-0.0609404 0.124789 2.51266e-19)
(-0.0638466 0.139356 -2.51804e-19)
(-0.065797 0.153473 1.68158e-19)
(-0.0668112 0.167058 3.36242e-19)
(-0.0669073 0.180035 1.67854e-19)
(-0.0661029 0.192327 -3.45317e-23)
(-0.0644142 0.20386 -3.33211e-19)
(-0.0618564 0.214561 3.31706e-19)
(-0.0584447 0.224361 2.37923e-22)
(-0.0541948 0.233198 -1.63622e-19)
(-0.0491232 0.241015 1.62298e-19)
(-0.0432472 0.247764 1.61165e-19)
(-0.0365849 0.253413 -1.59206e-19)
(-0.0291563 0.257944 -3.15973e-19)
(-0.0209855 0.261359 1.13127e-22)
(-0.0121032 0.263691 1.55197e-19)
(-0.00255412 0.265016 1.53085e-19)
(0.00757632 0.265478 3.0171e-19)
(0.0181704 0.265355 -2.97703e-19)
(0.0291965 0.2653 0)
(0.0399599 0.266335 1.59522e-19)
(-0.00198858 0.00277212 2.85247e-22)
(-0.00808564 0.0109589 0)
(-0.0161951 0.0220183 -1.15668e-19)
(-0.0246166 0.0348725 -3.93548e-20)
(-0.0326935 0.0487854 -1.59857e-19)
(-0.0400371 0.0633204 0)
(-0.0464507 0.0781624 -2.46074e-19)
(-0.0518465 0.0930789 8.25868e-20)
(-0.0561925 0.1079 0)
(-0.0594897 0.122497 -1.6698e-19)
(-0.0617546 0.136766 0)
(-0.0630113 0.150619 -2.51601e-19)
(-0.0632854 0.163973 2.51387e-19)
(-0.0625995 0.176752 -1.67589e-19)
(-0.060975 0.188883 -1.66816e-19)
(-0.0584312 0.200291 0)
(-0.0549863 0.210906 0)
(-0.0506578 0.220659 1.64413e-19)
(-0.0454643 0.229487 3.70549e-23)
(-0.0394252 0.237333 1.61688e-19)
(-0.0325606 0.244147 -1.60496e-19)
(-0.0248925 0.249894 3.18101e-19)
(-0.0164449 0.254549 -1.57394e-19)
(-0.00724635 0.258108 0)
(0.00266816 0.260594 4.61791e-19)
(0.013251 0.262067 -7.60126e-19)
(0.0244135 0.262656 1.50812e-19)
(0.0360258 0.262624 1.48755e-19)
(0.0480809 0.262665 1.46178e-19)
(0.0598992 0.263937 3.14218e-19)
(-0.00227188 0.00307062 -1.3828e-19)
(-0.00870059 0.0113846 3.00921e-19)
(-0.0169513 0.0222564 1.5429e-19)
(-0.0253456 0.0347546 3.53258e-19)
(-0.0332448 0.0482328 4.39035e-19)
(-0.0402825 0.0623112 8.09859e-20)
(-0.0462799 0.0767079 -4.08668e-19)
(-0.0511645 0.0912088 0)
(-0.0549173 0.105652 -3.31881e-19)
(-0.0575503 0.119913 -1.66418e-19)
(-0.0590894 0.133886 0)
(-0.059566 0.147481 -1.67088e-19)
(-0.0590119 0.160617 -1.45788e-23)
(-0.0574552 0.173218 -5.01085e-19)
(-0.0549219 0.18521 1.66813e-19)
(-0.0514354 0.196519 1.66021e-19)
(-0.0470172 0.207075 -3.29701e-19)
(-0.0416889 0.216811 -3.28016e-19)
(-0.0354725 0.225663 -3.77255e-24)
(-0.0283914 0.233574 -2.00588e-22)
(-0.02047 0.240492 0)
(-0.011735 0.246379 -1.5838e-19)
(-0.00221578 0.251206 -1.56193e-19)
(0.00805334 0.254963 0)
(0.019032 0.25766 0)
(0.0306693 0.259345 4.54399e-19)
(0.0428735 0.260126 -4.47985e-19)
(0.0555034 0.260243 0)
(0.0685719 0.260415 4.36055e-19)
(0.0814442 0.261942 -3.12047e-19)
(-0.00257036 0.00334943 6.07884e-22)
(-0.00932739 0.0117484 -3.00935e-19)
(-0.0176909 0.0223871 -3.84475e-20)
(-0.0260121 0.0344849 -3.92405e-19)
(-0.033677 0.0474871 -2.39435e-19)
(-0.0403448 0.0610722 8.08308e-20)
(-0.0458574 0.074993 1.63611e-19)
(-0.050159 0.0890541 4.11409e-19)
(-0.0532442 0.103103 3.31883e-19)
(-0.0551368 0.117017 3.33398e-19)
(-0.0558724 0.13069 0)
(-0.0554904 0.144032 5.84361e-22)
(-0.0540294 0.156959 0)
(-0.0515235 0.169395 3.34036e-19)
(-0.0480041 0.181264 0)
(-0.0434994 0.192494 -1.6568e-19)
(-0.0380358 0.203016 1.65384e-19)
(-0.0316393 0.21276 0)
(-0.0243368 0.221665 0)
(-0.0161568 0.229671 -4.82641e-19)
(-0.00712922 0.236728 1.59605e-19)
(0.0027134 0.242794 0)
(0.0133351 0.247837 3.1275e-19)
(0.0246947 0.251839 3.09539e-19)
(0.0367455 0.254801 -6.10676e-19)
(0.0494324 0.256758 6.03209e-19)
(0.0626624 0.257795 3.67408e-22)
(0.076284 0.258123 2.93301e-19)
(0.0903249 0.258469 -2.90894e-19)
(0.104223 0.260273 0)
(-0.00288445 0.00360958 3.45589e-19)
(-0.00996486 0.0120516 -3.75024e-20)
(-0.0184106 0.0224124 -3.0657e-19)
(-0.0266114 0.0340659 0)
(-0.0339842 0.0465512 -3.17744e-19)
(-0.0402183 0.0596063 0)
(-0.0451789 0.073019 -4.07198e-19)
(-0.0488283 0.086614 -2.46997e-19)
(-0.0511758 0.100248 -3.30645e-19)
(-0.0522575 0.113801 0)
(-0.0521192 0.127167 8.34352e-20)
(-0.0508085 0.140253 8.42843e-20)
(-0.0483715 0.152975 -1.66726e-19)
(-0.0448489 0.165254 -3.32775e-19)
(-0.0402783 0.177013 -1.65613e-19)
(-0.0346937 0.18818 -6.6075e-19)
(-0.028127 0.198684 3.29025e-19)
(-0.0206099 0.208458 4.77235e-24)
(-0.0121753 0.217439 5.91347e-23)
(-0.00285757 0.225567 4.82282e-19)
(0.00730661 0.232791 0)
(0.0182776 0.239069 0)
(0.0300117 0.244364 -8.05639e-22)
(0.0424599 0.248655 3.05065e-22)
(0.0555682 0.251932 -3.03524e-19)
(0.0692764 0.254217 -3.00014e-19)
(0.083491 0.255573 9.80992e-22)
(0.0980534 0.256173 -2.93289e-19)
(0.113 0.256735 -2.88459e-19)
(0.127866 0.25884 1.08449e-21)
(-0.00321466 0.00385227 0)
(-0.0106112 0.0122965 2.98849e-19)
(-0.0191055 0.0223365 2.68286e-19)
(-0.0271354 0.0335042 3.90179e-20)
(-0.0341563 0.0454338 6.34781e-19)
(-0.0398919 0.0579234 -8.04999e-20)
(-0.0442334 0.0707967 6.50435e-19)
(-0.047163 0.0838987 3.27643e-19)
(-0.0487059 0.0970964 4.95809e-19)
(-0.0489109 0.110271 2.48644e-19)
(-0.0478342 0.123319 8.32767e-20)
(-0.0455324 0.136144 4.17028e-19)
(-0.0420593 0.148659 2.3739e-22)
(-0.0374631 0.160784 1.66661e-19)
(-0.0317881 0.17244 3.31698e-19)
(-0.0250748 0.183554 3.30203e-19)
(-0.0173616 0.194054 0)
(-0.00868657 0.203873 0)
(0.000910616 0.212948 0)
(0.0113884 0.221219 0)
(0.0227028 0.228635 3.16658e-19)
(0.0348058 0.235153 0)
(0.0476451 0.240734 -2.66159e-22)
(0.0611628 0.245352 6.13046e-19)
(0.075296 0.24899 3.03234e-19)
(0.0899782 0.251657 2.99405e-19)
(0.105115 0.253391 5.90328e-19)
(0.120543 0.254325 0)
(0.136304 0.255148 -5.73805e-19)
(0.152047 0.257568 6.06657e-19)
(-0.00356135 0.00407867 2.74539e-19)
(-0.0112636 0.0124859 -2.98856e-19)
(-0.0197684 0.0221653 0)
(-0.0275727 0.0328096 -3.11127e-19)
(-0.0341783 0.044149 -7.99742e-20)
(-0.0393477 0.0560413 -2.40445e-19)
(-0.0430017 0.0683468 -7.30397e-19)
(-0.0451439 0.0809311 -8.72699e-22)
(-0.0458164 0.0936711 -2.46955e-19)
(-0.0450815 0.106452 -5.79493e-19)
(-0.0430063 0.119168 -8.29568e-20)
(-0.0396567 0.131723 -3.32173e-19)
(-0.0350948 0.144028 -3.32016e-19)
(-0.0293765 0.155999 0)
(-0.0225535 0.167556 -3.30226e-19)
(-0.0146736 0.178623 -4.93216e-19)
(-0.00578189 0.189128 1.6355e-19)
(0.00407619 0.199004 -3.24387e-19)
(0.0148538 0.208187 -3.21743e-19)
(0.0265018 0.216618 0)
(0.0389678 0.224247 -6.32257e-19)
(0.0521952 0.23103 0)
(0.0661218 0.236928 -6.18593e-19)
(0.0806794 0.241911 -3.05104e-19)
(0.0957946 0.245956 -6.03268e-19)
(0.111392 0.249057 2.97377e-19)
(0.127372 0.251233 -8.81842e-19)
(0.143571 0.252569 2.89196e-19)
(0.160025 0.253701 1.37702e-21)
(0.17652 0.256448 -2.9899e-19)
(-0.00392457 0.00428969 -2.74545e-19)
(-0.011918 0.012623 3.72218e-20)
(-0.0203895 0.0219067 2.66227e-19)
(-0.0279077 0.0319957 3.11134e-19)
(-0.0340291 0.0427165 -3.16296e-19)
(-0.0385604 0.0539861 7.68898e-22)
(-0.0414548 0.0657009 3.24228e-19)
(-0.0427395 0.0777474 -6.53443e-19)
(-0.0424748 0.0900124 -8.15776e-20)
(-0.040737 0.102384 7.43488e-19)
(-0.0376045 0.114758 -4.96922e-19)
(-0.0331531 0.127037 8.2937e-19)
(-0.0274536 0.139128 8.29197e-19)
(-0.0205698 0.150945 -1.65392e-19)
(-0.0125616 0.162404 3.30224e-19)
(-0.00348374 0.17343 4.92792e-19)
(0.00661093 0.183948 1.62685e-19)
(0.0176698 0.193891 9.31268e-22)
(0.0296384 0.203195 1.61197e-19)
(0.0424598 0.211803 1.59238e-19)
(0.0560731 0.219665 -1.56287e-19)
(0.0704123 0.226737 1.55955e-19)
(0.085405 0.232982 -3.07358e-19)
(0.100971 0.238367 3.04834e-19)
(0.117024 0.242867 1.33073e-21)
(0.133473 0.246464 2.957e-19)
(0.150213 0.249155 1.40957e-21)
(0.167067 0.250974 -2.88793e-19)
(0.184063 0.252481 3.5761e-22)
(0.201134 0.255569 0)
(-0.00430379 0.00448583 0)
(-0.0125682 0.0127109 0)
(-0.0209555 0.0215694 -3.42322e-19)
(-0.0281198 0.0310788 3.87276e-20)
(-0.0336814 0.0411611 0)
(-0.0374961 0.0517912 3.19881e-19)
(-0.0395532 0.0629014 8.08534e-20)
(-0.0399053 0.0743979 2.44944e-19)
(-0.0386324 0.0861778 3.28554e-19)
(-0.0358254 0.0981332 -3.30113e-19)
(-0.0315748 0.11016 3.31063e-19)
(-0.0259665 0.12216 -3.31435e-19)
(-0.0190802 0.134037 -3.3126e-19)
(-0.0109885 0.145702 0)
(-0.00175884 0.157071 0)
(0.00854614 0.168063 0)
(0.0198662 0.178604 -3.25813e-19)
(0.0321413 0.188626 4.84855e-19)
(0.0453096 0.198066 -1.60195e-19)
(0.0593063 0.206867 0)
(0.0740624 0.214982 4.71293e-19)
(0.0895025 0.222368 -1.55374e-19)
(0.105543 0.228991 3.0735e-19)
(0.122091 0.23482 -6.0466e-19)
(0.139043 0.239829 5.9904e-19)
(0.156289 0.243993 -1.13417e-21)
(0.173701 0.24729 2.96149e-22)
(0.191085 0.249705 2.87302e-19)
(0.208435 0.251689 6.35873e-22)
(0.225843 0.255155 2.95148e-19)
(-0.0046976 0.00466685 3.40763e-20)
(-0.0132061 0.0127522 -3.70235e-20)
(-0.0214495 0.021163 7.58049e-20)
(-0.0281835 0.0300775 -4.6327e-19)
(-0.0331008 0.0395118 7.85231e-20)
(-0.0361122 0.0494972 0)
(-0.0372461 0.0600001 3.21861e-19)
(-0.036583 0.0709461 -3.24754e-19)
(-0.0342236 0.0822418 0)
(-0.0302746 0.0937836 4.10839e-19)
(-0.0248391 0.105468 -8.23928e-20)
(-0.0180134 0.117195 0)
(-0.00988681 0.128868 -1.651e-19)
(-0.000540395 0.140393 3.29277e-19)
(0.00995014 0.151683 -1.64e-19)
(0.0215145 0.162656 1.63202e-19)
(0.034085 0.173237 -3.24339e-19)
(0.0475942 0.183356 1.45065e-22)
(0.0619731 0.192951 2.14204e-22)
(0.0771495 0.201966 -1.57298e-19)
(0.0930466 0.210355 -3.12351e-19)
(0.10958 0.218081 7.80367e-22)
(0.126657 0.225113 1.12376e-21)
(0.144169 0.231426 3.02186e-19)
(0.161993 0.237 -2.9703e-19)
(0.179992 0.241814 2.94295e-19)
(0.198 0.245838 -5.78877e-19)
(0.215775 0.249013 -3.62729e-22)
(0.233246 0.251665 -5.62075e-19)
(0.250632 0.255655 2.92534e-19)
(-0.00510313 0.00483143 0)
(-0.0138204 0.0127484 -2.94797e-19)
(-0.0218504 0.0206969 0)
(-0.0280674 0.0290116 8.84606e-22)
(-0.032246 0.0378011 7.84309e-20)
(-0.0343573 0.04715 1.47899e-22)
(-0.0344721 0.0570575 -6.42703e-19)
(-0.0327013 0.0674669 2.43761e-19)
(-0.0291672 0.078294 0)
(-0.0239938 0.0894393 -4.10633e-19)
(-0.0172971 0.100801 8.21817e-20)
(-0.00918467 0.112276 0)
(0.000244343 0.123765 -1.64645e-19)
(0.0108998 0.135173 1.64118e-19)
(0.0226978 0.146409 1.63047e-19)
(0.03556 0.157389 3.25399e-19)
(0.0494112 0.168035 -1.61693e-19)
(0.0641765 0.178277 0)
(0.07978 0.188052 0)
(0.0961423 0.197305 3.15451e-19)
(0.11318 0.205993 -3.11018e-19)
(0.1308 0.214081 3.08188e-19)
(0.148901 0.221547 3.04665e-19)
(0.167364 0.228374 2.99478e-19)
(0.186049 0.234558 -2.96434e-19)
(0.204787 0.2401 2.92633e-19)
(0.223356 0.244996 2.87238e-19)
(0.241409 0.249192 -2.84117e-19)
(0.258685 0.252973 1.06147e-21)
(0.275262 0.258085 5.78598e-19)
(-0.00551778 0.00497898 3.38831e-20)
(-0.0143986 0.0127015 2.58071e-19)
(-0.0221342 0.0201813 0)
(-0.0277362 0.0279032 3.07884e-19)
(-0.0310703 0.0360647 0)
(-0.032173 0.0448009 0)
(-0.0311612 0.0541411 2.40812e-19)
(-0.0281781 0.0640448 -1.744e-22)
(-0.0233693 0.0744363 8.13371e-20)
(-0.0168769 0.08522 8.18871e-20)
(-0.00883121 0.096294 -2.4617e-19)
(0.00064835 0.107554 1.64105e-19)
(0.0114521 0.118898 0)
(0.0234804 0.130228 0)
(0.0366403 0.141448 -3.26632e-19)
(0.0508451 0.152473 0)
(0.0660114 0.163221 -1.6101e-19)
(0.0820565 0.173621 1.59906e-19)
(0.098897 0.183608 1.58209e-19)
(0.116446 0.193127 -3.54196e-22)
(0.134614 0.202135 -1.55217e-19)
(0.153303 0.210601 0)
(0.172404 0.218507 -3.01897e-19)
(0.191796 0.22585 2.9892e-19)
(0.211337 0.232647 0)
(0.230852 0.238939 0)
(0.250103 0.244795 0)
(0.268682 0.250307 0)