/*--------------------------------*- C++ -*----------------------------------*\
  =========                 |
  \\      /  F ield         | OpenFOAM: The Open Source CFD Toolbox
   \\    /   O peration     | Website:  https://openfoam.org
    \\  /    A nd           | Version:  7
     \\/     M anipulation  |
\*---------------------------------------------------------------------------*/
FoamFile
{
    version     2.0;
    format      ascii;
    class       surfaceScalarField;
    location    "23";
    object      phi;
}
// * * * * * * * * * * * * * * * * * * * * * * * * * * * * * * * * * * * * * //

dimensions      [0 3 -1 0 0 0 0];

internalField   nonuniform List<scalar> 
3880
(
0.000774376
0.0021707
-0.00294508
0.00255969
0.00811252
-0.00989783
0.00493992
0.0143662
-0.0167464
0.00747426
0.0201207
-0.022655
0.00984817
0.0249593
-0.0273332
0.011916
0.028802
-0.0308698
0.0136608
0.0317633
-0.0335082
0.0151338
0.0340244
-0.0354974
0.0164032
0.0357565
-0.0370259
0.0370835
0.017527
-0.0382073
0.000695628
0.00147507
0.00241582
0.00639232
0.00487155
0.0119104
0.00768278
0.0173095
0.0105077
0.0221344
0.0131227
0.026187
0.0154292
0.0294569
0.0174198
0.0320338
0.0191351
0.0340412
0.0355885
0.02063
0.000599389
0.000875684
0.00218649
0.00480523
0.00459521
0.00950173
0.00754133
0.0143634
0.0107066
0.0189691
0.0138239
0.0230697
0.0167172
0.0265637
0.019302
0.029449
0.0215627
0.0317804
0.0336242
0.023527
0.000492581
0.000383104
0.0018947
0.00340311
0.00414389
0.00725253
0.00706372
0.0114435
0.010403
0.0156299
0.0139001
0.0195725
0.0173339
0.0231299
0.0205469
0.026236
0.0234486
0.0288787
0.0310647
0.0260081
0.000381237
1.86659e-06
0.00156485
0.00221949
0.00356551
0.00525187
0.00630461
0.00870443
0.00961958
0.0123149
0.0133002
0.0158919
0.0171285
0.0193016
0.0209082
0.0224563
0.0244836
0.0253033
0.0277981
0.0277502
0.000270806
-0.00026894
0.00122068
0.00126962
0.00291504
0.00355751
0.00534944
0.00627003
0.00844742
0.00921693
0.0120747
0.0122646
0.0160617
0.0153146
0.0202238
0.0182942
0.0243814
0.0211456
0.0237984
0.0283812
0.000166213
-0.000435153
0.000884526
0.000551305
0.00224794
0.0021941
0.00429869
0.00421928
0.00702701
0.00648861
0.0103749
0.00891673
0.0142449
0.0114446
0.0185109
0.0140282
0.0230239
0.0166326
0.0191897
0.0276326
7.32366e-05
-0.000508389
0.000578294
4.62475e-05
0.00161796
0.00115443
0.00325588
0.00258135
0.00552301
0.00422148
0.00842023
0.00601951
0.0119228
0.007942
0.0159883
0.00996272
0.0205457
0.0120752
0.0142387
0.0254966
1.07422e-06
-0.000509464
0.000324313
-0.000276992
0.00107718
0.000401559
0.00232201
0.00133652
0.00410468
0.00243882
0.00645931
0.00366488
0.00941544
0.00498587
0.0130106
0.00636754
0.0172957
0.00779011
0.00919666
0.0223377
-5.47886e-05
-0.000454675
0.000143535
-0.000475316
0.000675705
-0.000130611
0.00159355
0.000418675
0.00293673
0.00109565
0.00474273
0.00185888
0.0070553
0.0026733
0.00994099
0.00348185
0.0135996
0.00413153
0.0185269
0.00426936
0.0159179
0.142421
-0.140812
0.0137371
0.144604
-0.142423
0.0115206
0.143027
-0.140811
0.00935338
0.140905
-0.138738
0.00734269
0.139123
-0.137112
0.00552972
0.138905
-0.137092
0.0038417
0.144846
-0.143158
0.00225605
0.170311
-0.168725
0.000859227
0.224076
-0.22268
0.288941
-0.288082
0.0188612
0.14419
0.0164006
0.147064
0.0138413
0.145587
0.0113124
0.143434
0.00897356
0.141461
0.00687318
0.141006
0.00498717
0.146732
0.00325529
0.172043
0.00151721
0.225815
0.290458
0.021777
0.14594
0.0190991
0.149742
0.016203
0.148483
0.0133091
0.146328
0.0106323
0.144138
0.00823191
0.143406
0.00613358
0.148831
0.00424483
0.173932
0.00217025
0.227889
0.292629
0.0246051
0.147342
0.0218007
0.152547
0.0185752
0.151708
0.0153225
0.149581
0.0123051
0.147156
0.00959555
0.146116
0.00727241
0.151154
0.00521968
0.175984
0.00281439
0.230294
0.295443
0.0272636
0.147829
0.0244987
0.155311
0.0209521
0.155255
0.0173418
0.153191
0.0139747
0.150523
0.0109438
0.149147
0.00838444
0.153713
0.0061611
0.178208
0.00343734
0.233018
0.29888
0.0295849
0.146625
0.0270799
0.157816
0.0232727
0.159062
0.0193458
0.157118
0.0156352
0.154233
0.0122768
0.152505
0.00947142
0.156518
0.00707529
0.180604
0.00404293
0.236051
0.302923
0.0314978
0.14276
0.0295854
0.159729
0.025578
0.163069
0.0213257
0.16137
0.0172526
0.158306
0.0135562
0.156201
0.0104952
0.159579
0.00792699
0.183172
0.00460807
0.239369
0.307531
0.032616
0.135641
0.0316306
0.160714
0.0277125
0.166987
0.0232601
0.165823
0.0188639
0.162703
0.0148339
0.160231
0.0115012
0.162912
0.00874713
0.185926
0.00515269
0.242964
0.312684
0.0333739
0.124605
0.0336547
0.160433
0.0298433
0.170799
0.0250938
0.170572
0.0203368
0.16746
0.0159678
0.1646
0.012374
0.166506
0.00945657
0.188844
0.00562862
0.246792
0.318313
0.0324274
0.110704
0.0347958
0.158065
0.0318264
0.173768
0.0270597
0.175339
0.0220394
0.17248
0.0173067
0.169333
0.0133848
0.170428
0.010207
0.192021
0.0061637
0.250835
0.324476
0.0318602
0.0967271
-0.0178831
0.0339415
0.155984
0.0300015
0.177708
0.0238132
0.181527
0.0174556
0.178837
0.0118976
0.174891
0.00702504
0.1753
0.00293609
0.19611
0.000466063
0.253305
0.324942
0.0252249
0.0915285
-0.0200263
0.0277501
0.153458
0.0253622
0.180096
0.0211133
0.185776
0.0163598
0.183591
0.0114199
0.179831
0.00615087
0.180569
0.00162477
0.200636
-0.000375416
0.255305
0.324567
0.0195549
0.0919459
-0.0199724
0.0204529
0.15256
0.0170838
0.183465
0.0118313
0.191029
0.00675071
0.188672
0.00232458
0.184257
-0.00163662
0.18453
-0.00402096
0.203021
-0.00309108
0.254375
0.321476
0.0113816
0.0954377
-0.0148734
0.0129439
0.150998
0.0132737
0.183136
0.010811
0.193491
0.00653119
0.192952
0.00114995
0.189638
-0.0043484
0.190029
-0.00769522
0.206368
-0.00547668
0.252157
0.315999
0.00397492
0.100031
-0.00856789
0.00301445
0.151959
0.00172014
0.18443
-0.000335096
0.195546
-0.00350685
0.196123
-0.007849
0.19398
-0.0126558
0.194836
-0.0150301
0.208742
-0.0104218
0.247549
0.305577
-0.0015035
0.103
-0.00146551
0.000638474
0.149817
0.00211575
0.182953
0.000905944
0.196756
-0.00307451
0.200104
-0.00892368
0.19983
-0.0152551
0.201167
-0.0188447
0.212332
-0.0141749
0.242879
0.291403
-0.00741151
0.109218
0.00119287
-0.00844518
0.15085
-0.00818901
0.182696
-0.00745866
0.196026
-0.00878168
0.201427
-0.0126949
0.203743
-0.0180385
0.206511
-0.0213391
0.215632
-0.0166377
0.238177
0.274765
-0.0042955
0.112902
0.000611932
-0.00223919
0.148794
-0.00278731
0.183245
-0.00508042
0.198319
-0.00769425
0.204041
-0.0110837
0.207132
-0.0152622
0.210689
-0.0180642
0.218434
-0.014578
0.234691
0.260187
-0.00925204
0.124451
-0.00229719
-0.00922962
0.148772
-0.00579875
0.179814
-0.00543293
0.197953
-0.00727951
0.205887
-0.0101642
0.210017
-0.013381
0.213906
-0.0152735
0.220327
-0.0122307
0.231648
0.247956
0.0048226
-0.0130848
-0.00100353
-0.00133349
-0.00121979
-0.00213428
-0.00390056
-0.00600339
-0.00743538
-0.00614802
0.0143838
-0.0206606
-0.0116063
0.01724
-0.0228825
0.0191525
-0.0218848
0.0205044
-0.0162252
0.0215982
-0.00966173
0.0231765
-0.00304378
0.0252214
-0.000852068
0.0274488
-0.00161546
0.0303798
-0.00522818
-0.0139691
0.0131614
-0.0244714
-0.00935059
0.0169283
-0.0266494
0.0191352
-0.0240918
0.0204955
-0.0175855
0.0215148
-0.010681
0.0230386
-0.00456758
0.0248532
-0.00266665
0.026848
-0.00361033
0.028809
-0.00718918
-0.0138993
0.0144139
-0.0294957
-0.00938958
0.0181772
-0.0304127
0.0200443
-0.0259588
0.0210132
-0.0185545
0.0217265
-0.0113943
0.0229518
-0.00579284
0.0243422
-0.00405713
0.0257364
-0.00500447
0.0265544
-0.00800722
-0.0129919
0.0168331
-0.0350689
-0.01126
0.0200345
-0.033614
0.0212464
-0.0271708
0.0216369
-0.018945
0.0218995
-0.0116569
0.0226332
-0.00652654
0.0233936
-0.00481757
0.0239417
-0.00555256
0.0236305
-0.007696
-0.0114507
0.019363
-0.0403318
-0.0141002
0.0215835
-0.0358344
0.0220113
-0.0275986
0.0217966
-0.0187303
0.0215666
-0.0114269
0.0217035
-0.00666347
0.0217234
-0.00483747
0.0213587
-0.00518782
0.0201253
-0.00646267
-0.0095248
0.0210618
-0.0444754
-0.0169183
0.0220952
-0.0368678
0.0217588
-0.0272622
0.0210178
-0.0179893
0.0203375
-0.0107466
0.0198791
-0.00620509
0.0191808
-0.0041392
0.0180256
-0.00403253
0.0161992
-0.00463636
-0.0074687
0.0212682
-0.0469771
-0.0187665
0.0211426
-0.0367422
0.0201812
-0.0263008
0.0190542
-0.0168622
0.0180241
-0.00971643
0.0170658
-0.0052468
0.0157981
-0.00287149
0.0141156
-0.00235009
0.0120646
-0.00258538
-0.00550469
0.0197028
-0.047728
-0.018952
0.0186348
-0.0356741
0.0172634
-0.0249295
0.0159154
-0.0155142
0.0146684
-0.00846938
0.0133736
-0.00395201
0.0117722
-0.00127006
0.00989118
-0.000469111
0.0079475
-0.000641693
-0.00379697
0.0164791
-0.0469813
-0.0172258
0.0147815
-0.0339764
0.0132328
-0.0233808
0.011823
-0.0141044
0.0105019
-0.00714837
0.00907041
-0.00252047
0.00740281
0.000397538
0.00564241
0.00129129
0.00404405
0.000956657
-0.00244474
0.012019
-0.0451747
-0.0138256
0.00999781
-0.0319553
0.00846964
-0.0218526
0.00713417
-0.0127689
0.00587093
-0.00588513
0.00450525
-0.0011548
0.00302345
0.00187934
0.00163034
0.0026844
0.000468163
0.00211883
-0.00151208
0.00688742
-0.0427458
-0.00931631
0.00480516
-0.029873
0.0034084
-0.0204559
0.00225014
-0.0116107
0.00115651
-0.0047915
5.93251e-05
-5.76139e-05
-0.00108649
0.00302516
-0.00199566
0.00359358
-0.00260673
0.0027299
-0.000907154
0.00158311
-0.0400064
-0.00432253
-0.000276855
-0.0280131
-0.00156415
-0.0191686
-0.00247717
-0.0106976
-0.00330664
-0.00396203
-0.00408063
0.000716383
-0.00472534
0.00366986
-0.00513178
0.00400002
-0.00527237
0.00287049
-0.0005898
-0.00342593
-0.0372017
0.000621307
-0.00511879
-0.0263202
-0.00610572
-0.0181817
-0.0067662
-0.0100372
-0.00727069
-0.00345754
-0.00763191
0.0010776
-0.00779902
0.00383697
-0.00775409
0.0039551
-0.00755395
0.00267034
-0.000479552
-0.00781189
-0.0345418
0.00515197
-0.0092501
-0.024882
-0.0100255
-0.0174062
-0.0104036
-0.00965907
-0.0105841
-0.0032771
-0.0105508
0.00104437
-0.0103085
0.00359467
-0.00992888
0.00357545
-0.00952078
0.00226224
-0.000493275
-0.0114608
-0.0321197
0.00903874
-0.0126066
-0.0237362
-0.0132096
-0.0168033
-0.0133234
-0.00954527
-0.0132151
-0.00338534
-0.012862
0.000691205
-0.012325
0.0030577
-0.0117472
0.00299768
-0.0112512
0.0017662
-0.000560328
-0.0143145
-0.029976
0.0121708
-0.0151872
-0.0228635
-0.0156474
-0.0163431
-0.0155499
-0.00964278
-0.0152151
-0.00372018
-0.0146529
0.000129021
-0.0139511
0.00235594
-0.0133031
0.0023497
-0.0128138
0.00127682
-0.000625376
-0.0164106
-0.0280901
0.0145247
-0.0170594
-0.0222148
-0.0173984
-0.0160041
-0.0171681
-0.00987307
-0.0166823
-0.00420592
-0.0160402
-0.000513124
-0.0152912
0.00160699
-0.014676
0.00173446
-0.0142611
0.000861939
-0.000645994
-0.0178208
-0.0264128
0.0161436
-0.0183229
-0.0217127
-0.0185602
-0.0157668
-0.0182935
-0.0101397
-0.0177384
-0.00476101
-0.0171283
-0.00112321
-0.01643
0.000908632
-0.0159236
0.0012281
-0.0156298
0.000568097
-0.000588314
-0.0186203
-0.0249292
0.0171367
-0.0190882
-0.0212449
-0.0192415
-0.0156134
-0.019032
-0.0103492
-0.0184958
-0.0052972
-0.0179952
-0.00162381
-0.0174276
0.000340965
-0.0170837
0.000884186
-0.0169433
0.000427767
-0.000422976
-0.0188852
-0.0237589
0.0177149
-0.0194195
-0.0207106
-0.01948
-0.0155529
-0.0194028
-0.0104263
-0.0189728
-0.00572728
-0.0186735
-0.0019231
-0.018312
-2.05614e-05
-0.0181768
0.000749073
-0.0182113
0.000462182
-0.000117337
-0.0785879
-0.0204432
0.0752722
-0.0835014
-0.0157971
-0.0859829
-0.0130714
-0.0872085
-0.00920072
-0.0862974
-0.00663836
-0.0851704
-0.00305013
-0.0832944
-0.00189654
-0.0820253
-0.000520057
-0.0810912
-0.00047194
-8.20951e-05
-0.100002
-0.0173288
0.0968879
-0.102184
-0.0136159
-0.103535
-0.0117204
-0.104333
-0.00840231
-0.104408
-0.00656383
-0.103974
-0.00348345
-0.103137
-0.00273414
-0.102586
-0.00107107
-0.102153
-0.000905014
1.28555e-05
-0.118943
-0.0148545
0.116469
-0.120867
-0.0116916
-0.122293
-0.0102947
-0.123261
-0.00743388
-0.123881
-0.00594393
-0.12383
-0.00353528
-0.123739
-0.00282462
-0.123493
-0.00131751
-0.123416
-0.000981454
3.48678e-05
-0.140192
-0.0131356
0.138473
-0.141864
-0.0100195
-0.143432
-0.00872659
-0.144507
-0.00635902
-0.145284
-0.00516669
-0.14551
-0.00330898
-0.145676
-0.00265947
-0.145594
-0.00139945
-0.14562
-0.000954888
-2.87425e-05
-0.165305
-0.0110543
0.163223
-0.16684
-0.00848407
-0.168232
-0.00733514
-0.16926
-0.0053307
-0.170044
-0.00438297
-0.170386
-0.00296702
-0.170618
-0.00242681
-0.170601
-0.00141695
-0.170598
-0.000957631
-6.10239e-05
-0.195048
-0.00918193
0.193175
-0.196665
-0.00686647
-0.198068
-0.00593271
-0.199091
-0.00430747
-0.199838
-0.00363571
-0.200309
-0.00249659
-0.200624
-0.00211138
-0.200784
-0.00125741
-0.200911
-0.000830468
-4.49614e-05
-0.232327
-0.00709382
0.230239
-0.234232
-0.00496194
-0.235788
-0.00437702
-0.2369
-0.00319542
-0.237765
-0.00277019
-0.238399
-0.0018623
-0.238933
-0.00157768
-0.23935
-0.000840234
-0.239652
-0.000529154
2.76628e-05
-0.279057
-0.00440613
0.276369
-0.280455
-0.00356399
-0.281798
-0.0030336
-0.282935
-0.00205853
-0.283964
-0.00174156
-0.284756
-0.00106973
-0.285512
-0.000822089
-0.286127
-0.000224834
-0.286588
-6.78627e-05
0.000136509
-0.322023
-0.00216337
0.319781
-0.324456
-0.00113129
-0.326503
-0.00098712
-0.327825
-0.000736396
-0.328871
-0.00069498
-0.32954
-0.000401122
-0.330145
-0.000216734
-0.330494
0.000123388
-0.330727
0.000165386
0.000139907
-0.352255
0.350091
-0.353386
-0.354373
-0.35511
-0.355805
-0.356206
-0.356422
-0.356299
-0.356134
-0.021274
0.0774661
0.0190801
-0.0223381
0.097952
-0.0227432
0.116874
-0.0226422
0.138372
-0.0219443
0.162526
-0.0205905
0.191822
-0.0184259
0.228075
-0.0139075
0.27185
-0.00832143
0.314195
0.34177
-0.0201605
0.0788728
0.0187538
-0.0210052
0.0987967
-0.0212917
0.11716
-0.021056
0.138136
-0.0202487
0.161718
-0.0188251
0.190398
-0.0165393
0.225789
-0.0125534
0.267865
-0.00722996
0.308871
0.33454
-0.0191101
0.0800176
0.0179653
-0.019803
0.0994895
-0.0199688
0.117326
-0.0196682
0.137836
-0.0188335
0.160884
-0.0174478
0.189012
-0.0152315
0.223572
-0.0116183
0.264251
-0.00652195
0.303775
0.328018
-0.0178969
0.0810544
0.0168602
-0.018471
0.100064
-0.0185064
0.117362
-0.0181261
0.137455
-0.0172656
0.160023
-0.0159172
0.187664
-0.0138101
0.221465
-0.0105275
0.260969
-0.00578111
0.299028
0.322237
-0.0165223
0.0820456
0.0155311
-0.0170041
0.100545
-0.0169317
0.117289
-0.0164847
0.137008
-0.0156072
0.159146
-0.0142992
0.186356
-0.0123231
0.219489
-0.00934202
0.257988
-0.00507032
0.294757
0.317167
-0.014991
0.0830009
0.0140356
-0.0153861
0.100941
-0.0152267
0.11713
-0.0147349
0.136516
-0.0138569
0.158268
-0.0126043
0.185103
-0.0107794
0.217664
-0.00810583
0.255314
-0.00438167
0.291033
0.312785
-0.0133307
0.0839153
0.0124162
-0.0136417
0.101252
-0.0134037
0.116892
-0.0128801
0.135993
-0.0120143
0.157402
-0.0108336
0.183922
-0.00918081
0.216012
-0.00683936
0.252973
-0.00368702
0.28788
0.309098
-0.0115758
0.0847811
0.01071
-0.0118106
0.101486
-0.0114986
0.11658
-0.0109481
0.135442
-0.0100999
0.156554
-0.00900223
0.182825
-0.00753862
0.214548
-0.00555329
0.250988
-0.00297838
0.285305
0.30612
-0.00976155
0.0855884
0.0089543
-0.0099304
0.101655
-0.00954756
0.116197
-0.00897435
0.134869
-0.0081439
0.155723
-0.00713609
0.181817
-0.00587136
0.213283
-0.00425588
0.249372
-0.00225851
0.283308
0.303861
-0.00792444
0.0863232
0.00718966
-0.0080358
0.101767
-0.007581
0.115742
-0.00699247
0.134281
-0.00617376
0.154904
-0.00526349
0.180907
-0.00420029
0.21222
-0.00296084
0.248133
-0.00153867
0.281886
0.302322
-0.00610914
0.0869673
0.00546502
-0.00616754
0.101825
-0.00563843
0.115213
-0.00504094
0.133683
-0.00422948
0.154093
-0.00341465
0.180092
-0.0025455
0.211351
-0.0016822
0.247269
-0.000826346
0.28103
0.301496
-0.00434186
0.0874948
0.00381429
-0.00435394
0.101837
-0.00376613
0.114625
-0.00313795
0.133055
-0.0023551
0.15331
-0.00161216
0.179349
-0.0009435
0.210682
-0.000430845
0.246757
-0.000129905
0.280729
0.301366
-0.00266561
0.0878757
0.00228477
-0.00264395
0.101815
-0.00201759
0.113999
-0.00134231
0.13238
-0.000613535
0.152581
5.72312e-05
0.178678
0.000587315
0.210152
0.000777915
0.246566
0.000547208
0.28096
0.301913
-0.0011128
0.0880836
0.000904884
-0.00107999
0.101783
-0.000446698
0.113366
0.000300869
0.131632
0.00107495
0.151807
0.00173094
0.178022
0.00207577
0.209807
0.00193339
0.246708
0.00119015
0.281703
0.303103
0.000290683
0.0881003
-0.000307338
0.00032783
0.101746
0.00107793
0.112615
0.00189916
0.130811
0.00266689
0.15104
0.00326693
0.177422
0.00347347
0.209601
0.00303756
0.247144
0.00181209
0.282928
0.304916
0.00152601
0.0878577
-0.00128348
0.00167783
0.101594
0.00244823
0.111845
0.00331058
0.129949
0.0040844
0.150266
0.00465142
0.176855
0.00473877
0.209513
0.00404239
0.247841
0.00237572
0.284595
0.307291
0.00258286
0.0873356
-0.00206072
0.00284964
0.101327
0.00364465
0.11105
0.004566
0.129027
0.00535945
0.149472
0.00591893
0.176296
0.00592058
0.209512
0.00499905
0.248762
0.00292432
0.28667
0.310216
0.00341093
0.0865553
-0.00263066
0.00380915
0.100929
0.00461633
0.110243
0.00559137
0.128052
0.00640001
0.148664
0.00695645
0.175739
0.00689456
0.209574
0.00579675
0.24986
0.00337645
0.28909
0.313592
0.00416715
0.0854392
-0.00305103
0.00474147
0.100354
0.00553724
0.109447
0.00656287
0.127027
0.00739322
0.147833
0.00796223
0.17517
0.00785506
0.209681
0.00659365
0.251121
0.00384375
0.29184
0.317436
0.004439
0.0842267
-0.00322653
0.00512489
0.0996685
0.00593603
0.108636
0.00700294
0.12596
0.00784732
0.146989
0.00844121
0.174576
0.00833789
0.209784
0.00703109
0.252428
0.00408988
0.294781
0.321526
-0.0663269
0.0785067
0.0720469
-0.0600601
0.0934016
-0.0529048
0.101481
-0.046553
0.119608
-0.040235
0.140671
-0.0337551
0.168096
-0.0266755
0.202705
-0.0187119
0.244465
-0.00957744
0.285647
0.311948
-0.0838689
0.0720466
0.0903291
-0.0751353
0.0846679
-0.0654816
0.091827
-0.0577084
0.111835
-0.0505959
0.133558
-0.04267
0.160171
-0.0341691
0.194204
-0.0243933
0.234689
-0.0130709
0.274324
0.298877
-0.100851
0.0641406
0.108757
-0.089249
0.0730656
-0.078849
0.0814271
-0.0706666
0.103652
-0.0622529
0.125145
-0.052358
0.150276
-0.0419815
0.183827
-0.0296696
0.222377
-0.0151323
0.259787
0.283745
-0.117417
0.0557601
0.125797
-0.105286
0.0609349
-0.0959957
0.0721368
-0.0870744
0.0947308
-0.0771823
0.115253
-0.0659558
0.139049
-0.0534228
0.171294
-0.0383478
0.207302
-0.0205831
0.242022
0.263162
-0.135292
0.046348
0.144705
-0.124784
0.0504267
-0.11641
0.0637625
-0.106099
0.0844202
-0.0944449
0.103598
-0.0814883
0.126093
-0.0654572
0.155263
-0.046388
0.188233
-0.0236083
0.219243
0.239554
-0.161236
0.0375765
0.170007
-0.152624
0.0418145
-0.14405
0.0551891
-0.132494
0.0728642
-0.118913
0.0900171
-0.103222
0.110401
-0.0829068
0.134948
-0.0593897
0.164716
-0.032024
0.191877
0.20753
-0.195539
0.0279636
0.205152
-0.187203
0.0334778
-0.176802
0.0447883
-0.162856
0.0589186
-0.145654
0.072815
-0.125279
0.0900265
-0.0995585
0.109227
-0.0695781
0.134735
-0.0346542
0.156953
0.172875
-0.24142
0.0194337
0.24995
-0.231783
0.0238411
-0.21907
0.0320747
-0.202265
0.0421139
-0.181377
0.0519271
-0.15604
0.0646898
-0.124935
0.0781217
-0.0882568
0.0980573
-0.0474897
0.116186
0.125386
-0.281328
0.00926732
0.291494
-0.269229
0.0117425
-0.253073
0.0159184
-0.231984
0.0210257
-0.206225
0.0261675
-0.174643
0.0331079
-0.136613
0.040092
-0.0898385
0.0512825
-0.0369054
0.0632529
0.0884802
-0.35107
0.360337
-0.339327
-0.323409
-0.302383
-0.276216
-0.243108
-0.203016
-0.151733
-0.0884802
-0.000744161
0.0746864
-0.00189531
-0.00293439
0.0925193
-0.00448013
0.110303
-0.00565558
0.126973
-0.00667764
0.145727
-0.00762622
0.170956
-0.00793331
0.205459
-0.00675142
0.248768
-0.00511135
0.289854
0.355226
-0.000805829
0.0768896
-0.00139739
-0.00295902
0.0946725
-0.00450904
0.111853
-0.00572407
0.128188
-0.00684148
0.146844
-0.0078377
0.171952
-0.00815864
0.20578
-0.00697372
0.247583
-0.00465235
0.287532
0.350573
-0.000948266
0.0784967
-0.000658861
-0.00279812
0.0965223
-0.00420724
0.113262
-0.00539311
0.129374
-0.00657164
0.148023
-0.00757054
0.172951
-0.00788638
0.206096
-0.00669262
0.246389
-0.00439766
0.285238
0.346176
-0.00132551
0.0796314
0.000190802
-0.00280462
0.0980014
-0.00395089
0.114409
-0.00503952
0.130462
-0.00617621
0.149159
-0.00715312
0.173928
-0.00742617
0.206369
-0.00625538
0.245218
-0.00406334
0.283045
0.342112
-0.00192717
0.0803777
0.0011809
-0.00304331
0.0991176
-0.00395006
0.115315
-0.00488447
0.131397
-0.00591166
0.150187
-0.00677895
0.174795
-0.00695595
0.206546
-0.00577636
0.244039
-0.00369013
0.280959
0.338422
-0.0027052
0.0806959
0.00238703
-0.00349126
0.0999036
-0.00416464
0.115989
-0.0049035
0.132135
-0.00578129
0.151064
-0.00647398
0.175488
-0.00650051
0.206573
-0.00528737
0.242826
-0.00329351
0.278965
0.335129
-0.00366461
0.0806388
0.00372165
-0.00415888
0.100398
-0.00452594
0.116356
-0.00504991
0.132659
-0.00571578
0.15173
-0.00619761
0.17597
-0.0060339
0.206409
-0.00477556
0.241567
-0.00287189
0.277062
0.332257
-0.00481479
0.0803073
0.0051463
-0.0050194
0.100603
-0.00503172
0.116368
-0.0052976
0.132925
-0.00568944
0.152122
-0.00592116
0.176201
-0.00554236
0.20603
-0.00422648
0.240251
-0.00242131
0.275257
0.329835
-0.00613868
0.0797971
0.00664888
-0.00604177
0.100506
-0.00568309
0.116009
-0.00564203
0.132884
-0.00571255
0.152193
-0.00564742
0.176136
-0.00503423
0.205417
-0.00364039
0.238858
-0.0019427
0.273559
0.327893
-0.00758245
0.0791621
0.00821745
-0.00718952
0.100113
-0.00644401
0.115264
-0.00606651
0.132507
-0.00578559
0.151912
-0.00538492
0.175736
-0.00452609
0.204558
-0.00303155
0.237363
-0.00144438
0.271972
0.326448
-0.00904931
0.0783844
0.00982702
-0.00840166
0.099465
-0.0072536
0.114116
-0.00654688
0.1318
-0.00589613
0.151261
-0.0051403
0.17498
-0.00403509
0.203453
-0.0024187
0.235747
-0.000933773
0.270487
0.325515
-0.0105386
0.0775059
0.0114172
-0.00960615
0.0985325
-0.00810127
0.112611
-0.00706571
0.130764
-0.00601958
0.150215
-0.00492206
0.173882
-0.00355958
0.202091
-0.00181155
0.233999
-0.000418176
0.269093
0.325096
-0.0119764
0.0765703
0.012912
-0.0107593
0.0973154
-0.00895184
0.110803
-0.00759591
0.129409
-0.00617658
0.148795
-0.00473621
0.172442
-0.00310065
0.200455
-0.00122278
0.232121
7.7483e-05
0.267793
0.325174
-0.0132491
0.0756096
0.0142098
-0.0117736
0.0958399
-0.00974081
0.108771
-0.00809499
0.127763
-0.00634321
0.147044
-0.00457982
0.170679
-0.00265522
0.19853
-0.000676132
0.230142
0.000581366
0.266536
0.325755
-0.0142584
0.0746603
0.0152077
-0.012571
0.0941525
-0.0104057
0.106605
-0.00851539
0.125872
-0.00648583
0.145014
-0.00443245
0.168625
-0.00222425
0.196322
-0.000177015
0.228094
0.00108869
0.26527
0.326844
-0.014933
0.0737724
0.0158209
-0.0130992
0.0923188
-0.010901
0.104407
-0.00882855
0.1238
-0.00659244
0.142778
-0.00430177
0.166334
-0.00184439
0.193865
0.000289133
0.225961
0.00157071
0.263988
0.328415
-0.0152181
0.0730089
0.0159816
-0.0133118
0.0904125
-0.0111688
0.102264
-0.00897847
0.12161
-0.00660286
0.140402
-0.00412351
0.163855
-0.00145417
0.191196
0.000854432
0.223652
0.00206377
0.262779
0.330478
-0.0151284
0.072464
0.0156733
-0.0132359
0.08852
-0.0112378
0.100266
-0.00901882
0.119391
-0.00658947
0.137973
-0.00399541
0.161261
-0.00117827
0.188378
0.00128309
0.221191
0.00248444
0.261578
0.332963
-0.0145588
0.0721739
0.0148489
-0.0127488
0.0867099
-0.0109311
0.0984482
-0.00873902
0.117199
-0.00630788
0.135542
-0.00365012
0.158603
-0.000752659
0.185481
0.0018247
0.218614
0.00295227
0.26045
0.335915
-0.0139933
0.072553
0.0136142
-0.0123722
0.0850888
-0.0108211
0.096897
-0.00876418
0.115142
-0.00639969
0.133177
-0.00372169
0.155925
-0.000717351
0.182477
0.00200686
0.215889
0.00319074
0.259266
0.339106
-0.136077
0.0684843
0.140146
-0.127486
0.0764974
-0.11906
0.0884719
-0.107
0.103081
-0.0919119
0.118089
-0.0736725
0.137686
-0.0522644
0.161068
-0.0296851
0.19331
-0.0105047
0.240086
0.328601
-0.136372
0.063826
0.141031
-0.126526
0.0666514
-0.11728
0.0792256
-0.103115
0.0889161
-0.0874291
0.102403
-0.0684955
0.118752
-0.0473144
0.139887
-0.025829
0.171825
-0.00870933
0.222966
0.319892
-0.131661
0.0562575
0.139229
-0.1214
0.0563904
-0.11086
0.0686857
-0.095424
0.0734802
-0.0798822
0.0868617
-0.0610813
0.0999513
-0.0414368
0.120243
-0.022207
0.152595
-0.00733074
0.20809
0.312561
-0.127108
0.0468315
0.136534
-0.116675
0.0459573
-0.104745
0.056756
-0.089104
0.0578393
-0.0738292
0.071587
-0.055551
0.0816731
-0.0373514
0.102043
-0.019947
0.13519
-0.00676624
0.194909
0.305795
-0.124048
0.0363786
0.134501
-0.113807
0.0357171
-0.100911
0.0438601
-0.0863115
0.0432393
-0.0712697
0.0565452
-0.0540516
0.064455
-0.0372801
0.0852719
-0.0211939
0.119104
-0.00819626
0.181911
0.297599
-0.123569
0.0271822
0.132766
-0.113519
0.0256664
-0.100815
0.0311565
-0.0880134
0.0304377
-0.073435
0.0419668
-0.0577513
0.0487713
-0.0420995
0.06962
-0.0262902
0.103295
-0.011841
0.167462
0.285758
-0.127302
0.0175898
0.136894
-0.118431
0.0167955
-0.107335
0.0200607
-0.0971923
0.0202949
-0.0842581
0.0290326
-0.0712986
0.0358118
-0.0571093
0.0554307
-0.0407575
0.0869432
-0.0214601
0.148165
0.264298
-0.150495
0.00948045
0.158604
-0.14211
0.00841031
-0.132318
0.0102684
-0.123483
0.0114604
-0.112165
0.0177141
-0.101021
0.024668
-0.0868927
0.0413027
-0.0681368
0.0681872
-0.0407248
0.120753
0.223573
-0.216019
0.00265465
0.222845
-0.210112
0.00250243
-0.203378
0.00353499
-0.196891
0.00497353
-0.187573
0.00839608
-0.176421
0.0135156
-0.158652
0.023534
-0.130792
0.0403269
-0.0824359
0.0723972
0.141137
-0.310317
0.312972
-0.307815
-0.30428
-0.299307
-0.29091
-0.277395
-0.253861
-0.213534
-0.141137
-0.0112289
0.139141
0.0122333
-0.00945338
0.139255
-0.00782226
0.137598
-0.00645577
0.135167
-0.00537069
0.133415
-0.00476437
0.132159
-0.00460965
0.136739
-0.00531133
0.159306
-0.00481406
0.222348
0.308158
-0.00950121
0.138708
0.0099348
-0.00810561
0.137859
-0.00676771
0.13626
-0.00564428
0.134044
-0.00477545
0.132547
-0.00430895
0.131693
-0.00430335
0.136734
-0.00504452
0.160047
-0.00432262
0.221626
0.303835
-0.00670547
0.138096
0.00731682
-0.00583116
0.136985
-0.00499715
0.135426
-0.00429589
0.133342
-0.00376886
0.13202
-0.00354794
0.131472
-0.00372815
0.136914
-0.00449305
0.160812
-0.0039152
0.221048
0.29992
-0.0038669
0.13748
0.00448357
-0.00345458
0.136573
-0.00309575
0.135068
-0.00281753
0.133064
-0.00262631
0.131828
-0.00267647
0.131522
-0.00303398
0.137272
-0.00386073
0.161639
-0.00344365
0.220631
0.296477
-0.00128698
0.137222
0.00154495
-0.00129767
0.136584
-0.00129782
0.135068
-0.00135511
0.133121
-0.00144693
0.13192
-0.00173991
0.131815
-0.00225569
0.137787
-0.0031585
0.162542
-0.00291971
0.220392
0.293557
0.00146563
0.137307
-0.00155098
0.00101674
0.137032
0.000607341
0.135477
0.000147094
0.133582
-0.000235459
0.132303
-0.000746594
0.132326
-0.0014006
0.138441
-0.00239151
0.163533
-0.00235466
0.220355
0.291202
0.00430998
0.137705
-0.00470758
0.00349391
0.137848
0.00271173
0.136259
0.00194354
0.13435
0.00121631
0.13303
0.000369239
0.133173
-0.000467318
0.139278
-0.00156717
0.164632
-0.00175519
0.220543
0.289447
0.00718145
0.138425
-0.00790192
0.0060018
0.139028
0.00484526
0.137416
0.00373132
0.135464
0.00269221
0.134069
0.00163358
0.134232
0.000544344
0.140367
-0.000700794
0.165878
-0.00112357
0.220966
0.288323
0.0100809
0.139465
-0.0111206
0.00855098
0.140558
0.00702966
0.138937
0.00556733
0.136926
0.00420967
0.135427
0.00290457
0.135537
0.0016066
0.141665
0.000217002
0.167267
-0.000458249
0.221642
0.287865
0.0129969
-0.0143436
0.0111322
0.00925867
0.00744671
0.00576153
0.00420621
0.00271309
0.00125487
0.000216767
-7.58428e-05
-0.000378833
5.65289e-05
-0.000607688
0.000457893
-0.000531975
0.0011584
-0.000281832
0.00217618
7.78608e-05
0.00352492
0.000510135
0.00521262
0.000985598
0.00722268
0.0014718
0.00944675
0.00190746
0.0021098
-6.32389e-05
-0.000315594
7.43636e-05
-0.00074529
0.000452036
-0.000909648
0.00107778
-0.000907574
0.0019474
-0.000791759
0.00305172
-0.000594191
0.00437609
-0.000338766
0.00589654
-4.86561e-05
0.00757456
0.000229445
0.000333769
-1.52445e-05
-0.000300349
0.000197678
-0.000958214
0.000661667
-0.00137364
0.00136562
-0.00161153
0.00228845
-0.00171459
0.00340683
-0.00171257
0.00469858
-0.00163051
0.00614493
-0.00149501
0.0077283
-0.00135392
-0.00132752
6.01756e-05
-0.000360525
0.00041255
-0.00131059
0.00105847
-0.00201956
0.00197256
-0.00252561
0.00312066
-0.00286269
0.00446797
-0.00305988
0.00598349
-0.00314603
0.00764187
-0.0031534
0.00942123
-0.00313327
-0.0031663
0.000157216
-0.00051774
0.000693822
-0.00184719
0.00158734
-0.00291308
0.00279704
-0.00373532
0.0042749
-0.00434055
0.00597281
-0.00475779
0.00784691
-0.00502013
0.00985766
-0.00516415
0.0119641
-0.00523973
-0.00530234
0.000266719
-0.000784459
0.00100946
-0.00258994
0.00217699
-0.00408061
0.00370696
-0.00526529
0.00553194
-0.00616553
0.0075861
-0.00681195
0.00980923
-0.00724326
0.0121461
-0.00750107
0.0145388
-0.00763236
-0.00768181
0.000378244
-0.0011627
0.00132505
-0.00353674
0.00275086
-0.00550642
0.00456167
-0.0070761
0.00666264
-0.0082665
0.00896555
-0.00911485
0.011393
-0.00967072
0.0138782
-0.00998626
0.0163584
-0.0101126
-0.0100898
0.000482042
-0.00164475
0.00160694
-0.00466164
0.00323484
-0.00713432
0.0052289
-0.00907016
0.00746001
-0.0104976
0.00981626
-0.0114711
0.0122071
-0.0120616
0.0145627
-0.0123418
0.0168282
-0.0123781
-0.0122136
0.000568886
-0.00221363
0.00182374
-0.0059165
0.00356273
-0.00887331
0.00559823
-0.0111057
0.00776589
-0.0126653
0.00993579
-0.013641
0.0120149
-0.0141407
0.0139432
-0.0142701
0.0156859
-0.0141208
-0.0137535
0.000629911
-0.00284354
0.00194775
-0.00723434
0.00368229
-0.0106078
0.0055954
-0.0130188
0.00749614
-0.014566
0.00925077
-0.0153956
0.0107799
-0.0156698
0.0120488
-0.015539
0.0130547
-0.0151267
-0.0145244
0.00067449
-0.00351803
0.00198519
-0.00854504
0.00359472
-0.0122174
0.00522792
-0.014652
0.00668695
-0.016025
0.00785481
-0.0165635
0.0086833
-0.0164983
0.00917485
-0.0160306
0.00936493
-0.0153168
-0.0144757
0.00067145
-0.00418948
0.00188535
-0.00975894
0.00325149
-0.0135835
0.00447926
-0.0158797
0.00538671
-0.0169325
0.00589119
-0.017068
0.00598533
-0.0165925
0.00571005
-0.0157553
0.00513122
-0.014738
-0.013667
0.000627708
-0.00481719
0.00166566
-0.0107969
0.00269719
-0.0146151
0.0034441
-0.0166266
0.00376111
-0.0172495
0.00360962
-0.0169165
0.00302228
-0.0160051
0.00206961
-0.0148026
0.000832483
-0.0135009
-0.0122133
0.000543514
-0.0053607
0.00134009
-0.0115935