/*--------------------------------*- C++ -*----------------------------------*\
  =========                 |
  \\      /  F ield         | OpenFOAM: The Open Source CFD Toolbox
   \\    /   O peration     | Website:  https://openfoam.org
    \\  /    A nd           | Version:  7
     \\/     M anipulation  |
\*---------------------------------------------------------------------------*/
FoamFile
{
    version     2.0;
    format      ascii;
    class       volScalarField;
    location    "7.2";
    object      p;
}
// * * * * * * * * * * * * * * * * * * * * * * * * * * * * * * * * * * * * * //

dimensions      [0 2 -2 0 0 0 0];

internalField   nonuniform List<scalar> 
32000
(
0.352996
0.353477
0.353695
0.353874
0.354037
0.354208
0.354378
0.354548
0.354744
0.355
0.355344
0.355787
0.356333
0.356984
0.357747
0.358628
0.359637
0.360781
0.362068
0.363504
0.365092
0.366832
0.368716
0.370737
0.372884
0.375148
0.377519
0.379988
0.38254
0.385164
0.387845
0.390572
0.393332
0.396112
0.3989
0.401684
0.404455
0.407208
0.409919
0.412525
0.353159
0.353604
0.353793
0.353938
0.354073
0.354221
0.354369
0.354517
0.354694
0.35493
0.35525
0.355667
0.356187
0.356811
0.357546
0.358397
0.359371
0.360475
0.361718
0.363106
0.364643
0.366329
0.368155
0.370112
0.372189
0.374379
0.376673
0.379063
0.381537
0.384083
0.386686
0.389334
0.392015
0.394716
0.397425
0.400131
0.402825
0.405502
0.408132
0.410673
0.353329
0.353735
0.353895
0.35401
0.354118
0.354242
0.354368
0.354497
0.354658
0.354879
0.355179
0.355572
0.356067
0.356667
0.357376
0.358199
0.359142
0.360211
0.361414
0.36276
0.364251
0.365885
0.367655
0.36955
0.371559
0.373676
0.375895
0.378208
0.380604
0.383071
0.385595
0.388163
0.390763
0.393383
0.396009
0.398634
0.401247
0.403845
0.406392
0.408863
0.353496
0.353854
0.353991
0.354081
0.354165
0.354266
0.354374
0.354489
0.354638
0.354845
0.35513
0.355505
0.355978
0.356556
0.357241
0.358039
0.358955
0.359992
0.361161
0.362467
0.363916
0.365503
0.367218
0.369051
0.370993
0.37304
0.375186
0.377423
0.379742
0.382129
0.384573
0.387059
0.389576
0.392111
0.394653
0.397193
0.399724
0.402238
0.404699
0.407095
0.35367
0.353982
0.354097
0.354164
0.354226
0.354305
0.354396
0.3545
0.354639
0.354836
0.355108
0.355466
0.355921
0.356478
0.357143
0.357918
0.358808
0.359819
0.360956
0.362229
0.363638
0.365179
0.36684
0.368613
0.370491
0.37247
0.374544
0.376707
0.378949
0.381257
0.383618
0.386021
0.388454
0.390903
0.393358
0.39581
0.398254
0.400682
0.403052
0.40537
0.353847
0.35411
0.354202
0.354248
0.354291
0.354352
0.354428
0.354523
0.354656
0.354846
0.355107
0.355453
0.355893
0.356434
0.35708
0.357835
0.358704
0.359691
0.360802
0.362044
0.363417
0.364912
0.366522
0.368237
0.370053
0.371965
0.373971
0.376061
0.378225
0.380453
0.382732
0.385051
0.387397
0.389758
0.392124
0.394486
0.396841
0.399178
0.401454
0.403689
0.354027
0.35424
0.354313
0.35434
0.354366
0.354411
0.354475
0.354564
0.354692
0.354877
0.355131
0.355468
0.355898
0.356425
0.357054
0.357792
0.358643
0.359611
0.3607
0.361914
0.363252
0.364705
0.366264
0.367923
0.369679
0.371529
0.373466
0.375485
0.377573
0.37972
0.381916
0.384149
0.386407
0.388678
0.390953
0.393222
0.395483
0.397727
0.399904
0.402053
0.354208
0.354373
0.354427
0.354438
0.354449
0.354482
0.354537
0.35462
0.354746
0.354928
0.355179
0.355512
0.355934
0.35645
0.357066
0.35779
0.358626
0.359578
0.360649
0.361839
0.363143
0.364554
0.366065
0.367672
0.369371
0.371159
0.373031
0.374978
0.37699
0.379057
0.381169
0.383316
0.385485
0.387664
0.389845
0.392019
0.394183
0.396329
0.398405
0.400462
0.354388
0.354506
0.354543
0.35454
0.35454
0.354563
0.354612
0.354692
0.354816
0.354998
0.35525
0.355582
0.356
0.356508
0.357114
0.357827
0.358652
0.359593
0.360648
0.361816
0.363089
0.364461
0.365926
0.367483
0.369127
0.370857
0.372664
0.374541
0.376478
0.378465
0.380493
0.382553
0.384631
0.386717
0.388801
0.390877
0.392942
0.394986
0.396957
0.398918
0.354566
0.354636
0.354658
0.354644
0.354637
0.354654
0.354699
0.354776
0.354901
0.355086
0.355343
0.355677
0.356094
0.356598
0.357197
0.357903
0.358721
0.359653
0.360696
0.361843
0.363088
0.364423
0.365846
0.367355
0.368948
0.37062
0.372365
0.374173
0.376035
0.377942
0.379887
0.381859
0.383846
0.385836
0.387822
0.389797
0.391759
0.393699
0.395562
0.397423
0.354739
0.354762
0.354772
0.35475
0.354739
0.354753
0.354795
0.354872
0.355
0.355192
0.355456
0.355797
0.356215
0.356718
0.357315
0.358018
0.358833
0.359759
0.360791
0.36192
0.363138
0.36444
0.365824
0.367289
0.368832
0.370449
0.372132
0.373872
0.375661
0.377489
0.379351
0.381234
0.383128
0.385022
0.386908
0.388781
0.390637
0.39247
0.394221
0.395978
0.354907
0.354883
0.354883
0.354857
0.354844
0.354857
0.354898
0.354979
0.355113
0.355314
0.355588
0.355938
0.356362
0.356867
0.357466
0.35817
0.358984
0.359907
0.36093
0.362043
0.363238
0.36451
0.365858
0.367281
0.368778
0.370342
0.371965
0.373638
0.375353
0.377104
0.378882
0.380678
0.382479
0.384275
0.38606
0.387827
0.389577
0.391299
0.392938
0.394586
0.355068
0.354999
0.354989
0.354961
0.354949
0.354963
0.355008
0.355093
0.355236
0.355449
0.355737
0.356098
0.356531
0.357043
0.357648
0.358357
0.359174
0.360095
0.36111
0.362209
0.363384
0.36463
0.365946
0.367331
0.368783
0.370296
0.37186
0.373467
0.375111
0.376785
0.378481
0.380189
0.381896
0.383595
0.385277
0.386938
0.388578
0.390188
0.391712
0.393248
0.355222
0.355108
0.355092
0.355062
0.355053
0.355071
0.35512
0.355214
0.355369
0.355597
0.3559
0.356274
0.35672
0.357244
0.35786
0.358577
0.359398
0.360319
0.361328
0.362416
0.363574
0.364797
0.366084
0.367435
0.368845
0.370308
0.371814
0.373358
0.374932
0.376531
0.378146
0.379766
0.38138
0.38298
0.384559
0.386113
0.387642
0.389139
0.390547
0.391967
0.35537
0.355211
0.355188
0.355159
0.355154
0.355177
0.355235
0.35534
0.355509
0.355753
0.356073
0.356465
0.356927
0.357467
0.358098
0.358826
0.359654
0.360575
0.36158
0.362659
0.363804
0.365008
0.36627
0.367589
0.36896
0.370375
0.371826
0.373307
0.374814
0.376339
0.377874
0.379408
0.380929
0.382431
0.383907
0.385353
0.386771
0.388154
0.389445
0.390746
0.355509
0.355308
0.355279
0.35525
0.355249
0.35528
0.355349
0.355468
0.355654
0.355916
0.356255
0.356666
0.357149
0.35771
0.358358
0.359101
0.359937
0.360861
0.361864
0.362937
0.364071
0.36526
0.3665
0.36779
0.369123
0.370492
0.371891
0.373313
0.374755
0.376209
0.377665
0.379113
0.380543
0.381947
0.38332
0.384659
0.385965
0.387234
0.388409
0.389588
0.355641
0.355398
0.355362
0.355333
0.355338
0.355379
0.355461
0.355596
0.355801
0.356084
0.356444
0.356878
0.357384
0.357969
0.358639
0.359397
0.360243
0.361172
0.362176
0.363246
0.364373
0.365549
0.36677
0.368033
0.369331
0.370658
0.372006
0.373372
0.374752
0.376136
0.377515
0.378879
0.380218
0.381526
0.382798
0.384031
0.385227
0.386382
0.387441
0.388496
0.355763
0.35548
0.355437
0.355407
0.355418
0.355471
0.355569
0.355724
0.35595
0.356255
0.356638
0.357097
0.35763
0.358241
0.358935
0.359712
0.36057
0.361506
0.362513
0.363583
0.364705
0.365871
0.367076
0.368315
0.369581
0.370867
0.372169
0.373482
0.374801
0.376118
0.377422
0.378704
0.379955
0.381168
0.38234
0.383469
0.384555
0.385598
0.386543
0.387473
0.355876
0.355553
0.355503
0.355471
0.35549
0.355556
0.355673
0.355849
0.356099
0.356427
0.356835
0.357321
0.357884
0.358524
0.359243
0.36004
0.360914
0.36186
0.362873
0.363945
0.365064
0.366223
0.367414
0.368631
0.369867
0.371116
0.372374
0.373637
0.374898
0.37615
0.377382
0.378584
0.379749
0.380871
0.381946
0.382972
0.383952
0.384883
0.385717
0.38652
0.355977
0.355617
0.355558
0.355524
0.35555
0.355631
0.355769
0.35597
0.356245
0.356598
0.357034
0.35755
0.358144
0.358815
0.359561
0.36038
0.361271
0.362229
0.363251
0.364327
0.365447
0.3666
0.367779
0.368976
0.370186
0.371401
0.372618
0.373832
0.375038
0.376228
0.37739
0.378516
0.379599
0.380632
0.381613
0.382541
0.383416
0.384238
0.384964
0.38564
0.356065
0.355668
0.3556
0.355565
0.355599
0.355697
0.355857
0.356085
0.356386
0.356768
0.357232
0.35778
0.358407
0.359109
0.359884
0.360728
0.361638
0.362612
0.363644
0.364726
0.365847
0.366997
0.368166
0.369347
0.370532
0.371716
0.372895
0.374064
0.375217
0.376347
0.377443
0.378497
0.3795
0.380449
0.38134
0.382172
0.382946
0.383663
0.384284
0.384834
0.356138
0.355705
0.355628
0.355591
0.355634
0.35575
0.355935
0.35619
0.35652
0.356931
0.357428
0.358008
0.358669
0.359405
0.360209
0.361079
0.362011
0.363002
0.364047
0.365137
0.366261
0.367409
0.368571
0.369737
0.370901
0.372056
0.373199
0.374325
0.375429
0.376502
0.377536
0.378521
0.379449
0.380317
0.381123
0.381863
0.38254
0.383156
0.383677
0.384103
0.356191
0.355723
0.355638
0.3556
0.355654
0.355789
0.356
0.356285
0.356645
0.357088
0.357617
0.358232
0.358928
0.359697
0.360533
0.36143
0.362385
0.363395
0.364454
0.365554
0.366684
0.367832
0.368988
0.370142
0.371286
0.372414
0.373524
0.37461
0.375668
0.376688
0.377663
0.378583
0.379441
0.380233
0.380957
0.381612
0.382196
0.382714
0.383142
0.383446
0.356222
0.355722
0.355628
0.355592
0.355657
0.355813
0.356051
0.356366
0.356759
0.357234
0.357797
0.358448
0.35918
0.359984
0.360851
0.361777
0.362756
0.363786
0.364861
0.365972
0.367109
0.368259
0.369411
0.370555
0.371681
0.372786
0.373864
0.374913
0.375927
0.376898
0.377817
0.378676
0.379468
0.380189
0.380838
0.381411
0.381908
0.382336
0.382676
0.382862
0.356228
0.355697
0.355597
0.355563
0.355641
0.355819
0.356086
0.356432
0.356858
0.357366
0.357965
0.358652
0.359421
0.36026
0.36116
0.362115
0.363121
0.364172
0.365264
0.366387
0.367532
0.368686
0.369836
0.37097
0.372081
0.373163
0.374213
0.375227
0.3762
0.377125
0.377992
0.378793
0.379523
0.380178
0.380757
0.381255
0.381671
0.382015
0.382275
0.382348
0.356206
0.355647
0.355543
0.355512
0.355605
0.355807
0.356102
0.35648
0.35694
0.357484
0.358118
0.358843
0.359648
0.360523
0.361457
0.362442
0.363475
0.364548
0.365657
0.366794
0.367948
0.369106
0.370255
0.371382
0.372478
0.37354
0.374563
0.375544
0.376479
0.37736
0.378178
0.378926
0.379599
0.380192
0.380706
0.381136
0.381479
0.381744
0.381933
0.3819
0.356156
0.355571
0.355463
0.355438
0.355547
0.355773
0.356097
0.356508
0.357002
0.357583
0.358255
0.359017
0.35986
0.36077
0.361737
0.362754
0.363813
0.364909
0.366036
0.367187
0.368351
0.369514
0.370663
0.371783
0.372867
0.373909
0.374907
0.375858
0.376756
0.377595
0.378367
0.379065
0.379684
0.380222
0.380677
0.381045
0.381321
0.381517
0.381643
0.381512
0.356075
0.355467
0.355357
0.35534
0.355467
0.355717
0.35607
0.356513
0.357044
0.357662
0.358373
0.359173
0.360052
0.360998
0.361999
0.363046
0.364133
0.365252
0.366397
0.367562
0.368736
0.369905
0.371053
0.372168
0.373239
0.374263
0.375237
0.376159
0.377022
0.377822
0.37855
0.379201
0.37977
0.380257
0.380659
0.380972
0.381189
0.381324
0.381396
0.381177
0.355961
0.355333
0.355224
0.355217
0.355363
0.355637
0.356019
0.356495
0.357062
0.357719
0.358469
0.359307
0.360223
0.361204
0.362238
0.363316
0.36443
0.365571
0.366735
0.367913
0.369097
0.370271
0.37142
0.372528
0.373588
0.374595
0.375546
0.376439
0.37727
0.378031
0.378717
0.379323
0.379847
0.380287
0.380641
0.380905
0.38107
0.381153
0.381182
0.380885
0.355812
0.355167
0.355062
0.355068
0.355233
0.355532
0.355942
0.356451
0.357054
0.35775
0.35854
0.359416
0.360368
0.361384
0.36245
0.363559
0.364699
0.365863
0.367044
0.368236
0.369429
0.370608
0.371756
0.372858
0.373906
0.374896
0.375826
0.376691
0.377489
0.378213
0.378859
0.379423
0.379903
0.3803
0.380611
0.380832
0.380953
0.380992
0.380989
0.380627
0.355627
0.354969
0.35487
0.354891
0.355077
0.3554
0.355838
0.35638
0.357018
0.357754
0.358583
0.359498
0.360486
0.361535
0.362633
0.363771
0.364937
0.366122
0.367321
0.368526
0.369727
0.370909
0.372055
0.37315
0.374187
0.375161
0.376068
0.376906
0.377671
0.378358
0.378964
0.379487
0.379927
0.380283
0.380555
0.380739
0.380824
0.380828
0.380804
0.380392
0.355403
0.354736
0.354646
0.354684
0.354892
0.35524
0.355706
0.356279
0.356953
0.357727
0.358595
0.359548
0.360571
0.361653
0.362783
0.363948
0.365139
0.366345
0.367559
0.368776
0.369984
0.371169
0.372311
0.373399
0.374423
0.375379
0.376264
0.377074
0.377805
0.378456
0.379023
0.379506
0.379905
0.380223
0.380459
0.38061
0.380665
0.380646
0.380613
0.380167
0.35514
0.354468
0.354389
0.354445
0.354676
0.355049
0.355543
0.356147
0.356856
0.357667
0.358574
0.359564
0.360622
0.361736
0.362895
0.364088
0.365302
0.366526
0.367755
0.368982
0.370196
0.371381
0.372519
0.373597
0.374607
0.375544
0.376405
0.377186
0.377883
0.378496
0.379023
0.379466
0.379825
0.380105
0.380306
0.380428
0.380461
0.380427
0.380398
0.379938
0.354834
0.354161
0.354096
0.354172
0.354427
0.354827
0.355349
0.355983
0.356725
0.357573
0.358517
0.359543
0.360635
0.36178
0.362968
0.364186
0.365421
0.366662
0.367904
0.36914
0.370357
0.37154
0.372671
0.373737
0.374732
0.375648
0.376483
0.377232
0.377894
0.378468
0.378954
0.379355
0.379673
0.379913
0.38008
0.380175
0.38019
0.380151
0.380141
0.379691
0.354485
0.353814
0.353765
0.353863
0.354145
0.354571
0.35512
0.355784
0.356559
0.357443
0.358423
0.359484
0.360608
0.361782
0.362997
0.364238
0.365492
0.366749
0.368002
0.369244
0.370462
0.37164
0.372761
0.373814
0.37479
0.375683
0.376489
0.377204
0.377828
0.37836
0.378803
0.379159
0.379432
0.37963
0.379761
0.379828
0.379828
0.379793
0.379818
0.379409
0.354091
0.353426
0.353395
0.353518
0.353826
0.35428
0.354856
0.355549
0.356357
0.357274
0.358289
0.359383
0.360538
0.36174
0.36298
0.364242
0.365513
0.366783
0.368045
0.36929
0.370506
0.371676
0.372784
0.37382
0.374774
0.37564
0.376414
0.377092
0.377675
0.378162
0.378558
0.378865
0.379089
0.379239
0.379326
0.379361
0.379346
0.37932
0.379398
0.379069
0.35365
0.352995
0.352984
0.353133
0.35347
0.353952
0.354556
0.355277
0.356116
0.357066
0.358114
0.359239
0.360422
0.361651
0.362913
0.364194
0.36548
0.36676
0.368027
0.369272
0.370482
0.371641
0.372734
0.373748
0.374676
0.375512
0.376251
0.376888
0.377425
0.377864
0.378207
0.378459
0.378626
0.378719
0.378753
0.378745
0.378706
0.378686
0.378829
0.378633
0.353162
0.35252
0.352532
0.35271
0.353076
0.353586
0.354218
0.354967
0.355835
0.356817
0.357896
0.35905
0.36026
0.361512
0.362793
0.36409
0.365387
0.366674
0.367943
0.369185
0.370386
0.37153
0.372602
0.373592
0.374491
0.375292
0.375991
0.376583
0.377071
0.377455
0.377739
0.377928
0.378028
0.378051
0.378016
0.377945
0.377861
0.377832
0.378053
0.37808
0.352625
0.352001
0.352036
0.352245
0.352641
0.35318
0.353839
0.354616
0.355513
0.356525
0.357632
0.358813
0.360047
0.361319
0.362618
0.363927
0.365232
0.366523
0.36779
0.369024
0.370211
0.371336
0.372385
0.373346
0.374211
0.374973
0.375627
0.37617
0.376602
0.376926
0.377145
0.37726
0.37728
0.377215
0.377085
0.376916
0.376747
0.376681
0.37702
0.377485
0.35204
0.351438
0.351498
0.351738
0.352166
0.352732
0.353419
0.354223
0.355148
0.356188
0.357322
0.358526
0.359781
0.361071
0.362383
0.363701
0.365011
0.366301
0.367562
0.368784
0.369953
0.371055
0.372075
0.373003
0.373829
0.374547
0.375152
0.37564
0.376013
0.376271
0.376415
0.376448
0.376372
0.376196
0.375931
0.375596
0.375228
0.37495
0.375125
0.375789
0.421382
0.433589
0.443495
0.451597
0.457657
0.462569
0.466359
0.469508
0.47212
0.4744
0.476402
0.478173
0.47974
0.481153
0.482402
0.483498
0.484452
0.485287
0.485993
0.486574
0.487042
0.487411
0.487668
0.487827
0.487883
0.487829
0.48769
0.487456
0.487121
0.486693
0.486156
0.485532
0.484802
0.483971
0.483037
0.482003
0.480893
0.479671
0.478559
0.477118
0.419558
0.431561
0.441538
0.44966
0.45578
0.460737
0.464577
0.467778
0.470442
0.472762
0.4748
0.476617
0.47823
0.479672
0.480947
0.482083
0.483073
0.483925
0.484649
0.48526
0.485755
0.48614
0.48642
0.486589
0.486658
0.486627
0.4865
0.486275
0.485953
0.485531
0.485013
0.484392
0.483675
0.482856
0.481935
0.480909
0.479809
0.478598
0.477494
0.476063
0.417755
0.429536
0.439574
0.447711
0.453891
0.458893
0.462784
0.466041
0.468758
0.471122
0.473198
0.475061
0.47672
0.47819
0.479494
0.480668
0.481692
0.482562
0.483305
0.483945
0.484466
0.484866
0.485168
0.485348
0.485431
0.485424
0.485309
0.485096
0.484787
0.484374
0.483875
0.483258
0.482554
0.481748
0.480838
0.479823
0.478734
0.477536
0.47644
0.475021
0.415968
0.427515
0.437602
0.445751
0.451984
0.457037
0.460983
0.464294
0.467065
0.46948
0.471601
0.473505
0.475205
0.476711
0.478047
0.47925
0.480303
0.4812
0.481968
0.482629
0.483171
0.483591
0.483911
0.484109
0.484208
0.484216
0.484116
0.483917
0.483622
0.483223
0.482737
0.482135
0.481442
0.480646
0.479748
0.478745
0.477668
0.476482
0.475399
0.473993
0.414198
0.425501
0.43562
0.443778
0.45006
0.455166
0.45917
0.462539
0.465365
0.467835
0.470005
0.47195
0.473689
0.475233
0.476604
0.477833
0.478911
0.479839
0.480634
0.481314
0.481876
0.482315
0.482651
0.482871
0.482986
0.483008
0.482923
0.48274
0.482459
0.482077
0.481602
0.481018
0.480337
0.479552
0.478665
0.477676
0.476612
0.475439
0.474368
0.472978
0.412444
0.423494
0.433625
0.441788
0.448117
0.45328
0.457346
0.460777
0.463662
0.466188
0.468409
0.470397
0.472174
0.473757
0.475162
0.476418
0.477523
0.47848
0.479302
0.480001
0.480582
0.481041
0.481393
0.481633
0.481765
0.481802
0.481733
0.481566
0.4813
0.480935
0.480473
0.479905
0.479239
0.478465
0.477591
0.476616
0.475566
0.474406
0.473347
0.471972
0.410705
0.421497
0.431617
0.439782
0.446154
0.451378
0.455508
0.459006
0.461953
0.464538
0.466812
0.468845
0.470662
0.472282
0.473722
0.475006
0.476138
0.477122
0.47797
0.478689
0.47929
0.479768
0.480137
0.480397
0.480546
0.480598
0.480546
0.480395
0.480146
0.479797
0.47935
0.478798
0.478146
0.477387
0.476526
0.475565
0.47453
0.473384
0.472337
0.470977
0.40898
0.419509
0.429594
0.437758
0.444169
0.449457
0.453657
0.457226
0.46024
0.462887
0.465216
0.467295
0.469152
0.47081
0.472283
0.473596
0.474756
0.475766
0.47664
0.477379
0.478
0.478498
0.478884
0.479162
0.479329
0.479397
0.479362
0.479228
0.478995
0.478663
0.478232
0.477697
0.47706
0.476316
0.47547
0.474523
0.473504
0.472373
0.471337
0.469991
0.407269
0.417532
0.427556
0.435714
0.442162
0.447516
0.45179
0.455436
0.458521
0.461234
0.463619
0.465747
0.467645
0.46934
0.470848
0.47219
0.473377
0.474413
0.475311
0.476072
0.476712
0.47723
0.477633
0.47793
0.478114
0.478199
0.478182
0.478066
0.47785
0.477535
0.47712
0.476602
0.475981
0.475252
0.474423
0.473492
0.472488
0.471371
0.470348
0.469014
0.405572
0.415568
0.425502
0.433652
0.440131
0.445554
0.449907
0.453636
0.456797
0.459579
0.462024
0.464201
0.466142
0.467874
0.469416
0.470787
0.472002
0.473062
0.473985
0.474767
0.475426
0.475965
0.476384
0.4767
0.476903
0.477005
0.477006
0.476907
0.476709
0.476412
0.476014
0.475513
0.474908
0.474197
0.473385
0.47247
0.471482
0.47038
0.469368
0.468048
0.403887
0.413619
0.423433
0.431569
0.438074
0.44357
0.448006
0.451824
0.455067
0.457922
0.460429
0.462658
0.464642
0.466412
0.467988
0.469388
0.47063
0.471715
0.472661
0.473465
0.474143
0.474702
0.475139
0.475473
0.475695
0.475814
0.475834
0.475752
0.475573
0.475294
0.474913
0.474429
0.473843
0.47315
0.472355
0.471457
0.470486
0.469399
0.468399
0.46709
0.402216
0.411686
0.421348
0.429466
0.43599
0.441561
0.446086
0.449999
0.45333
0.456262
0.458835
0.461117
0.463147
0.464954
0.466565
0.467994
0.469262
0.470372
0.47134
0.472166
0.472863
0.473441
0.473897
0.474249
0.47449
0.474627
0.474666
0.474602
0.474441
0.47418
0.473817
0.473352
0.472784
0.47211
0.471334
0.470454
0.469499
0.468427
0.46744
0.466142
0.400559
0.409772
0.41925
0.427342
0.433878
0.439527
0.444145
0.448161
0.451586
0.4546
0.457242
0.45958
0.461657
0.463502
0.465146
0.466604
0.467898
0.469033
0.470022
0.47087
0.471586
0.472184
0.472658
0.473029
0.47329
0.473444
0.473501
0.473457
0.473314
0.473071
0.472727
0.472281
0.471731
0.471077
0.470321
0.46946
0.468522
0.467465
0.46649
0.465204
0.398918
0.40788
0.417138
0.425197
0.431737
0.437466
0.442182
0.446307
0.449833
0.452935
0.45565
0.458047
0.460171
0.462055
0.463733
0.465219
0.466539
0.467697
0.468708
0.469577
0.470311
0.470929
0.471423
0.471812
0.472092
0.472264
0.472341
0.472316
0.47219
0.471967
0.471642
0.471216
0.470685
0.470052
0.469316
0.468476
0.467555
0.466513
0.46555
0.464276
0.397294
0.406013
0.415014
0.423032
0.429566
0.435376
0.440195
0.444437
0.448071
0.451266
0.454058
0.456517
0.45869
0.460614
0.462324
0.463839
0.465184
0.466366
0.467397
0.468288
0.469041
0.469678
0.47019
0.470597
0.470898
0.471088
0.471183
0.471178
0.471072
0.470866
0.470561
0.470157
0.469646
0.469035
0.46832
0.4675
0.466597
0.465571
0.46462
0.463357
0.39569
0.404174
0.412881
0.420846
0.427364
0.433257
0.438184
0.44255
0.446299
0.449594
0.452468
0.454992
0.457214
0.459178
0.46092
0.462464
0.463833
0.465038
0.466091
0.467001
0.467773
0.468429
0.468961
0.469385
0.469706
0.469916
0.470029
0.470043
0.469957
0.46977
0.469486
0.469104
0.468614
0.468024
0.467332
0.466532
0.465648
0.464638
0.4637
0.462448
0.394108
0.402365
0.410742
0.41864
0.425131
0.431106
0.436146
0.440644
0.444516
0.447918
0.450878
0.45347
0.455743
0.457747
0.459522
0.461093
0.462488
0.463715
0.464788
0.465718
0.466509
0.467183
0.467735
0.468176
0.468517
0.468747
0.468878
0.468911
0.468845
0.468678
0.468414
0.468055
0.467587
0.467021
0.466351
0.465573
0.464707
0.463715
0.462789
0.461549
0.392551
0.400592
0.4086
0.416416
0.422868
0.428924
0.434081
0.438718
0.442721
0.446238
0.449289
0.451951
0.454278
0.456322
0.45813
0.459729
0.461148
0.462397
0.46349
0.464439
0.465249
0.46594
0.466513
0.46697
0.46733
0.46758
0.46773
0.467781
0.467736
0.46759
0.467347
0.467011
0.466566
0.466024
0.465377
0.464621
0.463776
0.4628
0.461888
0.460659
0.391023
0.398857
0.406459
0.414175
0.420575
0.426709
0.431988
0.436771
0.440914
0.444552
0.447699
0.450436
0.452817
0.454903
0.456744
0.458371
0.459814
0.461084
0.462197
0.463165
0.463994
0.464701
0.465293
0.465769
0.466146
0.466416
0.466584
0.466655
0.46663
0.466505
0.466284
0.465971
0.465551
0.465032
0.464409
0.463677
0.462853
0.461896
0.460996
0.459779
0.389526
0.397163
0.404324
0.41192
0.418255
0.424461
0.429866
0.434802
0.439094
0.44286
0.44611
0.448924
0.451361
0.45349
0.455364
0.45702
0.458486
0.459777
0.460909
0.461895
0.462743
0.463466
0.464077
0.464571
0.464965
0.465254
0.465442
0.465531
0.465527
0.465423
0.465224
0.464935
0.46454
0.464046
0.463448
0.46274
0.461938
0.461
0.460114
0.458908
0.388065
0.395515
0.4022
0.409653
0.415909
0.422181
0.427716
0.43281
0.437261
0.441162
0.44452
0.447414
0.449911
0.452083
0.453992
0.455675
0.457164
0.458476
0.459627
0.46063
0.461497
0.462236
0.462865
0.463377
0.463787
0.464095
0.464301
0.46441
0.464426
0.464344
0.464168
0.463904
0.463534
0.463066
0.462494
0.461811
0.461033
0.460115
0.459242
0.458049
0.386644
0.393917
0.400095
0.407378
0.413539
0.419871
0.425536
0.430796
0.435412
0.439457
0.442928
0.445908
0.448466
0.450683
0.452627
0.454337
0.455849
0.457182
0.45835
0.45937
0.460255
0.46101
0.461655
0.462187
0.462612
0.462939
0.463163
0.463291
0.463327
0.463268
0.463116
0.462875
0.462532
0.46209
0.461546
0.46089
0.460136
0.45924
0.458381
0.4572
0.385267
0.392371
0.398013
0.4051
0.41115
0.417532
0.423328
0.42876
0.43355
0.437745
0.441336
0.444404
0.447026
0.449291
0.451269
0.453006
0.45454
0.455893
0.457079
0.458116
0.459017
0.459788
0.46045
0.461
0.46144
0.461785
0.462027
0.462174
0.462231
0.462194
0.462066
0.461851
0.461535
0.461119
0.460603
0.459976
0.459247
0.458375
0.457533
0.456363
0.383938
0.390881
0.395963
0.402824
0.408746
0.415167
0.421093
0.4267
0.431672
0.436025
0.439741
0.442904
0.445593
0.447905
0.449919
0.451683
0.453239
0.454612
0.455814
0.456867
0.457784
0.458572
0.459248
0.459816
0.460272
0.460634
0.460894
0.46106
0.461138
0.461124
0.46102
0.460829
0.460541
0.460153
0.459666
0.459068
0.458367
0.45752
0.456696
0.455538
0.382661
0.38945
0.39395
0.400555
0.406333
0.41278
0.418834
0.424619
0.429779
0.434297
0.438146
0.441407
0.444165
0.446528
0.448577
0.450367
0.451945
0.453336
0.454555
0.455623
0.456556
0.457359
0.45805
0.458635
0.459106
0.459486
0.459764
0.459948
0.460047
0.460056
0.459976
0.45981
0.45955
0.45919
0.458734
0.458167
0.457495
0.456675
0.455873
0.454726
0.381441
0.38808
0.391984
0.3983
0.403916
0.410373
0.416552
0.422517
0.427871
0.43256
0.436548
0.439912
0.442744
0.445158
0.447243
0.44906
0.450658
0.452068
0.453302
0.454386
0.455332
0.456151
0.456857
0.457458
0.457944
0.45834
0.458637
0.458838
0.458958
0.45899
0.458934
0.458793
0.458561
0.458231
0.457806
0.457272
0.456632
0.455841
0.455062
0.453929
0.380281
0.386772
0.39007
0.396065
0.401502
0.407953
0.41425
0.420394
0.425947
0.430814
0.434948
0.43842
0.441329
0.443796
0.445916
0.44776
0.449379
0.450806
0.452055
0.453153
0.454114
0.454947
0.455667
0.456284
0.456786
0.457197
0.457512
0.457731
0.457871
0.457925
0.457894
0.457777
0.457574
0.457274
0.456881
0.456381
0.455776
0.455017
0.454266
0.453146
0.379184
0.385527
0.388215
0.393857
0.3991
0.405525
0.411932
0.418253
0.424009
0.429059
0.433345
0.43693
0.439919
0.442441
0.444598
0.446469
0.448107
0.44955
0.450814
0.451926
0.4529
0.453748
0.454482
0.455113
0.455631
0.456056
0.456389
0.456627
0.456786
0.456862
0.456854
0.456762
0.456587
0.456319
0.455959
0.455495
0.454927
0.454205
0.453483
0.45238
0.378156
0.384344
0.386427
0.391685
0.396717
0.403097
0.409602
0.416097
0.422056
0.427296
0.431739
0.435442
0.438514
0.441093
0.443289
0.445187
0.446843
0.448302
0.449579
0.450704
0.451691
0.452553
0.453299
0.453944
0.454478
0.454917
0.455268
0.455523
0.455702
0.4558
0.455815
0.455748
0.455601
0.455364
0.455038
0.454612
0.454086
0.453403
0.452716
0.451632
0.377199
0.383222
0.384709
0.389558
0.394362
0.400676
0.407266
0.413929
0.420093
0.425526
0.43013
0.433956
0.437115
0.439753
0.441988
0.443912
0.445587
0.44706
0.44835
0.449487
0.450487
0.451361
0.452121
0.452779
0.453329
0.45378
0.454148
0.454422
0.454618
0.454737
0.454775
0.454733
0.454615
0.454409
0.454119
0.453732
0.45325
0.452612
0.451965
0.450904
0.376317
0.382157
0.383068
0.387484
0.392045
0.398269
0.40493
0.411752
0.41812
0.423749
0.428519
0.432473
0.435722
0.438421
0.440696
0.442647
0.444339
0.445826
0.447128
0.448276
0.449288
0.450174
0.450947
0.451616
0.452181
0.452646
0.453029
0.453321
0.453535
0.453674
0.453734
0.453718
0.453627
0.453454
0.453199
0.452854
0.452419
0.451832
0.45123
0.450198
0.375515
0.381148
0.381508
0.385471
0.389777
0.395886
0.402601
0.409572
0.41614
0.421966
0.426906
0.430992
0.434334
0.437097
0.439413
0.441389
0.4431
0.444598
0.445913
0.447071
0.448093
0.448991
0.449775
0.450455
0.451034
0.451513
0.451911
0.45222
0.452451
0.452611
0.452693
0.452701
0.452638
0.452497
0.452279
0.451976
0.451592
0.451062
0.450514
0.449517
0.374797
0.38019
0.380033
0.383527
0.387566
0.393536
0.400285
0.407392
0.414156
0.420179
0.425291
0.429513
0.432952
0.435781
0.438139
0.44014
0.441868
0.443379
0.444703
0.445871
0.446903
0.447812
0.448607
0.449297
0.449889
0.450381
0.450793
0.45112
0.451367
0.451547
0.45165
0.451682
0.451646
0.451537
0.451356
0.451098
0.450767
0.450301
0.449816
0.448863
0.37417
0.379277
0.378646
0.381662
0.385422
0.391229
0.397991
0.40522
0.41217
0.418389
0.423675
0.428036
0.431576
0.434473
0.436873
0.4389
0.440646
0.442167
0.443501
0.444678
0.445719
0.446637
0.447442
0.448142
0.448746
0.449251
0.449676
0.450019
0.450282
0.450481
0.450606
0.450661
0.450651
0.450574
0.450431
0.450218
0.449944
0.449547
0.449137
0.448242
0.373644
0.378404
0.377348
0.379884
0.383356
0.388976
0.395727
0.403061
0.410186
0.416597
0.42206
0.426562
0.430205
0.433172
0.435616
0.437669
0.439432
0.440963
0.442306
0.443491
0.444539
0.445466
0.44628
0.44699
0.447605
0.448123
0.448559
0.448919
0.449199
0.449415
0.44956
0.449637
0.449653
0.449607
0.449501
0.449335
0.44912
0.4488
0.448479
0.447659
0.37323
0.377568
0.376143
0.378201
0.381378
0.386788
0.393502
0.400923
0.408211
0.414809
0.420447
0.425092
0.428842
0.43188
0.434369
0.436449
0.438228
0.439769
0.441119
0.442311
0.443365
0.444299
0.445122
0.445841
0.446466
0.446996
0.447444
0.44782
0.448115
0.448348
0.448511
0.448611
0.448652
0.448635
0.448566
0.448447
0.448294
0.448058
0.44784
0.44712
0.372941
0.376768
0.375033
0.376622
0.379498
0.384677
0.391332
0.398817
0.406254
0.413032
0.418843
0.423631
0.427489
0.430599
0.433134
0.43524
0.437034
0.438584
0.43994
0.441139
0.442197
0.443138
0.443968
0.444695
0.445329
0.445871
0.446331
0.446721
0.447031
0.44728
0.447461
0.447581
0.447646
0.447659
0.447626
0.447554
0.447463
0.447318
0.447219
0.446636
0.372783
0.376006
0.374027
0.375163
0.377736
0.38266
0.389223
0.39674
0.404301
0.411244
0.417221
0.422151
0.426119
0.429305
0.431889
0.434025
0.435835
0.437395
0.438757
0.439961
0.441025
0.441972
0.442808
0.443543
0.444186
0.44474
0.445212
0.445615
0.44594
0.446204
0.446403
0.446543
0.446631
0.446672
0.446675
0.446649
0.446623
0.446573
0.446613
0.446216
0.372806
0.375258
0.373094
0.373791
0.376052
0.380686
0.387107
0.394612
0.402264
0.409361
0.415503
0.420584
0.424674
0.427947
0.430589
0.432764
0.434598
0.436172
0.437544
0.438756
0.439828
0.440782
0.441627
0.442371
0.443024
0.443591
0.444076
0.444492
0.444834
0.445112
0.44533
0.445489
0.445601
0.44567
0.445708
0.445728
0.445766
0.445816
0.446014
0.445876
0.373467
0.374569
0.372122
0.372353
0.374275
0.378605
0.384886
0.392402
0.40018
0.407462
0.413799
0.419051
0.423276
0.426644
0.429347
0.431558
0.43341
0.434993
0.436372
0.437587
0.438663
0.43962
0.440469
0.44122
0.441881
0.442457
0.442953
0.443379
0.443734
0.444025
0.444258
0.444435
0.444566
0.44466
0.44473
0.444792
0.444889
0.445036
0.445402
0.445612
0.377015
0.373099
0.368878
0.367401
0.368194
0.371835
0.378102
0.38611
0.394655
0.402755
0.409818
0.415636
0.420252
0.423837
0.426617
0.428806
0.430581
0.432073
0.433367
0.43451
0.435534
0.436452
0.437275
0.438009
0.438661
0.439236
0.439739
0.440174
0.440546
0.440857
0.441116
0.441329
0.441503
0.441651
0.441792
0.441949
0.442176
0.442553
0.443361
0.444759
0.36573
0.362512
0.35916
0.358492
0.359968
0.363984
0.370483
0.378633
0.387272
0.395442
0.402578
0.408474
0.413173
0.416848
0.419716
0.421989
0.42384
0.425397
0.426744
0.427935
0.429
0.429959
0.430822
0.431599
0.432294
0.432913
0.433461
0.433942
0.434359
0.434718
0.435024
0.435284
0.435509
0.435711
0.435912
0.436143
0.436469
0.437015
0.438131
0.440069
0.352442
0.351186
0.349589
0.350464
0.35308
0.357645
0.364243
0.372235
0.380627
0.388565
0.395536
0.401346
0.406025
0.409725
0.412647
0.414985
0.416905
0.418526
0.41993
0.421172
0.422284
0.423287