/*--------------------------------*- C++ -*----------------------------------*\
  =========                 |
  \\      /  F ield         | OpenFOAM: The Open Source CFD Toolbox
   \\    /   O peration     | Website:  https://openfoam.org
    \\  /    A nd           | Version:  7
     \\/     M anipulation  |
\*---------------------------------------------------------------------------*/
FoamFile
{
    version     2.0;
    format      ascii;
    class       volVectorField;
    location    "7.2";
    object      U;
}
// * * * * * * * * * * * * * * * * * * * * * * * * * * * * * * * * * * * * * //

dimensions      [0 1 -1 0 0 0 0];

internalField   nonuniform List<vector> 
32000
(
(0.000172318 -0.0033546 -3.06325e-22)
(0.000952589 -0.00536913 0)
(0.00238348 -0.00333638 -2.7394e-21)
(0.00417646 0.00175591 0)
(0.00630045 0.00922374 2.854e-21)
(0.00870632 0.0185657 0)
(0.0113689 0.0293914 2.94882e-21)
(0.0142727 0.0413904 -2.24173e-21)
(0.0174039 0.0543169 4.82112e-25)
(0.0207482 0.0679697 6.45823e-25)
(0.0242896 0.0821845 -7.71724e-22)
(0.0280117 0.0968227 3.11475e-21)
(0.0318966 0.111765 0)
(0.0359251 0.126906 -7.91234e-22)
(0.0400766 0.142151 7.9452e-22)
(0.0443295 0.15741 0)
(0.0486608 0.172604 4.02023e-21)
(0.0530474 0.187653 -8.06549e-22)
(0.0574659 0.202484 0)
(0.0618931 0.21703 1.63292e-21)
(0.066306 0.231223 1.63721e-21)
(0.0706824 0.245005 0)
(0.075001 0.258318 0)
(0.0792417 0.271112 0)
(0.0833864 0.28334 0)
(0.0874186 0.294964 0)
(0.0913234 0.30595 0)
(0.0950876 0.316269 0)
(0.0987006 0.325901 -3.34851e-21)
(0.102154 0.334829 0)
(0.105442 0.343043 3.36301e-21)
(0.10856 0.350538 0)
(0.111507 0.357311 0)
(0.114283 0.363366 0)
(0.116892 0.368705 -3.38369e-21)
(0.119338 0.37333 -1.70254e-21)
(0.121629 0.377238 5.09968e-21)
(0.123782 0.380417 4.40064e-24)
(0.125796 0.382868 3.40916e-21)
(0.127559 0.384582 3.57501e-24)
(0.000228255 -0.00352435 0)
(0.000977357 -0.00580788 5.34792e-21)
(0.00223035 -0.00400821 1.36883e-21)
(0.0037462 0.000875507 -5.54964e-25)
(0.00551465 0.00814546 -1.42685e-21)
(0.00750729 0.0172927 0)
(0.0097134 0.0279237 2.94812e-21)
(0.012129 0.0397264 -2.9883e-21)
(0.0147488 0.052456 0)
(0.0175652 0.0659117 -6.11477e-21)
(0.0205687 0.0799301 0)
(0.0237477 0.0943751 -9.34108e-21)
(0.027088 0.10913 0)
(0.0305741 0.124091 0)
(0.0341888 0.139164 3.18312e-21)
(0.0379127 0.154264 -3.19338e-21)
(0.0417259 0.169312 -3.21463e-21)
(0.045608 0.184229 0)
(0.0495379 0.198946 9.72976e-21)
(0.0534945 0.213394 -3.2487e-21)
(0.0574572 0.227509 5.50793e-24)
(0.0614056 0.241231 -9.82413e-21)
(0.0653196 0.254504 -6.57451e-21)
(0.069181 0.267277 -3.30909e-21)
(0.072973 0.279505 9.91426e-21)
(0.07668 0.291147 -9.96103e-21)
(0.0802874 0.302169 9.9945e-21)
(0.083783 0.312541 -1.33162e-20)
(0.0871564 0.322242 -3.33145e-21)
(0.0903988 0.331252 3.14658e-23)
(0.0935036 0.339561 -1.00237e-20)
(0.0964667 0.347161 -6.70484e-21)
(0.0992857 0.354048 1.3489e-20)
(0.101961 0.360222 -1.34602e-20)
(0.104493 0.365683 -3.3591e-21)
(0.106887 0.370431 -1.35312e-20)
(0.109149 0.374461 -9.44295e-24)
(0.111295 0.37776 3.39823e-21)
(0.113311 0.380328 -1.34981e-20)
(0.115089 0.382159 -1.93217e-20)
(0.000291322 -0.00369183 -1.22673e-21)
(0.0010189 -0.00624009 -2.67389e-21)
(0.00209793 -0.00464892 -1.23299e-20)
(0.00334089 4.47636e-05 0)
(0.00475975 0.00712977 1.42713e-21)
(0.00634569 0.0160913 -1.4514e-21)
(0.00810278 0.0265332 -1.76888e-20)
(0.0100391 0.0381431 5.97695e-21)
(0.0121584 0.0506753 -3.0255e-21)
(0.0144588 0.0639314 1.83404e-20)
(0.0169368 0.0777503 6.17333e-21)
(0.0195856 0.0919973 3.1155e-21)
(0.0223949 0.106557 -1.25457e-20)
(0.0253519 0.12133 0)
(0.0284425 0.136223 0)
(0.0316507 0.151153 6.39921e-21)
(0.0349585 0.166042 1.79856e-23)
(0.0383477 0.180816 -6.4423e-21)
(0.0418 0.195404 -6.48145e-21)
(0.0452963 0.20974 -1.30021e-20)
(0.0488175 0.22376 1.95898e-20)
(0.0523449 0.237406 1.86574e-23)
(0.0558605 0.250622 -1.23951e-23)
(0.0593472 0.263357 6.57276e-21)
(0.0627894 0.275565 -1.32408e-20)
(0.0661725 0.287207 2.64786e-20)
(0.0694829 0.298246 0)
(0.0727087 0.308653 6.66491e-21)
(0.0758394 0.318404 6.67989e-21)
(0.0788664 0.32748 1.34006e-20)
(0.0817832 0.335867 3.14645e-23)
(0.084585 0.343555 0)
(0.0872688 0.35054 6.75096e-21)
(0.0898336 0.356818 -6.66828e-21)
(0.0922805 0.362388 -6.69569e-21)
(0.094612 0.367247 2.02625e-20)
(0.0968345 0.371389 -2.01315e-20)
(0.0989617 0.374799 1.3521e-20)
(0.100968 0.37748 -2.01302e-20)
(0.102746 0.379426 7.62937e-21)
(0.000359898 -0.00382291 9.81518e-21)
(0.00107156 -0.00658951 -1.0703e-20)
(0.0019782 -0.00518805 2.19236e-20)
(0.00295025 -0.000672856 0)
(0.00402247 0.0062333 8.56288e-21)
(0.00520743 0.0150113 1.45176e-20)
(0.00652382 0.0252626 2.94815e-21)
(0.00799027 0.0366762 1.11097e-24)
(0.00961922 0.0490058 9.07374e-21)
(0.0114159 0.0620557 -3.05876e-21)
(0.0133819 0.0756665 1.54285e-20)
(0.0155143 0.0897059 -1.86774e-20)
(0.0178067 0.104061 1.88135e-20)
(0.0202498 0.118634 -6.32078e-21)
(0.0228317 0.133335 6.34709e-21)
(0.0255387 0.148083 -1.27737e-20)
(0.0283554 0.162801 -1.92648e-20)
(0.0312658 0.177417 6.43864e-21)
(0.0342533 0.191862 -6.48583e-21)
(0.037301 0.20607 1.94887e-20)
(0.0403915 0.219981 -1.30481e-20)
(0.0435078 0.233534 -1.30788e-20)
(0.0466331 0.246676 0)
(0.0497518 0.259355 0)
(0.0528498 0.271527 -1.31874e-20)
(0.0559131 0.283151 -1.324e-20)
(0.0589289 0.29419 -1.32476e-20)
(0.0618856 0.304615 0)
(0.0647733 0.314399 0)
(0.0675834 0.323523 -2.67013e-20)
(0.0703091 0.331971 -8.56211e-23)
(0.0729452 0.339732 1.33952e-20)
(0.0754883 0.3468 -1.33495e-20)
(0.0779367 0.353168 -1.34491e-20)
(0.0802905 0.358834 1.34172e-20)
(0.0825512 0.363793 0)
(0.0847244 0.368038 1.34507e-20)
(0.0868218 0.371553 -2.6865e-20)
(0.0888059 0.374341 2.68283e-20)
(0.0905731 0.3764 -3.0689e-20)
(0.00043214 -0.00393944 -4.90524e-21)
(0.00113258 -0.00690054 8.02784e-21)
(0.00186863 -0.00566798 -1.09632e-20)
(0.00257245 -0.00131698 0)
(0.00330275 0.00542008 -1.42721e-20)
(0.00409248 0.01402 -8.71099e-21)
(0.00497562 0.0240832 1.17928e-20)
(0.00598188 0.0352997 0)
(0.00713183 0.0474245 -1.81477e-20)
(0.00843697 0.060264 -6.11529e-21)
(0.00990397 0.0736611 -6.1689e-21)
(0.0115345 0.0874863 1.24556e-20)
(0.0133252 0.10163 -1.25428e-20)
(0.0152691 0.115995 6.30837e-21)
(0.0173574 0.130494 0)
(0.0195785 0.145049 1.91674e-20)
(0.021919 0.159585 6.42737e-21)
(0.0243647 0.17403 -1.291e-20)
(0.0269013 0.188319 2.58842e-20)
(0.0295135 0.202387 -2.59788e-20)
(0.0321853 0.216173 2.6035e-20)
(0.0349011 0.229619 1.30788e-20)
(0.0376458 0.242671 0)
(0.0404053 0.255279 1.31794e-20)
(0.0431662 0.267399 4.24595e-23)
(0.0459155 0.278988 0)
(0.048641 0.29001 1.32477e-20)
(0.0513319 0.300435 -1.33013e-20)
(0.0539783 0.310236 1.3246e-20)
(0.0565718 0.319392 2.66695e-20)
(0.0591055 0.327886 -2.66509e-20)
(0.061574 0.335705 2.66587e-20)
(0.0639732 0.342841 0)
(0.0663008 0.349287 0)
(0.0685559 0.355037 2.6744e-20)
(0.0707392 0.360086 0)
(0.0728552 0.364424 0)
(0.0749139 0.368038 -2.67741e-20)
(0.076866 0.37093 2.66533e-20)
(0.0786108 0.373102 1.5329e-20)
(0.000506483 -0.00403035 2.45556e-21)
(0.00119786 -0.00715022 0)
(0.00176442 -0.00606487 2.19393e-20)
(0.0022019 -0.00186432 2.80129e-21)
(0.00259365 0.00471097 2.85571e-21)
(0.00299419 0.013136 1.74271e-20)
(0.00345229 0.0230115 2.35898e-20)
(0.004008 0.0340285 0)
(0.00469005 0.0459444 6.05053e-21)
(0.00551653 0.0585677 1.83433e-20)
(0.00649875 0.0717446 2.4687e-20)
(0.00764199 0.085348 -6.22748e-21)
(0.00894614 0.0992704 -1.88154e-20)
(0.0104069 0.113417 0)
(0.0120177 0.127705 2.54002e-20)
(0.0137688 0.142056 0)
(0.0156489 0.156398 3.85046e-20)
(0.0176456 0.170661 -1.28673e-20)
(0.0197463 0.184781 0)
(0.0219369 0.198694 -1.30061e-20)
(0.0242032 0.212341 -2.8663e-23)
(0.0265309 0.225665 -1.30274e-20)
(0.0289066 0.238613 -1.30707e-20)
(0.0313171 0.251135 1.31649e-20)
(0.0337499 0.263186 -1.31305e-20)
(0.036193 0.274725 0)
(0.038635 0.285715 -1.32529e-20)
(0.0410652 0.296124 1.32023e-20)
(0.0434742 0.305926 0)
(0.0458539 0.315098 0)
(0.0481972 0.323622 0)
(0.0504982 0.331486 -2.66963e-20)
(0.0527525 0.338677 2.65553e-20)
(0.054957 0.345187 0)
(0.0571101 0.351011 -1.33506e-20)
(0.0592112 0.35614 0)
(0.0612639 0.360565 2.67351e-20)
(0.0632765 0.364272 -1.32197e-20)
(0.065188 0.367265 -2.67001e-20)
(0.0669004 0.36955 3.04154e-20)
(0.000581486 -0.00409962 1.72025e-20)
(0.00126428 -0.00734499 -2.4107e-20)
(0.00166157 -0.00638569 -4.11425e-20)
(0.00183466 -0.0023228 -2.24177e-20)
(0.00189219 0.00409845 -5.7116e-21)
(0.00190972 0.0123524 -1.16162e-20)
(0.00195093 0.0220401 -5.308e-20)
(0.00206659 0.0328555 -1.79338e-20)
(0.00229302 0.0445585 -3.02482e-20)
(0.00265422 0.0569607 -3.05712e-20)
(0.00316615 0.0699108 -4.32065e-20)
(0.00383775 0.083285 -2.48971e-20)
(0.00467159 0.0969782 -1.42988e-24)
(0.00566571 0.110899 -2.52502e-20)
(0.00681562 0.124965 -2.54002e-20)
(0.00811377 0.139101 -3.83159e-20)
(0.00955022 0.153238 2.56542e-20)
(0.0111143 0.167308 -1.28648e-20)
(0.0127949 0.181246 0)
(0.0145793 0.194993 2.59513e-20)
(0.0164547 0.208488 0)
(0.0184082 0.221677 5.22264e-20)
(0.0204275 0.234506 0)
(0.0225008 0.246927 -1.31527e-20)
(0.0246163 0.258895 1.31948e-20)
(0.0267628 0.270368 -2.62846e-20)
(0.0289295 0.28131 0)
(0.0311062 0.291689 -2.65113e-20)
(0.0332838 0.301477 2.64011e-20)
(0.0354543 0.310651 0)
(0.0376108 0.319193 0)
(0.0397467 0.327087 0)
(0.0418571 0.33432 -2.65365e-20)
(0.0439385 0.340884 0)
(0.0459881 0.346771 -2.66566e-20)
(0.0480042 0.351972 5.31509e-20)
(0.0499893 0.356478 -5.31305e-20)
(0.0519497 0.360275 2.6355e-20)
(0.0538136 0.363367 5.30457e-20)
(0.055485 0.365766 -3.0328e-20)
(0.000655479 -0.00414552 -2.21171e-20)
(0.00132824 -0.00748323 -8.01585e-24)
(0.00155613 -0.00662906 2.19458e-20)
(0.00146667 -0.00269049 4.48411e-20)
(0.00119421 0.00358385 -5.71278e-21)
(0.000835607 0.0116692 -2.32444e-20)
(0.000469133 0.0211693 2.35918e-20)
(0.000155825 0.0317808 3.58698e-20)
(-6.0586e-05 0.0432668 1.20984e-20)
(-0.000150217 0.0554422 3.05751e-20)
(-9.28772e-05 0.0681594 2.46892e-20)
(0.000123427 0.0812972 3.73413e-20)
(0.00050386 0.094753 7.52561e-20)
(0.00104881 0.108438 3.78868e-20)
(0.00175575 0.122273 0)
(0.00261867 0.136186 1.27521e-20)
(0.00362917 0.150107 1.28122e-20)
(0.00477812 0.163972 1.28624e-20)
(0.00605554 0.177718 2.58618e-20)
(0.00745018 0.191285 -1.29564e-20)
(0.00895035 0.204616 0)
(0.0105447 0.217656 -8.7342e-24)
(0.0122221 0.230354 -2.61616e-20)
(0.0139714 0.24266 2.62183e-20)
(0.0157819 0.254531 5.25571e-20)
(0.0176431 0.265925 5.27039e-20)
(0.0195445 0.276805 5.34263e-23)
(0.0214767 0.28714 2.63871e-20)
(0.0234308 0.2969 2.64158e-20)
(0.025399 0.306063 -2.64392e-20)
(0.0273741 0.314609 2.64571e-20)
(0.0293492 0.32252 2.64693e-20)
(0.0313189 0.329785 5.30122e-20)
(0.033279 0.336393 -1.06707e-22)
(0.0352257 0.342334 7.94772e-20)
(0.0371557 0.347599 3.51046e-23)
(0.0390708 0.35218 -2.64368e-20)
(0.0409748 0.356064 -2.65027e-20)
(0.0427857 0.359256 2.63762e-20)
(0.044409 0.361771 3.02626e-20)
(0.00072712 -0.00416809 1.96789e-20)
(0.00138662 -0.0075647 2.67965e-20)
(0.00144424 -0.00679472 1.64711e-20)
(0.00109407 -0.00296813 -1.68168e-20)
(0.000496263 0.00316593 -2.85728e-20)
(-0.000231098 0.0110854 2.32435e-20)
(-0.000995403 0.0203975 0)
(-0.00172563 0.0308023 2.39218e-20)
(-0.002371 0.0420673 0)
(-0.00289612 0.0540109 -4.89289e-20)
(-0.00327687 0.0664888 1.23536e-20)
(-0.00349849 0.0793828 -6.22533e-20)
(-0.00355342 0.0925936 -2.50867e-20)
(-0.00343914 0.106035 1.26434e-20)
(-0.00315646 0.119631 2.34519e-23)
(-0.00270995 0.13331 -1.27554e-20)
(-0.00210665 0.147005 -2.56547e-20)
(-0.00135438 0.160655 -5.15278e-20)
(-0.000461993 0.174198 0)
(0.000560429 0.187574 4.46337e-23)
(0.00170248 0.200729 -2.59792e-20)
(0.00295409 0.213609 -2.60981e-20)
(0.0043051 0.226162 2.61617e-20)
(0.00574527 0.238341 -2.62813e-20)
(0.00726453 0.250102 2.62541e-20)
(0.00885308 0.261403 -5.25549e-20)
(0.0105012 0.272208 5.31262e-23)
(0.0121997 0.282485 -5.26926e-20)
(0.0139401 0.292205 -2.64159e-20)
(0.0157146 0.301344 -4.99006e-23)
(0.0175157 0.309881 -9.41867e-23)
(0.0193364 0.317799 -2.64694e-20)
(0.0211705 0.325085 -2.64757e-20)
(0.0230132 0.331727 -6.25054e-23)
(0.0248594 0.337714 -2.64691e-20)
(0.0267045 0.343039 -7.50684e-23)
(0.0285487 0.347692 -2.64905e-20)
(0.0303939 0.351661 7.89198e-20)
(0.0321482 0.354953 -2.63763e-20)
(0.0337178 0.357588 -3.0293e-20)
(0.000795132 -0.00416697 -1.96792e-20)
(0.0014366 -0.0075894 5.36143e-21)
(0.00132229 -0.00688347 -1.64689e-20)
(0.000713096 -0.00315685 -5.6084e-21)
(-0.000204919 0.00284334 2.28587e-20)
(-0.00129286 0.0105991 -5.81335e-21)
(-0.00244437 0.0197224 5.90099e-21)
(-0.00357865 0.029918 -3.5886e-20)
(-0.00463802 0.0409578 1.21038e-20)
(-0.00558212 0.0526643 2.44671e-20)
(-0.00638347 0.0648968 0)
(-0.00702466 0.0775404 4.98206e-20)
(-0.0074958 0.0904988 0)
(-0.00779256 0.103689 -5.05238e-20)
(-0.00791438 0.117036 -2.54134e-20)
(-0.00786447 0.130473 0)
(-0.00764851 0.143934 0)
(-0.00727329 0.157359 5.15364e-20)
(-0.00674677 0.170687 2.59042e-20)
(-0.00607783 0.183863 -5.19009e-20)
(-0.00527554 0.196831 2.59802e-20)
(-0.00434895 0.209538 0)
(-0.00330744 0.221935 -2.62048e-20)
(-0.00216035 0.233975 5.24008e-20)
(-0.000916954 0.245613 -2.61906e-20)
(0.00041344 0.256809 -2.63478e-20)
(0.00182166 0.267527 2.62571e-20)
(0.00329897 0.277734 0)
(0.00483713 0.287402 5.27875e-20)
(0.00642833 0.296505 -2.63155e-20)
(0.00806491 0.305023 -2.646e-20)
(0.00973938 0.312938 -1.36805e-22)
(0.0114451 0.320235 1.05613e-19)
(0.0131762 0.326902 -7.90428e-20)
(0.0149263 0.33293 0)
(0.0166895 0.338309 -2.63812e-20)
(0.0184642 0.34303 -5.27618e-20)
(0.0202501 0.347085 2.61079e-20)
(0.021946 0.35048 2.61914e-20)
(0.0234581 0.35324 0)
(0.000858141 -0.00414202 -3.93953e-20)
(0.00147519 -0.00755793 -5.36365e-21)
(0.00118679 -0.00689632 4.3947e-20)
(0.000320498 -0.00325805 -4.48861e-20)
(-0.000912238 0.00261395 0)
(-0.00235208 0.0102076 0)
(-0.0038791 0.0191413 -1.18071e-20)
(-0.00540329 0.029125 -3.45986e-24)
(-0.00686076 0.0399356 1.2107e-20)
(-0.0082065 0.0514 0)
(-0.00940971 0.0633814 0)
(-0.0104508 0.0757681 -1.24476e-20)
(-0.011318 0.0884672 1.62264e-23)
(-0.0120052 0.101398 1.26396e-20)
(-0.0125105 0.11449 2.54134e-20)
(-0.0128361 0.127676 0)
(-0.0129866 0.140894 2.57015e-20)
(-0.0129679 0.154084 -2.5701e-20)
(-0.0127868 0.167189 -5.17433e-20)
(-0.0124512 0.180154 5.19117e-20)
(-0.0119692 0.192925 9.03038e-23)
(-0.0113488 0.205449 -2.60465e-20)
(-0.0105984 0.217679 2.62016e-20)
(-0.00972686 0.229568 -5.23457e-20)
(-0.00874265 0.241073 0)
(-0.00765454 0.252153 2.63336e-20)
(-0.00647116 0.262772 -5.26068e-20)
(-0.00520089 0.272897 2.62634e-20)
(-0.00385175 0.282501 -2.6354e-20)
(-0.00243158 0.291558 -2.64155e-20)
(-0.000948336 0.300046 -2.65498e-20)
(0.00059013 0.307948 1.05408e-19)
(0.00217648 0.315248 -7.89235e-20)
(0.00380376 0.321935 -5.27836e-20)
(0.00546444 0.327997 5.24817e-20)
(0.00715064 0.333426 0)
(0.00885923 0.338216 5.26041e-20)
(0.0105872 0.342357 -5.22749e-20)
(0.0122253 0.345859 -2.61915e-20)
(0.013678 0.34875 0)
(0.000914895 -0.00409347 8.37341e-20)
(0.00149973 -0.00747093 3.75661e-20)
(0.00103456 -0.00683462 -4.39467e-20)
(-8.70093e-05 -0.00327394 3.92744e-20)
(-0.00162841 0.00247503 -5.71882e-21)
(-0.0034104 0.00990824 1.16323e-20)
(-0.00530039 0.0186513 0)
(-0.00719957 0.0284202 -1.19712e-20)
(-0.00903799 0.0389976 1.21107e-20)
(-0.0107666 0.0502152 1.22475e-20)
(-0.012352 0.0619399 -1.23547e-20)
(-0.0137723 0.0740638 -1.24714e-20)
(-0.015014 0.0864973 1.25497e-20)
(-0.0160697 0.0991629 0)
(-0.0169365 0.111992 0)
(-0.0176155 0.124919 -2.55896e-20)
(-0.0181104 0.137886 2.56501e-20)
(-0.0184263 0.150834 -2.58221e-20)
(-0.018569 0.163707 2.58432e-20)
(-0.0185455 0.176451 2.60059e-20)
(-0.018363 0.189015 -5.2074e-20)
(-0.0180285 0.201347 5.21991e-20)
(-0.0175499 0.2134 9.90579e-23)
(-0.016935 0.225128 -2.61465e-20)
(-0.0161918 0.236488 0)
(-0.0153286 0.247441 2.63239e-20)
(-0.0143536 0.257951 1.16476e-22)
(-0.0132746 0.267985 -2.62493e-20)
(-0.0120996 0.277514 0)
(-0.0108365 0.286515 5.27716e-20)
(-0.00949354 0.294964 -5.25202e-20)
(-0.00807907 0.302844 0)
(-0.00660112 0.31014 5.27203e-20)
(-0.00506777 0.31684 -5.24299e-20)
(-0.003488 0.322932 0)
(-0.00187158 0.32841 0)
(-0.000223677 0.333267 0)
(0.00145009 0.337497 -5.23505e-20)
(0.00303317 0.34111 5.2015e-20)
(0.00442694 0.34414 6.01478e-20)
(0.000964141 -0.0040215 -3.94133e-20)
(0.0015075 -0.00732941 -4.29317e-20)
(0.000862464 -0.00670032 -5.4956e-21)
(-0.000512223 -0.00320711 1.68396e-20)
(-0.00235568 0.00242363 -2.2882e-20)
(-0.00446945 0.00969751 2.32724e-20)
(-0.00670876 0.0182486 -2.36264e-20)
(-0.00896671 0.0278 -3.59279e-20)
(-0.0111679 0.0381405 0)
(-0.0132597 0.0491065 -1.22524e-20)
(-0.0152061 0.0605695 1.23596e-20)
(-0.0169837 0.0724252 0)
(-0.0185773 0.0845874 2.51443e-20)
(-0.0199785 0.0969813 -2.52746e-20)
(-0.0211834 0.10954 -7.6364e-20)
(-0.0221925 0.122203 -5.44364e-23)
(-0.0230086 0.134911 5.13894e-20)
(-0.0236359 0.147609 -2.5766e-20)
(-0.0240797 0.160242 0)
(-0.0243458 0.172758 0)
(-0.0244407 0.185106 5.21063e-20)
(-0.0243708 0.197237 2.6154e-20)
(-0.024143 0.209104 -2.61111e-20)
(-0.0237645 0.220662 -2.62527e-20)
(-0.0232429 0.231868 5.24737e-20)
(-0.0225859 0.242684 -2.62096e-20)
(-0.0218012 0.253075 5.26802e-20)
(-0.0208962 0.263007 -1.05188e-19)
(-0.0198789 0.272453 1.05211e-19)
(-0.0187572 0.281388 -1.05208e-19)
(-0.0175398 0.28979 1.05177e-19)
(-0.0162355 0.297642 -1.05119e-19)
(-0.014853 0.304927 5.23995e-20)
(-0.0134017 0.311634 5.25749e-20)
(-0.0118922 0.317753 2.27316e-22)
(-0.0103362 0.323277 2.23104e-22)
(-0.00874116 0.328202 -5.20945e-20)
(-0.00711548 0.332525 1.71432e-22)
(-0.00558209 0.336256 -5.18602e-20)
(-0.00424429 0.339434 0)
(0.00100466 -0.00392658 4.9299e-21)
(0.00149605 -0.0071349 -5.36884e-21)
(0.000667665 -0.00649571 1.64918e-20)
(-0.000957847 -0.00306056 -2.24594e-20)
(-0.00309608 0.00245611 1.14442e-20)
(-0.00553029 0.0095715 0)
(-0.00810432 0.0179293 0)
(-0.0107038 0.0272604 4.78992e-20)
(-0.0132485 0.0373602 6.0622e-20)
(-0.0156824 0.0480706 -1.22486e-20)
(-0.0179677 0.0592672 6.187e-20)
(-0.0200792 0.0708499 -1.24692e-20)
(-0.0220008 0.0827355 0)
(-0.0237232 0.0948524 0)
(-0.0252418 0.107136 5.08977e-20)
(-0.0265564 0.119528 0)
(-0.0276692 0.131971 2.56946e-20)
(-0.0285837 0.144412 -2.58667e-20)
(-0.0293043 0.156799 0)
(-0.0298363 0.169079 -5.19977e-20)
(-0.0301854 0.181204 -2.60027e-20)
(-0.0303573 0.193126 -7.83284e-20)
(-0.0303582 0.204798 -2.62164e-20)
(-0.0301947 0.216177 2.61602e-20)
(-0.0298739 0.227221 5.2489e-20)
(-0.0294029 0.237892 0)
(-0.028789 0.248154 5.25615e-20)
(-0.0280393 0.257976 1.05262e-19)
(-0.0271616 0.26733 2.225e-22)
(-0.0261642 0.276192 -5.24561e-20)
(-0.0250559 0.284539 -5.26543e-20)
(-0.023846 0.292354 5.23893e-20)
(-0.0225442 0.299622 5.25561e-20)
(-0.0211611 0.306333 -1.0475e-19)
(-0.019709 0.312476 1.0458e-19)
(-0.0182016 0.318046 -5.22411e-20)
(-0.0166492 0.323042 5.19764e-20)
(-0.015063 0.327461 1.03911e-19)
(-0.0135712 0.331318 5.17341e-20)
(-0.0122836 0.334653 5.95536e-20)
(0.00103527 -0.00380925 -3.94621e-20)
(0.00146294 -0.00688909 3.76009e-20)
(0.000447523 -0.00622358 -3.29983e-20)
(-0.00142618 -0.00283785 3.37035e-20)
(-0.00385129 0.00256849 5.72427e-20)
(-0.00659376 0.0095259 -4.65783e-20)
(-0.00948688 0.0176888 5.91111e-20)
(-0.0124096 0.026797 3.59536e-20)
(-0.0152772 0.0366526 -8.48815e-20)
(-0.0180311 0.0471034 2.45258e-20)
(-0.0206317 0.0580296 1.23955e-20)
(-0.0230528 0.069335 2.4981e-20)
(-0.0252773 0.0809398 2.51863e-20)
(-0.0272952 0.0927751 -5.0663e-20)
(-0.0291018 0.104779 5.09652e-20)
(-0.0306962 0.116895 7.68719e-20)
(-0.0320799 0.129068 -7.71342e-20)
(-0.0332559 0.141246 1.03336e-19)
(-0.034228 0.15338 5.1874e-20)
(-0.035001 0.165419 7.80463e-20)
(-0.0355797 0.177314 2.61369e-20)
(-0.0359694 0.18902 5.22534e-20)
(-0.0361756 0.20049 -5.23797e-20)
(-0.0362042 0.211683 0)
(-0.036062 0.222556 -1.57596e-19)
(-0.0357556 0.233074 1.05078e-19)
(-0.0352916 0.2432 -5.23544e-20)
(-0.0346769 0.252904 -5.23639e-20)
(-0.0339194 0.262158 1.01871e-22)
(-0.0330275 0.270939 0)
(-0.0320101 0.279224 0)
(-0.0308773 0.286997 5.2432e-20)
(-0.0296394 0.294244 -5.24875e-20)
(-0.0283086 0.300953 5.21983e-20)
(-0.0268986 0.307119 -5.23008e-20)
(-0.0254259 0.312735 -5.21919e-20)
(-0.0239033 0.317803 0)
(-0.0223451 0.322324 -5.17404e-20)
(-0.0208837 0.326314 -5.15623e-20)
(-0.0196378 0.329819 -1.78615e-19)
(0.00105484 -0.00367025 3.94645e-20)
(0.00140592 -0.00659406 -3.75963e-20)
(0.000199599 -0.00588705 4.39963e-20)
(-0.00191932 -0.00254288 -7.86474e-20)
(-0.00462268 0.00275627 -5.72456e-20)
(-0.00766037 0.00955588 4.65782e-20)
(-0.0108559 0.0175223 -9.4593e-20)
(-0.0140824 0.0264048 -4.79328e-20)
(-0.0172513 0.0360132 6.06516e-20)
(-0.0203019 0.0462009 -1.10368e-19)
(-0.0231932 0.0568532 -7.42975e-20)
(-0.0258981 0.0678778 -2.50083e-20)
(-0.0283991 0.0791981 -7.55137e-20)
(-0.0306859 0.090748 7.59832e-20)
(-0.0327534 0.102468 -5.09653e-20)
(-0.0346004 0.114304 -5.12349e-20)
(-0.036228 0.126202 0)
(-0.0376386 0.138114 -5.16877e-20)
(-0.0388356 0.14999 -7.78597e-20)
(-0.0398231 0.161781 2.5989e-20)
(-0.0406058 0.173442 -5.21724e-20)
(-0.041188 0.184925 0)
(-0.0415746 0.196188 5.23799e-20)
(-0.0417714 0.207188 5.25627e-20)
(-0.0417843 0.217885 -5.24519e-20)
(-0.0416195 0.228242 0)
(-0.0412831 0.238225 0)
(-0.040782 0.247804 0)
(-0.0401237 0.256952 -4.36513e-24)
(-0.0393169 0.265645 0)
(-0.0383707 0.273862 -1.05041e-19)
(-0.0372957 0.281587 -1.20788e-22)
(-0.0361032 0.288807 -1.04737e-19)
(-0.0348065 0.295513 1.04468e-19)
(-0.0334215 0.301698 -5.20294e-20)
(-0.0319667 0.307361 5.20426e-20)
(-0.0304585 0.312504 0)
(-0.028914 0.317132 1.03538e-19)
(-0.0274687 0.321265 -5.14456e-20)
(-0.0262525 0.324951 0)
(0.00106231 -0.00351043 4.93567e-21)
(0.00132295 -0.00625223 0)
(-7.82631e-05 -0.00548964 -5.50194e-20)
(-0.00243905 -0.00217994 6.74235e-20)
(-0.00541136 0.00301459 3.43649e-20)
(-0.00873033 0.00965625 -4.66039e-20)
(-0.0122107 0.0174244 4.7304e-20)
(-0.0157204 0.0260788 -4.79674e-20)
(-0.0191679 0.035437 0)
(-0.0224906 0.0453586 4.90657e-20)
(-0.0256467 0.055734 -4.95704e-20)
(-0.0286086 0.0664748 -3.01254e-23)
(-0.0313585 0.0775078 0)
(-0.0338861 0.0887694 5.07363e-20)
(-0.0361863 0.100203 -2.55061e-20)
(-0.0382575 0.111755 5.13766e-20)
(-0.0401006 0.123376 2.58234e-20)
(-0.0417177 0.135017 -5.17768e-20)
(-0.0431116 0.146632 0)
(-0.0442862 0.158172 7.82139e-20)
(-0.0452455 0.169593 2.61818e-20)
(-0.0459936 0.18085 0)
(-0.0465348 0.1919 0)
(-0.0468742 0.202702 0)
(-0.0470174 0.213217 5.25356e-20)
(-0.0469699 0.223408 0)
(-0.0467377 0.233242 -5.26845e-20)
(-0.0463271 0.24269 1.05161e-19)
(-0.0457457 0.251725 -1.05013e-19)
(-0.045002 0.260324 0)
(-0.0441057 0.268468 5.24654e-20)
(-0.0430675 0.27614 -5.23674e-20)
(-0.0418998 0.28333 5.23094e-20)
(-0.0406172 0.290028 0)
(-0.0392375 0.296232 0)
(-0.0377816 0.301941 5.19915e-20)
(-0.0362694 0.307162 -5.16746e-20)
(-0.0347214 0.311904 1.03312e-19)
(-0.0332747 0.316189 -1.0265e-19)
(-0.032073 0.32007 0)
(0.00105666 -0.00333073 3.45717e-20)
(0.00121211 -0.00586623 1.07534e-20)
(-0.000387977 -0.00503518 4.40168e-20)
(-0.00298687 -0.00175369 4.49656e-20)
(-0.00621814 0.00333825 -4.58181e-20)
(-0.00980357 0.00982153 4.6604e-20)
(-0.0135502 0.0173897 4.73328e-20)
(-0.0173216 0.0258135 4.79675e-20)
(-0.0210238 0.0349187 0)
(-0.0245931 0.0445717 4.91128e-20)
(-0.0279869 0.0546678 4.95705e-20)
(-0.0311777 0.0651227 5.00031e-20)
(-0.0341478 0.0758662 0)
(-0.036887 0.0868376 3.93475e-23)
(-0.0393902 0.0979821 5.10449e-20)
(-0.041656 0.109249 -2.56181e-20)
(-0.0436851 0.12059 -2.57143e-20)
(-0.0454789 0.131959 7.77134e-20)
(-0.0470405 0.14331 7.4465e-23)
(-0.0483733 0.154596 -2.59855e-20)
(-0.0494809 0.165775 -5.22589e-20)
(-0.0503669 0.176802 0)
(-0.0510352 0.187636 0)
(-0.0514906 0.198236 0)
(-0.0517379 0.208563 0)
(-0.0517822 0.218584 0)
(-0.051629 0.228265 0)
(-0.0512846 0.237577 5.26882e-20)
(-0.0507563 0.246494 -5.24693e-20)
(-0.0500525 0.254995 0)
(-0.049183 0.263059 0)
(-0.0481591 0.270674 5.23675e-20)
(-0.0469939 0.277829 0)
(-0.0457033 0.284518 5.22088e-20)
(-0.0443068 0.290739 -5.19101e-20)
(-0.0428282 0.296495 0)
(-0.0412909 0.301796 1.0347e-19)
(-0.0397191 0.306656 -1.02822e-19)
(-0.0382501 0.311103 0)
(-0.0370444 0.315193 0)
(0.00103698 -0.00313223 -3.95052e-20)
(0.00107173 -0.00543896 -1.07505e-20)
(-0.00073119 -0.00452777 1.10082e-20)
(-0.00356397 -0.00126909 -4.49656e-20)
(-0.00704352 0.00372173 0)
(-0.0108798 0.0100459 0)
(-0.0148731 0.0174121 -3.5495e-20)
(-0.0188837 0.0256029 -1.19953e-20)
(-0.0228158 0.0344529 -2.43044e-20)
(-0.0266048 0.0438351 -2.45619e-20)
(-0.0302083 0.0536501 -2.48226e-20)
(-0.0335989 0.0638175 2.50079e-20)
(-0.0367592 0.0742704 2.52178e-20)
(-0.0396795 0.0849504 -2.54007e-20)
(-0.0423551 0.0958053 0)
(-0.0447846 0.106786 0)
(-0.0469685 0.117847 -5.16109e-20)
(-0.0489085 0.128942 0)
(-0.0506072 0.140028 0)
(-0.0520679 0.151059 5.23335e-20)
(-0.053294 0.161994 1.63297e-22)
(-0.0542886 0.172789 1.10271e-22)
(-0.0550554 0.183404 -5.2614e-20)
(-0.0555985 0.193799 5.25012e-20)
(-0.0559223 0.203937 5.26496e-20)
(-0.0560315 0.213784 -5.26642e-20)
(-0.0559311 0.223308 0)
(-0.0556272 0.23248 5.27061e-20)
(-0.0551267 0.241275 1.76206e-22)
(-0.054438 0.249673 -5.24278e-20)
(-0.0535709 0.257654 0)
(-0.0525369 0.265208 0)
(-0.0513501 0.272324 5.22996e-20)
(-0.0500274 0.279 -5.20113e-20)
(-0.04859 0.285235 -5.2006e-20)
(-0.0470645 0.291038 5.16983e-20)
(-0.0454783 0.296421 0)
(-0.0438593 0.301404 0)
(-0.042344 0.306023 0)
(-0.0411124 0.310335 -5.88032e-20)
(0.00100243 -0.00291613 4.94034e-20)
(0.000900373 -0.00497357 -2.15111e-20)
(-0.00110926 -0.0039718 1.101e-20)
(-0.00417127 -0.000731393 0)
(-0.00788773 0.00415922 5.73049e-20)
(-0.0119583 0.0103232 3.58404e-24)
(-0.0161779 0.0174856 4.73642e-20)
(-0.0204042 0.0254411 -3.60129e-20)
(-0.0245403 0.0340337 4.86092e-20)
(-0.0285214 0.0431434 -2.4562e-20)
(-0.0323054 0.052676 0)
(-0.0358655 0.0625551 2.50618e-20)
(-0.039185 0.0727168 -7.56815e-20)
(-0.0422551 0.0831055 0)
(-0.0450711 0.0936708 7.6785e-20)
(-0.047632 0.104366 -5.14015e-20)
(-0.0499386 0.115147 -5.16889e-20)
(-0.0519927 0.125969 2.59179e-20)
(-0.0537967 0.136789 0)
(-0.0553538 0.147565 -5.22277e-20)
(-0.0566672 0.158255 -5.24716e-20)
(-0.0577398 0.168818 -5.59097e-23)
(-0.0585749 0.179213 5.26073e-20)
(-0.0591762 0.189403 5.27237e-20)
(-0.0595476 0.19935 -1.05236e-19)
(-0.0596934 0.209022 5.26643e-20)
(-0.0596182 0.218386 0)
(-0.0593275 0.227415 -5.26615e-20)
(-0.0588283 0.236086 5.26081e-20)
(-0.0581284 0.244376 5.25348e-20)
(-0.0572377 0.252272 -5.24414e-20)
(-0.0561679 0.25976 5.23282e-20)
(-0.0549336 0.266834 0)
(-0.0535528 0.273493 5.21225e-20)
(-0.0520484 0.279741 1.03956e-19)
(-0.0504495 0.285589 -1.03293e-19)
(-0.048788 0.291055 1.03134e-19)
(-0.0470954 0.296165 2.06765e-22)
(-0.0455066 0.300964 -5.10152e-20)
(-0.0442241 0.305512 1.17443e-19)
(0.000952291 -0.00268375 -2.96501e-20)
(0.000696834 -0.00447343 -6.45362e-20)
(-0.00152324 -0.00337191 4.40452e-20)
(-0.00480934 -0.00014609 -3.37374e-20)
(-0.00875068 0.00464467 -1.14579e-20)
(-0.0130383 0.0106471 1.16584e-20)
(-0.0174629 0.0176036 -2.36689e-20)
(-0.0218804 0.0253218 -2.40048e-20)
(-0.0261938 0.0336551 2.4326e-20)
(-0.0303384 0.042491 -4.91747e-20)
(-0.0342728 0.0517405 -3.51775e-23)
(-0.0379712 0.0613311 2.5038e-20)
(-0.041418 0.071202 0)
(-0.044605 0.0813 -2.54669e-20)
(-0.0475284 0.091577 -2.56054e-20)
(-0.0501875 0.101988 5.14626e-20)
(-0.0525835 0.11249 0)
(-0.0547182 0.12304 0)
(-0.0565944 0.133597 5.22277e-20)
(-0.0582151 0.144119 -5.22346e-20)
(-0.0595833 0.154566 0)
(-0.0607019 0.164898 5.26375e-20)
(-0.0615738 0.175074 -5.24395e-20)
(-0.0622024 0.185058 -1.05381e-19)
(-0.0625912 0.194815 -1.68558e-22)
(-0.0627439 0.20431 5.27042e-20)
(-0.0626647 0.213514 -1.05366e-19)
(-0.0623589 0.2224 5.26616e-20)
(-0.0618329 0.230943 -5.26082e-20)
(-0.0610943 0.239125 8.45938e-23)
(-0.0601526 0.246931 7.27316e-23)
(-0.0590197 0.254351 -5.23282e-20)
(-0.0577105 0.26138 -5.21849e-20)
(-0.056244 0.268019 -5.20215e-20)
(-0.0546444 0.274276 -3.33607e-23)
(-0.0529434 0.280167 0)
(-0.0511777 0.285715 -5.14213e-20)
(-0.0493828 0.290954 1.02527e-19)
(-0.0476904 0.29594 -1.52891e-19)
(-0.0463289 0.300737 1.52365e-22)
(0.000885938 -0.00243651 -9.88521e-21)
(0.000460138 -0.00394201 8.60467e-20)
(-0.00197391 -0.00273286 -4.40438e-20)
(-0.00547847 0.000481129 3.37366e-20)
(-0.00963198 0.00517189 -9.17046e-20)
(-0.0141186 0.0110112 1.16599e-20)
(-0.0187261 0.0177596 -4.73795e-20)
(-0.0233097 0.0252384 0)
(-0.0277726 0.033311 0)
(-0.0320511 0.0418721 -4.92056e-20)
(-0.036105 0.0508381 2.48673e-20)
(-0.0399096 0.0601407 1.30783e-23)
(-0.0434507 0.0697219 2.52541e-20)
(-0.0467211 0.079531 0)
(-0.0497178 0.0895217 -7.69258e-20)
(-0.0524408 0.0996508 2.57377e-20)
(-0.0548916 0.109877 -5.18197e-20)
(-0.0570726 0.120158 0)
(-0.0589866 0.130455 0)
(-0.0606367 0.140726 5.04122e-23)
(-0.062026 0.150932 -5.24254e-20)
(-0.0631572 0.161035 5.26436e-20)
(-0.0640331 0.170995 -5.27762e-20)
(-0.0646566 0.180776 5.2663e-20)
(-0.0650311 0.190343 5.44825e-23)
(-0.0651596 0.199664 5.81423e-23)
(-0.0650461 0.208708 5.27358e-20)
(-0.0646953 0.21745 -5.27348e-20)
(-0.0641132 0.225866 0)
(-0.0633068 0.233939 -5.26367e-20)
(-0.0622855 0.241653 5.23859e-20)
(-0.061061 0.249002 0)
(-0.0596482 0.255982 5.21848e-20)
(-0.0580668 0.262598 -5.21133e-20)
(-0.0563423 0.268861 5.16997e-20)
(-0.0545088 0.274791 0)
(-0.0526079 0.280419 1.54292e-19)
(-0.0506795 0.285787 -1.02226e-19)
(-0.048851 0.290964 0)
(-0.0473802 0.296022 5.84732e-20)
(0.000802871 -0.00217588 7.90973e-20)
(0.000189542 -0.00338286 -4.30253e-20)
(-0.00246178 -0.00205957 -1.10112e-20)
(-0.00617863 0.00114447 1.12473e-20)
(-0.0105309 0.00573458 4.5853e-20)
(-0.0151977 0.0114089 0)
(-0.0199652 0.0179472 4.73798e-20)
(-0.0246889 0.0251847 7.20778e-20)
(-0.029273 0.0329951 2.43186e-20)
(-0.0336551 0.0412808 2.45794e-20)
(-0.0377966 0.0499637 2.4842e-20)
(-0.0416746 0.0589792 -7.52762e-20)
(-0.0452763 0.0682725 2.52712e-20)
(-0.0485956 0.077795 1.01966e-19)
(-0.0516306 0.0875026 2.55924e-20)
(-0.0543821 0.0973534 2.57619e-20)
(-0.0568522 0.107307 5.18199e-20)
(-0.0590439 0.117324 0)
(-0.0609602 0.127364 0)
(-0.0626044 0.137389 1.04914e-19)