/*--------------------------------*- C++ -*----------------------------------*\
  =========                 |
  \\      /  F ield         | OpenFOAM: The Open Source CFD Toolbox
   \\    /   O peration     | Website:  https://openfoam.org
    \\  /    A nd           | Version:  7
     \\/     M anipulation  |
\*---------------------------------------------------------------------------*/
FoamFile
{
    version     2.0;
    format      ascii;
    class       volVectorField;
    location    "13";
    object      U;
}
// * * * * * * * * * * * * * * * * * * * * * * * * * * * * * * * * * * * * * //

dimensions      [0 1 -1 0 0 0 0];

internalField   nonuniform List<vector> 
2000
(
(0.00427047 -0.0006365 -6.25084e-22)
(0.0244609 0.0491736 0)
(0.0624173 0.122829 0)
(0.104217 0.204045 -4.00235e-21)
(0.142506 0.279729 1.7191e-21)
(0.172026 0.341655 4.63306e-22)
(0.19102 0.386914 -3.0568e-21)
(0.200425 0.416408 0)
(0.202029 0.433063 0)
(0.200137 0.440098 0)
(0.00443203 -0.00643502 0)
(0.0189801 0.0325785 -2.93885e-21)
(0.0474894 0.0975077 2.70952e-21)
(0.0803872 0.173759 5.44094e-21)
(0.112741 0.249498 0)
(0.139906 0.315849 6.26008e-21)
(0.159379 0.368098 -5.82108e-21)
(0.170948 0.40528 0)
(0.175329 0.428944 1.50577e-20)
(0.175833 0.441844 -2.97046e-20)
(0.00540522 -0.0112832 0)
(0.0160408 0.0180049 2.46764e-20)
(0.0365704 0.0739726 0)
(0.0609607 0.143588 2.25942e-20)
(0.086457 0.216737 0)
(0.10958 0.284894 -2.24966e-20)
(0.127785 0.342317 0)
(0.140136 0.38645 2.68813e-20)
(0.146491 0.417316 -2.51764e-20)
(0.148767 0.436892 -2.72135e-20)
(0.00690232 -0.0151875 -6.4344e-21)
(0.0148998 0.00557469 -1.2159e-20)
(0.0288453 0.0527473 -5.90572e-21)
(0.045606 0.114693 -1.08616e-20)
(0.0640912 0.183048 -1.08372e-20)
(0.0820939 0.250298 1.07416e-20)
(0.0975257 0.310506 1.09317e-20)
(0.109192 0.360052 -1.85601e-21)
(0.116465 0.397583 2.39257e-20)
(0.119512 0.423992 2.72141e-20)
(0.00861428 -0.0181273 -6.62701e-21)
(0.0147707 -0.00468791 -1.33313e-20)
(0.023311 0.0340636 -2.56052e-20)
(0.033548 0.0878269 1.15977e-20)
(0.0455042 0.149783 0)
(0.0580338 0.213698 0)
(0.0697079 0.27408 -2.37546e-20)
(0.0794341 0.32688 -2.46328e-20)
(0.0865163 0.369788 2.3904e-20)
(0.0890677 0.40228 7.775e-20)
(0.0102081 -0.0200648 7.12303e-21)
(0.0148804 -0.0128363 7.09151e-21)
(0.0189314 0.0179118 -3.99608e-20)
(0.0237766 0.0633179 6.16019e-20)
(0.0300915 0.117851 -1.13685e-20)
(0.037451 0.176528 0)
(0.0450366 0.234646 0)
(0.0520506 0.288258 1.17072e-19)
(0.0580418 0.334678 -1.18239e-19)
(0.0588693 0.371634 2.50233e-20)
(0.0113359 -0.020956 6.07486e-20)
(0.0145343 -0.0189677 0)
(0.0147956 0.00414841 5.25047e-20)
(0.0153041 0.0411966 -4.93002e-20)
(0.0170451 0.0877259 0)
(0.0199905 0.139836 2.38448e-20)
(0.023756 0.193686 -6.85991e-20)
(0.0278966 0.245765 -9.3792e-20)
(0.0323314 0.29355 4.48387e-20)
(0.0305829 0.332637 4.78418e-20)
(0.01166 -0.0207735 -1.24469e-19)
(0.0131909 -0.0231976 -1.49541e-20)
(0.0102534 -0.00738091 -2.8743e-20)
(0.00739685 0.021402 -6.60369e-20)
(0.00566005 0.0596408 -2.53065e-20)
(0.00516942 0.104337 -2.55596e-20)
(0.00578813 0.152424 -1.71477e-21)
(0.00743039 0.200968 0)
(0.0103596 0.247937 0)
(0.00612078 0.286828 -2.45476e-21)
(0.0108987 -0.0195433 6.37216e-20)
(0.0105276 -0.0256391 -6.27046e-20)
(0.0050123 -0.016734 4.19924e-20)
(-0.000259209 0.00400037 9.41002e-20)
(-0.00440656 0.0338995 -2.54428e-20)
(-0.00730629 0.0706984 2.33861e-20)
(-0.00899337 0.11197 2.42309e-20)
(-0.00920574 0.155358 0)
(-0.00726079 0.199331 0)
(-0.012774 0.235455 3.09381e-21)
(0.00888489 -0.0173711 -8.47144e-21)
(0.00649792 -0.0263955 7.87692e-20)
(-0.000820289 -0.0238064 -1.48019e-20)
(-0.00748769 -0.010629 0)
(-0.0129758 0.0111973 0)
(-0.0172915 0.0399866 5.13844e-20)
(-0.0204785 0.0737852 0)
(-0.0220255 0.11059 -5.29243e-20)
(-0.0204054 0.14875 -2.44239e-21)
(-0.0221764 0.179163 4.9322e-20)
(0.179061 0.438146 1.55762e-21)
(0.144563 0.412461 -1.58674e-21)
(0.112815 0.395381 -1.87709e-21)
(0.0910629 0.385638 -2.01159e-21)
(0.0662915 0.38003 -2.16992e-21)
(0.0521236 0.37727 -3.92736e-24)
(0.0293199 0.377566 1.10605e-21)
(0.0206478 0.382371 3.46544e-21)
(0.00137732 0.388539 0)
(0.00252505 0.40164 -2.3774e-21)
(0.164568 0.445827 4.68491e-21)
(0.135768 0.421236 -7.0104e-21)
(0.10702 0.40329 1.25988e-20)
(0.0873937 0.39236 2.01517e-21)
(0.0646347 0.385819 4.11973e-21)
(0.0522253 0.382502 6.47641e-21)
(0.0308788 0.382327 -2.25358e-21)
(0.0228194 0.386332 -2.30471e-21)
(0.0039699 0.39145 4.57538e-21)
(0.00373711 0.402446 2.37187e-21)
(0.148229 0.450327 0)
(0.126478 0.428854 -6.36151e-21)
(0.101258 0.410757 -3.66692e-21)
(0.0837812 0.398569 0)
(0.0629653 0.391049 -1.2405e-20)
(0.052244 0.387229 4.04975e-21)
(0.0323045 0.386683 4.2124e-21)
(0.0248171 0.390066 1.32055e-20)
(0.00632591 0.394398 -4.56052e-21)
(0.00479199 0.403713 9.04137e-21)
(0.129962 0.450511 0)
(0.116514 0.434673 6.41746e-21)
(0.0954245 0.417481 0)
(0.0801696 0.404177 1.54935e-20)
(0.0612547 0.39571 -1.55702e-20)
(0.0521394 0.391437 -8.35286e-21)
(0.0335629 0.390626 -1.90289e-22)
(0.0266407 0.393599 -1.29856e-20)
(0.00848535 0.397409 -2.1724e-21)
(0.00572759 0.405447 -1.1195e-20)
(0.109777 0.445511 5.46398e-21)
(0.105903 0.438877 -1.52219e-20)
(0.0896014 0.423759 1.21593e-21)
(0.0766148 0.409381 -1.43065e-20)
(0.0595279 0.399949 0)
(0.0518949 0.395222 -8.16215e-21)
(0.0346176 0.39422 -1.62791e-22)
(0.02823 0.396927 1.69032e-20)
(0.0103772 0.400409 2.13869e-21)
(0.00652561 0.407461 -2.14697e-21)
(0.088065 0.433726 -3.76486e-20)
(0.094377 0.439796 2.78826e-20)
(0.0834225 0.428489 1.40064e-20)
(0.0729718 0.413797 -1.39914e-20)
(0.0577422 0.403637 -7.51098e-21)
(0.0514739 0.398456 0)
(0.0354597 0.397362 -1.61137e-20)
(0.0296891 0.400055 8.00634e-21)
(0.012202 0.403563 8.2412e-21)
(0.00728484 0.410018 8.23909e-21)
(0.0652194 0.416055 -4.73026e-21)
(0.0826662 0.439863 0)
(0.0774489 0.433098 0)
(0.069584 0.418146 0)
(0.056103 0.407223 -7.64153e-21)
(0.0509821 0.401536 1.51256e-20)
(0.0360466 0.400302 1.58977e-20)
(0.0307049 0.4029 -2.38629e-20)
(0.0134876 0.406405 4.02117e-21)
(0.00781565 0.412358 -1.21448e-20)
(0.0420956 0.388578 2.60894e-20)
(0.0693489 0.433354 2.49242e-20)
(0.0702258 0.434012 -2.46724e-20)
(0.0657693 0.421096 2.87966e-20)
(0.0542189 0.409943 -3.57375e-20)
(0.0501973 0.403754 0)
(0.0364945 0.402606 -7.5796e-21)
(0.0320532 0.405716 1.76902e-22)
(0.0153658 0.409935 -7.67159e-21)
(0.00857318 0.415998 -7.66307e-21)
(0.0200581 0.361578 -2.21229e-20)
(0.0582336 0.431042 0)
(0.064407 0.436802 -3.01905e-20)
(0.0630204 0.425022 5.5012e-20)
(0.0532093 0.413466 -2.07277e-20)
(0.0498429 0.406793 -3.6413e-21)
(0.036487 0.405148 7.56335e-21)
(0.0317796 0.407733 5.12826e-23)
(0.0152227 0.411756 1.12867e-20)
(0.00857718 0.417458 1.12582e-20)
(-0.00237938 0.312857 -2.12532e-20)
(0.0411992 0.411113 2.06456e-20)
(0.0546604 0.431502 3.11005e-21)
(0.0583198 0.425716 0)
(0.0505252 0.41443 0)
(0.0484075 0.407382 3.52849e-21)
(0.0371888 0.406588 1.42518e-20)
(0.0347764 0.411141 -1.40037e-20)
(0.0190093 0.417244 -3.51861e-21)
(0.00993889 0.424144 3.46228e-21)
(-0.0314374 0.285147 0)
(0.026734 0.408532 0)
(0.0423827 0.43547 0)
(0.0554817 0.435405 0)
(0.0547771 0.426839 0)
(0.0510758 0.419071 0)
(0.0318493 0.412143 0)
(0.0206623 0.409141 0)
(0.00562319 0.410807 0)
(0.00591769 0.415321 0)
(-0.0404487 0.252786 0)
(0.00717498 0.364115 0)
(0.0221483 0.409975 0)
(0.0390483 0.418633 0)
(0.0356685 0.413522 0)
(0.0403527 0.416929 0)
(0.0391276 0.426929 0)
(0.0415557 0.436746 0)
(0.0234652 0.447161 0)
(0.0116255 0.457018 0)
(0.0208162 0.301892 0)
(0.0111144 0.342381 0)
(0.0142479 0.390763 0)
(0.0425077 0.422252 0)
(0.0483608 0.432528 0)
(0.0419648 0.430936 0)
(0.0195746 0.427465 0)
(0.0121572 0.428053 0)
(-0.00101546 0.426177 0)
(0.0020229 0.424721 0)
(0.113348 0.378248 0)
(0.0682568 0.368979 0)
(0.0365166 0.372825 0)
(0.0327919 0.382654 0)
(0.0370278 0.403376 0)
(0.0551983 0.429168 0)
(0.0536104 0.445805 0)
(0.0490623 0.462012 0)
(0.0297105 0.472294 0)
(0.0135493 0.476733 0)
(0.192989 0.443601 0)
(0.147195 0.431866 0)
(0.113087 0.427093 0)
(0.0953165 0.424345 0)
(0.0693793 0.42185 0)
(0.0538141 0.428066 0)
(0.0364676 0.43606 0)
(0.0308063 0.443385 0)
(0.0199724 0.448888 0)
(0.0119304 0.453295 0)
(0.245688 0.471357 0)
(0.21007 0.460942 0)
(0.161669 0.43325 0)
(0.132182 0.420303 0)
(0.112309 0.429212 0)
(0.103123 0.449046 0)
(0.0834494 0.470941 0)
(0.0672477 0.491241 0)
(0.0427608 0.507722 0)
(0.0199427 0.522064 0)
(0.27273 0.488409 0)
(0.269019 0.517645 0)
(0.241973 0.511754 0)
(0.200313 0.485325 0)
(0.148821 0.464075 0)
(0.113635 0.45976 0)
(0.0806476 0.464517 0)
(0.0595323 0.473768 0)
(0.0327953 0.485286 0)
(0.0149968 0.501811 0)
(0.273735 0.45253 0)
(0.273483 0.489249 0)
(0.258689 0.501071 0)
(0.241859 0.504693 0)
(0.207196 0.507029 0)
(0.17445 0.51822 0)
(0.13393 0.533782 0)
(0.100328 0.55041 0)
(0.0567709 0.565476 0)
(0.0207167 0.583 0)
(0.280727 0.453535 0)
(0.310338 0.536592 0)
(0.294514 0.55445 0)
(0.266183 0.545299 0)
(0.222091 0.530758 0)
(0.181277 0.526162 0)
(0.135379 0.531249 0)
(0.0983578 0.542783 0)
(0.0562344 0.555144 0)
(0.0202765 0.567195 0)
(0.220532 0.321374 0)
(0.285437 0.459644 0)
(0.30493 0.538863 0)
(0.301766 0.577499 0)
(0.271773 0.595166 0)
(0.234579 0.608213 0)
(0.184149 0.622833 0)
(0.135647 0.639023 0)
(0.0801418 0.65459 0)
(0.029049 0.668355 0)
(-0.0476532 0.164478 2.35319e-20)
(0.00947756 0.214189 -2.29743e-20)
(0.102332 0.310475 2.71055e-21)
(0.181928 0.390868 0)
(0.233263 0.441415 0)
(0.259878 0.450658 1.37983e-21)
(0.26604 0.443953 -3.64064e-21)
(0.25167 0.388436 3.58249e-21)
(0.228169 0.347724 2.09188e-22)
(0.16835 0.2096 -2.05352e-22)
(-0.0219156 0.128928 -2.52812e-20)
(0.0517274 0.219024 0)
(0.139701 0.328823 1.64042e-20)
(0.204375 0.40388 -3.43163e-20)
(0.241366 0.44128 1.86881e-20)
(0.257678 0.438754 -1.39313e-21)
(0.25429 0.418141 2.01128e-21)
(0.233939 0.353463 2.46149e-21)
(0.204178 0.303583 -9.97832e-23)
(0.147618 0.166636 -2.47753e-22)
(0.0127965 0.120398 3.04924e-20)
(0.0975411 0.244055 -2.08245e-20)
(0.171762 0.351215 2.06352e-20)
(0.220923 0.412271 -1.4473e-20)
(0.245653 0.434519 1.10159e-20)
(0.252551 0.420184 0)
(0.241037 0.387222 -2.01575e-21)
(0.215256 0.315228 -8.1112e-23)
(0.179498 0.257069 -8.12251e-22)
(0.126652 0.124012 5.75279e-23)
(0.0557167 0.143745 -5.31378e-21)
(0.141546 0.277731 0)
(0.198798 0.370502 0)
(0.232168 0.414327 0)
(0.245121 0.421445 8.30367e-21)
(0.242952 0.395536 -5.37303e-21)
(0.223905 0.35097 2.38736e-22)
(0.193306 0.27296 -9.53521e-22)
(0.154017 0.209093 -1.66522e-22)
(0.106164 0.0828018 2.76222e-22)
(0.109006 0.188085 1.12399e-21)
(0.180322 0.310714 -1.53253e-20)
(0.2186 0.383043 -7.54713e-21)
(0.237273 0.408824 7.54159e-21)
(0.239898 0.40145 -2.88988e-21)
(0.229558 0.364615 0)
(0.204078 0.309947 -1.79023e-21)
(0.169705 0.227899 2.17171e-21)
(0.128826 0.16086 -9.559e-22)
(0.086619 0.0441145 -1.12306e-22)
(0.161716 0.237691 -3.63997e-20)
(0.209995 0.336565 5.81161e-21)
(0.230642 0.386686 1.36322e-21)
(0.236813 0.395315 6.93285e-21)
(0.230403 0.37468 0)
(0.212721 0.32799 0)
(0.181921 0.265062 0)
(0.145002 0.181116 1.07718e-21)
(0.104458 0.113532 0)
(0.0685094 0.00900475 0)
(0.206002 0.281502 0)
(0.229949 0.352005 1.14762e-20)
(0.235497 0.380765 -7.57995e-21)
(0.231342 0.373979 -5.24354e-21)
(0.217094 0.341564 5.26989e-21)
(0.19304 0.286392 1.71283e-21)
(0.158212 0.217397 -1.90293e-21)
(0.120154 0.133877 -3.80751e-21)
(0.0814963 0.0682674 3.6254e-22)
(0.0507122 -0.021621 1.61247e-22)
(0.238003 0.313404 0)
(0.240932 0.355977 -3.90071e-21)
(0.234166 0.365626 -1.50385e-21)
(0.221573 0.345415 0)
(0.200587 0.302867 9.27529e-22)
(0.171234 0.240887 -2.84683e-21)
(0.133775 0.168244 2.05414e-21)
(0.0960845 0.0875447 4.17616e-22)
(0.0606259 0.0263622 -3.12356e-22)
(0.0380805 -0.0475161 -9.25598e-23)
(0.257346 0.330937 3.62881e-21)
(0.244349 0.348965 3.10229e-21)
(0.227805 0.342236 -9.48189e-22)
(0.208242 0.310534 5.73838e-22)
(0.18157 0.259618 1.0478e-21)
(0.148123 0.192743 1.24989e-21)
(0.109503 0.118979 -3.14478e-22)
(0.073699 0.0434239 -2.24173e-22)
(0.0426897 -0.0111229 3.13376e-22)
(0.027353 -0.0691192 6.07918e-24)
(0.265957 0.334706 -7.83969e-22)
(0.241763 0.332372 8.02153e-22)
(0.21751 0.311857 -6.80564e-22)
(0.192145 0.270475 -5.72889e-22)
(0.160838 0.213063 4.17246e-22)
(0.124598 0.143372 -8.15597e-22)
(0.0862644 0.0709789 4.44153e-22)
(0.053667 0.00258102 9.36421e-23)
(0.0281633 -0.0437214 0)
(0.0186839 -0.0870358 -6.09064e-24)
(0.266499 0.32702 7.12802e-22)
(0.23457 0.307843 -7.28891e-22)
(0.204309 0.27586 -5.63071e-22)
(0.17416 0.226561 -4.77656e-22)
(0.139275 0.164593 -3.83583e-22)
(0.101581 0.0942199 5.02257e-23)
(0.0648574 0.0255381 1.51705e-22)
(0.0364802 -0.0340737 3.22481e-22)
(0.017001 -0.0711711 0)
(0.0122215 -0.101776 -2.37092e-23)
(0.261245 0.310358 0)
(0.223933 0.276945 -2.32493e-21)
(0.189158 0.235688 3.93823e-21)
(0.155182 0.180232 4.7831e-22)
(0.117799 0.115646 7.42138e-22)
(0.0799377 0.0466617 9.62952e-22)
(0.0459477 -0.0162661 -2.72949e-22)
(0.0224803 -0.0659948 -1.99812e-22)
(0.00892993 -0.093669 2.47518e-22)
(0.00770457 -0.113959 2.36493e-23)
(0.251789 0.286691 0)
(0.210846 0.241193 -2.24564e-21)
(0.172884 0.192835 -1.03414e-21)
(0.136033 0.132945 0)
(0.0972497 0.0675902 -2.0565e-21)
(0.0603114 0.00189275 6.9617e-22)
(0.0299972 -0.0536881 5.36834e-22)
(0.0117751 -0.0930379 1.16154e-21)
(0.00354533 -0.111797 -2.4671e-22)
(0.00473224 -0.124276 1.22467e-22)
(0.239241 0.257635 0)
(0.196226 0.202124 2.26387e-21)
(0.156234 0.148746 0)
(0.11748 0.0860295 2.87908e-21)
(0.078242 0.0216343 -2.89434e-21)
(0.0431432 -0.0391536 -1.03812e-21)
(0.0172405 -0.0863258 7.56582e-23)
(0.00423088 -0.11541 -1.13e-21)
(0.000355181 -0.126391 -2.20058e-22)
(0.00288692 -0.133406 -1.94756e-22)
(0.224536 0.224705 1.8888e-20)
(0.181 0.161254 -7.25639e-21)
(0.140014 0.104714 -6.37526e-22)
(0.100128 0.0406432 -3.19813e-21)
(0.0611306 -0.021238 0)
(0.0287699 -0.0759126 -9.91953e-22)
(0.00767086 -0.114124 2.02208e-22)
(-0.00042724 -0.133637 1.48959e-21)
(-0.00119463 -0.138404 7.11248e-23)
(0.0017895 -0.141952 -7.10511e-23)
(0.208692 0.189433 1.07153e-21)
(0.166126 0.119972 1.09128e-20)
(0.124965 0.0618435 3.05078e-21)
(0.0841202 -0.00226082 -3.04966e-21)
(0.0463274 -0.0603986 -1.17149e-21)
(0.0173496 -0.108093 0)
(0.00109533 -0.137345 -1.64167e-21)
(-0.0029718 -0.148471 8.88899e-22)
(-0.00169144 -0.148765 5.4932e-22)
(0.00113717 -0.150407 1.29091e-22)
(0.192793 0.153354 -2.36946e-21)
(0.152245 0.0794959 0)
(0.111116 0.0210659 0)
(0.0699415 -0.0420393 0)
(0.0341645 -0.0954824 -9.97609e-22)
(0.00874447 -0.135653 2.16668e-21)
(-0.00300023 -0.156403 1.62433e-21)
(-0.00407743 -0.16077 -2.06595e-21)
(-0.00162271 -0.1584 1.35881e-22)
(0.000721368 -0.159162 -2.62283e-22)
(0.177002 0.118141 -5.21323e-21)
(0.138941 0.0408874 7.37271e-21)
(0.0986287 -0.0170091 -7.30651e-21)
(0.0581343 -0.0783237 4.94523e-21)
(0.0245742 -0.126286 -6.02957e-21)
(0.00268198 -0.158762 0)
(-0.00531824 -0.171954 -8.41055e-22)
(-0.00403617 -0.171459 6.27096e-24)
(-0.00129265 -0.168 -4.00812e-22)
(0.000419431 -0.168491 -1.26045e-22)
(0.160626 0.0859686 -2.52475e-21)
(0.125758 0.00460711 0)
(0.0877206 -0.0522779 -6.81596e-21)
(0.0487011 -0.110985 1.08433e-20)
(0.0176228 -0.152842 -3.73876e-21)
(-0.00096964 -0.177728 -4.9797e-22)
(-0.00625526 -0.184735 8.39148e-22)
(-0.00338639 -0.181407 1.1894e-22)
(-0.000897444 -0.178048 7.75914e-22)
(0.000179368 -0.178545 2.52015e-22)
(0.149159 0.0590638 -1.02337e-20)
(0.115193 -0.0291729 9.95557e-21)
(0.0782361 -0.0848915 8.81669e-22)
(0.0408669 -0.140204 0)
(0.0127902 -0.175364 0)
(-0.0032249 -0.192954 5.11785e-22)
(-0.0063994 -0.195396 1.51132e-21)
(-0.00277199 -0.191278 -1.48446e-21)
(-0.000619229 -0.188837 -1.31098e-22)
(4.62782e-05 -0.189376 1.2822e-22)
(0.15593 0.00593617 0)
(0.103042 -0.0992738 0)
(0.0565207 -0.154548 0)
(0.0175612 -0.202045 0)
(-0.00139357 -0.220218 0)
(-0.00680161 -0.221756 0)
(-0.00421321 -0.21787 0)
(-0.00027557 -0.216153 0)
(0.00025641 -0.216911 0)
(-0.00020783 -0.21683 0)
(0.0526232 -0.232897 0)
(-0.00664772 -0.311054 0)
(0.00596939 -0.292647 0)
(0.00366987 -0.303198 0)
(0.00704057 -0.285493 0)
(0.00141076 -0.280849 0)
(-0.0013798 -0.274984 0)
(-0.00159798 -0.276398 0)
(-0.000292052 -0.276569 0)
(-1.30122e-05 -0.275277 0)
(0.0692776 -0.309703 0)
(0.0387669 -0.343242 0)
(0.0444264 -0.307642 0)
(0.0188334 -0.333154 0)
(0.0162865 -0.321216 0)
(0.00141655 -0.332373 0)
(-0.000389344 -0.326086 0)
(-0.000586143 -0.327509 0)
(0.0015354 -0.32602 0)
(0.000112751 -0.325952 0)
(0.0376849 -0.354539 0)
(0.0256237 -0.384485 0)
(0.0213528 -0.368409 0)
(0.00571783 -0.39423 0)
(0.0104385 -0.378957 0)
(-0.00213063 -0.391623 0)
(0.00398885 -0.379501 0)
(0.000488905 -0.384164 0)
(0.00214892 -0.380482 0)
(-0.000219227 -0.381582 0)
(0.0392455 -0.411001 0)
(0.0258571 -0.448824 0)
(0.017445 -0.435594 0)
(0.00995091 -0.453166 0)
(0.0109212 -0.441288 0)
(0.00133548 -0.451877 0)
(0.00664179 -0.441499 0)
(-0.000624237 -0.450413 0)
(0.00350739 -0.443125 0)
(-0.000649249 -0.446609 0)
(0.0247554 -0.489876 0)
(0.0153076 -0.525645 0)
(0.0156266 -0.504061 0)
(0.00923523 -0.52446 0)
(0.00683392 -0.512153 0)
(0.0023518 -0.524019 0)
(0.00498906 -0.516224 0)
(-5.72754e-05 -0.523539 0)
(0.00418921 -0.515878 0)
(-0.00153077 -0.521253 0)
(0.0204002 -0.580606 0)
(0.0143413 -0.614223 0)
(0.0111063 -0.593314 0)
(0.0058791 -0.61745 0)
(0.00575657 -0.600147 0)
(0.00273315 -0.617041 0)
(0.00340525 -0.605681 0)
(0.000755174 -0.614838 0)
(0.00270123 -0.607071 0)
(-0.0013211 -0.612071 0)
(0.0147575 -0.706425 0)
(0.0104255 -0.737956 0)
(0.00886402 -0.717392 0)
(0.00487994 -0.738919 0)
(0.00375726 -0.72316 0)
(0.00195238 -0.740392 0)
(0.00250473 -0.727125 0)
(0.00070565 -0.73909 0)
(0.00195596 -0.727988 0)
(-0.000722321 -0.734946 0)
(0.00895999 -0.863891 0)
(0.00593101 -0.883034 0)
(0.0048111 -0.872017 0)
(0.00270223 -0.887591 0)
(0.00261416 -0.877496 0)
(0.00132313 -0.888725 0)
(0.0013482 -0.880868 0)
(0.000527888 -0.889415 0)
(0.000328431 -0.880584 0)
(-0.000584538 -0.888011 0)
(0.0023454 -0.984042 0)
(0.00172849 -0.99277 0)
(0.00155402 -0.991246 0)
(0.000998829 -0.997991 0)
(0.0010738 -0.995657 0)
(0.000560181 -1.00107 0)
(-0.000109505 -0.998205 0)
(-0.000365697 -1.00089 0)
(-6.40901e-05 -0.996307 0)
(-0.000218107 -1.00017 0)
(0.144648 -0.021592 1.39267e-20)
(0.0596997 -0.240709 -1.40998e-20)
(0.0638165 -0.32258 1.84232e-21)
(0.0379109 -0.367408 0)
(0.043419 -0.426881 0)
(0.0265167 -0.507021 1.91491e-21)
(0.0228236 -0.598916 -7.97764e-21)
(0.0157599 -0.7215 7.96391e-21)
(0.00977449 -0.872668 2.08701e-21)
(0.0029645 -0.983613 -2.08298e-21)
(0.139461 -0.0423135 -1.74726e-20)
(0.0628237 -0.249476 0)
(0.0607412 -0.327062 1.20501e-20)
(0.0384875 -0.371035 -2.73651e-20)
(0.045078 -0.431576 1.72318e-20)
(0.0274221 -0.512144 -1.72297e-21)
(0.0239224 -0.604148 3.77063e-21)
(0.0162759 -0.725776 7.73822e-21)
(0.010109 -0.873517 2.1217e-21)
(0.00321762 -0.981951 2.13616e-21)
(0.133496 -0.0586753 2.16059e-20)
(0.0659106 -0.262981 -1.41823e-20)
(0.0582229 -0.333698 1.40451e-20)
(0.040035 -0.375189 -1.43624e-20)
(0.04686 -0.435961 1.06824e-20)
(0.0286766 -0.516258 0)
(0.0252229 -0.608213 -3.78007e-21)
(0.0171968 -0.728911 2.24196e-22)
(0.01065 -0.872592 -4.01478e-21)
(0.00341865 -0.978686 -4.11792e-21)
(0.128436 -0.0719199 -3.50211e-21)
(0.068553 -0.272608 0)
(0.056439 -0.339678 0)
(0.0426343 -0.379813 0)
(0.0489082 -0.440249 1.15258e-20)
(0.0303766 -0.519722 -7.64152e-21)
(0.0267613 -0.611865 -7.81722e-24)
(0.018537 -0.731593 -4.40295e-21)
(0.0114796 -0.871884 -2.2944e-21)
(0.00365437 -0.975393 -2.49456e-21)
(0.12539 -0.0825066 -9.43445e-22)
(0.0709662 -0.277609 -1.09637e-20)
(0.055295 -0.343431 -7.30523e-21)
(0.0460295 -0.384027 7.30129e-21)
(0.0512578 -0.44392 -3.83302e-21)
(0.0325363 -0.522405 0)
(0.0285133 -0.615024 -4.21275e-21)
(0.0201715 -0.733901 9.10441e-21)
(0.0125474 -0.871698 -4.67307e-21)
(0.00398199 -0.972675 4.84623e-21)
(0.124539 -0.0896184 -3.12243e-20)
(0.0735452 -0.279771 4.01519e-21)
(0.0550451 -0.345457 -1.40443e-22)
(0.0500004 -0.387425 7.55364e-21)
(0.0538997 -0.446483 0)
(0.0351395 -0.524028 0)
(0.0304489 -0.617354 0)
(0.0219816 -0.735549 4.88098e-21)
(0.0137617 -0.871519 0)
(0.00439966 -0.970342 0)
(0.125991 -0.0927417 0)
(0.0766186 -0.279664 1.1392e-20)
(0.0560683 -0.346585 -7.59477e-21)
(0.0545007 -0.390105 -8.21455e-21)
(0.0568712 -0.447749 8.25751e-21)
(0.0381775 -0.524414 4.57923e-21)
(0.0325657 -0.618623 -4.59465e-21)
(0.0239083 -0.73629 -1.74917e-20)
(0.0150425 -0.870831 1.23557e-21)
(0.0048753 -0.967969 -4.30336e-21)
(0.130155 -0.0916494 0)
(0.0805125 -0.276885 -3.80446e-21)
(0.058611 -0.347007 -1.99495e-21)
(0.0595804 -0.392146 0)
(0.0602594 -0.447701 2.26047e-21)
(0.0416574 -0.523495 -6.92469e-21)
(0.034896 -0.618721 7.40865e-21)
(0.0259665 -0.735962 2.57681e-21)
(0.0163876 -0.869282 -2.85159e-21)
(0.00539518 -0.965158 5.70234e-21)
(0.137543 -0.0862833 4.44594e-21)
(0.0856482 -0.27101 3.98075e-21)
(0.062773 -0.346446 -9.96051e-22)
(0.0652986 -0.393399 1.1056e-21)
(0.0641537 -0.446343 2.24614e-21)
(0.0455895 -0.521275 3.62949e-21)
(0.0374793 -0.617628 -1.33321e-21)
(0.0281836 -0.734605 -1.41434e-21)
(0.017805 -0.866885 2.86104e-21)
(0.00595059 -0.961816 1.56584e-21)
(0.148485 -0.0767847 -1.04413e-21)
(0.0925495 -0.261752 1.04866e-21)
(0.0685858 -0.344528 -1.02814e-21)
(0.0717112 -0.393589 -1.10427e-21)
(0.0686155 -0.443626 1.23252e-21)
(0.0499826 -0.517753 -2.49136e-21)
(0.0403686 -0.61527 2.0341e-21)
(0.0306101 -0.732169 7.09438e-22)
(0.0193653 -0.863577 0)
(0.00657185 -0.957871 -1.56926e-21)
(0.162948 -0.0633108 1.08078e-21)
(0.101857 -0.248796 -1.08526e-21)
(0.076056 -0.340901 -1.10332e-21)
(0.078885 -0.392472 -1.19723e-21)
(0.0736735 -0.439512 -1.28977e-21)
(0.0548348 -0.512973 -6.51716e-23)
(0.0435963 -0.611647 7.28168e-22)
(0.0332413 -0.728804 2.29259e-21)
(0.0210606 -0.859602 0)
(0.00723979 -0.953522 -1.72332e-21)
(0.180447 -0.0460892 0)
(0.114188 -0.231841 -4.38584e-21)
(0.0852038 -0.335142 7.81824e-21)
(0.0868861 -0.389869 1.19936e-21)
(0.0793367 -0.433996 2.6883e-21)
(0.0601481 -0.506918 4.22441e-21)
(0.0472305 -0.606612 -1.46096e-21)
(0.0361304 -0.724309 -1.55149e-21)
(0.0229801 -0.854725 3.45021e-21)
(0.00801039 -0.948636 1.71921e-21)
(0.200234 -0.0255226 0)
(0.129949 -0.210547 -4.55514e-21)
(0.0961016 -0.326622 -2.30041e-21)
(0.0957439 -0.385739 0)
(0.085611 -0.427207 -8.34803e-21)
(0.065908 -0.499654 2.83497e-21)
(0.0512786 -0.60037 3.17848e-21)
(0.039215 -0.718954 1.00125e-20)
(0.0250429 -0.849351 -3.43907e-21)
(0.00879702 -0.943499 7.51148e-21)
(0.221377 -0.00430467 0)
(0.149114 -0.184962 4.59358e-21)
(0.108965 -0.314618 0)
(0.105402 -0.380054 1.10731e-20)
(0.0925581 -0.419206 -1.11293e-20)
(0.0721419 -0.491114 -6.29562e-21)
(0.0558638 -0.592518 -5.11853e-23)
(0.0426409 -0.712142 -1.02872e-20)
(0.0273888 -0.842843 -1.70714e-21)
(0.00973006 -0.937695 -9.33716e-21)
(0.242701 0.0161608 4.53158e-20)
(0.17186 -0.155574 -1.59703e-20)
(0.124356 -0.298507 6.30726e-22)
(0.115723 -0.37269 -1.06989e-20)
(0.10019 -0.410293 0)
(0.0788453 -0.481424 -6.58371e-21)
(0.0609434 -0.583506 -4.00371e-22)
(0.0462213 -0.704795 1.40706e-20)
(0.0298067 -0.836176 1.94079e-21)
(0.0105884 -0.931762 -1.94765e-21)
(0.263295 0.0360637 3.58816e-21)
(0.197342 -0.123358 2.74161e-20)
(0.143221 -0.277826 1.12018e-20)
(0.126493 -0.363069 -1.11964e-20)
(0.10865 -0.400257 -6.42761e-21)
(0.0862075 -0.469949 0)
(0.0667013 -0.572631 -1.45647e-20)
(0.0502773 -0.695476 7.25477e-21)
(0.0326396 -0.827903 7.71351e-21)
(0.0117051 -0.92485 8.38985e-21)
(0.282281 0.0543381 -6.69218e-21)
(0.22427 -0.089625 0)
(0.166561 -0.252357 0)
(0.13736 -0.351078 0)
(0.117757 -0.389702 -7.12032e-21)
(0.0939525 -0.45792 1.35253e-20)
(0.0728124 -0.561538 1.48603e-20)
(0.054364 -0.686657 -2.31759e-20)
(0.0353974 -0.820278 4.1801e-21)
(0.0125866 -0.918115 -1.245e-20)
(0.29879 0.0705245 -1.62129e-20)
(0.251297 -0.0559083 2.39139e-20)
(0.194403 -0.2223 -2.37161e-20)
(0.148333 -0.33494 2.66787e-20)
(0.127817 -0.376929 -3.34564e-20)
(0.102739 -0.443629 0)
(0.0798796 -0.547457 -7.84307e-21)
(0.0593441 -0.674344 -3.39115e-22)
(0.0388767 -0.809872 -8.69598e-21)
(0.0139505 -0.909858 -8.93956e-21)
(0.311791 0.082396 -7.49184e-21)
(0.277143 -0.023729 0)
(0.22484 -0.188293 -2.95937e-20)
(0.158684 -0.317376 5.40216e-20)
(0.137364 -0.366115 -2.05604e-20)
(0.111227 -0.431737 -3.85004e-21)
(0.0868519 -0.536065 7.82643e-21)
(0.0638659 -0.665455 -4.35919e-22)
(0.041904 -0.802082 1.26462e-20)
(0.0147942 -0.902464 1.32173e-20)
(0.320238 0.0899563 -3.22549e-20)
(0.30107 0.00522258 3.08489e-20)
(0.253544 -0.147939 3.32209e-21)
(0.173542 -0.289162 0)
(0.149991 -0.348852 0)
(0.122129 -0.413632 3.72879e-21)
(0.0958536 -0.517336 1.62354e-20)
(0.0704052 -0.648704 -1.56991e-20)
(0.0463563 -0.788822 -4.2675e-21)
(0.0165 -0.892527 4.15584e-21)
(0.327643 0.125637 0)
(0.347669 0.0446447 0)
(0.284276 -0.0988359 0)
(0.206135 -0.256763 0)
(0.162913 -0.338205 0)
(0.143308 -0.399342 0)
(0.113358 -0.50104 0)
(0.0813352 -0.635021 0)
(0.053836 -0.77326 0)
(0.0183864 -0.873773 0)
(0.371347 0.0978804 0)
(0.391559 0.0468933 0)
(0.353259 -0.0447321 0)
(0.28519 -0.187365 0)
(0.209879 -0.301162 0)
(0.178338 -0.37814 0)
(0.148176 -0.470602 0)
(0.108011 -0.603637 0)
(0.0712931 -0.736297 0)
(0.023048 -0.830386 0)
(0.386604 0.0865136 0)
(0.413903 0.0523782 0)
(0.403271 -0.0082735 0)
(0.362877 -0.117421 0)
(0.286142 -0.238141 0)
(0.229284 -0.340224 0)
(0.187524 -0.439111 0)
(0.140144 -0.567145 0)
(0.0917114 -0.692879 0)
(0.0334546 -0.780362 0)
(0.386999 0.0612384 0)
(0.415805 0.0368881 0)
(0.424946 0.000926466 0)
(0.414317 -0.0715057 0)
(0.363688 -0.170787 0)
(0.299668 -0.279412 0)
(0.240355 -0.390818 0)
(0.176245 -0.515169 0)
(0.110354 -0.632576 0)
(0.0406392 -0.702611 0)
(0.377193 0.035961 0)
(0.402328 0.0159481 0)
(0.418566 -0.00870979 0)
(0.42617 -0.0542292 0)
(0.405991 -0.122503 0)
(0.359071 -0.211593 0)
(0.297965 -0.318137 0)
(0.218523 -0.435242 0)
(0.133369 -0.547769 0)
(0.0403766 -0.621846 0)
(0.364084 0.0134152 0)
(0.383572 -0.00444696 0)
(0.397892 -0.0251649 0)
(0.408299 -0.0577682 0)
(0.404015 -0.10458 0)
(0.376921 -0.167847 0)
(0.330356 -0.25221 0)
(0.252882 -0.350398 0)
(0.158114 -0.443499 0)
(0.0551081 -0.509383 0)
(0.350937 -0.00230005 0)
(0.365216 -0.0167409 0)
(0.37392 -0.0333194 0)
(0.378591 -0.0567783 0)
(0.37436 -0.0892472 0)
(0.352584 -0.130917 0)
(0.315846 -0.187396 0)
(0.251292 -0.258559 0)
(0.157571 -0.332497 0)
(0.0571308 -0.403985 0)
(0.338949 -0.0209557 0)
(0.351793 -0.0315356 0)
(0.353783 -0.0455138 0)
(0.354676 -0.0632465 0)
(0.346945 -0.0887539 0)
(0.325799 -0.118146 0)
(0.292043 -0.156842 0)
(0.237772 -0.207566 0)
(0.1538 -0.253873 0)
(0.0823157 -0.277521 0)
(0.365502 -0.0176657 0)
(0.373631 -0.0231563 0)
(0.349852 -0.031343 0)
(0.339171 -0.0407468 0)
(0.311427 -0.0535382 0)
(0.275703 -0.0688314 0)
(0.224793 -0.088173 0)
(0.169004 -0.112007 0)
(0.0804695 -0.144979 0)
(-0.00426387 -0.198942 0)
(0.663459 -0.0153234 0)
(0.654296 -0.0199148 0)
(0.623583 -0.0254791 0)
(0.600048 -0.0319488 0)
(0.555724 -0.0398281 0)
(0.508576 -0.0506022 0)
(0.441479 -0.063767 0)
(0.359353 -0.0815907 0)
(0.243973 -0.113064 0)
(0.168174 -0.169752 0)
(0.352231 0.118 4.39909e-20)
(0.380783 0.0951242 -4.2762e-20)
(0.387831 0.0847534 6.09501e-21)
(0.383403 0.0599884 0)
(0.371139 0.0380579 0)
(0.357077 0.0176307 7.173e-21)
(0.344202 0.00204151 -2.99853e-20)
(0.335966 -0.0165139 2.93704e-20)
(0.381268 -0.0143312 7.52896e-21)
(0.678224 -0.0128674 -7.68136e-21)
(0.354222 0.113969 -4.8014e-20)
(0.374762 0.0937307 0)
(0.378836 0.0834273 4.06638e-20)
(0.374138 0.0594267 -9.47169e-20)
(0.362842 0.0390605 6.12355e-20)
(0.350258 0.0193928 -6.6121e-21)
(0.339031 0.00384506 1.35936e-20)
(0.333801 -0.0147103 2.78274e-20)
(0.386901 -0.0129631 7.00884e-21)
(0.683708 -0.0118212 6.95739e-21)
(0.354726 0.111049 5.70495e-20)
(0.367078 0.0928871 -4.31964e-20)
(0.367646 0.0820715 4.28075e-20)
(0.361909 0.0589256 -4.93665e-20)
(0.351932 0.0398633 3.63727e-20)
(0.341401 0.0207742 0)
(0.332466 0.00527335 -1.36267e-20)
(0.331124 -0.0131659 -9.43063e-23)
(0.391618 -0.0117173 -1.39779e-20)
(0.688851 -0.0107993 -1.40792e-20)
(0.355707 0.108832 -9.46979e-21)
(0.362605 0.0926682 0)
(0.360381 0.0812573 0)
(0.35298 0.0589778 0)
(0.343415 0.0407742 3.85496e-20)
(0.333991 0.0220042 -2.57974e-20)
(0.326645 0.00646828 -2.07666e-22)
(0.328844 -0.0117665 -1.40779e-20)
(0.395886 -0.0106355 -7.03044e-21)
(0.693913 -0.00986448 -7.02199e-21)
(0.355696 0.107076 2.5922e-21)
(0.358644 0.0928872 -2.90459e-20)
(0.354776 0.0810549 -2.30106e-20)
(0.346181 0.059697 2.3003e-20)
(0.336736 0.0419883 -1.25852e-20)
(0.327868 0.0233161 0)
(0.321566 0.0076405 -1.35948e-20)
(0.326914 -0.0103794 2.78665e-20)
(0.399813 -0.0097085 -1.39362e-20)
(0.698737 -0.00904394 1.41875e-20)
(0.354433 0.106088 -7.62189e-20)
(0.353529 0.0935997 7.83561e-21)
(0.348593 0.081384 -1.54053e-21)
(0.339427 0.0609276 2.29451e-20)
(0.33031 0.0434688 0)
(0.321987 0.0247595 0)
(0.316644 0.00886807 0)
(0.325002 -0.00896334 1.38128e-20)
(0.403261 -0.00891218 0)
(0.703138 -0.00833569 0)
(0.352451 0.106215 0)
(0.347675 0.0950049 3.15021e-20)
(0.341726 0.0822802 -2.13403e-20)
(0.332222 0.0625539 -2.42469e-20)
(0.323561 0.0451396 2.43765e-20)
(0.315882 0.026305 1.32349e-20)
(0.311568 0.0101486 -1.31467e-20)
(0.32289 -0.00752518 -4.82772e-20)
(0.406055 -0.00822166 3.46032e-21)
(0.70702 -0.00772348 -1.05747e-20)
(0.350041 0.107637 0)
(0.34171 0.0972173 -1.01921e-20)
(0.334728 0.0838201 -5.53885e-21)
(0.324913 0.0645547 0)
(0.316638 0.0469874 6.46455e-21)
(0.309601 0.0279438 -1.92955e-20)
(0.306329 0.0114795 2.02538e-20)
(0.320489 -0.00606606 6.99372e-21)
(0.408092 -0.00761228 -6.96937e-21)
(0.71038 -0.00719667 1.41904e-20)
(0.347203 0.110424 9.01369e-21)
(0.335785 0.10024 1.06075e-20)
(0.327818 0.0860276 -2.40803e-21)
(0.317742 0.066929 2.95209e-21)
(0.309741 0.0490337 6.22557e-21)
(0.303274 0.0296955 9.74531e-21)
(0.300982 0.0128767 -3.34522e-21)
(0.317777 -0.00457473 -3.42696e-21)
(0.409278 -0.00706207 6.99233e-21)
(0.713223 -0.00674205 3.51552e-21)
(0.343838 0.11461 -2.45026e-21)
(0.329824 0.104031 2.46478e-21)
(0.320935 0.0888791 -2.765e-21)
(0.3107 0.0696607 -2.94838e-21)
(0.302904 0.0512948 3.1604e-21)
(0.296939 0.0315822 -6.4324e-21)