/*--------------------------------*- C++ -*----------------------------------*\
  =========                 |
  \\      /  F ield         | OpenFOAM: The Open Source CFD Toolbox
   \\    /   O peration     | Website:  https://openfoam.org
    \\  /    A nd           | Version:  7
     \\/     M anipulation  |
\*---------------------------------------------------------------------------*/
FoamFile
{
    version     2.0;
    format      ascii;
    class       surfaceScalarField;
    location    "8.1";
    object      phi;
}
// * * * * * * * * * * * * * * * * * * * * * * * * * * * * * * * * * * * * * //

dimensions      [0 3 -1 0 0 0 0];

internalField   nonuniform List<scalar> 
35640
(
1.81313e-05
-0.00029379
0.000275659
6.46861e-05
-0.000597944
0.00055139
0.000136029
-0.000651167
0.000579824
0.00023006
-0.000513539
0.000419507
0.00034562
-0.000227809
0.00011225
0.000482078
0.000174277
-0.000310735
0.000639068
0.000668096
-0.000825085
0.000816295
0.0012341
-0.00141132
0.00101345
0.00185665
-0.0020538
0.00123009
0.00252297
-0.00273962
0.00146561
0.00322231
-0.00345783
0.00171912
0.00394531
-0.00419882
0.00198949
0.0046836
-0.00495397
0.0022753
0.00542948
-0.00571528
0.00257482
0.00617573
-0.00647525
0.00288606
0.00691552
-0.00722676
0.00320679
0.00764238
-0.00796311
0.00353457
0.00835021
-0.008678
0.00386684
0.00903335
-0.00936563
0.00420097
0.00968669
-0.0100208
0.00453433
0.0103057
-0.010639
0.00486439
0.0108865
-0.0112166
0.00518877
0.0114261
-0.0117505
0.00550533
0.011922
-0.0122386
0.00581219
0.0123727
-0.0126796
0.00610787
0.0127771
-0.0130728
0.00639128
0.0131345
-0.0134179
0.00666188
0.0134442
-0.0137148
0.00691962
0.0137048
-0.0139625
0.0139119
0.00716498
-0.0141573
1.71158e-05
-0.000310906
6.07626e-05
-0.000641591
0.000127311
-0.000717715
0.000214803
-0.00060103
0.000322248
-0.000335254
0.00044916
4.73651e-05
0.000595338
0.000521919
0.000760648
0.00106879
0.000944912
0.00167238
0.00114782
0.00232006
0.00136889
0.00300124
0.0016074
0.0037068
0.00186238
0.00442861
0.00213262
0.00515924
0.0024166
0.00589175
0.00271256
0.00661957
0.00301847
0.00733647
0.00333215
0.00803653
0.00365125
0.00871426
0.00397333
0.0093646
0.00429595
0.00998307
0.0046167
0.0105658
0.00493329
0.0111095
0.00524363
0.0116117
0.00554589
0.0120704
0.00583856
0.0124844
0.0061205
0.0128526
0.00639107
0.0131736
0.00665006
0.0134458
0.0136643
0.00689761
1.59952e-05
-0.000326902
5.64915e-05
-0.000682087
0.000117931
-0.000779155
0.000198538
-0.000681638
0.000297551
-0.000434266
0.000414691
-6.97751e-05
0.000549936
0.000386674
0.000703284
0.000915438
0.000874687
0.00150098
0.00106397
0.00213078
0.00127079
0.00279443
0.00149454
0.00348305
0.00173443
0.00418872
0.00198939
0.00490429
0.00225808
0.00562306
0.00253893
0.00633871
0.00283016
0.00704524
0.00312978
0.00773692
0.00343562
0.00840841
0.00374545
0.00905477
0.00405697
0.00967155
0.00436792
0.0102548
0.00467613
0.0108013
0.00497957
0.0113083
0.00527644
0.0117736
0.00556523
0.0121956
0.00584479
0.012573
0.00611437
0.012904
0.0063736
0.0131866
0.0134157
0.00662227
1.47756e-05
-0.000341678
5.1777e-05
-0.000719089
0.000107711
-0.000835088
0.000181069
-0.000754996
0.000271344
-0.000524541
0.000378468
-0.000176898
0.000502604
0.000262537
0.000643923
0.000774119
0.000802503
0.0013424
0.00097829
0.00195499
0.00117105
0.00260167
0.00138033
0.00327377
0.00160543
0.00396362
0.00184543
0.00466428
0.00209918
0.00536931
0.00236526
0.00607263
0.00264207
0.00676843
0.0029278
0.00745119
0.00322047
0.00811573
0.00351803
0.00875722
0.00381833
0.00937125
0.00411925
0.00995391
0.00441872
0.0105018
0.00471479
0.0110122
0.00500571
0.0114827
0.00528998
0.0119114
0.00556642
0.0122966
0.00583422
0.0126363
0.00609281
0.012928
0.0131668
0.00634169
1.33919e-05
-0.000355069
4.65981e-05
-0.000752295
9.66657e-05
-0.000885156
0.000162403
-0.000820734
0.000243599
-0.000605736
0.000340454
-0.000273753
0.000453316
0.000149675
0.000582521
0.000644915
0.000728292
0.00119663
0.000890694
0.00179259
0.0010696
0.00242277
0.00126466
0.00307871
0.00147531
0.00375297
0.00170074
0.00443885
0.00193993
0.00513012
0.00219163
0.00582093
0.00245437
0.00650568
0.00272653
0.00717904
0.00300628
0.00783598
0.00329173
0.00847177
0.00358088
0.0090821
0.00387173
0.00966306
0.00416233
0.0102112
0.0044508
0.0107237
0.00473544
0.011198
0.00501479
0.011632
0.00528762
0.0120237
0.00555306
0.0123708
0.00581037
0.0126707
0.0129184
0.00605871
1.18695e-05
-0.000366939
4.09508e-05
-0.000781376
8.47572e-05
-0.000928962
0.000142502
-0.000878478
0.0002143
-0.000677534
0.000300622
-0.000360075
0.000402035
4.8262e-05
0.000519051
0.0005279
0.000652029
0.00106365
0.000801152
0.00164347
0.000966399
0.00225752
0.00114753
0.00289758
0.00134407
0.00355643
0.00155534
0.00422758
0.00178041
0.00490505
0.00201818
0.00558317
0.00226731
0.00625654
0.00252632
0.00692004
0.00279354
0.00756876
0.0030672
0.00819811
0.00334545
0.00880385
0.00362641
0.00938209
0.00390822
0.00992942
0.00418909
0.0104428
0.00446738
0.0109197
0.00474161
0.0113578
0.00501058
0.0117548
0.00527328
0.0121081
0.00552884
0.0124151
0.0126712
0.00577608
1.01805e-05
-0.000377119
3.48198e-05
-0.000806015
7.19999e-05
-0.000966142
0.00012139
-0.000927868
0.000183473
-0.000739618
0.000259026
-0.000435628
0.000348838
-4.15499e-05
0.000453596
0.000423141
0.000573811
0.000943438
0.000709783
0.00150749
0.000861592
0.00210571
0.00102909
0.00273008
0.0012119
0.00337361
0.00140943
0.00403005
0.00162088
0.00469361
0.00184523
0.00535882
0.00208128
0.00602049
0.00232767
0.00667365
0.00258286
0.00731357
0.00284521
0.00793576
0.00311299
0.00853607
0.00338442
0.00911066
0.00365774
0.00965611
0.00393123
0.0101693
0.00420329
0.0106477
0.00447247
0.0110886
0.00473752
0.0114897
0.00499736
0.0118483
0.00525091
0.0121616
0.0124254
0.00549668
8.32662e-06
-0.000385446
2.82156e-05
-0.000825904
5.84104e-05
-0.000996337
9.91077e-05
-0.000968565
0.000151196
-0.000791706
0.000215767
-0.000500199
0.00029385
-0.000119633
0.00038632
0.000330671
0.000493833
0.000835926
0.000616805
0.00138452
0.000755415
0.0019671
0.000909606
0.00257589
0.00107909
0.00320413
0.00126336
0.00384578
0.0014617
0.00449526
0.00167322
0.00514731
0.0018968
0.00579691
0.00213119
0.00643926
0.00237497
0.00706978
0.00262661
0.00768412
0.00288449
0.00827819
0.00314693
0.00884822
0.00341224
0.00939079
0.00367878
0.0099028
0.00394498
0.0103815
0.0042094
0.0108242
0.00447073
0.0112284
0.00472779
0.0115912
0.00497929
0.0119101
0.0121813
0.00522345
6.30724e-06
-0.000391753
2.11505e-05
-0.000840747
4.40305e-05
-0.00101922
7.57302e-05
-0.00100026
0.000117577
-0.000833552
0.000170996
-0.000553618
0.000237269
-0.000185906
0.000317459
0.000250482
0.000412367
0.000741018
0.000522528
0.00127436
0.000648217
0.00184142
0.000789461
0.00243465
0.000946054
0.00304754
0.00111758
0.00367426
0.0013034
0.00430944
0.0015027
0.004948
0.00171449
0.00558512
0.00193758
0.00621617
0.00217068
0.00683669
0.00241234
0.00744246
0.00266104
0.00802949
0.00291518
0.00859408
0.00317316
0.00913282
0.00343337
0.00964259
0.00369429
0.0101205
0.00395444
0.010564
0.00421248
0.0109703
0.00446708
0.0113366
0.00471676
0.0116604
0.0119386
0.0049594
4.12835e-06
-0.000395881
1.36515e-05
-0.00085027
2.89189e-05
-0.00103448
5.13572e-05
-0.0010227
8.27645e-05
-0.000864959
0.000124914
-0.000595767
0.000179347
-0.000240338
0.000247316
0.000182513
0.000329769
0.000658565
0.000427355
0.00117677
0.000540443
0.00172833
0.000669144
0.00230594
0.000813331
0.00290335
0.000972662
0.00351493
0.00114659
0.00413551
0.00133437
0.00476022
0.00153509
0.0053844
0.00174767
0.00600359
0.00197089
0.00661347
0.00220341
0.00720994
0.00244377
0.00778913
0.00269046
0.00834739
0.00294194
0.00888134
0.00319664
0.00938788
0.00345304
0.00986415
0.00370966
0.0103074
0.00396506
0.0107149
0.00421777
0.0110839
0.00446608
0.0114121
0.0116971
0.00470756
1.80107e-06
-0.000397682
5.75482e-06
-0.000854224
1.31522e-05
-0.00104188
2.61168e-05
-0.00103567
4.69437e-05
-0.000885786
7.77664e-05
-0.000626589
0.00012039
-0.000282961
0.000176258
0.000126645
0.000246463
0.00058836
0.000331767
0.00109147
0.00043263
0.00162746
0.000549243
0.00218933
0.000681557
0.00277104
0.000829305
0.00336718
0.000992011
0.0039728
0.00116901
0.00458322
0.00135947
0.00519395
0.00156239
0.00580067
0.00177663
0.00639923
0.00200092
0.00698565
0.0022339
0.00755615
0.00247412
0.00810717
0.00272007
0.00863539
0.00297024
0.00913772
0.00322309
0.00961129
0.0034771
0.0100534
0.00373073
0.0104613
0.00398236
0.0108323
0.00423002
0.0111644
0.0114562
0.00447096
-6.61683e-07
-0.00039702
-2.49259e-06
-0.000852393
-3.17414e-06
-0.0010412
1.62046e-07
-0.001039
1.0332e-05
-0.000895956
2.98388e-05
-0.000646096
6.07533e-05
-0.000313875
0.00010471
8.26887e-05
0.000162941
0.00053013
0.000236319
0.00101809
0.000325392
0.00153839
0.000430432
0.00208429
0.000551464
0.00265
0.00068829
0.00323036
0.000840505
0.00382059
0.00100752
0.0044162
0.00118858
0.00501289
0.00138275
0.00560649
0.00158897
0.006193
0.00180606
0.00676856
0.00203271
0.0073295
0.00226754
0.00787234
0.00250908
0.00839384
0.00275583
0.00889096
0.00300626
0.00936087
0.00325877
0.00980088
0.00351173
0.0102084
0.0037633
0.0105807
0.00401129
0.0109164
0.0112149
0.00425261
-3.24167e-06
-0.000393779
-1.10361e-05
-0.000844598
-1.99494e-05
-0.00103229
-2.63307e-05
-0.00103262
-2.68224e-05
-0.000895464
-1.85462e-05
-0.000654372
8.34474e-07
-0.000333255
3.31413e-05
5.03823e-05
7.97456e-05
0.000483525
0.000141625
0.000956214
0.000219414
0.0014606
0.000313461
0.00199025
0.000423862
0.0025396
0.000550487
0.00310373
0.000693002
0.00367807
0.000850887
0.00425832
0.00102345
0.00484032
0.00120986
0.00542009
0.0014091
0.00599376
0.00162007
0.00655759
0.00184152
0.00710804
0.00207213
0.00764173
0.00231048
0.00815549
0.00255507
0.00864637
0.00280435
0.0091116
0.00305665
0.00954857
0.00331021
0.00995481
0.003563
0.0103279
0.00381255
0.0106669
0.010972
0.00405547
-5.9202e-06
-0.000387858
-1.9811e-05
-0.000830707
-3.7048e-05
-0.00101505
-5.31644e-05
-0.00101651
-6.42453e-05
-0.000884384
-6.70343e-05
-0.000651582
-5.89324e-05
-0.000341357
-3.79333e-05
2.93834e-05
-2.53081e-06
0.000448123
4.8353e-05
0.00090533
0.000115436
0.00139352
0.00019914
0.00190654
0.00029963
0.00243911
0.00041684
0.00298652
0.000550504
0.00354441
0.000700173
0.00410865
0.000865227
0.00467527
0.00104489
0.00524043
0.00123824
0.0058004
0.00144423
0.0063516
0.0016617
0.00689058
0.00188935
0.00741408
0.0021258
0.00791904
0.00236959
0.00840259
0.00261911
0.00886208
0.00287264
0.00929504
0.00312826
0.00969919
0.00338377
0.0100724
0.00363639
0.0104143
0.0107259
0.00388241
-8.67482e-06
-0.000379183
-2.87454e-05
-0.000810636
-5.43313e-05
-0.000989463
-8.01228e-05
-0.000990714
-0.000101638
-0.000862868
-0.000115244
-0.000637977
-0.000118082
-0.000338518
-0.000107965
1.92669e-05
-8.32581e-05
0.000423416
-4.27872e-05
0.000864859
1.42461e-05
0.00133648
8.8333e-05
0.00183245
0.000179702
0.00234774
0.000288353
0.00287787
0.000414084
0.00341868
0.00055651
0.00396622
0.000715083
0.0045167
0.000889095
0.00506642
0.0010777
0.0056118
0.00127991
0.00614939
0.00149463
0.00667586
0.00172063
0.00718808
0.00195657
0.0076831
0.00220097
0.00815818
0.00245223
0.00861082
0.00270855
0.00903872
0.00296787
0.00943987
0.00322778
0.00981248
0.00348524
0.0101568
0.010475
0.00373618
-1.14807e-05
-0.000367702
-3.776e-05
-0.000784357
-7.16479e-05
-0.000955576
-0.000106973
-0.000955389
-0.000138683
-0.000831158
-0.000162769
-0.00061389
-0.000176122
-0.000325165
-0.000176377
1.95223e-05
-0.000161775
0.000408815
-0.000131052
0.000834136
-8.33327e-05
0.00128876
-1.80587e-05
0.00176718
6.50584e-05
0.00226463
0.000166078
0.00277685
0.00028486
0.0032999
0.000421085
0.00383
0.000574267
0.00436351
0.000743771
0.00489691
0.000928817
0.00542675
0.00112849
0.00594971
0.00134177
0.00646259
0.00156747
0.00696238
0.00180429
0.00744627
0.0020508
0.00791168
0.00230536
0.00835626
0.00256612
0.00877796
0.0028309
0.00917509
0.00309709
0.00954629
0.00336137
0.00989251
0.010217
0.00361933
-1.43109e-05
-0.000353391
-4.6769e-05
-0.000751899
-8.88355e-05
-0.000913509
-0.000133466
-0.000910759
-0.00017504
-0.000789583
-0.000209183
-0.000579747
-0.000232536
-0.000301812
-0.000242566
2.95525e-05
-0.000237395
0.000403645
-0.000215672
0.000812412
-0.000176447
0.00124954
-0.000119101
0.00170983
-4.32894e-05
0.00218881
5.11044e-05
0.00268246
0.000163997
0.003187
0.000295128
0.00369887
0.000444075
0.00421457
0.000610267
0.00473072
0.000792993
0.00524403
0.000991415
0.00575129
0.00120456
0.00624944
0.00143133
0.00673561
0.00167048
0.00720712
0.0019206
0.00766156
0.00218006
0.00809679
0.00244698
0.00851105
0.00271907
0.008903
0.00299355
0.00927181
0.00326685
0.00961921
0.00994969
0.0035342
-1.7136e-05
-0.000336255
-5.56803e-05
-0.000713354
-0.000105722
-0.000863467
-0.00015934
-0.000857141
-0.000210358
-0.000738565
-0.000254039
-0.000536066
-0.000286788
-0.000269063
-0.000305908
4.86728e-05
-0.000309409
0.000407146
-0.000295852
0.000798855
-0.00026422
0.00121791
-0.000213835
0.00165945
-0.0001443
0.00211928
-5.54469e-05
0.0025936
5.2692e-05
0.00307886
0.000179911
0.00357165
0.000325844
0.00406864
0.000489981
0.00456658
0.000671678
0.00506233
0.000870163
0.0055528
0.00108454
0.00603507
0.00131377
0.00650638
0.00155667
0.00696422
0.0018119
0.00740633
0.00207787
0.00783083
0.00235266
0.00823625
0.00263396
0.0086217
0.00291884
0.00898693
0.00320351
0.00933455
0.00967035
0.00348284
-1.99249e-05
-0.00031633
-6.43972e-05
-0.000668882
-0.000122126
-0.000805738
-0.000184324
-0.000794943
-0.000244268
-0.00067862
-0.000296877
-0.000483457
-0.000338325
-0.000227615
-0.00036576
7.61089e-05
-0.000377086
0.000418471
-0.000370777
0.000792546
-0.000345752
0.00119288
-0.000301279
0.00161498
-0.000236909
0.00205491
-0.000152431
0.00250912
-4.78287e-05
0.00297426
7.67376e-05
0.00344708
0.000220953
0.00392442
0.00038436
0.00440318
0.000566374
0.00488032
0.000766284
0.00535289
0.000983262
0.00581809
0.00121635
0.00627329
0.00146444
0.00671612
0.00172626
0.00714451
0.00200028
0.0075568
0.00228466
0.00795187
0.00257705
0.00832931
0.00287445
0.00868952
0.0031729
0.0090361
0.0093763
0.00346696
-2.26447e-05
-0.000293686
-7.28179e-05
-0.000618709
-0.00013786
-0.000740696
-0.000208132
-0.000724671
-0.000276389
-0.000610363
-0.000337217
-0.000422629
-0.000386573
-0.000178258
-0.00042146
0.000110996
-0.000439674
0.000436685
-0.00043961
0.000792482
-0.000420123
0.00117339
-0.000380427
0.00157528
-0.000320029
0.00199451
-0.000238674
0.00242777
-0.000136308
0.0028719
-1.30503e-05
0.00332382
0.000130823
0.00378055
0.000294901
0.0042391
0.000478646
0.00469657
0.0006814
0.00515013
0.000902396
0.00559709
0.00114075
0.00603494
0.00139544
0.00646143
0.00166528
0.00687467
0.00194886
0.00727322
0.00224441
0.00765632
0.00254968
0.00802404
0.00286167
0.00837754
0.0031763
0.00872147
0.00906473
0.00348786
-2.52608e-05
-0.000268425
-8.0837e-05
-0.000563133
-0.000152729
-0.000668804
-0.000230472
-0.000646928
-0.000306328
-0.000534508
-0.000374567
-0.00035439
-0.000430944
-0.00012188
-0.000472323
0.000152375
-0.000496399
0.000460761
-0.000501488
0.000797571
-0.000486383
0.00115829
-0.000450246
0.00153914
-0.00039254
0.00193681
-0.000312973
0.0023482
-0.000211455
0.00277038
-8.80748e-05
0.00320044
5.69251e-05
0.00363555
0.000223163
0.00407286
0.000410134
0.0045096
0.00061722
0.00494305
0.000843702
0.00537061
0.00108876
0.00578989
0.00135144
0.00619874
0.00163069
0.00659542
0.00192522
0.0069787
0.00223341
0.00734813
0.00255316
0.00770428
0.0028816
0.0080491
0.00321464
0.00838842
0.00873298
0.0035464
-2.77376e-05
-0.000240687
-8.83462e-05
-0.000502524
-0.000166531
-0.00059062
-0.000251043
-0.000562415
-0.000333679
-0.000451872
-0.000408418
-0.00027965
-0.000470828
-5.94706e-05
-0.000517641
0.000199188
-0.000546458
0.000489577
-0.000555516
0.000806629
-0.000543547
0.00114632
-0.000509663
0.00150526
-0.000453283
0.00188043
-0.000374078
0.002269
-0.000271929
0.00266823
-0.000146899
0.00307541
7.89674e-07
0.00348786
0.000170774
0.00390288
0.000362565
0.00431781
0.000575565
0.00473005
0.000809078
0.0051371
0.00106232
0.00553664
0.00133443
0.00592664
0.00162442
0.00630543
0.00193116
0.00667196
0.00225325
0.00702603
0.00258883
0.0073687
0.00293525
0.00770267
0.00328863
0.00803505
0.00837861
0.003643
-3.00387e-05
-0.000210648
-9.52349e-05
-0.000437328
-0.000179063
-0.000506792
-0.000269539
-0.000471938
-0.00035803
-0.000363382
-0.000438249
-0.000199431
-0.000505593
7.87408e-06
-0.000556678
0.000250272
-0.00058901
0.00052191
-0.000600755
0.000818374
-0.00059058
0.00113614
-0.000557548
0.00147223
-0.000501035
0.00182391
-0.000420675
0.00218864
-0.000316321
0.00256387
-0.000188016
0.00294711
-3.59693e-05
0.00333581
0.00013946
0.00372745
0.000337782
0.00411949
0.000558394
0.00450944
0.000800595
0.0048949
0.00106361
0.00527363
0.00134659
0.00564365
0.00164865
0.00600338
0.00196877
0.00635184
0.00230578
0.00668902
0.00265815
0.00701633
0.00302363
0.00733719
0.00339869
0.00765999
0.00799973
0.00377757
-3.21274e-05
-0.000178521
-0.000101392
-0.000368063
-0.000190119
-0.000418065
-0.000285649
-0.000376409
-0.000378958
-0.000270073
-0.000463523
-0.000114866
-0.000534589
7.89412e-05
-0.000588666
0.000304349
-0.000623175
0.000556419
-0.000636212
0.000831409
-0.000626382
0.00112631
-0.000592697
0.00143854
-0.000534489
0.00176571
-0.000451355
0.0021055
-0.00034312
0.00245564
-0.000209807
0.00281379
-5.16214e-05
0.00317763
0.000131076
0.00354475
0.000337776
0.00391279
0.000567845
0.00427937
0.000820544
0.0046422
0.00109505
0.00499912
0.0013905
0.00534821
0.00170597
0.0056879
0.00204057
0.00601725
0.00239329
0.00633629
0.00276298
0.00664665
0.00314791
0.00695226
0.00354522
0.00726268
0.00759526
0.00394969
-3.39671e-05
-0.000144554
-0.000106708
-0.000295322
-0.000199497
-0.000325277
-0.000299062
-0.000276844
-0.000396037
-0.000173098
-0.000483692
-2.72107e-05
-0.000557143
0.000152393
-0.000612806
0.000360011
-0.000648025
0.000591638
-0.000660829
0.000844214
-0.000649771
0.00111525
-0.000613807
0.00140258
-0.000552225
0.00170412
-0.000464581
0.00201786
-0.000350671
0.00234173
-0.0002105
0.00267362
-4.42643e-05
0.00301139
0.000147661
0.00335283
0.000364743
0.00369571
0.000606294
0.00403782
0.000871499
0.00437699
0.00115944
0.00471118
0.00146912
0.00503852
0.00179955
0.00535747
0.00214974
0.00566705
0.0025188
0.00596724
0.00290584
0.00625961
0.0033098
0.0065483
0.00372882
0.00684366
0.00716527
0.0041588
-3.55222e-05
-0.000109032
-0.000111076
-0.000219769
-0.000206994
-0.000229359
-0.000309469
-0.000174369
-0.00040884
-7.37267e-05
-0.000498202
6.21511e-05
-0.000572564
0.000226756
-0.000628263
0.00041571
-0.000662578
0.000625952
-0.000673482
0.000855117
-0.000659472
0.00110124
-0.000619457
0.00136256
-0.000552677
0.00163734
-0.000458648
0.00192383
-0.000337133
0.00222021
-0.000188114
0.0025246
-1.1776e-05
0.00283505
0.000191501
0.00314955
0.00042115
0.00346606
0.000676423
0.00378254
0.000956403
0.00409701
0.00126002
0.00440757
0.00158608
0.00471246
0.00193332
0.00501023
0.0023005
0.00529987
0.00268655
0.0055812
0.00309064
0.00585551
0.0035123
0.00612664
0.00395104
0.00640492
0.00671153
0.00440478
-3.6759e-05
-7.22729e-05
-0.000114392
-0.000142135
-0.000212418
-0.000131333
-0.00031657
-7.0216e-05
-0.000416944
2.6647e-05
-0.000506495
0.000151702
-0.000580149
0.000300409
-0.000634178
0.000469739
-0.00066581
0.000657584
-0.000672969
0.000862276
-0.000654109
0.00108238
-0.000608092
0.00131655
-0.000534114
0.00156336
-0.000431652
0.00182137
-0.00030043
0.00208899
-0.000140401
0.00236458
4.82681e-05
0.00264638
0.000265202
0.00293262
0.000509814
0.00322144
0.000781306
0.00351105
0.00107865
0.00379967
0.00140061
0.00408561
0.00174569
0.00436738
0.00211225
0.00464368
0.00249851
0.00491361
0.00290277
0.00517693
0.00332375
0.00543453
0.00376106
0.00568933
0.00421579
0.00595019
0.00623796
0.00468936
-3.76465e-05
-3.46265e-05
-0.000116564
-6.32176e-05
-0.000215587
-3.23102e-05
-0.00032008
3.42763e-05
-0.000419941
0.000126509
-0.000508025
0.000239786
-0.000579193
0.000371577
-0.000629674
0.00052022
-0.000656655
0.000684565
-0.000658028
0.000863649
-0.000632211
0.00105657
-0.000578027
0.00126236
-0.000494635
0.00147997
-0.000381472
0.00170821
-0.000238226
0.00194574
-6.48138e-05
0.00219116
0.000138628
0.00244294
0.000371747
0.0026995
0.000633966
0.00295922
0.000924466
0.00322055
0.00124216
0.00348198
0.00158564
0.00374213
0.00195316
0.00399985
0.00234259
0.00425425
0.00275135
0.00450485
0.00317664
0.00475165
0.00361572
0.00499545
0.00406699
0.00523806
0.00453221
0.00548497
0.0057504
0.00501976
-3.81578e-05
3.53125e-06
-0.000117506
1.61305e-05
-0.000216338
6.65214e-05
-0.000319731
0.00013767
-0.000417445
0.000224223
-0.000502264
0.000324605
-0.000569006
0.000438319
-0.000613875
0.000565089
-0.000634035
0.000704725
-0.000627357
0.000856971
-0.000592234
0.00102144
-0.000527466
0.00119759
-0.000432182
0.00138469
-0.000305787
0.00158181
-0.000147935
0.00178789
4.14961e-05
0.00200173
0.000262413
0.00222202
0.00051451
0.0024474
0.000797257
0.00267648
0.00110987
0.00290793
0.00145129
0.00314056
0.00182009
0.00337333
0.00221439
0.00360555
0.00263172
0.00383693
0.00306879
0.00406778
0.00352135
0.00429909
0.00398428
0.00453252
0.00445212
0.00477022
0.00492259
0.00501451
0.00525282
0.00542017
-3.82703e-05
4.18015e-05
-0.000117147
9.50067e-05
-0.000214525
0.0001639
-0.000315288
0.000238433
-0.000409104
0.000318039
-0.000488719
0.00040422
-0.000548931
0.000498532
-0.000585933
0.000602091
-0.000596883
0.000715674
-0.000579645
0.000839733
-0.000532606
0.000974404
-0.000454553
0.00111954
-0.000344599
0.00127473
-0.000202132
0.00143934
-2.67786e-05
0.00161254
0.00018162
0.00179333
0.000423021
0.00198062
0.000697186
0.00217323
0.00100367
0.00236999
0.00134182
0.00256979
0.00171071
0.00277167
0.00210912
0.00297492
0.00253542
0.00317925
0.00298738
0.00338496
0.00346194
0.00359322
0.00395477
0.00380625
0.00445996
0.00402733
0.00496888
0.00426131
0.00546889
0.00451449
0.00596161
0.00476011
0.00735555
0.0800641
-0.0802547
0.00722625
0.0806209
-0.0804916
0.00697856
0.0776502
-0.0774025
0.00671757
0.0734926
-0.0732316
0.00650309
0.0692208
-0.0690063
0.00634345
0.0654027
-0.065243
0.00622331
0.0622131
-0.062093
0.00612049
0.0596149
-0.0595121
0.00601607
0.0575344
-0.0574299
0.00589722
0.055897
-0.0557781
0.00575837
0.0546584
-0.0545196
0.00559801
0.053777
-0.0536166
0.0054172
0.0532167
-0.0530359
0.00521759
0.0529252
-0.0527255
0.00500106
0.0528485
-0.0526319
0.00476892
0.0529339
-0.0527018
0.00452258
0.0531328
-0.0528864
0.00426376
0.0534049
-0.0531461
0.00399366
0.0537228
-0.0534527
0.00371373
0.0540635
-0.0537836
0.00342531
0.0544094
-0.054121
0.00312965
0.0547499
-0.0544543
0.00282765
0.0550754
-0.0547734
0.00252025
0.0553766
-0.0550692
0.00220768
0.0556516
-0.055339
0.0018903
0.0558916
-0.0555742
0.00156753
0.0561036
-0.0557808
0.00123952
0.0562885
-0.0559605
0.000907527
0.0564537
-0.0561217
0.0565515
-0.0562193
0.00720197
0.0797598
0.00716258
0.0806603
0.00697923
0.0778336
0.00676161
0.0737102
0.00657611
0.0694063
0.00643739
0.0655414
0.00633376
0.0623168
0.00624456
0.0597041
0.00615068
0.0576283
0.00603931
0.0560083
0.00590454
0.0547932
0.00574566
0.0539359
0.00556374
0.0533986
0.00536124
0.0531276
0.00513991
0.0530698
0.00490184
0.053172
0.00464864
0.053386
0.00438202
0.0536716
0.00410344
0.0540014
0.00381473
0.0543522
0.0035169
0.0547073
0.00321157
0.0550553
0.00289969
0.0553873
0.00258189
0.0556945
0.00225904
0.0559745
0.00193087
0.0562197
0.0015974
0.056437
0.00125863
0.0566273
0.000915859
0.0567964
0.0568945
0.0070376
0.0793444
0.00708801
0.0806099
0.00696954
0.077952
0.00679611
0.0738837
0.00664051
0.0695619
0.00652385
0.0656581
0.00643804
0.0624026
0.00636391
0.0597782
0.00628198
0.0577102
0.00617947
0.0561108
0.00604988
0.0549228
0.00589327
0.0540925
0.00571075
0.0535811
0.00550571
0.0533327
0.00527984
0.0532957
0.00503592
0.0534159
0.00477589
0.053646
0.00450142
0.053946
0.00421431
0.0542885
0.00391667
0.0546499
0.00360932
0.0550146
0.00329419
0.0553704
0.00297231
0.0557091
0.00264401
0.0560228
0.00231078
0.0563077
0.00197173
0.0565588
0.00162749
0.0567813
0.00127791
0.0569768
0.000924273
0.0571501
0.0572484
0.00686409
0.078822
0.00700354
0.0804704
0.00694976
0.0780058
0.0068209
0.0740125
0.00669593
0.0696868
0.00660237
0.0657516
0.00653571
0.0624692
0.00647815
0.0598358
0.00640979
0.0577785
0.00631746
0.0562032
0.00619424
0.055046
0.00604059
0.0542461
0.0058582
0.0537635
0.0056509
0.05354
0.00542084
0.0535257
0.00517118
0.0536656
0.00490428
0.0539129
0.00462196
0.0542284
0.0043263
0.0545842
0.00401952
0.0549566
0.00370264
0.0553315
0.00337758
0.0556955
0.00304552
0.0560412
0.00270675
0.0563615
0.00236283
0.0566516
0.00201295
0.0569087
0.00165778
0.0571365
0.00129732
0.0573373
0.000932808
0.0575146
0.0576133
0.00668333
0.0781974
0.00691021
0.0802435
0.0069203
0.0779957
0.00683599
0.0740968
0.00674208
0.0697807
0.00667255
0.0658212
0.00662645
0.0625153
0.006587
0.0598753
0.00653375
0.0578318
0.00645295
0.056284
0.00633739
0.0551616
0.00618758
0.0543959
0.00600598
0.0539451
0.00579668
0.0537493
0.00556277
0.0537596
0.00530755
0.0539208
0.00503377
0.0541867
0.00474362
0.0545185
0.00443941
0.0548884
0.00412335
0.0552727
0.00379688
0.0556579
0.00346175
0.0560306
0.00311931
0.0563836
0.00277005
0.0567108
0.00241523
0.0570064
0.00205455
0.0572694
0.00168833
0.0575027
0.0013169
0.0577087
0.00094148
0.05789
0.0579893
0.00649736
0.0774761
0.00680934
0.0799315
0.00688171
0.0779233
0.00684147
0.0741371
0.00677878
0.0698434
0.00673408
0.0658659
0.00670984
0.0625396
0.00669009
0.059895
0.00665358
0.0578683
0.00658574
0.0563518
0.00647909
0.0552682
0.00633404
0.054541
0.00615387
0.0541253
0.00594304
0.0539601
0.00570554
0.0539971
0.00544495
0.0541814
0.00516437
0.0544672
0.00486641
0.0548165
0.00455361
0.0552012
0.0042282
0.0555981
0.00389202
0.0559941
0.00354672
0.0563759
0.00319377
0.0567366
0.00283391
0.0570706
0.0024681
0.0573723
0.0020965
0.0576409
0.00171916
0.05788
0.00133668
0.0580912
0.000950295
0.0582764
0.0583765
0.0063084
0.0766644
0.0067024
0.0795375
0.00683478
0.077791
0.0068376
0.0741343
0.00680599
0.069875
0.00678676
0.0658851
0.0067856
0.0625407
0.00678708
0.0598935
0.00676899
0.0578864
0.00671562
0.0564052
0.00661911
0.0553647
0.00647978
0.0546803
0.00630171
0.0543034
0.00608986
0.054172
0.00584904
0.054238
0.00558327
0.0544472
0.00529603
0.0547545
0.00499028
0.0551222
0.00466885
0.0555226
0.00433407
0.0559329
0.00398806
0.0563401
0.0036325
0.0567315
0.00326895
0.0571001
0.00289834
0.0574413
0.00252146
0.0577491
0.00213882
0.0580236
0.00175032
0.0582685
0.0013567
0.0584848
0.000959263
0.0586738
0.058775
0.00611878
0.0757691
0.00659104
0.0790653
0.0067805
0.0776015
0.00682485
0.0740899
0.0068238
0.0698761
0.00683045
0.0658784
0.00685349
0.0625177
0.00687772
0.0598693
0.0068797
0.0578844
0.00684231
0.0564426
0.00675722
0.0554498
0.0066246
0.0548129
0.00644931
0.0544787
0.00623697
0.0543843
0.00599314
0.0544818
0.00572242
0.0547179
0.00542866
0.0550483
0.00511519
0.0554357
0.00478512
0.0558527
0.00444096
0.056277
0.00408501
0.0566961
0.00371913
0.0570973
0.00334486
0.0574744
0.00296338
0.0578227
0.00257534
0.0581372
0.00218155
0.0584174
0.00178181
0.0586683
0.00137697
0.0588897
0.000968399
0.0590824
0.0591849
0.00593098
0.0747975
0.00647709
0.0785192
0.00672008
0.0773585
0.00680389
0.0740061
0.00683249
0.0698475
0.00686517
0.0658457
0.00691336
0.0624695
0.00696176
0.0598209
0.00698545
0.0578607
0.00696557
0.0564625
0.00689318
0.0555222
0.00676827
0.0549378
0.0065965
0.0546504
0.00638419
0.0545966
0.00613772
0.0547282
0.00586228
0.0549933
0.00556216
0.0553484
0.00524107
0.0557568
0.00490236
0.0561914
0.00454883
0.0566306
0.00418288
0.057062
0.00380658
0.0574736
0.00342152
0.0578595
0.00302906
0.0582152
0.00262978
0.0585365
0.0022247
0.0588225
0.00181367
0.0590793
0.00139752
0.0593058
0.000977726
0.0595022
0.0596063
0.00574764
0.0737574
0.00636255
0.0779042
0.00665497
0.0770661
0.00677563
0.0738854
0.00683255
0.0697906
0.0068911
0.0657872
0.00696518
0.0623954
0.00703906
0.059747
0.007086
0.0578138
0.00708514
0.0564633
0.00702674
0.0555806
0.00691058
0.055054
0.00674306
0.0548179
0.00653134
0.0548084
0.0062826
0.054977
0.00600272
0.0552732
0.0056964
0.0556547
0.00536783
0.0560854
0.00502052
0.0565387
0.00465763
0.0569935
0.00428166
0.057438
0.00389487
0.0578604
0.00349893
0.0582554
0.00309538
0.0586188
0.00268479
0.058947
0.00226832
0.0592389
0.00184592
0.0595017
0.0014184
0.0597333
0.000987267
0.0599333
0.0600393
0.00557152
0.0726569
0.00624962
0.0772261
0.00658688
0.0767288
0.00674124
0.0737311
0.00682471
0.0697071
0.00690859
0.0657033
0.00700904
0.062295
0.00710952
0.0596465
0.00718116
0.0577421
0.00720079
0.0564437
0.00715766
0.0556237
0.00705129
0.0551604
0.00688879
0.0549804
0.00667821
0.0550189
0.0064276
0.0552276
0.00614356
0.0555572
0.00583127
0.055967
0.00549535
0.0564213
0.00513954
0.0568945
0.00476731
0.0573657
0.0043813
0.057824
0.00398398
0.0582577
0.00357709
0.0586623
0.00316236
0.0590335
0.00274039
0.059369
0.00231242
0.0596669
0.00187858
0.0599355
0.0014396
0.0601723
0.000997049
0.0603759
0.060484
0.00540553
0.071504
0.00614068
0.076491
0.00651777
0.0763517
0.00670217
0.0735467
0.00680994
0.0695993
0.00691819
0.0655951
0.00704514
0.062168
0.00717313
0.0595186
0.00727077
0.0576445
0.00731231
0.0564022
0.00728569
0.0556504
0.00719017
0.0552559
0.00703346
0.0551371
0.00682459
0.0552278
0.00657254
0.0554796
0.00628466
0.0558451
0.00596662
0.056285
0.00562353
0.0567644
0.00525932
0.0572587
0.00487778
0.0577472
0.00448177
0.05822
0.00407388
0.0586656
0.00365601
0.0590802
0.00323001
0.0594595
0.00279659
0.0598024
0.00235704
0.0601064
0.00191167
0.0603809
0.00146116
0.0606228
0.00100709
0.0608299
0.0609406
0.00525266
0.0703068
0.00603828
0.0757054
0.00644989
0.0759401
0.00666016
0.0733364
0.0067895
0.06947
0.00692067
0.0654639
0.00707387
0.0620148
0.00722997
0.0593625
0.00735473
0.0575197
0.00741949
0.0563374
0.00741061
0.0556592
0.00732696
0.0553395
0.00717684
0.0552873
0.00697028
0.0554344
0.00671723
0.0557327
0.00642583
0.0561365
0.0061023
0.0566085
0.00575221
0.0571145
0.00537975
0.0576312
0.00498899
0.058138
0.00458301
0.058626
0.00416454
0.0590841
0.00373566
0.0595091
0.00329833
0.0598968
0.0028534
0.0602474
0.00240218
0.0605577
0.00194522
0.0608379
0.0014831
0.061085