/*--------------------------------*- C++ -*----------------------------------*\
  =========                 |
  \\      /  F ield         | OpenFOAM: The Open Source CFD Toolbox
   \\    /   O peration     | Website:  https://openfoam.org
    \\  /    A nd           | Version:  7
     \\/     M anipulation  |
\*---------------------------------------------------------------------------*/
FoamFile
{
    version     2.0;
    format      ascii;
    class       volVectorField;
    location    "8.1";
    object      U;
}
// * * * * * * * * * * * * * * * * * * * * * * * * * * * * * * * * * * * * * //

dimensions      [0 1 -1 0 0 0 0];

internalField   nonuniform List<vector> 
18000
(
(0.000500022 -0.00855091 4.95522e-21)
(0.00268058 -0.0172416 0)
(0.00655897 -0.0184254 0)
(0.0112987 -0.0139033 0)
(0.0167759 -0.00494397 -1.63989e-21)
(0.0228377 0.00750635 8.29693e-21)
(0.0293852 0.0227109 -1.67797e-21)
(0.0363414 0.0400837 1.68949e-21)
(0.0436426 0.059154 0)
(0.0512339 0.0795357 -5.10856e-21)
(0.0590608 0.100903 -1.70832e-21)
(0.0670681 0.12297 0)
(0.0751981 0.145482 3.40941e-21)
(0.0833879 0.168203 3.41661e-21)
(0.0915722 0.19091 -6.82527e-21)
(0.0996844 0.213394 -6.81549e-21)
(0.107657 0.235457 0)
(0.115425 0.256911 -1.0205e-20)
(0.122923 0.277583 3.3871e-21)
(0.130089 0.297318 -1.01716e-20)
(0.13687 0.315979 3.37425e-21)
(0.143217 0.333453 0)
(0.149092 0.349647 -3.34355e-21)
(0.154466 0.364492 -3.35671e-21)
(0.159321 0.377945 0)
(0.163649 0.389978 0)
(0.167453 0.40058 -6.68693e-21)
(0.170756 0.409733 -6.67374e-21)
(0.173574 0.417405 -6.71234e-21)
(0.175825 0.423468 7.2272e-21)
(0.000726242 -0.00904839 7.06516e-21)
(0.0030431 -0.0184974 1.23162e-20)
(0.00672889 -0.0203115 -1.26167e-20)
(0.0110435 -0.0163383 -1.28717e-20)
(0.0159144 -0.00787887 -3.27412e-21)
(0.0212334 0.00410116 9.92885e-21)
(0.026935 0.0188561 -1.33825e-20)
(0.0329689 0.035794 -1.34818e-20)
(0.0392949 0.0544445 1.35531e-20)
(0.0458749 0.0744255 1.3604e-20)
(0.0526668 0.0954148 -6.81039e-21)
(0.0596295 0.117133 -1.36393e-20)
(0.0667176 0.139331 -6.83638e-21)
(0.0738795 0.161779 1.36269e-20)
(0.0810613 0.184264 -1.3611e-20)
(0.0882079 0.206581 1.36063e-20)
(0.0952618 0.228537 -2.71775e-20)
(0.102165 0.249951 2.0316e-20)
(0.108862 0.270652 -1.3505e-20)
(0.1153 0.290486 6.76782e-21)
(0.121428 0.309314 -1.34495e-20)
(0.127203 0.32702 0)
(0.132588 0.343505 6.82195e-21)
(0.137554 0.358696 -1.33521e-20)
(0.142082 0.372538 1.33433e-20)
(0.146162 0.384995 0)
(0.149795 0.396041 -6.60123e-21)
(0.153001 0.405645 6.57191e-21)
(0.155772 0.413761 2.64399e-20)
(0.158011 0.420245 1.43866e-20)
(0.000975798 -0.00953779 -1.1312e-20)
(0.00345586 -0.0197042 -1.23159e-20)
(0.00696088 -0.022089 1.89242e-20)
(0.0108594 -0.018623 3.21517e-20)
(0.0151328 -0.0106365 0)
(0.0197225 0.000889218 -1.32505e-20)
(0.0245987 0.0151991 1.33823e-20)
(0.029736 0.0317015 4.03968e-20)
(0.0351152 0.0499273 -1.3553e-20)
(0.0407147 0.0694955 -1.36004e-20)
(0.0465065 0.0900896 4.08256e-20)
(0.0524601 0.111437 1.36392e-20)
(0.058541 0.133295 0)
(0.0647081 0.155441 -2.72547e-20)
(0.0709169 0.177666 4.0708e-20)
(0.0771216 0.199776 -1.3549e-20)
(0.0832742 0.221581 1.35606e-20)
(0.0893258 0.242905 1.35443e-20)
(0.0952279 0.263581 6.2288e-23)
(0.100934 0.283457 0)
(0.106399 0.302393 4.03812e-20)
(0.111584 0.32027 -2.66874e-20)
(0.116454 0.336988 1.33962e-20)
(0.120983 0.352465 0)
(0.125151 0.36664 -1.33434e-20)
(0.128945 0.379468 5.31414e-20)
(0.132368 0.390909 -3.95064e-20)
(0.135435 0.400922 -1.32587e-20)
(0.138116 0.409444 1.30504e-20)
(0.140304 0.416322 1.44417e-20)
(0.00124484 -0.00996452 0)
(0.00390544 -0.0207698 6.15067e-21)
(0.00723051 -0.0236873 6.62565e-24)
(0.0107158 -0.0207032 -3.21267e-20)
(0.0144009 -0.0131759 0)
(0.0182742 -0.00209939 -2.64175e-20)
(0.0223415 0.0117639 0)
(0.0266057 0.0278226 -4.03635e-20)
(0.0310666 0.0456096 1.35114e-20)
(0.035718 0.064749 -2.70935e-20)
(0.0405445 0.0849292 -2.71975e-20)
(0.0455259 0.105883 -1.36041e-20)
(0.0506364 0.127374 1.35776e-20)
(0.0558439 0.149186 1.35244e-20)
(0.061113 0.171119 -1.36074e-20)
(0.0664062 0.192983 -2.70269e-20)
(0.071683 0.214596 2.69385e-20)
(0.0769015 0.235784 0)
(0.0820209 0.256386 0)
(0.0870006 0.27625 0)
(0.0918019 0.29524 0)
(0.0963892 0.313233 0)
(0.100732 0.330126 0)
(0.104803 0.345834 -2.64674e-20)
(0.108585 0.360288 -2.65723e-20)
(0.112066 0.373433 -1.81209e-22)
(0.115245 0.385222 -2.64731e-20)
(0.11814 0.3956 -4.33462e-22)
(0.120695 0.404492 -2.67076e-20)
(0.122796 0.411737 5.69155e-20)
(0.00152861 -0.0103543 0)
(0.00438131 -0.0217354 5.5239e-20)
(0.00752761 -0.0251356 5.89172e-24)
(0.0106006 -0.0225991 -1.92425e-20)
(0.0137002 -0.0155116 6.51255e-20)
(0.0168667 -0.00487737 3.96177e-20)
(0.0201421 0.0085391 3.99395e-20)
(0.0235546 0.0241473 0)
(0.0271241 0.0414844 0)
(0.0308591 0.0601796 4.06326e-20)
(0.034755 0.0799266 1.27724e-23)
(0.0388005 0.100465 -9.49133e-20)
(0.0429783 0.121564 8.12761e-20)
(0.0472643 0.143015 -2.71167e-20)
(0.05163 0.164624 2.69333e-20)
(0.0560449 0.186208 2.69244e-20)
(0.060475 0.207588 -2.68903e-20)
(0.0648854 0.228599 2.69062e-20)
(0.0692417 0.24908 5.35916e-20)
(0.0735093 0.268885 -2.66236e-20)
(0.0776541 0.287876 -5.31475e-20)
(0.0816451 0.305933 5.29943e-20)
(0.0854543 0.322948 -5.28422e-20)
(0.0890584 0.338833 2.64677e-20)
(0.0924393 0.353513 0)
(0.0955855 0.366925 0)
(0.0984985 0.379014 3.49262e-22)
(0.101194 0.389715 -1.0408e-19)
(0.103594 0.398941 5.18992e-20)
(0.105577 0.406529 -5.71391e-20)
(0.00182341 -0.0106902 0)
(0.00487336 -0.0225684 -4.90949e-20)
(0.00783457 -0.0264032 5.02154e-20)
(0.0104917 -0.0242869 0)
(0.013009 -0.0176254 -1.04118e-19)
(0.0154775 -0.00742948 -1.31799e-20)
(0.0179754 0.00553524 -2.66531e-20)
(0.0205582 0.0206825 -1.33985e-20)
(0.0232638 0.0375554 0)
(0.0261135 0.0557883 -2.70287e-20)
(0.0291137 0.0750811 2.7055e-20)
(0.0322612 0.0951803 5.42062e-20)
(0.0355457 0.115862 -5.41792e-20)
(0.0389495 0.136925 0)
(0.0424504 0.15818 -5.40117e-20)
(0.0460236 0.179449 5.37636e-20)
(0.0496409 0.200562 5.3754e-20)
(0.0532735 0.221355 8.02887e-20)
(0.0568924 0.241674 -8.00817e-20)
(0.0604684 0.261374 1.06495e-19)
(0.0639719 0.28032 5.32106e-20)
(0.0673759 0.29839 -5.29948e-20)
(0.0706559 0.315478 1.05475e-19)
(0.0737908 0.331489 0)
(0.0767638 0.346345 5.22989e-20)
(0.0795645 0.359977 1.04582e-19)
(0.0821954 0.372321 -5.16223e-20)
(0.0846721 0.383303 5.20709e-20)
(0.0868956 0.392829 4.26606e-23)
(0.0887357 0.400736 -5.68328e-20)
(0.00212409 -0.0109713 -5.632e-21)
(0.00536927 -0.0232683 0)
(0.00813699 -0.0274901 -6.27651e-20)
(0.0103732 -0.0257649 1.27889e-20)
(0.0123086 -0.0195163 3.90233e-20)
(0.0140874 -0.00975781 1.31567e-20)
(0.0158239 0.00274943 5.30991e-20)
(0.017599 0.0174245 0)
(0.0194679 0.0338169 2.68949e-20)
(0.0214648 0.0515683 2.69363e-20)
(0.0236054 0.0703862 -2.70301e-20)
(0.0258936 0.0900235 8.10242e-20)
(0.0283253 0.110264 0)
(0.0308882 0.130911 0)
(0.0335653 0.151782 8.07405e-20)
(0.0363363 0.172706 -1.34229e-19)
(0.0391783 0.193516 5.34973e-20)
(0.0420677 0.214055 -5.34626e-20)
(0.0449804 0.234173 -5.31589e-20)
(0.0478914 0.253726 -1.5931e-19)
(0.0507754 0.272583 -2.2887e-22)
(0.0536093 0.290623 5.26215e-20)
(0.0563718 0.307736 -1.05074e-19)
(0.0590439 0.323828 5.22602e-20)
(0.0616108 0.338814 -2.21046e-22)
(0.0640627 0.352621 -5.21312e-20)
(0.0664037 0.365177 5.19604e-20)
(0.0686493 0.376404 0)
(0.0706799 0.386198 5.13147e-20)
(0.0723574 0.394402 5.07023e-22)
(0.00242587 -0.0111931 -1.12545e-20)
(0.00585779 -0.0238259 1.22442e-20)
(0.00841918 -0.0283859 -7.51582e-20)
(0.0102275 -0.0270262 -3.83008e-20)
(0.0115817 -0.02118 5.18775e-20)
(0.0126798 -0.0118589 -7.88022e-20)
(0.0136715 0.000182407 -2.65712e-20)
(0.014662 0.0143711 -5.33938e-20)
(0.0157235 0.0302656 5.36555e-20)
(0.0169012 0.0475159 -1.07726e-19)
(0.0182196 0.0658369 -5.39061e-20)
(0.0196889 0.0849889 -8.66356e-23)
(0.02131 0.104762 2.69865e-20)
(0.0230752 0.124967 -8.07056e-20)
(0.0249715 0.145427 -1.07476e-19)
(0.0269827 0.165975 -3.06857e-23)
(0.0290904 0.186452 -1.4203e-22)
(0.0312754 0.206703 5.32171e-20)
(0.0335175 0.226583 5.31594e-20)
(0.0357954 0.245952 -6.36569e-23)
(0.0380879 0.264679 -2.81829e-22)
(0.0403752 0.282646 5.22327e-20)
(0.042639 0.299742 5.24416e-20)
(0.0448624 0.315871 7.26077e-23)
(0.0470323 0.330945 -1.56031e-19)
(0.04914 0.344885 1.03285e-19)
(0.0511908 0.357615 1.03539e-19)
(0.0531997 0.369053 -1.02417e-19)
(0.0550278 0.379087 -5.13153e-20)
(0.0565279 0.387571 -5.6507e-20)
(0.00272318 -0.0113505 -1.01176e-19)
(0.00632661 -0.0242346 -1.22307e-20)
(0.00866582 -0.0290853 6.26093e-20)
(0.0100384 -0.0280659 5.10735e-20)
(0.0108125 -0.0226135 -5.18773e-20)
(0.0112401 -0.0137327 5.2521e-20)
(0.0115051 -0.00216751 -2.64931e-20)
(0.0117365 0.0115199 8.00696e-20)
(0.0120215 0.026898 -5.36556e-20)
(0.0124159 0.0436263 5.38215e-20)
(0.0129514 0.0614281 2.69617e-20)
(0.0136441 0.0800713 -2.69943e-20)
(0.0144988 0.0993533 -1.615e-19)
(0.0155114 0.11909 1.07522e-19)
(0.0166722 0.139112 5.36905e-20)
(0.0179688 0.159256 0)
(0.0193863 0.179368 0)
(0.0209091 0.199299 -2.52782e-22)
(0.0225202 0.218908 -5.29831e-20)
(0.0242019 0.238057 0)
(0.0259363 0.256618 0)
(0.0277066 0.274474 -5.24638e-20)
(0.0294968 0.291514 0)
(0.0312924 0.30764 -1.03817e-19)
(0.0330817 0.322763 0)
(0.0348568 0.3368 -5.16794e-20)
(0.0366239 0.34967 1.03077e-19)
(0.0383971 0.361288 -1.01959e-19)
(0.0400193 0.37154 0)
(0.0413323 0.380288 0)
(0.00301033 -0.0114399 8.99294e-20)
(0.00676352 -0.0244888 0)
(0.00886208 -0.0295831 -1.25045e-20)
(0.00979065 -0.028881 1.27422e-20)
(0.00998675 -0.0238159 -7.75914e-20)
(0.00975589 -0.0153799 2.86045e-24)
(0.00931508 -0.00430245 -2.64535e-20)
(0.00881505 0.00886726 0)
(0.00835724 0.0237098 0)
(0.00800647 0.0398948 -2.68615e-20)
(0.00780114 0.057155 2.68878e-20)
(0.00776169 0.0752661 -5.38407e-20)
(0.00789619 0.0940323 5.3877e-20)
(0.0082034 0.113276 0)
(0.00867666 0.132832 0)
(0.00930639 0.152545 0)
(0.0100807 0.172265 5.30916e-20)
(0.0109866 0.191847 -8.14084e-23)
(0.0120103 0.211152 5.308e-20)
(0.0131369 0.230049 -1.05259e-19)
(0.0143513 0.24841 5.26025e-20)
(0.0156393 0.26612 -2.61334e-19)
(0.016987 0.283069 -1.59737e-22)
(0.0183818 0.299157 1.03819e-19)
(0.0198133 0.314294 -4.67845e-22)
(0.0212741 0.328393 1.02464e-19)
(0.0227703 0.341373 -1.02147e-19)
(0.0243146 0.353147 -1.02184e-19)
(0.0257335 0.363598 -1.00442e-22)
(0.0268547 0.3726 -1.11262e-19)
(0.00328145 -0.0114581 -1.12286e-20)
(0.00715628 -0.0245841 0)
(0.00899346 -0.0298758 2.49795e-20)
(0.00947006 -0.0294699 -2.54545e-20)
(0.00909216 -0.0247876 2.32681e-19)
(0.00821751 -0.0168023 2.35017e-24)
(0.00709452 -0.00622562 -2.64183e-20)
(0.00589396 0.00640927 2.66084e-20)
(0.00472998 0.0206964 -1.33612e-19)
(0.00367525 0.036317 0)
(0.00277357 0.0530133 0)
(0.00204895 0.0705693 -5.36494e-20)
(0.00151197 0.088796 5.3803e-20)
(0.00116362 0.107522 -5.3675e-20)
(0.000999633 0.126589 5.3447e-20)
(0.00101281 0.145844 0)
(0.00119345 0.165145 -2.12743e-19)
(0.00153101 0.184349 1.05925e-19)
(0.00201415 0.203323 5.29025e-20)
(0.00263056 0.221936 1.57878e-19)
(0.00336749 0.240067 0)
(0.00421256 0.257598 1.04408e-19)
(0.00515385 0.274423 1.03582e-19)
(0.00618045 0.290441 1.03107e-19)
(0.00728271 0.305561 -2.81893e-22)
(0.00845313 0.319694 -1.02304e-19)
(0.00969709 0.332758 1.02148e-19)
(0.0110252 0.344666 0)
(0.0122489 0.355303 -8.60825e-23)
(0.0131784 0.364554 2.22265e-19)
(0.00353037 -0.0114025 -8.97324e-20)
(0.00749271 -0.0245174 0)
(0.00904625 -0.029962 -9.97412e-20)
(0.00906378 -0.0298329 -1.27072e-19)
(0.00811824 -0.0255305 -7.75276e-20)
(0.00661756 -0.0180034 2.61387e-20)
(0.0048395 -0.00794113 3.39811e-24)
(0.00297279 0.00414144 -2.65697e-20)
(0.00114265 0.0178536 1.26985e-22)
(-0.000571653 0.0328887 5.3593e-20)
(-0.0021221 0.0489994 5.36254e-20)
(-0.00348205 0.065978 -5.36058e-20)
(-0.00463915 0.0836425 5.36127e-20)
(-0.00559066 0.101828 -1.60704e-19)
(-0.00633901 0.120381 1.6024e-19)
(-0.00688964 0.139155 1.06549e-19)
(-0.00725039 0.158011 2.65718e-19)
(-0.00742984 0.176811 -5.29589e-20)
(-0.00743725 0.195426 -1.05398e-19)
(-0.00728285 0.213729 -1.35148e-22)
(-0.00697741 0.2316 -1.04815e-19)
(-0.00653168 0.248924 3.12268e-19)
(-0.0059561 0.265595 -2.07479e-19)
(-0.00526032 0.281514 2.05946e-19)
(-0.00445359 0.296588 -1.02795e-19)
(-0.00354427 0.31073 2.04339e-19)
(-0.00252865 0.323856 4.29973e-22)
(-0.001399 0.335883 -2.0222e-19)
(-0.000357079 0.346696 2.00654e-19)
(0.000385886 0.356196 1.10635e-19)
(0.00375083 -0.0112711 8.97322e-20)
(0.00776079 -0.0242874 0)
(0.00900751 -0.0298418 2.24293e-19)
(0.00856037 -0.0299721 7.6249e-20)
(0.00705648 -0.0260481 0)
(0.00495108 -0.0189875 0)
(0.00254884 -0.00945387 0)
(5.42029e-05 0.00205896 0)
(-0.00239836 0.0151768 5.33947e-20)
(-0.00472441 0.0296063 5.35044e-20)
(-0.0068728 0.0451107 -1.07272e-19)
(-0.00881521 0.0614908 1.07315e-19)
(-0.0105381 0.0785718 1.608e-19)
(-0.0120377 0.0961948 5.36116e-20)
(-0.013315 0.114212 5.33863e-20)
(-0.0143741 0.132482 -1.59739e-19)
(-0.0152214 0.150869 -2.12325e-19)
(-0.0158639 0.169242 -1.05816e-19)
(-0.0163091 0.187473 1.05399e-19)
(-0.0165654 0.205439 -2.10082e-19)
(-0.0166422 0.223023 1.04217e-19)
(-0.0165488 0.240113 -2.08243e-19)
(-0.0162943 0.256604 1.03392e-19)
(-0.0158876 0.272398 3.43081e-22)
(-0.0153384 0.287403 -1.0218e-19)
(-0.0146563 0.301531 -2.04214e-19)
(-0.0138403 0.314701 2.02595e-19)
(-0.0128863 0.326834 0)
(-0.0120075 0.33782 8.61742e-23)
(-0.0114413 0.34757 -2.21042e-19)
(0.00393657 -0.011063 1.12045e-20)
(0.0079489 -0.0238942 0)
(0.00886529 -0.0295176 -9.96308e-20)
(0.00794996 -0.0298913 2.53653e-20)
(0.0059004 -0.0263455 -2.57561e-20)
(0.00321555 -0.0197603 0)
(0.000224146 -0.0107693 -2.63246e-20)
(-0.00285613 0.000156861 2.65062e-20)
(-0.00588354 0.0126621 5.33036e-20)
(-0.00876986 0.0264669 -1.60327e-19)
(-0.011462 0.0413457 -5.35879e-20)
(-0.0139308 0.057108 -6.67704e-23)
(-0.0161623 0.0735857 -3.24206e-23)
(-0.0181519 0.0906263 -1.06974e-19)
(-0.0199 0.108087 -5.34592e-20)
(-0.0214098 0.125832 0)
(-0.0226863 0.14373 -1.30899e-22)
(-0.0237353 0.161652 1.05736e-19)
(-0.0245629 0.179476 -1.05085e-19)
(-0.0251762 0.197082 0)
(-0.0255831 0.214356 0)
(-0.0257918 0.231187 0)
(-0.0258105 0.247473 0)
(-0.0256479 0.263118 -1.40399e-22)
(-0.0253142 0.278031 0)
(-0.0248212 0.292126 0)
(-0.0241717 0.305326 1.01018e-19)
(-0.0233659 0.317556 1.00406e-19)
(-0.0226268 0.328714 1.00135e-19)
(-0.0222224 0.338722 9.69408e-23)
(0.00408141 -0.0107783 1.11963e-20)
(0.00804598 -0.0233397 -2.43064e-20)
(0.00860887 -0.0289932 1.49138e-19)
(0.0072244 -0.0295959 -2.53369e-20)
(0.00464565 -0.026429 2.57251e-20)
(0.00141089 -0.0203282 3.44571e-24)
(-0.00213033 -0.0118935 7.88117e-20)
(-0.00574978 -0.00156995 -1.05863e-19)
(-0.00930045 0.0103055 1.59667e-19)
(-0.0126918 0.0234682 4.42356e-23)
(-0.0158699 0.0377041 -5.34977e-20)
(-0.0188057 0.052831 1.07061e-19)
(-0.0214855 0.0686879 -1.07021e-19)
(-0.0239045 0.0851283 1.06885e-19)
(-0.0260626 0.102015 0)
(-0.0279625 0.119216 1.06378e-19)
(-0.0296085 0.136604 0)
(-0.0310052 0.154057 3.63748e-23)
(-0.0321575 0.171453 -1.05204e-19)
(-0.0330715 0.188677 -1.04741e-19)
(-0.033754 0.205618 1.0425e-19)
(-0.0342121 0.222167 -1.03736e-19)
(-0.0344536 0.238226 -1.03199e-19)
(-0.0344869 0.253701 -2.05385e-19)
(-0.0343234 0.268502 -1.02059e-19)
(-0.033978 0.282548 1.01763e-19)
(-0.0334578 0.295765 -2.01699e-19)
(-0.0327685 0.308086 -1.00407e-19)
(-0.0321406 0.319419 0)
(-0.031878 0.329694 -1.10228e-19)
(0.00417933 -0.0104176 0)
(0.00804178 -0.0226277 9.70804e-20)
(0.00822888 -0.0282746 -7.45722e-20)
(0.00637741 -0.0290934 -1.26459e-19)
(0.00329009 -0.0263063 0)
(-0.000460515 -0.0206986 0)
(-0.00450775 -0.0128328 -1.57631e-19)
(-0.00861564 -0.00312648 2.11589e-19)
(-0.0126339 0.00810392 -1.59562e-19)
(-0.0164713 0.0206093 0)
(-0.0200741 0.0341869 5.34807e-20)
(-0.0234144 0.0486632 -5.35839e-20)
(-0.0264791 0.0638842 5.16235e-23)
(-0.0292637 0.0797091 -5.35313e-20)
(-0.0317684 0.0960056 -5.33737e-20)
(-0.0339955 0.112647 -2.21723e-23)
(-0.0359487 0.129509 1.06016e-19)
(-0.0376319 0.146474 1.05639e-19)
(-0.0390492 0.163424 -1.78997e-22)
(-0.0402057 0.180247 2.09275e-19)
(-0.0411071 0.196835 -2.08697e-19)
(-0.04176 0.213082 2.07235e-19)
(-0.0421714 0.228894 1.03201e-19)
(-0.0423501 0.244178 1.02641e-19)
(-0.0423091 0.25885 9.49664e-23)
(-0.0420663 0.27283 0)
(-0.0416347 0.286053 1.0097e-19)
(-0.0410261 0.298461 -3.00471e-19)
(-0.0404761 0.309972 9.84917e-20)
(-0.0403303 0.320527 1.09524e-19)
(0.00422469 -0.00998298 -6.70319e-20)
(0.00792703 -0.0217638 -2.18304e-19)
(0.00771761 -0.0273696 8.83805e-24)
(0.00540478 -0.0283926 1.34403e-22)
(0.00183392 -0.0259864 -7.69116e-20)
(-0.00239378 -0.0208795 0)
(-0.0068987 -0.0135939 -5.2383e-20)
(-0.01144 -0.00451749 -3.17086e-19)
(-0.0158663 0.00605482 1.59426e-19)
(-0.020087 0.01789 -1.06603e-19)
(-0.0240498 0.0307967 1.60314e-19)
(-0.0277287 0.04461 -5.34455e-20)
(-0.0311118 0.0591827 1.06973e-19)
(-0.0341955 0.0743798 -2.67146e-19)
(-0.0369805 0.0900737 1.59891e-19)
(-0.0394692 0.106142 1.45866e-22)
(-0.0416652 0.122465 -3.17893e-19)
(-0.0435716 0.138927 1.05802e-19)
(-0.0451921 0.155415 -1.05009e-19)
(-0.0465311 0.171821 0)
(-0.0475933 0.188037 1.04222e-19)
(-0.0483844 0.203964 0)
(-0.0489113 0.219509 -1.03342e-19)
(-0.0491831 0.234584 1.02326e-19)
(-0.0492146 0.249109 1.01966e-19)
(-0.0490271 0.26301 1.01252e-19)
(-0.0486402 0.276228 0)
(-0.0480725 0.288717 0)
(-0.0475626 0.300412 -1.98949e-19)
(-0.0475033 0.311259 3.28689e-19)
(0.00421227 -0.00947729 6.70704e-20)
(0.00769373 -0.0207554 1.21221e-19)
(0.0070692 -0.026288 -9.90427e-20)
(0.00430458 -0.027504 2.01913e-19)
(0.000279848 -0.0254793 2.57651e-20)
(-0.00438147 -0.0208797 2.59564e-20)
(-0.00929117 -0.0141835 1.52435e-22)
(-0.0142066 -0.00574727 -1.0547e-19)
(-0.0189773 0.00415663 -5.30504e-20)
(-0.0235149 0.0153115 8.743e-23)
(-0.0277698 0.0275376 -7.05079e-23)
(-0.0317182 0.0406785 -1.60399e-19)
(-0.0353504 0.0545939 -5.34904e-20)
(-0.0386638 0.069154 2.12637e-23)
(-0.0416601 0.084236 1.06616e-19)
(-0.0443425 0.0997211 1.06356e-19)
(-0.0467143 0.115494 -1.22396e-23)
(-0.0487787 0.131442 -1.05649e-19)
(-0.0505389 0.147457 1.05395e-19)
(-0.0519986 0.16343 -1.04543e-19)
(-0.0531619 0.179261 -2.08465e-19)
(-0.0540337 0.194852 -1.03894e-19)
(-0.0546204 0.210113 2.0603e-19)
(-0.0549319 0.224962 0)
(-0.0549843 0.239323 -1.01869e-19)
(-0.0548029 0.25313 -2.0245e-19)
(-0.0544141 0.266331 -2.01434e-19)
(-0.053844 0.278895 9.94816e-20)
(-0.0533321 0.290776 -2.97571e-19)
(-0.0533239 0.301927 1.09209e-19)
(0.00413746 -0.0089045 -1.11511e-19)
(0.00733537 -0.0196117 2.42227e-20)
(0.00627983 -0.0250413 9.90438e-20)
(0.00307729 -0.0264396 -7.5686e-20)
(-0.00136683 -0.0247959 2.56553e-20)
(-0.00641349 -0.0207081 -1.78467e-23)
(-0.0116706 -0.014608 2.61652e-19)
(-0.0168967 -0.00681934 1.05524e-19)
(-0.0219444 0.00240892 1.06111e-19)
(-0.0267291 0.0128767 1.59795e-19)
(-0.0312047 0.0244157 -1.60101e-19)
(-0.0353506 0.0368783 1.06892e-19)
(-0.0391594 0.0501306 2.13902e-19)
(-0.0426304 0.0640483 1.0692e-19)
(-0.0457667 0.0785127 1.48603e-22)
(-0.0485723 0.0934089 -2.12568e-19)
(-0.051051 0.108625 2.12246e-19)
(-0.053206 0.124052 1.60776e-22)
(-0.0550405 0.139583 -1.05427e-19)
(-0.0565578 0.155115 1.04574e-19)
(-0.0577612 0.170548 1.04243e-19)
(-0.058655 0.185789 -1.03727e-19)
(-0.0592453 0.200752 -2.06447e-19)
(-0.0595422 0.215359 -3.95202e-22)
(-0.0595634 0.229539 1.01674e-19)
(-0.0593375 0.243235 1.01198e-19)
(-0.0588984 0.256406 2.01281e-19)
(-0.05828 0.269036 -1.99023e-19)
(-0.0577202 0.281104 0)
(-0.0577228 0.292567 1.09422e-19)
(0.00399636 -0.0082696 1.01112e-22)
(0.00684714 -0.0183438 0)
(0.005348 -0.0236427 -7.40624e-20)
(0.00172601 -0.0252126 -2.51752e-20)
(-0.00309806 -0.0239479 -1.02149e-19)
(-0.00847698 -0.0203739 0)
(-0.0140196 -0.0148734 -1.56892e-19)
(-0.0194888 -0.00773629 5.26506e-20)
(-0.0247424 0.000812671 0)
(-0.0297009 0.01059 -1.06342e-19)
(-0.0343229 0.0214392 0)
(-0.0385913 0.0332211 -1.6026e-19)
(-0.0425016 0.0458085 1.60199e-19)
(-0.0460556 0.059082 -1.06787e-19)
(-0.0492579 0.0729271 -1.0662e-19)
(-0.0521139 0.0872324 0)
(-0.0546282 0.101889 0)
(-0.0568045 0.116791 1.05885e-19)
(-0.0586463 0.131835 3.78412e-22)
(-0.0601565 0.146918 1.05225e-19)
(-0.0613381 0.161945 -1.04103e-19)
(-0.0621946 0.176827 2.07671e-19)
(-0.0627317 0.191479 -1.02958e-19)
(-0.0629599 0.20583 0)
(-0.0628977 0.219814 3.05945e-19)
(-0.0625766 0.233383 -5.05791e-19)
(-0.0620378 0.246506 1.0009e-19)
(-0.061323 0.259188 9.96951e-20)
(-0.0606669 0.271437 9.88324e-20)
(-0.060636 0.283214 2.18906e-19)
(0.00378594 -0.00757851 -8.88919e-20)
(0.00622613 -0.0169642 1.92914e-19)
(0.00427464 -0.0221069 9.87691e-20)
(0.000256583 -0.0238374 2.26024e-19)
(-0.00490292 -0.0229475 2.80619e-19)
(-0.0105562 -0.0198861 5.16955e-20)
(-0.016318 -0.0149851 -2.6083e-19)
(-0.0219588 -0.00849949 0)
(-0.0273436 -0.000629434 -2.11573e-19)
(-0.0323996 0.00845823 -1.06153e-19)
(-0.0370905 0.0186189 0)
(-0.0414037 0.0297218 -1.06685e-19)
(-0.0453378 0.0416463 1.26311e-22)
(-0.0488974 0.0542781 -3.20143e-19)
(-0.0520895 0.0675064 1.06622e-19)
(-0.0549208 0.0812232 1.06572e-19)
(-0.0573973 0.0953227 -2.11875e-19)
(-0.0595237 0.109701 -2.1149e-19)
(-0.0613039 0.124256 -3.84129e-22)
(-0.062741 0.13889 -1.68623e-22)
(-0.0638377 0.153509 0)
(-0.0645971 0.168025 -1.03988e-19)
(-0.0650246 0.182359 -1.03437e-19)
(-0.0651303 0.196441 0)
(-0.0649333 0.210214 0)
(-0.0644672 0.223636 3.03822e-19)
(-0.0637798 0.236692 -3.00912e-19)
(-0.0629206 0.249405 0)
(-0.0621184 0.261822 2.96593e-19)
(-0.0620071 0.273908 -2.17918e-19)
(0.0035041 -0.00683805 2.22858e-22)
(0.0054715 -0.015487 -1.92959e-19)
(0.00306337 -0.0204499 -2.4644e-20)
(-0.0013222 -0.0223292 -2.5108e-19)
(-0.00676745 -0.0218073 -1.53034e-19)
(-0.0126324 -0.0192536 5.16205e-20)
(-0.0185428 -0.0149476 1.04392e-19)
(-0.0242798 -0.00910879 2.62545e-19)
(-0.0297177 -0.00191263 2.11577e-19)
(-0.0347914 0.0064907 2.12501e-19)
(-0.039471 0.0159684 0)
(-0.0437484 0.0263985 1.2081e-22)
(-0.0476261 0.0376666 0)
(-0.0511119 0.0496634 2.13522e-19)
(-0.0542151 0.0622818 0)
(-0.0569446 0.075417 -1.06598e-19)
(-0.0593079 0.0889657 1.05894e-19)
(-0.0613111 0.102826 0)
(-0.062959 0.116899 0)
(-0.0642554 0.131088 -3.15009e-19)
(-0.0652031 0.1453 1.04212e-19)
(-0.0658052 0.15945 0)
(-0.0660666 0.173461 2.06121e-19)
(-0.0659974 0.187267 2.05138e-19)
(-0.0656163 0.200816 -4.07623e-19)
(-0.0649578 0.214074 4.04712e-19)
(-0.0640756 0.227039 3.10728e-22)
(-0.0630256 0.239756 1.99241e-19)
(-0.0620287 0.252315 -1.97585e-19)
(-0.0617892 0.264691 0)
(0.00314985 -0.00605588 2.22139e-19)
(0.00458473 -0.0139276 -2.409e-20)
(0.00172064 -0.0186891 -1.96551e-19)
(-0.00299849 -0.020704 0)
(-0.00867457 -0.02054 -2.033e-19)
(-0.0146837 -0.0184846 0)
(-0.0206677 -0.0147643 -2.60102e-19)
(-0.0264217 -0.0095623 -1.57595e-19)
(-0.031831 -0.00302975 -2.1107e-19)
(-0.0368397 0.00469973 0)
(-0.0414247 0.0135052 5.32872e-20)
(-0.0455834 0.0232734 5.36823e-20)
(-0.0493222 0.0338964 -1.06593e-19)
(-0.0526522 0.0452696 -2.13427e-19)
(-0.0555858 0.0572896 -1.06426e-19)
(-0.0581341 0.0698546 -4.25728e-19)
(-0.0603067 0.0828642 2.11912e-19)
(-0.0621114 0.0962187 -3.9381e-22)
(-0.0635546 0.10982 -3.98466e-22)
(-0.0646411 0.123573 3.14669e-19)
(-0.0653746 0.137387 0)
(-0.0657585 0.151178 0)
(-0.065798 0.164869 4.13786e-22)
(-0.0655029 0.178397 3.20599e-22)
(-0.0648912 0.191712 -2.03924e-19)
(-0.0639976 0.20479 -2.0272e-19)
(-0.0628794 0.217636 -3.18344e-22)
(-0.0615976 0.230323 -1.99241e-19)
(-0.0603621 0.242988 -1.9772e-19)
(-0.0599486 0.255616 -1.8865e-22)
(0.00272337 -0.00524047 0)
(0.00356974 -0.0123028 1.91894e-19)
(0.000255909 -0.0168427 1.72014e-19)
(-0.00475725 -0.0189784 2.50076e-20)
(-0.010604 -0.0191583 4.06221e-19)
(-0.0166849 -0.017587 -5.14544e-20)
(-0.0226633 -0.014437 4.15638e-19)
(-0.028351 -0.00985607 2.0933e-19)
(-0.0336467 -0.00397089 3.16551e-19)
(-0.0385045 0.00310109 1.58895e-19)
(-0.042909 0.0112508 5.32453e-20)
(-0.046863 0.0203735 2.66753e-19)
(-0.0503778 0.0303677 3.33116e-22)
(-0.053468 0.0411336 1.06906e-19)
(-0.0561491 0.0525716 2.13233e-19)
(-0.0584348 0.0645831 2.12865e-19)
(-0.0603371 0.0770701 0)
(-0.061866 0.0899351 0)
(-0.0630299 0.103082 0)
(-0.0638355 0.116416 0)
(-0.0642879 0.129848 2.09062e-19)
(-0.064392 0.143293 0)
(-0.0641538 0.156675 -3.27678e-22)
(-0.0635837 0.169931 4.10394e-19)
(-0.0626991 0.183011 2.03627e-19)
(-0.061534 0.195895 2.02149e-19)
(-0.0601476 0.208598 4.01786e-19)
(-0.0586028 0.221212 0)
(-0.0570945 0.23393 -3.95253e-19)
(-0.0564672 0.246753 4.34849e-19)
(0.00222615 -0.00440097 1.76825e-19)
(0.00243303 -0.01063 -1.91899e-19)
(-0.00131831 -0.0149298 0)
(-0.00658019 -0.0171693 -1.99394e-19)
(-0.012532 -0.0176748 -5.11137e-20)
(-0.0186076 -0.0165675 -1.53807e-19)
(-0.0244967 -0.0139664 -4.66884e-19)
(-0.030031 -0.00998389 -4.45478e-22)
(-0.0351244 -0.00472314 -1.57861e-19)
(-0.039742 0.00171436 -3.70391e-19)
(-0.0438768 0.00923111 -5.30473e-20)
(-0.0475378 0.0177309 -2.12876e-19)
(-0.0507409 0.0271187 -2.13167e-19)
(-0.0535048 0.0372993 0)
(-0.0558482 0.0481771 -2.13119e-19)
(-0.0577877 0.0596569 -3.19449e-19)
(-0.059338 0.0716433 1.05981e-19)
(-0.0605116 0.084041 -2.1175e-19)
(-0.0613195 0.0967555 -2.11001e-19)
(-0.0617708 0.109694 0)
(-0.0618732 0.122767 -4.18177e-19)
(-0.0616341 0.135889 0)
(-0.0610622 0.148984 -4.13814e-19)
(-0.0601693 0.161984 -2.05753e-19)
(-0.0589738 0.17484 -4.07982e-19)
(-0.0575092 0.187528 2.02786e-19)
(-0.0558349 0.200066 -6.02437e-19)
(-0.0540123 0.212563 1.99255e-19)
(-0.0522139 0.225267 2.01145e-24)
(-0.0513446 0.238198 -2.1748e-19)
(0.00166106 -0.0035471 -1.76828e-19)
(0.00118372 -0.00892795 2.39003e-20)
(-0.00298635 -0.0129701 1.70852e-19)
(-0.00844575 -0.0152938 1.99398e-19)
(-0.0144318 -0.0161017 -2.02509e-19)
(-0.02042 -0.0154321 4.36328e-22)
(-0.0261317 -0.0133513 2.07299e-19)
(-0.0314214 -0.00993731 -4.17746e-19)
(-0.0362198 -0.00527045 -5.22906e-20)
(-0.0405045 0.000563131 4.75589e-19)
(-0.044277 0.00747725 -3.18359e-19)
(-0.0475533 0.015384 5.31749e-19)
(-0.0503542 0.0241944 5.32886e-19)
(-0.0527026 0.0338182 -1.06396e-19)
(-0.0546207 0.0441638 2.13122e-19)
(-0.056128 0.0551396 3.19432e-19)
(-0.0572422 0.066653 1.06351e-19)
(-0.0579786 0.0786115 2.61756e-23)
(-0.058351 0.0909224 1.05289e-19)
(-0.0583718 0.103495 1.04859e-19)
(-0.0580523 0.116239 -1.04764e-19)
(-0.0574038 0.129072 1.03809e-19)
(-0.0564395 0.141912 -2.06754e-19)
(-0.0551757 0.154689 2.05426e-19)
(-0.0536345 0.167347 2.70609e-23)
(-0.0518511 0.179856 2.02454e-19)
(-0.0498858 0.192224 4.9049e-23)
(-0.0477945 0.204565 -1.98968e-19)
(-0.0457164 0.217173 2.51208e-22)
(-0.0445961 0.230093 0)
(0.00103231 -0.00268898 0)
(-0.000166371 -0.00721545 0)
(-0.00472944 -0.0109837 -2.1969e-19)
(-0.0103291 -0.0133691 2.48437e-20)
(-0.0162731 -0.0144509 0)
(-0.0220871 -0.0141861 2.04696e-19)
(-0.0275287 -0.0125894 5.17152e-20)
(-0.0324782 -0.00970567 1.56612e-19)
(-0.0368848 -0.00559374 2.10126e-19)
(-0.0407397 -0.000324911 -2.1125e-19)
(-0.0440538 0.00602542 2.12084e-19)
(-0.0468501 0.0133772 -2.12654e-19)
(-0.049155 0.0216473 -2.12984e-19)
(-0.0509957 0.0307505 0)
(-0.0523978 0.0405991 0)
(-0.0533843 0.0511053 0)
(-0.0539754 0.0621798 -2.12315e-19)
(-0.0541897 0.073733 3.17796e-19)
(-0.054044 0.0856752 -1.05273e-19)
(-0.0535542 0.0979177 0)
(-0.0527363 0.110373 3.13869e-19)
(-0.051607 0.122958 -1.03798e-19)
(-0.0501863 0.13559 2.06754e-19)
(-0.0484987 0.148194 -4.11042e-19)
(-0.0465748 0.160706 4.076e-19)
(-0.0444578 0.173079 2.43322e-22)
(-0.0422134 0.185304 3.17737e-22)
(-0.0398924 0.197474 1.98858e-19)
(-0.0375845 0.209903 -4.30535e-22)
(-0.0362294 0.22265 2.16442e-19)
(0.000345541 -0.00183696 2.19366e-20)
(-0.00160282 -0.00551175 -2.3834e-20)
(-0.00652574 -0.0089908 4.86349e-20)
(-0.0122022 -0.0114125 -2.97056e-19)
(-0.0180226 -0.0127341 5.03245e-20)
(-0.0235705 -0.0128339 0)
(-0.0286446 -0.0116768 2.05955e-19)
(-0.0331538 -0.00927643 -2.07807e-19)
(-0.0370675 -0.00567115 0)
(-0.0403913 -0.000918302 2.63277e-19)
(-0.0431465 0.00491678 -5.28165e-20)
(-0.0453635 0.0117613 0)
(-0.0470746 0.0195378 -1.06524e-19)
(-0.0483116 0.0281655 2.12803e-19)
(-0.0491038 0.0375609 -1.06163e-19)
(-0.0494772 0.04764 1.06498e-19)
(-0.0494551 0.058317 -2.12152e-19)
(-0.0490587 0.0695061 -4.44297e-22)
(-0.0483082 0.0811209 -4.32585e-22)
(-0.0472231 0.0930763 -1.05148e-19)
(-0.0458239 0.105289 -2.09409e-19)
(-0.0441341 0.117677 -7.42757e-22)
(-0.0421824 0.13016 -2.64301e-22)
(-0.0400053 0.142661 2.05329e-19)
(-0.0376491 0.155108 -2.04097e-19)
(-0.0351749 0.167439 2.02377e-19)
(-0.0326667 0.179607 -4.01275e-19)
(-0.030182 0.191651 -3.49575e-22)
(-0.0277464 0.203845 -3.94709e-19)
(-0.0261963 0.21623 2.1595e-19)
(-0.00039205 -0.00100163 0)
(-0.00310836 -0.00383638 -1.8951e-19)
(-0.00835026 -0.00701177 0)
(-0.0140339 -0.00944115 5.65327e-22)
(-0.0196436 -0.0109628 5.02258e-20)
(-0.0248287 -0.0113795 6.71051e-23)
(-0.0294332 -0.010609 -4.11298e-19)
(-0.0333973 -0.00863558 1.55974e-19)
(-0.0367122 -0.00547857 0)
(-0.039399 -0.00118239 -2.63184e-19)
(-0.04149 0.00419681 5.27186e-20)
(-0.0430238 0.0105927 0)
(-0.044039 0.0179331 -1.06381e-19)
(-0.044572 0.0261411 1.06044e-19)
(-0.044656 0.0351375 1.05882e-19)
(-0.0443201 0.0448416 2.12335e-19)
(-0.0435906 0.0551718 -1.05752e-19)
(-0.0424911 0.0660457 0)
(-0.0410444 0.0773815 0)
(-0.0392731 0.0890992 2.09949e-19)
(-0.0372019 0.101121 -2.0924e-19)
(-0.0348603 0.11337 2.0734e-19)
(-0.0322859 0.125773 2.06538e-19)
(-0.0295293 0.138258 2.05352e-19)
(-0.0266584 0.150758 -2.03267e-19)
(-0.0237658 0.163201 2.02122e-19)
(-0.020979 0.175509 2.00591e-19)
(-0.0184087 0.187649 -1.98413e-19)
(-0.0160661 0.199794 -1.31632e-22)
(-0.0145072 0.211836 4.31091e-19)
(-0.00117262 -0.000192775 2.18154e-20)
(-0.004664 -0.00220776 1.65864e-19)
(-0.0101759 -0.00506601 0)
(-0.0157906 -0.00747137 1.9742e-19)
(-0.0210972 -0.00914749 0)
(-0.025818 -0.00982595 0)
(-0.0298459 -0.0093802 1.5411e-19)
(-0.0331554 -0.00776768 -1.31736e-22)
(-0.0357606 -0.00499005 5.20842e-20)
(-0.0376994 -0.00108001 5.25621e-20)
(-0.0390159 0.00391435 -1.58232e-19)
(-0.0397575 0.00993238 1.05557e-19)
(-0.0399694 0.0169061 0)
(-0.0396932 0.0247626 0)
(-0.0389661 0.0334258 -2.12386e-19)
(-0.0378204 0.0428186 0)
(-0.0362849 0.0528629 -1.06087e-19)