/*--------------------------------*- C++ -*----------------------------------*\
  =========                 |
  \\      /  F ield         | OpenFOAM: The Open Source CFD Toolbox
   \\    /   O peration     | Website:  https://openfoam.org
    \\  /    A nd           | Version:  7
     \\/     M anipulation  |
\*---------------------------------------------------------------------------*/
FoamFile
{
    version     2.0;
    format      ascii;
    class       volScalarField;
    location    "8.2";
    object      p;
}
// * * * * * * * * * * * * * * * * * * * * * * * * * * * * * * * * * * * * * //

dimensions      [0 2 -2 0 0 0 0];

internalField   nonuniform List<scalar> 
32000
(
0.27591
0.276554
0.2769
0.277234
0.27754
0.277829
0.278091
0.27833
0.278572
0.278843
0.279164
0.279542
0.279985
0.280504
0.281111
0.281819
0.28264
0.283584
0.284664
0.285892
0.287275
0.288818
0.29052
0.292376
0.294382
0.296533
0.29882
0.301235
0.303766
0.306402
0.30913
0.311941
0.31482
0.317753
0.320727
0.323727
0.326742
0.329766
0.332772
0.335698
0.276104
0.276721
0.277042
0.277344
0.277619
0.277879
0.278112
0.278323
0.278539
0.278784
0.279074
0.279418
0.279827
0.28031
0.280881
0.28155
0.282328
0.283225
0.284253
0.285425
0.286749
0.288228
0.289861
0.291644
0.29357
0.295638
0.297841
0.30017
0.302616
0.305167
0.307811
0.310537
0.313333
0.316186
0.319081
0.322005
0.324948
0.3279
0.330832
0.333696
0.276305
0.276892
0.277188
0.277459
0.277704
0.277932
0.278136
0.27832
0.278513
0.278735
0.278997
0.279311
0.279687
0.280138
0.280675
0.281308
0.282047
0.282902
0.283884
0.285006
0.286275
0.287696
0.289265
0.290977
0.292828
0.294816
0.296937
0.299184
0.301546
0.304014
0.306575
0.309218
0.311931
0.314701
0.317516
0.320362
0.323229
0.326109
0.328963
0.331763
0.276504
0.277053
0.277326
0.277572
0.277788
0.277986
0.278163
0.278325
0.278498
0.278698
0.278937
0.279223
0.27957
0.27999
0.280496
0.281098
0.281802
0.282619
0.28356
0.284637
0.285858
0.287224
0.288732
0.290377
0.292156
0.294069
0.296112
0.298278
0.30056
0.302946
0.305425
0.307985
0.310615
0.313302
0.316035
0.318801
0.321591
0.324395
0.327171
0.329902
0.27671
0.277222
0.277473
0.277694
0.277881
0.27805
0.278201
0.278344
0.278499
0.27868
0.278896
0.279157
0.279477
0.27987
0.280348
0.28092
0.281594
0.282378
0.283283
0.28432
0.285497
0.286812
0.288262
0.289843
0.291554
0.293395
0.295364
0.297454
0.299657
0.301963
0.30436
0.306838
0.309385
0.311989
0.31464
0.317324
0.320036
0.322762
0.325455
0.328117
0.276921
0.27739
0.27762
0.277817
0.277978
0.27812
0.278248
0.278373
0.278511
0.278674
0.278871
0.27911
0.279408
0.279778
0.280231
0.280777
0.281424
0.282179
0.283054
0.284056
0.285192
0.286459
0.287854
0.289376
0.291023
0.292797
0.294695
0.296712
0.298838
0.301065
0.303383
0.305779
0.308244
0.310766
0.313333
0.315935
0.318565
0.321212
0.323821
0.326408
0.277138
0.277564
0.277772
0.277946
0.278082
0.2782
0.278307
0.278415
0.278539
0.278686
0.278865
0.279087
0.279366
0.279715
0.280147
0.28067
0.281295
0.282026
0.282874
0.283846
0.284944
0.286167
0.287511
0.288977
0.290565
0.292276
0.294107
0.296053
0.298106
0.300256
0.302494
0.30481
0.307194
0.309632
0.312116
0.314635
0.317183
0.319747
0.322269
0.32478
0.277361
0.277742
0.277929
0.27808
0.278194
0.278291
0.278379
0.278471
0.278581
0.278715
0.27888
0.279088
0.279351
0.279683
0.280096
0.280602
0.281207
0.28192
0.282746
0.283691
0.284754
0.285935
0.287233
0.288647
0.29018
0.291832
0.2936
0.295479
0.29746
0.299535
0.301696
0.303933
0.306236
0.308592
0.310992
0.313427
0.31589
0.31837
0.320803
0.323235
0.277589
0.277923
0.278089
0.278219
0.278313
0.278391
0.278462
0.278541
0.278638
0.278761
0.278915
0.279112
0.279364
0.279682
0.28008
0.280571
0.281163
0.281861
0.282669
0.283589
0.284622
0.285765
0.28702
0.288388
0.289871
0.291467
0.293175
0.294989
0.296901
0.298904
0.30099
0.303149
0.305371
0.307645
0.309961
0.312311
0.314689
0.317083
0.319425
0.321776
0.277821
0.278106
0.278252
0.278362
0.278439
0.2785
0.278557
0.278623
0.27871
0.278823
0.278971
0.279161
0.279403
0.279711
0.280099
0.28058
0.281162
0.281849
0.282642
0.283542
0.284547
0.285657
0.286874
0.2882
0.289635
0.291181
0.292833
0.294585
0.296431
0.298364
0.300376
0.302459
0.304601
0.306793
0.309025
0.311289
0.313581
0.315887
0.318137
0.320403
0.278055
0.278291
0.278416
0.278509
0.278571
0.278618
0.278662
0.278718
0.278796
0.278904
0.279047
0.279233
0.27947
0.279772
0.280154
0.280629
0.281205
0.281884
0.282666
0.283549
0.28453
0.285611
0.286794
0.288082
0.289475
0.290973
0.292572
0.294266
0.296048
0.297914
0.299855
0.301863
0.303927
0.306037
0.308185
0.310363
0.312567
0.314785
0.31694
0.31912
0.278293
0.278477
0.278583
0.278659
0.278708
0.278743
0.278777
0.278824
0.278896
0.279001
0.279143
0.279328
0.279563
0.279863
0.280243
0.280717
0.281291
0.281966
0.282739
0.283608
0.28457
0.285627
0.286781
0.288035
0.28939
0.290844
0.292393
0.294031
0.295753
0.297554
0.299426
0.301361
0.303348
0.305377
0.307441
0.309533
0.311649
0.313777
0.315837
0.317928
0.278533
0.278663
0.27875
0.278811
0.278849
0.278874
0.2789
0.278941
0.27901
0.279114
0.279257
0.279444
0.279682
0.279985
0.280368
0.280845
0.28142
0.282093
0.28286
0.283718
0.284665
0.285702
0.286832
0.288057
0.289378
0.290792
0.292294
0.29388
0.295544
0.297283
0.299089
0.300952
0.302864
0.304813
0.306794
0.308799
0.310827
0.312864
0.314829
0.31683
0.278774
0.278851
0.278919
0.278965
0.278992
0.27901
0.27903
0.279068
0.279136
0.279242
0.279389
0.279581
0.279826
0.280136
0.280527
0.28101
0.28159
0.282263
0.283027
0.283878
0.284814
0.285837
0.286947
0.288148
0.289438
0.290815
0.292274
0.29381
0.295421
0.297101
0.298843
0.300637
0.302474
0.304346
0.306244
0.308163
0.310102
0.312048
0.313917
0.315825
0.279018
0.279039
0.279087
0.279119
0.279137
0.279149
0.279167
0.279204
0.279274
0.279384
0.279537
0.279738
0.279993
0.280315
0.280719
0.281212
0.281798
0.282474
0.283238
0.284086
0.285016
0.286028
0.287123
0.288304
0.289568
0.290912
0.292331
0.293821
0.295381
0.297006
0.298687
0.300414
0.302179
0.303973
0.30579
0.307624
0.309474
0.31133
0.313104
0.314918
0.279264
0.279228
0.279256
0.279272
0.279282
0.27929
0.279308
0.279348
0.279422
0.279538
0.2797
0.279912
0.280182
0.280521
0.280941
0.281447
0.282043
0.282725
0.283491
0.28434
0.285268
0.286274
0.287359
0.288524
0.289765
0.291079
0.292462
0.293912
0.295425
0.296997
0.298619
0.300282
0.301977
0.303695
0.305432
0.307182
0.308945
0.31071
0.31239
0.314108
0.27951
0.279416
0.279424
0.279424
0.279426
0.279433
0.279453
0.279498
0.279579
0.279703
0.279877
0.280105
0.280393
0.280753
0.281191
0.281714
0.282321
0.283012
0.283786
0.284639
0.285569
0.286573
0.287652
0.288804
0.290027
0.291315
0.292667
0.294079
0.295549
0.297071
0.298638
0.300239
0.301865
0.303511
0.305169
0.306837
0.308514
0.31019
0.311776
0.313397
0.279755
0.279604
0.27959
0.279574
0.279569
0.279576
0.279601
0.279653
0.279743
0.279879
0.280068
0.280314
0.280624
0.281007
0.281468
0.282009
0.282632
0.283335
0.284119
0.284981
0.285917
0.286923
0.287999
0.289143
0.290351
0.291618
0.292941
0.29432
0.29575
0.297227
0.29874
0.300282
0.301844
0.303418
0.305001
0.306588
0.308181
0.309769
0.311263
0.312787
0.28
0.279789
0.279753
0.27972
0.279708
0.279717
0.27975
0.279813
0.279914
0.280064
0.28027
0.280538
0.280874
0.281282
0.281768
0.282331
0.282972
0.283692
0.28449
0.285364
0.286309
0.287321
0.288398
0.289537
0.290733
0.291983
0.293283
0.294632
0.296026
0.297459
0.298923
0.300409
0.301909
0.303416
0.304926
0.306435
0.307945
0.309448
0.310852
0.312277
0.280241
0.27997
0.279912
0.279861
0.279844
0.279856
0.279898
0.279974
0.280091
0.280258
0.280484
0.280776
0.281139
0.281576
0.282088
0.282676
0.283339
0.284079
0.284895
0.285784
0.286742
0.287763
0.288844
0.289981
0.29117
0.292407
0.293687
0.295011
0.296372
0.297766
0.299184
0.300617
0.302059
0.303502
0.304942
0.306376
0.307806
0.309225
0.310541
0.311869
0.280476
0.280146
0.280063
0.279996
0.279974
0.279992
0.280045
0.280136
0.28027
0.280457
0.280706
0.281026
0.281419
0.281886
0.282428
0.283042
0.283731
0.284494
0.285332
0.286239
0.287212
0.288245
0.289334
0.290473
0.291659
0.292885
0.29415
0.295451
0.296784
0.298143
0.299518
0.300903
0.30229
0.303672
0.305046
0.306409
0.307762
0.3091
0.310332
0.311561
0.280702
0.280312
0.280206
0.280123
0.280097
0.280121
0.280188
0.280296
0.28045
0.280659
0.280935
0.281284
0.281709
0.282209
0.282782
0.283426
0.284144
0.284933
0.285795
0.286724
0.287715
0.288764
0.289863
0.291008
0.292193
0.293413
0.294667
0.29595
0.297257
0.298584
0.299922
0.301263
0.302599
0.303925
0.305237
0.306532
0.307812
0.309071
0.310222
0.311355
0.280916
0.280465
0.280338
0.280239
0.280212
0.280243
0.280325
0.280452
0.280628
0.280863
0.281167
0.281548
0.282007
0.282541
0.283147
0.283825
0.284573
0.285392
0.286281
0.287234
0.288247
0.289313
0.290427
0.29158
0.292768
0.293986
0.295231
0.296499
0.297787
0.299086
0.30039
0.301691
0.302981
0.304255
0.30551
0.306741
0.307951
0.309136
0.310211
0.311248
0.281113
0.280604
0.280455
0.280343
0.280315
0.280356
0.280454
0.280603
0.280803
0.281065
0.281401
0.281816
0.28231
0.282879
0.283521
0.284233
0.285015
0.285866
0.286784
0.287765
0.288802
0.289889
0.291019
0.292185
0.293379
0.294598
0.295838
0.297095
0.298366
0.299642
0.300917
0.302183
0.303431
0.304658
0.305859
0.307032
0.308177
0.309292
0.310296
0.31124
0.281291
0.280725
0.280556
0.280432
0.280405
0.280458
0.280573
0.280744
0.280971
0.281263
0.281632
0.282082
0.282613
0.28322
0.2839
0.284649
0.285466
0.286352
0.287302
0.288312
0.289376
0.290486
0.291636
0.292816
0.294019
0.295242
0.29648
0.29773
0.298988
0.300246
0.301496
0.30273
0.303942
0.305126
0.30628
0.307399
0.308485
0.309535
0.310473
0.311327
0.281447
0.280825
0.280638
0.280505
0.280481
0.280545
0.28068
0.280875
0.28113
0.281454
0.281858
0.282345
0.282915
0.283561
0.284279
0.285067
0.285922
0.286844
0.287827
0.288869
0.289962
0.291099
0.29227
0.293467
0.294682
0.295911
0.297151
0.298398
0.299646
0.300889
0.302117
0.303325
0.304505
0.305652
0.306764
0.307836
0.308868
0.309859
0.310738
0.311506
0.281577
0.280903
0.2807
0.28056
0.28054
0.280618
0.280772
0.280991
0.281277
0.281635
0.282076
0.282602
0.283211
0.283897
0.284655
0.285483
0.286378
0.287337
0.288357
0.289431
0.290555
0.29172
0.292915
0.294131
0.29536
0.296599
0.297843
0.299089
0.300332
0.301562
0.302774
0.303959
0.305112
0.306228
0.307304
0.308335
0.309319
0.310258
0.311085
0.311771
0.281679
0.280955
0.280739
0.280594
0.28058
0.280672
0.280846
0.281092
0.281409
0.281804
0.282283
0.282849
0.283498
0.284225
0.285025
0.285894
0.28683
0.287828
0.288884
0.289994
0.29115
0.292344
0.293564
0.294801
0.296047
0.297297
0.298549
0.299797
0.301036
0.302259
0.303457
0.304624
0.305754
0.306845
0.30789
0.308886
0.309829
0.310723
0.311507
0.312118
0.281751
0.28098
0.280753
0.280606
0.2806
0.280706
0.280901
0.281174
0.281524
0.281956
0.282475
0.283082
0.283773
0.284541
0.285383
0.286295
0.287272
0.288311
0.289405
0.29055
0.291739
0.292963
0.29421
0.29547
0.296734
0.297998
0.299259
0.300512
0.30175
0.302967
0.304155
0.305308
0.306421
0.307491
0.308512
0.309479
0.310389
0.311246
0.311996
0.312538
0.281789
0.280976
0.28074
0.280594
0.280597
0.280719
0.280935
0.281235
0.281618
0.282089
0.28265
0.283299
0.284031
0.284842
0.285726
0.286681
0.287701
0.288779
0.289912
0.291093
0.292317
0.293572
0.294846
0.296129
0.297413
0.298693
0.299965
0.301224
0.302464
0.303678
0.304859
0.306001
0.307101
0.308155
0.309158
0.310103
0.310987
0.311816
0.312541
0.313023
0.28179
0.280938
0.280698
0.280555
0.28057
0.280707
0.280944
0.281273
0.28169
0.2822
0.282803
0.283494
0.284269
0.285122
0.286049
0.287047
0.28811
0.289229
0.290401
0.291619
0.292876
0.294163
0.295465
0.296772
0.298076
0.299373
0.300658
0.301925
0.303168
0.30438
0.305556
0.306692
0.307782
0.308825
0.309814
0.310744
0.31161
0.31242
0.313131
0.313563
0.281752
0.280867
0.280625
0.280487
0.280514
0.280668
0.280928
0.281284
0.281736
0.282285
0.28293
0.283664
0.284481
0.285377
0.286348
0.287389
0.288494
0.289655
0.290865
0.29212
0.293411
0.294729
0.296059
0.29739
0.298716
0.30003
0.301327
0.302603
0.30385
0.305062
0.306236
0.307366
0.30845
0.309485
0.310466
0.311387
0.312242
0.313042
0.313751
0.314145
0.281672
0.280758
0.280517
0.280388
0.280429
0.280601
0.280883
0.281268
0.281754
0.282342
0.283028
0.283805
0.284665
0.285603
0.286617
0.287702
0.288849
0.29005
0.291299
0.29259
0.293915
0.295263
0.29662
0.297976
0.299322
0.300653
0.301964
0.303247
0.304498
0.305712
0.306884
0.30801
0.309089
0.310119
0.311096
0.312014
0.312866
0.313667
0.314386
0.314756
0.281548
0.280611
0.280374
0.280254
0.28031
0.280502
0.280807
0.28122
0.281741
0.282367
0.283095
0.283914
0.284816
0.285797
0.286854
0.287982
0.28917
0.290411
0.291697
0.293023
0.294381
0.295758
0.297142
0.29852
0.299887
0.301234
0.302557
0.303848
0.305103
0.306317
0.307487
0.30861
0.309685
0.310711
0.311686
0.312605
0.313461
0.314273
0.315018
0.315381
0.281377
0.280422
0.280191
0.280084
0.280157
0.280369
0.280699
0.28114
0.281695
0.282359
0.283127
0.283988
0.284931
0.285954
0.287053
0.288223
0.289452
0.290731
0.292054
0.293414
0.294803
0.296208
0.297616
0.299017
0.300401
0.301763
0.303096
0.304393
0.305651
0.306864
0.308032
0.309151
0.310221
0.311242
0.312215
0.313137
0.314004
0.314836
0.315623
0.316002
0.281158
0.280191
0.279968
0.279875
0.279968
0.280201
0.280555
0.281026
0.281613
0.282315
0.283123
0.284023
0.285007
0.286071
0.287212
0.288422
0.28969
0.291006
0.292364
0.293757
0.295175
0.296606
0.298036
0.299456
0.300857
0.302231
0.303572
0.304873
0.306131
0.307341
0.308504
0.309616
0.310678
0.311692
0.312662
0.313586
0.314465
0.315328
0.316174
0.316599
0.28089
0.279915
0.279703
0.279627
0.27974
0.279996
0.280376
0.280875
0.281495
0.282233
0.283079
0.284018
0.285042
0.286146
0.287326
0.288575
0.28988
0.291231
0.292622
0.294045
0.29549
0.296944
0.298395
0.299832
0.301246
0.302629
0.303975
0.305277
0.306531
0.307736
0.308889
0.30999
0.311039
0.312041
0.313
0.313922
0.314812
0.315708
0.316633
0.317145
0.28057
0.279593
0.279394
0.279337
0.279472
0.279752
0.280157
0.280685
0.281338
0.282111
0.282993
0.28397
0.285031
0.286174
0.287392
0.288677
0.290017
0.291401
0.292823
0.294273
0.295741
0.297216
0.298684
0.300134
0.301558
0.302948
0.304295
0.305593
0.306841
0.308035
0.309174
0.310257
0.311286
0.312265
0.313204
0.314111
0.315001
0.315926
0.316952
0.317629
0.280197
0.279225
0.27904
0.279004
0.279162
0.279466
0.279898
0.280455
0.281139
0.281946
0.282863
0.283876
0.284974
0.286152
0.287406
0.288725
0.290097
0.291511
0.29296
0.294434
0.295923
0.297415
0.298896
0.300357
0.301787
0.303178
0.304522
0.305814
0.307049
0.308227
0.309345
0.310402
0.311399
0.312343
0.313242
0.314114
0.314982
0.31593
0.317119
0.318163
0.279771
0.278809
0.278642
0.278627
0.278809
0.279138
0.279596
0.280182
0.280897
0.281737
0.282687
0.283733
0.284865
0.286078
0.287364
0.288714
0.290115
0.291557
0.293029
0.294524
0.29603
0.297534
0.299025
0.300492
0.301924
0.303312
0.304648
0.305927
0.307146
0.308301
0.30939
0.31041
0.311362
0.312249
0.313079
0.313867
0.314645
0.315529
0.316759
0.318159
0.345747
0.359997
0.372292
0.382386
0.390298
0.396647
0.401603
0.405629
0.408905
0.411688
0.414072
0.416148
0.417975
0.419623
0.421098
0.42242
0.423601
0.424664
0.425602
0.426424
0.427135
0.427748
0.428255
0.428661
0.428965
0.429164
0.429273
0.429285
0.429197
0.429015
0.428727
0.428351
0.427872
0.427294
0.426613
0.425831
0.424971
0.423995
0.423115
0.42187
0.343828
0.357891
0.370334
0.380465
0.388474
0.394859
0.399879
0.40394
0.407266
0.410073
0.412488
0.4146
0.416471
0.418144
0.419647
0.421007
0.422226
0.423312
0.424273
0.425124
0.425865
0.426498
0.427028
0.427449
0.42777
0.427991
0.428115
0.42814
0.428067
0.427894
0.427625
0.427255
0.42679
0.426224
0.425555
0.424782
0.423932
0.422966
0.422095
0.420858
0.341963
0.355812
0.368391
0.378548
0.38665
0.393069
0.39815
0.402247
0.405624
0.408454
0.410902
0.413049
0.414964
0.416664
0.418196
0.419594
0.420849
0.421959
0.422943
0.423824
0.424594
0.425246
0.425799
0.426235
0.426573
0.426818
0.426957
0.426995
0.426939
0.426776
0.426526
0.426165
0.425712
0.425159
0.424502
0.42374
0.4229
0.421946
0.421084
0.419856
0.340154
0.353767
0.366457
0.376641
0.384815
0.391284
0.396412
0.400553
0.403968
0.406836
0.409317
0.411499
0.413451
0.415185
0.41675
0.418179
0.419465
0.420605
0.421618
0.422524
0.423319
0.423993
0.424567
0.425024
0.42538
0.425642
0.425798
0.425852
0.425811
0.425664
0.425429
0.425081
0.424642
0.424099
0.423455
0.422704
0.421876
0.420934
0.420082
0.418866
0.338402
0.351755
0.364537
0.37474
0.382974
0.389498
0.394669
0.398856
0.402305
0.405216
0.407732
0.409949
0.411933
0.413706
0.415306
0.416764
0.418079
0.419252
0.420297
0.421226
0.422043
0.422739
0.423334
0.423814
0.424188
0.424467
0.424639
0.42471
0.424685
0.424556
0.424334
0.424004
0.423578
0.423045
0.422413
0.421675
0.420861
0.41993
0.419089
0.417885
0.336709
0.349777
0.362634
0.372842
0.381133
0.387707
0.392922
0.397154
0.40064
0.403592
0.406145
0.408398
0.410416
0.412226
0.413862
0.41535
0.416696
0.4179
0.418976
0.419929
0.420769
0.421488
0.422102
0.422605
0.422998
0.423294
0.423483
0.423572
0.423563
0.423451
0.423244
0.422931
0.422519
0.421998
0.421379
0.420653
0.419853
0.418934
0.418105
0.416913
0.335074
0.347836
0.360747
0.370947
0.379289
0.385909
0.391171
0.395447
0.398972
0.401966
0.404557
0.406846
0.4089
0.410747
0.412418
0.413938
0.415315
0.41655
0.417656
0.418633
0.419497
0.420239
0.420873
0.421398
0.42181
0.422123
0.42233
0.422437
0.422445
0.422351
0.422159
0.421862
0.421465
0.420958
0.420352
0.419639
0.418854
0.417948
0.417129
0.415949
0.333498
0.345935
0.358877
0.369057
0.377443
0.384106
0.389413
0.393736
0.397301
0.400337
0.402966
0.405294
0.407384
0.409269
0.410976
0.412528
0.413937
0.415201
0.416337
0.417339
0.418227
0.418992
0.419646
0.420193
0.420624
0.420956
0.421181
0.421306
0.421331
0.421254
0.421079
0.420798
0.420416
0.419924
0.419333
0.418634
0.417864
0.416971
0.416163
0.414993
0.331984
0.344076
0.357026
0.367172
0.375594
0.382297
0.38765
0.392019
0.395627
0.398705
0.401375
0.403742
0.405869
0.407791
0.409535
0.41112
0.412561
0.413855
0.415019
0.416048
0.416958
0.417748
0.418422
0.41899
0.419441
0.419791
0.420036
0.420178
0.420222
0.420162
0.420004
0.41974
0.419373
0.418896
0.418322
0.417636
0.416881
0.416002
0.415205
0.414045
0.330531
0.342261
0.355193
0.365292
0.373743
0.380481
0.38588
0.390296
0.393949
0.397071
0.399783
0.40219
0.404355
0.406315
0.408096
0.409714
0.411187
0.41251
0.413703
0.414758
0.415692
0.416507
0.417201
0.41779
0.418262
0.41863
0.418895
0.419055
0.419117
0.419075
0.418933
0.418687
0.418336
0.417876
0.417317
0.416648
0.415907
0.415042
0.414256
0.413106
0.32914
0.340495
0.35338
0.363418
0.371887
0.378657
0.384103
0.388567
0.392266
0.395435
0.39819
0.400639
0.402844
0.404841
0.406659
0.408311
0.409816
0.411169
0.41239
0.413472
0.414429
0.415268
0.415983
0.416593
0.417086
0.417473
0.417757
0.417936
0.418017
0.417993
0.417868
0.417639
0.417305
0.416862
0.41632
0.415667
0.414942
0.414091
0.413316
0.412175
0.327812
0.33878
0.351588
0.361552
0.370029
0.376827
0.382317
0.386831
0.39058
0.393796
0.396596
0.399088
0.401335
0.40337
0.405226
0.406912
0.408448
0.409831
0.411079
0.412188
0.413168
0.414032
0.414768
0.415399
0.415913
0.41632
0.416624
0.416821
0.416921
0.416915
0.416807
0.416596
0.416279
0.415855
0.41533
0.414694
0.413984
0.413147
0.412383
0.411251
0.326547
0.33712
0.349818
0.359695
0.368166
0.374988
0.380523
0.385088
0.388888
0.392154
0.395003
0.397539
0.399828
0.401903
0.403797
0.405516
0.407085
0.408497
0.409772
0.410908
0.411911
0.412798
0.413556
0.414209
0.414744
0.41517
0.415494
0.415711
0.415828
0.415841
0.415751
0.415559
0.415259
0.414854
0.414347
0.413729
0.413035
0.412212
0.411459
0.410336
0.325347
0.335517
0.348072
0.357846
0.3663
0.373141
0.378719
0.383338
0.387191
0.39051
0.393408
0.395992
0.398325
0.40044
0.402372
0.404125
0.405725
0.407167
0.408469
0.409631
0.410657
0.411568
0.412348
0.413021
0.413579
0.414024
0.414368
0.414604
0.41474
0.414771
0.414699
0.414527
0.414245
0.413859
0.413372
0.412772
0.412093
0.411284
0.410544
0.40943
0.324213
0.333976
0.346351
0.356008
0.364429
0.371285
0.376905
0.381578
0.385488
0.388863
0.391814
0.394447
0.396825
0.398981
0.400951
0.402738
0.40437
0.405842
0.40717
0.408358
0.409407
0.410341
0.411143
0.411836
0.412416
0.412881
0.413244
0.4135
0.413656
0.413705
0.413652
0.413501
0.413236
0.41287
0.412403
0.411822
0.411159
0.410364
0.409636
0.408531
0.323146
0.332498
0.344658
0.354182
0.362555
0.36942
0.375079
0.379809
0.383778
0.387213
0.390219
0.392904
0.395328
0.397526
0.399533
0.401355
0.403019
0.404521
0.405875
0.407089
0.408161
0.409117
0.409942
0.410655
0.411257
0.411742
0.412124
0.4124
0.412575
0.412643
0.412609
0.412478
0.412233
0.411888
0.41144
0.410879
0.410232
0.409453
0.408737
0.407641
0.322146
0.331089
0.342993
0.35237
0.360677
0.367546
0.373242
0.37803
0.382061
0.385559
0.388624
0.391364
0.393834
0.396075
0.398121
0.399977
0.401673
0.403205
0.404585
0.405825
0.40692
0.407897
0.408746
0.409477
0.4101
0.410606
0.411008
0.411302
0.411498
0.411584
0.41157
0.41146
0.411236
0.410912
0.410484
0.409943
0.409313
0.408549
0.407845
0.406759
0.321214
0.329751
0.341361
0.350572
0.358796
0.365662
0.371392
0.376239
0.380336
0.3839
0.387028
0.389825
0.392344
0.394628
0.396713
0.398605
0.400332
0.401894
0.403301
0.404565
0.405684
0.406682
0.407553
0.408304
0.408947
0.409474
0.409895
0.410208
0.410423
0.41053
0.410535
0.410447
0.410244
0.409941
0.409534
0.409013
0.408402
0.407653
0.406961
0.405885
0.320353
0.328487
0.339764
0.348791
0.356913
0.363768
0.36953
0.374437
0.378603
0.382238
0.385431
0.388287
0.390858
0.393186
0.395311
0.397239
0.398998
0.400589
0.402022
0.403311
0.404454
0.405471
0.406365
0.407136
0.407797
0.408346
0.408785
0.409117
0.409352
0.409478
0.409504
0.409437
0.409256
0.408975
0.408589
0.40809
0.407497
0.406765
0.406085
0.40502
0.319562
0.3273
0.338204
0.347028
0.35503
0.361864
0.367655
0.372622
0.37686
0.38057
0.383832
0.386751
0.389375
0.39175
0.393915
0.395879
0.39767
0.39929
0.400749
0.402062
0.403229
0.404266
0.405182
0.405973
0.406652
0.407221
0.407679
0.408029
0.408284
0.408431
0.408476
0.408432
0.408273
0.408015
0.407651
0.407173
0.4066
0.405886
0.405217
0.404163
0.318843
0.326193
0.336686
0.345287
0.353148
0.359951
0.365766
0.370793
0.375108
0.378896
0.382232
0.385216
0.387895
0.390318
0.392525
0.394526
0.396348
0.397998
0.399482
0.400819
0.40201
0.403066
0.404003
0.404815
0.405511
0.406099
0.406576
0.406945
0.40722
0.407386
0.407453
0.40743
0.407295
0.407059
0.406718
0.406263
0.40571
0.405014
0.404358
0.403315
0.318196
0.325169
0.335214
0.343569
0.351269
0.35803
0.363863
0.368951
0.373345
0.377216
0.38063
0.383682
0.386419
0.388892
0.391141
0.393179
0.395033
0.396712
0.398222
0.399582
0.400796
0.401872
0.402828
0.403661
0.404374
0.404982
0.405477
0.405864
0.406158
0.406345
0.406433
0.406432
0.406321
0.406108
0.405791
0.40536
0.404828
0.404151
0.403508
0.402476
0.317624
0.324231
0.333791
0.341878
0.349395
0.356102
0.361947
0.367096
0.371572
0.375529
0.379025
0.38215
0.384947
0.387471
0.389765
0.391839
0.393725
0.395434
0.396968
0.398351
0.399588
0.400684
0.401659
0.402512
0.403241
0.403868
0.404381
0.404786
0.405099
0.405307
0.405417
0.405438
0.405351
0.405162
0.40487
0.404463
0.403953
0.403297
0.402668
0.401648
0.317125
0.323379
0.332421
0.340218
0.34753
0.354168
0.360018
0.365226
0.369786
0.373835
0.377416
0.380618
0.383479
0.386057
0.388395
0.390506
0.392424
0.394162
0.395721
0.397126
0.398385
0.399501
0.400494
0.401368
0.402113
0.402757
0.403289
0.403711
0.404044
0.404273
0.404405
0.404447
0.404385
0.40422
0.403953
0.403573
0.403086
0.402452
0.401839
0.400829
0.316702
0.322615
0.331109
0.33859
0.345675
0.35223
0.358078
0.363341
0.367989
0.372132
0.375805
0.379087
0.382015
0.384649
0.387031
0.389181
0.39113
0.392897
0.39448
0.395908
0.397187
0.398324
0.399334
0.400228
0.400989
0.401651
0.4022
0.40264
0.402992
0.403242
0.403395
0.403459
0.403422
0.403282
0.403041
0.402687
0.402226
0.401615
0.40102
0.400022
0.316354
0.32194
0.329858
0.336999
0.343835
0.35029
0.356126
0.361442
0.366179
0.370419
0.374189
0.377556
0.380555
0.383248
0.385676
0.387864
0.389844
0.391639
0.393247
0.394696
0.395996
0.397152
0.398179
0.399092
0.399869
0.400547
0.401115
0.401572
0.401943
0.402213
0.402388
0.402473
0.402461
0.402347
0.402133
0.401807
0.401373
0.400787
0.400213
0.399227
0.316081
0.321354
0.328672
0.335448
0.342015
0.34835
0.354165
0.359528
0.364355
0.368697
0.372569
0.376026
0.3791
0.381853
0.384327
0.386555
0.388566
0.390388
0.39202
0.39349
0.39481
0.395985
0.39703
0.39796
0.398754
0.399448
0.400033
0.400507
0.400896
0.401187
0.401383
0.40149
0.401503
0.401414
0.401228
0.400932
0.400526
0.399967
0.399417
0.398444
0.315882
0.320853
0.327555
0.333941
0.340216
0.346414
0.352195
0.3576
0.362517
0.366965
0.370943
0.374495
0.377647
0.380463
0.382987
0.385254
0.387297
0.389145
0.390799
0.392291
0.393629
0.394824
0.395884
0.396831
0.397643
0.398351
0.398954
0.399445
0.399852
0.400162
0.40038
0.400508
0.400546
0.400484
0.400325
0.40006
0.399687
0.399157
0.398633
0.397676
0.315758
0.320436
0.326508
0.33248
0.338446
0.344485
0.350219
0.35566
0.360665
0.365222
0.369312
0.372964
0.376198
0.37908
0.381654
0.383962
0.386035
0.387909
0.389586
0.391097
0.392455
0.393667
0.394744
0.395707
0.396535
0.397257
0.397878
0.398386
0.398809
0.39914
0.399378
0.399527
0.39959
0.399554
0.399425
0.399191
0.398853
0.398357
0.397861
0.396923
0.315707
0.320098
0.325534
0.331072
0.336707
0.342568
0.34824
0.353708
0.358801
0.36347
0.367675
0.371431
0.374752
0.377704
0.38033
0.382678
0.384782
0.386681
0.38838
0.38991
0.391286
0.392516
0.393608
0.394586
0.395431
0.396166
0.396803
0.397329
0.397768
0.398118
0.398376
0.398547
0.398634
0.398626
0.398526
0.398326
0.398024
0.397566
0.397103
0.396187
0.315728
0.319834
0.324634
0.329719
0.335007
0.340667
0.346262
0.351747
0.356924
0.361707
0.366033
0.369898
0.37331
0.376333
0.379013
0.381402
0.383538
0.385461
0.387182
0.38873
0.390123
0.391369
0.392477
0.393468
0.39433
0.395078
0.395731
0.396274
0.396728
0.397097
0.397375
0.397568
0.397678
0.397698
0.397628
0.397463
0.397201
0.396784
0.396359
0.395469
0.31582
0.319638
0.323808
0.328427
0.333351
0.338787
0.344287
0.349779
0.355038
0.359935
0.364384
0.368364
0.371871
0.37497
0.377706
0.380136
0.382302
0.384249
0.385991
0.387557
0.388966
0.390228
0.39135
0.392354
0.393232
0.393994
0.39466
0.39522
0.395689
0.396076
0.396374
0.396588
0.396722
0.396769
0.396731
0.3966
0.396381
0.396011
0.39563
0.394772
0.31598
0.319502
0.323058
0.3272
0.331745
0.336933
0.342322
0.347808
0.353141
0.358154
0.362729
0.366829
0.370435
0.373612
0.376406
0.378877
0.381075
0.383045
0.384808
0.386391
0.387815
0.389092
0.390229
0.391245
0.392136
0.392912
0.393591
0.394168
0.394651
0.395057
0.395373
0.395607
0.395765
0.395839
0.395832
0.395739
0.395563
0.395246
0.394917
0.394098
0.316208
0.319417
0.322382
0.326041
0.330196
0.335113
0.34037
0.345837
0.351238
0.356364
0.361069
0.365291
0.369002
0.37226
0.375113
0.377627
0.379858
0.381851
0.383632
0.385232
0.386671
0.387961
0.389111
0.390139
0.391044
0.391833
0.392525
0.393117
0.393615
0.394038
0.394372
0.394626
0.394806
0.394907
0.394931
0.394876
0.394748
0.394488
0.39422
0.393452
0.316503
0.319372
0.321779
0.324955
0.32871
0.333335
0.338439
0.343871
0.349329
0.354566
0.359403
0.363752
0.367571
0.370913
0.373829
0.376387
0.378649
0.380665
0.382465
0.384082
0.385533
0.386837
0.387999
0.389038
0.389955
0.390757
0.39146
0.392069
0.392581
0.393019
0.393371
0.393644
0.393846
0.393973
0.394028
0.394011
0.393932
0.393736
0.39354
0.392837
0.316865
0.31936
0.321249
0.323949
0.327294
0.331606
0.336534
0.341914
0.347419
0.352763
0.357732
0.362211
0.366143
0.369573
0.372552
0.375155
0.37745
0.379489
0.381307
0.382939
0.384402
0.385718
0.386892
0.387942
0.38887
0.389685
0.390399
0.391023
0.391549
0.392001
0.39237
0.392661
0.392883
0.393035
0.393121
0.393143
0.393115
0.392988
0.392876
0.39226
0.317294
0.319375
0.320792
0.323029
0.325957
0.329934
0.334665
0.339975
0.345514
0.35096
0.356061
0.360672
0.36472
0.36824
0.371286
0.373935
0.376262
0.378323
0.380159
0.381805
0.38328
0.384607
0.385792
0.386851
0.38779
0.388616
0.389342
0.389978
0.390518
0.390984
0.391368
0.391677
0.391919
0.392095
0.392211
0.392272
0.392296
0.392243
0.392228
0.391728
0.317754
0.319394
0.320399
0.322194
0.324705
0.32833
0.332843
0.338062
0.34362
0.349158
0.354385
0.359126
0.36329
0.366901
0.370015
0.372712
0.375073
0.377156
0.379009
0.380669
0.382156
0.383494
0.384688
0.385757
0.386706
0.387545
0.388281
0.38893
0.389484
0.389962
0.390361
0.390687
0.390948
0.391147
0.391293
0.391392
0.391469
0.391495
0.391592
0.391249
0.318249
0.319376
0.320019
0.3214
0.323498
0.326756
0.331027
0.336128
0.341681
0.347295
0.352642
0.357511
0.361796
0.365505
0.368695
0.371448
0.373847
0.375959
0.377834
0.379511
0.381012
0.382361
0.383568
0.384647
0.385608
0.386459
0.387208
0.38787
0.388437
0.388929
0.389343
0.389685
0.389965
0.390187
0.390362
0.3905
0.39063
0.390738
0.390962
0.390836
0.319444
0.319595
0.319789
0.320695
0.32231
0.325132
0.329095
0.334036
0.339569
0.345272
0.350768
0.355804
0.360249
0.364088
0.367378
0.370201
0.372649
0.374793
0.376691
0.378383
0.379897
0.381256
0.382472
0.38356
0.384529
0.38539
0.386149
0.38682
0.387399
0.387901
0.388328
0.388684
0.388981
0.389223
0.389424
0.389597
0.389775
0.389964
0.390322
0.390488
0.326273
0.322655
0.32098
0.319822
0.319324
0.32032
0.32305
0.327439
0.333035
0.339236
0.345441
0.351208
0.35629
0.360612
0.364224
0.367231
0.369758
0.371919
0.373803
0.375468
0.376956
0.378291
0.37949
0.380565
0.381529
0.382387
0.38315
0.383825
0.384417
0.384932
0.385377
0.38576
0.386089
0.386375
0.386632
0.386882
0.387167
0.387544
0.388256
0.389416
0.319543
0.316716
0.314751
0.313119
0.311865
0.312062
0.314278
0.318534
0.324347
0.330983
0.337705
0.343968
0.349466
0.354107
0.357944
0.361104
0.363733
0.365961
0.367889
0.369584
0.371095
0.372449
0.373667
0.374763
0.375748
0.37663
0.377418
0.378118
0.378736
0.379279
0.379753
0.380166
0.380526
0.380846
0.381143
0.381444
0.381799
0.382307
0.383263
0.384883
0.309155
0.307556
0.305909
0.304707
0.303649
0.30381
0.305993
0.310335
0.316373
0.323333
0.330419
0.337027
0.34282
0.347692
0.351698
0.354976
0.357683