/*--------------------------------*- C++ -*----------------------------------*\
  =========                 |
  \\      /  F ield         | OpenFOAM: The Open Source CFD Toolbox
   \\    /   O peration     | Website:  https://openfoam.org
    \\  /    A nd           | Version:  7
     \\/     M anipulation  |
\*---------------------------------------------------------------------------*/
FoamFile
{
    version     2.0;
    format      ascii;
    class       volVectorField;
    location    "55.8";
    object      U;
}
// * * * * * * * * * * * * * * * * * * * * * * * * * * * * * * * * * * * * * //

dimensions      [0 1 -1 0 0 0 0];

internalField   nonuniform List<vector> 
2000
(
(-0.000566681 -0.00831009 -6.79304e-22)
(-0.00153082 -0.0141502 0)
(-0.00186417 -0.013784 0)
(-0.000843362 -0.00889267 -3.3689e-21)
(0.00153861 -0.000308753 1.0514e-21)
(0.00519711 0.0115071 1.81113e-23)
(0.00996923 0.0261954 -1.81286e-21)
(0.0156072 0.0433454 0)
(0.0217216 0.0624129 0)
(0.027923 0.0826651 0)
(-0.000145795 -0.00759888 0)
(-0.0008912 -0.013578 -2.62277e-21)
(-0.00145249 -0.0139389 2.41874e-21)
(-0.000991599 -0.0101176 4.4867e-21)
(0.000561791 -0.00284526 0)
(0.00319355 0.00750313 3.96993e-21)
(0.00682412 0.0206759 -3.6917e-21)
(0.0112935 0.0363994 0)
(0.0162736 0.0542853 6.65982e-21)
(0.0213729 0.0737842 -1.28459e-20)
(0.000222182 -0.00678146 0)
(-8.69319e-05 -0.0128385 2.12262e-20)
(-0.000510974 -0.0138612 0)
(-0.000239505 -0.0110526 1.84419e-20)
(0.000822864 -0.00506745 0)
(0.00270417 0.00377217 -1.61956e-20)
(0.00538932 0.0152959 0)
(0.00880085 0.0293592 1.43254e-20)
(0.0126915 0.0457526 -1.34163e-20)
(0.0166404 0.0641603 -1.31321e-20)
(0.000560987 -0.0059374 -5.60311e-21)
(0.000961329 -0.0120281 -1.05448e-20)
(0.00109905 -0.0135953 -4.9406e-21)
(0.00161289 -0.0116554 -9.10106e-21)
(0.00258984 -0.00681692 -8.62792e-21)
(0.00407262 0.000610268 7.98297e-21)
(0.00608732 0.0104952 7.6366e-21)
(0.00862616 0.022793 4.67045e-23)
(0.0115412 0.0374754 1.36553e-20)
(0.0143608 0.0544918 1.31332e-20)
(0.000918535 -0.00515707 -5.62057e-21)
(0.00235801 -0.0112534 -1.08001e-20)
(0.00352241 -0.0131982 -2.02459e-20)
(0.00474966 -0.0119022 9.3047e-21)
(0.00609517 -0.00795806 0)
(0.00759424 -0.00170214 0)
(0.00929197 0.00672352 -1.56993e-20)
(0.0112303 0.0173237 -1.48168e-20)
(0.0133774 0.0302259 1.4051e-20)
(0.0152202 0.0456414 4.05022e-20)
(0.00136533 -0.00452692 5.65486e-21)
(0.00422367 -0.0106151 5.4949e-21)
(0.00689144 -0.0127334 -3.03855e-20)
(0.00930681 -0.011799 4.74855e-20)
(0.0114846 -0.00841117 -8.80783e-21)
(0.0134419 -0.00296236 0)
(0.0152278 0.00434828 0)
(0.0169134 0.0135118 7.49085e-20)
(0.0185926 0.0247583 -7.05846e-20)
(0.0197715 0.0385109 1.34718e-20)
(0.00199106 -0.00411879 4.49434e-20)
(0.00668256 -0.0101903 0)
(0.0113062 -0.012262 4.04763e-20)
(0.0153418 -0.0113831 -3.79507e-20)
(0.0187711 -0.0081753 0)
(0.0215964 -0.00310185 1.70079e-20)
(0.0238673 0.00355166 -4.77805e-20)
(0.0256714 0.0117027 -6.03654e-20)
(0.0272262 0.0216064 2.84192e-20)
(0.028168 0.0338151 2.74025e-20)
(0.0028948 -0.00397108 -8.97443e-20)
(0.00985158 -0.0100212 -1.09538e-20)
(0.0168159 -0.0118305 -2.04232e-20)
(0.0228115 -0.0107155 -4.78009e-20)
(0.0278047 -0.00733371 -1.81534e-20)
(0.0318007 -0.00221691 -1.71489e-20)
(0.0348608 0.00425984 -9.87488e-23)
(0.0370853 0.0119034 0)
(0.0388036 0.0209092 0)
(0.0399273 0.0318614 1.9436e-22)
(0.0041694 -0.00408461 4.48017e-20)
(0.0138193 -0.0101029 -4.35532e-20)
(0.0234058 -0.0114544 3.04958e-20)
(0.0315599 -0.0098659 6.71941e-20)
(0.0382677 -0.00604008 -1.78867e-20)
(0.0435672 -0.000561144 1.71162e-20)
(0.0475516 0.00613368 1.61404e-20)
(0.0503312 0.0137551 0)
(0.052299 0.0224018 0)
(0.0537786 0.0325664 -2.35937e-22)
(0.00589575 -0.0044236 -5.56599e-21)
(0.018627 -0.0103717 5.4555e-20)
(0.0309796 -0.011111 -1.01389e-20)
(0.0413145 -0.00889877 0)
(0.0496905 -0.00449406 0)
(0.0562307 0.00148632 3.39803e-20)
(0.061107 0.00859214 0)
(0.0644711 0.0165237 -3.02851e-20)
(0.0666637 0.0253549 -2.91469e-22)
(0.0681773 0.0353533 2.73405e-20)
(0.0434701 0.128883 5.12162e-22)
(0.060648 0.203739 -5.18339e-22)
(0.0631789 0.261991 -6.03552e-22)
(0.0596018 0.316558 -6.72176e-22)
(0.0512431 0.375806 -7.82126e-22)
(0.0451095 0.443611 -1.92748e-23)
(0.0312983 0.521576 4.10666e-22)
(0.0274357 0.613031 1.38763e-21)
(0.00463465 0.732626 0)
(0.00894706 0.871956 -9.99573e-22)
(0.0347487 0.119816 1.90677e-21)
(0.0543464 0.198286 -2.27e-21)
(0.0589598 0.260465 4.08044e-21)
(0.0565124 0.316918 6.73335e-22)
(0.0488341 0.376993 1.43571e-21)
(0.0431801 0.445305 2.37499e-21)
(0.0299765 0.523753 -8.64892e-22)
(0.0263351 0.615715 -9.28251e-22)
(0.00446375 0.735217 1.84755e-21)
(0.00845509 0.873495 9.97197e-22)
(0.0269598 0.10938 0)
(0.048285 0.190718 -2.15843e-21)
(0.0550831 0.257364 -1.19208e-21)
(0.0537848 0.31608 0)
(0.0467329 0.377123 -4.38737e-21)
(0.0415218 0.44604 1.40236e-21)
(0.0288475 0.525074 1.53622e-21)
(0.0253784 0.617661 5.1581e-21)
(0.00435935 0.737421 -1.84157e-21)
(0.00801127 0.874849 3.69235e-21)
(0.0207178 0.0981235 0)
(0.0424643 0.180985 2.17674e-21)
(0.0515328 0.252606 0)
(0.051396 0.313991 5.2933e-21)
(0.0449264 0.376168 -5.32057e-21)
(0.0401204 0.445745 -3.07356e-21)
(0.0279009 0.525363 -1.36703e-22)
(0.0245732 0.61858 -5.0605e-21)
(0.004325 0.738771 -8.37431e-22)
(0.00759313 0.875794 -4.55491e-21)
(0.0169556 0.0867925 3.02985e-22)
(0.036981 0.169205 -6.23668e-21)
(0.04829 0.246115 2.91782e-22)
(0.0493161 0.31062 -4.82309e-21)
(0.0433963 0.374209 0)
(0.0389506 0.444623 -2.98078e-21)
(0.0271121 0.524996 -1.7044e-22)
(0.0238906 0.619062 6.48272e-21)
(0.00432744 0.739949 8.47427e-22)
(0.00721371 0.87667 -8.50459e-22)
(0.016764 0.0762508 -1.70759e-20)
(0.0321103 0.1558 1.09055e-20)
(0.0453384 0.237845 4.76938e-21)
(0.0475236 0.30587 -4.76678e-21)
(0.042135 0.371076 -2.5963e-21)
(0.038012 0.442321 0)
(0.0264863 0.523364 -5.97222e-21)
(0.0233483 0.618194 2.9677e-21)
(0.00439476 0.739912 3.17199e-21)
(0.0068438 0.877032 3.25262e-21)
(0.0209719 0.0673463 -2.13672e-21)
(0.02838 0.141563 0)
(0.042668 0.227792 0)
(0.0459834 0.299876 0)
(0.0411219 0.367236 -2.72025e-21)
(0.0372692 0.43968 5.3083e-21)
(0.0259866 0.52172 5.86734e-21)
(0.0228811 0.617623 -8.99088e-21)
(0.00445336 0.740359 1.56211e-21)
(0.00651778 0.87757 -4.76848e-21)
(0.0296464 0.0606171 1.32927e-20)
(0.0265648 0.127572 9.28446e-21)
(0.0403474 0.216021 -9.20088e-21)
(0.0446977 0.292095 9.91395e-21)
(0.0403453 0.361583 -1.23208e-20)
(0.0367514 0.435043 0)
(0.0256514 0.517832 -2.73655e-21)
(0.0225762 0.614659 8.99651e-23)
(0.00461098 0.738745 -2.9079e-21)
(0.00618143 0.877367 -2.97671e-21)
(0.0417611 0.0557919 -1.14227e-20)
(0.0275404 0.114352 0)
(0.0384454 0.203228 -1.06784e-20)
(0.0436564 0.284301 1.92174e-20)
(0.0398089 0.356946 -7.17792e-21)
(0.0363676 0.4321 -1.28252e-21)
(0.0253831 0.516055 2.73076e-21)
(0.0222464 0.614026 1.12699e-23)
(0.00466421 0.739123 4.23769e-21)
(0.00590437 0.877772 4.35052e-21)
(0.0550142 0.0530734 -9.55909e-21)
(0.0321246 0.101634 9.33795e-21)
(0.0375322 0.186207 1.17538e-21)
(0.0427297 0.27051 0)
(0.0394205 0.34617 0)
(0.0362974 0.423095 1.24032e-21)
(0.0253675 0.508315 5.10575e-21)
(0.0222282 0.607847 -4.95684e-21)
(0.00495273 0.735326 -1.28264e-21)
(0.00558608 0.876982 1.24314e-21)
(0.0755109 0.0635393 0)
(0.0453666 0.0990316 0)
(0.0401724 0.174849 0)
(0.0434553 0.26524 0)
(0.0392898 0.346169 0)
(0.0356531 0.425598 0)
(0.0249111 0.511377 0)
(0.0212903 0.61172 0)
(0.00476299 0.738825 0)
(0.00505701 0.878352 0)
(0.0911617 0.0928897 0)
(0.0661909 0.128341 0)
(0.0482113 0.184453 0)
(0.0457131 0.268042 0)
(0.0400512 0.351371 0)
(0.0341653 0.433063 0)
(0.0233247 0.520796 0)
(0.0194764 0.622906 0)
(0.00454177 0.749712 0)
(0.00447102 0.885047 0)
(0.0952487 0.10453 0)
(0.0803003 0.149996 0)
(0.0591418 0.199653 0)
(0.049914 0.275013 0)
(0.0433694 0.358085 0)
(0.036773 0.439985 0)
(0.0250632 0.527099 0)
(0.0196408 0.628918 0)
(0.00503234 0.754863 0)
(0.00419909 0.886782 0)
(0.0920194 0.109282 0)
(0.0854782 0.165338 0)
(0.0678056 0.216021 0)
(0.0542331 0.286054 0)
(0.0441561 0.368046 0)
(0.0360352 0.450793 0)
(0.0247174 0.538682 0)
(0.0190898 0.641285 0)
(0.0054383 0.766719 0)
(0.00394407 0.894409 0)
(0.0847508 0.109775 0)
(0.0838432 0.174747 0)
(0.0719165 0.229365 0)
(0.0594569 0.296493 0)
(0.0491743 0.377121 0)
(0.0395304 0.459142 0)
(0.0268243 0.545446 0)
(0.0198354 0.646508 0)
(0.00624001 0.770634 0)
(0.0039085 0.895572 0)
(0.0738338 0.107721 0)
(0.076909 0.179715 0)
(0.0703507 0.241018 0)
(0.0589093 0.308789 0)
(0.0479457 0.38889 0)
(0.0385017 0.472044 0)
(0.0265369 0.55939 0)
(0.019473 0.660956 0)
(0.00671611 0.783867 0)
(0.00377358 0.904439 0)
(0.0606187 0.102921 0)
(0.0669367 0.178671 0)
(0.0671166 0.246301 0)
(0.0614168 0.317809 0)
(0.051839 0.398466 0)
(0.0413227 0.480303 0)
(0.0282924 0.565447 0)
(0.0200703 0.665095 0)
(0.00721995 0.786867 0)
(0.00373628 0.905456 0)
(0.0464455 0.096367 0)
(0.0544197 0.174901 0)
(0.0570558 0.24797 0)
(0.0542896 0.32409 0)
(0.0477174 0.40869 0)
(0.0393834 0.494404 0)
(0.0279123 0.581717 0)
(0.0199275 0.68175 0)
(0.00778503 0.801782 0)
(0.00367273 0.915912 0)
(0.0337226 0.0871593 0)
(0.0453487 0.167587 0)
(0.0537389 0.247479 0)
(0.0550575 0.329356 0)
(0.0494548 0.415333 0)
(0.0406826 0.499853 0)
(0.0287072 0.585464 0)
(0.0201482 0.684041 0)
(0.00801541 0.803435 0)
(0.00365953 0.916497 0)
(0.0180705 0.0718824 0)
(0.0284744 0.150555 0)
(0.0388571 0.234594 0)
(0.0451582 0.325995 0)
(0.0446031 0.422194 0)
(0.0391098 0.514511 0)
(0.0289462 0.60373 0)
(0.0204468 0.70275 0)
(0.00875304 0.81987 0)
(0.00365112 0.928145 0)
(0.0956203 0.0517211 8.26591e-21)
(0.102358 0.0655262 -8.12884e-21)
(0.100874 0.0686377 7.35064e-22)
(0.0947379 0.0681079 0)
(0.085318 0.0648466 0)
(0.072341 0.0603483 2.1875e-22)
(0.0571399 0.0542847 -2.39178e-22)
(0.0412781 0.0470605 2.35343e-22)
(0.0272222 0.0388325 -3.22219e-23)
(0.0129141 0.0253597 3.17704e-23)
(0.101193 0.0466033 -1.05734e-20)
(0.102825 0.054347 0)
(0.0990012 0.0538307 4.17579e-21)
(0.0917877 0.0510555 -8.33103e-21)
(0.0819139 0.0461729 4.14635e-21)
(0.0688521 0.0405893 -2.15014e-22)
(0.0538213 0.0338771 1.65733e-22)
(0.0382336 0.026368 -8.90473e-25)
(0.0242372 0.0184541 -6.87559e-23)
(0.0109369 0.00572506 -4.89618e-23)
(0.104048 0.0402358 1.18982e-20)
(0.102324 0.0428229 -5.84261e-21)
(0.0972016 0.0393329 5.78618e-21)
(0.0892307 0.034482 -3.25581e-21)
(0.0789278 0.0279196 2.54862e-21)
(0.0656857 0.0211189 0)
(0.0507138 0.0135817 -1.66111e-22)
(0.0353499 0.00572835 -6.56916e-24)
(0.0214067 -0.00198442 5.11083e-23)
(0.00877999 -0.013704 8.32256e-23)
(0.105143 0.0317876 -1.83473e-21)
(0.100802 0.0299795 0)
(0.0948365 0.0241131 0)
(0.0863402 0.0175457 0)
(0.0757951 0.00953287 1.56587e-21)
(0.0625225 0.00169227 -9.61078e-22)
(0.0477057 -0.00658205 6.57126e-23)
(0.0326204 -0.014698 5.92939e-23)
(0.0188405 -0.0222798 3.10361e-23)
(0.00718333 -0.0327324 3.69449e-23)
(0.104585 0.0214218 -9.90887e-22)
(0.0983031 0.0160078 -4.86118e-21)
(0.0918486 0.00818836 -2.02018e-21)
(0.0830005 0.000214447 2.01865e-21)
(0.0723455 -0.00901745 -5.97232e-22)
(0.0591934 -0.01768 0)
(0.0446387 -0.0265315 -1.41124e-22)
(0.0299379 -0.034784 -1.14732e-23)
(0.016519 -0.0421942 1.88404e-23)
(0.00574074 -0.0512583 -6.86573e-23)
(0.102657 0.00953999 -1.29257e-20)
(0.0950492 0.00129388 2.12496e-21)
(0.0883798 -0.00819281 5.55123e-22)
(0.0793312 -0.0173103 1.93968e-21)
(0.06869 -0.0275675 0)
(0.0557448 -0.0368496 0)
(0.0415435 -0.0461109 0)
(0.0273145 -0.054372 1.98562e-23)
(0.0144111 -0.0615084 0)
(0.00449384 -0.069165 0)
(0.0996026 -0.00342809 0)
(0.091181 -0.0137832 3.72393e-21)
(0.0845466 -0.0247509 -2.41291e-21)
(0.0753963 -0.0347764 -1.35428e-21)
(0.0648877 -0.0458828 1.3612e-21)
(0.0522159 -0.0556094 2.33942e-22)
(0.0384629 -0.0651334 -3.0101e-22)
(0.0247851 -0.0732763 -1.37085e-22)
(0.0125102 -0.080022 7.94007e-24)
(0.00347137 -0.0863166 2.6791e-23)
(0.0956179 -0.0170917 0)
(0.0868533 -0.0288967 -1.31199e-21)
(0.080387 -0.0412108 -5.24522e-22)
(0.0712387 -0.0519111 0)
(0.0609656 -0.0637201 1.61758e-22)
(0.0486641 -0.0737414 -6.08177e-22)
(0.0354294 -0.0833898 2.00089e-22)
(0.0223778 -0.0912989 -1.69479e-23)
(0.0108158 -0.0975474 4.23236e-24)
(0.00265492 -0.102575 -3.5678e-23)
(0.0908402 -0.0311333 1.62994e-21)
(0.0821723 -0.0437533 1.15862e-21)
(0.0759263 -0.0573061 -3.85006e-22)
(0.0669128 -0.0684772 1.98193e-22)
(0.0569725 -0.0808448 2.75407e-22)
(0.0451287 -0.0910276 2.54531e-22)
(0.0324733 -0.10067 -4.56276e-23)
(0.0201168 -0.108248 -1.66277e-23)
(0.00932435 -0.113919 -4.24619e-24)
(0.00201503 -0.117811 -3.50045e-24)
(0.085417 -0.045235 -3.46494e-22)
(0.0771834 -0.0581193 3.49765e-22)
(0.0712547 -0.0728093 -2.60247e-22)
(0.062484 -0.0842611 -1.97887e-22)
(0.0529521 -0.0970432 1.14842e-22)
(0.0416484 -0.107272 -2.03054e-22)
(0.0296258 -0.116785 6.23812e-23)
(0.0180226 -0.12396 -2.4548e-25)
(0.00802762 -0.129006 0)
(0.00152201 -0.131922 3.50731e-24)
(0.079588 -0.0591378 3.49001e-22)
(0.0720212 -0.0718194 -3.52049e-22)
(0.066483 -0.0875317 -2.64972e-22)
(0.0580533 -0.0990919 -2.04019e-22)
(0.0489751 -0.112138 -1.19513e-22)
(0.0382794 -0.122319 2.3231e-23)
(0.0269245 -0.131585 3.72327e-23)
(0.0161121 -0.138316 4.67834e-23)
(0.00691363 -0.142724 0)
(0.00114726 -0.144835 -1.28877e-24)
(0.0736188 -0.0726633 0)
(0.0668642 -0.0847356 -1.18116e-21)
(0.0617463 -0.101324 1.99636e-21)
(0.0537431 -0.11285 2.04315e-22)
(0.0451268 -0.125994 3.07905e-22)
(0.0350838 -0.136061 3.04558e-22)
(0.024407 -0.144974 -5.66491e-23)
(0.0143967 -0.151253 -2.71394e-23)
(0.00596725 -0.155042 2.73968e-23)
(0.000864818 -0.156521 1.28552e-24)
(0.0677042 -0.0856927 0)
(0.0618419 -0.0968132 -1.33779e-21)
(0.0571329 -0.114077 -5.42258e-22)
(0.0496358 -0.125476 0)
(0.0414651 -0.138532 -8.35029e-22)
(0.0321026 -0.148454 3.23074e-22)
(0.0220975 -0.156919 1.76038e-22)
(0.0128773 -0.162774 2.55653e-22)
(0.00517111 -0.165981 -2.73074e-23)
(0.000652562 -0.166994 2.12672e-23)
(0.0619782 -0.0981473 0)
(0.0570397 -0.108071 1.34884e-21)
(0.0526922 -0.12573 0)
(0.0457762 -0.136978 1.53343e-21)
(0.0380234 -0.149737 -1.54141e-21)
(0.0293544 -0.159518 -3.72035e-22)
(0.0200064 -0.167456 9.70218e-23)
(0.0115456 -0.17294 -2.68569e-22)
(0.00450692 -0.175616 -4.80853e-23)
(0.000492218 -0.176312 -3.40389e-23)
(0.0565504 -0.109978 1.33734e-20)
(0.0525374 -0.118602 -5.0272e-21)
(0.0484722 -0.136271 -4.94439e-22)
(0.042199 -0.147429 -2.08055e-21)
(0.0348305 -0.159657 0)
(0.026847 -0.169335 -4.00293e-22)
(0.0181357 -0.176679 1.50161e-22)
(0.0103872 -0.181865 4.27329e-22)
(0.00395697 -0.184063 1.562e-23)
(0.00036904 -0.184572 -1.55899e-23)
(0.0514968 -0.121139 1.04743e-21)
(0.0484126 -0.128574 7.83597e-21)
(0.04453 -0.145731 2.16009e-21)
(0.0389332 -0.15695 -2.15883e-21)
(0.0319167 -0.168398 -7.37742e-22)
(0.0245826 -0.178031 0)
(0.0164829 -0.184731 -6.31444e-22)
(0.00938497 -0.189696 3.36293e-22)
(0.00350535 -0.191467 1.58062e-22)
(0.000271545 -0.191896 3.98134e-23)
(0.0468944 -0.131553 -1.85099e-21)
(0.0447755 -0.138214 0)
(0.0409592 -0.154185 0)
(0.0360172 -0.165693 0)
(0.0293231 -0.176111 -5.64553e-22)
(0.022566 -0.185762 1.30093e-21)
(0.0150458 -0.191781 6.54444e-22)
(0.00852372 -0.196601 -7.5509e-22)
(0.00313914 -0.197993 4.10429e-23)
(0.00019086 -0.198428 -8.00031e-23)
(0.0427714 -0.141088 -4.25701e-21)
(0.0416738 -0.147777 5.81426e-21)
(0.0378084 -0.161744 -5.75964e-21)
(0.0334395 -0.173811 3.68749e-21)
(0.0270602 -0.182979 -4.46792e-21)
(0.0207818 -0.192697 0)
(0.01381 -0.198013 -4.07719e-22)
(0.00778458 -0.20275 -2.11745e-23)
(0.0028458 -0.203806 -1.41444e-22)
(0.000118604 -0.204319 -4.90649e-23)
(0.0385479 -0.149438 -2.00385e-21)
(0.0385855 -0.157493 0)
(0.0347635 -0.168565 -5.68304e-21)
(0.0309076 -0.181456 8.80241e-21)
(0.0249456 -0.189208 -3.01739e-21)
(0.0190941 -0.199014 -3.13979e-22)
(0.0126927 -0.203614 4.06792e-22)
(0.00711766 -0.208312 4.89869e-23)
(0.0026011 -0.20907 2.95897e-22)
(4.81385e-05 -0.209719 9.70707e-23)
(0.0343271 -0.155926 -8.14818e-21)
(0.0353778 -0.167566 7.95279e-21)
(0.0319414 -0.174916 7.36243e-22)
(0.0284329 -0.188806 0)
(0.0229811 -0.195055 0)
(0.0175031 -0.204926 3.23728e-22)
(0.0116792 -0.208793 7.55937e-22)
(0.00651182 -0.213457 -7.41549e-22)
(0.00239254 -0.213938 -5.46515e-23)
(4.57664e-06 -0.214777 5.34037e-23)
(0.0364588 -0.164591 0)
(0.0357057 -0.191138 0)
(0.0317814 -0.189166 0)
(0.0272744 -0.205685 0)
(0.0217599 -0.208607 0)
(0.0160222 -0.218653 0)
(0.0106364 -0.220755 0)
(0.00579807 -0.225263 0)
(0.00221966 -0.225017 0)
(5.45761e-05 -0.22626 0)
(0.0270343 -0.202722 0)
(0.0222954 -0.228323 0)
(0.0205695 -0.221437 0)
(0.0165394 -0.236397 0)
(0.0136518 -0.235153 0)
(0.00981028 -0.243758 0)
(0.00677156 -0.243153 0)
(0.00370552 -0.246986 0)
(0.0015815 -0.245551 0)
(0.000101262 -0.247036 0)
(0.0251892 -0.241908 0)
(0.0196627 -0.266519 0)
(0.0173291 -0.255873 0)
(0.0131085 -0.270259 0)
(0.010709 -0.265779 0)
(0.00736086 -0.27401 0)
(0.00523517 -0.27131 0)
(0.00285238 -0.275115 0)
(0.00139314 -0.27263 0)
(0.000111364 -0.274502 0)
(0.0222581 -0.286662 0)
(0.0165101 -0.311165 0)
(0.0143773 -0.297564 0)
(0.010373 -0.312167 0)
(0.00861176 -0.305031 0)
(0.005718 -0.313615 0)
(0.00430993 -0.309135 0)
(0.00234641 -0.313406 0)
(0.00132737 -0.309876 0)
(0.000103332 -0.312341 0)
(0.0199823 -0.340598 0)
(0.0145147 -0.36515 0)
(0.0122677 -0.349935 0)
(0.00857583 -0.365099 0)
(0.00713888 -0.356196 0)
(0.00461098 -0.365533 0)
(0.00365218 -0.359705 0)
(0.00194404 -0.364735 0)
(0.00123064 -0.360287 0)
(5.91038e-05 -0.363555 0)
(0.0177757 -0.405073 0)
(0.0126135 -0.428041 0)
(0.0104804 -0.413661 0)
(0.00707793 -0.428565 0)
(0.00590343 -0.419466 0)
(0.00363878 -0.429116 0)
(0.00295347 -0.422806 0)
(0.00140292 -0.428394 0)
(0.000948653 -0.42351 0)
(-5.29679e-05 -0.427477 0)
(0.0147232 -0.47494 0)
(0.0102441 -0.493649 0)
(0.0084474 -0.483085 0)
(0.00552987 -0.495847 0)
(0.00456262 -0.488577 0)
(0.00259107 -0.497165 0)
(0.00203021 -0.491676 0)
(0.000673501 -0.496899 0)
(0.000458941 -0.49247 0)
(-0.000187825 -0.496501 0)
(0.0110696 -0.538236 0)
(0.00765287 -0.551363 0)
(0.00615366 -0.54606 0)
(0.0038772 -0.555052 0)
(0.00308824 -0.550833 0)
(0.00150637 -0.556915 0)
(0.00104473 -0.553243 0)
(-2.66873e-05 -0.556951 0)
(-9.27917e-06 -0.553775 0)
(-0.000263619 -0.556839 0)
(0.0067338 -0.58396 0)
(0.00451238 -0.59153 0)
(0.00361257 -0.590951 0)
(0.00220372 -0.596117 0)
(0.00172613 -0.594967 0)
(0.000689151 -0.598148 0)
(0.000384288 -0.596472 0)
(-0.000311518 -0.59819 0)
(-0.000190896 -0.596489 0)
(-0.00022259 -0.598023 0)
(0.00212763 -0.60671 0)
(0.00131678 -0.612035 0)
(0.00113675 -0.614016 0)
(0.000682236 -0.616998 0)
(0.000565275 -0.61741 0)
(0.000197065 -0.618911 0)
(9.60399e-05 -0.618324 0)
(-0.000150661 -0.618902 0)
(-9.17132e-05 -0.618059 0)
(-8.28776e-05 -0.618673 0)
(0.0335911 -0.176921 9.40542e-21)
(0.0275831 -0.215925 -9.22807e-21)
(0.0270669 -0.256642 1.16531e-21)
(0.0244039 -0.302942 0)
(0.0224957 -0.357192 0)
(0.0201109 -0.419809 1.27363e-21)
(0.0168513 -0.485293 -5.37771e-21)
(0.0127029 -0.542851 5.31724e-21)
(0.00796905 -0.583906 1.42802e-21)
(0.00272889 -0.60397 -1.40654e-21)
(0.0329913 -0.183157 -1.11407e-20)
(0.0282316 -0.221586 0)
(0.0279866 -0.262091 7.74457e-21)
(0.0254057 -0.308427 -1.77091e-20)
(0.0236194 -0.362466 1.1224e-20)
(0.0211436 -0.424254 -1.16209e-21)
(0.0177933 -0.488113 2.54117e-21)
(0.0134477 -0.543868 5.30163e-21)
(0.00852264 -0.58331 1.47062e-21)
(0.00298004 -0.602881 1.43536e-21)
(0.0328408 -0.189611 1.30375e-20)
(0.0294054 -0.227825 -8.70703e-21)
(0.0292596 -0.267776 8.62453e-21)
(0.026715 -0.31368 -9.25912e-21)
(0.0249735 -0.367199 6.86957e-21)
(0.0223422 -0.427952 0)
(0.0188172 -0.490146 -2.54744e-21)
(0.0142264 -0.54425 1.238e-22)
(0.00902073 -0.582272 -2.76393e-21)
(0.00315364 -0.601565 -2.82122e-21)
(0.0331679 -0.1951 -2.104e-21)
(0.0309716 -0.233443 0)
(0.0308603 -0.273093 0)
(0.0283424 -0.318638 0)
(0.0265752 -0.37166 7.49034e-21)
(0.0237381 -0.431378 -4.99642e-21)
(0.0199714 -0.491957 -2.17743e-23)
(0.0150776 -0.544395 -2.95402e-21)
(0.00951129 -0.581076 -1.50881e-21)
(0.00328542 -0.599864 -1.60338e-21)
(0.0340942 -0.199897 3.07458e-23)
(0.0328879 -0.238125 -6.31452e-21)
(0.0327341 -0.277551 -4.59228e-21)
(0.0302378 -0.322891 4.58946e-21)
(0.0283909 -0.375536 -2.46049e-21)
(0.0253198 -0.434339 0)
(0.0212782 -0.493469 -2.79455e-21)
(0.0160396 -0.54433 6.038e-21)
(0.0100623 -0.579762 -3.08309e-21)
(0.00342864 -0.597876 3.14898e-21)
(0.0356854 -0.204207 -1.69413e-20)
(0.0351945 -0.242024 1.94749e-21)
(0.0348962 -0.281095 -2.32889e-22)
(0.0323845 -0.326238 4.70207e-21)
(0.0304004 -0.37855 0)
(0.0270717 -0.436553 0)
(0.0227362 -0.494435 0)
(0.0171255 -0.543919 3.22421e-21)
(0.0107071 -0.57826 0)
(0.0036121 -0.59571 0)
(0.0379501 -0.2079 0)
(0.0379208 -0.245179 6.74822e-21)
(0.0373917 -0.28378 -4.543e-21)
(0.034803 -0.328669 -5.15188e-21)
(0.0326163 -0.380631 5.17873e-21)
(0.0289991 -0.437904 2.982e-21)
(0.0243433 -0.494714 -2.96974e-21)
(0.0183325 -0.543051 -1.15091e-20)
(0.0114463 -0.576496 8.20462e-22)
(0.00383974 -0.593407 -2.76908e-21)
(0.0408897 -0.210781 0)
(0.0410697 -0.247485 -2.21028e-21)
(0.0402515 -0.28558 -1.21375e-21)
(0.0375176 -0.33019 0)
(0.0350645 -0.381789 1.46166e-21)
(0.0311224 -0.438393 -4.42724e-21)
(0.0261091 -0.494286 4.83314e-21)
(0.0196611 -0.54169 1.70616e-21)
(0.0122714 -0.574434 -1.85646e-21)
(0.00410652 -0.590952 3.67726e-21)
(0.0445132 -0.212716 2.09397e-21)
(0.044639 -0.248844 2.35939e-21)
(0.0434904 -0.286417 -5.45839e-22)
(0.0405405 -0.330774 6.75407e-22)
(0.0377664 -0.382028 1.41262e-21)
(0.0334626 -0.438052 2.32602e-21)
(0.0280471 -0.493188 -8.61048e-22)
(0.0211152 -0.539856 -9.21738e-22)
(0.0131763 -0.572073 1.86259e-21)
(0.00440781 -0.588319 1.00387e-21)
(0.0488299 -0.213602 -5.60865e-22)
(0.0486313 -0.249209 5.65679e-22)
(0.0471195 -0.286226 -6.22792e-22)
(0.0438763 -0.330382 -6.74563e-22)
(0.0407358 -0.381327 7.76329e-22)
(0.0360347 -0.436886 -1.57961e-21)
(0.0301729 -0.491434 1.31475e-21)
(0.0227073 -0.53756 4.65372e-22)
(0.014166 -0.569413 0)
(0.00474471 -0.58549 -1.0061e-21)
(0.0538436 -0.213355 5.73878e-22)
(0.0530482 -0.248585 -5.79044e-22)
(0.0511509 -0.284969 -6.6442e-22)
(0.0475281 -0.329 -7.23959e-22)
(0.0439839 -0.379673 -8.07322e-22)
(0.0388471 -0.434908 -4.77436e-23)
(0.032494 -0.489053 4.62839e-22)
(0.0244406 -0.534831 1.47945e-21)
(0.0152406 -0.566469 0)
(0.00511704 -0.582462 -1.09254e-21)
(0.0595522 -0.211942 0)
(0.0578856 -0.246987 -2.57464e-21)
(0.0555958 -0.282658 4.63703e-21)
(0.0514949 -0.326637 7.25213e-22)
(0.0475205 -0.377062 1.64492e-21)
(0.0419092 -0.432098 2.65664e-21)
(0.0350261 -0.486011 -9.35039e-22)
(0.026334 -0.531638 -1.00182e-21)
(0.0164147 -0.563221 2.19903e-21)
(0.00553023 -0.579221 1.08998e-21)
(0.0659494 -0.209426 0)
(0.0631352 -0.24442 -2.56907e-21)
(0.0604598 -0.279347 -1.38148e-21)
(0.0557822 -0.323311 0)
(0.0513556 -0.373543 -5.14375e-21)
(0.0452219 -0.428507 1.72506e-21)
(0.0377635 -0.482377 2.00133e-21)
(0.0283744 -0.528036 6.40133e-21)
(0.0176759 -0.559688 -2.1919e-21)
(0.00597789 -0.575771 4.70855e-21)
(0.0730259 -0.205931 0)
(0.0687916 -0.240867 2.59107e-21)
(0.0657337 -0.275185 0)
(0.0603859 -0.319049 6.6514e-21)
(0.0554951 -0.369115 -6.68549e-21)
(0.0488033 -0.424076 -3.9542e-21)
(0.0407338 -0.478057 -7.07335e-23)
(0.0306018 -0.523928 -6.57297e-21)
(0.0190553 -0.555804 -1.0961e-21)
(0.00647095 -0.572062 -5.8565e-21)
(0.0807643 -0.201662 1.96239e-20)
(0.0748374 -0.236317 -7.45392e-21)
(0.0714067 -0.2702 5.75767e-22)
(0.065347 -0.313845 -6.33364e-21)
(0.0599432 -0.363828 0)
(0.0526424 -0.418929 -4.11243e-21)
(0.0439081 -0.47321 -2.99813e-22)
(0.0329756 -0.519463 8.92051e-21)
(0.0205171 -0.551671 1.21296e-21)
(0.00698955 -0.568156 -1.21752e-21)
(0.0891294 -0.196764 -1.31535e-21)
(0.0813169 -0.230696 1.35826e-20)
(0.0774493 -0.264331 6.57336e-21)
(0.0706623 -0.307715 -6.56891e-21)
(0.0647067 -0.35764 -3.82906e-21)
(0.0567781 -0.412899 0)
(0.0473523 -0.467583 -9.11247e-21)
(0.0355783 -0.514412 4.56842e-21)
(0.0221329 -0.547153 4.84345e-21)
(0.00756843 -0.563962 5.17154e-21)
(0.0980168 -0.191282 -2.68418e-21)
(0.0882544 -0.224202 0)
(0.0837945 -0.257858 0)
(0.0762964 -0.301008 0)
(0.0697371 -0.351003 -4.33561e-21)
(0.0611321 -0.406571 8.15072e-21)
(0.0509418 -0.4618 9.27129e-21)
(0.038259 -0.50926 -1.4523e-20)
(0.0237774 -0.542514 2.58204e-21)
(0.00814097 -0.559632 -7.68057e-21)
(0.107269 -0.185181 -4.52506e-21)
(0.0956474 -0.216798 1.29234e-20)
(0.0904486 -0.250503 -1.28002e-20)
(0.0823123 -0.293197 1.55848e-20)
(0.0751521 -0.343082 -1.95551e-20)
(0.0659022 -0.398848 0)
(0.0549516 -0.45473 -4.8362e-21)
(0.0413209 -0.503148 -1.85784e-22)
(0.0256933 -0.537282 -5.35326e-21)
(0.00882779 -0.554866 -5.44405e-21)
(0.116618 -0.179422 -2.85832e-21)
(0.103298 -0.20964 0)
(0.0971555 -0.243719 -1.65934e-20)
(0.0884001 -0.28621 3.08146e-20)
(0.080575 -0.336297 -1.18302e-20)
(0.070604 -0.39244 -2.3104e-21)
(0.0588032 -0.448866 4.82586e-21)
(0.0441811 -0.497808 -2.24475e-22)
(0.0274375 -0.532338 7.82433e-21)
(0.0094 -0.550168 8.0561e-21)
(0.126496 -0.171157 -1.25262e-20)
(0.112451 -0.199106 1.22554e-20)
(0.104982 -0.233281 1.77992e-21)
(0.0955877 -0.275201 0)
(0.0870574 -0.325192 0)
(0.0764074 -0.381817 2.24717e-21)
(0.0637502 -0.439529 1.00992e-20)
(0.0480152 -0.490184 -9.86487e-21)
(0.0298735 -0.526164 -2.67524e-21)
(0.0102896 -0.544612 2.62953e-21)
(0.137729 -0.172247 0)
(0.132096 -0.195405 0)
(0.120577 -0.23092 0)
(0.109621 -0.272094 0)
(0.0995037 -0.321147 0)
(0.0869962 -0.376027 0)
(0.0722556 -0.43156 0)
(0.0542216 -0.480089 0)
(0.0335796 -0.514751 0)
(0.0112322 -0.532993 0)
(0.161029 -0.156522 0)
(0.166165 -0.184477 0)
(0.147844 -0.223079 0)
(0.136751 -0.263582 0)
(0.123817 -0.311836 0)
(0.108067 -0.364239 0)
(0.0895659 -0.41608 0)
(0.0671886 -0.460411 0)
(0.0418308 -0.491113 0)
(0.014671 -0.506046 0)
(0.192625 -0.140911 0)
(0.20267 -0.170118 0)
(0.177189 -0.208206 0)
(0.167472 -0.247079 0)
(0.150311 -0.293949 0)
(0.130746 -0.343016 0)
(0.107654 -0.391126 0)
(0.0802175 -0.43239 0)
(0.0493991 -0.461884 0)
(0.016194 -0.478055 0)
(0.232671 -0.130059 0)
(0.244317 -0.158126 0)
(0.212418 -0.194882 0)
(0.204989 -0.232559 0)
(0.181749 -0.277706 0)
(0.158273 -0.322415 0)
(0.129694 -0.366118 0)
(0.0963764 -0.402523 0)
(0.0596754 -0.427213 0)
(0.0211143 -0.43834 0)
(0.280284 -0.115976 0)
(0.290125 -0.141629 0)
(0.252929 -0.175784 0)
(0.246154 -0.210478 0)
(0.213704 -0.250835 0)
(0.185926 -0.289274 0)
(0.150092 -0.328204 0)
(0.11036 -0.36076 0)
(0.0670609 -0.384937 0)
(0.0210561 -0.399948 0)
(0.337314 -0.106675 0)
(0.342931 -0.129301 0)
(0.301834 -0.160799 0)
(0.29279 -0.190967 0)
(0.250153 -0.226044 0)
(0.219632 -0.259162 0)
(0.17541 -0.293749 0)
(0.128867 -0.320635 0)
(0.0790959 -0.339279 0)
(0.0292519 -0.345276 0)
(0.397144 -0.0869651 0)
(0.394195 -0.104897 0)
(0.350218 -0.131152 0)
(0.334555 -0.154348 0)
(0.282383 -0.182935 0)
(0.248378 -0.209344 0)
(0.191344 -0.236956 0)
(0.138438 -0.25857 0)
(0.0808626 -0.279551 0)
(0.0212853 -0.299121 0)
(0.460506 -0.0737867 0)
(0.448211 -0.0868145 0)
(0.405181 -0.108101 0)
(0.380342 -0.125058 0)
(0.324689 -0.148641 0)
(0.284563 -0.168629 0)
(0.217943 -0.191397 0)
(0.161446 -0.210783 0)
(0.0969723 -0.23012 0)
(0.0440142 -0.22917 0)
(0.506491 -0.0398113 0)
(0.486568 -0.0461772 0)
(0.435552 -0.0589965 0)
(0.40083 -0.0673774 0)
(0.336266 -0.0815774 0)
(0.285428 -0.0909656 0)
(0.205585 -0.104409 0)
(0.139695 -0.115511 0)
(0.0605448 -0.137523 0)
(-0.0208764 -0.185705 0)
(0.71707 -0.0201044 0)
(0.692321 -0.0235769 0)
(0.647696 -0.0288474 0)
(0.608344 -0.0335235 0)
(0.549084 -0.0406079 0)
(0.49297 -0.0473653 0)
(0.414738 -0.0580361 0)
(0.33452 -0.07213 0)
(0.22732 -0.100665 0)
(0.158684 -0.156978 0)
(0.164913 -0.151807 1.31952e-20)
(0.190904 -0.134794 -1.29994e-20)
(0.223794 -0.119956 1.99093e-21)
(0.263368 -0.109931 0)
(0.310458 -0.0975496 0)
(0.364986 -0.0893486 2.80465e-21)
(0.422809 -0.0722087 -1.31028e-20)
(0.482142 -0.0617941 1.29593e-20)
(0.533349 -0.0324535 3.66508e-21)
(0.738333 -0.0172584 -3.69171e-21)
(0.173344 -0.14317 -1.31131e-20)
(0.198397 -0.125693 0)
(0.231191 -0.11158 1.38644e-20)
(0.270799 -0.101964 -3.30685e-20)
(0.318001 -0.0902653 2.19568e-20)
(0.372337 -0.0825067 -2.584e-21)
(0.430039 -0.0663318 5.59889e-21)
(0.488852 -0.0570169 1.24039e-20)
(0.542903 -0.0295248 3.40135e-21)
(0.746339 -0.0160477 3.32674e-21)
(0.180563 -0.133514 1.52621e-20)
(0.204629 -0.116144 -1.36487e-20)
(0.236662 -0.103061 1.35196e-20)
(0.275973 -0.0939519 -1.74345e-20)
(0.323064 -0.0830273 1.27072e-20)
(0.37734 -0.0758256 0)
(0.435094 -0.0607162 -5.61258e-21)
(0.494006 -0.0526057 -7.47808e-23)
(0.550965 -0.0269144 -6.42553e-21)
(0.753519 -0.0149024 -6.66989e-21)
(0.187909 -0.123222 -2.59121e-21)
(0.211844 -0.106345 0)
(0.243002 -0.0943849 0)
(0.281991 -0.0858576 0)
(0.328823 -0.0757912 1.41331e-20)
(0.382853 -0.0692623 -9.58186e-21)
(0.440489 -0.0553182 -3.02339e-22)
(0.499324 -0.0484659 -6.31871e-21)
(0.558557 -0.0245737 -3.23116e-21)
(0.760323 -0.0138431 -3.28224e-21)
(0.194724 -0.112584 1.82824e-21)
(0.218824 -0.0964718 -8.08441e-21)
(0.249227 -0.085643 -7.46692e-21)
(0.28811 -0.0777982 7.46231e-21)
(0.33482 -0.0686132 -4.48788e-21)
(0.388692 -0.062833 0)
(0.4462 -0.0500954 -5.53064e-21)
(0.504865 -0.0444882 1.21848e-20)
(0.565909 -0.0224057 -6.13722e-21)
(0.766809 -0.012856 6.57645e-21)
(0.200759 -0.101632 -1.97947e-20)
(0.224775 -0.0865786 1.50884e-21)
(0.254644 -0.0768961 -9.27839e-22)
(0.293406 -0.0698323 7.35169e-21)
(0.340076 -0.0615651 0)
(0.393977 -0.0565887 0)
(0.451471 -0.0450571 0)
(0.5101 -0.0406463 5.88239e-21)
(0.57279 -0.0203582 0)
(0.772853 -0.0119242 0)
(0.205984 -0.0903714 0)
(0.229694 -0.0766554 9.18834e-21)
(0.2591 -0.068145 -6.31103e-21)
(0.297691 -0.0619408 -8.1965e-21)
(0.344265 -0.054653 8.23917e-21)
(0.39829 -0.0505432 5.10469e-21)
(0.455828 -0.0402119 -4.87071e-21)
(0.514646 -0.0369502 -2.03494e-20)
(0.578934 -0.0184212 1.44472e-21)
(0.778337 -0.0110442 -4.7835e-21)
(0.210308 -0.0788287 0)
(0.233642 -0.0666809 -2.88585e-21)
(0.262601 -0.0593796 -1.66469e-21)
(0.301007 -0.0540962 0)
(0.347451 -0.0478424 2.40579e-21)
(0.401601 -0.0446606 -6.99797e-21)
(0.45917 -0.035542 8.10761e-21)
(0.518405 -0.0334014 3.05233e-21)
(0.584171 -0.0165866 -3.03749e-21)
(0.78319 -0.010215 6.39698e-21)