/*--------------------------------*- C++ -*----------------------------------*\
  =========                 |
  \\      /  F ield         | OpenFOAM: The Open Source CFD Toolbox
   \\    /   O peration     | Website:  https://openfoam.org
    \\  /    A nd           | Version:  7
     \\/     M anipulation  |
\*---------------------------------------------------------------------------*/
FoamFile
{
    version     2.0;
    format      ascii;
    class       volScalarField;
    location    "0.6";
    object      p;
}
// * * * * * * * * * * * * * * * * * * * * * * * * * * * * * * * * * * * * * //

dimensions      [0 2 -2 0 0 0 0];

internalField   nonuniform List<scalar> 
32000
(
3.79673
3.78986
3.78836
3.79386
3.80217
3.81053
3.81925
3.82933
3.84096
3.85358
3.86645
3.8791
3.89125
3.9028
3.91369
3.92392
3.93357
3.94276
3.95155
3.96001
3.9682
3.97619
3.98402
3.99173
3.99938
4.00703
4.01473
4.02248
4.03031
4.0382
4.04615
4.05418
4.06227
4.07044
4.07868
4.08698
4.09536
4.10381
4.11232
4.12074
3.78218
3.77552
3.77404
3.77953
3.78783
3.79619
3.80496
3.81511
3.82681
3.83953
3.85251
3.86527
3.87754
3.88918
3.90016
3.91049
3.92022
3.92945
3.93825
3.9467
3.95488
3.96285
3.97063
3.97829
3.98589
3.99347
4.00108
4.00874
4.01645
4.02423
4.03206
4.03995
4.0479
4.05592
4.064
4.07214
4.08034
4.08862
4.09695
4.10518
3.76745
3.76101
3.75955
3.76503
3.77331
3.78169
3.79052
3.80074
3.8125
3.82529
3.83837
3.85122
3.86358
3.87532
3.88638
3.8968
3.9066
3.91587
3.92468
3.93313
3.9413
3.94922
3.95697
3.96459
3.97213
3.97964
3.98716
3.99471
4.00231
4.00996
4.01766
4.02541
4.03322
4.04109
4.049
4.05697
4.065
4.07309
4.08122
4.08927
3.75262
3.74641
3.74495
3.75037
3.75863
3.76704
3.77592
3.7862
3.79803
3.81088
3.82403
3.83696
3.84941
3.86123
3.87238
3.88288
3.89275
3.90204
3.91087
3.91932
3.92745
3.93534
3.94305
3.95063
3.95812
3.96555
3.97297
3.98042
3.9879
3.99541
4.00298
4.01059
4.01825
4.02595
4.03369
4.04148
4.04932
4.05723
4.06516
4.07301
3.73762
3.73162
3.73015
3.73554
3.74377
3.75222
3.76115
3.7715
3.78339
3.7963
3.80952
3.82253
3.83505
3.84695
3.85819
3.86877
3.87868
3.888
3.89684
3.90528
3.91338
3.92123
3.92889
3.93642
3.94385
3.95121
3.95853
3.96586
3.97321
3.98059
3.98801
3.99547
4.00298
4.01051
4.01808
4.02568
4.03333
4.04104
4.04878
4.05642
3.72243
3.71665
3.71521
3.72056
3.72876
3.73724
3.74622
3.75664
3.7686
3.78157
3.79486
3.80795
3.82054
3.83252
3.84384
3.85447
3.86441
3.87376
3.8826
3.89103
3.8991
3.90689
3.91451
3.92199
3.92934
3.93661
3.94384
3.95105
3.95826
3.9655
3.97277
3.98008
3.98742
3.99479
4.00217
4.00958
4.01704
4.02455
4.03207
4.0395
3.70707
3.70151
3.7001
3.70543
3.7136
3.72212
3.73116
3.74164
3.75368
3.76672
3.78007
3.79322
3.80589
3.81795
3.82934
3.84
3.84997
3.85933
3.86817
3.87657
3.88461
3.89237
3.89992
3.90733
3.91461
3.92179
3.9289
3.93599
3.94306
3.95015
3.95727
3.96443
3.9716
3.97878
3.98597
3.99319
4.00045
4.00775
4.01506
4.02225
3.69156
3.68624
3.68486
3.69015
3.69831
3.70686
3.71598
3.72653
3.73864
3.75175
3.76517
3.77838
3.79112
3.80325
3.81469
3.82538
3.83537
3.84473
3.85356
3.86193
3.86993
3.87765
3.88515
3.89247
3.89965
3.90674
3.91375
3.9207
3.92763
3.93457
3.94153
3.94852
3.95551
3.9625
3.9695
3.97652
3.98357
3.99066
3.99774
4.00469
3.6759
3.67084
3.66947
3.67475
3.68291
3.6915
3.70068
3.71131
3.7235
3.73668
3.75016
3.76345
3.77626
3.78845
3.79991
3.81062
3.82062
3.82998
3.83879
3.84713
3.85509
3.86275
3.87018
3.87742
3.88451
3.89148
3.89837
3.90519
3.91198
3.91876
3.92555
3.93236
3.93917
3.94598
3.95277
3.95959
3.96642
3.97328
3.98012
3.98683
3.66012
3.6553
3.65397
3.65925
3.6674
3.67603
3.68529
3.69601
3.70827
3.72152
3.73509
3.74844
3.76132
3.77355
3.78503
3.79573
3.80572
3.81509
3.82388
3.83217
3.84008
3.84769
3.85504
3.86218
3.86917
3.87603
3.8828
3.88949
3.89612
3.90273
3.90935
3.91598
3.9226
3.9292
3.93579
3.9424
3.94901
3.95563
3.96222
3.96868
3.64421
3.63966
3.63836
3.64364
3.65179
3.66048
3.66982
3.68062
3.69297
3.70631
3.71994
3.73337
3.74632
3.75858
3.77006
3.78074
3.79071
3.80005
3.80881
3.81707
3.82494
3.83248
3.83974
3.84677
3.85365
3.86041
3.86705
3.87358
3.88005
3.88649
3.89293
3.89937
3.90579
3.91219
3.91857
3.92496
3.93134
3.93772
3.94405
3.95026
3.6282
3.6239
3.62265
3.62794
3.63611
3.64485
3.65428
3.66518
3.67763
3.69104
3.70475
3.71826
3.73127
3.74354
3.755
3.76567
3.77561
3.7849
3.79362
3.80185
3.80966
3.81712
3.82427
3.8312
3.83797
3.84461
3.85111
3.85749
3.86379
3.87005
3.8763
3.88255
3.88876
3.89495
3.90112
3.90728
3.91342
3.91955
3.92562
3.93156
3.61208
3.60804
3.60685
3.61216
3.62036
3.62916
3.63868
3.6497
3.66225
3.67575
3.68955
3.70313
3.71616
3.72843
3.73988
3.75052
3.76042
3.76965
3.77832
3.7865
3.79426
3.80162
3.80866
3.81549
3.82215
3.82865
3.835
3.84121
3.84734
3.85342
3.85948
3.86551
3.87152
3.87749
3.88345
3.88937
3.89526
3.90113
3.90694
3.91262
3.59587
3.5921
3.59097
3.59631
3.60454
3.61341
3.62305
3.63419
3.64685
3.66044
3.67433
3.68798
3.70102
3.71327
3.72469
3.73531
3.74516
3.75433
3.76293
3.77105
3.77872
3.78598
3.79293
3.79964
3.80617
3.81253
3.81872
3.82477
3.83072
3.83661
3.84246
3.84828
3.85408
3.85984
3.86556
3.87123
3.87687
3.88249
3.88804
3.89345
3.57957
3.57607
3.57501
3.58039
3.58865
3.59761
3.60738
3.61866
3.63143
3.64513
3.6591
3.6728
3.68585
3.69808
3.70947
3.72003
3.72983
3.73894
3.74747
3.7555
3.76307
3.77023
3.77707
3.78366
3.79006
3.79626
3.80229
3.80817
3.81394
3.81962
3.82527
3.83088
3.83646
3.84198
3.84746
3.85288
3.85826
3.86363
3.86891
3.87405
3.5632
3.55996
3.55897
3.5644
3.5727
3.58176
3.59168
3.60311
3.61602
3.62983
3.64386
3.6576
3.67066
3.68288
3.69421
3.70471
3.71444
3.72349
3.73194
3.73987
3.74733
3.75438
3.7611
3.76756
3.77381
3.77986
3.78572
3.79142
3.79699
3.80248
3.80791
3.81331
3.81866
3.82394
3.82917
3.83433
3.83945
3.84455
3.84956
3.85442
3.54676
3.5438
3.54288
3.54836
3.55671
3.56588
3.57595
3.58755
3.60061
3.61455
3.62864
3.64239
3.65545
3.66764
3.67893
3.68936
3.69901
3.70797
3.71633
3.72416
3.73151
3.73844
3.74503
3.75136
3.75745
3.76333
3.76901
3.77452
3.7799
3.78518
3.79041
3.79558
3.80069
3.80573
3.8107
3.81561
3.82046
3.82528
3.83001
3.83458
3.53027
3.52759
3.52674
3.53227
3.54068
3.54998
3.56022
3.572
3.58522
3.59928
3.61344
3.62719
3.64023
3.65239
3.66363
3.67399
3.68354
3.69241
3.70067
3.70839
3.71562
3.72242
3.72888
3.73506
3.74099
3.74669
3.75218
3.75749
3.76267
3.76775
3.77276
3.7777
3.78257
3.78737
3.79208
3.79671
3.80128
3.80583
3.81028
3.81455
3.51374
3.51134
3.51057
3.51615
3.52464
3.53408
3.54451
3.55646
3.56984
3.58402
3.59826
3.61202
3.62502
3.63713
3.64832
3.65859
3.66805
3.67681
3.68497
3.69257
3.69967
3.70633
3.71265
3.71867
3.72443
3.72995
3.73524
3.74036
3.74532
3.75019
3.75497
3.75968
3.76431
3.76886
3.77331
3.77766
3.78195
3.78623
3.79039
3.79436
3.49718
3.49508
3.49438
3.50002
3.5086
3.51818
3.5288
3.54096
3.55451
3.56879
3.58309
3.59687
3.60983
3.62188
3.63299
3.64319
3.65255
3.66119
3.66922
3.6767
3.68366
3.69019
3.69636
3.70221
3.70779
3.71312
3.71821
3.72312
3.72787
3.73251
3.73706
3.74154
3.74593
3.75022
3.7544
3.75847
3.76249
3.76648
3.77034
3.774
3.4806
3.47879
3.47818
3.4839
3.49257
3.50229
3.51313
3.5255
3.53922
3.55361
3.56796
3.58175
3.59468
3.60665
3.61767
3.62778
3.63703
3.64556
3.65345
3.66079
3.66762
3.674
3.68001
3.6857
3.69109
3.69622
3.7011
3.7058
3.71033
3.71473
3.71905
3.72329
3.72743
3.73146
3.73536
3.73916
3.74289
3.7466
3.75016
3.75349
3.46401
3.46249
3.46198
3.46778
3.47656
3.48644
3.49748
3.51008
3.52399
3.53849
3.55288
3.56667
3.57955
3.59145
3.60237
3.61237
3.62151
3.62991
3.63767
3.64487
3.65156
3.65779
3.66363
3.66913
3.67434
3.67926
3.68393
3.6884
3.6927
3.69688
3.70096
3.70495
3.70884
3.71259
3.71622
3.71973
3.72318
3.7266
3.72984
3.73283
3.4474
3.44618
3.44579
3.45169
3.46059
3.47064
3.4819
3.49472
3.50881
3.52343
3.53786
3.55163
3.56446
3.57628
3.58709
3.59697
3.606
3.61426
3.62188
3.62894
3.63548
3.64155
3.64722
3.65254
3.65754
3.66225
3.66671
3.67096
3.67503
3.67897
3.68282
3.68656
3.69017
3.69365
3.69699
3.70023
3.70338
3.7065
3.70941
3.71206
3.43079
3.42988
3.42963
3.43563
3.44465
3.4549
3.4664
3.47944
3.49371
3.50845
3.52292
3.53665
3.54942
3.56114
3.57185
3.58161
3.5905
3.59863
3.60611
3.61301
3.61939
3.6253
3.63079
3.63592
3.64072
3.64522
3.64945
3.65347
3.65731
3.66103
3.66463
3.66812
3.67147
3.67467
3.67773
3.68067
3.68353
3.68634
3.68891
3.6912
3.4142
3.41361
3.41351
3.41962
3.42876
3.43922
3.45097
3.46424
3.47868
3.49355
3.50806
3.52175
3.53443
3.54606
3.55666
3.56628
3.57503
3.58302
3.59036
3.59711
3.60332
3.60905
3.61435
3.61928
3.62387
3.62815
3.63217
3.63596
3.63958
3.64306
3.64643
3.64966
3.65274
3.65567
3.65844
3.66109
3.66365
3.66615
3.66837
3.67029
3.39765
3.39739
3.39744
3.40366
3.41294
3.42361
3.43563
3.44914
3.46376
3.47873
3.49327
3.50693
3.51951
3.53104
3.54152
3.55101
3.55962
3.56746
3.57464
3.58123
3.58727
3.59282
3.59793
3.60266
3.60703
3.61109
3.61487
3.61844
3.62184
3.62509
3.62822
3.63119
3.63401
3.63666
3.63916
3.64152
3.64378
3.64596
3.64783
3.64937
3.38116
3.38124
3.38144
3.38778
3.39721
3.4081
3.42038
3.43414
3.44895
3.46401
3.47858
3.49219
3.50469
3.51609
3.52645
3.5358
3.54426
3.55195
3.55898
3.5654
3.57126
3.57661
3.58153
3.58605
3.5902
3.59403
3.59759
3.60093
3.6041
3.60713
3.61
3.61272
3.61527
3.61766
3.61988
3.62196
3.62393
3.62581
3.62732
3.6285
3.36474
3.36515
3.3655
3.37197
3.38157
3.39268
3.40523
3.41926
3.43427
3.44942
3.46399
3.47755
3.48996
3.50124
3.51145
3.52066
3.52897
3.53652
3.54338
3.54963
3.55529
3.56045
3.56516
3.56946
3.57339
3.57699
3.58032
3.58344
3.58638
3.58917
3.5918
3.59426
3.59655
3.59867
3.60062
3.60243
3.60412
3.60571
3.60688
3.60772
3.3484
3.34916
3.34967
3.35627
3.36604
3.37739
3.39021
3.40451
3.41972
3.43495
3.44952
3.46302
3.47533
3.48647
3.49654
3.5056
3.51377
3.52116
3.52785
3.53391
3.53939
3.54434
3.54883
3.55291
3.5566
3.55998
3.56309
3.56599
3.5687
3.57125
3.57362
3.57582
3.57785
3.57972
3.58142
3.58297
3.58439
3.58571
3.58657
3.58708
3.33215
3.33327
3.33394
3.34069
3.35064
3.36224
3.37534
3.3899
3.4053
3.42062
3.43517
3.4486
3.46081
3.47182
3.48173
3.49065
3.49866
3.50589
3.51241
3.51827
3.52354
3.52829
3.53256
3.5364
3.53986
3.54301
3.5459
3.54858
3.55107
3.55337
3.55549
3.55743
3.5592
3.56082
3.56227
3.56358
3.56476
3.56583
3.5664
3.56664
3.31602
3.31749
3.31836
3.32524
3.33538
3.34724
3.36064
3.37545
3.39102
3.40642
3.42096
3.43431
3.4464
3.45728
3.46704
3.47581
3.48367
3.49073
3.49705
3.50272
3.50778
3.5123
3.51634
3.51994
3.52318
3.5261
3.52877
3.53123
3.53348
3.53554
3.53741
3.53909
3.54061
3.54198
3.5432
3.54428
3.54524
3.54609
3.54641
3.54643
3.30001
3.30185
3.30291
3.30995
3.32027
3.33241
3.34611
3.36118
3.3769
3.39237
3.40689
3.42016
3.43214
3.44287
3.45248
3.46109
3.46879
3.47567
3.48181
3.48727
3.49211
3.4964
3.50019
3.50355
3.50655
3.50925
3.5117
3.51393
3.51595
3.51776
3.51938
3.52081
3.52207
3.5232
3.5242
3.52507
3.52584
3.52649
3.52662
3.52648
3.28416
3.28634
3.28762
3.29483
3.30534
3.31775
3.33177
3.34709
3.36296
3.37849
3.39298
3.40617
3.41801
3.4286
3.43806
3.44651
3.45405
3.46074
3.46668
3.47192
3.47654
3.48059
3.48413
3.48725
3.49
3.49247
3.49468
3.49668
3.49846
3.50003
3.50139
3.50256
3.50359
3.50448
3.50526
3.50594
3.50653
3.50702
3.50701
3.50679
3.26846
3.271
3.27249
3.27988
3.29059
3.30329
3.31763
3.33321
3.34922
3.36478
3.37925
3.39234
3.40405
3.41448
3.42379
3.43208
3.43943
3.44594
3.45167
3.4567
3.46108
3.46489
3.46818
3.47103
3.47354
3.47576
3.47774
3.47949
3.48102
3.48233
3.48344
3.48436
3.48514
3.4858
3.48638
3.48687
3.48731
3.48766
3.48757
3.48736
3.25294
3.25582
3.25754
3.26511
3.27605
3.28904
3.30369
3.31954
3.33568
3.35127
3.36569
3.37868
3.39025
3.40053
3.40968
3.41779
3.42496
3.43127
3.4368
3.44161
3.44576
3.44931
3.45234
3.45494
3.45719
3.45915
3.46087
3.46236
3.46364
3.46469
3.46553
3.46619
3.46672
3.46715
3.46751
3.46782
3.46811
3.46835
3.46825
3.46813
3.2376
3.24083
3.24279
3.25056
3.26173
3.27502
3.28999
3.30608
3.32235
3.33795
3.35232
3.36521
3.37664
3.38676
3.39574
3.40368
3.41066
3.41676
3.42207
3.42666
3.43056
3.43386
3.43664
3.43898
3.44096
3.44266
3.44411
3.44533
3.44633
3.4471
3.44767
3.44806
3.44832
3.4485
3.44863
3.44875
3.4489
3.44902
3.44894
3.44899
3.22245
3.22605
3.22826
3.23624
3.24765
3.26125
3.27653
3.29285
3.30924
3.32485
3.33916
3.35194
3.36322
3.37319
3.382
3.38974
3.39652
3.40241
3.4075
3.41185
3.41551
3.41857
3.42109
3.42316
3.42488
3.4263
3.42747
3.4284
3.4291
3.42958
3.42985
3.42994
3.42991
3.42982
3.4297
3.42961
3.4296
3.4296
3.42955
3.42989
3.20751
3.21149
3.21398
3.22216
3.23382
3.24774
3.26332
3.27985
3.29635
3.31197
3.3262
3.33887
3.35001
3.35982
3.36845
3.376
3.38256
3.38824
3.3931
3.3972
3.40062
3.40342
3.40568
3.40749
3.40894
3.41007
3.41094
3.41157
3.41196
3.41212
3.41207
3.41184
3.41149
3.41108
3.41067
3.41034
3.41013
3.41003
3.41016
3.41116
3.1928
3.19718
3.19994
3.20835
3.22025
3.2345
3.25038
3.2671
3.2837
3.29931
3.31347
3.32601
3.33702
3.34666
3.3551
3.36245
3.3688
3.37424
3.37886
3.38271
3.38588
3.38842
3.39043
3.39197
3.39313
3.39398
3.39454
3.39485
3.39491
3.39474
3.39434
3.39375
3.39303
3.39224
3.39145
3.39075
3.39021
3.38993
3.39049
3.39298
3.17831
3.1831
3.18615
3.19478
3.20695
3.22153
3.23771
3.25462
3.2713
3.2869
3.30097
3.31339
3.32425
3.33372
3.34196
3.3491
3.35522
3.36043
3.3648
3.3684
3.3713
3.37359
3.37533
3.3766
3.37748
3.37803
3.37828
3.37826
3.37798
3.37745
3.37668
3.3757
3.37456
3.37331
3.372
3.37068
3.36939
3.36827
3.36841
3.3716
4.14981
4.20476
4.25974
4.31651
4.37504
4.43462
4.49506
4.55619
4.61793
4.68005
4.74236
4.80488
4.86774
4.93093
4.99462
5.05882
5.12355
5.18896
5.25527
5.32254
5.39099
5.46088
5.53241
5.60567
5.68075
5.75779
5.83688
5.91819
6.00167
6.08766
6.1756
6.26702
6.35866
6.45706
6.54987
6.65838
6.74862
6.87232
6.95421
7.10076
4.13388
4.18962
4.24477
4.30168
4.36027
4.41994
4.48047
4.54164
4.60339
4.66557
4.72796
4.79056
4.85346
4.91668
4.98043
5.04472
5.10942
5.17478
5.24118
5.30848
5.37685
5.44672
5.51825
5.59153
5.66657
5.74358
5.82268
5.90395
5.98748
6.07342
6.16138
6.25275
6.34442
6.44278
6.53558
6.64408
6.73431
6.85797
6.93985
7.08634
4.11759
4.17415
4.22946
4.28652
4.34522
4.40496
4.46557
4.5268
4.58858
4.65083
4.71329
4.77597
4.83894
4.90219
4.96599
5.03034
5.09503
5.16039
5.22683
5.29414
5.36248
5.43235
5.50386
5.57715
5.65216
5.72914
5.80826
5.88952
5.97307
6.05898
6.14696
6.23829
6.32998
6.42831
6.52111
6.6296
6.71982
6.84347
6.92534
7.07176
4.10096
4.15835
4.2138
4.27104
4.32987
4.38969
4.45037
4.51167
4.57352
4.63583
4.69836
4.76112
4.82417
4.88749
4.95133
5.01567
5.0804
5.1458
5.21222
5.27953
5.34789
5.41776
5.48925
5.5625
5.63752
5.7145
5.79362
5.87488
5.95842
6.04436
6.13233
6.22365
6.31534
6.41367
6.50647
6.61497
6.70517
6.8288
6.91067
7.05702
4.08397
4.14223
4.1978
4.25525
4.31423
4.37411
4.43487
4.49627
4.55819
4.62057
4.68317
4.74603
4.80916
4.87255
4.93642
5.00076
5.06554
5.13098
5.19736
5.26467
5.33308
5.40294
5.4744
5.54762
5.62265
5.69965
5.77876
5.86004
5.94355
6.02953
6.11749
6.20883
6.3005
6.39884
6.49164
6.60017
6.69035
6.81399
6.89585
7.04215
4.06664
4.12579
4.18149
4.23914
4.29829
4.35825
4.41909
4.48059
4.5426
4.60506
4.66774
4.73069
4.7939
4.85736
4.92127
4.98562
5.05044
5.11592
5.18227
5.24958
5.31802
5.38788
5.45932
5.53252
5.60757
5.68456
5.76368
5.84498
5.92848
6.01449
6.10246
6.19382
6.28548
6.38384
6.47664
6.58519
6.67536
6.79902
6.88089
7.02713
4.04896
4.10904
4.16486
4.22274
4.28204
4.34209
4.40303
4.46464
4.52674
4.58929
4.65206
4.71511
4.77841
4.84194
4.90589
4.97026
5.03512
5.10063
5.16695
5.23426
5.30273
5.37258
5.44402
5.51721
5.59226
5.66926
5.74838
5.8297
5.9132
5.99925
6.08723
6.17861
6.27029
6.36866
6.46146
6.57005
6.66022
6.78391
6.8658
7.01198
4.03096
4.09199
4.14793
4.20604
4.2655
4.32565
4.3867
4.44841
4.51062
4.57326
4.63614
4.69929
4.76268
4.82628
4.89028
4.95469
5.01956
5.0851
5.15142
5.21873
5.28721
5.35706
5.42849
5.50167
5.57673
5.65375
5.73287
5.81421
5.89772
5.9838
6.07181
6.16321
6.2549
6.3533
6.44611
6.55474
6.64492
6.76865
6.85055
6.9967
4.01265
4.07466
4.1307
4.18905
4.24867
4.30893
4.37009
4.43192
4.49424
4.557
4.61998
4.68324
4.74672
4.81039
4.87444
4.93889
5.00379
5.06935
5.13567
5.20298
5.27147
5.34132
5.41274
5.48592
5.561
5.63801
5.71715
5.79852
5.88204
5.96815
6.05619
6.14763
6.23934
6.33777
6.43058
6.53927
6.62946
6.75324
6.83517
6.98128
3.99404
4.05703
4.11318
4.17177
4.23155
4.29192
4.35321
4.41516
4.4776
4.54049
4.60359
4.66695
4.73052
4.79428
4.85839
4.92288
4.9878
5.05339
5.11971
5.18702
5.2555
5.32536
5.39677
5.46996
5.54504
5.62207
5.70122
5.78262
5.86616
5.95231
6.04039
6.13186
6.22359
6.32207
6.4149
6.52364
6.61385
6.73769
6.81965
6.96572
3.97516
4.03913
4.09537
4.15421
4.21414
4.27464
4.33607
4.39814
4.46072
4.52374
4.58696
4.65045
4.71411
4.77796
4.84213
4.90666
4.97161
5.03721
5.10354
5.17084
5.23932
5.30919
5.3806
5.45379
5.52888
5.60591
5.68508
5.76652
5.85009
5.93627
6.02439
6.11591
6.20767
6.30619
6.39904
6.50785
6.59807
6.72199
6.80398
6.95002
3.956
4.02097
4.07729
4.13637
4.19647
4.25708
4.31866
4.38086
4.4436
4.50676
4.57012
4.63372
4.69749
4.76143
4.82567
4.89024
4.95521
5.02082
5.08716
5.15445
5.22293
5.29281
5.36422
5.4374
5.51251
5.58955
5.66874
5.75022
5.83382
5.92004
6.0082
6.09977
6.19156
6.29013
6.38303
6.4919
6.58214
6.70614
6.78819
6.93419
3.93661
4.00254
4.05895
4.11826
4.17852
4.23925
4.30098
4.36334
4.42624
4.48956
4.55305
4.61679
4.68067
4.74471
4.80901
4.87363
4.93861
5.00423
5.07057
5.13786
5.20634
5.27623
5.34764
5.42082
5.49593
5.57299
5.6522
5.73372
5.81736
5.90361
5.99183
6.08345
6.17528
6.27391
6.36685
6.47579
6.56606
6.69015
6.77225
6.91821
3.91697
3.98385
4.04035
4.09987
4.1603
4.22115
4.28305
4.34558
4.40865
4.47213
4.53578
4.59965
4.66364
4.72779
4.79215
4.85682
4.92182
4.98745
5.05379
5.12107
5.18954
5.25944
5.33087
5.40403
5.47916
5.55624
5.63546
5.71702
5.80071
5.88701
5.97527
6.06695
6.15883
6.25752
6.35051
6.45953
6.54981
6.67401
6.75619
6.9021
3.89712
3.96492
4.02151
4.08122
4.14181
4.20279
4.26486
4.32757
4.39083
4.45449
4.51829
4.5823
4.64643
4.71067
4.7751
4.83982
4.90485
4.97048
5.03682
5.10409
5.17256
5.24246
5.31389
5.38706
5.46219
5.53929
5.61854
5.70013
5.78387
5.87022
5.95854
6.05027
6.14221
6.24096
6.334
6.44311
6.53342
6.65772
6.73999
6.88585
3.87707
3.94576
4.00243
4.0623
4.12305
4.18416
4.24642
4.30934
4.37279
4.43663
4.5006
4.56477
4.62902
4.69337
4.75787
4.82263
4.88769
4.95333
5.01967
5.08694
5.1554
5.22529
5.29673
5.3699
5.44503
5.52216
5.60143
5.68305
5.76685
5.85325
5.94162
6.03341
6.12541
6.22423
6.31732
6.42653
6.51687
6.64128
6.72365
6.86947
3.85684
3.92636
3.98312
4.04312
4.10401
4.16528
4.22774
4.29088
4.35453
4.41857
4.48272
4.54705
4.61143
4.67589
4.74046
4.80527
4.87036
4.93601
5.00234
5.0696
5.13806
5.20794
5.27939
5.35256
5.42769
5.50484
5.58414
5.66579
5.74965
5.8361
5.92453
6.01638
6.10844
6.20733
6.30049
6.40979
6.50016
6.6247
6.70718
6.85294
3.83644
3.90673
3.96357
4.02367
4.0847
4.14614
4.20881
4.27219
4.33607
4.40031
4.46465
4.52915
4.59367
4.65823
4.72288
4.78774
4.85286
4.91851
4.98483
5.05209
5.12054
5.19042
5.26187
5.33504
5.41017
5.48734
5.56667
5.64835
5.73227
5.81876
5.90726
5.99917
6.09129
6.19026
6.28348
6.3929
6.48331
6.60798
6.69057
6.83628
3.8159
3.88688
3.94379
4.00396
4.06513
4.12676
4.18966
4.25329
4.3174
4.38186
4.4464
4.51108
4.57574
4.64041
4.70514
4.77005
4.8352
4.90085
4.96716
5.03441
5.10286
5.17273
5.24418
5.31735
5.39248
5.46967
5.54902
5.63074
5.71471
5.80125
5.88981
5.98178
6.07397
6.17302
6.26632
6.37586
6.4663
6.5911
6.67381
6.81948
3.79523
3.86682
3.92379
3.984
4.0453
4.10713
4.17029
4.23418
4.29854
4.36323
4.42798
4.49284
4.55766
4.62244
4.68725
4.75221
4.81738
4.88302
4.94933
5.01658
5.08503
5.15488
5.22633
5.29949
5.37462
5.45182
5.5312
5.61295
5.69698
5.78357
5.87218
5.96422
6.05648
6.15562
6.249
6.35867
6.44914
6.57408
6.65684
6.80254
3.77443
3.84655
3.90356
3.96377
4.02521
4.08727
4.1507
4.21486
4.27948
4.34442
4.4094
4.47444
4.53942
4.60432
4.66921
4.73422
4.79941
4.86505
4.93136
4.9986
5.06704
5.13688
5.20831
5.28147
5.35659
5.43381
5.51322
5.59499
5.67908
5.76572
5.85439
5.9465
6.03883
6.13806
6.23153
6.34133
6.43183
6.55691
6.63947
6.78546
3.75354
3.82607
3.88311
3.94329
4.00488
4.06718
4.1309
4.19535
4.26025
4.32544
4.39065
4.4559
4.52103
4.58606
4.65104
4.71609
4.7813
4.84693
4.91324
4.98047
5.0489
5.11873
5.19014
5.2633
5.33842
5.41565
5.49507
5.57687
5.66102
5.74771
5.83644
5.92861
6.02103
6.12035
6.2139
6.32385
6.41439
6.5396
6.62208
6.76825
3.73255
3.80539
3.86242
3.92255
3.98429
4.04687
4.11089
4.17565
4.24084
4.3063
4.37176
4.4372
4.5025
4.56766
4.63272
4.69783
4.76305
4.82868
4.89498
4.96221
5.03063
5.10043
5.17183
5.24497
5.32009
5.39732
5.47678
5.5586
5.6428
5.72954
5.81832
5.91056
6.00307
6.10248
6.19613
6.30623
6.3968
6.52216
6.6046
6.75091
3.71149
3.78451
3.84149
3.90155
3.96347
4.02634
4.09068
4.15576
4.22126
4.28701
4.35272
4.41836
4.48384
4.54913
4.61428
4.67943
4.74467
4.81031
4.87661
4.94381
5.01221
5.08199
5.15337
5.2265
5.30161
5.37885
5.45833
5.54018
5.62443
5.71122
5.80005
5.89236
5.98495
6.08447
6.17821
6.28847
6.37909
6.5046
6.58701
6.73345
3.69036
3.76344
3.82032
3.88029
3.9424
4.00561
4.07029
4.13571
4.20153
4.26756
4.33354
4.39939
4.46506
4.53047
4.59572
4.66092
4.72617
4.79181
4.85811
4.92529
4.99366
5.06342
5.13477
5.20789
5.283
5.36024
5.43973
5.52162
5.60591
5.69274
5.78164
5.87401
5.9667
6.06632
6.16016
6.27058
6.36124
6.48691
6.56931
6.71588
3.66918
3.74216
3.79889
3.85878
3.92111
3.98467
4.0497
4.11548
4.18164
4.24798
4.31423
4.38031
4.44616
4.51171
4.57705
4.64229
4.70756
4.77321
4.83949
4.90665
4.97499
5.04472
5.11605
5.18915
5.26424
5.34149
5.421
5.50291
5.58724
5.67412
5.76307
5.85551
5.9483
6.04802
6.14196
6.25256
6.34326
6.46911
6.55147
6.69819
3.64795
3.72067
3.77719
3.83701
3.89958
3.96354
4.02894
4.09509
4.1616
4.22826
4.2948
4.36112
4.42716
4.49284
4.55827
4.62356
4.68885
4.7545
4.82077
4.8879
4.9562
5.0259
5.0972
5.17028
5.24536
5.3226
5.40213
5.48407
5.56843
5.65534
5.74436
5.83688
5.92976
6.0296
6.12364
6.23442
6.32517
6.4512
6.53345
6.6804
3.62669
3.69894
3.75519
3.81498
3.87784
3.94221
4.008
4.07453
4.14143
4.20842
4.27526
4.34182
4.40806
4.47387
4.53939
4.60473
4.67005
4.7357
4.80194
4.86904
4.9373
5.00696
5.07824
5.15129
5.22635
5.30359
5.38314
5.46508
5.54947
5.63643
5.72552
5.8181
5.91109
6.01104
6.1052
6.21616
6.30696
6.43319
6.51551
6.66252
3.6054
3.67695
3.73288
3.79268
3.85588
3.92069
3.98689
4.05384
4.12112
4.18846
4.25563
4.32244
4.38887
4.45482
4.52042
4.58582
4.65116
4.7168
4.78301
4.85009
4.9183
4.98791
5.05915
5.13217
5.20722
5.28445
5.36401
5.44597
5.53038
5.61738
5.70654
5.79919
5.89229
5.99236
6.08663
6.19778
6.28864
6.41509
6.4976
6.64454
3.58409
3.65463
3.71022
3.77012
3.83371
3.89901
3.96563
4.03301
4.10071
4.1684
4.23591
4.30296
4.36959
4.43569
4.50138
4.56682
4.63219
4.69782
4.764
4.83104
4.89921
4.96877
5.03996
5.11295
5.18797
5.2652
5.34475
5.42673
5.51116
5.5982
5.68742
5.78016
5.87336
5.97356
6.06794
6.1793
6.27021
6.39689
6.47962
6.62646
3.56275
3.63193
3.68721
3.74733
3.81136
3.87717
3.94424
4.01208
4.0802
4.14827
4.2161
4.28341
4.35023
4.41649
4.48226
4.54775
4.61314
4.67877
4.74491
4.81191
4.88002
4.94953
5.02067
5.09362
5.16862
5.24583
5.32538
5.40736
5.49181
5.5789
5.66819
5.761
5.85432
5.95464
6.04914
6.1607
6.25168
6.37859
6.46156
6.60829
3.54138
3.6088
3.66384
3.72432
3.78886
3.85521
3.92275
3.99107
4.05962
4.12806
4.19623
4.26379
4.3308
4.39721
4.46308
4.52861
4.59403
4.65964
4.72574
4.7927
4.86075
4.9302
5.00129
5.0742
5.14916
5.22636
5.30589
5.38788
5.47234
5.55947
5.64883
5.74172
5.83515
5.9356
6.03023
6.14199
6.23304
6.3602
6.44342
6.59002
3.51996
3.58519
3.64011
3.70114
3.76622
3.83314
3.90119
3.96998
4.03898
4.10779
4.17628
4.2441
4.31131
4.37787
4.44383
4.50941
4.57485
4.64045
4.70651
4.77342
4.8414
4.9108
4.98182
5.05469
5.12961
5.20679
5.2863
5.3683
5.45276
5.53993
5.62936
5.72233
5.81588
5.91644
6.01121
6.12318
6.21431
6.3417
6.42518
6.57161
3.49846
3.56102
3.61605
3.67778
3.74347
3.81096
3.87954
3.94881
4.01825
4.08744
4.15625
4.22433
4.29175
4.35845
4.42451
4.49014
4.55561
4.62119
4.68722
4.75407
4.82198
4.89131
4.96228
5.0351
5.10997
5.18712
5.26662
5.34861
5.43308
5.52028
5.60977
5.70283
5.79649
5.89718
5.99208
6.10427
6.19548
6.3231
6.40686
6.5529
3.47675
3.53631
3.59174
3.65432
3.72064
3.78872
3.85784
3.92759
3.99746
4.06702
4.13615
4.2045
4.27212
4.33897
4.40514
4.47082
4.53631
4.60188
4.66787
4.73466
4.80251
4.87177
4.94266
5.01543
5.09026
5.16737
5.24684
5.32882
5.4133
5.50054
5.59009
5.68322
5.777
5.87781
5.97285
6.08525
6.17657
6.30441
6.38847
6.53421
3.45482
3.51136
3.56753
3.63106
3.698
3.76665
3.83629
3.90648
3.97675
4.04668
4.11611
4.18472
4.25254
4.31954
4.38581
4.45154
4.51704
4.5826
4.64854
4.71527
4.78304
4.85222
4.92304
4.99574
5.07051
5.14759
5.22701
5.30898
5.39346
5.48072
5.57032
5.66352
5.75742
5.85835
5.95354
6.06615
6.15759
6.28563
6.37
6.51546
3.43298
3.4867
3.54377
3.60823
3.67576
3.74494
3.81504
3.88564
3.95627
4.02652
4.09624
4.1651
4.2331
4.30023
4.36659
4.43237
4.49788
4.5634
4.62929
4.69594
4.76362
4.83271
4.90344
4.97606
5.05078
5.12779
5.20717
5.28911
5.37358
5.46086
5.55051
5.64378
5.73779
5.83884
5.93417
6.04699
6.13856
6.26679
6.35149
6.49668
3.4118
3.46198
3.51967
3.58493
3.653
3.72269
3.79325
3.86425
3.93524
4.00584
4.07587
4.145
4.21321
4.28051
4.34699
4.41284
4.47838
4.54389
4.60974
4.67633
4.74394
4.81295
4.88361
4.95616
5.03082
5.10778
5.18712
5.26904
5.35351
5.44082
5.53053
5.62388
5.71801
5.8192
5.91468
6.02776
6.1195
6.24793
6.33301
6.47823
3.38976
3.43553
3.49338
3.55926
3.62788
3.6981
3.7692
3.84069
3.91214
3.98322
4.05366
4.12318
4.19172
4.25929
4.32598
4.39199
4.45763
4.52321
4.5891
4.65567
4.72327
4.79225
4.86288
4.9354
5.01004
5.08698
5.16633
5.24826
5.33277
5.42014
5.50995
5.60342
5.69773
5.7991
5.8948
6.00817
6.10016
6.22881
6.31443
6.4597
3.36847
3.41241
3.46962
3.53571
3.60472
3.67534
3.74691
3.81885
3.89076
3.96228
4.03311
4.10299
4.17183
4.23963
4.3065
4.37262
4.43833
4.50392
4.56978
4.6363
4.70383
4.77272
4.84326
4.91569
4.99026
5.06713
5.14644
5.22832
5.31282
5.4002
5.49007
5.58359
5.67808
5.7795
5.8755
5.98888
6.0813
6.20977
6.29609
6.44105
3.31681
3.36731
3.42224
3.48772
3.55709
3.62826
3.70066
3.77349
3.84622
3.91849
3.98995
4.06031
4.12944
4.19737
4.26417
4.33007
4.39537
4.46042
4.52565
4.59146
4.65827
4.72641
4.79624
4.86801
4.94195
5.01823
5.09703
5.17844
5.26257
5.3496
5.43931
5.5326
5.62723
5.72831
5.82479
5.93754
6.03093
6.15782
6.24505
6.38643
3.24311
3.29358
3.34676
3.41206
3.48169
3.55355
3.62703
3.70108
3.77514
3.84871
3.92133
3.99264
4.06244
4.1307
4.19754
4.26319
4.32795
4.39226
4.45658
4.52139
4.58715
4.65427
4.7231
4.79396
4.86708
4.94264
5.02078
5.10166
5.18533
5.27201
5.36149
5.45454
5.54918
5.64989
5.74639
5.85803
5.95079
6.07794
6.1661
6.30486
3.16998
3.2198
3.27223
3.33629
3.40541
3.47758
3.55182
3.62684
3.70194
3.77661
3.85027
3.92247
3.99297
4.06167
4.12869
4.19422
4.25862
4.32234
4.38589
4.44982
4.51464
4.58079
4.64869
4.71867
4.79099
4.86583
4.94336
5.02371
5.10696
5.1933
5.28258
5.37547
5.47018
5.57083
5.66791
5.77998
5.87333
5.99935
6.08777
6.22558
3.09643
3.14493
3.19663
3.25988
3.32838
3.40037
3.47492
3.55055
3.62643
3.70198
3.77655
3.84961
3.92083
3.99005
4.05735
4.12294
4.18713
4.25042
4.31336
4.37652
4.44048
4.50575
4.57276
4.64188
4.71341
4.78755
4.86446
4.94428
5.02712
5.11314
5.20221
5.29501
5.38976
5.4905
5.58777
5.69959
5.79369
5.91917
6.0081
6.14497
3.02338
3.07041
3.12092
3.18294
3.25046
3.3219
3.39636
3.47227
3.54868
3.62488
3.70021
3.77405
3.84598
3.91578
3.98347
4.04921
4.11335
4.17635
4.23879
4.30131
4.36451
4.42894
4.4951
4.56339
4.63412
4.70755
4.78384
4.86313
4.94553
5.03121
5.12005
5.21268
5.30745
5.40821
5.50578
5.61768
5.71227
5.83763
5.92713
6.06399
2.94993
2.99538
3.04449
3.10523
3.17168
3.24233
3.3164
3.39228
3.46892
3.54558
3.62149
3.69601
3.76861
3.83901
3.90714
3.97314
4.03734
4.10017
4.16224
4.22421
4.28672
4.35038
4.41572
4.48319
4.55314
4.62584
4.70149
4.78024
4.8622
4.94755
5.03616
5.12866
5.22341
5.32423
5.42206
5.53422
5.62931
5.75496
5.84522
5.98261
2.87599
2.91984
2.96741
3.02669
3.09191
3.16153
3.23492
3.31051
3.38715
3.46404
3.54039
3.61547
3.6887
3.75969
3.82832
3.89468
3.95903
4.02182
4.08363
4.14514
4.20705
4.26999
4.33455
4.40121
4.47038
4.54235
4.61734
4.69554
4.77704
4.86204
4.95041
5.04278
5.13753
5.23844
5.33655
5.4491
5.54479
5.67108
5.76236
5.90067
2.80131
2.84357
2.88952
2.94723
3.01108
3.07953
3.15202
3.22705
3.30346
3.38039
3.457
3.53251
3.60629
3.67786
3.74702
3.81378
3.87838
3.94122
4.00288
4.06404
4.12541
4.18769
4.2515
4.31737
4.38575
4.45697
4.5313
4.60892
4.68995
4.77457
4.8627
4.95494
5.04971
5.15074
5.24917
5.36221
5.45858
5.58587
5.6784
5.81807
2.72575
2.76645
2.81075
2.8668
2.92917
2.99629
3.06769
3.14194
3.21789
3.29465
3.37135
3.44716
3.5214
3.59351
3.66321
3.73042
3.79534
3.85833
3.91993
3.98082
4.04174
4.1034
4.16649
4.23159
4.29917
4.36964
4.44327
4.52028
4.60081
4.68505
4.77292
4.86503
4.95983
5.06102
5.15982
5.27343
5.37057
5.49921
5.59311
5.73469
2.64924
2.68842
2.73103
2.78538
2.84616
2.91181
2.98195
3.05523
3.1305
3.20688
3.28349
3.35945
3.43404
3.50664
3.57685
3.64455
3.70985
3.77307
3.83469
3.8954
3.95593
4.01704
4.07945
4.14378
4.21056
4.28025
4.35315
4.42952
4.50952
4.59336
4.68095
4.77291
4.86776
4.96913
5.06838
5.18264
5.28062
5.4109
5.50619
5.65033
2.57173
2.60944
2.65036
2.70295
2.76206
2.8261
2.89482
2.96694
3.04133
3.11714
3.19347
3.26942
3.34423
3.41723
3.48793
3.55613
3.62185
3.68535
3.74709
3.80769
3.86791
3.92852
3.99027
4.05385
4.11983
4.18871
4.26085
4.33654
4.41598
4.49937
4.58666
4.67846
4.77336
4.87493
4.9747
5.08965
5.18856
5.32069
5.41734
5.56462
2.49318
2.52946
2.56871
2.6195
2.67685
2.73918
2.80633
2.87711
2.95044
3.02547
3.10133
3.17711
3.25199
3.32528
3.39642
3.46509
3.53125
3.5951
3.65702
3.71759
3.77757
3.83774
3.89888
3.96171
4.02688
4.09492
4.16626
4.24123
4.32005
4.40295
4.48991
4.58152
4.67646
4.77824
4.87857
4.99428
5.09424
5.22822
5.32626
5.47712
2.41361
2.44846
2.48606
2.53503
2.59055
2.65107
2.71653
2.7858
2.85788
2.93194
3.00713
3.08254
3.15734
3.23079
3.30228
3.3714
3.43801
3.50223
3.56438
3.62501
3.68482
3.7446
3.80516
3.86726
3.93161
3.99879
4.06929
4.14348
4.22162
4.30398
4.39055
4.48195
4.5769