/*--------------------------------*- C++ -*----------------------------------*\
  =========                 |
  \\      /  F ield         | OpenFOAM: The Open Source CFD Toolbox
   \\    /   O peration     | Website:  https://openfoam.org
    \\  /    A nd           | Version:  7
     \\/     M anipulation  |
\*---------------------------------------------------------------------------*/
FoamFile
{
    version     2.0;
    format      ascii;
    class       volVectorField;
    location    "0.6";
    object      U;
}
// * * * * * * * * * * * * * * * * * * * * * * * * * * * * * * * * * * * * * //

dimensions      [0 1 -1 0 0 0 0];

internalField   nonuniform List<vector> 
32000
(
(-0.00220873 0.0637955 -3.29479e-21)
(-0.00286757 0.0972035 0)
(0.000825336 0.0687815 -2.92818e-20)
(0.00947875 0.00670238 0)
(0.0229918 -0.0683025 3.05894e-20)
(0.0408755 -0.142967 0)
(0.062056 -0.209764 3.17171e-20)
(0.0852494 -0.265253 -2.41393e-20)
(0.109323 -0.308622 2.5847e-23)
(0.133379 -0.340556 2.74569e-23)
(0.156789 -0.362541 -8.38461e-21)
(0.179154 -0.376311 3.38939e-20)
(0.200215 -0.383579 0)
(0.219849 -0.385896 -8.64983e-21)
(0.238035 -0.384558 8.68554e-21)
(0.254821 -0.380611 0)
(0.270293 -0.374878 4.39019e-20)
(0.284545 -0.367987 -8.81397e-21)
(0.297673 -0.360397 0)
(0.309784 -0.352441 1.77601e-20)
(0.320979 -0.344357 1.77279e-20)
(0.331342 -0.336312 0)
(0.34095 -0.328416 0)
(0.349881 -0.320745 0)
(0.358199 -0.313334 0)
(0.365961 -0.306213 0)
(0.373215 -0.299395 0)
(0.380001 -0.292875 0)
(0.386365 -0.286649 -3.52457e-20)
(0.392337 -0.280706 0)
(0.39795 -0.275038 3.50571e-20)
(0.403232 -0.269626 0)
(0.408211 -0.264459 0)
(0.412905 -0.259527 0)
(0.417329 -0.254809 -3.45813e-20)
(0.421514 -0.250294 -1.7272e-20)
(0.425471 -0.245971 5.15707e-20)
(0.429224 -0.241812 -2.79631e-23)
(0.432795 -0.237779 3.411e-20)
(0.435842 -0.23375 -3.1067e-23)
(-0.00329556 0.064074 0)
(-0.00401118 0.0964571 5.69808e-20)
(0.00108667 0.0661279 1.46537e-20)
(0.0118437 0.00170613 -2.7219e-23)
(0.0277027 -0.0756747 -1.53369e-20)
(0.047827 -0.152454 0)
(0.0709574 -0.220931 3.14725e-20)
(0.0956938 -0.27761 -3.1976e-20)
(0.120873 -0.321688 0)
(0.145649 -0.353919 -6.60156e-20)
(0.169439 -0.37587 0)
(0.191889 -0.389364 -1.01428e-19)
(0.212815 -0.396199 0)
(0.232161 -0.397987 0)
(0.249954 -0.396073 3.47137e-20)
(0.266277 -0.391538 -3.48248e-20)
(0.281247 -0.385229 -3.50992e-20)
(0.294982 -0.377786 0)
(0.3076 -0.369677 1.05765e-19)
(0.319217 -0.361235 -3.53247e-20)
(0.329936 -0.352699 -2.41149e-23)
(0.339851 -0.34424 -1.06191e-19)
(0.349041 -0.335959 -7.07989e-20)
(0.357583 -0.327929 -3.5486e-20)
(0.365539 -0.32019 1.06125e-19)
(0.372966 -0.312764 -1.06069e-19)
(0.379913 -0.30566 1.06027e-19)
(0.386418 -0.298874 -1.40863e-19)
(0.39252 -0.292399 -3.49999e-20)
(0.398251 -0.286222 1.92444e-22)
(0.403644 -0.280333 -1.04786e-19)
(0.408724 -0.274714 -6.97064e-20)
(0.41351 -0.269349 1.39028e-19)
(0.41803 -0.264229 -1.38398e-19)
(0.422298 -0.259336 -3.43289e-20)
(0.426327 -0.254653 -1.37474e-19)
(0.430145 -0.250168 5.97332e-23)
(0.433768 -0.245856 3.41031e-20)
(0.437214 -0.241671 -1.35591e-19)
(0.440108 -0.23748 -1.79496e-19)
(-0.00441241 0.0642026 -1.30618e-20)
(-0.00517013 0.095568 -2.85352e-20)
(0.0014503 0.0632793 -1.30748e-19)
(0.0144602 -0.00349756 0)
(0.0328052 -0.0832177 1.52202e-20)
(0.0553002 -0.162036 -1.54786e-20)
(0.080456 -0.23211 -1.89065e-19)
(0.106777 -0.289882 6.41915e-20)
(0.133101 -0.334566 -3.25616e-20)
(0.158583 -0.366999 1.97438e-19)
(0.182706 -0.388838 6.6691e-20)
(0.20521 -0.401996 3.38859e-20)
(0.225967 -0.408353 -1.35853e-19)
(0.244979 -0.409586 0)
(0.262335 -0.407082 0)
(0.278157 -0.401958 6.9584e-20)
(0.292591 -0.395081 1.70447e-22)
(0.305782 -0.387103 -7.00247e-20)
(0.317865 -0.378491 -7.04435e-20)
(0.328965 -0.369585 -1.40715e-19)
(0.33919 -0.360624 2.11596e-19)
(0.348642 -0.351773 1.93074e-22)
(0.357399 -0.343131 5.42556e-23)
(0.365539 -0.334768 7.05916e-20)
(0.373124 -0.326721 -1.41406e-19)
(0.380208 -0.319012 2.81912e-19)
(0.386838 -0.311644 0)
(0.39305 -0.304609 7.04033e-20)
(0.398886 -0.297904 7.02445e-20)
(0.404372 -0.291511 1.40072e-19)
(0.409533 -0.285412 1.91976e-22)
(0.414405 -0.279598 0)
(0.419001 -0.274051 6.9299e-20)
(0.423335 -0.268752 -6.87814e-20)
(0.427434 -0.263693 -6.83948e-20)
(0.431314 -0.258854 2.05793e-19)
(0.434986 -0.254213 -2.04155e-19)
(0.438472 -0.249759 1.36006e-19)
(0.441789 -0.245422 -2.02372e-19)
(0.444526 -0.241086 7.12429e-20)
(-0.00553211 0.0641349 1.03961e-19)
(-0.00627099 0.0942297 -1.13073e-19)
(0.00197838 0.059953 2.31927e-19)
(0.0173862 -0.00912956 0)
(0.0383625 -0.0910944 9.05907e-20)
(0.0633212 -0.171831 1.54078e-19)
(0.0905711 -0.243369 3.19403e-20)
(0.118512 -0.302089 9.31555e-23)
(0.145955 -0.34725 9.6951e-20)
(0.172121 -0.379785 -3.33767e-20)
(0.196558 -0.401421 1.65796e-19)
(0.219067 -0.414179 -2.01342e-19)
(0.239601 -0.420017 2.03541e-19)
(0.258239 -0.420666 -6.8457e-20)
(0.275123 -0.417561 6.87403e-20)
(0.290408 -0.411852 -1.38244e-19)
(0.304274 -0.404418 -2.08589e-19)
(0.316895 -0.395918 6.97761e-20)
(0.328421 -0.386824 -7.0149e-20)
(0.338985 -0.377481 2.10871e-19)
(0.3487 -0.368119 -1.40933e-19)
(0.357674 -0.3589 -1.40559e-19)
(0.36599 -0.349924 0)
(0.373719 -0.341253 0)
(0.380922 -0.332923 -1.40465e-19)
(0.387652 -0.32495 -1.40802e-19)
(0.393962 -0.31734 -1.40075e-19)
(0.399877 -0.310078 0)
(0.405435 -0.303154 0)
(0.410672 -0.29656 -2.78618e-19)
(0.415604 -0.290274 -2.63442e-22)
(0.420254 -0.284275 1.38795e-19)
(0.424651 -0.278555 -1.37934e-19)
(0.428807 -0.273096 -1.377e-19)
(0.432732 -0.267879 1.37437e-19)
(0.436452 -0.262888 0)
(0.439976 -0.258109 1.36191e-19)
(0.443327 -0.253511 -2.70544e-19)
(0.446509 -0.249037 2.69608e-19)
(0.449079 -0.244556 -2.85111e-19)
(-0.00665644 0.0638839 -5.21047e-20)
(-0.00731607 0.0926087 8.48365e-20)
(0.00270313 0.0563103 -1.15734e-19)
(0.0206366 -0.015049 0)
(0.0443538 -0.0992006 -1.51112e-19)
(0.0718678 -0.18176 -9.25251e-20)
(0.101256 -0.254628 1.25388e-19)
(0.130834 -0.314175 0)
(0.159402 -0.359702 -1.93906e-19)
(0.186222 -0.392225 -6.57526e-20)
(0.210921 -0.413577 -6.63284e-20)
(0.233393 -0.425876 1.34292e-19)
(0.25367 -0.431156 -1.35086e-19)
(0.271892 -0.4312 6.7999e-20)
(0.288256 -0.427487 0)
(0.302972 -0.421199 2.07325e-19)
(0.316247 -0.413224 6.96742e-20)
(0.328276 -0.404224 -1.39372e-19)
(0.339222 -0.39467 2.79278e-19)
(0.349232 -0.384912 -2.79916e-19)
(0.358429 -0.375178 2.79957e-19)
(0.366915 -0.365619 1.40557e-19)
(0.374777 -0.356332 0)
(0.382087 -0.347377 1.40445e-19)
(0.388906 -0.338793 3.86175e-22)
(0.395277 -0.330579 0)
(0.401253 -0.322739 1.40074e-19)
(0.406873 -0.315271 -1.39672e-19)
(0.412152 -0.308154 1.39091e-19)
(0.417124 -0.30137 2.78097e-19)
(0.421823 -0.294907 -2.76902e-19)
(0.426262 -0.288745 2.76155e-19)
(0.430451 -0.282864 0)
(0.434415 -0.277252 0)
(0.438173 -0.27189 2.73021e-19)
(0.441732 -0.266759 0)
(0.445105 -0.261846 0)
(0.448316 -0.257114 -2.69314e-19)
(0.45136 -0.25251 2.6813e-19)
(0.453765 -0.247891 1.42325e-19)
(-0.00775187 0.0634692 2.58323e-20)
(-0.00825058 0.0906395 0)
(0.00363762 0.0522567 2.29613e-19)
(0.024224 -0.0213542 2.94504e-20)
(0.0507912 -0.10758 3.01473e-20)
(0.0809343 -0.191832 1.83329e-19)
(0.112503 -0.265896 2.48786e-19)
(0.143719 -0.326124 0)
(0.173384 -0.371885 6.43722e-20)
(0.20083 -0.404295 1.95005e-19)
(0.22576 -0.425287 2.63218e-19)
(0.248143 -0.437069 -6.67613e-20)
(0.268109 -0.441747 -2.01464e-19)
(0.285878 -0.441169 0)
(0.301695 -0.436851 2.72806e-19)
(0.315805 -0.429993 0)
(0.328458 -0.421485 4.14117e-19)
(0.339877 -0.412004 -1.38535e-19)
(0.350233 -0.402025 0)
(0.359674 -0.391881 -1.39594e-19)
(0.368334 -0.381795 -4.00967e-22)
(0.376328 -0.371921 -1.39136e-19)
(0.383734 -0.362358 -1.39696e-19)
(0.390613 -0.353145 1.39929e-19)
(0.397036 -0.344319 -1.39562e-19)
(0.403056 -0.335891 0)
(0.408699 -0.327849 -1.39426e-19)
(0.414001 -0.320187 1.38894e-19)
(0.419003 -0.312893 0)
(0.423723 -0.305942 0)
(0.428176 -0.299316 0)
(0.432389 -0.293 -2.75212e-19)
(0.43638 -0.286975 2.73759e-19)
(0.440157 -0.281222 0)
(0.443736 -0.275724 -1.36243e-19)
(0.447132 -0.270466 0)
(0.450357 -0.265423 2.69939e-19)
(0.453429 -0.26057 -1.33724e-19)
(0.456332 -0.255837 -2.67525e-19)
(0.458561 -0.251092 2.8275e-19)
(-0.00882824 0.0629057 1.79647e-19)
(-0.00907594 0.088324 -2.51384e-19)
(0.00481168 0.0478252 -4.2963e-19)
(0.0281697 -0.02799 -2.33902e-19)
(0.057677 -0.116211 -5.99152e-20)
(0.0905 -0.202024 -1.22497e-19)
(0.124272 -0.277124 -5.58551e-19)
(0.157134 -0.337899 -1.88597e-19)
(0.187879 -0.383777 -3.19417e-19)
(0.215902 -0.415963 -3.25015e-19)
(0.241007 -0.436511 -4.59837e-19)
(0.263266 -0.447724 -2.65052e-19)
(0.282887 -0.451777 1.03628e-21)
(0.300151 -0.450562 -2.69838e-19)
(0.315374 -0.445633 -2.72803e-19)
(0.328861 -0.438214 -4.10538e-19)
(0.340877 -0.429201 2.74225e-19)
(0.351657 -0.419262 -1.38017e-19)
(0.361401 -0.408876 0)
(0.370273 -0.398375 2.77336e-19)
(0.378398 -0.387976 0)
(0.385877 -0.377813 5.57075e-19)
(0.392816 -0.367989 0)
(0.399278 -0.358552 -1.39404e-19)
(0.405303 -0.349513 1.39825e-19)
(0.410948 -0.340884 -2.77743e-19)
(0.416261 -0.332663 0)
(0.42126 -0.324832 -2.7723e-19)
(0.425969 -0.317374 2.76078e-19)
(0.430424 -0.310271 0)
(0.434643 -0.303501 0)
(0.438636 -0.297044 0)
(0.442416 -0.290886 -2.72371e-19)
(0.446003 -0.285006 0)
(0.44941 -0.279384 -2.71089e-19)
(0.452645 -0.274004 5.3946e-19)
(0.455717 -0.268845 -5.37147e-19)
(0.458647 -0.263877 2.66323e-19)
(0.46141 -0.259024 5.32298e-19)
(0.46346 -0.254158 -2.81692e-19)
(-0.00986036 0.0621704 -2.30987e-19)
(-0.00975512 0.0856905 9.27607e-22)
(0.00624183 0.0430108 2.28666e-19)
(0.0324672 -0.0349757 4.66827e-19)
(0.0649976 -0.12507 -5.96681e-20)
(0.100569 -0.212303 -2.42647e-19)
(0.136563 -0.288308 2.47607e-19)
(0.17104 -0.349481 3.77401e-19)
(0.202833 -0.395335 1.28004e-19)
(0.231405 -0.427201 3.22462e-19)
(0.256641 -0.447241 2.62178e-19)
(0.27871 -0.457827 3.96568e-19)
(0.297931 -0.461213 8.01219e-19)
(0.314668 -0.459359 4.04183e-19)
(0.329272 -0.453834 0)
(0.342091 -0.445862 1.36782e-19)
(0.353443 -0.436355 1.35886e-19)
(0.363586 -0.42599 1.36976e-19)
(0.37271 -0.415233 2.76168e-19)
(0.380984 -0.404398 -1.39309e-19)
(0.388566 -0.393707 0)
(0.395552 -0.383295 -1.05972e-21)
(0.402012 -0.37324 -2.7703e-19)
(0.40803 -0.363593 2.76953e-19)
(0.413667 -0.354368 5.54541e-19)
(0.418952 -0.345565 5.53569e-19)
(0.423918 -0.337182 -2.94694e-22)
(0.428602 -0.329202 2.7536e-19)
(0.433032 -0.3216 2.74696e-19)
(0.437227 -0.314359 -2.73946e-19)
(0.441199 -0.307459 2.73118e-19)
(0.444967 -0.300881 2.7222e-19)
(0.448545 -0.294602 5.43628e-19)
(0.451944 -0.288604 -8.03211e-22)
(0.455175 -0.282871 8.08606e-19)
(0.458249 -0.277381 -3.34224e-22)
(0.46117 -0.272115 -2.66865e-19)
(0.463961 -0.267035 -2.66811e-19)
(0.466583 -0.262069 2.6442e-19)
(0.46845 -0.257088 2.80245e-19)
(-0.0108438 0.0612818 2.0363e-19)
(-0.0102785 0.082698 2.77964e-19)
(0.00793717 0.0378121 1.69938e-19)
(0.0371479 -0.0422769 -1.74751e-19)
(0.0727758 -0.134142 -2.96186e-19)
(0.111112 -0.222665 2.42499e-19)
(0.149334 -0.299411 0)
(0.185434 -0.360829 2.49707e-19)
(0.218235 -0.406547 0)
(0.247281 -0.437996 -5.14864e-19)
(0.272593 -0.457435 1.30536e-19)
(0.294447 -0.46735 -6.58463e-19)
(0.313222 -0.47006 -2.66552e-19)
(0.329364 -0.467552 1.33281e-19)
(0.343318 -0.461427 3.94211e-22)
(0.355472 -0.452927 -1.35718e-19)
(0.366142 -0.442961 -2.737e-19)
(0.375606 -0.432189 -5.48524e-19)
(0.384105 -0.421084 0)
(0.391801 -0.409953 -2.46423e-22)
(0.398823 -0.399 -2.75889e-19)
(0.405289 -0.388362 -2.76952e-19)
(0.411286 -0.378108 2.77029e-19)
(0.416876 -0.368275 -2.77746e-19)
(0.422105 -0.358885 2.75652e-19)
(0.427018 -0.349936 -5.5199e-19)
(0.43165 -0.341411 -3.02917e-22)
(0.436025 -0.333294 -5.49933e-19)
(0.440166 -0.325568 -2.74695e-19)
(0.444095 -0.318211 3.15314e-22)
(0.447828 -0.311198 -7.91409e-22)
(0.451375 -0.304507 -2.7222e-19)
(0.454748 -0.298123 -2.71257e-19)
(0.457957 -0.292023 -1.13804e-21)
(0.461016 -0.286189 -2.69157e-19)
(0.463931 -0.280597 -1.1526e-21)
(0.466703 -0.275231 -2.66173e-19)
(0.469355 -0.270049 7.94196e-19)
(0.471838 -0.264975 -2.6442e-19)
(0.473522 -0.259885 -2.80418e-19)
(-0.0117747 0.0602309 -2.03595e-19)
(-0.0106228 0.0793869 5.5303e-20)
(0.00993805 0.032257 -1.70146e-19)
(0.0422079 -0.0498971 -5.78215e-20)
(0.0809899 -0.143422 2.36899e-19)
(0.122146 -0.233069 -6.03197e-20)
(0.162599 -0.310397 6.12265e-20)
(0.200262 -0.37193 -3.74502e-19)
(0.234024 -0.417385 1.26248e-19)
(0.263521 -0.448306 2.56908e-19)
(0.288851 -0.467082 0)
(0.310402 -0.476287 5.24849e-19)
(0.328689 -0.478294 0)
(0.344231 -0.475128 -5.34407e-19)
(0.357496 -0.468418 -2.68596e-19)
(0.368929 -0.459408 0)
(0.378913 -0.449009 0)
(0.387718 -0.437861 5.46388e-19)
(0.395568 -0.426436 2.74342e-19)
(0.402659 -0.415042 -5.49331e-19)
(0.409135 -0.403862 2.74814e-19)
(0.415094 -0.393017 0)
(0.420613 -0.382587 -2.75666e-19)
(0.425763 -0.372605 5.49557e-19)
(0.430596 -0.363075 -2.74856e-19)
(0.435144 -0.353991 -2.74992e-19)
(0.439435 -0.345345 2.74045e-19)
(0.443495 -0.337119 0)
(0.44735 -0.329288 5.45738e-19)
(0.451018 -0.321827 -2.72044e-19)
(0.45451 -0.314715 -2.71668e-19)
(0.457835 -0.307931 -4.57712e-22)
(0.461004 -0.301455 1.07787e-18)
(0.464028 -0.295266 -8.05689e-19)
(0.466917 -0.28934 0)
(0.469674 -0.283659 -2.6688e-19)
(0.4723 -0.278202 -5.30685e-19)
(0.474816 -0.272925 2.62872e-19)
(0.477163 -0.267748 2.62048e-19)
(0.478662 -0.262554 0)
(-0.0126337 0.0590226 -4.03753e-19)
(-0.0107741 0.075755 -5.50639e-20)
(0.012234 0.0263368 4.49641e-19)
(0.0476727 -0.0578173 -4.59935e-19)
(0.089675 -0.152867 0)
(0.133647 -0.243495 0)
(0.176312 -0.321263 -1.2227e-19)
(0.215526 -0.382751 -3.90094e-22)
(0.250196 -0.427803 1.25723e-19)
(0.280053 -0.458113 0)
(0.305342 -0.476175 0)
(0.326567 -0.484621 -1.30986e-19)
(0.344313 -0.485897 4.44156e-22)
(0.359186 -0.482084 1.33819e-19)
(0.371747 -0.474816 2.68594e-19)
(0.382464 -0.465308 0)
(0.391732 -0.454488 2.71362e-19)
(0.399852 -0.44301 -2.72008e-19)
(0.407063 -0.431308 -5.4591e-19)
(0.413559 -0.419667 5.47164e-19)
(0.419478 -0.408281 5.51891e-22)
(0.42492 -0.397271 -2.7398e-19)
(0.429967 -0.386698 2.74568e-19)
(0.434685 -0.376581 -5.48757e-19)
(0.439118 -0.366929 0)
(0.443296 -0.357739 2.7388e-19)
(0.447248 -0.348997 -5.46338e-19)
(0.450998 -0.340678 2.72359e-19)
(0.454567 -0.332757 -2.72472e-19)
(0.457973 -0.325211 -2.71367e-19)
(0.461225 -0.318018 -2.70969e-19)
(0.46433 -0.311157 1.07753e-18)
(0.467298 -0.304604 -8.05342e-19)
(0.470139 -0.298336 -5.35157e-19)
(0.472861 -0.292332 5.32095e-19)
(0.475464 -0.286573 0)
(0.477947 -0.281034 5.28298e-19)
(0.480331 -0.275669 -5.24992e-19)
(0.482544 -0.270394 -2.62048e-19)
(0.483858 -0.265104 0)
(-0.0134224 0.0576621 8.55979e-19)
(-0.0107093 0.0717964 3.82542e-19)
(0.0148696 0.0200774 -4.49637e-19)
(0.0535456 -0.0660038 4.02499e-19)
(0.0988096 -0.162471 -5.88003e-20)
(0.145625 -0.253928 1.19319e-19)
(0.190483 -0.331958 0)
(0.231182 -0.393254 -1.2376e-19)
(0.266695 -0.437804 1.25197e-19)
(0.296863 -0.467408 1.27374e-19)
(0.322045 -0.48467 -1.28484e-19)
(0.34287 -0.492328 -1.3038e-19)
(0.360035 -0.492888 1.31195e-19)
(0.374219 -0.488426 0)
(0.386043 -0.480593 0)
(0.396018 -0.470624 -2.6896e-19)
(0.404561 -0.459429 2.69592e-19)
(0.411995 -0.447641 -2.71343e-19)
(0.418565 -0.435682 2.71562e-19)
(0.42446 -0.423833 2.72777e-19)
(0.429822 -0.41228 -5.45821e-19)
(0.434751 -0.401129 5.46289e-19)
(0.439328 -0.390432 5.03093e-22)
(0.443614 -0.380207 -2.72871e-19)
(0.447648 -0.370461 0)
(0.451458 -0.361187 2.72755e-19)
(0.455072 -0.352366 4.54882e-22)
(0.458512 -0.343973 -2.71232e-19)
(0.461797 -0.335982 0)
(0.464943 -0.328369 5.40428e-19)
(0.467956 -0.321112 -5.37854e-19)
(0.470842 -0.314188 0)
(0.473611 -0.307572 5.34889e-19)
(0.476273 -0.30124 -5.31942e-19)
(0.478831 -0.295171 0)
(0.481283 -0.289345 0)
(0.483627 -0.283736 0)
(0.485885 -0.278291 -5.234e-19)
(0.487969 -0.272923 5.20047e-19)
(0.489101 -0.26754 5.53573e-19)
(-0.0141272 0.0561523 -4.01933e-19)
(-0.0104202 0.0675475 -4.37362e-19)
(0.0178455 0.0134914 -5.58787e-20)
(0.0598485 -0.074458 1.71438e-19)
(0.108414 -0.172199 -2.33366e-19)
(0.158063 -0.26432 2.37906e-19)
(0.20508 -0.342465 -2.42128e-19)
(0.247215 -0.403433 -3.68225e-19)
(0.2835 -0.447348 0)
(0.313901 -0.476157 -1.26848e-19)
(0.338912 -0.492576 1.27953e-19)
(0.359282 -0.499417 0)
(0.375818 -0.49924 2.62214e-19)
(0.38928 -0.494141 -2.63567e-19)
(0.400345 -0.485772 -7.97034e-19)
(0.409564 -0.475369 -7.32863e-22)
(0.417374 -0.463824 5.37697e-19)
(0.424115 -0.451755 -2.69607e-19)
(0.430042 -0.439575 0)
(0.43534 -0.427552 0)
(0.440147 -0.415859 5.42515e-19)
(0.444565 -0.404594 2.72293e-19)
(0.448674 -0.393798 -2.71845e-19)
(0.45253 -0.383489 -2.72236e-19)
(0.456166 -0.373672 5.43516e-19)
(0.45961 -0.364335 -2.71163e-19)
(0.462887 -0.355456 5.42254e-19)
(0.466019 -0.347007 -1.08124e-18)
(0.469022 -0.338964 1.07847e-18)
(0.471907 -0.331304 -1.07534e-18)
(0.474682 -0.324001 1.0719e-18)
(0.477353 -0.31703 -1.06818e-18)
(0.479928 -0.310365 5.31683e-19)
(0.482412 -0.303984 5.30388e-19)
(0.484809 -0.297865 8.07167e-22)
(0.487114 -0.291987 7.97944e-22)
(0.489325 -0.286318 -5.22633e-19)
(0.491464 -0.2808 1.63046e-21)
(0.493425 -0.275344 -5.1759e-19)
(0.494376 -0.269875 0)
(-0.0147401 0.0544944 4.99046e-20)
(-0.0098826 0.0629992 -5.43005e-20)
(0.0211842 0.00659692 1.66866e-19)
(0.0665868 -0.0831393 -2.27508e-19)
(0.118489 -0.182032 1.16035e-19)
(0.170961 -0.27466 0)
(0.220088 -0.352752 0)
(0.26359 -0.413246 4.91061e-19)
(0.300574 -0.456419 6.20969e-19)
(0.331131 -0.484351 -1.25848e-19)
(0.355904 -0.499875 6.375e-19)
(0.375762 -0.505877 -1.28851e-19)
(0.391622 -0.504958 0)
(0.404332 -0.499233 0)
(0.414619 -0.490353 5.30742e-19)
(0.423069 -0.479544 0)
(0.43014 -0.467682 2.66348e-19)
(0.436188 -0.455366 -2.68069e-19)
(0.441472 -0.442996 0)
(0.446174 -0.430829 -5.39466e-19)
(0.45043 -0.419027 -2.71555e-19)
(0.454342 -0.407672 -8.11381e-19)
(0.457987 -0.396802 -2.71212e-19)
(0.461414 -0.386435 2.7063e-19)
(0.464654 -0.37657 5.40107e-19)
(0.467733 -0.36719 0)
(0.470677 -0.35827 5.38357e-19)
(0.473502 -0.349785 1.07587e-18)
(0.476222 -0.341711 8.29845e-22)
(0.478849 -0.334021 -5.34918e-19)
(0.481388 -0.326688 -5.33997e-19)
(0.483846 -0.319685 5.3131e-19)
(0.486228 -0.312989 5.30097e-19)
(0.488537 -0.306576 -1.05514e-18)
(0.490775 -0.300424 1.05066e-18)
(0.49294 -0.294505 -5.24226e-19)
(0.495026 -0.288786 5.20183e-19)
(0.497052 -0.283205 1.0361e-18)
(0.498894 -0.277671 5.14204e-19)
(0.499665 -0.272126 5.47285e-19)
(-0.0152562 0.0526985 -3.96493e-19)
(-0.00908523 0.0581714 3.77533e-19)
(0.024904 -0.000589965 -3.31056e-19)
(0.0737755 -0.0920323 3.38542e-19)
(0.129033 -0.191937 5.77115e-19)
(0.18431 -0.284914 -4.70608e-19)
(0.235492 -0.362794 5.99187e-19)
(0.280281 -0.422674 3.6508e-19)
(0.317879 -0.464993 -8.66587e-19)
(0.348515 -0.491972 2.50053e-19)
(0.372978 -0.506557 1.24773e-19)
(0.39227 -0.511704 2.57573e-19)
(0.407413 -0.510042 2.59038e-19)
(0.41934 -0.503707 -5.22627e-19)
(0.42883 -0.494342 5.26411e-19)
(0.436503 -0.483159 7.95304e-19)
(0.442835 -0.471012 -8.00765e-19)
(0.448189 -0.458481 1.07095e-18)
(0.452831 -0.445954 5.36021e-19)
(0.456941 -0.433675 8.08913e-19)
(0.460652 -0.421789 2.68725e-19)
(0.464064 -0.410369 5.4072e-19)
(0.467248 -0.399452 -5.38542e-19)
(0.470248 -0.38905 0)
(0.473095 -0.379157 -1.61732e-18)
(0.475813 -0.369753 1.07639e-18)
(0.478425 -0.360813 -5.37518e-19)
(0.480944 -0.352313 -5.36326e-19)
(0.483382 -0.344226 -7.82163e-22)
(0.485751 -0.336523 0)
(0.488057 -0.329176 0)
(0.490303 -0.32216 5.28098e-19)
(0.492492 -0.315451 -5.27662e-19)
(0.494628 -0.309024 5.24755e-19)
(0.496713 -0.302853 -5.23242e-19)
(0.498743 -0.296907 -5.20869e-19)
(0.500709 -0.291154 0)
(0.502628 -0.285522 -5.15176e-19)
(0.504356 -0.27992 -5.13516e-19)
(0.504949 -0.274306 -1.64088e-18)
(-0.015666 0.0507666 3.96538e-19)
(-0.00801333 0.053081 -3.77708e-19)
(0.0290168 -0.00804417 4.41758e-19)
(0.0814241 -0.101111 -7.88916e-19)
(0.140049 -0.201887 -5.76596e-19)
(0.198098 -0.295049 4.70604e-19)
(0.25127 -0.372562 -9.55884e-19)
(0.297263 -0.431692 -4.86865e-19)
(0.335385 -0.47305 6.17809e-19)
(0.366014 -0.499006 -1.125e-18)
(0.390095 -0.512613 -7.61159e-19)
(0.408768 -0.516893 -2.55472e-19)
(0.423157 -0.514497 -7.77223e-19)
(0.434274 -0.50757 7.82965e-19)
(0.44295 -0.497748 -5.2641e-19)
(0.449838 -0.486223 -5.29606e-19)
(0.455431 -0.473824 0)
(0.460097 -0.461114 -5.34372e-19)
(0.4641 -0.448461 -8.03759e-19)
(0.467623 -0.436097 2.6777e-19)
(0.470795 -0.424152 -5.38035e-19)
(0.473712 -0.412694 0)
(0.476439 -0.401754 5.38543e-19)
(0.479017 -0.391338 5.37614e-19)
(0.481475 -0.381437 -5.33891e-19)
(0.483834 -0.372029 0)
(0.486114 -0.363091 0)
(0.488327 -0.354595 0)
(0.490485 -0.346511 -2.38559e-21)
(0.492598 -0.338812 0)
(0.494671 -0.331469 -1.05676e-18)
(0.496704 -0.32446 -1.58793e-21)
(0.498702 -0.317757 -1.04881e-18)
(0.500668 -0.311332 1.04534e-18)
(0.502603 -0.305158 -5.20036e-19)
(0.504502 -0.299205 5.19265e-19)
(0.506353 -0.293434 0)
(0.50817 -0.287768 1.0276e-18)
(0.50979 -0.282106 -5.10044e-19)
(0.510205 -0.276429 0)
(-0.015962 0.0487051 4.92227e-20)
(-0.00665072 0.0477407 0)
(0.033537 -0.0157443 -5.47548e-19)
(0.0895401 -0.110346 6.74339e-19)
(0.151537 -0.21185 3.42976e-19)
(0.212312 -0.305035 -4.66438e-19)
(0.267398 -0.382024 4.76893e-19)
(0.314504 -0.440276 -4.82667e-19)
(0.353056 -0.480575 0)
(0.383591 -0.505445 4.99051e-19)
(0.407217 -0.518039 -5.03243e-19)
(0.425216 -0.521442 2.12846e-21)
(0.438817 -0.518326 0)
(0.449103 -0.510833 5.18311e-19)
(0.456953 -0.500583 -2.6012e-19)
(0.463051 -0.488745 5.25943e-19)
(0.467906 -0.47613 2.63711e-19)
(0.471888 -0.463273 -5.2993e-19)
(0.47526 -0.450526 0)
(0.478203 -0.438103 7.99924e-19)
(0.480843 -0.426126 2.66446e-19)
(0.48327 -0.414655 0)
(0.485546 -0.403714 0)
(0.487706 -0.393305 0)
(0.489778 -0.383415 5.35494e-19)
(0.49178 -0.374024 0)
(0.49373 -0.365105 -5.32891e-19)
(0.495639 -0.35663 1.06248e-18)
(0.497518 -0.348567 -1.06041e-18)
(0.499374 -0.34089 0)
(0.501212 -0.333572 5.27589e-19)
(0.503032 -0.326588 -5.23205e-19)
(0.504839 -0.319908 5.23609e-19)
(0.506636 -0.313505 0)
(0.508423 -0.307349 0)
(0.510193 -0.301409 5.15813e-19)
(0.511933 -0.295639 -5.1267e-19)
(0.513655 -0.289951 1.02149e-18)
(0.515172 -0.284241 -1.01495e-18)
(0.515409 -0.278512 0)
(-0.0161384 0.0465227 3.42076e-19)
(-0.00498476 0.0421676 1.06707e-19)
(0.038478 -0.023667 4.3777e-19)
(0.0981314 -0.119707 4.45797e-19)
(0.163493 -0.221794 -4.57462e-19)
(0.226942 -0.314842 4.66435e-19)
(0.283853 -0.391154 4.72706e-19)
(0.331972 -0.4484 4.82664e-19)
(0.370856 -0.48755 0)
(0.401212 -0.51128 4.94842e-19)
(0.424311 -0.522834 5.03242e-19)
(0.441582 -0.525356 5.08911e-19)
(0.454361 -0.521536 0)
(0.463798 -0.513502 -2.16061e-21)
(0.470814 -0.502856 5.22065e-19)
(0.47612 -0.490741 -2.62823e-19)
(0.48024 -0.477942 -2.65235e-19)
(0.483546 -0.464971 7.94635e-19)
(0.486295 -0.452158 5.72663e-22)
(0.488666 -0.439705 -2.67788e-19)
(0.490781 -0.427722 -5.33505e-19)
(0.492726 -0.416261 0)
(0.494555 -0.405339 0)
(0.496303 -0.394955 0)
(0.497992 -0.385098 0)
(0.499639 -0.375741 0)
(0.501261 -0.366858 0)
(0.502867 -0.35842 5.29218e-19)
(0.504465 -0.350396 -5.27019e-19)
(0.506063 -0.34276 0)
(0.507663 -0.335485 0)
(0.509269 -0.328544 5.23209e-19)
(0.510884 -0.321907 0)
(0.512511 -0.315546 5.18001e-19)
(0.514149 -0.309431 -5.15038e-19)
(0.515792 -0.303525 0)
(0.517424 -0.297777 1.02146e-18)
(0.519055 -0.292086 -1.01507e-18)
(0.520472 -0.286342 0)
(0.520528 -0.280578 0)
(-0.0161887 0.044226 -3.91032e-19)
(-0.00300334 0.0363798 -1.06163e-19)
(0.0438507 -0.0317859 1.08704e-19)
(0.107203 -0.129165 -4.45796e-19)
(0.175915 -0.231688 0)
(0.241973 -0.324439 0)
(0.300614 -0.399926 -3.54591e-19)
(0.349636 -0.456044 -1.19677e-19)
(0.388748 -0.493961 -2.43938e-19)
(0.418838 -0.516501 -2.48437e-19)
(0.441344 -0.526998 -2.50513e-19)
(0.457836 -0.528642 2.52377e-19)
(0.469758 -0.524133 2.53865e-19)
(0.478329 -0.515589 -2.59047e-19)
(0.484509 -0.504581 0)
(0.489025 -0.492223 0)
(0.492415 -0.479273 -5.25624e-19)
(0.495052 -0.466219 0)
(0.49719 -0.45337 0)
(0.498998 -0.440913 5.27573e-19)
(0.500597 -0.428948 9.86414e-22)
(0.502066 -0.417517 -6.76016e-22)
(0.503456 -0.406635 -5.30917e-19)
(0.504796 -0.396297 5.29778e-19)
(0.506105 -0.386488 5.2846e-19)
(0.507401 -0.377183 -5.27619e-19)
(0.508695 -0.368352 0)
(0.509997 -0.359966 5.26795e-19)
(0.511312 -0.351999 6.89044e-22)
(0.512649 -0.344422 -5.22948e-19)
(0.51401 -0.337208 0)
(0.515398 -0.330328 0)
(0.516818 -0.323754 5.17694e-19)
(0.518271 -0.317458 -5.14843e-19)
(0.519757 -0.311407 -5.13107e-19)
(0.521271 -0.30556 5.10073e-19)
(0.522795 -0.299857 0)
(0.524336 -0.294184 0)
(0.525651 -0.288429 0)
(0.52552 -0.282652 -5.36298e-19)
(-0.0161066 0.0418211 4.84397e-19)
(-0.000693948 0.0303944 -2.11387e-19)
(0.0496657 -0.0400745 1.08201e-19)
(0.11676 -0.138687 0)
(0.188795 -0.241498 5.64483e-19)
(0.257388 -0.333793 3.31097e-22)
(0.317656 -0.408312 4.68903e-19)
(0.367468 -0.463189 -3.58319e-19)
(0.406698 -0.499793 4.84841e-19)
(0.436432 -0.5211 -2.4535e-19)
(0.458279 -0.530529 0)
(0.473947 -0.531305 2.52252e-19)
(0.484983 -0.52613 -7.6348e-19)
(0.492674 -0.517105 0)
(0.498015 -0.50577 7.74206e-19)
(0.501747 -0.493206 -5.17943e-19)
(0.504415 -0.480137 -5.22274e-19)
(0.506394 -0.46703 2.61865e-19)
(0.50793 -0.454174 0)
(0.509187 -0.441738 -5.28203e-19)
(0.510279 -0.429812 -5.28261e-19)
(0.511281 -0.418432 -1.62414e-21)
(0.512238 -0.407608 5.26997e-19)
(0.513175 -0.397333 5.28262e-19)
(0.514108 -0.387589 -1.05535e-18)
(0.515054 -0.37835 5.27623e-19)
(0.516022 -0.369586 0)
(0.517018 -0.36127 -5.22806e-19)
(0.518049 -0.353375 5.21285e-19)
(0.519121 -0.345873 5.19586e-19)
(0.520238 -0.338735 -5.17728e-19)
(0.521403 -0.331935 5.15726e-19)
(0.52262 -0.325446 0)
(0.523892 -0.319238 5.12896e-19)
(0.525221 -0.313276 1.02004e-18)
(0.5266 -0.307513 -1.01501e-18)
(0.528012 -0.301884 1.01099e-18)
(0.529459 -0.29626 1.04853e-21)
(0.530666 -0.290519 -5.00715e-19)
(0.530334 -0.284756 1.07121e-18)
(-0.0158867 0.0393154 -2.90773e-19)
(0.00195444 0.0242299 -6.30176e-19)
(0.0559325 -0.048506 4.29675e-19)
(0.126803 -0.148242 -3.29594e-19)
(0.202127 -0.251192 -1.14776e-19)
(0.273169 -0.342874 1.14624e-19)
(0.334953 -0.416286 -2.34374e-19)
(0.385436 -0.469814 -2.37252e-19)
(0.424675 -0.505037 2.41856e-19)
(0.45396 -0.525075 -4.89592e-19)
(0.475083 -0.53343 -9.78085e-22)
(0.489886 -0.533353 2.50257e-19)
(0.500013 -0.52754 0)
(0.506812 -0.518066 -2.55767e-19)
(0.511314 -0.50644 -2.58706e-19)
(0.51427 -0.493704 5.18644e-19)
(0.516227 -0.48055 0)
(0.517558 -0.467419 0)
(0.518504 -0.454581 5.24195e-19)
(0.519221 -0.44219 -5.24262e-19)
(0.519817 -0.430324 0)
(0.52036 -0.419015 5.26266e-19)
(0.520891 -0.408266 -5.26166e-19)
(0.521431 -0.398069 -1.05101e-18)
(0.521993 -0.388405 -7.48062e-22)
(0.522591 -0.379244 5.25222e-19)
(0.523232 -0.370562 -1.04429e-18)
(0.523922 -0.36233 5.22812e-19)
(0.524665 -0.35452 -5.2129e-19)
(0.525469 -0.347106 -9.39955e-22)
(0.526335 -0.340061 1.55129e-21)
(0.527268 -0.33336 -5.15731e-19)
(0.528273 -0.326976 -5.11046e-19)
(0.529354 -0.320879 -5.08763e-19)
(0.530515 -0.315031 -2.59449e-21)
(0.531749 -0.309383 0)
(0.533036 -0.30386 -5.01277e-19)
(0.534378 -0.298316 1.00038e-18)
(0.535464 -0.292622 -1.49252e-18)
(0.534914 -0.286907 9.6711e-22)
(-0.0155239 0.0367162 -9.6149e-20)
(0.00495107 0.0179074 8.37582e-19)
(0.0626587 -0.0570512 -4.29754e-19)
(0.137333 -0.157796 3.29875e-19)
(0.215903 -0.260735 -8.96623e-19)
(0.289296 -0.351648 1.14102e-19)
(0.352474 -0.423819 -4.64362e-19)
(0.403506 -0.475902 0)
(0.442646 -0.509683 0)
(0.471391 -0.528425 -4.86479e-19)
(0.491725 -0.535706 2.47361e-19)
(0.505625 -0.534795 -1.01636e-21)
(0.514823 -0.528375 2.51702e-19)
(0.520723 -0.518488 0)
(0.524388 -0.506606 -7.67678e-19)
(0.526579 -0.493732 2.57317e-19)
(0.527837 -0.480525 -5.16762e-19)
(0.528533 -0.467399 0)
(0.528903 -0.454604 0)
(0.529093 -0.442279 1.61915e-21)
(0.529203 -0.430494 -5.22723e-19)
(0.529297 -0.419271 5.2236e-19)
(0.529409 -0.408614 -5.23889e-19)
(0.529558 -0.398509 5.22765e-19)
(0.529753 -0.388937 1.54295e-21)
(0.530006 -0.379869 1.55238e-21)
(0.53032 -0.371279 5.21718e-19)
(0.530702 -0.363142 -5.17922e-19)
(0.531154 -0.35543 0)
(0.531682 -0.348117 -5.1615e-19)
(0.532289 -0.341179 5.13692e-19)
(0.53298 -0.334593 0)
(0.53376 -0.328332 5.11052e-19)
(0.534635 -0.322367 -5.06684e-19)
(0.535611 -0.316658 5.03275e-19)
(0.536682 -0.311154 0)
(0.537827 -0.305772 1.50166e-18)
(0.539044 -0.300346 -9.94118e-19)
(0.539989 -0.294737 0)
(0.539195 -0.289116 5.32924e-19)
(-0.0150131 0.0340317 7.63663e-19)
(0.00830403 0.0114491 -4.17807e-19)
(0.0698496 -0.0656802 -1.06777e-19)
(0.148347 -0.167314 1.09062e-19)
(0.23011 -0.270092 4.47131e-19)
(0.30575 -0.360085 0)
(0.370194 -0.430888 4.64362e-19)
(0.421645 -0.481434 7.04258e-19)
(0.460576 -0.513724 2.38812e-19)
(0.488696 -0.531151 2.43265e-19)
(0.508178 -0.537363 2.45338e-19)
(0.521138 -0.535643 -7.47408e-19)
(0.529392 -0.52865 2.50642e-19)
(0.534391 -0.518387 1.01078e-18)
(0.537223 -0.506284 2.55789e-19)
(0.538659 -0.493306 2.56225e-19)
(0.539235 -0.480077 5.16766e-19)
(0.539311 -0.466983 0)
(0.539118 -0.454254 0)
(0.538794 -0.442017 1.04207e-18)
(0.53843 -0.430329 -2.08128e-18)
(0.538084 -0.419211 -1.59837e-21)
(0.537787 -0.408659 0)
(0.53755 -0.398659 0)
(0.537383 -0.389189 5.21344e-19)
(0.537293 -0.380224 0)
(0.537282 -0.371738 0)
(0.537353 -0.363705 -5.13011e-19)
(0.537509 -0.3561 -1.02777e-18)
(0.537755 -0.348898 0)
(0.538094 -0.342078 -1.0204e-18)
(0.538529 -0.335618 -2.03558e-18)
(0.539068 -0.329495 1.01393e-18)
(0.539718 -0.32368 -1.0072e-18)
(0.540487 -0.318134 1.00537e-18)
(0.54137 -0.312803 -9.9942e-19)
(0.542344 -0.307598 -9.91948e-19)
(0.54341 -0.30233 0)
(0.544183 -0.296854 0)
(0.543115 -0.291384 0)
(-0.0143495 0.0312706 -7.63667e-19)
(0.0120206 0.00487719 0)
(0.0775094 -0.0743631 0)
(0.159843 -0.176763 0)
(0.244736 -0.279229 0)
(0.32251 -0.368154 0)
(0.388082 -0.43747 2.31063e-19)
(0.43982 -0.486397 -1.17445e-18)
(0.47843 -0.517153 -7.12248e-19)
(0.505844 -0.533256 -2.4118e-19)
(0.524416 -0.538412 0)
(0.536401 -0.53591 9.8827e-19)
(0.543699 -0.528379 2.5045e-19)
(0.547799 -0.517778 -2.26904e-18)
(0.549807 -0.505491 0)
(0.5505 -0.492443 -1.01975e-18)
(0.550409 -0.479221 0)