/*--------------------------------*- C++ -*----------------------------------*\
  =========                 |
  \\      /  F ield         | OpenFOAM: The Open Source CFD Toolbox
   \\    /   O peration     | Website:  https://openfoam.org
    \\  /    A nd           | Version:  7
     \\/     M anipulation  |
\*---------------------------------------------------------------------------*/
FoamFile
{
    version     2.0;
    format      ascii;
    class       volVectorField;
    location    "95.4";
    object      U;
}
// * * * * * * * * * * * * * * * * * * * * * * * * * * * * * * * * * * * * * //

dimensions      [0 1 -1 0 0 0 0];

internalField   nonuniform List<vector> 
2000
(
(-7.56315e-05 -0.00471425 -1.73113e-22)
(5.90656e-05 -0.0111725 0)
(0.00049205 -0.0149487 0)
(0.00117288 -0.0164785 -8.88467e-22)
(0.00205835 -0.0160405 2.89221e-22)
(0.00312755 -0.0138193 1.19409e-23)
(0.00437926 -0.00994282 -4.97945e-22)
(0.00582009 -0.00451725 0)
(0.00745817 0.00234956 0)
(0.00919913 0.0105338 0)
(0.000379414 -0.00458633 0)
(0.00133065 -0.0111922 -6.77496e-22)
(0.00248592 -0.0151547 6.24786e-22)
(0.00367926 -0.0168893 1.18685e-21)
(0.00487846 -0.0166812 0)
(0.0060727 -0.0147303 1.08791e-21)
(0.00727334 -0.0111744 -1.01169e-21)
(0.00850428 -0.00611399 0)
(0.0098046 0.000369305 1.86563e-21)
(0.0110886 0.00819062 -3.59341e-21)
(0.000872065 -0.00453532 0)
(0.00277037 -0.0113034 5.41706e-21)
(0.0048009 -0.0154108 0)
(0.00665195 -0.0172961 4.84806e-21)
(0.00830306 -0.017261 0)
(0.00975488 -0.015528 -4.37925e-21)
(0.0110319 -0.0122505 0)
(0.0121745 -0.00752965 3.9836e-21)
(0.0132528 -0.00142501 -3.73089e-21)
(0.0141871 0.00600902 -3.66729e-21)
(0.00143041 -0.00457917 -1.40805e-21)
(0.00441368 -0.0115256 -2.7044e-21)
(0.00745626 -0.0157262 -1.26778e-21)
(0.010089 -0.0176957 -2.37935e-21)
(0.0123085 -0.0177631 -2.28028e-21)
(0.0141321 -0.0161794 2.15299e-21)
(0.0156011 -0.0131191 2.07008e-21)
(0.0167731 -0.00868947 -2.22829e-23)
(0.0177478 -0.00293302 3.76833e-21)
(0.0184515 0.00411593 3.66563e-21)
(0.00208553 -0.00472731 -1.38358e-21)
(0.00629491 -0.0118632 -2.76489e-21)
(0.0104611 -0.0160973 -5.25634e-21)
(0.0139666 -0.0180785 2.41673e-21)
(0.0168355 -0.0181731 0)
(0.0191116 -0.0166658 0)
(0.0208594 -0.0137552 -4.25795e-21)
(0.0221572 -0.0095581 -4.04373e-21)
(0.0231322 -0.00410342 3.82161e-21)
(0.0237181 0.00258451 1.10427e-20)
(0.00286848 -0.00497652 1.40994e-21)
(0.00844139 -0.0123009 1.43987e-21)
(0.013808 -0.016505 -7.80917e-21)
(0.0182333 -0.018427 1.23999e-20)
(0.0217851 -0.0184799 -2.3109e-21)
(0.0245462 -0.0169851 0)
(0.0266146 -0.0141661 0)
(0.0280951 -0.0101502 2.01472e-20)
(0.0291403 -0.00495226 -1.9079e-20)
(0.029692 0.00140818 3.62498e-21)
(0.00380599 -0.00530942 1.10049e-20)
(0.0108672 -0.0128034 0)
(0.0174674 -0.0169144 1.04308e-20)
(0.0228074 -0.0187157 -9.89844e-21)
(0.027019 -0.0186747 0)
(0.0302393 -0.0171504 4.50657e-21)
(0.0326123 -0.0143907 -1.26442e-20)
(0.034278 -0.0105316 -1.61032e-20)
(0.0354146 -0.00557012 7.56028e-21)
(0.0359681 0.000486985 7.34815e-21)
(0.00491618 -0.00569524 -2.20307e-20)
(0.0135669 -0.0133178 -2.81259e-21)
(0.0213834 -0.0172775 -5.30808e-21)
(0.0275762 -0.0189136 -1.24696e-20)
(0.0323647 -0.0187511 -4.7712e-21)
(0.0359572 -0.0171863 -4.5111e-21)
(0.0385561 -0.0144904 2.7449e-23)
(0.0403484 -0.0108081 0)
(0.0415442 -0.00611239 0)
(0.0420867 -0.000369051 3.97756e-23)
(0.00620466 -0.00609213 1.1026e-20)
(0.0165105 -0.0137773 -1.12425e-20)
(0.0254717 -0.0175383 7.8843e-21)
(0.0323993 -0.0189873 1.75604e-20)
(0.0376263 -0.0187062 -4.68644e-21)
(0.041448 -0.0171239 4.49781e-21)
(0.0441363 -0.0145341 4.24853e-21)
(0.0459357 -0.011095 0)
(0.0471051 -0.00675772 0)
(0.0475967 -0.00141358 -1.70667e-22)
(0.00766201 -0.00645146 -1.39301e-21)
(0.0196402 -0.014109 1.41089e-20)
(0.0296199 -0.0176399 -2.64154e-21)
(0.0371154 -0.0189082 0)
(0.0425992 -0.0185439 0)
(0.0464692 -0.0169983 8.92915e-21)
(0.0490721 -0.0145821 0)
(0.0507112 -0.0114747 -7.85857e-21)
(0.0517054 -0.00763714 7.01963e-24)
(0.0520674 -0.00290655 7.04487e-21)
(0.0126091 0.0313956 1.3657e-22)
(0.0224184 0.0803236 -1.38091e-22)
(0.0308828 0.134203 -1.5426e-22)
(0.0331392 0.184929 -1.73493e-22)
(0.0299616 0.234348 -2.1138e-22)
(0.026608 0.286337 -8.02947e-24)
(0.0163449 0.347092 1.1031e-22)
(0.0137462 0.434284 3.98396e-22)
(-0.00396665 0.568955 0)
(0.00390384 0.729039 -2.90643e-22)
(0.0129405 0.0283381 5.30181e-22)
(0.0202914 0.0761285 -5.92727e-22)
(0.0286445 0.131458 1.05667e-21)
(0.0312976 0.183973 1.73775e-22)
(0.0285339 0.234634 3.75007e-22)
(0.0254762 0.287438 6.45246e-22)
(0.0156781 0.348702 -2.39588e-22)
(0.0131501 0.436203 -2.67625e-22)
(-0.00380369 0.570173 5.13207e-22)
(0.00351627 0.728623 2.89957e-22)
(0.0146038 0.0252917 0)
(0.0188985 0.0713254 -5.80496e-22)
(0.026764 0.127702 -3.05771e-22)
(0.0297035 0.182048 0)
(0.0273021 0.234072 -1.15614e-21)
(0.0245218 0.287773 3.61845e-22)
(0.0151355 0.349551 4.0323e-22)
(0.0126351 0.437279 1.44327e-21)
(-0.00361582 0.570909 -5.11544e-22)
(0.00317454 0.728036 1.04707e-21)
(0.0176277 0.0224198 0)
(0.0183757 0.0661321 5.85354e-22)
(0.0252692 0.122997 0)
(0.0283492 0.179147 1.35716e-21)
(0.0262528 0.232653 -1.36422e-21)
(0.0237292 0.287343 -8.21432e-22)
(0.014702 0.349632 -4.64086e-23)
(0.0122109 0.437521 -1.41789e-21)
(-0.00340622 0.570993 -2.30209e-22)
(0.00285723 0.727113 -1.28666e-21)
(0.0219021 0.0198443 3.28069e-23)
(0.018852 0.0607945 -1.67723e-21)
(0.0242031 0.117454 4.36878e-23)
(0.0272296 0.175283 -1.23372e-21)
(0.0253716 0.230376 0)
(0.0230821 0.286162 -7.86689e-22)
(0.0143635 0.349001 -6.60016e-23)
(0.0118645 0.437093 1.77705e-21)
(-0.00319297 0.570709 2.33063e-22)
(0.00256542 0.726135 -2.33921e-22)
(0.027145 0.0176204 -4.53513e-21)
(0.020394 0.0555555 2.87465e-21)
(0.023623 0.111233 1.2148e-21)
(0.0263437 0.170494 -1.21421e-21)
(0.024646 0.227246 -6.51097e-22)
(0.0225691 0.284227 0)
(0.0141191 0.347616 -1.57463e-21)
(0.0116042 0.435801 7.94231e-22)
(-0.00297193 0.569549 8.56362e-22)
(0.00227703 0.724714 8.96644e-22)
(0.0329031 0.0157335 -5.4539e-22)
(0.0229343 0.0506279 0)
(0.0235843 0.104548 0)
(0.0256962 0.164846 0)
(0.0240614 0.223288 -6.93003e-22)
(0.0221715 0.28163 1.34205e-21)
(0.0139466 0.345711 1.53632e-21)
(0.0113897 0.434198 -2.40096e-21)
(-0.00277318 0.568494 4.21582e-22)
(0.00201662 0.723523 -1.30558e-21)
(0.0385838 0.0140833 3.41562e-21)
(0.0262083 0.0460728 2.35652e-21)
(0.0240986 0.0975972 -2.33493e-21)
(0.0252907 0.15846 2.45169e-21)
(0.0236136 0.218477 -3.04177e-21)
(0.0218894 0.278161 0)
(0.0138681 0.342801 -6.93056e-22)
(0.0112748 0.43123 3.38841e-23)
(-0.00255703 0.565868 -7.58763e-22)
(0.0017387 0.721556 -8.10334e-22)
(0.0434761 0.0123141 -2.89963e-21)
(0.0297303 0.0415136 0)
(0.0250967 0.0901787 -2.62804e-21)
(0.0251089 0.151302 4.7094e-21)
(0.0232643 0.21316 -1.74939e-21)
(0.0216812 0.274662 -3.17753e-22)
(0.013813 0.340331 6.91545e-22)
(0.0111244 0.429372 1.03206e-23)
(-0.00241875 0.564819 1.09851e-21)
(0.00150557 0.720434 1.17529e-21)
(0.0467246 0.0103216 -2.36272e-21)
(0.0328589 0.0369905 2.31153e-21)
(0.0264313 0.0821712 2.9404e-22)
(0.0252438 0.142298 0)
(0.023048 0.205148 0)
(0.021599 0.268154 3.14181e-22)
(0.0139408 0.334456 1.31939e-21)
(0.011224 0.42333 -1.28163e-21)
(-0.00217537 0.559739 -3.45351e-22)
(0.00121899 0.717682 3.33797e-22)
(0.0484032 0.011109 0)
(0.0371154 0.0355308 0)
(0.02879 0.076634 0)
(0.0261325 0.136696 0)
(0.0233188 0.202286 0)
(0.0211049 0.268092 0)
(0.0135079 0.336222 0)
(0.0103541 0.42641 0)
(-0.00229453 0.561883 0)
(0.000740761 0.716456 0)
(0.0500299 0.0240452 0)
(0.0406327 0.051997 0)
(0.0306303 0.0889115 0)
(0.0257737 0.142972 0)
(0.0226094 0.206471 0)
(0.0200972 0.272675 0)
(0.0129916 0.342393 0)
(0.0094266 0.433783 0)
(-0.00204545 0.567333 0)
(0.000364526 0.715575 0)
(0.0473361 0.0270877 0)
(0.0415939 0.0594154 0)
(0.0324941 0.0970265 0)
(0.026081 0.148904 0)
(0.0220086 0.211365 0)
(0.0190343 0.277659 0)
(0.0123617 0.348154 0)
(0.00855059 0.439776 0)
(-0.00188938 0.571425 0)
(6.01458e-05 0.714505 0)
(0.0428407 0.0287503 0)
(0.0399239 0.0649527 0)
(0.0329009 0.103726 0)
(0.0263525 0.154239 0)
(0.021648 0.21608 0)
(0.0181952 0.283134 0)
(0.0118448 0.355204 0)
(0.0079006 0.447679 0)
(-0.00153874 0.577152 0)
(-8.65872e-05 0.713959 0)
(0.0378644 0.0288017 0)
(0.0368817 0.0688664 0)
(0.0318919 0.109589 0)
(0.0260557 0.159322 0)
(0.0212678 0.220117 0)
(0.0175446 0.287131 0)
(0.0114212 0.359855 0)
(0.00730443 0.452485 0)
(-0.00141921 0.58032 0)
(-0.000277358 0.712959 0)
(0.0326243 0.0274692 0)
(0.0331836 0.0710484 0)
(0.0299067 0.11428 0)
(0.0250165 0.164304 0)
(0.0205373 0.224813 0)
(0.0168643 0.292445 0)
(0.0111195 0.366653 0)
(0.0069577 0.46015 0)
(-0.00101397 0.585753 0)
(-0.000310268 0.712376 0)
(0.0273152 0.0249553 0)
(0.0292792 0.0717417 0)
(0.0276376 0.117742 0)
(0.0238141 0.168446 0)
(0.0197294 0.228376 0)
(0.0161434 0.295636 0)
(0.0107176 0.37003 0)
(0.0065388 0.463434 0)
(-0.000941432 0.587785 0)
(-0.00042675 0.711432 0)
(0.0219232 0.0211295 0)
(0.0251796 0.070684 0)
(0.0248645 0.119564 0)
(0.022175 0.17212 0)
(0.0187727 0.233023 0)
(0.0154778 0.301383 0)
(0.010476 0.377321 0)
(0.00634205 0.471514 0)
(-0.000489538 0.593372 0)
(-0.000380175 0.710911 0)
(0.0172338 0.0177225 0)
(0.022171 0.0697723 0)
(0.023138 0.121124 0)
(0.0211843 0.174524 0)
(0.0180952 0.235164 0)
(0.0149055 0.303201 0)
(0.0101249 0.379191 0)
(0.00604785 0.473199 0)
(-0.000483238 0.594381 0)
(-0.000448445 0.710309 0)
(0.0115904 0.00730917 0)
(0.0170178 0.0625792 0)
(0.0201922 0.119085 0)
(0.0199816 0.176821 0)
(0.0177519 0.239996 0)
(0.0147837 0.30984 0)
(0.0102478 0.387582 0)
(0.00607267 0.482388 0)
(9.06339e-05 0.600592 0)
(-0.000332022 0.709928 0)
(0.0541493 0.00165973 2.08464e-21)
(0.0529031 0.0070005 -2.04826e-21)
(0.0479873 0.00721928 1.80126e-22)
(0.0424193 0.00626581 0)
(0.0366131 0.00412309 0)
(0.0306335 0.00108305 5.78174e-23)
(0.0246627 -0.00271289 -8.17656e-23)
(0.0187272 -0.0074565 8.03427e-23)
(0.0132184 -0.0116882 -8.44982e-24)
(0.00704042 -0.0207745 8.29956e-24)
(0.0550939 -0.00222761 -2.74372e-21)
(0.0522287 -0.00012056 0)
(0.0466514 -0.00131235 1.02196e-21)
(0.0408939 -0.00334392 -2.04363e-21)
(0.035027 -0.00629529 1.02649e-21)
(0.0290348 -0.00990881 -5.64885e-23)
(0.0230532 -0.014109 5.7487e-23)
(0.0171574 -0.0190987 2.86456e-23)
(0.0115045 -0.0235809 -1.53575e-23)
(0.00572498 -0.0318408 -1.82207e-23)
(0.0552822 -0.00611985 3.09877e-21)
(0.0511186 -0.00686873 -1.45743e-21)
(0.0451751 -0.00949874 1.44345e-21)
(0.0393026 -0.0126583 -8.21236e-22)
(0.0334015 -0.0164455 6.42124e-22)
(0.0273947 -0.0206332 0)
(0.0214142 -0.0252007 -5.76185e-23)
(0.0155729 -0.0303256 1.16027e-24)
(0.00988934 -0.0348848 -1.14141e-24)
(0.00459035 -0.0420811 2.54711e-23)
(0.0548022 -0.0105205 -4.72918e-22)
(0.0495994 -0.0137072 0)
(0.0435207 -0.0176038 0)
(0.0376143 -0.0217823 0)
(0.0317295 -0.0263113 4.31227e-22)
(0.0257398 -0.0309862 -2.6725e-22)
(0.0197914 -0.0358286 1.87875e-23)
(0.0140238 -0.0409588 -4.03788e-24)
(0.00842441 -0.0454133 3.4082e-24)
(0.00359654 -0.0514719 1.14574e-23)
(0.0536195 -0.0155389 -3.15642e-22)
(0.0476135 -0.0207427 -1.27025e-21)
(0.0415826 -0.0256958 -5.2582e-22)
(0.0357246 -0.0307136 5.2545e-22)
(0.0299139 -0.0358365 -1.6192e-22)
(0.0240101 -0.0408697 0)
(0.0181561 -0.0458621 -5.82386e-23)
(0.0125213 -0.0508654 3.83791e-23)
(0.00712065 -0.0550577 -1.54386e-23)
(0.00277411 -0.0600089 -1.50328e-23)
(0.0518223 -0.0211251 -3.51082e-21)
(0.0452595 -0.0279111 5.76982e-22)
(0.0394148 -0.0337254 1.43668e-22)
(0.0336701 -0.0393817 5.17822e-22)
(0.0279935 -0.0449363 0)
(0.0222329 -0.050184 0)
(0.016534 -0.0551954 0)
(0.0110956 -0.0599552 3.05583e-23)
(0.00598408 -0.0637721 0)
(0.00211824 -0.0677093 0)
(0.0494477 -0.0271971 0)
(0.0426386 -0.035078 1.0131e-21)
(0.0370852 -0.0415911 -6.53985e-22)
(0.0315113 -0.0476871 -3.85308e-22)
(0.0260209 -0.0535173 3.87289e-22)
(0.0204539 -0.0588407 8.78298e-23)
(0.0149632 -0.0637523 -1.07578e-22)
(0.00977703 -0.0681801 -1.27369e-22)
(0.00501381 -0.0715581 1.04252e-23)
(0.00160612 -0.0746104 3.45117e-24)
(0.0465848 -0.0335306 0)
(0.0398334 -0.0421119 -3.59382e-22)
(0.0346509 -0.0491784 -1.4663e-22)
(0.0293001 -0.0555305 0)
(0.0240407 -0.0614979 5.53368e-23)
(0.0187129 -0.0667761 -1.99001e-22)
(0.0134753 -0.0714924 9.61643e-23)
(0.00858474 -0.0755338 8.03506e-24)
(0.00420053 -0.0784545 -9.41035e-24)
(0.00121299 -0.0807653 -2.32976e-24)
(0.0433657 -0.0399653 4.73201e-22)
(0.0369176 -0.0488926 3.26925e-22)
(0.0321632 -0.0563854 -1.09331e-22)
(0.0270843 -0.0628325 5.80038e-23)
(0.0220927 -0.0688215 8.41286e-23)
(0.0170431 -0.0739589 8.90065e-23)
(0.0120925 -0.0784126 -1.9988e-23)
(0.00752691 -0.0820465 -1.15121e-23)
(0.00352851 -0.084527 9.44114e-24)
(0.000915485 -0.0862378 9.75498e-25)
(0.0399038 -0.0463743 -1.00136e-22)
(0.033955 -0.0553303 1.01058e-22)
(0.0296685 -0.0631374 -7.41031e-23)
(0.0249072 -0.0695447 -5.7916e-23)
(0.0202107 -0.0754634 3.76407e-23)
(0.0154703 -0.0803925 -6.86136e-23)
(0.0108285 -0.0845445 2.82027e-23)
(0.00660248 -0.087778 3.24143e-24)
(0.00297853 -0.0898587 0)
(0.000692322 -0.0910988 -9.77609e-25)
(0.0363198 -0.0526616 1.02352e-22)
(0.0310136 -0.0613732 -1.03262e-22)
(0.0272159 -0.0693935 -7.76224e-23)
(0.0228122 -0.0756548 -6.13002e-23)
(0.0184253 -0.0814326 -3.93326e-23)
(0.0140147 -0.0861125 5.69128e-24)
(0.00969029 -0.0899476 1.41932e-23)
(0.0058043 -0.0928086 2.33149e-23)
(0.00253087 -0.0945421 0)
(0.00052529 -0.0954233 -2.15311e-24)
(0.0327359 -0.0587728 0)
(0.0281659 -0.0670078 -3.47801e-22)
(0.0248534 -0.0751455 5.88256e-22)
(0.0208399 -0.0811843 6.13907e-23)
(0.0167622 -0.0867667 9.75511e-23)
(0.01269 -0.0911809 1.05671e-22)
(0.00867899 -0.0947014 -2.31293e-23)
(0.00512165 -0.0972307 -1.42735e-23)
(0.00216731 -0.0986727 1.69874e-23)
(0.000399964 -0.0992874 2.14805e-24)
(0.02925 -0.0646921 0)
(0.0254707 -0.0722558 -3.99283e-22)
(0.0226145 -0.0804127 -1.60495e-22)
(0.019017 -0.0861831 0)
(0.0152361 -0.0915266 -2.7043e-22)
(0.0115008 -0.0956779 1.02237e-22)
(0.00778979 -0.0988978 6.39003e-23)
(0.00454126 -0.101142 1.10022e-22)
(0.00187165 -0.102345 -1.6932e-23)
(0.000305207 -0.102767 1.21351e-23)
(0.0259308 -0.0704317 0)
(0.022969 -0.0771726 4.02595e-22)
(0.0205175 -0.0852367 0)
(0.0173556 -0.0907238 4.75898e-22)
(0.0138516 -0.09579 -4.78365e-22)
(0.0104429 -0.0996951 -1.31607e-22)
(0.00701325 -0.102634 2.67659e-23)
(0.00404875 -0.104639 -1.13602e-22)
(0.00162999 -0.105649 -2.09862e-23)
(0.000232426 -0.105937 -1.85449e-23)
(0.0228256 -0.0760191 4.08852e-21)
(0.0206926 -0.0818429 -1.53583e-21)
(0.0185754 -0.0896748 -1.44696e-22)
(0.0158593 -0.0948939 -6.31124e-22)
(0.0126088 -0.0996444 0)
(0.00950828 -0.103329 -1.3906e-22)
(0.00633849 -0.106006 4.40891e-23)
(0.00363054 -0.107816 1.68503e-22)
(0.00143115 -0.108671 7.0413e-24)
(0.000175304 -0.108869 -7.03901e-24)
(0.0199588 -0.0814805 3.35464e-22)
(0.0186668 -0.0863757 2.39168e-21)
(0.0168013 -0.0937948 6.57251e-22)
(0.0145273 -0.0987875 -6.56842e-22)
(0.0115068 -0.103182 -2.32307e-22)
(0.00868804 -0.106674 0)
(0.00575551 -0.109109 -2.26518e-22)
(0.00327519 -0.110762 1.21382e-22)
(0.00126678 -0.111491 6.28216e-23)
(0.000129449 -0.111633 1.58087e-23)
(0.0173419 -0.08682 -5.69815e-22)
(0.0169203 -0.0908992 0)
(0.0152205 -0.0976708 0)
(0.0133614 -0.102499 0)
(0.010549 -0.106495 -1.85192e-22)
(0.00797629 -0.109822 4.17026e-22)
(0.0052573 -0.11203 2.32038e-22)
(0.00297445 -0.113557 -2.76847e-22)
(0.00113127 -0.114184 1.60916e-23)
(9.19315e-05 -0.114297 -3.1592e-23)
(0.0149653 -0.0920008 -1.29762e-21)
(0.0154593 -0.0955505 1.77231e-21)
(0.0138523 -0.10138 -1.75556e-21)
(0.0123517 -0.106115 1.14432e-21)
(0.00973255 -0.109671 -1.38874e-21)
(0.00736337 -0.112856 0)
(0.00483551 -0.114848 -1.38449e-22)
(0.00272052 -0.116275 -5.17308e-24)
(0.00102011 -0.116818 -5.23572e-23)
(6.05413e-05 -0.116925 -1.7491e-23)
(0.0126511 -0.0969035 -6.15812e-22)
(0.0140977 -0.100461 0)
(0.0126099 -0.105006 -1.7348e-21)
(0.0114071 -0.109716 2.7059e-21)
(0.00900006 -0.112794 -9.32294e-22)
(0.00680489 -0.115852 -1.01173e-22)
(0.00446151 -0.117636 1.38134e-22)
(0.00249551 -0.118983 1.751e-23)
(0.00092544 -0.119458 1.07199e-22)
(3.45868e-05 -0.119577 3.47967e-23)
(0.0104298 -0.10122 -2.48075e-21)
(0.0127639 -0.105752 2.42713e-21)
(0.0115064 -0.108659 2.22871e-22)
(0.0105234 -0.113384 0)
(0.00834381 -0.115952 0)
(0.00629914 -0.118888 1.0413e-22)
(0.00413256 -0.120467 2.54959e-22)
(0.00229976 -0.121748 -2.50233e-22)
(0.000849237 -0.122166 -1.90455e-23)
(2.40127e-05 -0.122317 1.86499e-23)
(0.00965857 -0.108363 0)
(0.0127927 -0.118416 0)
(0.0111791 -0.117279 0)
(0.0100146 -0.122241 0)
(0.00788568 -0.123691 0)
(0.00586206 -0.126434 0)
(0.00383834 -0.127558 0)
(0.0021334 -0.128704 0)
(0.00081628 -0.12897 0)
(5.34033e-05 -0.129156 0)
(0.0101929 -0.129599 0)
(0.00945891 -0.141036 0)
(0.00791188 -0.136869 0)
(0.00677438 -0.141897 0)
(0.0051963 -0.141561 0)
(0.0038559 -0.143985 0)
(0.00248175 -0.144196 0)
(0.00140085 -0.145133 0)
(0.000536662 -0.14506 0)
(5.33151e-05 -0.145275 0)
(0.0108682 -0.15635 0)
(0.00892322 -0.168819 0)
(0.00724001 -0.162342 0)
(0.00578917 -0.167731 0)
(0.00436377 -0.165859 0)
(0.00314645 -0.168332 0)
(0.00202578 -0.167743 0)
(0.00116285 -0.168706 0)
(0.000476674 -0.168298 0)
(6.40651e-05 -0.168603 0)
(0.0112668 -0.189449 0)
(0.00846988 -0.202841 0)
(0.00678819 -0.194872 0)
(0.00506444 -0.20091 0)
(0.00382379 -0.197822 0)
(0.00264778 -0.200658 0)
(0.00174684 -0.199366 0)
(0.00100146 -0.200551 0)
(0.000448222 -0.19979 0)
(6.44385e-05 -0.200266 0)
(0.0112887 -0.228904 0)
(0.00807013 -0.242394 0)
(0.00645242 -0.2341 0)
(0.0045259 -0.240656 0)
(0.00346128 -0.236885 0)
(0.00226874 -0.240174 0)
(0.00155685 -0.238369 0)
(0.000853422 -0.239874 0)
(0.000419173 -0.238797 0)
(4.71385e-05 -0.239511 0)
(0.0106566 -0.272338 0)
(0.00743324 -0.284541 0)
(0.00595219 -0.277365 0)
(0.00398535 -0.283794 0)
(0.00309172 -0.280139 0)
(0.00190402 -0.283606 0)
(0.0013531 -0.281654 0)
(0.000664283 -0.283369 0)
(0.000349457 -0.282126 0)
(7.9759e-06 -0.283042 0)
(0.00923156 -0.315012 0)
(0.00637036 -0.324712 0)
(0.00510181 -0.319858 0)
(0.0033133 -0.325324 0)
(0.00258816 -0.322591 0)
(0.00149629 -0.325705 0)
(0.00107483 -0.324063 0)
(0.00043145 -0.325678 0)
(0.000231457 -0.324527 0)
(-3.79946e-05 -0.325465 0)
(0.0070932 -0.351399 0)
(0.00486583 -0.358182 0)
(0.00388905 -0.356076 0)
(0.00247721 -0.360062 0)
(0.00193258 -0.358684 0)
(0.00105236 -0.361001 0)
(0.000742422 -0.359988 0)
(0.000213224 -0.361188 0)
(0.000108349 -0.360356 0)
(-6.46144e-05 -0.361087 0)
(0.00444414 -0.377248 0)
(0.00303271 -0.381624 0)
(0.00242116 -0.381811 0)
(0.00152305 -0.384397 0)
(0.00118449 -0.384257 0)
(0.000613096 -0.38571 0)
(0.000418317 -0.385345 0)
(6.8991e-05 -0.386036 0)
(2.68174e-05 -0.385578 0)
(-5.84828e-05 -0.385995 0)
(0.00151344 -0.390471 0)
(0.0010246 -0.393543 0)
(0.000821375 -0.394989 0)
(0.000511558 -0.396757 0)
(0.000398782 -0.397327 0)
(0.00019949 -0.398244 0)
(0.000133105 -0.398272 0)
(9.84446e-06 -0.398631 0)
(2.80877e-07 -0.398421 0)
(-2.35083e-05 -0.398622 0)
(0.0100072 -0.116682 2.84482e-21)
(0.011546 -0.139427 -2.79078e-21)
(0.0126921 -0.167523 3.57357e-22)
(0.013235 -0.201151 0)
(0.0131815 -0.239884 0)
(0.0123261 -0.281151 4.16426e-22)
(0.0106149 -0.320627 -1.79337e-21)
(0.00815041 -0.353667 1.76729e-21)
(0.00511977 -0.376877 4.80267e-22)
(0.00174265 -0.388689 -4.72664e-22)
(0.0103691 -0.121175 -3.37619e-21)
(0.0123087 -0.14392 0)
(0.0135667 -0.172048 2.45006e-21)
(0.0141279 -0.20552 -5.66243e-21)
(0.0140149 -0.243736 3.64072e-21)
(0.0130544 -0.284066 -3.88201e-22)
(0.0112211 -0.322333 8.67013e-22)
(0.00861801 -0.354181 1.83353e-21)
(0.00542111 -0.376483 5.1653e-22)
(0.00184215 -0.387812 5.01486e-22)
(0.0109399 -0.125794 3.92795e-21)
(0.0133244 -0.14859 -2.68999e-21)
(0.0146326 -0.176593 2.66445e-21)
(0.0151769 -0.209758 -2.99765e-21)
(0.0149725 -0.247336 2.21563e-21)
(0.0138774 -0.286657 0)
(0.0118902 -0.323716 -8.69104e-22)
(0.00911745 -0.354429 4.40655e-23)
(0.00573172 -0.375898 -9.62932e-22)
(0.00193938 -0.386795 -9.8356e-22)
(0.0117681 -0.129965 -6.32714e-22)
(0.0145462 -0.152858 0)
(0.0158677 -0.180773 0)
(0.0163742 -0.213655 0)
(0.0160591 -0.250626 2.47373e-21)
(0.0148118 -0.288989 -1.65587e-21)
(0.0126459 -0.324898 -1.27982e-23)
(0.00967271 -0.354527 -1.02816e-21)
(0.00607037 -0.375194 -5.28157e-22)
(0.00204302 -0.385667 -5.66011e-22)
(0.0129181 -0.133785 5.45102e-23)
(0.0159678 -0.156618 -1.89907e-21)
(0.0172605 -0.184394 -1.45259e-21)
(0.0177077 -0.216998 1.45167e-21)
(0.0172663 -0.253409 -8.06669e-22)
(0.0158557 -0.290907 0)
(0.0134951 -0.325786 -9.54755e-22)
(0.010298 -0.354436 2.09615e-21)
(0.00645221 -0.374368 -1.07313e-21)
(0.00216112 -0.384444 1.10702e-21)
(0.0144211 -0.1373 -5.02576e-21)
(0.0176092 -0.15991 5.4212e-22)
(0.0188282 -0.187445 -1.11327e-22)
(0.0191859 -0.21973 1.48958e-21)
(0.0185977 -0.255597 0)
(0.0170092 -0.292314 0)
(0.0144377 -0.32629 0)
(0.0109959 -0.354093 1.12343e-21)
(0.00688145 -0.37339 0)
(0.00229704 -0.383124 0)
(0.0162882 -0.140422 0)
(0.0194833 -0.162705 2.07005e-21)
(0.0205914 -0.189918 -1.40045e-21)
(0.0208255 -0.221852 -1.68067e-21)
(0.020067 -0.257188 1.6894e-21)
(0.0182804 -0.293196 1.01889e-21)
(0.0154769 -0.326386 -1.00945e-21)
(0.0117667 -0.353471 -4.01303e-21)
(0.00735751 -0.372239 2.85642e-22)
(0.00245144 -0.381695 -9.80649e-22)
(0.0185295 -0.14305 0)
(0.021596 -0.164934 -6.71175e-22)
(0.0225638 -0.191775 -3.80011e-22)
(0.0226392 -0.22335 0)
(0.0216876 -0.258188 4.95866e-22)
(0.0196805 -0.293566 -1.49312e-21)
(0.0166197 -0.326083 1.6739e-21)
(0.0126134 -0.35257 5.99135e-22)
(0.00788066 -0.370909 -6.56145e-22)
(0.00262478 -0.380147 1.30082e-21)
(0.0211565 -0.145107 5.97013e-22)
(0.0239529 -0.166548 7.27731e-22)
(0.0247544 -0.192975 -1.59526e-22)
(0.0246352 -0.224202 2.18793e-22)
(0.0234694 -0.258589 4.68898e-22)
(0.0212185 -0.293432 7.92458e-22)
(0.0178738 -0.325393 -2.99489e-22)
(0.0135412 -0.351399 -3.24514e-22)
(0.00845318 -0.369401 6.58305e-22)
(0.00281815 -0.378475 3.57161e-22)
(0.0241789 -0.146533 -1.66629e-22)
(0.0265592 -0.16752 1.68239e-22)
(0.0271715 -0.19349 -1.95315e-22)
(0.0268195 -0.224394 -2.18503e-22)
(0.0254197 -0.258385 2.62463e-22)
(0.0229018 -0.292792 -5.3676e-22)
(0.0192461 -0.324318 4.58531e-22)
(0.0145558 -0.349961 1.64512e-22)
(0.00907851 -0.367714 0)
(0.00303294 -0.376677 -3.57962e-22)
(0.0276039 -0.147285 1.70279e-22)
(0.0294179 -0.167845 -1.71972e-22)
(0.0298224 -0.193314 -2.09188e-22)
(0.0291973 -0.223925 -2.35986e-22)
(0.0275453 -0.257576 -2.73964e-22)
(0.0247361 -0.29165 -2.03002e-23)
(0.0207421 -0.322862 1.6143e-22)
(0.0156619 -0.348256 5.23066e-22)
(0.00975973 -0.365846 0)
(0.00327021 -0.374747 -3.91074e-22)
(0.0314364 -0.147349 0)
(0.0325294 -0.167518 -7.96453e-22)
(0.0327116 -0.192453 1.44648e-21)
(0.0317719 -0.222803 2.36376e-22)
(0.029852 -0.256167 5.53972e-22)
(0.0267275 -0.290008 9.1645e-22)
(0.0223685 -0.321021 -3.27522e-22)
(0.0168657 -0.346282 -3.5503e-22)
(0.0105005 -0.363794 7.87189e-22)
(0.00353085 -0.372682 3.90166e-22)
(0.0356793 -0.146758 0)
(0.035894 -0.166535 -7.7942e-22)
(0.0358386 -0.190946 -4.35754e-22)
(0.0345458 -0.221048 0)
(0.032344 -0.254186 -1.74999e-21)
(0.02888 -0.287887 5.83411e-22)
(0.0241281 -0.318816 7.0304e-22)
(0.0181691 -0.344039 2.27862e-21)
(0.0113026 -0.361553 -7.84631e-22)
(0.00381475 -0.370472 1.69592e-21)
(0.0403267 -0.145644 0)
(0.0395134 -0.164864 7.86034e-22)
(0.0391952 -0.188836 0)
(0.0375225 -0.218671 2.21985e-21)
(0.0350241 -0.251643 -2.23125e-21)
(0.0311993 -0.285287 -1.38548e-21)
(0.0260314 -0.316237 -3.4277e-23)
(0.0195825 -0.341518 -2.34649e-21)
(0.0121701 -0.359115 -3.91126e-22)
(0.00412292 -0.368106 -2.10948e-21)
(0.0453322 -0.144006 5.59436e-21)
(0.043415 -0.162538 -2.14807e-21)
(0.0427595 -0.18615 2.58191e-22)
(0.0407061 -0.215698 -2.04898e-21)
(0.0378917 -0.24856 0)
(0.0336886 -0.282227 -1.44551e-21)
(0.0280792 -0.313301 -1.27651e-22)
(0.021106 -0.338748 3.18708e-21)
(0.0131045 -0.356497 4.38257e-22)
(0.0044548 -0.365592 -4.39966e-22)
(0.0506598 -0.141803 -6.27529e-22)
(0.047587 -0.159684 4.0465e-21)
(0.0465228 -0.182937 2.13075e-21)
(0.0440931 -0.212188 -2.12933e-21)
(0.0409458 -0.244971 -1.30546e-21)
(0.0363507 -0.278723 0)
(0.0302761 -0.310007 -3.25233e-21)
(0.0227466 -0.335714 1.63132e-21)
(0.0141132 -0.353685 1.74772e-21)
(0.00481202 -0.362921 1.8802e-21)
(0.0562399 -0.139148 -7.67191e-22)
(0.0520194 -0.156337 0)
(0.0504718 -0.179252 0)
(0.0476758 -0.208204 0)
(0.0441831 -0.240945 -1.52028e-21)
(0.0391822 -0.274854 2.82083e-21)
(0.0326147 -0.306432 3.31415e-21)
(0.0244933 -0.332473 -5.23008e-21)
(0.0151867 -0.350712 9.38704e-22)
(0.00518902 -0.360105 -2.79257e-21)
(0.0619681 -0.136186 -1.1116e-21)
(0.0567039 -0.152531 4.02782e-21)
(0.054585 -0.175136 -3.98946e-21)
(0.0514429 -0.203737 5.25525e-21)
(0.0476049 -0.236406 -6.6171e-21)
(0.0422003 -0.270479 0)
(0.0351286 -0.302416 -1.73305e-21)
(0.0263882 -0.328892 -7.29765e-23)
(0.0163595 -0.347499 -1.95252e-21)
(0.00559811 -0.357092 -1.99149e-21)
(0.0677105 -0.133095 -8.12491e-22)
(0.0616471 -0.148418 0)
(0.0588366 -0.17081 -5.38952e-21)
(0.0553522 -0.199155 1.02313e-20)
(0.0511521 -0.231875 -3.97715e-21)
(0.0453186 -0.26621 -8.15879e-22)
(0.0377047 -0.298525 1.72926e-21)
(0.028312 -0.32537 -9.03722e-23)
(0.0175424 -0.344253 2.84812e-21)
(0.00600182 -0.353991 2.94718e-21)
(0.0736346 -0.128776 -3.69763e-21)
(0.0674232 -0.142881 3.62573e-21)
(0.0636428 -0.164881 5.73536e-22)
(0.0597348 -0.192792 0)
(0.0551493 -0.225462 0)
(0.0489012 -0.260172 8.07555e-22)
(0.0407419 -0.293223 3.73317e-21)
(0.0306376 -0.320916 -3.65527e-21)
(0.0189987 -0.340478 -1.00499e-21)
(0.00650032 -0.350516 9.88303e-22)
(0.0836523 -0.128472 0)
(0.0805583 -0.140451 0)
(0.0741491 -0.162823 0)
(0.0690258 -0.190281 0)
(0.0632089 -0.222192 0)
(0.0556606 -0.25578 0)
(0.0461182 -0.287557 0)
(0.0345526 -0.314113 0)
(0.0213805 -0.332987 0)
(0.00723547 -0.342876 0)
(0.100723 -0.118023 0)
(0.102442 -0.134049 0)
(0.0927293 -0.158495 0)
(0.0864784 -0.185415 0)
(0.0784238 -0.21607 0)
(0.0684915 -0.247614 0)
(0.0563677 -0.277037 0)
(0.0420338 -0.301267 0)
(0.0259631 -0.318002 0)
(0.00892008 -0.326115 0)
(0.121775 -0.107924 0)
(0.125671 -0.12607 0)
(0.112875 -0.150678 0)
(0.105834 -0.176261 0)
(0.0949883 -0.205138 0)
(0.0822592 -0.234119 0)
(0.0670715 -0.261077 0)
(0.0496185 -0.283557 0)
(0.0304385 -0.299795 0)
(0.0101132 -0.308803 0)
(0.147794 -0.100633 0)
(0.152217 -0.119207 0)
(0.136032 -0.14276 0)
(0.128152 -0.166931 0)
(0.113848 -0.194078 0)
(0.0981039 -0.220504 0)
(0.0794181 -0.245009 0)
(0.0584223 -0.265064 0)
(0.0357656 -0.278676 0)
(0.0123967 -0.284516 0)
(0.178189 -0.0918404 0)
(0.181019 -0.108872 0)
(0.161179 -0.130035 0)
(0.1517 -0.151697 0)
(0.13274 -0.175692 0)
(0.113358 -0.198505 0)
(0.0904065 -0.220184 0)
(0.0656169 -0.238582 0)
(0.0395753 -0.252827 0)
(0.0125341 -0.262523 0)
(0.212396 -0.0846158 0)
(0.212916 -0.0995083 0)
(0.189533 -0.118889 0)
(0.178003 -0.138103 0)
(0.153804 -0.159286 0)
(0.131164 -0.179364 0)
(0.103797 -0.199136 0)
(0.0750321 -0.215545 0)
(0.0452826 -0.226826 0)
(0.0166312 -0.229081 0)
(0.248263 -0.0704662 0)
(0.242849 -0.0819744 0)
(0.216646 -0.0977502 0)
(0.201022 -0.112338 0)
(0.170859 -0.12886 0)
(0.144144 -0.144502 0)
(0.110443 -0.160422 0)
(0.0770169 -0.174679 0)
(0.0437395 -0.189238 0)
(0.0100935 -0.207474 0)
(0.282264 -0.0619865 0)
(0.273337 -0.0695894 0)
(0.246028 -0.0828223 0)
(0.226609 -0.0939205 0)
(0.193747 -0.108622 0)
(0.164376 -0.122557 0)
(0.127076 -0.138549 0)
(0.0904411 -0.153833 0)
(0.0528083 -0.168848 0)
(0.0276501 -0.163653 0)
(0.320774 -0.0348923 0)
(0.309112 -0.0382033 0)
(0.267779 -0.0461614 0)
(0.242341 -0.0514818 0)
(0.196789 -0.0601177 0)
(0.158614 -0.067049 0)
(0.107363 -0.0756588 0)
(0.0572708 -0.0842812 0)
(0.0115071 -0.102643 0)
(-0.0433835 -0.154503 0)
(0.599944 -0.0184257 0)
(0.580938 -0.0213688 0)
(0.54236 -0.0255928 0)
(0.512445 -0.0297688 0)
(0.465163 -0.0357935 0)
(0.421857 -0.0427599 0)
(0.361139 -0.053127 0)
(0.294635 -0.0689539 0)
(0.207348 -0.0985815 0)
(0.149765 -0.157391 0)
(0.0994343 -0.115576 3.77012e-21)
(0.118539 -0.105021 -3.7122e-21)
(0.139908 -0.0952277 6.2624e-22)
(0.16538 -0.0881178 0)
(0.195861 -0.079893 0)
(0.22881 -0.0734546 9.87408e-22)
(0.264386 -0.0609461 -4.74391e-21)
(0.296905 -0.0543546 4.67502e-21)
(0.34704 -0.0303759 1.33906e-21)
(0.620592 -0.0161701 -1.36157e-21)
(0.104998 -0.109928 -3.45523e-21)
(0.124017 -0.0993617 0)
(0.14513 -0.0899455 4.53106e-21)
(0.170289 -0.0830414 -1.102e-20)
(0.200751 -0.0751302 7.47845e-21)
(0.233681 -0.0690705 -9.2841e-22)
(0.26928 -0.0571731 2.01519e-21)
(0.30214 -0.0513397 4.59426e-21)
(0.356753 -0.0286216 1.23674e-21)
(0.628745 -0.0152135 1.27198e-21)
(0.109821 -0.103735 3.97394e-21)
(0.128735 -0.0934413 -4.16426e-21)
(0.14946 -0.084567 4.12481e-21)
(0.174439 -0.0779336 -5.87273e-21)
(0.204648 -0.0704242 4.24796e-21)
(0.237697 -0.0648188 0)
(0.27319 -0.0535865 -2.02001e-21)
(0.30694 -0.0484932 -5.30552e-23)
(0.36537 -0.0270211 -2.34331e-21)
(0.636538 -0.0142983 -2.51806e-21)
(0.114412 -0.0971349 -6.81936e-22)
(0.133565 -0.0873629 0)
(0.15399 -0.079137 0)
(0.17887 -0.0728129 0)
(0.20879 -0.0657614 4.84866e-21)
(0.241901 -0.0606684 -3.31013e-21)
(0.27709 -0.0501617 -1.45649e-22)
(0.311815 -0.0457507 -2.33572e-21)
(0.373404 -0.0255661 -1.18575e-21)
(0.644128 -0.0134667 -1.2261e-21)
(0.118491 -0.090226 7.40058e-22)
(0.138061 -0.0812115 -2.18063e-21)
(0.158304 -0.0736956 -2.36576e-21)
(0.1831 -0.0677295 2.36428e-21)
(0.212856 -0.0611772 -1.51655e-21)
(0.246038 -0.0566047 0)
(0.280902 -0.0468835 -1.95411e-21)
(0.316619 -0.0430908 4.40578e-21)
(0.380983 -0.024229 -2.21062e-21)
(0.651414 -0.0127308 2.43514e-21)
(0.12191 -0.0830366 -5.11964e-21)
(0.141961 -0.0750108 2.00303e-22)
(0.162092 -0.0682505 -4.04671e-22)
(0.186783 -0.062705 2.30517e-21)
(0.216435 -0.0566953 0)
(0.24971 -0.0526438 0)
(0.284403 -0.0437474 0)
(0.321035 -0.0405224 2.09135e-21)
(0.388037 -0.0229961 0)
(0.658284 -0.0120842 0)
(0.124594 -0.0755963 0)
(0.14522 -0.0687608 2.6455e-21)
(0.16531 -0.0627932 -1.84297e-21)
(0.189877 -0.0577335 -2.65793e-21)
(0.219425 -0.0523078 2.67173e-21)
(0.252781 -0.0487945 1.75579e-21)
(0.287461 -0.0407432 -1.64571e-21)
(0.324916 -0.0380574 -7.18309e-21)
(0.394428 -0.0218626 5.06985e-22)