/*--------------------------------*- C++ -*----------------------------------*\
  =========                 |
  \\      /  F ield         | OpenFOAM: The Open Source CFD Toolbox
   \\    /   O peration     | Website:  https://openfoam.org
    \\  /    A nd           | Version:  7
     \\/     M anipulation  |
\*---------------------------------------------------------------------------*/
FoamFile
{
    version     2.0;
    format      ascii;
    class       volScalarField;
    location    "3.7";
    object      p;
}
// * * * * * * * * * * * * * * * * * * * * * * * * * * * * * * * * * * * * * //

dimensions      [0 2 -2 0 0 0 0];

internalField   nonuniform List<scalar> 
32000
(
0.767116
0.765986
0.76577
0.765719
0.765934
0.766384
0.767049
0.767889
0.768859
0.769939
0.77113
0.772441
0.773877
0.775427
0.777074
0.778807
0.78062
0.782511
0.784474
0.786498
0.78857
0.790678
0.792815
0.794976
0.797155
0.799342
0.801527
0.803697
0.805843
0.807955
0.810024
0.812046
0.814015
0.815927
0.81778
0.819572
0.821299
0.822969
0.824567
0.825941
0.765964
0.764885
0.764687
0.764655
0.764888
0.76535
0.766016
0.766847
0.767793
0.768832
0.769971
0.771219
0.772578
0.774038
0.775584
0.777205
0.778899
0.780665
0.782497
0.784386
0.78632
0.788288
0.790286
0.792313
0.794365
0.796433
0.798506
0.800573
0.802623
0.804647
0.806638
0.808591
0.8105
0.81236
0.814169
0.815921
0.817613
0.819253
0.820825
0.82218
0.764739
0.763735
0.763559
0.76355
0.763802
0.764279
0.764945
0.765762
0.766683
0.767681
0.768766
0.769949
0.771228
0.772594
0.774034
0.775538
0.777108
0.778744
0.780441
0.78219
0.78398
0.785803
0.787659
0.789549
0.79147
0.793415
0.795372
0.797331
0.799282
0.801216
0.803129
0.805013
0.806863
0.808673
0.81044
0.812156
0.813818
0.815432
0.816981
0.818322
0.763452
0.762526
0.762378
0.762395
0.76267
0.763163
0.763832
0.764634
0.765526
0.766484
0.767517
0.768632
0.769828
0.771096
0.772425
0.77381
0.775252
0.776754
0.778311
0.779914
0.781554
0.783228
0.784938
0.786688
0.788475
0.790293
0.79213
0.793977
0.795826
0.79767
0.799503
0.801318
0.80311
0.804873
0.8066
0.808284
0.809919
0.81151
0.813042
0.814372
0.762125
0.76129
0.761174
0.76122
0.761516
0.762022
0.762692
0.763476
0.764334
0.765251
0.766229
0.767274
0.768383
0.769548
0.770764
0.772026
0.773337
0.774701
0.776112
0.777564
0.77905
0.78057
0.782132
0.783739
0.785389
0.787074
0.788787
0.79052
0.792265
0.794018
0.795771
0.797517
0.799251
0.800967
0.802657
0.804312
0.805923
0.807496
0.809015
0.810338
0.760747
0.760007
0.759927
0.760006
0.760325
0.760844
0.761514
0.76228
0.763106
0.763979
0.764901
0.765873
0.766893
0.767956
0.769057
0.770194
0.771371
0.772592
0.773854
0.775149
0.776477
0.777843
0.779254
0.780714
0.782221
0.783771
0.785356
0.786971
0.788612
0.790272
0.791944
0.793621
0.795297
0.796967
0.798621
0.800249
0.80184
0.803399
0.80491
0.806229
0.75933
0.758692
0.758652
0.758769
0.759113
0.759644
0.760312
0.761061
0.761854
0.762682
0.763545
0.764443
0.765371
0.766329
0.767314
0.768325
0.769365
0.770439
0.771546
0.772682
0.77385
0.775059
0.776315
0.777624
0.778985
0.780395
0.781851
0.783347
0.784882
0.786448
0.788038
0.789644
0.791262
0.792886
0.794506
0.796109
0.797682
0.79923
0.800739
0.802057
0.757877
0.757349
0.757353
0.75751
0.757882
0.758424
0.759089
0.75982
0.760582
0.761365
0.762168
0.762987
0.763822
0.764675
0.765544
0.766426
0.767327
0.768251
0.7692
0.770174
0.771181
0.77223
0.77333
0.774484
0.775696
0.776964
0.778288
0.779665
0.781092
0.782562
0.784068
0.785603
0.787163
0.788741
0.790327
0.791906
0.793465
0.795005
0.796515
0.797834
0.756394
0.755982
0.756032
0.756232
0.756631
0.757186
0.757848
0.758562
0.759294
0.760032
0.760773
0.761513
0.762255
0.763003
0.763755
0.764507
0.765266
0.766039
0.766828
0.76764
0.768485
0.769373
0.770312
0.771309
0.77237
0.773496
0.774686
0.775942
0.777259
0.778632
0.780053
0.781516
0.783018
0.784551
0.786103
0.78766
0.789204
0.790737
0.792251
0.793574
0.754887
0.754595
0.754693
0.754937
0.755364
0.755931
0.75659
0.75729
0.757994
0.758688
0.759366
0.760028
0.760679
0.761322
0.761955
0.762577
0.763195
0.763814
0.764444
0.765093
0.765775
0.7665
0.767278
0.768118
0.769027
0.770008
0.771065
0.772198
0.773405
0.774679
0.776013
0.777404
0.778847
0.780335
0.781854
0.783387
0.784918
0.786445
0.787964
0.789293
0.753361
0.753193
0.753338
0.753627
0.754081
0.754662
0.755321
0.756008
0.756685
0.757335
0.757952
0.758538
0.759099
0.759638
0.760154
0.760647
0.761121
0.761589
0.76206
0.762548
0.763066
0.763628
0.764244
0.764927
0.765684
0.766522
0.767446
0.768456
0.769551
0.770725
0.771972
0.773289
0.774674
0.776115
0.7776
0.77911
0.780626
0.782147
0.783672
0.785008
0.751821
0.751778
0.751972
0.752305
0.752787
0.753382
0.754043
0.754719
0.75537
0.755978
0.756538
0.757051
0.757524
0.757961
0.758361
0.758724
0.759058
0.759376
0.759691
0.760019
0.760375
0.760773
0.761229
0.761755
0.762362
0.763058
0.763848
0.764736
0.765719
0.766792
0.767952
0.769196
0.77052
0.771915
0.773365
0.774849
0.776349
0.777863
0.779394
0.780736
0.750272
0.750354
0.750597
0.750974
0.751485
0.752097
0.752761
0.753426
0.754054
0.754624
0.755129
0.755572
0.755961
0.756299
0.756584
0.75682
0.757017
0.757189
0.757352
0.757521
0.757716
0.757953
0.75825
0.758622
0.75908
0.759635
0.760294
0.761061
0.761932
0.762905
0.763977
0.765147
0.76641
0.767757
0.76917
0.770628
0.77211
0.773613
0.775148
0.776497
0.748716
0.748924
0.749215
0.749636
0.750177
0.750807
0.751477
0.752135
0.752742
0.753277
0.753732
0.75411
0.754419
0.754659
0.754833
0.754946
0.75501
0.755041
0.755055
0.755069
0.755105
0.755184
0.755325
0.755546
0.755858
0.756276
0.756806
0.757453
0.758213
0.759085
0.760069
0.761165
0.762367
0.763665
0.765039
0.766467
0.767928
0.769418
0.770954
0.772308
0.747159
0.747489
0.747828
0.748294
0.748867
0.749517
0.750194
0.750847
0.751438
0.751942
0.752352
0.752671
0.752903
0.75305
0.753116
0.75311
0.753048
0.752943
0.752813
0.752676
0.752557
0.752482
0.752472
0.752545
0.752716
0.753
0.753404
0.753931
0.754581
0.755354
0.756251
0.757273
0.758413
0.75966
0.760992
0.762388
0.763825
0.765296
0.766829
0.768185
0.745603
0.746051
0.746437
0.74695
0.747556
0.748228
0.748915
0.749567
0.750145
0.750624
0.750996
0.75126
0.75142
0.751478
0.751442
0.751325
0.751141
0.750907
0.750637
0.750353
0.750085
0.749862
0.749706
0.749637
0.749671
0.749825
0.750105
0.750515
0.751057
0.751731
0.752543
0.753491
0.754569
0.755762
0.75705
0.758411
0.759818
0.761266
0.76279
0.764146
0.744051
0.74461
0.745044
0.745605
0.746246
0.746942
0.747641
0.748297
0.748867
0.749327
0.749666
0.749881
0.749974
0.749949
0.749819
0.749596
0.749299
0.74894
0.748537
0.748113
0.747702
0.747336
0.74704
0.746835
0.746738
0.746766
0.746925
0.747222
0.747657
0.748236
0.748963
0.749837
0.750851
0.751989
0.75323
0.75455
0.755923
0.757343
0.758852
0.760205
0.742506
0.74317
0.743651
0.74426
0.744939
0.74566
0.746376
0.747038
0.747605
0.748052
0.748364
0.748536
0.748568
0.748469
0.748251
0.747931
0.747527
0.74705
0.746519
0.745962
0.745415
0.744914
0.744485
0.744151
0.743929
0.743835
0.743878
0.744064
0.744396
0.744882
0.745526
0.746327
0.747276
0.748356
0.749547
0.750822
0.752156
0.753541
0.755028
0.756373
0.740969
0.741729
0.742258
0.742915
0.743633
0.744383
0.745119
0.745791
0.746361
0.7468
0.747091
0.747226
0.747206
0.747039
0.746743
0.746334
0.745828
0.74524
0.744589
0.743906
0.743233
0.742604
0.74205
0.741594
0.741253
0.741043
0.740973
0.741052
0.741286
0.741681
0.742244
0.742972
0.743854
0.744875
0.746011
0.747238
0.748527
0.749871
0.751328
0.752659
0.739442
0.74029
0.740865
0.741571
0.74233
0.743111
0.74387
0.744558
0.745136
0.745572
0.745848
0.745952
0.745887
0.745662
0.745296
0.744805
0.744206
0.743512
0.742749
0.74195
0.741157
0.740411
0.73974
0.739168
0.738714
0.738393
0.738216
0.738193
0.738332
0.738641
0.739124
0.739778
0.740593
0.741551
0.74263
0.743803
0.745043
0.74634
0.747759
0.749069
0.737927
0.738853
0.739473
0.740228
0.741028
0.741844
0.74263
0.743338
0.743928
0.744367
0.744633
0.744714
0.744612
0.744337
0.743909
0.743344
0.742657
0.741867
0.740999
0.740092
0.739191
0.738334
0.737554
0.736874
0.736313
0.735888
0.735609
0.735489
0.735538
0.735763
0.736168
0.736749
0.737496
0.73839
0.739408
0.740524
0.74171
0.742954
0.744327
0.74561
0.736425
0.737418
0.738081
0.738884
0.739728
0.740581
0.741398
0.74213
0.742737
0.743184
0.743446
0.74351
0.743378
0.743062
0.74258
0.741948
0.741181
0.740301
0.739337
0.738332
0.737331
0.736373
0.735491
0.73471
0.734049
0.733524
0.73315
0.732939
0.732902
0.733047
0.733375
0.733884
0.734562
0.73539
0.736345
0.737401
0.738528
0.739714
0.741034
0.742286
0.734938
0.735986
0.73669
0.73754
0.738428
0.739321
0.740172
0.740933
0.741561
0.742021
0.742285
0.742338
0.742183
0.741833
0.741304
0.740611
0.739772
0.73881
0.73776
0.736665
0.735572
0.734521
0.733545
0.732669
0.731915
0.731298
0.730835
0.730538
0.73042
0.730486
0.730741
0.731178
0.731788
0.732549
0.733439
0.734432
0.735497
0.73662
0.737881
0.739096
0.733466
0.734559
0.735301
0.736195
0.737128
0.738063
0.738951
0.739744
0.740398
0.740875
0.741145
0.741193
0.741022
0.740645
0.740075
0.739328
0.738423
0.737387
0.736258
0.735083
0.733906
0.73277
0.731707
0.730744
0.729903
0.729201
0.728655
0.728278
0.728082
0.728075
0.728258
0.728626
0.729167
0.729862
0.730685
0.731611
0.732611
0.733667
0.734862
0.736034
0.732008
0.733135
0.733911
0.734849
0.735827
0.736805
0.737732
0.73856
0.739243
0.739742
0.740023
0.740071
0.73989
0.73949
0.738885
0.73809
0.737126
0.736023
0.734824
0.733575
0.732323
0.731108
0.729965
0.728922
0.728001
0.727221
0.726598
0.726146
0.725879
0.725801
0.725916
0.726217
0.726692
0.727319
0.728075
0.728933
0.729864
0.730851
0.731974
0.733097
0.730561
0.731711
0.732518
0.733498
0.734521
0.735543
0.736512
0.737379
0.738094
0.738617
0.738913
0.738966
0.738778
0.73836
0.737725
0.736886
0.735869
0.734706
0.733444
0.73213
0.730809
0.729523
0.728307
0.72719
0.726196
0.725344
0.724651
0.724131
0.723796
0.723653
0.723703
0.72394
0.72435
0.724911
0.725598
0.726387
0.727248
0.728162
0.729209
0.730277
0.729123
0.730285
0.731122
0.732142
0.733209
0.734277
0.73529
0.736196
0.736946
0.737495
0.737808
0.737869
0.737678
0.737246
0.736584
0.735706
0.734641
0.733425
0.732106
0.730733
0.72935
0.727999
0.726717
0.725533
0.724472
0.723555
0.722797
0.722215
0.721818
0.721614
0.721604
0.72178
0.722127
0.722623
0.723242
0.723962
0.724752
0.725592
0.72656
0.727569
0.727688
0.728855
0.729718
0.730778
0.731888
0.733002
0.73406
0.735008
0.735794
0.736369
0.7367
0.736771
0.736581
0.736137
0.735451
0.734538
0.733429
0.732165
0.730796
0.729369
0.727931
0.726521
0.725178
0.723934
0.722813
0.721837
0.721022
0.720382
0.719929
0.71967
0.719604
0.719722
0.720008
0.72044
0.720993
0.721644
0.722364
0.723129
0.724017
0.724964
0.726253
0.727416
0.728304
0.729401
0.730554
0.731715
0.73282
0.73381
0.734631
0.735232
0.735582
0.735664
0.735474
0.735021
0.734313
0.733368
0.73222
0.730912
0.729498
0.728024
0.726535
0.725072
0.723675
0.722376
0.721202
0.720173
0.719305
0.718614
0.718112
0.717802
0.717684
0.717747
0.717975
0.718346
0.718835
0.71942
0.720071
0.720763
0.72157
0.722455
0.724812
0.725966
0.726877
0.728008
0.729204
0.730411
0.731564
0.732596
0.733451
0.734079
0.734446
0.734537
0.73435
0.733887
0.733159
0.732184
0.730999
0.729653
0.728197
0.72668
0.725145
0.723635
0.72219
0.720843
0.719621
0.718545
0.717631
0.716895
0.716348
0.715993
0.715827
0.715839
0.716011
0.716324
0.716752
0.717273
0.717859
0.718481
0.71921
0.720033
0.72336
0.724499
0.725431
0.726595
0.727833
0.729088
0.730287
0.731361
0.732249
0.732901
0.733284
0.733383
0.733195
0.732723
0.731975
0.730972
0.729753
0.728371
0.726878
0.725322
0.723747
0.722195
0.720707
0.719318
0.718054
0.716936
0.715982
0.715207
0.714621
0.714225
0.714016
0.713979
0.7141
0.714356
0.714727
0.715188
0.715712
0.71627
0.716926
0.71769
0.721891
0.723013
0.723962
0.725159
0.726439
0.727739
0.728983
0.730097
0.731018
0.731692
0.732088
0.732192
0.732001
0.731517
0.730748
0.729718
0.728469
0.727054
0.725527
0.723937
0.722325
0.720736
0.719211
0.717786
0.716486
0.715332
0.714344
0.713535
0.712915
0.712483
0.712233
0.712151
0.712222
0.712426
0.712743
0.713148
0.713615
0.714115
0.714706
0.715418
0.720398
0.721501
0.722468
0.723696
0.725017
0.726361
0.727648
0.7288
0.72975
0.730443
0.730848
0.730953
0.730756
0.730259
0.729468
0.728411
0.727133
0.725688
0.724131
0.722509
0.720866
0.719246
0.71769
0.716233
0.714903
0.713719
0.712702
0.711865
0.711216
0.710751
0.710462
0.710337
0.710361
0.710516
0.710781
0.711134
0.711551
0.712001
0.712538
0.713208
0.718876
0.719959
0.720944
0.722203
0.723564
0.724949
0.726275
0.727462
0.728438
0.729146
0.729556
0.729658
0.729452
0.728937
0.728124
0.72704
0.725734
0.724263
0.722679
0.721029
0.719359
0.717712
0.71613
0.714649
0.713293
0.712086
0.711045
0.710185
0.709508
0.709012
0.708686
0.708519
0.708498
0.708605
0.708822
0.709129
0.709502
0.709912
0.710408
0.71105
0.717317
0.718383
0.719386
0.720675
0.722074
0.723498
0.724861
0.726078
0.727074
0.727792
0.728203
0.728299
0.728079
0.727544
0.726706
0.725596
0.724263
0.722767
0.721159
0.719487
0.717794
0.716126
0.714524
0.713022
0.711648
0.710421
0.709362
0.70848
0.70778
0.707253
0.70689
0.706682
0.706615
0.706676
0.706847
0.707111
0.707447
0.707828
0.708299
0.708933
0.715715
0.716768
0.717789
0.71911
0.720544
0.722003
0.723398
0.724641
0.725653
0.726376
0.726783
0.726867
0.726629
0.726071
0.725207
0.72407
0.722713
0.721194
0.719566
0.717874
0.716164
0.71448
0.712863
0.711347
0.709957
0.708716
0.707641
0.706741
0.706017
0.705459
0.705059
0.704807
0.704694
0.704707
0.704832
0.705056
0.705361
0.705722
0.706185
0.706835
0.714065
0.715108
0.71615
0.717501
0.718969
0.72046
0.721882
0.723145
0.724167
0.72489
0.725288
0.725357
0.725097
0.724513
0.723621
0.722458
0.721078
0.719539
0.717894
0.716187
0.714465
0.71277
0.711142
0.709615
0.708215
0.706964
0.705875
0.704957
0.704209
0.703619
0.703178
0.70288
0.702717
0.702679
0.702755
0.702937
0.703213
0.703563
0.704033
0.704727
0.712359
0.7134
0.714463
0.715844
0.717344
0.718864
0.720309
0.721587
0.722612
0.723329
0.723714
0.723763
0.723478
0.722866
0.721945
0.720756
0.719355
0.717799
0.71614
0.714423
0.712692
0.710991
0.709357
0.707824
0.706417
0.705157
0.704056
0.703121
0.702346
0.701721
0.701237
0.700888
0.700668
0.700571
0.700589
0.700721
0.700963
0.701308
0.701807
0.702582
0.710594
0.711639
0.712725
0.714136
0.715666
0.717212
0.718675
0.719961
0.720984
0.721689
0.722055
0.72208
0.721768
0.721126
0.720176
0.718963
0.717542
0.715972
0.714303
0.71258
0.710846
0.709142
0.707506
0.70597
0.704559
0.703292
0.70218
0.701225
0.700422
0.69976
0.699229
0.698822
0.698537
0.698366
0.698309
0.698368
0.698551
0.698876
0.699441
0.700406
0.708768
0.709824
0.710936
0.712377
0.713935
0.715502
0.716978
0.718265
0.71928
0.719968
0.720311
0.720308
0.719965
0.719293
0.718315
0.717078
0.715641
0.714059
0.712384
0.710659
0.708926
0.707224
0.705589
0.704053
0.702641
0.701368
0.700244
0.699269
0.698435
0.697732
0.697149
0.696679
0.696318
0.69606
0.695902
0.695844
0.695893
0.696075
0.6965
0.697588
0.830206
0.837857
0.841978
0.846369
0.849198
0.851705
0.853561
0.855116
0.856336
0.857342
0.858155
0.858807
0.85933
0.859725
0.859992
0.860144
0.860175
0.860135
0.859996
0.859779
0.859465
0.859079
0.858633
0.858118
0.857528
0.856846
0.856066
0.855185
0.854188
0.85308
0.851837
0.850463
0.848941
0.847274
0.845473
0.843551
0.841521
0.83944
0.837412
0.835678
0.826466
0.834617
0.83905
0.843693
0.846708
0.849301
0.851255
0.852858
0.854148
0.855165
0.85601
0.856702
0.857275
0.857686
0.857976
0.858164
0.858236
0.858217
0.858102
0.857906
0.857626
0.857267
0.856842
0.856341
0.855775
0.855117
0.854353
0.853489
0.852512
0.851412
0.85018
0.848812
0.847295
0.845641
0.843846
0.841928
0.839907
0.837837
0.835815
0.834084
0.822614
0.831326
0.836076
0.840989
0.844191
0.846882
0.848935
0.850588
0.851942
0.852979
0.853858
0.854591
0.855209
0.855639
0.855956
0.85618
0.856292
0.856293
0.856205
0.856031
0.855785
0.855455
0.855052
0.854566
0.854023
0.853389
0.852642
0.851795
0.85084
0.849748
0.848531
0.847173
0.845664
0.844026
0.842242
0.840334
0.838324
0.836269
0.834253
0.832527
0.818654
0.827988
0.833057
0.838263
0.84164
0.84446
0.846596
0.848308
0.849705
0.85079
0.851705
0.852476
0.853123
0.853588
0.853938
0.85419
0.854336
0.854365
0.854307
0.854159
0.853941
0.853639
0.85326
0.852799
0.852273
0.851661
0.850934
0.850105
0.849167
0.84809
0.846889
0.845544
0.844051
0.842427
0.840662
0.83877
0.836772
0.834733
0.832727
0.831007
0.81459
0.824603
0.829995
0.835512
0.839063
0.842028
0.84424
0.846017
0.847451
0.848595
0.849549
0.850356
0.851027
0.851532
0.851919
0.852196
0.852372
0.852432
0.852405
0.852286
0.852094
0.85182
0.851466
0.851034
0.850525
0.849933
0.84923
0.848418
0.847497
0.846439
0.845255
0.843928
0.842456
0.840847
0.839103
0.837233
0.835248
0.833226
0.831231
0.829516
0.810429
0.821169
0.826895
0.832734
0.836468
0.839576
0.841872
0.843715
0.845192
0.846391
0.847385
0.848229
0.848928
0.84947
0.849893
0.850198
0.850404
0.850495
0.850498
0.85041
0.850245
0.849999
0.84967
0.849269
0.848779
0.848209
0.847529
0.846736
0.845834
0.844797
0.843632
0.842325
0.840876
0.839286
0.837564
0.835719
0.833749
0.831744
0.829762
0.828052
0.806177
0.817691
0.823759
0.829931
0.833853
0.837106
0.839492
0.841404
0.842928
0.844179
0.845213
0.846095
0.846826
0.847405
0.847863
0.848197
0.848433
0.848554
0.848587
0.848532
0.848394
0.848178
0.847876
0.847503
0.847036
0.846487
0.845831
0.845059
0.844178
0.843163
0.84202
0.840735
0.839312
0.837744
0.836046
0.834227
0.832273
0.830286
0.82832
0.826615
0.801846
0.814171
0.820589
0.827104
0.83122
0.834618
0.8371
0.839082
0.840657
0.841959
0.843036
0.843956
0.844721
0.845335
0.845827
0.846191
0.846459
0.846611
0.846674
0.846651
0.846542
0.846357
0.846081
0.845736
0.845295
0.844767
0.844137
0.843387
0.842527
0.841538
0.840419
0.839157
0.837764
0.836221
0.834547
0.832756
0.830822
0.828852
0.826903
0.825203
0.797446
0.810616
0.81739
0.824254
0.82857
0.832115
0.834697
0.836752
0.838381
0.839733
0.840854
0.841811
0.842613
0.843261
0.843788
0.844183
0.844482
0.844667
0.84476
0.84477
0.844689
0.844535
0.844287
0.84397
0.843556
0.84305
0.842445
0.84172
0.840883
0.83992
0.838829
0.837594
0.83623
0.834717
0.833068
0.831305
0.829395
0.827442
0.825511
0.823816
0.792991
0.80703
0.814165
0.821382
0.825903
0.829597
0.832283
0.834414
0.836098
0.837501
0.838667
0.839663
0.840501
0.841185
0.841745
0.842172
0.842502
0.84272
0.842844
0.842887
0.842836
0.842712
0.842494
0.842203
0.841818
0.841335
0.840756
0.840058
0.839245
0.83831
0.83725
0.836043
0.834711
0.83323
0.831609
0.829874
0.827991
0.826055
0.824143
0.822456
0.788496
0.803418
0.810918
0.818491
0.823221
0.827066
0.829858
0.832068
0.833811
0.835265
0.836476
0.837513
0.838387
0.839106
0.8397
0.840159
0.840522
0.840772
0.840926
0.841003
0.840982
0.840889
0.840701
0.840436
0.840081
0.839621
0.839069
0.8384
0.837614
0.836708
0.83568
0.834507
0.833206
0.831759
0.830168
0.828462
0.826609
0.824691
0.822801
0.821122
0.783978
0.799786
0.807653
0.815581
0.820523
0.824521
0.827424
0.829716
0.83152
0.833026
0.834283
0.83536
0.83627
0.837026
0.837653
0.838145
0.838539
0.838823
0.839008
0.839117
0.839128
0.839065
0.838909
0.838668
0.838344
0.83791
0.837385
0.836745
0.835989
0.835114
0.834121
0.832982
0.831715
0.830305
0.828747
0.82707
0.825249
0.823351
0.821483
0.819815
0.779456
0.796142
0.804376
0.812654
0.817813
0.821965
0.824982
0.827358
0.829226
0.830784
0.832087
0.833205
0.834151
0.834944
0.835605
0.83613
0.836556
0.836872
0.837088
0.83723
0.837273
0.837241
0.837116
0.836901
0.836606
0.836201
0.835704
0.835094
0.834369
0.833529
0.832571
0.831469
0.830237
0.828866
0.827344
0.825696
0.823911
0.822036
0.82019
0.818532
0.774946
0.792491
0.801092
0.809714
0.815091
0.819398
0.822533
0.824996
0.82693
0.828542
0.829891
0.83105
0.832032
0.832861
0.833556
0.834115
0.834573
0.834922
0.83517
0.835343
0.83542
0.835416
0.835323
0.835135
0.834869
0.834494
0.834025
0.833448
0.832755
0.831952
0.831031
0.829966
0.828771
0.82744
0.825958
0.82434
0.822594
0.820745
0.818921
0.817275
0.770472
0.788841
0.797805
0.80676
0.812358
0.816821
0.820078
0.82263
0.824634
0.826299
0.827694
0.828894
0.829912
0.830779
0.831509
0.832101
0.832591
0.832972
0.833252
0.833457
0.833567
0.833592
0.83353
0.83337
0.833133
0.832788
0.832349
0.831806
0.831148
0.830382
0.829498
0.828474
0.827317
0.826028
0.824588
0.823004
0.821297
0.819478
0.817676
0.816041
0.766053
0.7852
0.794522
0.803797
0.809616
0.814236
0.817618
0.820262
0.822337
0.824056
0.825498
0.826737
0.827793
0.828698
0.829462
0.830089
0.83061
0.831024
0.831337
0.831573
0.831715
0.831768
0.831737
0.831608
0.831398
0.831084
0.830675
0.830168
0.829546
0.828818
0.827973
0.82699
0.825874
0.824628
0.823233
0.821687
0.820021
0.818234
0.816454
0.814832
0.761708
0.781578
0.791249
0.800827
0.806866
0.811644
0.815154
0.817892
0.82004
0.821814
0.823302
0.824582
0.825675
0.826618
0.827418
0.828078
0.828632
0.829078
0.829424
0.829689
0.829864
0.829945
0.829944
0.829847
0.829664
0.829383
0.829005
0.828534
0.82795
0.827259
0.826454
0.825515
0.824441
0.823239
0.821893
0.820389
0.818765
0.817015
0.815257
0.813648
0.757451
0.777979
0.78799
0.797851
0.804109
0.809046
0.812687
0.815522
0.817744
0.819574
0.821108
0.82243
0.823562
0.824543
0.825377
0.82607
0.826657
0.827134
0.827513
0.827808
0.828014
0.828124
0.828152
0.828086
0.82793
0.827682
0.827337
0.826903
0.826358
0.825706
0.82494
0.824047
0.823018
0.821862
0.820567
0.819111
0.817529
0.815818
0.814086
0.812489
0.75329
0.77441
0.784752
0.794874
0.801348
0.806445
0.810218
0.813153
0.815451
0.817337
0.818919
0.820283
0.821453
0.822471
0.82334
0.824065
0.824684
0.825192
0.825604
0.825928
0.826164
0.826304
0.826359
0.826325
0.826196
0.825983
0.825672
0.825274
0.82477
0.824158
0.823432
0.822586
0.821602
0.820496
0.819255
0.817851
0.816312
0.814645
0.812942
0.811356
0.749238
0.770877
0.781536
0.791898
0.798583
0.803842
0.807749
0.810787
0.813161
0.815106
0.816736
0.818143
0.819352
0.820406
0.821307
0.822064
0.822714
0.823253
0.823697
0.824049
0.824315
0.824486
0.824566
0.824564
0.824464
0.824285
0.82401
0.823647
0.823185
0.822614
0.821928
0.82113
0.820195
0.819141
0.817956
0.816608
0.815116
0.813494
0.811824
0.810249
0.745319
0.767385
0.778348
0.788925
0.795817
0.801239
0.805282
0.808424
0.810877
0.812881
0.814562
0.816012
0.817258
0.818348
0.819279
0.820067
0.820748
0.821317
0.821792
0.822174
0.822467
0.822668
0.822775
0.822803
0.822733
0.822588
0.82235
0.822022
0.821602
0.821072
0.820427
0.819679
0.818793
0.817795
0.816667
0.81538
0.813939
0.812366
0.810733
0.809169
0.741553
0.763941
0.775189
0.785958
0.793053
0.798638
0.802819
0.806066
0.808601
0.810665
0.812397
0.81389
0.815173
0.816297
0.817257
0.818077
0.818787
0.819384
0.81989
0.8203
0.82062
0.820851
0.820984
0.821042
0.821003
0.820892
0.820691
0.820398
0.82002
0.819532
0.818928
0.81823
0.817397
0.816457
0.815389
0.814167
0.812781
0.811261
0.809667
0.808116
0.737944
0.76055
0.772062
0.783
0.790292
0.796041
0.800361
0.803714
0.806332
0.808457
0.810243
0.811777
0.813097
0.814253
0.815242
0.816092
0.81683
0.817455
0.817991
0.818429
0.818775
0.819035
0.819194
0.819282
0.819274
0.819196
0.819033
0.818775
0.818437
0.817992
0.81743
0.816783
0.816006
0.815126
0.814121
0.812966
0.811643
0.810179
0.808629
0.807091
0.73449
0.757216
0.768969
0.780051
0.787537
0.79345
0.797909
0.801369
0.804073
0.806261
0.8081
0.809675
0.81103
0.812217
0.813235
0.814115
0.81488
0.815532
0.816096
0.816561
0.816932
0.817221
0.817405
0.817522
0.817547
0.8175
0.817374
0.817152
0.816854
0.816451
0.815932
0.815336
0.814618
0.813801
0.81286
0.811778
0.810523
0.80912
0.807618
0.806097
0.73119
0.753946
0.765914
0.777116
0.784791
0.790866
0.795466
0.799034
0.801826
0.804078
0.805971
0.807586
0.808974
0.810192
0.811236
0.812145
0.812936
0.813613
0.814204
0.814696
0.815091
0.815407
0.815618
0.815763
0.815819
0.815803
0.815713
0.815527
0.815267
0.814907
0.814433
0.81389
0.813232
0.81248
0.811608
0.810602
0.809422
0.808086
0.806636
0.805134
0.728046
0.750742
0.762898
0.774198
0.782055
0.788293
0.793033
0.796712
0.799593
0.801911
0.803856
0.80551
0.806931
0.808178
0.809248
0.810184
0.810999
0.811702
0.812317
0.812835
0.813252
0.813595
0.813832
0.814004
0.81409
0.814105
0.81405
0.813899
0.813678
0.81336
0.812934
0.812444
0.811848
0.811163
0.810364
0.809438
0.808338
0.807076
0.805684
0.804204
0.725062
0.74761
0.759924
0.771299
0.779334
0.785734
0.790614
0.794405
0.797376
0.799762
0.801758
0.803451
0.804904
0.806177
0.807273
0.808232
0.809071
0.809798
0.810436
0.810978
0.811418
0.811784
0.812048
0.812246
0.812361
0.812405
0.812384
0.812269
0.812086
0.811809
0.811434
0.810997
0.810465
0.809849
0.809126
0.808283
0.807272
0.806092
0.804765
0.803311
0.722238
0.744553
0.756994
0.768423
0.776631
0.78319
0.788211
0.792115
0.795179
0.797632
0.799678
0.801411
0.802893
0.804192
0.80531
0.806292
0.807153
0.807902
0.808561
0.809125
0.809587
0.809977
0.810265
0.810488
0.810631
0.810704
0.810716
0.810635
0.810489
0.810255
0.809931
0.809549
0.809081
0.808536
0.807892
0.807138
0.806221
0.805133
0.803881
0.802456
0.719571
0.741575
0.75411
0.765573
0.773949
0.780664
0.785827
0.789845
0.793001
0.795522
0.797619
0.799389
0.8009
0.802222
0.803362
0.804363
0.805245
0.806015
0.806694
0.807279
0.807761
0.808172
0.808484
0.80873
0.8089
0.809002
0.809045
0.808997
0.80889
0.808698
0.808426
0.808099
0.807696
0.807223
0.806662
0.806001
0.805185
0.804199
0.803033
0.801645
0.717059
0.738677
0.751274
0.762753
0.771293
0.77816
0.783465
0.787597
0.790846
0.793434
0.795581
0.797387
0.798926
0.800268
0.801428
0.802448
0.80335
0.804138
0.804834
0.805438
0.805939
0.80637
0.806705
0.806973
0.807169
0.807299
0.807371
0.807357
0.807287
0.807138
0.806918
0.806646
0.806308
0.805908
0.805433
0.80487
0.804162
0.803291
0.802224
0.800882
0.7147
0.73586
0.748488
0.759966
0.768665
0.775683
0.781128
0.785375
0.788715
0.79137
0.793566
0.795406
0.796971
0.798332
0.799509
0.800547
0.801466
0.802271
0.802983
0.803604
0.804123
0.804571
0.804927
0.805218
0.805437
0.805595
0.805695
0.805713
0.805681
0.805574
0.805405
0.805188
0.804917
0.80459
0.804203
0.803742
0.803151
0.802406
0.801457
0.800171
0.712491
0.733124
0.745753
0.757218
0.766071
0.773236
0.778819
0.783182
0.786611
0.789333
0.791577
0.793447
0.795036
0.796415
0.797608
0.798661
0.799596
0.800416
0.801141
0.801778
0.802313
0.802776
0.803152
0.803464
0.803706
0.803889
0.804017
0.804067
0.804072
0.804006
0.803888
0.803727
0.803521
0.803268
0.80297
0.802616
0.80215
0.801546
0.800733
0.799521
0.710431
0.730466
0.74307
0.754516
0.763514
0.770825
0.776542
0.781019
0.784537
0.787325
0.789614
0.791513
0.793124
0.794517
0.795725
0.796793
0.79774
0.798572
0.799309
0.799958
0.800508
0.800985
0.801379
0.801712
0.801975
0.802183
0.802336
0.802419
0.802459
0.802433
0.802364
0.802259
0.802119
0.80194
0.801732
0.801489
0.801156
0.800708
0.800056
0.798938
0.708517
0.727886
0.740441
0.751863
0.761
0.76845
0.7743
0.77889
0.782496
0.785348
0.78768
0.789605
0.791235
0.792642
0.793862
0.794942
0.795899
0.796741
0.797488
0.798147
0.798709
0.7992
0.79961
0.799962
0.800243
0.800476
0.800653
0.800767
0.80084
0.800855
0.800835
0.800784
0.80071
0.800604
0.800488
0.800358
0.800167
0.799889
0.799426
0.798432
0.706752
0.725383
0.737873
0.74927
0.758536
0.766119
0.7721
0.776799
0.780491
0.783405
0.785776
0.787726
0.789372
0.79079
0.79202
0.793109
0.794074
0.794923
0.795677
0.796343
0.796917
0.797419
0.797843
0.798212
0.79851
0.798767
0.798967
0.79911
0.799216
0.799272
0.799299
0.799302
0.799292
0.79926
0.799235
0.79922
0.799178
0.799088
0.798845
0.798017
0.705137
0.722961
0.735381
0.746754
0.756137
0.763844
0.769951
0.774754
0.778528
0.781501
0.783907
0.78588
0.787539
0.788965
0.790202
0.791297
0.792265
0.793119
0.793878
0.794549
0.795131
0.795642
0.796079
0.796462
0.796777
0.797055
0.797278
0.797449
0.797586
0.797683
0.797755
0.79781
0.797864
0.797905
0.79797
0.79807
0.798183
0.798298
0.798313
0.797708
0.70368
0.720631
0.73298
0.744329
0.753815
0.761636
0.767862
0.772765
0.776615
0.779643
0.782079
0.784071
0.78574
0.787171
0.788411
0.789506
0.790475
0.791331
0.792091
0.792764
0.793352
0.793871
0.794317
0.794713
0.795044
0.795341
0.795584
0.795783
0.795951
0.796087
0.796204
0.79631
0.796424
0.796538
0.796692
0.796906
0.797178
0.797514
0.797829
0.797525
0.70238
0.718342
0.730606
0.741925
0.7515
0.759432
0.765774
0.770779
0.774704
0.777787
0.780256
0.782265
0.783943
0.785376
0.786617
0.78771
0.788676
0.789531
0.790292
0.790965
0.791557
0.792081
0.792537
0.792945
0.793291
0.793606
0.79387
0.794097
0.794295
0.79447
0.794631
0.794787
0.794961
0.795146
0.795387
0.795714
0.796147
0.796721
0.797383
0.797493
0.701141
0.715947
0.728113
0.739398
0.749059
0.757107
0.763577
0.768691
0.772701
0.775846
0.778355
0.780389
0.782081
0.783519
0.784762
0.785854
0.78682
0.787676
0.788438
0.789113
0.789712
0.790242
0.79071
0.79113
0.791495
0.791828
0.792116
0.792372
0.792602
0.792816
0.793021
0.793228
0.79346
0.793716
0.794043
0.794481
0.795074
0.7959
0.796964
0.797645
0.700122
0.713849
0.725963
0.737192
0.746878
0.754985
0.761537
0.766725
0.770788
0.773971
0.776498
0.778543
0.780239
0.781679
0.782924
0.784016
0.784983
0.78584
0.786603
0.78728
0.787884
0.78842
0.788899
0.789329
0.78971
0.790059
0.790369
0.79065
0.79091
0.791158
0.791404
0.791657
0.791939
0.792261
0.792665
0.793204
0.793945
0.795018
0.796513
0.797956
0.696018
0.708743
0.721013
0.732236
0.741918
0.750069
0.756741
0.762045
0.766162
0.769311
0.771738
0.773667
0.775266
0.776638
0.777843
0.778909
0.779855
0.780694
0.781439
0.782102
0.782697
0.783229
0.783714
0.784154
0.784558
0.784931
0.785279
0.785612
0.785931
0.786253
0.786585
0.78694
0.787338
0.787807
0.788388
0.789159
0.79024
0.791912
0.794583
0.798609
0.684703
0.696863
0.708499
0.719055
0.728283
0.73623
0.742878
0.748285
0.752598
0.75601
0.758725
0.760936
0.762791
0.764391
0.765797
0.767047
0.768165
0.769168
0.770074
0.770895
0.771643
0.772329
0.772962
0.77355
0.774099
0.774617
0.775109
0.775583
0.776045
0.776507
0.77698
0.77748
0.778027
0.778658
0.779423
0.780421
0.781814
0.78401
0.787563
0.792842
0.6726
0.684252
0.69521
0.705248
0.714152
0.721941
0.72857
0.734078
0.738589
0.74226
0.745259
0.747746
0.749857
0.751688
0.753305
0.754751
0.756054
0.757238