/*--------------------------------*- C++ -*----------------------------------*\
  =========                 |
  \\      /  F ield         | OpenFOAM: The Open Source CFD Toolbox
   \\    /   O peration     | Website:  https://openfoam.org
    \\  /    A nd           | Version:  7
     \\/     M anipulation  |
\*---------------------------------------------------------------------------*/
FoamFile
{
    version     2.0;
    format      ascii;
    class       surfaceScalarField;
    location    "3.7";
    object      phi;
}
// * * * * * * * * * * * * * * * * * * * * * * * * * * * * * * * * * * * * * //

dimensions      [0 3 -1 0 0 0 0];

internalField   nonuniform List<scalar> 
63520
(
-1.7979e-05
0.000424904
-0.000406925
-6.04318e-05
0.00119872
-0.00115627
-0.00012123
0.00191427
-0.00185348
-0.000195395
0.00255406
-0.0024799
-0.000278755
0.00311651
-0.00303315
-0.000367681
0.0036067
-0.00351777
-0.00045899
0.00403184
-0.00394053
-0.00054988
0.00439951
-0.00430862
-0.000637931
0.00471667
-0.00462862
-0.00072103
0.00498912
-0.00490602
-0.000797388
0.00522158
-0.00514522
-0.000865511
0.00541754
-0.00534942
-0.00092413
0.00557954
-0.00552092
-0.000972177
0.00570946
-0.00566141
-0.00100878
0.00580876
-0.00577216
-0.00103321
0.00587866
-0.00585423
-0.00104487
0.00592033
-0.00590867
-0.00104325
0.00593497
-0.00593659
-0.00102794
0.0059239
-0.00593921
-0.000998621
0.00588857
-0.00591789
-0.000955037
0.0058306
-0.00587418
-0.000897005
0.00575175
-0.00580978
-0.000824412
0.00565392
-0.00572651
-0.000737214
0.00553911
-0.00562631
-0.000635429
0.00540942
-0.0055112
-0.000519145
0.00526696
-0.00538325
-0.000388522
0.00511389
-0.00524452
-0.000243797
0.00495235
-0.00509707
-8.52885e-05
0.00478444
-0.00494295
8.65997e-05
0.00461223
-0.00478412
0.000271375
0.00443772
-0.0046225
0.000468447
0.00426283
-0.0044599
0.00067711
0.00408939
-0.00429805
0.000896537
0.00391918
-0.00413861
0.00112574
0.00375392
-0.00398312
0.00136358
0.00359525
-0.00383308
0.00160864
0.00344482
-0.00368988
0.00185924
0.00330411
-0.00355471
0.00211336
0.0031765
-0.00343062
0.00306679
0.00236845
-0.00332188
-1.71314e-05
0.000442036
-5.76115e-05
0.0012392
-0.000115668
0.00197233
-0.000186678
0.00262507
-0.00026673
0.00319656
-0.000352389
0.00369236
-0.000440598
0.00412005
-0.000528613
0.00448752
-0.000614045
0.0048021
-0.000694828
0.0050699
-0.000769164
0.00529592
-0.000835518
0.0054839
-0.000892605
0.00563662
-0.000939352
0.0057562
-0.000974854
0.00584426
-0.000998348
0.00590216
-0.0010092
0.00593118
-0.00100686
0.00593264
-0.000990894
0.00590793
-0.00096092
0.00585859
-0.000916646
0.00578632
-0.000857847
0.00569295
-0.000784364
0.00558043
-0.000696107
0.00545086
-0.00059305
0.00530636
-0.000475245
0.00514916
-0.000342819
0.00498147
-0.000195985
0.00480551
-3.50396e-05
0.00462349
0.000139633
0.00443756
0.000327552
0.0042498
0.000528134
0.00406225
0.000740679
0.00387685
0.000964368
0.0036955
0.00119822
0.00352006
0.00144107
0.00335239
0.00169153
0.00319436
0.00194787
0.00304777
0.00220799
0.00291638
0.00280557
0.00246921
-1.61252e-05
0.000458161
-5.42429e-05
0.00127732
-0.000109042
0.00202713
-0.000176266
0.0026923
-0.000252299
0.00327259
-0.000333895
0.00377395
-0.000418149
0.0042043
-0.000502424
0.0045718
-0.000584363
0.00488404
-0.000661916
0.00514746
-0.000733279
0.00536728
-0.000796922
0.00554754
-0.000851546
0.00569125
-0.00089604
0.0058007
-0.000929477
0.0058777
-0.000951074
0.00592375
-0.000960152
0.00594025
-0.000956139
0.00592862
-0.000938556
0.00589035
-0.000906993
0.00582703
-0.000861111
0.00574044
-0.000800647
0.00563248
-0.00072541
0.0055052
-0.000635268
0.00536071
-0.000530163
0.00520126
-0.000410119
0.00502911
-0.00027524
0.00484659
-0.000125714
0.00465599
3.81771e-05
0.0044596
0.000216059
0.00425968
0.000407459
0.0040584
0.000611804
0.0038579
0.000828402
0.00366025
0.00105644
0.00346746
0.00129494
0.00328156
0.00154277
0.00310457
0.00179853
0.0029386
0.00206049
0.0027858
0.00232652
0.00265035
0.00253825
0.00259384
-1.49419e-05
0.000473102
-5.0395e-05
0.00131277
-0.00010149
0.00207822
-0.000164353
0.00275516
-0.000235676
0.00334392
-0.000312453
0.00385073
-0.000391932
0.00428378
-0.000471575
0.00465144
-0.000549082
0.00496154
-0.000622445
0.00522082
-0.000689872
0.00543471
-0.000749811
0.00560748
-0.000800947
0.00574238
-0.000842166
0.00584192
-0.000872511
0.00590804
-0.000891163
0.0059424
-0.000897428
0.00594652
-0.000890706
0.0059219
-0.000870478
0.00587012
-0.000836303
0.00579286
-0.000787818
0.00569196
-0.000724729
0.0055694
-0.000646807
0.00542727
-0.000553893
0.0052678
-0.00044591
0.00509328
-0.000322858
0.00490606
-0.000184822
0.00470855
-3.19802e-05
0.00450315
0.000135395
0.00429223
0.000316937
0.00407814
0.000512179
0.00386316
0.000720549
0.00364953
0.000941364
0.00343943
0.00117382
0.00323501
0.00141697
0.00303841
0.00166968
0.00285185
0.00193061
0.00267768
0.00219804
0.00251837
0.00246982
0.00237857
0.00226497
0.00274309
-1.36439e-05
0.000486746
-4.61034e-05
0.00134523
-9.30248e-05
0.00212514
-0.000150955
0.00281309
-0.000216902
0.00340986
-0.000288099
0.00392193
-0.000361964
0.00435764
-0.000436093
0.00472557
-0.000508256
0.00503371
-0.000576461
0.00528902
-0.000638942
0.00549719
-0.000694155
0.00566269
-0.00074077
0.005789
-0.000777651
0.0058788
-0.000803824
0.00593422
-0.000818453
0.00595703
-0.000820816
0.00594888
-0.000810286
0.00591137
-0.000786324
0.00584615
-0.000748467
0.005755
-0.000696325
0.00563981
-0.00062958
0.00550265
-0.000547982
0.00534568
-0.000451357
0.00517118
-0.000339609
0.00498153
-0.000212726
0.00477918
-7.07875e-05
0.00456661
8.60355e-05
0.00434632
0.000257473
0.00412079
0.000443159
0.00389245
0.000642626
0.00366369
0.000855302
0.00343686
0.00108051
0.00321423
0.00131746
0.00299806
0.00156522
0.00279064
0.00182272
0.00259435
0.00208863
0.00241177
0.0023613
0.00224571
0.00263859
0.00210127
0.00198596
0.0029176
-1.22044e-05
0.000498951
-4.13887e-05
0.00137442
-8.37286e-05
0.00216748
-0.000136191
0.00286555
-0.000196121
0.00346979
-0.000261017
0.00398682
-0.000328472
0.0044251
-0.000396211
0.00479331
-0.000462095
0.00509959
-0.000524173
0.0053511
-0.000580701
0.00555372
-0.000630136
0.00571213
-0.00067115
0.00583001
-0.000702596
0.00591024
-0.00072348
0.0059551
-0.000732946
0.0059665
-0.000730259
0.00594619
-0.000714776
0.00589589
-0.000685937
0.00581732
-0.000643262
0.00571232
-0.00058635
0.0055829
-0.000514869
0.00543117
-0.000428554
0.00525936
-0.000327222
0.00506984
-0.000210774
0.00486508
-7.91959e-05
0.0046476
6.74346e-05
0.00441998
0.000228942
0.00418481
0.000405054
0.00394468
0.000595397
0.00370211
0.000799496
0.00345959
0.00101678
0.00321958
0.00124657
0.00298444
0.00148809
0.00275654
0.00174044
0.00253828
0.00200259
0.0023322
0.00227328
0.00214109
0.00255091
0.00196808
0.00283341
0.00181877
0.00170152
0.00311786
-1.06678e-05
0.000509618
-3.63163e-05
0.00140007
-7.3679e-05
0.00220485
-0.000120172
0.00291205
-0.000173482
0.0035231
-0.000231372
0.00404471
-0.000291631
0.00448536
-0.000352125
0.0048538
-0.000410809
0.00515827
-0.000465783
0.00540608
-0.000515332
0.00560326
-0.000557932
0.00575472
-0.000592253
0.00586433
-0.000617136
0.00593513
-0.000631579
0.00596954
-0.000634718
0.00596964
-0.000625804
0.00593728
-0.000604181
0.00587426
-0.000569281
0.00578242
-0.00052062
0.00566366
-0.000457791
0.00552007
-0.000380451
0.00535383
-0.000288338
0.00516725
-0.00018127
0.00496278
-5.91544e-05
0.00474296
7.80193e-05
0.00451043
0.000230163
0.00426784
0.00039709
0.00401789
0.000578514
0.00376325
0.000774051
0.00350657
0.000983215
0.00325043
0.00120542
0.00299737
0.00144
0.00274986
0.00168618
0.00251036
0.0019431
0.00228136
0.00220976
0.00206554
0.00248498
0.00186587
0.00276726
0.0016858
0.00305462
0.00153141
0.00141198
0.00334415
-9.04963e-06
0.000518668
-3.09361e-05
0.00142195
-6.29746e-05
0.00223689
-0.000103036
0.00295211
-0.000149154
0.00356922
-0.000199372
0.00409493
-0.000251682
0.00453767
-0.000304093
0.00490621
-0.000354668
0.00520885
-0.000401572
0.00545298
-0.000443124
0.00564482
-0.000477824
0.00578942
-0.000504346
0.00589085
-0.000521529
0.00595231
-0.000528368
0.00597638
-0.000523994
0.00596527
-0.000507652
0.00592094
-0.000478681
0.00584529
-0.000436517
0.00574025
-0.000380677
0.00560782
-0.000310753
0.00545015
-0.00022641
0.00526949
-0.000127395
0.00506823
-1.35402e-05
0.00484892
0.000115238
0.00461419
0.00025893
0.00436674
0.000417431
0.00410934
0.000590533
0.00384479
0.000777933
0.00357585
0.000979226
0.00330528
0.00119391
0.00303575
0.00142138
0.00276989
0.00166097
0.00251027
0.00191192
0.00225941
0.00217338
0.0020199
0.00244442
0.0017945
0.00272392
0.00158637
0.0030105
0.00139922
0.0033023
0.00123961
0.00111779
0.0035965
-7.37084e-06
0.000526039
-2.53094e-05
0.00143989
-5.17208e-05
0.0022633
-8.49378e-05
0.00298532
-0.000123347
0.00360763
-0.000165268
0.00413685
-0.00020891
0.00458131
-0.000252436
0.00494974
-0.00029402
0.00525043
-0.000331904
0.00549086
-0.000364454
0.00567737
-0.000390197
0.00581517
-0.000407819
0.00590848
-0.000416167
0.00596066
-0.000414235
0.00597445
-0.000401156
0.00595219
-0.000376178
0.00589596
-0.000338648
0.00580776
-0.000288007
0.00568961
-0.000223784
0.0055436
-0.00014558
0.00537195
-5.30795e-05
0.00517698
5.39505e-05
0.0049612
0.000175656
0.00472722
0.000312099
0.00447774
0.000463243
0.00421559
0.000628955
0.00394363
0.000809002
0.00366474
0.00100305
0.0033818
0.00121068
0.00309765
0.00143135
0.00281508
0.00166445
0.00253679
0.0019093
0.00226542
0.00216514
0.00200358
0.00243114
0.0017539
0.00270642
0.00151923
0.00298995
0.00130283
0.00328047
0.00110869
0.00357628
0.000943803
0.00081939
0.00387467
-5.65148e-06
0.00053169
-1.94979e-05
0.00145374
-4.0035e-05
0.00228383
-6.60532e-05
0.00301134
-9.6291e-05
0.00363787
-0.000129348
0.00416991
-0.000163653
0.00461561
-0.000197531
0.00498361
-0.000229281
0.00528218
-0.000257227
0.00551881
-0.000279795
0.00569993
-0.000295545
0.00583092
-0.000303186
0.00591612
-0.000301574
0.00595905
-0.000289716
0.00596259
-0.000266754
0.00592922
-0.000231944
0.00586115
-0.000184649
0.00576047
-0.000124327
0.00562929
-5.05238e-05
0.0054698
3.71357e-05
0.00528429
0.00013894
0.00507518
0.000255091
0.00484505
0.000385706
0.0045966
0.000530811
0.00433264
0.000690337
0.00405607
0.000864113
0.00376985
0.00105187
0.00347698
0.00125326
0.00318042
0.0014678
0.00288311
0.00169494
0.00258794
0.00193404
0.00229768
0.00218441
0.00201506
0.00244527
0.00174271
0.00271583
0.00148334
0.00299524
0.00123982
0.00328255
0.00101552
0.00357664
0.000814602
0.00387598
0.000644459
0.000517309
0.00417807
-3.91043e-06
0.0005356
-1.35663e-05
0.00146339
-2.80422e-05
0.00229831
-4.65729e-05
0.00302987
-6.8244e-05
0.00365954
-9.19323e-05
0.0041936
-0.00011629
0.00463997
-0.000139816
0.00500714
-0.000160936
0.0053033
-0.000178071
0.00553594
-0.000189716
0.00571158
-0.000194474
0.00583567
-0.000191081
0.00591273
-0.000178418
0.00594638
-0.000155508
0.00593968
-0.00012151
0.00589523
-7.56986e-05
0.00581534
-1.74599e-05
0.00570223
5.37227e-05
0.00555811
0.000138276
0.00538524
0.000236542
0.00518602
0.00034877
0.00496295
0.000475125
0.0047187
0.000615683
0.00445604
0.000770427
0.00417789
0.000939243
0.00388725
0.00112192
0.00358717
0.00131815
0.00328074
0.00152754
0.00297104
0.00174957
0.00266108
0.00198366
0.00235385
0.00222914
0.0020522
0.0024853
0.0017589
0.00275135
0.00147666
0.00302649
0.00120819
0.00330993
0.00095639
0.00360079
0.000724657
0.00389809
0.000517306
0.00420049
0.000342056
0.000212083
0.00450572
-2.16742e-06
0.000537768
-7.58275e-06
0.00146881
-1.58733e-05
0.0023066
-2.66988e-05
0.0030407
-3.94823e-05
0.00367232
-5.33714e-05
0.00420748
-6.72438e-05
0.00465384
-7.97765e-05
0.00501967
-8.95343e-05
0.00531306
-9.50442e-05
0.00554145
-9.48776e-05
0.00571141
-8.76926e-05
0.00582849
-7.22638e-05
0.0058973
-4.75029e-05
0.00592162
-1.24607e-05
0.00590464
3.36814e-05
0.00584908
9.1619e-05
0.0057574
0.000161935
0.00563191
0.000245112
0.00547493
0.00034154
0.00528882
0.000451517
0.00507604
0.000575246
0.00483922
0.000712843
0.0045811
0.000864336
0.00430455
0.00102966
0.00401258
0.00120864
0.00370827
0.00140102
0.00339479
0.00160645
0.00307531
0.00182448
0.00275301
0.00205456
0.002431
0.00229607
0.00211234
0.0025483
0.00179997
0.00281051
0.0014967
0.00308191
0.00120527
0.00336169
0.000928405
0.00364908
0.000669003
0.00394328
0.000430455
0.00424344
0.000217154
0.00454842
3.70688e-05
-9.57344e-05
0.00485624
-4.49958e-07
0.000538218
-1.61601e-06
0.00146997
-3.66276e-06
0.00230865
-6.64325e-06
0.00304368
-1.0299e-05
0.00367598
-1.40399e-05
0.00421122
-1.69696e-05
0.00465677
-1.7948e-05
0.00502065
-1.56862e-05
0.0053108
-8.82754e-06
0.0055346
3.96956e-06
0.00569861
2.39822e-05
0.00580848
5.23857e-05
0.00586889
9.02279e-05
0.00588378
0.000138422
0.00585645
0.000197753
0.00578975
0.000268878
0.00568628
0.000352341
0.00554845
0.000448584
0.00537869
0.000557947
0.00517945
0.000680675
0.00495332
0.000816917
0.00470298
0.000966734
0.00443128
0.00113009
0.00414119
0.00130687
0.0038358
0.00149684
0.0035183
0.00169968
0.00319194
0.001915
0.00286
0.00214228
0.00252573
0.00238093
0.00219234
0.0026303
0.00186298
0.00288963
0.00154063
0.00315816
0.00122817
0.00343506
0.000928361
0.00371954
0.000643925
0.00401082
0.000377723
0.00430817
0.000133102
0.00461085
-8.5526e-05
0.00491797
-0.000270043
-0.000405586
0.00522782
1.24265e-06
0.000536975
4.26572e-06
0.00146695
8.4506e-06
0.00230446
1.33758e-05
0.00303875
1.90018e-05
0.00367035
2.56672e-05
0.00420456
3.40466e-05
0.00464839
4.50942e-05
0.0050096
5.99454e-05
0.00529594
7.9831e-05
0.00551471
0.000105995
0.00567245
0.000139639
0.00577483
0.000181876
0.00582666
0.000233704
0.00583195
0.000295989
0.00579416
0.000369471
0.00571627
0.000454765
0.00560098
0.000552365
0.00545085
0.00066266
0.00526839
0.000785934
0.00505618
0.000922371
0.00481688
0.00107206
0.00455329
0.00123499
0.00426835
0.00141107
0.00396511
0.00160011
0.00364676
0.00180181
0.0033166
0.00201581
0.00297795
0.00224163
0.00263418
0.00247872
0.00228864
0.00272643
0.00194463
0.00298405
0.00160535
0.00325081
0.00127387
0.00352589
0.000953089
0.00380846
0.000645795
0.00409769
0.000354695
0.00439282
8.25963e-05
0.00469315
-0.000167234
0.00499806
-0.000390437
0.00530686
-0.000578841
-0.000716923
0.0056182
2.86815e-06
0.000534107
9.99211e-06
0.00145983
2.03295e-05
0.00229412
3.31383e-05
0.00302594
4.81089e-05
0.00365538
6.53421e-05
0.00418733
8.52979e-05
0.00462844
0.000108743
0.00498616
0.000136654
0.00526803
0.000170126
0.00548124
0.000210297
0.00563228
0.000258278
0.00572685
0.000315113
0.00576982
0.000381733
0.00576533
0.000458951
0.00571694
0.000547453
0.00562777
0.000647797
0.00550064
0.000760423
0.00533822
0.000885657
0.00514316
0.00102372
0.00491812
0.00117472
0.00466588
0.00133869
0.00438933
0.00151554
0.0040915
0.0017051
0.00377555
0.00190712
0.00344475
0.00212122
0.00310249
0.00234698
0.00275219
0.00258386
0.0023973
0.00283124
0.00204126
0.00308843
0.00168744
0.00335467
0.00133912
0.00362914
0.000999399
0.00391099
0.000671241
0.00419935
0.000357433
0.00449338
6.06621e-05
0.00479232
-0.000216336
0.00509549
-0.000470409
0.00540236
-0.000697307
0.00571244
-0.00088892
-0.00102922
0.00602474
4.41574e-06
0.000529691
1.54961e-05
0.00144875
3.18384e-05
0.00227778
5.24261e-05
0.00300536
7.67101e-05
0.0036311
0.000104571
0.00415946
0.000136264
0.00459674
0.000172371
0.00495005
0.000213701
0.0052267
0.000261209
0.00543373
0.000315914
0.00557758
0.000378831
0.00566394
0.000450914
0.00569774
0.000533024
0.00568322
0.000625905
0.00562406
0.000730179
0.0055235
0.000846342
0.00538448
0.000974767
0.0052098
0.00111571
0.00500221
0.00126932
0.00476451
0.00143563
0.00449956
0.0016146
0.00421037
0.00180605
0.00390004
0.00200976
0.00357184
0.00222536
0.00322914
0.00245245
0.0028754
0.00269049
0.00251414
0.0029389
0.00214889
0.00319699
0.00178316
0.00346402
0.00142041
0.00373917
0.00106397
0.00402158
0.000716984
0.00431037
0.000382453
0.00460463
6.31709e-05
0.0049035
-0.000238209
0.0052062
-0.000519033
0.00551208
-0.000776289
0.00582067
-0.0010059
0.00613166
-0.00119991
-0.00134198
0.00644442
5.86652e-06
0.000523824
2.07137e-05
0.0014339
4.28472e-05
0.00225565
7.10269e-05
0.00297718
0.000104498
0.00359762
0.000142943
0.00412102
0.000186423
0.00455326
0.000235337
0.00490114
0.000290327
0.00517171
0.0003522
0.00537186
0.000421847
0.00550793
0.000500171
0.00558561
0.000588031
0.00560988
0.000686202
0.00558505
0.00079535
0.00551491
0.000916023
0.00540282
0.00104864
0.00525185
0.00119351
0.00506493
0.00135081
0.00484492
0.0015206
0.00459472
0.00170284
0.00431732
0.00189739
0.00401581
0.00210403
0.00369341
0.00232241
0.00335346
0.00255212
0.00299943
0.00279265
0.00263488
0.00304341
0.00226338
0.00330373
0.00188857
0.00357287
0.00151402
0.00385002
0.00114326
0.00413432
0.000779666
0.00442486
0.000426442
0.00472071
8.66002e-05
0.00502094
-0.000237061
0.00532466
-0.000541928
0.00563107
-0.00082544
0.00593953
-0.00108475
0.00624962
-0.00131599
0.0065612
-0.00151149
-0.00165479
0.006874
7.20322e-06
0.000516621
2.5585e-05
0.00141552
5.32338e-05
0.002228
8.87391e-05
0.00294167
0.000131178
0.00355519
0.000180057
0.00407214
0.000235259
0.00449806
0.000297005
0.00483939
0.00036577
0.00510295
0.000442207
0.00529542
0.000527071
0.00542307
0.000621142
0.00549154
0.000725173
0.00550585
0.000839839
0.00547039
0.000965721
0.00538903
0.00110328
0.00526526
0.00125286
0.00510227
0.00141468
0.00490311
0.00158884
0.00467077
0.0017753
0.00440826
0.00197395
0.00411867
0.00218457
0.00380519
0.00240683
0.00347115
0.00264031
0.00311998
0.00288452
0.00275523
0.00313886
0.00238054
0.00340266
0.00199958
0.00367519
0.00161604
0.00395563
0.00123358
0.00424312
0.000855777
0.00453673
0.000486052
0.00483552
0.000127653
0.00513851
-0.00021639
0.00544474
-0.000543288
0.00575328
-0.000850472
0.00606332
-0.00113548
0.00637422
-0.00139565
0.0066856
-0.00162736
0.00699743
-0.00182332
-0.00196718
0.00730982
8.4104e-06
0.00050821
3.0056e-05
0.00139387
6.28868e-05
0.00219517
0.000105376
0.00289918
0.000156472
0.00350409
0.000215532
0.00401308
0.000282277
0.00443131
0.000356758
0.00476491
0.000439283
0.00502042
0.000530349
0.00520435
0.000630565
0.00532285
0.000740583
0.00538152
0.000861034
0.0053854
0.000992487
0.00533893
0.00113543
0.00524609
0.00129022
0.00511047
0.00145712
0.00493537
0.00163625
0.00472398
0.00182762
0.0044794
0.00203112
0.00420476
0.00224653
0.00390325
0.00247355
0.00357817
0.00271175
0.00323294
0.00296065
0.00287109
0.00321963
0.00249625
0.00348804
0.00211213
0.00376512
0.00172249
0.00405006
0.0013311
0.00434198
0.000941665
0.00463994
0.000557817
0.00494297
0.000183024
0.00525006
-0.000179439
0.0055602
-0.000526532
0.0058724
-0.000855481
0.00618569
-0.00116377
0.00649926
-0.00144905
0.00681244
-0.00170883
0.00712488
-0.00193981
0.00743667
-0.0021351
-0.00227872
0.00774821
9.47478e-06
0.000498736
3.408e-05
0.00136927
7.17081e-05
0.00215754
0.000120771
0.00285012
0.000180129
0.00344473
0.000249018
0.00394419
0.000327016
0.00435332
0.000414011
0.00467791
0.000510151
0.00492428
0.000615774
0.00509873
0.000731338
0.00520729
0.000857355
0.00525551
0.00099433
0.00524842
0.00114271
0.00519055
0.00130288
0.00508593
0.0014751
0.00493825
0.00165953
0.00475095
0.00185619
0.00452732
0.002065
0.00427059
0.00228575
0.003984
0.00251815
0.00367086
0.00276177
0.00333455
0.00301613
0.00297858
0.00328062
0.0026066
0.00355456
0.0022223
0.00383721
0.00182949
0.00412771
0.00143198
0.00442519
0.00103362
0.00472867
0.000638181
0.00503716
0.000249324
0.00534963
-0.000129443
0.00566501
-0.000494822
0.00598225
-0.000843773
0.00630032
-0.00117355
0.00661825
-0.00148169
0.00693517
-0.00176597
0.00725044
-0.0020241
0.00756372
-0.00225308
0.00787518
-0.00244656
-0.00258906
0.00818552
1.03855e-05
0.00048835
3.76189e-05
0.00134203
7.96159e-05
0.00211554
0.000134782
0.00279495
0.00020193
0.00337758
0.000280204
0.00386592
0.000369058
0.00426446
0.000468232
0.00457874
0.000577715
0.0048148
0.000697688
0.00497876
0.000828454
0.00507652
0.00097038
0.00511358
0.00112383
0.00509497
0.00128915
0.00502524
0.00146657
0.0049085
0.00165627
0.00474855
0.00185829
0.00454893
0.00207256
0.00431305
0.00229889
0.00404425
0.002537
0.0037459
0.00278646
0.00342139
0.0030468
0.00307421
0.0033174
0.00270799
0.00359757
0.00232642
0.00388656
0.00193331
0.00418351
0.00153254
0.00448749
0.001128
0.00479753
0.000723583
0.00511259
0.000323119
0.0054316
-6.96848e-05
0.00575345
-0.000451295
0.00607704
-0.000818405
0.00640125
-0.00116799
0.00672503
-0.00149733
0.00704738
-0.00180405
0.00736744
-0.00208603
0.00768455
-0.00234121
0.00799838
-0.00256692
0.00830918
-0.00275737
-0.00289781
0.00861794
1.11347e-05
0.000477215
4.06445e-05
0.00131252
8.65472e-05
0.00206964
0.000147296
0.0027342
0.000221697
0.00330318
0.000308831
0.00377879
0.000408048
0.00416524
0.000518954
0.00446783
0.000641388
0.00469237
0.000775376
0.00484477
0.000921065
0.00493083
0.00107867
0.00495597
0.00124842
0.00492522
0.00143051
0.00484314
0.00162508
0.00471393
0.00183217
0.00454146
0.00205172
0.00432938
0.00228355
0.00408122
0.00252737
0.00380043
0.0027828
0.00349047
0.00304933
0.00315486
0.00332636
0.00279718
0.0036132
0.00242115
0.00390906
0.00203056
0.00421308
0.00162929
0.00452432
0.00122131
0.00484175
0.000810563
0.00516432
0.000401019
0.00549089
-3.45088e-06
0.00582031
-0.000399106
0.00615141
-0.000782395
0.00648301
-0.00115001
0.00681398
-0.00149895
0.00714322
-0.00182656
0.00746971
-0.00213054
0.00779259
-0.00240891
0.0081112
-0.00265982
0.00842524
-0.00288096
0.00873502
-0.00306714
-0.00320452
0.00904172
1.17173e-05
0.000465498
4.3139e-05
0.0012811
9.24593e-05
0.00202032
0.000158232
0.00266843
0.000239294
0.00322212
0.000334695
0.00368338
0.0004437
0.00405624
0.000565796
0.00434574
0.000700682
0.00455748
0.000848232
0.00469722
0.00100844
0.00477062
0.00118137
0.00478305
0.0013671
0.00473949
0.0015657
0.00464454
0.00177718
0.00450246
0.00200144
0.00431719
0.00223833
0.00409249
0.00248756
0.00383199
0.00274873
0.00353925
0.00302136
0.00321785
0.00330484
0.00287138
0.00359847
0.00250355
0.00390146
0.00211815
0.00421293
0.00171909
0.00453191
0.00131032
0.00485734
0.000895869
0.00518813
0.00047978
0.00552308
6.60609e-05
0.005861
-0.00034137
0.00620064
-0.000738746
0.00654076
-0.00112251
0.00688011
-0.00148937
0.00721752
-0.00183636
0.00755185
-0.0021609
0.0078821
-0.00246079
0.0082074
-0.00273421
0.00852709
-0.00297952
0.0088409
-0.00319477
0.00914919
-0.00337543
-0.00350873
0.00945341
1.2132e-05
0.000453366
4.5096e-05
0.00124814
9.73318e-05
0.00196808
0.000167544
0.00259822
0.00025464
0.00313502
0.000357661
0.00358036
0.00047581
0.00393809
0.000608473
0.00421308
0.000755221
0.00441073
0.000915782
0.00453666
0.00109
0.00459641
0.00127779
0.00459526
0.00147908
0.00453819
0.0016938
0.00442982
0.00192182
0.00427444
0.00216296
0.00407606
0.0024169
0.00383855
0.00268327
0.00356562
0.00296157
0.00326096
0.00325119
0.00292822
0.00355144
0.00257113
0.00386151
0.00219348
0.0041805
0.00179916
0.00450742
0.00139217
0.00484119
0.000976544
0.00518066
0.000556399
0.00552461
0.000135838
0.00587174
-0.000281074
0.00622076
-0.000690384
0.00657032
-0.00108831
0.0069191
-0.00147129
0.00726581
-0.00183608
0.00760922
-0.00217977
0.00794818
-0.00249986
0.00828168
-0.00279429
0.00860887
-0.00306139
0.00892912
-0.00329976
0.00924218
-0.00350783
0.00954847
-0.00368171
-0.00380987
0.0098496
1.23814e-05
0.000440984
4.65206e-05
0.001214
0.000101168
0.00191343
0.000175227
0.00252416
0.000267706
0.00304255
0.000377665
0.0034704
0.000504268
0.00381149
0.000646817
0.00407053
0.000804765
0.00425278
0.000977706
0.00436372
0.00116534
0.00440877
0.00136742
0.00439317
0.00158376
0.00432186
0.00181413
0.00419945
0.00205827
0.00403029
0.00231587
0.00381846
0.00258652
0.0035679
0.00286971
0.00328243
0.00316483
0.00296583
0.00347119
0.00262186
0.00378797
0.00225435
0.00411425
0.0018672
0.00444903
0.00146439
0.00479119
0.00105001
0.00513954
0.000628196
0.00549279
0.000203141
0.00584962
-0.000220984
0.00620861
-0.000640067
0.00656835
-0.00105012
0.00692741
-0.00144737
0.00728438
-0.00182826
0.00763792
-0.00218962
0.00798676
-0.00252861
0.00832974
-0.00284285
0.00866587
-0.00313042
0.00899431
-0.00338983
0.0093145
-0.00361995
0.00962623
-0.00381955
0.00992996
-0.00398545
-0.0041074
0.0102275
1.24718e-05
0.000428512
4.74305e-05
0.00117904
0.000103998
0.00185687
0.000181315
0.00244684
0.000278522
0.00294534
0.000394724
0.0033542
0.000529064
0.00367715
0.000680779
0.00391881
0.000849221
0.00408434
0.00103386
0.00417909
0.00123425
0.00420838
0.00145001
0.00417741
0.00168081
0.00409106
0.00192629
0.00395397
0.00218607
0.00377051
0.00245969
0.00354484
0.00274663
0.00328096
0.00304627
0.00298279
0.00335789
0.00265421
0.00368068
0.00229908
0.00401371
0.00192133
0.00435593
0.00152497
0.00470623
0.00111409
0.00506335
0.000692882
0.00542597
0.000265575
0.00579268
-0.000163566
0.006162
-0.000590301
0.00653241
-0.00101048
0.00690237
-0.00142009
0.00727036
-0.00181536
0.0076349
-0.0021928
0.00799458
-0.0025493
0.00834812
-0.00288215
0.00869437
-0.0031891
0.00903236
-0.0034684
0.00936131
-0.00371878
0.00968072
-0.00393936
0.00999045
-0.00412928
0.010291
-0.00428604
-0.00440082
0.0105845
1.2413e-05
0.000416099
4.78556e-05
0.0011436
0.000105873
0.00179885
0.000185883
0.00236683
0.000287178
0.00284404
0.000408933
0.00323245
0.000550293
0.00353579
0.000710445
0.00375866
0.000888652
0.00390613
0.00108427
0.00398347
0.00129673
0.00399592
0.00152553
0.00394861
0.00177019
0.00384641
0.00203022
0.00369395
0.0023051
0.00349563
0.00259427
0.00325568
0.00289707
0.00297816
0.00321277
0.00266709
0.00354054
0.00232644
0.00387943
0.00196018
0.00422839
0.00157237
0.00458625
0.0011671
0.00495174
0.000748601
0.00532348
0.000321148
0.00569998
-0.000110926
0.00607969
-0.000543275
0.00646098
-0.000971599
0.00684222
-0.00139171
0.00722174
-0.00179961
0.00759793
-0.00219154
0.00796922
-0.0025641
0.0083342
-0.00291428
0.00869155
-0.0032395
0.00904016
-0.00353771
0.00937911
-0.00380735
0.00970769
-0.00404737
0.0100255
-0.00425717
0.0103325
-0.00443628
0.0106293
-0.00458287
-0.00468958
0.0109181
1.22183e-05
0.000403881
4.78379e-05
0.00110798
0.000106874
0.00173981
0.000189046
0.00228466
0.000293824
0.00273927
0.000420473
0.0031058
0.000568157
0.0033881
0.00073603
0.00359079
0.000923286
0.00371888
0.00112918
0.00377757
0.00135304
0.00377207
0.00159422
0.00370742
0.00185212
0.0035885
0.00212613
0.00341994
0.0024156
0.00320616
0.00271985
0.00295143
0.00303809
0.00265992
0.00336946
0.00233572
0.00371301
0.00198289
0.00406765
0.00160554
0.0044322
0.00120782
0.00480534
0.000793965
0.00518563
0.00036831
0.00557153
-6.47542e-05
0.0059614
-0.000500798
0.00635353
-0.000935398
0.00674613
-0.00136421
0.00713743
-0.00178301
0.00752566
-0.00218784
0.00790911
-0.00257499
0.00828619
-0.00294117
0.00865542
-0.00328351
0.00901552
-0.00359961
0.00936543
-0.00388762
0.00970429
-0.00414621
0.0100315
-0.0043746
0.0103468
-0.00457248
0.0106503
-0.00473975
0.0109427
-0.00487524
-0.00497312
0.0112262
1.19041e-05
0.000391976
4.7431e-05
0.00107245
0.000107099
0.00168014
0.000190957
0.0022008
0.000298665
0.00263156
0.000429599
0.00297487
0.00058296
0.00323474
0.000757884
0.00341586
0.00095351
0.00352325
0.00116901
0.00356207
0.00140361
0.00353747
0.00165656
0.00345447
0.00192713
0.00331793
0.00221459
0.00313248
0.00251816
0.00290258
0.00283704
0.00263256
0.0031703
0.00232665
0.00351697
0.00198905
0.00387593
0.00162393
0.00424596
0.00123551
0.00462571
0.000828066
0.00501369
0.000405982
0.0054083
-2.62963e-05
0.00580781
-0.000464261
0.0062104
-0.000903387
0.00661418
-0.00133918
0.00701723
-0.00176726
0.00741764
-0.00218342
0.00781352
-0.00258372
0.00820311
-0.00296458
0.00858476
-0.00332283
0.00895703
-0.00365577
0.00931866
-0.00396124
0.00966866
-0.00423762
0.0100063
-0.00448385
0.0103311
-0.00469942
0.010643
-0.00488432
0.0109421
-0.00503885
0.0112293
-0.00516246
-0.00525088
0.011507
1.149e-05
0.000380486
4.66985e-05
0.00103724
0.000106672
0.00162017
0.000191803
0.00211567
0.000301962
0.0025214
0.000436644
0.00284018
0.000595105
0.00307628
0.000776479
0.00323449
0.000979866
0.00331987
0.00120437
0.00333756
0.00144913
0.00329271
0.00171329
0.00319032
0.00199601
0.00303521
0.00229644
0.00283205
0.00261368
0.00258534
0.00294678
0.00229946
0.00329469
0.00197874
0.00365628
0.00162746
0.00403028
0.00124993
0.0044153
0.000850485
0.0048098
0.000433563
0.00521211
3.67121e-06
0.00562043
-0.00043461
0.00603282
-0.000876659
0.0064473
-0.00131786
0.00686179
-0.00175367
0.00727422
-0.00217969
0.00768254
-0.00259174
0.00808481
-0.00298599
0.00847919
-0.00335896
0.00886404
-0.00370768
0.00923795
-0.00402968
0.00959975
-0.00432304
0.00994854
-0.00458641
0.0102837
-0.00481904
0.010605
-0.0050207
0.0109124
-0.00519171
0.0112063
-0.00533272
0.0114877
-0.00544385
-0.00552234
0.0117591
1.09985e-05
0.000369488
4.5713e-05
0.00100253
0.000105733
0.00156015
0.000191805
0.0020296
0.000304019
0.00240918
0.000442005
0.0027022
0.000605082
0.00291321
0.000792399
0.00304717
0.00100303
0.00310923
0.00123603
0.00310456
0.00149046
0.00303829
0.00176536
0.00291541
0.0020598
0.00274078
0.00237279
0.00251906
0.00270332
0.00225481
0.00305028
0.0019525
0.00341249
0.00161653
0.00378864
0.00125131
0.00417729
0.000861281
0.00457684
0.000450933
0.00498556
2.4846e-05
0.00540155
-0.000412324
0.00582281
-0.000855864
0.00624719
-0.00130105
0.00667251
-0.00174318
0.00709652
-0.00217769
0.00751702
-0.00260018
0.00793185
-0.00300658
0.00833901
-0.00339314
0.00873665
-0.0037566
0.00912315
-0.00409419
0.00949718
-0.00440371
0.00985766
-0.00468352
0.0102039
-0.0049326
0.0105353
-0.0051505
0.0108519
-0.00533731
0.0111539
-0.00549365
0.0114417
-0.00562057
0.0117166
-0.00571877
-0.00578703
0.0119813
1.04546e-05
0.000359033
4.45542e-05
0.000968425
0.000104436
0.00150027
0.000191206
0.00194283
0.000305183
0.00229521
0.000446133
0.00256125
0.000613453
0.00274589
0.00080632
0.00285431
0.0010238
0.00289175
0.0012649
0.00286346
0.00152861
0.00277458
0.00181389
0.00263013
0.0021197
0.00243497
0.00244494
0.00219382
0.00278845
0.00191131
0.00314897
0.00159197
0.00352515
0.00124035
0.00391548
0.000860979
0.00431832
0.000458441
0.00473186
3.73949e-05
0.00515412
-0.000397421
0.005583
-0.000841199
0.00601623
-0.0012891
0.00645149
-0.0017363
0.00688637
-0.00217806
0.00731849
-0.0026098
0.00774551