/*--------------------------------*- C++ -*----------------------------------*\
  =========                 |
  \\      /  F ield         | OpenFOAM: The Open Source CFD Toolbox
   \\    /   O peration     | Website:  https://openfoam.org
    \\  /    A nd           | Version:  7
     \\/     M anipulation  |
\*---------------------------------------------------------------------------*/
FoamFile
{
    version     2.0;
    format      ascii;
    class       volVectorField;
    location    "3.7";
    object      U;
}
// * * * * * * * * * * * * * * * * * * * * * * * * * * * * * * * * * * * * * //

dimensions      [0 1 -1 0 0 0 0];

internalField   nonuniform List<vector> 
32000
(
(-0.000719821 0.0166233 -6.65696e-22)
(-0.0037467 0.0470553 0)
(-0.00884581 0.0752705 -5.92612e-21)
(-0.0147289 0.100544 0)
(-0.021052 0.122801 6.17025e-21)
(-0.0274354 0.142238 0)
(-0.0336147 0.159137 6.37905e-21)
(-0.0393962 0.173797 -4.85101e-21)
(-0.044636 0.186488 2.18546e-24)
(-0.0492328 0.197439 2.44617e-24)
(-0.0531205 0.206834 -1.67446e-21)
(-0.0562613 0.214805 6.75918e-21)
(-0.0586389 0.221451 0)
(-0.0602519 0.226842 -1.71897e-21)
(-0.0611099 0.231033 1.72612e-21)
(-0.06123 0.234071 0)
(-0.0606353 0.235998 8.72212e-21)
(-0.0593531 0.236862 -1.75036e-21)
(-0.0574129 0.236711 0)
(-0.0548464 0.235604 3.53073e-21)
(-0.0516861 0.233602 3.52816e-21)
(-0.0479635 0.230774 0)
(-0.0437109 0.227195 0)
(-0.0389618 0.222944 0)
(-0.03375 0.218101 0)
(-0.0281089 0.21275 0)
(-0.0220722 0.206976 0)
(-0.0156738 0.200862 0)
(-0.00894832 0.19449 -7.0502e-21)
(-0.001931 0.187941 0)
(0.00534199 0.181293 7.02067e-21)
(0.0128338 0.17462 0)
(0.0205063 0.167993 0)
(0.0283196 0.161479 0)
(0.036232 0.155145 -6.93524e-21)
(0.0441977 0.149051 -3.4659e-21)
(0.0521652 0.14326 1.03485e-20)
(0.0600965 0.137822 -8.5165e-24)
(0.0679431 0.132867 6.84227e-21)
(0.0754109 0.128571 -1.1307e-23)
(-0.00104161 0.0173291 0)
(-0.00456514 0.0486834 1.15574e-20)
(-0.0100145 0.0775162 2.96431e-21)
(-0.0161593 0.1032 -3.94672e-25)
(-0.0226784 0.125695 -3.08689e-21)
(-0.0292158 0.145228 0)
(-0.0355228 0.162101 6.36008e-21)
(-0.0414148 0.176632 -6.45153e-21)
(-0.0467545 0.18911 0)
(-0.051444 0.199777 -1.3238e-20)
(-0.0554196 0.208829 0)
(-0.0586429 0.216412 -2.02525e-20)
(-0.0610944 0.222633 0)
(-0.0627728 0.227573 0)
(-0.0636869 0.231292 6.9049e-21)
(-0.0638503 0.233842 -6.92722e-21)
(-0.0632845 0.235272 -6.97373e-21)
(-0.0620164 0.23563 0)
(-0.0600736 0.234971 2.10346e-20)
(-0.0574857 0.233353 -7.02419e-21)
(-0.0542849 0.230841 -1.29824e-24)
(-0.0505023 0.227508 -2.11379e-20)
(-0.0461694 0.223428 -1.41017e-20)
(-0.0413195 0.218682 -7.0746e-21)
(-0.0359865 0.213355 2.11608e-20)
(-0.0302048 0.207531 -2.11685e-20)
(-0.0240086 0.201298 2.11769e-20)
(-0.017433 0.194741 -2.8142e-20)
(-0.0105141 0.187946 -6.99243e-21)
(-0.00328857 0.180996 4.72559e-23)
(0.00420585 0.173971 -2.09673e-20)
(0.0119301 0.166949 -1.39577e-20)
(0.0198442 0.160005 2.78517e-20)
(0.0279066 0.153211 -2.77293e-20)
(0.0360737 0.146638 -6.87273e-21)
(0.0442971 0.140353 -2.75567e-20)
(0.0525242 0.134427 1.76121e-23)
(0.0607149 0.128922 6.83391e-21)
(0.068812 0.123981 -2.7177e-20)
(0.0765155 0.119796 -3.89745e-20)
(-0.00138245 0.0179616 -2.65188e-21)
(-0.00541089 0.0501343 -5.78136e-21)
(-0.0111936 0.079552 -2.65828e-20)
(-0.0175704 0.105633 0)
(-0.0242462 0.128371 3.07872e-21)
(-0.0308904 0.148013 -3.13113e-21)
(-0.0372722 0.16488 -3.8176e-20)
(-0.0432186 0.179303 1.29208e-20)
(-0.0486025 0.191588 -6.54318e-21)
(-0.0533287 0.201991 3.96638e-20)
(-0.0573322 0.210719 1.33629e-20)
(-0.0605779 0.217931 6.75785e-21)
(-0.0630471 0.223743 -2.71559e-20)
(-0.0647345 0.228244 0)
(-0.0656471 0.231503 0)
(-0.0657987 0.233575 1.3853e-20)
(-0.0652084 0.234514 2.86701e-23)
(-0.0639006 0.234374 -1.39361e-20)
(-0.061903 0.23321 -1.40111e-20)
(-0.0592445 0.231085 -2.80108e-20)
(-0.0559556 0.228065 4.21251e-20)
(-0.052067 0.224225 3.86305e-23)
(-0.0476102 0.219643 6.6562e-24)
(-0.0426187 0.214401 1.40646e-20)
(-0.0371271 0.208586 -2.82006e-20)
(-0.0311703 0.202285 5.62355e-20)
(-0.0247839 0.195588 0)
(-0.0180043 0.188583 1.40657e-20)
(-0.0108687 0.181358 1.40422e-20)
(-0.00341584 0.174 2.80144e-20)
(0.00431446 0.166591 4.71431e-23)
(0.0122815 0.159214 0)
(0.0204435 0.151947 1.38706e-20)
(0.0287571 0.144866 -1.37626e-20)
(0.0371763 0.138047 -1.3679e-20)
(0.0456519 0.131564 4.12299e-20)
(0.0541294 0.125496 -4.08771e-20)
(0.0625656 0.119918 2.72433e-20)
(0.0708996 0.114986 -4.05183e-20)
(0.0788231 0.110913 1.54401e-20)
(-0.00174025 0.0185642 2.11744e-20)
(-0.00628329 0.051525 -2.30413e-20)
(-0.0123888 0.0814906 4.72159e-20)
(-0.0189723 0.107947 0)
(-0.0257662 0.130916 1.84184e-20)
(-0.0324711 0.150664 3.12542e-20)
(-0.0388771 0.167529 6.39569e-21)
(-0.0448234 0.181853 7.13923e-24)
(-0.0501907 0.193955 1.95704e-20)
(-0.0548909 0.204106 -6.64979e-21)
(-0.0588629 0.212523 3.33245e-20)
(-0.0620708 0.219375 -4.03659e-20)
(-0.0644948 0.22479 4.07103e-20)
(-0.06613 0.228864 -1.36699e-20)
(-0.0669819 0.231672 1.37269e-20)
(-0.067062 0.233276 -2.7584e-20)
(-0.0663883 0.233733 -4.15783e-20)
(-0.064985 0.233102 1.39014e-20)
(-0.062878 0.23144 -1.39685e-20)
(-0.0600953 0.228813 4.19807e-20)
(-0.0566671 0.22529 -2.80576e-20)
(-0.052624 0.220947 -2.79958e-20)
(-0.0479975 0.215864 0)
(-0.0428215 0.210128 0)
(-0.0371316 0.203825 -2.79958e-20)
(-0.0309638 0.197046 -2.80849e-20)
(-0.0243549 0.189883 -2.79387e-20)
(-0.0173427 0.182428 0)
(-0.00996635 0.174772 0)
(-0.00226664 0.167003 -5.56555e-20)
(0.00571472 0.159209 -6.3372e-23)
(0.0139352 0.151474 2.77623e-20)
(0.0223509 0.143881 -2.75814e-20)
(0.0309168 0.136509 -2.75495e-20)
(0.0395855 0.129439 2.75239e-20)
(0.0483057 0.122753 0)
(0.0570221 0.116537 2.72692e-20)
(0.0656902 0.110879 -5.4131e-20)
(0.0742449 0.105952 5.39662e-20)
(0.0823682 0.101989 -6.16367e-20)
(-0.00211365 0.0190961 -1.05992e-20)
(-0.00717707 0.0527568 1.72822e-20)
(-0.0135875 0.0832255 -2.35891e-20)
(-0.0203495 0.110036 0)
(-0.0272254 0.133231 -3.07052e-20)
(-0.0339463 0.153093 -1.87574e-20)
(-0.0403245 0.169969 2.54002e-20)
(-0.0462159 0.184213 0)
(-0.0515099 0.196154 -3.91402e-20)
(-0.0561248 0.206074 -1.32147e-20)
(-0.060003 0.214201 -1.33313e-20)
(-0.0631108 0.220714 2.69141e-20)
(-0.0654284 0.22575 -2.70798e-20)
(-0.0669493 0.229414 1.36202e-20)
(-0.0676783 0.231788 0)
(-0.0676265 0.232938 4.13711e-20)
(-0.0668103 0.232928 1.38779e-20)
(-0.0652523 0.231817 -2.7781e-20)
(-0.0629785 0.229668 5.56588e-20)
(-0.0600167 0.226548 -5.57701e-20)
(-0.0563962 0.22253 5.5775e-20)
(-0.0521474 0.217691 2.79953e-20)
(-0.0473028 0.212115 0)
(-0.0418976 0.205888 2.79842e-20)
(-0.0359681 0.199102 8.43556e-23)
(-0.0295513 0.191849 0)
(-0.022686 0.184224 2.79383e-20)
(-0.0154116 0.176321 -2.78643e-20)
(-0.00776957 0.168235 2.77483e-20)
(0.000197411 0.160058 5.55258e-20)
(0.00844541 0.15188 -5.52885e-20)
(0.0169299 0.143789 5.51662e-20)
(0.0256053 0.135869 0)
(0.0344243 0.128207 0)
(0.0433385 0.120885 5.45718e-20)
(0.0522956 0.113993 0)
(0.0612384 0.107625 0)
(0.0701217 0.101881 -5.3819e-20)
(0.0788783 0.0969523 5.36081e-20)
(0.0871796 0.0930936 3.06997e-20)
(-0.00249867 0.0195712 5.2793e-21)
(-0.00808529 0.0538636 0)
(-0.0147865 0.0847908 4.70236e-20)
(-0.021702 0.111929 6.01091e-21)
(-0.0286236 0.135341 6.13268e-21)
(-0.0353175 0.155317 3.73796e-20)
(-0.04162 0.172214 5.06432e-20)
(-0.0474024 0.186393 0)
(-0.0525651 0.19819 1.30236e-20)
(-0.0570344 0.207897 3.9453e-20)
(-0.0607577 0.215754 5.31314e-20)
(-0.0637023 0.221947 -1.34199e-20)
(-0.0658491 0.226623 -4.0495e-20)
(-0.0671919 0.229895 0)
(-0.0677348 0.231851 5.46517e-20)
(-0.0674877 0.232564 0)
(-0.0664663 0.2321 8.27289e-20)
(-0.0646929 0.230524 -2.76578e-20)
(-0.0621932 0.227901 0)
(-0.0589943 0.224301 -2.78215e-20)
(-0.0551255 0.219798 -6.99995e-23)
(-0.0506182 0.214475 -2.77248e-20)
(-0.0455059 0.208414 -2.7829e-20)
(-0.0398249 0.201707 2.78733e-20)
(-0.0336125 0.194446 -2.78003e-20)
(-0.0269078 0.186727 0)
(-0.0197512 0.178647 -2.77859e-20)
(-0.0121843 0.170304 2.76798e-20)
(-0.00425065 0.161796 0)
(0.00400442 0.153218 0)
(0.0125348 0.144661 0)
(0.0212941 0.136219 -5.49184e-20)
(0.0302345 0.127979 5.46278e-20)
(0.0393076 0.120029 0)
(0.048463 0.112458 -2.72177e-20)
(0.0576474 0.10536 0)
(0.0668031 0.0988365 5.39153e-20)
(0.0758836 0.0930017 -2.66942e-20)
(0.0848217 0.0880641 -5.34292e-20)
(0.093277 0.0843045 6.07899e-20)
(-0.00289289 0.019979 3.68455e-20)
(-0.00900394 0.0548191 -5.15812e-20)
(-0.015979 0.0861528 -8.80931e-20)
(-0.0230215 0.113591 -4.79585e-20)
(-0.0299553 0.137209 -1.2239e-20)
(-0.0365811 0.157301 -2.49417e-20)
(-0.0427593 0.174229 -1.13849e-19)
(-0.0483802 0.188359 -3.8446e-20)
(-0.0533556 0.200032 -6.4923e-20)
(-0.0576199 0.209549 -6.57561e-20)
(-0.061126 0.217157 -9.29028e-20)
(-0.0638442 0.223053 -5.34918e-20)
(-0.0657563 0.227391 1.08223e-22)
(-0.0668562 0.230292 -5.42336e-20)
(-0.0671481 0.231851 -5.46507e-20)
(-0.0666416 0.232145 -8.22067e-20)
(-0.0653517 0.231247 5.48972e-20)
(-0.0633008 0.229223 -2.75828e-20)
(-0.0605142 0.226143 0)
(-0.0570191 0.222078 5.53276e-20)
(-0.0528453 0.217108 0)
(-0.0480256 0.211314 1.10996e-19)
(-0.0425948 0.204783 0)
(-0.0365902 0.197608 -2.776e-20)
(-0.0300511 0.189885 2.78543e-20)
(-0.0230187 0.181713 -5.53041e-20)
(-0.0155353 0.173191 0)
(-0.00764489 0.164421 -5.52143e-20)
(0.000606262 0.155502 5.49845e-20)
(0.0091702 0.146533 0)
(0.0179988 0.13761 0)
(0.0270436 0.128827 0)
(0.0362547 0.120275 -5.42663e-20)
(0.0455816 0.112046 0)
(0.0549734 0.104232 -5.40717e-20)
(0.0643756 0.0969314 1.0761e-19)
(0.0737292 0.0902526 -1.07165e-19)
(0.0829877 0.0843226 5.31074e-20)
(0.0920853 0.0793689 1.0621e-19)
(0.10067 0.0757004 -6.03678e-20)
(-0.00329281 0.0203158 -4.73737e-20)
(-0.00992625 0.0556162 8.19532e-23)
(-0.0171588 0.0873029 4.69426e-20)
(-0.0243038 0.115009 9.58355e-20)
(-0.0312166 0.138818 -1.22191e-20)
(-0.0377345 0.159027 -4.96954e-20)
(-0.043743 0.175995 5.05494e-20)
(-0.0491511 0.190092 7.69043e-20)
(-0.0538837 0.201661 2.59888e-20)
(-0.0578842 0.211011 6.55367e-20)
(-0.0611121 0.218394 5.30346e-20)
(-0.0635408 0.224016 8.01447e-20)
(-0.0651536 0.228041 1.61503e-19)
(-0.0659456 0.230594 8.12756e-20)
(-0.0659215 0.231778 0)
(-0.0650907 0.231676 2.74022e-20)
(-0.0634683 0.230364 2.72845e-20)
(-0.0610767 0.227914 2.74271e-20)
(-0.0579416 0.224396 5.51599e-20)
(-0.0540906 0.219887 -2.77816e-20)
(-0.0495547 0.214467 0)
(-0.0443681 0.208221 -2.03572e-22)
(-0.0385673 0.201239 -5.51751e-20)
(-0.0321912 0.193615 5.51333e-20)
(-0.0252814 0.185448 1.10375e-19)
(-0.0178811 0.176839 1.10143e-19)
(-0.0100354 0.167892 -8.03469e-23)
(-0.00179074 0.158711 5.4769e-20)
(0.00680373 0.149398 5.46373e-20)
(0.0156975 0.140055 -5.44918e-20)
(0.02484 0.130781 5.43334e-20)
(0.0341806 0.121672 5.41632e-20)
(0.0436675 0.112824 1.08247e-19)
(0.0532484 0.104328 -1.97327e-22)
(0.0628709 0.0962813 1.61053e-19)
(0.0724803 0.0887845 -8.99871e-23)
(0.0820167 0.0819534 -5.31556e-20)
(0.0914329 0.0759261 -5.32085e-20)
(0.100667 0.0709494 5.26856e-20)
(0.109354 0.0673625 5.98217e-20)
(-0.00369482 0.0205798 4.19495e-20)
(-0.0108459 0.0562478 5.71932e-20)
(-0.0183196 0.0882284 3.5074e-20)
(-0.0255434 0.116168 -3.59148e-20)
(-0.0324045 0.140153 -6.09279e-20)
(-0.038777 0.160476 4.96848e-20)
(-0.044572 0.177493 0)
(-0.0497181 0.191571 5.1113e-20)
(-0.0541541 0.203058 0)
(-0.0578337 0.212262 -1.04757e-19)
(-0.0607231 0.219446 2.64572e-20)
(-0.0627997 0.22482 -1.33326e-19)
(-0.0640493 0.228556 -5.37783e-20)
(-0.0644689 0.230788 2.69218e-20)
(-0.0640637 0.231621 2.67435e-23)
(-0.0628437 0.231148 -2.72679e-20)
(-0.0608245 0.229446 -5.48198e-20)
(-0.0580293 0.226592 -1.09773e-19)
(-0.0544841 0.222661 0)
(-0.0502176 0.217731 -6.07127e-23)
(-0.0452623 0.211884 -5.50559e-20)
(-0.0396544 0.205209 -5.51918e-20)
(-0.0334324 0.197797 5.5174e-20)
(-0.0266372 0.189746 -5.52837e-20)
(-0.0193128 0.181158 5.48342e-20)
(-0.0115052 0.172135 -1.09808e-19)
(-0.00326199 0.162785 -8.30739e-23)
(0.00536719 0.153215 -1.0936e-19)
(0.0143303 0.143529 -5.46361e-20)
(0.0235741 0.133833 8.77514e-23)
(0.0330459 0.124228 -1.88977e-22)
(0.0426923 0.114814 -5.41621e-20)
(0.0524596 0.105686 -5.39808e-20)
(0.0622937 0.0969416 -2.87409e-22)
(0.0721414 0.0886762 -5.35878e-20)
(0.0819471 0.0809948 -2.87876e-22)
(0.0916503 0.0740178 -5.29711e-20)
(0.101203 0.0678938 1.58099e-19)
(0.110549 0.0628883 -5.26847e-20)
(0.119313 0.0593728 -5.96939e-20)
(-0.00409513 0.020769 -4.19472e-20)
(-0.011756 0.0567075 1.14114e-20)
(-0.0194549 0.0889199 -3.50921e-20)
(-0.0267357 0.117056 -1.19366e-20)
(-0.0335165 0.141197 4.87362e-20)
(-0.0397087 0.16163 -1.23957e-20)
(-0.0452491 0.178701 1.25826e-20)
(-0.0500862 0.192776 -7.66588e-20)
(-0.0541743 0.204199 2.58443e-20)
(-0.0574774 0.213282 5.23317e-20)
(-0.0599696 0.220291 0)
(-0.0616328 0.225445 1.06461e-19)
(-0.0624565 0.22892 0)
(-0.0624398 0.230856 -1.07869e-19)
(-0.0615892 0.231367 -5.41404e-20)
(-0.0599159 0.230548 0)
(-0.0574365 0.228484 0)
(-0.0541751 0.225253 1.09453e-19)
(-0.0501589 0.220935 5.48395e-20)
(-0.0454179 0.21561 -1.09741e-19)
(-0.039987 0.209363 5.48664e-20)
(-0.0339043 0.202285 0)
(-0.0272107 0.194471 -5.48779e-20)
(-0.0199496 0.18602 1.09355e-19)
(-0.0121678 0.177036 -5.46789e-20)
(-0.00391434 0.167626 -5.46515e-20)
(0.00476019 0.1579 5.4463e-20)
(0.0138031 0.147966 0)
(0.0231592 0.137934 1.0837e-19)
(0.0327726 0.12791 -5.40318e-20)
(0.0425878 0.118 -5.39592e-20)
(0.0525493 0.108304 -9.79339e-23)
(0.062601 0.0989219 2.14111e-19)
(0.0726872 0.0899491 -1.60112e-19)
(0.0827536 0.0814844 0)
(0.0927443 0.073634 -5.30873e-20)
(0.102598 0.0665216 -1.05547e-19)
(0.112266 0.0603045 5.22486e-20)
(0.1217 0.0552666 5.21157e-20)
(0.130514 0.0518118 0)
(-0.00448992 0.0208824 -8.35603e-20)
(-0.0126496 0.0569915 -1.13892e-20)
(-0.0205582 0.0893703 9.322e-20)
(-0.0278761 0.11766 -9.5258e-20)
(-0.034551 0.141936 0)
(-0.0405308 0.162471 0)
(-0.0457783 0.179601 -2.51451e-20)
(-0.0502628 0.193684 -2.29917e-23)
(-0.053954 0.205062 2.57997e-20)
(-0.0568275 0.214047 0)
(-0.0588658 0.220908 0)
(-0.0600563 0.225868 -2.66052e-20)
(-0.0603929 0.229111 1.93886e-23)
(-0.0598776 0.230781 2.69764e-20)
(-0.0585189 0.230998 5.41394e-20)
(-0.0563294 0.229864 0)
(-0.0533278 0.227466 5.44641e-20)
(-0.0495392 0.223888 -5.4612e-20)
(-0.0449924 0.219212 -1.09289e-19)
(-0.0397196 0.213522 1.09373e-19)
(-0.0337582 0.206905 3.87019e-23)
(-0.0271489 0.199455 -5.46556e-20)
(-0.0199349 0.191268 5.46542e-20)
(-0.0121629 0.182447 -1.09212e-19)
(-0.00388278 0.173099 0)
(0.00485339 0.163333 5.43983e-20)
(0.0139916 0.153261 -1.0849e-19)
(0.0234759 0.142996 5.40716e-20)
(0.0332479 0.132648 -5.4094e-20)
(0.0432488 0.122327 -5.38425e-20)
(0.0534205 0.112141 -5.37638e-20)
(0.063705 0.102193 2.13803e-19)
(0.0740439 0.0925826 -1.59835e-19)
(0.0843802 0.0834077 -1.06235e-19)
(0.0946584 0.0747672 1.05626e-19)
(0.104822 0.0667678 0)
(0.11481 0.0595349 1.04968e-19)
(0.124572 0.0532322 -1.0431e-19)
(0.134069 0.0481608 -5.21146e-20)
(0.142907 0.0447569 0)
(-0.00487544 0.0209201 1.7738e-19)
(-0.0135199 0.0570977 7.94786e-20)
(-0.0216235 0.089574 -9.32192e-20)
(-0.0289605 0.117973 8.33566e-20)
(-0.0355065 0.142358 -1.21455e-20)
(-0.0412451 0.162984 2.46867e-20)
(-0.0461653 0.180174 0)
(-0.0502564 0.194276 -2.54582e-20)
(-0.053505 0.205627 2.5755e-20)
(-0.0558988 0.214536 2.60581e-20)
(-0.0574291 0.221274 -2.62862e-20)
(-0.0580903 0.226069 -2.65185e-20)
(-0.057881 0.229108 2.6685e-20)
(-0.0568072 0.230543 0)
(-0.0548796 0.230497 0)
(-0.0521134 0.229078 -5.41588e-20)
(-0.0485295 0.226379 5.42867e-20)
(-0.0441547 0.222485 -5.44174e-20)
(-0.0390201 0.217484 5.44618e-20)
(-0.0331608 0.211461 5.45164e-20)
(-0.0266164 0.204507 -1.09004e-19)
(-0.0194307 0.196718 1.08942e-19)
(-0.0116501 0.188193 3.50893e-23)
(-0.00332468 0.179038 -5.43149e-20)
(0.00549242 0.16936 0)
(0.0147458 0.159273 5.41466e-20)
(0.0243777 0.148891 5.92943e-23)
(0.0343287 0.138328 -5.38127e-20)
(0.0445373 0.127699 0)
(0.0549418 0.117116 1.07127e-19)
(0.0654812 0.106688 -1.06616e-19)
(0.076095 0.09652 0)
(0.0867229 0.0867137 1.06047e-19)
(0.0973061 0.0773669 -1.05461e-19)
(0.107788 0.0685784 0)
(0.118113 0.0604543 0)
(0.128217 0.0531201 0)
(0.138052 0.0467437 -1.0394e-19)
(0.147588 0.041641 1.03273e-19)
(0.156426 0.0382796 1.16354e-19)
(-0.00524831 0.0208831 -8.33866e-20)
(-0.0143604 0.0570258 -9.08448e-20)
(-0.0226449 0.0895284 -1.16234e-20)
(-0.029985 0.117989 3.56316e-20)
(-0.0363823 0.142452 -4.84453e-20)
(-0.0418546 0.163154 4.9309e-20)
(-0.0464163 0.180403 -5.00958e-20)
(-0.0500774 0.194531 -7.61345e-20)
(-0.0528413 0.20587 0)
(-0.0547085 0.214724 -2.60101e-20)
(-0.0556803 0.221365 2.62377e-20)
(-0.0557586 0.226023 0)
(-0.0549479 0.228888 5.32876e-20)
(-0.0532584 0.230118 -5.35637e-20)
(-0.0507043 0.229842 -1.61342e-19)
(-0.0473037 0.228172 -1.54436e-23)
(-0.0430802 0.225204 1.08302e-19)
(-0.0380634 0.221029 -5.42421e-20)
(-0.032287 0.215737 0)
(-0.0257891 0.209417 0)
(-0.0186125 0.202163 1.08432e-19)
(-0.0108039 0.194072 5.42775e-20)
(-0.00241366 0.185247 -5.41883e-20)
(0.00650458 0.175794 -5.41252e-20)
(0.0158942 0.165825 1.08003e-19)
(0.0256961 0.155456 -5.38548e-20)
(0.035849 0.144802 1.07525e-19)
(0.0462893 0.133982 -2.14343e-19)
(0.0569526 0.12311 2.13695e-19)
(0.0677742 0.112302 -2.13009e-19)
(0.0786904 0.10167 2.12291e-19)
(0.089638 0.0913191 -2.11544e-19)
(0.100555 0.0813521 1.05296e-19)
(0.11138 0.0718672 1.05082e-19)
(0.122058 0.0629623 1.95147e-22)
(0.13253 0.0547421 1.9867e-22)
(0.142734 0.0473303 -1.03618e-19)
(0.15262 0.0408965 3.82176e-22)
(0.16217 0.0357686 -1.02707e-19)
(0.170984 0.0324436 0)
(-0.0056053 0.0207731 1.03909e-20)
(-0.0151651 0.0567781 -1.13253e-20)
(-0.0236169 0.0892334 3.48012e-20)
(-0.0309463 0.117703 -4.7419e-20)
(-0.0371783 0.142211 2.41708e-20)
(-0.0423626 0.162971 0)
(-0.046539 0.180272 0)
(-0.0497374 0.194431 1.01525e-19)
(-0.0519785 0.20577 1.28299e-19)
(-0.0532764 0.214589 -2.59454e-20)
(-0.053643 0.221157 1.30899e-19)
(-0.0530887 0.225705 -2.63998e-20)
(-0.0516246 0.228427 0)
(-0.0492661 0.229483 0)
(-0.0460314 0.22901 1.07512e-19)
(-0.0419423 0.227122 0)
(-0.0370259 0.223921 5.38654e-20)
(-0.031315 0.219502 -5.39441e-20)
(-0.0248465 0.213956 0)
(-0.0176619 0.207377 -1.08121e-19)
(-0.00980743 0.199861 -5.43055e-20)
(-0.0013336 0.191507 -1.62006e-19)
(0.00770542 0.182422 -5.39964e-20)
(0.0172521 0.172713 5.38803e-20)
(0.0272461 0.162495 1.07315e-19)
(0.0376244 0.151886 0)
(0.0483216 0.141003 1.06734e-19)
(0.0592707 0.129966 2.1312e-19)
(0.0704038 0.118894 1.14432e-22)
(0.0816533 0.107904 -1.05904e-19)
(0.0929527 0.0971076 -1.05672e-19)
(0.104236 0.0866139 1.0514e-19)
(0.11544 0.076525 1.04914e-19)
(0.126502 0.066939 -2.08852e-19)
(0.137364 0.057953 2.08028e-19)
(0.147969 0.049669 -1.03867e-19)
(0.158255 0.0422074 1.03055e-19)
(0.168171 0.0357368 2.05417e-19)
(0.177711 0.0305941 1.01977e-19)
(0.186479 0.0273027 1.14075e-19)
(-0.00594346 0.0205927 -8.28703e-20)
(-0.0159286 0.0563584 7.90152e-20)
(-0.0245347 0.0886911 -6.93839e-20)
(-0.0318418 0.117115 7.0904e-20)
(-0.0378948 0.141629 1.20592e-19)
(-0.0427734 0.162424 -9.81922e-20)
(-0.0465414 0.179767 1.24736e-19)
(-0.0492488 0.193958 7.58725e-20)
(-0.0509336 0.205307 -1.7941e-19)
(-0.051624 0.214107 5.17276e-20)
(-0.0513433 0.220624 2.5952e-20)
(-0.050111 0.225088 5.27193e-20)
(-0.0479461 0.227696 5.29621e-20)
(-0.0448695 0.228612 -1.06576e-19)
(-0.0409044 0.227975 1.07022e-19)
(-0.0360772 0.225905 1.611e-19)
(-0.0304189 0.222507 -1.61739e-19)
(-0.0239663 0.21788 2.15772e-19)
(-0.0167601 0.21212 1.07797e-19)
(-0.00884521 0.205321 1.62087e-19)
(-0.00027188 0.197584 5.37559e-20)
(0.00890521 0.189011 1.07939e-19)
(0.0186277 0.179708 -1.07369e-19)
(0.0288341 0.169787 0)
(0.03946 0.159365 -3.21294e-19)
(0.0504383 0.14856 2.13613e-19)
(0.0616996 0.137493 -1.06666e-19)
(0.0731731 0.126285 -1.06324e-19)
(0.0847876 0.115058 -2.01367e-22)
(0.0964727 0.103929 0)
(0.108159 0.0930126 0)
(0.119778 0.0824184 1.04414e-19)
(0.131264 0.072249 -1.04364e-19)
(0.142554 0.0626021 1.03788e-19)
(0.153589 0.053573 -1.03554e-19)
(0.164313 0.0452608 -1.03137e-19)
(0.174663 0.037781 0)
(0.184586 0.0312986 -1.02058e-19)
(0.194092 0.0261559 -1.01783e-19)
(0.202794 0.0228993 -3.40564e-19)
(-0.00626033 0.0203455 8.28647e-20)
(-0.0166461 0.0557726 -7.90477e-20)
(-0.0253942 0.0879066 9.25331e-20)
(-0.0326691 0.116226 -1.65354e-19)
(-0.0385324 0.140705 -1.20549e-19)
(-0.0430913 0.161507 9.81915e-20)
(-0.0464323 0.178876 -1.99355e-19)
(-0.0486249 0.193096 -1.01176e-19)
(-0.0497247 0.204462 1.2803e-19)
(-0.0497743 0.213257 -2.32757e-19)
(-0.0488089 0.219742 -1.56714e-19)
(-0.0468586 0.224148 -5.25244e-20)
(-0.0439502 0.22667 -1.58966e-19)
(-0.0401115 0.227476 1.59803e-19)
(-0.0353714 0.226709 -1.0702e-19)
(-0.0297613 0.224492 -1.07357e-19)
(-0.0233173 0.220935 0)
(-0.0160805 0.21614 -1.07735e-19)
(-0.00809577 0.210205 -1.61603e-19)
(0.000587772 0.203228 5.38158e-20)
(0.00991575 0.195313 -1.07695e-19)
(0.019829 0.186563 0)
(0.0302647 0.177088 1.07366e-19)
(0.0411572 0.167001 1.0693e-19)
(0.0524379 0.15642 -1.06225e-19)
(0.0640354 0.145467 0)
(0.0758763 0.134263 0)
(0.0878859 0.122932 0)
(0.09999 0.111597 -4.85448e-22)
(0.112115 0.100376 0)
(0.124188 0.0893861 -2.08908e-19)
(0.13614 0.0787366 -3.27118e-22)
(0.147902 0.0685305 -2.0732e-19)
(0.15941 0.0588649 2.06682e-19)
(0.170605 0.0498333 -1.02833e-19)
(0.18143 0.041531 1.02764e-19)
(0.191824 0.0340679 0)
(0.201734 0.0276025 2.03596e-19)
(0.211181 0.0224793 -1.01062e-19)
(0.219798 0.0192634 0)
(-0.00655391 0.0200359 1.03261e-20)
(-0.0173137 0.0550284 0)
(-0.026192 0.0868869 -1.15265e-19)
(-0.0334266 0.115041 1.41571e-19)
(-0.0390925 0.139438 7.20835e-20)
(-0.0433211 0.160215 -9.78538e-20)
(-0.0462205 0.177592 9.95918e-20)
(-0.0478793 0.191832 -1.00833e-19)
(-0.0483703 0.203216 0)
(-0.0477508 0.212016 1.0336e-19)
(-0.0460691 0.218488 -1.04131e-19)
(-0.0433657 0.222857 1.90795e-22)
(-0.0396768 0.225321 0)
(-0.0350374 0.226048 1.0614e-19)
(-0.0294831 0.225184 -5.32304e-20)
(-0.0230513 0.222856 1.06843e-19)
(-0.0157833 0.219177 5.34576e-20)
(-0.00772545 0.214252 -1.0717e-19)
(0.00107282 0.208183 0)
(0.0105579 0.201072 1.60762e-19)
(0.0206709 0.193022 5.34081e-20)
(0.0313477 0.184141 0)
(0.0425212 0.17454 0)
(0.0541212 0.164334 0)
(0.0660746 0.153644 1.06442e-19)
(0.0783059 0.142591 0)
(0.0907375 0.131299 -1.05591e-19)
(0.103291 0.119894 2.10426e-19)
(0.115889 0.1085 -2.0987e-19)
(0.128455 0.0972361 0)
(0.140913 0.0862202 1.04294e-19)
(0.15319 0.0755621 -1.03399e-19)
(0.165218 0.0653648 1.03489e-19)
(0.176932 0.0557247 0)
(0.188271 0.0467329 0)
(0.199181 0.0384809 1.02064e-19)
(0.209599 0.0310718 -1.01441e-19)
(0.219472 0.0246557 2.02375e-19)
(0.228837 0.0195752 -2.01077e-19)
(0.237351 0.0164096 0)
(-0.00682266 0.0196687 7.20382e-20)
(-0.0179284 0.0541351 2.24619e-20)
(-0.0269255 0.0856418 9.21878e-20)
(-0.0341131 0.113567 9.40676e-20)
(-0.0395761 0.137833 -9.61252e-20)
(-0.0434674 0.158548 9.78533e-20)
(-0.0459148 0.175907 9.92544e-20)
(-0.0470253 0.190155 1.00832e-19)
(-0.0468886 0.201554 0)
(-0.0455774 0.210366 1.03008e-19)
(-0.043153 0.216837 1.04129e-19)
(-0.0396676 0.22119 1.04933e-19)
(-0.0351668 0.22362 0)
(-0.0296942 0.224298 -2.06128e-22)
(-0.0232926 0.223369 1.06555e-19)
(-0.0160061 0.220965 -5.35036e-20)
(-0.00788205 0.217202 -5.37301e-20)
(0.00102782 0.212187 1.60665e-19)
(0.0106689 0.206025 -3.90023e-23)
(0.0209826 0.198821 -5.38099e-20)
(0.031905 0.190682 -1.07007e-19)
(0.0433675 0.181716 0)
(0.0552979 0.172036 0)
(0.0676216 0.16176 0)
(0.0802609 0.151009 0)
(0.093136 0.139907 0)
(0.106165 0.128578 0)
(0.119266 0.11715 1.04784e-19)
(0.132359 0.105747 -1.04348e-19)
(0.145362 0.0944902 0)
(0.158199 0.0834976 0)
(0.170794 0.072879 1.03396e-19)
(0.183076 0.0627375 0)
(0.19498 0.0531683 1.02401e-19)
(0.206446 0.0442601 -1.01814e-19)
(0.217419 0.0361001 0)
(0.22784 0.0287841 2.02235e-19)
(0.237654 0.022452 -2.00969e-19)
(0.246911 0.0174405 0)
(0.255304 0.014338 0)
(-0.00706559 0.0192495 -8.2352e-20)
(-0.0184878 0.0531036 -2.24364e-20)
(-0.0275926 0.084183 2.2974e-20)
(-0.034728 0.111815 -9.40675e-20)
(-0.0399849 0.135896 0)
(-0.0435345 0.156507 0)
(-0.0455232 0.17382 -7.44502e-20)
(-0.0460754 0.188057 -2.51333e-20)
(-0.0452973 0.199464 -5.09288e-20)
(-0.043277 0.208289 -5.15617e-20)
(-0.0400894 0.21477 -5.19351e-20)
(-0.0357987 0.219123 5.23224e-20)
(-0.0304609 0.221542 5.25667e-20)
(-0.0241287 0.222197 -5.30098e-20)
(-0.0168528 0.221235 0)
(-0.00868497 0.218789 0)
(0.000321031 0.214977 -1.06811e-19)
(0.0101076 0.209911 0)
(0.0206146 0.203698 0)
(0.0317781 0.196445 1.06344e-19)
(0.0435289 0.188261 -9.33412e-23)
(0.0557934 0.179256 -2.02196e-22)
(0.0684947 0.169545 -1.06034e-19)
(0.0815532 0.159248 1.05805e-19)
(0.0948869 0.148486 1.05267e-19)
(0.108411 0.137385 -1.04908e-19)
(0.122041 0.126071 0)
(0.135689 0.114671 1.0435e-19)
(0.149273 0.10331 4.40994e-23)
(0.162708 0.092112 -1.03494e-19)
(0.175914 0.0811929 0)
(0.188813 0.0706631 0)
(0.201335 0.0606253 1.02336e-19)
(0.213412 0.0511732 -1.01771e-19)
(0.224984 0.0423931 -1.01495e-19)
(0.236 0.0343677 1.00894e-19)
(0.246399 0.0271853 0)
(0.256129 0.0209738 0)
(0.265253 0.016061 0)
(0.273505 0.0130398 -1.09541e-19)
(-0.00728219 0.0187845 1.02549e-19)
(-0.0189908 0.0519461 -4.47657e-20)
(-0.0281924 0.0825243 2.29302e-20)
(-0.0352709 0.109797 0)
(-0.0403199 0.133637 1.19559e-19)
(-0.0435263 0.154098 2.52533e-23)
(-0.0450529 0.171331 9.89453e-20)
(-0.0450407 0.185534 -7.53166e-20)
(-0.0436122 0.196937 1.01655e-19)
(-0.0408707 0.205772 -5.13601e-20)
(-0.0369051 0.212269 0)
(-0.0317918 0.216635 5.22351e-20)
(-0.025598 0.219062 -1.57776e-19)
(-0.018386 0.219718 0)
(-0.0102154 0.218751 1.58914e-19)
(-0.00114573 0.216295 -1.06226e-19)
(0.00876199 0.212471 -1.06453e-19)
(0.019444 0.207391 5.32857e-20)
(0.0308341 0.201168 0)
(0.0428628 0.193908 -1.06537e-19)
(0.0554554 0.185724 -1.06175e-19)
(0.0685331 0.176727 -1.03356e-22)
(0.0820142 0.167033 1.05577e-19)
(0.0958141 0.156763 1.05392e-19)
(0.109846 0.146041 -2.1038e-19)
(0.124021 0.134992 1.04905e-19)
(0.138249 0.123743 0)
(0.152442 0.112423 -1.03738e-19)
(0.166509 0.101158 1.0332e-19)
(0.180366 0.0900689 1.02894e-19)
(0.193928 0.0792741 -1.02465e-19)
(0.207117 0.068883 1.02034e-19)
(0.21986 0.0589973 0)
(0.232089 0.0497092 1.01458e-19)
(0.243745 0.041102 2.01914e-19)
(0.254777 0.0332541 -2.00863e-19)
(0.26513 0.0262459 2.00303e-19)
(0.27475 0.0201926 3.62381e-22)
(0.283714 0.0154101 -9.91992e-20)
(0.291806 0.0124923 2.17917e-19)
(-0.00747254 0.0182801 -6.15184e-20)
(-0.0194369 0.050676 -1.33958e-19)
(-0.0287243 0.0806813 9.14768e-20)
(-0.0357418 0.107528 -7.0159e-20)
(-0.0405822 0.131068 -2.40649e-20)
(-0.0434456 0.151331 2.43036e-20)
(-0.0445095 0.168444 -4.94783e-20)
(-0.0439306 0.182586 -5.00995e-20)
(-0.0418469 0.193966 5.07623e-20)
(-0.038377 0.202805 -1.02578e-19)
(-0.0336238 0.209318 -1.20991e-23)
(-0.0276763 0.213707 5.21473e-20)
(-0.0206133 0.216158 0)
(-0.0125075 0.216836 -5.27066e-20)
(-0.0034278 0.215891 -5.29938e-20)
(0.00655792 0.213455 1.06185e-19)
(0.0173812 0.209652 0)
(0.0289715 0.204596 0)
(0.0412565 0.198401 1.06181e-19)
(0.0541604 0.191177 -1.06193e-19)
(0.0676031 0.183036 0)
(0.0815005 0.174092 1.05649e-19)
(0.0957658 0.164462 -1.05679e-19)
(0.110309 0.154268 -2.10198e-19)
(0.125039 0.143635 7.01912e-23)
(0.139863 0.132689 1.04537e-19)
(0.154685 0.121558 -2.07765e-19)
(0.169413 0.11037 1.03736e-19)
(0.183954 0.0992515 -1.03317e-19)
(0.198219 0.0883243 -1.72664e-22)
(0.212121 0.0777048 2.33525e-22)
(0.22558 0.0675024 -1.02031e-19)
(0.238522 0.0578174 -1.01185e-19)
(0.250879 0.0487399 -1.00744e-19)
(0.262592 0.0403504 -4.27135e-22)
(0.273614 0.0327225 0)
(0.283891 0.0259289 -9.94008e-20)
(0.293373 0.0200711 1.98496e-19)
(0.302147 0.0154506 -2.96154e-19)
(0.310057 0.0126595 -2.33434e-23)
(-0.00763722 0.0177431 -2.04407e-20)
(-0.0198269 0.0493074 1.78386e-19)
(-0.0291886 0.0786711 -9.14984e-20)
(-0.0361405 0.105026 7.01764e-20)
(-0.0407721 0.128205 -1.90765e-19)
(-0.0432939 0.148218 2.42616e-20)
(-0.0438966 0.165168 -9.85929e-20)
(-0.0427515 0.179216 0)
(-0.0400116 0.190552 0)
(-0.0358105 0.199382 -1.0234e-19)
(-0.030265 0.205908 5.1678e-20)
(-0.023477 0.210324 -7.52489e-23)
(-0.0155373 0.212811 5.23871e-20)
(-0.0065293 0.213531 0)
(0.00346831 0.21263 -1.58333e-19)
(0.0143789 0.210242 5.29628e-20)
(0.0261261 0.206491 -1.05919e-19)
(0.0386324 0.201494 0)
(0.0518189 0.195365 0)
(0.0656034 0.188217 4.80343e-23)
(0.0799001 0.180162 -1.05747e-19)
(0.0946195 0.171315 1.05289e-19)
(0.109669 0.161796 -1.05066e-19)
(0.124955 0.151727 1.04839e-19)
(0.14038 0.141232 1.14624e-22)
(0.155845 0.13044 1.30237e-22)
(0.171252 0.119477 1.03783e-19)
(0.186504 0.108473 -1.03015e-19)
(0.201504 0.0975534 0)
(0.21616 0.0868391 -1.02332e-19)
(0.230382 0.076446 1.01844e-19)
(0.244087 0.0664821 0)
(0.257202 0.0570461 1.01182e-19)
(0.269658 0.0482256 -1.00462e-19)
(0.281399 0.0400977 9.97525e-20)
(0.292377 0.0327314 0)
(0.302547 0.0261917 2.97927e-19)
(0.311859 0.0205658 -1.97285e-19)
(0.320411 0.0161388 0)
(0.328113 0.0134982 1.07593e-19)
(-0.00777735 0.0171805 1.63033e-19)
(-0.0201618 0.0478552 -8.9107e-20)
(-0.0295858 0.0765121 -2.28231e-20)
(-0.0364671 0.10231 2.33123e-20)
(-0.0408893 0.125068 9.52854e-20)
(-0.0430714 0.144774 0)
(-0.0432156 0.161516 9.85929e-20)
(-0.0415068 0.175433 1.49702e-19)
(-0.0381126 0.186699 5.05641e-20)
(-0.0331809 0.195502 5.12009e-20)
(-0.0268425 0.202034 5.15856e-20)
(-0.0192123 0.206478 -1.56026e-19)
(-0.010393 0.209009 5.23032e-20)
(-0.000479382 0.209784 2.10005e-19)
(0.0104399 0.208947 5.28392e-20)
(0.0222791 0.206633 5.28689e-20)
(0.034954 0.202964 1.05917e-19)
(0.0483796 0.198058 0)
(0.0624699 0.192032 0)
(0.0771364 0.184998 2.11307e-19)
(0.0922873 0.17707 -4.2145e-19)
(0.107827 0.168364 -5.70421e-23)
(0.123659 0.159001 0)
(0.139682 0.149103 0)
(0.155794 0.138796 1.04261e-19)
(0.171891 0.128207 0)
(0.187872 0.117464 0)
(0.203632 0.106695 -1.02356e-19)
(0.219072 0.096025 -2.04469e-19)
(0.234096 0.0855749 0)
(0.248612 0.0754587 -2.02651e-19)
(0.262536 0.0657827 -4.0392e-19)
(0.275792 0.0566432 2.01109e-19)
(0.288314 0.048125 -1.99925e-19)
(0.300046 0.0403016 1.99522e-19)
(0.310947 0.033237 -1.98341e-19)
(0.320973 0.0269887 -1.97163e-19)
(0.330079 0.0216294 0)
(0.338376 0.0174258 0)
(0.34584 0.0149588 0)