1.11936e-18 	0.5125 	0.5 	0.0658139
1.11936e-18 	0.5375 	0.5 	0.0735399
1.11936e-18 	0.5625 	0.5 	0.07785
1.11936e-18 	0.5875 	0.5 	0.0823093
1.11936e-18 	0.6125 	0.5 	0.0862862
1.11936e-18 	0.6375 	0.5 	0.0899072
1.11936e-18 	0.6625 	0.5 	0.0932163
1.11936e-18 	0.6875 	0.5 	0.0962457
1.11936e-18 	0.7125 	0.5 	0.0990252
1.11936e-18 	0.7375 	0.5 	0.101578
1.11936e-18 	0.7625 	0.5 	0.103923
1.11936e-18 	0.7875 	0.5 	0.106076
1.11936e-18 	0.8125 	0.5 	0.108052
1.11936e-18 	0.8375 	0.5 	0.109864
1.11936e-18 	0.8625 	0.5 	0.111523
1.11936e-18 	0.8875 	0.5 	0.113039
1.11936e-18 	0.9125 	0.5 	0.114421
1.11936e-18 	0.9375 	0.5 	0.115676
1.11936e-18 	0.9625 	0.5 	0.116813
1.11936e-18 	0.9875 	0.5 	0.117837
1.11936e-18 	1.0125 	0.5 	0.118756
1.11936e-18 	1.0375 	0.5 	0.119574
1.11936e-18 	1.0625 	0.5 	0.120298
1.11936e-18 	1.0875 	0.5 	0.120934
1.11936e-18 	1.1125 	0.5 	0.121488
1.11936e-18 	1.1375 	0.5 	0.121965
1.11936e-18 	1.1625 	0.5 	0.122372
1.11936e-18 	1.1875 	0.5 	0.122713
1.11936e-18 	1.2125 	0.5 	0.122994
1.11936e-18 	1.2375 	0.5 	0.123219
1.11936e-18 	1.2625 	0.5 	0.123391
1.11936e-18 	1.2875 	0.5 	0.123516
1.11936e-18 	1.3125 	0.5 	0.123595
1.11936e-18 	1.3375 	0.5 	0.123632
1.11936e-18 	1.3625 	0.5 	0.123629
1.11936e-18 	1.3875 	0.5 	0.12359
1.11936e-18 	1.4125 	0.5 	0.123516
1.11936e-18 	1.4375 	0.5 	0.123406
1.11936e-18 	1.4625 	0.5 	0.123256
1.11936e-18 	1.4875 	0.5 	0.123114
1.11936e-18 	1.55625 	0.5 	0.122958
1.11936e-18 	1.66875 	0.5 	0.120207
1.11936e-18 	1.78125 	0.5 	0.11812
1.11936e-18 	1.89375 	0.5 	0.114824
1.11936e-18 	2.00625 	0.5 	0.111577
1.11936e-18 	2.11875 	0.5 	0.107835
1.11936e-18 	2.23125 	0.5 	0.103988
1.11936e-18 	2.34375 	0.5 	0.099926
