-0.362837 	0.362837 	0.5 	0.134965
-0.380512 	0.380512 	0.5 	0.137885
-0.398188 	0.398188 	0.5 	0.13921
-0.415863 	0.415863 	0.5 	0.140624
-0.433538 	0.433538 	0.5 	0.141935
-0.451213 	0.451213 	0.5 	0.143218
-0.468888 	0.468888 	0.5 	0.144488
-0.486563 	0.486563 	0.5 	0.14574
-0.504238 	0.504238 	0.5 	0.146966
-0.521913 	0.521913 	0.5 	0.14815
-0.539588 	0.539588 	0.5 	0.149279
-0.557263 	0.557263 	0.5 	0.150337
-0.574938 	0.574938 	0.5 	0.151313
-0.592613 	0.592613 	0.5 	0.152199
-0.610288 	0.610288 	0.5 	0.152988
-0.627963 	0.627963 	0.5 	0.153676
-0.645638 	0.645638 	0.5 	0.154258
-0.663313 	0.663313 	0.5 	0.154734
-0.680988 	0.680988 	0.5 	0.155104
-0.698663 	0.698663 	0.5 	0.155369
-0.716338 	0.716338 	0.5 	0.15553
-0.734013 	0.734013 	0.5 	0.155589
-0.751688 	0.751688 	0.5 	0.155549
-0.769363 	0.769363 	0.5 	0.155414
-0.787038 	0.787038 	0.5 	0.155187
-0.804713 	0.804713 	0.5 	0.15487
-0.822388 	0.822388 	0.5 	0.154468
-0.840063 	0.840063 	0.5 	0.153981
-0.857738 	0.857738 	0.5 	0.153413
-0.875413 	0.875413 	0.5 	0.152763
-0.893088 	0.893088 	0.5 	0.152032
-0.910763 	0.910763 	0.5 	0.151218
-0.928438 	0.928438 	0.5 	0.150316
-0.946113 	0.946113 	0.5 	0.149317
-0.963788 	0.963788 	0.5 	0.148206
-0.981463 	0.981463 	0.5 	0.146964
-0.999138 	0.999138 	0.5 	0.145545
-1.01681 	1.01681 	0.5 	0.143737
-1.03449 	1.03449 	0.5 	0.141194
-1.05216 	1.05216 	0.5 	0.138818
-1.061 	1.061 	0.5 	0.136936
-1.12274 	1.12274 	0.5 	0.134343
-1.18448 	1.18448 	0.5 	0.132181
-1.24621 	1.24621 	0.5 	0.128514
-1.30795 	1.30795 	0.5 	0.122797
-1.36969 	1.36969 	0.5 	0.120525
-1.43142 	1.43142 	0.5 	0.113225
-1.49316 	1.49316 	0.5 	0.110586
-1.5549 	1.5549 	0.5 	0.107628
-1.61664 	1.61664 	0.5 	0.101091
-1.67838 	1.67838 	0.5 	0.0981322
