0.362837 	0.362837 	0.5 	-0.0029876 	0.00314546 	-4.55587e-24
0.380512 	0.380512 	0.5 	-0.00743325 	0.00846422 	1.49965e-21
0.398188 	0.398188 	0.5 	-0.0105021 	0.0133119 	-7.7276e-22
0.415863 	0.415863 	0.5 	-0.012481 	0.0177681 	6.44303e-21
0.433538 	0.433538 	0.5 	-0.0135306 	0.0219685 	0
0.451213 	0.451213 	0.5 	-0.0138026 	0.025992 	5.12563e-21
0.468888 	0.468888 	0.5 	-0.0134206 	0.0298967 	8.77382e-21
0.486563 	0.486563 	0.5 	-0.0124876 	0.0337239 	5.40148e-21
0.504238 	0.504238 	0.5 	-0.0110897 	0.0375025 	-3.69847e-21
0.521913 	0.521913 	0.5 	-0.00929896 	0.0412528 	-9.4169e-21
0.539588 	0.539588 	0.5 	-0.00717602 	0.0449891 	0
0.557263 	0.557263 	0.5 	-0.00477194 	0.0487208 	7.84138e-21
0.574938 	0.574938 	0.5 	-0.00212992 	0.0524545 	4.00147e-21
0.592613 	0.592613 	0.5 	0.000713343 	0.0561941 	1.22716e-23
0.610288 	0.610288 	0.5 	0.00372662 	0.059942 	-3.82273e-23
0.627963 	0.627963 	0.5 	0.00688321 	0.0636994 	1.66315e-20
0.645638 	0.645638 	0.5 	0.0101602 	0.0674664 	-4.18554e-21
0.663313 	0.663313 	0.5 	0.013538 	0.071243 	1.27727e-20
0.680988 	0.680988 	0.5 	0.0169996 	0.0750284 	-4.27096e-21
0.698663 	0.698663 	0.5 	0.0205303 	0.0788216 	1.29995e-20
0.716338 	0.716338 	0.5 	0.0241176 	0.0826217 	-8.71178e-21
0.734013 	0.734013 	0.5 	0.0277503 	0.0864274 	1.31491e-20
0.751688 	0.751688 	0.5 	0.0314192 	0.0902376 	4.42358e-21
0.769363 	0.769363 	0.5 	0.035116 	0.094051 	-1.32889e-20
0.787038 	0.787038 	0.5 	0.0388338 	0.0978665 	0
0.804713 	0.804713 	0.5 	0.0425669 	0.101683 	-8.94033e-21
0.822388 	0.822388 	0.5 	0.0463105 	0.105499 	0
0.840063 	0.840063 	0.5 	0.0500609 	0.109313 	-8.98597e-21
0.857738 	0.857738 	0.5 	0.0538155 	0.113124 	0
0.875413 	0.875413 	0.5 	0.0575728 	0.116931 	9.01393e-21
0.893088 	0.893088 	0.5 	0.0613325 	0.120731 	0
0.910763 	0.910763 	0.5 	0.0650958 	0.124522 	9.02975e-21
0.928438 	0.928438 	0.5 	0.0688651 	0.128301 	-9.03562e-21
0.946113 	0.946113 	0.5 	0.0726448 	0.132063 	0
0.963788 	0.963788 	0.5 	0.0764411 	0.135804 	-9.05253e-21
0.981463 	0.981463 	0.5 	0.0802595 	0.139511 	9.06944e-21
0.999138 	0.999138 	0.5 	0.084095 	0.143157 	0
1.01681 	1.01681 	0.5 	0.0879625 	0.146754 	0
1.03449 	1.03449 	0.5 	0.0920269 	0.150502 	-9.32284e-21
1.05216 	1.05216 	0.5 	0.0961639 	0.15424 	1.10891e-20
1.061 	1.061 	0.5 	0.100467 	0.159709 	-1.3661e-22
1.12274 	1.12274 	0.5 	0.121547 	0.159284 	0
1.20948 	1.20948 	0.5 	0.162659 	0.181825 	0
1.27121 	1.27121 	0.5 	0.154951 	0.192874 	0
1.35795 	1.35795 	0.5 	0.194033 	0.207138 	0
1.41969 	1.41969 	0.5 	0.176902 	0.216032 	0
1.49316 	1.49316 	0.5 	0.213236 	0.227565 	0
1.56816 	1.56816 	0.5 	0.249132 	0.24064 	0
1.6299 	1.6299 	0.5 	0.230969 	0.245339 	0
1.71664 	1.71664 	0.5 	0.264386 	0.257187 	0
