# Probe 0 (1 0 0.5)
# Probe 1 (2 0 0.5)
# Probe 2 (3 0 0.5)
# Probe 3 (1 0.5 0.5)
# Probe 4 (2 0.5 0.5)
# Probe 5 (3 0.5 0.5)
# Probe 6 (1 -0.5 0.5)
# Probe 7 (2 -0.5 0.5)
# Probe 8 (3 -0.5 0.5)
# Probe 9 (1 -1.5 0.5)
# Probe 10 (2 -1.5 0.5)
# Probe 11 (3 -1.5 0.5)
# Probe 12 (1 1.5 0.5)
# Probe 13 (2 1.5 0.5)
# Probe 14 (3 1.5 0.5)
#       Probe             0             1             2             3             4             5             6             7             8             9            10            11            12            13            14
#        Time
         0.01      -286.769      -248.165      -214.512      -259.258      -225.499      -200.275       -307.24       -262.59      -231.054       -335.54      -289.899      -253.422      -211.797      -190.761      -167.024
         0.02       70.1024       76.6938       78.6258       61.3905        70.924       73.3062       80.5915       83.8873       83.6446       94.1013       90.7146       88.9946       55.2926       61.9946       62.1006
         0.03      -93.7792      -97.2609      -96.8853      -83.9441      -90.0062      -90.5566      -103.574      -105.622      -104.278      -114.894      -117.768      -117.212      -69.4163      -77.7244      -78.3307
         0.04       111.313       116.178        119.08       99.6256       106.999       110.315       122.641       126.553       128.146       135.722        140.98       143.939       81.0413       90.7618        93.523
         0.05      -97.9171      -99.9093      -96.4073      -87.0899      -91.8988      -89.8525      -108.285      -108.587      -104.132      -120.354      -121.823      -116.726      -71.6777      -79.5541      -77.0075
         0.06       120.569       125.537       127.776       108.033       115.893        118.82        132.61       136.376       137.018       146.482       151.362       152.609       88.1352        98.845       101.114
         0.07      -104.899       -107.35      -105.147      -93.6039      -98.8937      -97.8832      -115.842      -116.513      -113.408      -128.263      -130.066      -126.929      -76.9394      -85.5099      -83.5814
         0.08       129.454       134.792       136.899       116.331       124.949       127.888       142.028       145.902       146.201        156.24       161.154       161.721        95.663       107.463       109.862
         0.09      -116.856      -120.148      -119.199      -104.426      -110.828       -110.92       -128.87      -130.343      -128.329      -142.279      -144.922      -143.282      -85.8693      -95.5533      -94.5143
          0.1       143.357       149.385       151.904       129.016       138.796       142.104       157.124       161.397       161.955       172.353       177.674       178.413       106.627       119.858        122.47
         0.11      -137.762      -142.469      -143.169       -123.42      -131.819        -133.4      -151.578      -154.312      -153.579      -166.708      -170.657      -170.431      -101.787      -113.625      -113.989
         0.12        165.68       172.798       176.068       149.739       160.983       164.925         180.8       186.214       187.346       197.975       203.942       205.181       124.096       139.553       142.509
         0.13      -167.541       -173.88      -176.156      -150.798      -161.278      -164.253      -183.446      -188.019      -188.619      -201.595      -207.057      -208.591      -124.365      -139.043      -140.594
         0.14       198.309       206.977       211.709       179.612       193.079       198.276       216.064        222.81       225.227       236.179       243.134       246.416       149.244       167.734       171.166
         0.15      -211.147      -219.742      -224.564      -190.477      -204.068      -209.205      -230.816      -237.559      -240.445      -253.363      -260.814      -267.257      -157.328      -176.021      -178.776
         0.16       246.551       257.561       264.819       223.445       240.405       247.739       268.454        277.22       282.087       292.949       301.465       311.809       186.078        208.84       212.991
         0.17      -275.331      -287.359       -296.05      -248.393      -266.876      -275.309      -300.854      -310.715      -317.507       -330.04      -340.647      -356.105      -205.116      -229.226      -233.828
         0.18       315.402       329.829       341.325       285.724       307.797       318.923       343.454       355.131       364.241       374.184       385.264       408.029       237.877       266.462       272.165
         0.19      -367.089      -383.848      -399.449      -330.878      -356.308      -370.385      -401.335      -415.594      -429.757      -440.314       -456.49      -485.253      -272.412      -303.929      -313.009
          0.2       410.231       429.426       448.869       371.525       400.691       418.698       446.823       462.659       480.387       486.028       501.938       538.261       308.553       344.996       357.263
         0.21      -494.536      -517.952      -544.954      -445.216       -480.41      -503.933      -541.164       -561.86      -587.001      -593.977      -619.471      -663.823      -364.973      -406.588      -426.324
         0.22       534.458       560.112       592.816        483.86       523.098       551.958       582.161        603.66       633.082       631.669       655.631       706.298       401.164       448.312       476.157
         0.23      -663.684      -696.003      -738.937      -596.765      -645.184       -682.18      -726.869      -756.843      -796.069      -798.525      -836.346       -899.31      -487.154      -543.048       -578.87
         0.24        684.67       718.243        765.84       620.164       672.161       715.446       745.232       774.403       814.984       805.736       838.951       904.969       514.149       576.384       621.072
         0.25      -868.993      -912.021      -973.378      -780.802      -845.152      -898.543       -952.11      -993.319      -1048.12      -1046.71       -1099.2       -1183.1      -635.171      -710.014      -763.407
         0.26       841.923       883.896        946.24        763.89       829.729       888.151       914.782       952.066       1002.55        983.81       1024.74       1106.17       634.862       716.267       777.024
         0.27      -1077.16      -1131.26      -1210.51      -967.893      -1048.47      -1118.39      -1179.85       -1232.7      -1302.43      -1296.72      -1363.48      -1468.07      -786.434      -880.818      -951.767
         0.28       967.712       1016.51       1090.57       880.522       958.076       1029.45       1048.62       1091.68          1149       1119.58       1163.42        1257.1        735.58       834.765       909.652
         0.29      -1220.76      -1282.51      -1374.45      -1098.01      -1190.38       -1272.1      -1335.68      -1396.35      -1476.24      -1465.65      -1539.93      -1658.77      -894.069      -1002.66      -1086.93
          0.3       1020.73       1072.29        1151.9       931.832       1015.32       1094.01       1102.72       1146.49       1206.15        1168.2       1208.21       1307.22       783.784       893.385       976.918
         0.31      -1237.57      -1299.66      -1394.27      -1114.65      -1209.29      -1294.22      -1351.83      -1411.46       -1493.6       -1478.7      -1549.43      -1669.18      -912.563      -1024.74      -1113.93
         0.32       991.151       1040.57       1118.37       907.114       988.724       1067.22       1068.34       1107.98       1165.32       1125.62       1157.54       1253.64       767.254       876.564       960.797
         0.33      -1136.46      -1191.69      -1278.21      -1025.78      -1111.87      -1191.07      -1239.59      -1289.91      -1364.03      -1350.48      -1407.88      -1518.22      -844.813      -950.593      -1035.63
         0.34       906.043       949.961       1019.83       830.067       903.606       975.398       975.973       1009.44       1060.03       1027.44       1051.38        1137.1        704.03       804.296       882.099
         0.35      -982.955      -1029.41      -1103.65       -888.96       -962.96      -1032.35      -1070.63      -1110.14      -1173.09      -1163.39      -1203.89      -1296.76      -735.152      -826.936      -901.469
         0.36       800.776       838.768       898.111       732.996       797.085       859.057       863.379       890.918       933.136       911.455       929.842       1000.24       622.113       709.158       776.523
         0.37      -829.079      -867.492      -926.574      -750.121      -811.813      -869.514      -902.674      -933.453      -981.273      -979.619      -1008.83      -1080.47      -622.085      -698.859      -761.304
         0.38       698.997       731.526       779.811       638.964       693.368       745.201       754.857       778.083       810.434       800.891       816.389       869.297       541.309       615.224       671.242
         0.39      -697.524      -728.646      -773.957      -630.881      -681.738       -727.89      -759.732      -783.599      -817.423      -824.467      -846.932      -896.331      -524.377      -588.321      -638.907
          0.4       610.796       638.544       676.831       557.328       603.316       645.853       660.973       680.648       703.918       705.166       719.521       754.935       470.969       533.498       579.101
         0.41      -592.858      -618.054       -652.32       -535.74      -577.637      -614.346      -646.387      -664.925       -687.61      -702.262      -720.299      -750.451      -446.043      -499.628      -539.547
         0.42       538.484       562.224       592.329       490.133       529.569       564.237       584.014       600.646       617.132       626.334       640.033       661.108       413.451       466.747       503.352
         0.43       -512.55      -533.196      -559.072      -462.603      -497.614       -526.85      -559.588      -574.159      -588.864      -609.059       -624.02      -639.725      -385.438      -431.058      -462.192
         0.44       481.121       501.625       525.499       436.899       471.122       499.643       522.929       537.039       548.875       563.443       576.355       588.636       367.965       414.122       443.326
         0.45      -452.136      -469.391      -489.231      -407.551      -437.428      -460.997      -494.337      -506.026      -515.574      -539.163      -551.982      -558.474      -339.662      -379.247      -403.445
         0.46       436.593       454.546       474.031       395.826       425.918       449.834       475.389       487.631         496.3       514.328       526.428       533.439       332.744       373.527       396.927
         0.47      -407.444      -422.238      -437.979      -366.841      -392.982      -412.448      -446.046      -455.705      -462.119      -487.502      -498.874      -501.601      -305.735      -341.045      -359.887
         0.48       402.857        418.88       435.377       364.778       391.814       412.386       439.287       450.114       456.839       476.851        488.27       493.003       306.217       343.114       362.462
         0.49      -375.304      -388.378       -401.56      -337.584       -361.12      -377.795      -411.298      -419.577      -424.288      -450.358      -460.794      -462.387      -281.319       -313.64      -328.799
          0.5       378.078       392.609       407.408       341.808       366.851       385.221       413.054       422.444        428.15       449.207       460.073       464.014       286.887       321.048       337.537
         0.51      -353.461      -365.404      -377.272      -317.687      -339.552      -354.552      -387.683      -395.092      -399.152       -425.16      -435.076      -436.591      -264.628      -294.943      -307.928
         0.52       361.304       374.903       388.874       326.396       350.055        367.14       395.055       403.795       409.235       430.481       441.017       445.009       273.597       306.039       320.872
         0.53      -340.466      -351.827      -363.396      -305.842      -326.853      -341.119       -373.66      -380.661       -384.88      -410.258       -420.06      -422.089      -254.572      -283.756       -295.79
         0.54       351.916       365.088           379       317.928       340.765       357.362       384.701       393.473       399.334       420.084       430.503       434.899       265.941        297.46       311.687
         0.55       -335.65      -346.921      -359.082      -301.414      -322.309      -336.686      -368.527      -375.532      -380.637       -404.94          -415      -418.073      -250.684      -279.459       -291.54
         0.56       349.558       362.651       377.411       315.664       338.527       355.475       382.258       390.997       397.977       417.726       428.261       433.648       263.792       295.056       309.611
         0.57      -339.032      -350.618      -364.227      -304.291      -325.838      -341.124      -372.202      -379.655        -386.4      -409.235      -419.926      -424.632       -252.85      -281.913      -294.991
         0.58       354.524       367.992       384.374        320.26       343.682       361.702       387.657        396.84       405.602       423.802       434.675       441.623       267.155       298.933       314.855
         0.59      -350.849      -363.228      -379.024      -314.852      -337.727      -354.604      -385.044      -393.376      -402.553      -423.537      -435.226      -442.232      -261.305      -291.399      -306.314
          0.6       367.212       381.451       400.148       331.702        356.54       376.296       401.473       411.317       422.552       438.739        450.25       459.315       276.456       309.512       327.619
         0.61      -371.699      -385.439      -404.141      -333.765      -358.564      -377.689       -407.59      -417.482      -429.778      -448.594      -461.694      -471.965      -276.338      -308.447      -326.023
         0.62       388.112       403.607       425.289       350.828       377.588       399.765       424.138       435.117       449.224       463.157       475.568        487.89       291.911       327.224       348.482
         0.63      -402.135       -417.78      -440.156      -361.357      -388.825      -410.928      -440.809      -452.541      -468.502      -485.087       -500.05      -515.139      -298.433      -333.527      -354.654
         0.64       417.557       434.815       460.078        377.55       407.177       432.398       456.077       468.527       486.103       497.396       511.006       528.105        313.91       352.409       377.357
         0.65      -442.782      -460.894      -487.599       -397.95      -429.024      -454.807      -485.239      -499.277      -519.505      -533.728      -551.055      -572.573      -328.045      -367.085      -392.477
         0.66       455.581        475.14        504.52       412.075       445.318       474.206       497.291       511.674       533.124       541.446       556.467       580.382       342.421       385.127       414.376
         0.67       -493.72      -514.798      -546.526      -443.812      -479.259      -509.363      -540.912      -557.922      -582.847      -594.672      -614.821      -644.037      -365.242      -409.241      -439.518
         0.68       501.517        523.79       557.765       453.843       491.343       524.451       547.029       563.878       589.313       594.455       611.014       643.276        377.06       425.008       459.049
         0.69      -554.026      -578.591       -615.79      -498.321      -538.539       -573.57      -606.761      -627.411      -657.188      -666.798      -690.104      -728.306      -409.324       -459.33      -495.059
          0.7       553.618       578.941       617.751       501.528       543.466       581.307       603.261       623.012       652.376       654.194       672.274       713.565       416.562       470.765        509.95
         0.71      -621.134      -649.597      -692.508      -558.762      -604.636      -644.844      -680.049      -704.584      -739.622       -746.99       -773.87      -821.786      -458.498      -515.129      -556.733
         0.72       608.428       637.034       680.603       551.596       598.519       641.187       662.374       685.049       718.216       716.609       736.239       785.601       458.503       519.606       563.999
         0.73      -690.478      -722.981      -771.957      -621.238      -672.911      -718.489      -755.727      -784.247      -824.713      -829.686      -860.106      -917.641      -509.282      -572.891      -620.183
         0.74       661.176       692.942       741.111       599.945       651.741       699.102       719.084       744.485       781.144       775.995       796.723       853.538       499.288       567.211       616.693
         0.75      -754.618      -790.806      -845.272      -678.883      -736.191      -786.674      -825.691      -857.615      -903.012      -905.876      -939.506      -1005.29       -556.69      -626.808      -679.345
         0.76       705.839       740.211       792.237        641.08       697.049       748.486       766.894       794.388       833.703        825.49       846.896       909.156       534.364       608.315       662.311
         0.77       -805.09      -844.098      -902.763      -724.563      -786.092      -840.589      -880.514      -915.114      -964.139      -965.382      -1001.13      -1072.78      -594.321      -669.776      -726.656
         0.78       736.565       772.689       827.333       669.657       728.581       782.994       799.506       828.224        869.17       858.601       880.027       945.428       559.177       637.599       695.043
         0.79      -834.286      -874.867      -936.018      -751.216      -815.251      -872.271      -911.958      -947.864      -998.913      -999.092      -1035.49      -1110.02      -616.681      -695.436      -755.137
          0.8       749.733       786.548       842.284       682.264       742.552       798.465       813.122       842.052       883.451       871.605         892.4       958.396       570.658       651.458       710.795
         0.81      -838.683        -879.4      -941.241      -755.327      -820.125      -877.707      -916.399      -951.857      -1003.38         -1003      -1038.69      -1112.85       -621.05      -700.599      -761.131
         0.82        745.16       781.625       836.956       678.533       738.563       794.336       807.749       835.939       876.593       864.876       884.583        948.58       568.291       649.132       708.573
         0.83      -820.099      -859.667      -920.034      -738.925      -802.431      -858.945      -895.684      -929.597       -979.46      -979.643      -1013.28       -1083.8       -608.36      -686.501      -746.056
         0.84       725.621       760.964       814.483       660.656       719.479       773.527       786.543       813.188       852.225       841.934       860.563       920.138        554.07       632.813       690.762
         0.85      -784.474      -821.856      -878.946      -706.841      -767.795      -821.547      -856.725       -887.83      -934.472      -936.311      -967.347      -1031.55       -582.84      -657.752      -714.987
         0.86       696.063       729.576       780.234       633.745       689.918       741.251       754.647       779.421       815.922       808.365       825.878       879.423       531.495        606.75       662.114
         0.87      -739.294      -774.035      -826.854      -666.206      -723.623       -773.64      -807.297      -835.472       -878.09      -882.125      -910.304      -966.852      -549.879      -620.551      -674.463
         0.88       661.249       692.691       739.903       601.894       654.916       702.871       717.228       740.051       773.641       769.343       786.058       832.773       504.502       575.444       627.565
         0.89      -691.232      -723.224      -771.433      -622.851      -676.389      -722.343      -754.877      -780.123      -818.489      -824.949      -850.477      -898.855      -514.502      -580.523      -630.605
          0.9       625.457       654.801       698.392       569.035       618.805       663.119       678.863       699.786       730.433       729.533       745.535       785.406       476.485       542.925       591.525
         0.91      -645.109      -674.435      -718.273      -581.138      -630.932      -672.911      -704.694       -727.26      -761.607      -770.446        -793.6      -834.503      -480.363      -541.798      -588.008
         0.92       591.581       618.961        659.14       537.886       584.569        625.39       642.601       661.818       689.758       691.968       707.265       741.208       449.901       512.015        557.18
         0.93        -603.9      -630.902      -670.776      -543.801      -590.208      -628.574      -659.955       -680.24      -710.991      -722.018      -743.273      -777.518       -449.69       -506.93      -549.553
         0.94        561.51       587.171       624.285       510.177       554.128       591.803        610.46       628.224       653.753       658.722       673.554       702.286       426.156        484.48       526.524
         0.95      -568.999      -594.052      -630.612      -512.046      -555.694      -590.961       -622.38      -640.615      -668.307       -681.19      -701.012      -729.972       -423.62      -477.308      -516.781
         0.96       536.193        560.43       595.005        486.83       528.489       563.499       583.414       599.995       623.625       630.758       645.119       670.051       406.091       461.228       500.631
         0.97      -541.187      -564.736      -598.677      -486.849      -528.146      -560.877      -592.033      -609.089      -634.634      -648.745       -667.42      -692.612      -402.644      -453.432      -490.397
         0.98       516.008       539.137       571.752       468.214       508.063       540.953        561.83       577.579       599.795       608.459       622.457        645.03       390.105       442.661       479.954
         0.99      -520.231      -542.694      -574.701       -467.79      -507.399      -538.197      -569.371      -585.487       -609.44      -624.397       -642.33       -665.22      -386.812      -435.398      -470.416
            1       501.126        523.48       554.679       454.464       493.015       524.311       545.933       561.131       582.406       592.079       605.831       626.956       378.228       428.918       464.629
         1.01      -505.977       -527.76      -558.508      -454.803      -493.308      -522.756      -553.985      -569.563      -592.562       -607.93       -625.46      -647.175      -375.957      -423.033      -456.705
         1.02       491.476        513.37       543.695       445.518       483.256       513.481       535.639        550.57       571.348       581.538       595.182       615.676       370.436        419.88       454.569
         1.03      -498.196      -519.734       -549.82      -447.829      -485.664      -514.314      -545.462      -561.104      -583.702      -599.093      -616.512      -637.955      -369.877       -416.13      -449.052
         1.04       486.916       508.656       538.617       441.247       478.641       508.296       530.794       545.744       566.413         576.7       590.384       610.926       366.603       415.433       449.614
         1.05      -496.497      -518.087      -548.093       -446.22      -484.005      -512.394      -543.707      -559.521       -582.22      -597.399      -615.021      -637.004       -368.38      -414.365      -447.075
         1.06       487.307       509.167       539.216       441.512       478.999       508.555       531.279        546.48       567.382       577.452       591.286       612.573       366.614       415.359       449.563
         1.07      -500.587       -522.57      -552.995       -449.85      -488.059      -516.683      -548.244      -564.546       -587.78      -602.532      -620.615      -643.828      -371.193      -417.495      -450.492
         1.08       492.348       514.602       545.157       446.035       484.034       513.935       536.764       552.449       573.902       583.456       597.557        620.23       370.219       419.475       454.118
         1.09      -510.078      -532.746      -564.081      -458.359      -497.446      -526.759      -558.651       -575.73       -599.91      -614.031      -632.798      -657.964      -378.001      -425.204      -458.933
          1.1       501.694       524.574        556.04       454.499       493.395       524.053       546.877       563.243       585.559       594.322       608.761       633.487        377.15       427.454       462.946
         1.11      -524.475      -548.079      -580.761       -471.31       -511.67       -542.08      -574.391      -592.483      -617.983      -631.326      -650.949      -678.764      -388.472      -437.064      -471.934
         1.12       514.858       538.574       571.284       466.465       506.595       538.367       561.096       578.314       601.726         609.5       624.344       651.526        387.05       438.867       475.576
         1.13      -543.154      -567.907      -602.358      -488.343      -530.142      -562.018      -594.702      -614.169      -641.171       -653.69      -674.268      -705.209       -402.11      -452.556      -488.956
         1.14       531.133       555.838       590.084       481.324        522.95       556.127       578.632       596.827       621.549       628.136       643.423        673.41       399.458       453.144       491.354
         1.15      -565.175       -591.27       -627.66      -508.201       -551.85      -585.449      -618.722      -639.565      -668.361      -679.978      -701.722       -735.97      -418.327      -470.869      -509.035
         1.16       549.726       575.518       611.446        498.29         541.6       576.388       598.667       617.889       643.972       649.357       665.157        698.02       413.674       469.501       509.451
         1.17      -589.391      -616.904      -655.399      -530.042      -575.722      -611.198      -645.129      -667.408      -698.104      -708.857      -731.844      -769.455       -436.18      -491.056      -531.177
         1.18       569.446       596.372       634.048       516.313       561.408       597.909       619.895       640.158       667.612       671.774       688.057       723.792       428.821       486.974       528.778
         1.19      -614.243       -643.19      -683.837      -552.479       -600.22      -637.646      -672.203      -695.919      -728.542      -738.422        -762.6      -803.643      -454.531      -511.845      -553.997
          1.2       588.918       616.961       656.366       534.152       581.017       619.245       640.809       662.064        690.86        693.75       710.412       748.975       443.889       504.391       548.064
         1.21      -637.981      -668.285      -710.986      -573.932      -623.628      -662.949      -698.034      -723.094      -757.534      -766.578      -791.796      -836.044      -472.138      -531.792      -575.915
         1.22       606.735       635.795       676.774       550.514       599.005       638.849       659.903       682.035       712.021       713.718       730.617       771.706       457.767       520.476       565.918
         1.23      -658.789      -690.273      -734.774      -592.762      -644.212      -685.181      -720.641      -746.844       -782.86      -791.162      -817.187      -864.211       -487.65      -549.387      -595.282
         1.24        621.55        651.45        693.72       564.173       614.032       655.226       675.723       698.544       729.477       730.143       747.122       790.238        469.44       534.029       580.987
         1.25      -674.995      -707.391      -753.281      -607.464      -660.298      -702.552      -738.201      -765.255      -802.468      -810.184      -836.722      -885.835      -499.847      -563.222      -610.553
         1.26        632.25       662.741       705.916       574.095       624.952       667.125       687.089       710.357       741.909       741.823       758.742       803.181       478.003       543.991       592.112
         1.27      -685.284      -718.228      -764.951      -616.618      -670.568      -713.605      -749.404      -776.741      -814.821      -822.102      -848.909      -899.208      -507.798      -572.165      -620.464
         1.28       638.174       668.966       712.577       579.635       631.061       673.763       693.321       716.763        748.53       748.073       764.834       809.723       482.872       549.676       598.533
         1.29      -689.161      -722.302      -769.296      -620.214      -674.557      -717.863      -753.504      -780.937      -819.193      -826.385      -853.065      -903.531      -510.971      -575.768      -624.553
          1.3       639.099       669.908       713.485       580.612       632.152       674.895       694.176       717.535       749.157       748.718       765.257       809.763       483.875       550.883       599.998
         1.31      -686.703      -719.686       -766.36      -618.089      -672.287      -715.344      -750.708      -777.874      -815.774      -823.152      -849.428        -899.1      -509.457      -574.056       -622.81