# Probe 0 (1 0 0.5)
# Probe 1 (2 0 0.5)
# Probe 2 (3 0 0.5)
# Probe 3 (1 0.5 0.5)
# Probe 4 (2 0.5 0.5)
# Probe 5 (3 0.5 0.5)
# Probe 6 (1 -0.5 0.5)
# Probe 7 (2 -0.5 0.5)
# Probe 8 (3 -0.5 0.5)
# Probe 9 (1 -1.5 0.5)
# Probe 10 (2 -1.5 0.5)
# Probe 11 (3 -1.5 0.5)
# Probe 12 (1 1.5 0.5)
# Probe 13 (2 1.5 0.5)
# Probe 14 (3 1.5 0.5)
#       Probe             0             1             2             3             4             5             6             7             8             9            10            11            12            13            14
#        Time
         0.01     -0.119346        64.999       119.903       3.92104       59.2799       126.029      0.523415       63.2286       137.198      -2.25072       79.8727       150.035       4.50494        64.672       116.143
         0.02      -10.3504      -1.12907       2.86652      -10.5194      -3.53185      0.950571      -7.67814      -1.37837       2.73739     -0.285365       -2.3676      -3.05324      -7.21055      -7.83878      -6.50413
         0.03       0.53554      0.762892       1.34619      0.968421      0.950111        1.3809     -0.242345      0.341379       1.04644     -0.349208      0.725273      0.967151       1.84126       2.08191        1.7436
         0.04      0.805997      0.818669       1.02573       0.45466      0.461764      0.771169      0.935558      0.826761       1.04695       1.02013       1.19225       1.40323      0.327486      0.505381      0.681977
         0.05       0.54335      0.633802      0.745679      0.586515      0.563479      0.684931      0.397094      0.540033      0.680119      0.408735      0.638996       0.81958      0.620662      0.716132      0.795473
         0.06      0.585689      0.747138      0.836562      0.602815      0.656842      0.753593      0.627698       0.74827      0.843558       0.78929      0.895069         0.999      0.592374      0.687963      0.771442
         0.07      0.686337      0.752808      0.813824      0.672331      0.699718      0.766575       0.68116      0.740907      0.814512      0.703856      0.824303      0.910386      0.643513      0.725004      0.784499
         0.08      0.627307       0.74247      0.806758      0.608536      0.689889      0.766851      0.686922      0.757395      0.832367      0.786141      0.870541      0.937556      0.626388      0.711982       0.77055
         0.09      0.684869      0.760805      0.811805      0.687751      0.728224      0.786016      0.703249      0.765077      0.830571      0.762722      0.848723      0.908346      0.669166      0.738272       0.78335
          0.1      0.623444      0.739519      0.801098      0.621327       0.70668      0.777569      0.676751      0.759074      0.831871      0.789707       0.85973      0.912002      0.640718       0.71666      0.765247
         0.11       0.67618      0.760771      0.811239        0.6772      0.735021      0.791975      0.700181      0.772838      0.836028      0.779539       0.85117       0.89975      0.670587      0.734757      0.774896
         0.12      0.698703      0.763105      0.808046      0.682813      0.733485      0.786562      0.731635      0.781912      0.837365      0.799839      0.857482       0.90156      0.656371      0.719741      0.761254
         0.13      0.676498      0.758237      0.803522       0.68672      0.735697      0.786743      0.701507      0.772505       0.83014      0.781568       0.84109      0.884895      0.667302      0.721793      0.759866
         0.14      0.687202      0.763829      0.807412      0.682673      0.737473      0.788868      0.721099      0.783303      0.836753      0.800638      0.851091      0.891108      0.660989      0.716928      0.755247
         0.15      0.710339      0.762106      0.800908      0.697559       0.73843      0.784287      0.727403      0.777538      0.826839      0.783762      0.833951      0.873722      0.663596      0.713719      0.749783
         0.16      0.684136      0.754301      0.797171       0.67506      0.729875      0.780708      0.716387      0.774436      0.826528      0.792147      0.836597      0.874892      0.657102      0.707327      0.743989
         0.17      0.692064       0.75838      0.797393      0.687654      0.735738      0.781609      0.718967      0.775574      0.824187      0.785516      0.829266      0.866656       0.66296       0.70833       0.74281
         0.18      0.702109      0.759076       0.79619      0.690144      0.734558      0.779383      0.727269      0.777583      0.823768      0.789491      0.829208      0.865251      0.657903      0.702868       0.73738
         0.19      0.692616      0.754947      0.792711      0.685749      0.732205      0.777039      0.717354      0.772639      0.819492      0.783706      0.822454      0.858094      0.659627      0.701048      0.734317
          0.2      0.696012      0.756252      0.792304      0.685296      0.732175      0.775812      0.724416      0.775162      0.819608      0.787876       0.82304      0.857295      0.656064      0.697756      0.730999
         0.21       0.70062      0.754346      0.788867      0.690744      0.731416      0.773164      0.721894      0.771464       0.81494      0.781366      0.816266      0.850308      0.657615      0.696054      0.727989
         0.22      0.693545      0.752356      0.786764      0.683267      0.728599      0.770674       0.72102      0.770949      0.813655      0.784359       0.81606      0.848952      0.654009      0.692381      0.724365
         0.23      0.693874      0.751518      0.784907      0.685099      0.728451      0.769292      0.718409      0.768883      0.810742      0.780358      0.811555      0.843961      0.655403      0.691622      0.722366
         0.24      0.693175      0.750378      0.783211      0.683176      0.726802       0.76728      0.718773      0.768271      0.809316      0.781335      0.810609      0.842137      0.653203      0.688864      0.719329
         0.25      0.693061      0.748528      0.780645      0.683152       0.72529       0.76493      0.717525       0.76603      0.806334      0.778789      0.807046      0.838017      0.652425      0.686884       0.71669
         0.26      0.692538      0.747186      0.778659      0.682058      0.723791       0.76283      0.717157      0.764775      0.804288       0.77824      0.805163      0.835453      0.650929      0.684668      0.714026
         0.27      0.691909      0.745407      0.776404      0.681302      0.722151      0.760642      0.716015      0.762853       0.80179      0.776534      0.802532      0.832259      0.649789      0.682714      0.711533
         0.28       0.69115      0.743757      0.774347      0.680198      0.720522      0.758528      0.715125       0.76122      0.799621      0.775463       0.80048      0.829614      0.648418      0.680701      0.709068
         0.29      0.690522      0.742185      0.772211      0.679375      0.718998      0.756395       0.71423      0.759549      0.797285      0.774116      0.798213      0.826787       0.64721      0.678823       0.70672
          0.3       0.68978      0.740474      0.770103      0.678322      0.717358      0.754245      0.713251      0.757821       0.79504      0.772859      0.796107      0.824152      0.645888      0.676911      0.704389
         0.31      0.689494      0.739457      0.768021      0.677979      0.716231      0.752105      0.712925      0.756603      0.792715      0.771766      0.793981      0.821443      0.644848      0.675175      0.702156
         0.32       0.68818      0.737254      0.765515      0.676358       0.71409      0.749634      0.711365      0.754384      0.790067      0.770013      0.791543      0.818534      0.643115      0.672985      0.699574
         0.33      0.687221      0.735471      0.763428      0.675192      0.712385      0.747527      0.710191       0.75259      0.787856      0.768647      0.789555      0.816079      0.641697      0.671144       0.69735
         0.34      0.686275      0.733721      0.761368      0.674023      0.710721      0.745436      0.709041      0.750819      0.785665      0.767299      0.787585      0.813663       0.64032      0.669366      0.695221
         0.35      0.685417      0.732054      0.759366       0.67294      0.709138      0.743406      0.707976      0.749129      0.783542      0.766017      0.785704       0.81135      0.639023      0.667685      0.693196
         0.36       0.68455      0.730507      0.757402      0.671917      0.707628      0.741429       0.70697      0.747522      0.781431      0.764739      0.783841      0.809062      0.637741       0.66606       0.69123
         0.37      0.683694      0.729107      0.755473      0.670971      0.706197      0.739487      0.706058       0.74602      0.779322      0.763461       0.78199      0.806792      0.636463      0.664496      0.689338
         0.38      0.682855      0.727507       0.75358       0.66993      0.704693       0.73758      0.705003      0.744406      0.777317      0.762203      0.780237      0.804661      0.635215      0.662915      0.687444
         0.39      0.683883      0.727217      0.752754      0.670565      0.704429      0.736731      0.705574      0.744155      0.776476      0.761946       0.77982       0.80379      0.634619      0.662387      0.686535
          0.4      0.682534       0.72545      0.750539      0.669107      0.702673      0.734542      0.704335      0.742276      0.774062      0.760346      0.777619      0.801214      0.633034      0.660612      0.684515
         0.41      0.681795      0.724025       0.74881      0.668216      0.701321      0.732784      0.703354      0.740831      0.772224       0.75916      0.776026      0.799277      0.631882       0.65917      0.682768
         0.42      0.680615      0.722308       0.74681      0.666895      0.699644      0.730775      0.702012      0.739093      0.770132      0.757755      0.774224      0.797152      0.630443      0.657522       0.68088
         0.43      0.679458      0.720837      0.744965       0.66568      0.698199      0.728931      0.700963      0.737552      0.768131      0.756406       0.77244      0.795025      0.629063      0.656018      0.679132
         0.44      0.678514      0.719248      0.743149      0.664558      0.696668        0.7271      0.699742      0.735959       0.76624      0.755112      0.770804        0.7931      0.627733      0.654474      0.677365
         0.45      0.677469      0.717786      0.741391      0.663438      0.695248      0.725348      0.698615      0.734453      0.764376      0.753864       0.76921      0.791205      0.626477      0.653057       0.67571
         0.46      0.676486      0.716367      0.739685      0.662361      0.693877      0.723642      0.697546      0.732995      0.762571      0.752654      0.767658      0.789356      0.625256      0.651672      0.674089
         0.47      0.675473      0.714953      0.737998      0.661263      0.692509      0.721949      0.696462      0.731542      0.760777      0.751415      0.766086      0.787501       0.62404        0.6503      0.672487
         0.48      0.674518      0.713683      0.736423      0.660275      0.691279      0.720325      0.695547      0.730232      0.759079      0.750299      0.764595      0.785701      0.622953      0.648997      0.670918
         0.49      0.673358      0.712019      0.734527      0.658969      0.689664      0.718455      0.694201      0.728545      0.757114      0.748852      0.762868      0.783726      0.621506      0.647424      0.669152
          0.5      0.672286      0.710572      0.732823       0.65782       0.68826      0.716734      0.693065      0.727066      0.755316      0.747572      0.761305      0.781905       0.62021      0.645996      0.667519
         0.51      0.671224      0.709171      0.731183      0.656677      0.686897      0.715081       0.69195      0.725637      0.753587      0.746351      0.759796       0.78014      0.618959      0.644625      0.665947
         0.52      0.670192      0.707773      0.729535      0.655557      0.685535      0.713415      0.690847      0.724207      0.751848       0.74508      0.758254      0.778355      0.617701      0.643254      0.664386
         0.53      0.669157      0.706406      0.727929      0.654437      0.684198      0.711802      0.689753      0.722809      0.750154      0.743853      0.756762      0.776625      0.616459      0.641909      0.662853
         0.54      0.668108      0.705046      0.726347      0.653314      0.682875      0.710212      0.688654      0.721421      0.748489      0.742645      0.755296      0.774926      0.615233      0.640582      0.661344
         0.55      0.666942      0.703681      0.724811      0.652111      0.681548       0.70868      0.687497      0.720035       0.74687       0.74147      0.753862      0.773265      0.614007      0.639283      0.659878
         0.56      0.665995       0.70235       0.72325      0.651076       0.68027      0.707121      0.686455      0.718672      0.745236      0.740265      0.752419      0.771605      0.612823      0.637986      0.658401
         0.57      0.664866      0.700992      0.721701      0.649892       0.67894      0.705569      0.685303      0.717287      0.743605      0.739041      0.750964      0.769938      0.611572      0.636674      0.656933
         0.58      0.663893      0.699683       0.72017      0.648826      0.677667       0.70402      0.684249      0.715948      0.741999      0.737811      0.749521      0.768293      0.610355      0.635381      0.655484
         0.59      0.662855      0.698401      0.718694      0.647727      0.676418      0.702538      0.683175      0.714642      0.740453      0.736662      0.748152      0.766721      0.609184      0.634133      0.654076
          0.6      0.661673      0.697117      0.717269      0.646519       0.67517      0.701112      0.682059      0.713344      0.738953      0.735534      0.746785      0.765148      0.607995        0.6329      0.652703
         0.61      0.660838      0.695897      0.715838      0.645586      0.673985      0.699688      0.681102      0.712096       0.73746      0.734437      0.745485      0.763661      0.606884      0.631708      0.651355
         0.62      0.659762      0.694588       0.71434      0.644458      0.672716      0.698179      0.679977      0.710756      0.735891      0.733211      0.744081      0.762076      0.605685      0.630442      0.649944
         0.63      0.658771      0.693435      0.713012      0.643423      0.671576      0.696823      0.679015      0.709595      0.734504      0.732234      0.742863      0.760652      0.604643      0.629294       0.64862
         0.64      0.657674      0.692041      0.711432      0.642262      0.670236       0.69526       0.67782      0.708166      0.732859      0.730913       0.74138      0.759002       0.60337      0.627953      0.647143
         0.65      0.656548      0.690773      0.710022      0.641093       0.66899      0.693854      0.676709      0.706884      0.731392      0.729793      0.740066      0.757512      0.602164      0.626718      0.645785
         0.66      0.655505      0.689562      0.708662      0.639986      0.667811      0.692485      0.675676      0.705651      0.729964       0.72865      0.738728      0.756002      0.601003      0.625532      0.644485
         0.67      0.654663      0.688428      0.707347      0.639076      0.666712      0.691181      0.674735      0.704489      0.728597      0.727621      0.737534      0.754651      0.599961      0.624434      0.643255
         0.68      0.653622      0.687213       0.70597      0.637988      0.665526      0.689791      0.673661      0.703252      0.727158      0.726476      0.736234       0.75319      0.598829      0.623257       0.64195
         0.69      0.652643      0.686118      0.704729      0.636976      0.664447      0.688526      0.672723       0.70215      0.725868      0.725551      0.735095      0.751869      0.597835      0.622173      0.640712
          0.7      0.651562      0.684779      0.703224      0.635837      0.663156      0.687039      0.671542      0.700774      0.724304      0.724252      0.733662      0.750294      0.596593      0.620882      0.639303
         0.71      0.650458      0.683567      0.701891      0.634697      0.661968       0.68571      0.670462      0.699554       0.72293      0.723192      0.732431      0.748908      0.595428        0.6197      0.638017
         0.72      0.649431      0.682408      0.700608      0.633616      0.660832      0.684422      0.669444      0.698376      0.721583      0.722104      0.731174      0.747503      0.594308      0.618573      0.636794
         0.73      0.648606      0.681347      0.699385      0.632731      0.659806      0.683207      0.668545      0.697287      0.720314       0.72112      0.730047      0.746237      0.593321       0.61754      0.635642
         0.74      0.647593      0.680198      0.698095      0.631676      0.658682      0.681909      0.667502      0.696114      0.718973       0.72003      0.728819      0.744868      0.592239      0.616425      0.634416
         0.75      0.646626      0.679078      0.696836      0.630657      0.657583      0.680647      0.666507      0.694974      0.717666      0.718994      0.727634      0.743542      0.591167      0.615322      0.633206
         0.76      0.645641      0.677951      0.695574      0.629628      0.656481      0.679386      0.665501      0.693825      0.716354      0.717942      0.726436      0.742208      0.590093      0.614218      0.631996
         0.77      0.644661      0.676837      0.694334      0.628606      0.655394      0.678145      0.664505      0.692693      0.715068      0.716914      0.725263        0.7409      0.589035      0.613131      0.630806
         0.78      0.643678      0.675797      0.693188      0.627607      0.654374      0.676979      0.663598      0.691657      0.713884      0.716043      0.724201      0.739686      0.588097      0.612122      0.629666
         0.79      0.642612      0.674523      0.691777      0.626492      0.653143      0.675588      0.662439       0.69035      0.712426      0.714797      0.722849      0.738217        0.5869      0.610894      0.628341
          0.8      0.641615      0.673406      0.690535      0.625444      0.652036      0.674336      0.661431      0.689218      0.711145      0.713769      0.721683      0.736924      0.585803      0.609774      0.627127
         0.81      0.640629      0.672299      0.689307      0.624418      0.650952       0.67311      0.660425      0.688091      0.709874      0.712731      0.720514      0.735632      0.584736      0.608687      0.625949
         0.82       0.63956      0.671182       0.68811      0.623334      0.649866      0.671924      0.659397       0.68697      0.708643      0.711756      0.719395       0.73439      0.583678      0.607629      0.624809
         0.83      0.638586      0.670116      0.686946      0.622307      0.648816      0.670756      0.658446      0.685888      0.707428      0.710746      0.718245      0.733121      0.582619      0.606587      0.623697
         0.84      0.637781      0.669139      0.685838      0.621457      0.647869      0.669655      0.657569      0.684882      0.706282      0.709815      0.717207      0.731975      0.581697      0.605639      0.622653
         0.85      0.636812      0.668084      0.684672      0.620454      0.646835      0.668488      0.656579      0.683805      0.705073      0.708807      0.716088      0.730743      0.580684      0.604614      0.621542
         0.86       0.63588       0.66705      0.683527      0.619482       0.64582      0.667343      0.655631      0.682753       0.70389      0.707844      0.715002      0.729543      0.579679      0.603595      0.620438
         0.87       0.63495      0.666014      0.682378      0.618514      0.644804      0.666193      0.654687      0.681692      0.702695      0.706852      0.713892      0.728322      0.578669       0.60257       0.61933
         0.88      0.634001      0.664977       0.68124      0.617531      0.643788      0.665056      0.653733      0.680639      0.701521      0.705889      0.712808      0.727129      0.577666      0.601557      0.618236
         0.89      0.633046      0.663938      0.680103      0.616542       0.64277      0.663921      0.652773      0.679585      0.700349      0.704924      0.711725       0.72594      0.576661      0.600547      0.617145
          0.9      0.632087      0.662899      0.678971      0.615548       0.64175       0.66279      0.651813      0.678532      0.699181      0.703961      0.710647      0.724757      0.575644      0.599539      0.616059
         0.91      0.631173      0.661896      0.677867      0.614604       0.64077      0.661685      0.650889      0.677511      0.698042      0.703022      0.709594      0.723598      0.574691       0.59855      0.614989
         0.92      0.630222      0.660871      0.676751       0.61362      0.639765      0.660571      0.649936      0.676472      0.696891      0.702068      0.708527      0.722431      0.573699      0.597553      0.613918
         0.93      0.629248      0.659911      0.675728      0.612641      0.638825      0.659536      0.649055      0.675527      0.695852      0.701297      0.707597      0.721382      0.572827      0.596637        0.6129
         0.94      0.628215      0.658727      0.674439      0.611574      0.637675      0.658268       0.64793      0.674307      0.694523      0.700108      0.706335      0.720037      0.571689      0.595494      0.611688
         0.95      0.627219      0.657751      0.673391      0.610532      0.636695      0.657199      0.647058      0.673334      0.693443      0.699244      0.705318      0.718909      0.570682      0.594502       0.61063
         0.96      0.626628      0.656866      0.672291      0.609772      0.635784       0.65611      0.646511      0.672421      0.692284      0.698294      0.704218      0.717703      0.569585      0.593491      0.609592
         0.97      0.625772      0.655961      0.671307      0.608909      0.634894        0.6551      0.645594      0.671483      0.691257      0.697402      0.703244      0.716649      0.568728      0.592603      0.608621
         0.98      0.624472      0.654774      0.670148      0.607727      0.633792      0.653988      0.644193      0.670289      0.690096      0.696382      0.702193      0.715533      0.567777      0.591628      0.607579
         0.99      0.623598      0.653808      0.669106      0.606793      0.632838      0.652944      0.643305      0.669312      0.689033      0.695495      0.701224      0.714469      0.566819      0.590675      0.606563
            1      0.622688      0.652839      0.668054       0.60586      0.631885      0.651893      0.642387      0.668322      0.687947      0.694575      0.700207      0.713363      0.565866      0.589724      0.605549
         1.01      0.621676      0.651876      0.667055      0.604848      0.630941      0.650898      0.641467      0.667369      0.686931       0.69377      0.699276       0.71234      0.564941      0.588825      0.604591
         1.02      0.620926      0.650976       0.66605      0.604031      0.630059      0.649894      0.640674      0.666447       0.68589      0.692897      0.698297      0.711271      0.564061      0.587926      0.603618
         1.03      0.619923      0.649941      0.664934      0.603024      0.629045      0.648787      0.639632      0.665382      0.684741      0.691868      0.697208      0.710111      0.563046      0.586924      0.602559
         1.04      0.618974      0.648985      0.663924      0.602061      0.628107      0.647781      0.638723      0.664428      0.683715      0.691039      0.696273      0.709089      0.562103      0.586002      0.601586
         1.05      0.618119      0.648053      0.662914      0.601169      0.627188      0.646768      0.637859      0.663479      0.682674      0.690158      0.695297       0.70803      0.561191      0.585089      0.600608
         1.06      0.617199      0.647079      0.661856      0.600221       0.62623      0.645714       0.63691      0.662478      0.681581      0.689192      0.694256      0.706914      0.560219      0.584125      0.599589
         1.07      0.616223      0.646142      0.660882      0.599238      0.625304      0.644739      0.636022       0.66155       0.68059      0.688399      0.693346      0.705917      0.559289      0.583227      0.598643
         1.08      0.615463      0.645256      0.659902      0.598418      0.624435      0.643761      0.635225      0.660645      0.679579      0.687546      0.692395      0.704883      0.558417      0.582343      0.597692
         1.09      0.614472      0.644248      0.658826       0.59743       0.62345      0.642695      0.634201      0.659612      0.678475      0.686553      0.691349      0.703773      0.557429      0.581373      0.596672
          1.1      0.613529      0.643322      0.657859      0.596471      0.622531      0.641728      0.633322      0.658689      0.677489      0.685754      0.690446      0.702788        0.5565      0.580479      0.595736
         1.11      0.612749      0.642449      0.656902      0.595639      0.621673       0.64077      0.632528        0.6578      0.676504      0.684923      0.689515      0.701776      0.555635      0.579607      0.594801
         1.12       0.61176       0.64146       0.65586       0.59466      0.620706      0.639743      0.631534      0.656792      0.675436      0.683977      0.688506      0.700705       0.55466      0.578668      0.593823
         1.13      0.610966      0.640619      0.654946      0.593805      0.619865      0.638812      0.630774      0.655949      0.674499      0.683222      0.687641      0.699753      0.553806      0.577814      0.592907
         1.14      0.609976      0.639607      0.653881      0.592834      0.618886      0.637771      0.629741      0.654911      0.673409      0.682228      0.686599      0.698656      0.552823      0.576862      0.591918
         1.15      0.609129       0.63873      0.652948      0.591955      0.618014      0.636829      0.628914      0.654031      0.672458      0.681439      0.685723      0.697704      0.551939      0.575991      0.590995
         1.16      0.608183      0.637785      0.651955      0.591003      0.617089      0.635849      0.627983      0.653072       0.67144      0.680551       0.68476      0.696673      0.551002      0.575089      0.590054
         1.17      0.607397       0.63694       0.65104       0.59017      0.616252      0.634929      0.627201      0.652218      0.670503      0.679767      0.683882       0.69572      0.550149      0.574239       0.58915
         1.18      0.606428      0.635977      0.650031      0.589208      0.615308      0.633933      0.626233      0.651237      0.669469      0.678846        0.6829      0.694679      0.549195      0.573325      0.588202
         1.19      0.605639      0.635141      0.649131      0.588372      0.614479      0.633026      0.625456      0.650394      0.668549       0.67808      0.682042      0.693747      0.548348      0.572483      0.587307
          1.2      0.604672      0.634181      0.648128      0.587415      0.613539      0.632036      0.624489      0.649417      0.667521      0.677163      0.681066      0.692714      0.547397      0.571575      0.586366
         1.21      0.603888      0.633352      0.647237      0.586584      0.612716      0.631139      0.623717      0.648582      0.666612      0.676405      0.680219      0.691794      0.546555       0.57074       0.58548
         1.22      0.602925      0.632399      0.646243      0.585632      0.611783      0.630158      0.622754      0.647612      0.665593      0.675493       0.67925       0.69077      0.545609      0.569839      0.584548
         1.23      0.602153      0.631585      0.645366      0.584805      0.610971      0.629273      0.622004      0.646795      0.664699      0.674754      0.678417      0.689864      0.544775      0.569014      0.583672
         1.24      0.601206      0.630643      0.644384      0.583868      0.610047      0.628302      0.621052      0.645833       0.66369      0.673848      0.677456      0.688849      0.543833      0.568118      0.582747
         1.25      0.600422      0.629822      0.643502      0.583038      0.609235      0.627419      0.620285      0.645004      0.662793      0.673088      0.676613      0.687939      0.542999      0.567297      0.581879
         1.26      0.599462      0.628875      0.642523      0.582101      0.608309      0.626454      0.619313      0.644041      0.661791      0.672181      0.675658      0.686934      0.542064      0.566406      0.580962
         1.27      0.598683      0.628064      0.641658       0.58128      0.607503      0.625585      0.618551      0.643226       0.66091      0.671445      0.674838      0.686046      0.541238      0.565593      0.580103
         1.28      0.597734      0.627131      0.640691      0.580345      0.606588       0.62463      0.617601      0.642276       0.65992       0.67055      0.673892       0.68505      0.540309      0.564712      0.579195
         1.29      0.596967      0.626327      0.639833      0.579533       0.60579      0.623768      0.616849      0.641468      0.659047      0.669819      0.673078       0.68417      0.539486      0.563904      0.578342
          1.3      0.596022      0.625402      0.638874      0.578604      0.604882      0.622821      0.615905      0.640525      0.658065       0.66893       0.67214      0.683183      0.538563      0.563029      0.577442
         1.31      0.595264      0.624607      0.638025      0.577793      0.604089      0.621967      0.615168      0.639728      0.657201      0.668209      0.671332       0.68231      0.537747      0.562228      0.576598