# Probe 0 (1 0 0.5)
# Probe 1 (2 0 0.5)
# Probe 2 (3 0 0.5)
# Probe 3 (1 0.5 0.5)
# Probe 4 (2 0.5 0.5)
# Probe 5 (3 0.5 0.5)
# Probe 6 (1 -0.5 0.5)
# Probe 7 (2 -0.5 0.5)
# Probe 8 (3 -0.5 0.5)
# Probe 9 (1 -1.5 0.5)
# Probe 10 (2 -1.5 0.5)
# Probe 11 (3 -1.5 0.5)
# Probe 12 (1 1.5 0.5)
# Probe 13 (2 1.5 0.5)
# Probe 14 (3 1.5 0.5)
#       Probe             0             1             2             3             4             5             6             7             8             9            10            11            12            13            14
#        Time
         0.01             (0.52858 -0.326622 8.28054e-19)             (0.691335 -0.371594 0.501878)             (0.74945 -0.319917 0.361021)             (0.708108 -0.446102 -1.16964e-17)             (0.729958 -0.434715 0.427493)             (0.770122 -0.377827 0.323351)             (0.532019 -0.149017 -7.34479e-20)             (0.675911 -0.276157 0.492271)             (0.736247 -0.253403 0.371544)             (0.51199 -0.150229 8.47208e-18)             (0.581125 -0.238186 0.800739)             (0.675716 -0.227442 0.608394)             (0.612243 -0.347106 -7.01185e-18)             (0.742438 -0.394812 0.531947)             (0.779041 -0.349835 0.39631)
         0.02             (0.413506 -0.374073 -2.02136e-19)             (0.615434 -0.229942 -0.169838)             (0.70952 -0.186719 -0.168568)             (0.560835 -0.455091 2.78169e-18)             (0.656552 -0.287458 -0.153827)             (0.730867 -0.225102 -0.152049)             (0.421353 -0.181862 2.23869e-20)             (0.619398 -0.1623 -0.173102)             (0.687889 -0.148583 -0.17106)             (0.460222 -0.13397 -2.36583e-18)             (0.627216 -0.141383 -0.274363)             (0.659198 -0.135959 -0.290567)             (0.57378 -0.373617 1.8124e-18)             (0.728626 -0.288563 -0.200418)             (0.781857 -0.227397 -0.194436)
         0.03             (0.437438 -0.458973 2.70687e-19)             (0.636005 -0.404523 0.211281)             (0.691578 -0.348457 0.197448)             (0.628547 -0.547433 -3.80155e-18)             (0.681774 -0.444036 0.189455)             (0.714811 -0.381907 0.178974)             (0.432314 -0.256836 -1.80149e-20)             (0.627542 -0.334791 0.216977)             (0.670538 -0.314701 0.20412)             (0.577094 -0.196249 2.90052e-18)             (0.641973 -0.267645 0.376862)             (0.633793 -0.268652 0.354131)             (0.691359 -0.461023 -2.29876e-18)             (0.762464 -0.449938 0.255758)             (0.764957 -0.3898 0.237403)
         0.04             (0.415868 -0.360012 -3.21294e-19)             (0.60197 -0.191346 -0.254113)             (0.678369 -0.138941 -0.254524)             (0.565932 -0.431407 4.51137e-18)             (0.645178 -0.226311 -0.228076)             (0.701672 -0.164186 -0.228678)             (0.431432 -0.168264 2.02657e-20)             (0.595047 -0.138421 -0.264372)             (0.654354 -0.115446 -0.262397)             (0.448436 -0.124204 -3.42683e-18)             (0.584918 -0.106893 -0.461791)             (0.628617 -0.0974446 -0.456559)             (0.636715 -0.352702 2.68346e-18)             (0.710333 -0.252342 -0.302187)             (0.757616 -0.18587 -0.299634)
         0.05             (0.413008 -0.43729 2.82601e-19)             (0.593096 -0.376596 0.214877)             (0.626393 -0.309648 0.18425)             (0.609114 -0.522292 -3.94296e-18)             (0.642346 -0.40566 0.191295)             (0.651384 -0.341067 0.165539)             (0.412192 -0.235486 -1.96729e-20)             (0.572447 -0.308957 0.219856)             (0.604195 -0.27686 0.191523)             (0.567143 -0.182571 3.03774e-18)             (0.565363 -0.244775 0.379633)             (0.563053 -0.235697 0.329102)             (0.722967 -0.433644 -2.37149e-18)             (0.726258 -0.418397 0.256382)             (0.698179 -0.349286 0.20786)
         0.06             (0.39051 -0.330998 -3.48028e-19)             (0.558369 -0.151397 -0.274064)             (0.615661 -0.0951654 -0.270955)             (0.541112 -0.396657 4.89232e-18)             (0.602663 -0.177598 -0.246261)             (0.63846 -0.115544 -0.244688)             (0.409941 -0.144041 2.14318e-20)             (0.543953 -0.105205 -0.283463)             (0.592442 -0.0758953 -0.277826)             (0.426933 -0.108404 -3.69882e-18)             (0.527469 -0.0819318 -0.48939)             (0.565735 -0.0628497 -0.479493)             (0.637678 -0.316124 2.91872e-18)             (0.674482 -0.205406 -0.327764)             (0.696406 -0.132664 -0.320566)
         0.07             (0.388183 -0.41017 3.02763e-19)             (0.555188 -0.346939 0.231454)             (0.579508 -0.279747 0.20882)             (0.587091 -0.492065 -4.23818e-18)             (0.605173 -0.370097 0.206582)             (0.602074 -0.306602 0.187134)             (0.390019 -0.212632 -2.05546e-20)             (0.529815 -0.284416 0.237312)             (0.559802 -0.251336 0.216683)             (0.551045 -0.167774 3.2385e-18)             (0.516546 -0.223991 0.408229)             (0.525993 -0.211755 0.376713)             (0.723307 -0.401895 -2.54536e-18)             (0.694203 -0.38258 0.2763)             (0.64821 -0.311124 0.235223)
         0.08             (0.365312 -0.29815 -3.73701e-19)             (0.521248 -0.113837 -0.294086)             (0.574142 -0.0604093 -0.289259)             (0.514776 -0.360238 5.26884e-18)             (0.56458 -0.135197 -0.265422)             (0.594233 -0.0758583 -0.262212)             (0.387506 -0.117334 2.20836e-20)             (0.504902 -0.0739357 -0.302742)             (0.5538 -0.0459034 -0.29537)             (0.401933 -0.090506 -3.94597e-18)             (0.483471 -0.0569568 -0.518983)             (0.535455 -0.0383217 -0.504019)             (0.621947 -0.277265 3.16682e-18)             (0.637632 -0.158743 -0.356433)             (0.648176 -0.0849509 -0.347167)
         0.09             (0.365605 -0.389735 3.37286e-19)             (0.526 -0.330994 0.259912)             (0.54909 -0.268167 0.242711)             (0.567434 -0.469891 -4.72901e-18)             (0.574825 -0.350921 0.232587)             (0.568334 -0.291267 0.217717)             (0.369048 -0.195708 -2.21084e-20)             (0.500694 -0.2724 0.267118)             (0.532623 -0.242996 0.251192)             (0.539383 -0.156475 3.59273e-18)             (0.487023 -0.211972 0.459354)             (0.508406 -0.203437 0.435746)             (0.715224 -0.376195 -2.84115e-18)             (0.664258 -0.359782 0.310088)             (0.612079 -0.291043 0.277066)
          0.1             (0.34212 -0.26563 -4.13853e-19)             (0.490142 -0.0762471 -0.325941)             (0.542292 -0.0266849 -0.322152)             (0.487828 -0.324686 5.84386e-18)             (0.531132 -0.0949077 -0.29493)             (0.561534 -0.038036 -0.291591)             (0.3676 -0.0907707 2.39162e-20)             (0.474885 -0.041921 -0.334904)             (0.523465 -0.0166992 -0.328909)             (0.37452 -0.071814 -4.35353e-18)             (0.452192 -0.0315458 -0.571651)             (0.512444 -0.016928 -0.559693)             (0.599321 -0.238799 3.52904e-18)             (0.601086 -0.112943 -0.397581)             (0.614328 -0.0408989 -0.385607)
         0.11             (0.346959 -0.376591 3.97656e-19)             (0.505561 -0.327233 0.309371)             (0.529672 -0.267885 0.298398)             (0.552965 -0.456751 -5.59015e-18)             (0.553332 -0.345588 0.278141)             (0.54713 -0.288382 0.268131)             (0.351512 -0.184523 -2.46971e-20)             (0.481404 -0.270873 0.318211)             (0.515746 -0.246426 0.307707)             (0.535705 -0.148727 4.2102e-18)             (0.471554 -0.207944 0.54523)             (0.502441 -0.205369 0.53134)             (0.710056 -0.358927 -3.36768e-18)             (0.642889 -0.351334 0.371642)             (0.5909 -0.285695 0.346158)
         0.12             (0.322384 -0.234441 -4.78373e-19)             (0.465637 -0.0378077 -0.37719)             (0.518437 0.00940818 -0.375205)             (0.46247 -0.290766 6.78208e-18)             (0.504215 -0.0550024 -0.342186)             (0.539064 0.00181269 -0.339231)             (0.351603 -0.064639 2.59475e-20)             (0.452388 -0.00904477 -0.386693)             (0.49932 0.0136309 -0.383227)             (0.346008 -0.0521249 -5.00159e-18)             (0.433221 -0.00603384 -0.655609)             (0.493088 0.00599245 -0.651753)             (0.573083 -0.202229 4.10695e-18)             (0.569042 -0.0687926 -0.462965)             (0.595537 0.00187833 -0.447501)
         0.13             (0.332136 -0.372141 4.83706e-19)             (0.491233 -0.337078 0.378511)             (0.517729 -0.280812 0.372949)             (0.542068 -0.454039 -6.82955e-18)             (0.538253 -0.354768 0.341403)             (0.533233 -0.299062 0.334666)             (0.337829 -0.181718 -2.80221e-20)             (0.469311 -0.283268 0.389337)             (0.506194 -0.266348 0.38447)             (0.540589 -0.14668 5.09137e-18)             (0.467533 -0.216131 0.664579)             (0.517658 -0.226342 0.67208)             (0.707166 -0.351103 -4.1148e-18)             (0.62806 -0.358007 0.457081)             (0.578395 -0.294596 0.434091)
         0.14             (0.3044 -0.201708 -5.7263e-19)             (0.443548 0.00792476 -0.452061)             (0.496301 0.0550039 -0.455481)             (0.436341 -0.254671 8.13483e-18)             (0.479823 -0.00814404 -0.410705)             (0.519564 0.0505518 -0.410479)             (0.33825 -0.0368445 3.02071e-20)             (0.432572 0.0299438 -0.463283)             (0.473612 0.0535678 -0.467158)             (0.314315 -0.0304219 -5.96732e-18)             (0.418687 0.0227834 -0.782428)             (0.455694 0.0388064 -0.813065)             (0.542272 -0.163933 4.93874e-18)             (0.541077 -0.0199021 -0.55593)             (0.583314 0.0513769 -0.537872)
         0.15             (0.320347 -0.378532 6.09652e-19)             (0.483966 -0.365992 0.479421)             (0.512513 -0.311666 0.483288)             (0.53783 -0.46267 -8.62649e-18)             (0.530248 -0.380949 0.433163)             (0.526982 -0.327284 0.43263)             (0.326304 -0.187263 -3.41628e-20)             (0.464136 -0.31326 0.493908)             (0.50446 -0.305146 0.500472)             (0.557651 -0.151927 6.39809e-18)             (0.47573 -0.238757 0.841066)             (0.566156 -0.274991 0.907551)             (0.711022 -0.353859 -5.20479e-18)             (0.621685 -0.383686 0.580393)             (0.572349 -0.319548 0.558475)
         0.16             (0.287881 -0.164673 -7.11952e-19)             (0.423223 0.0651071 -0.563056)             (0.472454 0.113821 -0.576523)             (0.407712 -0.213232 1.01202e-17)             (0.456542 0.0513359 -0.511974)             (0.500121 0.112817 -0.517901)             (0.328167 -0.00519759 3.69892e-20)             (0.413899 0.080216 -0.577614)             (0.443649 0.113827 -0.595048)             (0.277666 -0.0057996 -7.40217e-18)             (0.404529 0.0592312 -0.973126)             (0.354196 0.103409 -1.10814)             (0.505813 -0.122276 6.15708e-18)             (0.517205 0.0376704 -0.691046)             (0.57426 0.112416 -0.671688)
         0.17             (0.312781 -0.399599 7.94984e-19)             (0.482056 -0.418004 0.627959)             (0.522244 -0.3676 0.649572)             (0.542165 -0.488049 -1.12498e-17)             (0.530846 -0.435953 0.568011)             (0.532628 -0.378773 0.579084)             (0.316949 -0.204218 -4.38254e-20)             (0.466136 -0.365855 0.648496)             (0.521894 -0.375461 0.677168)             (0.592703 -0.166861 8.33377e-18)             (0.509667 -0.283505 1.10738)             (0.581379 -0.330125 1.25635)             (0.722113 -0.37038 -6.78455e-18)             (0.624012 -0.433616 0.756437)             (0.582747 -0.371455 0.744004)
         0.18             (0.27414 -0.123132 -9.10761e-19)             (0.403399 0.139105 -0.721676)             (0.440149 0.18856 -0.75639)             (0.376391 -0.166112 1.29411e-17)             (0.433904 0.125258 -0.656591)             (0.473074 0.190202 -0.678023)             (0.322439 0.0312742 4.69322e-20)             (0.395793 0.14634 -0.741747)             (0.40063 0.200702 -0.785693)             (0.2349 0.0237652 -9.45543e-18)             (0.382851 0.107175 -1.25402)             (0.283731 0.179836 -1.45975)             (0.463343 -0.0747919 7.87106e-18)             (0.496556 0.110187 -0.880002)             (0.557564 0.190352 -0.87475)
         0.19             (0.310211 -0.44079 1.05991e-18)             (0.489076 -0.502231 0.840098)             (0.565782 -0.474628 0.899839)             (0.557934 -0.535782 -1.49859e-17)             (0.540952 -0.522885 0.760008)             (0.556361 -0.46172 0.79597)             (0.310209 -0.238914 -5.84235e-20)             (0.480596 -0.455538 0.870959)             (0.562962 -0.485692 0.938446)             (0.654832 -0.195163 1.11169e-17)             (0.599255 -0.368453 1.50583)             (0.63425 -0.408402 1.73593)             (0.741185 -0.406069 -9.01011e-18)             (0.641527 -0.518903 1.00398)             (0.652094 -0.47702 1.04557)
          0.2             (0.263404 -0.0780305 -1.18458e-18)             (0.383234 0.230395 -0.940593)             (0.375193 0.292502 -1.02618)             (0.341701 -0.113103 1.68268e-17)             (0.406498 0.218409 -0.856966)             (0.429637 0.278772 -0.910849)             (0.322717 0.0708422 6.05572e-20)             (0.37694 0.228304 -0.969059)             (0.313279 0.321844 -1.06794)             (0.188144 0.0574652 -1.2283e-17)             (0.336011 0.167707 -1.66203)             (0.228542 0.260495 -1.93286)             (0.413873 -0.0173255 1.02119e-17)             (0.47873 0.200133 -1.1387)             (0.461129 0.320439 -1.24319)
         0.21             (0.314084 -0.50972 1.42785e-18)             (0.508374 -0.631409 1.13527)             (0.601909 -0.611912 1.25)             (0.587281 -0.613471 -2.01648e-17)             (0.564693 -0.652978 1.02755)             (0.605565 -0.607571 1.1087)             (0.3084 -0.298475 -7.91801e-20)             (0.521082 -0.599978 1.18335)             (0.595035 -0.630759 1.30514)             (0.755321 -0.24115 1.49951e-17)             (0.699339 -0.481136 2.06285)             (0.714819 -0.529026 2.37915)             (0.767939 -0.465761 -1.20723e-17)             (0.68697 -0.653677 1.34736)             (0.697598 -0.596314 1.48701)
         0.22             (0.257516 -0.0346815 -1.54329e-18)             (0.361907 0.334246 -1.2284)             (0.291777 0.419855 -1.37618)             (0.303018 -0.058169 2.19149e-17)             (0.371233 0.324501 -1.12275)             (0.362147 0.381873 -1.23043)             (0.33215 0.108594 7.79624e-20)             (0.351027 0.324527 -1.26989)             (0.254147 0.431734 -1.41158)             (0.142151 0.0922693 -1.59679e-17)             (0.247541 0.237976 -2.20126)             (0.172135 0.342205 -2.54148)             (0.355139 0.0494658 1.32813e-17)             (0.452011 0.304721 -1.48661)             (0.378145 0.432818 -1.69186)
         0.23             (0.326636 -0.617178 1.91618e-18)             (0.544735 -0.819299 1.52775)             (0.646619 -0.807937 1.71348)             (0.632727 -0.730882 -2.70292e-17)             (0.602771 -0.837901 1.38379)             (0.647181 -0.795036 1.52031)             (0.313977 -0.392466 -1.07007e-19)             (0.589355 -0.813584 1.60148)             (0.652282 -0.843511 1.77717)             (0.911017 -0.312166 2.01559e-17)             (0.80866 -0.636804 2.80526)             (0.834393 -0.705785 3.22596)             (0.799601 -0.556135 -1.61149e-17)             (0.79774 -0.865631 1.81923)             (0.759565 -0.791728 2.054)
         0.24             (0.26019 -0.0080422 -1.97705e-18)             (0.34014 0.435352 -1.57754)             (0.240858 0.516588 -1.77918)             (0.26372 -0.0146391 2.80889e-17)             (0.328831 0.425513 -1.44794)             (0.283076 0.490412 -1.61263)             (0.354789 0.131283 9.75321e-20)             (0.310531 0.420595 -1.6371)             (0.205769 0.529008 -1.81835)             (0.114516 0.119316 -2.03762e-17)             (0.178048 0.293841 -2.82985)             (0.131991 0.413879 -3.25883)             (0.287614 0.120896 1.70283e-17)             (0.392338 0.414587 -1.94152)             (0.320712 0.527908 -2.2191)
         0.25             (0.350292 -0.772979 2.5089e-18)             (0.606796 -1.07341 2.00566)             (0.715029 -1.07514 2.26073)             (0.693531 -0.894874 -3.53656e-17)             (0.655475 -1.08646 1.81704)             (0.696645 -1.04588 2.01749)             (0.331286 -0.530215 -1.40652e-19)             (0.655296 -1.07187 2.10786)             (0.728771 -1.12464 2.34176)             (1.11794 -0.412585 2.64172e-17)             (0.963988 -0.84536 3.7006)             (1.00379 -0.941306 4.24517)             (0.835675 -0.662058 -2.10078e-17)             (0.905075 -1.11417 2.39562)             (0.84324 -1.0563 2.72017)
         0.26             (0.276842 -0.0240857 -2.43121e-18)             (0.324718 0.503596 -1.94509)             (0.200213 0.568077 -2.20054)             (0.232317 -0.00652541 3.45998e-17)             (0.288763 0.484903 -1.79304)             (0.231603 0.530131 -2.00564)             (0.395339 0.115247 1.15077e-19)             (0.269848 0.475904 -2.01716)             (0.16785 0.577685 -2.2369)             (0.134801 0.119952 -2.48943e-17)             (0.161769 0.305601 -3.46323)             (0.134037 0.442367 -3.98683)             (0.218821 0.192993 2.10328e-17)             (0.298004 0.494576 -2.44213)             (0.270533 0.585138 -2.78929)
         0.27             (0.386438 -0.974307 3.10988e-18)             (0.677583 -1.37119 2.4908)             (0.793805 -1.38169 2.81468)             (0.759654 -1.09679 -4.3841e-17)             (0.724632 -1.38277 2.25948)             (0.761567 -1.34741 2.51709)             (0.367895 -0.708831 -1.73278e-19)             (0.726486 -1.36738 2.62177)             (0.81733 -1.44686 2.91226)             (1.35151 -0.525032 3.27284e-17)             (1.16588 -1.0918 4.59849)             (1.21636 -1.21513 5.26866)             (0.884246 -0.796042 -2.60129e-17)             (1.00386 -1.4033 2.99189)             (0.940687 -1.36276 3.40243)
         0.28             (0.312592 -0.111973 -2.7946e-18)             (0.329102 0.487417 -2.2398)             (0.182722 0.521715 -2.53856)             (0.22 -0.0628399 3.98843e-17)             (0.269998 0.450306 -2.07665)             (0.20725 0.474647 -2.32859)             (0.456878 0.0351204 1.24314e-19)             (0.271176 0.428007 -2.31201)             (0.157292 0.524512 -2.56339)             (0.232259 0.0834337 -2.83531e-17)             (0.234619 0.233207 -3.93564)             (0.210139 0.381931 -4.53652)             (0.16666 0.221575 2.43773e-17)             (0.214925 0.478258 -2.86913)             (0.245905 0.547945 -3.27825)
         0.29             (0.431528 -1.19167 3.52453e-18)             (0.736985 -1.63018 2.82529)             (0.862702 -1.65758 3.19983)             (0.807224 -1.29966 -4.97368e-17)             (0.786583 -1.64267 2.56846)             (0.819861 -1.61791 2.86763)             (0.427907 -0.900725 -1.92383e-19)             (0.791128 -1.6348 2.97219)             (0.893861 -1.73432 3.30331)             (1.56567 -0.619516 3.69971e-17)             (1.38155 -1.33186 5.19712)             (1.43829 -1.46685 5.95599)             (0.929842 -0.905921 -2.95706e-17)             (1.07826 -1.67068 3.42257)             (1.03449 -1.64565 3.89927)
          0.3             (0.364236 -0.278443 -2.94789e-18)             (0.360956 0.362157 -2.36376)             (0.196949 0.354102 -2.68443)             (0.229699 -0.194044 4.22108e-17)             (0.279631 0.308907 -2.20574)             (0.209773 0.30365 -2.48045)             (0.533966 -0.11317 1.21879e-19)             (0.318068 0.262511 -2.42485)             (0.181401 0.347908 -2.6911)             (0.404795 0.0113134 -2.96109e-17)             (0.423064 0.0602826 -4.08435)             (0.370509 0.215227 -4.72486)             (0.137231 0.19545 2.59776e-17)             (0.181976 0.344327 -3.0847)             (0.260735 0.38862 -3.53521)
         0.31             (0.474594 -1.37689 3.57305e-18)             (0.762947 -1.77382 2.86255)             (0.895721 -1.82189 3.25207)             (0.811336 -1.45167 -5.0498e-17)             (0.811471 -1.78365 2.61048)             (0.845265 -1.77985 2.92256)             (0.504021 -1.06112 -1.90011e-19)             (0.828526 -1.79248 3.00448)             (0.931574 -1.90328 3.34596)             (1.7181 -0.676958 3.73384e-17)             (1.54964 -1.50701 5.22123)             (1.61633 -1.63061 5.99807)             (0.9515 -0.945546 -3.01752e-17)             (1.10495 -1.83859 3.50905)             (1.09629 -1.82499 4.0118)
         0.32             (0.416022 -0.483176 -2.86256e-18)             (0.411227 0.165566 -2.29245)             (0.234125 0.112098 -2.6096)             (0.247112 -0.366615 4.10936e-17)             (0.307551 0.109152 -2.14992)             (0.233728 0.0639932 -2.4247)             (0.610188 -0.293919 1.11692e-19)             (0.398594 0.0411354 -2.33848)             (0.227592 0.0987351 -2.60197)             (0.598873 -0.0733119 -2.85507e-17)             (0.670863 -0.175385 -3.90414)             (0.576473 -0.0157675 -4.53747)             (0.142572 0.132572 2.54261e-17)             (0.209772 0.118141 -3.03052)             (0.310016 0.149451 -3.49039)
         0.33             (0.504248 -1.4952 3.28111e-18)             (0.742981 -1.79002 2.62202)             (0.885934 -1.85565 2.9827)             (0.769202 -1.52462 -4.64777e-17)             (0.787509 -1.79291 2.39896)             (0.830371 -1.80723 2.69412)             (0.577235 -1.16318 -1.6721e-19)             (0.824079 -1.81844 2.741)             (0.920133 -1.9362 3.05853)             (1.76737 -0.680561 3.41169e-17)             (1.68213 -1.60466 4.74121)             (1.71615 -1.69372 5.45701)             (0.940378 -0.909948 -2.79287e-17)             (1.08582 -1.90048 3.26039)             (1.11107 -1.88616 3.74325)
         0.34             (0.451423 -0.672404 -2.61677e-18)             (0.451595 -0.0297086 -2.08954)             (0.276333 -0.127067 -2.38223)             (0.258233 -0.527731 3.76051e-17)             (0.33444 -0.0826648 -1.96329)             (0.26351 -0.163519 -2.21852)             (0.666875 -0.459788 1.00276e-19)             (0.49523 -0.164626 -2.12141)             (0.274269 -0.144982 -2.3699)             (0.747032 -0.138033 -2.60682e-17)             (1.02021 -0.419501 -3.50815)             (0.762466 -0.24711 -4.12192)             (0.17164 0.0630353 2.33222e-17)             (0.283847 -0.132369 -2.77473)             (0.374063 -0.0995068 -3.21269)
         0.35             (0.517807 -1.54879 2.83799e-18)             (0.704268 -1.73526 2.26155)             (0.845862 -1.80367 2.57705)             (0.706142 -1.53372 -4.02792e-17)             (0.748173 -1.71114 2.07762)             (0.787521 -1.76098 2.33841)             (0.628279 -1.20713 -1.40036e-19)             (0.794385 -1.74692 2.34881)             (0.87688 -1.85955 2.63239)             (1.7426 -0.650054 2.94044e-17)             (1.71013 -1.6225 4.007)             (1.75989 -1.67779 4.67332)             (0.896803 -0.835597 -2.43001e-17)             (1.03046 -1.87855 2.83162)             (1.08595 -1.8603 3.2664)
         0.36             (0.466832 -0.820983 -2.31266e-18)             (0.473564 -0.186098 -1.8417)             (0.313318 -0.315867 -2.09828)             (0.260209 -0.654286 3.32102e-17)             (0.360929 -0.224025 -1.72873)             (0.293115 -0.343734 -1.95242)             (0.696005 -0.585417 9.14133e-20)             (0.556672 -0.313903 -1.86519)             (0.31422 -0.329584 -2.08873)             (0.839688 -0.176867 -2.31245e-17)             (1.26715 -0.59958 -3.06156)             (0.914453 -0.420406 -3.63142)             (0.204925 0.00650157 2.06002e-17)             (0.362945 -0.343673 -2.43466)             (0.434208 -0.303929 -2.82958)
         0.37             (0.517277 -1.56152 2.39373e-18)             (0.651516 -1.63845 1.90126)             (0.785168 -1.70636 2.161)             (0.640116 -1.50792 -3.3989e-17)             (0.697704 -1.62265 1.75002)             (0.727095 -1.68394 1.96715)             (0.653949 -1.21166 -1.17315e-19)             (0.726821 -1.65178 1.96027)             (0.81557 -1.74168 2.20102)             (1.69132 -0.61319 2.47678e-17)             (1.64647 -1.54524 3.30052)             (1.75992 -1.60934 3.90075)             (0.838294 -0.746788 -2.05612e-17)             (0.958445 -1.80156 2.3829)             (1.04355 -1.77977 2.76293)
         0.38             (0.466382 -0.926622 -2.01864e-18)             (0.475824 -0.292382 -1.60283)             (0.336477 -0.441909 -1.81879)             (0.25193 -0.74304 2.89499e-17)             (0.377313 -0.330918 -1.50045)             (0.311039 -0.465574 -1.68958)             (0.703471 -0.668992 8.35105e-20)             (0.562869 -0.409197 -1.62194)             (0.340729 -0.456748 -1.81278)             (0.894768 -0.199032 -2.03119e-17)             (1.38351 -0.686882 -2.65155)             (1.01729 -0.528405 -3.16282)             (0.231133 -0.0286649 1.79176e-17)             (0.412792 -0.490232 -2.10214)             (0.482772 -0.440877 -2.44441)
         0.39             (0.504647 -1.54813 2.01388e-18)             (0.598238 -1.53085 1.59335)             (0.718893 -1.59861 1.80034)             (0.572491 -1.46206 -2.85863e-17)             (0.631971 -1.51522 1.46541)             (0.662758 -1.58906 1.64233)             (0.659724 -1.19291 -9.99197e-20)             (0.664076 -1.53799 1.63671)             (0.746327 -1.61777 1.82912)             (1.62834 -0.571365 2.08496e-17)             (1.58099 -1.48201 2.73377)             (1.73772 -1.51805 3.24655)             (0.782791 -0.657214 -1.73308e-17)             (0.880708 -1.70723 1.99622)             (0.991628 -1.68449 2.317)
          0.4             (0.454262 -0.992399 -1.76384e-18)             (0.462087 -0.354479 -1.39653)             (0.34698 -0.518176 -1.5731)             (0.232998 -0.795134 2.52509e-17)             (0.370507 -0.390051 -1.30179)             (0.317572 -0.535376 -1.45864)             (0.696013 -0.717319 7.71428e-20)             (0.547922 -0.457422 -1.41443)             (0.363664 -0.538057 -1.56621)             (0.926682 -0.20638 -1.78762e-17)             (1.42085 -0.734856 -2.31653)             (1.09166 -0.582901 -2.75292)             (0.247828 -0.0440888 1.55849e-17)             (0.438777 -0.586621 -1.81382)             (0.515109 -0.526021 -2.1047)
         0.41             (0.48358 -1.51855 1.71165e-18)             (0.550834 -1.42416 1.34927)             (0.653876 -1.4926 1.51097)             (0.505634 -1.40459 -2.42753e-17)             (0.56445 -1.41033 1.23815)             (0.599705 -1.49108 1.38026)             (0.650952 -1.16135 -8.72763e-20)             (0.614058 -1.42925 1.38388)             (0.679622 -1.50215 1.52858)             (1.56321 -0.528171 1.77613e-17)             (1.55515 -1.42803 2.31469)             (1.69487 -1.41669 2.71783)             (0.734312 -0.578074 -1.4741e-17)             (0.80211 -1.61561 1.68534)             (0.937098 -1.5868 1.95205)
         0.42             (0.434134 -1.02764 -1.5549e-18)             (0.438958 -0.385676 -1.22775)             (0.347878 -0.554766 -1.37054)             (0.205479 -0.817716 2.22076e-17)             (0.351123 -0.421005 -1.1389)             (0.314573 -0.565996 -1.26773)             (0.678071 -0.740724 7.22643e-20)             (0.524153 -0.478402 -1.24609)             (0.385126 -0.557878 -1.35827)             (0.942116 -0.204322 -1.58711e-17)             (1.43302 -0.755158 -2.05505)             (1.22294 -0.632961 -2.36121)             (0.265319 -0.044881 1.36781e-17)             (0.443717 -0.645607 -1.57876)             (0.532962 -0.570918 -1.82368)
         0.43             (0.45731 -1.4809 1.47975e-18)             (0.504788 -1.32393 1.16225)             (0.592284 -1.39254 1.28717)             (0.441563 -1.3419 -2.09611e-17)             (0.502019 -1.31328 1.06377)             (0.540403 -1.39652 1.17706)             (0.631757 -1.12429 -7.80586e-20)             (0.568114 -1.33073 1.19152)             (0.620426 -1.3904 1.29422)             (1.50375 -0.488637 1.54043e-17)             (1.53445 -1.37384 2.00099)             (1.67723 -1.33059 2.28314)             (0.691665 -0.506209 -1.27397e-17)             (0.730878 -1.52991 1.44654)             (0.88369 -1.49312 1.6659)
         0.44             (0.409513 -1.04159 -1.38917e-18)             (0.410642 -0.395341 -1.09426)             (0.338622 -0.563237 -1.20901)             (0.1725 -0.818947 1.97963e-17)             (0.324787 -0.431791 -1.01022)             (0.302785 -0.5704 -1.11621)             (0.652935 -0.747693 6.79286e-20)             (0.495002 -0.479779 -1.11301)             (0.391454 -0.55463 -1.19476)             (0.947261 -0.197465 -1.42717e-17)             (1.42783 -0.756903 -1.84979)             (1.34718 -0.639727 -2.04829)             (0.276767 -0.0346358 1.21712e-17)             (0.436371 -0.675281 -1.39396)             (0.539995 -0.587444 -1.59992)
         0.45             (0.428613 -1.43964 1.30529e-18)             (0.460621 -1.23231 1.02181)             (0.535041 -1.3015 1.1188)             (0.381264 -1.2785 -1.84664e-17)             (0.445142 -1.225 0.932809)             (0.484999 -1.30865 1.02346)             (0.606137 -1.08591 -7.12234e-20)             (0.525191 -1.24273 1.04773)             (0.565873 -1.29133 1.1194)             (1.45147 -0.454018 1.36358e-17)             (1.50864 -1.32127 1.76758)             (1.6127 -1.24051 1.91942)             (0.653609 -0.440579 -1.12276e-17)             (0.665514 -1.44287 1.2661)             (0.831839 -1.40429 1.44566)