# Probe 0 (1 0 0.5)
# Probe 1 (2 0 0.5)
# Probe 2 (3 0 0.5)
# Probe 3 (1 0.5 0.5)
# Probe 4 (2 0.5 0.5)
# Probe 5 (3 0.5 0.5)
# Probe 6 (1 -0.5 0.5)
# Probe 7 (2 -0.5 0.5)
# Probe 8 (3 -0.5 0.5)
# Probe 9 (1 -1.5 0.5)
# Probe 10 (2 -1.5 0.5)
# Probe 11 (3 -1.5 0.5)
# Probe 12 (1 1.5 0.5)
# Probe 13 (2 1.5 0.5)
# Probe 14 (3 1.5 0.5)
#       Probe             0             1             2             3             4             5             6             7             8             9            10            11            12            13            14
#        Time
         0.01             (0.42055 -0.00644927 2.57289e-22)             (0.474739 0.0548171 -3.87598e-20)             (0.420927 0.109024 0)             (0.500533 -0.101032 2.2422e-19)             (0.508159 -0.0148842 0)             (0.454752 0.0457058 1.29131e-18)             (0.440095 0.103719 -4.42817e-20)             (0.446119 0.135938 0)             (0.389383 0.217618 -1.4066e-18)             (0.158006 0.0352187 4.16342e-20)             (0.245799 0.0451834 0)             (0.228512 0.0930182 0)             (0.404701 -0.015436 1.51807e-19)             (0.455429 0.105435 0)             (0.428564 0.176412 0)
         0.02             (0.21782 -0.0234692 3.00634e-20)             (0.308021 0.0581648 6.99749e-22)             (0.31199 0.116864 0)             (0.303742 -0.0899072 -4.75828e-19)             (0.347119 0.0337695 0)             (0.344018 0.11858 1.00611e-20)             (0.231441 0.0651807 8.7775e-21)             (0.278536 0.0838716 0)             (0.275627 0.122498 -2.73581e-20)             (0.224387 0.038628 2.92075e-20)             (0.259973 0.0726034 0)             (0.237916 0.103952 0)             (0.439743 -0.0354956 -2.51451e-19)             (0.44229 0.0726799 0)             (0.414648 0.162004 0)
         0.03             (0.240144 -0.0167402 -1.5981e-21)             (0.31688 0.0580527 -4.62274e-22)             (0.31219 0.116057 0)             (0.331853 -0.0740525 4.35662e-20)             (0.355766 0.0456982 0)             (0.342542 0.127651 1.38734e-20)             (0.253936 0.05937 -1.73381e-21)             (0.287164 0.0674694 0)             (0.27668 0.11788 -1.04322e-20)             (0.244609 0.0345368 8.46728e-21)             (0.255539 0.0624268 0)             (0.236561 0.0971229 0)             (0.457205 -0.0285858 6.086e-20)             (0.446831 0.0801811 0)             (0.418068 0.165006 0)
         0.04             (0.235231 -0.0188656 -2.31023e-21)             (0.314065 0.0605551 -4.83749e-22)             (0.308725 0.117404 0)             (0.329309 -0.0781902 2.02375e-20)             (0.353774 0.0494639 0)             (0.338733 0.132954 7.82564e-21)             (0.25224 0.0593413 2.20664e-22)             (0.285868 0.0655799 0)             (0.274329 0.117621 -1.0325e-20)             (0.259547 0.0316418 -2.5687e-20)             (0.252573 0.0616072 0)             (0.234776 0.0962804 0)             (0.469475 -0.0282929 1.09156e-20)             (0.444077 0.0799578 0)             (0.416568 0.16506 0)
         0.05             (0.233593 -0.0181371 -1.58053e-21)             (0.313049 0.061171 -3.78121e-22)             (0.307177 0.117805 0)             (0.33077 -0.0783001 2.64286e-20)             (0.353437 0.0509412 0)             (0.337053 0.135645 6.84507e-21)             (0.252015 0.060974 -3.19357e-22)             (0.285324 0.0639019 0)             (0.27335 0.117049 -6.73166e-21)             (0.264852 0.0311678 -1.05502e-20)             (0.25041 0.0601766 0)             (0.233317 0.0952105 0)             (0.475353 -0.0272476 2.08885e-20)             (0.443022 0.0806068 0)             (0.416011 0.165401 0)
         0.06             (0.23107 -0.0184513 -1.69577e-21)             (0.311868 0.0619178 -4.44861e-22)             (0.305848 0.118369 0)             (0.330178 -0.079713 2.73173e-20)             (0.352561 0.0518685 0)             (0.335688 0.137445 7.43841e-21)             (0.251115 0.0618456 1.14823e-22)             (0.284382 0.0636134 0)             (0.272442 0.117068 -8.25469e-21)             (0.267615 0.0310641 -2.00768e-20)             (0.249241 0.0595306 0)             (0.23236 0.09477 0)             (0.477896 -0.0274534 1.96963e-20)             (0.441949 0.0809545 0)             (0.415284 0.165633 0)
         0.07             (0.229296 -0.0183011 -1.98654e-21)             (0.31117 0.0623393 -4.48892e-22)             (0.304986 0.118726 0)             (0.329845 -0.0805241 3.04369e-20)             (0.351997 0.0523756 0)             (0.334814 0.138559 7.52086e-21)             (0.250582 0.0628472 -7.80183e-23)             (0.283731 0.0633966 0)             (0.271825 0.117084 -7.95972e-21)             (0.268405 0.0313529 -1.79036e-20)             (0.248328 0.0591082 0)             (0.231552 0.0944371 0)             (0.47904 -0.0275382 2.13063e-20)             (0.441284 0.0813571 0)             (0.414736 0.165915 0)
         0.08             (0.22712 -0.0183807 -1.81282e-21)             (0.310381 0.0627004 -4.42509e-22)             (0.304199 0.119077 0)             (0.329137 -0.0815702 2.76181e-20)             (0.351295 0.0525688 0)             (0.334053 0.139308 7.5174e-21)             (0.249557 0.0638373 1.0453e-22)             (0.282917 0.0636252 0)             (0.271219 0.117279 -8.12827e-21)             (0.268801 0.0316964 -1.99098e-20)             (0.247655 0.0590727 0)             (0.230886 0.0943388 0)             (0.47938 -0.0277376 2.06056e-20)             (0.440677 0.0816386 0)             (0.41417 0.166187 0)
         0.09             (0.225332 -0.0182713 -1.98214e-21)             (0.309788 0.0629465 -4.53872e-22)             (0.303592 0.11935 0)             (0.328584 -0.0823542 3.11923e-20)             (0.35074 0.0526969 0)             (0.333458 0.139846 7.68278e-21)             (0.248718 0.0648599 8.01628e-24)             (0.282228 0.0638506 0)             (0.270715 0.117452 -8.10483e-21)             (0.26876 0.0321038 -1.93289e-20)             (0.247073 0.0591539 0)             (0.230294 0.0943064 0)             (0.479697 -0.0278182 2.20401e-20)             (0.440251 0.0819419 0)             (0.413701 0.166486 0)
          0.1             (0.223405 -0.0182925 -1.8027e-21)             (0.309125 0.0631923 -4.4104e-22)             (0.303 0.119625 0)             (0.327794 -0.0832866 2.82252e-20)             (0.350101 0.0526988 0)             (0.332891 0.140249 7.60334e-21)             (0.247743 0.0658301 9.50076e-23)             (0.281464 0.0642773 0)             (0.270209 0.1177 -8.12148e-21)             (0.268675 0.0324836 -1.99803e-20)             (0.246577 0.0594138 0)             (0.229763 0.0943835 0)             (0.47976 -0.0279254 2.1046e-20)             (0.439798 0.0821624 0)             (0.413194 0.166774 0)
         0.11             (0.221721 -0.01821 -1.95693e-21)             (0.308569 0.0633853 -4.53903e-22)             (0.302498 0.119861 0)             (0.327147 -0.0840664 3.07237e-20)             (0.349553 0.0527078 0)             (0.3324 0.140584 7.73124e-21)             (0.246922 0.0667893 1.92471e-23)             (0.280791 0.0646422 0)             (0.269751 0.117908 -8.15404e-21)             (0.268437 0.0328799 -1.97294e-20)             (0.246121 0.0597116 0)             (0.22927 0.0944923 0)             (0.479917 -0.0279509 2.20457e-20)             (0.439453 0.0823984 0)             (0.412753 0.167078 0)
         0.12             (0.219986 -0.0181733 -2.02081e-21)             (0.307984 0.0635938 -4.55197e-22)             (0.302009 0.120104 0)             (0.326392 -0.0848751 3.09842e-20)             (0.348982 0.0527221 0)             (0.331917 0.14088 7.6772e-21)             (0.246047 0.0676797 4.69756e-23)             (0.280106 0.0650574 0)             (0.269294 0.118139 -8.16547e-21)             (0.26831 0.0332567 -2.02483e-20)             (0.245716 0.0600982 0)             (0.228811 0.0946623 0)             (0.480032 -0.0279981 2.15774e-20)             (0.439093 0.0825901 0)             (0.41229 0.167373 0)
         0.13             (0.218276 -0.018075 -1.95842e-21)             (0.307402 0.0637721 -4.52436e-22)             (0.301543 0.120321 0)             (0.325654 -0.0856357 3.11628e-20)             (0.348419 0.0526937 0)             (0.331457 0.14113 7.67619e-21)             (0.245179 0.0686256 2.6055e-23)             (0.27943 0.0654833 0)             (0.26885 0.118361 -8.096e-21)             (0.268092 0.0336518 -1.977e-20)             (0.245312 0.0605156 0)             (0.228365 0.0948536 0)             (0.480211 -0.0280022 2.19465e-20)             (0.438776 0.0827681 0)             (0.411856 0.167665 0)
         0.14             (0.21663 -0.0180288 -1.98819e-21)             (0.30682 0.0639684 -4.55676e-22)             (0.301091 0.120547 0)             (0.32492 -0.0864106 3.09782e-20)             (0.347854 0.0526792 0)             (0.331008 0.14137 7.69596e-21)             (0.244347 0.0694983 5.24073e-23)             (0.278766 0.0659243 0)             (0.268416 0.118594 -8.15759e-21)             (0.26794 0.0340273 -2.02554e-20)             (0.244949 0.0609563 0)             (0.227949 0.0950739 0)             (0.480295 -0.0280188 2.17253e-20)             (0.438452 0.0829379 0)             (0.41142 0.167961 0)
         0.15             (0.215018 -0.0179342 -2.0554e-21)             (0.306255 0.0641465 -4.54725e-22)             (0.300658 0.120754 0)             (0.324204 -0.0871449 3.16358e-20)             (0.347307 0.0526688 0)             (0.330574 0.141588 7.64885e-21)             (0.243528 0.0703968 2.65756e-24)             (0.278126 0.0663268 0)             (0.267992 0.118809 -8.06022e-21)             (0.267757 0.0344224 -1.98267e-20)             (0.244585 0.0614059 0)             (0.227539 0.0953042 0)             (0.480413 -0.0280186 2.18098e-20)             (0.438156 0.0830937 0)             (0.411 0.168249 0)
         0.16             (0.213377 -0.0178699 -1.97912e-21)             (0.305664 0.0643294 -4.50009e-22)             (0.300224 0.120962 0)             (0.323473 -0.0879035 3.06319e-20)             (0.346743 0.0526326 0)             (0.330143 0.141791 7.61612e-21)             (0.242691 0.0712754 4.70465e-23)             (0.277474 0.0667671 0)             (0.267571 0.119037 -8.05848e-21)             (0.267619 0.0348019 -2.00325e-20)             (0.244236 0.0618707 0)             (0.227144 0.0955506 0)             (0.480489 -0.0280168 2.15782e-20)             (0.437852 0.0832322 0)             (0.410578 0.168533 0)
         0.17             (0.211815 -0.0177693 -2.00255e-21)             (0.305102 0.0645023 -4.525e-22)             (0.29981 0.12116 0)             (0.322791 -0.088617 3.12001e-20)             (0.346211 0.0526179 0)             (0.32973 0.14199 7.62163e-21)             (0.241908 0.072151 2.99267e-23)             (0.276857 0.0671681 0)             (0.267164 0.119249 -8.03323e-21)             (0.267462 0.0351909 -1.98695e-20)             (0.243893 0.0623243 0)             (0.22676 0.0957981 0)             (0.480611 -0.0280016 2.17806e-20)             (0.437573 0.0833726 0)             (0.410173 0.168817 0)
         0.18             (0.210263 -0.0176871 -2.03136e-21)             (0.304541 0.0646804 -4.52877e-22)             (0.2994 0.12136 0)             (0.322101 -0.0893399 3.13015e-20)             (0.345682 0.0526128 0)             (0.329319 0.142185 7.59917e-21)             (0.241122 0.0730027 2.85557e-23)             (0.276251 0.0675667 0)             (0.266762 0.119463 -8.02785e-21)             (0.267328 0.0355742 -1.99659e-20)             (0.243564 0.0627822 0)             (0.226387 0.0960538 0)             (0.480707 -0.0279885 2.16073e-20)             (0.437291 0.0835018 0)             (0.409769 0.169096 0)
         0.19             (0.208722 -0.0175816 -2.00415e-21)             (0.303979 0.0648526 -4.50443e-22)             (0.298996 0.121552 0)             (0.321421 -0.0900432 3.11069e-20)             (0.345158 0.0525986 0)             (0.328916 0.14237 7.57569e-21)             (0.240349 0.073862 2.86084e-23)             (0.275654 0.0679619 0)             (0.266367 0.119673 -7.98624e-21)             (0.267185 0.0359613 -1.98136e-20)             (0.243237 0.0632349 0)             (0.22602 0.0963101 0)             (0.480832 -0.027964 2.16639e-20)             (0.437024 0.0836259 0)             (0.409376 0.169372 0)
          0.2             (0.207217 -0.0174878 -2.01361e-21)             (0.303431 0.0650297 -4.51196e-22)             (0.298602 0.121745 0)             (0.320759 -0.090744 3.10911e-20)             (0.344649 0.0526009 0)             (0.328522 0.142556 7.56311e-21)             (0.239596 0.0746986 3.3192e-23)             (0.275077 0.0683446 0)             (0.265981 0.119883 -7.98597e-21)             (0.267073 0.0363437 -1.9922e-20)             (0.242925 0.0636818 0)             (0.225666 0.0965689 0)             (0.480932 -0.0279425 2.15446e-20)             (0.436756 0.0837479 0)             (0.408984 0.169645 0)
         0.21             (0.20573 -0.0173698 -2.02731e-21)             (0.302891 0.0652004 -4.50088e-22)             (0.298215 0.121932 0)             (0.320108 -0.0914225 3.13265e-20)             (0.344149 0.0526048 0)             (0.328133 0.142736 7.53609e-21)             (0.238854 0.0755393 1.96829e-23)             (0.274514 0.0687138 0)             (0.265602 0.120087 -7.94006e-21)             (0.266946 0.0367282 -1.9751e-20)             (0.242614 0.0641211 0)             (0.225315 0.096826 0)             (0.481058 -0.0279091 2.15955e-20)             (0.436503 0.0838674 0)             (0.408603 0.169915 0)
         0.22             (0.204252 -0.0172616 -2.00654e-21)             (0.302353 0.0653756 -4.48876e-22)             (0.297831 0.12212 0)             (0.319458 -0.0921074 3.09978e-20)             (0.343654 0.0526112 0)             (0.327751 0.142914 7.51192e-21)             (0.238121 0.076364 3.32929e-23)             (0.273961 0.0690845 0)             (0.265228 0.120293 -7.92697e-21)             (0.266849 0.0371065 -1.98268e-20)             (0.242315 0.0645552 0)             (0.224974 0.0970848 0)             (0.481171 -0.0278775 2.14734e-20)             (0.436249 0.0839837 0)             (0.408222 0.17018 0)
         0.23             (0.202805 -0.0171336 -2.00768e-21)             (0.301827 0.0655463 -4.48394e-22)             (0.297455 0.122304 0)             (0.318828 -0.0927707 3.1078e-20)             (0.343173 0.0526208 0)             (0.327376 0.143088 7.49715e-21)             (0.237409 0.0771863 2.76448e-23)             (0.273424 0.0694412 0)             (0.264862 0.120494 -7.89772e-21)             (0.266744 0.037485 -1.97225e-20)             (0.242019 0.0649776 0)             (0.224639 0.0973401 0)             (0.481298 -0.027836 2.15182e-20)             (0.436008 0.0841028 0)             (0.407852 0.170443 0)
         0.24             (0.201373 -0.0170077 -2.00557e-21)             (0.301307 0.0657188 -4.47702e-22)             (0.297083 0.122487 0)             (0.318202 -0.0934323 3.09907e-20)             (0.342699 0.0526362 0)             (0.327005 0.143261 7.47719e-21)             (0.236705 0.0779966 3.04657e-23)             (0.272899 0.069794 0)             (0.264501 0.120695 -7.88316e-21)             (0.266653 0.0378591 -1.97448e-20)             (0.241733 0.0653929 0)             (0.224311 0.0975945 0)             (0.481422 -0.027794 2.14436e-20)             (0.435769 0.0842216 0)             (0.407485 0.170703 0)
         0.25             (0.199961 -0.0168696 -2.00529e-21)             (0.300796 0.0658891 -4.46605e-22)             (0.296718 0.122668 0)             (0.317587 -0.0940801 3.09882e-20)             (0.342236 0.0526553 0)             (0.326642 0.143431 7.45371e-21)             (0.236015 0.078802 2.8089e-23)             (0.272386 0.0701374 0)             (0.264147 0.120894 -7.85365e-21)             (0.266568 0.0382317 -1.96788e-20)             (0.241452 0.0657984 0)             (0.223989 0.0978458 0)             (0.481554 -0.0277469 2.1418e-20)             (0.435537 0.0843413 0)             (0.407124 0.17096 0)
         0.26             (0.198564 -0.0167271 -2.00374e-21)             (0.300293 0.0660595 -4.45801e-22)             (0.296357 0.122848 0)             (0.316977 -0.0947214 3.09382e-20)             (0.341781 0.0526783 0)             (0.326283 0.1436 7.43277e-21)             (0.235335 0.0795989 2.87886e-23)             (0.271886 0.0704752 0)             (0.263798 0.121091 -7.83315e-21)             (0.266492 0.0386006 -1.96633e-20)             (0.241177 0.0661956 0)             (0.223674 0.0980948 0)             (0.481688 -0.0276973 2.13678e-20)             (0.435308 0.0844619 0)             (0.406768 0.171212 0)
         0.27             (0.197184 -0.0165754 -2.00194e-21)             (0.299798 0.0662287 -4.44741e-22)             (0.296 0.123026 0)             (0.316376 -0.0953518 3.09027e-20)             (0.341334 0.052704 0)             (0.32593 0.143766 7.41094e-21)             (0.234666 0.0803897 2.79021e-23)             (0.271397 0.070807 0)             (0.263455 0.121286 -7.8084e-21)             (0.266421 0.0389668 -1.96185e-20)             (0.240907 0.0665839 0)             (0.223364 0.0983408 0)             (0.481826 -0.0276439 2.13297e-20)             (0.435085 0.0845839 0)             (0.406417 0.171462 0)
         0.28             (0.195819 -0.016417 -1.99973e-21)             (0.29931 0.0663975 -4.43757e-22)             (0.295649 0.123202 0)             (0.31578 -0.0959733 3.0852e-20)             (0.340897 0.0527326 0)             (0.325582 0.143931 7.38992e-21)             (0.234008 0.081173 2.79856e-23)             (0.270918 0.0711338 0)             (0.263118 0.12148 -7.78683e-21)             (0.266358 0.03933 -1.959e-20)             (0.240643 0.0669639 0)             (0.22306 0.098584 0)             (0.481967 -0.0275879 2.12841e-20)             (0.434866 0.0847075 0)             (0.40607 0.171709 0)
         0.29             (0.19447 -0.0162504 -1.99792e-21)             (0.29883 0.0665655 -4.42819e-22)             (0.295303 0.123377 0)             (0.31519 -0.0965846 3.08142e-20)             (0.340467 0.0527639 0)             (0.325239 0.144094 7.36869e-21)             (0.233359 0.0819496 2.7622e-23)             (0.27045 0.0714552 0)             (0.262786 0.121672 -7.76361e-21)             (0.266301 0.0396899 -1.95547e-20)             (0.240384 0.0673355 0)             (0.222762 0.0988241 0)             (0.482112 -0.0275287 2.1244e-20)             (0.434651 0.0848328 0)             (0.405729 0.171952 0)
          0.3             (0.193136 -0.0160762 -1.99576e-21)             (0.298356 0.0667327 -4.41798e-22)             (0.29496 0.123551 0)             (0.314605 -0.0971857 3.07658e-20)             (0.340044 0.0527975 0)             (0.324901 0.144256 7.34736e-21)             (0.23272 0.0827191 2.7374e-23)             (0.269991 0.0717722 0)             (0.262459 0.121863 -7.74134e-21)             (0.26625 0.0400467 -1.95217e-20)             (0.240131 0.0676992 0)             (0.222468 0.0990611 0)             (0.482259 -0.027467 2.12002e-20)             (0.434439 0.0849596 0)             (0.405392 0.172192 0)
         0.31             (0.191817 -0.0158943 -1.99494e-21)             (0.29789 0.0668993 -4.41191e-22)             (0.294623 0.123724 0)             (0.314026 -0.0977765 3.07506e-20)             (0.33963 0.0528346 0)             (0.324568 0.144417 7.32593e-21)             (0.23209 0.0834815 2.72411e-23)             (0.269543 0.0720835 0)             (0.262137 0.122052 -7.71806e-21)             (0.266209 0.0404 -1.94935e-20)             (0.239883 0.0680551 0)             (0.222181 0.0992953 0)             (0.482411 -0.0274032 2.11658e-20)             (0.434233 0.0850884 0)             (0.405059 0.17243 0)
         0.32             (0.190512 -0.0157043 -1.99113e-21)             (0.297429 0.0670654 -4.39876e-22)             (0.29429 0.123896 0)             (0.313448 -0.0983562 3.06764e-20)             (0.339222 0.0528725 0)             (0.324239 0.144577 7.30157e-21)             (0.231468 0.0842369 2.70224e-23)             (0.269102 0.0723922 0)             (0.261819 0.122241 -7.69199e-21)             (0.266171 0.0407506 -1.94477e-20)             (0.239639 0.0684039 0)             (0.221897 0.0995265 0)             (0.482565 -0.0273368 2.11081e-20)             (0.43403 0.0852191 0)             (0.404731 0.172665 0)
         0.33             (0.189221 -0.0155064 -1.98835e-21)             (0.296975 0.0672308 -4.38813e-22)             (0.29396 0.124067 0)             (0.312875 -0.0989246 3.06228e-20)             (0.33882 0.0529119 0)             (0.323915 0.144735 7.28071e-21)             (0.230854 0.0849853 2.67941e-23)             (0.26867 0.0726976 0)             (0.261506 0.122428 -7.67012e-21)             (0.266138 0.0410984 -1.94121e-20)             (0.2394 0.0687455 0)             (0.221619 0.0997547 0)             (0.482722 -0.0272679 2.10613e-20)             (0.43383 0.0853518 0)             (0.404407 0.172898 0)
         0.34             (0.187943 -0.0153006 -1.98561e-21)             (0.296527 0.0673954 -4.37769e-22)             (0.293634 0.124237 0)             (0.312304 -0.0994813 3.05694e-20)             (0.338425 0.0529526 0)             (0.323594 0.144893 7.26002e-21)             (0.230248 0.0857265 2.65769e-23)             (0.268245 0.0729999 0)             (0.261197 0.122614 -7.64846e-21)             (0.26611 0.041443 -1.93771e-20)             (0.239165 0.0690802 0)             (0.221345 0.0999797 0)             (0.482882 -0.0271966 2.10159e-20)             (0.433634 0.085486 0)             (0.404087 0.173128 0)
         0.35             (0.186679 -0.0150869 -1.98313e-21)             (0.296085 0.0675593 -4.36776e-22)             (0.293313 0.124406 0)             (0.311736 -0.100026 3.052e-20)             (0.338036 0.0529947 0)             (0.323278 0.145049 7.23997e-21)             (0.229649 0.0864605 2.63162e-23)             (0.267829 0.073299 0)             (0.260893 0.122799 -7.62749e-21)             (0.266086 0.0417844 -1.93438e-20)             (0.238934 0.0694085 0)             (0.221075 0.100202 0)             (0.483044 -0.027123 2.09733e-20)             (0.43344 0.0856215 0)             (0.40377 0.173356 0)
         0.36             (0.185428 -0.0148656 -1.98061e-21)             (0.295648 0.0677225 -4.35853e-22)             (0.292995 0.124573 0)             (0.31117 -0.100558 3.04733e-20)             (0.337653 0.053038 0)             (0.322966 0.145203 7.22037e-21)             (0.229057 0.0871871 2.61631e-23)             (0.267419 0.0735952 0)             (0.260593 0.122983 -7.6066e-21)             (0.266068 0.0421229 -1.93108e-20)             (0.238707 0.0697306 0)             (0.22081 0.100421 0)             (0.483208 -0.0270473 2.0931e-20)             (0.43325 0.0857585 0)             (0.403458 0.173581 0)
         0.37             (0.18419 -0.0146365 -1.97813e-21)             (0.295217 0.067885 -4.35017e-22)             (0.292681 0.12474 0)             (0.310604 -0.101078 3.04303e-20)             (0.337275 0.0530826 0)             (0.322657 0.145357 7.20109e-21)             (0.228471 0.0879062 2.61447e-23)             (0.267016 0.0738885 0)             (0.260296 0.123166 -7.58567e-21)             (0.266054 0.0424583 -1.92778e-20)             (0.238485 0.0700468 0)             (0.220548 0.100638 0)             (0.483373 -0.0269694 2.08887e-20)             (0.433062 0.0858968 0)             (0.403149 0.173803 0)
         0.38             (0.182965 -0.0143999 -1.97571e-21)             (0.29479 0.0680468 -4.34063e-22)             (0.29237 0.124906 0)             (0.310039 -0.101585 3.03827e-20)             (0.336902 0.0531276 0)             (0.322352 0.14551 7.18226e-21)             (0.227892 0.0886178 2.58244e-23)             (0.26662 0.0741795 0)             (0.260003 0.123347 -7.56589e-21)             (0.266044 0.042791 -1.92453e-20)             (0.238266 0.0703575 0)             (0.22029 0.100852 0)             (0.483541 -0.0268896 2.08476e-20)             (0.432878 0.0860361 0)             (0.402843 0.174024 0)
         0.39             (0.181793 -0.014159 -1.97868e-21)             (0.294379 0.0682088 -4.3389e-22)             (0.292068 0.125071 0)             (0.309501 -0.102058 3.04106e-20)             (0.336543 0.0531803 0)             (0.322055 0.145664 7.17363e-21)             (0.227339 0.0893082 2.50199e-23)             (0.266238 0.0744633 0)             (0.259718 0.123527 -7.55731e-21)             (0.266033 0.0431128 -1.92398e-20)             (0.238051 0.0706581 0)             (0.220038 0.10106 0)             (0.483707 -0.0268001 2.08299e-20)             (0.432697 0.0861823 0)             (0.402543 0.174245 0)
          0.4             (0.180628 -0.0139107 -1.97477e-21)             (0.293971 0.0683702 -4.32835e-22)             (0.291768 0.125236 0)             (0.308959 -0.10252 3.03447e-20)             (0.336187 0.0532329 0)             (0.32176 0.145817 7.15199e-21)             (0.226789 0.0899921 2.50307e-23)             (0.265861 0.0747453 0)             (0.259436 0.123706 -7.53349e-21)             (0.266027 0.0434319 -1.91986e-20)             (0.23784 0.0709544 0)             (0.219788 0.101267 0)             (0.483874 -0.0267092 2.07772e-20)             (0.432518 0.0863282 0)             (0.402245 0.174463 0)
         0.41             (0.179475 -0.0136549 -1.97263e-21)             (0.293567 0.0685308 -4.31985e-22)             (0.291472 0.125399 0)             (0.308417 -0.102967 3.03039e-20)             (0.335836 0.0532854 0)             (0.321469 0.145968 7.13457e-21)             (0.226244 0.0906689 2.47535e-23)             (0.26549 0.0750258 0)             (0.259157 0.123884 -7.51532e-21)             (0.266024 0.0437485 -1.91681e-20)             (0.237632 0.071246 0)             (0.219542 0.101472 0)             (0.484043 -0.0266164 2.07394e-20)             (0.432341 0.086475 0)             (0.401951 0.174679 0)
         0.42             (0.178331 -0.0133919 -1.96922e-21)             (0.293167 0.0686908 -4.30961e-22)             (0.291179 0.125562 0)             (0.307873 -0.103401 3.02439e-20)             (0.335489 0.0533382 0)             (0.32118 0.146119 7.11484e-21)             (0.225703 0.0913389 2.46054e-23)             (0.265124 0.0753051 0)             (0.258881 0.124061 -7.49472e-21)             (0.266024 0.0440627 -1.91319e-20)             (0.237428 0.0715333 0)             (0.2193 0.101674 0)             (0.484214 -0.0265222 2.06922e-20)             (0.432167 0.0866225 0)             (0.40166 0.174893 0)
         0.43             (0.177198 -0.0131219 -1.96586e-21)             (0.292771 0.0688505 -4.30083e-22)             (0.290888 0.125724 0)             (0.307329 -0.103822 3.0189e-20)             (0.335146 0.0533915 0)             (0.320895 0.146269 7.09657e-21)             (0.225167 0.0920017 2.46661e-23)             (0.264763 0.0755826 0)             (0.258608 0.124237 -7.47495e-21)             (0.266028 0.0443745 -1.90974e-20)             (0.237227 0.0718164 0)             (0.219061 0.101874 0)             (0.484386 -0.0264261 2.06467e-20)             (0.431996 0.0867708 0)             (0.401371 0.175105 0)
         0.44             (0.176075 -0.0128448 -1.96313e-21)             (0.292378 0.0690093 -4.29135e-22)             (0.290601 0.125885 0)             (0.306782 -0.104228 3.01378e-20)             (0.334806 0.0534447 0)             (0.320612 0.146417 7.07857e-21)             (0.224634 0.0926574 2.43835e-23)             (0.264406 0.075859 0)             (0.258339 0.124413 -7.45632e-21)             (0.266035 0.0446843 -1.9064e-20)             (0.237028 0.0720957 0)             (0.218824 0.102072 0)             (0.48456 -0.0263285 2.06032e-20)             (0.431826 0.0869194 0)             (0.401086 0.175315 0)
         0.45             (0.174961 -0.0125611 -1.9601e-21)             (0.291989 0.0691677 -4.28262e-22)             (0.290316 0.126045 0)             (0.306234 -0.10462 3.0087e-20)             (0.33447 0.053498 0)             (0.320333 0.146565 7.06128e-21)             (0.224106 0.093306 2.42349e-23)             (0.264054 0.0761342 0)             (0.258072 0.124588 -7.43794e-21)             (0.266045 0.0449919 -1.90319e-20)             (0.236833 0.0723713 0)             (0.218591 0.102268 0)             (0.484736 -0.0262293 2.0562e-20)             (0.431659 0.0870684 0)             (0.400803 0.175522 0)
         0.46             (0.173859 -0.0122708 -1.95726e-21)             (0.291603 0.0693255 -4.27417e-22)             (0.290034 0.126205 0)             (0.305684 -0.104998 3.00382e-20)             (0.334138 0.0535513 0)             (0.320056 0.146712 7.04442e-21)             (0.223581 0.0939472 2.41044e-23)             (0.263707 0.0764081 0)             (0.257808 0.124762 -7.42014e-21)             (0.266058 0.0452975 -1.90009e-20)             (0.236641 0.0726434 0)             (0.218361 0.102462 0)             (0.484914 -0.0261288 2.05218e-20)             (0.431494 0.0872178 0)             (0.400523 0.175728 0)
         0.47             (0.172766 -0.0119742 -1.95432e-21)             (0.291221 0.0694828 -4.26573e-22)             (0.289755 0.126364 0)             (0.305131 -0.105361 2.99884e-20)             (0.333809 0.0536046 0)             (0.319782 0.146858 7.02771e-21)             (0.22306 0.094581 2.39823e-23)             (0.263363 0.0766809 0)             (0.257547 0.124935 -7.40245e-21)             (0.266074 0.045601 -1.89691e-20)             (0.236452 0.0729122 0)             (0.218133 0.102654 0)             (0.485093 -0.026027 2.04819e-20)             (0.431332 0.0873674 0)             (0.400246 0.175933 0)