/*--------------------------------*- C++ -*----------------------------------*\
  =========                 |
  \\      /  F ield         | OpenFOAM: The Open Source CFD Toolbox
   \\    /   O peration     | Website:  https://openfoam.org
    \\  /    A nd           | Version:  7
     \\/     M anipulation  |
\*---------------------------------------------------------------------------*/
FoamFile
{
    version     2.0;
    format      ascii;
    class       volScalarField;
    location    "0.375";
    object      p;
}
// * * * * * * * * * * * * * * * * * * * * * * * * * * * * * * * * * * * * * //

dimensions      [0 2 -2 0 0 0 0];

internalField   nonuniform List<scalar> 
400
(
3.87576e-06
-0.00589993
-0.0130501
-0.018495
-0.0205173
-0.0183252
-0.011855
-0.00155298
0.0117844
0.0271153
0.0432307
0.0588288
0.0726013
0.0833437
0.0900944
0.0923078
0.0900635
0.0842908
0.0768984
0.0710257
0.00582845
-0.000243181
-0.00577707
-0.00948977
-0.0105378
-0.00837079
-0.00291533
0.00551376
0.0163217
0.0287058
0.0417176
0.0543283
0.0655065
0.0743136
0.0800157
0.082212
0.0809831
0.0769881
0.0712576
0.0652414
0.0133955
0.00496293
-0.00101059
-0.00442711
-0.00527977
-0.00327166
0.00159343
0.00901612
0.0184871
0.0293303
0.0407422
0.0518421
0.061737
0.0696018
0.074771
0.0768413
0.0758028
0.0720592
0.0658336
0.0574364
0.0202061
0.0085937
0.00120284
-0.00267868
-0.00373792
-0.00190237
0.00271396
0.00976641
0.0187611
0.0290744
0.03997
0.0506306
0.060208
0.0678897
0.0729763
0.0749733
0.0737326
0.0694369
0.0616638
0.0499984
0.0245925
0.00964657
0.000570424
-0.00398838
-0.00531062
-0.00351733
0.00116397
0.00832182
0.0174465
0.0279304
0.0390629
0.0500443
0.0600198
0.0681331
0.0735929
0.0757622
0.0743268
0.0692673
0.0596137
0.0444098
0.0252975
0.00699879
-0.00381871
-0.00905168
-0.0105156
-0.00850566
-0.00336365
0.00442007
0.0143006
0.0256623
0.0377927
0.0498776
0.0610178
0.0702688
0.0766978
0.0794767
0.0780893
0.0723085
0.0606569
0.0417322
0.0212456
-0.000438058
-0.0129471
-0.0186955
-0.0200274
-0.0174147
-0.0113208
-0.00232524
0.00898099
0.0219623
0.0358907
0.0499198
0.0630817
0.0743093
0.0824818
0.0865241
0.0856619
0.0794177
0.0657694
0.0428776
0.0113332
-0.0138176
-0.0278804
-0.0338289
-0.0345927
-0.0308512
-0.0232091
-0.0123453
0.00110003
0.0164739
0.0330366
0.0499109
0.0660532
0.080252
0.0911565
0.0973772
0.0977983
0.0915983
0.0760785
0.0488766
-0.00572922
-0.0344888
-0.0498638
-0.055508
-0.0550684
-0.0494993
-0.0395818
-0.0261067
-0.00975601
0.00881814
0.0288894
0.0495739
0.0697686
0.0881154
0.102999
0.112639
0.115461
0.11014
0.0930511
0.06111
-0.0315567
-0.0641204
-0.0803932
-0.0849465
-0.0823849
-0.0740525
-0.0609603
-0.0440222
-0.0239434
-0.00133539
0.0231397
0.0486462
0.0740696
0.097933
0.118343
0.133052
0.139875
0.136743
0.118692
0.0815461
-0.0682806
-0.104867
-0.121295
-0.123504
-0.117465
-0.105089
-0.0876884
-0.066303
-0.0416214
-0.0141468
0.0156069
0.046945
0.0788349
0.109756
0.137568
0.1595
0.172582
0.173669
0.155802
0.113058
-0.118893
-0.159635
-0.17483
-0.172641
-0.161081
-0.142881
-0.119721
-0.0927475
-0.0625549
-0.0294312
0.00638296
0.0444743
0.0840427
0.123672
0.161081
0.192989
0.215488
0.223919
0.20835
0.159937
-0.187945
-0.232521
-0.243808
-0.2338
-0.213614
-0.1871
-0.15633
-0.122467
-0.0858703
-0.0464489
-0.00399552
0.0415508
0.0898422
0.13981
0.189271
0.234588
0.27086
0.291445
0.28203
0.228818
-0.283064
-0.32954
-0.331641
-0.30811
-0.274626
-0.236387
-0.195725
-0.153578
-0.109812
-0.0637174
-0.0144102
0.038889
0.0965726
0.158279
0.222348
0.2852
0.341164
0.381279
0.38511
0.330525
-0.418186
-0.459747
-0.442072
-0.395626
-0.342071
-0.287708
-0.234593
-0.18291
-0.131588
-0.078957
-0.0231789
0.0375172
0.104598
0.178876
0.25988
0.344931
0.428405
0.499308
0.529618
0.483716
-0.619425
-0.63658
-0.578332
-0.494081
-0.411226
-0.335653
-0.267776
-0.205968
-0.147523
-0.0893562
-0.0283856
0.0384044
0.113876
0.20055
0.300048
0.412061
0.532934
0.651423
0.732443
0.720596
-0.935598
-0.878179
-0.741681
-0.598054
-0.474388
-0.372624
-0.288843
-0.217738
-0.153924
-0.0924278
-0.0286757
0.0417526
0.123336
0.220801
0.339002
0.482243
0.652265
0.841649
1.01496
1.09628
-1.48059
-1.20196
-0.920998
-0.692545
-0.517675
-0.387699
-0.290192
-0.213423
-0.14816
-0.0872082
-0.0245269
0.0455599
0.129102
0.233298
0.367362
0.543122
0.77263
1.06029
1.39819
1.73407
-2.57157
-1.60192
-1.04347
-0.714827
-0.497796
-0.353385
-0.255527
-0.184281
-0.126594
-0.0737822
-0.0192084
0.0430659
0.119763
0.219652
0.356005
0.549822
0.829813
1.23507
1.88111
2.95926
-4.4451
-2.01727
-0.969794
-0.564336
-0.357043
-0.239032
-0.169354
-0.123295
-0.0871826
-0.0533677
-0.016676
0.0275147
0.0842992
0.161194
0.271578
0.441363
0.718805
1.2215
2.38402
4.92939
)
;

boundaryField
{
    movingWall
    {
        type            zeroGradient;
    }
    fixedWalls
    {
        type            zeroGradient;
    }
    frontAndBack
    {
        type            empty;
    }
}


// ************************************************************************* //
