/*--------------------------------*- C++ -*----------------------------------*\
  =========                 |
  \\      /  F ield         | OpenFOAM: The Open Source CFD Toolbox
   \\    /   O peration     | Website:  https://openfoam.org
    \\  /    A nd           | Version:  7
     \\/     M anipulation  |
\*---------------------------------------------------------------------------*/
FoamFile
{
    version     2.0;
    format      ascii;
    class       volVectorField;
    location    "4.7";
    object      U;
}
// * * * * * * * * * * * * * * * * * * * * * * * * * * * * * * * * * * * * * //

dimensions      [0 1 -1 0 0 0 0];

internalField   nonuniform List<vector> 
32000
(
(-0.000364193 0.00608295 -5.22385e-22)
(-0.0021266 0.0205585 0)
(-0.00520273 0.0368599 -4.6534e-21)
(-0.00879802 0.05379 0)
(-0.0126892 0.0707013 4.84232e-21)
(-0.0166357 0.0872559 0)
(-0.0204718 0.103275 5.00276e-21)
(-0.0240759 0.118671 -3.80391e-21)
(-0.0273585 0.133411 1.40877e-24)
(-0.0302554 0.147487 1.73433e-24)
(-0.0327247 0.160894 -1.31155e-21)
(-0.0347446 0.173628 5.29692e-21)
(-0.036306 0.185677 0)
(-0.0374074 0.19702 -1.34727e-21)
(-0.0380532 0.207631 1.35288e-21)
(-0.0382538 0.217482 0)
(-0.0380232 0.226544 6.84675e-21)
(-0.0373786 0.234789 -1.37364e-21)
(-0.0363394 0.242197 0)
(-0.0349256 0.248751 2.77625e-21)
(-0.0331576 0.254444 2.77999e-21)
(-0.0310561 0.259274 0)
(-0.0286409 0.263251 0)
(-0.0259316 0.266389 0)
(-0.0229477 0.268711 0)
(-0.0197083 0.270247 0)
(-0.0162316 0.271032 0)
(-0.0125349 0.271106 0)
(-0.00863459 0.270514 -5.58817e-21)
(-0.0045469 0.2693 0)
(-0.000288016 0.267514 5.57407e-21)
(0.00412554 0.265206 0)
(0.00867662 0.262426 0)
(0.0133468 0.259223 0)
(0.0181154 0.255648 -5.52265e-21)
(0.0229593 0.251749 -2.76208e-21)
(0.027852 0.247572 8.25069e-21)
(0.0327774 0.243159 -4.35522e-24)
(0.0377121 0.238613 5.46341e-21)
(0.0424499 0.234067 -6.9669e-24)
(-0.000506431 0.00651629 0)
(-0.00260173 0.0215743 9.0847e-21)
(-0.00605253 0.0382657 2.32699e-21)
(-0.010033 0.0554506 3.96405e-25)
(-0.0143122 0.072507 -2.42117e-21)
(-0.0186453 0.089116 0)
(-0.0228624 0.105113 4.99629e-21)
(-0.0268412 0.120426 -5.06674e-21)
(-0.030492 0.135029 0)
(-0.0337499 0.148926 -1.03834e-20)
(-0.0365719 0.162121 0)
(-0.0389347 0.174614 -1.58818e-20)
(-0.0408281 0.186399 0)
(-0.0422485 0.197463 0)
(-0.0431995 0.207784 5.42003e-21)
(-0.0436906 0.217337 -5.43755e-21)
(-0.0437347 0.226095 -5.47469e-21)
(-0.0433476 0.234034 0)
(-0.0425474 0.241135 1.65526e-20)
(-0.0413533 0.247383 -5.52635e-21)
(-0.0397852 0.252772 4.92049e-24)
(-0.0378626 0.257302 -1.66686e-20)
(-0.0356046 0.260982 -1.11336e-20)
(-0.0330304 0.263829 -5.58887e-21)
(-0.0301589 0.265866 1.67293e-20)
(-0.027008 0.267122 -1.67545e-20)
(-0.0235953 0.267633 1.67683e-20)
(-0.0199377 0.26744 -2.23013e-20)
(-0.0160515 0.266586 -5.55465e-21)
(-0.0119529 0.265119 3.60058e-23)
(-0.00765744 0.263089 -1.66491e-20)
(-0.00318202 0.260547 -1.10911e-20)
(0.00145535 0.257545 2.21636e-20)
(0.00623507 0.254136 -2.20732e-20)
(0.0111353 0.250373 -5.47894e-21)
(0.0161305 0.24631 -2.19689e-20)
(0.0211911 0.241999 9.06111e-24)
(0.0262978 0.237486 5.45651e-21)
(0.0314163 0.232882 -2.16946e-20)
(0.0363392 0.228327 -3.14328e-20)
(-0.000660696 0.00693107 -2.08538e-21)
(-0.00309227 0.0225365 -4.54264e-21)
(-0.00690579 0.0396133 -2.09102e-20)
(-0.0112525 0.0570532 0)
(-0.0158921 0.0742568 2.41875e-21)
(-0.0205778 0.0909244 -2.45991e-21)
(-0.0251403 0.106906 -2.9982e-20)
(-0.029458 0.12214 1.01387e-20)
(-0.0334395 0.136612 -5.13502e-21)
(-0.0370189 0.150334 3.11312e-20)
(-0.0401551 0.163317 1.04867e-20)
(-0.0428234 0.175572 5.29892e-21)
(-0.0450115 0.187097 -2.13312e-20)
(-0.0467155 0.197883 0)
(-0.0479378 0.207913 0)
(-0.0486861 0.217166 1.08927e-20)
(-0.0489721 0.225619 2.88927e-23)
(-0.0488108 0.23325 -1.09645e-20)
(-0.0482198 0.240042 -1.10269e-20)
(-0.0472172 0.245981 -2.20921e-20)
(-0.0458215 0.251063 3.32473e-20)
(-0.0440518 0.255289 2.72819e-23)
(-0.0419266 0.258669 -7.2792e-24)
(-0.039464 0.261219 1.1117e-20)
(-0.036682 0.262964 -2.23155e-20)
(-0.0335983 0.263932 4.4546e-20)
(-0.0302296 0.264161 0)
(-0.0265924 0.26369 1.11523e-20)
(-0.0227024 0.262565 1.11426e-20)
(-0.018575 0.260833 2.22566e-20)
(-0.0142263 0.258546 3.59511e-23)
(-0.00967334 0.255756 0)
(-0.00493459 0.252518 1.1053e-20)
(-3.05142e-05 0.248888 -1.09602e-20)
(0.00501548 0.244925 -1.09113e-20)
(0.0101753 0.240685 3.28787e-20)
(0.0154169 0.236229 -3.26105e-20)
(0.0207173 0.231609 2.17479e-20)
(0.0260309 0.226945 -3.23494e-20)
(0.0311489 0.222381 1.24601e-20)
(-0.000826987 0.00736019 1.66767e-20)
(-0.00360365 0.0235293 -1.81459e-20)
(-0.00777331 0.0409841 3.71587e-20)
(-0.0124666 0.0586703 0)
(-0.0174402 0.0760137 1.44941e-20)
(-0.0224476 0.092734 2.45804e-20)
(-0.0273197 0.108694 5.00844e-21)
(-0.031936 0.123846 4.47211e-24)
(-0.0362075 0.138186 1.53834e-20)
(-0.0400686 0.151731 -5.20301e-21)
(-0.0434777 0.164503 2.61886e-20)
(-0.0464097 0.176517 -3.17286e-20)
(-0.0488525 0.18778 3.19827e-20)
(-0.0508004 0.198286 -1.07511e-20)
(-0.0522544 0.208025 1.07959e-20)
(-0.0532217 0.216978 -2.17258e-20)
(-0.0537134 0.225125 -3.27648e-20)
(-0.0537432 0.232447 1.09521e-20)
(-0.0533274 0.238928 -1.10207e-20)
(-0.0524835 0.244557 3.31141e-20)
(-0.0512291 0.24933 -2.2147e-20)
(-0.0495822 0.25325 -2.21501e-20)
(-0.0475607 0.256326 0)
(-0.0451822 0.258577 0)
(-0.042464 0.260024 -2.22046e-20)
(-0.0394225 0.2607 -2.22608e-20)
(-0.0360739 0.260639 -2.21922e-20)
(-0.0324339 0.259884 0)
(-0.0285181 0.258477 0)
(-0.0243415 0.25647 -4.42885e-20)
(-0.01992 0.253914 -6.31637e-23)
(-0.0152708 0.250863 2.20976e-20)
(-0.0104127 0.247376 -2.19699e-20)
(-0.00536712 0.243512 -2.19647e-20)
(-0.000159123 0.239334 2.1932e-20)
(0.00518114 0.234906 0)
(0.0106189 0.230294 2.1758e-20)
(0.0161268 0.225561 -4.32182e-20)
(0.0216496 0.220833 4.30903e-20)
(0.0269741 0.216262 -4.98254e-20)
(-0.00100697 0.0077742 -8.34354e-21)
(-0.00413367 0.0244824 1.3608e-20)
(-0.00864633 0.0423042 -1.8573e-20)
(-0.0136665 0.0602292 0)
(-0.0189458 0.0777088 -2.41596e-20)
(-0.0242408 0.0944815 -1.47499e-20)
(-0.0293859 0.110424 1.99717e-20)
(-0.0342622 0.125497 0)
(-0.0387824 0.139709 -3.07672e-20)
(-0.0428829 0.153082 -1.038e-20)
(-0.0465227 0.165648 -1.0471e-20)
(-0.049677 0.177427 2.11613e-20)
(-0.0523323 0.188431 -2.13086e-20)
(-0.0544825 0.198662 1.07198e-20)
(-0.0561281 0.208112 0)
(-0.0572753 0.216768 3.25958e-20)
(-0.0579338 0.224611 1.09337e-20)
(-0.0581168 0.231626 -2.19339e-20)
(-0.0578397 0.237798 4.39613e-20)
(-0.0571189 0.243118 -4.40845e-20)
(-0.0559711 0.247583 4.41332e-20)
(-0.0544136 0.251197 2.21499e-20)
(-0.0524638 0.25397 0)
(-0.0501383 0.255918 2.22034e-20)
(-0.0474535 0.257067 5.90498e-23)
(-0.0444251 0.257446 0)
(-0.0410687 0.257092 2.2192e-20)
(-0.0373996 0.256045 -2.21698e-20)
(-0.0334326 0.25435 2.20776e-20)
(-0.0291825 0.252059 4.42096e-20)
(-0.0246652 0.249223 -4.40494e-20)
(-0.0198979 0.2459 4.39572e-20)
(-0.0148999 0.242151 0)
(-0.00969324 0.238041 0)
(-0.00430448 0.233635 4.35432e-20)
(0.00123391 0.229007 0)
(0.00688442 0.224229 0)
(0.012616 0.219373 -4.29807e-20)
(0.018364 0.214577 4.28084e-20)
(0.0239083 0.210001 2.48462e-20)
(-0.00119897 0.00818081 4.16454e-21)
(-0.00468176 0.0254178 0)
(-0.00952659 0.0435935 3.70919e-20)
(-0.014852 0.0617478 4.73641e-21)
(-0.0204092 0.0793577 4.82888e-21)
(-0.0259594 0.0961793 2.94543e-20)
(-0.0313403 0.112103 3.98918e-20)
(-0.0364363 0.127101 0)
(-0.0411638 0.141187 1.0251e-20)
(-0.0454612 0.154393 3.10757e-20)
(-0.049288 0.166756 4.18495e-20)
(-0.0526202 0.178303 -1.05699e-20)
(-0.0554443 0.189053 -3.193e-20)
(-0.0577534 0.199013 0)
(-0.0595472 0.208178 4.31322e-20)
(-0.0608314 0.21654 0)
(-0.0616151 0.224083 6.53784e-20)
(-0.0619105 0.230794 -2.18523e-20)
(-0.0617318 0.23666 0)
(-0.0610946 0.241674 -2.20355e-20)
(-0.060015 0.245834 -4.76555e-23)
(-0.0585098 0.249144 -2.20138e-20)
(-0.0565951 0.251613 -2.20795e-20)
(-0.0542871 0.253261 2.21495e-20)
(-0.0516013 0.25411 -2.20916e-20)
(-0.0485529 0.254192 0)
(-0.0451567 0.253541 -2.21239e-20)
(-0.0414277 0.252198 2.20394e-20)
(-0.0373801 0.250211 0)
(-0.0330287 0.247628 0)
(-0.0283893 0.244505 0)
(-0.0234791 0.240902 -4.38221e-20)
(-0.0183175 0.236881 4.35905e-20)
(-0.0129279 0.232512 0)
(-0.00733796 0.227868 -2.17235e-20)
(-0.00158198 0.223027 0)
(0.00429955 0.218072 4.30554e-20)
(0.0102718 0.213085 -2.13184e-20)
(0.0162619 0.208215 -4.2674e-20)
(0.02204 0.203635 4.92489e-20)
(-0.00140326 0.0085719 2.91136e-20)
(-0.00524654 0.0263146 -4.07357e-20)
(-0.0104102 0.0448285 -6.95183e-20)
(-0.0160197 0.0632004 -3.78476e-20)
(-0.0218262 0.0809331 -9.64903e-21)
(-0.027597 0.0978016 -1.96425e-20)
(-0.0331762 0.113709 -8.97217e-20)
(-0.038452 0.128633 -3.03128e-20)
(-0.0433441 0.142598 -5.11735e-20)
(-0.0477941 0.155643 -5.17913e-20)
(-0.0517633 0.16781 -7.32177e-20)
(-0.0552283 0.179133 -4.21962e-20)
(-0.0581754 0.189636 3.35786e-23)
(-0.0605977 0.19933 -4.28298e-20)
(-0.0624945 0.208218 -4.31318e-20)
(-0.0638709 0.216291 -6.50087e-20)
(-0.0647354 0.22354 4.34838e-20)
(-0.0650991 0.229952 -2.18252e-20)
(-0.0649754 0.235518 0)
(-0.0643794 0.240232 4.39071e-20)
(-0.0633264 0.244091 0)
(-0.0618323 0.2471 8.81698e-20)
(-0.0599126 0.249271 0)
(-0.0575828 0.25062 -2.2094e-20)
(-0.0548578 0.251172 2.21491e-20)
(-0.0517522 0.250957 -4.40459e-20)
(-0.0482804 0.250009 0)
(-0.0444569 0.248371 -4.40456e-20)
(-0.0402959 0.246087 4.38625e-20)
(-0.035812 0.24321 0)
(-0.0310208 0.239795 0)
(-0.0259399 0.235904 0)
(-0.0205891 0.231604 -4.33603e-20)
(-0.0149924 0.226967 0)
(-0.00917881 0.222074 -4.31925e-20)
(-0.00318459 0.217009 8.59581e-20)
(0.00294716 0.211866 -8.55994e-20)
(0.0091779 0.206739 4.2423e-20)
(0.0154276 0.20179 8.4827e-20)
(0.021454 0.197206 -4.89584e-20)
(-0.00161855 0.00894351 -3.74319e-20)
(-0.00582619 0.027166 3.07149e-23)
(-0.0112951 0.0459983 3.7062e-20)
(-0.017166 0.0645742 7.56644e-20)
(-0.0231925 0.082423 -9.64187e-21)
(-0.0291501 0.0993355 -3.92225e-20)
(-0.0348894 0.115226 3.98562e-20)
(-0.0403037 0.130082 6.06354e-20)
(-0.0453172 0.143932 2.0476e-20)
(-0.0498752 0.156823 5.17152e-20)
(-0.0539408 0.168801 4.182e-20)
(-0.0574916 0.179907 6.32526e-20)
(-0.0605145 0.190171 1.27545e-19)
(-0.0630025 0.199609 6.42342e-20)
(-0.064955 0.208226 0)
(-0.0663764 0.216019 2.16478e-20)
(-0.0672745 0.222981 2.16665e-20)
(-0.0676598 0.229103 2.17672e-20)
(-0.067545 0.234376 4.37694e-20)
(-0.0669445 0.238796 -2.19844e-20)
(-0.0658729 0.242361 0)
(-0.0643454 0.245076 -9.04235e-23)
(-0.062377 0.246954 -4.39713e-20)
(-0.0599824 0.24801 4.397e-20)
(-0.057176 0.24827 8.80149e-20)
(-0.0539723 0.247761 8.7926e-20)
(-0.0503853 0.24652 -2.17229e-23)
(-0.0464293 0.244587 4.37701e-20)
(-0.0421184 0.242009 4.36777e-20)
(-0.0374673 0.238837 -4.35703e-20)
(-0.0324919 0.235128 4.34487e-20)
(-0.0272097 0.230946 4.33138e-20)
(-0.0216415 0.226361 8.65266e-20)
(-0.0158119 0.22145 -1.42124e-22)
(-0.00975091 0.216298 1.28727e-19)
(-0.00349654 0.211 -6.82632e-23)
(0.0029053 0.205659 -4.24731e-20)
(0.00941259 0.200383 -4.25012e-20)
(0.0159398 0.195349 4.20742e-20)
(0.0222289 0.190761 4.85512e-20)
(-0.00184355 0.00929229 3.32125e-20)
(-0.00641781 0.0279626 4.52159e-20)
(-0.0121778 0.0470912 2.77437e-20)
(-0.0182874 0.0658561 -2.83659e-20)
(-0.0245048 0.083812 -4.81457e-20)
(-0.0306147 0.100765 3.92169e-20)
(-0.0364757 0.11664 0)
(-0.0419872 0.131431 4.03704e-20)
(-0.0470786 0.145173 0)
(-0.0516988 0.157917 -8.27177e-20)
(-0.0558136 0.169716 2.09024e-20)
(-0.0594021 0.180616 -1.05353e-19)
(-0.0624521 0.190651 -4.24967e-20)
(-0.0649568 0.199841 2.13655e-20)
(-0.0669155 0.208198 3.8694e-23)
(-0.0683323 0.215721 -2.16022e-20)
(-0.0692148 0.222406 -4.34548e-20)
(-0.0695724 0.228247 -8.71597e-20)
(-0.0694175 0.233236 0)
(-0.0687637 0.237371 7.25461e-24)
(-0.0676254 0.24065 -4.38181e-20)
(-0.0660167 0.243081 -4.39494e-20)
(-0.0639521 0.244673 4.39708e-20)
(-0.0614462 0.245445 -4.40697e-20)
(-0.058513 0.245419 4.38261e-20)
(-0.0551667 0.244624 -8.77022e-20)
(-0.0514215 0.243095 -2.7497e-23)
(-0.0472915 0.240873 -8.7421e-20)
(-0.042791 0.238004 -4.36773e-20)
(-0.0379351 0.234539 4.43129e-23)
(-0.0327399 0.230538 -1.30113e-22)
(-0.0272238 0.226066 -4.33133e-20)
(-0.0214079 0.221195 -4.31663e-20)
(-0.0153176 0.216006 -2.04564e-22)
(-0.0089842 0.210591 -4.28391e-20)
(-0.00244708 0.205052 -2.17333e-22)
(0.00424509 0.199504 -4.23193e-20)
(0.011047 0.194069 1.2631e-19)
(0.0178693 0.188944 -4.20737e-20)
(0.0244354 0.18435 -4.84947e-20)
(-0.00207669 0.00961462 -3.32081e-20)
(-0.00701823 0.028696 9.0365e-21)
(-0.0130547 0.0480957 -2.77539e-20)
(-0.0193804 0.0670325 -9.44308e-21)
(-0.0257596 0.0850856 3.85135e-20)
(-0.0319877 0.102075 -9.7963e-21)
(-0.0379322 0.117936 9.94405e-21)
(-0.0434996 0.132666 -6.05578e-20)
(-0.0486246 0.146307 2.04232e-20)
(-0.0532608 0.158913 4.13437e-20)
(-0.057377 0.170543 0)
(-0.0609542 0.181247 8.42275e-20)
(-0.0639812 0.191064 0)
(-0.0664518 0.200019 -8.54624e-20)
(-0.0683656 0.208126 -4.2959e-20)
(-0.0697266 0.215391 0)
(-0.0705416 0.22181 0)
(-0.0708199 0.227381 8.70371e-20)
(-0.0705733 0.232098 4.36738e-20)
(-0.069815 0.235959 -8.74395e-20)
(-0.0685586 0.238964 4.37378e-20)
(-0.0668179 0.24112 0)
(-0.064607 0.242438 -4.38556e-20)
(-0.0619401 0.242935 8.74868e-20)
(-0.0588314 0.242633 -4.37246e-20)
(-0.055295 0.241562 -4.37446e-20)
(-0.0513453 0.239754 4.35939e-20)
(-0.0469967 0.237251 0)
(-0.0422641 0.234099 8.68199e-20)
(-0.0371629 0.23035 -4.3275e-20)
(-0.0317103 0.226063 -4.32108e-20)
(-0.025925 0.221304 -6.91361e-23)
(-0.0198292 0.21615 1.71408e-19)
(-0.0134493 0.210684 -1.28135e-19)
(-0.00681736 0.205003 0)
(2.57227e-05 0.199219 -4.24426e-20)
(0.0070286 0.193456 -8.4335e-20)
(0.0141429 0.187854 4.17579e-20)
(0.0212774 0.18263 4.16059e-20)
(0.0281341 0.178029 0)
(-0.00231599 0.00990739 -6.62888e-20)
(-0.00762377 0.029359 -9.0273e-21)
(-0.013922 0.0490011 7.38593e-20)
(-0.0204415 0.0680907 -7.54366e-20)
(-0.0269537 0.0862297 0)
(-0.0332664 0.103251 0)
(-0.0392567 0.119096 -1.98885e-20)
(-0.0448387 0.13377 -1.93997e-23)
(-0.0499533 0.147317 2.04076e-20)
(-0.0545591 0.159795 0)
(-0.0586283 0.171268 0)
(-0.0621442 0.181788 -2.10415e-20)
(-0.0650971 0.191399 3.1593e-23)
(-0.0674818 0.200131 2.13818e-20)
(-0.0692981 0.208003 4.29585e-20)
(-0.07055 0.215021 0)
(-0.0712441 0.221188 4.33526e-20)
(-0.0713894 0.226502 -4.34153e-20)
(-0.0709974 0.23096 -8.71286e-20)
(-0.0700809 0.23456 8.72845e-20)
(-0.068653 0.237304 7.07779e-23)
(-0.0667268 0.239198 -4.36792e-20)
(-0.0643165 0.240255 4.37452e-20)
(-0.0614365 0.24049 -8.73941e-20)
(-0.0581009 0.239925 0)
(-0.0543241 0.238589 4.36035e-20)
(-0.0501211 0.236516 -8.69714e-20)
(-0.0455069 0.233744 4.33521e-20)
(-0.0404971 0.230321 -4.33498e-20)
(-0.0351081 0.226298 -4.31655e-20)
(-0.0293579 0.221735 -4.30806e-20)
(-0.0232667 0.2167 1.71333e-19)
(-0.0168574 0.21127 -1.28041e-19)
(-0.0101575 0.205531 -8.50369e-20)
(-0.00320018 0.199587 8.455e-20)
(0.00397235 0.193556 0)
(0.0113061 0.187574 8.38718e-20)
(0.0187498 0.181797 -8.33464e-20)
(0.0262125 0.176467 -4.16053e-20)
(0.0333723 0.171856 0)
(-0.0025596 0.0101679 1.40771e-19)
(-0.00823069 0.0299445 6.30542e-20)
(-0.0147758 0.0497979 -7.38588e-20)
(-0.021467 0.0690189 6.60097e-20)
(-0.0280843 0.0872306 -9.61417e-21)
(-0.0344488 0.104277 1.9548e-20)
(-0.0404477 0.120107 0)
(-0.0460037 0.134728 -2.01564e-20)
(-0.0510641 0.148188 2.03914e-20)
(-0.0555931 0.160548 2.06449e-20)
(-0.0595667 0.171874 -2.08257e-20)
(-0.0629711 0.182223 -2.10366e-20)
(-0.0657982 0.191643 2.11688e-20)
(-0.0680441 0.200167 0)
(-0.0697092 0.207817 0)
(-0.0707975 0.214604 -4.31251e-20)
(-0.0713156 0.220533 4.32272e-20)
(-0.0712726 0.225605 -4.34256e-20)
(-0.0706799 0.229818 4.34613e-20)
(-0.0695496 0.233172 4.35954e-20)
(-0.0678944 0.23567 -8.72083e-20)
(-0.0657274 0.237318 8.72342e-20)
(-0.0630629 0.238128 5.8122e-23)
(-0.0599155 0.238116 -4.354e-20)
(-0.0562996 0.237304 0)
(-0.0522303 0.23572 4.3461e-20)
(-0.0477232 0.233396 5.37961e-23)
(-0.0427945 0.230371 -4.31996e-20)
(-0.0374607 0.226693 0)
(-0.0317395 0.222412 8.5964e-20)
(-0.0256504 0.217588 -8.55543e-20)
(-0.0192149 0.212291 0)
(-0.0124574 0.206597 8.49729e-20)
(-0.00540653 0.200596 -8.45043e-20)
(0.00190344 0.194396 0)
(0.0094289 0.188121 0)
(0.0171132 0.181918 0)
(0.0249023 0.175961 -8.29793e-20)
(0.0327077 0.170517 8.24469e-20)
(0.040182 0.165893 9.46046e-20)
(-0.0028054 0.0103938 -6.62088e-20)
(-0.00883497 0.0304468 -7.20713e-20)
(-0.015612 0.0504775 -9.21839e-21)
(-0.0224535 0.0698062 2.82509e-20)
(-0.029149 0.0880755 -3.8399e-20)
(-0.0355334 0.10514 3.90745e-20)
(-0.0415049 0.120952 -3.96946e-20)
(-0.046995 0.135523 -6.03639e-20)
(-0.0519581 0.148903 0)
(-0.0563642 0.161155 -2.0628e-20)
(-0.0601939 0.172347 2.08085e-20)
(-0.0634363 0.182539 0)
(-0.0660856 0.191781 4.2357e-20)
(-0.0681394 0.200112 -4.25766e-20)
(-0.0695988 0.207556 -1.2851e-19)
(-0.0704682 0.214128 -5.94547e-23)
(-0.0707545 0.219836 8.64037e-20)
(-0.0704669 0.224682 -4.32992e-20)
(-0.0696166 0.228666 0)
(-0.0682156 0.231791 0)
(-0.0662762 0.234059 8.69454e-20)
(-0.0638118 0.235478 4.35444e-20)
(-0.0608369 0.236059 -4.3473e-20)
(-0.0573664 0.235818 -4.34742e-20)
(-0.0534157 0.234776 8.67664e-20)
(-0.0490004 0.232961 -4.32736e-20)
(-0.0441374 0.230406 8.64221e-20)
(-0.0388441 0.227148 -1.72268e-19)
(-0.0331386 0.223234 1.71716e-19)
(-0.0270401 0.218714 -1.71109e-19)
(-0.0205698 0.21365 1.70454e-19)
(-0.0137512 0.208109 -1.69756e-19)
(-0.00661028 0.202169 8.44698e-20)
(0.000822791 0.195923 8.41688e-20)
(0.00851256 0.189479 8.3663e-23)
(0.016414 0.182968 8.37758e-23)
(0.0244676 0.176547 -8.28498e-20)
(0.0326166 0.170408 2.79365e-22)
(0.0407776 0.164846 -8.19721e-20)
(0.0485762 0.160203 0)
(-0.00305137 0.0105832 8.26115e-21)
(-0.0094327 0.030861 -8.9935e-21)
(-0.0164267 0.0510324 2.76267e-20)
(-0.0233979 0.0704429 -3.76292e-20)
(-0.0301455 0.0887527 1.91766e-20)
(-0.0365195 0.105825 0)
(-0.0424288 0.121616 0)
(-0.0478141 0.13614 8.04833e-20)
(-0.0526377 0.149446 1.01818e-19)
(-0.0568759 0.161599 -2.05865e-20)
(-0.0605138 0.172668 1.03995e-19)
(-0.0635443 0.182716 -2.0972e-20)
(-0.0659639 0.191797 0)
(-0.0677721 0.19995 0)
(-0.0689712 0.207205 8.5637e-20)
(-0.0695661 0.213579 0)
(-0.0695641 0.219083 4.30593e-20)
(-0.068975 0.223721 -4.3227e-20)
(-0.0678099 0.227495 0)
(-0.0660807 0.230408 -8.67311e-20)
(-0.0637997 0.232465 -4.34953e-20)
(-0.0609806 0.233674 -1.30148e-19)
(-0.0576386 0.234045 -4.34084e-20)
(-0.0537892 0.233595 4.33153e-20)
(-0.0494485 0.232344 8.6385e-20)
(-0.0446337 0.23032 0)
(-0.0393628 0.227554 8.59353e-20)
(-0.0336548 0.224086 1.71504e-19)
(-0.0275297 0.219959 5.94141e-23)
(-0.0210088 0.215226 -8.51657e-20)
(-0.0141155 0.209945 -8.48787e-20)
(-0.00687504 0.204184 8.44512e-20)
(0.00068411 0.198022 8.41307e-20)
(0.00853018 0.191551 -1.674e-19)
(0.0166263 0.184882 1.66576e-19)
(0.0249258 0.17815 -8.30884e-20)
(0.0333663 0.171519 8.23926e-20)
(0.0418881 0.165199 1.63971e-19)
(0.050415 0.159514 8.12998e-20)
(0.058546 0.154849 9.27193e-20)
(-0.00329543 0.0107346 -6.59591e-20)
(-0.01002 0.0311837 6.28437e-20)
(-0.017216 0.0514568 -5.51475e-20)
(-0.0242971 0.0709207 5.6337e-20)
(-0.0310725 0.0892514 9.5764e-20)
(-0.0374069 0.106319 -7.79646e-20)
(-0.0432206 0.122084 9.90304e-20)
(-0.0484641 0.136561 6.02574e-20)
(-0.0531074 0.149798 -1.42441e-19)
(-0.0571335 0.161861 4.11243e-20)
(-0.060533 0.17282 2.07002e-20)
(-0.0633022 0.182739 4.19582e-20)
(-0.0654409 0.191673 4.22333e-20)
(-0.0669506 0.199666 -8.49931e-20)
(-0.0678349 0.206748 8.54453e-20)
(-0.0680999 0.212943 1.28776e-19)
(-0.0677536 0.21826 -1.29289e-19)
(-0.0668062 0.222708 1.72799e-19)
(-0.065269 0.226291 8.64872e-20)
(-0.0631542 0.229013 1.30073e-19)
(-0.0604744 0.23088 4.32698e-20)
(-0.0572439 0.231898 8.67457e-20)
(-0.0534785 0.232081 -8.64592e-20)
(-0.0491947 0.231443 0)
(-0.0444099 0.230006 -2.58795e-19)
(-0.0391427 0.227796 1.72079e-19)
(-0.0334127 0.224846 -8.58925e-20)
(-0.0272411 0.221192 -8.56178e-20)
(-0.0206499 0.216879 -1.47443e-22)
(-0.0136627 0.211959 0)
(-0.00630537 0.206489 0)
(0.00139409 0.200537 8.38934e-20)
(0.00940505 0.194181 -8.37115e-20)
(0.0176936 0.187513 8.32498e-20)
(0.026221 0.180644 -8.28756e-20)
(0.0349391 0.17371 -8.24421e-20)
(0.0437824 0.166885 0)
(0.0526877 0.160391 -8.14832e-20)
(0.0615886 0.154584 -8.12383e-20)
(0.0700583 0.149892 -2.7681e-19)
(-0.00353557 0.0108473 6.59629e-20)
(-0.0105931 0.0314121 -6.28495e-20)
(-0.0179764 0.0517458 7.35443e-20)
(-0.0251487 0.0712326 -1.31409e-19)
(-0.0319287 0.0895624 -9.57437e-20)
(-0.0381962 0.106612 7.79642e-20)
(-0.0438829 0.122344 -1.58343e-19)
(-0.048949 0.136772 -8.03416e-20)
(-0.0533729 0.149944 1.0171e-19)
(-0.0571445 0.161925 -1.85047e-19)
(-0.0602601 0.172783 -1.24662e-19)
(-0.0627201 0.182586 -4.188e-20)
(-0.0645278 0.191389 -1.26685e-19)
(-0.0656871 0.199238 1.27442e-19)
(-0.0662033 0.206167 -8.54443e-20)
(-0.0660838 0.2122 -8.58158e-20)
(-0.0653379 0.217351 0)
(-0.0639763 0.221629 -8.63338e-20)
(-0.0620108 0.225041 -1.29709e-19)
(-0.0594541 0.227592 4.32291e-20)
(-0.0563195 0.229289 -8.65897e-20)
(-0.0526219 0.23014 0)
(-0.0483782 0.230157 8.64577e-20)
(-0.0436062 0.229355 8.62152e-20)
(-0.0383248 0.227757 -8.57409e-20)
(-0.0325543 0.225387 0)
(-0.0263164 0.222278 0)
(-0.0196342 0.218467 0)
(-0.0125325 0.213998 -3.30024e-22)
(-0.00503761 0.208921 0)
(0.00282194 0.203295 -1.68027e-19)
(0.0110153 0.197184 -2.05083e-22)
(0.0195092 0.190667 -1.6638e-19)
(0.0282673 0.183833 1.65709e-19)
(0.0372489 0.176794 -8.23964e-20)
(0.0464037 0.169687 8.21884e-20)
(0.0556633 0.162688 0)
(0.0649606 0.156032 1.62363e-19)
(0.0742406 0.150107 -8.0561e-20)
(0.0830535 0.145387 0)
(-0.00376992 0.0109209 8.22846e-21)
(-0.0111485 0.0315449 0)
(-0.0187046 0.0518964 -9.17269e-20)
(-0.0259504 0.0713729 1.1256e-19)
(-0.0327135 0.0896777 5.73305e-20)
(-0.0388886 0.106693 -7.78098e-20)
(-0.0444187 0.122382 7.9134e-20)
(-0.049274 0.136757 -8.01918e-20)
(-0.0534414 0.149866 0)
(-0.0569181 0.16177 8.22111e-20)
(-0.0597062 0.172539 -8.29525e-20)
(-0.061811 0.182238 7.88474e-23)
(-0.0632392 0.190925 0)
(-0.0639977 0.198647 8.48143e-20)
(-0.064094 0.205441 -4.25814e-20)
(-0.0635373 0.211331 8.56446e-20)
(-0.062338 0.216335 4.29301e-20)
(-0.0605079 0.220464 -8.60768e-20)
(-0.0580597 0.223726 0)
(-0.0550066 0.226128 1.2943e-19)
(-0.051363 0.227678 4.30874e-20)
(-0.0471451 0.228384 0)
(-0.0423708 0.228259 0)
(-0.0370595 0.227319 0)
(-0.0312319 0.225584 8.58793e-20)
(-0.0249103 0.223082 0)
(-0.0181186 0.219844 -8.5202e-20)
(-0.0108826 0.215906 1.6975e-19)
(-0.00322975 0.211312 -1.69201e-19)
(0.00481068 0.206113 0)
(0.0132071 0.200364 8.39152e-20)
(0.0219257 0.194131 -8.31288e-20)
(0.0309301 0.187489 8.30811e-20)
(0.0401814 0.180527 0)
(0.0496365 0.173354 0)
(0.0592433 0.166106 8.15443e-20)
(0.0689298 0.15896 -8.10469e-20)
(0.0786247 0.152161 1.61242e-19)
(0.0882858 0.146128 -1.60208e-19)
(0.0974443 0.141383 0)
(-0.00399672 0.0109556 5.74728e-20)
(-0.0116831 0.0315818 1.79014e-20)
(-0.0193978 0.0519066 7.33704e-20)
(-0.0267004 0.0713379 7.48817e-20)
(-0.0334268 0.0895909 -7.64471e-20)
(-0.0394858 0.106552 7.78095e-20)
(-0.0448319 0.122186 7.89779e-20)
(-0.0494453 0.136503 8.01914e-20)
(-0.0533215 0.149548 0)
(-0.0564652 0.16138 8.20586e-20)
(-0.0588847 0.172067 8.29518e-20)
(-0.0605902 0.181674 8.36682e-20)
(-0.0615927 0.190259 0)
(-0.0619024 0.197871 -8.89428e-23)
(-0.0615294 0.204547 8.52504e-20)
(-0.0604848 0.210313 -4.28114e-20)
(-0.0587808 0.21519 -4.30078e-20)
(-0.0564305 0.219191 1.29093e-19)
(-0.0534475 0.222325 2.03602e-23)
(-0.0498465 0.2246 -4.32332e-20)
(-0.0456429 0.226026 -8.62396e-20)
(-0.0408545 0.226611 0)
(-0.0355007 0.226369 0)
(-0.0296027 0.225316 0)
(-0.0231833 0.223474 0)
(-0.016267 0.220868 0)
(-0.00888039 0.21753 0)
(-0.00105186 0.213497 8.45602e-20)
(0.00718812 0.208813 -8.42085e-20)
(0.015807 0.203525 0)
(0.0247701 0.197691 0)
(0.0340403 0.191373 8.31268e-20)
(0.0435782 0.184646 0)
(0.0533419 0.177597 8.2039e-20)
(0.0632858 0.17033 -8.15691e-20)
(0.0733558 0.162979 0)
(0.0834762 0.15572 1.61281e-19)
(0.0935709 0.148805 -1.60271e-19)
(0.103612 0.142679 0)
(0.113116 0.137914 0)
(-0.00421446 0.0109523 -6.56881e-20)
(-0.0121941 0.031524 -1.78779e-20)
(-0.0200538 0.0517764 1.83064e-20)
(-0.0273975 0.0711254 -7.48817e-20)
(-0.0340688 0.0892975 0)
(-0.0399902 0.106183 0)
(-0.0451272 0.121746 -5.92326e-20)
(-0.0494699 0.135996 -2.00075e-20)
(-0.0530228 0.148974 -4.05738e-20)
(-0.0557981 0.160736 -4.10728e-20)
(-0.0578105 0.171347 -4.14404e-20)
(-0.0590757 0.180873 4.17497e-20)
(-0.0596091 0.189369 4.20177e-20)
(-0.0594247 0.196886 -4.24047e-20)
(-0.0585357 0.203461 0)
(-0.0569557 0.209123 0)
(-0.0546988 0.213893 -8.57623e-20)
(-0.0517796 0.217786 0)
(-0.0482135 0.220813 0)
(-0.0440165 0.222984 8.58722e-20)
(-0.039206 0.224309 2.19436e-24)
(-0.0338011 0.224799 -9.12959e-23)
(-0.0278235 0.224466 -8.57214e-20)
(-0.0212962 0.223327 8.55373e-20)
(-0.0142444 0.221405 8.51593e-20)
(-0.00669511 0.218725 -8.48551e-20)
(0.00132232 0.215319 0)
(0.00977643 0.211224 8.42566e-20)
(0.0186336 0.206483 -4.3248e-23)
(0.027858 0.201143 -8.34875e-20)
(0.0374117 0.195261 0)
(0.0472542 0.188899 0)
(0.0573428 0.182129 8.21076e-20)
(0.0676327 0.175034 -8.16547e-20)
(0.0780756 0.167716 -8.11682e-20)
(0.0886151 0.160306 8.06875e-20)
(0.0991724 0.152974 0)
(0.109666 0.145974 0)
(0.120081 0.139777 0)
(0.129929 0.135005 -8.86715e-20)
(-0.00442188 0.0109125 8.18822e-20)
(-0.0126792 0.0313736 -3.57059e-20)
(-0.0206704 0.0515072 1.82822e-20)
(-0.0280408 0.0707351 0)
(-0.0346403 0.0887947 9.52578e-20)
(-0.0404043 0.10558 1.90194e-23)
(-0.0453094 0.121054 7.88346e-20)
(-0.0493555 0.135225 -6.00069e-20)
(-0.0525558 0.14813 8.10203e-20)
(-0.0549301 0.159821 -4.09452e-20)
(-0.0565 0.170361 0)
(-0.0572871 0.179813 4.17538e-20)
(-0.0573114 0.188232 -1.26134e-19)
(-0.0565912 0.195667 0)
(-0.0551432 0.202158 1.27483e-19)
(-0.0529837 0.207733 -8.52662e-20)
(-0.0501295 0.212415 -8.55887e-20)
(-0.046597 0.216221 4.28713e-20)
(-0.0424036 0.219164 0)
(-0.0375672 0.221254 -8.59436e-20)
(-0.0321073 0.222503 -8.58091e-20)
(-0.0260452 0.222921 -8.03173e-23)
(-0.0194047 0.222523 8.54413e-20)
(-0.0122111 0.221326 8.52898e-20)
(-0.00449211 0.219352 -1.70224e-19)
(0.00372235 0.216628 8.48533e-20)
(0.0124 0.213186 0)
(0.0215062 0.209061 -8.38595e-20)
(0.0310041 0.204298 8.34398e-20)
(0.0408545 0.198944 8.29977e-20)
(0.0510159 0.193053 -8.25379e-20)
(0.0614448 0.186687 8.20647e-20)
(0.0720951 0.179915 0)
(0.0829188 0.172819 8.12579e-20)
(0.0938651 0.165496 1.61352e-19)
(0.104875 0.158071 -1.60591e-19)
(0.115868 0.150709 1.59599e-19)
(0.126754 0.143663 3.99924e-23)
(0.137535 0.137423 -7.89948e-20)
(0.147721 0.132662 1.7623e-19)
(-0.004618 0.0108381 -4.91331e-20)
(-0.0131366 0.031134 -1.06914e-19)
(-0.0212464 0.0511018 7.2986e-20)
(-0.0286298 0.0701684 -5.595e-20)
(-0.0351422 0.0880818 -1.91359e-20)
(-0.0407312 0.104739 1.93698e-20)
(-0.0453839 0.120104 -3.9405e-20)
(-0.0491098 0.134181 -3.99321e-20)
(-0.0519311 0.147003 4.04937e-20)
(-0.0538753 0.15862 -8.18575e-20)
(-0.0549708 0.169091 -4.73701e-23)
(-0.0552454 0.178474 4.16674e-20)
(-0.0547244 0.186825 0)
(-0.0534306 0.194192 -4.22657e-20)
(-0.0513845 0.200612 -4.25208e-20)
(-0.0486062 0.206117 8.52916e-20)
(-0.0451146 0.21073 0)
(-0.0409291 0.214469 0)
(-0.0360691 0.217349 8.57129e-20)
(-0.0305552 0.21938 -8.57237e-20)
(-0.0244091 0.220575 0)
(-0.0176548 0.220947 8.55082e-20)
(-0.0103182 0.22051 -8.54892e-20)
(-0.00242767 0.219282 -1.7021e-19)
(0.00598664 0.217285 6.7666e-23)
(0.0148917 0.214547 8.46019e-20)
(0.0242521 0.2111 -1.68162e-19)
(0.0340298 0.20698 8.38576e-20)
(0.0441848 0.202229 -8.34378e-20)
(0.0546744 0.196896 -1.87195e-22)
(0.0654539 0.191035 1.22324e-22)
(0.0764762 0.184705 -8.20625e-20)
(0.0876923 0.177975 -8.12431e-20)
(0.0990511 0.170921 -8.07406e-20)
(0.110499 0.163639 -3.593e-22)
(0.121976 0.156246 0)
(0.133396 0.148901 -7.92219e-20)
(0.144666 0.14185 1.57839e-19)
(0.155798 0.135602 -2.35451e-19)
(0.166315 0.130876 -1.97447e-22)
(-0.00480214 0.0107314 -1.63371e-20)
(-0.013565 0.0308094 1.42415e-19)
(-0.0217808 0.0505647 -7.29951e-20)
(-0.0291644 0.0694286 5.59598e-20)
(-0.0355757 0.0871598 -1.52127e-19)
(-0.0409738 0.103659 1.93471e-20)
(-0.0453558 0.11889 -7.86413e-20)
(-0.0487408 0.132855 0)
(-0.0511596 0.145583 0)
(-0.0526478 0.157119 -8.17346e-20)
(-0.0532406 0.167518 4.13174e-20)
(-0.0529724 0.176837 -3.92897e-23)
(-0.051874 0.185127 4.1931e-20)
(-0.0499731 0.192434 0)
(-0.0472948 0.198798 -1.27197e-19)
(-0.0438626 0.204248 4.25587e-20)
(-0.0396989 0.20881 -8.53171e-20)
(-0.0348258 0.212501 0)
(-0.0292657 0.215337 0)
(-0.0230419 0.217331 5.29355e-23)
(-0.0161789 0.218497 -8.55171e-20)
(-0.00870353 0.218846 8.52798e-20)
(-0.000644596 0.218395 -8.51268e-20)
(0.00796697 0.217162 8.49437e-20)
(0.0170978 0.215171 5.78087e-23)
(0.0267118 0.212449 6.99734e-23)
(0.0367702 0.209028 8.39992e-20)
(0.0472317 0.204945 -8.3339e-20)
(0.0580529 0.200241 0)
(0.0691878 0.194966 -8.25109e-20)
(0.0805884 0.189171 8.21173e-20)
(0.0922044 0.182917 0)
(0.103984 0.176269 8.12409e-20)
(0.115872 0.169302 -8.03494e-20)
(0.127814 0.162106 7.99324e-20)
(0.139747 0.154793 0)
(0.151583 0.147512 2.37281e-19)
(0.163222 0.140502 -1.57071e-19)
(0.174687 0.134283 0)
(0.185521 0.129621 8.67887e-20)
(-0.00497395 0.0105954 1.30396e-19)
(-0.0139636 0.0304053 -7.11574e-20)
(-0.0222732 0.0499017 -1.82185e-20)
(-0.0296447 0.0685206 1.8609e-20)
(-0.0359422 0.0860319 7.60082e-20)
(-0.0411349 0.10234 0)
(-0.0452299 0.117411 7.86414e-20)
(-0.0482557 0.131242 1.19499e-19)
(-0.0502516 0.14386 4.03603e-20)
(-0.0512611 0.155306 4.08636e-20)
(-0.0513268 0.16563 4.12282e-20)
(-0.0504894 0.174883 -1.24883e-19)
(-0.048786 0.183116 4.18884e-20)
(-0.0462494 0.190373 1.68556e-19)
(-0.0429094 0.19669 4.24007e-20)
(-0.0387938 0.2021 4.25104e-20)
(-0.0339286 0.206625 8.53161e-20)
(-0.0283392 0.210285 0)
(-0.0220514 0.213098 0)
(-0.0150914 0.215076 1.70922e-19)
(-0.00748722 0.216233 -3.41247e-19)
(0.00073137 0.216583 -5.17155e-23)
(0.00953246 0.216143 0)
(0.0188821 0.214933 0)
(0.0287437 0.212975 8.45032e-20)
(0.0390779 0.210297 0)
(0.0498424 0.206933 0)
(0.0609928 0.202918 -8.28581e-20)
(0.0724822 0.198295 -1.65269e-19)
(0.0842616 0.193111 0)
(0.0962795 0.18742 -1.63302e-19)
(0.108483 0.18128 -3.24753e-19)