/*--------------------------------*- C++ -*----------------------------------*\
  =========                 |
  \\      /  F ield         | OpenFOAM: The Open Source CFD Toolbox
   \\    /   O peration     | Website:  https://openfoam.org
    \\  /    A nd           | Version:  7
     \\/     M anipulation  |
\*---------------------------------------------------------------------------*/
FoamFile
{
    version     2.0;
    format      ascii;
    class       surfaceScalarField;
    location    "8.6";
    object      phi;
}
// * * * * * * * * * * * * * * * * * * * * * * * * * * * * * * * * * * * * * //

dimensions      [0 3 -1 0 0 0 0];

internalField   nonuniform List<scalar> 
35640
(
1.83032e-05
-0.000303918
0.000285615
6.67307e-05
-0.000642157
0.00059373
0.000142402
-0.000737298
0.000661627
0.000243653
-0.000644231
0.000542979
0.000369587
-0.000402307
0.000276373
0.000519719
-4.10367e-05
-0.000109095
0.000693785
0.000416291
-0.000590356
0.000891617
0.000951199
-0.00114903
0.00111298
0.00154881
-0.00177017
0.00135749
0.00219679
-0.0024413
0.00162459
0.0028847
-0.0031518
0.00191343
0.00360338
-0.00389222
0.00222283
0.00434453
-0.00465393
0.00255125
0.00510037
-0.00542879
0.0028968
0.00586349
-0.00620904
0.00325722
0.00662673
-0.00698715
0.00362991
0.00738314
-0.00775584
0.00401201
0.00812605
-0.00850814
0.00440041
0.00884908
-0.00923749
0.00479191
0.00954632
-0.00993782
0.00518326
0.0102124
-0.0106037
0.00557127
0.0108425
-0.0112305
0.0059529
0.0114327
-0.0118143
0.00632536
0.0119797
-0.0123522
0.00668617
0.0124813
-0.0128421
0.00703326
0.0129357
-0.0132828
0.00736505
0.0133419
-0.0136737
0.00768051
0.0136989
-0.0140143
0.00797931
0.014005
-0.0143038
0.014255
0.00826185
-0.0145375
1.75154e-05
-0.000321433
6.3473e-05
-0.000688115
0.000134865
-0.00080869
0.000230027
-0.000739393
0.000348163
-0.000520442
0.000488941
-0.000181814
0.000652219
0.000253014
0.000837928
0.00076549
0.00104597
0.00134077
0.0012761
0.00196665
0.0015279
0.0026329
0.00180068
0.0033306
0.00209347
0.00405174
0.00240499
0.00478885
0.0027336
0.00553488
0.00307732
0.00628301
0.00343387
0.0070266
0.00380067
0.00775925
0.00417493
0.00847482
0.0045537
0.00916755
0.00493395
0.00983211
0.00531266
0.0104638
0.00568693
0.0110584
0.00605401
0.0116127
0.00641145
0.0121239
0.00675715
0.01259
0.00708943
0.0130097
0.00740714
0.0133812
0.00770974
0.0137024
0.0139674
0.00799728
1.66511e-05
-0.000338085
5.99013e-05
-0.000731365
0.000126673
-0.000875461
0.000215409
-0.000828129
0.000325467
-0.0006305
0.000456671
-0.000313018
0.000609016
0.000100669
0.000782572
0.000591935
0.000977359
0.00114598
0.00119325
0.00175076
0.00142996
0.00239619
0.00168696
0.00307361
0.00196345
0.00377525
0.00225832
0.00449398
0.00257018
0.00522302
0.00289731
0.00595588
0.00323769
0.00668622
0.00358902
0.00740791
0.00394878
0.00811506
0.00431426
0.00880206
0.00468267
0.0094637
0.00505117
0.0100953
0.005417
0.0106926
0.00577751
0.0112521
0.00613029
0.0117711
0.00647322
0.0122471
0.00680458
0.0126783
0.00712313
0.0130626
0.00742815
0.0133974
0.0136762
0.00771932
1.56738e-05
-0.000353759
5.58757e-05
-0.000771567
0.000117639
-0.000937225
0.00019957
-0.00091006
0.000301201
-0.000732131
0.000422553
-0.000434369
0.000563792
-4.05695e-05
0.000725107
0.00043062
0.000906652
0.000964437
0.00110843
0.00154898
0.00133026
0.00217436
0.00157174
0.00283213
0.00183221
0.00351478
0.00211075
0.00421543
0.00240615
0.00492762
0.00271691
0.00564511
0.00304125
0.00636188
0.00337711
0.00707205
0.00372221
0.00776996
0.0040741
0.00845018
0.00443018
0.00910762
0.00478782
0.00973762
0.00514439
0.010336
0.00549737
0.0108992
0.00584441
0.0114241
0.0061834
0.0119081
0.00651262
0.0123491
0.00683074
0.0127445
0.00713687
0.0130913
0.0133828
0.00743035
1.45389e-05
-0.000368297
5.13765e-05
-0.000808404
0.000107715
-0.000993563
0.000182411
-0.000984755
0.000275243
-0.000824964
0.000386426
-0.000545551
0.000516316
-0.00017046
0.000665267
0.000281669
0.000833553
0.000796151
0.00102129
0.00136124
0.0012284
0.00196725
0.0014546
0.00260593
0.00169936
0.00327002
0.0019619
0.0039529
0.00224117
0.00464835
0.00253586
0.00535042
0.00284439
0.00605335
0.00316492
0.00675152
0.0034954
0.00743949
0.00383357
0.008112
0.00417707
0.00876412
0.00452343
0.00939126
0.00487019
0.00998926
0.00521493
0.0105544
0.00555538
0.0110836
0.00588951
0.011574
0.00621556
0.012023
0.00653215
0.0124279
0.00683823
0.0127852
0.0130882
0.00713282
1.32464e-05
-0.000381544
4.63501e-05
-0.000841508
9.68269e-05
-0.00104404
0.000163842
-0.00105177
0.000247455
-0.000908577
0.00034812
-0.000646216
0.000466406
-0.000288746
0.000602828
0.000145248
0.000757788
0.00064119
0.000931521
0.00118751
0.00112405
0.00177472
0.0013352
0.00239479
0.00156454
0.00304068
0.00181142
0.00370601
0.00207494
0.00438483
0.00235392
0.00507144
0.00264697
0.0057603
0.00295244
0.00644606
0.00326847
0.00712346
0.00359301
0.00778746
0.00392387
0.00843326
0.00425877
0.00905637
0.00459538
0.00965264
0.00493144
0.0102184
0.00526475
0.0107503
0.00559333
0.0112454
0.00591544
0.0117009
0.00622964
0.0121137
0.00653473
0.0124801
0.0127935
0.00682941
1.17699e-05
-0.000393314
4.07722e-05
-0.00087051
8.49343e-05
-0.0010882
0.0001438
-0.00111064
0.000217771
-0.000982547
0.000307563
-0.000736009
0.000413965
-0.000395147
0.000537675
2.15379e-05
0.000679234
0.000499631
0.000838986
0.00102776
0.00101706
0.00159665
0.00121337
0.00219848
0.00142759
0.00282646
0.00165916
0.00347444
0.00190731
0.00413669
0.002171
0.00480775
0.00244897
0.00548233
0.00273975
0.00615528
0.00304165
0.00682156
0.00335278
0.00747632
0.00367115
0.0081149
0.00399461
0.0087329
0.00432101
0.00932624
0.00464817
0.00989121
0.00497403
0.0104244
0.00529663
0.0109228
0.00561427
0.0113833
0.00592546
0.0118025
0.00622884
0.0121767
0.0124995
0.00652281
1.01005e-05
-0.000403414
3.46196e-05
-0.000895029
7.20118e-05
-0.00112559
0.00012227
-0.00116089
0.000186171
-0.00104645
0.00026473
-0.000814567
0.000358974
-0.000489391
0.000469791
-8.92792e-05
0.000597864
0.000371559
0.000743651
0.00088197
0.000907384
0.00143291
0.00108906
0.00201681
0.00128844
0.00262708
0.00150507
0.00325781
0.00173827
0.00390349
0.00198712
0.0045589
0.00225048
0.00521896
0.00252703
0.00587873
0.00281523
0.00653337
0.00311334
0.00717821
0.00341951
0.00780873
0.00373177
0.00842064
0.00404808
0.00900994
0.00436639
0.0095729
0.00468471
0.0101061
0.00500118
0.0106063
0.00531407
0.0110704
0.00562187
0.0114947
0.00592306
0.0118755
0.0122068
0.00621573
8.23052e-06
-0.000411645
2.78884e-05
-0.000914687
5.8061e-05
-0.00115577
9.92607e-05
-0.00120209
0.000152682
-0.00109987
0.000219666
-0.000881551
0.000301495
-0.000571219
0.000399249
-0.000187033
0.000513759
0.000257049
0.000645604
0.000750125
0.000795113
0.0012834
0.000962366
0.00184955
0.00114721
0.00244223
0.00134928
0.00305574
0.00156796
0.00368481
0.00180245
0.0043244
0.00205174
0.00496967
0.00231459
0.00561587
0.00258961
0.00625836
0.0028752
0.00689261
0.00316965
0.00751428
0.0034711
0.00811919
0.00377765
0.00870339
0.00408736
0.00926318
0.00439833
0.00979513
0.00470873
0.0102959
0.00501685
0.0107623
0.00532112
0.0111905
0.00561987
0.0115768
0.0119158
0.00591089
6.16152e-06
-0.000417806
2.05858e-05
-0.000929111
4.31056e-05
-0.00117829
7.48215e-05
-0.00123381
0.000117383
-0.00114243
0.000172483
-0.000936651
0.000241666
-0.000640403
0.000326214
-0.000271581
0.000427111
0.000156152
0.000545056
0.00063218
0.000680474
0.00114799
0.000833529
0.0016965
0.00100415
0.00227161
0.00119203
0.00286786
0.00139667
0.00348017
0.00161733
0.00410374
0.0018531
0.0047339
0.00210286
0.00536611
0.00236532
0.0059959
0.002639
0.00661893
0.00292231
0.00723098
0.00321352
0.00782798
0.00351083
0.00840607
0.0038124
0.00896161
0.0041164
0.00949113
0.00442104
0.00999129
0.00472462
0.0104587
0.00502548
0.0108896
0.00532178
0.0112805
0.0116266
0.00561104
3.89675e-06
-0.000421703
1.27322e-05
-0.000937946
2.71962e-05
-0.00119275
4.90405e-05
-0.00125565
8.04049e-05
-0.00117379
0.000123355
-0.000979601
0.000179707
-0.000696755
0.000250947
-0.00034282
0.000338216
6.88835e-05
0.000442333
0.000528063
0.00056382
0.0010265
0.000702926
0.00155739
0.000859653
0.00211489
0.00103377
0.00269374
0.00122485
0.0032891
0.00143224
0.00389635
0.0016551
0.00451104
0.00189242
0.00512879
0.002143
0.00574532
0.00240548
0.00635645
0.00267836
0.00695809
0.00296003
0.00754631
0.00324877
0.00811733
0.00354284
0.00866754
0.00384047
0.00919351
0.00413988
0.00969187
0.00443937
0.0101592
0.00473717
0.0105918
0.00503128
0.0109864
0.0113389
0.00531892
1.44578e-06
-0.000423148
4.36329e-06
-0.000940863
1.04071e-05
-0.00119879
2.20418e-05
-0.00126729
4.19287e-05
-0.00119368
7.25203e-05
-0.00101019
0.000115911
-0.000740145
0.000173794
-0.000400703
0.000247469
-4.79101e-06
0.000337876
0.000437657
0.000445633
0.000918741
0.000571072
0.00143195
0.000714269
0.00197169
0.000875066
0.00253294
0.0010531
0.00311107
0.0012478
0.00370166
0.00145841
0.00430043
0.00168399
0.0049032
0.00192345
0.00550587
0.00217551
0.00610439
0.00243877
0.00669483
0.00271171
0.00727337
0.00299271
0.00783633
0.00328008
0.00838017
0.0035721
0.00890149
0.00386703
0.00939695
0.00416309
0.00986314
0.00445843
0.0102965
0.00475083
0.010694
0.0110525
0.00503726
-1.17975e-06
-0.000421969
-4.47257e-06
-0.00093757
-7.16238e-06
-0.0011961
-6.0136e-06
-0.00126844
2.18275e-06
-0.00120188
2.02761e-05
-0.00102829
5.06429e-05
-0.000770512
9.51858e-05
-0.000445246
0.000155362
-6.49666e-05
0.000232231
0.000360787
0.000326508
0.000824464
0.000438607
0.00131985
0.000568676
0.00184162
0.000716631
0.00238499
0.000882172
0.00294553
0.00106481
0.00351902
0.00126385
0.00410138
0.00147845
0.0046886
0.00170758
0.00527674
0.00195007
0.0058619
0.00220461
0.0064403
0.00246974
0.00700823
0.00274393
0.00756214
0.00302555
0.00809855
0.0033129
0.00861414
0.00360425
0.0091056
0.00389775
0.00956964
0.00419143
0.0100028
0.00448287
0.0104025
0.0107666
0.00476875
-3.95938e-06
-0.000418009
-1.37143e-05
-0.000927815
-2.53896e-05
-0.00118443
-3.493e-05
-0.0012589
-3.85584e-05
-0.00119825
-3.30235e-05
-0.00103382
-1.56638e-05
-0.000787871
1.56312e-05
-0.00047654
6.24737e-05
-0.000111809
0.000126043
0.000297218
0.00020715
0.000743358
0.000306289
0.00122071
0.000423684
0.00172422
0.000559317
0.00224935
0.000712962
0.00279188
0.000884193
0.00334779
0.0010724
0.00391317
0.00127681
0.0044842
0.00149647
0.00505707
0.0017303
0.00562807
0.00197705
0.00619354
0.00223537
0.00674991
0.00250378
0.00729373
0.0027807
0.00782163
0.00306446
0.00833038
0.00335329
0.00881677
0.00364529
0.00927764
0.00393832
0.00970974
0.00422977
0.0101111
0.0104804
0.004516
-6.87206e-06
-0.000411137
-2.32876e-05
-0.0009114
-4.4129e-05
-0.00116359
-6.44786e-05
-0.00123855
-7.99778e-05
-0.00118275
-8.69716e-05
-0.00102683
-8.25141e-05
-0.000792328
-6.42897e-05
-0.000494764
-3.05352e-05
-0.000145563
2.00468e-05
0.000246636
8.83611e-05
0.000675043
0.000174985
0.00113409
0.000280214
0.00161899
0.000404103
0.00212546
0.000546491
0.00264949
0.000707023
0.00318726
0.000885162
0.00373503
0.0010802
0.00428915
0.00129129
0.00484599
0.0015174
0.00540196
0.00175739
0.00595356
0.00200995
0.00649735
0.00227368
0.00703
0.00254704
0.00754827
0.00282837
0.00804904
0.00311588
0.00852926
0.00340758
0.00898594
0.00370117
0.00941615
0.00399379
0.00981846
0.0101926
0.00428154
-9.89072e-06
-0.000401246
-3.31063e-05
-0.000888184
-6.32133e-05
-0.00113348
-9.44002e-05
-0.00120736
-0.000121719
-0.00115543
-0.000141113
-0.00100743
-0.000149355
-0.000784085
-0.000143932
-0.000500188
-0.000122932
-0.000166563
-8.49419e-05
0.000208646
-2.89637e-05
0.000619065
4.56596e-05
0.00105947
0.000139298
0.00152536
0.000252076
0.00201269
0.000383901
0.00251767
0.000534487
0.00303667
0.000703368
0.00356615
0.000889917
0.0041026
0.00109335
0.00464255
0.00131273
0.00518258
0.00154698
0.00571931
0.00179489
0.00624945
0.00205508
0.0067698
0.00232609
0.00727727
0.00260624
0.00776888
0.00289372
0.00824178
0.00318644
0.00869323
0.00348193
0.00912066
0.0037771
0.00952328
0.00990196
0.00406777
-1.29846e-05
-0.000388261
-4.30729e-05
-0.000858096
-8.24559e-05
-0.0010941
-0.000124407
-0.00116541
-0.000163388
-0.00111645
-0.000194946
-0.000975873
-0.000215583
-0.000763448
-0.00022259
-0.00049318
-0.000213914
-0.000175239
-0.000188031
0.000182762
-0.000143848
0.000574882
-8.06304e-05
0.000996248
2.06511e-06
0.00144266
0.000104432
0.00191032
0.000226447
0.00239565
0.00036789
0.00289523
0.00052837
0.00340567
0.000707334
0.00392364
0.000904076
0.00444581
0.00111774
0.00496891
0.00134732
0.00548973
0.00159167
0.0060051
0.00184951
0.00651196
0.00211938
0.0070074
0.00239965
0.00748861
0.00268845
0.00795298
0.0029836
0.00839808
0.00328248
0.00882178
0.00358176
0.00922401
0.00960676
0.00387695
-1.61191e-05
-0.000372142
-5.30795e-05
-0.000821135
-0.000101652
-0.00104553
-0.000154187
-0.00111287
-0.000204558
-0.00106608
-0.000247931
-0.0009325
-0.000280544
-0.000730835
-0.000299503
-0.00047422
-0.000302619
-0.000172124
-0.000288257
0.0001684
-0.000255237
0.000541862
-0.000202745
0.000943755
-0.000130265
0.00137018
-3.75346e-05
0.00181759
7.54889e-05
0.00228263
0.000208654
0.00276206
0.00036164
0.00325269
0.000533968
0.00375131
0.000725006
0.00425477
0.000933977
0.00475994
0.00115996
0.00526375
0.00140188
0.00576317
0.00165853
0.00625532
0.0019285
0.00673743
0.00221017
0.00720694
0.00250167
0.00766148
0.00280072
0.00809903
0.00310456
0.00851794
0.00340962
0.00891895
0.00930522
0.00371115
-1.92564e-05
-0.000352886
-6.30087e-05
-0.000777383
-0.00012058
-0.000987954
-0.000183402
-0.00105005
-0.000244773
-0.00100471
-0.00029949
-0.000877782
-0.000343542
-0.000686783
-0.00037386
-0.000443901
-0.000388123
-0.000157861
-0.000384594
0.000164871
-0.000362005
0.000519273
-0.000319464
0.000901214
-0.000256383
0.0013071
-0.000172433
0.00173364
-6.75075e-05
0.0021777
5.83094e-05
0.00263625
0.000204765
0.00310623
0.000371452
0.00358462
0.000557812
0.00406841
0.000763141
0.00455461
0.000986601
0.00504029
0.0012272
0.00552257
0.0014838
0.00599872
0.00175506
0.00646617
0.0020394
0.00692259
0.00233494
0.00736594
0.00263937
0.00779461
0.00294977
0.00820753
0.0032624
0.00860632
0.0089954
0.00357223
-2.23557e-05
-0.00033053
-7.27349e-05
-0.000727003
-0.000139006
-0.000921683
-0.000211696
-0.000977362
-0.00028355
-0.000932854
-0.000349013
-0.000812319
-0.000403841
-0.000631954
-0.000444803
-0.000402939
-0.000469452
-0.000133213
-0.000475953
0.000171372
-0.000462954
0.000506273
-0.000429486
0.000867745
-0.000374891
0.00125251
-0.000298775
0.00165752
-0.000200969
0.0020799
-8.14934e-05
0.00251677
5.94642e-05
0.00296527
0.00022156
0.00342253
0.000404302
0.00388567
0.000607064
0.00435185
0.000829082
0.00481827
0.00106945
0.0052822
0.0013271
0.00574106
0.00160079
0.00619249
0.00188898
0.00663439
0.00218985
0.00706508
0.00250105
0.00748341
0.00281962
0.00788897
0.00314161
0.00828433
0.00867523
0.00346178
-2.53738e-05
-0.000305156
-8.21258e-05
-0.000670251
-0.000156683
-0.000847125
-0.000238698
-0.000895347
-0.000320385
-0.000851167
-0.000395864
-0.00073684
-0.000460672
-0.000567145
-0.000511432
-0.00035218
-0.000545577
-9.90672e-05
-0.000561183
0.000186978
-0.000556814
0.000501905
-0.000531427
0.000842358
-0.000484298
0.00120538
-0.000414967
0.00158819
-0.000323207
0.00198814
-0.000208977
0.00240254
-7.24079e-05
0.0028287
8.62128e-05
0.00326391
0.000266454
0.00370543
0.000467754
0.00415055
0.00068942
0.0045966
0.000930624
0.00504099
0.00119039
0.0054813
0.00146754
0.00591534
0.00176067
0.00634126
0.00206801
0.00675774
0.00238727
0.00716414
0.00271547
0.00756076
0.00304859
0.00795121
0.00834266
0.00338116
-2.82658e-05
-0.00027689
-9.10443e-05
-0.000607473
-0.000173359
-0.000764811
-0.000264023
-0.000804682
-0.000354759
-0.000760432
-0.00043938
-0.000652218
-0.000513234
-0.000493291
-0.000572804
-0.00029261
-0.00061542
-5.64509e-05
-0.00063907
0.000210627
-0.000642242
0.000505076
-0.00062382
0.000823935
-0.000583012
0.00116457
-0.000519303
0.00152448
-0.000432403
0.00190124
-0.00032222
0.00229236
-0.000188834
0.00269532
-3.24841e-05
0.00310756
0.000146444
0.0035265
0.000347442
0.00394955
0.000569873
0.00437417
0.000812975
0.00479789
0.00107585
0.00521842
0.00135744
0.00563375
0.00165643
0.00604227
0.00197119
0.00644298
0.00229958
0.00683576
0.00263869
0.00722165
0.0029845
0.0076054
0.00799572
0.00333143
-3.09855e-05
-0.000245905
-9.93508e-05
-0.000539108
-0.000188774
-0.000675389
-0.000287282
-0.000706175
-0.000386138
-0.000661576
-0.000478887
-0.000559469
-0.000560702
-0.000411476
-0.000627945
-0.000225367
-0.000677856
-6.53973e-06
-0.000708342
0.000241112
-0.000717818
0.000514552
-0.0007051
0.000811217
-0.000669334
0.0011288
-0.000609947
0.00146509
-0.000526594
0.00181789
-0.000419133
0.0021849
-0.000287604
0.00256379
-0.000132212
0.00295217
4.66923e-05
0.0033476
0.000248634
0.00374761
0.000473007
0.0041498
0.000719096
0.0045518
0.000986065
0.00495146
0.00127294
0.00534688
0.00157856
0.00573665
0.00190146
0.00612008
0.00223971
0.0064975
0.00259065
0.00687072
0.0029504
0.00724564
0.00763273
0.0033134
-3.34865e-05
-0.000212418
-0.000106906
-0.000465688
-0.00020267
-0.000579625
-0.000308079
-0.000600765
-0.000413986
-0.000555669
-0.000513695
-0.000459759
-0.000602229
-0.000322942
-0.00067585
-0.000151747
-0.000731716
4.93268e-05
-0.000767665
0.000277061
-0.000782044
0.000528931
-0.000773607
0.000802781
-0.000741443
0.00109664
-0.00068492
0.00140857
-0.000603644
0.00173661
-0.00049743
0.00207868
-0.000366284
0.00243264
-0.000210387
0.00279627
-3.00718e-05
0.00316728
0.000174182
0.00354336
0.000401784
0.0039222
0.000652024
0.00430156
0.00092409
0.00467939
0.00121707
0.0050539
0.00152991
0.00542381
0.00186137
0.00578862
0.00220982
0.00614905
0.00257298
0.00650756
0.0029474
0.00687123
0.00725242
0.00332771
-3.57232e-05
-0.000176695
-0.000113572
-0.000387839
-0.000214792
-0.000478405
-0.000326029
-0.000489528
-0.000437769
-0.000443929
-0.000543115
-0.000354414
-0.000636963
-0.000229093
-0.000715491
-7.3219e-05
-0.000775795
0.00010963
-0.000815649
0.000316914
-0.000833344
0.000546625
-0.000827577
0.000797014
-0.000797384
0.00106644
-0.000742081
0.00135327
-0.000661226
0.00165575
-0.000554596
0.00197205
-0.000422174
0.00230022
-0.000264124
0.00263822
-8.07826e-05
0.00298394
0.000127355
0.00333522
0.000359663
0.00368989
0.000615386
0.00404584
0.000893672
0.0044011
0.00119359
0.00475398
0.00151416
0.00510324
0.0018543
0.00544848
0.00221277
0.00579059
0.00258785
0.00613247
0.00297686
0.00648222
0.00685425
0.00337503
-3.76518e-05
-0.000139043
-0.000119219
-0.000306272
-0.000224896
-0.000372728
-0.000340753
-0.000373671
-0.000456965
-0.000327716
-0.000566464
-0.000244914
-0.000664049
-0.000131508
-0.000745831
8.5628e-06
-0.000808858
0.000172657
-0.000850855
0.000358912
-0.000870066
0.000565836
-0.000865142
0.000792089
-0.000835068
0.00103637
-0.000779116
0.00129732
-0.0006968
0.00157344
-0.000587865
0.00186312
-0.00045227
0.00216463
-0.000290176
0.00247613
-0.000101934
0.0027957
0.000111929
0.00312136
0.000350706
0.00345111
0.00061354
0.003783
0.00089945
0.00411519
0.00120737
0.00444606
0.00153624
0.00477438
0.00188502
0.00509969
0.00225279
0.00542282
0.00263861
0.00574665
0.00304104
0.00607979
0.00643869
0.0034566
-3.92321e-05
-9.98114e-05
-0.000123721
-0.000221783
-0.00023275
-0.0002637
-0.000351894
-0.000254527
-0.000471072
-0.000208538
-0.000583081
-0.000132906
-0.000682647
-3.19419e-05
-0.000765835
9.17509e-05
-0.000829659
0.000236481
-0.000871813
0.000401065
-0.000890501
0.000584524
-0.000884339
0.000785928
-0.000852276
0.00100431
-0.00079354
0.00123858
-0.000707609
0.00148751
-0.000594198
0.00174971
-0.000453245
0.00202367
-0.000284906
0.00230779
-8.95495e-05
0.00260034
0.000132242
0.00289957
0.000379667
0.00320369
0.000651713
0.00351096
0.000947173
0.00381973
0.0012647
0.00412853
0.00160289
0.00443619
0.00196048
0.0047421
0.00233659
0.00504671
0.002731
0.00535223
0.00314421
0.00566659
0.0060076
0.0035753
-4.04278e-05
-5.93836e-05
-0.000126969
-0.000135242
-0.000238143
-0.000152526
-0.000359122
-0.000133549
-0.000479621
-8.80387e-05
-0.000592335
-2.01909e-05
-0.000691945
6.7668e-05
-0.000774489
0.000174295
-0.000836962
0.000298954
-0.000877037
0.00044114
-0.0008929
0.000600386
-0.000883141
0.000776169
-0.00084668
0.000967848
-0.000782714
0.00117461
-0.000690691
0.00139548
-0.000570298
0.00162931
-0.00042145
0.00187483
-0.000244292
0.00213063
-3.9201e-05
0.00239525
0.000193197
0.00266717
0.00045201
0.00294487
0.000736055
0.00322691
0.00104384
0.00351195
0.00137359
0.00379879
0.00172329
0.00408649
0.00209096
0.00437443
0.00247509
0.00466258
0.00287552
0.0049518
0.00329489
0.00524722
0.00556389
0.0037386
-4.12084e-05
-1.81753e-05
-0.000128868
-4.75824e-05
-0.000240892
-4.05012e-05
-0.000362142
-1.22989e-05
-0.000482185
3.20048e-05
-0.000593648
9.12716e-05
-0.000691186
0.000165205
-0.000770829
0.000253938
-0.000829567
0.000357692
-0.00086507
0.000476643
-0.000875518
0.000610833
-0.00085949
0.000760141
-0.000815891
0.000924249
-0.000743897
0.00110262
-0.000642934
0.00129452
-0.000512663
0.00149904
-0.000352974
0.00171514
-0.000163984
0.00194164
5.39431e-05
0.00217732
0.000300182
0.00242093
0.0005738
0.00267125
0.000873512
0.0029272
0.00119761
0.00318785
0.00154388
0.00345251
0.00190959
0.00372078
0.00229155
0.00399247
0.0026866
0.00426753
0.00309264
0.00454576
0.00351198
0.00482788
0.00510834
0.00396753
-4.15486e-05
2.33732e-05
-0.000129338
4.02066e-05
-0.000240843
7.10041e-05
-0.000360704
0.000107562
-0.000478395
0.000149696
-0.000586502
0.000199379
-0.000679678
0.000258381
-0.000753961
0.00032822
-0.000806349
0.00041008
-0.00083452
0.000504814
-0.000836665
0.000612977
-0.000811368
0.000734844
-0.000757532
0.000870413
-0.000674328
0.00101942
-0.000561168
0.00118136
-0.000417693
0.00135557
-0.000243762
0.00154121
-3.94494e-05
0.00173733
0.000194935
0.00194294
0.000458831
0.00215703
0.000751383
0.0023787
0.00107138
0.0026072
0.00141717
0.00284206
0.00178654
0.00308314
0.00217657
0.00333075
0.00258355
0.00358549
0.00300326
0.00384783
0.00343087
0.00411815
0.00386315
0.0043956
0.00432242
0.00464907
0.00844743
0.0828084
-0.082994
0.00821312
0.0840636
-0.0838293
0.00781287
0.0816022
-0.0812019
0.00738289
0.0777767
-0.0773467
0.00700739
0.0736777
-0.0733022
0.0067043
0.069886
-0.0695829
0.00646138
0.0665933
-0.0663504
0.00625798
0.0637999
-0.0635965
0.00607395
0.0614629
-0.0612789
0.00589539
0.0595323
-0.0593537
0.0057129
0.0579853
-0.0578028
0.00552251
0.0567968
-0.0566064
0.00532214
0.0559441
-0.0557437
0.00511119
0.0553877
-0.0551768
0.00488929
0.055077
-0.0548551
0.00465654
0.0549576
-0.0547249
0.00441302
0.0549812
-0.0547377
0.00415892
0.0551033
-0.0548492
0.00389498
0.0552931
-0.0550291
0.0036219
0.0555222
-0.0552491
0.00334065
0.0557752
-0.0554939
0.00305221
0.0560339
-0.0557455
0.00275737
0.0562904
-0.0559956
0.00245709
0.0565339
-0.0562336
0.00215153
0.056758
-0.0564524
0.00184111
0.0569569
-0.0566465
0.0015254
0.0571317
-0.056816
0.00120465
0.0572846
-0.0569639
0.000879759
0.0574194
-0.0570945
0.0574962
-0.0571713
0.00831218
0.0824935
0.00817459
0.0842012
0.00784133
0.0819354
0.00745351
0.0781645
0.00710386
0.0740273
0.00681732
0.0701726
0.00658615
0.0668244
0.00639138
0.0639947
0.00621364
0.0616406
0.00603892
0.059707
0.00585834
0.0581659
0.00566768
0.0569875
0.00546531
0.0561465
0.00525106
0.055602
0.00502469
0.0553034
0.00478631
0.055196
0.00453641
0.0552311
0.00427509
0.0553646
0.00400346
0.0555647
0.003722
0.0558036
0.00343202
0.0560651
0.00313436
0.0563316
0.00282989
0.0565949
0.00251972
0.0568441
0.00220385
0.0570739
0.0018829
0.0572779
0.0015564
0.0574582
0.00122471
0.0576163
0.000888835
0.0577553
0.0578324
0.00816181
0.082051
0.00812258
0.0842404
0.00785866
0.0821994
0.00751514
0.078508
0.00719291
0.0743495
0.00692403
0.0704414
0.00670557
0.0670429
0.00652048
0.0641798
0.00635012
0.061811
0.00618024
0.0598769
0.00600246
0.0583437
0.00581229
0.0571776
0.00560848
0.0563503
0.00539128
0.0558192
0.00516066
0.055534
0.00491677
0.0554399
0.00466054
0.0554873
0.00439201
0.0556332
0.00411261
0.0558441
0.0038227
0.0560935
0.00352391
0.0563639
0.00321693
0.0566385
0.0029028
0.056909
0.00258262
0.0571642
0.00225641
0.0574001
0.00192486
0.0576094
0.00158754
0.0577955
0.00124487
0.057959
0.00089797
0.0581022
0.0581799
0.00799776
0.0814836
0.00805769
0.0841805
0.00786499
0.0823921
0.00756759
0.0788054
0.00727416
0.074643
0.00702402
0.0706916
0.00681925
0.0672477
0.00664492
0.0643541
0.00648298
0.0619729
0.00631912
0.0600407
0.00614504
0.0585178
0.00595623
0.0573664
0.00575161
0.0565549
0.00553181
0.056039
0.00529714
0.0557687
0.00504797
0.0556891
0.00478539
0.0557499
0.00450971
0.0559088
0.0042224
0.0561314
0.00392406
0.0563919
0.00361632
0.0566717
0.00329995
0.0569549
0.0029761
0.0572329
0.00264577
0.0574946
0.00230923
0.0577366
0.00196698
0.0579517
0.00161883
0.0581437
0.00126515
0.0583126
0.000907163
0.0584602
0.0585386
0.00782166
0.0807948
0.00798094
0.0840212
0.00786056
0.0825124
0.00761069
0.0790553
0.00734728
0.0749064
0.00711689
0.070922
0.00692668
0.0674379
0.00676418
0.0645166
0.00661195
0.0621252
0.00645539
0.0601973
0.00628592
0.0586872
0.00609927
0.0575531
0.00589454
0.0567596
0.00567259
0.056261
0.00543411
0.0560071
0.00517984
0.0559433
0.00491094
0.0560188
0.00462817
0.0561916
0.00433285
0.0564267
0.00402607
0.0566987
0.00370925
0.0569885
0.00338343
0.0572807
0.0030498
0.0575665
0.00270922
0.0578352
0.00236229
0.0580835
0.00200927
0.0583047
0.00165024
0.0585027
0.00128551
0.0586774
0.000916404
0.0588293
0.0589088
0.00763516
0.079989
0.00789331
0.0837631
0.00784576
0.08256
0.00764446
0.0792566
0.00741197
0.0751389
0.00720218
0.0711318
0.00702749
0.0676126
0.00687796
0.0646661
0.00673666
0.0622665
0.00658865
0.0603453
0.00642493
0.058851
0.00624131
0.0577367
0.00603715
0.0569638
0.00581351
0.0564846
0.00557155
0.0562491
0.00531234
0.0562025
0.00503721
0.056294
0.00474736
0.0564815
0.00444402
0.0567301
0.00412871
0.057014
0.00380275
0.0573144
0.0034674
0.0576161
0.00312386
0.0579101
0.00277301
0.058186
0.00241558
0.058441
0.00205175
0.0586685
0.00168179
0.0588727
0.00130597
0.0590532
0.000925706
0.0592095
0.0592904
0.00744016
0.0790717
0.00779599
0.0834072
0.00782115
0.0825348
0.00766896
0.0794088
0.00746802
0.0753398
0.00727954
0.0713202
0.00712128
0.0677708
0.00698585
0.0648016
0.00685677
0.0623955
0.0067186
0.0604835
0.00656183
0.0590077
0.0063822
0.0579163
0.00617931
0.0571667
0.00595448
0.0567094
0.00570937
0.0564942
0.00544542
0.0564665
0.00516417
0.0565752
0.00486725
0.0567784
0.00455592
0.0570414
0.00423199
0.0573379
0.00389683
0.0576496
0.00355186
0.0579611
0.00319832
0.0582636
0.00283712
0.0585472
0.00246911
0.058809
0.00209443
0.0590432
0.00171349
0.0592536
0.00132654
0.0594401
0.000935075
0.059601
0.0596834
0.0072387
0.0780487
0.00769033
0.0829556
0.0077874
0.0824378
0.00768442
0.0795118
0.0075153
0.0755089
0.00734867
0.0714869
0.00720768
0.0679118
0.00708748
0.0649218
0.00697194
0.0625111
0.00684497
0.0606104
0.00669636
0.0591563
0.00652173
0.058091
0.00632085
0.0573676
0.00609538
0.0569349
0.00584748
0.0567421
0.00557903
0.0567349
0.0052918
0.0568624
0.00498783
0.0570823
0.00466853
0.0573607
0.00433591
0.0576705
0.00399151
0.057994
0.00363682
0.0583157
0.0032732
0.0586272
0.00290156
0.0589189
0.00252289
0.0591877
0.00213731
0.0594288
0.00174533
0.0596456
0.00134724
0.0598382
0.000944525
0.0600037
0.0600881
0.00703295
0.0769267
0.00757786
0.0824107
0.00774538
0.0822702
0.00769116
0.079566
0.00755382
0.0756463
0.00740936
0.0716313
0.00728635
0.0680348
0.00718251
0.0650256
0.00708182
0.0626118
0.00696744
0.0607248
0.00682828
0.0592955
0.00665969
0.0582595
0.0064616
0.0575657
0.00623608
0.0571604
0.00598577
0.0569924
0.00571308
0.0570076
0.00542003
0.0571555
0.00510907
0.0573933
0.00478183
0.057688
0.00444049
0.0580119
0.00408678
0.0583477
0.0037223
0.0586802
0.00334852
0.059001
0.00296636
0.059301
0.00257694
0.0595771
0.00218042
0.0598253
0.00177735
0.0600487
0.00136806
0.0602475
0.000954059
0.0604177
0.0605043
0.00682521
0.0757125
0.00746024
0.0817757
0.00769611
0.0820344
0.0076897
0.0795724
0.00758369
0.0757523
0.00746149
0.0717535
0.00735705
0.0681393
0.0072706
0.0651121
0.0071861
0.0626963
0.00708573
0.0608252
0.00695731
0.0594239
0.00679585
0.058421
0.00660139
0.0577601
0.00637642
0.0573854
0.00612412
0.0572447
0.00584747
0.0572843
0.0055488
0.0574542
0.00523092
0.0577112
0.00489579
0.0580231
0.00454571
0.0583619
0.00418265
0.0587108
0.00380831
0.0590546
0.00342428
0.059385
0.00303154
0.0596938
0.00263127
0.0599773
0.00222375
0.0602328
0.00180954
0.0604629
0.00138903
0.060668
0.000963688
0.060843
0.0609322
0.00661786
0.0744135
0.00733924
0.0810543
0.00764077
0.0817328
0.0076807
0.0795325
0.00760519
0.0758278
0.00750503
0.0718537
0.00741959
0.0682247
0.0073515
0.0651801
0.00728447
0.0627633
0.00719952
0.0609101
0.00708318
0.0595403
0.00692997
0.0585742
0.00674
0.0579501
0.00651623
0.0576092
0.0062624
0.0574985
0.00598209
0.0575646
0.00567802
0.0577582
0.00535333
0.0580359
0.00501036
0.0583661
0.00465154
0.0587208
0.00427912
0.0590832
0.00389484
0.0594388
0.00350049
0.0597794
0.0030971
0.0600972
0.00268592
0.0603885
0.00226733
0.0606514
0.00184194
0.0608883
0.00141016
0.0610998
0.00097343
0.0612798
0.0613718
0.00641336
0.0730374
0.00721677
0.0802509
0.00758075
0.0813688
0.00766501
0.0794482
0.00761877
0.075874
0.00754013
0.0719323
0.0074739
0.0682909
0.00742498
0.0652291
0.00737667
0.0628116
0.00730852
0.0609783
0.00720562
0.0596432
0.00706179
0.058718
0.00687722
0.0581346
0.00665532
0.0578311
0.00640046
0.0577534
0.0061168
0.0578483
0.00580759
0.0580674
0.00547622
0.0583672
0.0051255
0.0587168
0.00475797
0.0590883
0.00437615
0.059465
0.00398191
0.0598331
0.00357717
0.0601841
0.00316306
0.0605113
0.0027409
0.0608107
0.00231118
0.0610811
0.00187453
0.0613249
0.00143147
0.0615429
0.000983308
0.0617279
0.0618232
0.00621424
0.071592
0.00709483
0.0793703
0.00751756
0.0809461
0.00764367
0.0793221
0.00762505
0.0758927
0.00756707
0.0719903
0.00752001
0.068338
0.0074909
0.0652582
0.00746246
0.0628401
0.00741247
0.0610283
0.00732436
0.0597313
0.00719107
0.0588513
0.00701283
0.0583129
0.0067935
0.0580504
0.00653813
0.0580088
0.00625148
0.0581349
0.00593738
0.0583815
0.00559952
0.0587051
0.00524114
0.0590752
0.00486495
0.0594645
0.00447374
0.0598562
0.00406951
0.0602373
0.00365431
0.0605993
0.00322942