/*--------------------------------*- C++ -*----------------------------------*\
  =========                 |
  \\      /  F ield         | OpenFOAM: The Open Source CFD Toolbox
   \\    /   O peration     | Website:  https://openfoam.org
    \\  /    A nd           | Version:  7
     \\/     M anipulation  |
\*---------------------------------------------------------------------------*/
FoamFile
{
    version     2.0;
    format      ascii;
    class       volScalarField;
    location    "5";
    object      p;
}
// * * * * * * * * * * * * * * * * * * * * * * * * * * * * * * * * * * * * * //

dimensions      [0 2 -2 0 0 0 0];

internalField   nonuniform List<scalar> 
18000
(
0.850018
0.849455
0.84941
0.849505
0.849813
0.850325
0.85107
0.852093
0.853419
0.855057
0.856996
0.85922
0.86172
0.864482
0.867478
0.870673
0.874031
0.877516
0.881093
0.884731
0.888395
0.892052
0.895673
0.899234
0.902717
0.906109
0.9094
0.912594
0.915677
0.918518
0.848703
0.848101
0.84806
0.848166
0.848486
0.849001
0.849742
0.850743
0.85203
0.853612
0.855474
0.857598
0.859971
0.86258
0.865402
0.868405
0.871557
0.874822
0.878167
0.881563
0.884979
0.888386
0.891757
0.895071
0.898313
0.901468
0.904531
0.907503
0.910375
0.913036
0.847321
0.846696
0.846661
0.846781
0.847116
0.847643
0.848387
0.849376
0.85063
0.852156
0.853941
0.855963
0.858208
0.860662
0.863305
0.866109
0.869045
0.872081
0.875184
0.878327
0.881483
0.884629
0.887739
0.890796
0.893785
0.896695
0.899519
0.902261
0.904908
0.907378
0.845855
0.845218
0.845201
0.845343
0.845701
0.846247
0.847002
0.847986
0.849214
0.850686
0.852393
0.854313
0.856428
0.858724
0.861183
0.863782
0.866494
0.86929
0.87214
0.875019
0.877905
0.880778
0.883617
0.886406
0.889133
0.891788
0.894364
0.896866
0.89928
0.901545
0.844338
0.843706
0.843706
0.843873
0.844255
0.844823
0.845592
0.846574
0.847775
0.849197
0.850826
0.852641
0.854623
0.856758
0.859029
0.861418
0.8639
0.866447
0.869033
0.871638
0.874244
0.876833
0.87939
0.881903
0.884358
0.886749
0.889069
0.891323
0.893497
0.895546
0.842763
0.84214
0.842162
0.842356
0.842767
0.843362
0.844147
0.845129
0.846308
0.84768
0.849232
0.85094
0.852788
0.854759
0.856842
0.859017
0.861262
0.863552
0.865865
0.868186
0.870502
0.872798
0.875064
0.877289
0.879465
0.881581
0.883637
0.885637
0.887568
0.889393
0.841136
0.840534
0.840578
0.840802
0.841243
0.841867
0.842671
0.843657
0.844815
0.846138
0.84761
0.849211
0.850922
0.85273
0.854622
0.85658
0.858581
0.860605
0.862637
0.864667
0.866683
0.868677
0.870643
0.872574
0.87446
0.876295
0.87808
0.879821
0.881506
0.883103
0.839455
0.838885
0.838954
0.839209
0.839682
0.840336
0.841163
0.842153
0.843291
0.844565
0.845959
0.847451
0.849025
0.85067
0.85237
0.854106
0.855857
0.85761
0.859355
0.861085
0.862795
0.864481
0.866139
0.867766
0.869355
0.870904
0.872413
0.873893
0.875335
0.876698
0.83772
0.837194
0.837288
0.837574
0.838081
0.838768
0.839619
0.840615
0.841735
0.84296
0.844275
0.845659
0.847098
0.84858
0.850086
0.851597
0.853095
0.854573
0.856026
0.857451
0.858849
0.86022
0.861565
0.862882
0.864169
0.865426
0.866657
0.867877
0.869079
0.870209
0.835934
0.83546
0.83558
0.835899
0.83644
0.837161
0.838037
0.839041
0.840144
0.841322
0.842558
0.843837
0.845143
0.846462
0.847773
0.849057
0.850301
0.851502
0.852659
0.853777
0.85486
0.855913
0.85694
0.857942
0.858923
0.859886
0.86084
0.861802
0.86277
0.86367
0.834097
0.833684
0.83383
0.834183
0.834759
0.835514
0.836418
0.837431
0.838516
0.839649
0.840811
0.841986
0.843161
0.844318
0.845434
0.846493
0.847484
0.848408
0.84927
0.850079
0.850846
0.85158
0.852287
0.852973
0.853646
0.854317
0.854995
0.855702
0.856446
0.857121
0.832211
0.831865
0.832039
0.832427
0.833038
0.833829
0.83476
0.835783
0.836853
0.837942
0.839032
0.840108
0.841155
0.842151
0.843076
0.843912
0.844653
0.845304
0.845873
0.846377
0.84683
0.847246
0.847634
0.848005
0.848373
0.848754
0.84916
0.849617
0.850146
0.850608
0.830278
0.830005
0.830209
0.830632
0.831279
0.832107
0.833065
0.834098
0.835155
0.836203
0.837224
0.838204
0.839126
0.839967
0.840704
0.841323
0.84182
0.842202
0.842485
0.84269
0.842835
0.842938
0.843012
0.843073
0.843141
0.843237
0.843376
0.843589
0.843914
0.844177
0.828301
0.828104
0.828338
0.828798
0.829482
0.830346
0.831334
0.832377
0.833422
0.834433
0.835389
0.836277
0.837079
0.83777
0.838326
0.838734
0.838993
0.839116
0.839123
0.839039
0.838886
0.838685
0.838453
0.838213
0.837989
0.837807
0.837687
0.837665
0.837797
0.837877
0.826282
0.826161
0.826428
0.826924
0.827648
0.828549
0.829565
0.830621
0.831656
0.832632
0.833528
0.83433
0.835017
0.835564
0.835946
0.836152
0.836184
0.836059
0.835802
0.835443
0.835006
0.834514
0.833989
0.833459
0.832954
0.832506
0.832137
0.83189
0.831841
0.831756
0.824224
0.824179
0.824478
0.825012
0.825775
0.826715
0.82776
0.828829
0.829857
0.830801
0.831642
0.832364
0.832944
0.833354
0.833571
0.833584
0.833402
0.833043
0.832539
0.831919
0.831213
0.830446
0.829645
0.82884
0.82807
0.82737
0.826767
0.826306
0.826086
0.825853
0.822131
0.822157
0.822489
0.823062
0.823867
0.824844
0.825918
0.827002
0.828024
0.828942
0.829734
0.830383
0.830862
0.831142
0.831203
0.831037
0.830653
0.830078
0.829342
0.828481
0.827525
0.826501
0.82544
0.82438
0.823363
0.822429
0.821609
0.820947
0.820564
0.8202
0.820005
0.820097
0.820463
0.821077
0.821922
0.822937
0.824039
0.825138
0.826158
0.827055
0.827804
0.828386
0.828772
0.828932
0.828847
0.828513
0.827944
0.827168
0.826221
0.825137
0.823949
0.822687
0.821388
0.820093
0.81885
0.817702
0.816682
0.815836
0.815297
0.814817
0.817848
0.817999
0.818399
0.819055
0.819941
0.820993
0.822123
0.823238
0.82426
0.82514
0.825854
0.826375
0.826674
0.826722
0.826502
0.826014
0.825275
0.824316
0.823175
0.821887
0.820486
0.819007
0.817491
0.815984
0.814536
0.813195
0.811996
0.81098
0.810294
0.809712
0.81566
0.815862
0.816297
0.816996
0.817924
0.819012
0.82017
0.821301
0.822327
0.823197
0.82388
0.824348
0.824567
0.824511
0.824166
0.823536
0.822641
0.821516
0.820199
0.818725
0.817131
0.815454
0.813741
0.812043
0.810414
0.808902
0.807543
0.806376
0.805552
0.80488
0.813441
0.813686
0.814156
0.814899
0.81587
0.816994
0.818178
0.819327
0.82036
0.821224
0.821881
0.822299
0.822445
0.822292
0.821831
0.82107
0.820034
0.818758
0.817279
0.815636
0.813866
0.81201
0.810121
0.808253
0.806463
0.8048
0.803302
0.802003
0.801053
0.800306
0.811189
0.811469
0.811975
0.812763
0.813775
0.814935
0.816147
0.817314
0.818355
0.819215
0.81985
0.820222
0.820298
0.820054
0.819486
0.818605
0.817439
0.816023
0.814396
0.812597
0.810666
0.808649
0.806601
0.804582
0.802651
0.800858
0.799241
0.797831
0.796772
0.795968
0.808902
0.809209
0.80975
0.810583
0.811638
0.812834
0.814073
0.815258
0.816309
0.817166
0.817779
0.818107
0.818116
0.817786
0.817116
0.816123
0.814835
0.813289
0.811524
0.809581
0.807501
0.805336
0.803144
0.800991
0.798935
0.79703
0.795315
0.793816
0.792672
0.791834
0.806579
0.806905
0.807481
0.808358
0.809455
0.810686
0.811951
0.813154
0.814214
0.815068
0.815659
0.815942
0.815884
0.815471
0.814705
0.813604
0.8122
0.810529
0.808633
0.806553
0.804334
0.802031
0.799708
0.797432
0.795267
0.793266
0.791472
0.78991
0.788706
0.787867
0.804215
0.804555
0.805163
0.806082
0.807221
0.808486
0.809777
0.810997
0.812065
0.812912
0.813478
0.813713
0.813588
0.813091
0.81223
0.811025
0.809507
0.807715
0.805692
0.803481
0.801128
0.798695
0.796248
0.793859
0.791594
0.789511
0.787654
0.786051
0.784819
0.784021
0.801805
0.802154
0.802794
0.803754
0.804932
0.80623
0.807545
0.80878
0.809853
0.810689
0.811223
0.811405
0.811209
0.810628
0.809671
0.80836
0.806729
0.804818
0.80267
0.800329
0.797847
0.795286
0.792719
0.790221
0.787863
0.785704
0.783795
0.782171
0.780941
0.780233
0.799343
0.799698
0.800369
0.801369
0.802585
0.803913
0.805248
0.806495
0.807567
0.808386
0.808881
0.809004
0.808732
0.808062
0.807006
0.805587
0.803842
0.801811
0.799537
0.797068
0.794457
0.79177
0.789083
0.786475
0.78402
0.781784
0.779825
0.778188
0.776984
0.776413
0.796821
0.797182
0.797885
0.798925
0.800176
0.80153
0.802881
0.804134
0.805199
0.805991
0.806438
0.806493
0.806138
0.805373
0.804213
0.802684
0.800822
0.798668
0.796269
0.793672
0.790932
0.788118
0.785309
0.782583
0.780019
0.777687
0.775657
0.773998
0.772841
0.772456
0.79423
0.794602
0.795339
0.796418
0.797701
0.799076
0.800437
0.801689
0.802737
0.803492
0.80388
0.803859
0.803412
0.802545
0.801275
0.79963
0.797648
0.795371
0.792846
0.790122
0.787255
0.784314
0.781377
0.778521
0.775821
0.773346
0.771178
0.769425
0.768318
0.768227
0.791568
0.791957
0.792728
0.793845
0.795156
0.796546
0.79791
0.799152
0.800172
0.800878
0.801196
0.801088
0.800541
0.799564
0.798177
0.796412
0.794307
0.791906
0.789257
0.786409
0.783419
0.780355
0.777288
0.774289
0.771419
0.76873
0.766276
0.764146
0.762619
0.762414
0.927153
0.940159
0.948016
0.955162
0.95947
0.962571
0.964181
0.96478
0.964522
0.963592
0.962082
0.960078
0.957654
0.9549
0.951871
0.9486
0.945153
0.941588
0.937902
0.934122
0.930269
0.92635
0.922403
0.918466
0.914539
0.910703
0.906968
0.903501
0.900531
0.898455
0.921352
0.934601
0.942824
0.950386
0.955
0.958296
0.960047
0.960769
0.960608
0.95975
0.958301
0.956375
0.954025
0.951347
0.948365
0.945163
0.941785
0.938265
0.934638
0.930918
0.927103
0.923238
0.919327
0.915417
0.911518
0.907693
0.903963
0.900495
0.897498
0.895416
0.915317
0.928889
0.937522
0.945543
0.950488
0.953996
0.9559
0.956751
0.956689
0.955907
0.95452
0.95267
0.950394
0.947789
0.944859
0.941729
0.93842
0.93495
0.931382
0.927724
0.92395
0.920143
0.916272
0.912395
0.908529
0.90472
0.901
0.897536
0.894514
0.892425
0.909027
0.923024
0.932123
0.940635
0.945926
0.949677
0.951749
0.952725
0.952759
0.952061
0.950749
0.948967
0.946761
0.944221
0.941363
0.9383
0.935055
0.931648
0.928135
0.924534
0.920816
0.917058
0.913237
0.909402
0.905572
0.901788
0.898081
0.894617
0.891581
0.889478
0.902496
0.917003
0.926616
0.935664
0.941327
0.945341
0.947592
0.948692
0.948825
0.948215
0.946982
0.945265
0.943129
0.940651
0.937872
0.934874
0.931692
0.928354
0.924898
0.921351
0.917697
0.913988
0.910222
0.906437
0.902644
0.898893
0.895204
0.891743
0.888697
0.886576
0.895736
0.910829
0.920998
0.930634
0.936699
0.940989
0.943427
0.944658
0.944892
0.944369
0.943215
0.941564
0.939498
0.937085
0.934381
0.931452
0.928332
0.925063
0.921669
0.918179
0.91459
0.910936
0.907226
0.903495
0.899746
0.896033
0.892366
0.888912
0.88586
0.883718
0.888757
0.904509
0.915273
0.925546
0.932043
0.936624
0.939259
0.940624
0.940962
0.940524
0.939449
0.937866
0.935871
0.933525
0.930892
0.928033
0.924979
0.921778
0.918449
0.915019
0.911495
0.907902
0.904251
0.900578
0.896877
0.893208
0.889567
0.886123
0.883069
0.880908
0.881579
0.898053
0.90945
0.920404
0.927361
0.932247
0.935087
0.93659
0.937034
0.936681
0.935686
0.934172
0.932249
0.92997
0.927408
0.924621
0.921634
0.918501
0.915238
0.911871
0.908413
0.904885
0.901298
0.897686
0.894038
0.890416
0.886808
0.883378
0.880323
0.878144
0.874228
0.891476
0.903537
0.91521
0.922655
0.927861
0.930913
0.932558
0.93311
0.932843
0.931928
0.930484
0.928631
0.926422
0.923931
0.921216
0.918297
0.915231
0.912036
0.908735
0.905344
0.901884
0.898365
0.894819
0.891228
0.887657
0.884087
0.880677
0.877622
0.875427
0.866737
0.884799
0.897547
0.909969
0.917927
0.923466
0.926738
0.92853
0.929191
0.929012
0.928176
0.926802
0.925021
0.922883
0.920462
0.917819
0.914969
0.911971
0.908843
0.905611
0.902289
0.898901
0.895453
0.891976
0.888447
0.884931
0.881405
0.87802
0.874968
0.872756
0.859151
0.878047
0.891497
0.904688
0.913179
0.919066
0.922565
0.924508
0.925279
0.92519
0.924432
0.923131
0.92142
0.919352
0.917002
0.914431
0.91165
0.908721
0.90566
0.902498
0.899249
0.895934
0.892561
0.889157
0.885695
0.882237
0.878762
0.875406
0.87236
0.870133
0.851518
0.871251
0.885404
0.899373
0.908417
0.914661
0.918395
0.920494
0.921378
0.921379
0.9207
0.91947
0.917831
0.915832
0.913553
0.911053
0.908341
0.90548
0.902488
0.899396
0.896223
0.892983
0.889688
0.88636
0.88297
0.879577
0.876157
0.872837
0.8698
0.867557
0.843898
0.864443
0.879292
0.894033
0.903643
0.910253
0.914231
0.91649
0.917489
0.917582
0.91698
0.915822
0.914253
0.912325
0.910115
0.907684
0.905042
0.90225
0.899327
0.896307
0.893212
0.890049
0.886835
0.883587
0.880274
0.87695
0.873592
0.870312
0.867288
0.865031
0.836351
0.857661
0.873183
0.888676
0.898862
0.905843
0.910075
0.912497
0.913614
0.913799
0.913276
0.912188
0.910689
0.908832
0.906691
0.904327
0.901753
0.899029
0.896178
0.893231
0.890216
0.887131
0.884001
0.880836
0.877605
0.874356
0.871065
0.867832
0.864826
0.862556
0.828942
0.850943
0.867104
0.883314
0.894077
0.901435
0.905927
0.908517
0.909755
0.910031
0.909586
0.908569
0.90714
0.905354
0.90328
0.900982
0.898476
0.89582
0.89304
0.890167
0.887234
0.88423
0.881185
0.878108
0.874963
0.871794
0.868578
0.865399
0.862415
0.860133
0.821737
0.844328
0.86108
0.877959
0.889292
0.897031
0.90179
0.904552
0.905914
0.90628
0.905913
0.904966
0.903606
0.901892
0.899883
0.897648
0.895209
0.892621
0.889915
0.887116
0.884265
0.881344
0.878386
0.875399
0.872345
0.869262
0.866128
0.863011
0.860057
0.857766
0.814794
0.837856
0.855139
0.872623
0.884513
0.892634
0.897665
0.900604
0.902091
0.902547
0.902258
0.901382
0.90009
0.898444
0.8965
0.894327
0.891954
0.889435
0.886802
0.884077
0.881308
0.878473
0.875602
0.872708
0.86975
0.86676
0.863715
0.860671
0.857755
0.855455
0.808168
0.831563
0.849304
0.867321
0.879746
0.888249
0.893555
0.896676
0.898291
0.898836
0.898624
0.897818
0.896593
0.895012
0.893131
0.891018
0.888711
0.886259
0.8837
0.88105
0.878362
0.875615
0.872832
0.870033
0.867175
0.864285
0.861337
0.858377
0.855509
0.853205
0.801898
0.825485
0.8436
0.862067
0.874996
0.883878
0.889464
0.892771
0.894515
0.895151
0.895014
0.894277
0.893115
0.891596
0.889775
0.887724
0.88548
0.883094
0.880607
0.878034
0.875426
0.872767
0.870074
0.86737
0.864618
0.861835
0.858995
0.856132
0.853324
0.851021
0.796015
0.819651
0.838049
0.856874
0.870273
0.879527
0.885393
0.88889
0.890765
0.891493
0.891429
0.89076
0.889658
0.888198
0.886435
0.884442
0.882261
0.879939
0.877525
0.875028
0.872498
0.869928
0.867325
0.864719
0.862076
0.859409
0.856688
0.853935
0.851203
0.848907
0.790535
0.814085
0.832671
0.851755
0.865582
0.875197
0.881346
0.885035
0.887044
0.887865
0.887872
0.887268
0.886223
0.884817
0.883111
0.881175
0.879054
0.876796
0.874452
0.872032
0.869579
0.867095
0.864584
0.862077
0.859547
0.857004
0.854414
0.851788
0.84915
0.846872
0.785466
0.808805
0.827482
0.846723
0.860934
0.870894
0.877325
0.881207
0.883352
0.884267
0.884343
0.883802
0.88281
0.881456
0.879804
0.877921
0.875859
0.873664
0.871387
0.869043
0.866666
0.864268
0.861848
0.859442
0.85703
0.854619
0.85217
0.849691
0.847169
0.844921
0.780807
0.803822
0.822494
0.841791
0.856335
0.866626
0.873333
0.87741
0.879692
0.880701
0.880843
0.880363
0.879421
0.878115
0.876514
0.874681
0.872676
0.870544
0.868332
0.86606
0.863758
0.861444
0.859115
0.856813
0.854521
0.852249
0.849955
0.847643
0.845265
0.843065
0.776558
0.799145
0.817714
0.836973
0.851796
0.862399
0.869374
0.873649
0.876067
0.877168
0.877376
0.876953
0.876057
0.874796
0.873243
0.871456
0.869505
0.867434
0.865284
0.863082
0.860853
0.858622
0.856384
0.854185
0.852016
0.84989
0.847765
0.845643
0.84344
0.841316
0.77272
0.794776
0.813148
0.832282
0.847328
0.85822
0.865456
0.869927
0.87248
0.873672
0.873943
0.873574
0.872721
0.871499
0.86999
0.868247
0.866348
0.864334
0.862244
0.860109
0.85795
0.8558
0.853653
0.851557
0.849512
0.847539
0.845595
0.843686
0.841697
0.839688
0.769299
0.790715
0.808802
0.827735
0.842949
0.854102
0.861587
0.866252
0.868936
0.870218
0.87055
0.87023
0.869415
0.868227
0.866757
0.865056
0.863205
0.861244
0.859211
0.85714
0.855049
0.852977
0.850918
0.848927
0.847007
0.845189
0.843439
0.841769
0.840039
0.8382
0.76631
0.786954
0.804678
0.823346
0.838676
0.850055
0.857776
0.862628
0.86544
0.866809
0.867199
0.866921
0.866139
0.864981
0.863546
0.861883
0.860076
0.858164
0.856183
0.854173
0.852148
0.850151
0.848179
0.846292
0.844495
0.842835
0.841288
0.839883
0.838465
0.836877
0.763794
0.783458
0.800718
0.819047
0.834437
0.846017
0.85397
0.859015
0.861959
0.86342
0.863868
0.863628
0.862874
0.861744
0.86034
0.858714
0.856947
0.855082
0.853151
0.851199
0.849238
0.847313
0.845428
0.843642
0.841968
0.840467
0.839131
0.838015
0.836967
0.83575
0.761716
0.780094
0.796773
0.814678
0.83008
0.841854
0.850051
0.855311
0.858406
0.859975
0.86049
0.860292
0.859572
0.858473
0.857101
0.855513
0.853788
0.85197
0.850091
0.848196
0.846299
0.844447
0.842649
0.840963
0.839411
0.838069
0.836949
0.836143
0.835531
0.834861
0.759981
0.776938
0.793148
0.810682
0.826028
0.837906
0.846266
0.851687
0.854901
0.856556
0.857127
0.856967
0.856276
0.855207
0.853863
0.852313
0.850627
0.848852
0.847022
0.845181
0.843345
0.841562
0.839845
0.838253
0.836817
0.835624
0.834715
0.834227
0.834109
0.834228
0.752902
0.76778
0.78377
0.801261
0.816672
0.828648
0.837131
0.842655
0.8459
0.847527
0.848044
0.847828
0.847104
0.846029
0.844696
0.843183
0.841546
0.839839
0.838095
0.83636
0.834656
0.833029
0.831506
0.830144
0.828995
0.82818
0.827815
0.828197
0.829554
0.832625
0.734232
0.750064
0.766317
0.782386
0.796264
0.807298
0.815475
0.821116
0.824711
0.826778
0.827746
0.82795
0.827617
0.826906
0.825922
0.824749
0.823446
0.822068
0.820654
0.819248
0.817878
0.816589
0.815418
0.814432
0.813702
0.813381
0.813637
0.814842
0.817315
0.821773
0.714246
0.731059
0.746984
0.761723
0.774444
0.784885
0.792936
0.79876
0.802726
0.805249
0.806691
0.807352
0.807453
0.807153
0.806565
0.805774
0.804842
0.803826
0.802766
0.801705
0.800675
0.799723
0.79889
0.798247
0.797871
0.79792
0.798561
0.800158
0.803083
0.808106
0.693214
0.710213
0.725609
0.739523
0.751635
0.761791
0.769841
0.775881
0.780206
0.783159
0.785055
0.786167
0.786707
0.786833
0.786658
0.786268
0.785727
0.785089
0.784397
0.783691
0.783006
0.782385
0.781872
0.781536
0.78145
0.781764
0.782631
0.784407
0.787486
0.792759
0.671332
0.688148
0.703095
0.716499
0.728224
0.738181
0.746245
0.75249
0.757156
0.760529
0.762881
0.764455
0.765449
0.766019
0.766273
0.7663
0.766162
0.765914
0.765596
0.76525
0.764906
0.764607
0.764392
0.764327
0.764476
0.764978
0.765971
0.767801
0.770858
0.776157
0.648648
0.665214
0.679784
0.692805
0.704232
0.714033
0.722121
0.728558
0.733546
0.737323
0.740123
0.74216
0.743618
0.74464
0.745333
0.745785
0.746056
0.746201
0.746258
0.746266
0.746255
0.746265
0.746327
0.746502
0.746848
0.747491
0.74855
0.750362
0.753301
0.758492
0.625212
0.641519
0.655751
0.668461
0.679666
0.689366
0.697501
0.704128
0.70942
0.713581
0.716811
0.719301
0.721215
0.722687
0.723819
0.724694
0.725372
0.725905
0.72633
0.726684
0.726994
0.727294
0.727614
0.728007
0.728523
0.729279
0.730375
0.732139
0.734914
0.739912
0.601046
0.617102
0.631036
0.643503
0.654554
0.664203
0.672409
0.679227
0.684809
0.689335
0.692976
0.695901
0.698257
0.700169
0.701731
0.703021
0.704096
0.705007
0.705789
0.706476
0.707091
0.707666
0.708226
0.708821
0.709491
0.710347
0.711473
0.713182
0.715779
0.720536
0.576175
0.591998
0.605681
0.61796
0.628911
0.638549
0.646845
0.653855
0.659717
0.664589
0.668621
0.671963
0.674745
0.677083
0.679062
0.680754
0.682214
0.68349
0.684614
0.685619
0.686524
0.68736
0.688146
0.688929
0.689745
0.690694
0.69185
0.693507
0.69593
0.70042
0.550627
0.566239
0.579713
0.591848
0.602739
0.612395
0.620797
0.628
0.634132
0.639333
0.643738
0.647477
0.650667
0.653413
0.655793
0.657875
0.659707
0.661335
0.662788
0.664095
0.665276
0.666358
0.66736
0.668323
0.669279
0.67032
0.671508
0.673121
0.67538
0.679598
0.524428
0.539848
0.553146
0.565173
0.576033
0.585731
0.594249
0.601646
0.608038
0.613554
0.618314
0.62243
0.626009
0.629145
0.63191
0.634364
0.636555
0.638521
0.640289
0.641886
0.64333
0.644647
0.645853
0.646985
0.648072
0.6492
0.650419
0.651992
0.654102
0.658036
0.497597
0.51284
0.525992
0.537934
0.548786
0.558543
0.567189
0.574779
0.581422
0.587239
0.592333
0.596807
0.600755
0.604262
0.607393
0.610206
0.612738
0.615027
0.617096
0.618971
0.620668
0.622211
0.623614
0.624912
0.626128
0.627341
0.628593
0.630126
0.632093
0.635766
0.470155
0.48523
0.498254
0.510133
0.520993
0.530822
0.539602
0.547384
0.55427
0.560372
0.565783
0.570594
0.57489
0.578748
0.582227
0.585378
0.588235
0.590832
0.593188
0.595328
0.597266
0.599022
0.600609
0.602059
0.603392
0.604683
0.605965
0.607466
0.6093
0.612665
0.442111
0.457022
0.469937
0.481766
0.492648
0.50256
0.511478
0.519448
0.526568
0.53294
0.538649
0.543777
0.548399
0.552585
0.556389
0.559858
0.563021
0.565909
0.568538
0.570931
0.573099
0.575062
0.576831
0.578431
0.579879
0.581241
0.582544
0.584001
0.585715
0.588844
0.413482
0.428227
0.441042
0.452835
0.463747
0.473746
0.482802
0.490958
0.4983
0.504927
0.510915
0.516339
0.521263
0.525752
0.529858
0.533621
0.537069
0.540228
0.543112
0.545739
0.548118
0.550268
0.552198
0.553933
0.555489
0.556927
0.558265
0.559687
0.561256
0.564035
0.384278
0.398847
0.411572
0.423339
0.434287
0.444375
0.453567
0.461901
0.469455
0.476318
0.482565
0.488259
0.493459
0.498226
0.502606
0.506638
0.510347
0.513756
0.516876
0.519724
0.522309
0.524643
0.526731
0.52859
0.530228
0.531702
0.533036
0.534423
0.535927
0.538494
0.354507
0.368887
0.381531
0.393279
0.404266
0.41444
0.423763
0.432265
0.440017
0.447099
0.45358
0.459518
0.464967
0.469982
0.474606
0.478878
0.482818
0.486448
0.489776
0.492816
0.495573
0.498062
0.50029
0.502278
0.504029
0.505585
0.506943
0.508252
0.509555
0.511742
0.324181
0.33835
0.350923
0.362662
0.373687
0.38394
0.393383
0.402043
0.409975
0.417254
0.423945
0.430098
0.435763
0.440992
0.445825
0.450302
0.454443
0.45827
0.461789
0.465011
0.467934
0.470563
0.472895
0.474946
0.476725
0.478285
0.479647
0.480964
0.482272
0.484241
0.293322
0.307248
0.319764
0.331501
0.342554
0.352873
0.362423
0.371225
0.37932
0.386774
0.393645
0.39998
0.405824
0.411227
0.416231
0.420872
0.425172
0.42915
0.432811
0.436166
0.439219
0.441982
0.444453
0.446632
0.448499
0.450074
0.451357
0.452502
0.453584
0.4552
0.261979
0.275617
0.288084
0.299815
0.31088
0.321243
0.330882
0.339809
0.348047
0.355648
0.362663
0.36914
0.37512
0.380653
0.385781
0.390546
0.394972
0.399076
0.402861
0.406325
0.409459
0.412266
0.41475
0.416938
0.41884
0.420486
0.421857
0.423043
0.424072
0.425372
0.230273
0.243543
0.255947
0.267647
0.278684
0.289059
0.298763
0.307793
0.31615
0.323866
0.330988
0.337564
0.343634
0.349245
0.354441
0.359264
0.363743
0.367903
0.371752
0.375302
0.378547
0.381473
0.384051
0.386257
0.388082
0.389568
0.390743
0.391739
0.392625
0.39359
0.198467
0.21122
0.223474
0.235064
0.246003
0.256337
0.266073
0.27518
0.283627
0.291419
0.2986
0.305221
0.311322
0.316952
0.322162
0.326999
0.331495
0.335666
0.339507
0.343019
0.346204
0.349084
0.35167
0.35396
0.355919
0.357519
0.358711
0.359584
0.36024
0.360822
0.167032
0.179008
0.190886
0.202187
0.2129
0.223113
0.23283
0.24198
0.250481
0.258312
0.26551
0.272124
0.27819
0.283756
0.288881
0.293628
0.298051
0.302186
0.306041
0.309595
0.312804
0.31563
0.318062
0.320136
0.321893
0.323357
0.324472
0.325247
0.325718
0.325786
0.136668
0.147471
0.158557
0.169242
0.17951
0.18947
0.199087
0.208216
0.216711
0.224517
0.231663
0.238197
0.244157
0.249594
0.254573
0.259157
0.263394
0.267322
0.270968
0.274355
0.277487
0.280346
0.28288
0.285034
0.286769
0.288097
0.289007
0.289532
0.289728
0.289374
0.108194
0.117339
0.127055
0.136636
0.146111
0.155589
0.164959
0.173971
0.182396
0.190128
0.197166
0.203536
0.20927
0.214439
0.219146
0.22349
0.227545
0.231332
0.234819
0.237967
0.240765
0.243255
0.245484
0.24746
0.249135
0.250447
0.251287
0.251572
0.251295
0.250165
0.0823576
0.0893964
0.0971207
0.105017
0.113226
0.121844
0.130654
0.1393
0.147478
0.155014
0.161847
0.167968
0.173395
0.178191
0.18246
0.186328
0.18992
0.193327
0.196578
0.199636
0.20241
0.204821
0.206847
0.208529
0.209922
0.211056
0.211833
0.212021
0.211397
0.209628
0.0596015
0.0643039
0.069589
0.07526
0.0817039
0.0889923
0.0967929
0.104711
0.112398
0.119568
0.126038
0.131738
0.136692
0.141009
0.144816
0.148212
0.151273
0.154067
0.156665
0.159121
0.161433
0.163547
0.16539
0.166908
0.168083
0.168949
0.169482
0.169423
0.168289
0.165633
0.0398546
0.042336
0.0451662
0.0483116
0.0525762
0.05791
0.0639167
0.0703675
0.077017
0.0834764
0.0893594
0.0944328
0.0986649
0.102193
0.105221
0.107944
0.1105
0.112936
0.115211
0.117252
0.119024
0.120564
0.12193
0.123143
0.124144
0.124886
0.125351
0.125255
0.123767
0.120418
0.0224666
0.0231599
0.0238632
0.0247771
0.0272693
0.030514
0.0341823
0.0384278
0.0431982
0.0481481
0.0528548
0.0569741
0.0603105
0.0628499
0.0647433
0.0662632
0.0677055
0.0692423
0.0708505
0.0723762
0.073665
0.0746742
0.0754751
0.0761596
0.0767355
0.0771543
0.0774262
0.0774266
0.0760965
0.0724156
0.00682705
0.00580063
0.00176766
0.000885356
0.0033901
0.00519654
0.00657809
0.00829747
0.0105129
0.0130449
0.015637
0.0180407
0.020063
0.021611
0.0227003
0.0234519
0.0240378
0.0246043
0.0252194
0.0258602
0.0264506
0.0269328
0.0273027
0.0275936
0.0278129
0.0279157
0.0278977
0.0279141
0.0275347
0.0249035
0.736664
0.719897
0.700108
0.678882
0.656926
0.634166
0.610697
0.586554
0.561742
0.536285
0.510216
0.483537
0.456276
0.428442
0.400058
0.371145
0.341721
0.311838
0.281552
0.250974
0.220274
0.189729
0.159792
0.13104
0.104133
0.0796598
0.0580015
0.0391315
0.0224174
0.00718269
0.73346
0.715445
0.695266
0.673892
0.651954
0.629249
0.605846
0.581775
0.557041
0.531666
0.505683
0.479095
0.451929
0.424195
0.395915
0.367115
0.337811
0.308061
0.277923
0.247519
0.217027
0.18674
0.157134
0.128788
0.10235
0.078378
0.0572032
0.0387452
0.0223195
0.0072504
0.729722
0.710933
0.690501
0.669028
0.647106
0.624451
0.601107
0.5771
0.552441
0.527146
0.501247
0.474748
0.447678
0.420047
0.391873
0.363187
0.334004
0.304388
0.274401
0.244171
0.213887
0.183854
0.154558
0.126576
0.100549
0.0770197
0.0563019
0.0382703
0.0221604
0.00727972
0.725686
0.706407
0.685778
0.664234
0.642325
0.61972
0.596435
0.57249
0.547901
0.522683
0.496864
0.47045
0.443472
0.415942
0.387871
0.359296
0.330233
0.30075
0.27091
0.240851
0.210776
0.180999
0.152022
0.124421
0.0988248
0.0757497
0.055477
0.03784
0.0220139
0.00729317
0.721433
0.701876
0.681118
0.659533
0.637635
0.615074
0.591843
0.567959
0.543436
0.518286
0.492542
0.466212
0.439322
0.411887
0.383917
0.355451
0.326505
0.297151
0.267458
0.237569
0.207705
0.178189
0.149536
0.122322
0.0971671
0.0745556
0.0547257
0.0374607
0.0218878
0.00729635
0.717032
0.69735
0.676526
0.654922
0.633033
0.610514
0.587333
0.563506
0.539043
0.513957
0.488285
0.462034
0.435227
0.407883
0.380011
0.351651
0.322819
0.293592
0.264045
0.234327
0.204675
0.175426
0.147104
0.120287
0.0955772
0.0734309
0.0540366
0.0371222
0.0217782
0.00728957
0.712539
0.692835
0.672001
0.650401
0.62852
0.606042
0.582908
0.55913
0.534724
0.5097
0.484094
0.457917
0.431189
0.403932
0.376156
0.347898
0.319178
0.290075
0.260674
0.231128
0.201692
0.172714
0.144732
0.11832
0.09406
0.0723774
0.0534078
0.0368212
0.0216835
0.00727511
0.707998
0.68834
0.667542
0.645969
0.624098
0.601655
0.578565
0.554834
0.53048
0.505515
0.479972
0.453864
0.427211
0.400037
0.372352
0.344192
0.315582
0.286601
0.257345
0.227973
0.198756
0.170057
0.142424
0.116425
0.0926184
0.0713965
0.0528384
0.0365569
0.021603
0.0072622
0.703445
0.683879
0.663149
0.641626
0.619768
0.597355
0.574305
0.550617
0.526313
0.501404
0.475919
0.449876
0.423296
0.396201
0.368602
0.340536
0.312034
0.283173
0.254061
0.224863
0.195869
0.167457
0.140182
0.114603
0.0912518
0.0704867
0.0523256
0.0363271
0.0215344
0.00723934
0.698909
0.679464
0.658826
0.637367
0.61553
0.593142
0.570128
0.546483
0.522225
0.497366
0.471938
0.445956
0.419447
0.392426
0.364908
0.336932
0.308534
0.279793
0.250822
0.2218
0.193032
0.164913
0.138003
0.112851
0.0899572
0.0696442
0.0518648
0.0361283
0.0214756
0.00721354
0.694412
0.675106
0.654578
0.633193
0.611382
0.589017
0.566037
0.54243
0.518216
0.493404
0.468028
0.442107
0.415663
0.388713
0.361271
0.333383
0.305087
0.276462
0.24763
0.218785
0.190247
0.162425
0.135887
0.111166
0.0887328
0.0688649
0.0514518
0.0359568
0.0214248
0.00718699
0.689972
0.670814
0.650407
0.629104
0.607324
0.584982
0.562032
0.538459
0.514285
0.489517
0.464193
0.438329
0.411946
0.385062
0.357695
0.329891
0.301692
0.273182
0.244489
0.215821
0.187516
0.159997
0.133835
0.10955
0.0875777
0.0681459
0.051083
0.0358093
0.0213809
0.00716096
0.685604
0.666596
0.646316
0.6251
0.603356
0.581037
0.558114
0.53457
0.510433
0.485708
0.460431
0.434621
0.408296
0.381475
0.35418
0.326458
0.298353
0.269954
0.241401
0.212913
0.184845
0.157634
0.131853
0.108006
0.0864918
0.0674854
0.0507557
0.0356834
0.0213432
0.0071366
0.68132
0.662462
0.642312
0.621184
0.599482
0.577183
0.554284
0.530766
0.506662
0.481978
0.456745
0.430984
0.404714
0.377954
0.350729
0.323085
0.295072
0.266782
0.23837
0.210066
0.182238
0.15534
0.129944
0.106536
0.0854752
0.0668819
0.0504674
0.0355769
0.0213103
0.00711463
0.677131
0.658421
0.6384
0.61736
0.595702
0.573422
0.550545
0.52705
0.502975
0.478328
0.453134
0.427419
0.401201
0.374501
0.347342
0.319774
0.291849
0.263668
0.235398
0.207281
0.179698
0.153118
0.12811
0.105142
0.0845278
0.0663338
0.0502154
0.0354873
0.0212833
0.00709561
0.67305
0.654481
0.634586
0.613631
0.592018
0.569756
0.546899
0.523425
0.499376
0.474761
0.449602
0.423929
0.39776
0.371116
0.34402
0.316523
0.288685
0.260613
0.232487
0.204558
0.177225
0.150969
0.126353
0.103823
0.0836475
0.0658383
0.0499963
0.0354123
0.0212763
0.00707988
0.669083
0.650649
0.630875
0.609998
0.588432
0.566187
0.543347
0.519893
0.495865
0.471277
0.446151
0.420515
0.394392
0.3678
0.340764
0.313335
0.285582
0.257616
0.229634
0.201897
0.174819
0.148892
0.12467
0.102578
0.0828317
0.0653918
0.0498068
0.0353489
0.0212539
0.00706671
0.66524
0.646931
0.62727
0.606466
0.584945
0.562717
0.539892
0.516454
0.492443
0.46788
0.442782
0.41718
0.391099
0.364553
0.337574
0.31021
0.282539
0.25468
0.226841
0.199297
0.172478
0.146886
0.123061
0.101404
0.0820775
0.0649908
0.0496437
0.0352953
0.0212334
0.00705631
0.661529
0.643334
0.623777
0.603038
0.581561
0.559348
0.536536
0.513109
0.489114
0.46457
0.439498
0.413926
0.387882
0.361379
0.334451
0.30715
0.27956
0.251805
0.224109
0.19676
0.170204
0.144952
0.121526
0.1003
0.0813826
0.0646326
0.0495045
0.0352502
0.0212153
0.0070487
0.657958
0.639864
0.620401