/*--------------------------------*- C++ -*----------------------------------*\
  =========                 |
  \\      /  F ield         | OpenFOAM: The Open Source CFD Toolbox
   \\    /   O peration     | Website:  https://openfoam.org
    \\  /    A nd           | Version:  7
     \\/     M anipulation  |
\*---------------------------------------------------------------------------*/
FoamFile
{
    version     2.0;
    format      ascii;
    class       surfaceScalarField;
    location    "5";
    object      phi;
}
// * * * * * * * * * * * * * * * * * * * * * * * * * * * * * * * * * * * * * //

dimensions      [0 3 -1 0 0 0 0];

internalField   nonuniform List<scalar> 
35640
(
-1.88221e-05
0.000147365
-0.000128543
-6.34171e-05
0.000643869
-0.000599274
-0.000126667
0.00129473
-0.00123148
-0.00020211
0.00201259
-0.00193715
-0.000284209
0.00275201
-0.00266991
-0.000368206
0.00348912
-0.00340512
-0.000450087
0.00421106
-0.00412918
-0.000526538
0.00491027
-0.00483382
-0.000594845
0.00558181
-0.00551351
-0.000652809
0.00622152
-0.00616356
-0.000698695
0.00682536
-0.00677948
-0.00073117
0.00738922
-0.00735675
-0.000749182
0.00790909
-0.00789108
-0.000751946
0.00838136
-0.0083786
-0.000738902
0.00880302
-0.00881606
-0.00070967
0.0091718
-0.00920104
-0.000664016
0.0094864
-0.00953206
-0.000601842
0.00974638
-0.00980855
-0.000523155
0.00995221
-0.0100309
-0.000428046
0.0101052
-0.0102003
-0.000316671
0.0102073
-0.0103187
-0.000189243
0.0102612
-0.0103886
-4.60555e-05
0.0102697
-0.0104129
0.000112488
0.0102362
-0.0103948
0.000285841
0.0101642
-0.0103375
0.00047323
0.010057
-0.0102443
0.000673565
0.00991819
-0.0101185
0.000885343
0.00975128
-0.00996306
0.00110646
0.00956232
-0.00978345
0.00935905
0.00133424
-0.00958682
-2.01111e-05
0.000167476
-6.71448e-05
0.000690902
-0.000133496
0.00136108
-0.000212534
0.00209163
-0.000298656
0.00283813
-0.000387127
0.00357759
-0.000473897
0.00429783
-0.000555581
0.00499196
-0.000629388
0.00565562
-0.000693089
0.00628522
-0.000744915
0.00687719
-0.000783484
0.00742779
-0.000807729
0.00793334
-0.00081684
0.00839047
-0.000810207
0.00879638
-0.00078741
0.00914901
-0.000748169
0.00944716
-0.000692309
0.00969052
-0.000619725
0.00987963
-0.00053038
0.0100159
-0.000424291
0.0101012
-0.00030153
0.0101384
-0.000162244
0.0101305
-6.69683e-06
0.0100807
0.000164663
0.00999279
0.00035108
0.00987054
0.000551409
0.00971786
0.000764006
0.00953869
0.000986563
0.00933977
0.00912959
0.00121603
-2.10419e-05
0.000188518
-6.96624e-05
0.000739523
-0.000137958
0.00142938
-0.00021925
0.00217292
-0.000307941
0.00292682
-0.000399302
0.00366895
-0.000489256
0.00438778
-0.000574428
0.00507713
-0.000652005
0.0057332
-0.000719707
0.00635293
-0.000775729
0.00693321
-0.000818668
0.00747073
-0.000847434
0.0079621
-0.000861194
0.00840423
-0.000859336
0.00879453
-0.000841404
0.00913107
-0.000807041
0.0094128
-0.000755994
0.00963947
-0.000688068
0.0098117
-0.000603107
0.00993089
-0.000500966
0.00999911
-0.000381545
0.010019
-0.000244814
0.00999372
-9.08873e-05
0.00992677
7.98977e-05
0.00982201
0.000266858
0.00968358
0.000468837
0.00951588
0.000684066
0.00932346
0.000910004
0.00911383
0.00889637
0.00114322
-2.15436e-05
0.000210061
-7.10262e-05
0.000789006
-0.00014022
0.00149857
-0.000222416
0.00225512
-0.000312093
0.0030165
-0.000404622
0.00376148
-0.000495968
0.00447913
-0.000582748
0.00516391
-0.000662151
0.0058126
-0.000731887
0.00642266
-0.00079012
0.00699144
-0.000835426
0.00751604
-0.000866727
0.0079934
-0.000883181
0.00842069
-0.000884144
0.00879549
-0.00086913
0.00911606
-0.000837747
0.00938142
-0.000789666
0.00959139
-0.000724589
0.00974662
-0.000642218
0.00984852
-0.000542256
0.00989914
-0.00042443
0.00990118
-0.000288525
0.00985781
-0.000134469
0.00977272
3.75521e-05
0.00964999
0.000226973
0.00949416
0.000432655
0.0093102
0.00065275
0.00910336
0.000884502
0.00888208
0.00865681
0.00112406
-2.17225e-05
0.000231784
-7.12004e-05
0.000838484
-0.00014008
0.00156745
-0.000221741
0.00233678
-0.000310792
0.00310555
-0.00040269
0.00385338
-0.000493509
0.00456995
-0.000579901
0.0052503
-0.000659064
0.00589176
-0.0007287
0.0064923
-0.00078698
0.00704972
-0.000832478
0.00756154
-0.000864094
0.00802502
-0.000880988
0.00843758
-0.000882522
0.00879702
-0.00086818
0.00910172
-0.000837523
0.00935076
-0.000790154
0.00954402
-0.000725683
0.00968215
-0.000643688
0.00976652
-0.000543717
0.00979917
-0.000425316
0.00978278
-0.000288078
0.00972058
-0.000131733
0.00961637
4.3727e-05
0.00947452
0.000237888
0.0093
0.0004497
0.00909839
0.000677291
0.00887577
0.000917722
0.00864165
0.00840784
0.00116669
-2.14901e-05
0.000253274
-7.01479e-05
0.000887142
-0.000137566
0.00163487
-0.000217244
0.00241646
-0.000303988
0.00319229
-0.000393423
0.00394282
-0.000481734
0.00465826
-0.000565629
0.0053342
-0.00064235
0.00596848
-0.000709615
0.00655956
-0.000765591
0.0071057
-0.000808852
0.0076048
-0.000838304
0.00805447
-0.000853119
0.00845239
-0.000852644
0.00879655
-0.000836346
0.00908542
-0.000803757
0.00931817
-0.000754428
0.00949469
-0.000687877
0.0096156
-0.000603569
0.00968221
-0.000500918
0.00969652
-0.000379303
0.00966116
-0.000238129
0.0095794
-7.6917e-05
0.00945516
0.00010456
0.00929305
0.000306081
0.00909847
0.000526759
0.00887771
0.000764764
0.00863777
0.00101703
0.00838938
0.0081461
0.00127878
-2.09067e-05
0.000274181
-6.79143e-05
0.000934149
-0.000132676
0.00169963
-0.000208915
0.0024927
-0.000291671
0.00327505
-0.000376742
0.00402789
-0.000460474
0.00474199
-0.00053968
0.0054134
-0.00061164
0.00604045
-0.000674095
0.00662202
-0.000725232
0.00715684
-0.000763631
0.00764319
-0.000788204
0.00807905
-0.000798124
0.00846231
-0.000792739
0.00879116
-0.00077151
0.00906419
-0.000733944
0.0092806
-0.000679547
0.00944029
-0.000607771
0.00954382
-0.000517992
0.00959243
-0.000409512
0.00958804
-0.000281571
0.00953322
-0.000133404
0.00943124
3.56676e-05
0.00928609
0.000226096
0.00910262
0.0004379
0.00888667
0.000670414
0.00864519
0.000921949
0.00838623
0.0011894
0.00812193
0.00786798
0.00146752
-1.99785e-05
0.000294159
-6.45332e-05
0.000978704
-0.000125495
0.00176059
-0.000196851
0.00256406
-0.000273911
0.00335211
-0.000352704
0.00410668
-0.000429753
0.00481904
-0.000501985
0.00548564
-0.00056675
0.00610521
-0.000621831
0.0066771
-0.000665432
0.00720044
-0.000696141
0.0076739
-0.000712881
0.00809578
-0.000714829
0.00846426
-0.000701331
0.00877767
-0.000671847
0.00903471
-0.000625875
0.00923463
-0.000562888
0.00937731
-0.000482298
0.00946323
-0.000383421
0.00949356
-0.000265486
0.0094701
-0.00012763
0.00939536
3.10378e-05
0.00927257
0.000211369
0.00910576
0.000414026
0.00889996
0.000639296
0.0086614
0.000886792
0.0083977
0.00115507
0.00811796
0.00144109
0.00783591
0.00756984
0.00173922
-1.87356e-05
0.000312895
-6.00872e-05
0.00102006
-0.00011615
0.00181666
-0.000181226
0.00262913
-0.000250924
0.00342181
-0.000321524
0.00417728
-0.000389754
0.00488727
-0.00045268
0.00554856
-0.00050774
0.00616027
-0.000552769
0.00672213
-0.000585994
0.00723366
-0.000606016
0.00769393
-0.000611765
0.00810153
-0.00060242
0.00845492
-0.000577331
0.00875258
-0.00053596
0.00899334
-0.000477802
0.00917647
-0.00040232
0.00930182
-0.000308912
0.00936982
-0.000196876
0.00938152
-6.54084e-05
0.00933863
8.63959e-05
0.00924356
0.000259508
0.00909945
0.000454892
0.00891037
0.000673388
0.00868146
0.000915538
0.00841925
0.00118128
0.00813196
0.0014695
0.00782973
0.00177739
0.00752802
0.0072482
0.00209904
-1.72106e-05
0.000330106
-5.46782e-05
0.00105752
-0.000104832
0.00186681
-0.00016231
0.00268661
-0.000223039
0.00348254
-0.000283573
0.00423781
-0.00034086
0.00494456
-0.00039213
0.00559983
-0.000434929
0.00620307
-0.000467151
0.00675435
-0.000487055
0.00725357
-0.000493259
0.00770013
-0.000484697
0.00809297
-0.000460545
0.00843076
-0.000420161
0.00871219
-0.000363012
0.00893619
-0.000288601
0.00910206
-0.000196402
0.00920963
-8.58281e-05
0.00925925
4.37988e-05
0.00925189
0.000193263
0.00918917
0.000363452
0.00907337
0.00055534
0.00890757
0.000769928
0.00869578
0.00100817
0.00844322
0.00127083
0.0081566
0.00155816
0.00784462
0.00186946
0.00751844
0.00220228
0.00719519
0.00689983
0.00255065
-1.54427e-05
0.000345549
-4.84384e-05
0.00109052
-9.17827e-05
0.00191015
-0.000140457
0.00273529
-0.00019071
0.00353279
-0.000239382
0.00428649
-0.000283657
0.00498884
-0.000320948
0.00563712
-0.000348923
0.00623105
-0.000365553
0.00677098
-0.000369138
0.00725715
-0.000358311
0.0076893
-0.000332007
0.00806667
-0.000289403
0.00838816
-0.000229867
0.00865266
-0.000152873
0.00885919
-5.79399e-05
0.00900713
5.54224e-05
0.00909626
0.000187754
0.00912692
0.00033967
0.00909998
0.000511878
0.00901696
0.000705182
0.00888006
0.000920476
0.00869227
0.00115871
0.00845755
0.00142086
0.00818107
0.0017078
0.00786965
0.0020201
0.00753233
0.00235747
0.00718107
0.00271798
0.00683467
0.006522
0.00309581
-1.34815e-05
0.00035903
-4.15247e-05
0.00111856
-7.72941e-05
0.00194592
-0.000116102
0.00277409
-0.000154511
0.0035712
-0.000189648
0.00432163
-0.000218939
0.00501813
-0.000240001
0.00565819
-0.000250643
0.00624169
-0.000248921
0.00676926
-0.000233188
0.00724142
-0.000202098
0.00765821
-0.000154588
0.00801916
-8.98416e-05
0.00832341
-7.23071e-06
0.00857005
9.3753e-05
0.00875821
0.00021356
0.00888732
0.000352627
0.0089572
0.000511414
0.00896813
0.000690435
0.00892096
0.000890268
0.00881713
0.00111157
0.00865876
0.00135506
0.00844878
0.00162154
0.00819106
0.00191189
0.00789072
0.00222701
0.00755454
0.00256763
0.00719171
0.00293389
0.00681481
0.00332447
0.0064441
0.00611252
0.00373395
-1.13834e-05
0.000370414
-3.41173e-05
0.0011413
-6.17041e-05
0.00197351
-8.97598e-05
0.00280215
-0.00011513
0.00359657
-0.000135222
0.00434172
-0.00014771
0.00503062
-0.000150424
0.0056609
-0.00014133
0.0062326
-0.000118586
0.00674651
-8.06099e-05
0.00720344
-2.60844e-05
0.00760369
4.60408e-05
0.00794703
0.000136575
0.00823288
0.000246134
0.00846049
0.000375201
0.00862914
0.00052418
0.00873834
0.000693433
0.00878794
0.000883315
0.00877824
0.0010942
0.00871007
0.00132647
0.00858485
0.00158059
0.00840465
0.00185702
0.00817235
0.00215633
0.00789175
0.00247917
0.00756788
0.00282631
0.0072074
0.00319854
0.00681948
0.00359631
0.00641704
0.00401892
0.00602149
0.0056698
0.00446164
-9.21147e-06
0.000379626
-2.64136e-05
0.0011585
-4.53883e-05
0.00199249
-6.20061e-05
0.00281877
-7.33565e-05
0.00360792
-7.71036e-05
0.00434546
-7.11709e-05
0.00502469
-5.36048e-05
0.00564333
-2.25398e-05
0.00620153
2.37268e-05
0.00670025
8.67157e-05
0.00714045
0.000167697
0.0075227
0.000267696
0.00784703
0.000387504
0.00811307
0.000527712
0.00832028
0.000688768
0.00846809
0.000871008
0.0085561
0.0010747
0.00858425
0.00130006
0.00855289
0.00154728
0.00846285
0.00181653
0.00831559
0.002108
0.00811319
0.00242184
0.00785851
0.00275828
0.00755531
0.00311766
0.00720851
0.00350046
0.00682459
0.00390738
0.00641256
0.00433901
0.0059854
0.00479524
0.00556526
0.00519285
0.00527219
-7.03271e-06
0.000386659
-1.86231e-05
0.00117009
-2.87486e-05
0.00200261
-3.34675e-05
0.00282349
-3.00582e-05
0.00360451
-1.64128e-05
0.00433182
9.30238e-06
0.00499897
4.88257e-05
0.00560381
0.000103832
0.00614652
0.000175898
0.00662818
0.000266432
0.00704992
0.000376643
0.00741249
0.000507515
0.00771616
0.000659803
0.00796078
0.00083406
0.00814602
0.00103067
0.00827147
0.00124989
0.00833688
0.00149185
0.00834229
0.00175662
0.00828812
0.00204416
0.00817531
0.00235441
0.00800535
0.0026872
0.00778039
0.00304237
0.00750334
0.00341973
0.00717795
0.00381919
0.00680904
0.00424087
0.00640291
0.00468518
0.00596825
0.00515271
0.00551788
0.00564375
0.00507422
0.00468124
0.00615535
-4.91549e-06
0.000391575
-1.09598e-05
0.00117614
-1.21997e-05
0.00200385
-4.79787e-06
0.00281608
1.38396e-05
0.00358588
4.56289e-05
0.00430003
9.21898e-05
0.00495241
0.00015504
0.00554096
0.00023566
0.00606591
0.000335461
0.00652838
0.000455735
0.00692964
0.000597602
0.00727063
0.000761977
0.00755178
0.000949553
0.00777321
0.00116082
0.00793476
0.00139607
0.00803622
0.00165545
0.00807751
0.00193894
0.0080588
0.00224639
0.00798066
0.00257756
0.00784415
0.00293205
0.00765086
0.00330938
0.00740306
0.00370898
0.00710374
0.00413024
0.00675669
0.0045726
0.00636668
0.0050357
0.00593981
0.00551955
0.0054844
0.00602453
0.00501289
0.00655118
0.00454757
0.00413501
0.00709742
-2.92689e-06
0.000394502
-3.62701e-06
0.00117684
3.84721e-06
0.00199638
2.33432e-05
0.00279659
5.73907e-05
0.00355183
0.00010776
0.00424966
0.000175879
0.00488429
0.000263058
0.00545378
0.000370571
0.00595839
0.00049965
0.0063993
0.00065144
0.00677785
0.000826945
0.00709512
0.00102698
0.00735175
0.00125213
0.00754805
0.0015028
0.00768409
0.00177917
0.00775986
0.00208121
0.00777546
0.00240873
0.00773128
0.00276136
0.00762803
0.00313857
0.00746694
0.00353965
0.00724977
0.00396376
0.00697895
0.00440992
0.00665758
0.00487708
0.00628953
0.00536419
0.00587957
0.00587037
0.00543362
0.00639515
0.00495963
0.00693858
0.00446946
0.00750122
0.00398493
0.00355457
0.00808166
-1.13548e-06
0.000395638
3.15826e-06
0.00117254
1.90008e-05
0.00198053
5.03213e-05
0.00276527
9.96653e-05
0.00350248
0.000168711
0.00418062
0.000258727
0.00479428
0.000370824
0.00534169
0.000506071
0.00582315
0.0006655
0.00623987
0.000850085
0.00659327
0.00106068
0.00688453
0.00129795
0.00711449
0.00156236
0.00728364
0.00185416
0.00739228
0.00217338
0.00744064
0.00251982
0.00742903
0.00289304
0.00735805
0.00329243
0.00722864
0.00371714
0.00704222
0.00416614
0.00680077
0.00463822
0.00650688
0.00513198
0.00616382
0.00564594
0.00577557
0.00617858
0.00534692
0.00672852
0.00488368
0.00729475
0.00439339
0.00787693
0.00388728
0.00847543
0.00338643
0.00294069
0.00908931
4.18048e-07
0.00039522
9.24167e-06
0.00116372
3.2912e-05
0.00195686
7.5555e-05
0.00272262
0.000139796
0.00343824
0.000227274
0.00409314
0.000339133
0.00468242
0.000476304
0.00520452
0.000639646
0.0056598
0.000829981
0.00604954
0.00104808
0.00637517
0.00129461
0.006638
0.00157005
0.00683904
0.00187471
0.00697898
0.00220865
0.00705835
0.00257168
0.0070776
0.00296338
0.00703733
0.00338308
0.00693835
0.00382985
0.00678187
0.00430255
0.00656953
0.00479978
0.00630354
0.00531996
0.0059867
0.0058613
0.00562247
0.00642191
0.00521496
0.00699984
0.004769
0.00759322
0.0042903
0.00820055
0.00378606
0.00882102
0.00326682
0.00945472
0.00275272
0.00229448
0.0101009
1.6726e-06
0.000393547
1.44725e-05
0.00115092
4.52903e-05
0.00192605
9.85505e-05
0.00266936
0.000177025
0.00335977
0.000282369
0.0039878
0.000415636
0.00454915
0.000577595
0.00504256
0.000768901
0.0054685
0.000990156
0.00582828
0.0012419
0.00612342
0.00152459
0.00635532
0.00183848
0.00652515
0.00218365
0.00663381
0.00255994
0.00668205
0.00296694
0.00667061
0.00340395
0.00660032
0.00387002
0.00647229
0.00436392
0.00628797
0.00488417
0.00604929
0.00542902
0.00575869
0.00599652
0.0054192
0.00658452
0.00503447
0.00719074
0.00460874
0.00781282
0.00414691
0.00844848
0.00365464
0.00909574
0.00313879
0.00975332
0.00260924
0.010421
0.00208505
0.00161744
0.011098
2.6022e-06
0.000390945
1.87508e-05
0.00113477
5.59241e-05
0.00188887
0.000118933
0.00260636
0.000210757
0.00326795
0.000333113
0.00386544
0.000487002
0.00439526
0.000673052
0.00485651
0.00089172
0.00524983
0.00114338
0.00557662
0.00142834
0.00583846
0.00174677
0.00603689
0.00209871
0.00617321
0.00248398
0.00624854
0.00290214
0.00626389
0.00335251
0.00622024
0.00383411
0.00611871
0.00434569
0.00596071
0.0048857
0.00574796
0.00545231
0.00548268
0.00604344
0.00516755
0.00665679
0.00480585
0.00728986
0.0044014
0.00794
0.00395861
0.00860448
0.00348243
0.00928063
0.00297849
0.00996602
0.0024534
0.0106589
0.00191635
0.0113587
0.00138528
0.00091158
0.0120646
3.19077e-06
0.000387754
2.20267e-05
0.00111593
6.46981e-05
0.0018462
0.000136479
0.00253457
0.000240603
0.00316382
0.000378894
0.00372715
0.00055233
0.00422183
0.000761422
0.00464742
0.00100644
0.00500481
0.00128753
0.00529553
0.00160474
0.00552126
0.00195797
0.00568365
0.00234699
0.00578419
0.00277131
0.00582422
0.00323023
0.00580497
0.00372277
0.0057277
0.00424765
0.00559384
0.00480329
0.00540507
0.00538783
0.00516342
0.00599912
0.00487138
0.00663476
0.00453191
0.00729209
0.00414852
0.00796827
0.00372522
0.0086603
0.00326658
0.00936509
0.00277764
0.0100795
0.00226403
0.0108008
0.00173213
0.0115267
0.00119051
0.012256
0.000655895
0.000179548
0.0129881
3.44066e-06
0.000384314
2.43072e-05
0.00109507
7.1607e-05
0.0017989
0.000151136
0.00245505
0.000266424
0.00304853
0.000419432
0.00357414
0.000611142
0.00403012
0.000841969
0.00441659
0.00111201
0.00473477
0.0014212
0.00498634
0.0017693
0.00517315
0.00215596
0.00529699
0.00258063
0.00535952
0.00304254
0.00536231
0.00354068
0.00530683
0.00407376
0.00519462
0.00464021
0.0050274
0.00523813
0.00480714
0.00586536
0.00453619
0.00651944
0.0042173
0.00719764
0.00385372
0.00789697
0.00344919
0.00861424
0.00300796
0.00934606
0.00253475
0.0100889
0.00203476
0.0108393
0.00151362
0.0115939
0.000977574
0.0123498
0.00043459
0.0131056
-9.98611e-05
-0.000575114
0.0138602
3.37401e-06
0.000380939
2.56599e-05
0.00107278
7.67639e-05
0.0017478
0.000163048
0.00236876
0.000288362
0.00292322
0.00045483
0.00340768
0.000663459
0.00382149
0.00091459
0.00416546
0.00120817
0.00444119
0.00154391
0.0046506
0.00192133
0.00479572
0.0023398
0.00487852
0.00279846
0.00490086
0.00329626
0.00486451
0.00383187
0.00477121
0.00440372
0.00462277
0.00500992
0.0044212
0.0056483
0.00416876
0.00631638
0.0038681
0.0070114
0.00352228
0.00773031
0.00313481
0.00846977
0.00270973
0.00922621
0.00225152
0.0099958
0.00176516
0.0107746
0.001256
0.0115584
0.000729785
0.0123433
0.000192654
0.0131259
-0.00034795
0.0139039
-0.000877905
-0.00134774
0.0146765
3.03346e-06
0.000377906
2.62143e-05
0.0010496
8.04046e-05
0.00169361
0.000172558
0.00227661
0.00030686
0.00278892
0.000485608
0.00322893
0.000709853
0.00359724
0.000979882
0.00389543
0.00129551
0.00412556
0.00165625
0.00428986
0.00206141
0.00439057
0.00251004
0.00442988
0.00300104
0.00440986
0.00353305
0.00433251
0.00410446
0.0041998
0.0047134
0.00401383
0.00535769
0.0037769
0.00603489
0.00349157
0.00674221
0.00316079
0.00747657
0.00278792
0.00823457
0.00237681
0.00901249
0.0019318
0.00980631
0.00145771
0.0106117
0.000959786
0.011424
0.000443668
0.0122385
-8.47308e-05
0.0130505
-0.000619271
0.0138555
-0.00115297
0.0146507
-0.00167314
-0.00213224
0.0154352
2.48143e-06
0.000375424
2.61591e-05
0.00102592
8.28832e-05
0.00163688
0.000180208
0.00217928
0.000322655
0.00264647
0.000512701
0.00303888
0.000751457
0.00335849
0.00103917
0.00360772
0.00137556
0.00378918
0.00175996
0.00390546
0.00219144
0.00395908
0.00266884
0.00395248
0.00319077
0.00388793
0.0037556
0.00376768
0.00436144
0.00359396
0.00500613
0.00336914
0.00568722
0.00309582
0.00640193
0.00277686
0.00714718
0.00241554
0.00791953
0.00201557
0.00871519
0.00158116
0.00952997
0.00111701
0.0103593
0.000628348
0.0111983
0.000120799
0.0120416
-0.000399632
0.0128836
-0.000926742
0.0137186
-0.00145427
0.0145412
-0.00197557
0.0153475
-0.00247942
-0.00292086
0.0161361
1.79789e-06
0.000373626
2.57362e-05
0.00100199
8.46607e-05
0.00157796
0.000186719
0.00207722
0.000336759
0.00249643
0.000537438
0.0028382
0.000789934
0.00310599
0.00109448
0.00330316
0.00145071
0.00343295
0.00185781
0.00349836
0.00231466
0.00350224
0.00281987
0.00344728
0.00337178
0.00333602
0.00396852
0.00317094
0.0046079
0.00295458
0.00528747
0.00268958
0.00600444
0.00237884
0.00675572
0.00202558
0.00753782
0.00163343
0.0083469
0.00120649
0.00917868
0.000749373
0.0100285
0.000267227
0.0108911
-0.000234294
0.011761
-0.000749077
0.012632
-0.00127066
0.0134977
-0.00179242
0.0143512
-0.0023078
0.0151859
-0.00281026
0.0159963
-0.00328985
-0.00370395
0.0167794
1.07669e-06
0.00037255
2.523e-05
0.000977832
8.62852e-05
0.0015169
0.000192959
0.00197055
0.000350411
0.00233898
0.00056147
0.00262714
0.000827394
0.00284007
0.00114842
0.00298214
0.0015241
0.00305726
0.00195351
0.00306895
0.00243534
0.00302041
0.00296797
0.00291464
0.00354953
0.00275446
0.00417783
0.00254265
0.00485038
0.00228203
0.00556437
0.00197558
0.00631665
0.00162656
0.00710367
0.00123856
0.00792149
0.000815612
0.00876574
0.000362243
0.00963159
-0.000116477
0.0105138
-0.000614944
0.0114065
-0.00112703
0.0123036
-0.00164615
0.0131982
-0.0021653
0.0140831
-0.00267728
0.0149502
-0.00317492
0.0157913
-0.00365135
0.0165989
-0.00409751
-0.00447092
0.0173659
4.22626e-07
0.000372127
2.49543e-05
0.0009533
8.83644e-05
0.00145349
0.000199899
0.00185902
0.000365008
0.00217387
0.000586682
0.00240547
0.000866261
0.00256049
0.00120399
0.00264441
0.00159937
0.00266189
0.00205133
0.00261698
0.0025584
0.00251334
0.00311875
0.00235429
0.00373019
0.00214302
0.00439021
0.00188262
0.00509595
0.00157629
0.00584415
0.00122738
0.00663116
0.000839554
0.00745288
0.000416842
0.00830477
-3.62775e-05
0.00918183
-0.000514816
0.0100786
-0.00101326
0.0109892
-0.00152557
0.0119074
-0.00204524
0.0128266
-0.00256532
0.0137397
-0.00307842
0.0146392
-0.00357672
0.0155162
-0.00405192
0.01636
-0.00449517
0.0171576
-0.00489507
-0.00521203
0.0178987
-4.2761e-08
0.000372169
2.52369e-05
0.00092802
9.15351e-05
0.00138719
0.000208562
0.00174199
0.000382027
0.00200041
0.000615069
0.00217243
0.000909104
0.00226646
0.00126438
0.00228913
0.00168033
0.00224594
0.00215575
0.00214156
0.00268896
0.00198013
0.00327784
0.00176541
0.00391986
0.001501
0.00461209
0.0011904
0.00535114
0.000837232
0.0061332
0.000445323
0.00695395
1.88004e-05
0.00780861
-0.000437818
0.0086919
-0.00091957
0.0095981
-0.00142101
0.0105211
-0.00193624
0.0114544
-0.00245892
0.0123916
-0.00298237
0.0133258
-0.0034996
0.0142508
-0.00400335
0.01516
-0.00448599
0.0160472
-0.0049391
0.016904
-0.00535198
0.0177118
-0.00570286
0.0184025
-0.00590272
0.00241505
0.0475936
-0.0486744
0.00371062
0.0409523
-0.0422479
0.00489918
0.0361515
-0.0373401
0.00591184
0.0335424
-0.0345551
0.00668573
0.032785
-0.0335589
0.00721728
0.0332245
-0.033756
0.00753029
0.0342387
-0.0345517
0.00766371
0.0354254
-0.0355588
0.00766078
0.0365964
-0.0365934
0.0075597
0.037721
-0.0376199
0.00738965
0.038822
-0.038652
0.00717047
0.0399249
-0.0397057
0.00691451
0.0410292
-0.0407733
0.00663008
0.0421198
-0.0418354
0.00632318
0.0431756
-0.0428687
0.0059979
0.0441853
-0.04386
0.00565819
0.0451351
-0.0447954
0.00530723
0.0460217
-0.0456707
0.00494767
0.0468418
-0.0464823
0.00458135
0.0475964
-0.0472301
0.00421037
0.0482794
-0.0479084
0.00383583
0.0488975
-0.048523
0.00345884
0.0494453
-0.0490683
0.00308033
0.049924
-0.0495455
0.00270036
0.0503337
-0.0499537
0.00231947
0.0506725
-0.0502916
0.00193722
0.0509419
-0.0505596
0.00155505
0.0511623
-0.0507802
0.00117575
0.0513472
-0.0509679
0.0514915
-0.0511203
0.00234712
0.0464625
0.00371486
0.0395846
0.00496735
0.034899
0.00603025
0.0324795
0.00683944
0.0319758
0.00739363
0.0326703
0.00771957
0.0339127
0.00785887
0.0352861
0.00785687
0.0365984
0.00775362
0.0378243
0.00757922
0.0389964
0.00735469
0.0401494
0.00709247
0.0412915
0.0068014
0.0424109
0.0064869
0.0434902
0.00615364
0.0445185
0.00580541
0.0454834
0.00544514
0.046382
0.00507565
0.0472113
0.00469927
0.0479728
0.00431722
0.0486614
0.00393154
0.0492832
0.00354307
0.0498337
0.00315246
0.0503146
0.00276068
0.0507255
0.00236744
0.0510658
0.00197306
0.0513362
0.00157889
0.0515565
0.00118732
0.0517388
0.0518752
0.00231513
0.0452906
0.00374335
0.0381563
0.00505159
0.0335908
0.00615841
0.0313727
0.00699883
0.0311354
0.00757313
0.032096
0.00791055
0.0335753
0.008055
0.0351416
0.00805357
0.0365998
0.00794801
0.0379299
0.00776925
0.0391752
0.00753934
0.0403793
0.00727092
0.0415599
0.00697325
0.0427086
0.00665127
0.0438121
0.00631014
0.0448597
0.00595346
0.04584
0.00558404
0.0467514
0.00520472
0.0475906
0.0048183
0.0483592
0.00442529
0.0490545
0.00402849
0.04968
0.00362855
0.0502337
0.00322588
0.0507173
0.00282225
0.0511291
0.00241663
0.0514714
0.00201001
0.0517428
0.00160368
0.0519628
0.00119954
0.052143
0.052272
0.00232608
0.0440886
0.00380036
0.0366821
0.00515425
0.0322369
0.0062975
0.0302294
0.00716441
0.0302685
0.00775591
0.0315045
0.00810318
0.033228
0.00825195
0.0349928
0.00825072
0.036601
0.00814265
0.0380379
0.00795955
0.0393583
0.00772419
0.0406147
0.00744975
0.0418343
0.00714539
0.0430129
0.0068162
0.0441413
0.00646727
0.0452086
0.00610217
0.0462051
0.00572376
0.0471298
0.00533479
0.0479796
0.00493818
0.0487559
0.00453454
0.0494581
0.00412655
0.050088
0.00371513
0.0506451
0.0033006
0.0511318
0.00288485
0.0515449
0.00246697
0.0518893
0.00204798
0.0521618
0.00162925
0.0523816
0.00121242
0.0525598
0.052682
0.00238691
0.0428684
0.00389009
0.0351789
0.00527773
0.0308492
0.00644875
0.0290584
0.00733662
0.0293806
0.00794204
0.0308991
0.00829735
0.0328727
0.00844952
0.0348407
0.00844806
0.0366025
0.00833725
0.0381487
0.00814988
0.0395456
0.0079091
0.0408555
0.00762873
0.0421147
0.00731767
0.043324
0.00698147
0.0444775
0.00662486
0.0455652
0.00625139
0.0465786
0.00586413
0.047517
0.0054657
0.048378
0.00505884
0.0491627
0.00464477
0.0498722
0.00422561
0.0505071
0.00380263
0.0510681
0.00337641
0.0515581
0.00294838
0.0519729
0.00251836
0.0523193
0.00208687
0.0525933
0.00165554
0.0528129
0.00122588
0.0529895
0.0531056
0.00250416
0.041643
0.00401686
0.0336662
0.0054244
0.0294417
0.00661332
0.0278695
0.00751594
0.028478
0.00813159
0.0302834
0.00849292
0.0325114
0.00864749
0.0346861
0.00864537
0.0366046
0.00853166
0.0382625
0.00834
0.0397373
0.00809388
0.0411016
0.00780763
0.042401
0.00749002
0.0436416
0.00714689
0.0448207
0.00678273
0.0459294
0.00640103
0.0469603
0.006005
0.0479131
0.00559724
0.0487858
0.00518025
0.0495797
0.00475575
0.0502967
0.00432553
0.0509373
0.00389104
0.0515025
0.00345312
0.051996
0.00301284
0.0524132
0.00257061
0.0527615
0.00212659
0.0530374
0.00168251
0.053257
0.00123983
0.0534321
0.0535432
0.00268384
0.0404267
0.00418488
0.0321651
0.00559669
0.0280299
0.00679247
0.0266737
0.00770285
0.0275676
0.00832463
0.0296617
0.00868978
0.0321462
0.00884564
0.0345302
0.00884242
0.0366078
0.00872565
0.0383792
0.00852968
0.0399333
0.0082783
0.041353
0.00798625
0.042693
0.00766227
0.0439656
0.0073123
0.0451706
0.00694071
0.046301
0.00655096
0.0473501
0.00614624
0.0483178
0.00572923
0.0492028
0.00530229
0.0500066
0.00486737
0.0507316
0.00442618
0.0513785
0.00398023
0.0519485
0.0035306
0.0524456
0.00307812
0.0528657
0.00262364
0.053216
0.00216703
0.053494
0.00171009
0.0537139
0.00125423
0.053888
0.0539948
0.00293116
0.0392348
0.00439814
0.0306982
0.005797
0.026631
0.00698746
0.0254833
0.00789783
0.0266572
0.00852123
0.0290383
0.00888779
0.0317797
0.00904375
0.0343743
0.00903895
0.0366127
0.00891897
0.0384992
0.00871871
0.0401335
0.00846215
0.0416095
0.0081644
0.0429907
0.00783421
0.0442957
0.00747753
0.0455273
0.00709866
0.0466798
0.00670101
0.0477477
0.00628774
0.048731
0.00586157
0.049629
0.00542481
0.0504434
0.00497951
0.0511769
0.00452744
0.0518306
0.0040701
0.0524058
0.00360876
0.0529069
0.00314413
0.0533303
0.00267733
0.0536828
0.00220814
0.0539632
0.00173822
0.0541838
0.001269
0.0543572
0.0544607
0.0032503
0.0380835
0.00466028
0.0292882
0.00602764
0.0252637
0.00719955
0.0243114
0.00810142
0.0257554
0.00872148
0.0284182
0.00908681
0.0314144
0.0092416
0.0342195
0.00923471
0.0366195
0.00911139
0.0386225
0.00890684
0.0403381
0.00864522
0.0418712
0.00834191
0.0432941
0.00800567
0.044632
0.00764243
0.0458905
0.00725643
0.0470658
0.00685104
0.0481531
0.00642936
0.0491527
0.00599413
0.0500642
0.00554768
0.0508898
0.00509209
0.0516325
0.0046292
0.0522935
0.00416052
0.0528745
0.00368751
0.0533799
0.00321075
0.053807
0.0027316
0.0541619
0.00224981
0.054445
0.00176685
0.0546668
0.00128412
0.0548399
0.054941
0.0036441
0.0369901
0.00497433
0.027958
0.00629068
0.0239473
0.00742998
0.0231721
0.00831414
0.0248712
0.00892548
0.0278069
0.00928671
0.0310531
0.00943899
0.0340672
0.00942946
0.0366291
0.00930265
0.0387493
0.00909386
0.0405469
0.0088273
0.0421377
0.00851857
0.0436028
0.00817645
0.0449741
0.00780683
0.0462602
0.00741387
0.0474588
0.00700088
0.0485661
0.00657097
0.0495826
0.00612678
0.0505084
0.00567077
0.0513458
0.00520498
0.0520983
0.00473135
0.0527671
0.0042514
0.0533545
0.00376673
0.0538646
0.00327791
0.0542959
0.00278638
0.0546535
0.00229197
0.0549394
0.00179592
0.0551628
0.00129957
0.0553363
0.0554359
0.00411379
0.0359721
0.0053424
0.0267294
0.00658783
0.0227019
0.00767985
0.02208
0.00853651
0.0240146
0.00913336
0.02721
0.0094874
0.0306991
0.0096357
0.0339189
0.00962296
0.0366418
0.00949252
0.0388798
0.00927953
0.0407599
0.00900817
0.0424091
0.0086942
0.0439167
0.00834637
0.0453219
0.00797056
0.046636
0.00757082
0.0478585
0.0071504
0.0489865
0.00671242
0.0500206
0.00625943
0.0509614
0.00579396
0.0518113
0.00531809
0.0525742
0.00483379
0.0532514
0.00434264
0.0538456
0.00384634
0.0543609
0.00334552
0.0547967
0.00284159
0.0551574
0.00233455
0.0554464
0.00182539
0.055672
0.00131532
0.0558464
0.0559455
0.00465871
0.0350473
0.00576542
0.0256226
0.00692022
0.0215471
0.00795005
0.0210502
0.00876899
0.0231956
0.00934522
0.0266338
0.00968877
0.0303555
0.00983154
0.0337761
0.00981497
0.0366584
0.00968076
0.039014
0.00946361
0.040977
0.00918761
0.0426851
0.00886858
0.0442358
0.00851525
0.0456753
0.00813343
0.0470178
0.00772713
0.0482648
0.00729945
0.0494142
0.00685357
0.0504665
0.00639194
0.051423
0.00591714
0.0522861
0.00543131
0.05306
0.00493642
0.0537463
0.00443416
0.0543479
0.00392626
0.0548688
0.00341347
0.0553095
0.00289717
0.0556737
0.0023775
0.0559661
0.00185519
0.0561943
0.00133135
0.0563702
0.05647
0.00527607
0.0342329
0.00624286
0.0246558
0.0072882
0.0205017
0.00824108
0.0200973
0.00901194
0.0224247
0.00956116
0.0260846
0.00989073
0.0300259
0.0100263
0.0336406
0.0100052
0.0366795
0.00986713
0.0391521
0.00964588
0.0411982
0.00936539
0.0429656
0.00904149
0.0445597
0.00868288
0.0460339
0.00829527
0.0474054
0.00788263
0.0486775
0.00744791
0.0498489
0.00699429
0.0509201
0.0065242
0.0518931
0.0060402
0.0527701
0.00554454
0.0535557
0.00503915
0.0542517
0.00452586
0.0548612
0.00400641
0.0553883
0.0034817
0.0558342
0.00295305
0.0562023
0.00242077
0.0564984
0.0018853
0.0567298
0.00134764
0.0569079
0.0570093
0.0059608
0.0335443
0.00677251
0.0238441
0.00769122
0.019583
0.00855304
0.0192355
0.00926552
0.0217123
0.0097812
0.0255689
0.0100932
0.029714
0.0102198
0.0335139
0.0101936
0.0367057
0.0100514
0.0392943
0.00982609
0.0414235
0.00954129
0.0432504
0.00921273