/*--------------------------------*- C++ -*----------------------------------*\
  =========                 |
  \\      /  F ield         | OpenFOAM: The Open Source CFD Toolbox
   \\    /   O peration     | Website:  https://openfoam.org
    \\  /    A nd           | Version:  7
     \\/     M anipulation  |
\*---------------------------------------------------------------------------*/
FoamFile
{
    version     2.0;
    format      ascii;
    class       surfaceScalarField;
    location    "31.5";
    object      phi;
}
// * * * * * * * * * * * * * * * * * * * * * * * * * * * * * * * * * * * * * //

dimensions      [0 3 -1 0 0 0 0];

internalField   nonuniform List<scalar> 
3880
(
6.86872e-05
-0.00181697
0.00174829
0.00025962
-0.00188689
0.00169596
0.0005489
-9.02275e-05
-0.000199053
0.000890558
0.002717
-0.00305865
0.00123291
0.00601651
-0.00635886
0.00153779
0.00949513
-0.00980001
0.00178773
0.0129748
-0.0132248
0.0019806
0.0163476
-0.0165405
0.00211806
0.0195226
-0.01966
0.022403
0.00219363
-0.0224786
6.12195e-05
-0.00187819
0.000264503
-0.00209017
0.000609081
-0.000434806
0.00106087
0.00226521
0.00156894
0.00550844
0.0020878
0.00897626
0.00258935
0.0124733
0.00306017
0.0158768
0.00349096
0.0190918
0.0220272
0.0038668
5.21831e-05
-0.00193037
0.000264409
-0.0023024
0.000660334
-0.000830731
0.00122187
0.00170367
0.00190296
0.00482735
0.00265244
0.00822678
0.00343041
0.0116953
0.00421036
0.0150968
0.00497137
0.0183308
0.0213084
0.00569011
4.03722e-05
-0.00197075
0.000254705
-0.00251673
0.000690686
-0.00126671
0.00134954
0.00104481
0.00219571
0.00398118
0.0031769
0.0072456
0.00424284
0.0106294
0.005353
0.0139867
0.00647329
0.0172105
0.0202109
0.00757083
2.56143e-05
-0.00199636
0.000233462
-0.00272458
0.000692565
-0.00172581
0.00142483
0.000312543
0.00241103
0.00299499
0.0036051
0.00605152
0.00495174
0.00928272
0.0063981
0.0125403
0.00789573
0.0157129
0.0187066
0.00940004
9.4058e-06
-0.00200577
0.000202768
-0.00291794
0.000665806
-0.00218885
0.00143915
-0.0004608
0.00252385
0.00191029
0.00388874
0.00468663
0.00548301
0.00768846
0.00724837
0.0107749
0.00912425
0.013837
0.0167796
0.0110513
-5.84442e-06
-0.00199992
0.0001693
-0.00309308
0.000619827
-0.00263938
0.00139954
-0.00124052
0.00252976
0.000780079
0.00400092
0.00321546
0.00577845
0.00591092
0.00781161
0.00874178
0.0100381
0.0116105
0.0144332
0.0123845
-1.76999e-05
-0.00198222
0.000144044
-0.00325483
0.00057408
-0.00306942
0.00133164
-0.00199808
0.00245316
-0.000341434
0.00395191
0.00171672
0.00581865
0.00404418
0.00802627
0.00653416
0.0105322
0.0091046
0.011702
0.0132634
-1.85817e-05
-0.00196364
0.000141139
-0.00341455
0.000555406
-0.00348368
0.00127763
-0.00272031
0.00234917
-0.00141297
0.00379951
0.000266381
0.00564527
0.00219842
0.00789403
0.0042854
0.0105554
0.00644325
0.00864691
0.0136104
-2.89153e-06
-0.00196075
0.000173987
-0.00359143
0.000591957
-0.00390165
0.0012875
-0.00341586
0.00229443
-0.0024199
0.00364453
-0.00108372
0.0053662
0.00047674
0.00748906
0.00216254
0.0100855
0.00384681
0.0133998
0.00533265
0.00105672
0.0987745
-0.0976376
-0.00014523
0.125136
-0.123934
-0.000826949
0.144028
-0.143346
-0.00110556
0.156305
-0.156026
-0.000968462
0.164914
-0.165051
-0.000637172
0.174184
-0.174516
-0.000109721
0.190493
-0.191021
-7.26384e-05
0.221909
-0.221946
4.58878e-05
0.275474
-0.275593
0.335447
-0.335401
0.00319147
0.0994498
0.00228577
0.126041
0.00158827
0.144726
0.00117651
0.156717
0.00104902
0.165042
0.00110476
0.174129
0.00129707
0.190301
0.00119338
0.222013
0.000721513
0.275946
0.336169
0.00550181
0.0996381
0.0048091
0.126734
0.00409302
0.145442
0.0034891
0.157321
0.00306541
0.165466
0.00282239
0.174372
0.00273629
0.190387
0.00237878
0.22237
0.00144165
0.276883
0.337611
0.00789141
0.0993176
0.00739956
0.127226
0.00663994
0.146201
0.00581751
0.158143
0.00508065
0.166202
0.00451136
0.174941
0.0041537
0.190745
0.00353329
0.222991
0.00215593
0.27826
0.339766
0.0102934
0.0984242
0.0100073
0.127512
0.00919074
0.147018
0.00813656
0.159197
0.00707033
0.167269
0.0061682
0.175843
0.00552662
0.191387
0.00465793
0.22386
0.00285494
0.280063
0.342621
0.0126233
0.0968523
0.0125672
0.127568
0.0117021
0.147883
0.010417
0.160482
0.00901838
0.168667
0.00777712
0.177084
0.00684398
0.19232
0.00573574
0.224968
0.00351997
0.282279
0.346141
0.0148042
0.0944326
0.0150508
0.127321
0.0141616
0.148772
0.0126463
0.161998
0.0109135
0.1704
0.00932577
0.178672
0.0081009
0.193545
0.0067649
0.226304
0.00416689
0.284877
0.350308
0.0166991
0.0909969
0.0173338
0.126687
0.016482
0.149624
0.0147767
0.163703
0.0127316
0.172445
0.0107972
0.180606
0.00927209
0.19507
0.00770756
0.227868
0.00475334
0.287831
0.355062
0.018328
0.0862793
0.0195283
0.125486
0.0187463
0.150406
0.0168456
0.165604
0.0144883
0.174802
0.0122085
0.182886
0.0103953
0.196883
0.00861637
0.229647
0.00533802
0.29111
0.3604
0.0192445
0.0804345
0.0212061
0.123525
0.0207066
0.150905
0.0187437
0.167567
0.0161539
0.177392
0.0135114
0.185529
0.0114127
0.198982
0.00935771
0.231702
0.00586441
0.294603
0.366264
0.00393983
0.087177
-0.0106823
-0.00228398
0.129749
-0.00610794
0.154729
-0.00773242
0.169191
-0.00819948
0.177859
-0.00790107
0.18523
-0.00688914
0.19797
-0.00538519
0.230198
-0.00331769
0.292536
0.362946
0.00753969
0.0921304
-0.0124931
0.00307894
0.13421
-0.00115878
0.158967
-0.00404452
0.172077
-0.00570609
0.179521
-0.00650149
0.186026
-0.00654748
0.198016
-0.00585047
0.229501
-0.00387687
0.290562
0.359069
0.00956144
0.0961378
-0.0135689
0.00627227
0.137499
0.00237476
0.162865
-0.00106987
0.175521
-0.00357931
0.18203
-0.00522724
0.187674
-0.00588838
0.198677
-0.00537032
0.228983
-0.00348654
0.288678
0.355583
0.0111616
0.0980666
-0.0130904
0.00949762
0.139163
0.0059445
0.166418
0.00204231
0.179424
-0.00132136
0.185394
-0.00391908
0.190271
-0.00558309
0.200341
-0.00594736
0.229347
-0.00410488
0.286836
0.351478
0.0108796
0.0988329
-0.0116459
0.0105177
0.139525
0.00799993
0.168936
0.00452674
0.182897
0.00118656
0.188734
-0.00150001
0.192958
-0.00327968
0.20212
-0.00400326
0.230071
-0.00306813
0.285901
0.34841
0.0112079
0.0981642
-0.0105392
0.0114475
0.139285
0.0091698
0.171213
0.00548427
0.186582
0.00173301
0.192485
-0.0014852
0.196176
-0.00388205
0.204517
-0.00476592
0.230955
-0.00349115
0.284626
0.344919
0.0101263
0.0967825
-0.00874458
0.0114275
0.137984
0.0104244
0.172216
0.00766246
0.189344
0.00441021
0.195738
0.00149625
0.19909
-0.000947669
0.206961
-0.0027729
0.23278
-0.00265322
0.284506
0.342266
0.00903593
0.0956184
-0.00787183
0.00959447
0.137425
0.00866029
0.17315
0.00644787
0.191557
0.00365594
0.19853
0.0009651
0.201781
-0.00121381
0.20914
-0.00240964
0.233976
-0.00220227
0.284299
0.340063
0.00755405
0.0939501
-0.00588573
0.00890436
0.136075
0.0087167
0.173338
0.00709466
0.193179
0.00483178
0.200792
0.00249054
0.204122
0.000136335
0.211494
-0.0017159
0.235828
-0.00199438
0.284577
0.338069
0.00297833
-0.00287741
0.00388764
0.00465831
0.00450463
0.00381407
0.00280712
0.0014101
-0.00026429
-0.00102362
0.0154299
-0.0146858
-0.0114264
0.0182823
-0.0153454
0.0201941
-0.0154807
0.021242
-0.0141383
0.0216481
-0.0120519
0.0214557
-0.0103468
0.0210963
-0.00838521
0.0206003
-0.00737585
0.0202672
-0.00555257
-0.00309817
0.0146978
-0.0184895
-0.0108941
0.0175506
-0.0181982
0.0193678
-0.017298
0.0202711
-0.0150415
0.020485
-0.0122658
0.0201098
-0.00997162
0.0195583
-0.00783371
0.0188671
-0.00668465
0.0183941
-0.00507955
-0.00315328
0.0146343
-0.0221105
-0.0110133
0.0171294
-0.0206933
0.018582
-0.0187506
0.0191577
-0.0156172
0.0190903
-0.0121984
0.0185164
-0.00939775
0.0177954
-0.0071127
0.0169794
-0.00586869
0.0164134
-0.0045135
-0.00306551
0.0146191
-0.0252734
-0.0114562
0.0165453
-0.0226194
0.0174992
-0.0197046
0.017684
-0.015802
0.0173343
-0.0118487
0.0165973
-0.00866076
0.0157595
-0.0062749
0.0148857
-0.00499487
0.0142655
-0.00389326
-0.00285442
0.0141348
-0.0277114
-0.0116968
0.0153824
-0.023867
0.0158269
-0.0201491
0.0156656
-0.0156406
0.0151094
-0.0112926
0.0142873
-0.00783862
0.0134073
-0.00539488
0.0125392
-0.00412677
0.0118981
-0.00325222
-0.00254572
0.0128163
-0.0292916
-0.0112361
0.0134066
-0.0244574
0.0134322
-0.0201747
0.0130358
-0.0152443
0.012385
-0.0106417
0.0115698
-0.00702346
0.010726
-0.00455104
0.00991926
-0.00332002
0.0092913
-0.00262426
-0.00217409
0.0105461
-0.0300436
-0.00979413
0.0106077
-0.024519
0.0103569
-0.0199238
0.00985374
-0.0147411
0.00921635
-0.0100044
0.00848924
-0.00629634
0.00774812
-0.00380992
0.00704774
-0.00261965
0.00646968
-0.0020462
-0.0017811
0.00745222
-0.0301102
-0.00738563
0.00715676
-0.0242235
0.00677048
-0.0195375
0.0062677
-0.0142384
0.00572395
-0.0094606
0.00514265
-0.00571505
0.00455145
-0.00321872
0.00399215
-0.00206034
0.00350241
-0.00155647
-0.00140912
0.00381993
-0.0296736
-0.00425651
0.00332309
-0.0237267
0.00290431
-0.0191188
0.00247399
-0.013808
0.00206734
-0.00905395
0.00166505
-0.00531276
0.00125065
-0.00280432
0.000857349
-0.00166704
0.000483212
-0.00118233
-0.00110026
-2.84436e-05
-0.0288994
-0.000745719
-0.000602488
-0.0231526
-0.00100832
-0.0187129
-0.00131912
-0.0134972
-0.00158026
-0.00879282
-0.00179456
-0.00509845
-0.00202053
-0.00257835
-0.00223806
-0.00144952
-0.00246855
-0.000951838
-0.000874317
-0.00377673
-0.0279288
0.00280608
-0.00437933
-0.02255
-0.00472709
-0.0183652
-0.00494523
-0.0132791
-0.00505521
-0.00868283
-0.00509222
-0.00506144
-0.00513201
-0.00253857
-0.00517954
-0.00140199
-0.00527327
-0.000858107
-0.000747076
-0.00723907
-0.0268687
0.00617893
-0.00781904
-0.0219701
-0.00812612
-0.0180581
-0.00824038
-0.0131648
-0.0082226
-0.0087006
-0.0081015
-0.00518255
-0.00798085
-0.00265921
-0.00788308
-0.00149976
-0.00786204
-0.000879143
-0.000708029
-0.0102743
-0.0258015
0.00920711
-0.010808
-0.0214363
-0.0110876
-0.0177785
-0.01111
-0.0131425
-0.0109935
-0.00881702
-0.0107485
-0.00542763
-0.0105075
-0.00290018
-0.010306
-0.00170124
-0.0102055
-0.000979681
-0.000731802
-0.0128219
-0.0247823
0.0118028
-0.0132961
-0.0209622
-0.0135621
-0.0175125
-0.0135129
-0.0131917
-0.0133322
-0.00899768
-0.0130085
-0.00575136
-0.0126977
-0.00321101
-0.0124436
-0.00195535
-0.0123051
-0.00111816
-0.000787121
-0.01488
-0.023837
0.0139347
-0.0152872
-0.020555
-0.0155511
-0.0172485
-0.015459
-0.0132838
-0.0152499
-0.00920679
-0.0148995
-0.00610172
-0.0145718
-0.00353879
-0.0143171
-0.00221003
-0.014181
-0.0012542
-0.000841547
-0.0164867
-0.022958
0.0156078
-0.0168233
-0.0202185
-0.0170925
-0.0169793
-0.0169922
-0.0133841
-0.0167894
-0.00940957
-0.016465
-0.00642611
-0.0161689
-0.00383495
-0.0159603
-0.00241859
-0.0158621
-0.00135244
-0.000863609
-0.0176965
-0.0221054
0.0168438
-0.0179668
-0.0199481
-0.018242
-0.0167041
-0.0181722
-0.013454
-0.0180068
-0.00957495
-0.0177563
-0.00667665
-0.0175325
-0.00405867
-0.0174088
-0.00254236
-0.0173784
-0.0013828
-0.000823225
-0.0185422
-0.0212316
0.0176684
-0.0187746
-0.0197157
-0.0190533
-0.0164254
-0.0190564
-0.0134509
-0.0189564
-0.00967494
-0.0188202
-0.00681285
-0.0187018
-0.00417699
-0.018694
-0.00255021
-0.018758
-0.00131877
-0.000691321
-0.0190391
-0.0203094
0.0181169
-0.0193026
-0.0194522
-0.0195792
-0.0161488
-0.0196933
-0.0133368
-0.019683
-0.00968522
-0.0196926
-0.00680323
-0.0197067
-0.00416297
-0.0198412
-0.00241568
-0.0200253
-0.00113467
-0.000439056
-0.0192491
-0.0193486
0.0182883
-0.0196223
-0.019079
-0.0198496
-0.0159215
-0.0200871
-0.0130993
-0.020192
-0.00958031
-0.020377
-0.00661827
-0.0205574
-0.00398259
-0.0208637
-0.00210932
-0.0212038
-0.000794631
-3.98438e-05
-0.0806786
-0.0184334
0.0797634
-0.0839036
-0.015854
-0.086235
-0.0135901
-0.0885384
-0.0107959
-0.0899137
-0.00820504
-0.0909083
-0.0056237
-0.0913068
-0.00358407
-0.0915209
-0.00189523
-0.0915123
-0.000803228
-3.26085e-05
-0.100647
-0.0167914
0.0990045
-0.103023
-0.0134771
-0.104869
-0.0117445
-0.106761
-0.00890402
-0.108038
-0.00692841
-0.109002
-0.0046598
-0.109464
-0.00312146
-0.109675
-0.0016841
-0.109682
-0.00079653
-4.4911e-05
-0.120726
-0.014884
0.118818
-0.122708
-0.011495
-0.124453
-0.00999957
-0.126035
-0.00732213
-0.127138
-0.00582462
-0.127921
-0.0038772
-0.128289
-0.00275384
-0.128439
-0.0015341
-0.128424
-0.000811263
-6.63373e-05
-0.142371
-0.0131111
0.140598
-0.14412
-0.00974584
-0.145674
-0.00844551
-0.146961
-0.00603583
-0.147867
-0.00491806
-0.148492
-0.00325252
-0.148783
-0.00246299
-0.148902
-0.00141514
-0.148887
-0.000826529
-7.71382e-05
-0.167394
-0.0112401
0.165523
-0.168906
-0.00823444
-0.170271
-0.00707999
-0.17134
-0.00496677
-0.17213
-0.00412828
-0.172669
-0.00271377
-0.172947
-0.00218484
-0.173098
-0.00126455
-0.173116
-0.000808105
-6.45732e-05
-0.197674
-0.00932111
0.195755
-0.199117
-0.00679215
-0.200444
-0.00575314
-0.201443
-0.00396754
-0.202203
-0.0033678
-0.202738
-0.00217934
-0.203103
-0.00181965
-0.203374
-0.000993421
-0.203513
-0.00066868
-2.69044e-06
-0.23408
-0.007091
0.23185
-0.235953
-0.00491914
-0.237483
-0.0042236
-0.238494
-0.00295615
-0.239313
-0.0025492
-0.239937
-0.00155525
-0.240476
-0.0012799
-0.240947
-0.000522788
-0.241272
-0.000343801
8.06607e-05
-0.275752
-0.00488783
0.273548
-0.276888
-0.00378321
-0.278034
-0.0030774
-0.279034
-0.00195584
-0.279988
-0.00159552
-0.280704
-0.000839027
-0.281383
-0.000600786
-0.281898
-8.22436e-06
-0.282269
2.72809e-05
0.000169454
-0.307236
-0.00234588
0.304694
-0.309835
-0.00118409
-0.311925
-0.000987754
-0.313192
-0.000688935
-0.314184
-0.000603271
-0.314711
-0.000312449
-0.315163
-0.000148045
-0.315331
0.000159084
-0.315458
0.000154842
0.000123708
-0.329143
0.326797
-0.330327
-0.331315
-0.332004
-0.332607
-0.33292
-0.333068
-0.332908
-0.332754
-0.0214234
0.0818651
0.0193217
-0.0226015
0.100183
-0.023098
0.119315
-0.0229794
0.14048
-0.0223023
0.164846
-0.0208827
0.194336
-0.0185102
0.229477
-0.0127575
0.267796
-0.00793394
0.299871
0.318863
-0.0204255
0.0832281
0.0190625
-0.0213783
0.101135
-0.0216936
0.11963
-0.021415
0.140201
-0.0206016
0.164033
-0.0190985
0.192833
-0.0166074
0.226986
-0.0123152
0.263504
-0.00693856
0.294494
0.311925
-0.0195395
0.0843388
0.0184288
-0.0202742
0.10187
-0.0204265
0.119783
-0.0200581
0.139833
-0.0192076
0.163182
-0.0177332
0.191358
-0.0153058
0.224559
-0.0114212
0.259619
-0.00627505
0.289348
0.30565
-0.0184954
0.0853111
0.0175231
-0.0190343
0.102409
-0.0190173
0.119766
-0.0185476
0.139363
-0.0176585
0.162293
-0.0162138
0.189914
-0.0139004
0.222246
-0.0103754
0.256094
-0.00558063
0.284553
0.300069
-0.0172683
0.0861638
0.0164155
-0.0176475
0.102788
-0.0174919
0.11961
-0.0169366
0.138808
-0.016018
0.161375
-0.0146098
0.188505
-0.01244
0.220076
-0.00923977
0.252894
-0.00491554
0.280229
0.295153
-0.0158809
0.0868887
0.0151561
-0.0161055
0.103013
-0.0158347
0.119339
-0.015216
0.138189
-0.0142857
0.160444
-0.0129323
0.187152
-0.0109309
0.218075
-0.00805906
0.250022
-0.00427337
0.276443
0.29088
-0.0143709
0.0874776
0.0137819
-0.0144391
0.103081
-0.0140606
0.118961
-0.0133902
0.137519
-0.0124617
0.159516
-0.0111826
0.185873
-0.00937247
0.216264
-0.0068537
0.247503
-0.00362793
0.273218
0.287252
-0.0127712
0.0879218
0.012327
-0.0126879
0.102998
-0.012206
0.118479
-0.0114875
0.1368
-0.0105672
0.158595
-0.00937528
0.184681
-0.00777467
0.214664
-0.00563343
0.245362
-0.00297117
0.270555
0.284281
-0.0111134
0.0882093
0.0108259
-0.0108869
0.102771
-0.0103068
0.117899
-0.00954256
0.136036
-0.0086331
0.157686
-0.00753563
0.183584
-0.00615559
0.213284
-0.00440584
0.243612
-0.00230592
0.268455
0.281975
-0.00943043
0.0883252
0.00931449
-0.00906969
0.10241
-0.00839466
0.117224
-0.00758693
0.135228
-0.00668909
0.156788
-0.00569027
0.182585
-0.0045365
0.21213
-0.00318332
0.242259
-0.00164171
0.266914
0.280333
-0.00775851
0.0882479
0.00783584
-0.00727789
0.10193
-0.00650499
0.116451
-0.00565523
0.134378
-0.00476702
0.1559
-0.00386587
0.181684
-0.00293715
0.211201
-0.00197878
0.2413
-0.000985799
0.265921
0.279348
-0.00613938
0.0879732
0.00641407
-0.00554945
0.10134
-0.00468112
0.115582
-0.00378975
0.133487
-0.00290836
0.155019
-0.00209789
0.180873
-0.00138069
0.210484
-0.00080103
0.240721
-0.00034681
0.265467
0.279001
-0.00462952
0.0875175
0.00508521
-0.00392736
0.100638
-0.00297452
0.11463
-0.00204156
0.132554
-0.00116862
0.154146
-0.000447406
0.180152
5.86937e-05
0.209978
0.000318462
0.240461
0.000262508
0.265522
0.279263
-0.00326054
0.0869087
0.00386936
-0.00243789
0.0998151
-0.00142461
0.113616
-0.000462533
0.131592
0.000437222
0.153246
0.0011569
0.179432
0.00151263
0.209622
0.00140475
0.240569
0.000850632
0.266077
0.280114
-0.0020534
0.086187
0.00277509
-0.0011022
0.0988639
-9.99881e-05
0.112614
0.00106376
0.130428
0.00202118
0.152288
0.00267149
0.178782
0.00285784
0.209436
0.00243488
0.240992
0.00141303
0.267098
0.281527
-0.00102019
0.0854082
0.00179903
9.49835e-06
0.0978342
0.00127344
0.11135
0.00244727
0.129254
0.00341763
0.151318
0.00402982
0.17817
0.00407523
0.20939
0.0033704
0.241697
0.00192186
0.268547
0.283449
-0.000178929
0.0846706
0.000916496
0.00118548
0.0964698
0.00243744
0.110098
0.00366486
0.128027
0.00467249
0.15031
0.00527407
0.177568
0.00521265
0.209452
0.00425704
0.242652
0.0024112
0.270393
0.28586
0.000670627
0.0839439
5.60897e-05
0.00209749
0.0950429
0.00338139
0.108814
0.00465181
0.126757
0.00569111
0.149271
0.00628925
0.17697
0.00615032
0.209591
0.00499561
0.243807
0.00281403
0.272574
0.288674
0.00151
0.083133
-0.000699095
0.00297095
0.093582
0.00428511
0.1075
0.00559246
0.125449
0.00667192
0.148192
0.00728112
0.176361
0.00707708
0.209795
0.00573054
0.245154
0.00322425
0.275081
0.291898
0.00183365
0.0827124
-0.00141312
0.00333469
0.092081
0.00467925
0.106156
0.00599666
0.124132
0.00710389
0.147084
0.00774374
0.175721
0.00754511
0.209994
0.006128
0.246571
0.00343394
0.277775
0.295332
-0.070659
0.0747524
0.0786191
-0.0627995
0.0842215
-0.056781
0.100137
-0.0504085
0.117759
-0.0439349
0.140611
-0.0370945
0.168881
-0.0294484
0.202347
-0.0206028
0.237725
-0.0105461
0.267718
0.284786
-0.0838719
0.0674464
0.0911778
-0.0763061
0.0766556
-0.0692248
0.0930557
-0.0616224
0.110157
-0.054175
0.133163
-0.0461383
0.160844
-0.036963
0.193172
-0.0261853
0.226947
-0.0138247
0.255358
0.270961
-0.0980372
0.0597507
0.105733
-0.0900205
0.0686389
-0.0822893
0.0853246
-0.0740869
0.101954
-0.0656138
0.12469
-0.0559301
0.15116
-0.0447344
0.181976
-0.0314474
0.21366
-0.0160156
0.239926
0.254946
-0.114727
0.0523914
0.122087
-0.106814
0.0607257
-0.0990421
0.0775524
-0.0901538
0.0930662
-0.0803749
0.114911
-0.068872
0.139657
-0.0553446
0.168449
-0.0391775
0.197493
-0.0206962
0.221445
0.23425
-0.134841
0.0447332
0.142499
-0.127333
0.0532176
-0.118576
0.0687953
-0.108184
0.0826744
-0.0965576
0.103285
-0.0825829
0.125683
-0.0659779
0.151844
-0.0460935
0.177609
-0.0232733
0.198624
0.210976
-0.161083
0.037603
0.168213
-0.152929
0.0450632
-0.142975
0.0588422
-0.131419
0.0711178
-0.117879
0.0897454
-0.101107
0.108911
-0.0808793
0.131616
-0.0566706
0.1534
-0.0300125
0.171966
0.180964
-0.190576
0.0292451
0.198934
-0.181802
0.0362892
-0.170389
0.0474293
-0.156699
0.057428
-0.139887
0.0729325
-0.118808
0.0878324
-0.0931819
0.10599
-0.0632458
0.123464
-0.031136
0.139856
0.149828
-0.22847
0.0213463
0.236368
-0.218236
0.0260561
-0.204888
0.0340804
-0.188669
0.0412094
-0.168139
0.0524023
-0.142625
0.0623182
-0.112234
0.0755991
-0.0776952
0.0889253
-0.0413725
0.103534
0.108455
-0.260799
0.0103991
0.271746
-0.24754
0.012797
-0.230457
0.0169975
-0.210044
0.0207959
-0.184204
0.0265628
-0.15333
0.0314444
-0.116661
0.0389294
-0.0737548
0.0460194
-0.0268405
0.0566195
0.0816147
-0.33178
0.34218
-0.318983
-0.301986
-0.28119
-0.254627
-0.223183
-0.184254
-0.138234
-0.0816147
-0.000991148
0.0809541
-0.00134387
-0.00291429
0.093101
-0.00450929
0.107328
-0.0057584
0.123336
-0.00659548
0.143336
-0.00697952
0.168597
-0.00667467
0.198629
-0.00543675
0.23513
-0.00412505
0.270435
0.338055
-0.000333578
0.0834635
-0.00217584
-0.00243681
0.0952042
-0.00418805
0.109079
-0.00549872
0.124647
-0.00638569
0.144223
-0.00678608
0.168998
-0.00655707
0.1984
-0.00536029
0.233934
-0.00371392
0.268788
0.334341
0.000602153
0.0858473
-0.00298588
-0.00158867
0.097395
-0.00338407
0.110875
-0.00472141
0.125984
-0.00563838
0.14514
-0.00606325
0.169422
-0.00593698
0.198274
-0.00485546
0.232852
-0.00339105
0.267324
0.33095
0.00150367
0.0881402
-0.00379658
-0.000754693
0.0996534
-0.00248021
0.1126
-0.00379983
0.127303
-0.00470026
0.14604
-0.00516378
0.169886
-0.00511354
0.198224
-0.00422521
0.231964
-0.00298655
0.266085
0.327963
0.00239619
0.0903592
-0.0046152
3.11572e-05
0.102018
-0.00157746
0.114209
-0.00286052
0.128587
-0.00372649
0.146906
-0.00420645
0.170366
-0.00422507
0.198242
-0.00353212
0.231271
-0.00253894
0.265092
0.325424
0.00334295
0.0924465
-0.00543032
0.00114867
0.104213
-0.000595784
0.115953
-0.00184131
0.129832
-0.00267808
0.147743
-0.00317357
0.170861
-0.00327904
0.198348
-0.00278053
0.230772
-0.00205722
0.264369
0.323367
0.00432966
0.0943428
-0.00622595
0.00224863
0.106294
0.000529516
0.117672
-0.000722257
0.131084
-0.00152324
0.148544
-0.00204144
0.17138
-0.00225489
0.198561
-0.0019616
0.230479
-0.00153557
0.263943
0.321831
0.00533176
0.095994
-0.00698287
0.00339033
0.108235
0.00175343
0.119309
0.000518652
0.132319
-0.000273806
0.149337
-0.000820313
0.171926
-0.00112444
0.198865
-0.00107854
0.230433
-0.000970089
0.263834
0.320861
0.00632213
0.0973482
-0.00767642
0.00455247
0.110005
0.00299626
0.120865
0.00184393
0.133471
0.00106359
0.150117
0.000489737
0.1725
0.000113138
0.199242
-0.000159633
0.230706
-0.000358011
0.264033
0.320503
0.00727709
0.0983476
-0.00827645
0.00570778
0.111574
0.00425346
0.12232
0.00317082
0.134554
0.00242388
0.150864
0.00185668
0.173067
0.00132132
0.199777
0.000852445
0.231175
0.000263485
0.264622
0.320767
0.00818609
0.0989048
-0.00874324
0.00684545
0.112915
0.00551182
0.123653
0.0044974
0.135568
0.00379368
0.151568
0.00321793
0.173643
0.00257437
0.200421
0.00185574
0.231894
0.000870489
0.265607
0.321637
0.00901788
0.0989487
-0.00906185
0.00795669
0.113976
0.0067643
0.124846
0.00581921
0.136513
0.00515911
0.152228
0.0045829
0.174219
0.00383665
0.201167
0.00286374
0.232866
0.00149698
0.266974
0.323134
0.00972446
0.0984267
-0.00920244
0.00899308
0.114707
0.00797304
0.125866
0.00710475
0.137381
0.00649068
0.152842
0.00592644
0.174783
0.00508513
0.202008
0.00387185
0.23408
0.00212639
0.268719
0.325261
0.0102713
0.0973031
-0.00914774
0.00992175
0.115057
0.00910919
0.126678
0.00832349
0.138167
0.00775995
0.153405
0.0072173
0.175326
0.00629487
0.202931
0.00485993
0.235515
0.00274442
0.270835
0.328005
0.0106251
0.0955686
-0.00889053
0.0107176
0.114964
0.0101548
0.127241
0.00945716
0.138865
0.00895095
0.153912
0.0084383
0.175839
0.00745774
0.203911
0.00582149
0.237151
0.00335028
0.273306
0.331355
0.0107499
0.0932605
-0.00844181
0.011344
0.11437
0.0110647
0.12752
0.0104641
0.139465
0.01002
0.154356
0.00954567
0.176313
0.00853366
0.204923
0.00672388
0.238961
0.00392527
0.276104
0.33528
0.0106323
0.090465
-0.00783678
0.0118159
0.113187
0.0118536
0.127483
0.0113687
0.13995
0.0109855
0.154739
0.0105582
0.17674
0.00954348
0.205938
0.00758194
0.240922
0.00447814
0.279208
0.339759
0.0102244
0.087375
-0.00713445
0.0120234
0.111388
0.0123865
0.127119
0.0120562
0.140281
0.0117463
0.155049
0.0113746
0.177112
0.0103895
0.206923
0.00833175
0.24298
0.00497565
0.282564
0.344734
0.00972209
0.0840949
-0.00644197
0.0122367
0.108873
0.0129269
0.126429
0.0127414
0.140466
0.0124727
0.155317
0.0121483
0.177436
0.0111968
0.207875
0.00904477
0.245132
0.00544524
0.286164
0.35018
0.00864368
0.0812238
-0.00577259
0.0117206
0.105796
0.012833
0.125317
0.0129109
0.140388
0.0127453
0.155483
0.0124911
0.17769
0.0116624
0.208704
0.00951263
0.247282
0.00581085
0.289866
0.35599
-0.0529447
0.0712187
0.0629498
-0.0437721
0.0966237
-0.0371581
0.118703
-0.0306543
0.133885
-0.0250224
0.149851
-0.0195042
0.172172
-0.0139618
0.203161
-0.0088044
0.242124
-0.00453807
0.285599
0.351452
-0.0786618
0.0604275
0.089453
-0.066484
0.0844459
-0.0549303
0.107149
-0.0455876
0.124542
-0.0382999
0.142563
-0.0305761
0.164448
-0.0223824
0.194967
-0.0143581
0.2341
-0.00718771
0.278429
0.344265
-0.10634
0.0470962
0.119671
-0.0897604
0.0678663
-0.0744507
0.0918394
-0.0622851
0.112376
-0.0522211
0.132499
-0.0425303
0.154758
-0.0321433
0.18458
-0.0208194
0.222776
-0.00998224
0.267592
0.334282
-0.133292
0.0331724
0.147216
-0.11624
0.0508147
-0.0991157
0.0747149
-0.0830526
0.0963132
-0.0692701
0.118717
-0.0567163
0.142204
-0.0435097
0.171374
-0.028396
0.207662
-0.0134347
0.252631
0.320848
-0.158324
0.0219041
0.169592
-0.144363
0.0368542
-0.127416
0.0577678
-0.109174
0.0780709
-0.0919683
0.101511
-0.0749031
0.125139
-0.0574574
0.153928
-0.0377543
0.187959
-0.0174095
0.232286
0.303438
-0.18066
0.0153708
0.187193
-0.170499
0.026693
-0.155749
0.0430185
-0.138088
0.0604092
-0.118632
0.0820559
-0.0972783
0.103785
-0.0749654
0.131615
-0.0496459
0.16264
-0.0233424
0.205982
0.280096
-0.203084
0.0113731
0.207082
-0.196181
0.0197901
-0.18471
0.0315479
-0.169285
0.044984
-0.149429
0.0622002
-0.125885
0.0802399
-0.098411
0.104142
-0.0661214
0.13035
-0.0318376
0.171699
0.248258
-0.233664
0.00827923
0.236758
-0.227593
0.0137195
-0.217658
0.0216124
-0.203241
0.0305671
-0.183246
0.042205
-0.158119
0.0551127
-0.126207
0.0722304
-0.0885664
0.0927091
-0.0464492
0.129581
0.201809
-0.291816
0.00384325
0.296252
-0.284769
0.00667236
-0.273614
0.0104571
-0.258106
0.0150593
-0.23681
0.020909
-0.209703
0.0280055
-0.17473
0.0372577
-0.131637
0.049616
-0.0752694
0.0732139
0.12654
-0.36773
0.371574
-0.361058
-0.350601
-0.335542
-0.314633
-0.286627
-0.249369
-0.199753
-0.12654
-0.00252934
0.0680892
-0.00261009
-0.00771658
0.0946403
-0.0119265
0.123881
-0.014339
0.149628
-0.0146123
0.169865
-0.0133365
0.185917
-0.0111555
0.204901
-0.00896456
0.234567
-0.00562209
0.29291
0.365951
-0.00375371
0.0729827
-0.00113978
-0.00892482
0.0998114
-0.0129214
0.127878
-0.0148804
0.151587
-0.0147649
0.16975
-0.0132382
0.184391
-0.0110003
0.202663
-0.0088517
0.232418
-0.00558089
0.289639
0.360371
-0.00451569
0.0774248
7.36498e-05
-0.00927789
0.104574
-0.0127763
0.131376
-0.0143191
0.15313
-0.0139385
0.169369
-0.0123275
0.18278
-0.0102003
0.200536
-0.00815263
0.230371
-0.00518291
0.286669
0.355188
-0.00504721
0.0815456
0.00092639
-0.00922887
0.108755
-0.0121557
0.134303
-0.0132579
0.154232
-0.0127122
0.168824
-0.0111719
0.181239
-0.00920545
0.198569
-0.00734819
0.228513
-0.00469723
0.284018
0.35049
-0.0052977
0.0853015
0.00154179
-0.00896793
0.112425
-0.0113573
0.136692
-0.0120878
0.154962
-0.0113971
0.168133
-0.00992494
0.179767
-0.00812916
0.196773
-0.00647852
0.226863
-0.00415004
0.28169
0.34634
-0.00517415
0.0886514
0.00182424
-0.00836776
0.115619
-0.0103161
0.138641
-0.0107527
0.155399
-0.00998301
0.167363
-0.00859564
0.17838
-0.00698788
0.195166
-0.00554172
0.225416
-0.00355009
0.279698
0.34279
-0.00465089
0.0915692
0.00173307
-0.00736555
0.118334
-0.00894004
0.140215
-0.00918321
0.155642
-0.0084205
0.1666
-0.00716184
0.177121
-0.0057717
0.193775
-0.0045321
0.224177
-0.00290485
0.278071
0.339885
-0.00373441
0.0940451
0.00125855
-0.00598949
0.120589
-0.00725201
0.141478
-0.00738758
0.155778
-0.00670927
0.165922
-0.00562283
0.176035
-0.0044668
0.192619
-0.00345439
0.223164
-0.00222091
0.276837
0.337665
-0.00244446
0.0960758
0.000413724
-0.00428747
0.122432
-0.00530937
0.1425
-0.00541216
0.155881
-0.00488152
0.165391
-0.00400036
0.175154
-0.00308586
0.191705
-0.00232815
0.222407
-0.00150554
0.276015
0.336159
-0.000807702
-0.000754086
-0.00230959
-0.0031565
-0.00330215
-0.00296211
-0.00232418
-0.00164017
-0.00117972
-0.000757529
2.70852e-05
-0.00198783
0.000251089
-0.00381543
0.000704258
-0.00435482
0.00140349
-0.00411509
0.0023662
-0.00338261
0.00361166
-0.00232917
0.00515615
-0.00106776
0.00700261
0.000316084
0.00911729
0.00173213
0.00302353
7.29455e-05
-0.00206078
0.000369673
-0.00411216
0.000893817
-0.00487897
0.00164054
-0.00486181
0.00260906
-0.00435113
0.00380391
-0.00352402
0.00523105
-0.0024949
0.00689098
-0.00134385
0.00877742
-0.000154307
0.000906837
0.000132655
-0.00219343
0.000521569
-0.00450107
0.0011432
-0.00550059
0.00197416
-0.00569277
0.00299963
-0.00537659
0.00421401
-0.0047384
0.00561887
-0.00389976
0.00722049
-0.00294547
0.00902362
-0.00195743
-0.00108285
0.000198928
-0.00239236
0.000685848
-0.00498799
0.00141126
-0.00622601
0.00233719
-0.0066187
0.00344002
-0.00647943
0.00470888
-0.00600726
0.00614272
-0.0053336
0.00774739
-0.00455014
0.00952795
-0.00373799
-0.00301112
0.000262576
-0.00265494
0.000835364
-0.00556078
0.00164377
-0.00703441
0.00263822
-0.00761315
0.00379041
-0.00763161
0.00508787
-0.00730472
0.00652859
-0.00677432
0.00811601
-0.00613755
0.00984968
-0.00547166
-0.0048582
0.000313759
-0.0029687
0.00094178
-0.0061888
0.0017856
-0.00787823
0.00278627
-0.00861382
0.00391347
-0.00875881
0.00515575
-0.008547
0.00651192
-0.0081305
0.00798417
-0.0076098
0.00956843
-0.00705593
-0.00652585
0.000343412
-0.00331211
0.000980583
-0.00682597
0.0017923
-0.00868995
0.00271303
-0.00953455
0.00371299
-0.00975876
0.00478385
-0.00961786
0.00592743
-0.00927408
0.00714743
-0.0088298
0.0084415
-0.00835
-0.00787848
0.000344455
-0.00365656
0.000934995
-0.00741651
0.00163825
-0.0093932
0.00238677
-0.0102831
0.00315483
-0.0105268
0.00393988
-0.0104029
0.00474922
-0.0100834
0.00559115
-0.00967174
0.00646969
-0.00922854
-0.00879442
0.000312653
-0.00396922
0.000798262
-0.00790212
0.00131999
-0.00991493
0.00181544
-0.0107785
0.0022675
-0.0109789
0.00268241
-0.0108178
0.0030751
-0.0104761
0.00346041
-0.010057
0.00385005
-0.00961818
-0.00920089
0.000246986
-0.0042162
0.000574068
-0.0082292
0.000854898
-0.0101958
0.00104024
-0.0109639
0.00112626
-0.0110649
0.00113004
-0.0108216
0.00107512
-0.0104212
0.000982564
-0.00996448
0.000869058
-0.00950467
-0.00907755
0.000170074
-0.00438628
0.000302943
-0.00836207
0.000304305
-0.0101971
0.000148821
-0.0108084
-0.000149523
-0.0107666
-0.000560044
-0.0104111
-0.00105274
-0.00992849
-0.00160233
-0.00941489
-0.0021904
-0.00891661
-0.00846186
5.44361e-05
-0.00444071
-4.02997e-05
-0.00826733
-0.000338432
-0.00989899
-0.00083465
-0.0103122
-0.00149813
-0.0101031
-0.00229002
-0.00961918
-0.00317488
-0.00904364
-0.00412684
-0.00846293
-0.00512972
-0.00791373
-0.00741265
-7.89591e-05
-0.00436175
-0.000417781
-0.00792851
-0.00101195
-0.00930482
-0.00182874