/*--------------------------------*- C++ -*----------------------------------*\
  =========                 |
  \\      /  F ield         | OpenFOAM: The Open Source CFD Toolbox
   \\    /   O peration     | Website:  https://openfoam.org
    \\  /    A nd           | Version:  7
     \\/     M anipulation  |
\*---------------------------------------------------------------------------*/
FoamFile
{
    version     2.0;
    format      ascii;
    class       volVectorField;
    location    "16.9";
    object      U;
}
// * * * * * * * * * * * * * * * * * * * * * * * * * * * * * * * * * * * * * //

dimensions      [0 1 -1 0 0 0 0];

internalField   nonuniform List<vector> 
2000
(
(0.00401333 0.00579786 1.72588e-22)
(0.027057 0.05899 0)
(0.0709123 0.130486 0)
(0.118684 0.206824 -2.5894e-22)
(0.161759 0.277155 4.74821e-22)
(0.194459 0.334821 3.46213e-22)
(0.215023 0.377564 -8.75605e-22)
(0.224636 0.406209 0)
(0.225435 0.423293 0)
(0.221939 0.431631 0)
(0.00330594 -0.000472035 0)
(0.0195598 0.0402092 5.53845e-23)
(0.0532908 0.101608 -5.10609e-23)
(0.0926507 0.172451 4.40633e-22)
(0.131408 0.243187 0)
(0.164024 0.306297 1.54622e-21)
(0.187414 0.357423 -1.43777e-21)
(0.201153 0.395217 0)
(0.206004 0.420589 6.14478e-21)
(0.205721 0.435779 -1.26806e-20)
(0.00354974 -0.00548466 0)
(0.0151869 0.0239615 -1.04547e-22)
(0.040378 0.0748621 0)
(0.0712228 0.137935 1.94441e-21)
(0.103853 0.2056 0)
(0.133844 0.270829 -3.80866e-21)
(0.157814 0.328223 0)
(0.174257 0.374625 8.47511e-21)
(0.182677 0.409038 -7.93757e-21)
(0.185526 0.432751 -9.79919e-21)
(0.00442951 -0.00934978 1.8969e-22)
(0.0131809 0.0103755 1.20175e-22)
(0.0315733 0.0510908 -1.8055e-22)
(0.0546923 0.105127 -7.16936e-22)
(0.0804896 0.16686 -1.13377e-21)
(0.105954 0.230593 1.72073e-21)
(0.128201 0.291032 1.94169e-21)
(0.145348 0.344058 -1.56467e-21)
(0.156149 0.38702 6.38974e-21)
(0.161238 0.420014 9.79437e-21)
(0.00563732 -0.0121636 1.64953e-22)
(0.0127155 -0.000596964 -6.429e-22)
(0.0258881 0.0306707 -2.16728e-21)
(0.0425444 0.0752898 9.07431e-22)
(0.0618097 0.12922 0)
(0.0818721 0.188301 0)
(0.100675 0.248144 -4.36963e-21)
(0.116504 0.304626 -5.43242e-21)
(0.128096 0.354218 5.23147e-21)
(0.133656 0.395526 2.25093e-20)
(0.00686739 -0.0140039 2.15632e-22)
(0.0129648 -0.00912426 6.59944e-22)
(0.0221573 0.0135878 -3.19301e-21)
(0.033689 0.0489984 6.05167e-21)
(0.0473509 0.0942237 -1.17163e-21)
(0.0621305 0.146434 0)
(0.0767261 0.202424 0)
(0.0898296 0.258727 2.01896e-20)
(0.100793 0.311962 -2.39709e-20)
(0.104673 0.358773 6.82046e-21)
(0.0078194 -0.0149203 3.22827e-21)
(0.0131795 -0.0154203 0)
(0.0192628 -0.000394953 4.17175e-21)
(0.0268329 0.0262905 -4.78382e-21)
(0.0360232 0.0625939 0)
(0.0462755 0.106686 2.98965e-21)
(0.0568059 0.156434 -8.76195e-21)
(0.0667472 0.209262 -1.46068e-20)
(0.0763362 0.262823 6.96631e-21)
(0.0768453 0.3108 9.77919e-21)
(0.00821339 -0.0149437 -8.00961e-21)
(0.0127693 -0.0196964 -1.25742e-21)
(0.0163316 -0.0115566 -2.82653e-21)
(0.0208594 0.00697879 -6.85749e-21)
(0.0266301 0.0345149 -2.93425e-21)
(0.0333217 0.0699431 -3.26019e-21)
(0.0404662 0.111934 -2.32544e-22)
(0.047673 0.158787 0)
(0.0558679 0.209545 0)
(0.0528022 0.254717 -2.4374e-21)
(0.00782507 -0.0141245 4.78154e-21)
(0.011369 -0.0221302 -5.73615e-21)
(0.0128766 -0.0200727 3.84788e-21)
(0.0151081 -0.0090303 1.00818e-20)
(0.0183436 0.0101141 -2.85878e-21)
(0.0223728 0.0367531 2.6733e-21)
(0.0269432 0.0700904 3.1614e-21)
(0.0322372 0.109177 0)
(0.0396532 0.154108 0)
(0.0348456 0.19227 1.68525e-21)
(0.00653738 -0.0125611 -8.39647e-22)
(0.00889178 -0.0228624 7.33201e-21)
(0.0088551 -0.0259496 -1.47056e-21)
(0.00950189 -0.0215259 0)
(0.0109759 -0.0101004 0)
(0.0130713 0.00801959 6.59585e-21)
(0.0156622 0.0322978 0)
(0.0194364 0.0621327 -8.14548e-21)
(0.0265154 0.0972503 1.78288e-22)
(0.0266078 0.124557 7.05971e-21)
(0.197366 0.435232 8.7568e-22)
(0.153833 0.418715 -8.92764e-22)
(0.11582 0.403287 -1.19002e-21)
(0.085276 0.391674 -1.32641e-21)
(0.0528277 0.383325 -1.4799e-21)
(0.0230028 0.379451 -8.06734e-24)
(-0.0112921 0.384732 7.56736e-22)
(-0.0349898 0.413134 2.37102e-21)
(-0.0587111 0.487431 0)
(-0.0212087 0.634231 -1.66117e-21)
(0.189187 0.446228 2.09071e-21)
(0.148345 0.429886 -4.25088e-21)
(0.112103 0.413237 7.76139e-21)
(0.082955 0.40127 1.32878e-21)
(0.0515391 0.392872 2.76521e-21)
(0.0226415 0.389044 4.41976e-21)
(-0.0107426 0.393752 -1.54171e-21)
(-0.0342205 0.419386 -1.57703e-21)
(-0.0577537 0.486349 3.09548e-21)
(-0.0237503 0.621055 1.65727e-21)
(0.17915 0.45476 0)
(0.142429 0.440294 -3.54086e-21)
(0.108605 0.423037 -2.29378e-21)
(0.0809722 0.410674 0)
(0.0506109 0.402075 -8.35214e-21)
(0.0227384 0.398191 2.70039e-21)
(-0.00965277 0.402283 2.85765e-21)
(-0.0327896 0.425392 9.043e-21)
(-0.0560534 0.485304 -3.08544e-21)
(-0.0256893 0.607626 6.38306e-21)
(0.166775 0.459134 0)
(0.135709 0.448777 3.57209e-21)
(0.105106 0.432116 0)
(0.079174 0.419571 1.00991e-20)
(0.0499435 0.410772 -1.0149e-20)
(0.0231968 0.406843 -5.66378e-21)
(-0.00807057 0.410286 -1.55843e-22)
(-0.0307081 0.431125 -8.90149e-21)
(-0.0536096 0.484418 -1.45868e-21)
(-0.0268569 0.594381 -7.8766e-21)
(0.151641 0.457954 5.05056e-21)
(0.128119 0.455896 -6.02563e-21)
(0.101723 0.441246 1.38219e-21)
(0.0775623 0.428286 -8.79429e-21)
(0.0495009 0.41911 0)
(0.023942 0.415067 -5.50461e-21)
(-0.00613617 0.417821 -1.61387e-22)
(-0.0281401 0.436442 1.15361e-20)
(-0.0505599 0.483586 1.48607e-21)
(-0.0272107 0.581411 -1.49168e-21)
(0.133937 0.448467 -1.33786e-20)
(0.119102 0.458583 1.25683e-20)
(0.0978953 0.448539 8.43063e-21)
(0.0758586 0.435925 -8.42151e-21)
(0.0491682 0.426682 -4.84653e-21)
(0.0249141 0.422649 0)
(-0.00385603 0.424845 -1.0873e-20)
(-0.0250422 0.441449 5.41338e-21)
(-0.0468515 0.483064 5.6163e-21)
(-0.0266908 0.569391 5.81674e-21)
(0.114008 0.43175 -1.29001e-21)
(0.109528 0.460876 0)
(0.0942016 0.456603 0)
(0.0742028 0.443724 0)
(0.0489293 0.434171 -5.0147e-21)
(0.0259457 0.429888 9.84342e-21)
(-0.00159694 0.431338 1.06978e-20)
(-0.0219156 0.445924 -1.61531e-20)
(-0.0429669 0.482336 2.78479e-21)
(-0.0255529 0.557754 -8.51985e-21)
(0.0927447 0.401707 5.45406e-21)
(0.0977986 0.453934 1.2761e-20)
(0.0892314 0.459952 -1.2632e-20)
(0.0721711 0.449247 1.77003e-20)
(0.0487128 0.440294 -2.20621e-20)
(0.0272295 0.436192 0)
(0.00119854 0.437326 -5.01643e-21)
(-0.0180437 0.450406 1.52003e-22)
(-0.0383052 0.482294 -5.18857e-21)
(-0.0236375 0.548278 -5.3506e-21)
(0.0717726 0.372398 -4.00344e-21)
(0.087649 0.453252 0)
(0.0847537 0.466499 -1.66483e-20)
(0.0700733 0.456448 3.19428e-20)
(0.04831 0.447383 -1.23408e-20)
(0.027912 0.442589 -2.33841e-21)
(0.00290416 0.442665 5.0058e-21)
(-0.0154292 0.453822 3.3296e-23)
(-0.0345141 0.481108 7.57177e-21)
(-0.0216243 0.538142 7.8122e-21)
(0.0493781 0.313069 -7.00418e-21)
(0.0725103 0.430897 6.78119e-21)
(0.077823 0.462598 1.59073e-21)
(0.0676022 0.458795 0)
(0.0482654 0.451381 0)
(0.0299752 0.4475 2.25259e-21)
(0.00706945 0.44799 9.3364e-21)
(-0.0100863 0.458517 -9.16847e-21)
(-0.0286549 0.48271 -2.37333e-21)
(-0.0187212 0.532349 2.32505e-21)
(0.0134584 0.284452 0)
(0.0487879 0.431388 0)
(0.0602423 0.475117 0)
(0.0582415 0.478607 0)
(0.04358 0.470853 0)
(0.025233 0.461948 0)
(0.00263271 0.456945 0)
(-0.0117812 0.461442 0)
(-0.0247075 0.475649 0)
(-0.0142599 0.507115 0)
(-0.00320666 0.262 0)
(0.0293084 0.415529 0)
(0.0296688 0.460808 0)
(0.0299595 0.471416 0)
(0.0273102 0.475864 0)
(0.0260054 0.478674 0)
(0.0172016 0.480206 0)
(0.009431 0.486573 0)
(-0.0032515 0.496941 0)
(-0.00370294 0.514489 0)
(-0.013869 0.255334 0)
(0.022634 0.405501 0)
(0.0259292 0.468241 0)
(0.0275194 0.484427 0)
(0.0199469 0.482658 0)
(0.0146885 0.479187 0)
(0.007268 0.477004 0)
(0.00454526 0.47768 0)
(-0.00162261 0.481384 0)
(-0.000800005 0.489915 0)
(-0.0150162 0.266973 0)
(0.00225148 0.372383 0)
(0.0105285 0.442182 0)
(0.0211327 0.471276 0)
(0.0231873 0.481566 0)
(0.0252257 0.487266 0)
(0.0212354 0.493933 0)
(0.018109 0.501433 0)
(0.00917032 0.509433 0)
(0.00392856 0.518239 0)
(0.00784095 0.313388 0)
(0.000259684 0.378311 0)
(0.0123536 0.448665 0)
(0.0228422 0.477517 0)
(0.0196525 0.481609 0)
(0.0160885 0.479903 0)
(0.00926996 0.479918 0)
(0.00689428 0.483646 0)
(0.00100195 0.489894 0)
(0.00123502 0.497039 0)
(0.0452676 0.3548 0)
(0.00303222 0.367166 0)
(-0.00103956 0.415651 0)
(0.0169024 0.458174 0)
(0.0266543 0.482869 0)
(0.0318175 0.497279 0)
(0.0266586 0.506386 0)
(0.0216114 0.51463 0)
(0.010394 0.522122 0)
(0.00429257 0.528705 0)
(0.101239 0.421522 0)
(0.0582368 0.430648 0)
(0.0270463 0.445029 0)
(0.0187479 0.459131 0)
(0.0152329 0.469249 0)
(0.0166194 0.478199 0)
(0.0124548 0.48618 0)
(0.0106725 0.494745 0)
(0.0040204 0.500891 0)
(0.00209479 0.50423 0)
(0.135444 0.425202 0)
(0.0994591 0.43716 0)
(0.0660233 0.447973 0)
(0.0535858 0.465584 0)
(0.0483687 0.48503 0)
(0.0483821 0.503212 0)
(0.0420379 0.51751 0)
(0.0345751 0.529824 0)
(0.0211159 0.538341 0)
(0.00846341 0.54179 0)
(0.177468 0.462383 0)
(0.164203 0.506138 0)
(0.11947 0.500253 0)
(0.0785387 0.482171 0)
(0.0487415 0.473239 0)
(0.0356248 0.479829 0)
(0.0274128 0.494251 0)
(0.0236568 0.509455 0)
(0.015977 0.52091 0)
(0.00781994 0.526974 0)
(0.164808 0.377885 0)
(0.195516 0.48403 0)
(0.189449 0.529622 0)
(0.166315 0.537096 0)
(0.134305 0.530614 0)
(0.105946 0.52888 0)
(0.0792874 0.536097 0)
(0.057981 0.548424 0)
(0.0350922 0.560998 0)
(0.0135626 0.57106 0)
(-0.00211311 0.114464 6.79385e-21)
(0.000704819 0.147056 -6.67996e-21)
(0.0124815 0.200088 1.08873e-21)
(0.0303744 0.255948 0)
(0.0573654 0.320881 0)
(0.0884022 0.365477 7.77053e-22)
(0.121291 0.403512 -2.45077e-21)
(0.137695 0.384422 2.40046e-21)
(0.14829 0.3746 2.13768e-22)
(0.126035 0.271767 -2.07975e-22)
(0.0143819 0.0634257 -6.08259e-21)
(0.0200647 0.120614 0)
(0.0329426 0.195493 6.96317e-21)
(0.0505432 0.264204 -1.50981e-20)
(0.0740858 0.329375 8.71779e-21)
(0.0992992 0.366887 -7.64927e-22)
(0.122446 0.388617 1.21486e-21)
(0.131068 0.357401 1.81124e-21)
(0.132889 0.334132 3.94767e-23)
(0.110942 0.229804 -1.07556e-22)
(0.0309554 0.0434228 7.75448e-21)
(0.0426289 0.122909 -8.0579e-21)
(0.0559191 0.209727 7.9815e-21)
(0.0701556 0.281059 -6.55721e-21)
(0.0879452 0.337481 4.90073e-21)
(0.106069 0.361824 0)
(0.119758 0.366237 -1.21765e-21)
(0.121407 0.323954 -7.38483e-23)
(0.115979 0.290165 -6.88473e-22)
(0.0954395 0.187808 -8.97443e-23)
(0.0558849 0.0560054 -1.5574e-21)
(0.0707283 0.149205 0)
(0.0791913 0.235427 0)
(0.0875029 0.298554 0)
(0.0979231 0.339601 3.83183e-21)
(0.108145 0.348028 -2.55046e-21)
(0.112966 0.336152 5.41797e-23)
(0.10856 0.284974 -7.5646e-22)
(0.0979999 0.243846 -1.75424e-22)
(0.0800784 0.146393 1.18465e-22)
(0.0867249 0.0943764 2.06192e-21)
(0.0991201 0.187331 -5.0689e-21)
(0.0994162 0.261918 -2.92468e-21)
(0.100033 0.309207 2.92258e-21)
(0.102597 0.331969 -1.26329e-21)
(0.105168 0.324636 0)
(0.102439 0.298944 -1.0251e-21)
(0.0933359 0.24171 1.52376e-21)
(0.0798149 0.196587 -6.95571e-22)
(0.0653944 0.106553 5.6154e-23)
(0.120459 0.144088 -1.0538e-20)
(0.123408 0.223947 1.55677e-21)
(0.114004 0.279988 4.59007e-22)
(0.10665 0.308242 2.45478e-21)
(0.101938 0.313126 0)
(0.097773 0.292146 0)
(0.0890607 0.255911 0)
(0.0767457 0.195743 6.8063e-22)
(0.0622248 0.149857 0)
(0.0518643 0.0692905 0)
(0.152119 0.190866 0)
(0.141034 0.249561 3.52769e-21)
(0.122012 0.284407 -2.37753e-21)
(0.107545 0.294067 -1.71123e-21)
(0.0966612 0.283589 1.71994e-21)
(0.0869291 0.252048 7.78066e-22)
(0.0738367 0.208814 -7.94193e-22)
(0.0598044 0.148817 -2.29036e-21)
(0.0459349 0.105034 2.23239e-22)
(0.0397405 0.0355129 4.60516e-23)
(0.176673 0.225308 0)
(0.151055 0.259653 -1.15217e-21)
(0.123745 0.273886 -3.35982e-22)
(0.103592 0.267557 0)
(0.0877941 0.24516 3.67214e-22)
(0.0737325 0.2064 -9.59196e-22)
(0.0578212 0.159643 1.02713e-21)
(0.043479 0.102681 2.99418e-22)
(0.0314508 0.0633286 -2.22311e-22)
(0.0290532 0.00589182 2.20962e-23)
(0.191368 0.242642 7.37019e-22)
(0.153843 0.253485 6.23341e-22)
(0.12031 0.249833 -1.86745e-22)
(0.095982 0.231022 9.6289e-23)
(0.0764714 0.200267 2.87358e-22)
(0.0593011 0.157488 4.1937e-22)
(0.042038 0.110426 -1.30986e-22)
(0.0286386 0.0589646 -1.18154e-22)
(0.0190656 0.0257239 2.23038e-22)
(0.0203258 -0.0193194 7.83062e-24)
(0.196242 0.241951 -1.21842e-22)
(0.150653 0.232885 1.24265e-22)
(0.113139 0.215119 -1.06896e-22)
(0.0859546 0.187375 -9.61377e-23)
(0.0637992 0.151511 9.653e-23)
(0.0446996 0.107603 -2.17425e-22)
(0.0273939 0.0630595 1.88258e-22)
(0.015992 0.0190519 6.05232e-23)
(0.00920973 -0.00706638 0)
(0.0142506 -0.0403617 -7.84486e-24)
(0.193227 0.225508 6.71437e-23)
(0.143097 0.20118 -6.84329e-23)
(0.103627 0.173126 -9.9807e-24)
(0.0746379 0.139573 -1.93929e-23)
(0.0507871 0.101393 -6.85123e-23)
(0.0308887 0.0588698 -1.15493e-24)
(0.014597 0.0191624 4.24976e-23)
(0.00589222 -0.0161553 1.38929e-22)
(0.00217642 -0.0348936 0)
(0.00943043 -0.0580387 -1.4672e-23)
(0.184811 0.197295 0)
(0.132759 0.162065 1.69296e-23)
(0.092933 0.127092 -5.54566e-23)
(0.0629825 0.0903135 1.94208e-23)
(0.0383111 0.0521471 4.0931e-23)
(0.0186474 0.0131129 1.72902e-22)
(0.00414981 -0.0200256 -9.1174e-23)
(-0.00161139 -0.0461973 -8.96804e-23)
(-0.00233956 -0.0579797 1.37669e-22)
(0.00595086 -0.0730517 1.4634e-23)
(0.173096 0.161353 0)
(0.120975 0.118866 1.72514e-22)
(0.0819456 0.0798118 4.85901e-23)
(0.0517406 0.0418757 0)
(0.0270449 0.00563055 -1.46786e-22)
(0.00842734 -0.0282812 3.88775e-24)
(-0.00366482 -0.0538473 1.09177e-22)
(-0.00664421 -0.0711838 4.14115e-22)
(-0.00493333 -0.0770031 -1.3722e-22)
(0.00363059 -0.0861203 6.44673e-23)
(0.159538 0.121028 0)
(0.108842 0.0743106 -1.7393e-22)
(0.07135 0.0335473 0)
(0.0413953 -0.00392603 -1.71692e-22)
(0.0174324 -0.0367349 1.7259e-22)
(0.000444509 -0.0644539 -1.72502e-22)
(-0.00886295 -0.0821655 -7.58468e-23)
(-0.00950027 -0.0916431 -3.91073e-22)
(-0.00612829 -0.092884 -8.41042e-23)
(0.0021518 -0.0979273 -1.00286e-22)
(0.14506 0.0790013 5.96633e-25)
(0.0972605 0.0305228 1.41772e-22)
(0.0615272 -0.00993246 5.97579e-23)
(0.0323831 -0.0457871 4.82325e-22)
(0.00980679 -0.0740423 0)
(-0.00504062 -0.0950887 -1.35283e-22)
(-0.0117431 -0.105369 -7.03877e-23)
(-0.0106283 -0.108438 4.44489e-22)
(-0.006387 -0.106586 3.25019e-23)
(0.00123191 -0.109046 -3.24911e-23)
(0.130438 0.037572 8.94001e-22)
(0.0866781 -0.0109518 -6.08592e-22)
(0.0528607 -0.0494245 -5.24872e-22)
(0.025078 -0.0828891 5.24619e-22)
(0.00427166 -0.105909 9.31155e-23)
(-0.00821773 -0.120364 0)
(-0.0127467 -0.124183 -3.30777e-22)
(-0.0105529 -0.12258 1.7973e-22)
(-0.00610719 -0.118977 1.86182e-22)
(0.000661998 -0.119913 5.59884e-23)
(0.116556 -0.00123024 -1.97618e-22)
(0.0774349 -0.0490956 0)
(0.0457443 -0.0841614 0)
(0.0194997 -0.114812 0)
(0.000642585 -0.132366 -3.31857e-23)
(-0.00961715 -0.140882 -6.01956e-23)
(-0.0123874 -0.139627 3.09386e-22)
(-0.00975817 -0.135056 -5.10054e-22)
(-0.00557971 -0.130737 5.23927e-23)
(0.000304708 -0.130833 -1.07293e-22)
(0.103811 -0.0358443 -6.79486e-22)
(0.0697031 -0.0836434 -8.99052e-22)
(0.0403067 -0.113866 8.90825e-22)
(0.0156012 -0.141559 -6.49725e-22)
(-0.0014074 -0.153843 7.44142e-22)
(-0.0096441 -0.157521 0)
(-0.0111812 -0.152762 -1.19335e-22)
(-0.00862831 -0.146698 1.5133e-23)
(-0.0049839 -0.142342 -1.32107e-22)
(8.0712e-05 -0.141998 -4.76743e-23)
(0.0919737 -0.0647795 -3.16767e-22)
(0.0632173 -0.114842 0)
(0.0366143 -0.138647 1.00441e-21)
(0.0133439 -0.163445 -1.49303e-21)
(-0.00188961 -0.17102 4.97407e-22)
(-0.00873689 -0.171271 -1.30501e-23)
(-0.00957684 -0.164532 1.19064e-22)
(-0.00743801 -0.158113 1.52328e-23)
(-0.00441931 -0.154077 2.20732e-22)
(-4.90748e-05 -0.153513 8.88392e-23)
(0.0825331 -0.0863865 -1.07868e-21)
(0.0568912 -0.143298 1.04909e-21)
(0.0336588 -0.159065 -1.10809e-22)
(0.0117901 -0.181151 0)
(-0.0012815 -0.184672 0)
(-0.00738803 -0.182971 1.34042e-23)
(-0.00786823 -0.17566 2.45031e-22)
(-0.00630632 -0.169676 -2.40612e-22)
(-0.00388247 -0.166086 -3.94266e-23)
(-9.51192e-05 -0.165437 3.8596e-23)
(0.0802183 -0.117388 0)
(0.0426806 -0.202756 0)
(0.0246057 -0.198546 0)
(0.00542059 -0.215181 0)
(-0.000785279 -0.210906 0)
(-0.00445379 -0.207955 0)
(-0.0038448 -0.202078 0)
(-0.00358867 -0.198371 0)
(-0.00235114 -0.195687 0)
(-2.13686e-06 -0.194759 0)
(0.0319684 -0.241984 0)
(0.0183112 -0.281647 0)
(0.0254935 -0.258303 0)
(0.00485267 -0.272733 0)
(0.00567787 -0.257984 0)
(-0.00135007 -0.26156 0)
(8.7526e-05 -0.254752 0)
(-0.0010488 -0.254666 0)
(-0.000272862 -0.251352 0)
(2.16199e-05 -0.251056 0)
(0.0463166 -0.284406 0)
(0.0288141 -0.312915 0)
(0.0232695 -0.303521 0)
(0.00714664 -0.318955 0)
(0.00811847 -0.305907 0)
(0.000403726 -0.313116 0)
(0.00409114 -0.304403 0)
(0.000262542 -0.308159 0)
(0.00129532 -0.303655 0)
(-0.000114824 -0.304653 0)
(0.0287782 -0.342567 0)
(0.0170037 -0.37399 0)
(0.016598 -0.35817 0)
(0.00922399 -0.371872 0)
(0.00780109 -0.359776 0)
(0.00305113 -0.367528 0)
(0.00499574 -0.359919 0)
(0.00054357 -0.36505 0)
(0.00284368 -0.359104 0)
(-0.000560872 -0.361847 0)
(0.0262045 -0.403546 0)
(0.018486 -0.434634 0)
(0.0161005 -0.415687 0)
(0.00921114 -0.434773 0)
(0.00733417 -0.42105 0)
(0.00442171 -0.432172 0)
(0.00460412 -0.424436 0)
(0.00178785 -0.429355 0)
(0.00279824 -0.423784 0)
(-0.000836938 -0.427356 0)
(0.0209606 -0.476274 0)
(0.0144522 -0.507722 0)
(0.0128345 -0.48827 0)
(0.00785536 -0.508849 0)
(0.00707293 -0.494184 0)
(0.00408182 -0.508453 0)
(0.00428236 -0.497918 0)
(0.0022506 -0.505515 0)
(0.00238769 -0.497879 0)
(-0.000256524 -0.502222 0)
(0.0157557 -0.569118 0)
(0.0115625 -0.600621 0)
(0.00996481 -0.579677 0)
(0.00638596 -0.601652 0)
(0.00568175 -0.586682 0)
(0.00404421 -0.602072 0)
(0.00407786 -0.590158 0)
(0.00274953 -0.599872 0)
(0.00227188 -0.589506 0)
(-6.42833e-05 -0.59699 0)
(0.0121716 -0.691053 0)
(0.00896653 -0.719437 0)
(0.00752805 -0.700968 0)
(0.00491152 -0.721763 0)
(0.00452536 -0.707865 0)
(0.00321039 -0.72391 0)
(0.00316977 -0.712558 0)
(0.00145234 -0.722857 0)
(0.000954907 -0.713035 0)
(-0.000209577 -0.722295 0)
(0.00682302 -0.833348 0)
(0.00478486 -0.850522 0)
(0.0038955 -0.841302 0)
(0.00234722 -0.855663 0)
(0.00223832 -0.848112 0)
(0.00133462 -0.859072 0)
(0.000988059 -0.851446 0)
(-0.000310276 -0.858378 0)
(-0.000239387 -0.851435 0)
(-0.000421594 -0.858677 0)
(0.00135895 -0.933762 0)
(0.000968293 -0.942096 0)
(0.000914054 -0.940966 0)
(0.00058749 -0.947335 0)
(0.000480999 -0.945441 0)
(0.000197118 -0.949564 0)
(1.38152e-05 -0.945705 0)
(-0.000441016 -0.94799 0)
(-0.000354109 -0.944439 0)
(-0.00022755 -0.947561 0)
(0.068642 -0.149757 4.52422e-21)
(0.0342334 -0.260781 -4.49508e-21)
(0.0489654 -0.300418 6.84599e-22)
(0.029001 -0.359885 0)
(0.02881 -0.421447 0)
(0.0223098 -0.495063 8.73347e-22)
(0.0174343 -0.587632 -3.90596e-21)
(0.0128975 -0.705654 3.89703e-21)
(0.00781212 -0.840931 1.10986e-21)
(0.00228114 -0.932907 -1.10494e-21)
(0.0647235 -0.159665 -5.71182e-21)
(0.0353463 -0.267513 0)
(0.0495201 -0.305371 4.71785e-21)
(0.0292717 -0.364891 -1.10337e-20)
(0.0299058 -0.426593 7.27545e-21)
(0.0228932 -0.500741 -7.87482e-22)
(0.0182142 -0.593058 1.85471e-21)
(0.0132666 -0.710116 3.99523e-21)
(0.00825415 -0.842136 1.17731e-21)
(0.00268639 -0.93245 1.18357e-21)
(0.061761 -0.170336 7.507e-21)
(0.036616 -0.276144 -5.46998e-21)
(0.0500612 -0.310731 5.41873e-21)
(0.0299731 -0.36939 -6.19497e-21)
(0.0311589 -0.431104 4.56732e-21)
(0.0235952 -0.505377 0)
(0.0190934 -0.597299 -1.85934e-21)
(0.0138227 -0.713584 1.49903e-22)
(0.00864644 -0.842183 -2.1184e-21)
(0.0029077 -0.931471 -2.24865e-21)
(0.0593141 -0.180695 -1.25069e-21)
(0.0380062 -0.284798 0)
(0.0508192 -0.316042 0)
(0.0311755 -0.373719 0)
(0.0326277 -0.435648 5.42714e-21)
(0.0244997 -0.509677 -3.6193e-21)
(0.0201244 -0.601162 -2.93866e-23)
(0.0145718 -0.716569 -2.36073e-21)
(0.00906776 -0.842268 -1.23698e-21)
(0.0030251 -0.930007 -1.36011e-21)
(0.0574231 -0.189884 -2.36507e-22)
(0.0395101 -0.291985 -4.11345e-21)
(0.0517802 -0.320401 -3.09326e-21)
(0.0328217 -0.377345 3.09133e-21)
(0.0342899 -0.439771 -1.78377e-21)
(0.0256267 -0.513517 0)
(0.0213272 -0.604607 -2.15721e-21)
(0.0154715 -0.719148 4.8737e-21)
(0.0095882 -0.842522 -2.5211e-21)
(0.00315094 -0.928344 2.62812e-21)
(0.0562086 -0.197793 -1.1866e-20)
(0.0412139 -0.297672 1.32738e-21)
(0.0529452 -0.323558 -2.17018e-22)
(0.034864 -0.37987 3.25386e-21)
(0.0361117 -0.44296 0)
(0.026965 -0.516512 0)
(0.0226934 -0.607295 0)
(0.0164831 -0.721102 2.65102e-21)
(0.010229 -0.842606 0)
(0.00334267 -0.926592 0)
(0.0557179 -0.204255 0)
(0.0432194 -0.302247 4.6924e-21)
(0.0543989 -0.325714 -3.15717e-21)
(0.0373097 -0.381259 -3.82801e-21)
(0.0381034 -0.445022 3.84796e-21)
(0.0285173 -0.518425 2.36847e-21)
(0.0242137 -0.608988 -2.35008e-21)
(0.0175856 -0.722241 -9.52598e-21)
(0.010968 -0.842249 6.72071e-22)
(0.00359444 -0.924747 -2.43581e-21)
(0.0559731 -0.208923 0)
(0.0455945 -0.305874 -1.53904e-21)
(0.0562477 -0.327024 -8.76159e-22)
(0.0401881 -0.381596 0)
(0.0403146 -0.445944 1.15036e-21)
(0.0303113 -0.519195 -3.5021e-21)
(0.0258979 -0.609582 3.97293e-21)
(0.01879 -0.722426 1.42794e-21)
(0.0117954 -0.841241 -1.61596e-21)
(0.00389769 -0.92265 3.21796e-21)
(0.0570409 -0.211426 1.61952e-21)
(0.0483949 -0.308536 1.69205e-21)
(0.0585822 -0.32745 -3.7335e-22)
(0.0435158 -0.38092 5.15732e-22)
(0.042805 -0.445723 1.10763e-21)
(0.0323789 -0.518848 1.87596e-21)
(0.0277635 -0.609104 -7.27744e-22)
(0.0201119 -0.721702 -7.9382e-22)
(0.0126969 -0.839631 1.62131e-21)
(0.00422741 -0.920292 9.03984e-22)
(0.0590557 -0.211373 -3.98703e-22)
(0.0516954 -0.3102 4.01883e-22)
(0.0614867 -0.32685 -4.59071e-22)
(0.0472891 -0.379231 -5.15106e-22)
(0.0456317 -0.444276 6.32371e-22)
(0.0347499 -0.517377 -1.2881e-21)
(0.0298344 -0.607514 1.11806e-21)
(0.0215853 -0.720002 4.01262e-22)
(0.0137027 -0.837323 0)
(0.0046051 -0.917546 -9.05958e-22)
(0.0622233 -0.20838 4.05973e-22)
(0.0555874 -0.310885 -4.09368e-22)
(0.0650614 -0.325087 -5.11053e-22)
(0.0514926 -0.376566 -5.70519e-22)
(0.0488461 -0.441542 -6.68864e-22)
(0.0374324 -0.514805 -5.30774e-23)
(0.0321212 -0.604867 4.03914e-22)
(0.0232121 -0.717483 1.3068e-21)
(0.0147981 -0.834528 0)
(0.00500094 -0.914569 -1.01436e-21)
(0.0668978 -0.202133 0)
(0.0601625 -0.310502 -1.89057e-21)
(0.0694218 -0.322147 3.49959e-21)
(0.0561017 -0.372947 5.71526e-22)
(0.0525127 -0.437435 1.38247e-21)
(0.0404499 -0.511045 2.26672e-21)
(0.0346469 -0.601071 -8.166e-22)
(0.0250291 -0.713911 -8.89423e-22)
(0.0160408 -0.830986 2.03545e-21)
(0.00546985 -0.911172 1.01194e-21)
(0.0736986 -0.192453 0)
(0.0655044 -0.308703 -1.70968e-21)
(0.0746784 -0.318205 -1.08623e-21)
(0.0611179 -0.368347 0)
(0.0566658 -0.432128 -4.37797e-21)
(0.0437786 -0.506115 1.47431e-21)
(0.0374111 -0.596343 1.79929e-21)
(0.0270094 -0.709585 5.82708e-21)
(0.017362 -0.827101 -2.02887e-21)
(0.00593434 -0.907653 4.50394e-21)
(0.0835787 -0.179328 0)
(0.071688 -0.304861 1.72444e-21)
(0.0808929 -0.313654 0)
(0.0665556 -0.36259 5.57291e-21)
(0.061385 -0.425568 -5.60151e-21)
(0.0474897 -0.499793 -3.53065e-21)
(0.0404541 -0.590337 -9.18636e-23)
(0.0292422 -0.703963 -6.03084e-21)
(0.0188668 -0.822269 -9.99444e-22)
(0.00651106 -0.903592 -5.59977e-21)
(0.0976497 -0.162928 1.38902e-20)
(0.0787425 -0.298222 -4.55388e-21)
(0.0880624 -0.308712 9.58981e-22)
(0.0725523 -0.355667 -5.21044e-21)
(0.0666203 -0.417831 0)
(0.0515469 -0.492533 -3.72584e-21)
(0.0437068 -0.583631 -3.65741e-22)
(0.0316162 -0.697975 8.27724e-21)
(0.0203914 -0.817395 1.17515e-21)
(0.00702671 -0.899562 -1.17932e-21)
(0.116469 -0.143601 -6.91828e-23)
(0.0866954 -0.28815 8.99797e-21)
(0.096094 -0.302893 5.47456e-21)
(0.0792913 -0.347584 -5.47067e-21)
(0.0723932 -0.408787 -3.41747e-21)
(0.0560721 -0.483844 0)
(0.0473387 -0.575278 -8.55312e-21)
(0.0343474 -0.690229 4.26406e-21)
(0.0222046 -0.81113 4.65614e-21)
(0.00773685 -0.894717 5.16347e-21)
(0.139012 -0.121911 -1.85083e-21)
(0.0955597 -0.274231 0)
(0.104707 -0.296349 0)
(0.0866974 -0.339018 0)
(0.0785818 -0.399225 -3.99818e-21)
(0.0608703 -0.474865 7.40283e-21)
(0.0510972 -0.567088 8.76325e-21)
(0.0371007 -0.683073 -1.39261e-20)
(0.0239094 -0.805515 2.57381e-21)
(0.00827252 -0.890222 -7.66351e-21)
(0.162164 -0.0988754 -4.23961e-21)
(0.105395 -0.25561 9.71556e-21)
(0.113935 -0.287952 -9.62261e-21)
(0.095098 -0.328992 1.38384e-20)
(0.08549 -0.387878 -1.74733e-20)
(0.0664432 -0.463406 0)
(0.0554862 -0.555993 -4.64335e-21)
(0.0404805 -0.672783 -2.44938e-22)
(0.0261492 -0.797508 -5.39839e-21)
(0.00917157 -0.884394 -5.59219e-21)
(0.181577 -0.0755367 -1.96036e-21)
(0.116513 -0.234429 0)
(0.122801 -0.281149 -1.42153e-20)
(0.103783 -0.320443 2.71266e-20)
(0.0923893 -0.378247 -1.05784e-20)
(0.0717959 -0.454289 -2.18325e-21)
(0.0596158 -0.547892 4.63354e-21)
(0.0434926 -0.665672 -3.30447e-22)
(0.0279585 -0.791758 7.80802e-21)
(0.0096652 -0.879598 8.26854e-21)
(0.193259 -0.0498858 -8.82068e-21)
(0.133882 -0.202633 8.39919e-21)
(0.13464 -0.266713 1.48024e-21)
(0.114727 -0.306879 0)
(0.101194 -0.362904 0)
(0.079093 -0.438292 2.10693e-21)
(0.0651708 -0.532568 9.83716e-21)
(0.0478937 -0.651709 -9.52888e-21)
(0.0308755 -0.781417 -2.6925e-21)
(0.0108684 -0.872446 2.62565e-21)
(0.197781 -0.0106092 0)
(0.184338 -0.181158 0)
(0.152455 -0.266992 0)
(0.140169 -0.300504 0)
(0.117056 -0.3545 0)
(0.0912335 -0.42927 0)
(0.0750177 -0.523363 0)
(0.0549399 -0.641227 0)
(0.0350994 -0.769873 0)
(0.0116796 -0.860771 0)
(0.25927 -0.00492678 0)
(0.252944 -0.146249 0)
(0.180078 -0.240219 0)
(0.174743 -0.279989 0)
(0.147305 -0.327359 0)
(0.115805 -0.409186 0)
(0.0955636 -0.506866 0)
(0.0723957 -0.621855 0)
(0.0465671 -0.745848 0)
(0.0165511 -0.830131 0)
(0.322238 0.0358874 0)
(0.307588 -0.0959041 0)
(0.224622 -0.197716 0)
(0.205663 -0.25466 0)
(0.179657 -0.295336 0)
(0.149058 -0.378822 0)
(0.120291 -0.480612 0)
(0.0923747 -0.592318 0)
(0.0588907 -0.712498 0)
(0.0192679 -0.798042 0)
(0.386365 0.0658641 0)
(0.368689 -0.044423 0)
(0.289638 -0.14648 0)
(0.250018 -0.224825 0)
(0.219467 -0.271127 0)
(0.192353 -0.352887 0)
(0.15552 -0.45559 0)
(0.120496 -0.564767 0)
(0.077622 -0.674404 0)
(0.0295568 -0.746381 0)
(0.441467 0.0838147 0)
(0.43305 0.00164116 0)
(0.370132 -0.0880453 0)
(0.317623 -0.176823 0)
(0.274225 -0.236646 0)
(0.24205 -0.316065 0)
(0.197584 -0.411918 0)
(0.151603 -0.516746 0)
(0.0953778 -0.619945 0)
(0.028562 -0.694242 0)
(0.482613 0.0800177 0)
(0.48959 0.0247694 0)
(0.452792 -0.0438666 0)
(0.405205 -0.12924 0)
(0.352973 -0.202796 0)
(0.308552 -0.286002 0)
(0.254967 -0.375892 0)
(0.196978 -0.470183 0)
(0.128079 -0.556491 0)
(0.0485055 -0.614157 0)
(0.503208 0.0660757 0)
(0.524669 0.0352714 0)
(0.515577 -0.00688306 0)
(0.485935 -0.072219 0)
(0.435501 -0.141304 0)
(0.378938 -0.220429 0)
(0.310208 -0.302789 0)
(0.232339 -0.386058 0)
(0.144873 -0.462521 0)
(0.0412094 -0.520116 0)
(0.513547 0.0255684 0)
(0.544183 0.00954885 0)
(0.552108 -0.0136023 0)
(0.546758 -0.054278 0)
(0.511823 -0.105614 0)
(0.45897 -0.17006 0)
(0.382877 -0.240606 0)
(0.289155 -0.309459 0)
(0.185773 -0.370394 0)
(0.0749531 -0.404064 0)
(0.524382 0.010274 0)
(0.552272 0.00416047 0)
(0.550084 -0.00517527 0)
(0.553682 -0.0220982 0)
(0.520609 -0.0473884 0)
(0.475823 -0.0817885 0)
(0.394824 -0.122736 0)
(0.291015 -0.165993 0)
(0.167493 -0.214083 0)
(0.0236559 -0.276342 0)
(0.762222 -0.0117049 0)
(0.767229 -0.0173244 0)
(0.752196 -0.023966 0)
(0.738978 -0.0328229 0)
(0.698719 -0.0434157 0)
(0.64711 -0.056352 0)
(0.559693 -0.0721879 0)
(0.448713 -0.0931562 0)
(0.305952 -0.124431 0)
(0.183626 -0.179257 0)
(0.244949 0.0464066 1.40008e-20)
(0.311447 0.0669751 -1.3757e-20)
(0.370482 0.0965417 2.56217e-21)
(0.420417 0.107468 0)
(0.457227 0.108183 0)
(0.48155 0.0912199 4.27913e-21)
(0.491722 0.068263 -1.96857e-20)
(0.497027 0.0263481 1.93168e-20)
(0.522961 0.0104937 5.26002e-21)
(0.767038 -0.00982807 -5.32699e-21)
(0.258315 0.0678223 -1.55213e-20)
(0.323265 0.0934451 0)
(0.378424 0.116775 1.89754e-20)
(0.422918 0.120727 -4.64013e-20)
(0.453926 0.11548 3.21044e-20)
(0.473871 0.0939574 -3.87037e-21)
(0.482436 0.0683095 8.70431e-21)
(0.488167 0.0264628 1.87408e-20)
(0.521564 0.0105456 4.98236e-21)
(0.768064 -0.00903123 4.86603e-21)
(0.270149 0.0895255 1.94565e-20)
(0.333671 0.118094 -1.87084e-20)
(0.382029 0.133788 1.85326e-20)
(0.420091 0.131106 -2.67173e-20)
(0.445842 0.120414 1.95106e-20)
(0.46255 0.0949301 0)
(0.470299 0.0673085 -8.72596e-21)
(0.478261 0.0260183 5.59455e-23)
(0.519717 0.0104253 -9.60845e-21)
(0.768723 -0.00822925 -9.76859e-21)
(0.281505 0.110494 -3.3329e-21)
(0.345067 0.139823 0)
(0.386268 0.14759 0)
(0.41808 0.13893 0)
(0.438955 0.123434 2.32175e-20)
(0.452551 0.0947188 -1.56663e-20)
(0.459129 0.0656925 -2.46515e-22)
(0.469215 0.025215 -9.77886e-21)
(0.518089 0.0101524 -4.90452e-21)
(0.769676 -0.00746128 -4.96711e-21)
(0.291943 0.129905 2.27286e-21)
(0.354547 0.157783 -1.18978e-20)
(0.389024 0.158062 -1.20807e-20)
(0.415717 0.144394 1.20752e-20)
(0.432607 0.124917 -7.45165e-21)
(0.44359 0.0937926 0)
(0.449183 0.0638717 -9.02652e-21)
(0.461105 0.0243341 1.92497e-20)
(0.516667 0.00978516 -9.68012e-21)
(0.770807 -0.00676206 9.96706e-21)
(0.301288 0.147361 -3.30496e-20)
(0.360632 0.171805 2.36053e-21)
(0.38848 0.165366 -1.83809e-21)
(0.411133 0.147718 1.24476e-20)
(0.425067 0.125136 0)
(0.434263 0.0923931 0)
(0.439533 0.0620279 0)
(0.453401 0.0235193 9.64956e-21)
(0.515176 0.00936633 0)
(0.771815 -0.00614539 0)
(0.309341 0.162601 0)
(0.363494 0.182193 1.61447e-20)
(0.384839 0.170029 -1.10119e-20)
(0.404173 0.149308 -1.46544e-20)
(0.415931 0.124394 1.47326e-20)
(0.424049 0.0906886 8.87853e-21)
(0.429612 0.060215 -8.74028e-21)
(0.445713 0.0227952 -3.37587e-20)
(0.513389 0.00891738 2.42013e-21)
(0.772516 -0.00560895 -7.56044e-21)
(0.315708 0.175478 0)
(0.363574 0.189441 -5.14851e-21)
(0.379037 0.172704 -3.11597e-21)
(0.395624 0.149665 0)
(0.405743 0.123042 4.28275e-21)
(0.413223 0.0888619 -1.27232e-20)
(0.419432 0.0584775 1.39893e-20)
(0.437934 0.0221547 4.96241e-21)
(0.511194 0.00845273 -4.98103e-21)
(0.772854 -0.00514224 1.01265e-20)
(0.320021 0.186056 4.38135e-21)
(0.361167 0.194133 5.86988e-21)
(0.37178 0.174003 -1.21075e-21)
(0.386168 0.149253 1.83067e-21)
(0.395089 0.121408 3.99997e-21)
(0.402196 0.0870873 6.58345e-21)
(0.409205 0.0568758 -2.34479e-21)
(0.430096 0.0216037 -2.4525e-21)
(0.508559 0.00798626 4.99746e-21)
(0.772873 -0.00473637 2.53913e-21)
(0.322063 0.194629 -1.30973e-21)