/*--------------------------------*- C++ -*----------------------------------*\
  =========                 |
  \\      /  F ield         | OpenFOAM: The Open Source CFD Toolbox
   \\    /   O peration     | Website:  https://openfoam.org
    \\  /    A nd           | Version:  7
     \\/     M anipulation  |
\*---------------------------------------------------------------------------*/
FoamFile
{
    version     2.0;
    format      ascii;
    class       volScalarField;
    location    "2.2";
    object      p;
}
// * * * * * * * * * * * * * * * * * * * * * * * * * * * * * * * * * * * * * //

dimensions      [0 2 -2 0 0 0 0];

internalField   nonuniform List<scalar> 
18000
(
2.00268
2.00227
2.00354
2.00525
2.00717
2.00911
2.01113
2.01336
2.01592
2.01891
2.02241
2.02645
2.03105
2.03615
2.04167
2.04748
2.05349
2.05959
2.06568
2.0717
2.07756
2.08322
2.08864
2.09382
2.09874
2.10343
2.1079
2.11217
2.11628
2.12008
1.99416
1.99408
1.99542
1.99717
1.99903
2.00084
2.00263
2.00455
2.00675
2.00937
2.0125
2.01619
2.02047
2.0253
2.03058
2.03621
2.04209
2.04809
2.05412
2.06008
2.06591
2.07154
2.07694
2.08208
2.08697
2.09162
2.09603
2.10024
2.10427
2.10801
1.98546
1.98575
1.98718
1.98897
1.99079
1.99247
1.99406
1.99569
1.99754
1.99977
2.00252
2.00586
2.00982
2.01436
2.0194
2.02484
2.03058
2.03648
2.04243
2.04834
2.05412
2.05972
2.06508
2.07019
2.07504
2.07964
2.08399
2.08813
2.09208
2.09575
1.97665
1.97732
1.97886
1.98069
1.98249
1.98406
1.98545
1.9868
1.9883
1.99016
1.99253
1.99551
1.99913
2.00338
2.00817
2.01343
2.01901
2.0248
2.03067
2.03651
2.04224
2.04779
2.05312
2.05818
2.06298
2.06752
2.07181
2.07587
2.07973
2.08332
1.96783
1.96888
1.97051
1.9724
1.97417
1.97564
1.97684
1.97792
1.97909
1.98057
1.98256
1.98518
1.98847
1.99241
1.99696
2.00201
2.00744
2.01311
2.01887
2.02464
2.03031
2.03581
2.04107
2.04609
2.05083
2.0553
2.05951
2.06348
2.06724
2.07074
1.95903
1.96043
1.96215
1.9641
1.96587
1.96725
1.96827
1.96909
1.96993
1.97106
1.97267
1.97492
1.97787
1.98151
1.98581
1.99065
1.99591
2.00144
2.0071
2.01278
2.01837
2.02379
2.02899
2.03393
2.0386
2.04299
2.04711
2.05098
2.05463
2.05803
1.95028
1.95201
1.95382
1.95584
1.9576
1.9589
1.95976
1.96034
1.96088
1.96165
1.9629
1.96478
1.96738
1.97072
1.97476
1.97939
1.98447
1.98984
1.99538
2.00095
2.00645
2.01179
2.0169
2.02175
2.02633
2.03062
2.03463
2.03839
2.04192
2.04521
1.94161
1.94364
1.94555
1.94763
1.9494
1.95063
1.95134
1.9517
1.95195
1.95238
1.95326
1.95478
1.95704
1.96008
1.96386
1.96826
1.97314
1.97835
1.98375
1.9892
1.99459
1.99982
2.00482
2.00957
2.01404
2.01821
2.0221
2.02573
2.02912
2.03229
1.93304
1.93534
1.93734
1.9395
1.94127
1.94245
1.94304
1.94319
1.94316
1.94327
1.9438
1.94496
1.94688
1.94962
1.95313
1.9573
1.96197
1.967
1.97224
1.97755
1.9828
1.9879
1.99278
1.9974
2.00174
2.00578
2.00953
2.01301
2.01626
2.01929
1.92458
1.92712
1.9292
1.93143
1.93323
1.93437
1.93484
1.93481
1.93453
1.93432
1.93451
1.93533
1.93693
1.93936
1.9426
1.94652
1.95098
1.95581
1.96087
1.96602
1.97111
1.97607
1.9808
1.98527
1.98945
1.99334
1.99695
2.00027
2.00336
2.00624
1.91623
1.91898
1.92115
1.92346
1.92528
1.9264
1.92677
1.92656
1.92604
1.92555
1.92541
1.9259
1.92718
1.92932
1.93228
1.93594
1.94017
1.9448
1.94966
1.95462
1.95954
1.96432
1.96889
1.97319
1.9772
1.98093
1.98436
1.98751
1.99043
1.99314
1.908
1.91093
1.91318
1.91556
1.91742
1.91852
1.91881
1.91845
1.9177
1.91694
1.9165
1.91667
1.91765
1.91949
1.92217
1.92558
1.92957
1.93397
1.93862
1.94337
1.94809
1.95268
1.95705
1.96117
1.965
1.96854
1.97179
1.97476
1.97748
1.98003
1.89988
1.90296
1.90528
1.90774
1.90964
1.91073
1.91095
1.91044
1.9095
1.90848
1.90776
1.90763
1.90831
1.90986
1.91227
1.91541
1.91916
1.92332
1.92774
1.93227
1.93677
1.94114
1.94531
1.94921
1.95284
1.95619
1.95924
1.96201
1.96454
1.9669
1.89187
1.89507
1.89746
1.89999
1.90193
1.90301
1.90317
1.90254
1.90141
1.90016
1.89916
1.89876
1.89915
1.90043
1.90256
1.90545
1.90893
1.91284
1.91702
1.92131
1.92558
1.92972
1.93366
1.93734
1.94075
1.94388
1.94673
1.9493
1.95162
1.9538
1.88396
1.88724
1.8897
1.89229
1.89427
1.89535
1.89545
1.8947
1.8934
1.89193
1.89069
1.89002
1.89015
1.89117
1.89303
1.89565
1.89887
1.90253
1.90645
1.91049
1.91451
1.91841
1.9221
1.92555
1.92873
1.93164
1.93427
1.93662
1.93874
1.94072
1.87613
1.87947
1.88199
1.88463
1.88665
1.88772
1.88776
1.88691
1.88545
1.88378
1.88231
1.8814
1.88129
1.88205
1.88366
1.88602
1.88897
1.89236
1.89602
1.8998
1.90356
1.90719
1.91063
1.91383
1.91677
1.91945
1.92186
1.924
1.92592
1.92769
1.86837
1.87174
1.8743
1.87699
1.87903
1.88009
1.88009
1.87913
1.87752
1.87566
1.87399
1.87287
1.87252
1.87304
1.87441
1.87651
1.87921
1.88233
1.88572
1.88922
1.89271
1.89607
1.89924
1.90218
1.90488
1.90733
1.90952
1.91145
1.91316
1.91473
1.86065
1.86404
1.86664
1.86936
1.87142
1.87246
1.87239
1.87133
1.86958
1.86756
1.8657
1.86439
1.86383
1.86414
1.86526
1.86712
1.86955
1.8724
1.87552
1.87874
1.88195
1.88503
1.88793
1.89061
1.89306
1.89527
1.89725
1.89897
1.90048
1.90186
1.85295
1.85634
1.85897
1.86172
1.86377
1.86478
1.86464
1.86348
1.8616
1.85943
1.85742
1.85593
1.85519
1.85529
1.85619
1.8578
1.85998
1.86257
1.86541
1.86835
1.87126
1.87406
1.87668
1.8791
1.88131
1.88329
1.88506
1.88658
1.88789
1.88908
1.84525
1.84863
1.85128
1.85404
1.85608
1.85704
1.85683
1.85556
1.85356
1.85126
1.84911
1.84748
1.84658
1.84649
1.84718
1.84855
1.85048
1.8528
1.85536
1.85801
1.86063
1.86314
1.86549
1.86765
1.86962
1.87139
1.87295
1.87429
1.87541
1.87642
1.83751
1.84088
1.84355
1.84631
1.84832
1.84922
1.84891
1.84754
1.84543
1.84302
1.84076
1.839
1.83796
1.8377
1.83819
1.83934
1.84102
1.84307
1.84535
1.84771
1.85004
1.85226
1.85434
1.85625
1.85799
1.85955
1.86093
1.86209
1.86305
1.86391
1.82972
1.83308
1.83575
1.8385
1.84046
1.84129
1.84089
1.83941
1.83719
1.83469
1.83234
1.83048
1.82931
1.8289
1.82921
1.83015
1.83158
1.83337
1.83536
1.83743
1.83947
1.84141
1.84322
1.84489
1.84641
1.84778
1.84899
1.85
1.85083
1.85156
1.82186
1.8252
1.82788
1.83059
1.8325
1.83324
1.83273
1.83114
1.82883
1.82626
1.82384
1.8219
1.82063
1.82008
1.82022
1.82095
1.82215
1.82366
1.82537
1.82715
1.8289
1.83057
1.83212
1.83356
1.83487
1.83607
1.83712
1.83801
1.83874
1.8394
1.81389
1.81724
1.8199
1.82258
1.8244
1.82504
1.82442
1.82273
1.82034
1.81771
1.81525
1.81325
1.81189
1.81123
1.81121
1.81174
1.8127
1.81395
1.81537
1.81686
1.81832
1.81972
1.82102
1.82223
1.82335
1.82438
1.8253
1.8261
1.82678
1.82742
1.80581
1.80917
1.81182
1.81444
1.81617
1.8167
1.81596
1.81418
1.81172
1.80905
1.80656
1.80453
1.8031
1.80233
1.80217
1.80251
1.80323
1.80421
1.80534
1.80654
1.80772
1.80884
1.80989
1.81088
1.81181
1.81269
1.8135
1.81425
1.81492
1.81562
1.79761
1.801
1.80362
1.80618
1.80781
1.80821
1.80735
1.80548
1.80298
1.80029
1.79779
1.79573
1.79425
1.79339
1.79309
1.79324
1.79372
1.79444
1.79529
1.7962
1.79709
1.79793
1.79872
1.79948
1.80022
1.80095
1.80167
1.80239
1.80312
1.80397
1.78927
1.7927
1.7953
1.79779
1.7993
1.79957
1.7986
1.79664
1.79411
1.79142
1.78893
1.78686
1.78535
1.78441
1.78397
1.78394
1.78419
1.78464
1.78521
1.78583
1.78642
1.78698
1.78749
1.788
1.78853
1.7891
1.78973
1.79044
1.79127
1.79238
1.78078
1.78429
1.78686
1.78927
1.79066
1.79079
1.78971
1.78769
1.78514
1.78247
1.78
1.77794
1.77641
1.77539
1.77482
1.77461
1.77463
1.77483
1.77511
1.77543
1.77572
1.77597
1.77619
1.77642
1.77669
1.77706
1.77756
1.77825
1.77922
1.78069
1.77216
1.77575
1.7783
1.78063
1.7819
1.78189
1.7807
1.77862
1.77608
1.77344
1.77102
1.76898
1.76743
1.76634
1.76565
1.76525
1.76505
1.76499
1.76499
1.76501
1.76499
1.76492
1.76481
1.76471
1.76467
1.76472
1.76496
1.76552
1.76667
1.76877
1.76341
1.7671
1.76963
1.77188
1.77302
1.77288
1.77158
1.76948
1.76695
1.76437
1.76199
1.75999
1.75843
1.75727
1.75646
1.75588
1.75546
1.75514
1.75487
1.75458
1.75425
1.75384
1.75339
1.75291
1.75246
1.75205
1.75176
1.75169
1.75214
1.75465
2.13118
2.1473
2.15921
2.17019
2.17903
2.18632
2.1922
2.19685
2.20039
2.20307
2.20507
2.20655
2.20764
2.20848
2.20912
2.20973
2.2103
2.21109
2.21187
2.21303
2.21397
2.2156
2.21677
2.21903
2.22043
2.22356
2.22521
2.2301
2.23183
2.24079
2.11896
2.13587
2.14827
2.15976
2.16901
2.1766
2.18268
2.18749
2.19125
2.19411
2.19622
2.19779
2.19899
2.19995
2.20068
2.20136
2.202
2.20286
2.20368
2.2049
2.20592
2.20759
2.20878
2.21106
2.21249
2.21565
2.21732
2.22226
2.22402
2.23306
2.10651
2.12429
2.13722
2.14923
2.15889
2.16678
2.1731
2.1781
2.18207
2.1851
2.18733
2.18899
2.1903
2.19139
2.19221
2.19297
2.19369
2.19462
2.19549
2.19679
2.19789
2.1996
2.20083
2.20314
2.20462
2.20783
2.20955
2.21454
2.21632
2.22545
2.09385
2.11256
2.12607
2.13862
2.14867
2.15688
2.16346
2.16868
2.17284
2.17602
2.17839
2.18018
2.18159
2.18277
2.1837
2.18455
2.18536
2.18637
2.18731
2.18868
2.18985
2.19163
2.19293
2.1953
2.19684
2.2001
2.20188
2.20692
2.20876
2.21794
2.08101
2.10069
2.11484
2.12793
2.13837
2.14692
2.15377
2.15922
2.16356
2.1669
2.16941
2.17135
2.17286
2.17412
2.17516
2.17611
2.17702
2.17812
2.17915
2.18058
2.18182
2.18368
2.18506
2.18751
2.18913
2.19246
2.19431
2.19942
2.20131
2.21055
2.06802
2.0887
2.1035
2.11718
2.12801
2.1369
2.14403
2.14972
2.15425
2.15774
2.1604
2.16247
2.1641
2.16545
2.1666
2.16766
2.16866
2.16986
2.17098
2.17249
2.17381
2.17576
2.17723
2.17977
2.18148
2.18491
2.18684
2.19202
2.19398
2.20328
2.05489
2.0766
2.09209
2.10636
2.11761
2.12685
2.13426
2.14018
2.14491
2.14856
2.15137
2.15357
2.15532
2.15676
2.15802
2.15919
2.16029
2.16158
2.16281
2.16441
2.16582
2.16787
2.16945
2.17208
2.17391
2.17744
2.17946
2.18472
2.18676
2.19613
2.04164
2.0644
2.0806
2.0955
2.10718
2.11676
2.12445
2.13061
2.13553
2.13935
2.14231
2.14464
2.14651
2.14806
2.14942
2.15071
2.15191
2.1533
2.15464
2.15634
2.15785
2.16001
2.16171
2.16446
2.1664
2.17006
2.17218
2.17754
2.17965
2.1891
2.02829
2.05212
2.06907
2.08461
2.09672
2.10665
2.11462
2.12102
2.12614
2.13012
2.13323
2.13569
2.13769
2.13934
2.14082
2.14223
2.14353
2.14503
2.14647
2.14828
2.14989
2.15218
2.15401
2.15689
2.15896
2.16275
2.165
2.17046
2.17266
2.18219
2.01486
2.03977
2.0575
2.0737
2.08625
2.09652
2.10478
2.11141
2.11672
2.12089
2.12414
2.12674
2.12886
2.13063
2.13221
2.13374
2.13515
2.13675
2.1383
2.14023
2.14197
2.14438
2.14635
2.14937
2.15159
2.15553
2.15791
2.16349
2.16578
2.1754
2.00136
2.02739
2.04592
2.06279
2.07577
2.0864
2.09493
2.1018
2.10731
2.11165
2.11505
2.11778
2.12002
2.12191
2.1236
2.12524
2.12677
2.12848
2.13015
2.13219
2.13406
2.13661
2.13872
2.1419
2.14428
2.14838
2.15092
2.15664
2.15901
2.16873
1.98782
2.01497
2.03435
2.05188
2.0653
2.07628
2.08509
2.0922
2.09789
2.10241
2.10597
2.10882
2.11119
2.11319
2.11499
2.11675
2.11839
2.12021
2.122
2.12416
2.12617
2.12886
2.13114
2.13449
2.13703
2.14132
2.14402
2.14989
2.15236
2.16219
1.97425
2.00254
2.0228
2.04099
2.05486
2.06617
2.07526
2.08261
2.08849
2.09319
2.09689
2.09987
2.10236
2.10448
2.10639
2.10826
2.11002
2.11194
2.11386
2.11615
2.11831
2.12115
2.1236
2.12712
2.12986
2.13433
2.13721
2.14326
2.14584
2.15577
1.96069
1.99013
2.01129
2.03013
2.04444
2.05609
2.06546
2.07304
2.07912
2.08398
2.08783
2.09094
2.09354
2.09578
2.0978
2.09978
2.10165
2.10369
2.10573
2.10816
2.11047
2.11347
2.11609
2.11981
2.12274
2.12743
2.1305
2.13675
2.13944
2.14949
1.94715
1.97774
1.99984
2.01932
2.03407
2.04605
2.05569
2.0635
2.06977
2.0748
2.07879
2.08201
2.08474
2.0871
2.08922
2.09131
2.09329
2.09544
2.09762
2.10019
2.10265
2.10581
2.10862
2.11255
2.11568
2.12061
2.12389
2.13035
2.13318
2.14335
1.93366
1.96541
1.98847
2.00856
2.02375
2.03606
2.04597
2.054
2.06046
2.06564
2.06978
2.07312
2.07596
2.07844
2.08067
2.08285
2.08494
2.08721
2.08952
2.09224
2.09485
2.09819
2.10118
2.10533
2.10868
2.11385
2.11737
2.12406
2.12706
2.13735
1.92025
1.95316
1.9772
1.99787
2.01349
2.02613
2.03631
2.04456
2.05119
2.05652
2.06079
2.06425
2.06721
2.0698
2.07213
2.07441
2.07661
2.079
2.08143
2.0843
2.08707
2.09059
2.09377
2.09815
2.10173
2.10717
2.11095
2.1179
2.12108
2.1315
1.90694
1.94103
1.96604
1.98726
2.00331
2.01627
2.02671
2.03517
2.04198
2.04745
2.05185
2.05542
2.0585
2.06119
2.06361
2.06598
2.06829
2.0708
2.07336
2.07638
2.0793
2.08301
2.08638
2.091
2.09483
2.10055
2.10461
2.11185
2.11525
2.12582
1.89377
1.92904
1.95501
1.97676
1.99321
2.0065
2.0172
2.02586
2.03283
2.03843
2.04295
2.04664
2.04981
2.0526
2.05512
2.05758
2.05999
2.06262
2.0653
2.06848
2.07155
2.07545
2.07902
2.08388
2.08796
2.09399
2.09837
2.10593
2.10958
2.12031
1.88078
1.91723
1.94414
1.96636
1.98323
1.99682
2.00778
2.01663
2.02375
2.02948
2.03411
2.03791
2.04117
2.04405
2.04665
2.0492
2.05171
2.05446
2.05726
2.06058
2.06381
2.0679
2.07166
2.07678
2.08113
2.08749
2.09221
2.10013
2.10407
2.115
1.86801
1.90564
1.93345
1.9561
1.97338
1.98726
1.99847
2.0075
2.01476
2.02061
2.02533
2.02923
2.03257
2.03553
2.03821
2.04084
2.04345
2.04631
2.04922
2.0527
2.05608
2.06035
2.06432
2.06969
2.07434
2.08103
2.08614
2.09447
2.09875
2.1099
1.85551
1.89432
1.92295
1.94598
1.96366
1.97784
1.98927
1.99847
2.00586
2.01181
2.01662
2.02061
2.02401
2.02705
2.0298
2.03252
2.03521
2.03818
2.0412
2.04482
2.04835
2.05281
2.05698
2.06261
2.06756
2.07462
2.08015
2.08893
2.09362
2.10503
1.84334
1.88334
1.91267
1.93603
1.9541
1.96855
1.9802
1.98955
1.99705
2.0031
2.00799
2.01205
2.01551
2.01861
2.02144
2.02422
2.02699
2.03007
2.03319
2.03695
2.04062
2.04527
2.04965
2.05554
2.06081
2.06824
2.07422
2.08352
2.0887
2.10042
1.83156
1.87269
1.90262
1.92627
1.94472
1.95944
1.97128
1.98076
1.98836
1.99449
1.99943
2.00356
2.00708
2.01023
2.01311
2.01595
2.0188
2.02198
2.0252
2.02908
2.0329
2.03772
2.04231
2.04846
2.05406
2.0619
2.06836
2.07823
2.08399
2.0961
1.82026
1.86242
1.89282
1.91675
1.93553
1.9505
1.96251
1.97212
1.97979
1.98598
1.99097
1.99515
1.99871
2.00189
2.00483
2.00772
2.01063
2.0139
2.01722
2.0212
2.02517
2.03016
2.03497
2.04138
2.04731
2.05556
2.06255
2.07305
2.07951
2.09211
1.80953
1.85252
1.8833
1.90747
1.92658
1.94178
1.95394
1.96364
1.97137
1.9776
1.98262
1.98683
1.99041
1.99362
1.99659
1.99953
2.0025
2.00584
2.00924
2.01333
2.01744
2.02259
2.02761
2.03428
2.04056
2.04923
2.05678
2.06797
2.07526
2.0885
1.79947
1.84302
1.87409
1.8985
1.9179
1.93329
1.94557
1.95534
1.9631
1.96936
1.97439
1.97861
1.9822
1.98542
1.98841
1.99138
1.9944
1.9978
2.00128
2.00546
2.0097
2.01501
2.02024
2.02716
2.03378
2.04288
2.05102
2.06298
2.07126
2.08533
1.79012
1.83377
1.86505
1.88969
1.90935
1.92492
1.9373
1.94713
1.95491
1.96116
1.9662
1.97041
1.974
1.97721
1.98021
1.98321
1.98628
1.98972
1.99328
1.99754
2.00191
2.00737
2.01282
2.01999
2.02695
2.03648
2.04525
2.05802
2.06748
2.08266
1.78107
1.82427
1.85572
1.88065
1.9006
1.91636
1.92886
1.93875
1.94656
1.95283
1.95787
1.96207
1.96566
1.96887
1.97189
1.97493
1.97804
1.98153
1.98518
1.98952
1.99402
1.99964
2.0053
2.01272
2.02002
2.02999
2.03941
2.05304
2.06391
2.08061
1.77259
1.81489
1.84645
1.87162
1.89178
1.90772
1.92033
1.93028
1.93814
1.94443
1.94949
1.9537
1.95729
1.96052
1.96356
1.96663
1.96979
1.97333
1.97706
1.98149
1.98611
1.99186
1.99773
2.00537
2.01301
2.02337
2.03346
2.04792
2.06041
2.07917
1.74914
1.79184
1.82357
1.84887
1.86903
1.88496
1.89749
1.90737
1.91516
1.92136
1.92635
1.93045
1.93397
1.93713
1.94013
1.9432
1.94639
1.94997
1.95382
1.95839
1.96327
1.96933
1.97567
1.98382
1.99229
2.00358
2.01541
2.03205
2.04942
2.07527
1.70063
1.74211
1.77361
1.79869
1.81895
1.83515
1.848
1.85823
1.8664
1.87298
1.87837
1.88291
1.88688
1.89052
1.89404
1.89764
1.90139
1.90554
1.91
1.91522
1.92078
1.92757
1.93473
1.94381
1.95337
1.96597
1.97956
1.9984
2.01892
2.04803
1.65266
1.69244
1.72311
1.74778
1.76798
1.78431
1.79739
1.80793
1.81649
1.82347
1.82929
1.8343
1.83877
1.84295
1.84703
1.85121
1.85556
1.86035
1.86546
1.87135
1.87761
1.88516
1.89309
1.90301
1.91347
1.92706
1.94169
1.96162
1.98325
2.0133
1.60473
1.64259
1.67213
1.6962
1.71622
1.73257
1.74582
1.75665
1.76553
1.77289
1.77915
1.78464
1.78961
1.79433
1.79898
1.80374
1.8087
1.81411
1.81986
1.8264
1.83335
1.84159
1.85023
1.86086
1.87202
1.88629
1.90152
1.92196
1.94393
1.97423
1.5563
1.5923
1.62066
1.64409
1.66382
1.68009
1.69344
1.70448
1.71366
1.72142
1.72813
1.73411
1.73962
1.7449
1.75011
1.75548
1.76105
1.76707
1.77345
1.78062
1.78819
1.79705
1.80628
1.81748
1.82915
1.84384
1.85937
1.87996
1.9019
1.93216
1.50693
1.54128
1.56849
1.59119
1.61054
1.62669
1.64008
1.6513
1.66079
1.66895
1.67612
1.6826
1.68865
1.6945
1.70031
1.70628
1.71246
1.71909
1.72607
1.73384
1.74199
1.75138
1.76112
1.77275
1.78479
1.79971
1.81535
1.83589
1.85759
1.88767
1.45635
1.48925
1.51537
1.53734
1.55632
1.57234
1.58575
1.59714
1.60692
1.61546
1.62308
1.63006
1.63665
1.64307
1.64947
1.65603
1.66281
1.67003
1.67759
1.68591
1.69459
1.70447
1.71464
1.72662
1.73892
1.75397
1.76959
1.78997
1.81131
1.84109
1.40438
1.43603
1.46118
1.48247
1.50109
1.51695
1.53037
1.54191
1.55197
1.56088
1.56893
1.57642
1.58355
1.59053
1.59751
1.60465
1.61201
1.6198
1.62791
1.63676
1.64593
1.65623
1.66677
1.67904
1.69154
1.70667
1.72221
1.74235
1.76324
1.79265
1.35096
1.38152
1.40579
1.42647
1.44474
1.46045
1.47386
1.48554
1.49587
1.50513
1.51362
1.52159
1.52925
1.53679
1.54433
1.55205
1.55997
1.56831
1.57695
1.58629
1.59591
1.60661
1.61749
1.63
1.64267
1.65782
1.67325
1.69311
1.71349
1.74248
1.29605
1.32563
1.34913
1.36924
1.38718
1.40277
1.41617
1.42798
1.43856
1.44817
1.45708
1.46553
1.4737
1.48177
1.48987
1.49814
1.50661
1.51547
1.52462
1.53443
1.54447
1.55554
1.56673
1.57948
1.59228
1.60746
1.62275
1.64233
1.66215
1.69068
1.2396
1.26831
1.29113
1.31072
1.32836
1.34384
1.35724
1.36917
1.37998
1.38993
1.39924
1.40814
1.41681
1.42541
1.43404
1.44285
1.45184
1.46122
1.47085
1.48111
1.49156
1.50298
1.51447
1.52743
1.54037
1.55556
1.57073
1.59
1.60927
1.63728
1.18162
1.20953
1.23175
1.25085
1.26822
1.2836
1.29701
1.30904
1.32008
1.33034
1.34004
1.34938
1.35853
1.36764
1.37678
1.3861
1.39561
1.40547
1.41557
1.42626
1.43711
1.44888
1.46065
1.47383
1.48689
1.5021
1.51715
1.53614
1.55484
1.58233
1.12211
1.14928
1.17093
1.18959
1.20671
1.222
1.23541
1.24755
1.2588
1.26935
1.27942
1.28918
1.29879
1.30838
1.31802
1.32784
1.33783
1.34817
1.35871
1.36983
1.38105
1.39315
1.4052
1.4186
1.4318
1.44704
1.46199
1.48071
1.49885
1.52579
1.06108
1.08752
1.10866
1.12691
1.14378
1.159
1.17242
1.18464
1.19608
1.20691
1.21733
1.22749
1.23753
1.24758
1.25769
1.26798
1.27844
1.28924
1.30021
1.31172
1.32332
1.33574
1.34807
1.36168
1.37502
1.3903
1.40518
1.42365
1.44126
1.46764
0.998543
1.02427
1.04491
1.06277
1.0794
1.09455
1.10798
1.12028
1.13189
1.14298
1.15371
1.16424
1.1747
1.18518
1.19574
1.20648
1.21738
1.2286
1.23998
1.25187
1.26381
1.27655
1.28915
1.30296
1.31645
1.33178
1.34661
1.36485
1.38198
1.4078
0.934524
0.959533
0.979689
0.997156
1.01354
1.02862
1.04206
1.05442
1.06618
1.07749
1.08852
1.09939
1.11022
1.12111
1.13208
1.14324
1.15456
1.16617
1.17793
1.19018
1.20245
1.21548
1.22833
1.24235
1.25598
1.27137
1.28617
1.30422
1.32091
1.34618
0.869049
0.893306
0.91297
0.930052
0.946189
0.961183
0.974622
0.987031
0.998907
1.01042
1.0217
1.03288
1.04406
1.05531
1.06666
1.0782
1.08989
1.10187
1.11398
1.12655
1.13912
1.15241
1.1655
1.1797
1.19348
1.20892
1.2237
1.24156
1.25787
1.28257
0.80214
0.825602
0.844756
0.86145
0.877323
0.892223
0.905649
0.918082
0.930044
0.94172
0.95322
0.964668
0.976145
0.987714
0.9994
1.01128
1.02329
1.0356
1.04801
1.06086
1.0737
1.08722
1.10052
1.11487
1.12878
1.14427
1.15906
1.17676
1.19274
1.21688
0.733827
0.75644
0.775056
0.791348
0.806935
0.821717
0.835117
0.847551
0.859569
0.871369
0.883045
0.894708
0.906431
0.918268
0.930235
0.942394
0.954689
0.96726
0.979925
0.993009
1.00605
1.01975
1.03321
1.04766
1.06165
1.07713
1.09188
1.10936
1.12507
1.14864
0.66413
0.685829
0.70388
0.719752
0.735024
0.749662
0.763017
0.775427
0.787464
0.799342
0.811136
0.822953
0.834861
0.846909
0.859096
0.871474
0.883982
0.896756
0.909604
0.922848
0.936032
0.949842
0.963395
0.977907
0.991964
1.00744
1.02221
1.03954
1.05498
1.0779
0.593073
0.613784
0.631245
0.646681
0.661606
0.676063
0.689345
0.7017
0.713712
0.72561
0.737463
0.749369
0.761395
0.773583
0.785914
0.798435
0.811079
0.823975
0.836921
0.850234
0.86346
0.877272
0.890805
0.90523
0.919182
0.934442
0.949001
0.96599
0.981317
1.0037
0.520708
0.540349
0.557197
0.572172
0.586708
0.600935
0.614104
0.626365
0.638303
0.650163
0.662008
0.673931
0.685993
0.698232
0.71062
0.723198
0.735886
0.748801
0.761737
0.775011
0.788182
0.801904
0.81536
0.829679
0.843587
0.858749
0.873261
0.889954
0.90476
0.926203
0.447163
0.465646
0.481839
0.496295
0.51038
0.524313
0.537314
0.549437
0.561246
0.573001
0.58476
0.59661
0.608617
0.620811
0.633156
0.645683
0.658297
0.671106
0.683894
0.696972
0.70989
0.723281
0.73635
0.750181
0.763593
0.778182
0.792249
0.808479
0.823504
0.844299
0.372887
0.390034
0.405426
0.419225
0.43275
0.446284
0.459041
0.470968
0.482579
0.494143
0.505721
0.517402
0.529246
0.541278
0.553456
0.565802
0.578213
0.590783
0.603301
0.616067
0.628665
0.641701
0.654439
0.667885
0.680921
0.69494
0.708326
0.723512
0.737378
0.757192
0.299096
0.314434
0.32856
0.341394
0.354159
0.367113
0.379483
0.391105
0.402412
0.413669
0.424945
0.436331
0.447881
0.459618
0.471491
0.483508
0.495534
0.507652
0.519619
0.531722
0.543535
0.555658
0.567447
0.579907
0.592189
0.605625
0.618893
0.633769
0.647171
0.664113
0.228197
0.240774
0.252667
0.263917
0.275516
0.287513
0.299176
0.310253
0.321047
0.331783
0.342554
0.353456
0.364539
0.375819
0.387229
0.398761
0.410283
0.421864
0.433262
0.444721
0.455813
0.467049
0.477742
0.488764
0.499257
0.510533
0.521559
0.534341
0.547253
0.564078
0.163324
0.172
0.180471
0.189223
0.198911
0.209249
0.219555
0.229546
0.239339
0.249108
0.259011
0.269153
0.279528
0.290109
0.300787
0.311509
0.322093
0.332605
0.342804
0.352963
0.362773
0.372763
0.382496
0.392685
0.402652
0.41317
0.423064
0.433386
0.441468
0.452149
0.106975
0.111263
0.115636
0.121097
0.127962
0.135657
0.143567
0.151422
0.159209
0.167088
0.175293
0.183969
0.193113
0.202655
0.212428
0.222297
0.231973
0.241387
0.25019
0.258574
0.266166
0.273537
0.280343
0.287471
0.294647
0.302798
0.311442
0.321042
0.329595
0.337558
0.0596612
0.0604092
0.0610694
0.063129
0.0667728
0.071159
0.0758356
0.0805771
0.0853157
0.0901974
0.0954666
0.101287
0.107707
0.11473
0.122244
0.130153
0.138188
0.146234
0.153911
0.161154
0.167467
0.173005
0.177276
0.180862
0.183554
0.186559
0.190136
0.195561
0.201221
0.205726
0.0191511
0.0181038
0.0160706
0.0152494
0.0161899
0.0173602
0.0186517
0.0199813
0.0213225
0.0227598
0.0244193
0.0263995
0.0287568
0.0315334
0.034704
0.0382709
0.0420788
0.0461709
0.0502633
0.05441
0.0581933
0.0617101
0.0644775
0.0666928
0.0680134
0.0689956
0.0696496
0.0707865
0.0713834
0.0701777
1.71271
1.66427
1.61779
1.57084
1.5235
1.47493
1.42505
1.37376
1.32095
1.26664
1.21082
1.15346
1.0946
1.03426
0.97246
0.90925
0.844645
0.778693
0.711429
0.642916
0.573201
0.502412
0.430833
0.359018
0.288199
0.220626
0.158842
0.104997
0.0591193
0.0199177
1.70018
1.65211
1.60621
1.55967
1.51274
1.46453
1.41495
1.36395
1.31141
1.25736
1.2018
1.14471
1.0861
1.02604
0.964513
0.901599
0.837297
0.771669
0.704747
0.636607
0.567294
0.496938
0.425847
0.35459
0.284427
0.21765
0.156755
0.103832
0.0586682
0.020005
1.68761
1.64036
1.59503
1.54887
1.50236
1.45451
1.40524
1.35453
1.30228
1.2485
1.1932
1.13637
1.07804
1.01825
0.957005
0.894385
0.830388
0.765082
0.698495
0.630718
0.561795
0.491855
0.421227
0.350492
0.280927
0.214835
0.15467
0.102536
0.0580887
0.0199792
1.67504
1.62883
1.58408
1.53831
1.49217
1.44467
1.39571
1.34529
1.2933
1.23979
1.18475
1.12818
1.07011
1.0106
0.949627
0.887296
0.823599
0.758612
0.692357
0.624934
0.556396
0.486864
0.416678
0.346436
0.27745
0.21204
0.152632
0.101309
0.0575479
0.0199323
1.66262
1.61755
1.57342
1.52803
1.48224
1.43507
1.3864
1.33626
1.28453
1.23127
1.17647
1.12016
1.06234
1.0031
0.942394
0.880344
0.816943
0.752266
0.686339
0.619261
0.5511
0.481968
0.412212
0.34245
0.274028
0.209288
0.150644
0.100142
0.0570539
0.0198794
1.65039
1.60652
1.56302
1.51802
1.47256
1.4257
1.37732
1.32744
1.27595
1.22293
1.16837
1.11231
1.05472
0.995738
0.935303
0.873525
0.81041
0.746037
0.680435
0.613693
0.5459
0.47716
0.407826
0.338539
0.270667
0.206592
0.148717
0.0990235
0.0565931
0.0198129
1.63837
1.59571
1.55287
1.50827
1.46312
1.41657
1.36845
1.31882
1.26758
1.21479
1.16045
1.10462
1.04727
0.98853
0.928354
0.86684
0.804005
0.739926
0.674644
0.608232
0.540799
0.472445
0.403532
0.334719
0.267388
0.203968
0.146859
0.0979576
0.0561643
0.0197325
1.6266
1.58512
1.54296
1.49878
1.45393
1.40767
1.35981
1.31041
1.2594
1.20684
1.15272
1.0971
1.03999
0.981478
0.921551
0.860289
0.797728
0.733938
0.668968
0.602878
0.535796
0.467824
0.399329
0.330989
0.264193
0.201423
0.145072
0.0969449
0.0557677
0.0196404
1.6151
1.57477
1.53329
1.48955
1.44499
1.399
1.35138
1.30222
1.25143
1.19908
1.14517
1.08976
1.03287
0.974584
0.914895
0.853877
0.791587
0.728076
0.663406
0.597628
0.530888
0.463289
0.395206
0.327338
0.261075
0.198952
0.14335
0.0959834
0.0554006
0.0195384
1.6039
1.56467
1.52384
1.48056
1.43628
1.39055
1.34318
1.29424
1.24366
1.19151
1.1378
1.0826
1.02593
0.967854
0.908393
0.847612
0.785583
0.722342
0.657957
0.592481
0.52607
0.458835
0.391155
0.323753
0.258025
0.196552
0.14169
0.0950708
0.0550603
0.0194282
1.59299
1.55481
1.51462
1.47181
1.42782
1.38233
1.33519
1.28646
1.23609
1.18413
1.13062
1.07563
1.01916
0.961289
0.902048
0.8415
0.779721
0.71674
0.652627
0.587443
0.521349
0.454465
0.387178
0.320234
0.255047
0.194223
0.140097
0.0942065
0.0547452
0.0193118
1.5824
1.54522
1.50563
1.46329
1.41959
1.37434
1.32742
1.27889
1.22871
1.17695
1.12363
1.06883
1.01256
0.954892
0.895867
0.835546
0.774004
0.711272
0.647423
0.582523
0.516732
0.450189
0.383285
0.316795
0.25215
0.191972
0.138572
0.0933915
0.0544564
0.0191912
1.57214
1.53588
1.49688
1.455
1.41159
1.36658
1.31987
1.27152
1.22154
1.16996
1.11683
1.06221
1.00614
0.948668
0.889853
0.829752
0.768435
0.705945
0.642352
0.577729
0.512232
0.446019
0.379493
0.313451
0.249346
0.189805
0.137121
0.0926275
0.0541958
0.0190684
1.56223
1.52682
1.48838
1.44695
1.40383
1.35904
1.31254
1.26437
1.21457
1.16317
1.11021
1.05578
0.999891
0.942618
0.884007
0.824119
0.763018
0.70076
0.637418
0.573066
0.507854
0.441965
0.375809
0.31021
0.246642
0.187728
0.135745
0.091915
0.0539643
0.0189448
1.55266
1.51805
1.48013
1.43914
1.39631
1.35174
1.30543
1.25744
1.20781
1.15658
1.10379
1.04953
0.993826
0.936745
0.878328
0.818645
0.757753
0.695719
0.632622
0.568531
0.503597
0.438024
0.372232
0.307071
0.244038
0.185738
0.134443
0.0912525
0.0537643
0.0188217
1.54346
1.50957
1.47214
1.43158
1.38903
1.34467
1.29855
1.25073
1.20126
1.1502
1.09756
1.04347
0.987946
0.931049
0.872817
0.81333
0.752639
0.690819
0.627957
0.564116
0.499452
0.434188
0.368753
0.304028
0.241528
0.183831
0.133214
0.0906377
0.0535805
0.0186987
1.53463
1.50139
1.46442
1.42426
1.382
1.33784
1.29191
1.24425
1.19493
1.14402
1.09154
1.03761
0.982253
0.925531
0.867474
0.808173
0.747676
0.686059
0.623418
0.559815
0.495411
0.430447
0.365361
0.30107
0.239106
0.182007
0.132055
0.0900689
0.0534159
0.0185768
1.52618
1.49351
1.45698
1.41719
1.37521
1.33126
1.28549
1.238
1.18882
1.13806
1.08573
1.03195
0.976752
0.920192
0.862303
0.803177
0.742867
0.681439
0.619005
0.555626
0.491471
0.426798
0.362054
0.298193
0.236769
0.180268
0.130966
0.0895455
0.0532696
0.0184572
1.51811
1.48595
1.44982
1.41038
1.36866
1.32491
1.27932
1.23198
1.18294
1.13232
1.08014
1.02649
0.971445
0.915038
0.857309
0.79835
0.738216
0.676965
0.614723
0.551555
0.487638
0.423246
0.358835
0.295401
0.234519
0.178613
0.129948
0.0890671
0.0531419
0.0183408
1.51043
1.47871
1.44294
1.40383
1.36237
1.31881
1.27338
1.22619
1.17729
1.1268
1.07476
1.02125
0.966337
0.910075
0.852499
0.793696
0.733729
0.672644
0.610582
0.547614
0.48392
0.419797
0.355714
0.292705
0.232361
0.177047
0.129001
0.0886329
0.0530325
0.0182282
1.50314
1.4718
1.43637
1.39755
1.35634
1.31296
1.26769
1.22064
1.17188
1.12151
1.0696
1.01621
0.961434
0.905308
0.847879
0.789223
0.72941
0.668484
0.606589
0.543812
0.480327
0.416461
0.352698
0.290116
0.230293
0.175568
0.128124
0.0882414
0.0529394
0.0181202
1.49625
1.46524
1.4301
1.39155
1.35057
1.30737
1.26225
1.21533
1.1667
1.11645
1.06466
1.01139
0.956739
0.900742
0.84345
0.784931
0.725262
0.664487
0.60275
0.540152
0.476863
0.413239
0.349792
0.287629
0.22832
0.174174
0.127313
0.0878904
0.0528608
0.0180172
1.48976
1.45902
1.42414
1.38584
1.34507
1.30203
1.25706
1.21026
1.16176
1.11161
1.05994
1.00679
0.952252
0.896377
0.839212
0.780818
0.721283
0.660651
0.59906
0.53663
0.473523
0.41013
0.346992
0.285235
0.226439
0.172863
0.126566
0.0875771
0.0527953
0.0179201
1.48368
1.45314
1.4185
1.38041
1.33985
1.29696
1.25213
1.20544
1.15705
1.10701
1.05545
1.0024
0.947976
0.892211
0.835162
0.776882
0.717468
0.656969
0.595513
0.533237
0.4703
0.407128
0.344292
0.282925
0.224646
0.171629
0.125878
0.087299
0.0527413
0.0178292
1.47799
1.44763
1.41319
1.37529
1.3349
1.29215
1.24746
1.20087
1.15259
1.10264
1.05118
0.99823
0.943909
0.888244
0.831296
0.773119
0.713814
0.653434
0.5921
0.529963
0.467185
0.404224
0.341689
0.280696
0.222935
0.170468
0.125246
0.0870539
0.052698
0.0177451
1.47271
1.44247
1.4082
1.37046
1.33025
1.28762
1.24305
1.19655
1.14837
1.0985
1.04714
0.994282
0.940051
0.884474
0.827613
0.769528
0.710317
0.650041
0.588812
0.5268
0.464175
0.401416
0.339164
0.278559
0.2213
0.169377
0.124668
0.08684
0.0526643
0.017668
1.46784
1.43768
1.40356
1.36595
1.32589
1.28337
1.23891
1.1925
1.1444
1.09461
1.04333
0.990558
0.936403
0.880903
0.824116
0.766108
0.706977
0.646788
0.58565
0.523749
0.461269
0.398704
0.336726
0.276503
0.21974
0.168355
0.124141
0.0866557
0.0526393
0.0175979
1.46338
1.43326
1.39926
1.36176
1.32182
1.2794
1.23504
1.1887
1.14069
1.09097
1.03976
0.987059
0.932969
0.877532
0.820807
0.762864
0.703797
0.643677
0.582618
0.520815
0.458473
0.39609
0.33438
0.274529
0.218255
0.1674
0.123664
0.0864992
0.0526215
0.0175347
1.45932
1.42921
1.39531
1.35788
1.31806
1.27572
1.23145
1.18518
1.13724
1.08758
1.03643
0.983788
0.929748
0.874365
0.81769
0.7598
0.700781
0.640716
0.579721
0.518006
0.455794
0.393582
0.332129
0.272639
0.216844
0.166512
0.123236
0.0863686
0.0526093
0.0174781
1.45568
1.42554
1.3917
1.35433
1.3146
1.27233
1.22814
1.18192
1.13405
1.08444
1.03334
0.980742
0.926743
0.871402
0.814767
0.756916
0.697933
0.637909