/*--------------------------------*- C++ -*----------------------------------*\
  =========                 |
  \\      /  F ield         | OpenFOAM: The Open Source CFD Toolbox
   \\    /   O peration     | Website:  https://openfoam.org
    \\  /    A nd           | Version:  7
     \\/     M anipulation  |
\*---------------------------------------------------------------------------*/
FoamFile
{
    version     2.0;
    format      ascii;
    class       volVectorField;
    location    "2.2";
    object      U;
}
// * * * * * * * * * * * * * * * * * * * * * * * * * * * * * * * * * * * * * //

dimensions      [0 1 -1 0 0 0 0];

internalField   nonuniform List<vector> 
18000
(
(-0.00185388 0.0631485 2.28982e-20)
(-0.00718003 0.14963 0)
(-0.0152777 0.208927 0)
(-0.0238151 0.24506 0)
(-0.0317844 0.263119 -7.56364e-21)
(-0.0381646 0.267628 3.82315e-20)
(-0.0422781 0.262147 -7.74355e-21)
(-0.0437339 0.249343 7.79683e-21)
(-0.0423623 0.231214 0)
(-0.0381658 0.209309 -2.35598e-20)
(-0.0312797 0.184903 -7.89463e-21)
(-0.0219342 0.159088 0)
(-0.0104297 0.132825 1.57274e-20)
(0.00288208 0.106954 1.57986e-20)
(0.0176268 0.0821932 -3.1501e-20)
(0.033428 0.0591274 -3.14238e-20)
(0.049915 0.0382037 0)
(0.0667387 0.0197258 -4.68667e-20)
(0.0835856 0.00386161 1.55488e-20)
(0.100183 -0.00933946 -4.64065e-20)
(0.116303 -0.0199312 1.53783e-20)
(0.131772 -0.0280494 0)
(0.14646 -0.0338897 -1.50919e-20)
(0.160278 -0.0376861 -1.50647e-20)
(0.173176 -0.0396925 0)
(0.185132 -0.0401653 0)
(0.196151 -0.0393507 -2.93482e-20)
(0.206267 -0.0374673 -2.90882e-20)
(0.21557 -0.0346184 -2.8931e-20)
(0.223921 -0.0305824 3.07572e-20)
(-0.0032325 0.0641027 3.24715e-20)
(-0.00968449 0.151851 5.66217e-20)
(-0.0175964 0.211985 -5.79722e-20)
(-0.0253253 0.248454 -5.91277e-20)
(-0.0320981 0.266309 -1.50615e-20)
(-0.0370907 0.270119 4.55601e-20)
(-0.0397394 0.263535 -6.1507e-20)
(-0.0397172 0.249316 -6.19864e-20)
(-0.0368861 0.229564 6.23397e-20)
(-0.0312746 0.205922 6.26347e-20)
(-0.0230455 0.179747 -3.1315e-20)
(-0.0124456 0.1522 -6.28097e-20)
(0.000210967 0.124306 -3.15727e-20)
(0.0145533 0.0969567 6.27595e-20)
(0.0301942 0.0709137 -6.26084e-20)
(0.046746 0.0467912 6.27111e-20)
(0.0638279 0.0250529 -1.24847e-19)
(0.0810876 0.00600637 9.33259e-20)
(0.0982146 -0.0101856 -6.17579e-20)
(0.114943 -0.0234907 3.08919e-20)
(0.131058 -0.0339859 -6.10764e-20)
(0.146397 -0.0418368 0)
(0.160848 -0.0472701 3.05518e-20)
(0.17434 -0.0505503 -5.9918e-20)
(0.186841 -0.0519614 5.93528e-20)
(0.198348 -0.0517876 0)
(0.208884 -0.0502946 -2.90132e-20)
(0.218489 -0.0477239 2.88644e-20)
(0.22727 -0.0441914 1.14739e-19)
(0.235114 -0.0394704 6.09056e-20)
(-0.0046476 0.0646144 -5.21109e-20)
(-0.0122635 0.153214 -5.66202e-20)
(-0.0199627 0.214072 8.69085e-20)
(-0.0268086 0.250893 1.474e-19)
(-0.0322689 0.268631 0)
(-0.0357231 0.27186 -6.088e-20)
(-0.0367314 0.264294 6.15042e-20)
(-0.0350414 0.248791 1.854e-19)
(-0.0305653 0.227547 -6.23365e-20)
(-0.0233664 0.202289 -6.25812e-20)
(-0.0136286 0.174458 1.87576e-19)
(-0.00162577 0.145294 6.28062e-20)
(0.0123048 0.115878 0)
(0.0277767 0.0871565 -1.2542e-19)
(0.0443834 0.0599326 1.87087e-19)
(0.0617253 0.0348508 -6.20475e-20)
(0.0794157 0.0123902 6.22863e-20)
(0.0970992 -0.00713854 6.19541e-20)
(0.11447 -0.0235797 2.6638e-22)
(0.131274 -0.0369189 0)
(0.14731 -0.0472593 1.83036e-19)
(0.162435 -0.0547964 -1.20854e-19)
(0.176559 -0.0597878 6.0264e-20)
(0.189631 -0.0625293 0)
(0.201641 -0.0633344 -5.93503e-20)
(0.212608 -0.0625126 2.34554e-19)
(0.222569 -0.0603541 -1.7394e-19)
(0.231582 -0.057117 -5.78401e-20)
(0.239765 -0.0529297 5.66416e-20)
(0.247029 -0.0475727 6.05106e-20)
(-0.00606641 0.0647837 0)
(-0.0148719 0.153913 2.81411e-20)
(-0.02237 0.215315 2.45426e-23)
(-0.0282806 0.252444 -1.47124e-19)
(-0.0323241 0.270101 0)
(-0.0341035 0.272837 -1.2073e-19)
(-0.0333127 0.264411 0)
(-0.0297855 0.247754 -1.85001e-19)
(-0.0234917 0.225143 6.18787e-20)
(-0.014535 0.198405 -1.23957e-19)
(-0.00313282 0.169055 -1.24836e-19)
(0.0104117 0.1384 -6.23743e-20)
(0.0257327 0.107587 6.22516e-20)
(0.0424227 0.0776149 6.18267e-20)
(0.0600595 0.0493281 -6.25455e-20)
(0.0782281 0.0234 -1.23388e-19)
(0.0965326 0.000321891 1.23335e-19)
(0.11462 -0.0195932 0)
(0.132193 -0.0361979 0)
(0.149013 -0.0494977 0)
(0.164896 -0.059624 0)
(0.179723 -0.0668016 0)
(0.193429 -0.07132 0)
(0.20599 -0.0735067 -1.18249e-19)
(0.217418 -0.0737027 -1.17797e-19)
(0.227756 -0.072242 -4.70502e-22)
(0.237064 -0.0694375 -1.15581e-19)
(0.245413 -0.0655609 -4.37551e-22)
(0.25293 -0.0607581 -1.14357e-19)
(0.25955 -0.0548191 2.40198e-19)
(-0.00748175 0.0645742 0)
(-0.0174962 0.153804 2.51617e-19)
(-0.0247912 0.21558 2.55871e-23)
(-0.0297346 0.252981 -8.77753e-20)
(-0.0322925 0.270615 2.9679e-19)
(-0.0322834 0.272968 1.80978e-19)
(-0.0295521 0.263811 1.82002e-19)
(-0.0240343 0.246142 0)
(-0.0157623 0.222322 0)
(-0.00488966 0.194253 1.85806e-19)
(0.0083227 0.163529 7.1952e-23)
(0.0235366 0.131529 -4.33365e-19)
(0.0403566 0.0994616 3.71071e-19)
(0.0583501 0.0683781 -1.24135e-19)
(0.0770726 0.0391631 1.22701e-19)
(0.0960931 0.0125136 1.23239e-19)
(0.115011 -0.0110657 -1.22254e-19)
(0.133478 -0.03126 1.22469e-19)
(0.151209 -0.0479351 2.43086e-19)
(0.16798 -0.0611187 -1.20909e-19)
(0.183633 -0.07097 -2.4004e-19)
(0.198078 -0.0777449 2.38501e-19)
(0.211279 -0.0817637 -2.36848e-19)
(0.223241 -0.0833846 1.18244e-19)
(0.234004 -0.0829758 0)
(0.243635 -0.0808939 0)
(0.252215 -0.0774709 9.13222e-22)
(0.259835 -0.0729946 -4.54995e-19)
(0.26663 -0.0676248 2.25164e-19)
(0.272556 -0.0611657 -2.3862e-19)
(-0.00886331 0.0640158 0)
(-0.0200917 0.152981 -2.23592e-19)
(-0.0272122 0.214934 2.27984e-19)
(-0.0311786 0.252535 0)
(-0.0321924 0.270171 -4.73693e-19)
(-0.0303065 0.272225 -5.99916e-20)
(-0.0255177 0.26246 -1.21672e-19)
(-0.0178678 0.243925 -6.10002e-20)
(-0.00747206 0.219048 0)
(0.00545695 0.189805 -1.23101e-19)
(0.0206131 0.157867 1.23218e-19)
(0.0376162 0.124683 2.47314e-19)
(0.0560327 0.0915196 -2.47215e-19)
(0.0754015 0.0594794 0)
(0.0952548 0.0294834 -2.46389e-19)
(0.115146 0.00225206 2.44316e-19)
(0.13467 -0.021699 2.44865e-19)
(0.153486 -0.042057 3.64206e-19)
(0.171322 -0.0587036 -3.63561e-19)
(0.187979 -0.071691 4.81092e-19)
(0.203326 -0.0812065 2.39655e-19)
(0.217307 -0.0875369 -2.3849e-19)
(0.22992 -0.0910342 4.72268e-19)
(0.241201 -0.0920853 0)
(0.251221 -0.0910827 2.31836e-19)
(0.260075 -0.0884053 4.60755e-19)
(0.267864 -0.0843998 -2.26996e-19)
(0.2747 -0.0793692 2.27255e-19)
(0.280725 -0.0734871 -5.03878e-22)
(0.285917 -0.066577 -2.37195e-19)
(-0.0101978 0.0631326 -2.55362e-20)
(-0.0226353 0.151439 0)
(-0.0296062 0.213352 -2.84882e-19)
(-0.0326013 0.251074 5.79843e-20)
(-0.0320438 0.268721 1.7736e-19)
(-0.0282107 0.270554 5.96996e-20)
(-0.0212637 0.260306 2.40707e-19)
(-0.0113667 0.241051 0)
(0.00127777 0.215275 1.22103e-19)
(0.0163916 0.185028 1.21903e-19)
(0.0336111 0.15205 -1.2271e-19)
(0.0525064 0.117853 3.67406e-19)
(0.0726041 0.0837663 0)
(0.0934098 0.0509382 0)
(0.114428 0.0203229 3.65946e-19)
(0.135198 -0.00733832 -6.08888e-19)
(0.155313 -0.0315215 2.42054e-19)
(0.17444 -0.0519206 -2.42443e-19)
(0.192327 -0.0684355 -2.39889e-19)
(0.2088 -0.081144 -7.18254e-19)
(0.223767 -0.0902632 -1.03407e-21)
(0.237206 -0.0961104 2.3566e-19)
(0.249152 -0.0990685 -4.69435e-19)
(0.25968 -0.0995517 2.32266e-19)
(0.26889 -0.0979746 -1.40111e-21)
(0.276905 -0.0947335 -2.29904e-19)
(0.283853 -0.0901892 2.27912e-19)
(0.28986 -0.0846558 0)
(0.29508 -0.0783207 2.22374e-19)
(0.299509 -0.0710305 3.46425e-22)
(-0.0114675 0.0619487 -5.08448e-20)
(-0.0250967 0.149222 5.5325e-20)
(-0.0319547 0.210865 -3.39314e-19)
(-0.0339981 0.248595 -1.72857e-19)
(-0.031856 0.266248 2.34358e-19)
(-0.0260292 0.267926 -3.56315e-19)
(-0.0168492 0.257305 -1.2063e-19)
(-0.00460814 0.237471 -2.41349e-19)
(0.0103939 0.21096 2.42488e-19)
(0.0278015 0.179884 -4.87499e-19)
(0.0471862 0.146046 -2.43496e-19)
(0.0680639 0.111022 -1.23778e-21)
(0.0899144 0.0761957 1.2206e-19)
(0.112204 0.0427604 -3.64551e-19)
(0.13441 0.0116988 -4.85924e-19)
(0.156056 -0.0162293 3.86059e-22)
(0.176737 -0.0404957 -9.92749e-22)
(0.196131 -0.0608064 2.39641e-19)
(0.214009 -0.0770826 2.39877e-19)
(0.230231 -0.0894287 3.82214e-22)
(0.244743 -0.0980919 -6.29294e-22)
(0.257566 -0.103421 2.33235e-19)
(0.268775 -0.105828 2.34005e-19)
(0.278483 -0.10575 -4.45821e-22)
(0.286826 -0.103624 -6.89834e-19)
(0.293956 -0.0998579 4.54657e-19)
(0.300021 -0.0948245 4.5202e-19)
(0.305169 -0.088845 -4.4712e-19)
(0.309561 -0.0821203 -2.22367e-19)
(0.313211 -0.0745228 -2.32188e-19)
(-0.012661 0.0605008 -4.54691e-19)
(-0.027452 0.146371 -5.50894e-20)
(-0.0342342 0.207502 2.82407e-19)
(-0.0353565 0.245114 2.30591e-19)
(-0.0316352 0.262744 -2.34351e-19)
(-0.0237885 0.26431 2.37356e-19)
(-0.0123205 0.253416 -1.19579e-19)
(0.00234129 0.233142 3.6174e-19)
(0.0197892 0.206057 -2.42477e-19)
(0.0395817 0.174329 2.43164e-19)
(0.0612177 0.139818 1.22001e-19)
(0.0841516 0.10416 -1.22096e-19)
(0.10781 0.0687895 -7.26886e-19)
(0.131617 0.0349373 4.84914e-19)
(0.155019 0.00361364 2.4228e-19)
(0.177528 -0.0244078 0)
(0.19874 -0.0486018 0)
(0.218348 -0.0686898 -2.36523e-21)
(0.236152 -0.0846172 -2.36724e-19)
(0.252053 -0.0965169 0)
(0.266039 -0.104667 0)
(0.278177 -0.109447 -2.34237e-19)
(0.288585 -0.111296 0)
(0.297419 -0.110672 -4.58893e-19)
(0.30485 -0.108026 0)
(0.311059 -0.103779 -2.27089e-19)
(0.316217 -0.0983104 4.49183e-19)
(0.320487 -0.0919464 -4.44315e-19)
(0.324041 -0.0848977 0)
(0.32691 -0.0770663 0)
(-0.0137686 0.0588228 4.04068e-19)
(-0.0296785 0.142941 0)
(-0.0364207 0.203308 -5.61863e-20)
(-0.0366599 0.240655 5.72535e-20)
(-0.0313786 0.258208 -3.48341e-19)
(-0.0215029 0.25969 4.92512e-23)
(-0.00771092 0.248609 -1.19052e-19)
(0.00942836 0.228022 0)
(0.0293915 0.200522 0)
(0.051642 0.168318 -1.2074e-19)
(0.0755984 0.133326 1.20854e-19)
(0.100646 0.0972337 -2.41776e-19)
(0.12615 0.0615202 2.43754e-19)
(0.151491 0.0274512 0)
(0.176084 -0.00394094 0)
(0.199428 -0.0318754 0)
(0.221124 -0.055836 2.36997e-19)
(0.240885 -0.0755641 -1.34874e-21)
(0.258546 -0.0910314 2.38072e-19)
(0.274053 -0.102402 -4.6883e-19)
(0.287444 -0.109985 2.33968e-19)
(0.298832 -0.11419 -1.15957e-18)
(0.308387 -0.115478 8.32981e-22)
(0.316302 -0.114326 4.58877e-19)
(0.322789 -0.111196 -1.83911e-21)
(0.328054 -0.106518 4.49513e-19)
(0.332292 -0.100672 -4.44567e-19)
(0.335681 -0.0939879 -4.42214e-19)
(0.3384 -0.0866819 1.07409e-21)
(0.340497 -0.0786889 -4.56112e-19)
(-0.014783 0.0569524 -5.01788e-20)
(-0.0317556 0.138993 0)
(-0.0384887 0.19834 1.11905e-19)
(-0.037885 0.235254 -1.1403e-19)
(-0.0310725 0.252656 1.04371e-18)
(-0.0191726 0.25406 4.54747e-23)
(-0.00303743 0.242861 -1.18554e-19)
(0.0166185 0.222078 1.19351e-19)
(0.0391491 0.194312 -5.98427e-19)
(0.0639136 0.161809 0)
(0.0902413 0.126528 0)
(0.11744 0.0902042 -2.39257e-19)
(0.144813 0.0543558 2.41468e-19)
(0.171685 0.0202777 -2.39854e-19)
(0.197446 -0.0109828 2.38828e-19)
(0.221582 -0.0386454 0)
(0.243701 -0.0622085 -9.49144e-19)
(0.263544 -0.0814376 4.71124e-19)
(0.280987 -0.0963344 2.35331e-19)
(0.296026 -0.107096 7.01487e-19)
(0.308753 -0.114064 0)
(0.319336 -0.117672 4.62878e-19)
(0.32799 -0.118403 4.57701e-19)
(0.334957 -0.116746 4.54182e-19)
(0.340478 -0.113173 -2.7894e-21)
(0.344791 -0.108116 -4.4574e-19)
(0.34811 -0.101954 4.44556e-19)
(0.350627 -0.095014 0)
(0.352529 -0.0875174 1.1171e-21)
(0.353875 -0.0794327 9.08975e-19)
(-0.0157007 0.0549286 -3.98854e-19)
(-0.0336657 0.134593 0)
(-0.0404109 0.192662 -4.44573e-19)
(-0.0390017 0.228962 -5.67271e-19)
(-0.0306906 0.246118 -3.47466e-19)
(-0.0167813 0.247428 1.16969e-19)
(0.00170375 0.236162 -2.02983e-24)
(0.0239011 0.215285 -1.18872e-19)
(0.049035 0.187396 2.05931e-21)
(0.0763524 0.154764 2.39251e-19)
(0.105085 0.119386 2.38329e-19)
(0.134456 0.0830349 -2.37105e-19)
(0.163697 0.0472641 2.38913e-19)
(0.192081 0.0133888 -7.14287e-19)
(0.218966 -0.017536 7.11861e-19)
(0.24383 -0.0447389 4.72601e-19)
(0.266296 -0.0677393 1.18015e-18)
(0.286139 -0.0863318 -2.37234e-19)
(0.303283 -0.100552 -4.66073e-19)
(0.317778 -0.11063 -2.6728e-21)
(0.329777 -0.116938 -4.62399e-19)
(0.339503 -0.119934 1.37486e-18)
(0.347223 -0.120116 -9.13551e-19)
(0.353218 -0.117985 9.01939e-19)
(0.357769 -0.114013 -4.49584e-19)
(0.361135 -0.108631 8.88666e-19)
(0.363549 -0.102215 1.73117e-21)
(0.365217 -0.0950839 -8.72407e-19)
(0.366328 -0.0874619 8.62314e-19)
(0.366957 -0.0793522 4.48765e-19)
(-0.0165206 0.0527897 3.98853e-19)
(-0.0353936 0.129809 0)
(-0.042158 0.186346 9.98295e-19)
(-0.0399723 0.221839 3.40493e-19)
(-0.0301936 0.238636 0)
(-0.0142935 0.239816 0)
(0.00653949 0.228514 0)
(0.0312915 0.207633 0)
(0.0590512 0.179752 2.38789e-19)
(0.0889446 0.147154 2.38278e-19)
(0.120098 0.111867 -4.77788e-19)
(0.151641 0.075696 4.77504e-19)
(0.182728 0.0402168 7.12356e-19)
(0.212578 0.00675856 2.38526e-19)
(0.240521 -0.0236257 2.34285e-19)
(0.266031 -0.0501813 -7.08052e-19)
(0.288751 -0.0724558 -9.3878e-19)
(0.3085 -0.0902778 -4.68475e-19)
(0.325256 -0.10372 4.66055e-19)
(0.339131 -0.113047 -9.25999e-19)
(0.350341 -0.11866 4.58622e-19)
(0.359166 -0.121035 -9.13889e-19)
(0.365926 -0.120683 4.51275e-19)
(0.370942 -0.11811 -1.87609e-21)
(0.374527 -0.113787 -4.44994e-19)
(0.376963 -0.108137 -8.84803e-19)
(0.3785 -0.101528 8.76101e-19)
(0.379353 -0.0942693 0)
(0.379714 -0.0865848 -1.15648e-21)
(0.379668 -0.0785127 -8.946e-19)
(-0.0172442 0.0505725 4.95407e-20)
(-0.0369264 0.124711 0)
(-0.0436988 0.17947 -4.42739e-19)
(-0.0407515 0.213956 1.12761e-19)
(-0.0295283 0.230266 -1.14493e-19)
(-0.0116546 0.231261 0)
(0.0115215 0.219939 -1.17086e-19)
(0.0388339 0.199126 1.17888e-19)
(0.0692302 0.171373 2.36613e-19)
(0.101708 0.138967 -7.10554e-19)
(0.135278 0.103956 -2.3724e-19)
(0.16897 0.0681681 1.02144e-24)
(0.201857 0.0331941 -1.08662e-21)
(0.233103 0.000366492 -4.72156e-19)
(0.262011 -0.0292735 -2.36639e-19)
(0.28806 -0.0549975 0)
(0.310925 -0.0763879 7.74481e-22)
(0.330474 -0.0933132 4.659e-19)
(0.346747 -0.105886 -4.61637e-19)
(0.359925 -0.114404 0)
(0.370288 -0.119293 0)
(0.378178 -0.121047 0)
(0.383961 -0.120183 0)
(0.388001 -0.117205 -2.72665e-21)
(0.390638 -0.11258 0)
(0.392176 -0.106719 0)
(0.392875 -0.0999776 4.33328e-19)
(0.392957 -0.0926523 4.29179e-19)
(0.392616 -0.0849645 4.26586e-19)
(0.391946 -0.076988 -1.23576e-21)
(-0.0178747 0.0483109 4.93336e-20)
(-0.0382529 0.119368 -1.07452e-19)
(-0.0449999 0.172115 6.59136e-19)
(-0.0412861 0.205394 -1.12169e-19)
(-0.0286278 0.221076 1.14122e-19)
(-0.0087899 0.221818 3.60892e-23)
(0.0167259 0.210475 3.48943e-19)
(0.0466006 0.189788 -4.68558e-19)
(0.0796351 0.16227 7.05982e-19)
(0.114691 0.130205 1.01099e-21)
(0.150654 0.095651 -2.35074e-19)
(0.186446 0.0604468 4.70867e-19)
(0.221057 0.0261893 -4.69935e-19)
(0.253598 -0.0057971 4.68652e-19)
(0.283352 -0.0344943 0)
(0.309812 -0.0592095 4.65247e-19)
(0.332693 -0.0795674 0)
(0.351923 -0.0954812 2.48704e-21)
(0.367613 -0.107104 -4.58324e-19)
(0.380017 -0.114766 -4.55554e-19)
(0.389482 -0.118914 4.52557e-19)
(0.396409 -0.120054 -4.49341e-19)
(0.401212 -0.118705 -4.45919e-19)
(0.404291 -0.115365 -8.87323e-19)
(0.406011 -0.110488 -4.38528e-19)
(0.40669 -0.104472 4.36271e-19)
(0.4066 -0.0976558 -8.64955e-19)
(0.405966 -0.0903217 -4.29172e-19)
(0.404979 -0.0826859 0)
(0.403741 -0.0748569 -4.41283e-19)
(-0.0184169 0.0460357 0)
(-0.0393629 0.113843 4.26883e-19)
(-0.0460252 0.164365 -3.29491e-19)
(-0.0415159 0.19624 -5.57975e-19)
(-0.0274122 0.211149 0)
(-0.00560627 0.211556 0)
(0.0222522 0.200178 -6.97819e-19)
(0.0546902 0.179662 9.35314e-19)
(0.0903565 0.152478 -7.0399e-19)
(0.127968 0.120895 0)
(0.166277 0.0869716 2.36249e-19)
(0.204093 0.0525474 -2.35908e-19)
(0.240321 0.0192126 2.1969e-21)
(0.274023 -0.0117289 -2.36102e-19)
(0.304474 -0.0392939 -2.31908e-19)
(0.331191 -0.0628346 -2.355e-21)
(0.353942 -0.082025 4.60754e-19)
(0.372726 -0.096827 4.60852e-19)
(0.387731 -0.107434 8.04066e-22)
(0.399286 -0.114207 9.09352e-19)
(0.407809 -0.117608 -9.04223e-19)
(0.413756 -0.11815 8.96917e-19)
(0.417586 -0.116349 4.4591e-19)
(0.419729 -0.11269 4.423e-19)
(0.420572 -0.107612 2.7195e-21)
(0.420445 -0.101496 0)
(0.419623 -0.0946599 4.29392e-19)
(0.418333 -0.0873702 -1.27512e-18)
(0.416761 -0.0798365 4.18523e-19)
(0.415017 -0.0722014 4.37553e-19)
(-0.0188761 0.0437734 -2.92745e-19)
(-0.0402464 0.108199 -9.58589e-19)
(-0.0467367 0.156301 -1.52827e-22)
(-0.0413743 0.186585 1.67075e-21)
(-0.0257904 0.200574 -3.38658e-19)
(-0.00199462 0.200561 0)
(0.0282195 0.189123 -2.30473e-19)
(0.0632232 0.168814 -1.39691e-18)
(0.101507 0.142053 7.02193e-19)
(0.141634 0.111086 -4.67174e-19)
(0.182216 0.0779607 7.01197e-19)
(0.221947 0.0445062 -2.33887e-19)
(0.259649 0.0122923 4.6771e-19)
(0.294346 -0.017411 -1.16323e-18)
(0.325315 -0.0436675 6.96463e-19)
(0.352113 -0.0658838 -8.39788e-22)
(0.374573 -0.0837897 -1.37832e-18)
(0.392776 -0.0973977 4.57578e-19)
(0.406993 -0.106941 -4.5415e-19)
(0.417631 -0.112804 0)
(0.425176 -0.115465 4.47392e-19)
(0.430137 -0.115434 0)
(0.433011 -0.113218 -4.4226e-19)
(0.434256 -0.109287 4.3792e-19)
(0.434273 -0.104059 4.35796e-19)
(0.433399 -0.0978931 4.29117e-19)
(0.431908 -0.0910883 0)
(0.430028 -0.0838912 0)
(0.427937 -0.0765041 -8.38987e-19)
(0.42575 -0.0691028 1.30092e-18)
(-0.0192573 0.0415451 2.93064e-19)
(-0.0408931 0.102487 5.31099e-19)
(-0.0470936 0.148002 -4.33764e-19)
(-0.0407892 0.176521 8.87095e-19)
(-0.0236622 0.189451 1.14582e-19)
(0.00216628 0.188928 1.14174e-19)
(0.0347613 0.177401 1.83137e-21)
(0.0723351 0.157329 -4.61732e-19)
(0.113213 0.131075 -2.31607e-19)
(0.155795 0.100851 2.02554e-21)
(0.198548 0.0686848 -2.06997e-21)
(0.240049 0.0363812 -6.97165e-19)
(0.279046 0.00547513 -2.3111e-19)
(0.314537 -0.0228115 2.20489e-21)
(0.345817 -0.0476014 4.60208e-19)
(0.372499 -0.0683639 4.58226e-19)
(0.394498 -0.0848898 2.35059e-21)
(0.411982 -0.0972421 -4.53554e-19)
(0.425311 -0.105691 4.5248e-19)
(0.434972 -0.110643 -4.48825e-19)
(0.441513 -0.11258 -8.92229e-19)
(0.445493 -0.112009 -4.43133e-19)
(0.447442 -0.10942 8.76915e-19)
(0.447836 -0.105264 0)
(0.447085 -0.0999338 -4.30399e-19)
(0.445528 -0.0937667 -8.55515e-19)
(0.443438 -0.0870382 -8.47683e-19)
(0.441035 -0.0799759 4.2043e-19)
(0.438492 -0.0727736 -1.24716e-18)
(0.435927 -0.0656399 4.31282e-19)
(-0.019565 0.0393667 -4.84508e-19)
(-0.0412914 0.0967561 1.0553e-19)
(-0.0470533 0.13954 4.33768e-19)
(-0.0396849 0.166142 -3.3215e-19)
(-0.0209219 0.177882 1.13175e-19)
(0.00700498 0.176767 -5.37069e-23)
(0.0420189 0.165121 1.14729e-18)
(0.0821678 0.145313 4.62737e-19)
(0.125603 0.119644 4.64421e-19)
(0.170556 0.090286 6.97067e-19)
(0.215343 0.0592319 -6.97226e-19)
(0.258432 0.0282493 4.64439e-19)
(0.298507 -0.00117712 9.25645e-19)
(0.334558 -0.0278877 4.6084e-19)
(0.365919 -0.0510748 -9.23578e-22)
(0.392275 -0.0702783 -9.1509e-19)
(0.413635 -0.0853527 9.11139e-19)
(0.430264 -0.0964108 1.51021e-21)
(0.442614 -0.103755 -4.50001e-19)
(0.451248 -0.107807 4.46367e-19)
(0.456774 -0.10905 4.44838e-19)
(0.45979 -0.107978 -4.38931e-19)
(0.460853 -0.105062 -8.74909e-19)
(0.460452 -0.100726 -5.33083e-22)
(0.458999 -0.0953409 4.31476e-19)
(0.45683 -0.0892153 4.26399e-19)
(0.454211 -0.0826025 8.4219e-19)
(0.451354 -0.0757107 -8.30347e-19)
(0.448425 -0.0687249 0)
(0.445543 -0.0618864 4.28575e-19)
(-0.0198022 0.0372489 1.61684e-21)
(-0.0414281 0.0910424 0)
(-0.0465716 0.130983 -3.22337e-19)
(-0.037984 0.155537 -1.09897e-19)
(-0.0174619 0.165976 -4.46225e-19)
(0.0126515 0.164193 0)
(0.0501333 0.152405 -6.86375e-19)
(0.0928599 0.132888 2.29978e-19)
(0.138801 0.107881 0)
(0.186011 0.0795059 -4.61045e-19)
(0.232661 0.0497086 0)
(0.277115 0.0202035 -6.90783e-19)
(0.318015 -0.00759002 6.89167e-19)
(0.354364 -0.0325879 -4.59721e-19)
(0.385556 -0.0540623 -4.55727e-19)
(0.411368 -0.0716293 0)
(0.431912 -0.0852076 0)
(0.447559 -0.0949567 4.50282e-19)
(0.45885 -0.101206 6.27864e-22)
(0.466421 -0.104385 4.43643e-19)
(0.470932 -0.104973 -4.40736e-19)
(0.473015 -0.103445 8.76848e-19)
(0.473243 -0.100249 -4.33779e-19)
(0.472111 -0.0957792 0)
(0.470026 -0.0903792 1.2809e-18)
(0.467317 -0.0843323 -2.11041e-18)
(0.46424 -0.0778679 4.19213e-19)
(0.460997 -0.0711751 4.15347e-19)
(0.457745 -0.0644308 4.08332e-19)
(0.454606 -0.0579094 8.48758e-19)
(-0.0199698 0.0351973 -3.82515e-19)
(-0.0412882 0.0853766 8.36225e-19)
(-0.0456033 0.122391 4.30195e-19)
(-0.0356096 0.144793 9.83908e-19)
(-0.013177 0.153838 1.22366e-18)
(0.019231 0.151329 2.25442e-19)
(0.0592371 0.139382 -1.13566e-18)
(0.104537 0.120191 0)
(0.152909 0.0959223 -9.16739e-19)
(0.20223 0.0686419 -4.56904e-19)
(0.250531 0.0402353 0)
(0.296092 0.0123477 -4.55957e-19)
(0.337532 -0.0136819 -1.10636e-21)
(0.373894 -0.0368575 -1.36716e-18)
(0.404656 -0.0565387 4.55721e-19)
(0.429703 -0.0724212 4.52722e-19)
(0.449263 -0.0844863 -8.97596e-19)
(0.463813 -0.0929352 -8.95239e-19)
(0.473982 -0.0981172 -5.58765e-22)
(0.480471 -0.100466 -1.51498e-21)
(0.483983 -0.100446 0)
(0.485175 -0.0985118 -4.35332e-19)
(0.484628 -0.0950805 -4.29114e-19)
(0.482834 -0.0905194 0)
(0.480192 -0.0851414 0)
(0.477016 -0.0792036 1.26071e-18)
(0.473551 -0.0729126 -1.24229e-18)
(0.469986 -0.06644 0)
(0.46647 -0.0599553 1.21712e-18)
(0.46313 -0.053767 -8.42618e-19)
(-0.0200669 0.0332127 3.36716e-21)
(-0.0408542 0.0797804 -8.36067e-19)
(-0.0441034 0.113814 -1.06793e-19)
(-0.0324879 0.13399 -1.09257e-18)
(-0.00796862 0.141573 -6.6712e-19)
(0.0268571 0.138298 2.2447e-19)
(0.0694455 0.126191 4.55113e-19)
(0.1173 0.107364 1.13753e-18)
(0.168002 0.0839129 9.16735e-19)
(0.219253 0.0578344 9.17937e-19)
(0.268955 0.03094 0)
(0.315327 0.00479028 4.26969e-21)
(0.356997 -0.0193703 0)
(0.393074 -0.0406436 9.10683e-19)
(0.423142 -0.0584829 0)
(0.447212 -0.0726636 -4.50427e-19)
(0.465634 -0.0832258 4.52308e-19)
(0.478989 -0.0904058 0)
(0.487991 -0.0945662 0)
(0.493397 -0.0961365 -1.31575e-18)
(0.495942 -0.0955631 4.35787e-19)
(0.496296 -0.0932735 0)
(0.495043 -0.0896532 8.57363e-19)
(0.492662 -0.0850381 8.52677e-19)
(0.489538 -0.079712 -1.68436e-18)
(0.485968 -0.0739062 1.66809e-18)
(0.482181 -0.0678055 2.93534e-21)
(0.478354 -0.0615661 8.14606e-19)
(0.474628 -0.0553519 -8.11298e-19)
(0.471134 -0.0495072 0)
(-0.0200897 0.031292 9.55956e-19)
(-0.0401065 0.0742676 -1.03765e-19)
(-0.0420278 0.105295 -8.49461e-19)
(-0.0285503 0.123199 0)
(-0.00174947 0.129281 -8.81034e-19)
(0.0356258 0.125221 0)
(0.0808491 0.112967 -1.12552e-18)
(0.13122 0.0945548 -6.82569e-19)
(0.184119 0.0720023 -9.08408e-19)
(0.23708 0.0472267 0)
(0.287897 0.0219511 2.27697e-19)
(0.334755 -0.00236286 2.31455e-19)
(0.376326 -0.0245774 -4.53803e-19)
(0.411814 -0.0439004 -9.01913e-19)
(0.440933 -0.0598813 -4.47841e-19)
(0.463829 -0.0723729 -1.78974e-18)
(0.480978 -0.0814679 8.931e-19)
(0.493065 -0.0874307 -3.91097e-22)
(0.500876 -0.0906297 -4.19972e-22)
(0.505215 -0.0914837 1.31284e-18)
(0.506839 -0.0904156 0)
(0.506422 -0.0878219 0)
(0.504537 -0.0840547 -2.25014e-21)
(0.501648 -0.079418 2.94357e-21)
(0.498118 -0.0741666 -8.34311e-19)
(0.494225 -0.068507 -8.29019e-19)
(0.490178 -0.0626047 2.40293e-21)
(0.486142 -0.0566027 -8.14611e-19)
(0.482251 -0.0506625 -8.03495e-19)
(0.478647 -0.0451663 2.5601e-21)
(-0.020032 0.0294283 0)
(-0.0390234 0.0688453 8.25447e-19)
(-0.039334 0.0968689 7.43447e-19)
(-0.023736 0.112488 1.0804e-19)
(0.00555316 0.117056 1.75816e-18)
(0.0456103 0.112217 -2.2248e-19)
(0.093508 0.0998489 1.7962e-18)
(0.146331 0.0819106 9.01461e-19)
(0.201258 0.0603385 1.36154e-18)
(0.255671 0.0369585 6.78207e-19)
(0.307282 0.0133911 2.26619e-19)
(0.354283 -0.00901411 1.13363e-18)
(0.395418 -0.0292359 -2.52574e-22)
(0.430019 -0.0465928 4.51972e-19)
(0.457948 -0.0607302 8.98091e-19)
(0.479496 -0.0715733 8.93713e-19)
(0.495265 -0.0792602 0)
(0.506034 -0.0840748 0)
(0.512653 -0.0863846 0)
(0.515961 -0.0865911 0)
(0.516723 -0.0850893 8.59534e-19)
(0.515608 -0.0822417 0)
(0.513172 -0.0783659 -2.86902e-21)
(0.509856 -0.0737338 1.67645e-18)
(0.505996 -0.0685718 8.31453e-19)
(0.501847 -0.0630633 8.23282e-19)
(0.497598 -0.0573572 1.63036e-18)
(0.493399 -0.0515864 0)
(0.489378 -0.0459151 -1.59382e-18)
(0.485699 -0.0407669 1.65712e-18)
(-0.0198853 0.027612 7.54963e-19)
(-0.0375813 0.0635144 -8.25465e-19)
(-0.0359828 0.0885627 0)
(-0.0179937 0.101912 -8.5915e-19)
(0.0139943 0.104986 -2.22816e-19)
(0.0568575 0.0993968 -6.62471e-19)
(0.107447 0.0869652 -2.01111e-18)
(0.162624 0.0695711 -4.01322e-21)
(0.219374 0.0490617 -6.74173e-19)
(0.274945 0.0271598 -1.58047e-18)
(0.327006 0.00537081 -2.25815e-19)
(0.37379 -0.0150792 -8.98854e-19)
(0.414157 -0.0332921 -8.96345e-19)
(0.447589 -0.0486988 0)
(0.474111 -0.0610372 -8.89148e-19)
(0.494166 -0.0702977 -1.32817e-18)
(0.508475 -0.0766552 4.40851e-19)
(0.517903 -0.080405 -8.73974e-19)
(0.523352 -0.0819066 -8.67916e-19)
(0.52568 -0.0815388 0)
(0.525652 -0.0796647 -1.71405e-18)
(0.523922 -0.0766112 0)
(0.52102 -0.0726604 -1.68733e-18)
(0.517358 -0.0680522 -8.34669e-19)
(0.513245 -0.0629859 -1.65286e-18)
(0.508905 -0.0576238 8.18431e-19)
(0.504507 -0.0521 -2.42957e-18)
(0.500181 -0.0465416 7.98864e-19)
(0.496054 -0.0411233 5.16834e-21)
(0.492325 -0.0363147 -8.22891e-19)
(-0.0196386 0.025832 -7.54979e-19)
(-0.0357558 0.0582725 1.02565e-19)
(-0.0319386 0.0803976 7.33203e-19)
(-0.0112832 0.0915229 8.59166e-19)
(0.0236093 0.0931473 -8.73141e-19)
(0.0693859 0.0868648 4.17727e-21)
(0.122657 0.0744375 8.91782e-19)
(0.180054 0.0576661 -1.78954e-18)
(0.238381 0.0382996 -2.19863e-19)
(0.294786 0.0179462 2.02218e-18)
(0.346934 -0.00201546 -1.34491e-18)
(0.393143 -0.020491 2.24189e-18)
(0.43242 -0.0367091 2.23524e-18)
(0.464425 -0.0502112 -4.45538e-19)
(0.489356 -0.0608215 8.89156e-19)
(0.507805 -0.0685868 1.32587e-18)
(0.520606 -0.0737096 4.3635e-19)
(0.528697 -0.0764887 4.75079e-21)
(0.533016 -0.0772691 4.35067e-19)
(0.534431 -0.076402 4.2937e-19)
(0.533695 -0.0742164 -4.21052e-19)
(0.531438 -0.0710018 4.22246e-19)
(0.528158 -0.0670048 -8.3446e-19)
(0.524235 -0.0624337 8.31839e-19)
(0.519943 -0.0574615 5.30974e-21)
(0.515478 -0.0522302 8.10285e-19)
(0.51098 -0.0468615 5.30879e-21)
(0.50656 -0.0414813 -7.96075e-19)
(0.502338 -0.0362851 2.73789e-21)
(0.49857 -0.031794 0)
(-0.0192792 0.0240766 0)
(-0.0335217 0.0531146 0)
(-0.0271708 0.0723904 -9.42752e-19)
(-0.00357629 0.081363 1.06581e-19)
(0.0344131 0.081612 0)
(0.0831848 0.0747143 8.79788e-19)
(0.139091 0.0623757 2.21221e-19)
(0.198535 0.0463119 6.69879e-19)
(0.258159 0.028164 8.95452e-19)
(0.31505 0.00941497 -8.96475e-19)
(0.366914 -0.00869263 8.96042e-19)
(0.412197 -0.0252018 -8.94454e-19)
(0.450086 -0.0394677 -8.91935e-19)
(0.480438 -0.0511377 0)
(0.503628 -0.0601134 0)
(0.520394 -0.0664882 0)
(0.531668 -0.0704829 -8.74926e-19)
(0.53845 -0.0723925 1.30275e-18)
(0.541701 -0.0725415 -4.30262e-19)
(0.542281 -0.0712506 0)
(0.540927 -0.0688124 1.27304e-18)
(0.538234 -0.0654786 -4.19714e-19)
(0.534667 -0.0614604 8.34475e-19)
(0.530567 -0.0569348 -1.64533e-18)
(0.526174 -0.0520476 1.63423e-18)
(0.52165 -0.0469206 -2.53269e-21)
(0.517103 -0.041663 2.80845e-21)
(0.512616 -0.0364036 7.90752e-19)
(0.508297 -0.0313732 -4.22037e-22)
(0.504474 -0.0271438 8.13197e-19)
(-0.0187927 0.0223344 9.33715e-20)
(-0.0308542 0.0480348 -1.01444e-19)
(-0.0216542 0.0645544 2.08215e-19)
(0.00514238 0.0714706 -1.27171e-18)
(0.0463996 0.0704425 2.15639e-19)
(0.098216 0.0630292 0)
(0.156671 0.050877 8.78779e-19)
(0.217947 0.035609 -8.8374e-19)
(0.278558 0.0187484 0)
(0.33557 0.0016435 1.10985e-18)
(0.386781 -0.0146064 -2.225e-19)
(0.430806 -0.0291836 0)
(0.467041 -0.0415662 -4.42509e-19)
(0.49555 -0.0514995 8.81998e-19)
(0.516889 -0.0589523 -4.39021e-19)
(0.531928 -0.0640542 4.36612e-19)
(0.541689 -0.0670355 -8.67957e-19)
(0.547212 -0.0681802 -5.81193e-23)
(0.549468 -0.0677884 -7.26688e-23)
(0.549303 -0.066148 -4.22076e-19)
(0.547422 -0.0635141 -8.41963e-19)
(0.544388 -0.0601012 -1.09816e-22)
(0.540625 -0.0560858 2.59586e-21)
(0.536437 -0.0516124 8.21285e-19)
(0.532027 -0.0467976 -8.10541e-19)
(0.52752 -0.0417387 8.05016e-19)
(0.522983 -0.0365252 -1.58785e-18)
(0.51845 -0.0312926 -2.84754e-21)
(0.514017 -0.0263089 -1.55237e-18)
(0.510083 -0.0222229 8.08616e-19)
(-0.0181628 0.0205941 0)
(-0.027728 0.0430268 -8.06529e-19)
(-0.0153685 0.0569006 0)
(0.0148763 0.0618792 4.12588e-21)
(0.0595437 0.0596946 2.14671e-19)
(0.114416 0.0518832 -7.27238e-23)
(0.175291 0.040025 -1.75332e-18)
(0.238149 0.0256411 6.63245e-19)
(0.299408 0.0101269 0)
(0.35617 -0.00531219 -1.10873e-18)
(0.40637 -0.0197239 2.21378e-19)
(0.448832 -0.0324281 0)
(0.483183 -0.043019 -4.40271e-19)
(0.509702 -0.0513298 4.38867e-19)
(0.529117 -0.0573852 4.34466e-19)
(0.542421 -0.0613401 8.68658e-19)
(0.550706 -0.0634262 -4.31661e-19)
(0.555038 -0.0639113 0)
(0.556384 -0.0630681 0)
(0.555567 -0.0611501 8.46588e-19)
(0.553255 -0.0583759 -8.36821e-19)
(0.549971 -0.0549245 8.29249e-19)
(0.546104 -0.0509385 8.23991e-19)
(0.541922 -0.0465294 8.13232e-19)
(0.537596 -0.041782 -8.05002e-19)
(0.533214 -0.0367563 7.99436e-19)
(0.528787 -0.0315053 7.88419e-19)
(0.524246 -0.0261406 -7.79882e-19)
(0.519539 -0.0208852 2.28479e-21)
(0.514966 -0.0165281 1.60909e-18)
(-0.0173767 0.0188504 9.24975e-20)
(-0.0241224 0.0380896 7.06267e-19)
(-0.00830105 0.0494424 0)
(0.0256161 0.0526207 8.4325e-19)
(0.0738015 0.049419 0)
(0.131698 0.0413412 0)
(0.194821 0.0298906 6.56551e-19)
(0.258974 0.0164755 2.86869e-22)
(0.320528 0.0023546 2.20127e-19)
(0.376669 -0.0114155 2.20078e-19)
(0.42552 -0.0240306 -6.60282e-19)
(0.466148 -0.0349427 4.39729e-19)
(0.498427 -0.0438527 0)
(0.52285 -0.0506695 0)
(0.540308 -0.0554619 -8.71196e-19)
(0.551898 -0.0584001 0)
(0.558766 -0.0597099 -4.29289e-19)
(0.561991 -0.0596391 4.26362e-19)
(0.56252 -0.0584308 4.23032e-19)
(0.561144 -0.0563042 -7.45809e-23)
(0.558491 -0.0534438 -4.15937e-19)
(0.555044 -0.0499964 0)
(0.551157 -0.0460729 -8.15956e-19)
(0.547072 -0.0417561 8.07948e-19)
(0.542941 -0.0370967 0)
(0.538844 -0.0321081 0)
(0.534785 -0.0267772 0)
(0.530656 -0.021084 0)
(0.526084 -0.0151591 -7.6614e-19)
(0.521672 -0.00872336 1.59838e-18)
(0.246892 -0.0114911 -0.0235865)
(0.266014 0.0129589 -0.0242888)
(0.279535 0.0388927 -0.0244529)
(0.285288 0.0605109 -0.0245739)
(0.287708 0.0772928 -0.0246236)
(0.287353 0.0900422 -0.0246338)
(0.285157 0.100664 -0.0246047)
(0.281585 0.110548 -0.0245437)
(0.27693 0.120245 -0.0244614)
(0.271405 0.129785 -0.0243682)