/*--------------------------------*- C++ -*----------------------------------*\
  =========                 |
  \\      /  F ield         | OpenFOAM: The Open Source CFD Toolbox
   \\    /   O peration     | Website:  https://openfoam.org
    \\  /    A nd           | Version:  7
     \\/     M anipulation  |
\*---------------------------------------------------------------------------*/
FoamFile
{
    version     2.0;
    format      ascii;
    class       volScalarField;
    location    "15.2";
    object      p;
}
// * * * * * * * * * * * * * * * * * * * * * * * * * * * * * * * * * * * * * //

dimensions      [0 2 -2 0 0 0 0];

internalField   nonuniform List<scalar> 
2000
(
0.00231746
0.00635333
0.00871771
0.011564
0.0154694
0.0207121
0.0271527
0.0343639
0.0418218
0.0492801
0.00425612
0.00772677
0.00964675
0.0117487
0.0145979
0.0186349
0.0239402
0.0302572
0.0371226
0.044261
0.00605703
0.00898082
0.0105368
0.0120735
0.0140837
0.0170651
0.0212577
0.0265836
0.0326985
0.0393337
0.00773858
0.0101253
0.0113717
0.0124881
0.0138727
0.0159988
0.0191861
0.0234998
0.0287421
0.0346743
0.00932689
0.0111812
0.0121571
0.0129675
0.0139187
0.0154116
0.0177713
0.0211429
0.0254639
0.0305023
0.0108499
0.0121786
0.0129208
0.0135181
0.0141998
0.0152768
0.017028
0.0196131
0.0230581
0.0270438
0.0123253
0.013145
0.0136988
0.0141676
0.0147193
0.0155773
0.0169506
0.0189678
0.0216754
0.0244951
0.0137491
0.0140913
0.0145167
0.0149426
0.0154888
0.0163013
0.0175168
0.0192227
0.0214106
0.0230597
0.0150803
0.0150065
0.0153719
0.0158433
0.0164993
0.0174176
0.0186739
0.0203324
0.0222718
0.0228342
0.0162522
0.0158448
0.0162201
0.0168244
0.0176957
0.0188513
0.0203248
0.0221732
0.0242106
0.0243858
0.0641733
0.081708
0.0937221
0.101817
0.107576
0.111766
0.114388
0.116576
0.117269
0.119279
0.0592151
0.0778541
0.0902286
0.0984157
0.104311
0.108626
0.111365
0.113629
0.11448
0.116336
0.0541173
0.0740247
0.0866923
0.0949776
0.101034
0.105486
0.108334
0.110664
0.111637
0.113354
0.0490669
0.0702801
0.083111
0.0915314
0.0977708
0.102351
0.105319
0.107708
0.108783
0.11035
0.0443853
0.0667433
0.0795304
0.0881287
0.0945504
0.0992457
0.102337
0.104775
0.105921
0.107364
0.0403722
0.0633715
0.0759259
0.0847875
0.0913782
0.0961854
0.0993986
0.101879
0.103094
0.10442
0.0374346
0.0602764
0.0724336
0.0815838
0.0882876
0.0932
0.0965227
0.0990268
0.100281
0.10152
0.0354779
0.05706
0.0689683
0.0784607
0.0852461
0.0902795
0.0937172
0.0962453
0.0975345
0.0987024
0.0350021
0.0541947
0.065875
0.0755253
0.082337
0.0874756
0.0909948
0.0935084
0.0947948
0.0958629
0.033666
0.0504583
0.0626127
0.0724722
0.0793975
0.084692
0.088348
0.0908872
0.0922081
0.0931969
0.042305
0.0471631
0.0571367
0.0662863
0.0732285
0.078446
0.0820061
0.0842606
0.0854048
0.0860924
0.0498622
0.0486727
0.0548231
0.0603102
0.0651353
0.0692576
0.0725505
0.0749908
0.076575
0.0774569
0.052108
0.0509481
0.0538033
0.0564548
0.0593745
0.0620008
0.0641203
0.0660911
0.0676631
0.0686138
0.0500994
0.0506432
0.0512847
0.0521142
0.0538057
0.0556059
0.0570995
0.0583796
0.0593384
0.0598905
0.045048
0.0468919
0.0471908
0.0472986
0.0479577
0.0487815
0.0497579
0.0506164
0.0511529
0.0513695
0.0384445
0.0404503
0.0406981
0.0408448
0.0414471
0.041993
0.0424804
0.0429462
0.0433369
0.0435581
0.0308712
0.0330298
0.0337533
0.0339053
0.0341162
0.0344691
0.0347774
0.0349504
0.0351309
0.0353398
0.022828
0.024551
0.0252132
0.0256402
0.0261321
0.0265568
0.0267946
0.0268519
0.0268905
0.0269808
0.0141963
0.015552
0.0161874
0.0165956
0.0170843
0.0174531
0.0175422
0.0174733
0.0174298
0.0174624
0.00309807
0.00498551
0.00579077
0.0061158
0.0065938
0.00711584
0.00731673
0.00723652
0.00709492
0.00704239
0.0371268
0.0491436
0.0512785
0.0473015
0.041121
0.034373
0.0277944
0.0205081
0.0130462
0.00130199
0.0406523
0.0514177
0.0505376
0.0452424
0.0387003
0.0321829
0.0261928
0.0192666
0.0125404
0.000826837
0.043533
0.0512741
0.0485385
0.0423095
0.0359252
0.0299262
0.0245802
0.0180754
0.0120012
0.00047123
0.0449689
0.0498105
0.0455697
0.0389625
0.0330382
0.0276601
0.0229244
0.0168814
0.0113985
0.000192485
0.0450864
0.0471569
0.041819
0.0353379
0.0300751
0.0253808
0.021225
0.0156888
0.0107474
-3.81014e-05
0.0433652
0.0434497
0.0375158
0.0315664
0.0270882
0.0231014
0.0194975
0.0145031
0.0100632
-0.000244221
0.039979
0.0388889
0.032937
0.0277777
0.024126
0.0208414
0.0177679
0.0133362
0.00937256
-0.000407104
0.0355004
0.0337631
0.0283247
0.0240846
0.0212398
0.0186336
0.0160729
0.0122031
0.00870386
-0.000228138
0.0306124
0.0284689
0.0238777
0.0205826
0.0184886
0.0165234
0.0144559
0.0111225
0.00803432
0.000284074
0.0258956
0.0234252
0.0197572
0.0173496
0.0159349
0.0145605
0.0129617
0.0101241
0.00734986
0.000761837
0.0217593
0.0189611
0.0160878
0.0144471
0.0136371
0.0127885
0.0116282
0.0092529
0.00669765
0.00108906
0.0184174
0.015263
0.0129598
0.0119218
0.0116402
0.0112463
0.0104679
0.0084906
0.00612221
0.00128798
0.0159456
0.0124001
0.0104255
0.00979143
0.00998598
0.00998681
0.00947035
0.00782413
0.00563283
0.00139369
0.0143299
0.0103581
0.00847886
0.00805387
0.00874197
0.00894275
0.00865469
0.00726038
0.00520652
0.00143702
0.0134943
0.00906959
0.00709864
0.00691018
0.00764545
0.00813044
0.00800419
0.00678232
0.00483737
0.00144213
0.0133179
0.00845051
0.00622605
0.0061177
0.00688511
0.00753187
0.00749484
0.00639462
0.00452794
0.00142545
0.0136541
0.0083973
0.00580104
0.00565235
0.0064075
0.00711155
0.00711716
0.00608187
0.00426822
0.00139677
0.0144148
0.00883795
0.00574751
0.00544887
0.00615323
0.00684166
0.00684718
0.00583092
0.00405076
0.00136138
0.0156055
0.00973819
0.00599809
0.00545391
0.00607609
0.00670021
0.00666964
0.00563908
0.00387393
0.00132264
0.0163354
0.0109652
0.006725
0.00579582
0.00614273
0.00666428
0.00655251
0.00548955
0.00372501
0.00128331
0.0155205
0.0142844
0.0102735
0.00792686
0.00696383
0.00668985
0.00622858
0.00508072
0.0033541
0.0011783
0.0187639
0.0135308
0.0100742
0.00845878
0.00751034
0.00701947
0.00615526
0.00475529
0.00303485
0.00107334
0.0235179
0.018564
0.0141438
0.0113166
0.00916243
0.00789862
0.0064266
0.00481603
0.00304614
0.00112386
0.0243109
0.0195714
0.0154548
0.0126106
0.010288
0.00868524
0.0067639
0.00502193
0.00324382
0.00134446
0.0273394
0.0222311
0.0177784
0.0144207
0.0116777
0.00946416
0.00718703
0.00539382
0.00363805
0.00170564
0.0293682
0.0242301
0.0196317
0.0160197
0.0128853
0.0101709
0.00772488
0.00587934
0.00412127
0.00209186
0.031663
0.0260512
0.021263
0.0174776
0.0138929
0.0108198
0.00822185
0.00629435
0.00477068
0.00271156
0.0336637
0.0277312
0.0228042
0.0186539
0.0147688
0.0114224
0.00866174
0.00691345
0.00571214
0.00343225
0.03498
0.02954
0.0244019
0.0197757
0.0154776
0.0118672
0.00919238
0.00759509
0.00615477
0.00338516
0.0363874
0.03004
0.0248091
0.0201444
0.0158215
0.0122052
0.00969847
0.00795094
0.00591171
0.0027786
0.0240125
0.0273578
0.0282333
0.0285919
0.031461
0.033205
0.0356529
0.0383072
0.0388443
0.0414574
0.0271518
0.0303907
0.0302623
0.0306415
0.0335701
0.035154
0.0378209
0.0405324
0.041587
0.0438583
0.0294008
0.0318398
0.0317153
0.0326437
0.0357719
0.0374335
0.0404711
0.0432093
0.045385
0.0470511
0.0313694
0.0327906
0.0328884
0.0344295
0.0376893
0.0396242
0.0430004
0.0458611
0.0488316
0.0503734
0.0332296
0.0339795
0.0342328
0.0362105
0.0394914
0.0417279
0.045367
0.0483663
0.0516975
0.0534587
0.034894
0.0353175
0.0358347
0.038133
0.0413897
0.0438996
0.0477385
0.0508424
0.0542738
0.0562988
0.0363654
0.0365566
0.0375536
0.0401698
0.0434429
0.0462304
0.0502409
0.0534376
0.0568907
0.0590823
0.0376996
0.03762
0.0392901
0.0422465
0.0456193
0.0487185
0.052902
0.0562218
0.0597246
0.0620004
0.0389394
0.0385252
0.0410537
0.0443348
0.0478904
0.0513296
0.0557012
0.0591933
0.062811
0.0651534
0.0401189
0.0392689
0.0428974
0.0464435
0.0502579
0.0540373
0.0586177
0.0623195
0.0661136
0.0685475
0.0412877
0.039817
0.0448676
0.0485777
0.0527368
0.0568281
0.0616505
0.0655787
0.0695967
0.0721513
0.042487
0.0401872
0.0469897
0.0507186
0.055332
0.0596975
0.0647937
0.0689689
0.0732364
0.0759271
0.0437463
0.0404875
0.0492189
0.0528651
0.0580355
0.0626643
0.0680362
0.0725278
0.0770407
0.079867
0.0450741
0.0408966
0.0514241
0.0550633
0.0608111
0.0657503
0.071388
0.0762473
0.0809986
0.083973
0.0464705
0.0416229
0.053425
0.0573922
0.0636777
0.0689418
0.0748556
0.0801186
0.0851334
0.0882738
0.0479231
0.0428576
0.0550222
0.0599396
0.0665771
0.0721789
0.0783875
0.0840907
0.0894238
0.0927636
0.0493617
0.0448166
0.0562308
0.0624996
0.0694722
0.0754441
0.0820113
0.0882054
0.0939118
0.0974812
0.0508461
0.0472815
0.0572086
0.0649545
0.072271
0.0786418
0.0856171
0.0923536
0.0985283
0.102394
0.054068
0.0498457
0.0583773
0.0673806
0.0750386
0.0818708
0.0893166
0.096642
0.103347
0.107568
0.0568088
0.0522026
0.0592998
0.0692625
0.0773669
0.0846591
0.0926217
0.100677
0.108146
0.112922
0.0651329
0.0627764
0.0662543
0.0758474
0.0846089
0.0931832
0.10232
0.111904
0.12091
0.12682
0.0785041
0.0766407
0.0812857
0.091154
0.100844
0.110958
0.122352
0.134723
0.146582
0.154064
0.0975256
0.0949936
0.0990073
0.108836
0.119913
0.132101
0.146224
0.161808
0.177007
0.186572
0.117046
0.116151
0.11968
0.129299
0.141859
0.156857
0.174581
0.194181
0.212801
0.224361
0.13682
0.138143
0.142589
0.152793
0.167186
0.185518
0.207675
0.232216
0.254542
0.268672
0.154907
0.159325
0.166726
0.178971
0.196229
0.218586
0.245582
0.275131
0.301002
0.316147
0.169293
0.176565
0.186835
0.202731
0.224212
0.251479
0.283549
0.3177
0.346492
0.363537
0.180509
0.190351
0.204238
0.22308
0.248269
0.280248
0.317291
0.35572
0.387031
0.403309
0.184375
0.195691
0.211888
0.233885
0.262595
0.29863
0.339873
0.381986
0.415481
0.433338
0.189621
0.201913
0.218849
0.24188
0.272015
0.309602
0.353639
0.400595
0.439085
0.444237
0.0754592
0.0875136
0.10317
0.119607
0.137128
0.153285
0.165942
0.176121
0.18001
0.184325
0.0804589
0.0937103
0.108386
0.123611
0.139738
0.154363
0.165722
0.175021
0.178519
0.182684
0.0852102
0.100097
0.114602
0.129261
0.144055
0.156908
0.166668
0.174625
0.177434
0.181399
0.0893774
0.104459
0.118646
0.133032
0.146945
0.158599
0.16725
0.174166
0.176482
0.180019
0.0934081
0.10793
0.121394
0.135339
0.148517
0.159352
0.167286
0.173516
0.175568
0.178579
0.0972215
0.111273
0.123992
0.137305
0.149677
0.159769
0.16712
0.172822
0.174712
0.177235
0.100581
0.114386
0.126607
0.139297
0.150845
0.160205
0.167
0.172216
0.173958
0.176081
0.103433
0.117083
0.129013
0.141181
0.151993
0.160692
0.166966
0.17173
0.173324
0.175123
0.10584
0.119374
0.131105
0.142824
0.153019
0.16116
0.166978
0.171344
0.1728
0.174327
0.107883
0.121346
0.132921
0.144229
0.153901
0.161577
0.167007
0.171032
0.172373
0.173653
0.109636
0.123064
0.134521
0.145447
0.154671
0.161953
0.167051
0.170785
0.172044
0.173074
0.111114
0.124521
0.135921
0.146507
0.155354
0.162302
0.167116
0.170563
0.171819
0.172604
0.112301
0.125673
0.137114
0.147411
0.155961
0.162632
0.167209
0.170415
0.171633
0.172236
0.1132
0.126533
0.138109
0.148173
0.156502
0.162944
0.16734
0.170322
0.171488
0.171954
0.113834
0.127153
0.138926
0.14881
0.156988
0.163237
0.167494
0.170286
0.171394
0.171759
0.114188
0.127574
0.139567
0.149339
0.157428
0.163513
0.167674
0.170294
0.171339
0.171647
0.11427
0.12785
0.140039
0.149776
0.157826
0.163783
0.167875
0.170343
0.171325
0.171638
0.113928
0.127945
0.140303
0.150112
0.158131
0.164089
0.168091
0.170422
0.171302
0.171735
0.113292
0.127982
0.140427
0.150387
0.158421
0.164379
0.168333
0.170553
0.171327
0.171979
0.111494
0.127447
0.140119
0.150399
0.158548
0.164575
0.168545
0.170666
0.171237
0.172342
0.108573
0.127526
0.140214
0.150961
0.159243
0.165364
0.169455
0.171667
0.172077
0.173601
0.12055
0.13537
0.145593
0.155289
0.162458
0.167959
0.171687
0.173845
0.174506
0.175476
0.130711
0.142812
0.151638
0.159966
0.165986
0.170873
0.174222
0.176386
0.177399
0.178081
0.137527
0.147697
0.155936
0.163075
0.168564
0.173217
0.176623
0.17923
0.181078
0.182487
0.141783
0.150557
0.158151
0.164369
0.169742
0.174564
0.178637
0.182382
0.186024
0.189725
0.144167
0.151623
0.158387
0.163951
0.169516
0.175082
0.18067
0.186757
0.194365
0.203805
0.144274
0.15028
0.155999
0.161121
0.167169
0.17434
0.182684
0.193033
0.208346
0.230061
0.143332
0.147888
0.152594
0.158255
0.165241
0.174823
0.187475
0.205975
0.236841
0.283912
0.138179
0.141528
0.146026
0.152011
0.161238
0.174274
0.194102
0.226212
0.283841
0.377218
0.143119
0.145712
0.150168
0.159322
0.173092
0.193501
0.2248
0.27711
0.371788
0.521749
0.0981024
0.110248
0.120753
0.12861
0.134084
0.13799
0.13918
0.139682
0.136066
0.140911
0.0953444
0.107929
0.118223
0.126004
0.131548
0.135679
0.137081
0.138023
0.13492
0.139788
0.0941585
0.107144
0.117399
0.124707
0.129891
0.133762
0.13513
0.136221
0.133632
0.13826
0.0919239
0.105292
0.115613
0.12294
0.12796
0.13167
0.133077
0.13429
0.132284
0.136457
0.0889229
0.102558
0.112897
0.120445
0.125553
0.129257
0.130811
0.132198
0.130794
0.134511
0.0855813
0.0995306
0.109922
0.117534
0.122901
0.126621
0.128356
0.129926
0.129073
0.132411
0.0819179
0.0963418
0.106908
0.114539
0.120066
0.123866
0.125764
0.12749
0.127102
0.130111
0.0778956
0.0929374
0.103795
0.111509
0.117063
0.121016
0.123064
0.124918
0.124906
0.127612
0.0735496
0.0893177
0.100538
0.108387
0.113962
0.118022
0.120273
0.12223
0.122517
0.124949
0.0689519
0.0855459
0.0971642
0.10515
0.110798
0.114913
0.117381
0.119442
0.11996
0.122161
0.0171744
0.0165367
0.0169819
0.0177863
0.0189579
0.0204751
0.022313
0.0245759
0.0274274
0.0304198
0.0177537
0.0170032
0.0175561
0.0185948
0.0201044
0.0220205
0.0242683
0.0268423
0.0297525
0.0328192
0.0179059
0.0171777
0.0178542
0.0191236
0.0209594
0.0232618
0.0258969
0.0287436
0.0315871
0.0341052
0.0175926
0.0170321
0.0178352
0.0193044
0.0214129
0.0240344
0.0269799
0.0300447
0.0328266
0.0349643
0.0168312
0.016587
0.0175221
0.019153
0.0214574
0.024292
0.027421
0.0305726
0.0333098
0.035262
0.0156839
0.0159038
0.0169899
0.0187564
0.0211815
0.0241029
0.0272563
0.0303414
0.033003
0.0348401
0.0142374
0.0150579
0.0163307
0.0182221
0.0207011
0.0235882
0.0266068
0.0294615
0.0319047
0.0336156
0.0125754
0.014114
0.0156108
0.0176226
0.0200969
0.0228377
0.0255762
0.0280511
0.0300901
0.0315615
0.0107726
0.013099
0.0148506
0.0169746
0.0193893
0.0218884
0.0242309
0.0262128
0.0277253
0.0287969
0.00886809
0.0120106
0.0140276
0.0162509
0.0185654
0.0207618
0.022646
0.024083
0.0250432
0.0256069
0.00687883
0.0108157
0.0130954
0.0154169
0.0176255
0.0195134
0.020946
0.0218642
0.022318
0.0223733
0.00484957
0.00953527
0.0120727
0.0145097
0.0166437
0.0182679
0.0193113
0.0197935
0.0198227
0.0194567
0.0028261
0.00817667
0.0109862
0.0135956
0.0157305
0.017178
0.0179302
0.0180817
0.0177774
0.017109
0.000883962
0.00678913
0.00992564
0.0128028
0.0150385
0.0164096
0.0169699
0.0168838
0.0163231
0.0154569
-0.000872393
0.00546425
0.0090295
0.0122883
0.0147213
0.0161013
0.0165464
0.0162852
0.0155203
0.0145244
-0.0023221
0.00432754
0.00845765
0.0122043
0.0149038
0.0163458
0.0167192
0.0163128
0.015363
0.0142479
-0.00334181
0.00352824
0.00836356
0.0126731
0.0156695
0.0171895
0.0175023
0.0169582
0.0158181
0.0144505
-0.00381688
0.00322176
0.00887064
0.0137743
0.0170638
0.0186518
0.0188872
0.0181916
0.0169121
0.0148949
-0.0036502
0.00354518
0.0100565
0.0155374
0.0190996
0.0207542
0.0209
0.0199127
0.0179943
0.0159463
-0.00276786
0.00459568
0.0119449
0.0179327
0.0217344
0.0234942
0.0236559
0.0225083
0.020157
0.0176674
-0.00110589
0.00642832
0.0145072
0.0208686
0.024834
0.0267076
0.0270413
0.0261797
0.0243898
0.022954
0.0014356
0.00906693
0.0176764
0.0242178
0.0282016
0.0300855
0.0304876
0.0298374
0.0285576
0.0275989
0.00482501
0.0124512
0.0213598
0.0278527
0.0316841
0.0334345
0.0337602
0.0331291
0.0319725
0.0309457
0.00902789
0.0164908
0.0254779
0.0316655
0.0351626
0.0366374
0.0367666
0.0360298
0.0348253
0.0336322
0.013993
0.0211018
0.0299397
0.0355676
0.0385554
0.0396299
0.0394657
0.0385363
0.0372069
0.0358658
0.0196562
0.0263431
0.0345364
0.0394726
0.041817
0.0423913
0.0418628
0.0406875
0.0391988
0.0377291
0.0259505
0.0320092
0.0392867
0.0433437
0.0449342
0.0449321
0.0439882
0.0425332
0.04087
0.0392935
0.0328452
0.0379449
0.0441439
0.0471692
0.0479206
0.0472875
0.0458917
0.0441324
0.042283
0.0406197
0.0401648
0.0441255
0.0490714
0.0509569
0.0508123
0.0495126
0.0476403
0.0455574
0.0435076
0.0417664
0.0477511
0.0504721
0.0540471
0.0547312
0.0536624
0.0516793
0.0493167
0.0468956
0.0446294
0.0428057
0.0553889
0.056888
0.0590558
0.058524
0.0565335
0.053871
0.0510178
0.0482514
0.0457541
0.0438314
0.0631976
0.0633516
0.0640733
0.062343
0.0594638
0.0561512
0.0528268
0.049724
0.0469936
0.0449521
0.0710274
0.0697804
0.0690854
0.0662175
0.0625115
0.0585996
0.0548409
0.0514271
0.0484767
0.0462935
0.0787326
0.0760896
0.0740581
0.0701495
0.0657057
0.0612686
0.0571337
0.0534564
0.0503223
0.0479754
0.0861687
0.0821848
0.0789406
0.0741194
0.06905
0.0641816
0.0597483
0.0558779
0.0526209
0.0500893
0.093177
0.0879573
0.083664
0.078084
0.0725195
0.0673291
0.0626909
0.0587167
0.0554183
0.0526804
0.0995847
0.0932844
0.0881418
0.0819786
0.0760628
0.0706703
0.0659313
0.0619556
0.0587096
0.0557436
0.105209
0.0980323
0.0922736
0.0857209
0.0796074
0.0741396
0.0694106
0.0655441
0.0624645
0.0592763
0.109858
0.102059
0.0959492
0.0892182
0.0830671
0.0776482
0.0730238
0.069365
0.0666282
0.0634738
0.113342
0.105216
0.0990509
0.0923761
0.086363
0.0811257
0.0766912
0.0732701
0.0710414
0.0684361
0.115474
0.107352
0.101446
0.0950862
0.0894354
0.0846199
0.0806801
0.0778311
0.0765221
0.0764562
0.116066
0.108304
0.102967
0.0971534
0.0920243
0.087716
0.0842361
0.0816355
0.08023
0.0801904
0.114979
0.107938
0.103459
0.098396
0.0939284
0.0902216
0.0872828
0.0850469
0.0836492
0.0835147
0.112142
0.106171
0.102817
0.0986986
0.0950334
0.0920408
0.0897592
0.0880876
0.0870429
0.0870535
0.10757
0.102993
0.10101
0.0980211
0.0952968
0.0931243
0.0915846
0.0905868
0.0900995
0.0904799
0.101369
0.0984638
0.098077
0.0963924
0.0947409
0.0934868
0.0927572
0.0924931
0.0926517
0.0935137
0.0937359
0.0927177
0.0941171
0.0938946
0.0934349
0.0931862
0.093326
0.0938377
0.0946819
0.0960588
0.0849369
0.0859434
0.0892729
0.0906432
0.0914738
0.0922998
0.093353
0.094667
0.0962163
0.0981204
0.0752922
0.0783688
0.0837129
0.0867702
0.0889631
0.0909111
0.0929039
0.09503
0.0972899
0.0997342
0.0651732
0.0702424
0.0776141
0.0824109
0.0860087
0.0891044
0.0920464
0.09498
0.0979425
0.10094
0.0550379
0.0618486
0.0711606
0.0776952
0.0827094
0.0869576
0.0908446
0.0945701
0.0982152
0.101773
0.0448825
0.0533402
0.0645102
0.0727461
0.0791593
0.0845443
0.0893584
0.0938508
0.0981463
0.102256
0.0350526
0.0449331
0.0578145
0.0676676
0.0754361
0.0819239
0.087635
0.0928616
0.0977675
0.102406
0.0258958
0.0368128
0.051204
0.062541
0.0715974
0.0791377
0.0857046
0.0916277
0.0971008
0.102237
0.017613
0.0291976
0.0447763
0.0574327
0.0676875
0.0762127
0.0835846
0.0901632
0.0961604
0.101761
0.0102995
0.0223489
0.0385678
0.052403
0.0637392
0.0731636
0.0812804
0.0884694
0.0949448
0.100966
0.00403871
0.0162426
0.0327845
0.0475158
0.0597725
0.0699942
0.0787825
0.0865314
0.0934389
0.0998152
-0.00111732
0.0109589
0.0274815
0.0428063
0.0557937
0.0667024
0.0760727
0.0843264
0.0916318
0.0982176
-0.00516089
0.00657492
0.0226943
0.0382989
0.0518164
0.0632692
0.0731146
0.0817848
0.0894765
0.0960462
-0.00812151
0.00312368
0.0184664
0.0340218
0.0478531
0.0596994
0.0699019
0.0788756
0.086774
0.0935169
-0.0100628
0.000598012
0.0148374
0.0300099
0.0439208
0.0560028
0.0664263
0.0755463
0.0835725
0.0900196
-0.0111232
-0.00106508
0.0118298
0.0263026
0.0400463
0.0522037
0.0627423
0.0718975
0.0799284
0.0865914
-0.0113427
-0.00192035
0.00946199
0.0229442
0.0362714
0.0483499
0.0589503
0.0681852
0.0763259
0.083387
-0.0108206
-0.0020662
0.00773207
0.01998
0.0326467
0.0444875
0.0550916
0.0644393
0.0727355
0.0800569
-0.00969147
-0.00162998
0.00661743
0.0174502
0.0292203
0.0406425
0.0511436
0.0605519
0.0689613
0.0764448
-0.00809875
-0.000746971
0.00606961
0.0153813
0.0260379
0.0368394
0.0470908
0.0564638
0.0649244
0.0725346
-0.00618531
0.000453283
0.00601302
0.0137825
0.0231495
0.0331238
0.042958
0.0521862
0.0606351
0.068336
-0.00408584
0.00185293
0.00635093
0.0126429
0.0206084
0.0295651
0.0388033
0.0477609
0.0561242
0.0638659
-0.00191726
0.00334863
0.00697589
0.011929
0.018463
0.0262502
0.034711
0.0432514
0.0514361
0.0591605
0.000234506
0.00486227
0.00778673
0.0115854
0.0167419
0.0232667
0.0307835
0.0387438
0.0466354
0.0542743
)
;

boundaryField
{
    inlet
    {
        type            zeroGradient;
    }
    outlet
    {
        type            fixedValue;
        value           uniform 0;
    }
    cylinder
    {
        type            zeroGradient;
    }
    top
    {
        type            symmetryPlane;
    }
    bottom
    {
        type            symmetryPlane;
    }
    defaultFaces
    {
        type            empty;
    }
}


// ************************************************************************* //
