/*--------------------------------*- C++ -*----------------------------------*\
  =========                 |
  \\      /  F ield         | OpenFOAM: The Open Source CFD Toolbox
   \\    /   O peration     | Website:  https://openfoam.org
    \\  /    A nd           | Version:  7
     \\/     M anipulation  |
\*---------------------------------------------------------------------------*/
FoamFile
{
    version     2.0;
    format      ascii;
    class       surfaceScalarField;
    location    "81.1";
    object      phi;
}
// * * * * * * * * * * * * * * * * * * * * * * * * * * * * * * * * * * * * * //

dimensions      [0 3 -1 0 0 0 0];

internalField   nonuniform List<scalar> 
3880
(
-2.09513e-05
-0.000540182
0.000561133
-1.81189e-05
-0.00128591
0.00128308
2.25089e-05
-0.00171063
0.00167
0.00010865
-0.00186002
0.00177388
0.000247603
-0.0017643
0.00162535
0.000447648
-0.001444
0.00124395
0.000717109
-0.000914111
0.000644651
0.001062
-0.000187913
-0.000156974
0.00148303
0.000719809
-0.00114084
0.00179104
0.00197231
-0.00228032
-9.96858e-06
-0.000530213
1.53309e-05
-0.00131121
8.40491e-05
-0.00177935
0.000200035
-0.001976
0.000368073
-0.00193234
0.000595312
-0.00167123
0.000890292
-0.00120909
0.00126053
-0.00055815
0.00170925
0.000271084
0.00126879
0.00223151
6.0678e-06
-0.000536281
6.23226e-05
-0.00136747
0.000170253
-0.00188728
0.000328573
-0.00213432
0.000538555
-0.00214232
0.000805139
-0.00193782
0.00113607
-0.00154002
0.00153963
-0.000961713
0.00202143
-0.000210709
0.000710167
0.00258005
2.61594e-05
-0.00056244
0.000121633
-0.00146294
0.000278966
-0.00204461
0.000491296
-0.00234665
0.000755798
-0.00240682
0.00107447
-0.00225649
0.00145344
-0.00191899
0.00190091
-0.00140919
0.00242428
-0.000734076
0.000108586
0.00302586
5.01057e-05
-0.000612546
0.000190993
-0.00160383
0.000405671
-0.00225929
0.000681245
-0.00262223
0.00101058
-0.00273616
0.00139248
-0.00263839
0.00183095
-0.00235746
0.00233351
-0.00191175
0.00290854
-0.0013091
-0.000544537
0.00356166
7.6722e-05
-0.000689268
0.000266901
-0.00179401
0.000543391
-0.00253578
0.000887184
-0.00296602
0.00128699
-0.00313597
0.00173859
-0.00308998
0.00224392
-0.00286279
0.00280959
-0.00247741
0.00344434
-0.00194385
-0.00125608
0.00415588
0.000104596
-0.000793864
0.000344812
-0.00203422
0.000682964
-0.00287393
0.00109404
-0.0033771
0.00156299
-0.00360491
0.00208302
-0.00361001
0.00265443
-0.00343421
0.00328322
-0.0031062
0.00397854
-0.00263918
-0.00202625
0.00474871
0.000132082
-0.000925946
0.000419427
-0.00232157
0.000813681
-0.00326819
0.00128411
-0.00384753
0.00181236
-0.00413317
0.00238964
-0.00418729
0.00301509
-0.00405966
0.00369473
-0.00378584
0.00443924
-0.00338368
-0.00284416
0.00525715
0.000157399
-0.00108334
0.000485049
-0.00264922
0.000924176
-0.00370731
0.00143878
-0.00436213
0.00200783
-0.00470222
0.00262099
-0.00480045
0.00327647
-0.00471514
0.00398029
-0.00448967
0.00474617
-0.00414956
-0.00368749
0.0055895
0.000178718
-0.00126206
0.000535995
-0.00300649
0.00100341
-0.00417472
0.00154055
-0.00489928
0.00212459
-0.00528625
0.0027444
-0.00542026
0.0033973
-0.00536804
0.00408797
-0.00518034
0.00483143
-0.00489302
0.00567205
-0.00452811
0.00342938
0.0163998
-0.0178568
0.0048299
0.0375566
-0.0389571
0.00533745
0.0588934
-0.0594009
0.00516032
0.0783776
-0.0782005
0.00458075
0.0977117
-0.0971321
0.0037357
0.118286
-0.117441
0.00271015
0.141427
-0.140401
0.00152149
0.17154
-0.170351
0.000495858
0.216118
-0.215092
0.269589
-0.269093
0.0037639
0.0148674
0.00547106
0.0358494
0.00627833
0.0580861
0.00629101
0.0783649
0.00579936
0.0982034
0.00495367
0.119132
0.00384583
0.142535
0.00249649
0.172889
0.00110609
0.217508
0.270695
0.00410677
0.0133406
0.00607288
0.0338833
0.00719209
0.0569669
0.00741232
0.0781447
0.00701861
0.0985971
0.00617569
0.119975
0.00498528
0.143725
0.00346938
0.174405
0.00172105
0.219257
0.272416
0.00446548
0.011901
0.0066166
0.0317322
0.00805219
0.0555313
0.00849898
0.0776979
0.00821724
0.0988788
0.00738424
0.120808
0.00611522
0.144994
0.0044339
0.176086
0.00232918
0.221361
0.274745
0.00484836
0.0106143
0.0070905
0.02949
0.00883394
0.0537879
0.00952635
0.0770055
0.00937408
0.0990311
0.00856256
0.121619
0.00722221
0.146335
0.00537947
0.177929
0.00292555
0.223815
0.277671
0.00525592
0.00951427
0.00749055
0.0272554
0.00951608
0.0517623
0.0104711
0.0760505
0.0104684
0.0990337
0.00969258
0.122395
0.0082915
0.147736
0.00629482
0.179925
0.00350297
0.226607
0.281174
0.00567142
0.00859156
0.00781663
0.0251102
0.0100823
0.0494966
0.0113124
0.0748204
0.0114832
0.098863
0.0107617
0.123117
0.0093143
0.149183
0.00717406
0.182066
0.00406052
0.229721
0.285234
0.00604923
0.00779948
0.00806365
0.0230958
0.0105207
0.0470396
0.0120308
0.0733103
0.0123944
0.0984993
0.0117446
0.123766
0.0102673
0.15066
0.00800014
0.184333
0.00458598
0.233135
0.28982
0.00630785
0.00708113
0.00820789
0.0211958
0.0108164
0.0444311
0.0126216
0.0715051
0.0132151
0.0979059
0.012662
0.12432
0.0111715
0.152151
0.00878544
0.186719
0.00508792
0.236832
0.294908
0.00640172
0.00635146
0.00828851
0.019309
0.0109776
0.041742
0.0130253
0.0694574
0.0138547
0.0970765
0.0134276
0.124747
0.0119779
0.153601
0.00948162
0.189215
0.00557489
0.240739
0.300483
0.0194384
0.0112953
-0.0243822
0.0150597
0.0236876
0.0131199
0.0436818
0.0119471
0.0706303
0.0103929
0.0986306
0.00836022
0.126779
0.00580678
0.156154
0.00278765
0.192234
0.000291798
0.243235
0.300775
0.0202722
0.0148539
-0.0238308
0.0157485
0.0282114
0.012929
0.0465012
0.0114481
0.0721112
0.00990582
0.100173
0.00791187
0.128773
0.00540494
0.158661
0.00253332
0.195106
0.000218689
0.24555
0.300993
0.0198684
0.0168761
-0.0218907
0.0161412
0.0319386
0.0129592
0.0496833
0.0110123
0.0740582
0.00931683
0.101868
0.00736884
0.130721
0.00499162
0.161038
0.0022779
0.19782
0.000149063
0.247679
0.301142
0.0185542
0.0178354
-0.0195135
0.0157711
0.0347217
0.0128165
0.0526379
0.0107005
0.0761741
0.00889786
0.103671
0.00696535
0.132654
0.00467822
0.163325
0.00213733
0.200361
0.000150016
0.249666
0.301292
0.0168512
0.0180177
-0.0170335
0.0148817
0.0366913
0.0123526
0.0551669
0.0102781
0.0782487
0.00846634
0.105483
0.00656657
0.134554
0.00436571
0.165526
0.00195308
0.202773
0.000101964
0.251517
0.301394
0.0149291
0.0175129
-0.0144243
0.0136863
0.0379341
0.0116095
0.0572437
0.00976666
0.0800915
0.00809799
0.107151
0.00629015
0.136361
0.00417583
0.167641
0.00188906
0.20506
0.000133366
0.253273
0.301528
0.0129656
0.0163469
-0.0117995
0.0124633
0.0384363
0.0108413
0.0588658
0.00916158
0.0817711
0.00761671
0.108696
0.00593742
0.138041
0.00394419
0.169634
0.00175704
0.207247
0.00010082
0.254929
0.301629
0.0109245
0.0145967
-0.00917429
0.0110571
0.0383037
0.00999264
0.0599303
0.00866536
0.0830984
0.00729365
0.110068
0.00572519
0.139609
0.00382118
0.171538
0.00175435
0.209314
0.00016679
0.256516
0.301795
0.00942444
0.0120736
-0.00690136
0.0102265
0.0375016
0.00945894
0.0606978
0.00822096
0.0843364
0.00693799
0.111351
0.00547702
0.14107
0.00366136
0.173353
0.00166849
0.211307
0.000147212
0.258038
0.301943
0.0069705
-0.00391926
0.008892
0.00902937
0.00812836
0.00692264
0.00545071
0.00369725
0.0017229
0.000262717
0.00567889
-0.0246444
-0.00541675
0.00529204
-0.0234439
0.00458534
-0.021184
0.00378461
-0.0187128
0.00294676
-0.0161957
0.00208859
-0.0135661
0.00121398
-0.0109249
0.000357053
-0.00831736
-0.000636462
-0.00590784
-0.00312905
0.00476596
-0.024525
-0.00488533
0.00411205
-0.02279
0.00326072
-0.0203326
0.00236535
-0.0178174
0.0014557
-0.0152861
0.000542503
-0.0126529
-0.000373456
-0.010009
-0.00126421
-0.00742661
-0.0022172
-0.00495486
-0.00238993
0.00367701
-0.0240873
-0.0041147
0.00280131
-0.0219143
0.00183703
-0.0193684
0.00086468
-0.0168451
-9.96983e-05
-0.0143217
-0.00104257
-0.01171
-0.00196784
-0.0090837
-0.00285519
-0.00653926
-0.0037333
-0.00407675
-0.00174586
0.00240902
-0.0233915
-0.00310482
0.00137199
-0.0208773
0.000329629
-0.018326
-0.000690272
-0.0158252
-0.00167892
-0.013333
-0.00263005
-0.0107589
-0.00353545
-0.00817829
-0.0043801
-0.00569462
-0.00515498
-0.00330187
-0.00121721
0.00098012
-0.0224844
-0.00188721
-0.000159815
-0.0197373
-0.00123928
-0.0172465
-0.00227793
-0.0147865
-0.0032622
-0.0123488
-0.00418752
-0.00983356
-0.00504309
-0.00732272
-0.00581291
-0.00492479
-0.0064655
-0.00264927
-0.000809742
-0.000553802
-0.0214213
-0.000509382
-0.00175241
-0.0185387
-0.00283816
-0.0161608
-0.00386171
-0.013763
-0.00481164
-0.0113988
-0.00568295
-0.00896225
-0.00646297
-0.00654271
-0.00713447
-0.00425329
-0.00765699
-0.00212676
-0.000519364
-0.00215188
-0.0202283
0.000958937
-0.0033583
-0.0173323
-0.00441954
-0.0150995
-0.00540092
-0.0127816
-0.00629167
-0.0105081
-0.00708649
-0.00816743
-0.00777278
-0.00585642
-0.00833296
-0.00369312
-0.0087278
-0.00173192
-0.000335087
-0.00374268
-0.0189528
0.00246715
-0.00492461
-0.0161504
-0.00593879
-0.0140854
-0.00685672
-0.0118637
-0.00767037
-0.00969441
-0.00837394
-0.00746387
-0.00895717
-0.00527319
-0.00940342
-0.00324687
-0.00968114
-0.0014542
-0.000241584
-0.00527155
-0.0176386
0.00395732
-0.00640431
-0.0150176
-0.00735593
-0.0131337
-0.00819606
-0.0110235
-0.00892253
-0.00896795
-0.00952845
-0.00685795
-0.0100081
-0.00479356
-0.0103468
-0.00290818
-0.0105236
-0.00127733
-0.000221306
-0.0066906
-0.0163235
0.00537554
-0.00775834
-0.0139499
-0.008639
-0.0122531
-0.00939406
-0.0102685
-0.010031
-0.00833096
-0.0105409
-0.00634812
-0.010924
-0.0044104
-0.0111683
-0.00266389
-0.0112639
-0.00118172
-0.000255985
-0.0079629
-0.0150381
0.0066775
-0.00895738
-0.0129554
-0.00976552
-0.0114449
-0.0104348
-0.00959921
-0.010987
-0.00777873
-0.0114091
-0.00592605
-0.0117088
-0.00411064
-0.0118764
-0.00249637
-0.0119117
-0.00114642
-0.000327556
-0.00906887
-0.0138046
0.00783539
-0.00998521
-0.012039
-0.0107243
-0.0107059
-0.0113124
-0.00901112
-0.0117896
-0.0073015
-0.0121371
-0.00557858
-0.0123702
-0.00387753
-0.0124808
-0.00238572
-0.0124766
-0.0011506
-0.000418617
-0.00999582
-0.0126381
0.00882925
-0.0108332
-0.0112017
-0.0115109
-0.0100282
-0.0120271
-0.00849489
-0.0124429
-0.00688576
-0.0127324
-0.00528903
-0.0129178
-0.00369217
-0.0129922
-0.00231125
-0.0129686
-0.00117427
-0.000512609
-0.0107418
-0.0115456
0.0096494
-0.0115021
-0.0104414
-0.0121288
-0.00940144
-0.0125859
-0.00803778
-0.0129555
-0.00651613
-0.0132057
-0.00503889
-0.0133627
-0.00353514
-0.0134213
-0.00225265
-0.0133968
-0.00119875
-0.00059385
-0.0113129
-0.0105256
0.0102928
-0.0119995
-0.00975481
-0.0125865
-0.00881443
-0.0129997
-0.00762461
-0.013339
-0.00617678
-0.0135688
-0.00480908
-0.0137165
-0.00338745
-0.0137786
-0.00219061
-0.0137706
-0.00120674
-0.000647453
-0.0117199
-0.00956593
0.0107603
-0.0123386
-0.00913613
-0.012896
-0.00825707
-0.013282
-0.00723861
-0.0136062
-0.00585257
-0.0138344
-0.00458089
-0.0139907
-0.00323118
-0.0140742
-0.00210711
-0.0140987
-0.00118225
-0.000659218
-0.011976
-0.0086434
0.0110535
-0.0125364
-0.00857576
-0.0130709
-0.00772253
-0.0134474
-0.00686217
-0.0137704
-0.00552957
-0.0140146
-0.00433664
-0.0141961
-0.00304969
-0.0143177
-0.00198547
-0.0143896
-0.00111035
-0.00061551
-0.0120861
-0.00773117
0.0111739
-0.0126062
-0.00805562
-0.0131225
-0.00720621
-0.0135082
-0.00647656
-0.0138436
-0.00519416
-0.0141207
-0.00405955
-0.014343
-0.00282734
-0.0145184
-0.00181008
-0.0146519
-0.000976882
-0.000503103
-0.012047
-0.0068141
0.01113
-0.0125613
-0.00754136
-0.0130633
-0.00670421
-0.0134766
-0.0060633
-0.0138378
-0.00483291
-0.0141632
-0.00373413
-0.0144411
-0.00254946
-0.0146848
-0.00156634
-0.0148935
-0.000768263
-0.000308972
-0.0119081
-0.0058713
0.0109653
-0.0124518
-0.00699766
-0.0129243
-0.00623173
-0.013368
-0.00561958
-0.0137649
-0.00443605
-0.0141498
-0.00334919
-0.0144979
-0.00220139
-0.0148244
-0.00123985
-0.0151234
-0.000469235
-2.10378e-05
-0.0527866
-0.00562671
0.052542
-0.0541445
-0.00563973
-0.055564
-0.00481221
-0.0569762
-0.00420738
-0.0581417
-0.00327061
-0.0590528
-0.00243804
-0.0596663
-0.00158789
-0.0600131
-0.000893044
-0.0601409
-0.000341513
-2.58939e-05
-0.062194
-0.00551144
0.0620787
-0.0630378
-0.00479586
-0.0638491
-0.00400096
-0.0647474
-0.00330903
-0.0654808
-0.00253725
-0.0660586
-0.00186026
-0.0664368
-0.00120968
-0.0666387
-0.000691118
-0.0667026
-0.000277678
-3.21501e-05
-0.0736975
-0.00553167
0.0737178
-0.074122
-0.0043714
-0.0745653
-0.00355762
-0.0751086
-0.00276577
-0.0755399
-0.00210598
-0.0759011
-0.00149902
-0.0761191
-0.00099174
-0.0762346
-0.000575604
-0.0762578
-0.000254408
-3.55904e-05
-0.0880269
-0.00554237
0.0880376
-0.0882988
-0.00409952
-0.0885538
-0.00330253
-0.0889031
-0.0024165
-0.0891578
-0.00185131
-0.0893947
-0.00126205
-0.0895221
-0.000864436
-0.0896018
-0.000495827
-0.089611
-0.000245269
-3.33413e-05
-0.105336
-0.00533167
0.105125
-0.105631
-0.0038042
-0.105871
-0.00306352
-0.106159
-0.00212806
-0.106357
-0.00165313
-0.106553
-0.00106598
-0.106659
-0.000758456
-0.106747
-0.000407609
-0.106774
-0.000218641
-1.70131e-05
-0.124568
-0.00479938
0.124036
-0.125016
-0.00335687
-0.125373
-0.00270617
-0.125694
-0.00180749
-0.125927
-0.00141966
-0.126134
-0.000859119
-0.126267
-0.0006251
-0.126389
-0.000285795
-0.12645
-0.000158198
9.54635e-06
-0.143535
-0.00392075
0.142656
-0.144183
-0.00270866
-0.144709
-0.00217942
-0.145101
-0.0014162
-0.145406
-0.00111476
-0.145635
-0.000630233
-0.145807
-0.000452912
-0.145941
-0.000151094
-0.146021
-7.86941e-05
3.44429e-05
-0.159626
-0.0027606
0.158466
-0.160448
-0.001887
-0.161114
-0.00151305
-0.161565
-0.000965332
-0.161923
-0.000756825
-0.162153
-0.000400127
-0.162331
-0.000275003
-0.162435
-4.76543e-05
-0.162497
-1.66427e-05
4.13938e-05
-0.170932
-0.00142393
0.169596
-0.171859
-0.000960793
-0.172603
-0.000768916
-0.173084
-0.000484425
-0.173461
-0.000379322
-0.173671
-0.000190368
-0.173821
-0.000125017
-0.173867
-1.89353e-06
-0.173889
5.77382e-06
2.75022e-05
-0.176681
0.175257
-0.177642
-0.178411
-0.178895
-0.179275
-0.179465
-0.17959
-0.179592
-0.179586
-0.0121494
0.05355
0.0111414
-0.0128473
0.0627766
-0.0134123
0.0742828
-0.0137096
0.0883349
-0.0135118
0.104928
-0.012534
0.123058
-0.0105839
0.140706
-0.00767829
0.155561
-0.00403943
0.165957
0.171218
-0.0115137
0.0542908
0.0107729
-0.012166
0.0634289
-0.0126645
0.0747813
-0.012875
0.0885454
-0.012599
0.104652
-0.0115954
0.122055
-0.00971902
0.138829
-0.00700923
0.152851
-0.00367279
0.16262
0.167545
-0.0109168
0.0549715
0.0102361
-0.0115059
0.064018
-0.0119277
0.0752031
-0.0120636
0.0886813
-0.0117365
0.104324
-0.0107404
0.121059
-0.00895946
0.137048
-0.00643913
0.15033
-0.00336694
0.159548
0.164178
-0.0102256
0.0556305
0.00956663
-0.0107556
0.064548
-0.0110964
0.0755438
-0.0111584
0.0887434
-0.0107889
0.103955
-0.00981509
0.120085
-0.00814768
0.135381
-0.00583496
0.148018
-0.00304439
0.156758
0.161134
-0.0094224
0.0562596
0.0087933
-0.00989681
0.0650224
-0.0101648
0.0758118
-0.0101649
0.0887435
-0.00976882
0.103559
-0.00883549
0.119152
-0.00729845
0.133844
-0.00520742
0.145927
-0.00271049
0.154261
0.158423
-0.00852671
0.0568481
0.00793815
-0.0089383
0.065434
-0.00913734
0.0760109
-0.00908667
0.0886928
-0.00868052
0.103153
-0.00780666
0.118278
-0.00641749
0.132455
-0.00456178
0.144071
-0.00236841
0.152067
0.156055
-0.00755749
0.057387
0.00701868
-0.00790063
0.0657772
-0.00803172
0.0761419
-0.00793822
0.0885993
-0.0075352
0.10275
-0.00673689
0.117479
-0.00551076
0.131229
-0.00390219
0.142462
-0.0020204
0.150186
0.154035
-0.00653004
0.0578647
0.00605227
-0.00680328
0.0660504
-0.0068684
0.0762071
-0.00673897
0.0884699
-0.00634955
0.10236
-0.00563905
0.116769
-0.00458711
0.130177
-0.00323397
0.141109
-0.00166899
0.148621
0.152366
-0.00546118
0.0582685
0.00505737
-0.0056655
0.0662547
-0.00566722
0.0762088
-0.00550848
0.0883111
-0.00514103
0.101993
-0.00452734
0.116155
-0.00365678
0.129306
-0.0025635
0.140016
-0.0013172
0.147374
0.151048
-0.0043688
0.058584
0.00405333
-0.00450815
0.0663941
-0.0044477
0.0761483
-0.00426571
0.0881291
-0.00392622
0.101653
-0.00341538
0.115644
-0.00272989
0.128621
-0.00189733
0.139183
-0.000968288
0.146445
0.15008
-0.00328245
0.058802
0.00306442
-0.0033571
0.0664687
-0.00323445
0.0760257
-0.00303317
0.0879279
-0.00272429
0.101344
-0.00231887
0.115239
-0.00181832
0.12812
-0.00124319
0.138608
-0.000626102
0.145828
0.149454
-0.00222439
0.0589247
0.00210167
-0.00222816
0.0664725
-0.00204962
0.0758471
-0.00182872
0.087707
-0.00155144
0.101067
-0.00124882
0.114936
-0.000929259
0.127801
-0.000606936
0.138286
-0.000293517
0.145515
0.14916
-0.00122708
0.0589669
0.0011849
-0.00114827
0.0663937
-0.000926555
0.0756254
-0.000684518
0.0874649
-0.000441888
0.100825
-0.000238799
0.114733
-9.43463e-05
0.127656
-1.54151e-05
0.138207
1.44385e-05
0.145485
0.149175
-0.000323442
0.0589692
0.000321197
-0.000147724
0.066218
9.8623e-05
0.0753791
0.000392873
0.0871707
0.000620535
0.100597
0.000740889
0.114613
0.000726794
0.12767
0.000578959
0.138355
0.000324317
0.145739
0.149499
0.000549529
0.0589003
-0.00048064
0.000817568
0.0659499
0.00112884
0.0750678
0.00142872
0.0868708
0.00162922
0.100396
0.00166271
0.114579
0.00149371
0.127839
0.00112779
0.138721
0.000609884
0.146257
0.150109
0.00136189
0.0587577
-0.00121932
0.00169607
0.0656158
0.0020464
0.0747175
0.00236837
0.0865488
0.00255047
0.100214
0.00250935
0.114621
0.00220024
0.128148
0.00163389
0.139287
0.000872428
0.147019
0.150982
0.0020785
0.0585787
-0.00189948
0.00248174
0.0652125
0.0028672
0.074332
0.00321193
0.0862041
0.00338264
0.100044
0.00327923
0.114724
0.00284586
0.128582
0.00209724
0.140036
0.0011121
0.148004
0.152094
0.00271064
0.0583981
-0.00253001
0.00317301
0.0647502
0.00358631
0.0739187
0.00394857
0.0858418
0.00410985
0.0998823
0.00395376
0.11488
0.00341268
0.129123
0.00250393
0.140945
0.00132106
0.149187
0.153415
0.00328101
0.0582473
-0.00313021
0.00378648
0.0642447
0.00422679
0.0734784
0.00460697
0.0854617
0.0047659
0.0997234
0.00456769
0.115078
0.00393081
0.12976
0.00287518
0.142
0.00151046
0.150552
0.154925
0.00368951
0.0582579
-0.00370016
0.00419548
0.0637387
0.00466059
0.0730133
0.00504861
0.0850736
0.00520533
0.0995666
0.00498244
0.115301
0.00428443
0.130458
0.00312913
0.143155
0.00163625
0.152044
0.156561
-0.0391454
0.053518
0.0438853
-0.0354208
0.0600141
-0.0329676
0.0705601
-0.0304072
0.0825133
-0.0273827
0.0965421
-0.02353
0.111448
-0.0186979
0.125626
-0.0129842
0.137442
-0.00664202
0.145702
0.149919
-0.047734
0.04945
0.051802
-0.0443748
0.0566548
-0.0413487
0.067534
-0.0379087
0.0790733
-0.0339468
0.0925802
-0.0289941
0.106496
-0.0229372
0.119569
-0.0158995
0.130404
-0.00816719
0.13797
0.141752
-0.0575169
0.0455609
0.061406
-0.054099
0.0532369
-0.0503929
0.063828
-0.0460708
0.0747512
-0.0409912
0.0875006
-0.0346836
0.100188
-0.0272004
0.112086
-0.0186995
0.121903
-0.00947539
0.128746
0.132277
-0.0693299
0.0418673
0.0730235
-0.0654011
0.0493082
-0.0608547
0.0592816
-0.0555348
0.0694312
-0.0491497
0.0811155
-0.0412909
0.0923293
-0.0321911
0.102986
-0.0220585
0.11177
-0.0112628
0.11795
0.121014
-0.0825218
0.0375744
0.0868147
-0.0777746
0.0445611
-0.0721465
0.0536535
-0.0654005
0.0626851
-0.0572264
0.0729414
-0.0474616
0.0825646
-0.0365174
0.0920416
-0.0246091
0.0998622
-0.0122223
0.105563
0.108792
-0.0977835
0.0332557
0.102102
-0.0918937
0.0386713
-0.084947
0.0467068
-0.0764977
0.0542359
-0.066437
0.0628807
-0.054822
0.0709496
-0.0419851
0.0792047
-0.028224
0.086101
-0.0143061
0.0916455
0.0944856
-0.112365
0.0270943
0.118527
-0.105217
0.0315227
-0.0965972
0.0380875
-0.0859754
0.043614
-0.0736995
0.0506048
-0.0597461
0.0569962
-0.0444508
0.0639093
-0.0283431
0.0699934
-0.0127676
0.07607
0.081718
-0.127906
0.0209912
0.134009
-0.119553
0.0231699
-0.10946
0.0279944
-0.0974096
0.0315637
-0.083743
0.0369383
-0.0682235
0.0414766
-0.0514134
0.0470993
-0.0339386
0.0525186
-0.017885
0.0600164
0.063833
-0.141978
0.0101777
0.152791
-0.130424
0.0116167
-0.116633
0.0142029
-0.101139
0.0160695
-0.0833068
0.0191064
-0.0635215
0.0216913
-0.0417155
0.0252932
-0.018798
0.0296011
0.00269021
0.0385282
0.0665232
-0.242633
0.25281
-0.231016
-0.216813
-0.200743
-0.181637
-0.159946
-0.134653
-0.105051
-0.0665232
0.00188555
0.045435
-0.00343516
0.000499899
0.0531876
-0.000516232
0.0624221
-0.00123234
0.0737396
-0.00167419
0.0872566
-0.00183454
0.102262
-0.00160668
0.118299
-0.00121528
0.133617
-0.00178807
0.153364
0.251022
0.00225865
0.0469511
-0.00377479
0.00091031
0.054536
-0.000153599
0.0634861
-0.000898284
0.0744843
-0.0013852
0.0877435
-0.00157875
0.102456
-0.00143185
0.118152
-0.00108827
0.133274
-0.00158321
0.153859
0.249439
0.00270899
0.0483667
-0.00412462
0.00139985
0.0558451
0.000359779
0.0645261
-0.000417634
0.0752617
-0.000923388
0.0882492
-0.00116018
0.102693
-0.00108639
0.118078
-0.000849238
0.133037
-0.00137847
0.154388
0.248061
0.00315994
0.0496851
-0.00447827
0.00189548
0.0571096
0.000892277
0.0655293
8.89968e-05
0.076065
-0.000395151
0.0887334
-0.000677525
0.102975
-0.00065583
0.118056
-0.00055327
0.132934
-0.00111485
0.15495
0.246946
0.00360368
0.0509045
-0.00482306
0.0024029
0.0583103
0.001445
0.0664872
0.000694485
0.0768155
0.000174852
0.089253
-0.00015978
0.10331
-0.000165826
0.118062
-0.000214319
0.132983
-0.000805098
0.15554
0.246141
0.00405611
0.0519962
-0.00514788
0.00294218
0.0594243
0.0020374
0.067392
0.00132723
0.0775256
0.000821635
0.0897586
0.000468278
0.103663
0.00036307
0.118168
0.000201569
0.133144
-0.000454922
0.156197
0.245686
0.00451618
0.0529248
-0.00544474
0.00351143
0.060429
0.00266961
0.0682338
0.00200407
0.0781912
0.00151012
0.0902526
0.00114577
0.104028
0.000943351
0.11837
0.000691553
0.133396
-5.94784e-05
0.156948
0.245626
0.00497683
0.0536544
-0.00570643
0.00410031
0.0613055
0.00333202
0.0690021
0.00271806
0.0788051
0.00223958
0.090731
0.0018586
0.104408
0.00157142
0.118657
0.00120448
0.133763
0.000328411
0.157824
0.245955
0.00543066
0.0541485
-0.00592477
0.0046975
0.0620387
0.00401335
0.0696863
0.00345801
0.0793605
0.00300184
0.0911872
0.00260394
0.104806
0.00223472
0.119026
0.00174653
0.134251
0.000749046
0.158822
0.246704
0.00586452
0.0543744
-0.00609044
0.00529055
0.0626126
0.00470196
0.0702749
0.00421214
0.0798503
0.00378636
0.091613
0.00337225
0.10522
0.00292365
0.119475
0.00231347
0.134861
0.00119185
0.159943
0.247895
0.00625939
0.0543061
-0.00619103
0.00586147
0.0630106
0.00538178
0.0707546
0.00496356
0.0802685
0.00457483
0.0920017
0.00414855
0.105647
0.00362553
0.119998
0.00289554
0.135591
0.00164671
0.161192
0.249542
0.00660686
0.0539276
-0.00622845
0.00640241
0.063215
0.00604433
0.0711126
0.00570444
0.0806084
0.00535903
0.0923471
0.00492653
0.106079
0.00433485
0.12059
0.00348843
0.136438
0.00211032
0.16257
0.251653
0.00688827
0.0532381
-0.00619871
0.0068943
0.063209
0.00666852
0.0713384
0.00641428
0.0808626
0.00611915
0.0926423
0.00568899
0.106509
0.00503687
0.121242
0.00408102
0.137393
0.00257539
0.164076
0.254228
0.00709164
0.0522526
-0.00610617
0.00732195
0.0629787
0.00723802
0.0714224
0.00707639
0.0810243
0.00683915
0.0928795
0.00642136
0.106927
0.00571921
0.121944
0.00466406
0.138449
0.0030352
0.165705
0.257263
0.00720822
0.0510052
-0.00596078
0.00767222
0.0625147
0.00773786
0.0713567
0.00767488
0.0810873
0.00750386
0.0930505
0.00710939
0.107322
0.00637026
0.122683
0.00522881
0.13959
0.00348395
0.167449
0.260747
0.00723462
0.0495495
-0.00577891
0.00793505
0.0618143
0.0081544
0.0711374
0.0081952
0.0810465
0.00809887
0.0931469
0.00773837
0.107682
0.00697739
0.123444
0.00576545
0.140802
0.00391287
0.169302
0.26466
0.00717618
0.0479556
-0.00558227
0.0081041
0.0608863
0.00847741
0.070764
0.00862638
0.0808975
0.00861218
0.0931611
0.00829848
0.107996
0.00753345
0.124209
0.00626891
0.142066
0.0043183
0.171253
0.268978
0.00704926
0.0462976
-0.0053913
0.0081767
0.0597589
0.00869922
0.0702415
0.00895551
0.0806412
0.00902627
0.0930903
0.00876917
0.108253
0.00801746
0.124961
0.00672391
0.14336
0.00468571
0.173291
0.273664
0.00686386
0.0446314
-0.00519767
0.00815888
0.0584639
0.00883401
0.0695664
0.0092007
0.0802745
0.00936196
0.0929291
0.00917305
0.108442
0.00844865
0.125685
0.00714428
0.144664
0.00502263
0.175412
0.278687
0.00657694
0.0429429
-0.00488844
0.00793976
0.0571011
0.00876537
0.0687408
0.00923959
0.0798003
0.00949855
0.0926701
0.00939132
0.108549
0.00873433
0.126342
0.00744706
0.145952
0.00531973
0.17754
0.284006
-0.0198727
0.0423133
0.0205023
-0.0174471
0.0546755
-0.0144996
0.0657933
-0.0113007
0.0766013
-0.00807984
0.0894492
-0.00467646
0.105146
-0.00115909
0.122825
0.00157751
0.143215
0.00143475
0.177683
0.285441
-0.0335622
0.0403699
0.0355056
-0.0303515
0.0514648
-0.0261333
0.0615752
-0.0214854
0.0719534
-0.0166611
0.084625
-0.0114307
0.0999154
-0.00597498
0.117369
-0.0013878
0.138628
6.30581e-05
0.176232
0.285504
-0.0484421
0.0376542
0.0511577
-0.0441412
0.0471639
-0.0385797
0.0560137
-0.0325546
0.0659282
-0.0261321
0.0782025
-0.0189384
0.0927217
-0.0113233
0.109754
-0.00462932
0.131934
-0.00141448
0.173017
0.28409
-0.0647062
0.0341236
0.0682368
-0.0590368
0.0414945
-0.0523408
0.0493177
-0.0450426
0.0586301
-0.0368504
0.0700103
-0.0274679
0.0833392
-0.0175308
0.099817
-0.00856107
0.122964
-0.0031388
0.167595
0.280951
-0.0826747
0.0292414
0.0875569
-0.075883
0.0347028
-0.0683776
0.0418123
-0.0596164
0.0498689
-0.0494069
0.0598008
-0.0377488
0.0716811
-0.0254043
0.0874725
-0.0138709
0.111431
-0.00560973
0.159333
0.275341
-0.103095
0.0238676
0.108469
-0.0953999
0.0270079
-0.086807
0.0332194
-0.0762915
0.0393534
-0.0641693
0.0476786
-0.0504661
0.0579779
-0.0359003
0.0729067
-0.0217168
0.0972472
-0.010043
0.14766
0.265298
-0.126252
0.0166896
0.13343
-0.118099
0.0188548
-0.108619
0.02374
-0.0970468
0.0277811
-0.0839413
0.034573
-0.0688367
0.0428734
-0.0526274
0.0566973
-0.0357002
0.0803201
-0.0188665
0.130826
0.246432
-0.157255
0.00937382
0.16457
-0.148574
0.0101744
-0.138296
0.0134621
-0.126341
0.0158262
-0.112657
0.0208887
-0.0969939
0.0272102
-0.0796529
0.0393563
-0.0605261
0.0611932
-0.036662
0.106962
0.20977
-0.212808
0.00267343
0.219508
-0.20584
0.003207
-0.197048
0.0046697
-0.187344
0.00612199
-0.175472
0.00901667
-0.161507
0.0132459
-0.143487
0.0213364
-0.118076
0.035782
-0.0758458
0.0647316
0.133924
-0.292035
0.294708
-0.288828
-0.284158
-0.278036
-0.26902
-0.255774
-0.234437
-0.198655
-0.133924
0.00230739
0.0214537
-0.00325882
0.000603103
0.0372099
-0.00108273
0.0528436
-0.00257236
0.0697265
-0.00377289
0.0887574
-0.00474169
0.109437
-0.00528529
0.133973
-0.0056379
0.164923
-0.00445942
0.21833
0.290249
0.0020718
0.0220572
-0.00267532
0.000678944
0.0386028
-0.000873818
0.0543963
-0.00231577
0.0711684
-0.00351362
0.0899553
-0.00446973
0.110394
-0.00503895
0.134542
-0.00540789
0.165292
-0.00425021
0.217172
0.285999
0.00194984
0.022369
-0.0022616
0.000855341
0.0396973
-0.000524829
0.0557765
-0.00185662
0.0725002
-0.00300275
0.0911014
-0.00393105
0.111322
-0.004536
0.135147
-0.00488684
0.165643
-0.00388285
0.216168
0.282116
0.0019124
0.0224304
-0.00197381
0.001102
0.0405077
-0.000110834
0.0569893
-0.0013035
0.0736929
-0.0023728
0.0921707
-0.00327946
0.112228
-0.00390871
0.135777
-0.00429209
0.166026
-0.00345851
0.215334
0.278657
0.00195339
0.0222557
-0.00177869
0.00143108
0.04103
0.000438101
0.0579823
-0.000664744
0.0747957
-0.00165407
0.0931601
-0.00253763
0.113112
-0.00319672
0.136436
-0.0036328
0.166462
-0.00298593
0.214687
0.275671
0.00207232
0.0218423
-0.00165893
0.00184775
0.0412546
0.00107875
0.0587513
5.92943e-05
0.0758152
-0.000831834
0.0940512
-0.00170142
0.113982
-0.00239761
0.137132
-0.00290721
0.166972
-0.00247266
0.214253
0.273199
0.00226036
0.0211866
-0.00160463
0.00234493
0.04117
0.00180818
0.059288
0.000973625
0.0766497
9.61923e-05
0.0949286
-0.000776027
0.114854
-0.00150382
0.13786
-0.00211837
0.167586
-0.00192488
0.214059
0.271274
0.0025048
0.0202913
-0.00160957
0.00291017
0.0407646
0.00261536
0.0595829
0.0019364
0.0773287
0.0011297
0.0957353
0.000235932
0.115748
-0.00051087
0.138606
-0.00127814
0.168354
-0.00134692
0.214128
0.269927
0.00279106
0.0191711
-0.00167084
0.00352706
0.0400286
0.00348472
0.0596252
0.00296526
0.0778481
0.00222899
0.0964716
0.00137927
0.116597
0.00052928
0.139456
-0.000409954
0.169293
-0.000740405
0.214459
0.269187
0.00310407
-0.00178978
0.00417559
0.00439985
0.00404753
0.00338698
0.00254311
0.00159809
0.000539989
-9.37395e-05
0.000194955
-0.00145702
0.000567566
-0.00337911
0.00104145
-0.00464861
0.00157349
-0.00543132
0.00214065
-0.00585341
0.00273256
-0.00601218
0.00334703
-0.0059825
0.00398804
-0.00582134
0.00466787
-0.00557285
-0.00527699
0.000201171
-0.00165819
0.000570996
-0.00374893
0.00102725
-0.00510487
0.00152562
-0.00592968
0.00204431
-0.0063721
0.0025753
-0.00654317
0.00311873
-0.00652593
0.0036796
-0.00638222
0.0042659
-0.00615915
-0.00589642
0.00019813
-0.00185632
0.000545864
-0.00409666
0.000958508
-0.00551751
0.00139298
-0.00636415
0.00183063
-0.00680974
0.00226719
-0.00697974
0.00270636
-0.0069651
0.00315565
-0.00683151
0.00362322
-0.00662671
-0.0063879
0.000184718
-0.00204104
0.000490203
-0.00440215
0.000833549
-0.00586086
0.00117573
-0.00670633
0.00150301
-0.00713702
0.0018159
-0.00729263
0.00212218
-0.00727137
0.00243241
-0.00714174
0.00275704
-0.00695135
-0.00673568
0.000160368
-0.00220141
0.000403866
-0.00464565
0.000654358
-0.00611135
0.000879816
-0.00693179
0.00107295
-0.00733016
0.00123959
-0.00745927
0.0013915
-0.00742328
0.00154195
-0.0072922
0.00170328
-0.00711268
-0.00691961
0.000125139
-0.00232655
0.000288589
-0.0048091
0.000426372
-0.00624913
0.000516209
-0.00702163
0.00055835
-0.0073723
0.000563898
-0.00746482
0.000547973
-0.00740735
0.0005257
-0.00726992
0.000510065
-0.00709704
-0.00691892
7.97627e-05
-0.00240631
0.000147881
-0.00487721
0.000157949
-0.0062592
9.96441e-05
-0.00696332
-1.8796e-05
-0.00725386
-0.00018135
-0.00730227
-0.000370737
-0.00721797
-0.000571333
-0.00706933
-0.000770664
-0.00689771
-0.00673065
2.57123e-05
-0.00243202
-1.29766e-05
-0.00483852
-0.000140393
-0.00613178
-0.000352808
-0.00675091
-0.000634229
-0.00697244
-0.000965016
-0.00697148
-0.0013267
-0.00685628
-0.00170437
-0.00669165
-0.00208702
-0.00651506
-0.00635052
-3.5689e-05
-0.00239633
-0.000188474
-0.00468574
-0.000456971
-0.00586329
-0.000823268
-0.00638461
-0.00126407
-0.00653164
-0.00175707
-0.00647848
-0.00228393
-0.00632942
-0.00283129
-0.0061443
-0.00339041
-0.00595593
-0.00578362
-0.000101284
-0.00229505
-0.000371229