/*--------------------------------*- C++ -*----------------------------------*\
  =========                 |
  \\      /  F ield         | OpenFOAM: The Open Source CFD Toolbox
   \\    /   O peration     | Website:  https://openfoam.org
    \\  /    A nd           | Version:  7
     \\/     M anipulation  |
\*---------------------------------------------------------------------------*/
FoamFile
{
    version     2.0;
    format      ascii;
    class       volVectorField;
    location    "46.1";
    object      U;
}
// * * * * * * * * * * * * * * * * * * * * * * * * * * * * * * * * * * * * * //

dimensions      [0 1 -1 0 0 0 0];

internalField   nonuniform List<vector> 
2000
(
(-0.00188337 0.00289859 -8.63962e-22)
(-0.00406434 0.00722228 0)
(-0.00435167 0.0117838 0)
(-0.00222474 0.0173501 -4.33764e-21)
(0.0019585 0.024573 1.41186e-21)
(0.00786767 0.0339107 5.90981e-23)
(0.0152082 0.0456361 -2.43556e-21)
(0.0236849 0.0598499 0)
(0.032928 0.0764856 0)
(0.0424005 0.0952979 0)
(-0.00212838 0.00395314 0)
(-0.00412533 0.00769976 -3.32283e-21)
(-0.0039584 0.0109963 3.06431e-21)
(-0.00156859 0.0150253 5.7995e-21)
(0.00256508 0.0205646 0)
(0.00806644 0.0281193 5.26585e-21)
(0.0146658 0.0380092 -4.89673e-21)
(0.0221456 0.0504211 0)
(0.030246 0.0654392 9.08647e-21)
(0.0384748 0.0830837 -1.74982e-20)
(-0.00237542 0.00479547 0)
(-0.0037118 0.00782766 2.62916e-20)
(-0.00239938 0.00994942 0)
(0.00095018 0.0126295 2.32575e-20)
(0.00569025 0.0167175 0)
(0.0113619 0.0227115 -2.08485e-20)
(0.0176879 0.0309224 0)
(0.0245045 0.0415718 1.90595e-20)
(0.0316744 0.0548632 -1.78499e-20)
(0.0387577 0.0710873 -1.73638e-20)
(-0.00253989 0.00531059 -6.85524e-21)
(-0.00266184 0.00746949 -1.31573e-20)
(0.000519907 0.00856298 -6.10504e-21)
(0.00554384 0.0101697 -1.15037e-20)
(0.0115657 0.0131579 -1.08558e-20)
(0.0180182 0.0179666 1.03229e-20)
(0.0245917 0.0248406 9.78642e-21)
(0.0311512 0.0339707 -2.37507e-22)
(0.0376841 0.0456185 1.77661e-20)
(0.0438467 0.0602967 1.73509e-20)
(-0.00250656 0.00539883 -6.72486e-21)
(-0.000788672 0.00652299 -1.31639e-20)
(0.00498438 0.00677673 -2.47009e-20)
(0.012365 0.00764998 1.14323e-20)
(0.0202988 0.00997409 0)
(0.0281026 0.0140856 0)
(0.035427 0.0201172 -1.9805e-20)
(0.04215 0.0281652 -1.87536e-20)
(0.048375 0.0384671 1.75592e-20)
(0.0539454 0.0516553 5.09319e-20)
(-0.00213768 0.00500343 6.70812e-21)
(0.00211297 0.00493118 6.68414e-21)
(0.0111501 0.0045682 -3.60656e-20)
(0.0214746 0.005083 5.72941e-20)
(0.0318212 0.00721196 -1.07184e-20)
(0.0414064 0.0111569 0)
(0.0498582 0.0169114 0)
(0.0570736 0.0244343 9.1796e-20)
(0.063258 0.0338589 -8.70898e-20)
(0.0685687 0.0458112 1.67175e-20)
(-0.00129012 0.00411202 5.14961e-20)
(0.00624258 0.00270401 0)
(0.0191268 0.0019777 4.84621e-20)
(0.0328156 0.00251197 -4.56893e-20)
(0.0458566 0.00488968 0)
(0.0574073 0.00915392 2.03447e-20)
(0.0671157 0.0151529 -5.66036e-20)
(0.0749333 0.0226969 -7.24466e-20)
(0.0811586 0.0317619 3.38115e-20)
(0.0863724 0.0428553 3.28556e-20)
(0.000183265 0.00275538 -1.01931e-19)
(0.0117721 -5.72881e-05 -1.27739e-20)
(0.0289462 -0.000875278 -2.3555e-20)
(0.0461866 2.71517e-05 -5.56945e-20)
(0.0619107 0.00301654 -2.12571e-20)
(0.0752885 0.0079596 -1.95355e-20)
(0.0860562 0.0145708 9.40277e-22)
(0.0942752 0.0225377 0)
(0.100343 0.0316676 0)
(0.105308 0.042273 -3.5963e-22)
(0.00241748 0.00101643 5.04357e-20)
(0.0188187 -0.00316511 -4.94831e-20)
(0.0405279 -0.00379336 3.54982e-20)
(0.0612192 -0.00223546 7.78379e-20)
(0.0792819 0.00159683 -2.05914e-20)
(0.0940131 0.00738608 2.03762e-20)
(0.105333 0.0147443 1.8668e-20)
(0.11347 0.023299 0)
(0.118917 0.0327523 0)
(0.123142 0.0432442 -1.07788e-21)
(0.00551928 -0.000974044 -6.10254e-21)
(0.0274107 -0.00635735 6.19228e-20)
(0.053645 -0.00652173 -1.14636e-20)
(0.0773625 -0.00411886 0)
(0.0970899 0.000611459 0)
(0.112419 0.00717591 3.82967e-20)
(0.123594 0.0151295 0)
(0.131117 0.0241238 -3.22455e-20)
(0.135586 0.0339145 3.52429e-22)
(0.138541 0.0448009 2.83011e-20)
(0.064095 0.141467 7.07632e-22)
(0.0956086 0.231973 -7.16623e-22)
(0.102861 0.307819 -8.17543e-22)
(0.0964017 0.372183 -9.0698e-22)
(0.0810636 0.435305 -1.05733e-21)
(0.0680697 0.503882 -1.67569e-23)
(0.0479677 0.584084 5.47805e-22)
(0.0392941 0.678764 1.84003e-21)
(0.0117956 0.797213 0)
(0.0116271 0.932552 -1.31133e-21)
(0.0567929 0.128643 2.6042e-21)
(0.0891208 0.222826 -3.06853e-21)
(0.0996533 0.305653 5.49405e-21)
(0.0946213 0.373895 9.08582e-22)
(0.0797745 0.438557 1.90792e-21)
(0.0669454 0.507576 3.1585e-21)
(0.0471491 0.587944 -1.15362e-21)
(0.0385167 0.682833 -1.22739e-21)
(0.0117854 0.801177 2.41864e-21)
(0.0111873 0.93548 1.3082e-21)
(0.052807 0.115403 0)
(0.0833165 0.21129 -2.86381e-21)
(0.0968051 0.301454 -1.58781e-21)
(0.0932383 0.374223 0)
(0.078847 0.4408 -5.7961e-21)
(0.0661273 0.510435 1.83578e-21)
(0.0465265 0.591059 1.9968e-21)
(0.0378726 0.686339 6.70862e-21)
(0.0118266 0.804938 -2.41082e-21)
(0.0107848 0.938438 4.76338e-21)
(0.0530574 0.102643 0)
(0.0785422 0.197723 2.88812e-21)
(0.0943216 0.295128 0)
(0.0922065 0.373026 6.8454e-21)
(0.0782574 0.441864 -6.88057e-21)
(0.0656146 0.512212 -3.98376e-21)
(0.0461392 0.593032 -2.03332e-22)
(0.0374345 0.688651 -6.52487e-21)
(0.0119864 0.8076 -1.08222e-21)
(0.0104207 0.940743 -5.87274e-21)
(0.0582534 0.0912868 3.89406e-22)
(0.0753166 0.182793 -7.8987e-21)
(0.092227 0.286628 3.20895e-22)
(0.091468 0.370258 -6.08767e-21)
(0.0779634 0.441981 0)
(0.0653333 0.513385 -3.80383e-21)
(0.0458642 0.594605 -2.14631e-22)
(0.0370487 0.690845 8.28747e-21)
(0.0121298 0.810455 1.07781e-21)
(0.0100811 0.943359 -1.08162e-21)
(0.0685376 0.0820921 -2.09289e-20)
(0.0743093 0.167444 1.3481e-20)
(0.0905944 0.276038 5.86621e-21)
(0.0909987 0.365642 -5.86339e-21)
(0.0779525 0.440546 -3.18593e-21)
(0.0653581 0.513084 0)
(0.0458673 0.594591 -7.46932e-21)
(0.0369111 0.691264 3.69345e-21)
(0.0124248 0.811594 3.98534e-21)
(0.00977615 0.944947 4.05244e-21)
(0.0831459 0.0754194 -2.42914e-21)
(0.076216 0.152735 0)
(0.0895356 0.26358 0)
(0.0907434 0.359626 0)
(0.0781477 0.438715 -3.29401e-21)
(0.0654761 0.512977 6.46976e-21)
(0.0458186 0.595135 7.27595e-21)
(0.0366641 0.69264 -1.11075e-20)
(0.0125876 0.813943 1.93477e-21)
(0.00948408 0.947436 -5.92947e-21)
(0.100312 0.0711404 1.49159e-20)
(0.0814629 0.139649 1.06993e-20)
(0.0893053 0.249527 -1.06045e-20)
(0.0907368 0.350837 1.15889e-20)
(0.0786081 0.433921 -1.43835e-20)
(0.0660495 0.510001 0)
(0.0462574 0.59265 -3.27395e-21)
(0.0368407 0.690697 1.7347e-22)
(0.0130177 0.81323 -3.51885e-21)
(0.00922381 0.948177 -3.59975e-21)
(0.117416 0.068439 -1.23172e-20)
(0.0897414 0.128036 0)
(0.0899786 0.235314 -1.1879e-20)
(0.0908998 0.343021 2.16065e-20)
(0.0790587 0.431477 -8.05611e-21)
(0.0662709 0.509954 -1.47594e-21)
(0.0461976 0.593468 3.26712e-21)
(0.0365525 0.692419 3.4897e-23)
(0.0130916 0.815905 5.10284e-21)
(0.0089622 0.950925 5.24708e-21)
(0.130877 0.0658707 -9.79122e-21)
(0.0996405 0.115905 9.58173e-21)
(0.0921833 0.215342 1.27092e-21)
(0.0914016 0.325929 0)
(0.080113 0.420028 0)
(0.067743 0.502074 1.41132e-21)
(0.0473569 0.586807 5.86537e-21)
(0.0372023 0.686808 -5.69617e-21)
(0.0137256 0.812499 -1.4959e-21)
(0.00873298 0.950545 1.45095e-21)
(0.138824 0.0713176 0)
(0.112401 0.115232 0)
(0.0979379 0.20637 0)
(0.0931189 0.322807 0)
(0.0798835 0.425038 0)
(0.0660348 0.511263 0)
(0.0456376 0.596991 0)
(0.0354755 0.697789 0)
(0.0132438 0.823094 0)
(0.00816255 0.959154 0)
(0.135119 0.0940465 0)
(0.115045 0.14443 0)
(0.0976112 0.224714 0)
(0.0906788 0.334397 0)
(0.0786048 0.438521 0)
(0.064566 0.526004 0)
(0.0440656 0.610004 0)
(0.0330684 0.708939 0)
(0.0123948 0.832694 0)
(0.00734635 0.964778 0)
(0.121786 0.103735 0)
(0.107237 0.162145 0)
(0.0905496 0.241712 0)
(0.0817803 0.348067 0)
(0.0710125 0.453909 0)
(0.0588075 0.544151 0)
(0.040342 0.629215 0)
(0.0301283 0.727648 0)
(0.0115055 0.849964 0)
(0.00672119 0.978313 0)
(0.101294 0.110694 0)
(0.09112 0.174249 0)
(0.0785848 0.254703 0)
(0.0716433 0.359022 0)
(0.0634716 0.465214 0)
(0.0534762 0.556085 0)
(0.0366654 0.639687 0)
(0.0265423 0.736484 0)
(0.00969248 0.857887 0)
(0.00572153 0.982694 0)
(0.0776637 0.116542 0)
(0.069473 0.183274 0)
(0.0597053 0.264076 0)
(0.0547466 0.36691 0)
(0.0502881 0.475421 0)
(0.0446068 0.571118 0)
(0.0318504 0.657576 0)
(0.0238187 0.753663 0)
(0.00880928 0.872586 0)
(0.0051867 0.993956 0)
(0.0534955 0.121202 0)
(0.0471579 0.189656 0)
(0.0414699 0.270581 0)
(0.0396687 0.370341 0)
(0.0386678 0.477639 0)
(0.0361197 0.574619 0)
(0.0256544 0.662303 0)
(0.0184442 0.759414 0)
(0.00584979 0.878443 0)
(0.00391086 0.996573 0)
(0.0309499 0.125721 0)
(0.0230416 0.194152 0)
(0.0178646 0.272893 0)
(0.0183916 0.370254 0)
(0.0227379 0.479429 0)
(0.0268949 0.582577 0)
(0.022034 0.675615 0)
(0.0170271 0.772748 0)
(0.00531521 0.889024 0)
(0.00347429 1.00439 0)
(0.0133788 0.131078 0)
(0.00623469 0.201881 0)
(0.00172304 0.277731 0)
(0.00172881 0.368118 0)
(0.00684044 0.47157 0)
(0.0132907 0.574911 0)
(0.0121401 0.672317 0)
(0.0102598 0.774303 0)
(0.00205732 0.892627 0)
(0.00220199 1.00488 0)
(-0.00243203 0.133989 0)
(-0.0115061 0.202729 0)
(-0.0162367 0.274917 0)
(-0.0142162 0.363269 0)
(-0.00514775 0.467931 0)
(0.00661614 0.577264 0)
(0.0098636 0.679849 0)
(0.00977637 0.781807 0)
(0.0018468 0.898016 0)
(0.00189879 1.00832 0)
(-0.0100393 0.147749 0)
(-0.0212322 0.218063 0)
(-0.0299991 0.282778 0)
(-0.0315825 0.357136 0)
(-0.0243806 0.449599 0)
(-0.0115867 0.556951 0)
(-0.00308893 0.667477 0)
(0.00227021 0.77991 0)
(-0.00126324 0.899777 0)
(0.000652152 1.00712 0)
(0.156393 0.053831 6.19599e-21)
(0.146653 0.0633557 -6.12178e-21)
(0.128996 0.0670046 2.69292e-22)
(0.105574 0.0702396 0)
(0.079959 0.0735748 0)
(0.0542792 0.0772647 -2.90405e-22)
(0.0312552 0.0811632 1.25249e-21)
(0.0136578 0.085389 -1.23269e-21)
(0.000192915 0.0885745 -1.36433e-22)
(-0.00638836 0.0985605 1.33769e-22)
(0.155783 0.0458205 -9.41989e-21)
(0.142293 0.0508277 0)
(0.124027 0.0516766 7.03719e-22)
(0.101218 0.0531512 -2.29845e-22)
(0.0769124 0.0551198 -1.07219e-21)
(0.0526219 0.058132 2.8468e-22)
(0.0309019 0.061626 -6.19476e-22)
(0.0140718 0.0653537 -1.02452e-21)
(0.00158878 0.0685399 -3.94615e-23)
(-0.00486227 0.0768229 2.82831e-24)
(0.154969 0.0368589 1.01517e-20)
(0.139484 0.0380199 -2.7337e-21)
(0.120879 0.0364953 2.70691e-21)
(0.0982286 0.0362225 8.00113e-22)
(0.0746742 0.0365558 -4.34889e-22)
(0.0513385 0.0385146 0)
(0.0306948 0.0412765 6.20899e-22)
(0.0145916 0.0444562 2.25536e-23)
(0.00280225 0.0475148 3.84755e-22)
(-0.00349791 0.0541942 1.27138e-22)
(0.152972 0.0262215 -1.43147e-21)
(0.135923 0.0238339 0)
(0.117496 0.020244 0)
(0.0953583 0.0185135 0)
(0.0727348 0.0173808 -1.25044e-21)
(0.0503496 0.0183294 8.96394e-22)
(0.0306268 0.0202633 -1.82942e-23)
(0.0151606 0.0228779 4.87515e-22)
(0.00397433 0.0256726 1.21354e-22)
(-0.0022847 0.0308753 -1.77858e-24)
(0.14996 0.0140877 -1.97568e-21)
(0.131932 0.0085471 -3.39301e-21)
(0.113964 0.00302391 -2.90509e-22)
(0.0924527 1.34306e-05 2.90269e-22)
(0.07081 -0.00244223 3.48146e-22)
(0.049434 -0.00237692 0)
(0.0305942 -0.001258 5.75228e-22)
(0.0157378 0.000805026 -9.34021e-22)
(0.00503938 0.00322177 4.22972e-22)
(-0.00125334 0.00709388 -1.21006e-22)
(0.146047 0.000713974 -9.83187e-21)
(0.127606 -0.00748069 2.10519e-21)
(0.110348 -0.0148774 8.14365e-22)
(0.0895746 -0.0190246 2.93926e-22)
(0.0688762 -0.0227157 0)
(0.0485335 -0.0234205 0)
(0.0305492 -0.0230724 0)
(0.0162798 -0.021548 -4.56856e-22)
(0.00594176 -0.0195883 0)
(-0.000383573 -0.0169059 0)
(0.141358 -0.0136075 0)
(0.122976 -0.0238677 1.86667e-21)
(0.106593 -0.033124 -1.10638e-21)
(0.0866488 -0.0382541 2.95158e-22)
(0.0669411 -0.0431376 -2.96659e-22)
(0.0476218 -0.0445431 -4.66126e-22)
(0.0304689 -0.0449286 4.73348e-22)
(0.0167506 -0.0439347 1.54274e-21)
(0.00664976 -0.0424884 -1.36499e-22)
(0.000283436 -0.0408308 5.62148e-23)
(0.135957 -0.0285647 0)
(0.118041 -0.0402239 -7.59329e-22)
(0.102693 -0.051363 -1.94737e-22)
(0.0836389 -0.0573336 0)
(0.0650218 -0.0633819 -2.10387e-22)
(0.046686 -0.0654319 5.03809e-22)
(0.0303171 -0.0665372 -6.86393e-22)
(0.0170954 -0.0660815 -2.117e-22)
(0.00714737 -0.0651968 1.40449e-22)
(0.000736736 -0.0643411 -1.10128e-22)
(0.129845 -0.0438281 1.43066e-21)
(0.112856 -0.0562199 5.98373e-22)
(0.098666 -0.0692698 -3.00809e-22)
(0.0805519 -0.0759236 2.32176e-23)
(0.0630532 -0.0831083 -1.04577e-22)
(0.0456852 -0.0857743 -2.66372e-22)
(0.0300472 -0.0875994 9.56273e-23)
(0.0172758 -0.0876996 8.96275e-23)
(0.00743302 -0.0873749 -1.40908e-22)
(0.00098058 -0.0871199 -2.4141e-23)
(0.123137 -0.0590504 -2.58553e-22)
(0.107462 -0.0716068 2.60894e-22)
(0.0944822 -0.0865439 -1.08308e-22)
(0.0773748 -0.0937373 -2.31815e-23)
(0.0609954 -0.102012 -5.20608e-23)
(0.0445859 -0.10529 1.32551e-22)
(0.0296232 -0.10783 -1.39157e-22)
(0.0172721 -0.108503 -4.58251e-23)
(0.00752424 -0.108702 0)
(0.00110797 -0.108842 2.41844e-23)
(0.116132 -0.0739588 2.73107e-22)
(0.101938 -0.0862055 -2.75354e-22)
(0.0901906 -0.10295 -1.38648e-22)
(0.0741475 -0.110566 -5.41722e-23)
(0.0588369 -0.119844 3.70628e-23)
(0.043372 -0.123751 1.36233e-23)
(0.0290264 -0.126977 -3.27771e-23)
(0.0170816 -0.128229 -1.0868e-22)
(0.00744295 -0.128875 0)
(0.00113175 -0.129233 1.94025e-23)
(0.109127 -0.0883707 0)
(0.0964497 -0.0999073 -7.69901e-22)
(0.0858817 -0.118304 1.22851e-21)
(0.0709413 -0.126278 5.42501e-23)
(0.056588 -0.136416 1.82151e-23)
(0.0420463 -0.14099 -1.22257e-22)
(0.0282586 -0.144833 7.07184e-23)
(0.0167191 -0.146655 7.0292e-23)
(0.0072194 -0.147646 -9.09444e-23)
(0.00107791 -0.148093 -1.93507e-23)
(0.102289 -0.102173 0)
(0.0911067 -0.112685 -1.06917e-21)
(0.0816069 -0.132476 -3.14659e-22)
(0.067801 -0.140821 0)
(0.0542697 -0.151606 1.79973e-24)
(0.0406251 -0.156908 5.10695e-23)
(0.0273434 -0.161252 -7.21759e-23)
(0.0162167 -0.163626 -3.06075e-22)
(0.00689441 -0.164845 9.06475e-23)
(0.000975074 -0.165307 -5.5724e-23)
(0.0957079 -0.115298 0)
(0.0859641 -0.124609 1.07797e-21)
(0.0773871 -0.145387 0)
(0.0647489 -0.154224 5.40465e-22)
(0.051913 -0.16536 -5.4329e-22)
(0.0391316 -0.171473 9.92608e-23)
(0.0263206 -0.176163 7.7915e-23)
(0.0156155 -0.179068 2.77533e-22)
(0.00651239 -0.180398 5.62769e-23)
(0.000849456 -0.180849 7.92007e-23)
(0.0894528 -0.1277 1.34522e-20)
(0.0810842 -0.135838 -5.01031e-21)
(0.0732545 -0.15701 -7.3369e-22)
(0.0618079 -0.166576 -1.31961e-21)
(0.0495618 -0.177699 0)
(0.0375943 -0.184714 4.11772e-23)
(0.025238 -0.189571 7.64827e-23)
(0.0149545 -0.192987 -2.75742e-22)
(0.00611098 -0.194322 -1.91365e-23)
(0.000718338 -0.194771 1.90956e-23)
(0.0835704 -0.139322 1.88267e-21)
(0.0765515 -0.146611 7.52877e-21)
(0.069277 -0.167369 1.49443e-21)
(0.0590106 -0.178007 -1.49362e-21)
(0.0472771 -0.188708 -3.21151e-22)
(0.0360469 -0.196713 0)
(0.0241446 -0.201554 9.24371e-23)
(0.0142673 -0.205466 -5.68029e-23)
(0.00571899 -0.206716 -9.21662e-23)
(0.000591538 -0.207196 -2.39273e-23)
(0.078164 -0.150052 -2.01921e-21)
(0.072531 -0.157223 0)
(0.0655956 -0.176541 0)
(0.0564158 -0.188658 0)
(0.04514 -0.198531 -1.7865e-22)
(0.0345303 -0.207588 4.995e-22)
(0.023088 -0.212249 -4.72701e-23)
(0.0135827 -0.216643 1.41845e-22)
(0.00535792 -0.217741 -2.01969e-23)
(0.000473913 -0.218295 4.36394e-23)
(0.0732136 -0.159697 -5.08179e-21)
(0.0690433 -0.167956 5.38725e-21)
(0.0622503 -0.18465 -5.33699e-21)
(0.053995 -0.198648 2.3542e-21)
(0.0431827 -0.207352 -2.80312e-21)
(0.0330605 -0.217477 0)
(0.0221014 -0.221832 -7.92633e-23)
(0.0129259 -0.226691 -3.72165e-23)
(0.00504446 -0.227595 2.50589e-23)
(0.000365698 -0.228274 5.52151e-24)
(0.0676583 -0.167847 -2.25207e-21)
(0.0651857 -0.179026 0)
(0.0587248 -0.191908 -4.85268e-21)
(0.0513389 -0.208088 6.85938e-21)
(0.0412077 -0.215403 -2.20436e-21)
(0.0315378 -0.226543 -1.49492e-22)
(0.0211594 -0.230507 7.90832e-23)
(0.0123 -0.235803 -3.03311e-24)
(0.00478137 -0.236491 -1.92165e-23)
(0.000262918 -0.237352 -8.96828e-24)
(0.0619704 -0.173644 -9.15334e-21)
(0.0608967 -0.190605 8.91873e-21)
(0.0552484 -0.198731 6.84729e-22)
(0.0484998 -0.217164 0)
(0.0392098 -0.223001 0)
(0.0299471 -0.235009 1.54421e-22)
(0.0202127 -0.238512 2.10446e-22)
(0.0116683 -0.24418 -2.06335e-22)
(0.00453137 -0.244641 -4.22772e-24)
(0.000174479 -0.245759 4.1276e-24)
(0.0674329 -0.180142 0)
(0.0619183 -0.217984 0)
(0.0555665 -0.214662 0)
(0.0470971 -0.238114 0)
(0.0375065 -0.240786 0)
(0.0275815 -0.25454 0)
(0.0183297 -0.256829 0)
(0.0101332 -0.263158 0)
(0.00388326 -0.262912 0)
(0.000116162 -0.264644 0)
(0.049922 -0.22825 0)
(0.0431445 -0.26228 0)
(0.040382 -0.255083 0)
(0.0332339 -0.276052 0)
(0.0274342 -0.275192 0)
(0.0199517 -0.287892 0)
(0.0136497 -0.287632 0)
(0.00752165 -0.293647 0)
(0.0030892 -0.291955 0)
(0.000187351 -0.294153 0)
(0.0450714 -0.274279 0)
(0.0368412 -0.306774 0)
(0.0333469 -0.296366 0)
(0.0262193 -0.316631 0)
(0.0214143 -0.31259 0)
(0.0151151 -0.324884 0)
(0.0104829 -0.322233 0)
(0.00572956 -0.328191 0)
(0.00255311 -0.325066 0)
(0.000168626 -0.327813 0)
(0.0386449 -0.325522 0)
(0.0303521 -0.357317 0)
(0.0272383 -0.343761 0)
(0.0206233 -0.363958 0)
(0.0169255 -0.356927 0)
(0.0116366 -0.369392 0)
(0.00833719 -0.364492 0)
(0.00455069 -0.37081 0)
(0.00225053 -0.36625 0)
(0.000147323 -0.369766 0)
(0.0329026 -0.385957 0)
(0.0251939 -0.417395 0)
(0.0222252 -0.401545 0)
(0.0163372 -0.422026 0)
(0.0135247 -0.412606 0)
(0.00909103 -0.425659 0)
(0.00677744 -0.418861 0)
(0.00365281 -0.425909 0)
(0.00198531 -0.420052 0)
(9.81134e-05 -0.424611 0)
(0.0276623 -0.458728 0)
(0.0205924 -0.488352 0)
(0.0179644 -0.472571 0)
(0.0128349 -0.492645 0)
(0.0107548 -0.482393 0)
(0.00698652 -0.495703 0)
(0.00536014 -0.487946 0)
(0.00268036 -0.495657 0)
(0.00154188 -0.489091 0)
(-3.74919e-05 -0.49468 0)
(0.0215496 -0.54074 0)
(0.0160874 -0.565576 0)
(0.0138468 -0.553567 0)
(0.00975346 -0.571121 0)
(0.00806797 -0.562502 0)
(0.00497194 -0.574524 0)
(0.00370856 -0.567479 0)
(0.00147363 -0.574846 0)
(0.000803556 -0.568745 0)
(-0.000224601 -0.574605 0)
(0.0166553 -0.619554 0)
(0.0120446 -0.637599 0)
(0.0100381 -0.631509 0)
(0.00664385 -0.644072 0)
(0.00539043 -0.639108 0)
(0.00289532 -0.647813 0)
(0.00199386 -0.643071 0)
(0.000233688 -0.648433 0)
(6.74283e-05 -0.644042 0)
(-0.000361328 -0.648636 0)
(0.00994733 -0.678725 0)
(0.00681689 -0.688285 0)
(0.00572258 -0.688799 0)
(0.00367656 -0.696052 0)
(0.00298995 -0.695413 0)
(0.00136773 -0.699891 0)
(0.00080218 -0.697967 0)
(-0.00032119 -0.700378 0)
(-0.000238908 -0.698153 0)
(-0.000308298 -0.700404 0)
(0.00244449 -0.707702 0)
(0.00172863 -0.715581 0)
(0.00160079 -0.718758 0)
(0.00116967 -0.723278 0)
(0.000941281 -0.724217 0)
(0.000446507 -0.72655 0)
(0.000199536 -0.725907 0)
(-0.000149402 -0.726833 0)
(-0.000128935 -0.72573 0)
(-0.000101273 -0.726687 0)
(0.0601918 -0.194292 1.18165e-20)
(0.0488779 -0.242807 -1.15953e-20)
(0.0460456 -0.289951 1.49676e-21)
(0.0400026 -0.342623 0)
(0.0349608 -0.403573 0)
(0.0297399 -0.474924 1.65325e-21)
(0.0239675 -0.552707 -7.01031e-21)
(0.0181747 -0.62398 6.94923e-21)
(0.011334 -0.678609 1.86615e-21)
(0.00355974 -0.703579 -1.84038e-21)
(0.0580898 -0.200773 -1.41255e-20)
(0.0490505 -0.248368 0)
(0.0465901 -0.295157 9.97985e-21)
(0.0407112 -0.347856 -2.28205e-20)
(0.0359269 -0.408719 1.44934e-20)
(0.0307027 -0.479429 -1.4955e-21)
(0.0250358 -0.555593 3.29275e-21)
(0.0188664 -0.625147 6.87399e-21)
(0.0119441 -0.677422 1.89436e-21)
(0.00403421 -0.702268 1.87805e-21)
(0.0567144 -0.207745 1.67483e-20)
(0.0499158 -0.254794 -1.13013e-20)
(0.0475212 -0.300673 1.11941e-20)
(0.0417821 -0.352774 -1.20539e-20)
(0.0371678 -0.413161 8.95604e-21)
(0.0318777 -0.482957 0)
(0.0261288 -0.557423 -3.30095e-21)
(0.0196247 -0.625561 1.68333e-22)
(0.0124439 -0.675524 -3.56335e-21)
(0.0042894 -0.700813 -3.67047e-21)
(0.0560192 -0.213715 -2.72169e-21)
(0.0512776 -0.260772 0)
(0.0488395 -0.306003 0)
(0.0432533 -0.357546 0)
(0.0387156 -0.417449 9.8174e-21)
(0.0332971 -0.486297 -6.54226e-21)
(0.0273291 -0.559121 -1.97876e-23)
(0.0204808 -0.625576 -3.85457e-21)
(0.0128978 -0.673642 -1.96313e-21)
(0.00440229 -0.698699 -2.0866e-21)
(0.0561085 -0.218887 4.88397e-23)
(0.0530352 -0.265689 -8.30743e-21)
(0.0504774 -0.310434 -6.0601e-21)
(0.0450645 -0.361647 6.05639e-21)
(0.0405257 -0.421216 -3.23154e-21)
(0.0349368 -0.48925 0)
(0.0286936 -0.560617 -3.65994e-21)
(0.0214664 -0.625305 7.89449e-21)
(0.0134115 -0.671812 -4.03192e-21)
(0.00450157 -0.696066 4.09774e-21)
(0.0570579 -0.223512 -2.25909e-20)
(0.055218 -0.269618 2.60705e-21)
(0.052443 -0.313768 -2.95313e-22)
(0.047179 -0.364726 6.23924e-21)
(0.0425602 -0.424048 0)
(0.0367667 -0.491403 0)
(0.0302301 -0.56154 0)
(0.0225939 -0.624637 4.23111e-21)
(0.0140456 -0.669838 0)
(0.00465941 -0.693165 0)
(0.0588723 -0.227465 0)
(0.0578667 -0.272646 9.0527e-21)
(0.0547941 -0.316068 -6.08302e-21)
(0.0496099 -0.366732 -6.84577e-21)
(0.0448238 -0.425798 6.88146e-21)
(0.0387851 -0.492546 3.93147e-21)
(0.0319315 -0.561649 -3.92394e-21)
(0.0238597 -0.623438 -1.5117e-20)
(0.0148052 -0.667565 1.07803e-21)
(0.00488689 -0.690128 -3.63077e-21)
(0.0615373 -0.230514 0)
(0.0609912 -0.274698 -2.97638e-21)
(0.0575771 -0.317351 -1.63446e-21)
(0.0523838 -0.367697 0)
(0.0473458 -0.426474 1.93185e-21)
(0.0410146 -0.492661 -5.87158e-21)
(0.0338052 -0.560886 6.36618e-21)
(0.0252647 -0.621636 2.23788e-21)
(0.0156772 -0.664922 -2.4382e-21)
(0.00517201 -0.686959 4.82071e-21)
(0.0650464 -0.232485 2.87651e-21)
(0.0645908 -0.275672 3.19534e-21)
(0.060814 -0.317561 -7.49542e-22)
(0.0555149 -0.367616 9.08171e-22)
(0.0501539 -0.426097 1.88193e-21)
(0.0434823 -0.491798 3.08422e-21)
(0.0358661 -0.559304 -1.13777e-21)
(0.0268106 -0.619254 -1.21426e-21)
(0.016644 -0.661918 2.44626e-21)
(0.00549928 -0.683622 1.31956e-21)
(0.0693974 -0.233252 -7.69315e-22)
(0.068669 -0.275515 7.75281e-22)
(0.0645164 -0.316625 -8.42418e-22)
(0.0590071 -0.366455 -9.07061e-22)
(0.0532649 -0.424654 1.03474e-21)
(0.0462071 -0.489978 -2.10125e-21)
(0.0381371 -0.556927 1.73673e-21)
(0.0285152 -0.6163 6.11826e-22)
(0.0177107 -0.658554 0)
(0.00586866 -0.680075 -1.32248e-21)
(0.0745864 -0.2327 7.91258e-22)
(0.0732297 -0.274241 -7.97771e-22)
(0.0686934 -0.314502 -9.05165e-22)
(0.0628596 -0.364201 -9.78529e-22)
(0.056692 -0.42212 -1.07783e-21)
(0.0492001 -0.487226 -6.03047e-23)
(0.040626 -0.553808 6.14183e-22)
(0.0303774 -0.612836 1.95328e-21)
(0.0188694 -0.654872 0)
(0.00627425 -0.676315 -1.43838e-21)
(0.0806039 -0.230786 0)
(0.0782681 -0.271893 -3.5297e-21)
(0.0733544 -0.311192 6.34505e-21)
(0.0670721 -0.360869 9.80248e-22)
(0.0604418 -0.418502 2.20969e-21)
(0.0524659 -0.483513 3.53813e-21)
(0.0433583 -0.54989 -1.23817e-21)
(0.0324265 -0.608805 -1.32216e-21)
(0.0201477 -0.650829 2.8983e-21)
(0.00673061 -0.672316 1.43499e-21)
(0.0874344 -0.227586 0)
(0.0837765 -0.268504 -3.55787e-21)
(0.0785014 -0.306785 -1.88759e-21)
(0.0716389 -0.356492 0)
(0.0645333 -0.413818 -6.8919e-21)
(0.0560119 -0.478894 2.3193e-21)
(0.0463184 -0.545279 2.65904e-21)
(0.0346341 -0.604316 8.46029e-21)
(0.0215148 -0.646489 -2.88892e-21)
(0.00721847 -0.668103 6.20445e-21)
(0.09506 -0.223244 0)
(0.0897451 -0.264077 3.58843e-21)
(0.0841304 -0.301365 0)
(0.0765733 -0.351092 8.98676e-21)
(0.06896 -0.4082 -9.03282e-21)
(0.0598432 -0.473255 -5.25773e-21)
(0.0495515 -0.53981 -7.87207e-23)
(0.0370625 -0.599187 -8.68681e-21)
(0.0230321 -0.641725 -1.44845e-21)
(0.00777028 -0.663586 -7.71761e-21)
(0.103458 -0.217948 2.76977e-20)
(0.0961727 -0.258592 -1.05001e-20)
(0.0902071 -0.295217 6.95036e-22)
(0.0818472 -0.344692 -8.65241e-21)
(0.0737672 -0.401692 0)
(0.0639816 -0.466734 -5.47226e-21)
(0.0529815 -0.533769 -3.69735e-22)
(0.0396263 -0.59369 1.17988e-20)
(0.0246191 -0.636713 1.59923e-21)
(0.00833814 -0.658888 -1.60516e-21)
(0.112594 -0.211882 -1.57809e-21)
(0.103024 -0.25213 1.90192e-20)
(0.0967389 -0.288156 8.99185e-21)
(0.0875536 -0.33708 -8.98579e-21)
(0.0789518 -0.39399 -5.16007e-21)
(0.0684783 -0.459123 0)
(0.0567326 -0.526687 -1.20806e-20)
(0.0424823 -0.587381 6.05661e-21)
(0.0264123 -0.631184 6.39419e-21)
(0.00899538 -0.653837 6.81633e-21)
(0.122369 -0.20543 -3.81961e-21)
(0.11037 -0.244618 0)
(0.103695 -0.280328 0)
(0.0936095 -0.328907 0)
(0.0844042 -0.385867 -5.79689e-21)
(0.0731779 -0.451381 1.09384e-20)
(0.0605918 -0.519622 1.22914e-20)
(0.0453634 -0.581126 -1.92067e-20)
(0.0281809 -0.625624 3.40427e-21)
(0.00960926 -0.648708 -1.01241e-20)
(0.132704 -0.198442 -6.60246e-21)
(0.11831 -0.23557 1.79518e-20)
(0.111018 -0.271486 -1.77805e-20)
(0.100131 -0.319419 2.11342e-20)
(0.090323 -0.376127 -2.64902e-20)
(0.0783997 -0.441792 0)
(0.0650033 -0.510754 -6.41713e-21)
(0.0487613 -0.573497 -2.43863e-22)
(0.0303287 -0.619245 -7.05775e-21)
(0.010401 -0.643023 -7.17238e-21)
(0.143243 -0.192004 -4.07769e-21)
(0.126548 -0.227027 0)
(0.118297 -0.263707 -2.28179e-20)
(0.106667 -0.311253 4.20614e-20)
(0.0961538 -0.368109 -1.60836e-20)
(0.083433 -0.434175 -3.08697e-21)
(0.0691121 -0.503762 6.40351e-21)
(0.0518027 -0.567152 -2.88038e-22)
(0.0321747 -0.613416 1.03233e-20)
(0.010988 -0.637535 1.06142e-20)
(0.1546 -0.182451 -1.77354e-20)
(0.136573 -0.214592 1.73349e-20)
(0.126897 -0.251637 2.45729e-21)
(0.114578 -0.298304 0)
(0.103318 -0.354848 0)
(0.0898619 -0.421227 2.98579e-21)
(0.0746171 -0.492186 1.32676e-20)
(0.0561004 -0.557701 -1.2938e-20)
(0.0349313 -0.605942 -3.48909e-21)
(0.0120341 -0.630968 3.42754e-21)
(0.165601 -0.184438 0)
(0.157497 -0.209893 0)
(0.143102 -0.24882 0)
(0.12908 -0.294313 0)
(0.116262 -0.349707 0)
(0.10096 -0.414168 0)
(0.0835928 -0.48275 0)
(0.062678 -0.545868 0)
(0.0388415 -0.592592 0)
(0.0129101 -0.617421 0)
(0.188038 -0.166123 0)
(0.193552 -0.196147 0)
(0.170822 -0.239076 0)
(0.157508 -0.283537 0)
(0.14196 -0.338422 0)
(0.12354 -0.40055 0)
(0.102443 -0.465227 0)
(0.077022 -0.523506 0)
(0.0481239 -0.565492 0)
(0.0170021 -0.586294 0)
(0.220491 -0.147477 0)
(0.231602 -0.178112 0)
(0.200488 -0.220742 0)
(0.190079 -0.263358 0)
(0.170082 -0.317465 0)
(0.148087 -0.376248 0)
(0.122323 -0.436903 0)
(0.0915032 -0.491574 0)
(0.0565351 -0.531862 0)
(0.0184595 -0.553873 0)
(0.262361 -0.134478 0)
(0.275108 -0.163722 0)
(0.23747 -0.205275 0)
(0.231 -0.246744 0)
(0.204326 -0.299662 0)
(0.178923 -0.35365 0)
(0.147449 -0.409403 0)
(0.110265 -0.458094 0)
(0.0686607 -0.492395 0)
(0.0244719 -0.508414 0)
(0.313019 -0.118189 0)
(0.324223 -0.14531 0)
(0.281856 -0.18395 0)
(0.276922 -0.222287 0)
(0.240069 -0.270344 0)
(0.210967 -0.317289 0)
(0.171409 -0.367587 0)
(0.12702 -0.411166 0)
(0.0776004 -0.443989 0)
(0.0243634 -0.463559 0)
(0.375645 -0.108312 0)
(0.383098 -0.132805 0)
(0.337498 -0.168303 0)
(0.330429 -0.202129 0)
(0.282628 -0.244558 0)
(0.251421 -0.285147 0)
(0.202079 -0.329949 0)
(0.149939 -0.365673 0)
(0.0925708 -0.39123 0)
(0.0342513 -0.400778 0)
(0.444119 -0.0871477 0)
(0.443363 -0.107081 0)
(0.395121 -0.13678 0)
(0.381053 -0.16369 0)
(0.32305 -0.198728 0)
(0.288333 -0.23139 0)
(0.223536 -0.267534 0)
(0.163917 -0.295845 0)
(0.0965586 -0.322751 0)
(0.0262523 -0.344029 0)
(0.520703 -0.0746496 0)
(0.509499 -0.0897378 0)
(0.462513 -0.113748 0)
(0.437863 -0.133923 0)
(0.375765 -0.162117 0)
(0.33338 -0.18643 0)
(0.256168 -0.214878 0)
(0.192637 -0.238492 0)
(0.116687 -0.261766 0)
(0.0513035 -0.262428 0)
(0.577768 -0.0399083 0)
(0.557031 -0.0476483 0)
(0.503927 -0.0622749 0)
(0.467248 -0.0727209 0)
(0.397229 -0.0897148 0)
(0.342029 -0.10165 0)
(0.251467 -0.118719 0)
(0.178408 -0.132143 0)
(0.0836974 -0.156393 0)
(-0.0101781 -0.202315 0)
(0.770855 -0.0198917 0)
(0.745131 -0.0237327 0)
(0.699344 -0.029582 0)
(0.657173 -0.0348353 0)
(0.593772 -0.0426596 0)
(0.531959 -0.0499568 0)
(0.445565 -0.0612791 0)
(0.35742 -0.075144 0)
(0.239476 -0.103347 0)
(0.163486 -0.158292 0)
(0.196983 -0.16196 1.89922e-20)
(0.223028 -0.140992 -1.86968e-20)
(0.256269 -0.1238 2.82072e-21)
(0.297066 -0.112072 0)
(0.346632 -0.0980088 0)
(0.406342 -0.0894895 3.81081e-21)
(0.472483 -0.0712941 -1.74931e-20)
(0.544406 -0.0616014 1.73318e-20)
(0.604593 -0.0317292 4.86444e-21)
(0.791613 -0.0168299 -4.8876e-21)
(0.205662 -0.152465 -1.90625e-20)
(0.23105 -0.130663 0)
(0.264204 -0.114396 1.93947e-20)
(0.305076 -0.103225 -4.59593e-20)
(0.354785 -0.0900301 3.02827e-20)
(0.414307 -0.082052 -3.48926e-21)
(0.480289 -0.0649791 7.49671e-21)
(0.551432 -0.056374 1.64129e-20)
(0.613738 -0.0284484 4.50385e-21)
(0.799054 -0.0155354 4.38134e-21)
(0.213264 -0.141588 2.2262e-20)
(0.237237 -0.11988 -1.94275e-20)
(0.269598 -0.104871 1.92445e-20)
(0.310165 -0.0943572 -2.41219e-20)
(0.359864 -0.0821144 1.76289e-20)
(0.419406 -0.0747814 0)
(0.485441 -0.0589185 -7.51516e-21)
(0.556452 -0.0515167 -6.97648e-23)
(0.621151 -0.0255042 -8.51464e-21)
(0.805411 -0.0143185 -8.78953e-21)
(0.221477 -0.129889 -3.77996e-21)
(0.244769 -0.108814 0)
(0.276327 -0.0951791 0)
(0.31637 -0.0853939 0)
(0.365819 -0.0742015 1.93855e-20)
(0.42513 -0.0676273 -1.31063e-20)
(0.491022 -0.0530686 -3.5467e-22)
(0.56173 -0.0469469 -8.37428e-21)
(0.628269 -0.0228486 -4.29453e-21)
(0.811479 -0.0131903 -4.35422e-21)
(0.229183 -0.117752 2.48816e-21)
(0.252212 -0.0976972 -1.17816e-20)
(0.283131 -0.0854361 -1.05277e-20)
(0.322915 -0.0764277 1.05214e-20)
(0.372223 -0.0663392 -6.19271e-21)
(0.431359 -0.0606039 0)
(0.49709 -0.0473919 -7.45029e-21)
(0.56741 -0.0425594 1.62643e-20)
(0.635346 -0.0203791 -8.19919e-21)
(0.817372 -0.01213 8.73265e-21)
(0.236025 -0.105244 -2.90779e-20)
(0.25876 -0.0865804 2.39566e-21)
(0.288807 -0.0757012 -1.16919e-21)
(0.328573 -0.0675575 1.03917e-20)
(0.377881 -0.0586126 0)
(0.437035 -0.0537736 0)
(0.502749 -0.0419083 0)
(0.572832 -0.0383285 7.89009e-21)
(0.642053 -0.0180435 0)
(0.822902 -0.0111218 0)
(0.242018 -0.0924147 0)
(0.264264 -0.0754018 1.32762e-20)
(0.293314 -0.0659294 -9.09001e-21)
(0.333021 -0.0588174 -1.14547e-20)
(0.382328 -0.0510391 1.15145e-20)
(0.441588 -0.0471595 6.95467e-21)
(0.50741 -0.0366331 -6.68347e-21)
(0.577461 -0.0342689 -2.73663e-20)
(0.648001 -0.0158342 1.9449e-21)
(0.82784 -0.0101616 -6.39943e-21)
(0.247091 -0.0792767 0)
(0.268614 -0.0641457 -4.1985e-21)
(0.296904 -0.0561043 -2.39147e-21)
(0.336387 -0.0501481 0)
(0.3856 -0.0435808 3.2994e-21)
(0.444977 -0.0407303 -9.65373e-21)
(0.51091 -0.0315441 1.09943e-20)
(0.581137 -0.0303741 4.08435e-21)
(0.653011 -0.0137501 -4.08768e-21)
(0.832099 -0.00924928 8.55997e-21)
(0.251098 -0.0658372 3.14179e-21)
(0.271802 -0.0528049 4.43933e-21)
(0.299498 -0.046238 -9.04633e-22)