/*--------------------------------*- C++ -*----------------------------------*\
  =========                 |
  \\      /  F ield         | OpenFOAM: The Open Source CFD Toolbox
   \\    /   O peration     | Website:  https://openfoam.org
    \\  /    A nd           | Version:  7
     \\/     M anipulation  |
\*---------------------------------------------------------------------------*/
FoamFile
{
    version     2.0;
    format      ascii;
    class       volScalarField;
    location    "0.3875";
    object      p;
}
// * * * * * * * * * * * * * * * * * * * * * * * * * * * * * * * * * * * * * //

dimensions      [0 2 -2 0 0 0 0];

internalField   nonuniform List<scalar> 
400
(
3.68795e-06
-0.0059002
-0.0130504
-0.0184953
-0.0205176
-0.0183255
-0.0118553
-0.0015533
0.011784
0.0271149
0.0432303
0.0588284
0.0726009
0.0833433
0.0900941
0.0923074
0.0900631
0.0842904
0.076898
0.0710253
0.00582817
-0.000243466
-0.00577735
-0.00949004
-0.0105381
-0.00837109
-0.00291565
0.00551343
0.0163213
0.0287055
0.0417173
0.0543279
0.0655061
0.0743133
0.0800154
0.0822117
0.0809828
0.0769878
0.0712572
0.065241
0.0133952
0.00496263
-0.00101087
-0.00442737
-0.00528004
-0.00327194
0.00159312
0.0090158
0.0184868
0.02933
0.0407419
0.0518418
0.0617367
0.0696016
0.0747707
0.076841
0.0758025
0.0720589
0.0658332
0.0574361
0.0202058
0.00859339
0.00120253
-0.00267897
-0.00373819
-0.00190264
0.00271369
0.00976612
0.0187608
0.0290741
0.0399698
0.0506304
0.0602078
0.0678895
0.0729761
0.0749731
0.0737323
0.0694366
0.0616635
0.0499981
0.0245922
0.00964626
0.000570099
-0.0039887
-0.00531092
-0.00351759
0.00116372
0.00832156
0.0174462
0.0279301
0.0390626
0.050044
0.0600196
0.0681329
0.0735927
0.075762
0.0743266
0.069267
0.0596135
0.0444095
0.0252973
0.00699849
-0.00381903
-0.00905202
-0.0105159
-0.00850595
-0.0033639
0.00441984
0.0143004
0.0256621
0.0377925
0.0498774
0.0610176
0.0702686
0.0766976
0.0794765
0.0780891
0.0723083
0.0606567
0.0417319
0.0212453
-0.000438346
-0.0129474
-0.0186958
-0.0200278
-0.017415
-0.0113211
-0.00232548
0.00898076
0.021962
0.0358904
0.0499195
0.0630814
0.074309
0.0824816
0.0865238
0.0856616
0.0794175
0.0657692
0.0428774
0.0113329
-0.0138178
-0.0278807
-0.0338293
-0.0345931
-0.0308515
-0.0232094
-0.0123456
0.00109979
0.0164736
0.0330363
0.0499106
0.0660528
0.0802516
0.0911561
0.0973769
0.0977981
0.0915981
0.0760783
0.0488764
-0.00572948
-0.034489
-0.0498641
-0.0555083
-0.0550687
-0.0494996
-0.0395822
-0.026107
-0.00975628
0.00881787
0.0288891
0.0495735
0.0697681
0.0881149
0.102998
0.112638
0.11546
0.11014
0.0930509
0.0611098
-0.0315569
-0.0641206
-0.0803935
-0.0849469
-0.0823852
-0.0740528
-0.0609606
-0.0440225
-0.0239437
-0.00133567
0.0231394
0.0486458
0.0740691
0.0979325
0.118342
0.133052
0.139874
0.136743
0.118692
0.081546
-0.0682808
-0.104868
-0.121296
-0.123504
-0.117465
-0.10509
-0.0876887
-0.0663033
-0.0416217
-0.014147
0.0156066
0.0469447
0.0788345
0.109756
0.137567
0.159499
0.172582
0.173669
0.155802
0.113058
-0.118893
-0.159636
-0.174831
-0.172641
-0.161081
-0.142882
-0.119721
-0.0927478
-0.0625551
-0.0294314
0.00638271
0.044474
0.0840424
0.123672
0.16108
0.192989
0.215487
0.223919
0.208349
0.159937
-0.187945
-0.232521
-0.243809
-0.2338
-0.213614
-0.1871
-0.15633
-0.122468
-0.0858705
-0.046449
-0.0039957
0.0415506
0.0898419
0.13981
0.189271
0.234588
0.270859
0.291445
0.28203
0.228817
-0.283064
-0.32954
-0.331642
-0.30811
-0.274626
-0.236388
-0.195725
-0.153578
-0.109812
-0.0637175
-0.0144103
0.0388888
0.0965724
0.158278
0.222347
0.2852
0.341164
0.381279
0.38511
0.330525
-0.418186
-0.459747
-0.442072
-0.395627
-0.342072
-0.287709
-0.234593
-0.18291
-0.131588
-0.0789571
-0.023179
0.0375171
0.104598
0.178876
0.25988
0.34493
0.428405
0.499308
0.529618
0.483716
-0.619425
-0.636581
-0.578332
-0.494082
-0.411226
-0.335654
-0.267776
-0.205968
-0.147523
-0.0893564
-0.0283857
0.0384043
0.113876
0.200549
0.300048
0.412061
0.532934
0.651423
0.732443
0.720595
-0.935598
-0.878179
-0.741681
-0.598055
-0.474388
-0.372624
-0.288843
-0.217738
-0.153924
-0.0924281
-0.028676
0.0417523
0.123335
0.220801
0.339001
0.482243
0.652265
0.841649
1.01496
1.09628
-1.48059
-1.20196
-0.920999
-0.692545
-0.517675
-0.3877
-0.290193
-0.213423
-0.148161
-0.0872085
-0.0245272
0.0455596
0.129102
0.233298
0.367362
0.543122
0.77263
1.06029
1.39819
1.73407
-2.57157
-1.60192
-1.04347
-0.714827
-0.497797
-0.353385
-0.255527
-0.184282
-0.126594
-0.0737826
-0.0192088
0.0430655
0.119763
0.219652
0.356004
0.549822
0.829813
1.23507
1.88111
2.95926
-4.4451
-2.01727
-0.969795
-0.564337
-0.357043
-0.239032
-0.169354
-0.123295
-0.087183
-0.0533682
-0.0166764
0.0275143
0.0842988
0.161194
0.271578
0.441362
0.718804
1.2215
2.38402
4.92939
)
;

boundaryField
{
    movingWall
    {
        type            zeroGradient;
    }
    fixedWalls
    {
        type            zeroGradient;
    }
    frontAndBack
    {
        type            empty;
    }
}


// ************************************************************************* //
