/*--------------------------------*- C++ -*----------------------------------*\
  =========                 |
  \\      /  F ield         | OpenFOAM: The Open Source CFD Toolbox
   \\    /   O peration     | Website:  https://openfoam.org
    \\  /    A nd           | Version:  7
     \\/     M anipulation  |
\*---------------------------------------------------------------------------*/
FoamFile
{
    version     2.0;
    format      ascii;
    class       volVectorField;
    location    "0.3";
    object      U;
}
// * * * * * * * * * * * * * * * * * * * * * * * * * * * * * * * * * * * * * //

dimensions      [0 1 -1 0 0 0 0];

internalField   nonuniform List<vector> 
18000
(
(0.000484284 -0.062509 3.50717e-20)
(0.0170632 -0.261627 0)
(0.0504979 -0.422383 0)
(0.0905775 -0.52481 0)
(0.133539 -0.579387 -1.19127e-20)
(0.175922 -0.602225 6.0266e-20)
(0.216032 -0.606168 -1.23435e-20)
(0.252988 -0.59965 1.24272e-20)
(0.286555 -0.587788 0)
(0.316931 -0.573601 -3.77958e-20)
(0.344346 -0.558722 -1.27093e-20)
(0.368989 -0.544017 0)
(0.391215 -0.529995 2.53396e-20)
(0.411352 -0.516838 2.55244e-20)
(0.42963 -0.504604 -5.08582e-20)
(0.44626 -0.493304 -5.07245e-20)
(0.461467 -0.482907 0)
(0.47543 -0.473334 -7.55868e-20)
(0.488292 -0.464508 2.50844e-20)
(0.500198 -0.456377 -7.4737e-20)
(0.511252 -0.448871 2.47729e-20)
(0.521546 -0.44192 0)
(0.531164 -0.435469 -2.42442e-20)
(0.540172 -0.429479 -2.42228e-20)
(0.548628 -0.423889 0)
(0.556612 -0.418672 0)
(0.564161 -0.413804 -4.71107e-20)
(0.571355 -0.409216 -4.66921e-20)
(0.578065 -0.405108 -4.64808e-20)
(0.584727 -0.40144 4.55801e-20)
(0.00230077 -0.0651775 4.92549e-20)
(0.0249383 -0.271242 8.64247e-20)
(0.0634802 -0.43785 -8.88657e-20)
(0.106679 -0.544008 -9.13118e-20)
(0.151102 -0.600421 -2.36055e-20)
(0.193825 -0.623745 7.12273e-20)
(0.233543 -0.627281 -9.71638e-20)
(0.269711 -0.619902 -9.84578e-20)
(0.302333 -0.606988 9.94492e-20)
(0.331658 -0.591638 1.00277e-19)
(0.358001 -0.575629 -5.02406e-20)
(0.381667 -0.559889 -1.00983e-19)
(0.402996 -0.544881 -5.09447e-20)
(0.42228 -0.530815 1.01105e-19)
(0.439789 -0.517782 -1.00843e-19)
(0.455755 -0.505755 1.01195e-19)
(0.470355 -0.494687 -2.01182e-19)
(0.483762 -0.484522 1.50457e-19)
(0.496134 -0.475171 -9.93788e-20)
(0.5076 -0.466558 4.97487e-20)
(0.518255 -0.458614 -9.8147e-20)
(0.528191 -0.45127 0)
(0.537474 -0.44446 4.91488e-20)
(0.546175 -0.438142 -9.62147e-20)
(0.554364 -0.432267 9.51818e-20)
(0.562104 -0.426784 0)
(0.569418 -0.421663 -4.64409e-20)
(0.576387 -0.416868 4.62658e-20)
(0.58289 -0.412566 1.83987e-19)
(0.589475 -0.408667 9.03987e-20)
(0.00428728 -0.0680361 -7.93786e-20)
(0.033412 -0.280997 -8.64227e-20)
(0.0774123 -0.453186 1.33258e-19)
(0.123986 -0.562883 2.26892e-19)
(0.169938 -0.620913 0)
(0.212951 -0.644511 -9.55394e-20)
(0.252247 -0.647562 9.71621e-20)
(0.287557 -0.639295 2.93682e-19)
(0.31909 -0.625312 -9.94479e-20)
(0.347287 -0.608861 -1.00174e-19)
(0.372531 -0.59177 3.0043e-19)
(0.395124 -0.575015 1.00982e-19)
(0.415459 -0.559085 0)
(0.433857 -0.544176 -2.01975e-19)
(0.450562 -0.530362 3.01091e-19)
(0.465791 -0.517647 -9.97216e-20)
(0.479732 -0.50597 1.00347e-19)
(0.492558 -0.495246 9.96527e-20)
(0.504406 -0.485394 4.7389e-22)
(0.515397 -0.47634 0)
(0.525622 -0.467988 2.9394e-19)
(0.53517 -0.460271 -1.94017e-19)
(0.544106 -0.453132 9.67285e-20)
(0.552481 -0.446507 0)
(0.560372 -0.440353 -9.51824e-20)
(0.567844 -0.434625 3.75642e-19)
(0.574897 -0.429283 -2.78445e-19)
(0.581642 -0.424287 -9.27166e-20)
(0.587917 -0.4198 9.0517e-20)
(0.594413 -0.41568 9.00451e-20)
(0.00646958 -0.0709543 0)
(0.0425589 -0.290726 4.26503e-20)
(0.0923211 -0.468257 3.11443e-22)
(0.142375 -0.581228 -2.25588e-19)
(0.189946 -0.640698 0)
(0.233262 -0.664457 -1.87574e-19)
(0.272023 -0.666953 0)
(0.306387 -0.657775 -2.92693e-19)
(0.336798 -0.642715 9.79179e-20)
(0.363774 -0.625173 -1.97088e-19)
(0.3878 -0.607063 -1.99753e-19)
(0.409267 -0.589353 -9.99735e-20)
(0.428572 -0.572532 9.97749e-20)
(0.446023 -0.556831 9.90317e-20)
(0.461863 -0.542312 -1.00737e-19)
(0.47632 -0.52896 -1.97926e-19)
(0.489575 -0.516709 1.98216e-19)
(0.50178 -0.505476 0)
(0.513059 -0.495162 0)
(0.523549 -0.485691 0)
(0.533334 -0.476966 0)
(0.542467 -0.468902 0)
(0.551022 -0.461451 0)
(0.559059 -0.454551 -1.89172e-19)
(0.566633 -0.448144 -1.88488e-19)
(0.573816 -0.44218 -8.62975e-22)
(0.580603 -0.436633 -1.84721e-19)
(0.5871 -0.431432 -6.71444e-22)
(0.593135 -0.426781 -1.83056e-19)
(0.599518 -0.422418 3.58457e-19)
(0.00886185 -0.0740478 0)
(0.0523156 -0.300492 3.77059e-19)
(0.108147 -0.48313 3.19721e-22)
(0.161868 -0.599073 -1.33815e-19)
(0.211065 -0.659717 4.54446e-19)
(0.254632 -0.683523 2.81307e-19)
(0.292824 -0.685394 2.83685e-19)
(0.326164 -0.675238 0)
(0.355327 -0.659125 0)
(0.381002 -0.640559 2.95441e-19)
(0.40377 -0.621456 4.20938e-22)
(0.424052 -0.60283 -6.91589e-19)
(0.442251 -0.585186 5.9307e-19)
(0.458706 -0.568757 -1.99136e-19)
(0.473653 -0.55359 1.96314e-19)
(0.487299 -0.539661 1.97863e-19)
(0.499819 -0.526887 -1.95763e-19)
(0.511376 -0.515189 1.96376e-19)
(0.522076 -0.504459 3.89266e-19)
(0.53203 -0.494595 -1.93777e-19)
(0.54134 -0.48552 -3.84053e-19)
(0.550052 -0.477149 3.81371e-19)
(0.558209 -0.469413 -3.78529e-19)
(0.565878 -0.462255 1.89174e-19)
(0.573129 -0.455617 0)
(0.580005 -0.44944 0)
(0.586514 -0.443695 1.72222e-21)
(0.592758 -0.43831 -7.26356e-19)
(0.598537 -0.433494 3.59272e-19)
(0.604779 -0.42889 -3.57051e-19)
(0.011478 -0.0772891 0)
(0.0627258 -0.310284 -3.34853e-19)
(0.124875 -0.497671 3.40803e-19)
(0.182385 -0.616298 0)
(0.233249 -0.677944 -7.23541e-19)
(0.277019 -0.701639 -9.28633e-20)
(0.314545 -0.702768 -1.90075e-19)
(0.346769 -0.69164 -9.51293e-20)
(0.374616 -0.674513 0)
(0.398918 -0.654942 -1.95072e-19)
(0.420345 -0.634885 1.95252e-19)
(0.439385 -0.615419 3.94419e-19)
(0.456448 -0.597037 -3.95098e-19)
(0.471859 -0.579942 0)
(0.485857 -0.564176 -3.9473e-19)
(0.498666 -0.549726 3.90784e-19)
(0.51044 -0.536493 3.9249e-19)
(0.521309 -0.524365 5.82746e-19)
(0.531402 -0.513249 -5.82254e-19)
(0.540818 -0.503038 7.69167e-19)
(0.549628 -0.493644 3.83038e-19)
(0.557884 -0.48499 -3.81376e-19)
(0.565634 -0.477003 7.54236e-19)
(0.572927 -0.469614 0)
(0.579828 -0.462757 3.69641e-19)
(0.586392 -0.456385 7.34626e-19)
(0.592616 -0.45045 -3.61464e-19)
(0.598596 -0.444902 3.6265e-19)
(0.604113 -0.439933 -1.08479e-21)
(0.610184 -0.435089 -3.56108e-19)
(0.0143238 -0.0807001 -3.78111e-20)
(0.0737529 -0.320034 0)
(0.142493 -0.511863 -4.25959e-19)
(0.20389 -0.632885 8.67729e-20)
(0.256403 -0.695289 2.69959e-19)
(0.300337 -0.718707 9.10963e-20)
(0.337131 -0.719052 3.7133e-19)
(0.368127 -0.706955 0)
(0.394555 -0.688807 1.91913e-19)
(0.417432 -0.668268 1.91855e-19)
(0.437475 -0.647347 -1.94508e-19)
(0.4552 -0.627117 5.82414e-19)
(0.471065 -0.608046 0)
(0.485418 -0.590353 0)
(0.498453 -0.574065 5.8395e-19)
(0.51037 -0.559139 -9.72875e-19)
(0.521366 -0.545484 3.86495e-19)
(0.531553 -0.532978 -3.8785e-19)
(0.541016 -0.521516 -3.82948e-19)
(0.549859 -0.510998 -1.14701e-18)
(0.558158 -0.501327 -1.86145e-21)
(0.565947 -0.492421 3.75672e-19)
(0.573265 -0.484206 -7.48573e-19)
(0.580175 -0.476609 3.69908e-19)
(0.586726 -0.469556 -2.82372e-21)
(0.592963 -0.462997 -3.66455e-19)
(0.598889 -0.456894 3.63186e-19)
(0.604592 -0.451194 0)
(0.609843 -0.446091 3.53681e-19)
(0.61572 -0.441006 5.55806e-22)
(0.0174294 -0.084266 -7.47793e-20)
(0.0854286 -0.329744 8.16781e-20)
(0.160951 -0.52568 -5.01244e-19)
(0.226329 -0.648765 -2.57524e-19)
(0.2805 -0.711676 3.52763e-19)
(0.324505 -0.734694 -5.43214e-19)
(0.360445 -0.734204 -1.87405e-19)
(0.390153 -0.721112 -3.73384e-19)
(0.415107 -0.701973 3.77714e-19)
(0.436458 -0.680533 -7.65252e-19)
(0.455039 -0.658815 -3.83307e-19)
(0.471436 -0.637885 -3.19868e-21)
(0.486081 -0.6182 1.93965e-19)
(0.499306 -0.599971 -5.7919e-19)
(0.511353 -0.583225 -7.74105e-19)
(0.522391 -0.567878 9.64363e-22)
(0.53258 -0.553842 -2.0618e-21)
(0.542042 -0.54101 3.81914e-19)
(0.550866 -0.529256 3.82954e-19)
(0.559131 -0.518467 1.03268e-21)
(0.566897 -0.508552 -8.21651e-22)
(0.574203 -0.49943 3.70983e-19)
(0.581087 -0.491015 3.72872e-19)
(0.587598 -0.483224 -1.09e-21)
(0.593791 -0.475997 -1.09764e-18)
(0.599697 -0.469274 7.22741e-19)
(0.605315 -0.463025 7.18512e-19)
(0.610729 -0.45719 -7.10727e-19)
(0.615709 -0.451961 -3.53687e-19)
(0.621375 -0.446637 -3.49852e-19)
(0.0207829 -0.0879728 -6.62094e-19)
(0.0977223 -0.339384 -8.07739e-20)
(0.180257 -0.539055 4.16062e-19)
(0.24967 -0.663878 3.43365e-19)
(0.305432 -0.727088 -3.5276e-19)
(0.349435 -0.749563 3.60984e-19)
(0.384448 -0.748146 -1.83809e-19)
(0.412749 -0.734058 5.58445e-19)
(0.436131 -0.71399 -3.77714e-19)
(0.455926 -0.691711 3.80976e-19)
(0.473009 -0.66925 1.92024e-19)
(0.488004 -0.647691 -1.93662e-19)
(0.501394 -0.627485 -1.14977e-18)
(0.513494 -0.608785 7.6941e-19)
(0.524527 -0.591622 3.85517e-19)
(0.534656 -0.575924 0)
(0.544026 -0.561578 0)
(0.552754 -0.54846 -4.93627e-21)
(0.560918 -0.536449 -3.76102e-19)
(0.568585 -0.525434 0)
(0.57581 -0.515318 0)
(0.582626 -0.506007 -3.7282e-19)
(0.589068 -0.497413 0)
(0.59518 -0.489455 -7.28478e-19)
(0.601003 -0.482074 0)
(0.606566 -0.475215 -3.60826e-19)
(0.611868 -0.468838 7.12846e-19)
(0.61699 -0.462883 -7.05122e-19)
(0.621699 -0.457532 0)
(0.627137 -0.451969 0)
(0.0244242 -0.0918341 5.88151e-19)
(0.110658 -0.348909 0)
(0.200354 -0.551942 -8.24434e-20)
(0.273842 -0.6782 8.40027e-20)
(0.331161 -0.741458 -5.165e-19)
(0.375054 -0.763224 1.9275e-21)
(0.409013 -0.760851 -1.804e-19)
(0.435832 -0.745791 0)
(0.457578 -0.724805 0)
(0.475738 -0.701739 -1.88532e-19)
(0.491279 -0.678648 1.88708e-19)
(0.504854 -0.656547 -3.80855e-19)
(0.516963 -0.635865 3.86392e-19)
(0.52791 -0.616763 0)
(0.537909 -0.599267 0)
(0.54712 -0.58328 0)
(0.555663 -0.568669 3.75483e-19)
(0.563642 -0.555313 -3.00922e-21)
(0.571131 -0.543095 3.79048e-19)
(0.57819 -0.531899 -7.44072e-19)
(0.584864 -0.521611 3.715e-19)
(0.591186 -0.512136 -1.84008e-18)
(0.597184 -0.503389 2.12552e-21)
(0.602888 -0.495296 7.28494e-19)
(0.608332 -0.487792 -3.40145e-21)
(0.613547 -0.480819 7.12613e-19)
(0.618531 -0.474328 -7.03844e-19)
(0.62336 -0.468263 -7.005e-19)
(0.627795 -0.462797 2.34945e-21)
(0.632991 -0.456999 -6.90953e-19)
(0.0283442 -0.0958086 -7.22673e-20)
(0.124224 -0.358303 0)
(0.22124 -0.564313 1.63096e-19)
(0.298796 -0.691641 -1.66181e-19)
(0.357588 -0.754702 1.54822e-18)
(0.401267 -0.775655 1.97483e-21)
(0.434067 -0.772282 -1.78652e-19)
(0.459309 -0.756239 1.83129e-19)
(0.479355 -0.734402 -9.19398e-19)
(0.495823 -0.710639 0)
(0.509781 -0.686991 0)
(0.521918 -0.664419 -3.72895e-19)
(0.532729 -0.643341 3.8176e-19)
(0.542502 -0.623921 -3.78777e-19)
(0.551451 -0.606157 3.77161e-19)
(0.559735 -0.589931 0)
(0.567445 -0.575105 -1.5041e-18)
(0.574664 -0.561565 7.46113e-19)
(0.581465 -0.54919 3.73156e-19)
(0.587909 -0.537847 1.11224e-18)
(0.594034 -0.527419 0)
(0.599856 -0.517811 7.34197e-19)
(0.6054 -0.508947 7.25183e-19)
(0.610689 -0.500753 7.19344e-19)
(0.615753 -0.493152 -5.64749e-21)
(0.62062 -0.486081 -7.04739e-19)
(0.625289 -0.479489 7.03861e-19)
(0.62982 -0.473327 0)
(0.633978 -0.467756 2.38154e-21)
(0.638913 -0.461728 1.38259e-18)
(0.0325656 -0.0998996 -5.68247e-19)
(0.138419 -0.367507 0)
(0.242874 -0.576102 -6.37898e-19)
(0.324483 -0.70416 -8.24403e-19)
(0.384642 -0.766781 -5.15086e-19)
(0.42798 -0.786804 1.7529e-19)
(0.459517 -0.782398 1.78012e-21)
(0.483093 -0.765394 -1.79921e-19)
(0.501372 -0.742778 6.56581e-21)
(0.516107 -0.718404 3.70615e-19)
(0.528452 -0.694266 3.69978e-19)
(0.53913 -0.6713 -3.68295e-19)
(0.548626 -0.649916 3.73831e-19)
(0.557218 -0.630256 -1.12271e-18)
(0.565111 -0.61228 1.12074e-18)
(0.572458 -0.595865 7.45309e-19)
(0.579326 -0.580883 1.86585e-18)
(0.585778 -0.567215 -3.76913e-19)
(0.591885 -0.554725 -7.36698e-19)
(0.597709 -0.54327 -5.7663e-21)
(0.60328 -0.532738 -7.3151e-19)
(0.608601 -0.52304 2.17404e-18)
(0.613684 -0.514098 -1.44593e-18)
(0.618555 -0.505829 1.42528e-18)
(0.623241 -0.498151 -7.1109e-19)
(0.627765 -0.490997 1.4039e-18)
(0.632122 -0.484322 3.2405e-21)
(0.636351 -0.478082 -1.37751e-18)
(0.640227 -0.472415 1.3608e-18)
(0.644886 -0.466153 6.83591e-19)
(0.0370942 -0.104075 5.68245e-19)
(0.153238 -0.376489 0)
(0.265226 -0.58726 1.4283e-18)
(0.350845 -0.715697 4.95354e-19)
(0.412253 -0.777661 0)
(0.455112 -0.796642 0)
(0.485273 -0.791176 0)
(0.507096 -0.773252 0)
(0.523545 -0.749928 3.64802e-19)
(0.536517 -0.72502 3.65041e-19)
(0.547228 -0.70047 -7.40952e-19)
(0.556428 -0.677196 7.44345e-19)
(0.564598 -0.655589 1.11255e-18)
(0.572006 -0.635755 3.75811e-19)
(0.578842 -0.617627 3.66463e-19)
(0.585243 -0.601085 -1.11584e-18)
(0.591262 -0.586008 -1.48049e-18)
(0.596942 -0.572262 -7.40286e-19)
(0.602357 -0.559696 7.36718e-19)
(0.607559 -0.548166 -1.46308e-18)
(0.612568 -0.537573 7.24232e-19)
(0.61738 -0.527826 -1.44351e-18)
(0.622004 -0.518839 7.11655e-19)
(0.626461 -0.510517 -4.43151e-21)
(0.630775 -0.502782 -7.02127e-19)
(0.634958 -0.495569 -1.39597e-18)
(0.639003 -0.488837 1.38205e-18)
(0.642933 -0.482536 0)
(0.64653 -0.476771 -2.43043e-21)
(0.650902 -0.470265 -1.3683e-18)
(0.0419382 -0.108311 6.98097e-20)
(0.168678 -0.385212 0)
(0.288269 -0.597735 -6.30835e-19)
(0.377822 -0.726203 1.63006e-19)
(0.440339 -0.787301 -1.655e-19)
(0.482578 -0.805145 0)
(0.511247 -0.798602 -1.75388e-19)
(0.531232 -0.779806 1.76586e-19)
(0.545793 -0.75584 3.60873e-19)
(0.556978 -0.730476 -1.08501e-18)
(0.566046 -0.705602 -3.66755e-19)
(0.573757 -0.682109 -1.87495e-21)
(0.580593 -0.660357 -3.14308e-21)
(0.586818 -0.640418 -7.37871e-19)
(0.592598 -0.622203 -3.72543e-19)
(0.598047 -0.605598 0)
(0.603209 -0.590479 1.82247e-21)
(0.608122 -0.576698 7.34347e-19)
(0.612844 -0.564095 -7.27097e-19)
(0.61742 -0.552539 0)
(0.621861 -0.541928 0)
(0.626164 -0.532168 0)
(0.630332 -0.52316 0)
(0.63438 -0.514813 -5.55799e-21)
(0.638324 -0.507052 0)
(0.64217 -0.499813 0)
(0.645909 -0.493045 6.81572e-19)
(0.649549 -0.486698 6.74907e-19)
(0.652875 -0.480829 6.71209e-19)
(0.656953 -0.474069 -2.47294e-21)
(0.0471095 -0.112589 6.90081e-20)
(0.184739 -0.393635 -1.51008e-19)
(0.311974 -0.607477 9.27623e-19)
(0.405352 -0.735633 -1.59083e-19)
(0.468816 -0.795662 1.66116e-19)
(0.510284 -0.812279 2.15113e-21)
(0.537345 -0.804656 5.16471e-19)
(0.555417 -0.785042 -7.00202e-19)
(0.568041 -0.760508 1.06739e-18)
(0.577415 -0.734773 3.32971e-21)
(0.584838 -0.70967 -3.60809e-19)
(0.591061 -0.686048 7.25996e-19)
(0.59656 -0.664228 -7.28184e-19)
(0.601603 -0.644251 7.2909e-19)
(0.606331 -0.626015 0)
(0.610829 -0.609404 7.27772e-19)
(0.615133 -0.594291 0)
(0.619279 -0.580519 5.69415e-21)
(0.623309 -0.567926 -7.19629e-19)
(0.627257 -0.556389 -7.1561e-19)
(0.631128 -0.545799 7.11072e-19)
(0.634921 -0.536058 -7.06079e-19)
(0.638636 -0.527064 -7.00689e-19)
(0.642279 -0.51873 -1.3954e-18)
(0.645857 -0.510978 -6.88914e-19)
(0.649372 -0.503742 6.85743e-19)
(0.652819 -0.496961 -1.36005e-18)
(0.656182 -0.490579 -6.7493e-19)
(0.659249 -0.484609 0)
(0.66302 -0.477591 -6.79003e-19)
(0.0526174 -0.116888 0)
(0.201413 -0.40171 5.91523e-19)
(0.3363 -0.616428 -4.62555e-19)
(0.433367 -0.743941 -7.87946e-19)
(0.497598 -0.802704 0)
(0.538137 -0.818015 0)
(0.563475 -0.80932 -1.03269e-18)
(0.579567 -0.788955 1.39075e-18)
(0.590218 -0.763938 -1.06146e-18)
(0.597761 -0.737921 0)
(0.603538 -0.712683 3.61661e-19)
(0.608283 -0.689021 -3.6555e-19)
(0.612454 -0.66721 5.8787e-21)
(0.616318 -0.647259 -3.69639e-19)
(0.619999 -0.629062 -3.60894e-19)
(0.623549 -0.612503 -5.70706e-21)
(0.626997 -0.597446 7.20159e-19)
(0.630378 -0.583729 7.23077e-19)
(0.633717 -0.571192 1.90613e-21)
(0.637034 -0.559715 1.42758e-18)
(0.640336 -0.549186 -1.42015e-18)
(0.643621 -0.539501 1.40873e-18)
(0.646884 -0.530561 7.00714e-19)
(0.650123 -0.522278 6.94976e-19)
(0.653342 -0.514572 5.42198e-21)
(0.656538 -0.507369 0)
(0.659706 -0.500603 6.73761e-19)
(0.662808 -0.494211 -2.00057e-18)
(0.665625 -0.488146 6.5622e-19)
(0.669071 -0.480871 6.75202e-19)
(0.0584678 -0.121185 -4.01551e-19)
(0.218687 -0.409385 -1.32408e-18)
(0.361196 -0.624534 -1.73397e-21)
(0.461788 -0.751081 4.18856e-21)
(0.526597 -0.808393 -4.83223e-19)
(0.566047 -0.822333 0)
(0.589545 -0.81259 -3.34488e-19)
(0.603594 -0.79155 -2.07218e-18)
(0.612253 -0.766144 1.05207e-18)
(0.617957 -0.739941 -7.04868e-19)
(0.622086 -0.714661 1.06812e-18)
(0.625366 -0.691044 -3.57505e-19)
(0.628226 -0.669312 7.22346e-19)
(0.630921 -0.649449 -1.80187e-18)
(0.633557 -0.631351 1.08261e-18)
(0.636166 -0.614899 -1.6004e-21)
(0.638765 -0.599949 -2.15094e-18)
(0.641382 -0.58633 7.157e-19)
(0.644031 -0.573893 -7.1034e-19)
(0.646718 -0.562517 0)
(0.649451 -0.552091 7.00188e-19)
(0.652227 -0.542503 0)
(0.655039 -0.533657 -6.93118e-19)
(0.657877 -0.525465 6.86311e-19)
(0.660743 -0.517842 6.83543e-19)
(0.663631 -0.510712 6.71935e-19)
(0.666533 -0.503999 0)
(0.669389 -0.497628 0)
(0.67197 -0.491477 -1.3151e-18)
(0.675065 -0.483944 2.01217e-18)
(0.0646639 -0.125453 4.02844e-19)
(0.236539 -0.416606 7.30017e-19)
(0.386608 -0.631747 -5.97176e-19)
(0.490535 -0.757015 1.24173e-18)
(0.555722 -0.812703 1.67595e-19)
(0.593922 -0.825225 1.67797e-19)
(0.61547 -0.814477 1.01152e-20)
(0.62742 -0.792842 -6.78384e-19)
(0.634073 -0.767144 -3.45889e-19)
(0.637941 -0.740854 5.8799e-21)
(0.640428 -0.715622 -5.80349e-21)
(0.642259 -0.692127 -1.06513e-18)
(0.643829 -0.67054 -3.54992e-19)
(0.645368 -0.650827 5.61828e-21)
(0.646968 -0.632888 7.11992e-19)
(0.648644 -0.616598 7.11013e-19)
(0.650401 -0.601801 5.47138e-21)
(0.652258 -0.588324 -7.06554e-19)
(0.654217 -0.576031 7.06812e-19)
(0.656276 -0.5648 -7.01101e-19)
(0.658439 -0.554514 -1.39508e-18)
(0.660705 -0.545063 -6.93195e-19)
(0.663063 -0.53635 1.37124e-18)
(0.665501 -0.52829 0)
(0.668018 -0.520795 -6.72941e-19)
(0.670604 -0.513786 -1.33867e-18)
(0.673251 -0.507174 -1.32624e-18)
(0.675878 -0.50086 6.58261e-19)
(0.678235 -0.494632 -1.9513e-18)
(0.680943 -0.486849 6.6932e-19)
(0.0712061 -0.129665 -6.56471e-19)
(0.254941 -0.423326 1.43503e-19)
(0.412478 -0.638031 5.97182e-19)
(0.51953 -0.761709 -4.62786e-19)
(0.58488 -0.815612 1.60587e-19)
(0.62167 -0.826689 -4.60964e-21)
(0.64117 -0.814991 1.66436e-18)
(0.650967 -0.792844 6.81731e-19)
(0.655607 -0.766952 6.91462e-19)
(0.657652 -0.740674 1.04832e-18)
(0.658512 -0.715579 -1.05427e-18)
(0.658912 -0.69228 7.08539e-19)
(0.659218 -0.670904 1.42073e-18)
(0.65962 -0.651406 7.11004e-19)
(0.660193 -0.633688 -1.38212e-21)
(0.660946 -0.617613 -1.41797e-18)
(0.661873 -0.603012 1.4168e-18)
(0.662975 -0.589721 3.80927e-21)
(0.664245 -0.577613 -7.01476e-19)
(0.665675 -0.566564 6.95809e-19)
(0.667268 -0.556455 6.94895e-19)
(0.66902 -0.547175 -6.84718e-19)
(0.670919 -0.538635 -1.36715e-18)
(0.672952 -0.53075 -9.5595e-22)
(0.675115 -0.523433 6.75104e-19)
(0.677403 -0.516598 6.66733e-19)
(0.679802 -0.510137 1.31585e-18)
(0.682211 -0.503927 -1.29646e-18)
(0.684349 -0.497646 0)
(0.686619 -0.489648 6.67052e-19)
(0.0780926 -0.133792 5.83289e-21)
(0.273864 -0.429504 0)
(0.438749 -0.643345 -4.36614e-19)
(0.548695 -0.765131 -1.50898e-19)
(0.613979 -0.817106 -6.25318e-19)
(0.649197 -0.826726 0)
(0.666564 -0.814145 -9.95928e-19)
(0.674168 -0.791575 3.34538e-19)
(0.676788 -0.765586 0)
(0.67703 -0.739422 -6.87701e-19)
(0.676289 -0.714554 0)
(0.675282 -0.691523 -1.0485e-18)
(0.674348 -0.670425 1.05031e-18)
(0.673634 -0.651209 -7.0655e-19)
(0.673197 -0.633769 -7.01253e-19)
(0.673041 -0.617954 0)
(0.673147 -0.603588 0)
(0.673501 -0.590524 6.99612e-19)
(0.674083 -0.578638 1.85623e-21)
(0.674885 -0.567804 6.90529e-19)
(0.675905 -0.557902 -6.86282e-19)
(0.677138 -0.54883 1.36747e-18)
(0.678569 -0.540502 -6.76263e-19)
(0.680185 -0.532836 0)
(0.681986 -0.525748 1.99899e-18)
(0.683967 -0.519142 -3.29248e-18)
(0.686114 -0.512899 6.54521e-19)
(0.688306 -0.506857 6.48529e-19)
(0.690217 -0.500566 6.36746e-19)
(0.691978 -0.492427 1.32415e-18)
(0.0853195 -0.137804 -5.07184e-19)
(0.293278 -0.435101 1.11948e-18)
(0.465359 -0.647645 5.84717e-19)
(0.577945 -0.767249 1.35096e-18)
(0.642928 -0.817174 1.71017e-18)
(0.676413 -0.825344 3.22245e-19)
(0.691571 -0.811953 -1.62979e-18)
(0.696959 -0.789058 0)
(0.697558 -0.763077 -1.34905e-18)
(0.696023 -0.737128 -6.76836e-19)
(0.693715 -0.712572 0)
(0.691329 -0.689881 -6.86782e-19)
(0.689177 -0.669126 -9.68192e-22)
(0.687371 -0.650252 -2.08866e-18)
(0.685944 -0.633139 7.01283e-19)
(0.684895 -0.617623 6.98998e-19)
(0.684192 -0.603533 -1.38454e-18)
(0.683804 -0.590734 -1.38679e-18)
(0.683703 -0.579103 -1.83753e-21)
(0.683878 -0.568513 -3.43672e-21)
(0.684323 -0.55885 0)
(0.685028 -0.55002 -6.77627e-19)
(0.685978 -0.541941 -6.67338e-19)
(0.687161 -0.534536 0)
(0.688579 -0.527727 0)
(0.690234 -0.521414 1.96514e-18)
(0.692108 -0.515463 -1.93488e-18)
(0.694064 -0.509666 0)
(0.695717 -0.503439 1.89587e-18)
(0.696879 -0.495285 -1.31872e-18)
(0.092881 -0.141675 1.13697e-20)
(0.313151 -0.440073 -1.11842e-18)
(0.492244 -0.650884 -1.43163e-19)
(0.607193 -0.768031 -1.50005e-18)
(0.671633 -0.815813 -9.33512e-19)
(0.703229 -0.822557 3.1948e-19)
(0.716111 -0.808437 6.55395e-19)
(0.719274 -0.785322 1.64743e-18)
(0.717864 -0.759458 1.3491e-18)
(0.714578 -0.733822 1.36461e-18)
(0.710744 -0.709659 0)
(0.707013 -0.687375 1.04045e-20)
(0.703669 -0.667027 0)
(0.700796 -0.648549 1.39192e-18)
(0.698401 -0.631807 0)
(0.696477 -0.61663 -6.93886e-19)
(0.694978 -0.602853 6.998e-19)
(0.693857 -0.590353 0)
(0.693079 -0.579004 0)
(0.69263 -0.568689 -2.03975e-18)
(0.692497 -0.559296 6.76196e-19)
(0.692666 -0.550737 0)
(0.693117 -0.542936 1.33276e-18)
(0.693842 -0.535832 1.32714e-18)
(0.694848 -0.529348 -2.62097e-18)
(0.69614 -0.523387 2.59632e-18)
(0.697698 -0.517807 5.44716e-21)
(0.699377 -0.512348 1.26756e-18)
(0.700711 -0.506295 -1.26381e-18)
(0.701177 -0.498324 0)
(0.100769 -0.145376 1.26733e-18)
(0.333448 -0.444373 -1.37395e-19)
(0.519337 -0.653017 -1.13456e-18)
(0.63635 -0.767455 0)
(0.700006 -0.813024 -1.21714e-18)
(0.729564 -0.818384 0)
(0.74011 -0.803623 -1.60728e-18)
(0.741051 -0.7804 -9.92236e-19)
(0.737656 -0.754765 -1.32819e-18)
(0.732654 -0.729536 0)
(0.727335 -0.705841 3.41275e-19)
(0.722297 -0.68403 3.55409e-19)
(0.71779 -0.664148 -6.85049e-19)
(0.713875 -0.646118 -1.37178e-18)
(0.710539 -0.62979 -6.82235e-19)
(0.70776 -0.614987 -2.74562e-18)
(0.705481 -0.601559 1.37458e-18)
(0.703638 -0.589386 -2.0484e-21)
(0.702193 -0.578351 -1.79088e-21)
(0.701122 -0.568337 2.03332e-18)
(0.700409 -0.559236 0)
(0.70003 -0.550965 0)
(0.699963 -0.543466 -4.01347e-21)
(0.700199 -0.536691 5.80502e-21)
(0.700749 -0.530563 -1.29604e-18)
(0.701623 -0.525 -1.28908e-18)
(0.702796 -0.519863 4.24699e-21)
(0.704125 -0.514848 -1.26763e-18)
(0.705059 -0.509125 -1.24977e-18)
(0.704749 -0.501635 4.66408e-21)
(0.108975 -0.148877 0)
(0.354133 -0.447953 1.08524e-18)
(0.546571 -0.654004 9.92191e-19)
(0.665327 -0.765509 1.45092e-19)
(0.727957 -0.808821 2.42396e-18)
(0.755342 -0.812852 -3.14239e-19)
(0.763499 -0.797549 2.55205e-18)
(0.762227 -0.774333 1.29436e-18)
(0.756885 -0.749036 1.98956e-18)
(0.750207 -0.724302 1.00082e-18)
(0.74345 -0.701146 3.38794e-19)
(0.737146 -0.679872 1.70681e-18)
(0.731509 -0.660515 3.74271e-21)
(0.726582 -0.642982 6.90134e-19)
(0.722333 -0.627106 1.37218e-18)
(0.718723 -0.612712 1.37051e-18)
(0.715679 -0.599663 0)
(0.713129 -0.587848 0)
(0.711025 -0.577151 0)
(0.709339 -0.567457 0)
(0.708044 -0.558657 1.32964e-18)
(0.707108 -0.550685 0)
(0.706501 -0.543502 -5.62085e-21)
(0.706213 -0.53706 2.60053e-18)
(0.706255 -0.531294 1.29078e-18)
(0.706633 -0.526152 1.27847e-18)
(0.707326 -0.521511 2.53295e-18)
(0.7082 -0.51703 0)
(0.708633 -0.511837 -2.47615e-18)
(0.70752 -0.505224 2.621e-18)
(0.11749 -0.152149 9.83419e-19)
(0.375169 -0.450766 -1.08527e-18)
(0.573875 -0.653814 0)
(0.694037 -0.762185 -1.15591e-18)
(0.755397 -0.803216 -3.13018e-19)
(0.780487 -0.805988 -9.26262e-19)
(0.786211 -0.790249 -2.85572e-18)
(0.782744 -0.767159 -1.34598e-20)
(0.775502 -0.742307 -9.82142e-19)
(0.767197 -0.71815 -2.32496e-18)
(0.759048 -0.6956 -3.33929e-19)
(0.751524 -0.674928 -1.34479e-18)
(0.744795 -0.656154 -1.35017e-18)
(0.738889 -0.639161 0)
(0.733758 -0.623773 -1.35322e-18)
(0.72934 -0.60982 -2.03084e-18)
(0.725552 -0.597182 6.7517e-19)
(0.722312 -0.585752 -1.34313e-18)
(0.719564 -0.575412 -1.33671e-18)
(0.717271 -0.566043 0)
(0.715396 -0.557548 -2.65e-18)
(0.713895 -0.549882 0)
(0.712733 -0.543008 -2.61522e-18)
(0.711891 -0.536879 -1.29456e-18)
(0.711369 -0.53146 -2.5639e-18)
(0.711168 -0.526728 1.27019e-18)
(0.711266 -0.522576 -3.77105e-18)
(0.711553 -0.518683 1.23971e-18)
(0.711381 -0.514226 9.12175e-21)
(0.709525 -0.508968 -1.30671e-18)
(0.126305 -0.155164 -9.83441e-19)
(0.396516 -0.452767 1.34523e-19)
(0.601174 -0.652416 9.65612e-19)
(0.722392 -0.757482 1.15594e-18)
(0.782236 -0.796225 -1.19691e-18)
(0.804919 -0.797819 9.38791e-21)
(0.808186 -0.781762 1.26351e-18)
(0.802547 -0.758918 -2.56791e-18)
(0.793461 -0.734611 -3.18292e-19)
(0.783586 -0.711109 2.96832e-18)
(0.774093 -0.689234 -1.99543e-18)
(0.765397 -0.66923 3.34839e-18)
(0.757621 -0.651093 3.36596e-18)
(0.750772 -0.63468 -6.72413e-19)
(0.744789 -0.61981 1.35329e-18)
(0.739592 -0.606332 2.0263e-18)
(0.735084 -0.594134 6.68474e-19)
(0.731174 -0.583108 9.15619e-21)
(0.727798 -0.573133 6.69943e-19)
(0.724912 -0.564093 6.61454e-19)
(0.722465 -0.55591 -6.49197e-19)
(0.720401 -0.548546 6.52452e-19)
(0.718677 -0.541958 -1.29097e-18)
(0.717262 -0.536111 1.28906e-18)
(0.716138 -0.531 9.27189e-21)
(0.715292 -0.526613 1.2559e-18)
(0.7147 -0.522887 9.18896e-21)
(0.714282 -0.519567 -1.23498e-18)
(0.713414 -0.516023 4.80744e-21)
(0.710902 -0.512752 0)
(0.135414 -0.157897 0)
(0.418126 -0.453916 0)
(0.628381 -0.649786 -1.24192e-18)
(0.750295 -0.751398 1.41277e-19)
(0.808387 -0.787865 0)
(0.828565 -0.788377 1.22371e-18)
(0.829365 -0.772131 3.14469e-19)
(0.821589 -0.749656 9.62751e-19)
(0.81072 -0.725989 1.29959e-18)
(0.799339 -0.703219 -1.31541e-18)
(0.788557 -0.682091 1.32733e-18)
(0.778739 -0.662818 -1.33582e-18)
(0.769961 -0.645364 -1.34124e-18)
(0.762208 -0.629562 0)
(0.755405 -0.615243 0)
(0.749459 -0.602272 0)
(0.744257 -0.590538 -1.33914e-18)
(0.739701 -0.579929 1.9998e-18)
(0.735721 -0.570327 -6.60696e-19)
(0.732261 -0.561627 0)
(0.729258 -0.553758 1.96509e-18)
(0.726644 -0.54668 -6.47945e-19)
(0.724366 -0.540349 1.29104e-18)
(0.722377 -0.534746 -2.54658e-18)
(0.720636 -0.529866 2.53107e-18)
(0.719112 -0.525717 -4.16926e-21)
(0.71778 -0.522297 4.99933e-21)
(0.716585 -0.519429 1.22601e-18)
(0.714961 -0.517036 -4.03916e-22)
(0.711669 -0.516194 1.30109e-18)
(0.144805 -0.160321 1.20356e-19)
(0.439942 -0.45417 -1.30758e-19)
(0.655403 -0.645901 2.75022e-19)
(0.77765 -0.743938 -1.69445e-18)
(0.833764 -0.778165 2.90449e-19)
(0.851354 -0.777709 0)
(0.849699 -0.761411 1.23704e-18)
(0.839832 -0.739424 -1.26218e-18)
(0.827244 -0.716489 0)
(0.814425 -0.694527 1.62511e-18)
(0.802412 -0.674217 -3.27226e-19)
(0.791523 -0.655729 0)
(0.78179 -0.638991 -6.65842e-19)
(0.773173 -0.623831 1.33069e-18)
(0.765586 -0.610098 -6.64119e-19)
(0.758922 -0.597665 6.65884e-19)
(0.753057 -0.586413 -1.32583e-18)
(0.747885 -0.576236 -1.84153e-21)
(0.743329 -0.567023 -1.56923e-21)
(0.739322 -0.558672 -6.4972e-19)
(0.735787 -0.551113 -1.29884e-18)
(0.73265 -0.544304 -1.82084e-21)
(0.729844 -0.538204 3.62104e-21)
(0.727304 -0.532784 1.2708e-18)
(0.724961 -0.528035 -1.25493e-18)
(0.722755 -0.523986 1.24684e-18)
(0.720655 -0.52063 -2.45979e-18)
(0.718592 -0.518101 -4.85685e-21)
(0.716182 -0.516732 -2.40445e-18)
(0.71205 -0.518166 1.29901e-18)
(0.154464 -0.162411 0)
(0.461902 -0.453497 -1.03592e-18)
(0.682142 -0.640752 0)
(0.80436 -0.735119 8.3453e-21)
(0.858289 -0.767164 2.94158e-19)
(0.873223 -0.765866 5.21887e-21)
(0.869139 -0.749657 -2.46171e-18)
(0.857239 -0.728272 9.49806e-19)
(0.843 -0.706156 0)
(0.828812 -0.685079 -1.62313e-18)
(0.81563 -0.665652 3.25182e-19)
(0.803723 -0.647993 0)
(0.793082 -0.632 -6.61724e-19)
(0.783645 -0.617517 6.59631e-19)
(0.775312 -0.604409 6.56178e-19)
(0.767965 -0.592537 1.32099e-18)
(0.76147 -0.581784 -6.57682e-19)
(0.755715 -0.57206 0)
(0.750616 -0.563253 0)
(0.746093 -0.555254 1.30241e-18)
(0.742062 -0.548003 -1.29013e-18)
(0.738442 -0.541459 1.27844e-18)
(0.735156 -0.535559 1.27316e-18)
(0.732126 -0.530263 1.25782e-18)
(0.72926 -0.525555 -1.24508e-18)
(0.726451 -0.521405 1.23787e-18)
(0.723542 -0.51786 1.22122e-18)
(0.720329 -0.515176 -1.208e-18)
(0.715967 -0.51353 3.90268e-21)
(0.708038 -0.515581 2.59432e-18)
(0.164396 -0.164165 1.18291e-19)
(0.483945 -0.451874 9.07853e-19)
(0.708495 -0.634329 0)
(0.830319 -0.724952 1.12035e-18)
(0.881874 -0.754892 0)
(0.894103 -0.752895 0)
(0.887629 -0.736912 9.21077e-19)
(0.873767 -0.716238 -3.87054e-21)
(0.857948 -0.695029 3.15923e-19)
(0.842465 -0.674913 3.2299e-19)
(0.82818 -0.656427 -9.74869e-19)
(0.81531 -0.639631 6.51186e-19)
(0.803812 -0.624419 0)
(0.793601 -0.610657 0)
(0.784563 -0.598203 -1.31916e-18)
(0.776571 -0.58691 0)
(0.769481 -0.576681 -6.55723e-19)
(0.763177 -0.567434 6.51248e-19)
(0.757568 -0.55904 6.49498e-19)
(0.752566 -0.551401 1.18381e-21)
(0.748083 -0.544474 -6.39878e-19)
(0.744033 -0.538191 0)
(0.740332 -0.532476 -1.26058e-18)
(0.736913 -0.527297 1.2482e-18)
(0.733693 -0.522568 0)
(0.730551 -0.518201 0)
(0.72735 -0.514178 0)
(0.723925 -0.510188 0)
(0.717889 -0.507105 -1.18638e-18)
(0.714208 -0.501736 2.59004e-18)
(0.601627 -0.377529 -0.0372265)
(0.630423 -0.363224 -0.0393632)
(0.650243 -0.355563 -0.0400088)
(0.666259 -0.34663 -0.0404998)
(0.679871 -0.336935 -0.0409477)
(0.690771 -0.3274 -0.0414707)
(0.699754 -0.318379 -0.0421647)
(0.707041 -0.309823 -0.0430587)
(0.71289 -0.301463 -0.0442418)
(0.717751 -0.293468 -0.0458565)
(0.721567 -0.285619 -0.0478999)
(0.724597 -0.277779 -0.0504219)
(0.727278 -0.270209 -0.0534914)
(0.72938 -0.263168 -0.0569926)
(0.731091 -0.256301 -0.0609007)
(0.732485 -0.24976 -0.0652468)
(0.733412 -0.244188 -0.0699263)
(0.733979 -0.238832 -0.074842)
(0.733932 -0.234041 -0.0799187)
(0.733452 -0.230401 -0.0851326)
(0.732475 -0.226835 -0.0904399)
(0.73094 -0.224547 -0.0957814)
(0.728768 -0.222839 -0.101257)
(0.72737 -0.221844 -0.106675)
(0.721742 -0.221925 -0.113388)
(0.730836 -0.222287 -0.118334)
(0.697267 -0.222314 -0.130113)
(0.7776 -0.227893 -0.132084)
(0.621375 -0.207839 -0.136206)
(0.897274 -0.251829 -0.108564)
(0.60486 -0.383702 -0.0369528)
(0.633445 -0.368089 -0.0390923)