/*--------------------------------*- C++ -*----------------------------------*\
  =========                 |
  \\      /  F ield         | OpenFOAM: The Open Source CFD Toolbox
   \\    /   O peration     | Website:  https://openfoam.org
    \\  /    A nd           | Version:  7
     \\/     M anipulation  |
\*---------------------------------------------------------------------------*/
FoamFile
{
    version     2.0;
    format      ascii;
    class       volScalarField;
    location    "38";
    object      p;
}
// * * * * * * * * * * * * * * * * * * * * * * * * * * * * * * * * * * * * * //

dimensions      [0 2 -2 0 0 0 0];

internalField   nonuniform List<scalar> 
2000
(
-0.0153167
-0.0143124
-0.0137385
-0.0133517
-0.0132656
-0.0134898
-0.0139642
-0.0145956
-0.0152817
-0.0159153
-0.0155409
-0.014544
-0.0139699
-0.0135744
-0.0134823
-0.0137168
-0.0142314
-0.0149438
-0.0157619
-0.0165821
-0.0157673
-0.0147694
-0.0141839
-0.0137622
-0.0136401
-0.0138549
-0.0143744
-0.0151293
-0.0160371
-0.0170058
-0.0159931
-0.0149798
-0.0143707
-0.0139064
-0.0137341
-0.0139041
-0.014398
-0.0151591
-0.0161178
-0.0171972
-0.0162123
-0.0151641
-0.0145192
-0.0139992
-0.0137626
-0.0138708
-0.014317
-0.0150572
-0.0160302
-0.017184
-0.016415
-0.0153088
-0.0146169
-0.0140326
-0.013725
-0.013764
-0.0141511
-0.0148517
-0.0158111
-0.0170076
-0.0165868
-0.0153983
-0.0146496
-0.0139971
-0.0136197
-0.0135929
-0.0139222
-0.0145774
-0.0155063
-0.0167194
-0.0167079
-0.0154144
-0.0146012
-0.0138811
-0.0134418
-0.0133617
-0.0136463
-0.014266
-0.0151665
-0.0163895
-0.0167532
-0.0153373
-0.0144545
-0.0136716
-0.0131818
-0.0130622
-0.0133149
-0.0139102
-0.0148005
-0.0160748
-0.0166933
-0.0151464
-0.0141929
-0.0133565
-0.0128296
-0.0126782
-0.0128896
-0.0134224
-0.0142412
-0.01554
-0.0169176
-0.0161705
-0.0126389
-0.00687515
-0.000307481
0.0069125
0.0134043
0.0201723
0.0243133
0.0279075
-0.017995
-0.0181647
-0.0153945
-0.0102131
-0.00410593
0.00282722
0.00910149
0.0157785
0.0199356
0.0235137
-0.0188215
-0.0198788
-0.0178695
-0.013288
-0.00763223
-0.000980246
0.00510286
0.0116917
0.0158398
0.0194294
-0.0194068
-0.0212848
-0.0200282
-0.0160623
-0.0108518
-0.00448736
0.00141722
0.00790186
0.0120449
0.0156581
-0.0197758
-0.0223691
-0.0218477
-0.0184995
-0.0137268
-0.00765356
-0.00192127
0.00445088
0.00859123
0.0122291
-0.0199685
-0.0231352
-0.0233242
-0.0205898
-0.0162601
-0.0104916
-0.00494314
0.00130786
0.00543328
0.0091242
-0.0200342
-0.0236107
-0.024464
-0.0223048
-0.0184058
-0.012943
-0.00758809
-0.00145776
0.00260976
0.00636469
-0.0200245
-0.0238418
-0.0253086
-0.0237092
-0.0202603
-0.0151191
-0.00997627
-0.00396045
1.50578e-05
0.00390112
-0.0200612
-0.0238905
-0.0258178
-0.0246801
-0.0216688
-0.0168617
-0.0119608
-0.00606477
-0.002272
0.00176549
-0.0201586
-0.0238261
-0.0262391
-0.025616
-0.0230782
-0.0186096
-0.0139344
-0.00811095
-0.00446955
-0.000156442
-0.0158973
-0.0200747
-0.023765
-0.0246672
-0.0236583
-0.0204771
-0.0166586
-0.0114245
-0.00845175
-0.00399852
-0.0178707
-0.0198231
-0.0218288
-0.022612
-0.0221051
-0.0201122
-0.017402
-0.0138576
-0.0109617
-0.00816833
-0.0172095
-0.0179653
-0.0188458
-0.0190983
-0.0185712
-0.0171692
-0.0153912
-0.0132173
-0.0113219
-0.0095919
-0.0155319
-0.0150182
-0.0150856
-0.0149143
-0.0143072
-0.0132091
-0.011998
-0.0106571
-0.00976097
-0.00887989
-0.0132617
-0.0119214
-0.011328
-0.010923
-0.0103625
-0.00953113
-0.00873421
-0.00787468
-0.00741415
-0.00690134
-0.0105221
-0.00887237
-0.008005
-0.00751934
-0.00704375
-0.00642748
-0.00592134
-0.00544889
-0.00531257
-0.00494908
-0.00736446
-0.00585262
-0.00503958
-0.00468315
-0.00438788
-0.00398685
-0.00366815
-0.00340312
-0.00354312
-0.00340214
-0.0044392
-0.00327013
-0.00265298
-0.00243662
-0.00230731
-0.002108
-0.00197704
-0.00186915
-0.00213937
-0.00211747
-0.00182326
-0.00109965
-0.000865884
-0.000882323
-0.000909718
-0.000832407
-0.000793533
-0.000740128
-0.00105026
-0.00102116
-0.000195995
0.000176946
0.000236115
0.00014198
2.58513e-05
-2.08838e-05
-0.00010848
-9.98746e-05
-0.000356601
-0.00029011
-0.0139183
-0.0158465
-0.015883
-0.0150244
-0.0133479
-0.0108872
-0.00813061
-0.00508381
-0.00230496
-0.000531961
-0.0135103
-0.0154346
-0.0156701
-0.0150131
-0.0134488
-0.0110589
-0.00826563
-0.00523947
-0.00243137
-0.000645053
-0.0133582
-0.0152547
-0.0156097
-0.0150658
-0.0135535
-0.0112054
-0.0083708
-0.00540662
-0.00256213
-0.000736536
-0.0132631
-0.0150828
-0.0155459
-0.0150999
-0.0136351
-0.0113297
-0.00848218
-0.00555273
-0.00268881
-0.000818972
-0.0131434
-0.0148821
-0.0154389
-0.0150904
-0.0136736
-0.0114168
-0.00856598
-0.00561609
-0.00280384
-0.000893229
-0.0129043
-0.0146065
-0.0152537
-0.0150089
-0.0136468
-0.0114526
-0.00861092
-0.00568622
-0.00290642
-0.00095986
-0.0124681
-0.0142025
-0.014949
-0.0148257
-0.0135324
-0.011427
-0.00860603
-0.00573988
-0.00299536
-0.00102204
-0.0117823
-0.0136371
-0.0144964
-0.0145181
-0.0133139
-0.0113357
-0.00853902
-0.00576862
-0.0030636
-0.00107945
-0.0107951
-0.0128972
-0.013886
-0.0140726
-0.0129846
-0.0111088
-0.00847436
-0.00576747
-0.00313061
-0.00110208
-0.00955968
-0.0119764
-0.013117
-0.0134925
-0.0125476
-0.0108125
-0.00834482
-0.00573448
-0.00317373
-0.001096
-0.00812255
-0.0108974
-0.0122057
-0.0127909
-0.012014
-0.0104467
-0.00815518
-0.0056634
-0.00319055
-0.00107967
-0.00652875
-0.00969563
-0.0111787
-0.0119879
-0.0114004
-0.0100186
-0.00791361
-0.00555521
-0.00318086
-0.00105533
-0.00482357
-0.00840283
-0.010067
-0.0111059
-0.0107266
-0.0095409
-0.00763107
-0.00541538
-0.00314684
-0.00102442
-0.00304991
-0.00704642
-0.00890065
-0.0101667
-0.0100108
-0.00902491
-0.00731516
-0.00524693
-0.00308945
-0.000988292
-0.00124332
-0.00564752
-0.00770637
-0.00918999
-0.00926888
-0.00848105
-0.00697287
-0.00505365
-0.00301072
-0.000948223
0.000563456
-0.0042236
-0.00650785
-0.00819279
-0.00851318
-0.00791866
-0.00661051
-0.00483982
-0.0029132
-0.000905151
0.00233223
-0.00279147
-0.00532357
-0.00718896
-0.00775357
-0.00734625
-0.00623362
-0.00460952
-0.00279936
-0.000859679
0.00406352
-0.00133255
-0.00414732
-0.00618169
-0.00699622
-0.00677375
-0.00584998
-0.00436845
-0.0026725
-0.000812069
0.00585248
0.000249024
-0.00293485
-0.00515431
-0.00623341
-0.00620418
-0.00546673
-0.00412406
-0.00253661
-0.000761533
0.00737342
0.00182322
-0.0017427
-0.00412556
-0.00544116
-0.00559959
-0.00504935
-0.00385628
-0.00237962
-0.00070515
0.00856747
0.00448614
0.000705124
-0.0018083
-0.00344957
-0.00401534
-0.00386018
-0.00305771
-0.00190469
-0.000574144
0.0104691
0.00677174
0.00329647
0.000849176
-0.000948352
-0.00184812
-0.00214094
-0.00179729
-0.00109383
-0.000239175
0.0131579
0.00943558
0.0058996
0.00333339
0.00129464
7.3705e-05
-0.000597674
-0.000617875
-0.000284877
0.000130647
0.0160236
0.0121185
0.00843133
0.00565542
0.0033374
0.00179425
0.00079191
0.000484092
0.000526441
0.000546289
0.0190808
0.0148361
0.0108966
0.00783542
0.00520556
0.00334421
0.00205537
0.00152691
0.00135242
0.00101293
0.0222993
0.0176154
0.0133166
0.00988539
0.00692673
0.00476231
0.00323332
0.00253157
0.00219107
0.00151061
0.0256241
0.0203827
0.0156162
0.0117836
0.00853611
0.00609988
0.00437233
0.00349774
0.00296896
0.00191634
0.0286444
0.0225234
0.0176059
0.0135369
0.010054
0.00737651
0.00546731
0.00434452
0.00346552
0.0019794
0.0312442
0.0255407
0.0199337
0.0151767
0.0113231
0.00843417
0.00634181
0.00487246
0.00351041
0.00168077
0.0334915
0.02598
0.0202043
0.0155991
0.0118981
0.00903918
0.00685993
0.00513215
0.00344087
0.00143245
0.0117631
0.0135649
0.0160737
0.018927
0.0221703
0.0256388
0.0291367
0.0336572
0.0346779
0.0393446
0.0130427
0.0151349
0.0177196
0.0206789
0.0240669
0.0276866
0.0313614
0.0357193
0.0371684
0.0410915
0.0141175
0.0166364
0.0195087
0.0227847
0.026461
0.0303527
0.0343027
0.0382123
0.0404734
0.0426173
0.0151131
0.0179033
0.0210349
0.0246441
0.0286202
0.0327967
0.0370217
0.0408375
0.0436117
0.0448106
0.016153
0.0191669
0.0224988
0.0263715
0.0305846
0.0349854
0.0394358
0.0434238
0.0464772
0.0476272
0.0172265
0.0205259
0.0240868
0.0281934
0.0326007
0.0371758
0.0417987
0.0460157
0.0492652
0.0507535
0.0183108
0.0219509
0.0258111
0.0301742
0.0347857
0.0395365
0.0443169
0.0487302
0.0521524
0.0539792
0.0194154
0.0234139
0.0276263
0.0322747
0.0371246
0.0420852
0.0470469
0.051635
0.0552156
0.0572529
0.0205596
0.0249143
0.0295105
0.0344534
0.0395713
0.0447749
0.0499561
0.0547307
0.0584607
0.0606062
0.0217589
0.0264535
0.0314633
0.0366934
0.0421006
0.0475646
0.0529981
0.0579857
0.0618662
0.0640797
0.0230262
0.0280193
0.0334856
0.0389847
0.0447052
0.0504354
0.0561476
0.0613748
0.0654145
0.0676955
0.0243622
0.0295803
0.0355652
0.0413072
0.0473776
0.0533764
0.0593926
0.0648823
0.069096
0.0714564
0.0257334
0.0311067
0.0376688
0.0436368
0.0500995
0.0563869
0.0627378
0.0685097
0.0729197
0.0753647
0.0270858
0.0325851
0.0397466
0.0459566
0.0528434
0.0594679
0.0661762
0.0722432
0.076907
0.0794274
0.0283564
0.0340163
0.0417452
0.0482642
0.0555731
0.0626549
0.0697195
0.0761073
0.0810285
0.0836393
0.0294732
0.0354026
0.0435956
0.0505879
0.0583079
0.0658404
0.0733084
0.0800624
0.0852617
0.0879897
0.030367
0.0367345
0.0453772
0.0528575
0.0610048
0.0690058
0.0769426
0.0841115
0.0896191
0.0924932
0.0309329
0.0380354
0.0469661
0.0549434
0.0635472
0.0720585
0.0805268
0.088182
0.0940675
0.0971376
0.0311741
0.0393483
0.048402
0.0569222
0.0660143
0.0750855
0.0841275
0.0923167
0.0986316
0.101957
0.0307932
0.0400546
0.0492613
0.0583281
0.0679155
0.077603
0.08733
0.0962379
0.103182
0.106907
0.0323869
0.0439145
0.0535062
0.0635961
0.0741746
0.0851155
0.0962083
0.106561
0.114787
0.119398
0.0443182
0.0549603
0.0647924
0.0763171
0.088547
0.101514
0.11481
0.127284
0.137224
0.1427
0.0566141
0.0676522
0.078595
0.0918337
0.10592
0.12126
0.136934
0.151557
0.163134
0.169538
0.0687718
0.0808469
0.0936706
0.109016
0.125485
0.143737
0.162014
0.178933
0.19214
0.199275
0.0809831
0.094545
0.109637
0.127397
0.146771
0.168304
0.189357
0.208735
0.223503
0.23158
0.093726
0.108994
0.126571
0.147047
0.169733
0.194685
0.21861
0.240473
0.256488
0.264792
0.106591
0.123811
0.143922
0.167316
0.193422
0.221577
0.248404
0.272462
0.28917
0.298359
0.119367
0.138469
0.161161
0.187473
0.216823
0.24783
0.277716
0.303743
0.32053
0.32787
0.129244
0.149989
0.174738
0.203302
0.235094
0.268327
0.300922
0.328657
0.345875
0.353902
0.13636
0.158069
0.184145
0.214191
0.247601
0.282606
0.317624
0.348795
0.369923
0.362123
0.027926
0.0392059
0.050292
0.0618723
0.0732642
0.0854752
0.0971463
0.109358
0.118553
0.125374
0.0271759
0.0387824
0.0495251
0.0608207
0.0718631
0.0837542
0.0949102
0.106757
0.115373
0.121912
0.0272641
0.0394515
0.0501731
0.0613496
0.0721819
0.0837435
0.0944762
0.105751
0.113547
0.119611
0.0268994
0.0393324
0.0500561
0.0612212
0.0719259
0.0832487
0.0936549
0.104448
0.111638
0.11727
0.0262908
0.038778
0.0494092
0.060486
0.0710213
0.0820866
0.092171
0.102561
0.109355
0.114657
0.0256512
0.0381563
0.0487654
0.0597
0.0700289
0.0807889
0.0905204
0.100516
0.106991
0.112027
0.0249691
0.0374995
0.0482496
0.0590678
0.0692338
0.079712
0.0891025
0.0987362
0.104896
0.109696
0.0242219
0.0368238
0.0477805
0.0585546
0.0686415
0.0789147
0.0880371
0.0973762
0.103249
0.107835
0.0234294
0.0361787
0.04733
0.0581116
0.068203
0.0783423
0.0873078
0.0963893
0.10208
0.106458
0.0226251
0.0355947
0.0469413
0.0577683
0.0678956
0.0779472
0.0868952
0.0956703
0.10136
0.105502
0.0218413
0.0350873
0.0466472
0.0575597
0.0677353
0.0777564
0.0867143
0.0952679
0.100995
0.104927
0.0210607
0.0346252
0.0464361
0.0574814
0.067734
0.0777803
0.0867533
0.0951973
0.100943
0.10473
0.0202291
0.0341552
0.0462738
0.0575078
0.0678866
0.0780168
0.0870321
0.0954548
0.10121
0.104906
0.0193247
0.0336605
0.0461429
0.05762
0.0681823
0.0784553
0.0875566
0.0960235
0.101801
0.105449
0.0183413
0.0331464
0.0460396
0.0578116
0.0686186
0.079091
0.088334
0.0969022
0.102724
0.106351
0.0172467
0.0325904
0.0459344
0.0580572
0.0691716
0.0798955
0.0893384
0.0980586
0.103956
0.107599
0.0160229
0.031999
0.0458232
0.0583568
0.0698444
0.0808777
0.0905889
0.0995042
0.10551
0.109186
0.0145302
0.0312474
0.0455944
0.0586147
0.0705417
0.0819408
0.0919928
0.101161
0.107333
0.111103
0.0129435
0.0305128
0.0453678
0.058919
0.07134
0.0831574
0.0936171
0.103078
0.109463
0.113352
0.0103979
0.0290016
0.0445312
0.0587287
0.0717258
0.0840475
0.0950488
0.104967
0.111749
0.115927
0.00925723
0.0283448
0.0448281
0.0602634
0.0745617
0.0879546
0.100131
0.110884
0.118527
0.123077
0.0180426
0.0371429
0.0538459
0.0703024
0.0859087
0.100829
0.11475
0.127073
0.135925
0.140832
0.0298148
0.0498535
0.0673088
0.0851143
0.102065
0.118835
0.13483
0.14911
0.159402
0.164794
0.0423423
0.0635657
0.0825272
0.102277
0.121246
0.140903
0.159756
0.176811
0.189271
0.195541
0.0549215
0.07747
0.0984041
0.120447
0.142318
0.165889
0.188528
0.209733
0.225622
0.233593
0.0672772
0.0912457
0.114635
0.139333
0.165049
0.193233
0.220797
0.247852
0.269204
0.280968
0.0787059
0.104435
0.130346
0.158063
0.188246
0.221479
0.255265
0.289861
0.319664
0.339697
0.0893162
0.116577
0.145171
0.176271
0.21114
0.249723
0.291047
0.335224
0.377859
0.415131
0.0960215
0.124688
0.155494
0.189382
0.228156
0.271836
0.321401
0.377446
0.44001
0.508947
0.0997798
0.130948
0.163729
0.200119
0.242293
0.291001
0.348861
0.419344
0.510415
0.625344
0.00232928
0.00971465
0.0188429
0.0291557
0.0397018
0.0514659
0.0612703
0.0719685
0.0785386
0.0803234
-6.53995e-05
0.00691035
0.0154341
0.0253248
0.0352578
0.0465878
0.0556098
0.0662523
0.072261
0.074912
-0.00197266
0.00483022
0.013226
0.0230199
0.0329046
0.0436585
0.0520383
0.0622209
0.0673473
0.0719912
-0.00405424
0.00231385
0.0104176
0.0199385
0.0298096
0.0401345
0.0481173
0.0577776
0.0622664
0.0680508
-0.00620695
-0.000490232
0.00708736
0.0161272
0.025576
0.0356647
0.0433246
0.0524829
0.0565638
0.0624807
-0.00832268
-0.00332968
0.00364032
0.012131
0.0209945
0.0305836
0.0381078
0.0467037
0.050507
0.0559889
-0.0103611
-0.0061313
0.000219022
0.00817578
0.016502
0.025445
0.0328348
0.0408859
0.0445436
0.0494388
-0.0122818
-0.00886467
-0.00316031
0.00427195
0.012143
0.0205041
0.0276995
0.0352361
0.0389667
0.0433171
-0.0140391
-0.0114822
-0.00646737
0.00042474
0.00787559
0.0157772
0.022744
0.0298836
0.0337969
0.0377274
-0.0155938
-0.0139317
-0.00964612
-0.00331401
0.00370796
0.0112398
0.0179667
0.0248662
0.0289293
0.0326209
-0.0164922
-0.0148192
-0.0138002
-0.0129271
-0.0123826
-0.0122111
-0.0123689
-0.0127799
-0.0133545
-0.0139118
-0.0160958
-0.0143274
-0.0132599
-0.0123768
-0.0118455
-0.0116854
-0.0118286
-0.012185
-0.0126679
-0.0131445
-0.0154753
-0.0136536
-0.0125592
-0.0116979
-0.0112162
-0.0111066
-0.0112814
-0.0116435
-0.0121078
-0.0125852
-0.0145965
-0.0127759
-0.0116812
-0.0108764
-0.010481
-0.0104592
-0.0107063
-0.0111194
-0.0116093
-0.0121108
-0.0134257
-0.0116718
-0.010607
-0.00989249
-0.0096151
-0.00971057
-0.0100597
-0.0105552
-0.0111043
-0.0116601
-0.0119361
-0.0103211
-0.0093179
-0.00872396
-0.00858843
-0.00881971
-0.00928763
-0.00988247
-0.0105112
-0.0111433
-0.0101115
-0.00870875
-0.00779951
-0.00735147
-0.00737342
-0.00774916
-0.00834162
-0.00904144
-0.00975909
-0.0104717
-0.00794768
-0.00682819
-0.00604524
-0.00576445
-0.00595325
-0.00647509
-0.00719064
-0.00799523
-0.00880781
-0.00956655
-0.00545931
-0.00468679
-0.00406078
-0.00396599
-0.00432738
-0.00499299
-0.00582595
-0.00672545
-0.00761836
-0.00850661
-0.00270143
-0.00231558
-0.00186955
-0.00197622
-0.00251194
-0.00331729
-0.00426051
-0.00524769
-0.00621836
-0.00719177
0.000223226
0.00023398
0.000482749
0.000169891
-0.000539954
-0.00148007
-0.00252594
-0.00359202
-0.00462925
-0.00566776
0.00335854
0.00294088
0.00295842
0.00242535
0.00154073
0.000471513
-0.00066857
-0.00180321
-0.0028933
-0.00398305
0.00660297
0.00572843
0.00549365
0.00473362
0.00367738
0.00248645
0.00126132
6.88242e-05
-0.00106038
-0.00218847
0.00985369
0.00851657
0.00801822
0.00703151
0.00581117
0.00450869
0.00320949
0.00197094
0.00081697
-0.000335148
0.0130117
0.0112225
0.0104594
0.00925424
0.00788273
0.00648263
0.00512295
0.00385167
0.00268835
0.00152933
0.0159769
0.013762
0.0127454
0.0113395
0.00983607
0.00835659
0.00695293
0.00566384
0.00450763
0.00336176
0.0186521
0.0160546
0.0148097
0.0132314
0.0116219
0.0100859
0.00865797
0.00736745
0.00623387
0.00512025
0.0209492
0.0180278
0.0165949
0.0148829
0.0132004
0.0116354
0.0102067
0.00893169
0.00782897
0.00675893
0.0227929
0.0196212
0.0180548
0.016259
0.0145433
0.0129809
0.0115751
0.0103238
0.00923984
0.00822385
0.0241239
0.0207879
0.019156
0.0173377
0.015638
0.0141163
0.0127586
0.011528
0.010435
0.00951427
0.0249003
0.0214958
0.0198761
0.0181067
0.0164863
0.01507
0.0138451
0.0127665
0.0118671
0.0114644
0.0250938
0.0217231
0.0201991
0.0185516
0.0170686
0.0158005
0.0147343
0.0138227
0.0130912
0.0128106
0.0246967
0.0214663
0.0201209
0.0186649
0.017371
0.0162859
0.0153969
0.0146586
0.0140751
0.0138445
0.0237268
0.0207392
0.0196507
0.0184518
0.0173971
0.0165327
0.0158496
0.0153093
0.0149008
0.0147614
0.0222235
0.0195717
0.0188112
0.0179313
0.0171643
0.0165596
0.0161149
0.0158002
0.0155972
0.0156009
0.0202451
0.0180081
0.0176378
0.017133
0.0167
0.0163929
0.0162182
0.0161549
0.0161825
0.0163669
0.0178649
0.0161048
0.0161753
0.0160949
0.0160377
0.0160632
0.0161877
0.0164
0.0166808
0.017074
0.0151663
0.0139259
0.0144746
0.014859
0.0152137
0.0156026
0.016052
0.0165616
0.0171162
0.0177436
0.0122382
0.0115386
0.0125888
0.0134681
0.014264
0.0150414
0.0158374
0.0166626
0.0175091
0.0183944
0.0091887
0.00901526
0.0105716
0.0119638
0.0132215
0.0144066
0.0155657
0.0167209
0.017874
0.0190388
0.00615991
0.00644625
0.0084836
0.0103888
0.0121182
0.0137225
0.0152557
0.0167506
0.01822
0.0196821
0.00309148
0.00384225
0.00635341
0.00876979
0.0109751
0.0130044
0.0149175
0.016757
0.0185463
0.020318
7.41939e-05
0.00126349
0.00422219
0.00713451
0.00981077
0.0122639
0.0145567
0.0167397
0.0188445
0.0209271
-0.00281698
-0.00123687
0.00212623
0.00550528
0.00863799
0.0115062
0.0141722
0.0166917
0.0190995
0.0214807
-0.00553859
-0.0036181
9.24484e-05
0.00389905
0.0074647
0.010732
0.013759
0.016603
0.019294
0.0219465
-0.0080528
-0.00583955
-0.00186921
0.0023284
0.0062954
0.00993904
0.0133091
0.0164624
0.0194131
0.0222915
-0.0103373
-0.00788602
-0.00372669
0.000801348
0.00513191
0.00912291
0.0128139
0.0162615
0.0194541
0.0224923
-0.0123775
-0.00974912
-0.00545982
-0.000670247
0.00397251
0.00827824
0.0122632
0.0159886
0.0194256
0.022543
-0.0141655
-0.0114159
-0.0070635
-0.00208259
0.00281876
0.00740066
0.0116509
0.0156344
0.0193634
0.0225457
-0.0156986
-0.0128784
-0.00853115
-0.00343216
0.00166828
0.00648122
0.0109633
0.015177
0.0191578
0.0227025
-0.0169845
-0.0141364
-0.00985807
-0.00471546
0.000519589
0.00551413
0.0101919
0.0146079
0.0189413
0.0232837
-0.0180622
-0.015204
-0.0110441
-0.00592869
-0.00062892
0.00448177
0.00928456
0.0137838
0.0181153
0.0223497
-0.0189145
-0.0160752
-0.0120826
-0.00706347
-0.00176919
0.00339206
0.00826043
0.0128001
0.0170989
0.0211949
-0.0195459
-0.0167546
-0.0129701
-0.00810857
-0.00288222
0.00227819
0.00718097
0.0117699
0.0161091
0.0201873
-0.0199731
-0.0172533
-0.0137061
-0.00905265
-0.00394833
0.00116813
0.00607934
0.0107099
0.015104
0.019209
-0.0202149
-0.0175849
-0.0142928
-0.00988722
-0.00495273
7.80312e-05
0.00496694
0.00961555
0.0140462
0.0181906
-0.0202905
-0.0177648
-0.0147356
-0.0106072
-0.00588416
-0.000979488
0.00385494
0.00849729
0.0129458
0.0171298
-0.0202207
-0.0178102
-0.0150427
-0.0112107
-0.00673338
-0.001992
0.00275663
0.00736983
0.01182
0.0160371
-0.0200265
-0.0177403
-0.0152261
-0.0116992
-0.00749362
-0.00294838
0.00168415
0.00624501
0.0106809
0.0149237
-0.0197181
-0.0175682
-0.0152962
-0.0120762
-0.00816141
-0.00384104
0.000646125
0.00513096
0.00953652
0.0137993
-0.0192877
-0.0172886
-0.0152491
-0.0123349
-0.00872621
-0.00465775
-0.000346044
0.00403688
0.00839371
0.0126692
-0.0188241
-0.0169645
-0.0151297
-0.0125027
-0.00920005
-0.00540033
-0.00128964
0.0029656
0.00725177
0.011524
-0.0183284
-0.0166003
-0.0149463
-0.012587
-0.0095862
-0.00606825
-0.00218304
0.00191673
0.00610509
0.0103453
-0.0178083
-0.016205
-0.0147108
-0.0125984
-0.00989165
-0.00666452
-0.00302737
0.000888066
0.0049482
0.00912137
-0.0172799
-0.0157934
-0.0144379
-0.0125501
-0.0101253
-0.00719318
-0.00382357
-0.000121121
0.00377802
0.00784457
-0.0167597
-0.0153795
-0.0141427
-0.0124561
-0.0102975
-0.00765987
-0.00457342
-0.00111138
0.00259116
0.00650245
-0.0162628
-0.0149763
-0.0138392
-0.0123307
-0.0104203
-0.0080724
-0.00528038
-0.00208338
0.00138579
0.00508347
-0.0158034
-0.0145959
-0.0135417
-0.0121892
-0.0105077
-0.00844116
-0.00595042
-0.00303871
0.00016287
0.00357557
-0.0153944
-0.0142499
-0.0132637
-0.0120471
-0.0105753
-0.00877891
-0.00659206
-0.00397915
-0.00106554
0.00199493
-0.0150462
-0.0139485
-0.0130184
-0.0119205
-0.01064
-0.00910072
-0.00721831
-0.00491712
-0.00227894
0.000394454
-0.0147673
-0.0137011
-0.0128183
-0.0118257
-0.0107205
-0.00942522
-0.00784697
-0.00588165
-0.00344949
-0.000923657
-0.0145656
-0.0135165
-0.0126741
-0.0117755
-0.0108317
-0.00976806
-0.0084903
-0.00690307
-0.00488832
-0.0026407
-0.0144387
-0.013396
-0.0125907
-0.0117783
-0.0109839
-0.0101389
-0.00914735
-0.00791671
-0.00631913
-0.0044176
-0.014383
-0.01334
-0.0125704
-0.0118386
-0.0111826
-0.0105411
-0.00981576
-0.00890732
-0.00768248
-0.00615355
-0.0143924
-0.0133464
-0.0126123
-0.0119564
-0.0114285
-0.0109748
-0.0104966
-0.00988794
-0.00901276
-0.00785621
-0.0144587
-0.0134105
-0.0127119
-0.0121267
-0.0117159
-0.011434
-0.0111835
-0.0108548
-0.0103117
-0.00951515
-0.0145717
-0.013525
-0.0128612
-0.0123402
-0.0120336
-0.0119048
-0.0118598
-0.0117871
-0.0115538
-0.0110988
-0.0147213
-0.0136814
-0.0130501
-0.0125843
-0.0123657
-0.0123679
-0.0125019
-0.0126572
-0.0127059
-0.0125689
-0.0148973
-0.0138699
-0.0132669
-0.0128443
-0.0126942
-0.0128011
-0.0130836
-0.0134343
-0.0137329
-0.0138853
-0.015095
-0.0140819
-0.0134999
-0.0131051
-0.0130003
-0.0131822
-0.013579
-0.0140893
-0.0146011
-0.0150111
)
;

boundaryField
{
    inlet
    {
        type            zeroGradient;
    }
    outlet
    {
        type            fixedValue;
        value           uniform 0;
    }
    cylinder
    {
        type            zeroGradient;
    }
    top
    {
        type            symmetryPlane;
    }
    bottom
    {
        type            symmetryPlane;
    }
    defaultFaces
    {
        type            empty;
    }
}


// ************************************************************************* //
