/*--------------------------------*- C++ -*----------------------------------*\
  =========                 |
  \\      /  F ield         | OpenFOAM: The Open Source CFD Toolbox
   \\    /   O peration     | Website:  https://openfoam.org
    \\  /    A nd           | Version:  7
     \\/     M anipulation  |
\*---------------------------------------------------------------------------*/
FoamFile
{
    version     2.0;
    format      ascii;
    class       surfaceScalarField;
    location    "38";
    object      phi;
}
// * * * * * * * * * * * * * * * * * * * * * * * * * * * * * * * * * * * * * //

dimensions      [0 3 -1 0 0 0 0];

internalField   nonuniform List<scalar> 
3880
(
0.00017727
-0.00104905
0.000871776
0.000637386
-0.00271421
0.0022541
0.00132639
-0.0036075
0.00291849
0.00220409
-0.00366734
0.00278964
0.00323775
-0.00295714
0.00192349
0.00439516
-0.00158569
0.000428272
0.00564192
0.000320994
-0.00156775
0.00694372
0.00263029
-0.00393209
0.00827135
0.00521044
-0.00653807
0.00793082
0.00960299
-0.00926246
0.000175821
-0.00122487
0.000625401
-0.00316379
0.00129033
-0.00427243
0.00213426
-0.00451127
0.0031334
-0.00395628
0.004266
-0.0027183
0.00550613
-0.000919128
0.00682375
0.00131267
0.00818968
0.00384451
0.00654168
0.00957882
0.000175608
-0.00140048
0.000616964
-0.00360515
0.00125924
-0.00491471
0.00206835
-0.00532037
0.00302901
-0.00491695
0.00413126
-0.00382054
0.00536029
-0.00214816
0.00669269
-1.97333e-05
0.00809992
0.00243729
0.00509008
0.00955152
0.000179099
-0.00157958
0.000618925
-0.00404497
0.0012455
-0.00554128
0.00202418
-0.00609905
0.00294635
-0.00583912
0.00401396
-0.00488815
0.00522574
-0.00335994
0.00656879
-0.00136278
0.00801706
0.000989021
0.00357269
0.00953445
0.000188781
-0.00176836
0.000638079
-0.00449427
0.00126147
-0.00616467
0.00202013
-0.00685772
0.00290891
-0.0067279
0.00394023
-0.00591947
0.00512789
-0.0045476
0.00647357
-0.00270846
0.00795857
-0.000495982
0.00198839
0.00954287
0.0002067
-0.00197506
0.000679794
-0.00496737
0.00131693
-0.0068018
0.00207132
-0.00761211
0.00293725
-0.00759383
0.00393453
-0.00691675
0.00509183
-0.00570491
0.00642927
-0.0040459
0.00794281
-0.00200952
0.000339207
0.00959199
0.00023401
-0.00220907
0.000746604
-0.00547996
0.00141628
-0.00747147
0.00218504
-0.00838088
0.00304268
-0.00845147
0.00401222
-0.00788628
0.00513475
-0.00682744
0.00645124
-0.00536239
0.00798003
-0.00353831
-0.00137091
0.00969015
0.000270624
-0.00247969
0.000837133
-0.00604647
0.00155623
-0.00819057
0.00235667
-0.00918131
0.00322072
-0.00931552
0.00416997
-0.00883553
0.00525321
-0.00791068
0.00653171
-0.00664089
0.00805471
-0.00506131
-0.00313057
0.00981437
0.000315056
-0.00279475
0.000945637
-0.00667705
0.00172489
-0.00896982
0.00256777
-0.0100242
0.00344732
-0.0101951
0.00437869
-0.00976689
0.00541006
-0.00894205
0.00661662
-0.00784745
0.0080878
-0.00653249
-0.00490235
0.00985957
0.000364464
-0.00315921
0.00106231
-0.0073749
0.00190263
-0.00981013
0.00278802
-0.0109096
0.00368253
-0.0110896
0.00458989
-0.0106743
0.0055426
-0.00989475
0.00660099
-0.00890584
0.00787168
-0.00780318
0.00962391
-0.00665458
0.0116563
0.051777
-0.0538303
0.0126768
0.0871409
-0.0881615
0.0126457
0.118065
-0.118033
0.0117691
0.145451
-0.144574
0.01029
0.171806
-0.170327
0.00842914
0.199585
-0.197724
0.00638338
0.230902
-0.228857
0.00421788
0.266449
-0.264284
0.00198296
0.308635
-0.3064
0.354209
-0.352226
0.0120128
0.049343
0.0134412
0.0857125
0.0137712
0.117735
0.0131438
0.146078
0.0118062
0.173144
0.0099797
0.201412
0.00784935
0.233033
0.00543111
0.268868
0.00271556
0.31135
0.356924
0.0123242
0.0465703
0.0141405
0.0838962
0.0148272
0.117048
0.0144607
0.146444
0.0132815
0.174323
0.0115087
0.203184
0.00930272
0.235239
0.00663901
0.271531
0.00344724
0.314542
0.360372
0.0125852
0.0435196
0.0147648
0.0817166
0.0157972
0.116015
0.0156958
0.146546
0.0146876
0.175331
0.012982
0.20489
0.0107147
0.237506
0.00782384
0.274422
0.00416774
0.318198
0.364539
0.0127944
0.0402681
0.0153086
0.0792023
0.0166699
0.114654
0.0168356
0.14638
0.0160114
0.176155
0.0143919
0.20651
0.0120838
0.239814
0.00898438
0.277522
0.00487541
0.322307
0.369415
0.0129552
0.0369049
0.015769
0.0763886
0.0174345
0.112989
0.0178569
0.145958
0.0172149
0.176797
0.0156894
0.208035
0.0133588
0.242145
0.0100856
0.280795
0.00555402
0.326838
0.374969
0.0130744
0.0335206
0.0161443
0.0733186
0.0180964
0.111037
0.018778
0.145276
0.0183277
0.177248
0.0169124
0.20945
0.0145769
0.24448
0.0111465
0.284225
0.00620647
0.331778
0.381175
0.0131527
0.0301823
0.0164241
0.0700473
0.0186185
0.108842
0.0195221
0.144372
0.0192427
0.177527
0.0179414
0.210751
0.0156292
0.246792
0.0121047
0.28775
0.00681074
0.337072
0.387986
0.0131365
0.0269053
0.0166374
0.0665464
0.019113
0.106367
0.0202635
0.143222
0.0201561
0.177635
0.0189577
0.21195
0.0166587
0.249092
0.0130256
0.291383
0.00737829
0.34272
0.395364
0.0129326
0.0235966
0.0165541
0.062925
0.0192349
0.103686
0.0205991
0.141858
0.0207126
0.177521
0.0196529
0.21301
0.0174929
0.251251
0.0138049
0.295071
0.00796255
0.348562
0.403327
0.0168013
0.0369434
-0.0301481
0.00647298
0.0732533
-1.32297e-05
0.110172
-0.00307088
0.144915
-0.00366864
0.178119
-0.00275989
0.212101
-0.00105791
0.249549
1.38983e-05
0.293999
3.70069e-05
0.348539
0.403364
0.00892074
0.0507446
-0.022722
-0.00187815
0.0840522
-0.00918885
0.117483
-0.0128946
0.148621
-0.0130901
0.178314
-0.0106501
0.209661
-0.00687897
0.245778
-0.00353843
0.290659
-0.00176122
0.346762
0.401603
0.00319129
0.0628923
-0.015339
-0.00738115
0.0946247
-0.0146952
0.124797
-0.0183787
0.152305
-0.0184138
0.17835
-0.0154185
0.206666
-0.0107602
0.24112
-0.00641668
0.286315
-0.00321654
0.343562
0.398386
-0.00120375
0.0728789
-0.00878287
-0.0109032
0.104324
-0.0178635
0.131757
-0.0210867
0.155528
-0.020628
0.177891
-0.0171268
0.203164
-0.0120203
0.236014
-0.00724186
0.281537
-0.00363993
0.33996
0.394746
-0.00368447
0.0803383
-0.00377488
-0.0113832
0.112023
-0.0175373
0.137911
-0.0207866
0.158777
-0.0207306
0.177835
-0.0176768
0.200111
-0.0128271
0.231164
-0.00796263
0.276672
-0.00394883
0.335946
0.390797
-0.00506311
0.08566
-0.00025859
-0.0111563
0.118116
-0.016233
0.142988
-0.018895
0.161439
-0.0188071
0.177747
-0.0161547
0.197458
-0.0119131
0.226922
-0.00764101
0.2724
-0.00396551
0.33227
0.386832
-0.00435
0.0888112
0.00119873
-0.00872802
0.122494
-0.013367
0.147627
-0.0164582
0.16453
-0.0171745
0.178463
-0.0153621
0.195646
-0.0116816
0.223242
-0.00757417
0.268293
-0.00390461
0.328601
0.382927
-0.00337056
0.0905608
0.00162099
-0.00605841
0.125182
-0.00945811
0.151027
-0.0121989
0.167271
-0.0134027
0.179667
-0.0126298
0.194873
-0.0101334
0.220745
-0.00689355
0.265053
-0.00368151
0.325389
0.379246
-0.00110358
0.0914763
0.000188079
-0.00343394
0.127512
-0.00701933
0.154612
-0.010315
0.170567
-0.0121523
0.181505
-0.0119779
0.194698
-0.00989589
0.218663
-0.00674051
0.261897
-0.00357573
0.322224
0.37567
0.00228173
-0.00187809
0.00147478
-0.00119541
-0.00460836
-0.00739347
-0.00873947
-0.00822824
-0.00629054
-0.0034072
0.00986605
-0.0318504
-0.00816372
0.0113273
-0.0241832
0.0127521
-0.0167638
0.0141804
-0.0102112
0.0155311
-0.00512555
0.0167251
-0.00145255
0.0175776
0.000346211
0.0182584
0.000940132
0.0186913
-0.000244744
-0.00201954
0.00940159
-0.0332344
-0.00801761
0.0105736
-0.0253553
0.0117585
-0.0179487
0.012951
-0.0114037
0.0140713
-0.00624585
0.0150236
-0.0024048
0.0156939
-0.000324171
0.0161749
0.000459221
0.0163959
-0.000465828
-0.00199075
0.00885281
-0.0342191
-0.00786807
0.00965736
-0.0261598
0.0105642
-0.0188555
0.0115008
-0.0123402
0.0123775
-0.00712262
0.0131062
-0.00313351
0.0135958
-0.000813755
0.0139128
0.000142257
0.0139818
-0.000534791
-0.00183529
0.00796392
-0.0348344
-0.0073486
0.00843938
-0.0266353
0.00907577
-0.0194919
0.00975862
-0.0130231
0.0104027
-0.00776671
0.0109299
-0.00366072
0.0112701
-0.00115395
0.0114708
-5.84554e-05
0.011437
-0.000500948
-0.00160148
0.00657855
-0.0351236
-0.00628942
0.00678713
-0.0268439
0.00719858
-0.0199034
0.00766565
-0.0134901
0.00811795
-0.008219
0.00849021
-0.00403299
0.008728
-0.00139174
0.00885458
-0.000185033
0.00877009
-0.000416462
-0.00133203
0.00465805
-0.0351195
-0.00466215
0.00465871
-0.0268445
0.00490236
-0.020147
0.00520975
-0.0137975
0.00552946
-0.0085387
0.00580559
-0.00430912
0.00599319
-0.00157935
0.00609292
-0.000284765
0.00600232
-0.000325857
-0.00106309
0.00227559
-0.0348553
-0.00253974
0.00211254
-0.0266815
0.00223834
-0.0202728
0.00244271
-0.0140019
0.00269028
-0.00878627
0.00292886
-0.0045477
0.00311567
-0.00176615
0.0032299
-0.000398997
0.00316774
-0.000263694
-0.000823044
-0.000410114
-0.034407
-3.8173e-05
-0.000713496
-0.0263781
-0.000682066
-0.0203043
-0.000517145
-0.0141668
-0.000301741
-0.00900168
-3.83334e-05
-0.00481111
0.000166243
-0.00197073
0.000325308
-0.000558062
0.000301565
-0.000239951
-0.000642356
-0.00336376
-0.0336964
0.00265312
-0.00371708
-0.0260248
-0.00371554
-0.0203058
-0.00358396
-0.0142984
-0.00334973
-0.0092359
-0.00305893
-0.00510191
-0.00278191
-0.00224775
-0.00256722
-0.000772748
-0.00251561
-0.00029156
-0.000516289
-0.00628723
-0.0328272
0.00541809
-0.00668834
-0.0256237
-0.00671726
-0.0202769
-0.00658429
-0.0144314
-0.00632342
-0.00949678
-0.00598037
-0.00544496
-0.00564595
-0.00258217
-0.00537533
-0.00104336
-0.00526077
-0.000406127
-0.000461601
-0.00906583
-0.0318652
0.00810377
-0.00950217
-0.0251874
-0.00955966
-0.0202194
-0.00941358
-0.0145775
-0.00912738
-0.00978298
-0.0087381
-0.00583424
-0.00835866
-0.00296162
-0.00804369
-0.00135833
-0.00787762
-0.000572204
-0.00047593
-0.0116156
-0.0308588
0.0106093
-0.0120608
-0.0247422
-0.0121494
-0.0201308
-0.011987
-0.0147399
-0.0116885
-0.0100814
-0.0112709
-0.00625188
-0.0108681
-0.00336444
-0.0105276
-0.00169876
-0.0103258
-0.000774
-0.00054574
-0.0138654
-0.0298508
0.0128574
-0.0143017
-0.0243058
-0.014426
-0.0200066
-0.0142524
-0.0149135
-0.0139614
-0.0103724
-0.0135403
-0.00667293
-0.0131403
-0.00376443
-0.0127975
-0.00204162
-0.01258
-0.00099149
-0.00065057
-0.0157825
-0.0288708
0.0148025
-0.0161964
-0.0238919
-0.0163623
-0.0198406
-0.0161902
-0.0150856
-0.0159271
-0.0106355
-0.0155306
-0.00706943
-0.0151596
-0.0041354
-0.014839
-0.00236227
-0.0146283
-0.00120216
-0.000765361
-0.0173638
-0.0279283
0.0164213
-0.0177432
-0.0235125
-0.0179567
-0.0196271
-0.017804
-0.0152383
-0.0175874
-0.0108522
-0.0172435
-0.00741333
-0.0169253
-0.00445354
-0.0166516
-0.00263596
-0.0164715
-0.0013823
-0.000862335
-0.0186254
-0.0270065
0.0177036
-0.0189616
-0.0231763
-0.0192241
-0.0193646
-0.0191132
-0.0153493
-0.0189571
-0.0110082
-0.0186921
-0.00767838
-0.0184479
-0.00469775
-0.0182455
-0.00283832
-0.0181202
-0.00150764
-0.000912478
-0.0195886
-0.0260611
0.0186432
-0.0198823
-0.0228826
-0.0201865
-0.0190603
-0.0201435
-0.0153923
-0.0200586
-0.0110931
-0.0198963
-0.00784066
-0.019745
-0.00484905
-0.0196379
-0.00294545
-0.0195919
-0.00155362
-0.000886498
-0.0202505
-0.0250444
0.0192338
-0.0205288
-0.0226043
-0.0208634
-0.0187258
-0.0209198
-0.0153359
-0.0209163
-0.0110966
-0.0208788
-0.00787814
-0.0208385
-0.00488931
-0.0208501
-0.00293388
-0.0209084
-0.00149532
-0.000755351
-0.0205854
-0.0239421
0.0194832
-0.0209217
-0.022268
-0.0212749
-0.0183726
-0.0214628
-0.0151479
-0.0215522
-0.0110072
-0.0216598
-0.00777053
-0.0217499
-0.00479923
-0.0219042
-0.00277956
-0.0220929
-0.00130663
-0.000490195
-0.0205852
-0.0228345
0.0194776
-0.0210642
-0.0217891
-0.0213976
-0.0180392
-0.0217354
-0.0148101
-0.0219457
-0.010797
-0.022226
-0.00749021
-0.0224832
-0.00454207
-0.0228126
-0.00245012
-0.023171
-0.000948218
-6.47183e-05
-0.0843812
-0.0205167
0.0820634
-0.0886358
-0.0175345
-0.0916741
-0.0150008
-0.0945203
-0.0119639
-0.096258
-0.00905934
-0.0974359
-0.00631225
-0.0978912
-0.00408684
-0.0980677
-0.00227364
-0.0980513
-0.000964567
-8.23571e-05
-0.103696
-0.0181047
0.101284
-0.106592
-0.0146387
-0.10884
-0.0127522
-0.111019
-0.00978486
-0.112413
-0.00766529
-0.113437
-0.00528864
-0.113909
-0.00361461
-0.114154
-0.00202859
-0.114181
-0.000937339
-8.78755e-05
-0.122692
-0.0158998
0.120488
-0.124887
-0.0124446
-0.126806
-0.0108332
-0.128471
-0.00811943
-0.129633
-0.00650356
-0.130477
-0.00444483
-0.130903
-0.00318777
-0.131137
-0.00179468
-0.131162
-0.000912452
-8.31096e-05
-0.143314
-0.013982
0.141396
-0.145125
-0.0106342
-0.146751
-0.0092067
-0.148095
-0.00677513
-0.149091
-0.00550812
-0.149802
-0.00373331
-0.150191
-0.00279894
-0.150403
-0.00158311
-0.150424
-0.000890658
-7.57571e-05
-0.167573
-0.0120619
0.165653
-0.169175
-0.00903231
-0.170608
-0.00777425
-0.171767
-0.005616
-0.172665
-0.00460945
-0.173304
-0.00309499
-0.173699
-0.00240337
-0.173931
-0.0013509
-0.174
-0.00082249
-4.74819e-05
-0.197148
-0.0100374
0.195123
-0.198679
-0.00750114
-0.200115
-0.00633812
-0.20125
-0.00448092
-0.202145
-0.00371493
-0.202792
-0.00244779
-0.203276
-0.00191905
-0.203623
-0.00100376
-0.203828
-0.000617521
2.01876e-05
-0.231346
-0.00765185
0.228961
-0.233437
-0.00541015
-0.235155
-0.00462065
-0.236331
-0.00330412
-0.237255
-0.00279101
-0.237978
-0.00172489
-0.238599
-0.00129825
-0.239112
-0.000490272
-0.239467
-0.000263311
0.000106085
-0.268579
-0.00535729
0.266285
-0.269784
-0.00420572
-0.270953
-0.00345143
-0.272026
-0.00223113
-0.273034
-0.00178263
-0.273814
-0.000945398
-0.274482
-0.000630175
-0.274962
-1.03985e-05
-0.275274
4.91785e-05
0.000169567
-0.293415
-0.00264306
0.290701
-0.296192
-0.00142867
-0.298426
-0.00121829
-0.299805
-0.000851814
-0.300856
-0.000731761
-0.30141
-0.000390933
-0.301835
-0.000205524
-0.301957
0.000111806
-0.302025
0.000117437
0.000103675
-0.311017
0.308374
-0.312446
-0.313664
-0.314516
-0.315248
-0.315639
-0.315844
-0.315732
-0.315615
-0.0224252
0.0839706
0.0205181
-0.0233175
0.102176
-0.023589
0.120759
-0.0233184
0.141126
-0.0225388
0.164874
-0.0209328
0.193517
-0.0183899
0.226418
-0.0122744
0.260169
-0.00759359
0.28602
0.30078
-0.0212938
0.0851329
0.0201315
-0.0220194
0.102902
-0.0221422
0.120882
-0.0217341
0.140718
-0.0208253
0.163965
-0.019172
0.191864
-0.016498
0.223744
-0.0120007
0.255672
-0.00666327
0.280683
0.294117
-0.0202841
0.0860379
0.0193791
-0.0208371
0.103455
-0.0208332
0.120878
-0.020359
0.140243
-0.019425
0.163031
-0.0178182
0.190257
-0.0152007
0.221126
-0.011155
0.251626
-0.00603723
0.275565
0.28808
-0.0191384
0.0868137
0.0183626
-0.0195231
0.103839
-0.0193782
0.120733
-0.0188263
0.139692
-0.0178668
0.162071
-0.0163057
0.188696
-0.0138118
0.218632
-0.010156
0.24797
-0.00539116
0.2708
0.282689
-0.0178407
0.0874958
0.0171586
-0.0180863
0.104085
-0.0178222
0.120469
-0.0172024
0.139072
-0.0162235
0.161092
-0.014712
0.187184
-0.0123808
0.216301
-0.00906588
0.244655
-0.00477057
0.266505
0.277918
-0.0163936
0.0880714
0.0158181
-0.0165057
0.104197
-0.0161444
0.120108
-0.0154764
0.138404
-0.0144949
0.160111
-0.0130507
0.18574
-0.0109105
0.214161
-0.0079327
0.241678
-0.00416497
0.262737
0.273753
-0.0148284
0.0885207
0.014379
-0.0148025
0.104171
-0.0143518
0.119657
-0.0136471
0.137699
-0.0126781
0.159142
-0.0113226
0.184385
-0.00939605
0.212234
-0.00677902
0.239061
-0.00355433
0.259513
0.270199
-0.0131789
0.0888251
0.0128744
-0.0130166
0.104009
-0.0124782
0.119118
-0.0117406
0.136961
-0.0107921
0.158193
-0.00954107
0.183134
-0.00784551
0.210539
-0.00561421
0.236829
-0.00293397
0.256832
0.267265
-0.0114763
0.0889635
0.0113379
-0.011185
0.103717
-0.0105601
0.118493
-0.00979183
0.136193
-0.00886718
0.157269
-0.00773013
0.181997
-0.00627628
0.209085
-0.00444456
0.234998
-0.0023077
0.254696
0.264957
-0.00974974
0.0889084
0.00980491
-0.00934232
0.10331
-0.00862746
0.117779
-0.0078326
0.135398
-0.00693205
0.156368
-0.00591557
0.18098
-0.00470916
0.207878
-0.00328068
0.233569
-0.00168409
0.253099
0.263273
-0.00803562
0.0886246
0.00831934
-0.00753015
0.102805
-0.00671426
0.116963
-0.00589762
0.134582
-0.00501704
0.155488
-0.004123
0.180086
-0.00316354
0.206919
-0.00213361
0.232539
-0.00107001
0.252035
0.262203
-0.00639487
0.0881132
0.00690629
-0.00578472
0.102194
-0.00487162
0.11605
-0.00402871
0.133739
-0.0031656
0.154624
-0.00238449
0.179305
-0.00165928
0.206194
-0.00101625
0.231896
-0.000471695
0.251491
0.261731
-0.00487843
0.0873903
0.00560137
-0.004148
0.101464
-0.00315103
0.115053
-0.0022734
0.132861
-0.00143174
0.153783
-0.000754776
0.178628
-0.000257142
0.205696
8.91054e-06
0.23163
8.7041e-05
0.251413
0.261818
-0.00351612
0.0864834
0.00442298
-0.00264246
0.10059
-0.00159155
0.114002
-0.000675157
0.131945
0.000119478
0.152988
0.000796218
0.177951
0.001121
0.205371
0.00105906
0.231692
0.000640271
0.251831
0.262459
-0.00232738
0.0854331
0.00337764
-0.00128702
0.09955
-0.000246844
0.112962
0.000841622
0.130856
0.00173239
0.152097
0.00229358
0.17739
0.00242216
0.205243
0.00203025
0.232084
0.00116228
0.252699
0.263621
-0.0013216
0.084295
0.00245975
-0.00013615
0.0983645
0.00111563
0.11171
0.00224917
0.129723
0.00313377
0.151213
0.00363589
0.176888
0.00359915
0.205279
0.00291269
0.23277
0.00163417
0.253978
0.265255
-0.000500007
0.0831471
0.00164795
0.00100755
0.096857
0.00230573
0.110412
0.00349056
0.128538
0.00439723
0.150306
0.00486734
0.176418
0.00469686
0.20545
0.00374539
0.233722
0.00208334
0.25564
0.267339
0.000156665
0.0820816
0.000908778
0.00192717
0.0950865
0.00326593
0.109073
0.00450161
0.127302
0.00542972
0.149378
0.00587908
0.175969
0.00560676
0.205722
0.00444104
0.234888
0.00245431
0.257627
0.269793
0.000993699
0.0809194
0.000168558
0.00279916
0.093281
0.00418706
0.107685
0.00547052
0.126019
0.00642837
0.14842
0.00686845
0.175529
0.00650289
0.206088
0.0051283
0.236262
0.0028265
0.259928
0.272619
0.00125895
0.0801803
-0.000519897
0.00314276
0.0913972
0.00458683
0.106241
0.00590156
0.124704
0.00688735
0.147434
0.00734972
0.175066
0.00696761
0.20647
0.00550193
0.237728
0.00301655
0.262414
0.275636
-0.0717202
0.0715388
0.0803617
-0.0633502
0.0830272
-0.0573329
0.100224
-0.05106
0.118431
-0.0447801
0.141155
-0.0380366
0.168323
-0.0302586
0.198692
-0.0211271
0.228596
-0.0108083
0.252095
0.264828
-0.083397
0.0645176
0.0904183
-0.0761179
0.075748
-0.0694134
0.0935191
-0.0621
0.111118
-0.0549935
0.134048
-0.0470259
0.160355
-0.037639
0.189305
-0.0265228
0.21748
-0.0138882
0.23946
0.250939
-0.0967805
0.0575286
0.10377
-0.0896808
0.0686484
-0.0823189
0.0861571
-0.0744001
0.103199
-0.0662678
0.125916
-0.0565358
0.150623
-0.0451017
0.177871
-0.0315362
0.203915
-0.0160372
0.223961
0.234902
-0.113428
0.0509773
0.119979
-0.10625
0.0614707
-0.0985421
0.0784489
-0.0900295
0.0946865
-0.0805286
0.116415
-0.0687894
0.138884
-0.0550262
0.164108
-0.0386383
0.187527
-0.0202111
0.205534
0.214691
-0.133055
0.0439749
0.140057
-0.125927
0.0543434
-0.117513
0.0700348
-0.107609
0.0847818
-0.095837
0.104643
-0.0813932
0.12444
-0.0646059
0.147321
-0.0446491
0.16757
-0.0224334
0.183319
0.192258
-0.158631
0.0377376
0.164868
-0.150802
0.046515
-0.141101
0.0603334
-0.129348
0.0730288
-0.115115
0.0904104
-0.0978991
0.107224
-0.0776241
0.127046
-0.0537659
0.143712
-0.0281799
0.157733
0.164078
-0.1865
0.0300194
0.194218
-0.177513
0.0375286
-0.165822
0.0486416
-0.151548
0.0587549
-0.134016
0.0728785
-0.112763
0.0859715
-0.087345
0.101627
-0.0584251
0.114792
-0.0284125
0.12772
0.135665
-0.21984
0.022021
0.227838
-0.209161
0.0268497
-0.195477
0.0349574
-0.178572
0.0418501
-0.157723
0.0520293
-0.132485
0.0607332
-0.102794
0.0719363
-0.0703557
0.0823536
-0.0372231
0.0945875
0.0984422
-0.246034
0.0106694
0.257386
-0.232433
0.0132479
-0.214951
0.0174764
-0.194004
0.0209028
-0.168201
0.0262267
-0.138012
0.0305441
-0.102919
0.0368429
-0.0628985
0.042333
-0.020659
0.052348
0.0777833
-0.317705
0.328374
-0.304457
-0.286981
-0.266078
-0.239851
-0.209307
-0.172464
-0.130131
-0.0777833
-0.00200014
0.0823094
5.24062e-05
-0.0036756
0.0920937
-0.00497832
0.105072
-0.00595334
0.120954
-0.00654957
0.140653
-0.00671557
0.165034
-0.00621571
0.193718
-0.00492924
0.226552
-0.00370868
0.256165
0.324666
-0.00149435
0.0845008
-0.000697059
-0.00335805
0.0939574
-0.00476827
0.106482
-0.00577355
0.12196
-0.00640642
0.141286
-0.00657019
0.165198
-0.00612678
0.193275
-0.00486031
0.225286
-0.00338429
0.254689
0.321281
-0.000766793
0.0866511
-0.00138355
-0.00263572
0.0958263
-0.0040653
0.107912
-0.00507564
0.12297
-0.00573631
0.141947
-0.00591633
0.165378
-0.00557091
0.192929
-0.00440111
0.224116
-0.00309683
0.253385
0.318185
-0.000115683
0.0888373
-0.00207046
-0.00189626
0.0976069
-0.00323856
0.109254
-0.00421941
0.123951
-0.00486018
0.142588
-0.00508357
0.165601
-0.00481019
0.192656
-0.00382369
0.223129
-0.00272779
0.252289
0.315457
0.00062366
0.0910033
-0.00278969
-0.00117294
0.0994035
-0.002435
0.110516
-0.00336181
0.124878
-0.00396324
0.143189
-0.00420084
0.165839
-0.00399123
0.192446
-0.00318794
0.222326
-0.00231353
0.251415
0.313143
0.00140629
0.0931304
-0.00353335
-0.000386398
0.101196
-0.00155938
0.111689
-0.00243591
0.125754
-0.00300359
0.143757
-0.00325002
0.166085
-0.00312471
0.192321
-0.00249666
0.221698
-0.00186328
0.250781
0.31128
0.00224257
0.0951834
-0.00429558
0.000554653
0.102884
-0.000584962
0.112829
-0.00140884
0.126578
-0.00194482
0.144293
-0.00220454
0.166345
-0.00217336
0.19229
-0.00174057
0.221265
-0.00137301
0.250414
0.309907
0.00312573
0.0971301
-0.00507247
0.00157373
0.104436
0.00048511
0.113918
-0.000303174
0.127366
-0.000794623
0.144784
-0.00107148
0.166622
-0.00112293
0.192341
-0.000923843
0.221066
-0.000839768
0.25033
0.309067
0.00404022
0.0989438
-0.00585391
0.00261384
0.105863
0.00160963
0.114922
0.000906963
0.128069
0.000438833
0.145252
0.00011495
0.166946
4.30837e-05
0.192413
-7.94346e-05
0.221189
-0.000260027
0.25051
0.308807
0.00497458
0.100591
-0.00662166
0.00367719
0.10716
0.00275637
0.115843
0.00213695
0.128688
0.00170602
0.145683
0.00139492
0.167257
0.00114193
0.192666
0.000865061
0.221465
0.000318598
0.251057
0.309126
0.00591642
0.102016
-0.00734188
0.00474634
0.10833
0.00391423
0.116675
0.00337191
0.129231
0.00298745
0.146068
0.00265928
0.167585
0.00229973
0.193026
0.00179385
0.221971
0.000896011
0.251955
0.310022
0.0068494
0.10317
-0.00800329
0.00581517
0.109364
0.00507511
0.117415
0.0046087
0.129697
0.00426941
0.146407
0.00393051
0.167924
0.00346816
0.193488
0.00273027
0.222709
0.00148977
0.253195
0.311512
0.00773899
0.104014
-0.00858292
0.00685389
0.110249
0.00620781
0.118061
0.00581507
0.13009
0.00552429
0.146698
0.00518386
0.168264
0.00462301
0.194049
0.00366744
0.223665
0.00208624
0.254776
0.313598
0.00856365
0.104514
-0.00906316
0.00784083
0.110972
0.00728633
0.118615
0.00696254
0.130414
0.00672655
0.146934
0.00638977
0.168601
0.00574197
0.194697
0.00458451
0.224822
0.00267181
0.256689
0.31627
0.009304
0.104637
-0.00942722
0.00876001
0.111516
0.0082917
0.119084
0.0080308
0.130675
0.00785267
0.147112
0.00753074
0.168923
0.00681775
0.19541
0.00547469
0.226165
0.00324625
0.258918
0.319516
0.00993209
0.10437
-0.00966548
0.00958196
0.111866
0.00919356
0.119472
0.00898837
0.13088
0.00886758
0.147233
0.00856845
0.169222
0.00781264
0.196165
0.00630664
0.227671
0.00379054
0.261434
0.323306
0.0104523
0.1037
-0.00978219
0.0103216
0.111997
0.0100052
0.119789
0.00984593
0.131039
0.0097823
0.147296
0.00951846
0.169486
0.00874079
0.196943
0.00709568
0.229316
0.00431479
0.264215
0.327621
0.0107856
0.102706
-0.00979132
0.0108825
0.1119
0.0106418
0.120029
0.010523
0.131158
0.0105115
0.147308
0.0102893
0.169708
0.00951705
0.197715
0.0077794
0.231054
0.00478151
0.267212
0.332403
0.0111647
0.101306
-0.00976519
0.0114885
0.111576
0.0112893
0.120228
0.0111803
0.131267
0.0112053
0.147283
0.0110247
0.169889
0.0102612
0.198479
0.00843307
0.232882
0.00522564
0.27042
0.337628
0.0110454
0.09992
-0.00965901
0.0115474
0.111074
0.0114736
0.120302
0.0113903
0.13135
0.0114606
0.147212
0.0113391
0.17001
0.0106668
0.199151
0.00883741
0.234712
0.00555596
0.273701
0.343184
-0.0474597
0.095063
0.0523167
-0.0416957
0.10531
-0.036961
0.115568
-0.0319644
0.126353
-0.0266243
0.141872
-0.0210164
0.164402
-0.0150808
0.193216
-0.00901625
0.228647
-0.0043177
0.269003
0.338867
-0.0685917
0.089062
0.0745927
-0.0622331
0.0989517
-0.0551515
0.108486
-0.0471801
0.118382
-0.0394774
0.134169
-0.0315717
0.156497
-0.0230269
0.184671
-0.0142696
0.21989
-0.00680514
0.261538
0.332061
-0.0927212
0.0820859
0.0996973
-0.0838972
0.0901277
-0.0735753
0.0981641
-0.0633293
0.108136
-0.0538852
0.124725
-0.0433721
0.145984
-0.031997
0.173296
-0.0200942
0.207987
-0.00927503
0.250719
0.322786
-0.117574
0.0738661
0.125794
-0.1055
0.0780534
-0.0934391
0.0861035
-0.0816092
0.0963061
-0.0697154
0.112832
-0.0563185
0.132587
-0.0421804
0.159158
-0.0267856
0.192592
-0.0122266
0.23616
0.31056
-0.141741
0.062997
0.15261
-0.128682
0.0649944
-0.116349
0.0737704
-0.102607
0.0825647
-0.0882096
0.0984341
-0.0722663
0.116643
-0.0548481
0.141739
-0.0350861
0.17283
-0.0156528
0.216727
0.294907
-0.169001
0.0519007
0.180097
-0.155624
0.0516173
-0.14234
0.0604868
-0.127163
0.0673872
-0.110691
0.0819621
-0.0917924
0.0977452
-0.0701812
0.120128
-0.0457072
0.148356
-0.0211171
0.192137
0.27379
-0.201388
0.038127
0.215162
-0.188536
0.0387654
-0.17425
0.0462011
-0.158073
0.0512095
-0.139348
0.0632375
-0.117157
0.0755541
-0.0910409
0.094012
-0.0613209
0.118636
-0.0294091
0.160225
0.244381
-0.242101
0.0252523
0.254976
-0.228273
0.0249371
-0.212378
0.0303067
-0.194589
0.0334204
-0.173376
0.0420243
-0.148121
0.0502985
-0.118132
0.0640229
-0.0835687
0.0840733
-0.0442281
0.120884
0.200153
-0.293359
0.0111627
0.307448
-0.279531
0.0111092
-0.262909
0.0136845
-0.244905
0.0154165
-0.222774
0.0198931
-0.196931
0.0244562
-0.165489
0.0325805
-0.126267
0.0448518
-0.0736651
0.0682822
0.126488
-0.356762
0.367924
-0.345652
-0.331968
-0.316551
-0.296658
-0.272202
-0.239622
-0.19477
-0.126488
0.00742747
0.0539906
-0.00910136
0.00423393
0.0777862
0.00103249
0.102899
-0.00124476
0.128071
-0.00281043
0.154175
-0.00421867
0.181505
-0.00499027
0.215933
-0.0052279
0.255214
-0.00359488
0.305815
0.364329
0.00758875
0.0555768
-0.00917488
0.00473716
0.0806378
0.00187134
0.105765
-0.000522265
0.130465
-0.00217863
0.155832
-0.00370206
0.183029
-0.00464955
0.216881
-0.00492462
0.255489
-0.00344837
0.304339
0.360881
0.00802863
0.0567652
-0.00921704
0.00557425
0.0830922
0.00298192
0.108357
0.000659341
0.132787
-0.00112907
0.15762
-0.00274055
0.18464
-0.00383652
0.217977
-0.00416879
0.255821
-0.00310713
0.303277
0.357774
0.00847993
0.0575524
-0.00926711
0.00644533
0.0851268
0.00413522
0.110667
0.00197152
0.134951
-4.98496e-05
0.159641
-0.0016442
0.186235
-0.00282977
0.219162
-0.00332999
0.256321
-0.00266325
0.302611
0.355111
0.00893641
0.0579526
-0.00933669
0.00732309
0.0867401
0.00529889
0.112691
0.0032749
0.136975
0.00136678
0.16155
-0.000517823
0.188119
-0.00173808
0.220383
-0.00244829
0.257031
-0.00212475
0.302287
0.352986
0.00941686
0.0579546
-0.00941877
0.00823665
0.0879203
0.00650953
0.114418
0.00462719
0.138857
0.00275613
0.163421
0.000812542
0.190063
-0.000572452
0.221768
-0.00151594
0.257975
-0.00152617
0.302297
0.35146
0.00990766
0.0575462
-0.00949927
0.00917439
0.0886536
0.00776336
0.115829
0.00603825
0.140582
0.00420719
0.165252
0.00228695
0.191983
0.000710004
0.223345
-0.00053253
0.259217
-0.000872967
0.302638
0.350587
0.010388
0.0567223
-0.0095641
0.0101079
0.0889337
0.00902994
0.116907
0.00748545
0.142127
0.00571221
0.167025
0.00378533
0.19391
0.0020695
0.22506
0.000587153
0.2607
-0.000156647
0.303382
0.35043
0.0108434
0.0554825
-0.00960372
0.0110125
0.0887646
0.0102769
0.117643
0.00893836
0.143465
0.00724146
0.168722
0.00531933
0.195832
0.00347555
0.226904
0.00180408
0.262371
0.000540523
0.304645
0.350971
0.011268
-0.00961581
0.0118712
0.0114807
0.0103722
0.00876697
0.00687492
0.00492248
0.00300975
0.00125524
0.000416467
-0.00357568
0.00117537
-0.00813381
0.00206373
-0.0106985
0.0029768
-0.0118227
0.00387447
-0.0119873
0.00475055
-0.0115503
0.00561258
-0.0107568
0.00647092
-0.00976418
0.00733456
-0.00866682
-0.00748374
0.000458367
-0.00403404
0.00126024
-0.00893568
0.0021731
-0.0116113
0.00308993
-0.0127395
0.00397419
-0.0128715
0.00482192
-0.0123981
0.00563922
-0.0115741
0.00643244
-0.0105574
0.00720998
-0.00944437
-0.00829137
0.000489818
-0.00452386
0.00130783
-0.00975369
0.00220788
-0.0125114
0.00308796
-0.0136196
0.00392275
-0.0137063
0.00471974
-0.013195
0.0054953
-0.0123496
0.00626595
-0.0113281
0.00704882
-0.0102272
-0.00911061
0.000504925
-0.00502879
0.00130332
-0.0105521
0.00214365
-0.0133517
0.00293595
-0.0144119
0.00367124
-0.0144416
0.00437197
-0.0138958
0.00506691
-0.0130446
0.00578187
-0.012043
0.00653737
-0.0109828
-0.00992184
0.000498474
-0.00552726
0.00123533
-0.0112889
0.00196428
-0.0140807
0.0026139
-0.0150615
0.00319415
-0.0150219
0.00374243
-0.0144441
0.00429816
-0.0136003
0.00489389
-0.0126387
0.00555272
-0.0116416
-0.0106585
0.000466501
-0.00599376
0.00109742
-0.0119199
0.00166434
-0.0146476
0.00211985
-0.015517
0.00249343
-0.0153954
0.00283524
-0.0147859
0.00319205
-0.0139571
0.00360017
-0.0130469
0.00408463
-0.0121261
-0.0112361
0.000406813
-0.00640058
0.000889015
-0.0124021
0.00124959
-0.0150082
0.0014692
-0.0157366
0.00159567
-0.0155219
0.00168846
-0.0148786
0.00179783
-0.0140665
0.00196042
-0.0132094
0.0022005
-0.0123661
-0.0115753
0.000319355
-0.00671993
0.000615439
-0.0126981
0.000735716
-0.0151284
0.000691033
-0.0156919
0.000544833
-0.0153757
0.000361933
-0.0146957
0.000192309
-0.0138969
7.05721e-05
-0.0130877
1.86032e-05
-0.0123142
-0.0115949
0.000206289
-0.00692622
0.000287203
-0.0127791
0.00014567
-0.0149869
-0.000177388
-0.0153689
-0.000606107
-0.014947
-0.00107485
-0.014227
-0.00153733
-0.0134344
-0.00196473
-0.0126603
-0.0023411
-0.0119378
-0.0112829
7.15334e-05
-0.00699775
-8.06271e-05
-0.0126269
-0.000493417
-0.0145741
-0.00109494
-0.0147674
-0.00180291
-0.014239
-0.00255391
-0.013476
-0.00330771
-0.0126806
-0.00404196
-0.0119261
-0.00474609
-0.0112337
-0.0106108
-4.86275e-05
-0.00694912
-0.000434782
-0.0122407
-0.00111519
-0.0138937
-0.00198935
-0.0138932
-0.00296823
-0.0132601
-0.00399247
-0.0124518
-0.00502869
-0.0116444
-0.00606112
-0.0108936
-0.00708498
-0.0102098
-0.00959206
-0.000199932
-0.00674919
-0.000825789
-0.0116149
-0.00176225
-0.0129572
-0.00288679
-0.0127686
-0.00411024
-0.0120367
-0.00538016
-0.0111819
-0.00667058
-0.0103539
-0.00797154
-0.00959266
-0.00928245
-0.0088989
-0.00826524
-0.00035293
-0.00639626