/*--------------------------------*- C++ -*----------------------------------*\
  =========                 |
  \\      /  F ield         | OpenFOAM: The Open Source CFD Toolbox
   \\    /   O peration     | Website:  https://openfoam.org
    \\  /    A nd           | Version:  7
     \\/     M anipulation  |
\*---------------------------------------------------------------------------*/
FoamFile
{
    version     2.0;
    format      ascii;
    class       volScalarField;
    location    "84.2";
    object      p;
}
// * * * * * * * * * * * * * * * * * * * * * * * * * * * * * * * * * * * * * //

dimensions      [0 2 -2 0 0 0 0];

internalField   nonuniform List<scalar> 
2000
(
0.00932771
0.00942133
0.00959994
0.00982191
0.0100565
0.0102846
0.0104938
0.0106791
0.0108352
0.0109557
0.00935599
0.0094938
0.00969083
0.00993188
0.0101855
0.0104316
0.0106561
0.0108517
0.0110159
0.0111295
0.00935614
0.00954912
0.00976501
0.0100236
0.010293
0.0105529
0.0107887
0.0109923
0.0111625
0.0112688
0.0093333
0.00958948
0.00982466
0.0100982
0.0103787
0.0106465
0.0108874
0.0110935
0.0112654
0.0113624
0.00929431
0.00962008
0.00987333
0.0101578
0.0104433
0.0107115
0.0109493
0.0111499
0.0113165
0.0114005
0.00924853
0.00964671
0.00991544
0.0102057
0.0104888
0.0107484
0.0109734
0.0111585
0.0113104
0.0113751
0.00920697
0.00967581
0.00995606
0.0102457
0.0105183
0.0107596
0.0109614
0.0111203
0.0112466
0.0112841
0.00918175
0.00971449
0.0100009
0.0102829
0.0105363
0.0107498
0.0109183
0.0110411
0.0111317
0.0111341
0.00918564
0.00977021
0.0100561
0.0103227
0.0105485
0.0107257
0.0108529
0.010933
0.0109838
0.0109477
0.0092313
0.00985065
0.0101285
0.0103716
0.0105621
0.0106957
0.0107757
0.0108102
0.0108246
0.0107639
0.011134
0.0120227
0.0130613
0.0147088
0.0164644
0.0185244
0.0199736
0.0219966
0.0221019
0.0234663
0.0112138
0.0120071
0.0127892
0.0142218
0.0157974
0.0177061
0.0190446
0.0209245
0.02113
0.022311
0.0112422
0.0119827
0.0125242
0.0137491
0.0151547
0.0169228
0.0181593
0.019933
0.0201794
0.0212438
0.0112114
0.0119341
0.0122653
0.0132923
0.0145372
0.0161738
0.017321
0.0190042
0.0192604
0.0202667
0.0111178
0.0118442
0.0120094
0.012852
0.0139462
0.0154601
0.0165298
0.0181326
0.0183964
0.0193773
0.0109634
0.011698
0.0117505
0.012427
0.0133822
0.0147801
0.0157784
0.0173039
0.0175775
0.0185568
0.0107581
0.0114873
0.0114803
0.012015
0.0128466
0.0141387
0.015076
0.0165342
0.0168261
0.017811
0.0105122
0.0112022
0.0111865
0.0116131
0.0123338
0.0135195
0.0143956
0.0157795
0.0160926
0.0171152
0.0102193
0.0108279
0.0108418
0.011217
0.0118697
0.0129695
0.0138014
0.015117
0.0154511
0.0164954
0.00998648
0.0105081
0.0105173
0.0108029
0.0113588
0.0123551
0.0131403
0.0143694
0.0147608
0.0158908
0.0105183
0.0110334
0.0112627
0.0113935
0.0115855
0.012098
0.0126335
0.0134924
0.0138227
0.0146615
0.00836384
0.00883919
0.00923711
0.00961819
0.0100231
0.0105594
0.0110694
0.0117389
0.0119942
0.012518
0.00669246
0.00713582
0.00750597
0.00784973
0.00823177
0.00875694
0.00925686
0.00986207
0.0100751
0.0104465
0.00502414
0.00548403
0.00591839
0.00629017
0.00664909
0.00711228
0.00755413
0.00808829
0.00826793
0.00856173
0.00346533
0.00390951
0.00440254
0.0048458
0.00523915
0.00566666
0.00604802
0.00649986
0.00664785
0.00689554
0.00211909
0.00252634
0.00303431
0.00352117
0.00395799
0.00438496
0.00473646
0.00512101
0.00524124
0.00543342
0.00104529
0.00140518
0.00189256
0.00237104
0.00280473
0.00321342
0.00353726
0.00386991
0.0039699
0.00412027
0.000271398
0.000568264
0.00100586
0.00143912
0.001826
0.00218288
0.00246078
0.002739
0.0028098
0.0029086
-0.00013563
5.83791e-05
0.000403223
0.000729696
0.00100349
0.00125389
0.00144131
0.00164637
0.00168156
0.00174473
-0.000656739
-0.000294258
1.30201e-06
0.000205973
0.000338879
0.000453747
0.000519615
0.000618924
0.00059978
0.000604382
0.00989649
0.00804933
0.00643984
0.00482029
0.00332479
0.00202785
0.000995698
0.00022195
-0.000113553
-0.000677405
0.00952483
0.00775504
0.00617159
0.00459857
0.00316297
0.00192251
0.000940904
0.000206803
-0.000107024
-0.000596197
0.00915797
0.00749153
0.00593504
0.00440938
0.00302866
0.00184087
0.000906393
0.00021344
-8.66011e-05
-0.00048843
0.00887217
0.00730776
0.00577474
0.00429009
0.00295637
0.00181076
0.000911744
0.000248822
-4.7946e-05
-0.000384356
0.00867223
0.00718589
0.00567144
0.00422554
0.00293038
0.00182002
0.000948926
0.00030771
5.30032e-06
-0.000287422
0.00856226
0.00712372
0.00562396
0.00420771
0.00294477
0.00186269
0.00101235
0.000385267
6.95171e-05
-0.000198359
0.00854899
0.00711673
0.00562987
0.00423441
0.00299653
0.00193534
0.00109834
0.000477596
0.000141639
-0.000118332
0.00861941
0.00716204
0.00568477
0.00430134
0.0030813
0.00203377
0.00120291
0.000580971
0.000218912
-4.76938e-05
0.00876078
0.00725478
0.00578317
0.00440341
0.00319419
0.00215343
0.00132194
0.000691952
0.000298992
1.41106e-05
0.00895867
0.00738854
0.00591844
0.0045351
0.00333005
0.00228984
0.00145157
0.000807582
0.000380028
6.81064e-05
0.00919554
0.00755365
0.00608194
0.00468975
0.00348316
0.00243841
0.00158816
0.000925371
0.000460611
0.000115384
0.00945862
0.00774256
0.0062671
0.00486256
0.00364925
0.00259579
0.00172902
0.0010436
0.000539865
0.000156963
0.00974008
0.00795161
0.00646988
0.005051
0.00382572
0.00275986
0.0018725
0.00116129
0.000617398
0.000193849
0.0100323
0.00817752
0.00668608
0.00525249
0.00401018
0.00292886
0.00201736
0.00127785
0.000693084
0.000226891
0.0103292
0.00841836
0.00691222
0.00546496
0.00420084
0.00310142
0.0021628
0.00139299
0.000766985
0.000256788
0.0106253
0.00867308
0.00714526
0.00568647
0.0043963
0.00327646
0.00230828
0.0015066
0.000839265
0.00028411
0.0109127
0.00893878
0.00738154
0.0059144
0.00459511
0.00345292
0.0024534
0.00161864
0.000910149
0.000309367
0.0111861
0.00921931
0.00762405
0.00615079
0.00479924
0.00363209
0.00259919
0.00172991
0.000980222
0.000333091
0.0114705
0.00954974
0.00789577
0.00641106
0.0050198
0.00382105
0.00275004
0.00184289
0.00105071
0.00035547
0.0116873
0.00987425
0.00816047
0.00666342
0.00523721
0.00400472
0.00289705
0.00195208
0.0011191
0.000374879
0.0112464
0.0100056
0.0084444
0.00700516
0.00559717
0.00433199
0.00318218
0.0021716
0.00126309
0.000421702
0.0111928
0.00996745
0.00846552
0.00711237
0.00575105
0.00452037
0.00337065
0.00233943
0.001382
0.00047041
0.0114649
0.0102155
0.00869833
0.00736146
0.00599186
0.00475128
0.00357127
0.00250465
0.00149838
0.000523576
0.0119887
0.0106049
0.00902286
0.00765575
0.00625244
0.00498456
0.00376524
0.00266337
0.00161566
0.000585265
0.0127602
0.0111606
0.00946865
0.00802035
0.006555
0.00523593
0.00396688
0.00282739
0.00174215
0.000657174
0.0137249
0.0118681
0.0100338
0.00845783
0.00690625
0.00551252
0.00418499
0.00300072
0.00187536
0.000730254
0.0147711
0.012657
0.0106683
0.0089397
0.00728963
0.00580716
0.00441686
0.00317612
0.00199592
0.000779813
0.0157576
0.0134119
0.0112764
0.00940064
0.00765823
0.00609115
0.0046407
0.00333179
0.00207897
0.000788647
0.0165346
0.0140037
0.0117508
0.0097621
0.00795037
0.0063195
0.00482017
0.00344535
0.00211911
0.000767276
0.0169667
0.0143262
0.0120075
0.00995857
0.00811143
0.0064478
0.00492173
0.00350491
0.00213003
0.000743782
0.0123054
0.0122708
0.012611
0.0132193
0.0140888
0.0151491
0.0163085
0.0174301
0.0183433
0.0188649
0.0124951
0.0126215
0.0130638
0.0137667
0.0147227
0.0158533
0.0170692
0.0182312
0.0191686
0.0197031
0.012535
0.0128499
0.0134418
0.014288
0.0153737
0.016617
0.01792
0.0191303
0.0200775
0.0206075
0.0126288
0.0130885
0.0138035
0.0147774
0.0159816
0.0173382
0.0187432
0.0200291
0.0210176
0.0215668
0.012774
0.0133825
0.0142104
0.0152966
0.016603
0.0180593
0.0195605
0.0209301
0.0219797
0.0225662
0.0129353
0.0137084
0.0146639
0.015867
0.0172764
0.0188284
0.0204183
0.0218662
0.0229763
0.0236016
0.0131097
0.0140501
0.0151495
0.0164797
0.018002
0.0196564
0.0213354
0.0228567
0.0240196
0.0246766
0.0133059
0.0144092
0.0156623
0.0171251
0.0187689
0.0205341
0.0223079
0.0239029
0.025114
0.0257958
0.0135287
0.0147888
0.0162035
0.0177998
0.0195708
0.0214526
0.0233271
0.0249995
0.0262586
0.0269614
0.01378
0.0151873
0.0167728
0.018502
0.0204051
0.0224077
0.0243878
0.0261423
0.0274518
0.0281744
0.0140617
0.0155995
0.0173674
0.0192275
0.0212692
0.0233965
0.0254877
0.0273293
0.0286926
0.0294349
0.0143717
0.0160191
0.0179818
0.0199694
0.0221578
0.0244148
0.0266241
0.0285593
0.0299808
0.0307437
0.0146996
0.016442
0.0186054
0.0207213
0.0230645
0.0254588
0.0277948
0.0298308
0.0313182
0.0321031
0.0150264
0.0168686
0.0192235
0.0214778
0.0239803
0.0265229
0.0289958
0.0311413
0.0327092
0.0335188
0.0153155
0.0172998
0.0198208
0.0222397
0.0249016
0.027604
0.0302248
0.0324904
0.0341449
0.0349858
0.0155635
0.0177248
0.0203922
0.0229823
0.0258128
0.0286888
0.0314718
0.0338714
0.0356212
0.036502
0.0157614
0.0181237
0.0209263
0.0236936
0.0267051
0.0297708
0.0327331
0.0352824
0.0371391
0.0380699
0.0158821
0.0184858
0.0214097
0.0243612
0.027562
0.030832
0.033992
0.0367113
0.0386934
0.0396884
0.0159023
0.0188081
0.0218452
0.0249953
0.0284005
0.0318926
0.035266
0.0381696
0.04029
0.0413642
0.0157424
0.0190129
0.0221512
0.0254866
0.029093
0.0328246
0.0364502
0.0395901
0.0418966
0.0430835
0.0164175
0.0205901
0.0240861
0.0278172
0.0317854
0.0358866
0.0398809
0.0433812
0.0459921
0.0473865
0.0205363
0.0245605
0.0282806
0.0326119
0.0372188
0.0419833
0.0465864
0.0505825
0.0535355
0.0550898
0.0250645
0.0292826
0.0334324
0.0384249
0.0436897
0.0491402
0.0543205
0.0587418
0.0619635
0.0636626
0.029837
0.0345046
0.0393352
0.045089
0.0510704
0.0572339
0.0629447
0.0677133
0.0711039
0.072821
0.0348999
0.0401413
0.0457599
0.0523215
0.0590587
0.0659347
0.0721168
0.0771594
0.0806402
0.082429
0.0403487
0.0461882
0.05266
0.0600433
0.067555
0.0751303
0.0817376
0.0869724
0.0903348
0.0917572
0.0456994
0.052252
0.0595156
0.0676312
0.0758729
0.0840639
0.0910601
0.0964312
0.0995279
0.100865
0.0510602
0.058054
0.066076
0.0749371
0.083942
0.0927531
0.100258
0.105921
0.108528
0.107739
0.0541005
0.0619482
0.0706481
0.0801179
0.0897204
0.0989803
0.106815
0.112517
0.11401
0.115625
0.0577415
0.0657387
0.074919
0.0849131
0.0952393
0.105255
0.114473
0.122267
0.125256
0.108808
0.0151237
0.0190864
0.0231602
0.0275781
0.0321318
0.0373589
0.0420126
0.0474622
0.0498168
0.0534065
0.014695
0.0188336
0.0228499
0.0271769
0.031558
0.0366255
0.040979
0.0462856
0.0482879
0.0518288
0.014506
0.0188552
0.0228528
0.0271608
0.0314303
0.0363092
0.0404093
0.0453896
0.0471488
0.05045
0.0142608
0.0186994
0.022661
0.026921
0.0311166
0.0358283
0.0397448
0.0444288
0.0461341
0.0490885
0.0139862
0.0184276
0.0223429
0.0265152
0.0306431
0.035185
0.0389649
0.0433841
0.0451373
0.0477536
0.013709
0.0181243
0.0220078
0.0260992
0.0301452
0.0345064
0.0382213
0.0423362
0.0441877
0.0465053
0.0134267
0.017804
0.0216759
0.0257107
0.0296834
0.03389
0.0375373
0.0413883
0.0433108
0.0453781
0.0131408
0.017469
0.0213424
0.0253401
0.0292574
0.0333485
0.0369177
0.0405715
0.04253
0.044376
0.0128587
0.017129
0.0210122
0.0249864
0.0288636
0.0328723
0.0363685
0.0398754
0.0418409
0.0435264
0.0125899
0.0167946
0.020696
0.0246598
0.0285094
0.0324604
0.0358985
0.0392892
0.0412494
0.0428312
0.0123425
0.0164747
0.0204032
0.0243707
0.0282059
0.0321187
0.0355165
0.0388126
0.0407659
0.0422807
0.012114
0.0161691
0.0201369
0.0241222
0.0279594
0.0318526
0.0352286
0.0384494
0.0403979
0.041865
0.0118937
0.0158747
0.0198958
0.0239137
0.0277713
0.031665
0.0350383
0.0382031
0.0401489
0.0415813
0.0116727
0.0155941
0.0196801
0.0237454
0.0276425
0.0315578
0.034947
0.0380749
0.040017
0.0414286
0.0114395
0.0153304
0.0194883
0.023617
0.0275726
0.0315314
0.0349555
0.0380658
0.0400016
0.0414123
0.0111781
0.0150829
0.0193156
0.023525
0.0275589
0.0315829
0.0350613
0.0381733
0.0400919
0.0415348
0.0108696
0.0148463
0.0191538
0.0234639
0.0275984
0.0317104
0.0352659
0.0384012
0.0402919
0.0418104
0.010497
0.0146109
0.0189908
0.0234221
0.0276781
0.0318988
0.0355551
0.0387359
0.0405671
0.0422421
0.0100158
0.0143576
0.0188271
0.0234067
0.0278117
0.032168
0.0359522
0.0392047
0.0409629
0.0428557
0.00940849
0.0139884
0.0185648
0.0233105
0.0278817
0.0323954
0.0363466
0.0397184
0.0413566
0.0436305
0.0104732
0.0151226
0.0195895
0.0244536
0.029294
0.0340282
0.0382031
0.0417668
0.0433045
0.0459541
0.0132306
0.0180933
0.0228032
0.0281062
0.0334304
0.0386806
0.0433762
0.0473039
0.0492793
0.0515931
0.0170243
0.022218
0.0273622
0.0332761
0.0392338
0.0451967
0.0505723
0.0549997
0.0576553
0.059647
0.0214245
0.027077
0.0328354
0.0395647
0.0464179
0.0534095
0.0597879
0.0651318
0.0688571
0.0712713
0.0260403
0.0322554
0.0388089
0.0465435
0.054543
0.0629018
0.0707365
0.0777005
0.0832503
0.087471
0.0308382
0.0376255
0.0451623
0.054041
0.0634297
0.0735136
0.0834303
0.093232
0.102659
0.11143
0.0347998
0.0424259
0.0510079
0.0610629
0.0720728
0.0842749
0.0971339
0.11159
0.128116
0.147063
0.0390287
0.0472738
0.0568779
0.068174
0.0809835
0.0957547
0.112703
0.134627
0.164768
0.205069
0.0402798
0.0488091
0.0589101
0.0710003
0.0855564
0.103623
0.127148
0.160963
0.213806
0.293127
0.0429148
0.0528127
0.0644174
0.0786831
0.0968389
0.120683
0.153867
0.204527
0.290128
0.420675
0.0101888
0.0127185
0.0158308
0.019504
0.023193
0.0275457
0.0306923
0.034774
0.0358354
0.0376586
0.0100088
0.0125438
0.0155463
0.019044
0.0224612
0.026579
0.0294041
0.033338
0.0342239
0.0362048
0.0100141
0.0124941
0.0154105
0.0187897
0.0220535
0.0259205
0.0285051
0.0321592
0.0328061
0.0352145
0.0100971
0.0124148
0.0151613
0.0183745
0.0214664
0.0251007
0.0274952
0.030895
0.0313281
0.0338876
0.0102189
0.0123232
0.0148438
0.0178675
0.0207386
0.0241308
0.0263329
0.02953
0.0297756
0.0322071
0.0103675
0.0122409
0.0145271
0.0173383
0.0199971
0.0231352
0.0251357
0.0281582
0.0282349
0.0304316
0.0105321
0.0121709
0.0142221
0.0167858
0.0192935
0.0221684
0.0239853
0.0268434
0.026779
0.0287676
0.010702
0.0121135
0.0139232
0.0162457
0.0185816
0.0212239
0.0229077
0.0255886
0.025436
0.0272802
0.0108662
0.0120703
0.013629
0.015721
0.0178634
0.020284
0.0219049
0.0243631
0.0242117
0.0259387
0.011014
0.0120411
0.0133412
0.0152087
0.0171542
0.0193818
0.0209319
0.0231532
0.0231081
0.0246818
0.00933212
0.00996422
0.0102257
0.0104374
0.0105851
0.0106685
0.0106955
0.0106781
0.0106461
0.010569
0.00950677
0.0101218
0.0103565
0.0105283
0.0106267
0.0106547
0.0106234
0.0105471
0.0104547
0.0103184
0.00976152
0.0103288
0.0105275
0.0106525
0.0106966
0.0106661
0.0105747
0.0104387
0.0102879
0.010096
0.0101026
0.0105915
0.0107457
0.0108178
0.0108043
0.0107139
0.0105628
0.0103687
0.0101619
0.00991796
0.0105339
0.0109146
0.0110165
0.0110307
0.0109571
0.0108069
0.0105977
0.0103484
0.010088
0.00979539
0.011055
0.0113
0.0113425
0.0112946
0.0111595
0.0109504
0.0106857
0.0103845
0.0100739
0.00974006
0.0116603
0.0117459
0.011723
0.0116095
0.0114121
0.0111455
0.0108282
0.0104795
0.0101229
0.00973881
0.012339
0.0122466
0.0121534
0.0119714
0.0117115
0.0113892
0.0110227
0.0106305
0.0102316
0.00980606
0.0130753
0.0127916
0.0126242
0.0123721
0.01205
0.0116743
0.0112621
0.0108305
0.0103938
0.00993627
0.0138395
0.013364
0.0131211
0.0127988
0.0124162
0.0119901
0.0115361
0.0110692
0.0106
0.0101182
0.0145916
0.0139382
0.0136249
0.0132356
0.012796
0.0123234
0.011832
0.0113345
0.0108385
0.0103393
0.0153407
0.0145074
0.0141224
0.0136676
0.0131743
0.0126598
0.0121359
0.0116129
0.0110963
0.0105866
0.0160501
0.0150449
0.0145919
0.0140765
0.0135352
0.0129847
0.0124342
0.0118915
0.0113611
0.0108479
0.0166864
0.0155257
0.0150124
0.0144445
0.0138632
0.0132842
0.0127143
0.0121583
0.0116209
0.0111119
0.0172218
0.0159275
0.0153647
0.0147551
0.0141439
0.0135456
0.0129643
0.0124025
0.0118654
0.0113686
0.0176318
0.0162301
0.0156316
0.0149938
0.0143648
0.0137581
0.0131748
0.0126149
0.0120854
0.0116091
0.0178956
0.0164162
0.0157989
0.0151491
0.0145167
0.0139134
0.0133384
0.012789
0.012274
0.0118253
0.0179978
0.016473
0.0158559
0.0152126
0.0145926
0.0140064
0.0134512
0.012921
0.012425
0.0120062
0.0179286
0.0163924
0.0157964
0.0151798
0.0145898
0.014035
0.0135111
0.0130075
0.0125272
0.012133
0.0176847
0.0161712
0.0156181
0.0150499
0.0145087
0.0140015
0.0135221
0.0130523
0.0125857
0.0122124
0.0172675
0.0158109
0.0153223
0.0148243
0.0143527
0.0139144
0.0135065
0.0131204
0.0127706
0.0125588
0.0166767
0.0153148
0.0149123
0.0145052
0.0141207
0.0137649
0.0134371
0.0131347
0.0128739
0.0127183
0.0159302
0.0146957
0.0143972
0.0140978
0.0138141
0.0135503
0.0133067
0.0130843
0.0128949
0.0127685
0.0150493
0.0139698
0.0137888
0.0136107
0.0134395
0.0132768
0.0131245
0.0129866
0.0128722
0.0127942
0.0140582
0.0131561
0.0131021
0.0130558
0.0130069
0.012954
0.0129008
0.0128536
0.0128203
0.0128066
0.0129845
0.0122766
0.0123548
0.0124472
0.0125281
0.0125924
0.012645
0.0126944
0.0127478
0.0128076
0.0118583
0.0113549
0.0115662
0.0118005
0.012016
0.0122031
0.0123671
0.0125183
0.0126638
0.0128053
0.0107093
0.0104147
0.0107558
0.0111315
0.0114839
0.0117972
0.0120768
0.0123339
0.0125765
0.0128071
0.00956715
0.00947843
0.00994262
0.0104558
0.010944
0.0113849
0.0117825
0.0121485
0.0124918
0.0128178
0.00847009
0.00857139
0.00914621
0.00978822
0.010408
0.0109752
0.0114913
0.0119676
0.012414
0.0128399
0.00747264
0.00772964
0.00839107
0.0091464
0.00988834
0.0105768
0.0112095
0.0117957
0.0123453
0.0128739
0.00652261
0.00693706
0.00767562
0.00853442
0.00938969
0.0101937
0.0109395
0.0116337
0.012285
0.0129162
0.00565104
0.00621208
0.00701534
0.00796134
0.00891875
0.00982994
0.0106831
0.0114817
0.0122307
0.0129595
0.00487856
0.00556844
0.00642041
0.00743609
0.00848042
0.00948793
0.0104407
0.011338
0.0121794
0.0129937
0.00421299
0.0050125
0.0058964
0.00696323
0.00807811
0.00916902
0.0102115
0.0111991
0.0121248
0.0130225
0.0036573
0.00454674
0.00544657
0.00654576
0.0077137
0.00887367
0.00999484
0.011064
0.0120647
0.0130334
0.00321148
0.00417105
0.0050722
0.0061853
0.00738812
0.00860176
0.00978961
0.0109314
0.0119975
0.0130199
0.00287257
0.00388304
0.00477254
0.00588205
0.00710145
0.00835277
0.00959492
0.0108012
0.0119254
0.0129829
0.00263515
0.00367838
0.00454518
0.00563494
0.00685296
0.00812569
0.00940981
0.0106755
0.0118607
0.0129407
0.00249239
0.00355156
0.00438635
0.00544182
0.00664096
0.00791818
0.00922989
0.0105475
0.0118111
0.0129344
0.00243465
0.003495
0.00429033
0.00529877
0.0064624
0.0077276
0.00905527
0.0104313
0.0118802
0.0133253
0.00244215
0.00349642
0.00424954
0.00520163
0.00631335
0.0075434
0.00885433
0.0102225
0.0116694
0.0131035
0.00251503
0.00355305
0.00426063
0.00514828
0.006193
0.00736507
0.00862938
0.00995307
0.0113427
0.0127179
0.00264655
0.00365842
0.00431854
0.00513672
0.00610411
0.00720297
0.0084044
0.00967568
0.0110157
0.0123431
0.00282709
0.00380482
0.00441752
0.00516469
0.00604937
0.007066
0.00819434
0.00940577
0.010695
0.0119794
0.00304755
0.003985
0.00455185
0.0052292
0.00602951
0.00695873
0.00800611
0.00914844
0.0103783
0.0116184
0.00329962
0.00419233
0.00471583
0.00532657
0.00604373
0.00688346
0.00784463
0.00891035
0.0100726
0.0112637
0.00357568
0.0044205
0.00490374
0.00545247
0.00609006
0.006841
0.00771343
0.00869738
0.00978526
0.0109219
0.00386901
0.00466375
0.00510991
0.00560205
0.00616531
0.0068305
0.00761407
0.00851314
0.0095214
0.0105981
0.00417563
0.00491901
0.0053308
0.00577164
0.00626645
0.00685029
0.00754664
0.0083595
0.00928426
0.0102964
0.00449421
0.0051871
0.0055671
0.00596148
0.0063936
0.0069009
0.00751254
0.00823883
0.00907689
0.0100196
0.00480935
0.00545314
0.00580467
0.00615858
0.00653549
0.00697337
0.0075054
0.00814738
0.00889747
0.0097654
0.00512148
0.00571798
0.00604349
0.00636178
0.00669008
0.00706531
0.00752306
0.00808355
0.008745
0.00953164
0.00542995
0.00598079
0.00628212
0.00656882
0.00685437
0.00717344
0.00756249
0.00804494
0.00861772
0.00931623
0.00573351
0.00623998
0.00651848
0.00677693
0.007025
0.00729418
0.0076204
0.00802886
0.00851369
0.00911684
0.0060316
0.00649455
0.00675119
0.00698412
0.00719933
0.00742457
0.00769397
0.00803314
0.00843143
0.0089313
0.00632428
0.00674411
0.00697964
0.0071893
0.0073757
0.00756255
0.00778134
0.0080569
0.00837158
0.00875946
0.00661198
0.00698876
0.00720388
0.00739233
0.00755357
0.00770725
0.00788175
0.00810065
0.00833738
0.00860382
0.00689515
0.00722878
0.00742455
0.00759418
0.00773425
0.00786039
0.00799723
0.00816638
0.00833119
0.00846045
0.00717379
0.0074644
0.00764254
0.00779673
0.00792143
0.00802946
0.0081424
0.00828129
0.00841138
0.00843467
0.00744779
0.00769572
0.00785845
0.00800129
0.0081179
0.00822157
0.00833806
0.00851086
0.00881512
0.00929401
0.00771822
0.00792268
0.00807205
0.00820741
0.00832094
0.00842443
0.00854195
0.00871316
0.00900807
0.00943534
0.00798095
0.00814365
0.00828239
0.00841398
0.00852822
0.00863344
0.00874909
0.0089061
0.00915352
0.00948716
0.0082322
0.00835663
0.00848792
0.00861955
0.00873856
0.00884926
0.0089664
0.00911456
0.00932874
0.00960028
0.00846858
0.00855884
0.0086866
0.00882207
0.00894981
0.00906993
0.00919232
0.00933559
0.00952457
0.0097519
0.00868481
0.00874846
0.008876
0.00901893
0.00915894
0.0092919
0.00942277
0.00956442
0.00973402
0.00992834
0.00887678
0.00892277
0.00905341
0.00920724
0.0093626
0.00951136
0.00965384
0.00979772
0.00995446
0.0101244
0.00904068
0.00907916
0.0092165
0.00938406
0.00955737
0.00972436
0.00988122
0.0100312
0.0101813
0.0103335
0.00917322
0.00921576
0.00936308
0.00954677
0.0097398
0.00992671
0.0101
0.0102591
0.0104084
0.0105475
0.00927055
0.00933066
0.00949142
0.00969329
0.00990689
0.0101145
0.0103054
0.010475
0.0106285
0.0107578
)
;

boundaryField
{
    inlet
    {
        type            zeroGradient;
    }
    outlet
    {
        type            fixedValue;
        value           uniform 0;
    }
    cylinder
    {
        type            zeroGradient;
    }
    top
    {
        type            symmetryPlane;
    }
    bottom
    {
        type            symmetryPlane;
    }
    defaultFaces
    {
        type            empty;
    }
}


// ************************************************************************* //
