/*--------------------------------*- C++ -*----------------------------------*\
  =========                 |
  \\      /  F ield         | OpenFOAM: The Open Source CFD Toolbox
   \\    /   O peration     | Website:  https://openfoam.org
    \\  /    A nd           | Version:  7
     \\/     M anipulation  |
\*---------------------------------------------------------------------------*/
FoamFile
{
    version     2.0;
    format      ascii;
    class       surfaceScalarField;
    location    "1.5";
    object      phi;
}
// * * * * * * * * * * * * * * * * * * * * * * * * * * * * * * * * * * * * * //

dimensions      [0 3 -1 0 0 0 0];

internalField   nonuniform List<scalar> 
63520
(
-1.4316e-05
0.00149429
-0.00147998
-4.55751e-05
0.00360517
-0.00357391
-8.73117e-05
0.00501603
-0.00497429
-0.000131486
0.00582165
-0.00577748
-0.000169585
0.0061386
-0.0061005
-0.000193569
0.00607957
-0.00605559
-0.000196477
0.00574277
-0.00573987
-0.000172729
0.00520943
-0.00523318
-0.000118323
0.00454532
-0.00459972
-3.08115e-05
0.00380268
-0.00389019
9.07731e-05
0.00302311
-0.0031447
0.00024607
0.00223955
-0.00239485
0.000433552
0.0014778
-0.00166528
0.000650727
0.000757688
-0.000974865
0.000894429
9.38043e-05
-0.000337507
0.00116103
-0.00050385
0.000237252
0.00144662
-0.00102932
0.000743729
0.00174726
-0.00148018
0.00117953
0.00205918
-0.0018569
0.00154499
0.00237884
-0.00216225
0.00184259
0.00270308
-0.00240076
0.00207652
0.00302917
-0.00257819
0.0022521
0.00335484
-0.00270098
0.00237531
0.00367823
-0.00277584
0.00245245
0.0039979
-0.00280946
0.00248979
0.0043128
-0.00280827
0.00249337
0.00462219
-0.0027782
0.00246882
0.00492557
-0.00272466
0.00242127
0.00522271
-0.00265243
0.00235529
0.00551352
-0.00256568
0.00227487
0.00579805
-0.00246797
0.00218343
0.00607645
-0.00236227
0.00208388
0.0063489
-0.00225108
0.00197862
0.00661566
-0.0021364
0.00186963
0.006877
-0.00201986
0.00175852
0.00713316
-0.00190276
0.0016466
0.00738437
-0.00178617
0.00153496
0.00763084
-0.00167116
0.00142469
0.00787267
-0.00155713
0.0013153
-0.00143961
0.00810979
0.00120248
-1.02412e-05
0.00150453
-3.31437e-05
0.00362807
-6.37219e-05
0.0050466
-9.51697e-05
0.0058531
-0.000119824
0.00616325
-0.000130192
0.00608994
-0.000119699
0.00573228
-8.30471e-05
0.00517278
-1.63784e-05
0.00447865
8.26598e-05
0.00370364
0.000214986
0.00289079
0.000380166
0.00207437
0.000576604
0.00128136
0.000801775
0.000532515
0.00105245
-0.000156866
0.00132492
-0.000776325
0.00161529
-0.00131969
0.00191963
-0.00178451
0.00223415
-0.00217142
0.00255538
-0.00248348
0.00288024
-0.00272563
0.0032061
-0.00290405
0.00353078
-0.00302565
0.00385256
-0.00309761
0.00417011
-0.00312702
0.00448248
-0.00312064
0.00478905
-0.00308477
0.00508946
-0.00302507
0.00538355
-0.00294652
0.00567131
-0.00285345
0.00595287
-0.00274953
0.00622842
-0.00263782
0.00649822
-0.00252087
0.00676253
-0.00240071
0.00702165
-0.00227898
0.00727587
-0.00215697
0.00752542
-0.00203573
0.00777053
-0.00191627
0.0080113
-0.0017979
-0.00167606
0.00824775
-6.33283e-06
0.00151087
-2.08733e-05
0.00364261
-4.02319e-05
0.00506596
-5.87519e-05
0.00587162
-6.96462e-05
0.00617414
-6.60416e-05
0.00608633
-4.17439e-05
0.00570798
8.26399e-06
0.00512277
8.77063e-05
0.0043992
0.000198793
0.00359255
0.000342336
0.00274724
0.000517828
0.00189887
0.000723593
0.00107559
0.000957019
0.000299089
0.00121481
-0.000414662
0.00149324
-0.00105475
0.00178834
-0.00161479
0.00209617
-0.00209235
0.00241303
-0.00248827
0.00273548
-0.00280593
0.00306054
-0.00305069
0.0033857
-0.00322921
0.00370891
-0.00334887
0.00402857
-0.00341727
0.00434349
-0.00344194
0.00465286
-0.00343002
0.00495619
-0.0033881
0.00525321
-0.00332209
0.00554387
-0.00323717
0.00582824
-0.00313782
0.00610653
-0.00302781
0.00637897
-0.00291027
0.00664587
-0.00278777
0.00690753
-0.00266237
0.00716428
-0.00253572
0.0074164
-0.0024091
0.00766418
-0.0022835
0.00790781
-0.0021599
0.00814744
-0.00203753
-0.00191174
0.00838312
-2.59321e-06
0.00151346
-8.91475e-06
0.00364893
-1.70407e-05
0.00507409
-2.25002e-05
0.00587707
-1.93703e-05
0.00617101
-1.39327e-06
0.00606835
3.71759e-05
0.00566941
0.000101061
0.00505888
0.000193789
0.00430648
0.000317432
0.00346891
0.000472676
0.002592
0.000658892
0.00171266
0.000874303
0.000860181
0.00111621
5.71774e-05
0.00138124
-0.000679682
0.00166556
-0.00133907
0.00196522
-0.00191445
0.00227632
-0.00240344
0.00259514
-0.00280709
0.00291838
-0.00312918
0.00324318
-0.00337548
0.00356714
-0.00355317
0.00388836
-0.00367009
0.00420539
-0.0037343
0.0045172
-0.00375374
0.00482311
-0.00373594
0.00512276
-0.00368775
0.00541599
-0.00361532
0.00570286
-0.00352404
0.00598353
-0.00341849
0.00625825
-0.00330254
0.00652734
-0.00317936
0.00679112
-0.00305156
0.00704996
-0.00292121
0.00730418
-0.00278995
0.0075541
-0.00265901
0.00779998
-0.00252939
0.00804207
-0.00240198
0.00828051
-0.00227598
-0.00214662
0.00851539
9.59864e-07
0.0015125
2.68097e-06
0.00364721
5.6869e-06
0.00507108
1.33398e-05
0.00586942
3.06795e-05
0.00615367
6.32984e-05
0.00603573
0.000116508
0.0056162
0.000194736
0.00498066
0.000301243
0.00419997
0.000437937
0.00333221
0.000605342
0.00242459
0.000802677
0.00151532
0.00102803
0.000634823
0.0012786
-0.000193386
0.00155089
-0.000951974
0.00184105
-0.00162923
0.00214509
-0.0022185
0.00245914
-0.00271749
0.00277956
-0.00312752
0.00310316
-0.00345277
0.00342721
-0.00369953
0.00374947
-0.00387543
0.00406819
-0.00398881
0.0043821
-0.0040482
0.00469031
-0.00406196
0.00499232
-0.00403794
0.00528788
-0.0039833
0.00557696
-0.0039044
0.0058597
-0.00380679
0.00613637
-0.00369516
0.00640727
-0.00357344
0.00667278
-0.00344486
0.00693326
-0.00331204
0.00718911
-0.00317705
0.00744066
-0.0030415
0.00768825
-0.0029066
0.00793216
-0.0027733
0.00817263
-0.00264245
0.00840984
-0.00251319
-0.00238068
0.0086439
4.3224e-06
0.00150818
1.38594e-05
0.00363767
2.78443e-05
0.00505709
4.856e-05
0.0058487
8.02147e-05
0.00612201
0.000127744
0.0059882
0.000195965
0.00554798
0.000288959
0.00488766
0.000409717
0.00407921
0.000559928
0.003182
0.000739902
0.00224462
0.000948679
0.00130654
0.0011842
0.000399298
0.00144353
-0.000452709
0.00172307
-0.00123151
0.00201891
-0.00192508
0.00232708
-0.00252667
0.00264373
-0.00303414
0.00296534
-0.00344913
0.00328883
-0.00377627
0.00361164
-0.00402233
0.00393169
-0.00419548
0.00424742
-0.00430454
0.00455772
-0.00435851
0.0048619
-0.00436614
0.00515958
-0.00433563
0.00545067
-0.00427439
0.00573525
-0.00418899
0.00601358
-0.00408511
0.00628597
-0.00396755
0.00655283
-0.0038403
0.00681456
-0.00370659
0.00707157
-0.00356906
0.00732427
-0.00342975
0.00757303
-0.00329026
0.00781818
-0.00315175
0.00806003
-0.00301514
0.0082988
-0.00288123
0.00853471
-0.0027491
-0.00261387
0.0087679
7.47629e-06
0.0015007
2.45634e-05
0.00362058
4.93113e-05
0.00503235
8.30124e-05
0.005815
0.000129038
0.00607599
0.000191652
0.00592559
0.000275179
0.00546445
0.000383316
0.00477952
0.000518728
0.0039438
0.000682832
0.0030179
0.000875708
0.00205174
0.00109619
0.00108606
0.00134203
0.000153451
0.00161015
-0.000720823
0.00189685
-0.00151822
0.00219819
-0.00222642
0.0025102
-0.00283867
0.00282909
-0.00335303
0.00315145
-0.00377149
0.00347437
-0.00409918
0.00379545
-0.00434341
0.0041128
-0.00451283
0.00442506
-0.0046168
0.00473131
-0.00466476
0.00503103
-0.00466586
0.00532401
-0.00462861
0.00561029
-0.00456066
0.00589008
-0.00446878
0.00616372
-0.00435876
0.00643162
-0.00423546
0.00669423
-0.0041029
0.006952
-0.00396437
0.0072054
-0.00382245
0.00745483
-0.00367918
0.00770068
-0.00353611
0.0079433
-0.00339437
0.00818299
-0.00325483
0.00841999
-0.00311823
0.00865452
-0.00298363
-0.0028461
0.00888675
1.04034e-05
0.0014903
3.47434e-05
0.00359624
7.00064e-05
0.00499708
0.000116539
0.00576847
0.000176914
0.00601561
0.000254739
0.00584776
0.000353799
0.00536539
0.000477369
0.00465595
0.000627758
0.00379341
0.00080607
0.00283958
0.00101211
0.0018457
0.00124448
0.000853693
0.00150073
-0.000102803
0.00177762
-0.000997705
0.00207135
-0.00181196
0.00237796
-0.00253302
0.00269348
-0.00315419
0.00301422
-0.00367377
0.00333691
-0.00409418
0.00365879
-0.00442107
0.00397766
-0.00466228
0.00429185
-0.00482702
0.00460019
-0.00492514
0.00490198
-0.00496654
0.00519686
-0.00496075
0.0054848
-0.00491655
0.00576597
-0.00484183
0.0060407
-0.00474352
0.00630944
-0.00462749
0.00657265
-0.00449867
0.00683085
-0.0043611
0.00708453
-0.00421805
0.00733417
-0.00407209
0.00758022
-0.00392523
0.00782307
-0.00377895
0.00806306
-0.00363436
0.00830051
-0.00349228
0.00853566
-0.00335338
0.00876873
-0.0032167
-0.0030773
0.00899993
1.31077e-05
0.00147719
4.43675e-05
0.00356498
8.98396e-05
0.00495161
0.000149001
0.00570931
0.000223646
0.00594097
0.000316728
0.00575468
0.000431473
0.00525064
0.000570697
0.00451673
0.000736312
0.00362779
0.000929067
0.00264683
0.00114846
0.00162631
0.00139284
0.000609317
0.00165953
-0.000369489
0.0019451
-0.00128328
0.0022457
-0.00211255
0.0025573
-0.00284462
0.00287599
-0.00347288
0.00319818
-0.00399596
0.00352076
-0.00441676
0.00384116
-0.00474147
0.00415736
-0.00497849
0.00446794
-0.0051376
0.00477195
-0.00522915
0.00506889
-0.00526348
0.0053586
-0.00525046
0.0056412
-0.00519915
0.00591701
-0.00511764
0.00618648
-0.00501299
0.00645012
-0.00489113
0.00670849
-0.00475704
0.00696214
-0.00461475
0.00721162
-0.00446752
0.00745741
-0.00431789
0.00769999
-0.0041678
0.00793973
-0.0040187
0.00817702
-0.00387165
0.00841214
-0.0037274
0.00864535
-0.00358659
0.00887686
-0.00344821
-0.00330738
0.00910694
1.55898e-05
0.0014616
5.34119e-05
0.00352716
0.000108744
0.00489628
0.000180273
0.00563778
0.00026905
0.00585219
0.000377366
0.00564637
0.000507875
0.00512013
0.000662899
0.0043617
0.000843912
0.00344678
0.00105127
0.00243947
0.00128415
0.00139343
0.00154059
0.000352881
0.00181767
-0.000646576
0.00211182
-0.00157743
0.00241906
-0.00241979
0.00273535
-0.00316092
0.00305685
-0.00379438
0.00338009
-0.00431919
0.00370212
-0.00473879
0.00402057
-0.00505992
0.00433368
-0.0052916
0.00464024
-0.00544416
0.00493954
-0.00552845
0.00523129
-0.00555523
0.00551553
-0.0055347
0.00579255
-0.00547616
0.00606279
-0.00538789
0.00632681
-0.00527701
0.00658522
-0.00514954
0.00683863
-0.00501045
0.00708764
-0.00486376
0.00733282
-0.00471271
0.00757469
-0.00455976
0.00781372
-0.00440682
0.0080503
-0.00425528
0.00828479
-0.00410614
0.0085175
-0.00396011
0.00874867
-0.00381777
0.00897854
-0.00367808
-0.00353623
0.00920739
1.78498e-05
0.00144375
6.18576e-05
0.00348315
0.000126668
0.00483147
0.000210257
0.00555419
0.000312963
0.00574948
0.000436426
0.0055229
0.000582709
0.00497385
0.000753604
0.00419081
0.000950113
0.00325027
0.00117218
0.0022174
0.00141859
0.00114701
0.00168708
8.43926e-05
0.00197448
-0.000933971
0.00227701
-0.00187996
0.00259063
-0.00273341
0.00291129
-0.00348158
0.00323522
-0.0041183
0.00355908
-0.00464305
0.00388012
-0.00505983
0.0041962
-0.005376
0.00450579
-0.0056012
0.00480795
-0.00574631
0.0051022
-0.0058227
0.00538848
-0.00584151
0.005667
-0.00581322
0.00593822
-0.00574738
0.00620274
-0.0056524
0.00646119
-0.00553547
0.00671426
-0.00540262
0.00696263
-0.00525882
0.00720694
-0.00510807
0.00744778
-0.00495354
0.00768567
-0.00479766
0.00792109
-0.00464224
0.00815443
-0.00448863
0.00838606
-0.00433777
0.00861627
-0.00419032
0.00884532
-0.00404681
0.00907342
-0.00390619
-0.00376372
0.00930091
1.98948e-05
0.00142385
6.97e-05
0.00343335
0.000143575
0.00475759
0.00023887
0.0054589
0.000355255
0.0056331
0.000493718
0.00538444
0.000655714
0.00481185
0.000842482
0.00400404
0.00105452
0.00303823
0.00129131
0.00198061
0.00155125
0.00088707
0.00183172
-0.000196073
0.00212928
-0.00123153
0.00243998
-0.00219066
0.00275968
-0.00305311
0.00308435
-0.00380625
0.00341029
-0.00444425
0.00373434
-0.00496711
0.00405396
-0.00537944
0.00436724
-0.00568929
0.00467293
-0.00590689
0.00497034
-0.00604372
0.00525924
-0.0061116
0.00553979
-0.00612205
0.0058124
-0.00608583
0.00607768
-0.00601267
0.00633634
-0.00591106
0.00658914
-0.00578827
0.00683683
-0.0056503
0.00708012
-0.00550211
0.0073197
-0.00534765
0.00755617
-0.00519001
0.00779006
-0.00503155
0.00802184
-0.00487402
0.0082519
-0.00471869
0.00848061
-0.00456647
0.00870824
-0.00441795
0.00893504
-0.00427362
0.00916126
-0.00413241
-0.00398971
0.00938726
2.1732e-05
0.00140212
7.69388e-05
0.00337814
0.000159446
0.00467508
0.000266064
0.00535228
0.000395827
0.00550333
0.000549084
0.00523118
0.000726675
0.00463426
0.000929254
0.00380146
0.00115678
0.0028107
0.00140826
0.00172913
0.00168165
0.00061368
0.00197396
-0.000488381
0.00228148
-0.00153904
0.00260006
-0.00250925
0.0029255
-0.00337855
0.00325378
-0.00413452
0.00358132
-0.00477178
0.00390512
-0.00529091
0.00422288
-0.0056972
0.00453297
-0.00599937
0.00483439
-0.00620832
0.00512674
-0.00633607
0.00541003
-0.00639489
0.00568464
-0.00639666
0.00595119
-0.00635237
0.00621042
-0.0062719
0.00646317
-0.00616382
0.00671028
-0.00603538
0.00695257
-0.00589259
0.0071908
-0.00574034
0.00742566
-0.00558251
0.00765777
-0.00542212
0.00788765
-0.00526143
0.00811578
-0.00510214
0.00834253
-0.00494545
0.00856825
-0.00479219
0.00879322
-0.00464292
0.00901769
-0.00449808
0.0092419
-0.00435661
-0.00421405
0.00946623
2.33696e-05
0.00137875
8.35863e-05
0.00331792
0.000174281
0.00458439
0.00029181
0.00523475
0.000434614
0.00536053
0.000602413
0.00506338
0.00079542
0.00444126
0.00101369
0.00358319
0.00125661
0.00256778
0.00152267
0.00146307
0.00180936
0.000326985
0.00211332
-0.000792333
0.00243052
-0.00185625
0.00275666
-0.00283539
0.00308746
-0.00370935
0.00341892
-0.00446599
0.0037476
-0.00510046
0.00407071
-0.00561402
0.00438619
-0.00601268
0.00469269
-0.00630587
0.00498951
-0.00650514
0.00527652
-0.00662308
0.00555399
-0.00667236
0.00582251
-0.00666518
0.00608289
-0.00661275
0.00633602
-0.00652504
0.00658285
-0.00641065
0.00682429
-0.00627682
0.00706121
-0.00612952
0.00729442
-0.00597355
0.00752461
-0.0058127
0.00775239
-0.00564991
0.0079783
-0.00548734
0.00820278
-0.00532662
0.00842621
-0.00516888
0.00864891
-0.00501489
0.00887115
-0.00486516
0.00909318
-0.00472011
0.00931524
-0.00457867
-0.00443657
0.00953776
2.48169e-05
0.00135393
8.96615e-05
0.00325308
0.000188099
0.00448595
0.000316109
0.00510674
0.000471585
0.00520505
0.000653632
0.00488134
0.000861829
0.00423306
0.0010956
0.00334942
0.00135376
0.00230962
0.00163423
0.0011826
0.00193402
2.71953e-05
0.00224935
-0.00110766
0.00257591
-0.00218281
0.00290923
-0.0031687
0.00324494
-0.00404506
0.00357913
-0.00480018
0.00390849
-0.00542982
0.00423045
-0.00593598
0.00454322
-0.00632546
0.00484577
-0.00660842
0.00513769
-0.00679707
0.00541913
-0.00690451
0.00569061
-0.00694384
0.00595294
-0.00692752
0.0062071
-0.00686691
0.00645413
-0.00677207
0.00669506
-0.00665158
0.00693089
-0.00651265
0.00716253
-0.00636115
0.00739079
-0.00620181
0.00761639
-0.0060383
0.00783992
-0.00587345
0.00806192
-0.00570933
0.00828279
-0.00554749
0.0085029
-0.00538899
0.00872256
-0.00523455
0.00894201
-0.00508462
0.00916151
-0.0049396
0.00938129
-0.00479845
-0.00465711
0.00960183
2.60851e-05
0.00132785
9.51915e-05
0.00318397
0.000200932
0.00438021
0.000338987
0.00496868
0.000506746
0.00503729
0.000702713
0.00468537
0.00092583
0.00400994
0.00117488
0.00310037
0.00144805
0.00203645
0.00174269
0.000887964
0.0020553
-0.000285413
0.00238167
-0.00143404
0.00271722
-0.00251835
0.00305726
-0.00350875
0.00339742
-0.00438522
0.00373384
-0.0051366
0.00406338
-0.00575936
0.00438373
-0.00625633
0.0046934
-0.00663512
0.00499165
-0.00690667
0.0052784
-0.00708382
0.00555407
-0.00718018
0.00581944
-0.00720921
0.00607552
-0.0071836
0.00632347
-0.00711486
0.00656443
-0.00701303
0.00679955
-0.0068867
0.00702987
-0.00674297
0.00725634
-0.00658762
0.00747978
-0.00642525
0.00770091
-0.00625943
0.0079203
-0.00609284
0.00813846
-0.00592749
0.00835579
-0.00576482
0.00857262
-0.00560582
0.00878924
-0.00545116
0.00900587
-0.00530125
0.00922276
-0.00515648
0.00944015
-0.00501585
-0.00487551
0.00965855
2.71872e-05
0.00130066
0.000100211
0.00311095
0.00021283
0.00426759
0.000360494
0.00482102
0.000540135
0.00485765
0.000749671
0.00447583
0.000987402
0.00377221
0.00125145
0.00283632
0.00153936
0.00174855
0.00184786
0.000579454
0.00217295
-0.000610494
0.00250997
-0.00177107
0.00285403
-0.00286241
0.00320031
-0.00385502
0.00354439
-0.0047293
0.00388251
-0.00547471
0.00421173
-0.00608858
0.00453001
-0.00657461
0.00483618
-0.00694129
0.00512983
-0.00720032
0.00541117
-0.00736517
0.00568092
-0.00744992
0.00594009
-0.00746838
0.00618992
-0.00743343
0.0064317
-0.00735663
0.00666669
-0.00724803
0.00689612
-0.00711613
0.00712108
-0.00696793
0.00734254
-0.00680908
0.00756132
-0.00664404
0.00777812
-0.00647623
0.00799352
-0.00630823
0.00820796
-0.00614194
0.00842184
-0.0059787
0.00863545
-0.00581944
0.00884905
-0.00566476
0.00906286
-0.00551506
0.00927709
-0.00537071
0.00949201
-0.00523076
-0.00509164
0.00970814
2.81383e-05
0.00127252
0.000104761
0.00303432
0.000223857
0.00414849
0.000380707
0.00466417
0.000571824
0.00466653
0.000794559
0.0042531
0.00104657
0.0035202
0.00132529
0.0025576
0.0016276
0.00144624
0.00194962
0.000257438
0.00228676
-0.000947634
0.00263396
-0.00211827
0.00298603
-0.00321448
0.00333798
-0.00420698
0.00368541
-0.00507673
0.00402467
-0.00581398
0.00435306
-0.00641697
0.00466882
-0.00689038
0.00497111
-0.00724359
0.00525986
-0.00748907
0.00553559
-0.0076409
0.0057993
-0.00771363
0.00605226
-0.00772134
0.00629587
-0.00767704
0.00653156
-0.00759233
0.00676073
-0.0074772
0.00698464
-0.00734004
0.00720442
-0.00718771
0.00742106
-0.00702572
0.00763538
-0.00685835
0.00784804
-0.0066889
0.0080596
-0.00651979
0.00827048
-0.00635282
0.00848103
-0.00618925
0.00869152
-0.00602993
0.00890217
-0.00587541
0.00911318
-0.00572607
0.00932474
-0.00558227
0.00953712
-0.00544315
-0.00530542
0.0097509
2.89552e-05
0.00124357
0.000108891
0.00295439
0.00023409
0.00402329
0.00039972
0.00449854
0.000601914
0.00446434
0.00083747
0.00401754
0.00110339
0.00325428
0.00139643
0.00226456
0.00171276
0.00112991
0.00204785
-7.76584e-05
0.00239657
-0.00129635
0.00275342
-0.00247511
0.0031129
-0.00357396
0.00346992
-0.004564
0.00382008
-0.00542689
0.0041599
-0.0061538
0.00448692
-0.00674399
0.00479971
-0.00720317
0.00509777
-0.00754164
0.00538135
-0.00777265
0.00565132
-0.00791087
0.00590893
-0.00797124
0.00615568
-0.00796808
0.00639315
-0.0079145
0.0066229
-0.00782208
0.00684641
-0.00770071
0.007065
-0.00755863
0.00727983
-0.00740254
0.00749188
-0.00723777
0.00770195
-0.00706842
0.00791069
-0.00689764
0.00811861
-0.00672771
0.00832611
-0.00656032
0.0085335
-0.00639663
0.00874099
-0.00623742
0.00894879
-0.00608321
0.00915706
-0.00593434
0.009366
-0.00579121
0.00957585
-0.005653
-0.00551679
0.00978722
2.96566e-05
0.00121391
0.000112653
0.00287139
0.000243616
0.00389233
0.000417648
0.00432451
0.000630531
0.00425146
0.000878524
0.00376955
0.00115797
0.00297483
0.00146492
0.00195761
0.00179483
0.000799997
0.00214252
-0.000425345
0.00250227
-0.0016561
0.00286814
-0.00284099
0.00323439
-0.00394021
0.00359582
-0.00492543
0.00394806
-0.00577914
0.00428783
-0.00649357
0.00461295
-0.00706911
0.00492233
-0.00751254
0.00521581
-0.00783512
0.00549401
-0.00805085
0.00575808
-0.00817495
0.00600956
-0.00822272
0.00625015
-0.00820867
0.0064816
-0.00814595
0.00670559
-0.00804607
0.00692366
-0.00791879
0.00713718
-0.00777215
0.00734731
-0.00761268
0.00755502
-0.00744548
0.0077611
-0.0072745
0.00796616
-0.00710269
0.00817067
-0.00693222
0.008375
-0.00676464
0.0085794
-0.00660103
0.00878407
-0.00644209
0.00898916
-0.0062883
0.00919481
-0.00614
0.0094012
-0.00599759
0.00960857
-0.00586037
-0.00572579
0.00981757
3.02629e-05
0.00118365
0.000116105
0.00278555
0.000252532
0.0037559
0.000434617
0.00414242
0.000657819
0.00402825
0.000917865
0.0035095
0.00121044
0.00268226
0.00153086
0.00163718
0.00187387
0.000456989
0.0022336
-0.000785067
0.00260375
-0.00202625
0.00297798
-0.00321522
0.00335029
-0.00431252
0.0037154
-0.00529053
0.00406904
-0.00613278
0.00440813
-0.00683266
0.00473082
-0.00739179
0.00503635
-0.00781807
0.00532495
-0.00812372
0.00559756
-0.00832346
0.00585565
-0.00843305
0.00610101
-0.00846808
0.00633555
-0.0084432
0.00656114
-0.00837155
0.00677958
-0.00826451
0.00699245
-0.00813166
0.00720116
-0.00798086
0.00740687
-0.00781838
0.00761053
-0.00764914
0.00781289
-0.00747686
0.00801453
-0.00730434
0.00821588
-0.00713358
0.00841727
-0.00696603
0.00861891
-0.00680267
0.00882095
-0.00664413
0.00902352
-0.00649087
0.00922672
-0.0063432
0.0094307
-0.00620157
0.00963571
-0.00606538
-0.0059325
0.00984243
3.0796e-05
0.00115285
0.000119306
0.00269704
0.000260938
0.00361427
0.000450766
0.00395259
0.000683939
0.00379508
0.000955657
0.00323779
0.00126094
0.00237697
0.00159437
0.00130375
0.00194993
0.000101425
0.00232108
-0.00115621
0.00270095
-0.00240612
0.0030828
-0.00359706
0.00346039
-0.00469012
0.00382842
-0.00565856
0.00418274
-0.0064871
0.00452052
-0.00717045
0.00484024
-0.00771151
0.00514152
-0.00811935
0.00542494
-0.00840714
0.00569181
-0.00859032
0.00594388
-0.00868512
0.00618317
-0.00870738
0.00641178
-0.00867181
0.00663171
-0.00859148
0.00684483
-0.00847763
0.00705279
-0.00833962
0.00725698
-0.00818505
0.00745857
-0.00801997
0.00765847
-0.00784904
0.0078574
-0.0076758
0.00805591
-0.00750284
0.00825439
-0.00733206
0.0084531
-0.00716474
0.00865222
-0.00700179
0.00885187
-0.00684379
0.00905213
-0.00669113
0.00925308
-0.00654415
0.00945485
-0.00640333
0.00965769
-0.00626821
-0.00613711
0.0098623
3.1279e-05
0.00112157
0.000122318
0.002606
0.000268941
0.00346764
0.000466237
0.0037553
0.000709057
0.00355226
0.000992072
0.00295477
0.00130963
0.00205941
0.00165556
0.000957824
0.00202309
-0.000266108
0.00240498
-0.0015381
0.00279382
-0.00279496
0.00318247
-0.00398572
0.00356453
-0.00507218
0.00393468
-0.00602871
0.00428893
-0.00684136
0.00462476
-0.00750628
0.00494099
-0.00802774
0.00523763
-0.00841599
0.00551563
-0.00868514
0.00577662
-0.00885132
0.00602265
-0.00893115
0.00625596
-0.00894069
0.00647881
-0.00889465
0.0066933
-0.00880598
0.00690139
-0.00868572
0.00710472
-0.00854295
0.00730471
-0.00838504
0.00750248
-0.00821775
0.00769894
-0.0080455
0.00789476
-0.00787162
0.00809043
-0.00769852
0.00828631
-0.00752793
0.00848262
-0.00736105
0.00867949
-0.00719866
0.00887701
-0.0070413
0.00907522
-0.00688934
0.00927417
-0.0067431
0.00947398
-0.00660314
0.00967488
-0.00646912
-0.00633986
0.00987763
3.17344e-05
0.00108984
0.000125202
0.00251253
0.000276648
0.0033162
0.000481177
0.00355077
0.000733341
0.0033001
0.00102729
0.00266083
0.00135667
0.00173003
0.00171456
0.000599932
0.00209342
-0.000644968
0.00248532
-0.00192999
0.00288231
-0.00319194
0.0032769
-0.00438031
0.00366255
-0.00545782
0.00403398
-0.00640014
0.00438743
-0.0071948
0.00472066
-0.00783951
0.00503289
-0.00833997
0.00532452
-0.00870762
0.00559687
-0.00895749
0.0058519
-0.00910635
0.00609192
-0.00917117
0.00631937
-0.00916814
0.00653665
-0.00911192
0.00674596
-0.0090153
0.00694929
-0.00888904
0.00714831
-0.00874198
0.00734442
-0.00858114
0.00753871
-0.00841204
0.00773205
-0.00823884
0.00792506
-0.00806463
0.00811821
-0.00789166
0.00831178
-0.00772151
0.00850598
-0.00755524
0.00870088
-0.00739357
0.00889655
-0.00723697
0.00909298
-0.00708578
0.00929022
-0.00694034
0.00948835
-0.00680126
0.00968761
-0.00666838
-0.00654105
0.00988881
3.21836e-05
0.00105765
0.000128019
0.0024167
0.000284162
0.00316005
0.000495725
0.00333921
0.000756959
0.00303886
0.00106147
0.00235632
0.00140222
0.00138927
0.0017715
0.000230652
0.002161
-0.00103447
0.00256211
-0.0023311
0.00296637
-0.0035962
0.00336599
-0.00477994
0.00375432
-0.00584615
0.00412618
-0.006772
0.00447805
-0.00754668
0.00480806
-0.00816953
0.00511581
-0.00864772
0.0054021
-0.0089939
0.00566861
-0.00922401
0.00591763
-0.00935536
0.00615169
-0.00940524
0.00637343
-0.00938988
0.00658535
-0.00932385
0.00678976
-0.0092197
0.00698863
-0.00908792
0.00718366
-0.00893701
0.00737621
-0.00877369
0.00756735
-0.00860318
0.00775789
-0.00842938
0.00794842
-0.00825516
0.00813934
-0.00808259
0.00833092
-0.00791309
0.00852329
-0.00774762
0.00871652
-0.0075868
0.00891062
-0.00743106
0.00910557
-0.00728073
0.00930139
-0.00713616
0.00949815
-0.00699802
0.00969611
-0.00686634
-0.00674103
0.00989608
3.26458e-05
0.00102501
0.000130828
0.00231851
0.000291583
0.0029993
0.000510016
0.00312077
0.000780064
0.00276881
0.00109479
0.00204159
0.00144643
0.00103763
0.00182649
-0.000149406
0.00222588
-0.00143386
0.00263535
-0.00274057
0.00304596
-0.00400681
0.00344964
-0.00518362
0.00383971
-0.00623621
0.00421112
-0.00714341
0.00456067
-0.00789622
0.00488684
-0.0084957
0.00518965
-0.00895052
0.00547029
-0.00927455
0.00573082
-0.00948454
0.00597379
-0.00959833
0.00620199
-0.00963343
0.00641819
-0.00960608
0.00662501
-0.00953067
0.00682478
-0.00941948
0.00701952
-0.00928266
0.00721088
-0.00912837
0.0074002
-0.00896302
0.00758851
-0.00879149
0.00777658
-0.00861744
0.00796493
-0.00844352
0.00815394
-0.00827159
0.00834381
-0.00810296
0.00853465
-0.00793846
0.00872649
-0.00777864
0.00891931
-0.00762388
0.00911308
-0.0074745
0.00930778
-0.00733086
0.00950349
-0.00719373
0.00970047
-0.00706332
-0.00694016
0.00989959
3.31386e-05
0.00099187
0.00013368
0.00221797
0.000299
0.00283398
0.000524172
0.0028956
0.000802801
0.00249018
0.00112738
0.00171702
0.00148941
0.0006756
0.0018796
-0.000539594
0.00228811
-0.00184237
0.00270504
-0.0031575
0.00312101
-0.00442279
0.00352777
-0.00559038
0.00391861
-0.00662705
0.00428871
-0.00751351
0.00463518
-0.00824269
0.00495692
-0.00881744
0.00525435
-0.00924796
0.00552909
-0.00954929
0.00578352
-0.00973896
0.00602046
-0.00983527
0.0062429
-0.00985588
0.00645376
-0.00981694
0.00665572
-0.00973263
0.00685115
-0.00961491
0.00704206
-0.00947357
0.00723008
-0.00931639
0.00741651
-0.00914944
0.00760231
-0.0089773
0.00778821
-0.00880334
0.0079747
-0.00863
0.00816208
-0.00845898
0.00835053
-0.00829141
0.00854012
-0.00812805
0.00873085
-0.00796937
0.00892267
-0.0078157
0.00911553
-0.00766735
0.0093094
-0.00752473
0.00950436
-0.00738869
0.0097007
-0.00725965
-0.00713879
0.00989933
3.3678e-05
0.000958191
0.000136624
0.00211503
0.000306495
0.00266411
0.000538304
0.00266379
0.000825296
0.00220319
0.00115936
0.00138295
0.00153127
0.000303695
0.00193091
-0.000939233
0.0023477
-0.00225916
0.00277114
-0.00358094
0.00319147
-0.00484312
0.00360026
-0.00599917
0.00399091
-0.00701769
0.00435882
-0.00788143
0.00470149
-0.00858536
0.00501823
-0.00913418
0.00530991
-0.00953965
0.00557852
-0.00981789
0.00582675
-0.0099872
0.0060577
-0.0100662
0.00627453
-0.0100727
0.00648026
-0.0100227
0.00667763
-0.00993
0.00686902
-0.0098063
0.00705641
-0.00966096
0.0072414
-0.00950138
0.00742524
-0.00933328
0.00760885
-0.0091609
0.00779288
-0.00898738
0.00797779
-0.00881491
0.00816383
-0.00864502
0.00835114
-0.00847872
0.00853975
-0.00831666
0.00872962
-0.00815925
0.0089207
-0.00800678
0.00911291
-0.00785956
0.00930621
-0.00771803
0.0095007
-0.00758318
0.00969668
-0.00745562
-0.00733724
0.00989513
3.42782e-05
0.000923912
0.0001397
0.0020096
0.000314139
0.00248967
0.000552507
0.00242542
0.000847652
0.00190805
0.00119084
0.00103976
0.00157208
-7.75392e-05
0.00198045
-0.0013476
0.00240465
-0.00268336
0.00283361
-0.00400991
0.00325725
-0.00526675
0.00366704
-0.00640896
0.00405651
-0.00740716
0.00442139
-0.00824631
0.00475955
-0.00892352
0.00507078
-0.00944541
0.00535635
-0.00982522
0.00561862
-0.0100802
0.00586062
-0.0102292
0.00608565
-0.0102913
0.00629702
-0.0102841
0.00649784
-0.0102235
0.00669088
-0.010123
0.00687852
-0.00999394
0.00706269
-0.00984514
0.00724496
-0.00968366
0.00742652
-0.00951483
0.00760822
-0.00934261
0.00779068
-0.00916984
0.00797428
-0.00899851
0.00815924
-0.00882998
0.00834566
-0.00866514
0.00853353
-0.00850453
0.0087228
-0.00834851
0.00891337
-0.00819735
0.00910515
-0.00805134
0.00929811
-0.00791099
0.00949234
-0.00777741
0.0096882
-0.00765148
-0.00753578
0.00988674
3.49512e-05
0.000888961
0.000142941
0.00190161
0.000321989
0.00231062
0.000566857
0.00218055
0.000869951
0.00160495
0.00122188
0.00068783
0.00161188
-0.000467532
0.00202823
-0.00176395
0.00245892
-0.00311405
0.00289239
-0.00444337
0.00331825
-0.00569262
0.003728
-0.0068187
0.00411533
-0.0077945
0.00447634
-0.00860732
0.00480934
-0.00925652
0.00511456
-0.00975063
0.00539371
-0.0101044
0.00564951
-0.010336
0.00588525
-0.0104649
0.00610445
-0.0105105
0.00631053
-0.0104902
0.00650667
-0.0104196
0.00669565
-0.010312
0.00687981
-0.0101781
0.00706106
-0.0100264
0.00724089
-0.00986349
0.00742044
-0.00969437
0.00760051
-0.00952267
0.00778165
-0.00935098
0.0079642
-0.00918106
0.00814833
-0.00901412
0.0083341
-0.00885091
0.00852147
-0.0086919
0.00871035
-0.00853739
0.00890061
-0.00838762
0.00909216
-0.00824288
0.00928495
-0.00810378
0.00947909
-0.00797156
0.00967499
-0.00784738
-0.00773458
0.0098738
3.57059e-05
0.000853255
0.000146373
0.00179095
0.000330093
0.0021269
0.00058141
0.00192924
0.000892246
0.00129412
0.00125253
0.000327549
0.00165068
-0.000865687
0.00207422
-0.00218749
0.00251045
-0.00355029
0.00294737
-0.00488029
0.00337438
-0.00611963
0.00378303
-0.00722735
0.00416729
-0.00817876
0.00452363
-0.00896366
0.00485085
-0.00958373
0.00514962
-0.0100494
0.00542207
-0.0103768
0.00567128
-0.0105852
0.00590078
-0.0106945
0.00611426
-0.0107239
0.00631524
-0.0106911
0.00650693
-0.0106113
0.0066921
-0.0104972
0.00687305
-0.0103591
0.00705165
-0.010205
0.00722931
-0.0100412
0.00740711
-0.00987217
0.00758579
-0.00970136
0.00776585
-0.00953104
0.00794758
-0.00936279
0.00813111
-0.00919765
0.00831645
-0.00903625
0.00850353
-0.00887898
0.00869222
-0.00872608
0.00888237
-0.00857777
0.00907384
-0.00843435
0.00926659
-0.00829652
0.00946073
-0.0081657
0.00965676
-0.00804341
-0.00793374
0.00985591
3.65483e-05
0.000816706
0.000150017
0.00167748
0.000338481
0.00193843
0.000596202
0.00167152
0.000914565
0.000975754
0.00128278
-4.06635e-05
0.00168847
-0.00127137
0.00211836
-0.00261738
0.00255916
-0.00399109
0.00299845
-0.00531957
0.00342553
-0.00654671
0.00383205
-0.00763387
0.00421231
-0.00855902
0.00456324
-0.00931459
0.00488409
-0.00990458
0.00517602
-0.0103413
0.00544156
-0.0106424
0.0056841
-0.0108277
0.0059074
-0.0109178
0.00611528
-0.0109318
0.00631135
-0.0108872
0.00649881
-0.0107988
0.00668041
-0.0106788
0.00685841
-0.010537
0.00703458
-0.0103812
0.00721031
-0.0102169
0.00738659
-0.0100484
0.00756411