/*--------------------------------*- C++ -*----------------------------------*\
  =========                 |
  \\      /  F ield         | OpenFOAM: The Open Source CFD Toolbox
   \\    /   O peration     | Website:  https://openfoam.org
    \\  /    A nd           | Version:  7
     \\/     M anipulation  |
\*---------------------------------------------------------------------------*/
FoamFile
{
    version     2.0;
    format      ascii;
    class       volVectorField;
    location    "1.5";
    object      U;
}
// * * * * * * * * * * * * * * * * * * * * * * * * * * * * * * * * * * * * * //

dimensions      [0 1 -1 0 0 0 0];

internalField   nonuniform List<vector> 
32000
(
(-0.00117532 0.0594858 -1.66208e-21)
(-0.00416601 0.143581 0)
(-0.00825889 0.199806 -1.48184e-20)
(-0.0122461 0.231968 0)
(-0.0155572 0.244749 1.54494e-20)
(-0.0176252 0.242655 0)
(-0.0180354 0.229599 1.59772e-20)
(-0.0165196 0.208807 -1.21445e-20)
(-0.0129566 0.182881 4.6132e-24)
(-0.00735304 0.153881 5.57099e-24)
(0.000181264 0.123441 -4.19452e-21)
(0.00946311 0.0928503 1.69152e-20)
(0.0202584 0.063116 0)
(0.0322969 0.0350097 -4.30716e-21)
(0.0452934 0.00909873 4.32497e-21)
(0.0589634 -0.0142293 0)
(0.0730331 -0.0347437 2.18508e-20)
(0.0872525 -0.0523499 -4.38771e-21)
(0.101403 -0.067066 0)
(0.115299 -0.0789996 8.84966e-21)
(0.12879 -0.088326 8.83391e-21)
(0.141763 -0.095267 0)
(0.154134 -0.100072 0)
(0.165849 -0.103002 0)
(0.176881 -0.104317 0)
(0.187222 -0.104266 0)
(0.196878 -0.10308 0)
(0.205869 -0.100971 0)
(0.214222 -0.0981239 -1.75744e-20)
(0.22197 -0.094703 0)
(0.229152 -0.090847 1.74667e-20)
(0.235804 -0.086674 0)
(0.241965 -0.0822811 0)
(0.24767 -0.0777482 0)
(0.252957 -0.0731395 -1.71878e-20)
(0.257857 -0.0685069 -8.57612e-21)
(0.262398 -0.0638935 2.55926e-20)
(0.266617 -0.0593421 -2.36917e-23)
(0.270558 -0.0548302 1.68939e-20)
(0.274074 -0.0501832 -2.72229e-23)
(-0.0022111 0.0599727 0)
(-0.00629875 0.144645 2.88309e-20)
(-0.0105956 0.201154 7.41499e-21)
(-0.0142242 0.23331 -5.96204e-24)
(-0.0167814 0.24578 -7.73714e-21)
(-0.0178439 0.243094 0)
(-0.017105 0.22921 1.58762e-20)
(-0.0143729 0.207411 -1.60993e-20)
(-0.00958484 0.180366 0)
(-0.00279079 0.150188 -3.30723e-20)
(0.00587502 0.11857 0)
(0.0162078 0.086849 -5.06207e-20)
(0.0279521 0.0560753 0)
(0.0408277 0.0270509 0)
(0.0545426 0.000365904 1.72759e-20)
(0.0688032 -0.0235782 -1.73313e-20)
(0.0833359 -0.0445474 -1.74681e-20)
(0.0978959 -0.0624513 0)
(0.112268 -0.077318 5.2651e-20)
(0.126277 -0.0892693 -1.75888e-20)
(0.139783 -0.0984978 -1.18534e-23)
(0.152686 -0.105245 -5.29144e-20)
(0.164911 -0.109781 -3.52907e-20)
(0.17642 -0.112385 -1.76972e-20)
(0.187199 -0.113332 5.29222e-20)
(0.197251 -0.112887 -5.28981e-20)
(0.206593 -0.111293 5.28778e-20)
(0.215253 -0.108772 -7.02403e-20)
(0.223268 -0.105518 -1.74403e-20)
(0.230677 -0.1017 9.37565e-23)
(0.237522 -0.0974616 -5.22128e-20)
(0.243846 -0.0929226 -3.47153e-20)
(0.24969 -0.0881824 6.91659e-20)
(0.255093 -0.0833207 -6.88301e-20)
(0.260091 -0.078402 -1.70518e-20)
(0.264718 -0.0734783 -6.82463e-20)
(0.269004 -0.0685897 4.83063e-23)
(0.272984 -0.0637769 1.68896e-20)
(0.2767 -0.0590133 -6.71717e-20)
(0.280007 -0.0541219 -9.20847e-20)
(-0.00326629 0.0602453 -6.60525e-21)
(-0.00846947 0.145224 -1.44356e-20)
(-0.0129747 0.201936 -6.62721e-20)
(-0.0162336 0.234077 0)
(-0.0180031 0.246267 7.69132e-21)
(-0.0180126 0.243043 -7.82218e-21)
(-0.0160665 0.2284 -9.53509e-20)
(-0.0120512 0.205669 3.22986e-20)
(-0.00596398 0.177572 -1.63344e-20)
(0.00209962 0.146287 9.89769e-20)
(0.0119721 0.113559 3.33502e-20)
(0.0234229 0.0807739 1.6896e-20)
(0.0361792 0.0490226 -6.772e-20)
(0.0499436 0.0191423 0)
(0.0644131 -0.00825654 0)
(0.0792921 -0.0327604 3.46176e-20)
(0.0943035 -0.05413 8.61396e-23)
(0.109204 -0.0722808 -3.48383e-20)
(0.123789 -0.0872517 -3.50633e-20)
(0.137894 -0.0991791 -7.00447e-20)
(0.15139 -0.108275 1.05378e-19)
(0.16419 -0.114801 1.08337e-22)
(0.176237 -0.119046 2.79731e-23)
(0.187506 -0.121308 3.51858e-20)
(0.197996 -0.121878 -7.05092e-20)
(0.207723 -0.121036 1.40558e-19)
(0.216717 -0.119038 0)
(0.225016 -0.116112 3.51015e-20)
(0.232663 -0.112461 3.50135e-20)
(0.239705 -0.10826 6.97825e-20)
(0.24619 -0.103655 9.34833e-23)
(0.252164 -0.0987681 0)
(0.257671 -0.0936991 3.44465e-20)
(0.262753 -0.0885287 -3.4211e-20)
(0.267448 -0.083321 -3.39638e-20)
(0.27179 -0.0781249 1.02137e-19)
(0.27581 -0.0729808 -1.01277e-19)
(0.279541 -0.0679264 6.73756e-20)
(0.283021 -0.0629311 -1.00224e-19)
(0.286108 -0.0578175 3.65333e-20)
(-0.00433348 0.0603702 5.25834e-20)
(-0.0106742 0.145526 -5.7309e-20)
(-0.0153926 0.20233 1.17621e-19)
(-0.0182685 0.234391 0)
(-0.0192215 0.246284 4.58903e-20)
(-0.0181286 0.242536 7.79154e-20)
(-0.01491 0.227167 1.60526e-20)
(-0.00954027 0.203557 1.21697e-23)
(-0.00207918 0.174473 4.87198e-20)
(0.00732902 0.142149 -1.66816e-20)
(0.0184803 0.10838 8.29613e-20)
(0.0311159 0.0746016 -1.00502e-19)
(0.0449398 0.0419466 1.01487e-19)
(0.0596382 0.0112807 -3.40769e-20)
(0.0748963 -0.0167624 3.42182e-20)
(0.090411 -0.0417581 -6.87623e-20)
(0.105906 -0.0634668 -1.03743e-19)
(0.121142 -0.0818075 3.47065e-20)
(0.135925 -0.0968307 -3.49077e-20)
(0.150102 -0.108691 1.04955e-19)
(0.163559 -0.117618 -7.0178e-20)
(0.176223 -0.123894 -7.00001e-20)
(0.188056 -0.127828 0)
(0.199047 -0.129735 0)
(0.209213 -0.129923 -7.00031e-20)
(0.218583 -0.128684 -7.01938e-20)
(0.227196 -0.126285 -6.98081e-20)
(0.235102 -0.122964 0)
(0.242354 -0.118931 0)
(0.249005 -0.114363 -1.38746e-19)
(0.255107 -0.10941 -9.96513e-23)
(0.260712 -0.104195 6.90713e-20)
(0.265865 -0.0988184 -6.86171e-20)
(0.270612 -0.0933611 -6.84133e-20)
(0.27499 -0.0878851 6.83001e-20)
(0.279036 -0.0824391 0)
(0.28278 -0.0770607 6.75432e-20)
(0.286254 -0.0717851 -1.34007e-19)
(0.28949 -0.066579 1.33503e-19)
(0.292352 -0.0612631 -1.45848e-19)
(-0.00540243 0.060305 -2.63303e-20)
(-0.0128879 0.145415 4.30064e-20)
(-0.0178274 0.202204 -5.87207e-20)
(-0.020314 0.23415 0)
(-0.0204238 0.245757 -7.65143e-20)
(-0.01819 0.241527 -4.67679e-20)
(-0.0136466 0.225493 6.33031e-20)
(-0.0068569 0.201071 0)
(0.00204905 0.171071 -9.74383e-20)
(0.0128743 0.137782 -3.29204e-20)
(0.0253738 0.103049 -3.32104e-20)
(0.0392573 0.0683542 6.69918e-20)
(0.0542025 0.0348704 -6.7357e-20)
(0.069875 0.00349371 3.38823e-20)
(0.0859478 -0.0251226 0)
(0.102113 -0.0505425 1.03117e-19)
(0.118094 -0.0725249 3.4651e-20)
(0.133656 -0.0909966 -6.93201e-20)
(0.148618 -0.106021 1.38923e-19)
(0.162841 -0.117769 -1.39282e-19)
(0.176228 -0.126492 1.39333e-19)
(0.188722 -0.132492 6.99985e-20)
(0.200304 -0.136096 0)
(0.210983 -0.137636 6.99786e-20)
(0.22079 -0.137436 2.06555e-22)
(0.229768 -0.135802 0)
(0.23797 -0.133011 6.98068e-20)
(0.245457 -0.129308 -6.95788e-20)
(0.252288 -0.124908 6.92893e-20)
(0.258524 -0.119992 1.38469e-19)
(0.264225 -0.114712 -1.37819e-19)
(0.269443 -0.109191 1.37407e-19)
(0.274228 -0.10353 0)
(0.278627 -0.0978094 0)
(0.282678 -0.0920887 1.35564e-19)
(0.286418 -0.0864158 0)
(0.289878 -0.0808261 0)
(0.293089 -0.0753519 -1.33327e-19)
(0.296077 -0.0699575 1.32756e-19)
(0.298706 -0.0644623 7.2703e-20)
(-0.00646597 0.060094 1.30824e-20)
(-0.0150994 0.144976 0)
(-0.0202638 0.201639 1.16725e-19)
(-0.0223566 0.233412 1.49444e-20)
(-0.0216048 0.244717 1.52545e-20)
(-0.0181898 0.240024 9.28672e-20)
(-0.0122666 0.223369 1.25817e-19)
(-0.00399563 0.198192 0)
(0.00642279 0.167346 3.23463e-20)
(0.0187344 0.133166 9.7856e-20)
(0.032647 0.0975478 1.31797e-19)
(0.0478345 0.0620192 -3.33199e-20)
(0.0639458 0.0277889 -1.0045e-19)
(0.0806252 -0.00421784 0)
(0.0975331 -0.0333272 1.35747e-19)
(0.114355 -0.0590951 0)
(0.130816 -0.0812818 2.05906e-19)
(0.14669 -0.0998216 -6.88842e-20)
(0.161809 -0.114792 0)
(0.176048 -0.126383 -6.94579e-20)
(0.18933 -0.134866 -2.18875e-22)
(0.201618 -0.140563 -6.92457e-20)
(0.212915 -0.143819 -6.95573e-20)
(0.223247 -0.144983 6.97047e-20)
(0.232661 -0.144395 -6.95219e-20)
(0.241217 -0.142372 0)
(0.24898 -0.139198 -6.94534e-20)
(0.256021 -0.135128 6.91881e-20)
(0.262409 -0.130379 0)
(0.268212 -0.125137 0)
(0.273494 -0.119552 0)
(0.278312 -0.11375 -1.36843e-19)
(0.282717 -0.107829 1.3612e-19)
(0.286756 -0.101869 0)
(0.290472 -0.0959284 -6.76404e-20)
(0.293899 -0.0900523 0)
(0.297068 -0.0842748 1.33736e-19)
(0.300011 -0.0786251 -6.62721e-20)
(0.302747 -0.073066 -1.32312e-19)
(0.30514 -0.067416 1.44264e-19)
(-0.00751524 0.05973 9.11131e-20)
(-0.0172901 0.144194 -1.27775e-19)
(-0.0226847 0.200614 -2.18526e-19)
(-0.0243785 0.232153 -1.18961e-19)
(-0.0227436 0.243145 -3.03911e-20)
(-0.0181145 0.238012 -6.20312e-20)
(-0.0107658 0.220779 -2.82632e-19)
(-0.000955156 0.194909 -9.53057e-20)
(0.0110376 0.16329 -1.60921e-19)
(0.0248961 0.128299 -1.63119e-19)
(0.0402788 0.0918795 -2.3026e-19)
(0.0568196 0.0556033 -1.32473e-19)
(0.0741348 0.0207137 4.8021e-22)
(0.0918467 -0.0118364 -1.34415e-19)
(0.109602 -0.0413554 -1.35744e-19)
(0.127082 -0.0673927 -2.0416e-19)
(0.144013 -0.0897109 1.36344e-19)
(0.160181 -0.108254 -6.86199e-20)
(0.175429 -0.123115 0)
(0.189653 -0.134505 1.37944e-19)
(0.202796 -0.142714 0)
(0.214844 -0.148083 2.7729e-19)
(0.225821 -0.150975 0)
(0.235772 -0.151757 -6.94294e-20)
(0.244762 -0.150781 6.96522e-20)
(0.252867 -0.148375 -1.38339e-19)
(0.260166 -0.144832 0)
(0.266739 -0.140412 -1.38045e-19)
(0.272665 -0.135336 1.37471e-19)
(0.278019 -0.129789 0)
(0.282868 -0.123924 0)
(0.287274 -0.117865 0)
(0.291289 -0.111711 -1.35355e-19)
(0.294961 -0.105538 0)
(0.298335 -0.0994027 -1.34496e-19)
(0.301444 -0.0933486 2.67539e-19)
(0.304318 -0.0874072 -2.66178e-19)
(0.30699 -0.0816055 1.31967e-19)
(0.309471 -0.0759048 2.63326e-19)
(0.311624 -0.0701242 -1.43511e-19)
(-0.00854515 0.0592285 -1.1715e-19)
(-0.019448 0.143084 3.53122e-22)
(-0.0250711 0.199139 1.16364e-19)
(-0.0263605 0.230385 2.37556e-19)
(-0.0238264 0.241044 -3.02977e-20)
(-0.0179524 0.235485 -1.23127e-19)
(-0.00913501 0.217717 1.25404e-19)
(0.0022654 0.191214 1.90626e-19)
(0.0158867 0.158893 6.44526e-20)
(0.031347 0.123172 1.62115e-19)
(0.04825 0.0860403 1.3134e-19)
(0.0661847 0.0491072 1.98312e-19)
(0.084734 0.0136498 3.99766e-19)
(0.103497 -0.0193524 2.01307e-19)
(0.122107 -0.049193 0)
(0.14024 -0.0754171 6.80328e-20)
(0.157626 -0.0977915 6.75715e-20)
(0.174064 -0.116272 6.80936e-20)
(0.189413 -0.130969 1.37322e-19)
(0.203589 -0.142111 -6.9285e-20)
(0.216558 -0.150012 0)
(0.228332 -0.155029 -5.40544e-22)
(0.238954 -0.157544 -1.37907e-19)
(0.248492 -0.157939 1.37896e-19)
(0.25703 -0.156579 2.7616e-19)
(0.264659 -0.153801 2.75672e-19)
(0.271471 -0.149904 -1.57964e-22)
(0.277557 -0.145154 1.37099e-19)
(0.283005 -0.139772 1.36736e-19)
(0.287896 -0.133946 -1.36319e-19)
(0.292303 -0.127826 1.35851e-19)
(0.296287 -0.121538 1.35338e-19)
(0.299905 -0.115177 2.70136e-19)
(0.303206 -0.108817 -3.59288e-22)
(0.306234 -0.102513 4.01254e-19)
(0.309021 -0.096306 -2.23662e-22)
(0.311598 -0.0902254 -1.32216e-19)
(0.313996 -0.0842955 -1.32094e-19)
(0.31622 -0.0784765 1.3078e-19)
(0.318132 -0.0725896 1.42499e-19)
(-0.00954876 0.0585959 1.03481e-19)
(-0.0215579 0.141659 1.41465e-19)
(-0.0274057 0.197231 8.6704e-20)
(-0.028284 0.228112 -8.89795e-20)
(-0.0248355 0.238414 -1.50776e-19)
(-0.0176895 0.232442 1.23105e-19)
(-0.0073665 0.214177 0)
(0.00566832 0.187098 1.26345e-19)
(0.0209664 0.154148 0)
(0.0380757 0.117782 -2.58877e-19)
(0.0565407 0.0800275 6.53662e-20)
(0.0759027 0.0425316 -3.29401e-19)
(0.0957089 0.00660303 -1.33011e-19)
(0.115534 -0.0267558 6.64118e-20)
(0.134998 -0.0568264 1.33535e-22)
(0.153773 -0.0831518 -6.75259e-20)
(0.171596 -0.105505 -1.36077e-19)
(0.188277 -0.123856 -2.72703e-19)
(0.203695 -0.138332 0)
(0.217789 -0.149184 -1.03016e-22)
(0.230549 -0.156743 -1.37232e-19)
(0.242013 -0.161387 -1.37829e-19)
(0.252249 -0.163514 1.37904e-19)
(0.261346 -0.16352 -1.38302e-19)
(0.269405 -0.161782 1.37242e-19)
(0.276535 -0.158643 -2.74867e-19)
(0.282841 -0.154411 -1.68163e-22)
(0.288425 -0.149351 -2.73803e-19)
(0.293383 -0.143688 -1.36735e-19)
(0.297802 -0.137607 1.9265e-22)
(0.301757 -0.131261 -3.73654e-22)
(0.305315 -0.12477 -1.35336e-19)
(0.308532 -0.118229 -1.34781e-19)
(0.311459 -0.111709 -5.77479e-22)
(0.314137 -0.105263 -1.33558e-19)
(0.316602 -0.0989282 -5.83712e-22)
(0.318881 -0.092733 -1.31745e-19)
(0.321004 -0.0866985 3.93224e-19)
(0.32297 -0.0807845 -1.30779e-19)
(0.32464 -0.0748157 -1.42402e-19)
(-0.0105205 0.0578433 -1.03493e-19)
(-0.0236058 0.139935 2.8152e-20)
(-0.0296704 0.1949 -8.67666e-20)
(-0.0301301 0.225343 -2.94993e-20)
(-0.0257525 0.235261 1.20592e-19)
(-0.0173106 0.228881 -3.06419e-20)
(-0.00544978 0.210154 3.11034e-20)
(0.00925816 0.182556 -1.89425e-19)
(0.0262746 0.14905 6.38163e-20)
(0.0450726 0.112123 1.29221e-19)
(0.0651336 0.0738392 0)
(0.0859484 0.0358786 2.62627e-19)
(0.107027 -0.000420952 0)
(0.127919 -0.0340377 -2.66372e-19)
(0.14823 -0.0642438 -1.33732e-19)
(0.167631 -0.0905826 0)
(0.185865 -0.112837 0)
(0.202759 -0.13099 2.71657e-19)
(0.218212 -0.145191 1.36427e-19)
(0.232188 -0.155709 -2.7321e-19)
(0.244705 -0.162895 1.36697e-19)
(0.255826 -0.167145 0)
(0.265644 -0.168876 -1.37224e-19)
(0.274271 -0.168494 2.73579e-19)
(0.281828 -0.166385 -1.3684e-19)
(0.28844 -0.162901 -1.36916e-19)
(0.294225 -0.158352 1.36444e-19)
(0.299295 -0.153005 0)
(0.303753 -0.147086 2.71585e-19)
(0.307693 -0.140778 -1.35373e-19)
(0.311194 -0.134232 -1.35076e-19)
(0.314322 -0.127566 -1.56552e-22)
(0.317137 -0.120873 5.35444e-19)
(0.319688 -0.11422 -4.00106e-19)
(0.322018 -0.107657 0)
(0.32416 -0.10122 -1.32315e-19)
(0.326141 -0.0949346 -2.62773e-19)
(0.32799 -0.088819 1.30214e-19)
(0.3297 -0.0828331 1.29586e-19)
(0.331127 -0.0768064 0)
(-0.0114556 0.0569812 -2.05608e-19)
(-0.0255791 0.137928 -2.80622e-20)
(-0.0318476 0.192163 2.29867e-19)
(-0.0318785 0.222092 -2.35022e-19)
(-0.026558 0.23159 0)
(-0.0167995 0.224805 0)
(-0.0033723 0.205647 -6.20382e-20)
(0.0130423 0.177585 -1.85343e-23)
(0.0318117 0.143595 6.36119e-20)
(0.0523306 0.106194 0)
(0.0740139 0.0674754 0)
(0.0962993 0.029151 -6.5617e-20)
(0.118657 -0.00741678 8.62788e-23)
(0.140613 -0.0411899 6.66395e-20)
(0.161758 -0.0714344 1.33729e-19)
(0.181762 -0.0976975 0)
(0.200378 -0.119773 1.34942e-19)
(0.217451 -0.137662 -1.35249e-19)
(0.232902 -0.151532 -2.71476e-19)
(0.246723 -0.161674 2.72149e-19)
(0.25896 -0.168458 3.09711e-22)
(0.269706 -0.172299 -1.36323e-19)
(0.279077 -0.173626 1.36675e-19)
(0.287211 -0.172859 -2.73172e-19)
(0.294246 -0.17039 0)
(0.300324 -0.166576 1.36355e-19)
(0.305575 -0.161731 -2.71989e-19)
(0.310122 -0.156123 1.35584e-19)
(0.314076 -0.149973 -1.35603e-19)
(0.317534 -0.143466 -1.3498e-19)
(0.320578 -0.136748 -1.34662e-19)
(0.323277 -0.129935 5.3559e-19)
(0.32569 -0.123117 -4.00158e-19)
(0.327868 -0.116356 -2.65595e-19)
(0.329851 -0.109703 2.64076e-19)
(0.331673 -0.103188 0)
(0.333357 -0.0968359 2.6158e-19)
(0.334933 -0.090662 -2.59944e-19)
(0.336389 -0.0846268 -1.29585e-19)
(0.337574 -0.0785658 0)
(-0.0123498 0.0560192 4.36255e-19)
(-0.0274655 0.135656 1.95595e-19)
(-0.0339198 0.189038 -2.29865e-19)
(-0.0335092 0.218374 2.05675e-19)
(-0.0272319 0.227413 -2.99508e-20)
(-0.0161369 0.22022 6.08744e-20)
(-0.00111888 0.200659 0)
(0.0170301 0.172184 -6.26798e-20)
(0.037581 0.137783 6.3409e-20)
(0.0598459 0.099994 6.40936e-20)
(0.0831699 0.0609374 -6.4653e-20)
(0.106935 0.0223518 -6.52367e-20)
(0.130573 -0.014379 6.56447e-20)
(0.15358 -0.0482047 0)
(0.175539 -0.0783893 0)
(0.196117 -0.104487 -1.3382e-19)
(0.215081 -0.126305 1.34134e-19)
(0.232293 -0.143863 -1.3495e-19)
(0.247704 -0.157349 1.35058e-19)
(0.261332 -0.167075 1.35704e-19)
(0.273255 -0.17343 -2.7157e-19)
(0.283593 -0.176847 2.71863e-19)
(0.292492 -0.177766 2.74754e-22)
(0.30011 -0.176618 -1.35834e-19)
(0.306607 -0.173802 0)
(0.312137 -0.169677 1.35795e-19)
(0.316846 -0.164559 2.12133e-22)
(0.320866 -0.158713 -1.35022e-19)
(0.324314 -0.15236 0)
(0.327291 -0.145681 2.6881e-19)
(0.32988 -0.138819 -2.6753e-19)
(0.332152 -0.131887 0)
(0.334167 -0.124969 2.6564e-19)
(0.335975 -0.118128 -2.64176e-19)
(0.337616 -0.111408 0)
(0.339119 -0.104839 0)
(0.340511 -0.0984431 0)
(0.341817 -0.092233 -2.58937e-19)
(0.34302 -0.0861702 2.57278e-19)
(0.343965 -0.0800978 2.79862e-19)
(-0.0131994 0.0549673 -2.04955e-19)
(-0.029254 0.133139 -2.23566e-19)
(-0.0358701 0.185546 -2.86143e-20)
(-0.0350016 0.214204 8.77383e-20)
(-0.0277522 0.222742 -1.19304e-19)
(-0.0153027 0.215135 1.21408e-19)
(0.00132775 0.195195 -1.23285e-19)
(0.0212345 0.166359 -1.87045e-19)
(0.0435891 0.131617 0)
(0.0676175 0.0935253 -6.3881e-20)
(0.0925926 0.0542279 6.44384e-20)
(0.117839 0.0154855 0)
(0.142747 -0.0213016 1.30984e-19)
(0.166788 -0.0550749 -1.3166e-19)
(0.189532 -0.0851004 -3.97163e-19)
(0.210649 -0.110942 -2.65193e-22)
(0.22992 -0.132424 2.67557e-19)
(0.247232 -0.149585 -1.3413e-19)
(0.26256 -0.162636 0)
(0.275957 -0.171909 0)
(0.287531 -0.177811 2.69989e-19)
(0.297432 -0.180791 1.35536e-19)
(0.305834 -0.181302 -1.35313e-19)
(0.312917 -0.17978 -1.35543e-19)
(0.318861 -0.176631 2.70615e-19)
(0.323836 -0.172215 -1.35014e-19)
(0.327998 -0.166847 2.69951e-19)
(0.33149 -0.160789 -5.38223e-19)
(0.334433 -0.15426 5.36717e-19)
(0.336931 -0.147435 -5.34994e-19)
(0.33907 -0.140457 5.33071e-19)
(0.340922 -0.133432 -5.30963e-19)
(0.342545 -0.126442 2.64217e-19)
(0.343989 -0.119544 2.63241e-19)
(0.345292 -0.112781 2.09805e-22)
(0.346483 -0.106182 1.93474e-22)
(0.347586 -0.0997628 -2.59002e-19)
(0.348627 -0.0935372 6.81957e-22)
(0.34958 -0.0874675 -2.56078e-19)
(0.350287 -0.0814058 0)
(-0.0140014 0.0538352 2.5495e-20)
(-0.0309341 0.130394 -2.78284e-20)
(-0.0376817 0.181707 8.55467e-20)
(-0.0363348 0.209604 -1.16606e-19)
(-0.028096 0.217595 5.9447e-20)
(-0.0142743 0.209562 0)
(0.00398764 0.189265 0)
(0.025671 0.160114 2.49511e-19)
(0.0498454 0.125101 3.14657e-19)
(0.0756481 0.0867924 -6.36532e-20)
(0.102277 0.047352 3.20781e-19)
(0.128998 0.00855787 -6.47352e-20)
(0.155158 -0.0281777 0)
(0.180206 -0.061793 0)
(0.203698 -0.09156 2.64528e-19)
(0.225313 -0.117056 0)
(0.244847 -0.138125 1.32638e-19)
(0.262212 -0.154826 -1.33421e-19)
(0.277415 -0.167393 0)
(0.290541 -0.176177 -2.6849e-19)
(0.301732 -0.181606 -1.35114e-19)
(0.311168 -0.18414 -4.0392e-19)
(0.31905 -0.184243 -1.35038e-19)
(0.325583 -0.182357 1.34747e-19)
(0.330965 -0.178891 2.68974e-19)
(0.335379 -0.174205 0)
(0.338995 -0.16861 2.68075e-19)
(0.34196 -0.162366 5.35593e-19)
(0.344404 -0.155688 3.39314e-22)
(0.34643 -0.148746 -2.66196e-19)
(0.348126 -0.141678 -2.65528e-19)
(0.349565 -0.134586 2.64192e-19)
(0.350805 -0.127547 2.63296e-19)
(0.351893 -0.120616 -5.23906e-19)
(0.352865 -0.113833 5.21319e-19)
(0.35375 -0.107223 -2.59895e-19)
(0.35457 -0.100802 2.57814e-19)
(0.355349 -0.0945803 5.1289e-19)
(0.356056 -0.088523 2.54345e-19)
(0.356529 -0.0824927 2.76202e-19)
(-0.0147534 0.0526325 -2.02988e-19)
(-0.0324966 0.127442 1.93675e-19)
(-0.0393384 0.177543 -1.70206e-19)
(-0.0374873 0.204595 1.73997e-19)
(-0.0282392 0.211989 2.96072e-19)
(-0.0130272 0.203517 -2.40982e-19)
(0.00688315 0.18288 3.05956e-19)
(0.030358 0.15346 1.85874e-19)
(0.0563628 0.118242 -4.39666e-19)
(0.083943 0.079803 1.26488e-19)
(0.11222 0.0403173 6.31664e-20)
(0.140399 0.00157697 1.29125e-19)
(0.167786 -0.034999 1.29595e-19)
(0.193804 -0.0683506 -2.61164e-19)
(0.218002 -0.0977608 2.62631e-19)
(0.240066 -0.122824 3.96273e-19)
(0.259813 -0.143404 -3.98703e-19)
(0.277183 -0.159584 5.33089e-19)
(0.292216 -0.17162 2.66841e-19)
(0.305031 -0.179884 4.02614e-19)
(0.315805 -0.184821 1.33828e-19)
(0.32475 -0.186903 2.69195e-19)
(0.332094 -0.186602 -2.68212e-19)
(0.338065 -0.184365 0)
(0.342877 -0.180599 -8.05488e-19)
(0.34673 -0.175665 5.36059e-19)
(0.349801 -0.169868 -2.67688e-19)
(0.352247 -0.163465 -2.6707e-19)
(0.354199 -0.156663 -3.95856e-22)
(0.355763 -0.149631 0)
(0.357027 -0.142498 0)
(0.358064 -0.135363 2.62594e-19)
(0.35893 -0.128299 -2.62123e-19)
(0.359672 -0.121357 2.60679e-19)
(0.360322 -0.114574 -2.59569e-19)
(0.360909 -0.107973 -2.58206e-19)
(0.361452 -0.101568 0)
(0.361975 -0.0953676 -2.55176e-19)
(0.362441 -0.0893406 -2.54211e-19)
(0.362683 -0.0833609 -8.2709e-19)
(-0.0154534 0.0513678 2.02949e-19)
(-0.0339328 0.124301 -1.93836e-19)
(-0.0408245 0.173078 2.27016e-19)
(-0.0384377 0.199199 -4.05607e-19)
(-0.0281569 0.205946 -2.95888e-19)
(-0.0115356 0.197018 2.4098e-19)
(0.0100389 0.176056 -4.88616e-19)
(0.0353166 0.14641 -2.47953e-19)
(0.0631566 0.111054 3.13449e-19)
(0.0925107 0.0725678 -5.69213e-19)
(0.122422 0.0331345 -3.8332e-19)
(0.152034 -0.0054466 -1.2823e-19)
(0.180613 -0.0417553 -3.89132e-19)
(0.207556 -0.0747391 3.91437e-19)
(0.232409 -0.103696 -2.62627e-19)
(0.254867 -0.128239 -2.63931e-19)
(0.274772 -0.148258 0)
(0.292095 -0.163859 -2.66042e-19)
(0.306912 -0.175322 -4.00147e-19)
(0.319377 -0.183039 1.33325e-19)
(0.329703 -0.187469 -2.67884e-19)
(0.338133 -0.189097 0)
(0.344923 -0.188398 2.68209e-19)
(0.350322 -0.185822 2.67803e-19)
(0.354562 -0.181776 -2.66013e-19)
(0.357856 -0.176616 0)
(0.36039 -0.170643 0)
(0.362325 -0.164105 0)
(0.363796 -0.157207 -1.1306e-21)
(0.36491 -0.150109 0)
(0.365756 -0.142936 -5.25733e-19)
(0.366403 -0.135781 -7.01493e-22)
(0.366908 -0.128713 -5.21222e-19)
(0.367314 -0.12178 5.19214e-19)
(0.367654 -0.115016 -2.58215e-19)
(0.367951 -0.108441 2.57526e-19)
(0.368225 -0.102068 0)
(0.368499 -0.0959049 5.08739e-19)
(0.368729 -0.0899241 -2.52471e-19)
(0.368744 -0.0840123 0)
(-0.0160999 0.0500496 2.52478e-20)
(-0.0352349 0.120989 0)
(-0.0421246 0.168335 -2.82118e-19)
(-0.0391644 0.193441 3.46962e-19)
(-0.0278231 0.199489 1.76454e-19)
(-0.00977186 0.190087 -2.39505e-19)
(0.0134816 0.168812 2.4393e-19)
(0.0405702 0.138981 -2.46409e-19)
(0.0702449 0.103552 0)
(0.101362 0.0651014 2.52572e-19)
(0.132885 0.0258174 -2.53982e-19)
(0.163897 -0.0125 8.63502e-22)
(0.193622 -0.0484352 0)
(0.221437 -0.0809485 2.59337e-19)
(0.246886 -0.109357 -1.30044e-19)
(0.269678 -0.133299 2.62265e-19)
(0.289682 -0.152686 1.31451e-19)
(0.306904 -0.167655 -2.64066e-19)
(0.321456 -0.178506 0)
(0.333532 -0.185652 3.98501e-19)
(0.343379 -0.189565 1.32784e-19)
(0.351274 -0.190737 0)
(0.357497 -0.189649 0)
(0.362319 -0.186751 0)
(0.365989 -0.182445 2.66782e-19)
(0.368729 -0.177083 0)
(0.370736 -0.170957 -2.65454e-19)
(0.372173 -0.164311 5.29212e-19)
(0.373177 -0.157341 -5.28062e-19)
(0.373856 -0.150202 0)
(0.374298 -0.143012 2.62517e-19)
(0.374571 -0.135858 -2.60284e-19)
(0.374729 -0.128806 2.6027e-19)
(0.374813 -0.121899 0)
(0.374853 -0.11517 0)
(0.374871 -0.108636 2.5581e-19)
(0.374885 -0.102309 -2.54252e-19)
(0.374916 -0.0961978 5.05784e-19)
(0.374917 -0.090277 -5.02544e-19)
(0.374713 -0.0844484 0)
(-0.016692 0.0486861 1.75793e-19)
(-0.0363958 0.117525 5.48774e-20)
(-0.0432237 0.163337 2.25596e-19)
(-0.0396457 0.187347 2.29999e-19)
(-0.0272116 0.192645 -2.35354e-19)
(-0.00770742 0.182748 2.39503e-19)
(0.0172394 0.161172 2.42423e-19)
(0.0461439 0.131194 2.46407e-19)
(0.0776475 0.0957541 0)
(0.11051 0.0574221 2.50942e-19)
(0.143613 0.0183829 2.53978e-19)
(0.175981 -0.0195679 2.55961e-19)
(0.206798 -0.0550253 0)
(0.235423 -0.086968 -8.98611e-22)
(0.261401 -0.114737 2.60762e-19)
(0.284461 -0.137997 -1.3113e-19)
(0.304501 -0.15669 -1.32161e-19)
(0.321565 -0.170977 3.95984e-19)
(0.335804 -0.181183 2.69866e-22)
(0.347453 -0.187737 -1.33324e-19)
(0.356794 -0.191126 -2.65806e-19)
(0.364135 -0.191846 0)
(0.369782 -0.19038 0)
(0.374025 -0.187177 0)
(0.377129 -0.182633 0)
(0.379326 -0.177091 0)
(0.380818 -0.170837 0)
(0.381773 -0.164108 2.63644e-19)
(0.382327 -0.15709 -2.62549e-19)
(0.382589 -0.149932 0)
(0.382644 -0.142746 0)
(0.38256 -0.135613 2.60283e-19)
(0.382386 -0.128593 0)
(0.382162 -0.121729 2.57347e-19)
(0.381916 -0.115049 -2.55876e-19)
(0.381666 -0.10857 0)
(0.38143 -0.102301 5.06356e-19)
(0.381227 -0.0962524 -5.03189e-19)
(0.381005 -0.0904031 0)
(0.380589 -0.0846703 0)
(-0.0172287 0.0472847 -2.01001e-19)
(-0.0374087 0.113926 -5.47841e-20)
(-0.0441071 0.158107 5.60961e-20)
(-0.0398599 0.180945 -2.29998e-19)
(-0.0262955 0.18544 0)
(-0.00531286 0.175027 0)
(0.0213416 0.15316 -1.81911e-19)
(0.0520642 0.123073 -6.13133e-20)
(0.0853855 0.0876843 -1.24022e-19)
(0.119967 0.0495514 -1.25664e-19)
(0.154612 0.0108509 -1.26378e-19)
(0.188283 -0.0266321 1.27318e-19)
(0.220128 -0.06151 1.27712e-19)
(0.249492 -0.0927852 -1.29501e-19)
(0.275926 -0.119827 0)
(0.299181 -0.142331 0)
(0.319191 -0.160269 -2.62171e-19)
(0.336038 -0.17383 0)
(0.349918 -0.183362 0)
(0.361102 -0.189311 2.63138e-19)
(0.369911 -0.192171 5.00787e-22)
(0.376683 -0.192446 -2.7175e-22)
(0.381748 -0.190617 -2.64706e-19)
(0.385414 -0.187126 2.64138e-19)
(0.38796 -0.182365 2.63527e-19)
(0.389627 -0.176668 -2.63089e-19)
(0.390621 -0.170311 0)
(0.391111 -0.163522 2.62522e-19)
(0.391235 -0.156479 2.74234e-22)
(0.391099 -0.149323 -2.60537e-19)
(0.390787 -0.142159 0)
(0.390363 -0.135064 0)
(0.389875 -0.128093 2.57451e-19)
(0.389359 -0.121286 -2.56033e-19)
(0.38884 -0.114667 -2.54836e-19)
(0.388336 -0.108252 2.5333e-19)
(0.38786 -0.102052 0)
(0.387433 -0.0960749 0)
(0.386998 -0.0903062 0)
(0.386379 -0.0846797 -2.694e-19)
(-0.0177094 0.0458522 2.49747e-19)
(-0.0382673 0.110208 -1.09135e-19)
(-0.0447607 0.15267 5.59177e-20)
(-0.0397855 0.17426 0)
(-0.0250481 0.177904 2.91571e-19)
(-0.00255843 0.166955 2.66275e-23)
(0.0258179 0.144805 2.40919e-19)
(0.0583581 0.114646 -1.83348e-19)
(0.0934808 0.0793689 2.4727e-19)
(0.129749 0.0415144 -1.24873e-19)
(0.165886 0.00324503 0)
(0.200798 -0.0336717 1.26942e-19)
(0.233598 -0.0678716 -3.83713e-19)
(0.263621 -0.0983867 0)
(0.29043 -0.124619 3.87356e-19)
(0.313805 -0.146297 -2.59024e-19)
(0.333716 -0.163427 -2.60754e-19)
(0.350287 -0.176224 1.30695e-19)
(0.363758 -0.185059 0)
(0.374444 -0.190392 -2.63384e-19)
(0.382699 -0.192725 -2.63479e-19)
(0.388889 -0.192563 -7.54352e-22)
(0.393369 -0.190386 2.62916e-19)
(0.396465 -0.186628 2.63481e-19)
(0.398464 -0.181673 -5.26319e-19)
(0.399617 -0.175843 2.63087e-19)
(0.400131 -0.169407 0)
(0.400178 -0.16258 -2.60715e-19)
(0.399892 -0.155533 2.599e-19)
(0.39938 -0.148399 2.58979e-19)
(0.398722 -0.141275 -2.57959e-19)
(0.397978 -0.134233 2.56847e-19)
(0.397194 -0.127324 0)
(0.396403 -0.120585 2.55012e-19)
(0.395627 -0.114037 5.0681e-19)
(0.394881 -0.107696 -5.0433e-19)
(0.394179 -0.101571 5.01608e-19)
(0.393538 -0.0956725 1.33115e-22)
(0.392899 -0.0899912 -2.48266e-19)
(0.392089 -0.0844788 5.37519e-19)
(-0.0181336 0.0443944 -1.49809e-19)
(-0.0389653 0.106386 -3.26029e-19)
(-0.0451705 0.147047 2.22677e-19)
(-0.0394014 0.16732 -1.70827e-19)
(-0.0234425 0.170066 -5.89521e-20)
(0.000585501 0.158563 5.92084e-20)
(0.0306982 0.136139 -1.20649e-19)
(0.0650526 0.105944 -1.21857e-19)
(0.101954 0.0708383 1.23223e-19)
(0.139869 0.0333402 -2.48917e-19)
(0.17744 -0.00440796 -4.45394e-24)
(0.213521 -0.0406629 1.2647e-19)
(0.247193 -0.0740906 0)
(0.277789 -0.103758 -1.28177e-19)
(0.304888 -0.129103 -1.29312e-19)
(0.328301 -0.149894 2.5923e-19)
(0.34804 -0.166167 0)
(0.364277 -0.178169 0)
(0.377294 -0.186288 2.61609e-19)
(0.387448 -0.191 -2.61641e-19)
(0.395128 -0.19281 0)
(0.400729 -0.192225 2.62608e-19)
(0.404626 -0.189717 -2.62502e-19)
(0.40716 -0.185713 -5.2444e-19)
(0.408628 -0.180586 -3.55104e-22)
(0.409284 -0.174647 2.61982e-19)
(0.409341 -0.168153 -5.21037e-19)
(0.408967 -0.16131 2.60715e-19)
(0.408295 -0.15428 -2.59899e-19)
(0.407429 -0.147184 -4.58024e-22)
(0.406446 -0.140115 6.68529e-22)
(0.405404 -0.133139 -2.56847e-19)
(0.404344 -0.126304 -2.54509e-19)
(0.403295 -0.119642 -2.53229e-19)
(0.402278 -0.113173 -1.15333e-21)
(0.401306 -0.106912 0)
(0.40039 -0.100869 -2.49019e-19)
(0.399548 -0.0950535 4.96242e-19)
(0.398718 -0.089464 -7.40208e-19)
(0.397729 -0.0840713 1.80924e-22)
(-0.0185005 0.0429163 -4.96804e-20)
(-0.0394968 0.102473 4.33788e-19)
(-0.0453228 0.141259 -2.22754e-19)
(-0.0386868 0.160153 1.70939e-19)
(-0.0214528 0.161958 -4.64186e-19)
(0.00414793 0.149883 5.90217e-20)
(0.0360113 0.127196 -2.39391e-19)
(0.0721733 0.0970016 0)
(0.110827 0.062126 0)
(0.150339 0.0250609 -2.47686e-19)
(0.189278 -0.0120784 1.25117e-19)
(0.226445 -0.0475798 -4.45235e-22)
(0.260899 -0.0801458 1.26872e-19)
(0.291974 -0.108883 0)
(0.31927 -0.133271 -3.84643e-19)
(0.342638 -0.153118 1.28835e-19)
(0.362134 -0.168494 -2.58403e-19)
(0.377976 -0.179675 0)
(0.390495 -0.187068 0)
(0.400088 -0.191157 7.21387e-22)
(0.407177 -0.192453 -2.60988e-19)
(0.412184 -0.191459 2.60857e-19)
(0.415503 -0.188639 -2.6154e-19)
(0.417486 -0.184412 2.6098e-19)
(0.41844 -0.179136 6.94639e-22)
(0.418623 -0.173111 7.03529e-22)
(0.418244 -0.166581 2.60323e-19)
(0.417474 -0.159741 -2.58514e-19)
(0.416441 -0.152744 0)
(0.415245 -0.145702 -2.57397e-19)
(0.413961 -0.138702 2.56172e-19)
(0.412642 -0.131804 0)
(0.411325 -0.125052 2.54509e-19)
(0.410038 -0.118475 -2.52179e-19)
(0.408797 -0.112092 2.50638e-19)
(0.407615 -0.105916 0)
(0.406499 -0.099957 7.45945e-19)
(0.405469 -0.0942275 -4.93819e-19)
(0.404461 -0.0887323 0)
(0.403308 -0.0834627 2.66882e-19)
(-0.0188096 0.0414222 3.95485e-19)
(-0.0398558 0.098484 -2.16544e-19)
(-0.0452044 0.135328 -5.54594e-20)
(-0.0376217 0.152785 5.66471e-20)
(-0.0190537 0.153611 2.317e-19)
(0.00815666 0.14095 0)
(0.0417846 0.118012 2.39391e-19)
(0.0797444 0.0878556 3.62458e-19)
(0.120116 0.0532689 1.22462e-19)
(0.161169 0.0167116 1.24057e-19)
(0.2014 -0.0197342 1.24705e-19)
(0.239563 -0.0543945 -3.77342e-19)
(0.2747 -0.0860146 1.26442e-19)
(0.306152 -0.113746 5.08001e-19)
(0.33355 -0.137114 1.28248e-19)
(0.356786 -0.155968 1.28382e-19)
(0.375965 -0.170415 2.58401e-19)
(0.391357 -0.180756 0)
(0.403336 -0.187415 0)
(0.412341 -0.190886 5.20523e-19)
(0.418827 -0.191681 -1.03984e-18)
(0.423239 -0.190295 -7.21096e-22)
(0.425987 -0.187185 0)
(0.427435 -0.182757 0)
(0.427896 -0.177354 2.6031e-19)
(0.427628 -0.171264 0)
(0.42684 -0.164719 0)
(0.425699 -0.157901 -2.56328e-19)
(0.42433 -0.150952 -5.13159e-19)
(0.42283 -0.143979 0)
(0.421269 -0.137059 -5.09189e-19)
(0.419695 -0.130249 -1.0151e-18)
(0.418142 -0.123588 5.05491e-19)
(0.416636 -0.117102 -5.01917e-19)
(0.415189 -0.110809 5.004e-19)
(0.413813 -0.10472 -4.97442e-19)
(0.412513 -0.098848 -4.93444e-19)
(0.41131 -0.0932056 0)
(0.410139 -0.0878054 0)
(0.408837 -0.0826608 0)
(-0.0190597 0.0399158 -3.95487e-19)
(-0.0400364 0.0944298 0)
(-0.0448026 0.129274 0)
(-0.036187 0.145244 0)
(-0.0162214 0.145058 0)
(0.0126378 0.1318 0)
(0.0480434 0.108627 1.19112e-19)
(0.0877873 0.0785454 -6.04203e-19)