/*--------------------------------*- C++ -*----------------------------------*\
  =========                 |
  \\      /  F ield         | OpenFOAM: The Open Source CFD Toolbox
   \\    /   O peration     | Website:  https://openfoam.org
    \\  /    A nd           | Version:  7
     \\/     M anipulation  |
\*---------------------------------------------------------------------------*/
FoamFile
{
    version     2.0;
    format      ascii;
    class       volScalarField;
    location    "6.5";
    object      p;
}
// * * * * * * * * * * * * * * * * * * * * * * * * * * * * * * * * * * * * * //

dimensions      [0 2 -2 0 0 0 0];

internalField   nonuniform List<scalar> 
18000
(
0.600183
0.600703
0.601
0.601269
0.601502
0.601737
0.602036
0.602463
0.603071
0.603895
0.604963
0.606296
0.607918
0.609844
0.612072
0.61459
0.617382
0.620426
0.6237
0.627181
0.630835
0.634629
0.638526
0.642491
0.646493
0.650502
0.654491
0.65844
0.662311
0.666027
0.599623
0.600064
0.600323
0.600558
0.600761
0.600965
0.601236
0.601632
0.602203
0.602986
0.604007
0.605283
0.606834
0.608673
0.610801
0.613209
0.615882
0.618797
0.621932
0.625261
0.628755
0.632382
0.636107
0.639896
0.64372
0.64755
0.651361
0.655132
0.658822
0.662379
0.599072
0.59943
0.599649
0.599848
0.600025
0.600208
0.600458
0.600831
0.601374
0.602124
0.603104
0.604331
0.605818
0.607579
0.609615
0.611917
0.614473
0.617261
0.620256
0.623434
0.626767
0.630223
0.63377
0.637377
0.641015
0.644658
0.648281
0.651864
0.655362
0.658747
0.59851
0.598781
0.598966
0.599137
0.599294
0.599465
0.599703
0.600063
0.600587
0.601311
0.602259
0.603443
0.604875
0.606564
0.608511
0.610713
0.613155
0.615817
0.618674
0.6217
0.624868
0.62815
0.631515
0.634934
0.638379
0.641826
0.645252
0.648635
0.651928
0.65513
0.597955
0.598141
0.598293
0.598437
0.598579
0.598742
0.598975
0.599327
0.59984
0.600546
0.601469
0.602616
0.603998
0.605621
0.607488
0.609594
0.611927
0.614464
0.617181
0.620054
0.623057
0.626162
0.62934
0.632565
0.635811
0.639054
0.642272
0.645445
0.648522
0.651526
0.597399
0.597496
0.597618
0.597739
0.597871
0.598032
0.598267
0.59862
0.59913
0.599827
0.60073
0.601847
0.603185
0.604749
0.606542
0.608558
0.610784
0.613198
0.615776
0.618495
0.621331
0.624256
0.627245
0.630272
0.633312
0.636342
0.639343
0.642294
0.645145
0.647938
0.596842
0.596853
0.596946
0.597047
0.597172
0.597337
0.597579
0.597941
0.598456
0.59915
0.60004
0.601133
0.602432
0.603944
0.60567
0.607602
0.609724
0.612015
0.614455
0.617021
0.619689
0.622433
0.62523
0.628055
0.630883
0.633692
0.636466
0.639186
0.641801
0.644371
0.59628
0.596209
0.596274
0.596357
0.596479
0.596652
0.596909
0.597287
0.597814
0.598512
0.599395
0.600468
0.601736
0.603203
0.604868
0.60672
0.608741
0.610912
0.613215
0.615628
0.618128
0.620691
0.623293
0.625912
0.628523
0.631106
0.633645
0.636126
0.638496
0.640831
0.59571
0.59556
0.595598
0.595666
0.595788
0.595974
0.596252
0.596653
0.597198
0.597906
0.598787
0.599848
0.601092
0.602521
0.60413
0.605904
0.607828
0.609883
0.612052
0.614313
0.616645
0.619027
0.621434
0.623844
0.626235
0.628586
0.630885
0.633118
0.635237
0.637324
0.595128
0.594902
0.594915
0.59497
0.595095
0.595299
0.595604
0.596033
0.596602
0.597326
0.598213
0.599268
0.600495
0.601891
0.603448
0.60515
0.606981
0.608923
0.61096
0.613071
0.615238
0.617439
0.619651
0.621851
0.624019
0.626135
0.62819
0.630171
0.632033
0.633862
0.594528
0.594231
0.594221
0.594266
0.594398
0.594623
0.59496
0.595423
0.596022
0.596767
0.597666
0.598722
0.599937
0.601306
0.602816
0.604451
0.606194
0.608027
0.609934
0.611898
0.613902
0.615924
0.617942
0.619933
0.621877
0.623757
0.625565
0.627291
0.628894
0.630455
0.593907
0.593543
0.593512
0.593549
0.593691
0.593943
0.594316
0.594817
0.595451
0.596224
0.59714
0.598202
0.599411
0.600757
0.602226
0.603799
0.605458
0.607186
0.608968
0.61079
0.612633
0.614479
0.616304
0.618087
0.619809
0.621455
0.623015
0.624485
0.625827
0.627114
0.593257
0.592833
0.592784
0.592816
0.592972
0.593253
0.593666
0.59421
0.594883
0.595688
0.596626
0.597701
0.598909
0.600238
0.60167
0.603186
0.604766
0.606394
0.608056
0.609738
0.611426
0.613099
0.614735
0.616314
0.617817
0.619229
0.620544
0.621759
0.622843
0.623852
0.592575
0.592095
0.592031
0.592062
0.592236
0.59255
0.593005
0.593595
0.594311
0.595152
0.596117
0.597209
0.598421
0.599738
0.601139
0.602602
0.604108
0.60564
0.607188
0.608737
0.610275
0.61178
0.613231
0.614608
0.615896
0.61708
0.618153
0.619117
0.61995
0.62068
0.591856
0.591324
0.591248
0.591282
0.591477
0.591827
0.592328
0.592966
0.593729
0.594609
0.595605
0.596719
0.59794
0.59925
0.600624
0.602038
0.603474
0.604917
0.606355
0.607778
0.60917
0.610512
0.611783
0.612965
0.614043
0.615005
0.615843
0.616564
0.617155
0.617609
0.591094
0.590516
0.590432
0.590471
0.59069
0.591079
0.591627
0.592317
0.593128
0.59405
0.595083
0.596222
0.597456
0.598762
0.600112
0.601483
0.602854
0.604212
0.605548
0.60685
0.608103
0.609287
0.610384
0.611376
0.612251
0.612999
0.613611
0.614098
0.61446
0.614647
0.590286
0.589667
0.589578
0.589626
0.589872
0.590301
0.590898
0.59164
0.592501
0.59347
0.594541
0.59571
0.59696
0.598265
0.599595
0.600925
0.602237
0.603517
0.604756
0.605943
0.607062
0.608094
0.609021
0.60983
0.610511
0.611054
0.611452
0.611719
0.611866
0.611797
0.589428
0.588773
0.588682
0.588743
0.589018
0.589488
0.590135
0.590929
0.591842
0.592859
0.593973
0.595175
0.596443
0.597748
0.599061
0.600355
0.601611
0.602819
0.603967
0.605044
0.606034
0.606919
0.607683
0.608317
0.608812
0.609161
0.609358
0.609418
0.609367
0.60906
0.588516
0.587829
0.58774
0.587818
0.588124
0.588636
0.589331
0.590178
0.591144
0.592212
0.593372
0.594608
0.595895
0.597203
0.5985
0.599761
0.600967
0.602106
0.603169
0.604141
0.605006
0.605749
0.606357
0.606822
0.607141
0.607308
0.607316
0.607184
0.606955
0.606432
0.587546
0.586832
0.586748
0.586846
0.587184
0.587739
0.588482
0.589381
0.590402
0.591523
0.592729
0.594
0.595308
0.596619
0.597902
0.599131
0.60029
0.601366
0.602347
0.603218
0.603963
0.604568
0.605025
0.60533
0.605482
0.605478
0.605312
0.605005
0.604617
0.603904
0.586514
0.585777
0.585702
0.585823
0.586196
0.586793
0.587584
0.588535
0.589611
0.590785
0.592038
0.593345
0.594672
0.595986
0.597256
0.598456
0.59957
0.600585
0.601486
0.602259
0.602887
0.60336
0.603672
0.603824
0.603817
0.603653
0.603327
0.602861
0.602334
0.601461
0.585417
0.584661
0.584598
0.584745
0.585154
0.585793
0.586633
0.587635
0.588765
0.589992
0.591292
0.592632
0.593978
0.595294
0.59655
0.597723
0.598793
0.599748
0.600571
0.601247
0.601762
0.602106
0.602279
0.602283
0.602126
0.601812
0.601339
0.600731
0.600085
0.599084
0.58425
0.583481
0.583432
0.583607
0.584054
0.584737
0.585624
0.586677
0.587859
0.589139
0.590483
0.591855
0.593217
0.594533
0.595775
0.596919
0.597946
0.59884
0.599585
0.600166
0.600568
0.600786
0.600822
0.600685
0.600384
0.599929
0.599321
0.598587
0.597844
0.59675
0.583012
0.582234
0.582202
0.582407
0.582892
0.583619
0.584553
0.585656
0.58689
0.588219
0.589604
0.591004
0.592379
0.593694
0.59492
0.596033
0.597014
0.597846
0.598512
0.598996
0.599286
0.599379
0.59928
0.599004
0.598563
0.597973
0.597242
0.596398
0.595577
0.594429
0.581698
0.580916
0.580903
0.58114
0.581665
0.582435
0.583416
0.584568
0.585852
0.587228
0.58865
0.590074
0.591457
0.592767
0.593974
0.595053
0.595985
0.596751
0.597335
0.597719
0.597895
0.597861
0.597628
0.597212
0.596632
0.595911
0.595062
0.594121
0.593243
0.592083
0.580307
0.579526
0.579534
0.579805
0.580369
0.581183
0.58221
0.58341
0.584742
0.58616
0.587614
0.589055
0.590443
0.591742
0.592925
0.593966
0.594844
0.59554
0.596037
0.596318
0.596375
0.596211
0.595838
0.595278
0.594556
0.593699
0.592733
0.591702
0.590785
0.589661
0.578835
0.578061
0.578093
0.578398
0.579003
0.579861
0.580932
0.582178
0.583554
0.58501
0.586489
0.587942
0.589327
0.590611
0.591764
0.592761
0.593579
0.594199
0.594602
0.594773
0.594705
0.594403
0.593883
0.59317
0.592294
0.59129
0.590195
0.589069
0.588119
0.587087
0.577278
0.576518
0.576576
0.576919
0.577565
0.578465
0.579579
0.580868
0.582285
0.583771
0.585269
0.586726
0.588103
0.589364
0.59048
0.591424
0.592175
0.59271
0.593012
0.593066
0.592865
0.592415
0.591736
0.590855
0.589805
0.588628
0.587375
0.586129
0.585143
0.584269
0.575633
0.574895
0.574983
0.575365
0.576052
0.576994
0.578149
0.579478
0.580928
0.582439
0.583947
0.585401
0.58676
0.58799
0.58906
0.589944
0.590617
0.59106
0.591252
0.591178
0.590834
0.590226
0.589374
0.588303
0.587047
0.585649
0.584173
0.582737
0.581693
0.581108
0.5739
0.573192
0.573314
0.573737
0.574465
0.575446
0.57664
0.578003
0.579481
0.581007
0.582517
0.58396
0.585292
0.58648
0.587494
0.588306
0.588892
0.589231
0.589303
0.589093
0.588596
0.58782
0.586779
0.585496
0.583992
0.582297
0.580451
0.578565
0.577004
0.576145
0.678159
0.693865
0.704581
0.713011
0.718545
0.722781
0.725646
0.727662
0.728924
0.729612
0.72982
0.729613
0.729048
0.728188
0.727085
0.725754
0.724235
0.722568
0.720754
0.71879
0.716702
0.714485
0.712155
0.709745
0.70724
0.704691
0.702118
0.699596
0.697391
0.695665
0.674306
0.689729
0.700528
0.709086
0.714777
0.719174
0.722179
0.724314
0.725677
0.726456
0.726731
0.726596
0.726101
0.72531
0.724246
0.722965
0.721498
0.719866
0.718084
0.716163
0.714098
0.711908
0.709605
0.707197
0.704715
0.702161
0.699599
0.697073
0.694856
0.69313
0.670407
0.685536
0.696403
0.705104
0.710967
0.715541
0.718696
0.72096
0.72243
0.723303
0.723645
0.723581
0.723157
0.722432
0.72141
0.72018
0.718766
0.717172
0.715423
0.713546
0.711506
0.709346
0.707072
0.704672
0.702215
0.699661
0.697111
0.694586
0.692356
0.69063
0.666456
0.681282
0.6922
0.701063
0.707118
0.711881
0.715197
0.717601
0.719182
0.720149
0.720569
0.720575
0.720214
0.719547
0.718581
0.717403
0.716037
0.714486
0.712775
0.710934
0.708927
0.706797
0.70455
0.702176
0.699735
0.697199
0.694654
0.692132
0.689892
0.68816
0.662445
0.676968
0.687919
0.696962
0.703224
0.708196
0.711685
0.714237
0.715934
0.716997
0.717502
0.717574
0.717275
0.716661
0.715759
0.714633
0.713312
0.711807
0.710138
0.708328
0.706361
0.704262
0.702043
0.699703
0.697279
0.694768
0.692228
0.689711
0.687465
0.685721
0.658371
0.672592
0.683555
0.692797
0.699286
0.704487
0.708164
0.710871
0.712689
0.713849
0.714439
0.714577
0.714342
0.713782
0.71294
0.711867
0.710591
0.709133
0.707507
0.705733
0.703807
0.701741
0.699554
0.697249
0.694847
0.692362
0.689833
0.687322
0.685073
0.683316
0.654236
0.668155
0.679103
0.688564
0.695301
0.700752
0.704633
0.707504
0.70945
0.710707
0.711381
0.711587
0.711415
0.71091
0.710126
0.709107
0.707877
0.706466
0.704885
0.703149
0.701263
0.699236
0.697082
0.694814
0.692438
0.689982
0.687469
0.684966
0.682716
0.680946
0.650038
0.663656
0.674561
0.684261
0.691266
0.696991
0.701093
0.704137
0.706215
0.707572
0.708331
0.708604
0.708495
0.708047
0.707318
0.706353
0.705172
0.703807
0.702272
0.700577
0.698731
0.696745
0.694629
0.692399
0.690054
0.687629
0.685135
0.682643
0.680394
0.67861
0.64578
0.659097
0.669928
0.679885
0.687181
0.693202
0.697543
0.700771
0.702987
0.704445
0.705289
0.70563
0.705584
0.705193
0.704519
0.703608
0.702475
0.701157
0.699667
0.698015
0.696212
0.694268
0.692193
0.690004
0.687693
0.6853
0.682832
0.680353
0.678105
0.67631
0.64147
0.654483
0.665206
0.675433
0.683041
0.689385
0.693984
0.697407
0.699765
0.701328
0.702257
0.702666
0.702683
0.702349
0.701728
0.700871
0.699787
0.698516
0.697071
0.695464
0.693705
0.691806
0.689775
0.687629
0.685356
0.682997
0.680559
0.678097
0.675852
0.674044
0.637116
0.649819
0.660396
0.670903
0.678846
0.685538
0.690415
0.694044
0.696552
0.698222
0.699237
0.699714
0.699792
0.699515
0.698949
0.698144
0.697109
0.695885
0.694485
0.692923
0.691212
0.689358
0.687373
0.685273
0.683042
0.68072
0.678316
0.675874
0.673633
0.671814
0.63273
0.645113
0.655503
0.666296
0.674594
0.681659
0.686836
0.690684
0.693348
0.69513
0.696229
0.696775
0.696914
0.696693
0.69618
0.695427
0.69444
0.693264
0.691909
0.690393
0.688731
0.686925
0.684988
0.682936
0.68075
0.678469
0.676102
0.673685
0.671451
0.669619
0.628327
0.640377
0.650537
0.661613
0.670286
0.677747
0.683247
0.687328
0.690155
0.692052
0.693236
0.69385
0.694049
0.693884
0.693423
0.69272
0.691782
0.690651
0.689344
0.687874
0.686263
0.684505
0.68262
0.680618
0.678481
0.676244
0.673919
0.671529
0.669305
0.667462
0.623926
0.635626
0.64551
0.656857
0.665921
0.673801
0.679648
0.683975
0.686975
0.688988
0.690259
0.69094
0.691198
0.691088
0.690679
0.690024
0.689134
0.688049
0.686789
0.685367
0.683808
0.6821
0.680267
0.678318
0.676234
0.674045
0.671765
0.669408
0.667197
0.665343
0.619547
0.630878
0.640437
0.652034
0.661503
0.669822
0.676038
0.680626
0.683807
0.68594
0.687297
0.688046
0.688362
0.688307
0.687948
0.687339
0.686496
0.685458
0.684246
0.682872
0.681366
0.679709
0.67793
0.676037
0.674008
0.671871
0.669641
0.667321
0.665128
0.663264
0.615212
0.626154
0.635338
0.647153
0.657034
0.665811
0.672417
0.677281
0.680651
0.682907
0.684352
0.685169
0.685541
0.685541
0.685231
0.684667
0.68387
0.682877
0.681714
0.680388
0.678935
0.677331
0.675607
0.673772
0.671803
0.66972
0.667546
0.665269
0.663098
0.661225
0.610945
0.621479
0.630237
0.642227
0.65252
0.661769
0.668786
0.673942
0.67751
0.679891
0.681425
0.682309
0.682738
0.68279
0.682527
0.682006
0.681255
0.680308
0.679194
0.677916
0.676516
0.674967
0.673299
0.671523
0.669616
0.667593
0.665478
0.663252
0.661108
0.65923
0.60677
0.616881
0.62516
0.637273
0.647971
0.657701
0.665147
0.670609
0.674382
0.676893
0.678517
0.679468
0.679953
0.680054
0.679837
0.679358
0.678651
0.67775
0.676684
0.675454
0.674107
0.672614
0.671003
0.669287
0.667446
0.665487
0.663437
0.661269
0.659161
0.657279
0.602712
0.612388
0.620139
0.63231
0.643396
0.653613
0.6615
0.667282
0.67127
0.673916
0.67563
0.676648
0.677185
0.677334
0.67716
0.676723
0.67606
0.675202
0.674185
0.673003
0.671707
0.670272
0.668718
0.667063
0.665291
0.663401
0.661423
0.659322
0.657259
0.655378
0.598796
0.608029
0.615204
0.627362
0.638809
0.649509
0.65785
0.663964
0.668175
0.67096
0.672764
0.673849
0.674437
0.67463
0.674498
0.674102
0.673481
0.672665
0.671695
0.670563
0.669317
0.667939
0.666443
0.66485
0.663149
0.661333
0.659434
0.65741
0.655402
0.653529
0.595044
0.603833
0.610388
0.622453
0.634227
0.645398
0.654198
0.660653
0.665096
0.668025
0.669921
0.671072
0.671709
0.671943
0.671852
0.671494
0.670913
0.67014
0.669215
0.668132
0.666936
0.665614
0.664176
0.662647
0.661019
0.659283
0.657469
0.655533
0.653595
0.651737
0.59148
0.599825
0.605726
0.61761
0.629667
0.641287
0.650548
0.657351
0.662033
0.665112
0.667101
0.668317
0.669
0.669275
0.669221
0.6689
0.668358
0.667626
0.666744
0.66571
0.664562
0.663296
0.661917
0.660452
0.6589
0.657249
0.655528
0.653692
0.65184
0.650009
0.588123
0.596028
0.601246
0.61286
0.625148
0.63719
0.646904
0.65406
0.658988
0.66222
0.664303
0.665585
0.666313
0.666625
0.666607
0.66632
0.665815
0.665123
0.664283
0.663296
0.662195
0.660983
0.659663
0.658264
0.656789
0.655228
0.653607
0.651885
0.65014
0.64835
0.584996
0.592459
0.596977
0.608232
0.620691
0.633118
0.643272
0.650783
0.65596
0.659351
0.66153
0.662877
0.663647
0.663994
0.66401
0.663755
0.663285
0.662631
0.661831
0.660889
0.659833
0.658676
0.657414
0.656081
0.654685
0.653217
0.651705
0.650111
0.648495
0.64677
0.58212
0.589131
0.592942
0.603756
0.616319
0.629085
0.639658
0.647522
0.652953
0.656505
0.658782
0.660193
0.661006
0.661384
0.661431
0.661204
0.660768
0.660151
0.659389
0.658489
0.657478
0.656372
0.655168
0.653901
0.652584
0.651214
0.649818
0.648368
0.646908
0.645279
0.579517
0.586053
0.589158
0.599457
0.612055
0.625108
0.636074
0.644284
0.649967
0.653685
0.656062
0.657536
0.658388
0.658796
0.65887
0.65867
0.658265
0.657681
0.656954
0.656095
0.655127
0.654071
0.652924
0.651724
0.650485
0.649214
0.647942
0.646651
0.645379
0.643891
0.577216
0.583226
0.585638
0.595362
0.607928
0.621207
0.632531
0.641075
0.647008
0.650894
0.653371
0.654907
0.655796
0.656229
0.656327
0.656153
0.655775
0.655222
0.654527
0.653707
0.65278
0.651771
0.650681
0.649546
0.648386
0.647215
0.646071
0.644955
0.643907
0.642624
0.575255
0.580654
0.582402
0.591491
0.603939
0.61736
0.628996
0.637859
0.644043
0.648106
0.650689
0.652287
0.653213
0.653672
0.653793
0.653642
0.65329
0.652765
0.652101
0.651318
0.65043
0.649468
0.648432
0.647362
0.646279
0.645208
0.644196
0.64327
0.642486
0.641499
0.573653
0.578285
0.579412
0.587794
0.600003
0.61346
0.625355
0.634534
0.640987
0.645248
0.647956
0.649628
0.6506
0.651089
0.651235
0.651111
0.650785
0.650291
0.649659
0.648911
0.648064
0.647148
0.646168
0.645162
0.644155
0.643184
0.642306
0.64158
0.641103
0.640547
0.572642
0.575975
0.576491
0.584196
0.596178
0.60967
0.621804
0.631281
0.637989
0.642436
0.645261
0.647001
0.648012
0.648529
0.648696
0.648594
0.648291
0.647822
0.647218
0.646503
0.645694
0.64482
0.643892
0.642945
0.64201
0.641132
0.640382
0.639859
0.639725
0.639785
0.571054
0.568543
0.56683
0.573417
0.585773
0.600135
0.613242
0.623531
0.630798
0.635549
0.63847
0.640181
0.641117
0.64156
0.64167
0.641541
0.641227
0.640768
0.640189
0.639518
0.638773
0.637982
0.637165
0.636355
0.635593
0.634945
0.634521
0.634536
0.635413
0.637786
0.549735
0.550362
0.551908
0.560186
0.572741
0.586318
0.598573
0.608336
0.615417
0.620225
0.623331
0.625266
0.626424
0.62707
0.627367
0.627413
0.627271
0.626983
0.626578
0.626085
0.625526
0.624928
0.624316
0.62373
0.62322
0.622869
0.62282
0.623352
0.625008
0.628439
0.528218
0.533577
0.539053
0.548567
0.560465
0.572679
0.583721
0.592741
0.599535
0.60436
0.607647
0.609824
0.611234
0.612118
0.612637
0.612891
0.612947
0.612851
0.612636
0.612332
0.611964
0.611558
0.611145
0.610764
0.610471
0.610352
0.610552
0.611343
0.613277
0.617003
0.508851
0.517649
0.525702
0.535589
0.546678
0.557813
0.567965
0.576462
0.583089
0.587996
0.591496
0.593935
0.59561
0.596749
0.597509
0.597992
0.598266
0.59838
0.598368
0.598261
0.598085
0.597869
0.597643
0.597447
0.597336
0.597393
0.597752
0.598669
0.600659
0.604423
0.490525
0.501225
0.510695
0.520767
0.531385
0.541847
0.551388
0.559508
0.566037
0.571063
0.574809
0.577546
0.579527
0.580962
0.582
0.582744
0.583264
0.58361
0.583816
0.583915
0.583934
0.583902
0.583849
0.583815
0.58385
0.584032
0.584486
0.585446
0.58738
0.591042
0.472319
0.483981
0.49428
0.504564
0.514935
0.524935
0.534025
0.541867
0.548344
0.553509
0.557518
0.560577
0.562898
0.564664
0.566016
0.567052
0.567845
0.568443
0.568884
0.569199
0.569417
0.569566
0.569676
0.569783
0.569936
0.570208
0.57071
0.571662
0.573486
0.576986
0.453969
0.46613
0.476918
0.487341
0.497522
0.507179
0.515951
0.523614
0.530088
0.535404
0.539675
0.543059
0.545729
0.547842
0.549524
0.550873
0.551955
0.552821
0.553509
0.554049
0.55447
0.5548
0.555065
0.555303
0.555557
0.555895
0.556419
0.557334
0.559022
0.562323
0.435379
0.447789
0.458819
0.469279
0.479302
0.488721
0.49729
0.504855
0.511362
0.516834
0.521354
0.525049
0.528058
0.530514
0.532531
0.534196
0.535575
0.536716
0.537657
0.538428
0.539056
0.539567
0.539987
0.540351
0.5407
0.541096
0.541632
0.542496
0.544035
0.547113
0.416473
0.428978
0.440091
0.450533
0.460437
0.469699
0.478143
0.485663
0.492224
0.497848
0.502603
0.506587
0.509917
0.512703
0.515046
0.517023
0.518695
0.52011
0.521305
0.522308
0.523144
0.523837
0.524414
0.524904
0.525348
0.525802
0.526349
0.527164
0.528549
0.531368
0.397211
0.409715
0.420826
0.431226
0.441041
0.450199
0.458566
0.466072
0.472701
0.478473
0.483445
0.487698
0.491325
0.494423
0.497075
0.499352
0.501309
0.502993
0.504436
0.505667
0.506709
0.507586
0.50832
0.508941
0.509484
0.51
0.510563
0.511333
0.512575
0.515137
0.377572
0.390019
0.401084
0.411433
0.421179
0.430263
0.438586
0.446101
0.452805
0.45872
0.463893
0.468391
0.472294
0.475681
0.478623
0.481184
0.483415
0.485356
0.487038
0.488489
0.489732
0.490788
0.491678
0.49243
0.493075
0.493661
0.49425
0.494986
0.496094
0.498375
0.357551
0.369906
0.3809
0.391191
0.400881
0.409917
0.418219
0.425758
0.432542
0.438593
0.443952
0.448675
0.45283
0.456482
0.459695
0.462522
0.46501
0.467194
0.469104
0.470766
0.472203
0.473433
0.474477
0.475358
0.476104
0.476759
0.47738
0.478095
0.479102
0.481141
0.337142
0.349382
0.360292
0.370524
0.38017
0.389175
0.397473
0.405048
0.411913
0.418093
0.423623
0.428551
0.432934
0.43683
0.440291
0.443365
0.44609
0.448501
0.450625
0.452485
0.454104
0.455498
0.456688
0.457697
0.458548
0.459279
0.459937
0.460632
0.461534
0.463319
0.316337
0.328447
0.339269
0.349447
0.359059
0.368048
0.376353
0.38397
0.390916
0.397217
0.402902
0.408016
0.412606
0.41672
0.420406
0.423704
0.426649
0.429271
0.431593
0.43364
0.43543
0.436979
0.438304
0.439426
0.440367
0.441165
0.441863
0.442563
0.44341
0.444982
0.295135
0.307103
0.317843
0.327972
0.33756
0.346541
0.354861
0.362522
0.369547
0.375959
0.381785
0.387064
0.391837
0.396147
0.400034
0.403533
0.406675
0.409487
0.41199
0.414204
0.416148
0.41784
0.419296
0.420534
0.42157
0.422431
0.423154
0.423828
0.42459
0.425942
0.273537
0.285353
0.29602
0.306111
0.315681
0.32466
0.332997
0.340703
0.347801
0.354313
0.360263
0.365687
0.370619
0.375099
0.37916
0.382835
0.386153
0.389135
0.391801
0.394168
0.396251
0.398064
0.399624
0.40095
0.402061
0.402987
0.403758
0.404447
0.405171
0.406324
0.25155
0.263205
0.273815
0.283876
0.293431
0.302409
0.310763
0.318509
0.325672
0.33227
0.338327
0.343872
0.348939
0.353562
0.35777
0.361594
0.365058
0.368183
0.370986
0.373486
0.375697
0.377631
0.379299
0.380712
0.381878
0.382825
0.383584
0.384231
0.384885
0.385832
0.229201
0.240678
0.251248
0.261287
0.270823
0.279793
0.288159
0.295939
0.303156
0.309826
0.315968
0.32161
0.326782
0.331517
0.335841
0.339785
0.343369
0.346614
0.349532
0.352136
0.354437
0.356449
0.35819
0.359675
0.360914
0.361923
0.362717
0.363354
0.36395
0.364698
0.206548
0.217817
0.228357
0.23837
0.247872
0.256822
0.265191
0.272994
0.28025
0.286973
0.293177
0.298888
0.304136
0.30895
0.313355
0.317381
0.321049
0.32438
0.327389
0.330089
0.332483
0.334576
0.33637
0.337877
0.339112
0.3401
0.340863
0.341451
0.341972
0.342487
0.183709
0.194712
0.205203
0.215163
0.2246
0.233507
0.241864
0.249676
0.256954
0.263705
0.269943
0.275689
0.280974
0.285828
0.290278
0.294353
0.298071
0.301449
0.304499
0.307232
0.309663
0.311805
0.313663
0.315236
0.316519
0.317522
0.31826
0.318787
0.319224
0.319534
0.160886
0.171513
0.181882
0.191724
0.201041
0.209868
0.21819
0.225992
0.233269
0.240022
0.246261
0.252008
0.257292
0.262142
0.266588
0.270661
0.274389
0.277792
0.280878
0.283646
0.286092
0.288219
0.290042
0.291577
0.292831
0.293808
0.294501
0.294943
0.295251
0.295262
0.138389
0.148458
0.158542
0.168137
0.177243
0.185934
0.194187
0.201951
0.209195
0.215911
0.222106
0.227804
0.233038
0.237838
0.242235
0.246256
0.249927
0.253273
0.256312
0.259058
0.261516
0.263678
0.265531
0.267069
0.268296
0.269225
0.269857
0.270214
0.270404
0.270167
0.116617
0.12586
0.135386
0.144528
0.153287
0.161756
0.169887
0.177573
0.18475
0.191393
0.197507
0.203111
0.208236
0.212919
0.217203
0.221129
0.224727
0.228007
0.230967
0.233609
0.235948
0.238003
0.239779
0.241267
0.24245
0.243314
0.243841
0.244039
0.244011
0.243382
0.0959846
0.10408
0.112681
0.121083
0.129301
0.137422
0.145341
0.152879
0.159918
0.16642
0.172385
0.177832
0.182786
0.187285
0.191374
0.195099
0.198509
0.201639
0.204502
0.207091
0.209388
0.21138
0.213071
0.214471
0.215583
0.216399
0.216873
0.216957
0.216708
0.215717
0.0768358
0.083464
0.0907388
0.0980664
0.105493
0.113084
0.120662
0.127961
0.1348
0.141108
0.146864
0.152073
0.156769
0.161011
0.16486
0.168357
0.171528
0.174392
0.17698
0.179321
0.181425
0.183279
0.184856
0.186137
0.187118
0.187804
0.188157
0.188076
0.187522
0.186002
0.0593802
0.0643063
0.0699134
0.075831
0.0821747
0.0889745
0.0959704
0.102818
0.109292
0.115285
0.120737
0.12562
0.129953
0.133804
0.137265
0.14042
0.14332
0.145977
0.148379
0.150518
0.152406
0.154058
0.155481
0.156652
0.157546
0.158158
0.158448
0.158244
0.157358
0.15535
0.0436601
0.046836
0.0505821
0.0548005
0.05979
0.0655425
0.0716945
0.077864
0.0837991
0.0893326
0.0943454
0.0987831
0.102663
0.106047
0.109011
0.111639
0.114015
0.116201
0.118216
0.12004
0.12165
0.123039
0.12421
0.125155
0.125857
0.126324
0.126542
0.126266
0.125039
0.122404
0.0295452
0.0311443
0.0330863
0.0354113
0.0387711
0.0430632
0.0478638
0.0528961
0.0579588
0.0628
0.0671783
0.0709735
0.0742089
0.0769899
0.0794286
0.0816051
0.0835639
0.0853249
0.0869051
0.088327
0.0896031
0.090727
0.0916805
0.0924367
0.0929644
0.0932761
0.0934299
0.0932074
0.0918327
0.0888211
0.0166747
0.0170433
0.0174032
0.0180623
0.0201584
0.0229258
0.0259953
0.0294144
0.0331182
0.0368366
0.0402534
0.0431447
0.0454455
0.0472544
0.0487602
0.0501259
0.0514116
0.0525933
0.0536346
0.054538
0.0553345
0.056043
0.0566558
0.057147
0.0574718
0.0576022
0.057619
0.0574912
0.0563225
0.0532362
0.00497708
0.00392524
0.000295533
-0.00050928
0.00177501
0.00348543
0.00480249
0.00635929
0.00827273
0.0103558
0.0123646
0.0140991
0.0154554
0.01645
0.0171887
0.0177905
0.0183339
0.0188387
0.019291
0.0196816
0.020019
0.0203133
0.0205648
0.0207686
0.0209063
0.020926
0.0208331
0.0208006
0.0205125
0.0184059
0.551877
0.533706
0.515097
0.497079
0.47932
0.461279
0.442956
0.424363
0.405462
0.386234
0.366668
0.34675
0.326478
0.305848
0.284867
0.263553
0.241928
0.220061
0.198029
0.175972
0.154088
0.132647
0.11199
0.0924396
0.0742789
0.0576829
0.0426919
0.0291829
0.0167827
0.00529781
0.550091
0.530482
0.511638
0.49339
0.475525
0.457466
0.439172
0.420629
0.401788
0.382625
0.36313
0.343285
0.323092
0.302544
0.281648
0.260426
0.238899
0.217143
0.195239
0.173339
0.151652
0.130455
0.110098
0.0908887
0.0730922
0.0568579
0.0421964
0.0289559
0.0167432
0.00536487
0.547532
0.526884
0.507988
0.489665
0.471764
0.453717
0.435455
0.416956
0.398169
0.379067
0.359639
0.339867
0.319751
0.299286
0.278476
0.257348
0.235921
0.214278
0.192505
0.170759
0.149262
0.128293
0.108204
0.089293
0.0718222
0.0559299
0.0416037
0.0286536
0.0166488
0.00540396
0.544472
0.523246
0.504335
0.485966
0.468032
0.450003
0.431779
0.413326
0.394593
0.375551
0.356188
0.336486
0.316445
0.296061
0.275335
0.254298
0.23297
0.21144
0.189797
0.168208
0.146908
0.126177
0.106368
0.0877692
0.0706307
0.0550736
0.0410628
0.0283786
0.0165605
0.0054294
0.541065
0.519576
0.500675
0.482293
0.464341
0.446337
0.428152
0.409747
0.391066
0.372081
0.352781
0.333147
0.313179
0.292872
0.272229
0.251281
0.230052
0.208632
0.187122
0.165693
0.144594
0.124107
0.104586
0.0863077
0.0695079
0.0542852
0.040577
0.0281369
0.0164839
0.00544467
0.537374
0.515877
0.497016
0.47865
0.460693
0.44272
0.424577
0.406218
0.387589
0.368658
0.349419
0.329852
0.309953
0.289721
0.269158
0.248298
0.227166
0.205858
0.184481
0.163217
0.142323
0.122087
0.10286
0.0849079
0.0684481
0.053555
0.0401369
0.0279214
0.0164159
0.00545104
0.533463
0.512152
0.493364
0.475042
0.45709
0.439154
0.421054
0.40274
0.384162
0.365286
0.346105
0.326601
0.306769
0.28661
0.266125
0.24535
0.224315
0.203117
0.181877
0.160781
0.140098
0.120121
0.101194
0.0835733
0.0674529
0.0528824
0.0397401
0.0277297
0.0163555
0.00545035
0.529391
0.508408
0.489724
0.47147
0.453538
0.435639
0.417584
0.399315
0.380786
0.361964
0.34284
0.323396
0.303629
0.283539
0.26313
0.242439
0.221499
0.200413
0.179312
0.158388
0.137923
0.11821
0.0995907
0.0823058
0.0665234
0.0522673
0.0393856
0.027561
0.0163025
0.00544481
0.525213
0.504654
0.486102
0.467937
0.450036
0.432177
0.414167
0.395944
0.377464
0.358694
0.339625
0.320238
0.300534
0.280512
0.260176
0.239566
0.218721
0.197748
0.176787
0.15604
0.135798
0.116357
0.0980516
0.0811052
0.0656585
0.0517076
0.039071
0.0274141
0.0162561
0.00543745
0.520976
0.5009
0.482505
0.464444
0.446587
0.428769
0.410805
0.392628
0.374196
0.355476
0.33646
0.31713
0.297487
0.27753
0.257264
0.236733
0.215984
0.195124
0.174305
0.153738
0.133725
0.114563
0.0965763
0.0799701
0.0648556
0.0512001
0.0387928
0.0272864
0.0162151
0.00542573
0.51672
0.497156
0.478938
0.460991
0.443191
0.425416
0.407498
0.389367
0.370982
0.352312
0.333347
0.314073
0.294489
0.274594
0.254396
0.233943
0.213288
0.192542
0.171867
0.151486
0.131707
0.112829
0.0951652
0.078899
0.0641119
0.0507412
0.0385473
0.0271754
0.0161788
0.00541265
0.512478
0.49343
0.475406
0.457583
0.439849
0.422121
0.404249
0.386162
0.367823
0.349201
0.330287
0.311068
0.29154
0.271704
0.251574
0.231198
0.210637
0.190005
0.169477
0.149286
0.129747
0.111158
0.0938191
0.0778917
0.0634256
0.0503278
0.0383315
0.0270792
0.0161466
0.00539931
0.508278
0.489732
0.471915
0.454221
0.436563
0.418883
0.401056
0.383013
0.364719
0.346145
0.327281
0.308113
0.28864
0.268864
0.2488
0.2285
0.208031
0.187516
0.167138
0.147142
0.127848
0.109553
0.0925401
0.0769487
0.0627952
0.0499574
0.0381429
0.0269959
0.0161182
0.00538644
0.504142
0.486074
0.468471
0.450911
0.433333
0.415704
0.397923
0.379922
0.361673
0.343146
0.324329
0.305212
0.285791
0.266073
0.246074
0.22585
0.205473
0.185075
0.164853
0.145058
0.126014
0.108017
0.0913299
0.0760706
0.0622197
0.0496278
0.0379792
0.026924
0.0160933
0.00537457
0.500084
0.482464
0.465079
0.447654
0.430163
0.412585
0.394851
0.376892
0.358685
0.340204
0.321432
0.302363
0.282995
0.263333
0.243399
0.223249
0.202965
0.182687
0.162624
0.143035
0.124248
0.106551
0.0901896
0.0752571
0.0616974
0.0493362
0.0378379
0.0268619
0.0160714
0.00536399
0.496119
0.478912
0.461746
0.444455
0.427054
0.40953
0.391841
0.373924
0.355759
0.33732
0.318593
0.29957
0.280252
0.260646
0.240775
0.220698
0.200508
0.180352
0.160453
0.141076
0.122549
0.105157
0.0891195
0.0745067
0.0612256
0.0490796
0.0377162
0.0268081
0.0160522
0.00535486
0.492253
0.475427
0.458476
0.441316
0.424008
0.406538
0.388895
0.37102
0.352894
0.334497
0.315811
0.296833
0.277565
0.258012
0.238202
0.218198
0.198103
0.178072
0.158341
0.13918
0.12092
0.103834
0.0881186
0.0738169
0.0608013
0.0488545
0.0376115
0.0267612
0.0160354
0.00534724
0.488495
0.472014
0.455273
0.438242
0.421026
0.403613
0.386015
0.36818
0.350092
0.331735
0.31309
0.294155
0.274934
0.255432
0.235682
0.215751
0.195752
0.175849
0.156289
0.137349
0.119359
0.102581
0.087185
0.0731849
0.0604212
0.0486578
0.0375215
0.0267202
0.016021
0.00534115
0.48485
0.468682
0.452143
0.435235
0.41811
0.400753
0.3832
0.365405
0.347355
0.329036
0.31043
0.291537
0.272361
0.252908
0.233217
0.213358
0.193456
0.173684
0.154298
0.135585
0.117868
0.1014
0.0863171
0.0726083
0.0600825