/*--------------------------------*- C++ -*----------------------------------*\
  =========                 |
  \\      /  F ield         | OpenFOAM: The Open Source CFD Toolbox
   \\    /   O peration     | Website:  https://openfoam.org
    \\  /    A nd           | Version:  7
     \\/     M anipulation  |
\*---------------------------------------------------------------------------*/
FoamFile
{
    version     2.0;
    format      ascii;
    class       volScalarField;
    location    "3.3";
    object      p;
}
// * * * * * * * * * * * * * * * * * * * * * * * * * * * * * * * * * * * * * //

dimensions      [0 2 -2 0 0 0 0];

internalField   nonuniform List<scalar> 
2000
(
0.382297
0.387975
0.392351
0.396853
0.401089
0.404926
0.408344
0.411356
0.413997
0.41625
0.379264
0.385373
0.389982
0.394632
0.39892
0.402728
0.40605
0.40891
0.411341
0.413342
0.37595
0.382616
0.387498
0.392321
0.396679
0.400474
0.403719
0.40645
0.4087
0.410436
0.372357
0.379703
0.384884
0.389893
0.39433
0.398121
0.401303
0.40393
0.40604
0.407507
0.368457
0.376612
0.382115
0.387318
0.391831
0.395619
0.398747
0.401295
0.403318
0.404531
0.364235
0.373336
0.379176
0.384567
0.389146
0.392918
0.395991
0.398482
0.40048
0.401487
0.359696
0.369877
0.376061
0.381625
0.386243
0.389975
0.392977
0.395415
0.397454
0.398354
0.354873
0.366255
0.372776
0.378485
0.383104
0.386755
0.389654
0.392039
0.39422
0.395234
0.349828
0.362506
0.369342
0.375154
0.379717
0.383222
0.385959
0.388299
0.390879
0.392583
0.344656
0.358684
0.3658
0.371658
0.376082
0.379313
0.381693
0.383718
0.386367
0.388912
0.420609
0.428881
0.433214
0.437837
0.441274
0.444407
0.446596
0.448543
0.449576
0.450246
0.417276
0.425809
0.430004
0.434605
0.438053
0.441204
0.443449
0.445432
0.44652
0.447223
0.413647
0.422697
0.42672
0.431305
0.434769
0.437946
0.440257
0.442285
0.443435
0.444174
0.409675
0.419512
0.423356
0.427933
0.43142
0.434632
0.437018
0.439098
0.440316
0.441091
0.405339
0.416204
0.419901
0.424481
0.428003
0.431258
0.433727
0.435865
0.437155
0.437967
0.400667
0.412719
0.416348
0.420943
0.424517
0.427823
0.430384
0.432583
0.433948
0.434792
0.395727
0.408986
0.412676
0.417304
0.420954
0.424322
0.426983
0.429245
0.430686
0.431558
0.390549
0.404797
0.408765
0.41348
0.417258
0.420721
0.423502
0.425837
0.427359
0.428256
0.385413
0.399949
0.40447
0.409372
0.413373
0.416989
0.419928
0.42235
0.423961
0.424879
0.38253
0.395815
0.400697
0.405668
0.409812
0.413481
0.416481
0.418905
0.420538
0.42143
0.385504
0.392751
0.396475
0.40045
0.403856
0.406701
0.409119
0.411046
0.412396
0.413038
0.359243
0.368703
0.375019
0.380996
0.38596
0.389861
0.392993
0.395338
0.397028
0.397818
0.330133
0.34171
0.350086
0.357881
0.364509
0.369781
0.373898
0.376934
0.379037
0.380012
0.297626
0.311237
0.321466
0.331034
0.33936
0.346091
0.351344
0.355307
0.358114
0.359509
0.260737
0.276104
0.288123
0.299469
0.309505
0.317713
0.324102
0.328829
0.331952
0.333422
0.218066
0.235326
0.24913
0.262156
0.273767
0.283375
0.291007
0.296974
0.301363
0.303636
0.171167
0.189669
0.20515
0.219471
0.232142
0.242581
0.250661
0.256501
0.260217
0.261972
0.116204
0.136675
0.153481
0.168437
0.181491
0.192436
0.201432
0.20875
0.214191
0.216912
0.0630718
0.0812246
0.0976424
0.111305
0.122258
0.130608
0.136727
0.141331
0.144916
0.147046
0.00199931
0.0191558
0.0314912
0.0415335
0.0500287
0.0571464
0.0625958
0.0667019
0.069338
0.0705757
0.365163
0.342124
0.314781
0.281489
0.244037
0.200132
0.155049
0.0982128
0.0549263
-0.0149563
0.361954
0.336107
0.308023
0.274075
0.236311
0.192054
0.147425
0.0898559
0.0504548
-0.0224747
0.357298
0.32944
0.30072
0.266329
0.228323
0.183885
0.13957
0.081661
0.0457011
-0.0298422
0.351683
0.322994
0.293765
0.258999
0.220693
0.176077
0.131893
0.0738981
0.0409459
-0.0372318
0.345893
0.317013
0.287257
0.2521
0.213424
0.168624
0.124408
0.066576
0.0360805
-0.0453475
0.340373
0.311604
0.281279
0.245683
0.206562
0.161566
0.117187
0.0598058
0.0309908
-0.0551971
0.335509
0.306885
0.275944
0.239832
0.200183
0.154961
0.110332
0.0537572
0.0258955
-0.0647146
0.331644
0.302976
0.271356
0.234627
0.194355
0.148862
0.103935
0.0485232
0.0214786
-0.0641318
0.329047
0.299994
0.267608
0.230145
0.189143
0.143309
0.0980599
0.0440617
0.0178647
-0.0544295
0.327904
0.298047
0.264778
0.226451
0.1846
0.138336
0.092737
0.0402789
0.0149755
-0.0459484
0.328322
0.29723
0.262931
0.223604
0.180773
0.133964
0.0879718
0.0370525
0.0127479
-0.0394552
0.330354
0.297623
0.262129
0.221664
0.177711
0.13022
0.0837663
0.0342263
0.00987713
-0.0330849
0.334008
0.299294
0.262436
0.220696
0.175466
0.127133
0.0801349
0.0317467
0.00731005
-0.0276802
0.33924
0.302311
0.263905
0.220748
0.174072
0.124717
0.0771181
0.0296186
0.00517451
-0.0232257
0.345856
0.306715
0.266495
0.221764
0.17347
0.122922
0.0747049
0.0278094
0.00343274
-0.0194831
0.353625
0.312252
0.270007
0.22359
0.173552
0.121665
0.0725395
0.0264976
0.0021039
-0.0162905
0.362286
0.31894
0.274624
0.226492
0.174602
0.121163
0.0709574
0.0254318
0.00111845
-0.0135523
0.372418
0.328068
0.281816
0.231862
0.177799
0.122255
0.0703996
0.0247751
0.000426481
-0.0111978
0.3846
0.340624
0.292416
0.24024
0.183539
0.125264
0.0711076
0.0247771
8.41983e-05
-0.00912486
0.392419
0.349207
0.298958
0.24462
0.186029
0.126148
0.070998
0.0250554
0.000315837
-0.00716848
0.390925
0.35017
0.297197
0.240005
0.180131
0.12018
0.0670142
0.0254409
0.00256854
-0.00281724
0.397782
0.353422
0.296053
0.233066
0.168336
0.107103
0.0556341
0.0195702
0.00245299
-0.000664351
0.403491
0.355602
0.29475
0.226963
0.159045
0.0985178
0.0512408
0.0209039
0.00685615
0.00180061
0.411023
0.360147
0.295054
0.222703
0.152636
0.0939873
0.0516613
0.0263106
0.0130259
0.00396964
0.421496
0.368015
0.298599
0.222418
0.151731
0.0961773
0.0584351
0.0354919
0.0200813
0.00614597
0.435859
0.380466
0.307632
0.228931
0.158734
0.106102
0.0709025
0.0471603
0.0274674
0.00861084
0.454302
0.399074
0.324847
0.244866
0.174853
0.122974
0.0869409
0.0594866
0.0345234
0.0110929
0.477166
0.424485
0.350365
0.269098
0.197478
0.143429
0.103688
0.070912
0.0408661
0.0132231
0.500615
0.451162
0.377911
0.29526
0.220748
0.162725
0.11811
0.0803003
0.046052
0.0147501
0.515171
0.468631
0.396501
0.312986
0.236047
0.17472
0.12676
0.0859641
0.049195
0.0155478
0.429682
0.432372
0.435299
0.441552
0.450846
0.463788
0.479802
0.497809
0.517876
0.529227
0.440065
0.442901
0.445989
0.45221
0.461384
0.473893
0.489096
0.505353
0.52365
0.53366
0.449149
0.450864
0.454386
0.460832
0.470124
0.482345
0.496898
0.511928
0.528274
0.537137
0.457813
0.458478
0.462069
0.468513
0.477738
0.489531
0.503339
0.517265
0.531864
0.539774
0.465674
0.46574
0.469283
0.475576
0.484564
0.495794
0.508745
0.521522
0.534554
0.541591
0.472553
0.472294
0.475788
0.481899
0.490581
0.501192
0.513254
0.524886
0.536484
0.542703
0.478464
0.478058
0.481488
0.48741
0.495752
0.505735
0.516925
0.52748
0.537776
0.543251
0.483439
0.483055
0.486404
0.492132
0.500114
0.509477
0.519834
0.529399
0.538536
0.543349
0.487526
0.48731
0.49058
0.496118
0.503732
0.512497
0.522073
0.530739
0.538854
0.543088
0.490798
0.490855
0.494066
0.499422
0.506676
0.514877
0.523731
0.531591
0.538812
0.542542
0.493349
0.49374
0.496917
0.502105
0.509014
0.516694
0.524891
0.532034
0.538476
0.54177
0.495283
0.496021
0.499196
0.504229
0.510817
0.51802
0.525625
0.532137
0.537904
0.540822
0.496706
0.497763
0.500972
0.505862
0.512152
0.518925
0.525999
0.531959
0.537142
0.539737
0.497718
0.499035
0.502308
0.507065
0.513085
0.519472
0.526072
0.531551
0.536229
0.538543
0.4984
0.499906
0.503267
0.507902
0.513675
0.519717
0.525896
0.530954
0.535195
0.537266
0.498818
0.500446
0.503909
0.508432
0.513979
0.519713
0.525515
0.530207
0.534065
0.535925
0.499023
0.50073
0.504288
0.508709
0.514046
0.519506
0.524969
0.52934
0.532861
0.534533
0.499025
0.500789
0.504412
0.508739
0.513888
0.51911
0.524278
0.528371
0.531597
0.5331
0.498691
0.50058
0.504237
0.50849
0.513481
0.518514
0.52344
0.527308
0.530279
0.531633
0.497965
0.500384
0.504139
0.508353
0.51316
0.517977
0.522616
0.526242
0.528951
0.530168
0.497405
0.501976
0.506244
0.510389
0.514457
0.518277
0.521614
0.524173
0.525978
0.526849
0.499198
0.502701
0.50635
0.509819
0.513
0.51582
0.518076
0.519643
0.520645
0.521084
0.500329
0.50298
0.505899
0.508588
0.510871
0.512726
0.514042
0.51469
0.515011
0.51503
0.500475
0.502576
0.50489
0.506901
0.508387
0.509346
0.509761
0.509502
0.509088
0.508636
0.499716
0.501422
0.503203
0.504625
0.505425
0.505579
0.505141
0.50398
0.50272
0.501657
0.498215
0.499699
0.501032
0.501918
0.502094
0.501481
0.500185
0.498055
0.495721
0.493708
0.496042
0.497596
0.498567
0.498939
0.498501
0.497113
0.494879
0.491659
0.487784
0.483982
0.493653
0.495559
0.49617
0.496
0.494836
0.492537
0.48912
0.484369
0.478037
0.469611
0.492582
0.494686
0.495021
0.494479
0.492631
0.489327
0.484244
0.477324
0.468931
0.45209
0.49666
0.498146
0.49891
0.499567
0.499318
0.498215
0.496966
0.495496
0.478943
0.393391
0.491763
0.494685
0.496196
0.497259
0.497364
0.497048
0.496442
0.496097
0.495808
0.498295
0.489442
0.493512
0.495173
0.496472
0.49679
0.496665
0.496292
0.496277
0.496244
0.498344
0.487878
0.493049
0.494762
0.496135
0.496485
0.496361
0.495964
0.495901
0.495912
0.497661
0.486609
0.492559
0.494331
0.495793
0.496162
0.496037
0.495614
0.495483
0.495481
0.496891
0.485464
0.491954
0.493812
0.495387
0.495786
0.495672
0.49524
0.495074
0.495075
0.496225
0.484456
0.491297
0.493284
0.494966
0.495396
0.495281
0.494834
0.494629
0.494638
0.495603
0.483655
0.490555
0.492809
0.494546
0.495008
0.494881
0.494401
0.494142
0.494145
0.494968
0.482968
0.489744
0.492358
0.494131
0.494629
0.494479
0.493954
0.493625
0.493604
0.494308
0.482329
0.4889
0.491913
0.493725
0.494267
0.494089
0.493504
0.493088
0.493032
0.493629
0.481712
0.488024
0.491476
0.493337
0.493933
0.493722
0.493064
0.492543
0.492437
0.492934
0.481091
0.487107
0.491049
0.492976
0.493638
0.493393
0.492649
0.492002
0.491828
0.492233
0.480432
0.486147
0.49063
0.492647
0.493392
0.493114
0.492272
0.491476
0.491214
0.491537
0.479683
0.48515
0.490214
0.492356
0.493203
0.4929
0.491948
0.490977
0.490605
0.490861
0.478781
0.484123
0.489787
0.492104
0.493079
0.492763
0.491691
0.490516
0.49001
0.490228
0.477656
0.483074
0.489334
0.491891
0.493023
0.492714
0.491516
0.490108
0.489436
0.489666
0.476231
0.482009
0.488837
0.491711
0.493035
0.49276
0.491438
0.489765
0.488893
0.48921
0.474447
0.480936
0.48829
0.491563
0.493117
0.49291
0.491467
0.489496
0.488383
0.488903
0.47222
0.47983
0.487691
0.49145
0.493279
0.493177
0.491603
0.48926
0.487857
0.488792
0.469201
0.478496
0.486937
0.491306
0.493485
0.493546
0.491849
0.489046
0.487265
0.48892
0.465445
0.476743
0.485796
0.490872
0.493514
0.493917
0.492371
0.489444
0.48735
0.489468
0.459514
0.472568
0.482351
0.488903
0.492899
0.494771
0.495013
0.494272
0.493424
0.493774
0.464272
0.475541
0.484611
0.491174
0.495361
0.49738
0.497609
0.496773
0.495874
0.495377
0.468273
0.478823
0.487583
0.49429
0.498784
0.501073
0.501385
0.500438
0.499193
0.497897
0.471797
0.482003
0.490856
0.497985
0.503005
0.505772
0.506311
0.505377
0.504096
0.502407
0.47533
0.485549
0.494713
0.502473
0.508139
0.511525
0.512256
0.51117
0.510059
0.508629
0.478891
0.489279
0.498999
0.507835
0.514466
0.518556
0.519427
0.517997
0.517775
0.518471
0.481911
0.492721
0.503081
0.512697
0.521347
0.527098
0.528587
0.527022
0.529697
0.537891
0.484612
0.495891
0.507311
0.518617
0.529372
0.537802
0.541352
0.541762
0.553102
0.585596
0.486442
0.498268
0.510714
0.523919
0.537753
0.550648
0.55863
0.56309
0.596464
0.688435
0.487576
0.499819
0.513188
0.528376
0.546191
0.566208
0.586348
0.615824
0.706478
0.908603
0.449371
0.456603
0.460765
0.465331
0.469076
0.47287
0.475451
0.478031
0.47934
0.480307
0.445078
0.453828
0.457834
0.462799
0.466525
0.470318
0.472761
0.475227
0.476383
0.47725
0.442338
0.451555
0.455746
0.460637
0.464143
0.467791
0.470095
0.472377
0.473442
0.474211
0.439845
0.44917
0.453431
0.458226
0.461705
0.465171
0.467366
0.469484
0.470497
0.471192
0.437264
0.446546
0.45085
0.455615
0.459076
0.462412
0.464551
0.466581
0.467544
0.468189
0.434663
0.443769
0.448131
0.452879
0.456323
0.459569
0.461676
0.463645
0.46458
0.465196
0.432047
0.440899
0.445317
0.450043
0.453475
0.456658
0.45875
0.460682
0.461603
0.462208
0.429374
0.437956
0.442412
0.447113
0.450538
0.453684
0.455777
0.45769
0.458617
0.459224
0.426606
0.43496
0.439422
0.444096
0.447521
0.450649
0.45276
0.45467
0.45562
0.45624
0.4237
0.431931
0.436354
0.441001
0.444431
0.447555
0.4497
0.451621
0.452608
0.453249
0.339485
0.354866
0.362215
0.368056
0.372259
0.375064
0.376768
0.377605
0.377369
0.373859
0.33449
0.351166
0.358683
0.364451
0.368391
0.370762
0.37187
0.371887
0.370491
0.366486
0.329877
0.347701
0.355308
0.360954
0.364615
0.366587
0.367211
0.366688
0.364858
0.361241
0.325859
0.344603
0.352214
0.357689
0.361063
0.362665
0.362873
0.361922
0.359813
0.356448
0.32266
0.342024
0.349544
0.354805
0.357888
0.359149
0.358997
0.357692
0.355355
0.352068
0.320509
0.340127
0.34746
0.352467
0.355263
0.356213
0.355741
0.354124
0.351554
0.348176
0.319626
0.339086
0.346135
0.350854
0.353369
0.354035
0.353272
0.351359
0.348524
0.34492
0.320227
0.339082
0.345751
0.350151
0.352388
0.352791
0.351756
0.349554
0.346423
0.342503
0.322491
0.340291
0.346486
0.350534
0.352495
0.352647
0.351351
0.348862
0.345419
0.341139
0.326406
0.342787
0.348451
0.35213
0.353817
0.353727
0.352179
0.349412
0.345658
0.341013
0.331656
0.346462
0.351637
0.354978
0.356415
0.356102
0.354318
0.35129
0.347247
0.342266
0.339095
0.351834
0.356394
0.359319
0.360455
0.359888
0.357855
0.354568
0.350261
0.34499
0.348527
0.358805
0.362663
0.365114
0.365907
0.365061
0.362768
0.359233
0.3547
0.34921
0.359764
0.367292
0.37039
0.372312
0.372717
0.371561
0.368996
0.365221
0.360504
0.35488
0.372644
0.377209
0.379487
0.380819
0.380783
0.379281
0.376425
0.372412
0.36755
0.361872
0.38694
0.388403
0.389805
0.390484
0.389951
0.388064
0.384898
0.380641
0.375655
0.369988
0.402359
0.400658
0.401136
0.401103
0.400025
0.397719
0.394225
0.389714
0.384586
0.378927
0.418547
0.413707
0.413224
0.412435
0.410776
0.408028
0.404192
0.399392
0.393985
0.388258
0.435112
0.427236
0.42578
0.424215
0.421965
0.418777
0.414596
0.4094
0.40333
0.397283
0.451626
0.440904
0.438493
0.436163
0.433357
0.429801
0.425384
0.419836
0.412875
0.406036
0.4677
0.454384
0.451053
0.447992
0.444695
0.440912
0.436554
0.431258
0.424657
0.420798
0.483135
0.467401
0.463158
0.459393
0.45565
0.451692
0.447429
0.442572
0.437021
0.434282
0.497354
0.479554
0.474479
0.470068
0.465924
0.461808
0.457604
0.453082
0.448235
0.445753
0.509974
0.490551
0.484755
0.479781
0.475289
0.471042
0.466893
0.462645
0.45829
0.455894
0.520741
0.500169
0.493788
0.48835
0.483582
0.47924
0.47516
0.471163
0.467211
0.464872
0.529486
0.508252
0.501436
0.495654
0.490692
0.486309
0.482321
0.478567
0.474986
0.472717
0.536123
0.514706
0.507621
0.501625
0.496564
0.492201
0.48834
0.484836
0.481614
0.479447
0.540648
0.519501
0.512318
0.506248
0.50119
0.496916
0.493223
0.489982
0.487113
0.485085
0.543135
0.522668
0.515555
0.509551
0.504601
0.500488
0.497007
0.494046
0.491527
0.489672
0.543731
0.52429
0.517407
0.511602
0.506862
0.502982
0.499759
0.497094
0.49492
0.493272
0.542684
0.524518
0.518
0.512514
0.508076
0.504493
0.501569
0.499216
0.497381
0.495967
0.540169
0.523473
0.517432
0.512372
0.508323
0.505102
0.50252
0.500499
0.499001
0.497849
0.536407
0.521325
0.515855
0.511314
0.507729
0.504925
0.502723
0.501052
0.499887
0.499017
0.531636
0.518254
0.513428
0.509477
0.506416
0.504076
0.502287
0.500981
0.500144
0.49957
0.526083
0.514435
0.510302
0.506993
0.504503
0.502664
0.501314
0.500387
0.499873
0.499601
0.519963
0.510034
0.50662
0.503987
0.502101
0.500791
0.499902
0.499365
0.499167
0.499193
0.513472
0.505206
0.502517
0.500577
0.499314
0.49855
0.498138
0.498003
0.498114
0.498425
0.506782
0.50009
0.498116
0.496868
0.496234
0.496026
0.4961
0.496378
0.496796
0.497369
0.500041
0.494808
0.493522
0.492952
0.492942
0.493291
0.493854
0.494551
0.495283
0.496078
0.493377
0.489466
0.488828
0.488908
0.489507
0.490406
0.491458
0.492594
0.493737
0.494779
0.486869
0.484141
0.4841
0.484792
0.485974
0.487413
0.488956
0.490613
0.492595
0.494277
0.480455
0.478844
0.479379
0.48065
0.482378
0.484313
0.486282
0.488275
0.490488
0.49217
0.474298
0.473676
0.474736
0.476534
0.478763
0.481151
0.483509
0.485799
0.488175
0.489924
0.468447
0.468709
0.470215
0.472483
0.475167
0.477974
0.480705
0.483306
0.485896
0.487824
0.462954
0.463945
0.465842
0.468525
0.471622
0.474815
0.477899
0.480804
0.483627
0.48581
0.45782
0.459402
0.461636
0.464684
0.468143
0.47169
0.475106
0.4783
0.481354
0.48388
0.453037
0.455091
0.457607
0.460966
0.464745
0.468611
0.472333
0.475806
0.479068
0.481734
0.448586
0.451006
0.453755
0.457376
0.461434
0.465582
0.469585
0.47332
0.476787
0.479657
0.444447
0.447131
0.450071
0.453911
0.458205
0.462602
0.466859
0.470837
0.474501
0.47762
0.440683
0.443494
0.446568
0.450575
0.455061
0.459669
0.46415
0.468345
0.472187
0.475563
0.437496
0.440218
0.443316
0.447409
0.452022
0.45679
0.461453
0.465834
0.469827
0.473452
0.434313
0.436999
0.440142
0.444315
0.449035
0.453934
0.458751
0.46329
0.467405
0.471253
0.431222
0.433889
0.437074
0.441305
0.446102
0.451099
0.456036
0.460701
0.464904
0.468936
0.428259
0.430908
0.434116
0.438378
0.44322
0.448279
0.453299
0.458056
0.462311
0.466476
0.4254
0.428034
0.431252
0.435524
0.440382
0.445469
0.450536
0.455351
0.459619
0.463857
0.422617
0.425248
0.428469
0.432734
0.437584
0.442669
0.44775
0.452586
0.456828
0.461083
0.419891
0.422537
0.425758
0.430003
0.434825
0.439883
0.444947
0.449773
0.453953
0.458175
0.417207
0.41989
0.42311
0.427329
0.432107
0.437116
0.442138
0.446931
0.451017
0.455138
0.414555
0.417299
0.420523
0.42471
0.429434
0.434378
0.439335
0.444063
0.448002
0.451858
0.411936
0.414762
0.417994
0.422148
0.426813
0.431687
0.436568
0.441229
0.445099
0.448567
0.409332
0.412266
0.41551
0.419633
0.42424
0.429056
0.433899
0.438712
0.443612
0.44801
0.40663
0.409759
0.41305
0.417156
0.4217
0.426429
0.43116
0.435854
0.440723
0.444912
0.403923
0.407282
0.410632
0.414725
0.419196
0.423808
0.428389
0.432889
0.437483
0.441354
0.401236
0.404843
0.408261
0.412346
0.416742
0.421229
0.425654
0.429975
0.434322
0.437946
0.398566
0.402432
0.405932
0.41002
0.414347
0.418709
0.422976
0.427115
0.431222
0.434642
0.395906
0.400043
0.40364
0.407746
0.412015
0.416258
0.420365
0.424313
0.428176
0.431416
0.393241
0.397663
0.401377
0.40552
0.409745
0.413878
0.417829
0.421581
0.425196
0.428264
0.390547
0.395274
0.399128
0.403331
0.407531
0.411566
0.415367
0.418924
0.422289
0.425179
0.387799
0.392852
0.396873
0.401161
0.405357
0.409312
0.412974
0.41634
0.419456
0.422154
0.385015
0.390401
0.394606
0.398999
0.403211
0.407102
0.410636
0.41382
0.416694
0.419181
)
;

boundaryField
{
    inlet
    {
        type            zeroGradient;
    }
    outlet
    {
        type            fixedValue;
        value           uniform 0;
    }
    cylinder
    {
        type            zeroGradient;
    }
    top
    {
        type            symmetryPlane;
    }
    bottom
    {
        type            symmetryPlane;
    }
    defaultFaces
    {
        type            empty;
    }
}


// ************************************************************************* //
