/*--------------------------------*- C++ -*----------------------------------*\
  =========                 |
  \\      /  F ield         | OpenFOAM: The Open Source CFD Toolbox
   \\    /   O peration     | Website:  https://openfoam.org
    \\  /    A nd           | Version:  7
     \\/     M anipulation  |
\*---------------------------------------------------------------------------*/
FoamFile
{
    version     2.0;
    format      ascii;
    class       volVectorField;
    location    "3.3";
    object      U;
}
// * * * * * * * * * * * * * * * * * * * * * * * * * * * * * * * * * * * * * //

dimensions      [0 1 -1 0 0 0 0];

internalField   nonuniform List<vector> 
2000
(
(-0.000510007 0.0310526 -3.4169e-21)
(0.0030763 0.0705747 0)
(0.011551 0.0986179 0)
(0.0218308 0.119478 -2.29206e-20)
(0.033057 0.135618 7.70658e-21)
(0.0445145 0.148489 1.33574e-22)
(0.055679 0.159007 -1.44353e-20)
(0.0661686 0.167791 0)
(0.0756847 0.175269 0)
(0.0838965 0.181713 0)
(-0.00271286 0.0294699 0)
(-0.00142769 0.0660551 -1.50562e-20)
(0.00600452 0.0918535 1.5163e-20)
(0.0159401 0.110963 3.06389e-20)
(0.0272881 0.125807 0)
(0.0391906 0.13781 2.97233e-20)
(0.051031 0.147881 -2.87087e-20)
(0.0623547 0.156653 0)
(0.0727805 0.164581 5.41859e-20)
(0.081887 0.171973 -1.11934e-19)
(-0.00460729 0.0276395 0)
(-0.00496964 0.0609194 1.18436e-19)
(0.00203546 0.084255 0)
(0.0121452 0.101463 1.21114e-19)
(0.0240356 0.114897 0)
(0.0367114 0.125929 -1.17397e-19)
(0.0494726 0.135456 0)
(0.061805 0.144129 1.11441e-19)
(0.0732643 0.152454 -1.07112e-19)
(0.0833057 0.160806 -1.10671e-19)
(-0.00612944 0.0255444 -2.68699e-20)
(-0.00737187 0.0552111 -5.95395e-20)
(-8.40386e-05 0.0759624 -2.99019e-20)
(0.010795 0.0912181 -6.0406e-20)
(0.0237104 0.103215 -5.93763e-20)
(0.0375358 0.113247 5.86388e-20)
(0.0514969 0.12218 5.67476e-20)
(0.0650345 0.130685 -6.44953e-22)
(0.0776662 0.139344 1.06426e-19)
(0.0886908 0.148634 1.10574e-19)
(-0.00720213 0.0231877 -2.63358e-20)
(-0.00844327 0.0490066 -5.89264e-20)
(-7.92941e-05 0.0671563 -1.19949e-19)
(0.0122285 0.0805161 5.95559e-20)
(0.0267007 0.0911562 0)
(0.0420865 0.100253 0)
(0.0575453 0.108614 -1.13581e-19)
(0.0724892 0.116921 -1.10047e-19)
(0.0864305 0.125845 1.05614e-19)
(0.0984877 0.135999 3.27535e-19)
(-0.00773186 0.02057 2.63504e-20)
(-0.00797896 0.0423935 2.98064e-20)
(0.0023215 0.0580431 -1.76072e-19)
(0.0167619 0.0696866 2.9714e-19)
(0.0333513 0.0791723 -5.85778e-20)
(0.0507224 0.0875149 0)
(0.0679751 0.0954264 0)
(0.0845077 0.103562 5.44813e-19)
(0.0998699 0.112689 -5.2629e-19)
(0.113001 0.123571 1.08433e-19)
(-0.0076101 0.0177024 2.04305e-19)
(-0.00576907 0.0354876 0)
(0.00736973 0.0488633 2.36327e-19)
(0.0246637 0.0590948 -2.37253e-19)
(0.0439336 0.0677553 0)
(0.063706 0.0756556 1.15079e-19)
(0.0830259 0.0833624 -3.33366e-19)
(0.101288 0.0914486 -4.33807e-19)
(0.118134 0.100734 2.08336e-19)
(0.132371 0.112137 2.15754e-19)
(-0.00671714 0.0146127 -4.05806e-19)
(-0.00161111 0.0284373 -5.73982e-20)
(0.0152762 0.0398879 -1.15662e-19)
(0.0361275 0.0491266 -2.91518e-19)
(0.0586126 0.0574077 -1.16575e-19)
(0.0811682 0.0653081 -1.13204e-19)
(0.102784 0.0732069 1.99259e-21)
(0.12285 0.0815156 0)
(0.141161 0.0910152 0)
(0.156547 0.102707 -1.0523e-22)
(-0.00492944 0.0113536 2.01504e-19)
(0.00467229 0.0214306 -2.2411e-19)
(0.0261851 0.0314151 1.74001e-19)
(0.0512397 0.0401682 4.07867e-19)
(0.077414 0.0485962 -1.14304e-19)
(0.103085 0.0570396 1.15243e-19)
(0.127185 0.0656921 1.1103e-19)
(0.149054 0.0747806 0)
(0.168623 0.0849756 0)
(0.185056 0.0970636 -1.67282e-21)
(-0.00212977 0.00800839 -2.46452e-20)
(0.0132118 0.0146984 2.80442e-19)
(0.0401445 0.0237638 -5.66751e-20)
(0.0699417 0.0325815 0)
(0.100183 0.0416906 0)
(0.129264 0.0512166 2.24178e-19)
(0.156132 0.0612416 0)
(0.180095 0.0719561 -2.10525e-19)
(0.200969 0.0840021 -1.36571e-21)
(0.218078 0.0973734 2.08838e-19)
(0.0986513 0.194281 4.9399e-21)
(0.109638 0.208067 -5.01754e-21)
(0.113653 0.22186 -5.1225e-21)
(0.108313 0.23555 -5.20145e-21)
(0.0971139 0.248979 -5.30497e-21)
(0.0832794 0.261491 4.73559e-25)
(0.0654838 0.27266 2.67468e-21)
(0.0489102 0.283087 8.1463e-21)
(0.0284772 0.292589 0)
(0.010892 0.300514 -5.52407e-21)
(0.0986857 0.187758 1.93037e-20)
(0.111713 0.204431 -2.0251e-20)
(0.117516 0.221607 3.56406e-20)
(0.113018 0.237725 5.20382e-21)
(0.101953 0.252777 1.04549e-20)
(0.0877441 0.266345 1.58998e-20)
(0.0692496 0.278085 -5.37441e-21)
(0.0516436 0.288861 -5.42018e-21)
(0.0301789 0.298577 1.08356e-20)
(0.0113685 0.306626 5.51096e-21)
(0.101723 0.180093 0)
(0.115532 0.19978 -1.99881e-20)
(0.122527 0.220601 -1.01971e-20)
(0.118466 0.239429 0)
(0.107304 0.256345 -3.13544e-20)
(0.0925843 0.271162 1.04063e-20)
(0.073279 0.28362 1.05075e-20)
(0.0545776 0.294844 3.19778e-20)
(0.0319704 0.304836 -1.07933e-20)
(0.0118974 0.313029 2.16422e-20)
(0.108227 0.17154 0)
(0.121413 0.194284 2.00769e-20)
(0.128857 0.218913 0)
(0.124749 0.24068 4.10845e-20)
(0.113209 0.259675 -4.11457e-20)
(0.0978174 0.275928 -2.09006e-20)
(0.0775811 0.289247 -1.34884e-22)
(0.0577203 0.301029 -3.16849e-20)
(0.03386 0.311361 -5.28973e-21)
(0.0124815 0.319723 -2.68414e-20)
(0.118577 0.162399 1.14915e-21)
(0.129665 0.188164 -5.85803e-20)
(0.136662 0.21664 3.96621e-22)
(0.131949 0.241511 -4.04271e-20)
(0.119701 0.262765 0)
(0.103455 0.28063 -2.06867e-20)
(0.0821595 0.294951 -1.10165e-22)
(0.0610754 0.307405 4.17258e-20)
(0.0358528 0.318145 5.2355e-21)
(0.0131221 0.326709 -5.26305e-21)
(0.133021 0.153007 -1.54737e-19)
(0.14057 0.181701 9.8626e-20)
(0.146076 0.213921 4.03015e-20)
(0.140131 0.241983 -4.01589e-20)
(0.126801 0.265628 -2.02099e-20)
(0.109494 0.28526 0)
(0.0870069 0.300713 -4.09108e-20)
(0.0646384 0.313956 2.03721e-20)
(0.0379483 0.325177 2.05412e-20)
(0.0138196 0.333985 2.06089e-20)
(0.15165 0.143734 -1.90475e-20)
(0.154351 0.17523 0)
(0.157193 0.210935 0)
(0.14933 0.242182 0)
(0.1345 0.26829 -2.0181e-20)
(0.115908 0.289816 4.01394e-20)
(0.0920926 0.306515 4.04821e-20)
(0.0683865 0.320669 -6.05294e-20)
(0.040134 0.332446 1.01065e-20)
(0.014571 0.341549 -3.04612e-20)
(0.174382 0.134793 1.15884e-19)
(0.17114 0.168916 8.01723e-20)
(0.170045 0.207745 -7.92521e-20)
(0.159526 0.242115 8.00517e-20)
(0.142743 0.270718 -9.90615e-20)
(0.122624 0.294252 0)
(0.0973452 0.312311 -1.9773e-20)
(0.0722646 0.327506 1.60554e-22)
(0.0423765 0.339926 -1.97047e-20)
(0.0153682 0.34939 -1.97325e-20)
(0.200876 0.126111 -9.75403e-20)
(0.190943 0.162454 0)
(0.184602 0.204087 -8.97404e-20)
(0.170639 0.241542 1.58139e-19)
(0.151415 0.272712 -5.85932e-20)
(0.129502 0.298414 -9.76148e-21)
(0.10263 0.317987 1.96023e-20)
(0.0761645 0.33439 4.29848e-23)
(0.0446088 0.347572 2.90547e-20)
(0.0161955 0.357493 2.90639e-20)
(0.230431 0.119472 -8.53145e-20)
(0.213592 0.156979 8.46985e-20)
(0.200788 0.200757 1.06942e-20)
(0.182528 0.241021 0)
(0.160327 0.27468 0)
(0.136314 0.30257 1.03698e-20)
(0.107714 0.323692 4.10273e-20)
(0.0798875 0.341383 -4.03993e-20)
(0.0467059 0.355388 -1.00382e-20)
(0.0170261 0.365841 9.95083e-21)
(0.296906 0.124314 0)
(0.265392 0.160134 0)
(0.238211 0.204397 0)
(0.209614 0.248239 0)
(0.180083 0.285481 0)
(0.150814 0.316719 0)
(0.118067 0.340115 0)
(0.0873174 0.359916 0)
(0.0507197 0.375059 0)
(0.0188528 0.386165 0)
(0.365683 0.181094 0)
(0.325308 0.21075 0)
(0.287724 0.2477 0)
(0.249659 0.286959 0)
(0.211971 0.322375 0)
(0.175431 0.353025 0)
(0.136376 0.37657 0)
(0.100392 0.396927 0)
(0.0579118 0.41262 0)
(0.0221193 0.4243 0)
(0.411636 0.225791 0)
(0.369482 0.256302 0)
(0.328614 0.29166 0)
(0.286242 0.329042 0)
(0.243615 0.363682 0)
(0.201619 0.394056 0)
(0.157063 0.418076 0)
(0.115719 0.438504 0)
(0.067032 0.454169 0)
(0.0258875 0.465701 0)
(0.448079 0.265715 0)
(0.407033 0.299006 0)
(0.365945 0.335172 0)
(0.321722 0.372607 0)
(0.27583 0.407832 0)
(0.229488 0.439103 0)
(0.179746 0.464627 0)
(0.132487 0.486523 0)
(0.0768462 0.504932 0)
(0.0294583 0.519877 0)
(0.485265 0.305786 0)
(0.44507 0.342554 0)
(0.404025 0.380571 0)
(0.358553 0.41922 0)
(0.309904 0.456102 0)
(0.259501 0.489333 0)
(0.204491 0.516885 0)
(0.150952 0.539063 0)
(0.0878248 0.554836 0)
(0.0331166 0.565422 0)
(0.52322 0.340119 0)
(0.483784 0.382183 0)
(0.442953 0.423851 0)
(0.396722 0.46556 0)
(0.34595 0.505896 0)
(0.292454 0.543134 0)
(0.233565 0.575561 0)
(0.17583 0.604473 0)
(0.106648 0.630939 0)
(0.0407417 0.653253 0)
(0.568605 0.383871 0)
(0.530118 0.429867 0)
(0.489074 0.474567 0)
(0.441846 0.519193 0)
(0.387738 0.562779 0)
(0.327577 0.602845 0)
(0.258181 0.636239 0)
(0.186496 0.661233 0)
(0.104885 0.678581 0)
(0.037585 0.691387 0)
(0.602541 0.399117 0)
(0.569922 0.455668 0)
(0.530497 0.508406 0)
(0.485116 0.561724 0)
(0.433764 0.616324 0)
(0.377374 0.670509 0)
(0.311034 0.721353 0)
(0.239634 0.767046 0)
(0.14853 0.804068 0)
(0.0547315 0.829588 0)
(0.629068 0.443422 0)
(0.624316 0.513771 0)
(0.594352 0.572621 0)
(0.545347 0.62556 0)
(0.481433 0.67641 0)
(0.407458 0.724494 0)
(0.322763 0.76705 0)
(0.237035 0.802056 0)
(0.141133 0.829594 0)
(0.0515759 0.849797 0)
(0.539994 0.337277 0)
(0.595669 0.459706 0)
(0.619124 0.569095 0)
(0.611924 0.667656 0)
(0.575733 0.759301 0)
(0.515806 0.845322 0)
(0.429798 0.923364 0)
(0.327735 0.990198 0)
(0.201482 1.04312 0)
(0.0721899 1.07884 0)
(0.343896 0.119691 7.55004e-20)
(0.407705 0.168505 -7.48338e-20)
(0.448369 0.209584 8.05188e-21)
(0.482304 0.24639 0)
(0.517597 0.283255 0)
(0.554253 0.313456 4.77405e-21)
(0.593877 0.353711 -1.21127e-20)
(0.617667 0.3591 1.19226e-20)
(0.608427 0.390716 4.66964e-22)
(0.488086 0.254533 -4.6711e-22)
(0.37157 0.121186 -9.10772e-20)
(0.426923 0.169021 0)
(0.462662 0.207193 4.95721e-20)
(0.494847 0.241703 -1.05721e-19)
(0.529103 0.276499 5.97572e-20)
(0.565258 0.304859 -4.61465e-21)
(0.601464 0.342403 6.67516e-21)
(0.619956 0.342928 7.18071e-21)
(0.594125 0.367244 -6.88457e-22)
(0.463465 0.218555 -1.50784e-21)
(0.395335 0.125557 1.05899e-19)
(0.443619 0.171435 -6.22136e-20)
(0.475758 0.206097 6.14804e-20)
(0.506815 0.23791 -4.77278e-20)
(0.540298 0.270305 3.61458e-20)
(0.575773 0.296675 0)
(0.608142 0.330707 -6.7331e-21)
(0.620252 0.325933 -3.71741e-22)
(0.577393 0.342242 -2.22579e-21)
(0.436333 0.181911 1.21036e-21)
(0.416759 0.131184 -1.71588e-20)
(0.458655 0.173459 0)
(0.48812 0.20446 0)
(0.518356 0.233593 0)
(0.551144 0.263582 2.93444e-20)
(0.58555 0.28793 -1.88556e-20)
(0.613588 0.31791 1.1938e-21)
(0.618122 0.307597 -2.12355e-21)
(0.558269 0.315619 -4.41084e-23)
(0.406365 0.144886 1.98695e-21)
(0.435873 0.136743 -3.66841e-21)
(0.471854 0.17421 -4.89337e-20)
(0.499367 0.201645 -2.59889e-20)
(0.529052 0.228293 2.58926e-20)
(0.561207 0.255996 -1.03868e-20)
(0.59417 0.278293 0)
(0.617368 0.303753 -6.09858e-21)
(0.613338 0.28775 5.77289e-21)
(0.536816 0.28729 -2.43355e-21)
(0.373948 0.107838 -1.97223e-21)
(0.452272 0.141276 -1.27235e-19)
(0.48316 0.173352 1.90462e-20)
(0.509431 0.197478 3.16158e-21)
(0.538832 0.221911 2.5248e-20)
(0.570368 0.247467 0)
(0.601471 0.267634 0)
(0.619298 0.28812 0)
(0.605885 0.266316 2.71699e-21)
(0.513471 0.256956 0)
(0.340608 0.0715065 0)
(0.46577 0.144147 0)
(0.492651 0.170811 4.23595e-20)
(0.518334 0.191974 -2.78431e-20)
(0.547676 0.214472 -2.10473e-20)
(0.578541 0.238001 2.10768e-20)
(0.607324 0.255888 6.36285e-21)
(0.619229 0.270968 -7.58058e-21)
(0.595719 0.243227 -1.01019e-20)
(0.48865 0.22385 1.19471e-21)
(0.3064 0.037351 2.91399e-21)
(0.476349 0.144997 0)
(0.50044 0.166656 -1.44831e-20)
(0.526095 0.185229 -6.41854e-21)
(0.555545 0.206047 0)
(0.585628 0.227625 3.62747e-21)
(0.611616 0.243024 -1.17578e-20)
(0.617056 0.252326 7.00205e-21)
(0.582829 0.21847 6.31036e-22)
(0.462317 0.187258 -4.77175e-22)
(0.261516 0.00705037 -3.12164e-21)
(0.484095 0.143697 1.57434e-20)
(0.506638 0.161031 1.34344e-20)
(0.532725 0.177373 -3.92088e-21)
(0.562397 0.196711 2.72426e-21)
(0.591548 0.21637 4.59503e-21)
(0.614276 0.22904 5.2091e-21)
(0.612752 0.232294 -1.1523e-21)
(0.567384 0.192237 -5.11411e-22)
(0.434872 0.148663 4.79042e-22)
(0.230374 -0.0197793 -6.10534e-22)
(0.489162 0.140286 -3.63427e-21)
(0.511341 0.154101 3.69729e-21)
(0.538228 0.168535 -3.15969e-21)
(0.568194 0.186534 -2.72254e-21)
(0.596239 0.204271 1.93398e-21)
(0.615287 0.213969 -3.6378e-21)
(0.606393 0.211025 1.55522e-21)
(0.549744 0.164863 1.08581e-22)
(0.406568 0.110432 0)
(0.200511 -0.0449562 6.11724e-22)
(0.491733 0.134913 3.63451e-21)
(0.514632 0.146025 -3.69353e-21)
(0.542606 0.158836 -3.11508e-21)
(0.57291 0.175579 -2.6541e-21)
(0.59968 0.191369 -1.88436e-21)
(0.614695 0.197873 3.03691e-22)
(0.598165 0.188695 6.60448e-22)
(0.530394 0.136707 8.12108e-22)
(0.377761 0.0733083 0)
(0.173419 -0.0693592 4.41936e-22)
(0.491985 0.127786 0)
(0.516572 0.136934 -1.32334e-20)
(0.545854 0.148378 2.2633e-20)
(0.576528 0.163905 2.6541e-21)
(0.60188 0.177713 4.22802e-21)
(0.612602 0.180838 4.68184e-21)
(0.588325 0.16549 -1.03668e-21)
(0.509911 0.10811 -4.32087e-22)
(0.349633 0.0373441 2.0925e-22)
(0.149304 -0.0932841 -4.40763e-22)
(0.490066 0.119138 0)
(0.517205 0.126927 -1.42596e-20)
(0.547957 0.137253 -6.23589e-21)
(0.57904 0.151572 0)
(0.602876 0.163366 -1.1464e-20)
(0.60915 0.162971 4.17368e-21)
(0.577171 0.141576 2.441e-21)
(0.488852 0.0791528 2.83444e-21)
(0.322944 0.00248433 -2.08427e-22)
(0.127412 -0.116981 -1.23121e-21)
(0.486087 0.109223 0)
(0.516543 0.116079 1.43149e-20)
(0.548894 0.125544 0)
(0.580451 0.138644 1.88429e-20)
(0.602744 0.148402 -1.88753e-20)
(0.604523 0.144396 -4.83313e-21)
(0.564988 0.117115 1.069e-21)
(0.467632 0.0499708 -2.43936e-21)
(0.297622 -0.0312853 -5.28168e-22)
(0.107824 -0.140505 1.33098e-21)
(0.480192 0.0983227 1.30226e-19)
(0.514587 0.104446 -4.98236e-20)
(0.548719 0.113329 -4.06111e-21)
(0.580858 0.125193 -2.33259e-20)
(0.601657 0.132907 0)
(0.598979 0.125259 -4.71897e-21)
(0.55206 0.092278 2.27225e-21)
(0.446597 0.020732 3.82284e-21)
(0.273728 -0.0639518 -9.60991e-23)
(0.0905749 -0.163768 9.55448e-23)
(0.472619 0.0867433 6.39788e-21)
(0.51151 0.0920814 7.90577e-20)
(0.547674 0.100662 2.36893e-20)
(0.580517 0.111293 -2.36119e-20)
(0.599908 0.11698 -8.30401e-21)
(0.592859 0.105734 0)
(0.538884 0.0672504 -5.76076e-21)
(0.426019 -0.00838076 2.90276e-21)
(0.251375 -0.0954742 6.77903e-22)
(0.0755342 -0.186633 -7.02078e-22)
(0.463655 0.0747762 -1.7896e-20)
(0.507482 0.0790267 0)
(0.545874 0.0876069 0)
(0.57948 0.0970471 0)
(0.597578 0.100749 -5.79755e-21)
(0.586331 0.0859722 1.40174e-20)
(0.525767 0.0422379 5.65993e-21)
(0.406127 -0.0371739 -4.66753e-21)
(0.230615 -0.125854 -1.45617e-22)
(0.0625255 -0.208983 8.37097e-22)
(0.452926 0.0627829 -3.91405e-20)
(0.501499 0.0654113 5.98446e-20)
(0.542221 0.0742846 -5.91719e-20)
(0.57671 0.0825987 3.93361e-20)
(0.593865 0.0843522 -4.75586e-20)
(0.578926 0.0661269 0)
(0.512504 0.017394 -3.31247e-21)
(0.387122 -0.0655048 1.51839e-23)
(0.211531 -0.155084 -1.18122e-23)
(0.0513824 -0.230738 4.64875e-22)
(0.439 0.0515757 -1.90498e-20)
(0.49144 0.0515509 0)
(0.534906 0.0608313 -5.9253e-20)
(0.570818 0.068038 9.2044e-20)
(0.587791 0.0678206 -3.166e-20)
(0.570029 0.0462063 -2.94729e-21)
(0.498776 -0.00729413 3.28326e-21)
(0.368884 -0.0933662 5.66452e-22)
(0.194117 -0.183201 6.83109e-22)
(0.0419194 -0.25185 -5.58722e-22)
(0.425176 0.0424106 -8.83203e-20)
(0.481085 0.0377858 8.74886e-20)
(0.52815 0.0472286 8.59666e-21)
(0.565946 0.0533225 0)
(0.582865 0.0511069 0)
(0.562152 0.0261667 3.46867e-21)
(0.48591 -0.031884 5.17363e-21)
(0.351543 -0.12083 -5.01589e-21)
(0.178092 -0.210314 8.61096e-23)
(0.0338279 -0.272349 -8.30387e-23)
(0.415574 0.0248308 0)
(0.477214 0.00592022 0)
(0.53243 0.0141734 0)
(0.572711 0.0176756 0)
(0.586297 0.0107983 0)
(0.554472 -0.0218534 0)
(0.461717 -0.0903564 0)
(0.312851 -0.185748 0)
(0.141433 -0.273197 0)
(0.0170729 -0.320042 0)
(0.434434 -0.05237 0)
(0.492535 -0.0596748 0)
(0.545069 -0.0511484 0)
(0.572412 -0.0518446 0)
(0.557084 -0.0739845 0)
(0.484654 -0.129577 0)
(0.357507 -0.217909 0)
(0.204112 -0.315612 0)
(0.0697007 -0.385983 0)
(-0.0002577 -0.412006 0)
(0.436289 -0.121495 0)
(0.497186 -0.129047 0)
(0.543894 -0.125968 0)
(0.554367 -0.138652 0)
(0.509838 -0.180346 0)
(0.407396 -0.25603 0)
(0.266951 -0.352586 0)
(0.126421 -0.439238 0)
(0.0281603 -0.487421 0)
(-0.00407337 -0.498564 0)
(0.439513 -0.195905 0)
(0.49971 -0.208816 0)
(0.53517 -0.216491 0)
(0.519922 -0.247052 0)
(0.441612 -0.309657 0)
(0.314893 -0.399015 0)
(0.176127 -0.491672 0)
(0.0647684 -0.556703 0)
(0.00639845 -0.581118 0)
(-0.00222713 -0.583084 0)
(0.433215 -0.276822 0)
(0.488879 -0.301186 0)
(0.508021 -0.327002 0)
(0.463889 -0.380161 0)
(0.358139 -0.460369 0)
(0.223833 -0.551525 0)
(0.104207 -0.626442 0)
(0.0283581 -0.664273 0)
(0.000924556 -0.670621 0)
(0.000740563 -0.669858 0)
(0.41381 -0.366006 0)
(0.461225 -0.409122 0)
(0.460382 -0.45966 0)
(0.389791 -0.534982 0)
(0.26942 -0.623216 0)
(0.145496 -0.70235 0)
(0.0569415 -0.750799 0)
(0.0143673 -0.764343 0)
(0.00400688 -0.762293 0)
(0.00209745 -0.762924 0)
(0.374118 -0.462727 0)
(0.408314 -0.530678 0)
(0.387496 -0.608923 0)
(0.301418 -0.700912 0)
(0.185673 -0.78588 0)
(0.0884216 -0.844002 0)
(0.0339028 -0.867239 0)
(0.0138252 -0.867438 0)
(0.00750325 -0.86621 0)
(0.00144992 -0.868862 0)
(0.303448 -0.559459 0)
(0.322751 -0.654769 0)
(0.290529 -0.761186 0)
(0.208037 -0.864213 0)
(0.116389 -0.940117 0)
(0.0537576 -0.978704 0)
(0.026185 -0.987614 0)
(0.0154375 -0.9871 0)
(0.00712901 -0.990678 0)
(0.000144314 -0.993607 0)
(0.20019 -0.638635 0)
(0.20894 -0.766632 0)
(0.179143 -0.898673 0)
(0.119494 -1.00813 0)
(0.0636145 -1.07448 0)
(0.0324894 -1.10214 0)
(0.0201918 -1.11018 0)
(0.0118651 -1.11627 0)
(0.00386668 -1.12284 0)
(-0.00041051 -1.12446 0)
(0.0764641 -0.69116 0)
(0.0761688 -0.840994 0)
(0.0610413 -0.988146 0)
(0.0378713 -1.09707 0)
(0.0201116 -1.1566 0)
(0.0118717 -1.18267 0)
(0.00801366 -1.19625 0)
(0.00412056 -1.20742 0)
(0.000976019 -1.21384 0)
(-0.000178734 -1.21452 0)
(0.382886 0.00120589 9.7201e-20)
(0.391456 -0.0708653 -9.64082e-20)
(0.395253 -0.139672 1.21833e-20)
(0.39613 -0.211077 0)
(0.387574 -0.285305 0)
(0.367003 -0.363363 1.26182e-20)
(0.328819 -0.443344 -5.22711e-20)
(0.266178 -0.52028 5.19489e-20)
(0.174706 -0.576922 1.38041e-20)
(0.0672767 -0.613182 -1.37376e-20)
(0.365599 -0.0141483 -1.107e-19)
(0.37281 -0.0834481 0)
(0.377428 -0.149679 7.71635e-20)
(0.377478 -0.218246 -1.74657e-19)
(0.368141 -0.288674 1.08962e-19)
(0.347132 -0.361711 -1.09992e-20)
(0.30946 -0.434774 2.28803e-20)
(0.249929 -0.503495 4.70452e-20)
(0.163366 -0.55198 1.2585e-20)
(0.0629425 -0.581647 1.23409e-20)
(0.34733 -0.0291368 1.33557e-19)
(0.354656 -0.0965585 -8.90559e-20)
(0.359799 -0.160078 8.80086e-20)
(0.358845 -0.225336 -8.95217e-20)
(0.348617 -0.291656 6.64658e-20)
(0.327083 -0.35955 0)
(0.289874 -0.425888 -2.30838e-20)
(0.233254 -0.486558 2.77266e-22)
(0.151641 -0.527802 -2.43433e-20)
(0.0583518 -0.55142 -2.47792e-20)
(0.328871 -0.0432137 -2.22321e-20)
(0.336949 -0.107874 0)
(0.342383 -0.168866 0)
(0.340406 -0.230877 0)
(0.329288 -0.293274 6.90553e-20)
(0.307232 -0.35629 -4.58633e-20)
(0.270512 -0.416447 -2.01425e-22)
(0.21664 -0.469776 -2.46205e-20)
(0.13995 -0.504534 -1.25588e-20)
(0.0537048 -0.522806 -1.28134e-20)
(0.310678 -0.0567224 1.25863e-22)
(0.319807 -0.117751 -6.72562e-20)
(0.325305 -0.175986 -4.54108e-20)
(0.322361 -0.234703 4.52486e-20)
(0.310416 -0.293332 -2.29686e-20)
(0.287905 -0.351772 0)
(0.251726 -0.406338 -2.40443e-20)
(0.200473 -0.45319 4.96952e-20)
(0.128618 -0.482296 -2.50308e-20)
(0.0491495 -0.496034 2.57325e-20)
(0.292995 -0.0695267 -1.81214e-19)
(0.303336 -0.126463 2.26416e-20)
(0.30873 -0.181674 -4.59731e-22)
(0.304924 -0.237017 4.57942e-20)
(0.292253 -0.29199 0)
(0.269389 -0.346139 0)
(0.233814 -0.395672 0)
(0.185056 -0.436857 2.51579e-20)
(0.117871 -0.461152 0)
(0.0447919 -0.471141 0)
(0.276016 -0.0814061 0)
(0.287613 -0.133983 6.8597e-20)
(0.292797 -0.185985 -4.57651e-20)
(0.28827 -0.237947 -4.69574e-20)
(0.274997 -0.289406 4.70304e-20)
(0.25191 -0.339569 2.45022e-20)
(0.217002 -0.384612 -2.43652e-20)
(0.170604 -0.420884 -8.86774e-20)
(0.107855 -0.441148 6.32653e-21)
(0.0407039 -0.448091 -1.98227e-20)
(0.259931 -0.0922377 0)
(0.272706 -0.140291 -2.2794e-20)
(0.277613 -0.188948 -1.16201e-20)
(0.272518 -0.237588 0)
(0.258785 -0.285713 1.21513e-20)
(0.235612 -0.332216 -3.65106e-20)
(0.201431 -0.373301 3.76125e-20)
(0.157251 -0.405369 1.28647e-20)
(0.0986479 -0.422303 -1.30655e-20)
(0.0369273 -0.426826 2.65679e-20)
(0.244918 -0.101956 2.30128e-20)
(0.258678 -0.145432 2.31294e-20)
(0.263261 -0.19065 -5.7772e-21)
(0.257746 -0.236065 5.93539e-21)
(0.243692 -0.281053 1.20194e-20)
(0.22057 -0.324226 1.84635e-20)
(0.187162 -0.361857 -6.31318e-21)
(0.145053 -0.39038 -6.43979e-21)
(0.0902674 -0.40461 1.31171e-20)
(0.0334792 -0.407268 6.66691e-21)
(0.231151 -0.110524 -5.75864e-21)
(0.245584 -0.14948 5.79698e-21)
(0.249803 -0.191214 -5.84195e-21)
(0.243988 -0.23353 -5.93424e-21)
(0.229745 -0.275585 6.11779e-21)
(0.206799 -0.31575 -1.23272e-20)
(0.174197 -0.350392 9.51028e-21)
(0.134009 -0.375962 3.24639e-21)
(0.0826942 -0.388043 0)
(0.0303598 -0.389321 -6.68238e-21)
(0.218789 -0.117923 5.7879e-21)
(0.233471 -0.152519 -5.82974e-21)
(0.237282 -0.190782 -5.91079e-21)
(0.231254 -0.230145 -5.99941e-21)
(0.216935 -0.269474 -6.14343e-21)
(0.194271 -0.306934 -5.41192e-23)
(0.162494 -0.339005 3.1556e-21)
(0.124079 -0.362145 9.67079e-21)
(0.0758866 -0.372559 0)
(0.0275596 -0.372879 -6.66348e-21)
(0.207977 -0.124148 0)
(0.222384 -0.154626 -2.35472e-20)
(0.225724 -0.189491 4.14433e-20)
(0.219527 -0.226065 6.00213e-21)
(0.205223 -0.262875 1.22531e-20)
(0.182927 -0.297911 1.8694e-20)
(0.15198 -0.327783 -6.34328e-21)
(0.115202 -0.348943 -6.45199e-21)
(0.0697936 -0.35811 1.3089e-20)
(0.0250644 -0.357832 6.64765e-21)
(0.198828 -0.129203 0)
(0.212356 -0.155875 -2.36548e-20)
(0.215142 -0.187474 -1.19035e-20)
(0.208779 -0.221435 0)
(0.194553 -0.255932 -3.6944e-20)
(0.172688 -0.288801 1.23151e-20)
(0.142569 -0.316799 1.26063e-20)
(0.107303 -0.336361 3.85014e-20)
(0.0643605 -0.344637 -1.30379e-20)
(0.0228581 -0.344069 2.63605e-20)
(0.19141 -0.133097 0)
(0.203414 -0.156327 2.37596e-20)
(0.205528 -0.184851 0)
(0.198966 -0.216384 4.87678e-20)
(0.184855 -0.248773 -4.88422e-20)
(0.163461 -0.279709 -2.50697e-20)
(0.13416 -0.306116 -1.56617e-22)
(0.1003 -0.324397 -3.83144e-20)
(0.0595314 -0.332084 -6.39519e-21)
(0.0209241 -0.331478 -3.27007e-20)
(0.185737 -0.135847 1.90761e-19)
(0.195561 -0.156027 -7.16242e-20)
(0.196853 -0.181725 3.83157e-22)
(0.190029 -0.211026 -4.84074e-20)
(0.176045 -0.241507 0)
(0.155143 -0.270722 -2.50057e-20)
(0.126644 -0.295784 -2.68706e-22)
(0.0941051 -0.313042 5.06899e-20)
(0.0552495 -0.320388 6.41607e-21)
(0.019246 -0.319951 -6.44987e-21)
(0.181747 -0.137475 -1.01463e-22)
(0.188773 -0.15501 1.20715e-19)
(0.189058 -0.178186 4.87199e-20)
(0.181888 -0.205457 -4.85485e-20)
(0.168021 -0.23423 -2.45722e-20)
(0.147616 -0.261916 0)
(0.119906 -0.285847 -5.00862e-20)
(0.0886236 -0.302286 2.49468e-20)
(0.0514554 -0.309493 2.52286e-20)
(0.0178074 -0.309384 2.54644e-20)
(0.179292 -0.13803 -2.43602e-20)
(0.182981 -0.153319 0)
(0.182046 -0.174317 0)
(0.174436 -0.199769 0)
(0.160659 -0.227029 -2.48098e-20)
(0.140745 -0.253358 4.90759e-20)
(0.113814 -0.276344 4.9722e-20)
(0.0837514 -0.292121 -7.46056e-20)
(0.0480852 -0.299347 1.25111e-20)
(0.0165918 -0.29968 -3.76621e-20)
(0.17812 -0.137588 -4.91882e-20)
(0.178065 -0.150968 9.90482e-20)
(0.175682 -0.170149 -9.7903e-20)
(0.16753 -0.193995 9.85235e-20)
(0.153804 -0.219938 -1.22041e-19)
(0.134364 -0.245077 0)
(0.108214 -0.267293 -2.45612e-20)
(0.0793678 -0.282531 4.73234e-23)
(0.0450672 -0.289902 -2.45782e-20)
(0.0155819 -0.290747 -2.46275e-20)
(0.177882 -0.136066 -2.51282e-20)
(0.173849 -0.147793 0)
(0.169787 -0.165519 -1.1173e-19)
(0.16098 -0.187987 1.96563e-19)
(0.147248 -0.212835 -7.28703e-20)
(0.128258 -0.236982 -1.21817e-20)
(0.10291 -0.258639 2.43485e-20)
(0.0753186 -0.273472 -4.3837e-23)
(0.0423145 -0.281105 3.62497e-20)
(0.0147576 -0.282495 3.6303e-20)
(0.178167 -0.133081 -1.10116e-19)
(0.170077 -0.143764 1.0884e-19)
(0.164124 -0.160522 1.3461e-20)
(0.15452 -0.181886 0)
(0.140698 -0.205837 0)
(0.122112 -0.229165 1.30564e-20)
(0.0976156 -0.250428 5.19581e-20)
(0.0713812 -0.264961 -5.11756e-20)
(0.0397061 -0.272943 -1.27458e-20)
(0.0140898 -0.274879 1.2644e-20)
(0.178819 -0.12556 0)
(0.162131 -0.136483 0)
(0.151605 -0.152418 0)
(0.139475 -0.171756 0)
(0.124779 -0.193414 0)
(0.106635 -0.21428 0)
(0.0841215 -0.233791 0)
(0.0614737 -0.246923 0)
(0.033409 -0.255373 0)
(0.012774 -0.258589 0)
(0.165914 -0.107289 0)
(0.146951 -0.124012 0)
(0.134 -0.141281 0)
(0.120173 -0.159491 0)
(0.105044 -0.178489 0)
(0.0877678 -0.196552 0)
(0.0680257 -0.213228 0)
(0.0500788 -0.225181 0)
(0.0266882 -0.233633 0)
(0.0116627 -0.238069 0)
(0.14813 -0.09146 0)
(0.130228 -0.109526 0)
(0.116991 -0.127256 0)
(0.102934 -0.145029 0)
(0.0881237 -0.162909 0)
(0.0720066 -0.179968 0)
(0.0545024 -0.195489 0)
(0.0402419 -0.207717 0)
(0.0207316 -0.216252 0)
(0.0101526 -0.221074 0)
(0.129044 -0.0787409 0)
(0.113313 -0.0960448 0)
(0.100253 -0.113083 0)
(0.0862589 -0.130135 0)
(0.0717781 -0.147359 0)
(0.0566576 -0.164222 0)
(0.0407403 -0.179794 0)
(0.0294472 -0.193229 0)
(0.0135945 -0.202646 0)
(0.00765195 -0.207984 0)
(0.110939 -0.0680243 0)
(0.097172 -0.0838117 0)
(0.084154 -0.0996386 0)
(0.0699638 -0.115825 0)
(0.0553525 -0.132615 0)
(0.0406949 -0.14978 0)
(0.0255549 -0.166258 0)
(0.0165584 -0.181775 0)
(0.00444357 -0.193512 0)
(0.00407184 -0.200431 0)
(0.0959154 -0.058065 0)
(0.083731 -0.0716677 0)
(0.0701211 -0.0858759 0)
(0.0549739 -0.101112 0)
(0.0392849 -0.117688 0)
(0.0240708 -0.135701 0)
(0.00852704 -0.154188 0)
(0.00069283 -0.173088 0)
(-0.00771659 -0.189633 0)
(-0.000884833 -0.200464 0)
(0.0917267 -0.0479747 0)
(0.0805336 -0.0586473 0)
(0.0649897 -0.0707416 0)
(0.0473451 -0.0847036 0)
(0.0286726 -0.100986 0)
(0.0104878 -0.120092 0)
(-0.00815456 -0.141947 0)
(-0.0180081 -0.166353 0)
(-0.024698 -0.191755 0)
(-0.00829323 -0.211699 0)
(0.127936 -0.0355585 0)
(0.117069 -0.0428442 0)
(0.0975539 -0.0522097 0)
(0.075133 -0.063952 0)
(0.0502378 -0.0789158 0)
(0.023837 -0.0982173 0)
(-0.00508985 -0.123667 0)
(-0.026992 -0.155382 0)
(-0.0442309 -0.194548 0)
(-0.0196799 -0.231445 0)
(0.286643 -0.0175661 0)
(0.276734 -0.0222264 0)
(0.253227 -0.0280055 0)
(0.226483 -0.0353684 0)
(0.194297 -0.0457468 0)
(0.155509 -0.0607133 0)
(0.108201 -0.0826225 0)
(0.056178 -0.115826 0)
(-0.011013 -0.183722 0)
(-0.0285597 -0.30528 0)
(0.689963 -0.00390109 0)
(0.684993 -0.00632833 0)
(0.668584 -0.00859529 0)
(0.650525 -0.0119736 0)
(0.62595 -0.0175727 0)
(0.593097 -0.0268037 0)
(0.54553 -0.0421853 0)
(0.470416 -0.0699368 0)
(0.35463 -0.124573 0)
(0.261183 -0.210827 0)
(0.187613 -0.1141 1.13178e-19)
(0.171711 -0.092241 -1.11739e-19)
(0.151787 -0.0772329 1.37326e-20)
(0.131804 -0.0655576 0)
(0.113811 -0.0560189 0)
(0.100187 -0.0471391 1.29757e-20)
(0.0996771 -0.0382341 -5.10321e-20)
(0.14335 -0.0283178 5.05232e-20)
(0.309343 -0.0147815 1.2702e-20)
(0.702306 -0.00326993 -1.29206e-20)
(0.191198 -0.107906 -1.23177e-19)
(0.173159 -0.0851073 0)
(0.152211 -0.0708702 8.49579e-20)
(0.1321 -0.0598377 -1.91423e-19)
(0.114454 -0.0509664 1.18083e-19)
(0.101836 -0.0427012 -1.16664e-20)
(0.103408 -0.0344261 2.30415e-20)
(0.150712 -0.0255314 4.56474e-20)
(0.319476 -0.013746 1.13379e-20)
(0.708069 -0.0030898 1.11785e-20)
(0.194288 -0.100439 1.44718e-19)
(0.174246 -0.0775244 -9.71278e-20)
(0.152311 -0.0643486 9.60373e-20)
(0.132175 -0.054075 -9.549e-20)
(0.11499 -0.0459741 7.0908e-20)
(0.103439 -0.0384504 0)
(0.107112 -0.0309403 -2.32446e-20)
(0.157933 -0.0230582 -1.84796e-23)
(0.329318 -0.0128609 -2.29609e-20)
(0.713931 -0.00298403 -2.26846e-20)
(0.197371 -0.0917257 -2.36872e-20)
(0.175582 -0.0695288 0)
(0.152679 -0.057632 0)
(0.13245 -0.0482501 0)
(0.115666 -0.0410294 7.09906e-20)
(0.105053 -0.0343628 -4.70728e-20)
(0.110585 -0.027734 -5.68001e-24)
(0.164459 -0.0208715 -2.32983e-20)
(0.338183 -0.0121172 -1.16302e-20)
(0.719346 -0.00294762 -1.14818e-20)
(0.200376 -0.0818109 5.72233e-22)
(0.177031 -0.061121 -7.05864e-20)
(0.153205 -0.0506797 -4.75469e-20)
(0.132847 -0.0423394 4.73881e-20)
(0.116398 -0.0361138 -2.36888e-20)
(0.106605 -0.0304116 0)
(0.113766 -0.0247558 -2.35501e-20)
(0.170252 -0.0189161 4.69978e-20)
(0.346003 -0.0114738 -2.34688e-20)
(0.724218 -0.00296099 2.32381e-20)
(0.2031 -0.0707168 -1.84809e-19)
(0.178448 -0.052283 2.27662e-20)
(0.153729 -0.0434525 -1.75589e-22)
(0.133254 -0.0363271 4.72694e-20)
(0.117079 -0.0312159 0)
(0.108002 -0.0265791 0)
(0.116577 -0.0219703 0)
(0.175288 -0.0171497 2.3642e-20)
(0.352804 -0.0108952 0)
(0.728598 -0.00300329 0)
(0.205447 -0.0584321 0)
(0.179748 -0.0429912 7.0184e-20)
(0.154195 -0.0359111 -4.69064e-20)
(0.133614 -0.0302032 -4.72738e-20)
(0.117643 -0.02632 4.73504e-20)
(0.109165 -0.022846 2.37096e-20)
(0.118935 -0.0193455 -2.37492e-20)
(0.179498 -0.0155368 -8.32268e-20)
(0.358555 -0.0103588 5.95267e-21)
(0.7325 -0.00306001 -1.77039e-20)
(0.207346 -0.0450551 0)
(0.180823 -0.0332217 -2.32494e-20)
(0.154586 -0.0280301 -1.17081e-20)
(0.133872 -0.0239507 0)
(0.118036 -0.021408 1.18422e-20)
(0.110031 -0.0191882 -3.56257e-20)
(0.120762 -0.0168475 3.57106e-20)
(0.182812 -0.0140421 1.19409e-20)
(0.363203 -0.00984646 -1.19652e-20)
(0.735903 -0.00312098 2.3761e-20)