/*--------------------------------*- C++ -*----------------------------------*\
  =========                 |
  \\      /  F ield         | OpenFOAM: The Open Source CFD Toolbox
   \\    /   O peration     | Website:  https://openfoam.org
    \\  /    A nd           | Version:  7
     \\/     M anipulation  |
\*---------------------------------------------------------------------------*/
FoamFile
{
    version     2.0;
    format      ascii;
    class       volScalarField;
    location    "27";
    object      p;
}
// * * * * * * * * * * * * * * * * * * * * * * * * * * * * * * * * * * * * * //

dimensions      [0 2 -2 0 0 0 0];

internalField   nonuniform List<scalar> 
2000
(
-0.00156724
-0.000106056
0.00096985
0.00232955
0.00393527
0.0057239
0.00764296
0.00965343
0.0117278
0.013868
-0.000494478
0.00107324
0.00217944
0.00351714
0.00505938
0.00675883
0.0085708
0.0104563
0.0123848
0.014354
0.00059629
0.00221337
0.00333606
0.00464143
0.00610569
0.00769559
0.00937653
0.0111129
0.0128737
0.0146484
0.0016964
0.00330599
0.00443123
0.00569676
0.00707405
0.00853992
0.0100702
0.0116355
0.0132074
0.0147648
0.00278822
0.00433994
0.00545537
0.00667693
0.00796427
0.00929883
0.010665
0.0120409
0.0134033
0.0147178
0.00384916
0.0053055
0.00640213
0.0075791
0.00877888
0.00998209
0.0111782
0.0123519
0.0134845
0.0145146
0.00485368
0.00619493
0.00726834
0.00840361
0.00952253
0.0106009
0.0116296
0.0125974
0.0134852
0.0141541
0.00577337
0.00700049
0.00805114
0.00915074
0.0101987
0.0111639
0.0120361
0.0128081
0.0134536
0.0136536
0.0065789
0.00771372
0.0087458
0.00981753
0.0108058
0.0116719
0.012405
0.0130062
0.0134331
0.0130473
0.00724462
0.00832591
0.00934628
0.010396
0.0113343
0.0121161
0.0127325
0.0132031
0.0134878
0.0126851
0.0190212
0.0275695
0.0344855
0.0410607
0.0463478
0.0511206
0.0542559
0.0577656
0.0580117
0.0601162
0.0190916
0.0268953
0.03334
0.0394991
0.044525
0.0490847
0.0521482
0.0554387
0.0559089
0.0576959
0.018919
0.0260675
0.032102
0.0379032
0.0427046
0.0470952
0.0500618
0.0532384
0.0538475
0.055388
0.0185281
0.0251077
0.0307861
0.0362796
0.0408987
0.0451426
0.0480296
0.0511427
0.0517944
0.0532133
0.0179662
0.0240757
0.0294199
0.0346499
0.0391156
0.0432276
0.0460597
0.0491268
0.0497912
0.0511727
0.0172852
0.0229778
0.0279897
0.0330161
0.0373554
0.0413528
0.0441411
0.0471582
0.0478393
0.0492301
0.0165835
0.0218739
0.0265541
0.0314168
0.0356321
0.0395254
0.0422767
0.0452521
0.0459814
0.0473928
0.0158773
0.0206202
0.0250342
0.0298103
0.0339298
0.0377397
0.0404501
0.0433561
0.0441442
0.0456108
0.0154253
0.019462
0.0236268
0.028271
0.0322758
0.0360092
0.0386986
0.0415513
0.0424225
0.0439277
0.01448
0.0178101
0.0219678
0.0266007
0.0305893
0.0342832
0.0369355
0.0396495
0.0406236
0.0422358
0.0177328
0.0170307
0.0195715
0.0232164
0.0268486
0.0303621
0.0332294
0.0359158
0.0371613
0.0385203
0.012199
0.0120445
0.0149135
0.0183405
0.0217206
0.0249214
0.0276403
0.0300127
0.0311752
0.0320835
0.00543429
0.00659877
0.0101342
0.0137118
0.0169938
0.019924
0.0223307
0.0244092
0.0254536
0.0261099
-0.000622836
0.0014968
0.00554698
0.00939951
0.0126062
0.0152013
0.0171412
0.0187434
0.0195825
0.0202694
-0.00489203
-0.00273372
0.00124543
0.00524164
0.00842625
0.0108116
0.0124182
0.0136517
0.0142107
0.0148381
-0.00738421
-0.00549886
-0.00183916
0.00192338
0.00486186
0.00695551
0.00819704
0.00908807
0.00953754
0.0101326
-0.00805767
-0.00675279
-0.00371456
-0.000342941
0.00219992
0.00384068
0.00456913
0.00495024
0.00511138
0.00600096
-0.0067015
-0.00603872
-0.00401503
-0.00153193
0.000460077
0.0016329
0.00197893
0.00212123
0.00178466
0.00263768
-0.00451082
-0.00416766
-0.00302098
-0.00154625
-0.000356389
0.000205705
8.20896e-05
-0.000496102
-0.000636474
0.000162925
-0.0013504
-0.00134359
-0.00117201
-0.000670849
-0.000307559
-0.000234676
-0.000594548
-0.00126711
-0.00146845
-0.000821582
0.012569
0.009039
0.00339038
-0.00185061
-0.00546635
-0.00749733
-0.00754609
-0.00623719
-0.00380797
-0.000554101
0.01172
0.00768322
0.0019603
-0.00303726
-0.00622242
-0.00786177
-0.00758791
-0.00615111
-0.00361034
-0.000574209
0.0109209
0.0061583
0.000446905
-0.0042723
-0.00704466
-0.00828123
-0.00767451
-0.00606502
-0.00342935
-0.000625641
0.00984414
0.00450808
-0.0010717
-0.00546588
-0.00781621
-0.00866022
-0.00773498
-0.00597378
-0.00328394
-0.000666314
0.00845587
0.00275702
-0.00260782
-0.00664503
-0.00855827
-0.00900802
-0.00778617
-0.00588196
-0.00314516
-0.000703061
0.0067922
0.00097241
-0.00409345
-0.00775973
-0.00924402
-0.00931655
-0.00782559
-0.0057855
-0.00301839
-0.000735352
0.00502226
-0.000721738
-0.00542362
-0.00873214
-0.00982428
-0.00956023
-0.00784005
-0.00568158
-0.00290655
-0.000760673
0.00340495
-0.00217054
-0.0064917
-0.00948773
-0.010252
-0.00971435
-0.00781763
-0.00556879
-0.00281103
-0.00078104
0.00217907
-0.00323737
-0.00721673
-0.00997443
-0.0104915
-0.00976091
-0.00774774
-0.00544287
-0.00272496
-0.000795944
0.00147533
-0.00385542
-0.00756121
-0.0101703
-0.0105258
-0.00968857
-0.00762141
-0.00529342
-0.0026509
-0.000784296
0.00129179
-0.00404335
-0.00754172
-0.0100771
-0.0103614
-0.00948579
-0.00744052
-0.00513277
-0.00259221
-0.000748099
0.00154024
-0.00382553
-0.00720816
-0.00972296
-0.0100167
-0.0091662
-0.00719711
-0.00495499
-0.00253483
-0.000720198
0.00215414
-0.00329779
-0.00661582
-0.00915884
-0.009522
-0.00875109
-0.00690802
-0.00476743
-0.00248088
-0.000705774
0.00303629
-0.0025422
-0.00583507
-0.00843697
-0.00891804
-0.00826552
-0.00658204
-0.00457274
-0.00243011
-0.000698651
0.00409893
-0.00162729
-0.00493389
-0.00760822
-0.00824623
-0.00773654
-0.0062392
-0.00440949
-0.00238272
-0.000693626
0.00526823
-0.000608552
-0.00396937
-0.0067186
-0.00754091
-0.00718773
-0.00589052
-0.00419783
-0.00232437
-0.000687518
0.00647639
0.00046834
-0.00298552
-0.00580427
-0.00682744
-0.00663628
-0.00554279
-0.00398801
-0.00225353
-0.000677946
0.00770618
0.00160243
-0.00199159
-0.00488221
-0.00612149
-0.00609553
-0.00520185
-0.00378845
-0.0021825
-0.000664918
0.00904742
0.00288866
-0.000947134
-0.00394197
-0.00542238
-0.00557182
-0.00487371
-0.00359653
-0.00210809
-0.000648829
0.010118
0.00417159
5.96576e-05
-0.00301596
-0.00471228
-0.00502956
-0.00452627
-0.00339126
-0.00202054
-0.000625876
0.0100731
0.00602889
0.00196648
-0.000982109
-0.00292241
-0.00360681
-0.00350728
-0.00274584
-0.00171752
-0.000544968
0.0106876
0.00710536
0.00356251
0.0009765
-0.000872944
-0.00177584
-0.00207329
-0.00173507
-0.00110558
-0.000300386
0.0124915
0.00892966
0.00544457
0.00291039
0.00095736
-0.000183064
-0.000784109
-0.00075893
-0.000444761
5.69178e-06
0.0146205
0.0109427
0.00740726
0.00478823
0.00264729
0.00125472
0.00038739
0.000177104
0.000273944
0.000402762
0.0170376
0.0130946
0.00939393
0.0065838
0.00419669
0.00254727
0.00145833
0.0010962
0.00105732
0.000882478
0.0197007
0.0153672
0.0113787
0.00827965
0.0056072
0.0037148
0.00245129
0.00200425
0.00189997
0.0014338
0.02253
0.0176628
0.0132933
0.00985787
0.00691592
0.00480444
0.00341148
0.00291202
0.00276184
0.00199096
0.0251164
0.0196256
0.0150789
0.0113393
0.00815413
0.0058467
0.00435987
0.0037775
0.00345458
0.00228862
0.0274768
0.0222586
0.0170734
0.0126999
0.00921483
0.00676579
0.0051997
0.00437336
0.00361621
0.00205526
0.0302043
0.0226464
0.0171609
0.0129487
0.00969918
0.00734532
0.00574363
0.00462742
0.00344341
0.00164472
0.0128211
0.0136381
0.0153317
0.0173818
0.0199711
0.0228394
0.0258526
0.0294054
0.0305955
0.0363602
0.0137452
0.0149501
0.0167677
0.0189289
0.0216937
0.0247081
0.0278804
0.0314695
0.0329514
0.0377307
0.0144085
0.0160409
0.0181648
0.0206796
0.0237846
0.0270872
0.0305304
0.0340742
0.0361972
0.0384488
0.0150832
0.0169619
0.0193363
0.0222173
0.0256587
0.0292702
0.0329926
0.036653
0.0392293
0.0400461
0.0158027
0.0179202
0.0204994
0.0236776
0.0273813
0.0312439
0.0351958
0.0390454
0.0419293
0.0425858
0.0165062
0.0189502
0.0217867
0.0252446
0.0291696
0.0332352
0.0373671
0.0413866
0.0445207
0.0456201
0.0171728
0.0200118
0.0231854
0.0269567
0.0311174
0.0353884
0.0396925
0.0438563
0.047206
0.0487944
0.0178151
0.0210913
0.0246553
0.0287749
0.0332068
0.0377168
0.0422227
0.0465403
0.0500756
0.0519878
0.0184462
0.022199
0.0261821
0.0306673
0.0353982
0.0401812
0.0449281
0.0494338
0.05314
0.0552268
0.0190723
0.0233442
0.0277657
0.0326245
0.0376717
0.0427486
0.0477669
0.0524958
0.0563788
0.058573
0.0196976
0.024528
0.0294011
0.0346432
0.0400211
0.045406
0.0507176
0.0556964
0.0597762
0.0620686
0.0203176
0.0257341
0.0310718
0.0367099
0.0424368
0.0481452
0.0537712
0.0590205
0.0633229
0.0657251
0.0209152
0.0269229
0.0327515
0.0387992
0.0449031
0.0509638
0.0569381
0.0624831
0.0670233
0.0695455
0.0214568
0.0280543
0.0344074
0.0408832
0.047403
0.0538497
0.0602179
0.0660951
0.0708781
0.0735274
0.0218898
0.0291048
0.0360093
0.0429372
0.0499431
0.0568258
0.0636051
0.0698407
0.0748912
0.0776763
0.0221451
0.0300557
0.0375102
0.044998
0.052476
0.0598202
0.0670424
0.0736768
0.0790426
0.0819841
0.0221471
0.0309282
0.0389434
0.0469852
0.0549649
0.0628189
0.0705402
0.0776267
0.0833495
0.0864715
0.0218767
0.0316207
0.0401875
0.0487941
0.057313
0.0657208
0.0739967
0.0816096
0.0877672
0.0911226
0.0214077
0.0321824
0.0413029
0.0505037
0.0596013
0.0686114
0.0774932
0.0856892
0.092331
0.0959797
0.0202212
0.0321474
0.0418559
0.0516522
0.0613451
0.071
0.0805831
0.0895425
0.096887
0.100995
0.0203162
0.0343075
0.0452459
0.0562653
0.0672318
0.0783006
0.0893831
0.0999314
0.108691
0.113815
0.0309394
0.0444267
0.0557233
0.0683617
0.0812006
0.0945335
0.108142
0.121293
0.132292
0.138592
0.0433543
0.0569061
0.0690657
0.0835742
0.0984636
0.11435
0.130874
0.146907
0.160345
0.168133
0.0555759
0.0696737
0.0837885
0.100731
0.118208
0.137321
0.157296
0.176604
0.192763
0.201987
0.0672657
0.0826474
0.0995561
0.119262
0.139821
0.162934
0.186904
0.210075
0.229158
0.24015
0.0790617
0.096429
0.116506
0.139054
0.163295
0.191141
0.219633
0.247207
0.269146
0.281355
0.0911149
0.111022
0.13402
0.15948
0.188151
0.221148
0.254544
0.286626
0.310943
0.325131
0.103694
0.125987
0.151608
0.180432
0.214031
0.251986
0.290553
0.327086
0.353351
0.366232
0.1141
0.138223
0.165904
0.197985
0.23583
0.277603
0.320787
0.361269
0.389578
0.404054
0.122117
0.147076
0.1762
0.210757
0.251324
0.295824
0.343113
0.388582
0.421238
0.421477
0.0142921
0.0235038
0.0345972
0.0465853
0.0578889
0.0694784
0.0803065
0.0921884
0.101499
0.109099
0.0121093
0.0220018
0.0328945
0.0447144
0.0557343
0.0671177
0.0775307
0.0892238
0.0980463
0.105108
0.0106398
0.0215911
0.032796
0.0446022
0.0553724
0.0664376
0.076556
0.0879868
0.096307
0.102721
0.00889978
0.0203929
0.031899
0.0437996
0.0544761
0.0653191
0.0751767
0.0862721
0.0942032
0.100198
0.00700003
0.0186679
0.0304301
0.042307
0.0529092
0.063569
0.0731421
0.0838174
0.0913912
0.0971296
0.00510831
0.0168885
0.0289052
0.0407234
0.0512278
0.0616903
0.0709608
0.0811718
0.088355
0.0938638
0.00328138
0.015184
0.0274213
0.0393007
0.0497471
0.0600345
0.069032
0.0788369
0.0856196
0.0908855
0.00157404
0.013541
0.0259801
0.0380026
0.0484969
0.0586701
0.0674704
0.0769927
0.0834331
0.0884739
6.00048e-05
0.0119773
0.0246381
0.0367754
0.0474335
0.0575484
0.0662643
0.0755883
0.0818118
0.0866623
-0.00118572
0.010532
0.0234574
0.0357017
0.0465055
0.0566168
0.0654102
0.07451
0.0806888
0.0853538
-0.0020978
0.00923409
0.0224898
0.034825
0.0457437
0.0559249
0.0648192
0.0737595
0.0799928
0.0844561
-0.00266566
0.00808567
0.0217407
0.0341287
0.0451802
0.0554856
0.0644728
0.0733555
0.0796641
0.0839659
-0.00292565
0.00709341
0.0212007
0.0335822
0.0448273
0.0552928
0.0643913
0.0733143
0.0797013
0.0839001
-0.00291365
0.00631971
0.020878
0.0331821
0.0446901
0.0553294
0.0645815
0.0736284
0.0801062
0.0842662
-0.00265154
0.00585609
0.0207747
0.0329595
0.0447841
0.0555935
0.0650627
0.0743091
0.0808934
0.0850565
-0.00221581
0.00577886
0.0208592
0.0329394
0.0450912
0.0560617
0.0658122
0.0753181
0.0820385
0.0862528
-0.00155216
0.00612874
0.0210976
0.0331763
0.0456241
0.0567733
0.0668729
0.0766754
0.0835591
0.0878403
-0.000811698
0.00686557
0.0213773
0.033605
0.0462735
0.0576422
0.0681425
0.0782795
0.0854002
0.0898089
-0.000116798
0.00802174
0.021844
0.0343574
0.0471557
0.0587909
0.0697192
0.0802021
0.087605
0.0921575
0.000309925
0.00894826
0.021939
0.0347649
0.047696
0.0596991
0.0711256
0.082096
0.0900018
0.0948797
0.00436709
0.0157429
0.0262899
0.0389211
0.0516432
0.0642169
0.0766153
0.0883775
0.097228
0.102486
0.0235573
0.0329961
0.0426589
0.0551869
0.067521
0.0806287
0.0938447
0.106375
0.11595
0.121318
0.0411366
0.0520846
0.063472
0.0768919
0.0903363
0.104993
0.119197
0.132388
0.141981
0.146774
0.0564511
0.0691822
0.0828619
0.0981981
0.114403
0.132017
0.14878
0.164202
0.174826
0.179302
0.0691502
0.0833116
0.0988722
0.11641
0.135691
0.156641
0.177247
0.196861
0.210885
0.217016
0.0794302
0.0944402
0.111494
0.131119
0.153155
0.177379
0.202785
0.22841
0.249114
0.260382
0.086416
0.102323
0.120634
0.142176
0.16671
0.194474
0.225795
0.259496
0.290749
0.313616
0.0926562
0.1091
0.128524
0.151787
0.178825
0.210652
0.249179
0.294151
0.342309
0.387362
0.0947265
0.111721
0.132301
0.157201
0.187227
0.224404
0.272068
0.332031
0.40484
0.487297
0.0991173
0.118135
0.14061
0.168007
0.202216
0.246129
0.304119
0.3818
0.48733
0.619703
0.00518103
0.0203804
0.0351496
0.0489573
0.0607035
0.0710015
0.0775398
0.0837981
0.0859226
0.0889188
0.00705161
0.0220201
0.0354531
0.0481626
0.0589826
0.0686825
0.0746759
0.0806681
0.0827337
0.0857274
0.00974054
0.0254654
0.0381227
0.0496296
0.0591354
0.0676188
0.0727725
0.0781298
0.079871
0.0833266
0.0116111
0.0271317
0.0392213
0.0500167
0.0586133
0.0661894
0.0707517
0.0755753
0.0769064
0.0805254
0.0132143
0.0277087
0.0388917
0.0491077
0.0571173
0.0641473
0.0683833
0.0728765
0.0738429
0.0772572
0.0147937
0.0281405
0.0382453
0.0477755
0.055239
0.0618466
0.065857
0.0701355
0.070823
0.0738762
0.0161916
0.0285217
0.0376885
0.0465138
0.0533852
0.0595768
0.0633619
0.0674707
0.0679479
0.0706789
0.0173008
0.0286707
0.0371101
0.045322
0.0516069
0.0574058
0.0609557
0.0649356
0.0652413
0.0677624
0.0181268
0.028525
0.0363824
0.0440787
0.0498221
0.0552932
0.0586289
0.062517
0.062688
0.0650857
0.0187022
0.0281112
0.0355092
0.0425899
0.0481297
0.0532018
0.0563704
0.0601643
0.0602754
0.0625622
0.00775643
0.00882978
0.00984356
0.0108741
0.0117665
0.0124732
0.0129922
0.0133734
0.0137707
0.0139793
0.00811558
0.00922586
0.0102356
0.011241
0.0120806
0.0127029
0.0131052
0.0133194
0.013429
0.013323
0.00833186
0.00952649
0.0105282
0.0114941
0.0122624
0.0127795
0.0130403
0.0130585
0.01285
0.0123318
0.00843594
0.00975277
0.010736
0.0116407
0.0123111
0.012697
0.0127976
0.012627
0.0121889
0.0114242
0.00847572
0.00993185
0.0108807
0.0116965
0.0122358
0.0124586
0.0123768
0.0120155
0.0113963
0.010506
0.00850831
0.0100942
0.0109879
0.0116833
0.012056
0.0120825
0.011794
0.0112329
0.0104484
0.00947841
0.00859386
0.0102719
0.0110859
0.0116307
0.0118061
0.0116109
0.011099
0.0103321
0.0093844
0.0083221
0.00879161
0.0104986
0.0112083
0.0115791
0.0115394
0.011114
0.0103798
0.00941495
0.00831101
0.00712911
0.00915465
0.0108093
0.011394
0.0115794
0.0113253
0.0106833
0.00974934
0.00861414
0.00737516
0.00606898
0.00971436
0.0112335
0.0116822
0.0116859
0.0112364
0.01041
0.00931672
0.00805327
0.00671163
0.00530811
0.0104685
0.0117876
0.0121056
0.0119458
0.0113326
0.0103638
0.00915755
0.00781048
0.0064019
0.0049443
0.0114945
0.0125249
0.0127076
0.012399
0.0116511
0.0105776
0.00929876
0.00790529
0.00646243
0.00498919
0.012775
0.0134474
0.0134943
0.013051
0.0121927
0.0110434
0.00972148
0.00830885
0.00686009
0.00540589
0.0142778
0.0145438
0.0144533
0.0138826
0.012928
0.0117208
0.0103733
0.00895886
0.00752666
0.00611574
0.0159557
0.0157854
0.0155506
0.0148516
0.0138055
0.012548
0.0111838
0.00977831
0.00838011
0.00702907
0.0177424
0.0171242
0.0167331
0.0158996
0.0147611
0.0134553
0.0120784
0.0106887
0.00933744
0.00805883
0.019556
0.0184941
0.0179357
0.0169612
0.0157285
0.0143754
0.0129887
0.0116193
0.0103222
0.00912394
0.0213048
0.0198196
0.0190884
0.0179717
0.0166471
0.0152507
0.0138592
0.0125129
0.0112667
0.0101502
0.0228936
0.0210224
0.0201236
0.0188741
0.0174687
0.016038
0.0146472
0.0133178
0.0120968
0.0110609
0.0242307
0.0220272
0.0209806
0.0196232
0.0181625
0.0167192
0.0153406
0.0140169
0.0127864
0.0118354
0.0252356
0.022768
0.0216072
0.0201824
0.0187113
0.0173078
0.0160143
0.0148185
0.0137814
0.0132081
0.0258459
0.0231896
0.0219582
0.0205137
0.0190776
0.0177513
0.0165673
0.0155075
0.0146149
0.0141242
0.0260043
0.0232503
0.022001
0.020587
0.0192277
0.0180089
0.0169508
0.0160296
0.0152608
0.0148026
0.0256846
0.0229298
0.0217188
0.0203859
0.0191439
0.0180637
0.017155
0.0163914
0.0157693
0.0153923
0.0248887
0.0222282
0.0211117
0.019909
0.0188236
0.0179133
0.0171801
0.0165964
0.0161464
0.0158968
0.0236426
0.0211646
0.0201957
0.0191693
0.0182769
0.0175663
0.0170339
0.0166519
0.0163959
0.0163045
0.0219931
0.0197741
0.0189995
0.01819
0.0175231
0.0170389
0.0167303
0.0165703
0.0165291
0.0166216
0.0200019
0.0181034
0.0175613
0.0170018
0.0165869
0.0163512
0.0162859
0.0163655
0.0165582
0.0168595
0.017741
0.0162061
0.015924
0.0156391
0.0154955
0.0155246
0.0157174
0.0160505
0.0164928
0.0170263
0.0152993
0.0141429
0.0141345
0.0141377
0.0142764
0.0145797
0.0150398
0.0156361
0.0163397
0.0171258
0.0127896
0.0119871
0.0122463
0.0125386
0.0129606
0.0135391
0.014269
0.0151323
0.0161036
0.0171585
0.0101938
0.00975866
0.010285
0.0108627
0.0115635
0.0124133
0.0134107
0.0145409
0.0157818
0.0171171
0.00758584
0.00750948
0.00828961
0.00913906
0.0101058
0.0112153
0.0124715
0.0138623
0.0153669
0.0169861
0.00502732
0.0052847
0.00629411
0.00739232
0.00860425
0.00995443
0.0114534
0.0130921
0.0148465
0.0167396
0.00255881
0.00311742
0.00432442
0.00564103
0.00707044
0.00863579
0.0103547
0.0122231
0.0142081
0.0163431
0.000210258
0.00103366
0.00239879
0.00389912
0.00551257
0.00726185
0.00917155
0.0112445
0.0134407
0.0157662
-0.00199716
-0.000950211
0.000533416
0.00217693
0.0039363
0.00583389
0.00790153
0.010146
0.0125161
0.0150231
-0.00405138
-0.00282339
-0.0012603
0.000482194
0.00234541
0.00435165
0.00654097
0.00892551
0.0114321
0.0140802
-0.00594673
-0.004579
-0.00297655
-0.00118034
0.000742758
0.00281541
0.00508655
0.00758221
0.0102048
0.0129343
-0.00768194
-0.0062144
-0.00461232
-0.00280747
-0.00086937
0.00122521
0.0035304
0.00609407
0.00882469
0.0115789
-0.00926293
-0.00773222
-0.00616783
-0.00439773
-0.00248887
-0.000415898
0.00187529
0.00445758
0.00738406
0.0103669
-0.010715
-0.0091425
-0.00764533
-0.0059487
-0.00411117
-0.00210432
0.000120909
0.00262109
0.0054832
0.00848597
-0.0120237
-0.010441
-0.00904123
-0.00745363
-0.00572512
-0.00382364
-0.00170147
0.000684452
0.0034237
0.00638389
-0.0131871
-0.0116288
-0.0103532
-0.00890425
-0.00731453
-0.00554677
-0.00354925
-0.00127854
0.00135256
0.0042396
-0.0142078
-0.0127077
-0.0115777
-0.0102902
-0.00886089
-0.00724642
-0.00538983
-0.00324368
-0.000724962
0.00207397
-0.0150865
-0.0136772
-0.012709
-0.0115983
-0.0103434
-0.00889449
-0.00719035
-0.00518051
-0.00278723
-8.33036e-05
-0.015821
-0.0145336
-0.0137377
-0.012812
-0.0117372
-0.0104582
-0.00891015
-0.00704107
-0.00478035
-0.0021754
-0.0164074
-0.0152708
-0.0146516
-0.013911
-0.0130137
-0.0118999
-0.0105029
-0.00877056
-0.00664181
-0.00413514
-0.0168404
-0.0158804
-0.0154358
-0.0148727
-0.0141417
-0.0131802
-0.0119209
-0.0103139
-0.00831032
-0.00589527
-0.017108
-0.0163488
-0.0160722
-0.0156724
-0.0150897
-0.0142607
-0.0131194
-0.0116203
-0.00973128
-0.00740088
-0.0171893
-0.0166536
-0.0165355
-0.0162805
-0.0158233
-0.015103
-0.0140567
-0.0126447
-0.0108571
-0.00860996
-0.0171249
-0.0168104
-0.0168275
-0.0166895
-0.0163284
-0.0156883
-0.0147113
-0.0133629
-0.0116593
-0.00949956
-0.0169062
-0.0168067
-0.0169342
-0.0168832
-0.0165876
-0.0159992
-0.0150681
-0.0137631
-0.0121226
-0.0100662
-0.0165332
-0.0166369
-0.0168487
-0.0168531
-0.0165921
-0.0160274
-0.0151209
-0.0138462
-0.0122545
-0.0103083
-0.0160139
-0.0163047
-0.0165729
-0.016599
-0.0163419
-0.0157731
-0.0148645
-0.0136097
-0.012078
-0.0102724
-0.0153638
-0.0158266
-0.0161073
-0.0161268
-0.0158436
-0.015244
-0.0143098
-0.013055
-0.0115823
-0.00976674
-0.0146131
-0.0151986
-0.0154703
-0.0154501
-0.0151106
-0.0144529
-0.0134682
-0.0121872
-0.0107532
-0.00899226
-0.0137765
-0.0144454
-0.0146785
-0.0145871
-0.014162
-0.0134184
-0.0123555
-0.0110141
-0.00957906
-0.00790025
-0.0128776
-0.0135862
-0.0137519
-0.0135608
-0.0130214
-0.0121607
-0.010981
-0.00951373
-0.00797458
-0.00637617
-0.0119398
-0.0126403
-0.0127137
-0.0123991
-0.0117228
-0.0107246
-0.00941566
-0.00780702
-0.00605128
-0.00431764
-0.0109846
-0.0116272
-0.0115881
-0.011131
-0.0102963
-0.00912523
-0.00761578
-0.00569586
-0.00324787
-0.000344697
-0.0100395
-0.0105705
-0.0104015
-0.00978979
-0.0087911
-0.0074529
-0.0057837
-0.0037316
-0.00117284
0.00179766
-0.00910875
-0.00947976
-0.009173
-0.00840679
-0.00725423
-0.00577651
-0.00399991
-0.00191634
0.000535833
0.00338827
-0.00819377
-0.00836321
-0.00791868
-0.00700584
-0.00571342
-0.0041159
-0.00224762
-0.000117242
0.00228702
0.00500925
-0.00729211
-0.00722638
-0.00665013
-0.00560411
-0.00418756
-0.00248509
-0.000534747
0.00165199
0.00406147
0.0067096
-0.00639705
-0.00607078
-0.00537475
-0.00421422
-0.0026938
-0.000905194
0.00110884
0.00333465
0.00575148
0.00836523
-0.00549382
-0.00490072
-0.00409597
-0.00284503
-0.00124639
0.000603703
0.00265704
0.00489565
0.00729819
0.00986942
-0.00457146
-0.00371615
-0.00281824
-0.00150225
0.000144444
0.00202721
0.00409223
0.00631589
0.00867728
0.0111781
-0.00361972
-0.00252217
-0.00154705
-0.000191516
0.00147258
0.00335675
0.00540414
0.00758463
0.00987678
0.0122832
-0.00262439
-0.00132132
-0.000286658
0.0010831
0.00273347
0.00458663
0.00658603
0.00869603
0.0108928
0.01318
)
;

boundaryField
{
    inlet
    {
        type            zeroGradient;
    }
    outlet
    {
        type            fixedValue;
        value           uniform 0;
    }
    cylinder
    {
        type            zeroGradient;
    }
    top
    {
        type            symmetryPlane;
    }
    bottom
    {
        type            symmetryPlane;
    }
    defaultFaces
    {
        type            empty;
    }
}


// ************************************************************************* //
