# Probe 0 (1 0 0.5)
# Probe 1 (2 0 0.5)
# Probe 2 (3 0 0.5)
# Probe 3 (1 0.5 0.5)
# Probe 4 (2 0.5 0.5)
# Probe 5 (3 0.5 0.5)
# Probe 6 (1 -0.5 0.5)
# Probe 7 (2 -0.5 0.5)
# Probe 8 (3 -0.5 0.5)
# Probe 9 (1 -1.5 0.5)
# Probe 10 (2 -1.5 0.5)
# Probe 11 (3 -1.5 0.5)
# Probe 12 (1 1.5 0.5)
# Probe 13 (2 1.5 0.5)
# Probe 14 (3 1.5 0.5)
#       Probe             0             1             2             3             4             5             6             7             8             9            10            11            12            13            14
#        Time
         0.01      -298.828      -260.205      -229.631       -273.99      -238.869      -210.538      -315.756      -273.429       -241.54      -338.938      -294.603      -260.667       -218.37      -193.578      -170.194
         0.02        88.673        94.951       93.6939       82.9417       89.5941       87.7129       94.3476       99.2488         98.49       103.813       103.957       105.012       68.7936       72.2618       71.5383
         0.03      -133.762      -141.252      -144.841       -123.33      -132.552      -135.698      -143.642       -151.47      -154.678      -160.665      -170.513      -172.789      -102.099      -112.537      -114.837
         0.04       159.094        168.61       174.232       146.343        157.37       161.999       170.877       181.141        186.76       191.445       203.869       208.072        120.25       131.663       134.957
         0.05      -182.266      -191.651      -192.729      -167.828      -179.449      -179.726      -195.867      -204.906      -205.376      -219.147      -229.592      -228.607      -139.017      -151.691      -150.294
         0.06       220.546       233.393       239.289       203.466       218.445       223.708       236.307       249.743       254.992       264.161       278.952       282.742       167.674       184.313       187.916
         0.07      -258.039      -271.511      -276.628      -238.072      -254.325      -258.121      -276.743      -290.387       -296.49      -310.252      -326.201      -335.489       -196.92      -214.809       -215.95
         0.08       314.191       332.207       341.245       290.665       312.005       320.138       336.015       354.362       364.083       375.275       395.283       410.953       241.124       265.066       270.222
         0.09      -394.742      -416.203      -430.945       -364.32      -390.157      -403.128      -423.245      -445.731       -465.24      -474.665      -502.932      -534.217      -301.295      -329.182      -337.719
          0.1       469.647        496.36       516.309       435.075       467.058       484.802       501.794       528.975        558.12       561.185       593.491       642.074       361.393       395.874       407.008
         0.11      -626.482       -662.29      -699.753      -578.086      -621.104      -654.817      -671.585      -710.517      -758.454       -754.19      -808.916      -875.985      -476.543      -521.266      -549.291
         0.12       700.664       741.717       790.313       650.566       699.857       742.019       747.055       790.831       854.081       836.458       896.308       977.106       540.027       590.063       631.483
         0.13      -976.918      -1035.34         -1108      -901.308      -971.154      -1036.33      -1046.97      -1112.29       -1202.4      -1177.53      -1272.49      -1384.38      -740.468      -813.055      -876.172
         0.14       970.825        1029.7       1108.86       905.487       975.935       1046.75       1031.07       1098.82       1193.54       1153.89       1244.34       1356.08        753.02        826.29       900.263
         0.15      -1355.75      -1439.09      -1548.36      -1252.16      -1352.23      -1451.66      -1451.22      -1546.44      -1677.01      -1630.26      -1766.56      -1923.22      -1028.91      -1134.51      -1235.49
         0.16       1129.92       1200.54       1298.95       1061.94       1145.77        1235.6       1192.26       1275.43       1388.94       1328.27       1429.43       1559.01       889.393       982.232          1078
         0.17      -1445.14      -1535.49       -1656.6      -1339.67      -1448.84       -1561.8      -1540.99      -1644.29      -1786.65      -1721.45      -1860.22      -2027.02      -1110.17      -1227.97      -1347.66
         0.18       1057.23       1123.36       1216.55       1000.13       1079.29       1166.99       1108.87       1184.16       1291.21       1224.57       1305.92       1427.24       846.562       937.034       1034.44
         0.19      -1157.53      -1230.14      -1329.49      -1078.58       -1168.7      -1262.59      -1227.64      -1307.34      -1421.66      -1357.21      -1448.04      -1581.25      -904.778      -998.971      -1103.61
          0.2         855.8       906.893       973.751       809.152       871.697       938.022       897.732       951.606       1028.29       981.774        1030.3       1122.82        689.48       761.286       837.376
         0.21      -826.405      -874.634      -933.317      -772.366      -832.057      -892.281       -874.45      -921.798       -990.58      -956.638       -999.02       -1087.6      -653.517      -717.434      -787.965
         0.22       651.695       688.352       721.787       613.791       658.175       697.419       686.119       723.192       757.991       746.892       776.173       824.918       524.436       577.309       620.786
         0.23       -580.81      -612.594      -633.475      -543.298      -580.705      -609.054      -614.263      -645.921      -665.385      -670.731      -695.117      -724.153      -462.344      -507.061      -536.244
         0.24  1.31714e+110  1.09216e+110  9.51331e+109  1.26544e+110   9.8282e+109  8.53225e+109  1.36957e+110  1.14386e+110  1.01044e+110   1.3914e+110  1.19885e+110  1.08754e+110  7.87391e+109  6.98315e+109  6.45279e+109
