# Probe 0 (1 0 0.5)
# Probe 1 (2 0 0.5)
# Probe 2 (3 0 0.5)
# Probe 3 (1 0.5 0.5)
# Probe 4 (2 0.5 0.5)
# Probe 5 (3 0.5 0.5)
# Probe 6 (1 -0.5 0.5)
# Probe 7 (2 -0.5 0.5)
# Probe 8 (3 -0.5 0.5)
# Probe 9 (1 -1.5 0.5)
# Probe 10 (2 -1.5 0.5)
# Probe 11 (3 -1.5 0.5)
# Probe 12 (1 1.5 0.5)
# Probe 13 (2 1.5 0.5)
# Probe 14 (3 1.5 0.5)
#       Probe             0             1             2             3             4             5             6             7             8             9            10            11            12            13            14
#        Time
         0.01             (0.516815 -0.396109 -7.33417e-19)             (0.661836 -0.349684 0.724586)             (0.719206 -0.324042 0.555783)             (0.694232 -0.501586 0)             (0.679969 -0.45842 0.633559)             (0.745333 -0.397875 0.485434)             (0.49369 -0.212448 0)             (0.654143 -0.248915 0.728211)             (0.718014 -0.239468 0.561499)             (0.549295 -0.182796 -1.63448e-17)             (0.624928 -0.232651 0.853254)             (0.717084 -0.220042 0.672924)             (0.455391 -0.442399 6.19521e-18)             (0.749554 -0.396127 0.55925)             (0.800105 -0.350927 0.429181)
         0.02             (0.430949 -0.338228 2.18409e-19)             (0.648484 -0.253486 -0.283382)             (0.726869 -0.20774 -0.27082)             (0.563885 -0.424955 0)             (0.682367 -0.302216 -0.258691)             (0.758078 -0.242555 -0.243494)             (0.424017 -0.167371 0)             (0.642806 -0.171358 -0.288065)             (0.707418 -0.147263 -0.284637)             (0.417025 -0.113459 5.00496e-18)             (0.643911 -0.148711 -0.336958)             (0.670329 -0.136115 -0.377033)             (0.586167 -0.324811 -1.95353e-18)             (0.748275 -0.270704 -0.238736)             (0.806401 -0.21372 -0.231493)
         0.03             (0.488026 -0.521638 -3.29383e-19)             (0.704567 -0.445583 0.428447)             (0.741131 -0.408577 0.4338)             (0.681347 -0.612667 0)             (0.731667 -0.499081 0.394056)             (0.765074 -0.449248 0.39406)             (0.470715 -0.315939 0)             (0.70435 -0.382433 0.450224)             (0.716518 -0.351719 0.44912)             (0.682616 -0.252962 -7.74863e-18)             (0.702148 -0.300036 0.581039)             (0.662666 -0.285901 0.564007)             (0.663092 -0.514485 2.89705e-18)             (0.797727 -0.497063 0.386976)             (0.805752 -0.4442 0.377864)
         0.04             (0.417701 -0.30785 3.91741e-19)             (0.62445 -0.20485 -0.513151)             (0.709167 -0.144372 -0.527315)             (0.541637 -0.384126 0)             (0.667137 -0.233631 -0.468484)             (0.743186 -0.165642 -0.475868)             (0.424316 -0.143611 0)             (0.608849 -0.132367 -0.542253)             (0.689167 -0.102838 -0.54856)             (0.380815 -0.0963082 9.23384e-18)             (0.609746 -0.109536 -0.701629)             (0.668479 -0.0979579 -0.681308)             (0.645784 -0.300545 -3.41547e-18)             (0.737244 -0.226356 -0.453466)             (0.797077 -0.166027 -0.45029)
         0.05             (0.489845 -0.550143 -4.48815e-19)             (0.67778 -0.464205 0.577928)             (0.683528 -0.41428 0.557734)             (0.698024 -0.636364 0)             (0.7098 -0.516246 0.52885)             (0.705356 -0.459564 0.49955)             (0.474019 -0.339189 0)             (0.659985 -0.399336 0.603152)             (0.668722 -0.36636 0.580574)             (0.728433 -0.274992 -1.05667e-17)             (0.632934 -0.316559 0.764601)             (0.655667 -0.31287 0.745016)             (0.71902 -0.549331 3.94558e-18)             (0.777728 -0.523834 0.513065)             (0.745067 -0.463497 0.460724)
         0.06             (0.391175 -0.255437 5.43044e-19)             (0.577922 -0.141826 -0.708548)             (0.655899 -0.0780248 -0.716914)             (0.502548 -0.323718 0)             (0.625482 -0.162823 -0.649176)             (0.686185 -0.0935683 -0.651682)             (0.405336 -0.102694 0)             (0.55388 -0.0740856 -0.742725)             (0.641292 -0.0463532 -0.744065)             (0.316832 -0.0643759 1.27408e-17)             (0.551918 -0.0645232 -0.945644)             (0.632971 -0.0520365 -0.946167)             (0.657253 -0.246039 -4.76161e-18)             (0.697439 -0.156609 -0.633451)             (0.741895 -0.0904589 -0.621263)
         0.07             (0.493391 -0.594415 -6.35405e-19)             (0.665823 -0.50556 0.820592)             (0.682116 -0.47617 0.828174)             (0.721878 -0.678554 0)             (0.698005 -0.56205 0.751708)             (0.692015 -0.51395 0.746308)             (0.473712 -0.378151 0)             (0.6532 -0.457121 0.859796)             (0.692082 -0.459582 0.876394)             (0.811083 -0.315749 -1.49582e-17)             (0.635347 -0.36107 1.10271)             (0.766916 -0.406032 1.19428)             (0.743105 -0.594943 5.58911e-18)             (0.762627 -0.576949 0.729129)             (0.722845 -0.522056 0.699024)
         0.08             (0.355054 -0.180725 7.73621e-19)             (0.528045 -0.0652899 -1.00794)             (0.61785 -0.00738799 -1.034)             (0.443856 -0.241078 0)             (0.576861 -0.0781115 -0.92743)             (0.647153 -0.0116759 -0.94149)             (0.379337 -0.0452591 0)             (0.505474 -0.00796252 -1.05341)             (0.593438 0.0265228 -1.09167)             (0.219912 -0.0118675 1.81017e-17)             (0.519212 -0.00290439 -1.34044)             (0.471157 0.0462628 -1.55045)             (0.641887 -0.164146 -6.84979e-18)             (0.648124 -0.0660528 -0.910628)             (0.714173 -0.00407423 -0.895882)
         0.09             (0.51325 -0.695852 -9.72078e-19)             (0.689415 -0.619169 1.26208)             (0.783457 -0.635258 1.34565)             (0.778035 -0.780807 0)             (0.71767 -0.679755 1.15912)             (0.773351 -0.648685 1.22179)             (0.485429 -0.465119 0)             (0.704242 -0.614855 1.32877)             (0.833729 -0.683387 1.45202)             (0.99008 -0.401264 -2.28832e-17)             (0.757534 -0.474944 1.73563)             (0.851936 -0.527715 2.01161)             (0.755176 -0.698602 8.54998e-18)             (0.776966 -0.714191 1.12685)             (0.790307 -0.685832 1.16365)
          0.1             (0.310712 -0.0764293 1.15636e-18)             (0.476775 0.0264375 -1.50727)             (0.513531 0.117555 -1.6401)             (0.361548 -0.128186 0)             (0.524766 0.0380064 -1.39061)             (0.574561 0.113899 -1.48799)             (0.353354 0.0365351 0)             (0.454223 0.0730584 -1.57835)             (0.388757 0.22375 -1.81081)             (0.0587964 0.0745485 2.7077e-17)             (0.455982 0.0891368 -2.05436)             (0.351996 0.152652 -2.44375)             (0.627673 -0.0372861 -1.02668e-17)             (0.61652 0.0585955 -1.35653)             (0.647913 0.142435 -1.43681)
         0.11             (0.564492 -0.884742 -1.54285e-18)             (0.788002 -0.84593 2.01692)             (0.950143 -0.915209 2.25864)             (0.892114 -0.978079 0)             (0.80131 -0.918151 1.85582)             (0.932868 -0.921596 2.05846)             (0.52325 -0.620572 0)             (0.867696 -0.922909 2.13701)             (0.968822 -0.974316 2.45732)             (1.38401 -0.570828 -3.63585e-17)             (1.00307 -0.683406 2.84335)             (1.0196 -0.748386 3.32679)             (0.750311 -0.899245 1.3516e-17)             (0.875213 -0.991814 1.80236)             (0.955444 -0.990733 2.0134)
         0.12             (0.259984 0.0389927 1.72508e-18)             (0.4238 0.103613 -2.25922)             (0.322615 0.305314 -2.59865)             (0.256979 -0.00158484 0)             (0.461573 0.150157 -2.09283)             (0.397316 0.277622 -2.38508)             (0.330643 0.12529 0)             (0.335753 0.189775 -2.38966)             (0.27646 0.373349 -2.77292)             (-0.209275 0.191627 4.03797e-17)             (0.265908 0.166683 -3.19309)             (0.268354 0.249086 -3.71159)             (0.639362 0.125708 -1.53429e-17)             (0.599696 0.204259 -2.03415)             (0.481078 0.31601 -2.39304)
         0.13             (0.658232 -1.20505 -2.40602e-18)             (1.00406 -1.25848 3.1678)             (1.15725 -1.368 3.63963)             (1.08158 -1.31745 0)             (0.986329 -1.33654 2.92042)             (1.10886 -1.35868 3.32916)             (0.595506 -0.887037 0)             (1.12089 -1.3937 3.37138)             (1.21033 -1.48966 3.9043)             (1.98181 -0.829958 -5.67578e-17)             (1.292 -1.0124 4.52601)             (1.31909 -1.13194 5.25523)             (0.696597 -1.23297 2.099e-17)             (1.15038 -1.47912 2.85843)             (1.12464 -1.46986 3.31204)
         0.14             (0.225025 0.0767231 2.39002e-18)             (0.391066 0.0508356 -3.1518)             (0.239431 0.30612 -3.65468)             (0.168098 0.0457865 0)             (0.429562 0.125465 -2.9319)             (0.287562 0.280035 -3.3859)             (0.325674 0.145486 0)             (0.160378 0.264864 -3.35863)             (0.196102 0.382708 -3.88655)             (-0.490071 0.2646 5.57319e-17)             (0.163296 0.143694 -4.46266)             (0.281676 0.227723 -5.14484)             (0.735585 0.261192 -2.14038e-17)             (0.527813 0.258135 -2.92651)             (0.421773 0.322545 -3.42842)
         0.15             (0.778172 -1.6224 -3.33917e-18)             (1.24956 -1.79377 4.4105)             (1.43758 -1.96789 5.10157)             (1.30633 -1.75738 0)             (1.21426 -1.89972 4.0763)             (1.35746 -1.94247 4.69867)             (0.698458 -1.23474 0)             (1.39091 -2.01923 4.71278)             (1.51791 -2.15216 5.45614)             (2.63474 -1.12858 -7.85673e-17)             (1.68157 -1.44062 6.31267)             (1.74583 -1.62079 7.3038)             (0.736447 -1.64592 2.91581e-17)             (1.42523 -2.09056 4.03029)             (1.37897 -2.12069 4.70328)
         0.16             (0.250773 -0.118081 2.78138e-18)             (0.451589 -0.30054 -3.68384)             (0.292114 -0.0568061 -4.29901)             (0.183784 -0.147108 0)             (0.49938 -0.236548 -3.44938)             (0.31851 -0.0896781 -4.01456)             (0.369946 -0.0331123 0)             (0.158844 -0.0724754 -3.91298)             (0.268498 -0.00353713 -4.53394)             (-0.399234 0.176537 6.41907e-17)             (0.351257 -0.153945 -5.13421)             (0.547938 -0.107735 -5.91179)             (0.936413 0.197489 -2.53024e-17)             (0.537345 -0.0503515 -3.52634)             (0.483301 -0.0426205 -4.13915)
         0.17             (0.858109 -1.89119 -3.55928e-18)             (1.38491 -2.19301 4.70838)             (1.61995 -2.38175 5.47578)             (1.4068 -2.03835 0)             (1.36916 -2.29725 4.37155)             (1.53716 -2.31274 5.08424)             (0.795727 -1.44826 0)             (1.54089 -2.39127 5.02407)             (1.71318 -2.608 5.82719)             (2.88768 -1.24103 -8.29701e-17)             (1.98138 -1.73035 6.65677)             (2.10993 -1.9377 7.70947)             (0.928695 -1.84538 3.14776e-17)             (1.6355 -2.54775 4.40259)             (1.61148 -2.60202 5.18561)
         0.18             (0.338508 -0.474177 2.6023e-18)             (0.648929 -0.858235 -3.44433)             (0.485747 -0.676129 -4.03676)             (0.308634 -0.515247 0)             (0.684176 -0.806692 -3.24764)             (0.487729 -0.686276 -3.81097)             (0.451614 -0.33794 0)             (0.413277 -0.690646 -3.62831)             (0.500601 -0.676048 -4.2219)             (0.192402 -0.0603965 5.91953e-17)             (0.79107 -0.623606 -4.68524)             (0.99514 -0.646055 -5.41794)             (1.07432 -0.0948638 -2.41118e-17)             (0.808972 -0.66406 -3.35763)             (0.685467 -0.690882 -4.01344)
         0.19             (0.855512 -1.87713 -2.85074e-18)             (1.34397 -2.26405 3.76474)             (1.60129 -2.40224 4.4108)             (1.32384 -2.02808 0)             (1.37142 -2.36521 3.52118)             (1.53183 -2.37775 4.13288)             (0.843356 -1.42304 0)             (1.49139 -2.38068 3.99112)             (1.67688 -2.53295 4.64333)             (2.40465 -1.0531 -6.54264e-17)             (2.03768 -1.75977 5.17491)             (2.24033 -1.94097 6.03039)             (1.25437 -1.73808 2.56872e-17)             (1.69163 -2.61417 3.57833)             (1.69711 -2.66645 4.30424)
          0.2             (0.425084 -0.72964 2.10652e-18)             (0.857085 -1.20466 -2.76302)             (0.703418 -1.14298 -3.23215)             (0.434526 -0.79647 0)             (0.875052 -1.20204 -2.61175)             (0.690243 -1.1615 -3.06336)             (0.520113 -0.532586 0)             (0.833683 -1.15767 -2.86984)             (0.724237 -1.12383 -3.35899)             (0.757495 -0.257185 4.74358e-17)             (1.37856 -0.937576 -3.6088)             (1.33407 -1.01437 -4.28003)             (1.11214 -0.395441 -1.96533e-17)             (1.13849 -1.15994 -2.68735)             (0.903072 -1.18253 -3.27679)
         0.21             (0.799218 -1.74731 -2.03509e-18)             (1.17079 -2.21332 2.64803)             (1.49482 -2.25972 3.09805)             (1.1737 -1.88653 0)             (1.2539 -2.27613 2.48471)             (1.43229 -2.28282 2.91894)             (0.824074 -1.31793 0)             (1.18041 -2.16852 2.73747)             (1.56907 -2.31401 3.24299)             (2.05784 -0.897371 -4.61308e-17)             (1.86941 -1.69058 3.45751)             (2.21419 -1.84285 4.16277)             (1.44586 -1.55257 1.85771e-17)             (1.50143 -2.48724 2.48436)             (1.66796 -2.54723 3.10145)
         0.22             (0.47521 -0.866641 1.6042e-18)             (0.917934 -1.36753 -2.08069)             (0.895307 -1.42615 -2.37116)             (0.518108 -0.946235 0)             (0.961079 -1.39795 -1.95641)             (0.866401 -1.42549 -2.25349)             (0.564208 -0.628878 0)             (0.927477 -1.31037 -2.13481)             (0.917465 -1.38844 -2.46125)             (0.911456 -0.318842 3.60877e-17)             (1.65508 -1.09243 -2.62352)             (1.52269 -1.19189 -3.16183)             (1.16078 -0.596359 -1.49512e-17)             (1.23388 -1.44973 -1.98677)             (1.05542 -1.45655 -2.44515)
         0.23             (0.735005 -1.59439 -1.43017e-18)             (1.08408 -2.11271 1.84621)             (1.35431 -2.0987 2.06711)             (1.03833 -1.71956 0)             (1.10403 -2.20749 1.70995)             (1.30305 -2.16226 1.95759)             (0.777395 -1.19145 0)             (1.08948 -2.02043 1.90135)             (1.44087 -2.07741 2.15721)             (1.84094 -0.788626 -3.2358e-17)             (1.67391 -1.60403 2.29853)             (2.12943 -1.73759 2.78632)             (1.44193 -1.39024 1.3156e-17)             (1.38726 -2.32935 1.72078)             (1.58538 -2.39563 2.11797)
         0.24             (1.62317e+107 4.983e+106 3.23127e+89)             (1.44787e+107 1.25392e+107 -2.99469e+107)             (9.19925e+106 1.30142e+107 -2.32649e+107)             (2.66753e+107 9.70858e+106 0)             (1.48275e+107 2.12422e+107 -2.51138e+107)             (7.65106e+106 1.72771e+107 -2.01291e+107)             (1.85943e+107 6.51745e+106 0)             (1.32951e+107 7.10146e+106 -3.02247e+107)             (8.52202e+106 8.63908e+106 -2.42284e+107)             (2.8847e+107 -3.28488e+106 6.69032e+90)             (1.33141e+107 4.56825e+106 -3.52449e+107)             (8.06983e+106 6.31221e+106 -3.04033e+107)             (3.97762e+107 3.93119e+107 -2.159e+90)             (6.67694e+106 2.3036e+107 -2.08809e+107)             (3.68688e+106 1.63749e+107 -1.8782e+107)
