/*--------------------------------*- C++ -*----------------------------------*\
  =========                 |
  \\      /  F ield         | OpenFOAM: The Open Source CFD Toolbox
   \\    /   O peration     | Website:  https://openfoam.org
    \\  /    A nd           | Version:  7
     \\/     M anipulation  |
\*---------------------------------------------------------------------------*/
FoamFile
{
    version     2.0;
    format      ascii;
    class       volScalarField;
    location    "2.9";
    object      p;
}
// * * * * * * * * * * * * * * * * * * * * * * * * * * * * * * * * * * * * * //

dimensions      [0 2 -2 0 0 0 0];

internalField   nonuniform List<scalar> 
32000
(
1.00051
0.999435
0.999481
0.999773
1.00038
1.00123
1.00225
1.00341
1.00465
1.00597
1.00734
1.00878
1.0103
1.01193
1.01368
1.01555
1.01754
1.01963
1.02181
1.02407
1.0264
1.02879
1.03123
1.03371
1.03621
1.03873
1.04123
1.04372
1.04617
1.04857
1.05092
1.0532
1.05541
1.05754
1.05959
1.06155
1.06343
1.06523
1.06695
1.06841
0.998054
0.997123
0.99722
0.99755
0.998178
0.999027
1.00003
1.00113
1.00232
1.00355
1.00483
1.00615
1.00754
1.00903
1.01063
1.01234
1.01418
1.01612
1.01815
1.02028
1.02247
1.02474
1.02707
1.02946
1.03189
1.03434
1.0368
1.03925
1.04167
1.04405
1.04638
1.04865
1.05085
1.05298
1.05503
1.05699
1.05886
1.06066
1.06237
1.06383
0.995519
0.994757
0.994909
0.995281
0.995931
0.99678
0.99776
0.998817
0.999933
1.00109
1.00226
1.00346
1.00472
1.00606
1.0075
1.00906
1.01073
1.01252
1.0144
1.01638
1.01845
1.02059
1.02281
1.02511
1.02746
1.02985
1.03226
1.03467
1.03706
1.03943
1.04174
1.04401
1.0462
1.04833
1.05038
1.05234
1.05422
1.05601
1.05771
1.05918
0.992936
0.992332
0.992542
0.99296
0.993635
0.994486
0.995445
0.996458
0.997505
0.998568
0.999634
1.00071
1.00184
1.00303
1.00432
1.00571
1.00722
1.00884
1.01057
1.0124
1.01433
1.01635
1.01847
1.02067
1.02294
1.02527
1.02764
1.03001
1.03237
1.03472
1.03702
1.03928
1.04147
1.0436
1.04565
1.04762
1.04949
1.05129
1.05299
1.05446
0.990328
0.989896
0.990161
0.990624
0.99132
0.99217
0.993104
0.994071
0.995045
0.996013
0.996969
0.997925
0.998909
0.999952
1.00108
1.0023
1.00364
1.0051
1.00667
1.00835
1.01015
1.01205
1.01405
1.01616
1.01836
1.02062
1.02294
1.02527
1.02761
1.02993
1.03223
1.03448
1.03668
1.03881
1.04086
1.04283
1.04471
1.0465
1.04821
1.04968
0.987686
0.987423
0.987743
0.988252
0.988968
0.989818
0.99073
0.991651
0.992554
0.993429
0.994274
0.995104
0.995949
0.996841
0.997804
0.998862
1.00003
1.00132
1.00273
1.00426
1.00591
1.00769
1.00958
1.0116
1.01372
1.01592
1.01818
1.02048
1.02279
1.02509
1.02737
1.02962
1.03182
1.03396
1.03602
1.03799
1.03987
1.04167
1.04338
1.04486
0.985026
0.984938
0.985316
0.98587
0.986607
0.987457
0.988345
0.989219
0.990051
0.990833
0.991566
0.992269
0.992974
0.993713
0.994513
0.995401
0.996399
0.997518
0.998765
1.00014
1.00165
1.00329
1.00508
1.007
1.00905
1.01118
1.01339
1.01565
1.01792
1.02021
1.02248
1.02473
1.02693
1.02907
1.03114
1.03311
1.035
1.03679
1.03851
1.03999
0.982359
0.982448
0.982884
0.983484
0.984243
0.985094
0.985959
0.986785
0.987547
0.988235
0.988857
0.989434
0.989999
0.990583
0.99122
0.99194
0.992766
0.993714
0.994793
0.996011
0.997375
0.998896
1.00057
1.0024
1.00437
1.00644
1.00859
1.0108
1.01304
1.01531
1.01757
1.01982
1.02202
1.02416
1.02623
1.02821
1.0301
1.03189
1.03361
1.0351
0.979692
0.979958
0.980453
0.981101
0.981882
0.982735
0.983577
0.984357
0.985049
0.985647
0.98616
0.986611
0.987035
0.987467
0.987943
0.988494
0.989149
0.989925
0.990835
0.991894
0.993116
0.994511
0.996082
0.997816
0.999694
1.00169
1.00379
1.00595
1.00817
1.01041
1.01266
1.0149
1.0171
1.01924
1.02131
1.02329
1.02518
1.02698
1.02869
1.03018
0.977032
0.977476
0.97803
0.978726
0.979531
0.980385
0.981206
0.981942
0.982569
0.98308
0.983486
0.983813
0.984098
0.98438
0.984696
0.985082
0.985566
0.986169
0.986911
0.987812
0.988893
0.990164
0.991624
0.99326
0.995052
0.996977
0.999012
1.00113
1.00332
1.00554
1.00777
1.01
1.01219
1.01433
1.01639
1.01838
1.02026
1.02206
1.02377
1.02526
0.974387
0.975005
0.975619
0.976363
0.977192
0.978048
0.97885
0.979547
0.980113
0.980542
0.980845
0.981051
0.9812
0.981336
0.981496
0.981718
0.982033
0.982465
0.983039
0.983786
0.984727
0.985873
0.98722
0.988756
0.990461
0.992312
0.994286
0.996359
0.998505
1.0007
1.00292
1.00513
1.00731
1.00944
1.0115
1.01348
1.01536
1.01714
1.01885
1.02034
0.971764
0.972552
0.973225
0.974018
0.97487
0.975729
0.976516
0.977179
0.977689
0.978041
0.978245
0.978335
0.978354
0.978347
0.978356
0.978419
0.978567
0.97883
0.97924
0.979834
0.980637
0.981657
0.982891
0.984325
0.985941
0.987716
0.989627
0.991649
0.993757
0.995921
0.998114
1.00031
1.00247
1.00459
1.00664
1.00861
1.01048
1.01225
1.01395
1.01543
0.969169
0.970119
0.970851
0.971693
0.972568
0.973432
0.974209
0.974842
0.975303
0.975583
0.975696
0.975676
0.97557
0.975426
0.975288
0.975196
0.975181
0.975279
0.97553
0.975975
0.976641
0.977535
0.978653
0.979984
0.981509
0.983207
0.985053
0.987023
0.989088
0.991219
0.993382
0.99555
0.997695
0.999795
1.00183
1.00379
1.00564
1.0074
1.00907
1.01054
0.966607
0.967711
0.968502
0.969391
0.97029
0.971162
0.971933
0.972543
0.97296
0.973174
0.973202
0.973079
0.972855
0.972581
0.972303
0.972061
0.971888
0.971827
0.971924
0.972224
0.972753
0.97352
0.974523
0.97575
0.977183
0.978802
0.980582
0.982497
0.984516
0.986607
0.988737
0.990874
0.992991
0.995068
0.997084
0.999019
1.00085
1.00258
1.00423
1.00569
0.964081
0.96533
0.966178
0.967113
0.968039
0.968923
0.969692
0.970284
0.970663
0.97082
0.97077
0.970553
0.970219
0.969822
0.96941
0.969023
0.968699
0.968485
0.968434
0.968592
0.968986
0.969627
0.970514
0.971636
0.972977
0.974516
0.976228
0.978085
0.980054
0.9821
0.984189
0.98629
0.988375
0.990422
0.99241
0.994318
0.996123
0.997818
0.999438
1.00087
0.961594
0.962975
0.963879
0.964861
0.965816
0.966716
0.967488
0.968067
0.968416
0.968523
0.968405
0.968102
0.967666
0.967153
0.966613
0.966088
0.965621
0.965263
0.965069
0.965089
0.96535
0.965866
0.966637
0.967654
0.968902
0.97036
0.972003
0.973798
0.975712
0.977708
0.979751
0.981809
0.983856
0.985867
0.98782
0.989693
0.991461
0.993116
0.994696
0.996097
0.959146
0.960647
0.961605
0.962634
0.963621
0.964542
0.965322
0.965895
0.96622
0.966285
0.966109
0.965729
0.965199
0.964577
0.963916
0.963262
0.962659
0.962164
0.961834
0.96172
0.961851
0.962243
0.962899
0.963812
0.964967
0.966344
0.967914
0.969644
0.971497
0.973437
0.975429
0.977439
0.979441
0.98141
0.983321
0.98515
0.986873
0.98848
0.990012
0.991377
0.956738
0.958346
0.959356
0.960432
0.961455
0.9624
0.963193
0.963765
0.964075
0.964108
0.963882
0.963434
0.962818
0.962095
0.961321
0.960544
0.959815
0.959191
0.958731
0.958487
0.958491
0.958762
0.959304
0.960114
0.961178
0.962473
0.963968
0.965628
0.967416
0.969296
0.97123
0.973187
0.975138
0.977057
0.978918
0.980695
0.982365
0.983916
0.985392
0.986715
0.95437
0.956071
0.95713
0.958255
0.959316
0.96029
0.9611
0.961678
0.961978
0.961989
0.961723
0.961216
0.960522
0.959705
0.958825
0.957934
0.957086
0.956341
0.955758
0.955389
0.95527
0.955422
0.955854
0.956563
0.957537
0.958749
0.960167
0.961753
0.963472
0.965285
0.967158
0.969056
0.97095
0.972811
0.974614
0.976332
0.977941
0.979429
0.980841
0.982116
0.952041
0.953819
0.954927
0.956101
0.957203
0.958208
0.95904
0.959628
0.959928
0.959924
0.959626
0.959068
0.958306
0.957403
0.956424
0.955427
0.954469
0.95361
0.952909
0.95242
0.952182
0.95222
0.952545
0.953157
0.954041
0.95517
0.956509
0.958019
0.959664
0.961408
0.963214
0.965047
0.966876
0.968674
0.970412
0.972063
0.973604
0.975021
0.976364
0.977584
0.949746
0.951588
0.952742
0.953966
0.955111
0.956151
0.957008
0.957612
0.957918
0.957906
0.957584
0.956985
0.956161
0.955181
0.954112
0.953017
0.951956
0.950989
0.950178
0.949575
0.949224
0.949152
0.949374
0.949892
0.950688
0.951733
0.952991
0.954423
0.955992
0.957662
0.959396
0.961159
0.962918
0.964645
0.966311
0.96789
0.969355
0.970696
0.971962
0.973123
0.947484
0.949375
0.950573
0.951846
0.953037
0.954114
0.955
0.955626
0.955943
0.95593
0.955591
0.954957
0.954081
0.953031
0.95188
0.950693
0.949535
0.948468
0.947553
0.946844
0.946386
0.946209
0.946334
0.94676
0.94747
0.948431
0.949607
0.950959
0.952451
0.954044
0.955702
0.957388
0.959071
0.960722
0.962311
0.96381
0.965196
0.966454
0.967639
0.968735
0.945248
0.947176
0.948415
0.949738
0.950975
0.952092
0.953012
0.953662
0.953995
0.953986
0.953637
0.952975
0.952053
0.950942
0.949715
0.948444
0.947196
0.946036
0.945024
0.944216
0.943658
0.943384
0.943415
0.943752
0.944377
0.945255
0.946349
0.947621
0.949033
0.950547
0.952124
0.95373
0.955332
0.956902
0.958408
0.959824
0.961125
0.962297
0.963395
0.964422
0.943035
0.944987
0.946265
0.947637
0.94892
0.950081
0.951037
0.951716
0.952068
0.952067
0.951711
0.951027
0.950066
0.948901
0.947606
0.946257
0.944926
0.94368
0.942579
0.94168
0.941028
0.940662
0.940605
0.940857
0.941399
0.942195
0.943208
0.9444
0.945731
0.947163
0.948657
0.950178
0.951696
0.95318
0.9546
0.955929
0.957141
0.958224
0.959232
0.960185
0.94084
0.942805
0.944119
0.945537
0.946869
0.948074
0.949068
0.949778
0.950152
0.950162
0.949803
0.949102
0.948108
0.946894
0.945537
0.944117
0.94271
0.941385
0.940204
0.93922
0.938483
0.938032
0.937892
0.938063
0.938523
0.93924
0.940173
0.941284
0.942535
0.943883
0.945291
0.946725
0.948155
0.949551
0.950883
0.952122
0.953244
0.954236
0.955152
0.956029
0.938658
0.940627
0.941972
0.943434
0.944813
0.946065
0.947099
0.947842
0.948239
0.948261
0.947902
0.947187
0.946165
0.944907
0.943494
0.942009
0.940533
0.939137
0.937883
0.936823
0.936008
0.935479
0.935261
0.935355
0.935738
0.936376
0.937231
0.938264
0.939433
0.940696
0.942017
0.943362
0.944703
0.94601
0.947252
0.948401
0.949432
0.950333
0.951157
0.951957
0.936483
0.938445
0.939818
0.941321
0.942749
0.944046
0.945122
0.945898
0.94632
0.946355
0.945997
0.94527
0.944223
0.942925
0.94146
0.939917
0.938379
0.93692
0.935601
0.934474
0.933589
0.932989
0.9327
0.932721
0.93303
0.933593
0.934371
0.935326
0.936413
0.937592
0.938825
0.940081
0.941333
0.942551
0.943703
0.944761
0.945703
0.946515
0.947249
0.947974
0.934308
0.936255
0.937652
0.939194
0.940669
0.942012
0.943129
0.943938
0.944384
0.944432
0.944076
0.943338
0.942267
0.940933
0.939421
0.937826
0.936234
0.93472
0.933344
0.932157
0.93121
0.930548
0.930193
0.930146
0.930385
0.930875
0.93158
0.932457
0.933463
0.934558
0.935705
0.936873
0.938037
0.939166
0.940229
0.941198
0.942053
0.942781
0.943431
0.944084
0.932123
0.93405
0.935468
0.937047
0.938567
0.939955
0.941113
0.941954
0.942422
0.942481
0.942127
0.941379
0.940285
0.938916
0.937363
0.935722
0.934084
0.932523
0.931098
0.92986
0.92886
0.928142
0.927729
0.927619
0.92779
0.928211
0.928843
0.929644
0.93057
0.931582
0.932644
0.933726
0.934803
0.935845
0.936822
0.937707
0.93848
0.939129
0.939701
0.94029
0.929921
0.931823
0.93326
0.934874
0.936436
0.937868
0.939066
0.939937
0.940424
0.940493
0.940138
0.939379
0.938263
0.936864
0.935274
0.933594
0.931917
0.930316
0.92885
0.927569
0.926524
0.925758
0.925293
0.925125
0.925234
0.925588
0.926148
0.926874
0.927721
0.928651
0.92963
0.930628
0.931621
0.932579
0.933474
0.934279
0.934978
0.935556
0.93606
0.936592
0.927694
0.929569
0.931023
0.932668
0.934271
0.935745
0.93698
0.937879
0.938381
0.938457
0.9381
0.937329
0.936192
0.934764
0.933142
0.93143
0.929722
0.928089
0.926589
0.925273
0.924192
0.923386
0.922874
0.922654
0.922703
0.922992
0.923482
0.924133
0.924903
0.925753
0.926649
0.927566
0.928477
0.929356
0.930175
0.930909
0.931542
0.93206
0.932505
0.93299
0.925434
0.927281
0.92875
0.930423
0.932064
0.933578
0.934847
0.93577
0.936286
0.936366
0.936004
0.935219
0.93406
0.932607
0.930959
0.929222
0.927488
0.925831
0.924305
0.922963
0.921853
0.921014
0.920462
0.920193
0.920186
0.920411
0.920832
0.921409
0.922102
0.922873
0.92369
0.924528
0.925361
0.926165
0.926914
0.927586
0.928165
0.928635
0.929036
0.929487
0.923132
0.924953
0.926435
0.928135
0.929811
0.931362
0.93266
0.933604
0.934131
0.934211
0.933841
0.93304
0.931861
0.930386
0.928717
0.926961
0.92521
0.923535
0.921991
0.92063
0.919498
0.918632
0.918045
0.917731
0.917671
0.917834
0.918187
0.918691
0.919307
0.92
0.92074
0.9215
0.922258
0.922992
0.923679
0.924299
0.924835
0.925273
0.925649
0.926086
0.920781
0.92258
0.924074
0.925798
0.927507
0.929089
0.930414
0.931375
0.931909
0.931986
0.931604
0.930786
0.929588
0.928093
0.926409
0.92464
0.922879
0.921194
0.91964
0.918267
0.91712
0.916232
0.915614
0.915259
0.915148
0.915251
0.915536
0.915967
0.916506
0.917122
0.917784
0.918469
0.919155
0.919824
0.920455
0.921032
0.921541
0.921963
0.922337
0.922783
0.918374
0.920155
0.921662
0.923409
0.925147
0.926757
0.928102
0.929076
0.929614
0.929684
0.929287
0.928451
0.927234
0.925725
0.92403
0.922255
0.920491
0.918803
0.917246
0.915868
0.914711
0.913806
0.913161
0.912768
0.912607
0.912652
0.91287
0.913227
0.913689
0.914226
0.914811
0.915421
0.916037
0.916644
0.917226
0.917769
0.918263
0.918688
0.919083
0.91957
0.915904
0.917676
0.919195
0.920965
0.922728
0.92436
0.925721
0.926703
0.927239
0.927299
0.926885
0.926031
0.924797
0.923276
0.921577
0.919803
0.918043
0.91636
0.914806
0.913428
0.912266
0.911348
0.910679
0.91025
0.910041
0.910028
0.910179
0.910462
0.910846
0.911302
0.911808
0.912342
0.912888
0.913434
0.91397
0.914486
0.914975
0.91542
0.915862
0.916427
0.913368
0.915137
0.916671
0.918462
0.920246
0.921895
0.923267
0.924252
0.924781
0.924827
0.924395
0.923522
0.922275
0.920747
0.919049
0.917282
0.915532
0.91386
0.912315
0.910943
0.909782
0.908854
0.908163
0.907699
0.907443
0.907372
0.907455
0.907663
0.907967
0.908341
0.908764
0.909218
0.909691
0.910174
0.910662
0.911153
0.911643
0.912122
0.912635
0.913319
0.910759
0.912537
0.914085
0.915897
0.917698
0.919359
0.920737
0.921719
0.922237
0.922266
0.921815
0.920925
0.919667
0.918137
0.916445
0.914692
0.912958
0.911303
0.909774
0.908413
0.907255
0.906319
0.905608
0.90511
0.904807
0.904677
0.904693
0.904824
0.905045
0.905334
0.90567
0.906038
0.90643
0.906842
0.907274
0.90773
0.908218
0.908741
0.909357
0.910213
0.908075
0.90987
0.911435
0.913266
0.915081
0.916749
0.918128
0.919103
0.919606
0.919615
0.919145
0.91824
0.916974
0.915447
0.913768
0.912035
0.910323
0.90869
0.907181
0.905835
0.904684
0.903743
0.903011
0.902478
0.902129
0.90194
0.901886
0.901939
0.902075
0.902275
0.902519
0.902794
0.903094
0.903419
0.903773
0.904166
0.90462
0.905174
0.905947
0.907125
0.905318
0.907139
0.908719
0.910568
0.912395
0.914067
0.915441
0.916403
0.916887
0.916875
0.916386
0.915469
0.9142
0.912682
0.911022
0.909314
0.90763
0.906024
0.904539
0.903212
0.902069
0.901123
0.900371
0.899804
0.899406
0.899157
0.899032
0.899005
0.899055
0.899162
0.899309
0.899482
0.899678
0.899896
0.900137
0.900411
0.900739
0.901172
0.90184
0.903287
1.07269
1.07989
1.08397
1.08826
1.09134
1.09409
1.09637
1.09842
1.10025
1.10188
1.10333
1.10466
1.10584
1.10687
1.10773
1.10847
1.10912
1.10965
1.11012
1.11052
1.11086
1.11112
1.11131
1.11145
1.11151
1.1115
1.11138
1.11114
1.11079
1.11029
1.10964
1.10881
1.10779
1.1066
1.10521
1.1037
1.10195
1.10028
1.09831
1.09727
1.06811
1.07586
1.08022
1.08478
1.08802
1.09091
1.09327
1.0954
1.09728
1.09899
1.1005
1.10188
1.10308
1.10416
1.10509
1.10587
1.10652
1.10709
1.1076
1.10803
1.10839
1.10868
1.1089
1.10906
1.10915
1.10916
1.10906
1.10884
1.10849
1.10801
1.10736
1.10654
1.10552
1.10434
1.10294
1.10145
1.09971
1.09804
1.09608
1.09505
1.06344
1.07176
1.07643
1.08126
1.08468
1.08771
1.09015
1.09237
1.09429
1.09608
1.09766
1.09909
1.10031
1.10143
1.10242
1.10324
1.1039
1.10452
1.10508
1.10553
1.10592
1.10624
1.10648
1.10668
1.1068
1.10681
1.10675
1.10654
1.1062
1.10574
1.10509
1.1043
1.10328
1.10211
1.10072
1.09924
1.09751
1.09585
1.09391
1.09287
1.05868
1.06762
1.0726
1.07771
1.08131
1.08447
1.08702
1.08932
1.09131
1.09316
1.09479
1.09627
1.09754
1.09871
1.09973
1.1006
1.1013
1.10195
1.10254
1.10303
1.10345
1.1038
1.10408
1.1043
1.10444
1.10448
1.10443
1.10425
1.10392
1.10347
1.10285
1.10206
1.10106
1.09991
1.09854
1.09707
1.09535
1.0937
1.09177
1.09075
1.05385
1.06343
1.06872
1.07413
1.07791
1.08121
1.08387
1.08625
1.08832
1.09021
1.09191
1.09343
1.09477
1.09597
1.09703
1.09794
1.09869
1.09938
1.1
1.10052
1.10098
1.10136
1.10167
1.10192
1.10208
1.10215
1.10212
1.10196
1.10165
1.10122
1.10061
1.09985
1.09887
1.09773
1.09639
1.09493
1.09323
1.09159
1.08968
1.08867
1.04896
1.0592
1.06481
1.07052
1.07449
1.07794
1.08071
1.08317
1.08531
1.08726
1.08902
1.09059
1.09198
1.09323
1.09432
1.09527
1.09608
1.09681
1.09745
1.09801
1.0985
1.09892
1.09927
1.09954
1.09973
1.09982
1.09981
1.09967
1.0994
1.09898
1.0984
1.09765
1.0967
1.09558
1.09427
1.09282
1.09115
1.08952
1.08763
1.08664
1.04401
1.05492
1.06087
1.06688
1.07105
1.07464
1.07753
1.08007
1.08229
1.0843
1.08611
1.08773
1.08918
1.09047
1.09161
1.09261
1.09346
1.09423
1.09491
1.0955
1.09603
1.09648
1.09686
1.09717
1.09738
1.09749
1.0975
1.0974
1.09715
1.09676
1.0962
1.09547
1.09456
1.09346
1.09217
1.09074
1.08911
1.08749
1.08561
1.08465
1.039
1.05062
1.0569
1.06323
1.06759
1.07133
1.07433
1.07696
1.07926
1.08133
1.0832
1.08487
1.08637
1.08771
1.08889
1.08993
1.09084
1.09164
1.09235
1.09299
1.09355
1.09404
1.09445
1.09479
1.09503
1.09517
1.09521
1.09513
1.09491
1.09454
1.09401
1.09332
1.09243
1.09136
1.09011
1.0887
1.08709
1.08551
1.08364
1.08269
1.03397
1.04628
1.0529
1.05955
1.06411
1.068
1.07112
1.07384
1.07622
1.07835
1.08029
1.08201
1.08356
1.08494
1.08616
1.08725
1.0882
1.08905
1.0898
1.09047
1.09108
1.09161
1.09205
1.09241
1.09268
1.09285
1.09292
1.09287
1.09267
1.09234
1.09184
1.09118
1.09032
1.08929
1.08807
1.0867
1.08511
1.08355
1.08171
1.08077
1.02889
1.04191
1.04887
1.05584
1.06062
1.06466
1.0679
1.07072
1.07318
1.07537
1.07736
1.07913
1.08074
1.08217
1.08343
1.08457
1.08556
1.08645
1.08724
1.08795
1.0886
1.08917
1.08964
1.09003
1.09033
1.09054
1.09064
1.09061
1.09045
1.09015
1.08968
1.08905
1.08824
1.08724
1.08606
1.08472
1.08317
1.08164
1.07982
1.0789
1.0238
1.03753
1.04483
1.05213
1.05711
1.0613
1.06467
1.06758
1.07012
1.07238
1.07444
1.07626
1.07791
1.07939
1.0807
1.08188
1.08292
1.08385
1.08468
1.08543
1.08611
1.08672
1.08723
1.08766
1.08799
1.08823
1.08836
1.08836
1.08824
1.08797
1.08754
1.08695
1.08617
1.08521
1.08407
1.08277
1.08125
1.07975
1.07796
1.07705
1.0187
1.03311
1.04078
1.04839
1.05358
1.05794
1.06143
1.06444
1.06706
1.06939
1.07151
1.07338
1.07509
1.07661
1.07797
1.07919
1.08027
1.08124
1.08211
1.08291
1.08363
1.08428
1.08482
1.08528
1.08565
1.08592
1.08608
1.08612
1.08603
1.0858
1.0854
1.08485
1.08411
1.0832
1.08211
1.08085
1.07937
1.0779
1.07615
1.07525
1.0136
1.02866
1.03672
1.04465
1.05005
1.05457
1.05819
1.0613
1.06401
1.0664
1.06858
1.07051
1.07226
1.07383
1.07524
1.07651
1.07763
1.07864
1.07954
1.08039
1.08114
1.08183
1.08241
1.08291
1.08331
1.08361
1.08381
1.08388
1.08382
1.08363
1.08328
1.08277
1.08207
1.08121
1.08017
1.07895
1.07752
1.07609
1.07436
1.07348
1.00852
1.02427
1.03266
1.0409
1.04651
1.05119
1.05494
1.05815
1.06095
1.06341
1.06565
1.06763
1.06944
1.07106
1.07252
1.07382
1.07498
1.07603
1.07698
1.07786
1.07866
1.07938
1.08
1.08053
1.08097
1.0813
1.08153
1.08164
1.08162
1.08147
1.08116
1.0807
1.08005
1.07924
1.07825
1.07709
1.0757
1.07431
1.07262
1.07175
1.00346
1.01988
1.0286
1.03714
1.04296
1.04781
1.05169
1.05501
1.05789
1.06043
1.06272
1.06476
1.06662
1.06828
1.06979
1.07113
1.07233
1.07342
1.07441
1.07534
1.07617
1.07693
1.07758
1.07815
1.07863
1.07899
1.07926
1.07941
1.07943
1.07932
1.07906
1.07865
1.07805
1.07729
1.07636
1.07525
1.0739
1.07256
1.07091
1.07006
0.99843
1.0155
1.02455
1.03338
1.03941
1.04443
1.04844
1.05187
1.05483
1.05744
1.0598
1.06189
1.0638
1.06552
1.06706
1.06845
1.06969
1.07082
1.07184
1.07281
1.07368
1.07448
1.07517
1.07577
1.07629
1.07669
1.07699
1.07718
1.07725
1.07718
1.07696
1.0766
1.07606
1.07536
1.07448
1.07344
1.07214
1.07085
1.06923
1.06841
0.993445
1.01111
1.02051
1.02962
1.03586
1.04104
1.0452
1.04873
1.05178
1.05447
1.05688
1.05903
1.06099
1.06275
1.06434
1.06576
1.06704
1.06821
1.06928
1.07028
1.07119
1.07202
1.07276
1.07339
1.07395
1.07438
1.07472
1.07495
1.07506
1.07504
1.07487
1.07457
1.07408
1.07345
1.07263
1.07165
1.07041
1.06917
1.0676
1.06679
0.988511
1.00673
1.01648
1.02587
1.03232
1.03767
1.04196
1.0456
1.04874
1.0515
1.05397
1.05618
1.05819
1.05999
1.06162
1.06308
1.0644
1.06561
1.06672
1.06776
1.0687
1.06957
1.07034
1.07101
1.0716
1.07208
1.07246
1.07272
1.07288
1.07291
1.07279
1.07254
1.07212
1.07156
1.0708
1.06989
1.06872
1.06753
1.066
1.06522
0.983637
1.00237
1.01247
1.02212
1.02878
1.0343
1.03873
1.04248
1.04571
1.04853
1.05107
1.05333
1.05539
1.05724
1.05891
1.06041
1.06177
1.06302
1.06416
1.06523
1.06622
1.06711
1.06793
1.06863
1.06926
1.06977
1.07019
1.0705
1.07071
1.07078
1.07071
1.07053
1.07017
1.06968
1.06899
1.06816
1.06705
1.06592
1.06444
1.06369
0.978833
0.998056
1.00849
1.01839
1.02525
1.03093
1.03551
1.03937
1.04268
1.04558
1.04818
1.0505
1.05261
1.0545
1.05622
1.05775
1.05914
1.06043
1.0616
1.06271
1.06373
1.06466
1.06551
1.06625
1.06691
1.06747
1.06793
1.06828
1.06853
1.06866
1.06864
1.06852
1.06823
1.06781
1.0672
1.06645
1.06542
1.06436
1.06292
1.0622
0.974103
0.993807
1.00455
1.01467
1.02173
1.02759
1.0323
1.03628
1.03967
1.04265
1.0453
1.04768
1.04984
1.05177
1.05353
1.0551
1.05653
1.05785
1.05905
1.06019
1.06125
1.06221
1.0631
1.06388
1.06456
1.06516
1.06566
1.06606
1.06636
1.06653
1.06658
1.06652
1.06631
1.06596
1.06543
1.06476
1.06381
1.06283
1.06145
1.06075
0.969453
0.989629
1.00064
1.01097
1.01823
1.02426
1.02911
1.0332
1.03668
1.03973
1.04244
1.04487
1.04708
1.04905
1.05085
1.05246
1.05392
1.05527
1.05651
1.05768
1.05878
1.05976
1.06068
1.0615
1.06221
1.06286
1.06339
1.06383
1.06418
1.06441
1.06452
1.06452
1.06439
1.06412
1.06368
1.0631
1.06224
1.06133
1.06001
1.05935
0.964889
0.985516
0.996779
1.00729
1.01475
1.02095
1.02594
1.03014
1.03371
1.03683
1.0396
1.04208
1.04433
1.04635
1.04819
1.04982
1.05131
1.0527
1.05397
1.05517
1.0563
1.05731
1.05826
1.05912
1.05987
1.06055
1.06113
1.06161
1.06201
1.0623
1.06246
1.06253
1.06247
1.06229
1.06194
1.06147
1.0607
1.05988
1.05863
1.058
0.960415
0.981455
0.992956
1.00364
1.0113
1.01766
1.0228
1.0271
1.03076
1.03395
1.03677
1.03931
1.04161
1.04366
1.04553
1.0472
1.04872
1.05014
1.05144
1.05267
1.05382
1.05487
1.05585
1.05674
1.05752
1.05824
1.05886
1.05939
1.05984
1.06018
1.06041
1.06055
1.06057
1.06048
1.06022
1.05985
1.05919
1.05846
1.05729
1.05669
0.956036
0.977358
0.989175
1.00002
1.00787
1.0144
1.01968
1.02409
1.02783
1.03109
1.03397
1.03656
1.0389
1.04099
1.04289
1.04459
1.04614
1.04759
1.04892
1.05017
1.05135
1.05243
1.05343
1.05436
1.05518
1.05594
1.05659
1.05717
1.05766
1.05806
1.05835
1.05856
1.05867
1.05866
1.05851
1.05825
1.0577
1.05708
1.05599
1.05543
0.951761
0.973226
0.985438
0.996426
1.00447
1.01117
1.01659
1.02111
1.02494
1.02826
1.03119
1.03383
1.03621
1.03834
1.04027
1.04199
1.04357
1.04504
1.04641
1.04768
1.04889
1.04999
1.05102
1.05199
1.05283
1.05363
1.05432
1.05494
1.05548
1.05594
1.0563
1.05658
1.05677
1.05686
1.05681
1.05667
1.05624
1.05574
1.05474
1.05422
0.947606
0.96929
0.981748
0.992867
1.00111
1.00798
1.01354
1.01816
1.02207
1.02546
1.02845
1.03113
1.03354
1.0357
1.03766
1.03941
1.04101
1.04251
1.0439
1.0452
1.04643
1.04755
1.04861
1.04961
1.05049
1.05131
1.05205
1.05271
1.05331
1.05382
1.05424
1.0546
1.05487
1.05506
1.05512
1.0551
1.05481
1.05443
1.05354
1.05307
0.943582
0.965429
0.978106
0.989345
0.997779
1.00482
1.01051
1.01524
1.01923
1.02268
1.02573
1.02846
1.0309
1.03309
1.03507
1.03684
1.03847
1.03999
1.0414
1.04272
1.04397
1.04512
1.04621
1.04723
1.04814
1.049
1.04978
1.05048
1.05112
1.05169
1.05218
1.05261
1.05297
1.05326
1.05344
1.05355
1.05341
1.05317
1.05239
1.05197
0.939696
0.961639
0.974517
0.985864
0.994492
1.0017
1.00753
1.01236
1.01643
1.01995
1.02304
1.02581
1.02829
1.0305
1.0325
1.03429
1.03594
1.03748
1.03892
1.04025
1.04152
1.04269
1.0438
1.04485
1.0458
1.04669
1.04751
1.04825
1.04894
1.04956
1.05012
1.05062
1.05107
1.05146
1.05176
1.05201
1.05202
1.05194
1.05129
1.05095
0.935944
0.957934
0.970984
0.982431
0.991251
0.998621
1.00459
1.00952
1.01367
1.01725
1.02038
1.02319
1.0257
1.02793
1.02995
1.03176
1.03343
1.03499
1.03644
1.03779
1.03908
1.04027
1.0414
1.04247
1.04345
1.04437
1.04523
1.04601
1.04675
1.04743
1.04805
1.04863
1.04916
1.04966
1.05008
1.05048
1.05066
1.05075
1.05025
1.04999
0.932316
0.954314
0.96751
0.979049
0.988062
0.99559
1.00169
1.00672
1.01095
1.01459
1.01776
1.02061
1.02313
1.02538
1.02742
1.02925
1.03093
1.03251
1.03398
1.03534
1.03665
1.03785
1.039
1.04009
1.0411
1.04205
1.04294
1.04377
1.04455
1.04529
1.04598
1.04663
1.04725
1.04786
1.04841
1.04895
1.04931
1.0496
1.04928
1.04911
0.928853
0.950779
0.964102
0.975725
0.984932
0.992612
0.998843
1.00397
1.00827
1.01197
1.01519
1.01806
1.0206
1.02287
1.02492
1.02676
1.02846
1.03004
1.03153
1.0329
1.03422
1.03544
1.03661
1.03772
1.03875
1.03973
1.04066
1.04153
1.04235
1.04315
1.0439
1.04463
1.04534
1.04605
1.04673
1.04743
1.04798
1.04848
1.04837
1.04832
0.925551
0.947332
0.960761
0.972466
0.981863
0.989691
0.99605
1.00128
1.00565
1.0094
1.01265
1.01555
1.01811
1.02038
1.02244
1.02429
1.026
1.02759
1.02909
1.03047
1.0318
1.03303
1.03422
1.03534
1.0364
1.0374
1.03837
1.03928
1.04015
1.041
1.04181
1.04262
1.04341
1.04423
1.04505
1.04591
1.04666
1.0474
1.04752
1.04763
0.922426
0.943972
0.957494
0.969281
0.978861
0.986833
0.993316
0.99864
1.00308
1.00688
1.01016
1.01308
1.01564
1.01793
1.01999
1.02185
1.02357
1.02516
1.02666
1.02805
1.02939
1.03063
1.03184
1.03297
1.03405
1.03508
1.03607
1.03703
1.03793
1.03884
1.03972
1.04059
1.04148
1.04241
1.04335
1.04439
1.04534
1.04635
1.04676
1.04705
0.919499
0.940702
0.954308
0.966181
0.975936
0.984047
0.990648
0.996065
1.00057
1.00442
1.00772
1.01065
1.01322
1.01551
1.01757
1.01943
1.02116
1.02275
1.02425
1.02565
1.02699
1.02824
1.02945
1.0306
1.0317
1.03276
1.03377
1.03477
1.03572
1.03668
1.03761
1.03856
1.03953
1.04057
1.04165
1.04285
1.04403
1.04532
1.04606
1.0466
0.91679
0.937534
0.951225
0.963187
0.973104
0.981345
0.98806
0.993563
0.998131
1.00201
1.00533
1.00826
1.01084
1.01313
1.01519
1.01705
1.01877
1.02036
1.02186
1.02326
1.0246
1.02586
1.02707
1.02823
1.02935
1.03043
1.03147
1.0325
1.03349
1.0345
1.03549
1.03652
1.03758
1.03872
1.03993
1.0413
1.04271
1.04432
1.04545
1.04631
0.914325
0.934488
0.948267
0.960319
0.970382
0.978744
0.985565
0.991145
0.995765
0.999669
1.00301
1.00594
1.0085
1.01079
1.01284
1.0147
1.01642
1.018
1.01949
1.02089
1.02222
1.02348
1.0247
1.02586
1.027
1.02809
1.02916
1.03023
1.03126
1.03231
1.03337
1.03446
1.0356
1.03685
1.03819
1.03973
1.04137
1.04332
1.04491
1.0462
0.912097
0.931497
0.945358
0.957497
0.967692
0.976169
0.983094
0.988749
0.993418
0.997348
1.00069
1.00362
1.00618
1.00845
1.01049
1.01234
1.01405
1.01562
1.0171
1.01849
1.01982
1.02108
1.0223
1.02347
1.02462
1.02573
1.02682
1.02792
1.02899
1.0301
1.03121
1.03237
1.0336
1.03494
1.03641
1.03812
1.04001
1.04231
1.04443
1.04631
0.90994
0.92834
0.942286
0.954522
0.964852
0.973455
0.980492
0.986233
0.990961
0.994924
0.998282
1.0012
1.00376
1.00602
1.00805
1.0099
1.0116
1.01317
1.01464
1.01603
1.01735
1.01861
1.01984
1.02102
1.02217
1.02331
1.02443
1.02556
1.02668
1.02783
1.029
1.03023
1.03154
1.03299
1.03458
1.03646
1.03859
1.04128
1.04401
1.04668
0.908187
0.925491
0.939495
0.951771
0.962175
0.970861
0.97797
0.983764
0.988525
0.992501
0.995868
0.998786
1.00134
1.0036
1.00563
1.00747
1.00917
1.01073
1.0122
1.01358
1.01489
1.01616
1.01739
1.01858
1.01975
1.0209
1.02204
1.0232
1.02436
1.02555
1.02678
1.02808
1.02946
1.03099
1.0327
1.03473
1.03709
1.04015
1.04355
1.04727
0.902778
0.91885
0.932939
0.945221
0.955673
0.964473
0.971673
0.977466
0.98214
0.985991
0.989256
0.992095
0.994601
0.996836
0.998841
1.00066
1.00231
1.00384
1.00526
1.00661
1.0079
1.00915
1.01036
1.01155
1.01273
1.01391
1.0151
1.01631
1.01755
1.01883
1.02018
1.02161
1.02317
1.0249
1.02687
1.02923
1.03213
1.03612
1.04137
1.04863
0.886771
0.902166
0.91572
0.927581
0.937808
0.946562
0.95387
0.959886
0.964849
0.969001
0.972545
0.97563
0.978357
0.980793
0.98299
0.98499
0.98683
0.988541
0.990146
0.991673
0.993136
0.994556
0.995943
0.99731
0.998665
1.00002
1.00138
1.00277
1.00419
1.00565
1.00719
1.00882
1.01058
1.01255
1.01479
1.01749
1.02089
1.02572
1.03236
1.04142
0.870413
0.885093
0.898045
0.909527
0.919544
0.928244
0.93564
0.941852
0.94707
0.951492
0.955294
0.958616
0.961562
0.964208
0.966607
0.968807
0.970845
0.972752
0.974553
0.976275
0.977932
0.979544
0.981122
0.982679
0.984224
0.985767
0.987317
0.988889
0.990492
0.992148
0.993874
0.995706
0.99768
0.999874
1.00237
1.00537
1.00912
1.0144
1.02158
1.03132
0.853579
0.867633
0.880049
0.891212
0.901058
0.90971
0.917171
0.923531
0.928948
0.933588
0.937612
0.941152
0.944312
0.947164
0.949766
0.952165
0.9544
0.956502
0.958499
0.960415
0.962268
0.964076
0.965851
0.967606
0.969347
0.971087
0.972836
0.974605
0.976408
0.978266
0.980196
0.982238
0.984428
0.986848
0.989577
0.992826
0.996811
1.0023
1.00961
1.01953
0.836363
0.849844
0.861771
0.872629
0.882308
0.890899
0.898399
0.904879
0.910471
0.915317
0.919558
0.923319
0.926697
0.929764
0.932577
0.935184
0.937623
0.939927
0.942126
0.944242
0.946297
0.948307
0.950285
0.952241
0.954186
0.956129
0.95808
0.960053
0.962059
0.964121
0.966256
0.968503
0.970898
0.973521
0.976448
0.979879
0.984002
0.989529
0.996733
1.00656
0.818704
0.831682
0.843163
0.85373
0.863242
0.871765
0.879291
0.885873
0.891624
0.896664
0.901116
0.905095
0.908693
0.91198
0.915011
0.917834
0.920486
0.923001
0.925409
0.927733
0.929996
0.932212
0.934396
0.936558
0.938707
0.940854
0.943007
0.945181
0.947387
0.949645
0.951972
0.954409
0.956987
0.959783
0.962865
0.96642
0.970607
0.976091
0.983101
0.992738
0.800566
0.813111
0.824195
0.834493
0.843853
0.852315
0.859862
0.866536
0.872432
0.877653
0.882307
0.886499
0.890315
0.893824
0.897078
0.900122
0.902994
0.905728
0.908351
0.91089
0.913364
0.91579
0.918181
0.920549
0.922902
0.92525
0.927601
0.92997
0.932365
0.934807
0.937313
0.939918
0.942654
0.945592
0.948792
0.952427
0.956635
0.962039
0.96884
0.978269
0.781922
0.7941
0.804838
0.8149
0.824127
0.832537
0.840105
0.846864
0.852894
0.858286
0.863133
0.867532
0.871564
0.875295
0.878774
0.882044
0.885142
0.888099
0.890945
0.893702