/*--------------------------------*- C++ -*----------------------------------*\
  =========                 |
  \\      /  F ield         | OpenFOAM: The Open Source CFD Toolbox
   \\    /   O peration     | Website:  https://openfoam.org
    \\  /    A nd           | Version:  7
     \\/     M anipulation  |
\*---------------------------------------------------------------------------*/
FoamFile
{
    version     2.0;
    format      ascii;
    class       surfaceScalarField;
    location    "2.9";
    object      phi;
}
// * * * * * * * * * * * * * * * * * * * * * * * * * * * * * * * * * * * * * //

dimensions      [0 3 -1 0 0 0 0];

internalField   nonuniform List<scalar> 
63520
(
-2.00573e-05
0.000728497
-0.000708439
-6.72551e-05
0.00192959
-0.00188239
-0.000135176
0.00293927
-0.00287135
-0.000218191
0.00375881
-0.0036758
-0.000311174
0.00440679
-0.00431381
-0.000409351
0.00490642
-0.00480824
-0.000508348
0.00528055
-0.00518156
-0.000604224
0.00554942
-0.00545354
-0.000693504
0.00573028
-0.005641
-0.000773183
0.00583706
-0.00575738
-0.000840703
0.00588085
-0.00581333
-0.000893929
0.00587046
-0.00581723
-0.000931096
0.00581294
-0.00577577
-0.000950772
0.00571414
-0.00569446
-0.000951818
0.00557915
-0.0055781
-0.000933357
0.00541262
-0.00543109
-0.000894765
0.00521897
-0.00525757
-0.000835643
0.00500245
-0.00506157
-0.000755814
0.00476724
-0.00484707
-0.000655317
0.0045175
-0.004618
-0.000534395
0.00425728
-0.0043782
-0.000393484
0.00399048
-0.00413139
-0.000233215
0.0037209
-0.00388117
-5.4408e-05
0.0034521
-0.00363091
0.000141971
0.00318738
-0.00338376
0.000354817
0.00292972
-0.00314257
0.000582891
0.00268179
-0.00290987
0.00082485
0.00244588
-0.00268784
0.00107927
0.00222393
-0.00247835
0.0013447
0.00201747
-0.00228289
0.00161963
0.00182769
-0.00210262
0.00190255
0.00165541
-0.00193834
0.00219198
0.00150116
-0.00179058
0.00248644
0.00136515
-0.00165961
0.0027845
0.00124742
-0.00154548
0.00308476
0.00114786
-0.00144812
0.00338578
0.00106639
-0.00136741
0.00368607
0.00100293
-0.00130322
0.00398394
0.000959887
-0.00125776
0.000943016
0.00427721
-0.00123628
-1.7886e-05
0.000746382
-6.0342e-05
0.00197205
-0.000121846
0.00300078
-0.000197533
0.0038345
-0.000282795
0.00449205
-0.000373223
0.00499685
-0.000464654
0.00537198
-0.000553277
0.00563804
-0.000635656
0.00581266
-0.000708803
0.0059102
-0.000770162
0.00594221
-0.000817572
0.00591787
-0.000849226
0.00584459
-0.000863651
0.00572856
-0.000859671
0.00557517
-0.00083637
0.00538932
-0.000793078
0.00517568
-0.000729367
0.00493874
-0.000645037
0.00468291
-0.000540089
0.00441256
-0.000414747
0.00413194
-0.000269445
0.00384518
-0.000104805
0.00355626
7.83751e-05
0.00326892
0.000279122
0.00298663
0.000496309
0.00271254
0.000728683
0.00244942
0.000974889
0.00219968
0.00123349
0.00196532
0.001503
0.00174796
0.00178189
0.0015488
0.00206864
0.00136867
0.00236173
0.00120806
0.00265969
0.00106719
0.00296109
0.000946017
0.00326454
0.000844418
0.00356864
0.000762288
0.00387194
0.000699627
0.00417282
0.000659002
0.000646665
0.00446917
-1.56069e-05
0.000761989
-5.29614e-05
0.0020094
-0.000107548
0.00305536
-0.000175262
0.00390221
-0.000252038
0.00456883
-0.000333852
0.00507866
-0.000416765
0.0054549
-0.000497136
0.00571841
-0.000571598
0.00588712
-0.000637193
0.0059758
-0.000691353
0.00599637
-0.000731892
0.00595841
-0.000756987
0.00586969
-0.000765133
0.00573671
-0.00075512
0.00556516
-0.000726005
0.00536021
-0.000677094
0.00512677
-0.000607928
0.00486957
-0.000518277
0.00459326
-0.000408133
0.00430241
-0.00027771
0.00400151
-0.000127422
0.00369489
4.2109e-05
0.00338673
0.000230071
0.00308096
0.000435486
0.00278122
0.000657227
0.0024908
0.000894034
0.00221261
0.00114452
0.00194919
0.00140724
0.00170261
0.00168067
0.00147453
0.00196328
0.00126619
0.00225353
0.00107842
0.00254989
0.000911699
0.0028509
0.000766183
0.00315512
0.000641794
0.00346118
0.000538353
0.00376775
0.000455726
0.00407342
0.000393953
0.00437667
0.000355753
0.00034786
0.00467547
-1.31935e-05
0.000775182
-4.51905e-05
0.0020414
-9.24359e-05
0.00310261
-0.000151605
0.00396138
-0.000219188
0.00463641
-0.000291566
0.00515104
-0.000365076
0.00552841
-0.000436234
0.00578957
-0.000501763
0.00595265
-0.000558748
0.00603278
-0.000604642
0.00604226
-0.000637253
0.00599102
-0.000654734
0.00588717
-0.000655559
0.00573754
-0.000638501
0.0055481
-0.000602592
0.0053243
-0.000547113
0.00507129
-0.000471596
0.00479405
-0.000375803
0.00449747
-0.000259709
0.00418632
-0.000123516
0.00386532
3.23462e-05
0.00353903
0.000207256
0.00321182
0.000400407
0.00288781
0.000610812
0.00257081
0.000837327
0.00226428
0.00107867
0.00197127
0.00133344
0.00169441
0.00160019
0.00143587
0.00187737
0.00119735
0.00216344
0.000980116
0.00245685
0.000785013
0.00275607
0.000612478
0.00305963
0.000462616
0.00336613
0.000335298
0.00367421
0.00023027
0.00398259
0.000147347
0.00428996
8.65889e-05
0.00459488
5.08276e-05
4.72785e-05
0.00489546
-1.07166e-05
0.000785899
-3.71098e-05
0.00206779
-7.66363e-05
0.00314213
-0.000126732
0.00401148
-0.000184479
0.00469415
-0.000246664
0.00521323
-0.000309914
0.00559165
-0.000370915
0.00585057
-0.000426533
0.00600826
-0.000473903
0.00608015
-0.000510491
0.00607885
-0.000534116
0.00601464
-0.000542932
0.00589598
-0.000535397
0.00573
-0.000510267
0.00552297
-0.000466568
0.0052806
-0.00040358
0.0050083
-0.000320823
0.0047113
-0.000218046
0.00439469
-9.5236e-05
0.00406351
4.7398e-05
0.00372269
0.000209431
0.003377
0.000390234
0.00303102
0.000588984
0.00268906
0.000804681
0.00235512
0.00103617
0.00203279
0.00128215
0.00172529
0.00154122
0.00143534
0.00181189
0.00116519
0.00209263
0.000916606
0.00238188
0.000690867
0.00267809
0.000488808
0.00297973
0.000310835
0.00328534
0.000157
0.00359355
2.70974e-05
0.00390303
-7.92107e-05
0.00421255
-0.00016218
0.0045209
-0.000221757
0.00482676
-0.00025504
-0.000254356
0.0051284
-8.16421e-06
0.000794063
-2.8764e-05
0.00208839
-6.02613e-05
0.00317363
-0.000100852
0.00405207
-0.000148185
0.00474149
-0.000199477
0.00526452
-0.000251672
0.00564385
-0.00030165
0.00590055
-0.00034641
0.00605302
-0.000383163
0.00611691
-0.000409427
0.00610511
-0.000423034
0.00602825
-0.000422135
0.00589508
-0.000405197
0.00571306
-0.000370981
0.00548875
-0.00031851
0.00522813
-0.000247063
0.00493686
-0.000156165
0.0046204
-4.55785e-05
0.0042841
8.47037e-05
0.00393323
0.000234463
0.00357293
0.00040326
0.0032082
0.00059045
0.00284383
0.000795195
0.00248432
0.00101648
0.00213383
0.00125314
0.00179614
0.00150384
0.00147458
0.00176719
0.00117199
0.00204168
0.0008907
0.00232578
0.00063251
0.00261792
0.000398731
0.00291654
0.000190182
0.00322015
7.22489e-06
0.0035273
-0.000150147
0.00383662
-0.000282228
0.00414686
-0.00038945
0.00445685
-0.000472166
0.00476545
-0.000530363
0.00507152
-0.000561105
-0.000556299
0.00537346
-5.58222e-06
0.000799645
-2.02603e-05
0.00210307
-4.3477e-05
0.00319685
-7.41765e-05
0.00408277
-0.000110593
0.0047779
-0.000150371
0.00530429
-0.000190771
0.00568425
-0.000228897
0.00593867
-0.000261903
0.00608603
-0.000287096
0.0061421
-0.000302045
0.00612006
-0.000304617
0.00603082
-0.000292988
0.00588345
-0.00026564
0.00568572
-0.000221339
0.00544445
-0.000159123
0.00516591
-7.82896e-05
0.00485602
2.16223e-05
0.00452049
0.000140837
0.00416489
0.00027934
0.00379472
0.000436889
0.00341538
0.000613026
0.00303207
0.000807088
0.00264977
0.00101822
0.00227319
0.00124538
0.00190667
0.00148738
0.00155414
0.00174289
0.00121907
0.0020105
0.00090439
0.00228869
0.000612508
0.00257592
0.000345276
0.00287064
0.000104013
0.00317131
-0.000110484
0.00347643
-0.000297895
0.00378458
-0.0004583
0.00409444
-0.000592091
0.00440481
-0.000699813
0.00471457
-0.00078193
0.00502272
-0.000838509
0.00532823
-0.000866623
-0.000857838
0.00562977
-3.0076e-06
0.000802652
-1.16862e-05
0.00211175
-2.64423e-05
0.0032116
-4.69577e-05
0.00410328
-7.203e-05
0.00480298
-9.97368e-05
0.005332
-0.000127679
0.00571219
-0.000153199
0.00596419
-0.000173611
0.00610644
-0.000186341
0.00615483
-0.000189035
0.00612276
-0.000179608
0.00602139
-0.00015627
0.00586012
-0.00011753
0.00564698
-6.21791e-05
0.0053891
1.0716e-05
0.00509302
0.000101836
0.0047649
0.000211617
0.00441071
0.000340253
0.00403625
0.000487698
0.00364728
0.00065368
0.0032494
0.000837718
0.00284803
0.00103912
0.00244837
0.001257
0.0020553
0.00149031
0.00167336
0.00173783
0.00130662
0.00199822
0.000958676
0.00227005
0.00063256
0.00255181
0.000330745
0.00284196
5.51239e-05
0.00313896
-0.000192981
0.00344128
-0.000412802
0.00374745
-0.000604067
0.00405609
-0.00076694
0.00436591
-0.000901915
0.00467577
-0.00100967
0.00498464
-0.0010908
0.0052916
-0.00114548
0.00559583
-0.00117085
-0.00115824
0.00589623
-4.7831e-07
0.000803131
-3.13603e-06
0.00211441
-9.33297e-06
0.0032178
-1.94504e-05
0.0041134
-3.28397e-05
0.00481636
-4.8013e-05
0.00534717
-6.29144e-05
0.00572709
-7.51422e-05
0.00597642
-8.21942e-05
0.00611349
-8.16306e-05
0.00615427
-7.11874e-05
0.00611231
-4.8847e-05
0.00599905
-1.28711e-05
0.00582414
3.81921e-05
0.00559591
0.000105511
0.00532178
0.000189983
0.00500855
0.000292253
0.00466263
0.00041272
0.00429024
0.000551534
0.00389744
0.00070861
0.0034902
0.000883644
0.00307436
0.00107612
0.00265555
0.00128531
0.00223918
0.0015103
0.00183031
0.00175001
0.00143365
0.0020032
0.00105343
0.00226853
0.000693349
0.00254455
0.000356542
0.00282975
4.55438e-05
0.0031226
-0.000237725
0.00342156
-0.000491949
0.00372515
-0.000716391
0.00403193
-0.000910841
0.00434054
-0.00107555
0.00464976
-0.00121114
0.00495849
-0.0013184
0.00526581
-0.00139811
0.0055709
-0.00145057
0.00587309
-0.00147304
-0.00145669
0.00617154
2.01832e-06
0.000801112
5.30264e-06
0.00211112
7.67548e-06
0.00321543
8.0755e-06
0.004113
6.61274e-06
0.00481783
4.34057e-06
0.00534945
2.96843e-06
0.00572846
4.62964e-06
0.00597476
1.16235e-05
0.0061065
2.62382e-05
0.00613965
5.06276e-05
0.00608792
8.67268e-05
0.00596295
0.000136207
0.00577466
0.000200464
0.00553166
0.000280614
0.00524163
0.000377509
0.00491165
0.000491742
0.0045484
0.000623662
0.00415832
0.000773367
0.00374773
0.000940729
0.00332284
0.0011254
0.0028897
0.00132681
0.00245414
0.00154421
0.00202178
0.00177664
0.00159788
0.00202299
0.0011873
0.002282
0.000794416
0.00255231
0.000423037
0.00283247
7.63819e-05
0.00312098
-0.000242961
0.0034163
-0.000533051
0.00371694
-0.000792589
0.00402143
-0.00102088
0.00432837
-0.00121778
0.00463646
-0.00138364
0.00494453
-0.00151921
0.00525156
-0.00162543
0.00555669
-0.00170324
0.00585924
-0.00175312
0.0061587
-0.0017725
-0.00175248
0.00645449
4.41081e-06
0.000796701
1.35375e-05
0.00210199
2.44103e-05
0.00320455
3.5348e-05
0.00410206
4.59499e-05
0.00480722
5.68441e-05
0.00533855
6.93901e-05
0.00571592
8.54373e-05
0.00595871
0.000107067
0.00608487
0.000136403
0.00611032
0.000175466
0.00604886
0.000226089
0.00591233
0.000289863
0.00571089
0.000368114
0.0054534
0.000461893
0.00514785
0.000571988
0.00480156
0.000698936
0.00442145
0.000843021
0.00401423
0.00100428
0.00358647
0.00118254
0.00314459
0.00137738
0.00269485
0.00158821
0.00224332
0.0018142
0.00179579
0.00205437
0.00135771
0.00230758
0.000934097
0.00257254
0.000529455
0.00284787
0.000147701
0.00313213
-0.000207871
0.0034238
-0.000534633
0.00372138
-0.000830638
0.0040234
-0.00109461
0.00432843
-0.0013259
0.00463511
-0.00152446
0.00494221
-0.00169074
0.00524861
-0.00182561
0.00555338
-0.0019302
0.00585575
-0.00200561
0.00615514
-0.00205251
0.00645122
-0.00206858
-0.00204496
0.0067437
6.69536e-06
0.000790006
2.14843e-05
0.0020872
4.06987e-05
0.00318534
6.20963e-05
0.00408066
8.47963e-05
0.00478452
0.00010901
0.00531434
0.000135749
0.00568918
0.000166573
0.00592789
0.000203329
0.00604811
0.000247952
0.00606569
0.000302317
0.0059945
0.00036814
0.00584651
0.000446913
0.00563211
0.000539875
0.00536044
0.000647997
0.00503973
0.000772001
0.00467755
0.000912347
0.0042811
0.00106924
0.00385734
0.00124267
0.00341305
0.00143237
0.00295489
0.00163788
0.00248934
0.00185854
0.00202266
0.00209348
0.00156085
0.00234167
0.00110952
0.00260193
0.00067384
0.00287295
0.000258434
0.00315334
-0.000132683
0.00344162
-0.000496158
0.00373632
-0.000829336
0.00403596
-0.00113027
0.00433908
-0.00139773
0.00464429
-0.00163112
0.00495031
-0.00183048
0.00525597
-0.0019964
0.00556023
-0.00212987
0.00586223
-0.00223219
0.00616129
-0.00230467
0.00645696
-0.00234818
0.00674907
-0.00236069
-0.00233353
0.00703763
8.84693e-06
0.000781159
2.90611e-05
0.00206699
5.63786e-05
0.00315802
8.80582e-05
0.00404898
0.000122776
0.00474981
0.000160348
0.00527677
0.000201441
0.00564808
0.000247316
0.00588201
0.000299571
0.00599586
0.00035994
0.00600532
0.000430132
0.0059243
0.000511728
0.00576491
0.000606104
0.00553774
0.000714401
0.00525215
0.0008375
0.00491663
0.000976034
0.00453902
0.00113038
0.00412676
0.00130067
0.00368705
0.00148679
0.00322692
0.00168843
0.00275325
0.00190506
0.00227271
0.00213594
0.00179178
0.00238014
0.00131664
0.00263659
0.000853065
0.00290407
0.000406362
0.00318124
-1.87348e-05
0.00346668
-0.000418128
0.00375894
-0.000788416
0.00405654
-0.00112693
0.00435801
-0.00143174
0.00466195
-0.00170166
0.00496702
-0.00193619
0.00527201
-0.00213547
0.00557581
-0.0023002
0.00587747
-0.00243153
0.00617622
-0.00253095
0.00647149
-0.00259993
0.00676293
-0.00263962
0.00705056
-0.00264832
-0.00261763
0.00733466
1.08454e-05
0.000770313
3.61942e-05
0.00204164
7.12956e-05
0.00312292
0.000112981
0.0040073
0.000159528
0.00470326
0.000210379
0.00522591
0.000265865
0.0055926
0.000326941
0.00582094
0.000394948
0.00592785
0.000471403
0.00592887
0.000557831
0.00583787
0.000655663
0.00566708
0.000766145
0.00542725
0.0008903
0.00512799
0.00102891
0.00477802
0.00118251
0.00438542
0.00135138
0.00395789
0.00153555
0.00350287
0.00173485
0.00302763
0.00194886
0.00253923
0.00217699
0.00204458
0.00241841
0.00155036
0.00267215
0.0010629
0.00293708
0.000588143
0.00321191
0.000131524
0.0034953
-0.000302123
0.0037858
-0.000708632
0.00408196
-0.00108457
0.0043823
-0.00142727
0.0046854
-0.00173485
0.0049899
-0.00200616
0.00529452
-0.00224082
0.00559812
-0.00243907
0.00589967
-0.00260175
0.00619833
-0.00273019
0.00649341
-0.00282603
0.00678445
-0.00289097
0.00707122
-0.0029264
0.0073539
-0.00293099
-0.00289679
0.00763306
1.26719e-05
0.000757641
4.28161e-05
0.0020115
8.53091e-05
0.00308043
0.00013663
0.00395598
0.00019471
0.00464518
0.000258645
0.00516198
0.000328437
0.00552281
0.00040474
0.00574463
0.000488626
0.00584396
0.000581381
0.00583611
0.000684336
0.00573492
0.00079875
0.00555267
0.000925725
0.00530028
0.00106616
0.00498756
0.00122071
0.00462346
0.00138981
0.00421632
0.00157363
0.00377407
0.00177211
0.00330439
0.00198498
0.00281476
0.00221174
0.00231247
0.00245169
0.00180464
0.00270394
0.0012981
0.00296745
0.000799389
0.00324102
0.000314577
0.00352333
-0.000150785
0.00381298
-0.000591774
0.00410852
-0.00100417
0.00440849
-0.00138454
0.00471143
-0.00173022
0.00501596
-0.00203937
0.00532075
-0.00231096
0.00562462
-0.00254468
0.00592649
-0.00274094
0.00622544
-0.0029007
0.00652072
-0.00302547
0.00681175
-0.00311706
0.00709817
-0.0031774
0.0073799
-0.00320812
0.00765723
-0.00320833
-0.00317062
0.00793106
1.43104e-05
0.000743331
4.88676e-05
0.00197694
9.82929e-05
0.003031
0.000158793
0.00389548
0.000228006
0.00457596
0.000304714
0.00508527
0.000388605
0.00543891
0.000480032
0.00565321
0.000579797
0.0057442
0.00068894
0.00572697
0.000808585
0.00561527
0.000939808
0.00542144
0.00108355
0.00515654
0.00124057
0.00483054
0.0014114
0.00445263
0.00159634
0.00403138
0.00179546
0.00357495
0.00200859
0.00309126
0.00223535
0.002588
0.00247515
0.00207268
0.00272719
0.00155259
0.00299051
0.00103478
0.00326397
0.000525925
0.00354632
3.2233e-05
0.00383617
-0.000440641
0.00413211
-0.000887706
0.00443264
-0.00130471
0.00473632
-0.00168821
0.00504171
-0.0020356
0.00534745
-0.00234511
0.00565229
-0.00261581
0.00595512
-0.00284751
0.00625495
-0.00304076
0.00655096
-0.00319672
0.00684252
-0.00331703
0.00712917
-0.0034037
0.00741065
-0.00345888
0.00768699
-0.00348447
0.00795867
-0.00348
-0.00343876
0.00822681
1.57479e-05
0.000727583
5.42998e-05
0.00193839
0.000110139
0.00297516
0.000179284
0.00382633
0.000259137
0.00449611
0.000348199
0.00499621
0.000445862
0.00534125
0.000552187
0.00554688
0.000667701
0.00562869
0.000793194
0.00560148
0.000929568
0.0054789
0.0010777
0.00527331
0.00123837
0.00499587
0.00141217
0.00465674
0.0015995
0.0042653
0.00180053
0.00383034
0.00201521
0.00336027
0.00224325
0.00286322
0.00248416
0.00234709
0.00273724
0.0018196
0.00300159
0.00128824
0.00327615
0.000760222
0.00355971
0.000242369
0.00385092
-0.000258981
0.00414837
-0.000738087
0.00445057
-0.00118991
0.00475603
-0.00161018
0.00506329
-0.00199547
0.00537094
-0.00234326
0.00567768
-0.00265185
0.00598232
-0.00292044
0.00628382
-0.00314901
0.00658131
-0.00333825
0.00687409
-0.0034895
0.00716163
-0.00360457
0.00744359
-0.00368567
0.00771985
-0.00373514
0.00799056
-0.00375517
0.00825632
-0.00374576
-0.00370095
0.00851851
1.69745e-05
0.000710609
5.90745e-05
0.00189629
0.000120762
0.00291347
0.00019795
0.00374914
0.000287864
0.0044062
0.00038876
0.00489531
0.000499758
0.00523025
0.000620637
0.005426
0.000751648
0.00549768
0.000893327
0.0054598
0.00104635
0.00532588
0.00121138
0.00510827
0.00138902
0.00481823
0.0015797
0.00446607
0.00178366
0.00406134
0.00200094
0.00361306
0.00223135
0.00312986
0.00247448
0.00262009
0.00272972
0.00209185
0.00299625
0.00155307
0.00327307
0.00101143
0.003559
0.00047429
0.00385274
-5.13713e-05
0.00415287
-0.000559112
0.00445791
-0.00104312
0.00476632
-0.00149832
0.00507661
-0.00192046
0.0053873
-0.00230617
0.00569702
-0.00265298
0.00600452
-0.00295935
0.00630869
-0.00322461
0.00660859
-0.00344891
0.00690345
-0.00363312
0.0071927
-0.00377875
0.00747595
-0.00388782
0.00775299
-0.0039627
0.00802381
-0.00400596
0.00828869
-0.00402005
0.00854835
-0.00400543
-0.00395702
0.00880443
1.79837e-05
0.000692625
6.31654e-05
0.00185111
0.000130098
0.00284654
0.000214674
0.00366457
0.000313996
0.00430688
0.00042612
0.00478319
0.000549916
0.00510646
0.000684894
0.00529102
0.000831036
0.00535153
0.000988624
0.00530221
0.00115809
0.00515641
0.00133991
0.00492646
0.00153445
0.00462369
0.001742
0.00425852
0.00196263
0.00384071
0.00219623
0.00337946
0.00244247
0.00288362
0.00270081
0.00236174
0.00297051
0.00182216
0.0032506
0.00127297
0.00353998
0.000722047
0.00383736
0.000176914
0.00414132
-0.000355335
0.00445037
-0.000868158
0.00476294
-0.00135569
0.00507747
-0.00181286
0.00539243
-0.00223542
0.00570637
-0.0026201
0.00601793
-0.00296455
0.00632593
-0.00326735
0.00662935
-0.00352803
0.00692736
-0.00374692
0.00721932
-0.00392508
0.00750478
-0.00406421
0.00778349
-0.00416653
0.00805539
-0.0042346
0.0083206
-0.00427117
0.00857951
-0.00427897
0.00883299
-0.00425891
-0.00420689
0.00908287
1.87728e-05
0.000673852
6.65588e-05
0.00180332
0.00013811
0.00277499
0.000229378
0.0035733
0.000337399
0.00419885
0.00046007
0.00466052
0.000596041
0.00497049
0.000744568
0.0051425
0.000905375
0.00519073
0.00107849
0.00512909
0.00126411
0.00497079
0.00146247
0.0047281
0.00167378
0.00441238
0.0018981
0.0040342
0.00213535
0.00360345
0.00238527
0.00312954
0.00264737
0.00262152
0.00292097
0.00208815
0.00320518
0.00153795
0.0034989
0.00097925
0.00380088
0.000420065
0.00410972
-0.000131923
0.00442388
-0.000669501
0.00474178
-0.00118606
0.00506178
-0.0016757
0.00538228
-0.00213335
0.00570171
-0.00255486
0.00601865
-0.00293704
0.00633178
-0.00327768
0.00663999
-0.00357557
0.00694237
-0.00383041
0.0072382
-0.00404274
0.00752697
-0.00421385
0.00780838
-0.00434563
0.00808234
-0.00444049
0.00834892
-0.00450118
0.00860839
-0.00453065
0.00886127
-0.00453184
0.00910854
-0.00450617
-0.00445055
0.0093522
1.9343e-05
0.000654509
6.92545e-05
0.00175341
0.000144786
0.00269946
0.000242025
0.00347606
0.000357997
0.00408288
0.00049048
0.00452803
0.000637932
0.00482304
0.000799381
0.00498105
0.0009743
0.00501581
0.00116247
0.00494092
0.00136385
0.00476941
0.00157846
0.00451349
0.00180628
0.00418456
0.0020472
0.00379328
0.00230097
0.00334969
0.00256714
0.00286337
0.00284507
0.00234359
0.00313392
0.0017993
0.00343263
0.00123924
0.00373997
0.000671907
0.00405454
0.000105497
0.00437479
-0.000452171
0.00469907
-0.000993785
0.00502569
-0.00151268
0.00535295
-0.00200295
0.00567918
-0.00245958
0.00600282
-0.0028785
0.00632245
-0.00325667
0.00663683
-0.00359206
0.00694493
-0.00388367
0.00724593
-0.00413141
0.00753926
-0.00433607
0.00782456
-0.00449914
0.00810169
-0.00462276
0.0083707
-0.0047095
0.00863182
-0.0047623
0.00888547
-0.0047843
0.00913229
-0.00477867
0.00937338
-0.00474725
-0.00468807
0.00961089
1.97e-05
0.000634809
7.12662e-05
0.00170184
0.000150144
0.00262058
0.000252626
0.00337358
0.000375776
0.00395973
0.000517299
0.00438651
0.000675492
0.00466484
0.000849176
0.00480736
0.00103759
0.00482739
0.00124028
0.00473824
0.00145696
0.00455273
0.00168743
0.00428302
0.00193146
0.00394053
0.00218876
0.00353598
0.00245887
0.00307958
0.00274116
0.00258107
0.00303484
0.00204991
0.00333887
0.00149527
0.00365204
0.000926073
0.00397294
0.000351007
0.0043
-0.000221569
0.00463154
-0.000783709
0.00496578
-0.00132802
0.0053009
-0.0018478
0.00563515
-0.00233719
0.00596681
-0.00279124
0.00629431
-0.00320601
0.00661627
-0.00357863
0.00693152
-0.00390731
0.00723912
-0.00419126
0.00753838
-0.00443068
0.00782888
-0.00462657
0.00811042
-0.00478068
0.00838302
-0.00489536
0.0086469
-0.00497338
0.00890245
-0.00501786
0.00915024
-0.00503209
0.00939103
-0.00501946
0.00962602
-0.00498224
-0.00491957
0.00985753
1.98531e-05
0.000614956
7.26219e-05
0.00164907
0.000154229
0.00253897
0.000261234
0.00326657
0.000390789
0.00383018
0.000540565
0.00423674
0.000708733
0.00449667
0.000893931
0.00462217
0.00109518
0.00462614
0.0013118
0.00452162
0.00154327
0.00432126
0.00178918
0.00403712
0.00204908
0.00368063
0.00232246
0.0032626
0.00260869
0.00279335
0.00290695
0.00228281
0.00321624
0.00174063
0.00353533
0.00117617
0.00386284
0.000598568
0.00419716
1.66844e-05
0.00453656
-0.000560967
0.00487918
-0.00112633
0.0052231
-0.00167195
0.00556643
-0.00219113
0.0059073
-0.00267806
0.00624398
-0.00312792
0.00657492
-0.00353694
0.00689876
-0.00390248
0.00721442
-0.00422297
0.00752109
-0.00449793
0.00781821
-0.0047278
0.00810553
-0.00491388
0.008383
-0.00505816
0.00865084
-0.00516319
0.00890943
-0.00523197
0.00915933
-0.00526776
0.00940125
-0.00527401
0.00963607
-0.00525428
0.00986509
-0.00521127
-0.00514523
0.0100907
1.9816e-05
0.00059514
7.33634e-05
0.00159553
0.000157114
0.00245522
0.000267948
0.00315574
0.000403153
0.00369497
0.000560404
0.00407949
0.000737778
0.0043193
0.000933754
0.00442619
0.00114716
0.00441274
0.00137709
0.00429169
0.00162283
0.00407552
0.00188371
0.00377623
0.0021591
0.00340524
0.00244827
0.00297343
0.00275037
0.00249125
0.00306438
0.0019688
0.00338909
0.00141592
0.00372308
0.000842177
0.00406474
0.000256911
0.00441227
-0.000330847
0.00476374
-0.00091244
0.00511713
-0.00147972
0.00547039
-0.0020252
0.00582148
-0.00254223
0.00616851
-0.00302509
0.00650971
-0.00346912
0.00684353
-0.00387077
0.00716872
-0.00422766
0.00748428
-0.00453853
0.00778952
-0.00480318
0.00808407
-0.00502235
0.00836782
-0.00519763
0.00864094
-0.00533127
0.00890379
-0.00542604
0.00915695
-0.00548513
0.00940113
-0.00551194
0.0096372
-0.00551007
0.00986615
-0.00548323
0.0100894
-0.00543449
-0.00536523
0.0103094
1.96063e-05
0.000575534
7.35456e-05
0.00154159
0.000158897
0.00236987
0.000272911
0.00304172
0.00041305
0.00355483
0.000577027
0.00391551
0.000762858
0.00413347
0.000968892
0.00422016
0.00119378
0.00418785
0.00143642
0.00404905
0.00169588
0.00381607
0.00197128
0.00350083
0.00226177
0.00311475
0.00256639
0.0026688
0.00288409
0.00217355
0.00321361
0.00163928
0.00355351
0.00107601
0.00390216
0.000493531
0.00425771
-9.86329e-05
0.00461814
-0.000691278
0.00498132
-0.00127562
0.00534505
-0.00184345
0.00570713
-0.00238728
0.00606545
-0.00290055
0.00641803
-0.00337767
0.00676311
-0.0038142
0.0070992
-0.00420686
0.0074251
-0.00455356
0.00773996
-0.00485339
0.00804325
-0.00510646
0.00833475
-0.00531385
0.00861455
-0.00547743
0.00888299
-0.00559972
0.00914065
-0.0056837
0.00938826
-0.00573274
0.00962671
-0.00575039
0.00985698
-0.00574034
0.0100802
-0.00570645
0.0102978
-0.00565211
-0.00557982
0.0105124
1.92454e-05
0.000556289
7.3235e-05
0.0014876
0.000159702
0.0022834
0.000276305
0.00292512
0.000420719
0.00341042
0.000590728
0.0037455
0.000784313
0.00393988
0.000999722
0.00400475
0.00123545
0.00395212
0.00149022
0.00379428
0.00176287
0.00354341
0.00205234
0.00321136
0.00235754
0.00280956
0.00267728
0.00234905
0.00301027
0.00184056
0.00335502
0.00129453
0.00370984
0.000721194
0.00407283
0.00013054
0.00444191
-0.000467707
0.00481482
-0.00106419
0.00518922
-0.00165002
0.00556273
-0.00221696
0.00593301
-0.00275757
0.00629785
-0.0032654
0.00665526
-0.00373507
0.00700347
-0.00416241
0.00734107
-0.00454446
0.00766698
-0.00487947
0.00798048
-0.00516689
0.00828122
-0.0054072
0.00856918
-0.00560181
0.00884463
-0.00575288
0.00910812
-0.0058632
0.00936039
-0.00593598
0.00960237
-0.00597472
0.00983509
-0.00598311
0.0100597
-0.00596492
0.0102773
-0.00592411
0.0104896
-0.0058644
-0.00578932
0.0106991
1.87584e-05
0.00053753
7.25087e-05
0.00143384
0.000159674
0.00219624
0.000278351
0.00280644
0.000426456
0.00326231
0.000601873
0.00357008
0.000802579
0.00373918
0.00102674
0.00378059
0.00127273
0.00370613
0.00153908
0.00352793
0.00182445
0.00325804
0.00212756
0.00290825
0.00244708
0.00249004
0.00278161
0.00201453
0.00312958
0.00149259
0.00348923
0.000934875
0.00385862
0.000351813
0.00423555
-0.000246395
0.00461768
-0.000849843
0.00500253
-0.00144903
0.00538751
-0.002035
0.00577007
-0.00259952
0.00614776
-0.00313525
0.00651829
-0.00363593
0.00687964
-0.00409643
0.00723012
-0.00451289
0.0075684
-0.00488273
0.00789352
-0.0052046
0.00820496
-0.00547833
0.00850254
-0.00570478
0.00878644
-0.00588571
0.00905715
-0.00602359
0.0093154
-0.00612146
0.00956214
-0.00618272
0.00979844
-0.00621102
0.0100255
-0.00621014
0.0102445
-0.00618394
0.0104568
-0.00613644
0.0106641
-0.00607163
-0.00599406
0.0108688
1.81732e-05
0.000519357
7.14526e-05
0.00138057
0.000158975
0.00210871
0.0002793
0.00268612
0.000430605
0.00311101
0.000610896
0.00338979
0.000818176
0.0035319
0.00105055
0.00354821
0.00130628
0.00345041
0.00158374
0.00325047
0.0018814
0.00296038
0.00219775
0.0025919
0.00253125
0.00215654
0.00288022
0.00166556
0.00324282
0.00112999
0.003617
0.000560692
0.00400051
-3.16961e-05
0.00439088
-0.000636764
0.00478547
-0.00124444
0.00518154
-0.0018451
0.00557631
-0.00242977
0.00596704
-0.00299025
0.00635118
-0.00351939
0.00672641
-0.00401115
0.00709071
-0.00446073
0.00744247
-0.00486465
0.00778049
-0.00522074
0.00810398
-0.00552809
0.0084126
-0.00578695
0.00870638
-0.00599857
0.00898573
-0.00616506
0.00925133
-0.00628919
0.00950411
-0.00637424
0.00974519
-0.00642379
0.0099758
-0.00644163
0.0101973
-0.0064316
0.0104109
-0.00639759
0.0106182
-0.0063437
0.0108207
-0.00627413
-0.00619439
0.011021
1.75195e-05
0.000501837
7.01593e-05
0.00132793
0.000157784
0.00202109
0.000279426
0.00256448
0.000433543
0.00295689
0.000618282
0.00320505
0.000831691
0.00331849
0.00107184
0.00330806
0.00133688
0.00318537
0.00162504
0.00296231
0.00193462
0.0026508
0.00226388
0.00226264
0.00261101
0.00180941
0.00297407
0.0013025
0.0033509
0.000753157
0.00373916
0.000172432
0.00413627
-0.000428799
0.00453943
-0.00103993
0.00494574
-0.00165074
0.00535217
-0.00225154
0.00575575
-0.00283334
0.0061536
-0.00338811
0.00654308
-0.00390888
0.00692186
-0.00438993
0.00728798
-0.00482686
0.00763995
-0.00521662
0.0079767
-0.0055575
0.00829767
-0.00584906
0.0086027
-0.00609198
0.00889207
-0.00628794
0.00916639
-0.00643937
0.00942654
-0.00654935
0.00967366
-0.00662136
0.00990901
-0.00665915
0.010134
-0.0066666
0.01035
-0.00664761
0.0105585
-0.00660609
0.010761
-0.00654618
0.0109591
-0.00647225
-0.0063907
0.0111554
1.68282e-05
0.000485009
6.87264e-05
0.00127603
0.000156289
0.00193353
0.000279024
0.00244174
0.000435676
0.00280024
0.000624552
0.00301617
0.00084376
0.00309928
0.00109135
0.00306048
0.00136537
0.00291134
0.00166393
0.00266375
0.00198512
0.00232962
0.00232697
0.00192079
0.0026874
0.00144897
0.00306417
0.000925735
0.0034548
0.000362525
0.0038566
-0.000229365
0.00426664
-0.000838839
0.00468182
-0.00145511
0.00509891
-0.00206784
0.00551466
-0.00266729
0.0059259
-0.00324458
0.00632964
-0.00379185
0.0067232
-0.00430243
0.00710426
-0.004771
0.00747098
-0.00519358
0.00782199
-0.00556763
0.00815644
-0.00589195
0.00847397
-0.00616658
0.00877466
-0.00639268
0.00905902
-0.0065723
0.00932787
-0.00670822
0.00958231
-0.00680378
0.00982363
-0.00686268
0.0100533
-0.00688878
0.0102727
-0.00688604
0.0104835
-0.00685837
0.0106871
-0.0068097
0.0108851
-0.00674419
0.0110792
-0.00666637
-0.00658353
0.011272
1.61305e-05
0.000468878
6.72534e-05
0.0012249
0.000154682
0.0018461
0.000278392
0.00231803
0.000437423
0.00264121
0.000630248
0.00282335
0.000855047
0.00287448
0.00110985
0.00280568
0.00139263
0.00262856
0.00170135
0.00235503
0.0020339
0.00199707
0.00238806
0.00156663
0.00276146
0.00107557
0.00315153
0.000535669
0.00355543
-4.138e-05
0.00397011
-0.000644047
0.00439229
-0.00126102
0.00481853
-0.00188135
0.00524532
-0.00249462
0.00566917
-0.00309114
0.00608674
-0.00366216
0.00649499
-0.00420009
0.00689121
-0.00469866
0.00727318
-0.00515297
0.00763918
-0.00555958
0.00798804
-0.00591649
0.00831913
-0.00622303
0.00863232
-0.00647978
0.00892795
-0.00668831
0.00920676
-0.0068511
0.00946977
-0.00697124
0.00971829
-0.0070523
0.00995376
-0.00709815
0.0101777
-0.00711275
0.0103918
-0.0071001
0.0105976
-0.00706412
0.0107966
-0.00700871
0.0109904
-0.00693803
0.0111808
-0.00685676
-0.00677301
0.0113703
1.54573e-05
0.000453421
6.58393e-05
0.00117452
0.000153154
0.00175878
0.000277833
0.00219335
0.000439204
0.00247984
0.000635915
0.00262664
0.000866215
0.00264418
0.00112813
0.00254377
0.00141954
0.00233714
0.00173826
0.00203631
0.00208197
0.00165337
0.00244817
0.00120043
0.00283418
0.000689555
0.00323707
0.000132785
0.00365363
-0.000457937
0.00408041
-0.00107083
0.00451377
-0.00169438
0.00494995
-0.00231753
0.00538515
-0.00292982
0.00581569
-0.00352168
0.00623811
-0.00408458
0.00664934
-0.00461131
0.00704671
-0.00509603
0.00742813
-0.00553439
0.00779206
-0.00592351
0.00813756
-0.00626198
0.00846423