/*--------------------------------*- C++ -*----------------------------------*\
  =========                 |
  \\      /  F ield         | OpenFOAM: The Open Source CFD Toolbox
   \\    /   O peration     | Website:  https://openfoam.org
    \\  /    A nd           | Version:  7
     \\/     M anipulation  |
\*---------------------------------------------------------------------------*/
FoamFile
{
    version     2.0;
    format      ascii;
    class       volVectorField;
    location    "2.9";
    object      U;
}
// * * * * * * * * * * * * * * * * * * * * * * * * * * * * * * * * * * * * * //

dimensions      [0 1 -1 0 0 0 0];

internalField   nonuniform List<vector> 
32000
(
(-0.000931975 0.0287309 -8.68237e-22)
(-0.00444839 0.0762061 0)
(-0.0102236 0.116142 -7.73154e-21)
(-0.0168564 0.148571 0)
(-0.0239369 0.174229 8.05564e-21)
(-0.0310065 0.194045 0)
(-0.0377197 0.208929 8.33155e-21)
(-0.0438108 0.219685 -6.3351e-21)
(-0.0490848 0.226998 2.73203e-24)
(-0.0534054 0.231416 2.90217e-24)
(-0.0566852 0.233376 -2.1876e-21)
(-0.0588728 0.233222 8.82278e-21)
(-0.0599469 0.231229 0)
(-0.0599133 0.227624 -2.2428e-21)
(-0.058795 0.222605 2.25213e-21)
(-0.0566266 0.216353 0)
(-0.0534543 0.209039 1.13637e-20)
(-0.0493322 0.200827 -2.28113e-21)
(-0.0443198 0.191881 0)
(-0.0384826 0.18236 4.59627e-21)
(-0.03189 0.172423 4.58675e-21)
(-0.0246141 0.162222 0)
(-0.0167304 0.151902 0)
(-0.00831663 0.141603 0)
(0.000548851 0.131451 0)
(0.00978812 0.121564 0)
(0.0193246 0.112044 0)
(0.0290833 0.102981 0)
(0.0389911 0.0944474 -9.15056e-21)
(0.0489786 0.0865055 0)
(0.05898 0.0792012 9.10706e-21)
(0.0689344 0.0725662 0)
(0.0787851 0.0666208 0)
(0.088482 0.0613746 0)
(0.0979797 0.0568287 -8.98546e-21)
(0.107234 0.0529798 -4.48799e-21)
(0.116206 0.0498231 1.33972e-20)
(0.124874 0.0473546 -1.15464e-23)
(0.133226 0.0456663 8.85128e-21)
(0.140984 0.044976 -1.45509e-23)
(-0.0014471 0.0294924 0)
(-0.00561021 0.0779711 1.50599e-20)
(-0.0116676 0.118594 3.8683e-21)
(-0.0183795 0.151481 -1.8913e-24)
(-0.0253974 0.177395 -4.03243e-21)
(-0.0323166 0.197284 0)
(-0.0388281 0.212078 8.29217e-21)
(-0.0446881 0.2226 -8.41118e-21)
(-0.0497142 0.229557 0)
(-0.0537791 0.233518 -1.72712e-20)
(-0.0567991 0.234939 0)
(-0.0587242 0.234181 -2.64174e-20)
(-0.0595335 0.231535 0)
(-0.0592317 0.227241 0)
(-0.0578405 0.221508 8.9956e-21)
(-0.0553948 0.214527 -9.02464e-21)
(-0.0519403 0.206476 -9.08507e-21)
(-0.0475307 0.19753 0)
(-0.0422269 0.187859 2.73573e-20)
(-0.0360958 0.177632 -9.13775e-21)
(-0.0292074 0.167013 -7.47971e-24)
(-0.0216363 0.156159 -2.74701e-20)
(-0.0134608 0.145224 -1.83183e-20)
(-0.00476002 0.134352 -9.19044e-21)
(0.00438602 0.123675 2.74813e-20)
(0.0138959 0.113314 -2.74837e-20)
(0.0236896 0.103376 2.74934e-20)
(0.0336903 0.0939523 -3.65277e-20)
(0.0438241 0.0851193 -9.07042e-21)
(0.0540192 0.0769381 6.06087e-23)
(0.0642075 0.0694544 -2.72006e-20)
(0.0743271 0.0626995 -1.8102e-20)
(0.0843214 0.0566919 3.61054e-20)
(0.0941397 0.0514393 -3.59423e-20)
(0.103736 0.0469403 -8.90698e-21)
(0.113068 0.0431886 -3.56938e-20)
(0.122098 0.04018 2.32393e-23)
(0.130804 0.0379126 8.84493e-21)
(0.139177 0.0364853 -3.51758e-20)
(0.146942 0.0361306 -4.96367e-20)
(-0.00198356 0.0301197 -3.45309e-21)
(-0.00680464 0.0794189 -7.53704e-21)
(-0.0131307 0.120668 -3.46235e-20)
(-0.0198936 0.153997 0)
(-0.0268067 0.180177 4.01484e-21)
(-0.0335229 0.200165 -4.08319e-21)
(-0.039771 0.214902 -4.97879e-20)
(-0.0453322 0.22523 1.68607e-20)
(-0.0500397 0.23187 -8.53318e-21)
(-0.053778 0.235411 5.17165e-20)
(-0.0564663 0.236328 1.7421e-20)
(-0.0580556 0.234998 8.81491e-21)
(-0.0585271 0.231727 -3.53584e-20)
(-0.0578864 0.226769 0)
(-0.0561542 0.220345 0)
(-0.053365 0.212654 1.80205e-20)
(-0.0495659 0.203885 3.08895e-23)
(-0.0448115 0.194221 -1.81221e-20)
(-0.0391624 0.183841 -1.82203e-20)
(-0.0326874 0.172919 -3.63774e-20)
(-0.0254601 0.161628 5.47015e-20)
(-0.0175559 0.150133 5.64226e-23)
(-0.00905475 0.138593 1.76318e-23)
(-3.93584e-05 0.127158 1.82608e-20)
(0.00940707 0.115965 -3.6611e-20)
(0.0192013 0.105141 7.29845e-20)
(0.0292612 0.0947939 0)
(0.039508 0.0850198 1.82542e-20)
(0.0498649 0.0758967 1.82203e-20)
(0.0602585 0.0674857 3.63397e-20)
(0.0706203 0.0598324 6.0453e-23)
(0.0808877 0.0529677 0)
(0.0910034 0.046908 1.79798e-20)
(0.100917 0.0416581 -1.78442e-20)
(0.110582 0.0372137 -1.77326e-20)
(0.119959 0.033567 5.34102e-20)
(0.129011 0.0307113 -5.29583e-20)
(0.137718 0.0286466 3.52717e-20)
(0.146074 0.0274792 -5.24653e-20)
(0.153806 0.027455 1.96714e-20)
(-0.0025364 0.0306694 2.75269e-20)
(-0.00802742 0.0807154 -2.99729e-20)
(-0.0146122 0.122522 6.14707e-20)
(-0.0214022 0.156255 0)
(-0.028172 0.182687 2.39822e-20)
(-0.0346349 0.202778 4.07131e-20)
(-0.0405608 0.217472 8.3635e-21)
(-0.045759 0.227627 8.68203e-24)
(-0.05008 0.233974 2.54847e-20)
(-0.0534175 0.237121 -8.69487e-21)
(-0.0556987 0.23756 4.33864e-20)
(-0.0568791 0.235684 -5.25317e-20)
(-0.0569407 0.231814 5.30011e-20)
(-0.0558891 0.226216 -1.77774e-20)
(-0.0537469 0.219123 1.78514e-20)
(-0.050549 0.210744 -3.58301e-20)
(-0.0463423 0.201277 -5.39947e-20)
(-0.0411832 0.190915 1.80572e-20)
(-0.0351348 0.179844 -1.81338e-20)
(-0.0282674 0.168246 5.45126e-20)
(-0.0206563 0.1563 -3.64295e-20)
(-0.0123801 0.144179 -3.63109e-20)
(-0.00352168 0.132049 0)
(0.0058342 0.120065 0)
(0.0156019 0.108371 -3.63074e-20)
(0.0256951 0.0970961 -3.64416e-20)
(0.0360291 0.0863543 -3.62352e-20)
(0.0465232 0.0762429 0)
(0.0570992 0.0668419 0)
(0.0676824 0.0582135 -7.21848e-20)
(0.0782034 0.0504033 -7.92226e-23)
(0.0885992 0.0434405 3.59996e-20)
(0.0988127 0.0373397 -3.57655e-20)
(0.108793 0.0321026 -3.57134e-20)
(0.118497 0.0277221 3.56703e-20)
(0.127886 0.024187 0)
(0.136923 0.0214887 3.53256e-20)
(0.145593 0.0196283 -7.01189e-20)
(0.153892 0.0187173 6.98831e-20)
(0.16155 0.0190163 -7.84751e-20)
(-0.00309977 0.0310896 -1.37829e-20)
(-0.00926563 0.0817305 2.24869e-20)
(-0.0160982 0.124019 -3.06981e-20)
(-0.0228916 0.158123 0)
(-0.0294829 0.184803 -3.99848e-20)
(-0.0356482 0.205011 -2.44368e-20)
(-0.0411977 0.219692 3.30877e-20)
(-0.0459708 0.229707 0)
(-0.0498385 0.2358 -5.09676e-20)
(-0.0527071 0.238594 -1.72138e-20)
(-0.0545107 0.238593 -1.73663e-20)
(-0.0552093 0.236208 3.50146e-20)
(-0.0547887 0.231773 -3.52033e-20)
(-0.0532566 0.225568 1.77018e-20)
(-0.0506356 0.217835 0)
(-0.046962 0.208797 5.37255e-20)
(-0.0422854 0.198661 1.80264e-20)
(-0.0366635 0.187625 -3.60368e-20)
(-0.0301613 0.175886 7.21906e-20)
(-0.0228517 0.163634 -7.23202e-20)
(-0.0148134 0.151055 7.23018e-20)
(-0.00612738 0.138329 3.63101e-20)
(0.00312109 0.125629 0)
(0.012844 0.113116 3.62809e-20)
(0.0229524 0.100938 1.20833e-22)
(0.0333574 0.0892307 0)
(0.0439727 0.0781107 3.62345e-20)
(0.0547155 0.0676785 -3.61363e-20)
(0.0655057 0.0580158 3.59857e-20)
(0.0762678 0.0491855 7.20161e-20)
(0.0869324 0.0412328 -7.17078e-20)
(0.0974363 0.0341858 7.15467e-20)
(0.107723 0.0280565 0)
(0.117742 0.0228434 0)
(0.127453 0.0185363 7.07593e-20)
(0.136818 0.0151202 0)
(0.145804 0.0125837 0)
(0.154397 0.010928 -6.97462e-20)
(0.162599 0.0102686 6.94581e-20)
(0.170141 0.0108809 3.908e-20)
(-0.00366904 0.031409 6.85416e-21)
(-0.0105107 0.0825205 0)
(-0.0175802 0.125216 6.10966e-20)
(-0.0243587 0.15965 7.81726e-21)
(-0.0307413 0.186564 7.97944e-21)
(-0.0365664 0.206897 4.86037e-20)
(-0.0416892 0.221583 6.58589e-20)
(-0.0459806 0.231486 0)
(-0.0493319 0.237357 1.69371e-20)
(-0.0516632 0.239831 5.12676e-20)
(-0.0529192 0.239426 6.90299e-20)
(-0.0530658 0.236566 -1.74319e-20)
(-0.0520921 0.231601 -5.25493e-20)
(-0.0500086 0.224821 0)
(-0.0468406 0.216483 7.08681e-20)
(-0.0426266 0.206817 0)
(-0.0374176 0.19604 1.07205e-19)
(-0.0312742 0.184361 -3.58494e-20)
(-0.0242646 0.171983 0)
(-0.0164648 0.159104 -3.60412e-20)
(-0.00795577 0.145918 -1.05599e-22)
(0.00117806 0.132613 -3.5885e-20)
(0.0108479 0.119367 -3.60502e-20)
(0.0209625 0.106348 3.6116e-20)
(0.03143 0.0937108 -3.60213e-20)
(0.0421593 0.0815926 0)
(0.0530619 0.0701158 -3.6023e-20)
(0.064053 0.0593832 3.58852e-20)
(0.0750513 0.049478 0)
(0.0859809 0.0404639 0)
(0.0967725 0.0323858 0)
(0.107363 0.0252701 -7.12415e-20)
(0.117696 0.019126 7.08645e-20)
(0.127725 0.0139493 0)
(0.137409 0.00972574 -3.52971e-20)
(0.146716 0.00643647 0)
(0.155613 0.00406592 6.9904e-20)
(0.16409 0.00261458 -3.46223e-20)
(0.172154 0.00220112 -6.92421e-20)
(0.179541 0.00311455 7.7426e-20)
(-0.00423819 0.0316131 4.77754e-20)
(-0.0117532 0.0830578 -6.69419e-20)
(-0.0190504 0.126076 -1.14415e-19)
(-0.0257949 0.160796 -6.22885e-20)
(-0.0319405 0.18793 -1.5908e-20)
(-0.0373895 0.208392 -3.24486e-20)
(-0.0420401 0.223103 -1.47994e-19)
(-0.045795 0.232924 -4.9945e-20)
(-0.04857 0.238609 -8.43405e-20)
(-0.050301 0.2408 -8.54528e-20)
(-0.0509425 0.24003 -1.20641e-19)
(-0.0504679 0.236737 -6.93989e-20)
(-0.0488722 0.23128 2.097e-22)
(-0.0461699 0.223965 -7.02883e-20)
(-0.0423886 0.215057 -7.08664e-20)
(-0.0375697 0.204799 -1.06456e-19)
(-0.0317676 0.193418 7.10222e-20)
(-0.0250463 0.18113 -3.57154e-20)
(-0.0174774 0.168145 0)
(-0.00913961 0.154672 7.15779e-20)
(-0.00011761 0.140911 0)
(0.00950011 0.127057 1.43671e-19)
(0.0196212 0.113296 0)
(0.0301513 0.0998005 -3.595e-20)
(0.0409954 0.0867301 3.6098e-20)
(0.05206 0.0742279 -7.16406e-20)
(0.0632546 0.0624194 0)
(0.0744926 0.0514102 -7.15895e-20)
(0.085692 0.0412852 7.12912e-20)
(0.0967764 0.0321084 0)
(0.107677 0.0239242 0)
(0.118331 0.0167568 0)
(0.128685 0.0106133 -7.04337e-20)
(0.138693 0.00548615 0)
(0.148318 0.00135685 -7.01634e-20)
(0.15753 -0.0017981 1.39626e-19)
(0.166301 -0.00399851 -1.39027e-19)
(0.174623 -0.00524622 6.89188e-20)
(0.182509 -0.00542064 1.3773e-19)
(0.189702 -0.00422112 -7.6918e-20)
(-0.00480308 0.0317054 -6.14275e-20)
(-0.0129847 0.0833407 1.506e-22)
(-0.0204994 0.126596 6.09445e-20)
(-0.027195 0.161554 1.24424e-19)
(-0.0330802 0.188888 -1.58696e-20)
(-0.0381197 0.209481 -6.45237e-20)
(-0.0422562 0.224235 6.56837e-20)
(-0.0454259 0.234001 9.99014e-20)
(-0.0475694 0.239534 3.37733e-20)
(-0.048639 0.241483 8.50364e-20)
(-0.048602 0.240389 6.88387e-20)
(-0.0474412 0.236703 1.03938e-19)
(-0.0451578 0.230796 2.0932e-19)
(-0.0417706 0.222986 1.05275e-19)
(-0.0373116 0.213551 0)
(-0.0318263 0.202742 3.5505e-20)
(-0.0253728 0.190795 3.5235e-20)
(-0.0180188 0.177935 3.54434e-20)
(-0.00983979 0.164383 7.13342e-20)
(-0.000918479 0.150353 -3.59878e-20)
(0.00865663 0.136053 0)
(0.0187928 0.121687 -3.14445e-22)
(0.0293937 0.107444 -7.13606e-20)
(0.0403613 0.093505 7.13339e-20)
(0.0515979 0.0800336 1.429e-19)
(0.0630075 0.0671779 1.42664e-19)
(0.0744977 0.0550671 -9.33399e-23)
(0.0859804 0.043809 7.0996e-20)
(0.0973725 0.0334897 7.08567e-20)
(0.108598 0.0241739 -7.06964e-20)
(0.119589 0.0159049 7.05158e-20)
(0.130284 0.00870511 7.0315e-20)
(0.140631 0.00257904 1.40526e-19)
(0.150588 -0.00248455 -2.38656e-22)
(0.160121 -0.00650837 2.09113e-19)
(0.169203 -0.00952108 -9.89664e-23)
(0.177811 -0.0115475 -6.90195e-20)
(0.185938 -0.0125928 -6.90346e-20)
(0.193608 -0.0125365 6.83799e-20)
(0.200571 -0.0110689 7.62789e-20)
(-0.00535825 0.0316857 5.43139e-20)
(-0.0141962 0.0833695 7.41628e-20)
(-0.0219194 0.126772 4.54672e-20)
(-0.0285532 0.161914 -4.66147e-20)
(-0.0341584 0.189424 -7.90406e-20)
(-0.0387603 0.210146 6.45086e-20)
(-0.0423463 0.224958 0)
(-0.0448862 0.234695 6.63003e-20)
(-0.0463467 0.240111 0)
(-0.046699 0.241856 -1.35852e-19)
(-0.0459241 0.24048 3.42856e-20)
(-0.0440152 0.236444 -1.7274e-19)
(-0.040981 0.230131 -6.9667e-20)
(-0.0368464 0.221871 3.47654e-20)
(-0.0316487 0.211952 1.82559e-23)
(-0.0254379 0.200636 -3.52625e-20)
(-0.0182769 0.188167 -7.08873e-20)
(-0.010238 0.174779 -1.41848e-19)
(-0.00140085 0.160702 0)
(0.00814743 0.146157 -1.03984e-22)
(0.0183137 0.13136 -7.1138e-20)
(0.0290006 0.11652 -7.13603e-20)
(0.0401077 0.101835 7.13587e-20)
(0.0515333 0.0874899 -7.15613e-20)
(0.0631768 0.0736541 7.0953e-20)
(0.0749397 0.0604799 -1.42177e-19)
(0.0867277 0.0480997 -9.33631e-23)
(0.0984513 0.0366235 -1.41741e-19)
(0.110027 0.0261387 -7.0855e-20)
(0.121379 0.0167101 9.25966e-23)
(0.132441 0.00837991 -2.48968e-22)
(0.143153 0.00116871 -7.03134e-20)
(0.153466 -0.00492183 -7.00927e-20)
(0.163342 -0.00990677 -3.36111e-22)
(0.17275 -0.0138135 -6.95926e-20)
(0.181667 -0.0166758 -3.32195e-22)
(0.190074 -0.0185243 -6.88082e-20)
(0.19797 -0.0193687 2.0534e-19)
(0.205385 -0.0190902 -6.83787e-20)
(0.21208 -0.017373 -7.61257e-20)
(-0.00589863 0.0315571 -5.43165e-20)
(-0.0153782 0.0831455 1.47757e-20)
(-0.0233022 0.126601 -4.5495e-20)
(-0.0298646 0.16187 -1.54719e-20)
(-0.0351743 0.189528 6.32216e-20)
(-0.0393154 0.210373 -1.60758e-20)
(-0.0423194 0.225253 1.63181e-20)
(-0.0441903 0.234985 -9.94185e-20)
(-0.0449216 0.240316 3.35053e-20)
(-0.0445052 0.241895 6.78358e-20)
(-0.0429374 0.24028 0)
(-0.0402226 0.235939 1.37804e-19)
(-0.0363787 0.229267 0)
(-0.0314379 0.220604 -1.39468e-19)
(-0.0254439 0.210248 -6.99321e-20)
(-0.0184521 0.198471 0)
(-0.0105308 0.185528 0)
(-0.00175764 0.171659 1.41307e-19)
(0.00778276 0.157103 7.07953e-20)
(0.0179986 0.142089 -1.41679e-19)
(0.0287916 0.126841 7.08386e-20)
(0.0400591 0.111573 0)
(0.0516965 0.0964882 -7.09359e-20)
(0.0635986 0.0817787 1.41365e-19)
(0.0756616 0.067619 -7.07194e-20)
(0.0877844 0.0541652 -7.07757e-20)
(0.0998707 0.0415521 7.05312e-20)
(0.11183 0.0298919 0)
(0.123579 0.0192732 1.40593e-19)
(0.135042 0.00976069 -7.01041e-20)
(0.146155 0.00139515 -7.00793e-20)
(0.15686 -0.00580475 -1.52692e-22)
(0.167112 -0.0118405 2.78242e-19)
(0.176876 -0.016731 -2.08062e-19)
(0.186126 -0.0205084 0)
(0.194845 -0.0232119 -6.89808e-20)
(0.203016 -0.0248786 -1.37163e-19)
(0.210645 -0.0255236 6.79278e-20)
(0.217769 -0.0250313 6.77249e-20)
(0.224163 -0.0230826 0)
(-0.00641963 0.0313231 -1.08035e-19)
(-0.0165224 0.082673 -1.47369e-20)
(-0.02464 0.126085 1.20686e-19)
(-0.031124 0.161419 -1.23371e-19)
(-0.0361275 0.18919 0)
(-0.0397897 0.210147 0)
(-0.0421853 0.225102 -3.25826e-20)
(-0.0433532 0.23485 -2.13025e-23)
(-0.0433152 0.240126 3.3422e-20)
(-0.0420842 0.241577 0)
(-0.0396728 0.239765 0)
(-0.0360993 0.235165 -3.44474e-20)
(-0.0313916 0.228182 5.02272e-24)
(-0.0255903 0.219164 3.48682e-20)
(-0.0187461 0.208422 6.99305e-20)
(-0.0109215 0.196235 0)
(-0.00219128 0.182867 7.02608e-20)
(0.00736176 0.168568 -7.04822e-20)
(0.0176477 0.153584 -1.40973e-19)
(0.0285687 0.138151 1.41098e-19)
(0.0400204 0.122501 7.47689e-23)
(0.0518956 0.106852 -7.054e-20)
(0.0640852 0.0914161 7.06157e-20)
(0.0764801 0.0763888 -1.41143e-19)
(0.0889729 0.0619497 0)
(0.10146 0.0482583 7.04408e-20)
(0.113844 0.0354523 -1.40538e-19)
(0.126032 0.0236457 7.00716e-20)
(0.137943 0.0129276 -7.01717e-20)
(0.149501 0.00336243 -6.99197e-20)
(0.160644 -0.00501053 -6.98936e-20)
(0.171318 -0.0121749 2.77857e-19)
(0.181482 -0.0181355 -2.0776e-19)
(0.191104 -0.022915 -1.38163e-19)
(0.200165 -0.0265504 1.37371e-19)
(0.208652 -0.0290869 0)
(0.216555 -0.0305678 1.36501e-19)
(0.223881 -0.031015 -1.35646e-19)
(0.230682 -0.0303177 -6.77236e-20)
(0.236744 -0.0281565 0)
(-0.00691678 0.0309884 2.29279e-19)
(-0.0176203 0.0819591 1.02789e-19)
(-0.0259254 0.125229 -1.20685e-19)
(-0.0323271 0.160561 1.0796e-19)
(-0.0370174 0.188406 -1.57316e-20)
(-0.0401874 0.209458 3.19705e-20)
(-0.0419544 0.224491 0)
(-0.0423916 0.234272 -3.29558e-20)
(-0.0415491 0.23952 3.33397e-20)
(-0.0394629 0.24088 3.37023e-20)
(-0.0361637 0.238912 -3.39971e-20)
(-0.0316838 0.234099 -3.42578e-20)
(-0.0260629 0.226853 3.44728e-20)
(-0.0193513 0.217531 0)
(-0.0116083 0.206454 0)
(-0.00290387 0.19391 -6.98259e-20)
(0.00668034 0.18017 6.99904e-20)
(0.0170551 0.165495 -7.01379e-20)
(0.0281245 0.150137 7.01947e-20)
(0.0397844 0.13434 7.02893e-20)
(0.0519241 0.118339 -1.40572e-19)
(0.0644312 0.102363 1.40562e-19)
(0.0771919 0.0866263 9.53013e-23)
(0.0900931 0.071331 -7.01494e-20)
(0.103024 0.0566604 0)
(0.115878 0.0427772 7.01108e-20)
(0.128556 0.0298215 1.38973e-22)
(0.140966 0.0179088 -6.97401e-20)
(0.153025 0.0071287 0)
(0.164661 -0.00245561 1.39167e-19)
(0.175814 -0.0108062 -1.38503e-19)
(0.186432 -0.0179094 0)
(0.196481 -0.0237732 1.37972e-19)
(0.205932 -0.0284245 -1.37211e-19)
(0.214773 -0.0319052 0)
(0.222997 -0.0342663 0)
(0.230599 -0.0355577 0)
(0.237593 -0.0358087 -1.35223e-19)
(0.244039 -0.0349153 1.34356e-19)
(0.249744 -0.0325609 1.48865e-19)
(-0.00738649 0.0305591 -1.07748e-19)
(-0.0186648 0.0810133 -1.17487e-19)
(-0.0271515 0.12404 -1.50367e-20)
(-0.0334693 0.1593 4.61042e-20)
(-0.0378436 0.187175 -6.26945e-20)
(-0.0405134 0.2083 6.38164e-20)
(-0.0416365 0.223407 -6.48291e-20)
(-0.0413209 0.233232 -9.84596e-20)
(-0.0396455 0.238477 0)
(-0.0366698 0.239779 -3.36155e-20)
(-0.0324436 0.237696 3.39095e-20)
(-0.0270155 0.232715 0)
(-0.0204381 0.225255 6.87435e-20)
(-0.0127719 0.215681 -6.90993e-20)
(-0.00408611 0.204322 -2.079e-19)
(0.00554053 0.191476 3.81502e-24)
(0.0160188 0.177421 1.39508e-19)
(0.0272529 0.162426 -6.98636e-20)
(0.0391398 0.14675 0)
(0.0515683 0.130645 0)
(0.0644216 0.114351 1.39709e-19)
(0.0775814 0.0981022 7.00204e-20)
(0.0909293 0.0821198 -6.99049e-20)
(0.104348 0.0666096 -6.99435e-20)
(0.117722 0.0517585 1.39635e-19)
(0.130944 0.0377324 -6.96614e-20)
(0.143911 0.0246734 1.39362e-19)
(0.156533 0.0126979 -2.77942e-19)
(0.168727 0.00189514 2.77362e-19)
(0.180423 -0.00767263 -2.76712e-19)
(0.191563 -0.0159695 2.7599e-19)
(0.202102 -0.0229844 -2.75197e-19)
(0.212008 -0.028729 1.37019e-19)
(0.221261 -0.0332343 1.36836e-19)
(0.229852 -0.0365472 2.71417e-22)
(0.237782 -0.0387244 2.57602e-22)
(0.245054 -0.0398228 -1.34946e-19)
(0.251686 -0.0398794 4.32834e-22)
(0.25775 -0.0387986 -1.33708e-19)
(0.263074 -0.0362706 0)
(-0.00782549 0.0300418 1.34149e-20)
(-0.0196492 0.0798471 -1.46369e-20)
(-0.028312 0.12253 4.49888e-20)
(-0.0345464 0.157643 -6.13168e-20)
(-0.0386053 0.185497 3.12591e-20)
(-0.0407715 0.206669 0)
(-0.0412414 0.22184 0)
(-0.0401569 0.231717 1.31315e-19)
(-0.0376259 0.236979 1.65778e-19)
(-0.0337324 0.238253 -3.35263e-20)
(-0.0285469 0.236094 1.6895e-19)
(-0.0221348 0.230989 -3.40743e-20)
(-0.0145628 0.223363 0)
(-0.00590355 0.213589 0)
(0.00376327 0.202003 1.38528e-19)
(0.0143493 0.18891 0)
(0.0257573 0.174598 6.92887e-20)
(0.0378835 0.159342 -6.93765e-20)
(0.0506174 0.143408 0)
(0.0638403 0.127052 -1.39162e-19)
(0.077429 0.110524 -6.99646e-20)
(0.0912591 0.0940621 -2.08768e-19)
(0.105207 0.0778914 -6.96917e-20)
(0.11915 0.0622221 6.95416e-20)
(0.132971 0.0472447 1.38711e-19)
(0.146558 0.0331276 0)
(0.159809 0.0200142 1.3828e-19)
(0.172632 0.00802124 2.76486e-19)
(0.184945 -0.00276248 2.88153e-22)
(0.196681 -0.0122762 -1.37562e-19)
(0.207787 -0.0204862 -1.37495e-19)
(0.218221 -0.0273846 1.36802e-19)
(0.227958 -0.0329867 1.3666e-19)
(0.236984 -0.0373278 -2.72091e-19)
(0.245298 -0.0404598 2.7108e-19)
(0.252907 -0.0424449 -1.35312e-19)
(0.259821 -0.0433469 1.34302e-19)
(0.266065 -0.043211 2.67632e-19)
(0.271721 -0.0419518 1.32857e-19)
(0.276646 -0.039269 1.46403e-19)
(-0.0082313 0.0294439 -1.06909e-19)
(-0.0205681 0.0784746 1.02e-19)
(-0.0294012 0.120713 -8.96172e-20)
(-0.0355543 0.155601 9.16015e-20)
(-0.0393015 0.18338 1.55846e-19)
(-0.0409651 0.204562 -1.26898e-19)
(-0.0407775 0.219783 1.61187e-19)
(-0.0389138 0.229713 9.8001e-20)
(-0.0355108 0.235009 -2.31753e-19)
(-0.0306776 0.236281 6.67421e-20)
(-0.0245064 0.234081 3.34065e-20)
(-0.0170807 0.228895 6.79546e-20)
(-0.00848253 0.221151 6.81771e-20)
(0.00120261 0.211229 -1.372e-19)
(0.0118832 0.19947 1.37703e-19)
(0.0234606 0.186188 2.07215e-19)
(0.0358286 0.171677 -2.08095e-19)
(0.048875 0.15622 2.77517e-19)
(0.0624809 0.140088 1.38618e-19)
(0.07652 0.123545 2.08622e-19)
(0.0908619 0.106844 6.91953e-20)
(0.105376 0.090229 1.391e-19)
(0.119933 0.0739299 -1.38442e-19)
(0.134406 0.0581602 0)
(0.148674 0.0431132 -4.15343e-19)
(0.162622 0.0289591 2.76419e-19)
(0.176147 0.0158424 -1.38024e-19)
(0.189157 0.00387974 -1.37744e-19)
(0.201572 -0.00684133 -1.65876e-22)
(0.213329 -0.0162618 0)
(0.224377 -0.0243508 0)
(0.234682 -0.0311035 1.36004e-19)
(0.244224 -0.0365391 -1.3602e-19)
(0.252997 -0.0406976 1.3527e-19)
(0.261006 -0.0436356 -1.35034e-19)
(0.268267 -0.0454207 -1.34499e-19)
(0.274798 -0.0461233 0)
(0.280631 -0.0457972 -1.33072e-19)
(0.285859 -0.0443682 -1.32653e-19)
(0.290367 -0.0415491 -4.3757e-19)
(-0.00860204 0.0287737 1.0689e-19)
(-0.0214172 0.0769113 -1.02068e-19)
(-0.0304144 0.118605 1.19519e-19)
(-0.0364892 0.153187 -2.1359e-19)
(-0.0399309 0.180831 -1.55773e-19)
(-0.0410966 0.201985 1.26897e-19)
(-0.0402519 0.217235 -2.57532e-19)
(-0.0376039 0.227214 -1.30703e-19)
(-0.0333183 0.232552 1.65307e-19)
(-0.0275298 0.233846 -3.00321e-19)
(-0.0203529 0.231637 -2.02092e-19)
(-0.0118903 0.22641 -6.76166e-20)
(-0.00224029 0.218594 -2.04725e-19)
(0.0084975 0.208574 2.05719e-19)
(0.0202189 0.196697 -1.377e-19)
(0.0328143 0.183283 -1.38078e-19)
(0.0461676 0.168633 0)
(0.0601575 0.153035 -1.3852e-19)
(0.074656 0.136768 -2.07802e-19)
(0.0895287 0.1201 6.91956e-20)
(0.104638 0.10329 -1.38619e-19)
(0.119846 0.0865845 0)
(0.135019 0.070219 1.38439e-19)
(0.150023 0.0544096 1.38098e-19)
(0.164734 0.0393518 -1.37166e-19)
(0.179036 0.0252171 0)
(0.192823 0.0121503 0)
(0.206005 0.000267209 0)
(0.218503 -0.0103461 -5.99806e-22)
(0.230258 -0.0196329 0)
(0.241225 -0.0275653 -2.72027e-19)
(0.251376 -0.0341424 -4.52336e-22)
(0.260697 -0.0393874 -2.70345e-19)
(0.26919 -0.0433448 2.69564e-19)
(0.276868 -0.046076 -1.34145e-19)
(0.283757 -0.0476535 1.34049e-19)
(0.289884 -0.0481541 0)
(0.295285 -0.0476405 2.65511e-19)
(0.300066 -0.0460506 -1.31801e-19)
(0.304146 -0.0431126 0)
(-0.00893656 0.0280399 1.33112e-20)
(-0.0221932 0.0751744 0)
(-0.0313475 0.116226 -1.48745e-19)
(-0.0373475 0.150421 1.82805e-19)
(-0.0404916 0.177864 9.3051e-20)
(-0.0411669 0.198943 -1.26326e-19)
(-0.0396695 0.214195 1.2862e-19)
(-0.0362372 0.224213 -1.30116e-19)
(-0.0310639 0.229599 0)
(-0.0243102 0.230932 1.33319e-19)
(-0.0161136 0.228743 -1.3415e-19)
(-0.00659679 0.223511 3.2685e-22)
(0.00412461 0.215668 0)
(0.015936 0.205599 1.36465e-19)
(0.02872 0.193657 -6.83959e-20)
(0.0423547 0.180167 1.37224e-19)
(0.0567137 0.165437 6.86248e-20)
(0.0716656 0.149761 -1.37629e-19)
(0.0870727 0.133422 0)
(0.102792 0.116693 2.06632e-19)
(0.118679 0.0998369 6.86909e-20)
(0.134588 0.0831062 0)
(0.150378 0.066738 0)
(0.165911 0.0509514 0)
(0.18106 0.0359434 1.37542e-19)
(0.195704 0.0218861 0)
(0.209739 0.00892385 -1.36909e-19)
(0.223074 -0.0028288 2.73023e-19)
(0.235635 -0.0132878 -2.72564e-19)
(0.247365 -0.0223994 0)
(0.258226 -0.0301393 1.35789e-19)
(0.268196 -0.0365106 -1.34791e-19)
(0.27727 -0.0415408 1.34949e-19)
(0.285458 -0.0452789 0)
(0.292782 -0.0477908 0)
(0.299276 -0.0491537 1.33236e-19)
(0.304977 -0.0494503 -1.32424e-19)
(0.309929 -0.0487521 2.64054e-19)
(0.314248 -0.04701 -2.62362e-19)
(0.317892 -0.0439696 0)
(-0.00923438 0.0272518 9.27912e-20)
(-0.022894 0.0732826 2.8954e-20)
(-0.0321971 0.113597 1.18955e-19)
(-0.0381255 0.14732 1.2136e-19)
(-0.0409808 0.174495 -1.24093e-19)
(-0.0411754 0.195449 1.26325e-19)
(-0.039033 0.210669 1.28052e-19)
(-0.0348203 0.220709 1.30115e-19)
(-0.028759 0.226143 0)
(-0.0210356 0.227528 1.32718e-19)
(-0.011811 0.225382 1.34148e-19)
(-0.00122843 0.220179 1.3509e-19)
(0.0105784 0.212348 0)
(0.023479 0.202278 -3.45065e-22)
(0.0373418 0.190323 1.36928e-19)
(0.0520323 0.176814 -6.87559e-20)
(0.0674126 0.162063 -6.90698e-20)
(0.0833404 0.14637 2.06317e-19)
(0.0996682 0.130022 -2.52621e-23)
(0.116244 0.113296 -6.91825e-20)
(0.132914 0.0964599 -1.3761e-19)
(0.149525 0.0797689 0)
(0.165931 0.063463 0)
(0.181988 0.047763 0)
(0.197563 0.0328668 0)
(0.212536 0.0189462 0)
(0.226801 0.00614453 0)
(0.240268 -0.00542573 1.36065e-19)
(0.252868 -0.0156832 -1.35498e-19)
(0.264547 -0.0245776 0)
(0.275275 -0.0320887 0)
(0.285038 -0.0382241 1.34788e-19)
(0.293838 -0.0430157 0)
(0.301696 -0.0465168 1.33701e-19)
(0.308643 -0.0487975 -1.32936e-19)
(0.314723 -0.0499396 0)
(0.319981 -0.0500311 2.64073e-19)
(0.324469 -0.0491519 -2.6242e-19)
(0.328315 -0.0472659 0)
(0.331518 -0.0441387 0)
(-0.00949571 0.0264187 -1.06091e-19)
(-0.0235185 0.0712551 -2.89256e-20)
(-0.0329605 0.110741 2.96185e-20)
(-0.0388195 0.143909 -1.2136e-19)
(-0.0413948 0.170745 0)
(-0.0411195 0.191518 0)
(-0.038342 0.206667 -9.60638e-20)
(-0.0333561 0.216707 -3.24124e-20)
(-0.0264107 0.222182 -6.56201e-20)
(-0.0177176 0.223625 -6.64315e-20)
(-0.00746143 0.221541 -6.68282e-20)
(0.00419335 0.216397 6.73262e-20)
(0.0170945 0.208616 6.75536e-20)
(0.031095 0.198589 -6.81133e-20)
(0.0460482 0.186671 0)
(0.0618064 0.173197 0)
(0.078219 0.158484 -1.37092e-19)
(0.0951325 0.142834 0)
(0.112389 0.12654 0)
(0.129825 0.109882 1.36549e-19)
(0.14728 0.0931315 2.29596e-24)
(0.164593 0.0765464 -2.18247e-22)
(0.181608 0.0603687 -1.36661e-19)
(0.198178 0.0448202 1.36367e-19)
(0.214166 0.0300986 1.3595e-19)
(0.229449 0.0163749 -1.35701e-19)
(0.243921 0.00379041 0)
(0.257496 -0.00754496 1.35511e-19)
(0.270107 -0.0175532 2.47562e-22)
(0.281708 -0.0261884 -1.3459e-19)
(0.292275 -0.0334349 0)
(0.301802 -0.0393048 0)
(0.310303 -0.0438345 1.33601e-19)
(0.317807 -0.0470818 -1.32864e-19)
(0.324355 -0.0491207 -1.32592e-19)
(0.330001 -0.0500369 1.31808e-19)
(0.334801 -0.0499232 0)
(0.338815 -0.0488671 0)
(0.342181 -0.0468461 0)
(0.344941 -0.0436469 -1.41618e-19)
(-0.00972137 0.0255501 1.32024e-19)
(-0.0240664 0.0691119 -5.76728e-20)
(-0.0336357 0.107682 2.95496e-20)
(-0.0394254 0.140213 0)
(-0.0417285 0.166636 1.54137e-19)
(-0.0409941 0.187168 3.01306e-23)
(-0.0375926 0.202202 1.27526e-19)
(-0.0318431 0.212216 -9.70589e-20)
(-0.0240203 0.217718 1.30948e-19)
(-0.0143613 0.219222 -6.61425e-20)
(-0.00307417 0.217214 0)
(0.00965519 0.212153 6.71307e-20)
(0.0236554 0.204457 -2.02755e-19)
(0.038762 0.194513 0)
(0.054813 0.182679 2.03863e-19)
(0.0716465 0.169293 -1.36235e-19)
(0.0890987 0.154674 -1.36524e-19)
(0.107004 0.139127 6.83352e-20)
(0.125192 0.122949 0)
(0.14349 0.106424 -1.36777e-19)
(0.161728 0.0898255 -1.36462e-19)
(0.179735 0.0734129 -2.31868e-22)
(0.197349 0.0574298 1.35908e-19)
(0.214417 0.0420979 1.35992e-19)
(0.230798 0.0276144 -2.71582e-19)
(0.246368 0.014148 1.35698e-19)
(0.261021 0.00183758 0)
(0.274674 -0.00921037 -1.34609e-19)
(0.287266 -0.0189222 1.34274e-19)
(0.298758 -0.0272568 1.33911e-19)
(0.309133 -0.0342036 -1.33519e-19)
(0.318396 -0.0397794 1.33095e-19)
(0.32657 -0.0440254 0)
(0.333696 -0.0470032 1.32542e-19)
(0.339825 -0.048791 2.63868e-19)
(0.345021 -0.0494776 -2.62466e-19)
(0.349351 -0.0491599 2.61693e-19)
(0.352882 -0.0479323 3.68357e-22)
(0.355764 -0.0457857 -1.2958e-19)
(0.358085 -0.0425288 2.82107e-19)
(-0.00991275 0.0246551 -7.91871e-20)
(-0.0245385 0.0668729 -1.72501e-19)
(-0.0342209 0.104447 1.17826e-19)
(-0.039939 0.136259 -9.03956e-20)
(-0.0419755 0.162194 -3.10689e-20)
(-0.0407918 0.182423 3.1324e-20)
(-0.0367773 0.197295 -6.37986e-20)
(-0.0302746 0.207247 -6.45492e-20)
(-0.0215831 0.21276 6.53416e-20)
(-0.0109644 0.21432 -1.31995e-19)
(0.00135011 0.212399 3.19742e-23)
(0.0151531 0.20744 6.70318e-20)
(0.0302535 0.199858 0)
(0.0464691 0.190036 -6.76131e-20)
(0.0636217 0.178332 -6.79819e-20)
(0.0815346 0.165084 1.36163e-19)
(0.10003 0.150613 0)
(0.118928 0.135228 0)
(0.138048 0.119228 1.36181e-19)
(0.157205 0.1029 -1.36197e-19)
(0.176218 0.0865185 0)
(0.194907 0.0703447 1.35887e-19)
(0.213105 0.0546224 -1.35853e-19)
(0.23065 0.0395725 -2.7094e-19)
(0.247399 0.0253901 -1.30908e-22)
(0.263226 0.0122414 1.35203e-19)
(0.278028 0.000261644 -2.69004e-19)
(0.291727 -0.0104471 1.34606e-19)
(0.304265 -0.0198162 -1.34272e-19)
(0.315613 -0.0278102 -1.40801e-22)
(0.325763 -0.0344236 3.85916e-22)
(0.334731 -0.0396785 -1.33093e-19)
(0.342552 -0.0436204 -1.321e-19)
(0.349276 -0.0463153 -1.31603e-19)
(0.354966 -0.0478443 -5.50552e-22)
(0.359699 -0.0482994 0)
(0.363549 -0.0477804 -1.299e-19)
(0.366594 -0.046388 2.59256e-19)
(0.368991 -0.0441258 -3.86768e-19)
(0.370878 -0.0408254 4.01259e-23)
(-0.0100717 0.023743 -2.6299e-20)
(-0.0249363 0.0645583 2.2966e-19)
(-0.0347147 0.10106 -1.17863e-19)
(-0.0403554 0.132076 9.04247e-20)
(-0.0421279 0.157449 -2.45773e-19)
(-0.0405021 0.17731 3.12566e-20)
(-0.0358844 0.191967 -1.26967e-19)
(-0.0286385 0.201822 0)
(-0.0190875 0.207322 0)
(-0.00751662 0.208931 -1.31599e-19)
(0.00581998 0.207099 6.6396e-20)
(0.0206934 0.202259 -1.30607e-22)
(0.0368929 0.194817 6.7256e-20)
(0.0542177 0.185151 0)
(0.072473 0.173618 -2.02892e-19)
(0.0914663 0.160555 6.78714e-20)
(0.111005 0.146285 -1.35643e-19)
(0.130895 0.13112 0)
(0.150941 0.115359 0)
(0.170949 0.0992903 1.5566e-22)
(0.190723 0.0831908 -1.35656e-19)
(0.210079 0.0673218 1.35246e-19)
(0.228836 0.0519261 -1.35272e-19)
(0.246831 0.0372229 1.34981e-19)
(0.263916 0.0234042 2.88055e-22)
(0.279966 0.0106327 3.02523e-22)
(0.29488 -0.000961073 1.34424e-19)
(0.308584 -0.0112802 -1.33628e-19)
(0.32103 -0.0202622 0)
(0.332196 -0.0278775 -1.33255e-19)
(0.342086 -0.0341262 1.3262e-19)
(0.350728 -0.0390355 0)
(0.358167 -0.0426555 1.32098e-19)
(0.364467 -0.045056 -1.31281e-19)
(0.369702 -0.0463209 1.30309e-19)
(0.373958 -0.0465445 0)
(0.377321 -0.0458289 3.89304e-19)
(0.379878 -0.0442798 -2.57783e-19)
(0.381795 -0.0419132 0)
(0.383256 -0.0385832 1.3966e-19)
(-0.0102006 0.0228224 2.09651e-19)
(-0.0252617 0.0621875 -1.14697e-19)
(-0.0351157 0.0975497 -2.93859e-20)
(-0.0406689 0.127692 3.00155e-20)
(-0.0421759 0.152431 1.22735e-19)
(-0.0401118 0.171858 0)
(-0.0348978 0.186246 1.26967e-19)
(-0.0269171 0.195963 1.92636e-19)
(-0.0165148 0.201424 6.50626e-20)
(-0.00399899 0.203068 6.58781e-20)
(0.0103539 0.201326 6.6294e-20)
(0.0262937 0.196617 -2.00293e-19)
(0.0435896 0.189336 6.71142e-20)
(0.0620223 0.179857 2.69108e-19)
(0.081379 0.168533 6.77403e-20)
(0.101451 0.1557 6.77132e-20)
(0.12203 0.141683 1.35641e-19)
(0.142906 0.126792 0)
(0.16387 0.111329 0)
(0.184714 0.095582 2.70909e-19)
(0.205232 0.0798286 -5.40564e-19)
(0.225228 0.0643293 -1.82553e-22)
(0.244516 0.0493252 0)
(0.262926 0.0350322 0)
(0.280308 0.0216385 1.34536e-19)
(0.296538 0.00930198 0)
(0.31152 -0.00185236 0)
(0.325185 -0.011734 -1.32702e-19)
(0.337495 -0.0202871 -2.65605e-19)
(0.348438 -0.0274883 0)
(0.358031 -0.0333439 -2.63992e-19)
(0.366313 -0.037886 -5.26902e-19)
(0.373343 -0.0411692 2.62413e-19)
(0.379196 -0.0432665 -2.61108e-19)
(0.38396 -0.0442645 2.60721e-19)
(0.38773 -0.0442589 -2.5918e-19)
(0.390603 -0.0433533 -2.57606e-19)