/*--------------------------------*- C++ -*----------------------------------*\
  =========                 |
  \\      /  F ield         | OpenFOAM: The Open Source CFD Toolbox
   \\    /   O peration     | Website:  https://openfoam.org
    \\  /    A nd           | Version:  7
     \\/     M anipulation  |
\*---------------------------------------------------------------------------*/
FoamFile
{
    version     2.0;
    format      ascii;
    class       volVectorField;
    location    "1";
    object      U;
}
// * * * * * * * * * * * * * * * * * * * * * * * * * * * * * * * * * * * * * //

dimensions      [0 1 -1 0 0 0 0];

internalField   nonuniform List<vector> 
2000
(
(0.000960139 0.0252663 -5.11223e-21)
(0.0116356 0.0535754 0)
(0.0319631 0.0717013 0)
(0.0544606 0.0838548 -3.46887e-20)
(0.0768192 0.0925825 1.16454e-20)
(0.0973847 0.099452 1.79698e-22)
(0.115298 0.105464 -2.17966e-20)
(0.130291 0.111262 0)
(0.142438 0.117257 0)
(0.151879 0.12372 0)
(-0.00039884 0.0218377 0)
(0.00976465 0.044177 -2.27361e-20)
(0.0308906 0.0582349 2.28963e-20)
(0.0546686 0.0679506 4.63582e-20)
(0.078477 0.075732 0)
(0.100469 0.0828422 4.49544e-20)
(0.119685 0.089934 -4.34192e-20)
(0.135814 0.0973454 0)
(0.148928 0.105278 8.1668e-20)
(0.159148 0.113889 -1.67651e-19)
(-0.00110223 0.0180878 0)
(0.00976054 0.0341163 1.78977e-19)
(0.0326341 0.04398 0)
(0.0583019 0.0512173 1.8374e-19)
(0.0838448 0.0580592 0)
(0.107284 0.0654387 -1.77994e-19)
(0.127639 0.0736412 0)
(0.144642 0.0826872 1.68371e-19)
(0.15843 0.0925662 -1.61831e-19)
(0.169135 0.103337 -1.66108e-19)
(-0.00106046 0.014045 -4.04975e-20)
(0.0118136 0.0235749 -9.00087e-20)
(0.0374249 0.0292816 -4.52691e-20)
(0.0656025 0.034136 -9.1584e-20)
(0.0931592 0.0401407 -9.01285e-20)
(0.118053 0.047867 8.89059e-20)
(0.139367 0.0572143 8.6037e-20)
(0.156962 0.0678737 -8.06006e-22)
(0.171121 0.0796266 1.60981e-19)
(0.18201 0.0924574 1.65955e-19)
(-0.000181235 0.00976253 -3.96197e-20)
(0.0160928 0.0127786 -8.92987e-20)
(0.0454431 0.014536 -1.82201e-19)
(0.0767348 0.0172394 9.04076e-20)
(0.10656 0.0226005 0)
(0.132894 0.0307993 0)
(0.154977 0.0413341 -1.72172e-19)
(0.172884 0.0535566 -1.66603e-19)
(0.187126 0.0670438 1.59882e-19)
(0.19793 0.0817256 4.92345e-19)
(0.00163379 0.00530531 3.98115e-20)
(0.0227457 0.00198089 4.53711e-20)
(0.0568062 0.00016934 -2.67348e-19)
(0.0917623 0.00108316 4.51712e-19)
(0.124059 0.00607687 -8.90421e-20)
(0.151789 0.0149152 0)
(0.174445 0.0266902 0)
(0.192405 0.0404104 8.26016e-19)
(0.206487 0.0554517 -7.97084e-19)
(0.217006 0.0716995 1.63177e-19)
(0.0044817 0.000757122 3.08718e-19)
(0.0318783 -0.00853001 0)
(0.071542 -0.0133663 3.58856e-19)
(0.110618 -0.0137705 -3.60674e-19)
(0.14551 -0.00881069 0)
(0.174545 0.000851597 1.74959e-19)
(0.197572 0.0139155 -5.069e-19)
(0.215352 0.0290542 -6.58094e-19)
(0.229093 0.0454494 3.16023e-19)
(0.239227 0.0629419 3.24993e-19)
(0.00845129 -0.00377474 -6.13947e-19)
(0.04354 -0.0184346 -8.71661e-20)
(0.0895682 -0.0256078 -1.75837e-19)
(0.133078 -0.0267806 -4.43464e-19)
(0.170575 -0.0215013 -1.77458e-19)
(0.200755 -0.0108488 -1.72539e-19)
(0.223925 0.00352192 2.57924e-21)
(0.241297 0.019979 0)
(0.254538 0.0375243 0)
(0.264277 0.0559325 -3.96618e-22)
(0.0136136 -0.00815655 3.05234e-19)
(0.0577037 -0.0273866 -3.40651e-19)
(0.110671 -0.0360978 2.6439e-19)
(0.158746 -0.037455 6.20657e-19)
(0.198716 -0.0315297 -1.74029e-19)
(0.229793 -0.0197837 1.75174e-19)
(0.252836 -0.00414879 1.68939e-19)
(0.269527 0.0135218 0)
(0.281996 0.0321093 0)
(0.291218 0.0512005 -2.1633e-21)
(0.0200126 -0.0122299 -3.75075e-20)
(0.07425 -0.0350237 4.26339e-19)
(0.134492 -0.044405 -8.62024e-20)
(0.187046 -0.0453783 0)
(0.229195 -0.0385605 0)
(0.260843 -0.0257383 3.41937e-19)
(0.283506 -0.00900155 0)
(0.299363 0.00974936 -3.2098e-19)
(0.310848 0.0294064 -1.14962e-21)
(0.319125 0.0491285 3.16545e-19)
(0.16654 0.139601 7.3872e-21)
(0.168119 0.16102 -7.51761e-21)
(0.164566 0.181987 -7.67123e-21)
(0.152569 0.201278 -7.80893e-21)
(0.13174 0.218325 -7.98671e-21)
(0.122289 0.233546 -5.07717e-23)
(0.0753827 0.244264 3.95765e-21)
(0.0928367 0.257631 1.2406e-20)
(0.00600121 0.263712 0)
(0.0486014 0.289125 -8.40517e-21)
(0.174865 0.134905 2.90086e-20)
(0.175405 0.160192 -3.0349e-20)
(0.171414 0.184341 5.34196e-20)
(0.158835 0.205652 7.81236e-21)
(0.137257 0.223963 1.56985e-20)
(0.126864 0.240414 2.41226e-20)
(0.0792706 0.251468 -8.0357e-21)
(0.0954838 0.26574 -8.28797e-21)
(0.00745572 0.272646 1.63196e-20)
(0.0491139 0.296686 8.38523e-21)
(0.185147 0.129632 0)
(0.183874 0.15894 -3.00005e-20)
(0.179136 0.186373 -1.5294e-20)
(0.165801 0.209837 0)
(0.143337 0.22952 -4.72838e-20)
(0.131939 0.247316 1.56548e-20)
(0.0834973 0.258774 1.5613e-20)
(0.0986226 0.274076 4.89197e-20)
(0.009013 0.281811 -1.62558e-20)
(0.0502322 0.304513 3.30855e-20)
(0.197478 0.12388 0)
(0.193592 0.157245 3.0133e-20)
(0.187744 0.188017 0)
(0.173477 0.213779 6.18865e-20)
(0.149994 0.234937 -6.19795e-20)
(0.137521 0.254231 -3.16192e-20)
(0.0880784 0.26611 3.16476e-23)
(0.102263 0.282637 -4.88661e-20)
(0.0106772 0.291141 -8.08357e-21)
(0.0519588 0.312703 -4.09925e-20)
(0.211984 0.117776 1.27788e-21)
(0.204651 0.155108 -8.82556e-20)
(0.197235 0.189216 7.30013e-22)
(0.181839 0.217419 -6.09172e-20)
(0.157214 0.240149 0)
(0.143581 0.261128 -3.13568e-20)
(0.0930029 0.273399 -3.36237e-22)
(0.10638 0.291416 6.39154e-20)
(0.0124297 0.300566 7.98234e-21)
(0.0542921 0.321345 -8.02437e-21)
(0.228826 0.11153 -2.33252e-19)
(0.217178 0.152641 1.48612e-19)
(0.207593 0.190001 6.07911e-20)
(0.190827 0.220751 -6.05773e-20)
(0.164941 0.245128 -3.05404e-20)
(0.150041 0.268005 0)
(0.0982231 0.28058 -6.21567e-20)
(0.1109 0.300427 3.14143e-20)
(0.014213 0.310009 3.14639e-20)
(0.0572194 0.330519 3.17393e-20)
(0.248113 0.105429 -2.88527e-20)
(0.23132 0.150054 0)
(0.218788 0.190466 0)
(0.200329 0.223806 0)
(0.173071 0.249861 -3.09017e-20)
(0.156763 0.274874 6.10608e-20)
(0.103649 0.2876 6.15705e-20)
(0.11569 0.309696 -9.33508e-20)
(0.0159245 0.319385 1.54871e-20)
(0.0607029 0.340293 -4.68348e-20)
(0.26964 0.0995152 1.75552e-19)
(0.247115 0.147179 1.20778e-19)
(0.230764 0.190319 -1.19398e-19)
(0.210204 0.226302 1.21194e-19)
(0.181472 0.25409 -1.49995e-19)
(0.163553 0.281596 0)
(0.109166 0.294254 -3.00119e-20)
(0.12057 0.319193 1.90808e-22)
(0.0174269 0.328541 -3.01322e-20)
(0.0646665 0.350678 -3.05449e-20)
(0.292348 0.0931978 -1.4784e-19)
(0.264248 0.143058 0)
(0.243439 0.188666 -1.35637e-19)
(0.220341 0.227473 2.39336e-19)
(0.190057 0.257161 -8.87895e-20)
(0.1702 0.287746 -1.49816e-20)
(0.114695 0.300111 2.97526e-20)
(0.125365 0.328717 2.59344e-22)
(0.0185966 0.337265 4.45803e-20)
(0.0689915 0.36156 4.4919e-20)
(0.313899 0.0879398 -1.29736e-19)
(0.281931 0.139935 1.28715e-19)
(0.256712 0.18789 1.617e-20)
(0.230701 0.22915 0)
(0.198842 0.260604 0)
(0.17648 0.294049 1.59272e-20)
(0.120232 0.306127 6.33052e-20)
(0.129944 0.33841 -6.22271e-20)
(0.0193929 0.345871 -1.55287e-20)
(0.073514 0.373008 1.53631e-20)
(0.35105 0.0973176 0)
(0.317938 0.157007 0)
(0.285602 0.209144 0)
(0.253259 0.252142 0)
(0.218508 0.285232 0)
(0.188788 0.31918 0)
(0.132756 0.331311 0)
(0.139156 0.366638 0)
(0.0201602 0.369784 0)
(0.0841139 0.403917 0)
(0.389466 0.139065 0)
(0.358355 0.187543 0)
(0.32871 0.235331 0)
(0.295686 0.27933 0)
(0.258314 0.317752 0)
(0.220465 0.35302 0)
(0.162357 0.37548 0)
(0.160238 0.407157 0)
(0.0297867 0.415194 0)
(0.0926673 0.455078 0)
(0.433593 0.173077 0)
(0.403279 0.221467 0)
(0.373483 0.270273 0)
(0.338348 0.315979 0)
(0.297797 0.357264 0)
(0.254348 0.394415 0)
(0.193012 0.423363 0)
(0.182316 0.454353 0)
(0.041681 0.467768 0)
(0.0988351 0.51279 0)
(0.483476 0.204682 0)
(0.453213 0.255937 0)
(0.421982 0.308169 0)
(0.383776 0.35801 0)
(0.339275 0.403933 0)
(0.290547 0.445341 0)
(0.224729 0.480005 0)
(0.204766 0.513233 0)
(0.0546726 0.53132 0)
(0.104881 0.582926 0)
(0.537916 0.23424 0)
(0.507259 0.289281 0)
(0.474908 0.345888 0)
(0.43428 0.401257 0)
(0.386022 0.453583 0)
(0.332149 0.501527 0)
(0.260767 0.543205 0)
(0.230863 0.580989 0)
(0.0716593 0.602932 0)
(0.112686 0.657179 0)
(0.596412 0.262058 0)
(0.565948 0.322488 0)
(0.533223 0.384765 0)
(0.491147 0.446862 0)
(0.439792 0.506966 0)
(0.381164 0.563329 0)
(0.303183 0.613978 0)
(0.261597 0.660031 0)
(0.089561 0.691801 0)
(0.119232 0.768341 0)
(0.662081 0.292407 0)
(0.631439 0.356781 0)
(0.598656 0.424955 0)
(0.556071 0.494766 0)
(0.502527 0.56426 0)
(0.439785 0.6312 0)
(0.354963 0.693273 0)
(0.30183 0.747323 0)
(0.120949 0.777528 0)
(0.13247 0.821491 0)
(0.724582 0.309516 0)
(0.699597 0.384447 0)
(0.67044 0.461976 0)
(0.630192 0.542053 0)
(0.577098 0.62353 0)
(0.51369 0.704542 0)
(0.424234 0.78242 0)
(0.363573 0.858807 0)
(0.169053 0.926295 0)
(0.156296 1.07826 0)
(0.812323 0.354055 0)
(0.786039 0.422067 0)
(0.755552 0.502329 0)
(0.714883 0.590324 0)
(0.658904 0.683645 0)
(0.587558 0.778446 0)
(0.480209 0.873156 0)
(0.386657 0.949771 0)
(0.152385 0.993902 0)
(0.130682 1.02182 0)
(0.826044 0.304943 0)
(0.850127 0.41644 0)
(0.850958 0.525278 0)
(0.833932 0.636489 0)
(0.799605 0.754054 0)
(0.754009 0.882462 0)
(0.668318 1.01798 0)
(0.59537 1.17429 0)
(0.367809 1.30443 0)
(0.230712 1.48774 0)
(0.384773 0.0731698 1.17758e-19)
(0.423434 0.112463 -1.17145e-19)
(0.466474 0.14496 1.30341e-20)
(0.515288 0.174041 0)
(0.568497 0.200966 0)
(0.625412 0.22512 8.60804e-21)
(0.688539 0.254789 -2.38543e-20)
(0.747434 0.263603 2.34063e-20)
(0.822666 0.321352 1.64832e-21)
(0.792356 0.23204 -1.63501e-21)
(0.401925 0.0666017 -1.41767e-19)
(0.438377 0.105016 0)
(0.479929 0.135902 8.21276e-20)
(0.527793 0.163386 -1.77415e-19)
(0.579987 0.188834 1.02549e-19)
(0.636227 0.211451 -8.38364e-21)
(0.697662 0.240097 1.31485e-20)
(0.756571 0.246462 1.65873e-20)
(0.822767 0.307979 -1.52722e-22)
(0.773111 0.20047 -1.98125e-21)
(0.416911 0.0630931 1.65186e-19)
(0.452455 0.0995155 -1.00859e-19)
(0.49274 0.128081 9.96744e-20)
(0.539799 0.153462 -8.25231e-20)
(0.591115 0.177073 6.22403e-20)
(0.64676 0.198024 0)
(0.706667 0.225251 -1.32623e-20)
(0.765583 0.229733 -4.11308e-22)
(0.821729 0.294011 -6.0534e-21)
(0.750149 0.168549 5.3513e-22)
(0.430753 0.0607565 -2.67512e-20)
(0.465864 0.0940651 0)
(0.50488 0.120005 0)
(0.551165 0.143055 0)
(0.601687 0.164752 5.36566e-20)
(0.656745 0.184105 -3.47207e-20)
(0.715332 0.20979 1.93463e-21)
(0.77414 0.213014 -6.42813e-21)
(0.819162 0.278845 -1.08744e-21)
(0.722749 0.136573 2.80215e-21)
(0.44334 0.0587601 -4.11061e-21)
(0.478034 0.0880386 -7.76104e-20)
(0.515834 0.111229 -4.42999e-20)
(0.561431 0.131846 4.41376e-20)
(0.611313 0.151664 -1.87475e-20)
(0.665878 0.16954 0)
(0.723432 0.19361 -1.26893e-20)
(0.782053 0.196151 1.52771e-20)
(0.81499 0.261922 -6.85904e-21)
(0.691055 0.104948 -1.73636e-21)
(0.454404 0.0566663 -2.02984e-19)
(0.488641 0.0812387 2.87545e-20)
(0.525444 0.101646 3.71468e-21)
(0.570475 0.119786 4.3527e-20)
(0.619906 0.137796 0)
(0.674098 0.1543 0)
(0.730917 0.176671 0)
(0.789152 0.178976 7.77931e-21)
(0.809526 0.242634 0)
(0.65646 0.074364 0)
(0.463696 0.0541964 0)
(0.497446 0.0736192 7.07355e-20)
(0.533617 0.0912521 -4.67043e-20)
(0.578221 0.106908 -3.85065e-20)
(0.627404 0.12318 3.85613e-20)
(0.681346 0.138382 1.35687e-20)
(0.737683 0.158961 -1.56277e-20)
(0.79513 0.16126 -2.83595e-20)
(0.803308 0.22014 3.02248e-21)
(0.621265 0.0460843 4.55192e-21)
(0.470994 0.051166 0)
(0.504253 0.0651959 -2.39776e-20)
(0.540269 0.080065 -1.11281e-20)
(0.584596 0.0932704 0)
(0.633737 0.107859 7.49971e-21)
(0.687556 0.1218 -2.38852e-20)
(0.743578 0.140519 1.66967e-20)
(0.799599 0.142736 2.76877e-21)
(0.796519 0.19337 -2.19633e-21)
(0.583296 0.022002 -4.45881e-21)
(0.476108 0.047448 2.52089e-20)
(0.508914 0.0560119 2.29155e-20)
(0.545331 0.0681076 -6.36801e-21)
(0.589538 0.0789402 5.02668e-21)
(0.638848 0.0918848 8.89281e-21)
(0.692671 0.104599 1.11409e-20)
(0.748458 0.12146 -2.87112e-21)
(0.802321 0.123285 -1.80215e-21)
(0.788607 0.162262 2.2049e-21)
(0.525842 0.00322737 -1.10779e-21)
(0.478895 0.042932 -6.02446e-21)
(0.511341 0.0461215 6.11223e-21)
(0.548757 0.0554057 -5.53017e-21)
(0.593005 0.0639964 -5.02342e-21)
(0.642697 0.0753215 4.03012e-21)
(0.696662 0.0868574 -7.73912e-21)
(0.752242 0.10195 4.03109e-21)
(0.803402 0.103147 6.42322e-22)
(0.779775 0.130255 0)
(0.499021 -0.0129697 1.11016e-21)
(0.47928 0.0374805 6.04999e-21)
(0.511517 0.0355873 -6.13135e-21)
(0.550519 0.0419998 -5.54374e-21)
(0.594988 0.0485344 -5.01982e-21)
(0.64527 0.0582591 -4.01511e-21)
(0.699529 0.0686849 3.80434e-22)
(0.754932 0.082156 1.66893e-21)
(0.803155 0.0826703 2.8984e-21)
(0.769397 0.100356 0)
(0.469216 -0.030013 8.01606e-22)
(0.477285 0.0308937 0)
(0.50947 0.0244939 -2.30242e-20)
(0.550602 0.0279606 3.98234e-20)
(0.595502 0.0326749 5.01978e-21)
(0.64657 0.0408213 8.81022e-21)
(0.701292 0.0502212 1.09532e-20)
(0.756589 0.0622261 -2.8079e-21)
(0.801979 0.0621533 -1.74746e-21)
(0.757635 0.0721685 1.80397e-21)
(0.442204 -0.048277 -7.99574e-22)
(0.473006 0.0229098 0)
(0.505308 0.0129718 -2.42932e-20)
(0.548994 0.0134024 -1.11715e-20)
(0.594576 0.0165702 0)
(0.646606 0.0231699 -2.49019e-20)
(0.701964 0.0316223 8.85874e-21)
(0.757302 0.0422682 6.64546e-21)
(0.800221 0.041897 1.13991e-20)
(0.745604 0.0451663 -1.79686e-21)
(0.418655 -0.0674757 -2.48347e-21)
(0.466562 0.0133091 0)
(0.499247 0.00120634 2.43881e-20)
(0.545693 -0.00149621 0)
(0.592251 0.000402118 3.81541e-20)
(0.645393 0.00549573 -3.82181e-20)
(0.701571 0.0130395 -1.28673e-20)
(0.757202 0.0223488 1.78983e-21)
(0.797634 0.0219242 -1.11691e-20)
(0.734542 0.019032 -2.42927e-21)
(0.396764 -0.0875703 2.33551e-21)
(0.458134 0.00203968 2.11568e-19)
(0.491638 -0.0105823 -8.04675e-20)
(0.540772 -0.0164989 -4.262e-21)
(0.588639 -0.0156436 -4.3696e-20)
(0.643015 -0.0120195 0)
(0.700218 -0.00541475 -1.29234e-20)
(0.756397 0.00263881 3.95411e-21)
(0.794314 0.00203502 1.58067e-20)
(0.724632 -0.00641887 1.43165e-22)
(0.376164 -0.108276 -1.42472e-22)
(0.448079 -0.010661 5.90415e-21)
(0.483023 -0.0221959 1.3088e-19)
(0.534475 -0.0313527 4.44994e-20)
(0.583989 -0.0314162 -4.43515e-20)
(0.63968 -0.029238 -1.82944e-20)
(0.698092 -0.0236598 0)
(0.755013 -0.0168223 -2.02038e-20)
(0.7908 -0.0178171 1.09264e-20)
(0.715258 -0.0312833 4.94556e-21)
(0.357209 -0.129324 -1.74811e-21)
(0.436847 -0.0242369 -2.83017e-20)
(0.473862 -0.0335208 0)
(0.526969 -0.0458242 0)
(0.578392 -0.0468157 0)
(0.635399 -0.0460727 -1.52546e-20)
(0.695132 -0.0416484 3.33464e-20)
(0.752974 -0.0360281 2.01839e-20)
(0.787097 -0.037604 -2.28069e-20)
(0.706162 -0.0556747 3.15984e-22)
(0.34 -0.150536 1.41198e-21)
(0.424077 -0.0378268 -6.05925e-20)
(0.463451 -0.0445059 1.03393e-19)
(0.517421 -0.0596964 -1.0222e-19)
(0.570903 -0.0617585 8.15611e-20)
(0.629179 -0.0624468 -9.98325e-20)
(0.690336 -0.0593299 0)
(0.749385 -0.0549666 -1.15532e-20)
(0.78251 -0.0573049 -2.09764e-22)
(0.696989 -0.0797571 -2.83908e-21)
(0.3245 -0.171812 1.43599e-21)
(0.408018 -0.0501672 -2.97753e-20)
(0.449949 -0.0550977 0)
(0.504371 -0.0727794 -1.08981e-19)
(0.560053 -0.0761529 1.78754e-19)
(0.619735 -0.0782879 -6.38188e-20)
(0.682605 -0.0766679 -7.90785e-21)
(0.743394 -0.0736737 1.14505e-20)
(0.776439 -0.0770348 2.0308e-21)
(0.687559 -0.103853 7.38507e-21)
(0.31038 -0.193177 -1.05815e-21)
(0.391596 -0.0598866 -1.39344e-19)
(0.436653 -0.0653288 1.37577e-19)
(0.49173 -0.0850266 1.51109e-20)
(0.549693 -0.0899864 0)
(0.611113 -0.0936276 0)
(0.675929 -0.0937124 9.43265e-21)
(0.738582 -0.0922504 2.28507e-20)
(0.771629 -0.096973 -2.25837e-20)
(0.679365 -0.128195 -4.417e-22)
(0.296853 -0.214737 4.14432e-22)
(0.375893 -0.0768582 0)
(0.424935 -0.0884341 0)
(0.48083 -0.11242 0)
(0.542882 -0.122229 0)
(0.607862 -0.129996 0)
(0.676133 -0.134576 0)
(0.741071 -0.136798 0)
(0.771293 -0.144949 0)
(0.665224 -0.185945 0)
(0.264856 -0.266056 0)
(0.358653 -0.138913 0)
(0.419322 -0.148676 0)
(0.477422 -0.174994 0)
(0.541029 -0.188429 0)
(0.609021 -0.19983 0)
(0.678899 -0.20747 0)
(0.739331 -0.212737 0)
(0.748432 -0.228663 0)
(0.601146 -0.28516 0)
(0.193264 -0.364233 0)
(0.338187 -0.193069 0)
(0.397387 -0.207032 0)
(0.456579 -0.236557 0)
(0.522776 -0.255512 0)
(0.594623 -0.272114 0)
(0.668032 -0.284458 0)
(0.726134 -0.295188 0)
(0.716834 -0.32191 0)
(0.536469 -0.390922 0)
(0.134945 -0.464728 0)
(0.315488 -0.246957 0)
(0.373142 -0.266749 0)
(0.433763 -0.300457 0)
(0.502599 -0.326343 0)
(0.578471 -0.349708 0)
(0.654875 -0.368159 0)
(0.707442 -0.386311 0)
(0.673901 -0.426538 0)
(0.461473 -0.507522 0)
(0.0825403 -0.57465 0)
(0.287128 -0.2976 0)
(0.340718 -0.325458 0)
(0.401303 -0.3658 0)
(0.47214 -0.400867 0)
(0.552138 -0.433696 0)
(0.631743 -0.461389 0)
(0.677467 -0.491189 0)
(0.618227 -0.548752 0)
(0.380825 -0.639388 0)
(0.0380517 -0.696861 0)
(0.249661 -0.345031 0)
(0.298336 -0.381712 0)
(0.358251 -0.431355 0)
(0.431141 -0.478959 0)
(0.516071 -0.525712 0)
(0.599541 -0.568368 0)
(0.636964 -0.616582 0)
(0.551074 -0.695318 0)
(0.297779 -0.790541 0)
(0.00318112 -0.833457 0)
(0.204646 -0.382471 0)
(0.251194 -0.43412 0)
(0.309796 -0.496239 0)
(0.382944 -0.56059 0)
(0.470215 -0.627615 0)
(0.553361 -0.693323 0)
(0.577057 -0.768192 0)
(0.466112 -0.871172 0)
(0.213595 -0.964001 0)
(-0.0200395 -0.986955 0)
(0.177358 -0.429299 0)
(0.208636 -0.482218 0)
(0.252909 -0.555381 0)
(0.312735 -0.638133 0)
(0.388766 -0.729725 0)
(0.460811 -0.826003 0)
(0.470028 -0.940108 0)
(0.352908 -1.07962 0)
(0.132967 -1.17188 0)
(-0.0290492 -1.17377 0)
(0.0519697 -0.425866 0)
(0.0700738 -0.492093 0)
(0.102542 -0.575354 0)
(0.152777 -0.675805 0)
(0.224214 -0.796482 0)
(0.298098 -0.940587 0)
(0.317452 -1.12634 0)
(0.229448 -1.33092 0)
(0.0691301 -1.42995 0)
(-0.02627 -1.41316 0)
(0.093281 -0.402923 0)
(0.102388 -0.470277 0)
(0.118671 -0.557112 0)
(0.143912 -0.671786 0)
(0.178613 -0.827064 0)
(0.206369 -1.03894 0)
(0.187874 -1.31583 0)
(0.105005 -1.57079 0)
(0.0116666 -1.64561 0)
(-0.0144497 -1.60754 0)
(0.343599 -0.0722052 1.47107e-19)
(0.318933 -0.130273 -1.45544e-19)
(0.303904 -0.183623 1.82493e-20)
(0.281197 -0.234551 0)
(0.254299 -0.280424 0)
(0.220998 -0.32375 1.81708e-20)
(0.174855 -0.352307 -7.28433e-20)
(0.15464 -0.397667 7.21372e-20)
(0.0405739 -0.389064 1.82335e-20)
(0.0831834 -0.363049 -1.80253e-20)
(0.327042 -0.0787285 -1.64748e-19)
(0.302348 -0.133033 0)
(0.290036 -0.184418 1.13707e-19)
(0.267659 -0.232599 -2.56808e-19)
(0.241583 -0.275554 1.59306e-19)
(0.210087 -0.316314 -1.59113e-20)
(0.163507 -0.342694 3.23163e-20)
(0.14599 -0.384243 6.37058e-20)
(0.0364358 -0.37582 1.66993e-20)
(0.0779266 -0.347444 1.58135e-20)
(0.308922 -0.0876268 1.96561e-19)
(0.286782 -0.13846 -1.30269e-19)
(0.276959 -0.187626 1.28752e-19)
(0.254984 -0.232407 -1.29383e-19)
(0.229747 -0.272192 9.5983e-20)
(0.199829 -0.309784 0)
(0.153171 -0.334725 -3.26033e-20)
(0.138006 -0.370923 4.40852e-23)
(0.0325027 -0.363959 -3.29353e-20)
(0.0720522 -0.332981 -3.24229e-20)
(0.290308 -0.0950482 -3.24924e-20)
(0.271979 -0.142289 0)
(0.264284 -0.189472 0)
(0.242866 -0.231088 0)
(0.218513 -0.268101 9.73888e-20)
(0.190036 -0.302768 -6.46075e-20)
(0.143637 -0.3263 2.46191e-22)
(0.130522 -0.357852 -3.21008e-20)
(0.028664 -0.352194 -1.65214e-20)
(0.0659449 -0.319599 -1.62848e-20)
(0.272167 -0.101704 -3.09063e-22)
(0.257914 -0.144894 -9.68322e-20)
(0.25186 -0.189828 -6.46937e-20)
(0.231151 -0.228423 6.44673e-20)
(0.207699 -0.262959 -3.24699e-20)
(0.180617 -0.295038 0)
(0.134688 -0.317144 -3.3164e-20)
(0.123418 -0.344981 6.57979e-20)
(0.0249627 -0.340251 -3.31213e-20)
(0.0599707 -0.307396 3.32712e-20)
(0.254971 -0.107982 -2.58439e-19)
(0.244614 -0.147056 3.23732e-20)
(0.239736 -0.189357 -2.56614e-22)
(0.219863 -0.225001 6.46337e-20)
(0.197302 -0.257206 0)
(0.1716 -0.286924 0)
(0.126269 -0.307649 0)
(0.116725 -0.332376 3.29188e-20)
(0.0215229 -0.328311 0)
(0.0544567 -0.296424 0)
(0.238944 -0.113688 0)
(0.232092 -0.148843 9.65691e-20)
(0.228028 -0.188235 -6.44663e-20)
(0.209096 -0.221079 -6.51263e-20)
(0.187395 -0.251081 6.52294e-20)
(0.163072 -0.278631 3.31909e-20)
(0.118415 -0.298046 -3.35031e-20)
(0.110542 -0.320117 -1.16398e-19)
(0.018454 -0.316529 8.35958e-21)
(0.0496179 -0.286608 -2.52999e-20)
(0.224251 -0.118663 0)
(0.220387 -0.150156 -3.20527e-20)
(0.216872 -0.186435 -1.61711e-20)
(0.198945 -0.2167 0)
(0.178059 -0.244641 1.64269e-20)
(0.155116 -0.270215 -4.94387e-20)
(0.111165 -0.288407 5.03755e-20)
(0.104957 -0.308238 1.65116e-20)
(0.0157901 -0.304973 -1.70934e-20)
(0.0455367 -0.2778 3.40557e-20)
(0.211053 -0.122874 3.22009e-20)
(0.209567 -0.151001 3.21516e-20)
(0.206407 -0.184008 -8.05111e-21)
(0.189488 -0.211934 8.13195e-21)
(0.169361 -0.237947 1.6427e-20)
(0.147792 -0.261728 2.47669e-20)
(0.10454 -0.278796 -8.42951e-21)
(0.10001 -0.296759 -8.33206e-21)
(0.0134932 -0.293696 1.71608e-20)
(0.0422001 -0.269848 8.52644e-21)
(0.199491 -0.126323 -7.99461e-21)
(0.199705 -0.151428 8.05313e-21)
(0.196758 -0.181074 -8.08252e-21)
(0.180789 -0.206888 -8.13027e-21)
(0.161351 -0.231099 8.22342e-21)
(0.141134 -0.253248 -1.65228e-20)
(0.0985337 -0.269306 1.26246e-20)
(0.0957039 -0.2857 4.14153e-21)
(0.0114876 -0.28275 0)
(0.0395511 -0.262613 -8.54633e-21)
(0.18968 -0.128976 8.00408e-21)
(0.190867 -0.151448 -8.06683e-21)
(0.188027 -0.177737 -8.10386e-21)
(0.17289 -0.201645 -8.14359e-21)
(0.154063 -0.224182 -8.22266e-21)
(0.135153 -0.244839 8.69388e-24)
(0.0931302 -0.260021 4.24305e-21)
(0.0920213 -0.275063 1.25238e-20)
(0.00969394 -0.27218 0)
(0.0375276 -0.255974 -8.51464e-21)
(0.181704 -0.13077 0)
(0.183099 -0.151022 -3.23016e-20)
(0.180282 -0.174056 5.67825e-20)
(0.165816 -0.196248 8.14712e-21)
(0.14751 -0.217256 1.64501e-20)
(0.129844 -0.236539 2.4725e-20)
(0.0883024 -0.251003 -8.41426e-21)
(0.0889333 -0.26483 -8.31164e-21)
(0.00804586 -0.262013 1.70087e-20)
(0.0360825 -0.249823 8.49447e-21)
(0.175603 -0.131693 0)
(0.176422 -0.150122 -3.24032e-20)
(0.173539 -0.17009 -1.62649e-20)
(0.159555 -0.190726 0)
(0.141678 -0.210369 -4.92851e-20)
(0.125172 -0.228374 1.64851e-20)
(0.0840092 -0.242307 1.68703e-20)
(0.0864007 -0.254974 4.97027e-20)
(0.00649335 -0.252273 -1.69422e-20)
(0.0351915 -0.244061 3.36758e-20)
(0.171354 -0.131799 0)
(0.170819 -0.148769 3.25464e-20)
(0.167758 -0.165929 0)
(0.154059 -0.185123 6.54565e-20)
(0.136511 -0.203576 -6.55555e-20)
(0.121069 -0.220372 -3.30411e-20)
(0.0801881 -0.233988 -2.76376e-22)
(0.0843679 -0.245466 -4.91092e-20)
(0.00499881 -0.242985 -8.27712e-21)
(0.0348533 -0.238597 -4.18414e-20)
(0.168883 -0.131134 2.62235e-19)
(0.166231 -0.146966 -9.85528e-20)
(0.162839 -0.161659 -5.39521e-24)
(0.149229 -0.179488 -6.54189e-20)
(0.131907 -0.196923 0)
(0.11742 -0.212546 -3.29029e-20)
(0.0767433 -0.226095 4.18185e-23)
(0.0827518 -0.236282 6.54806e-20)
(0.00352898 -0.234181 8.25798e-21)
(0.0350867 -0.233345 -8.30183e-21)
(0.168139 -0.129678 5.5304e-22)
(0.162561 -0.144615 1.65324e-19)
(0.158615 -0.157288 6.57435e-20)
(0.144915 -0.173827 -6.55109e-20)
(0.127714 -0.190427 -3.2729e-20)
(0.114052 -0.204882 0)
(0.0735366 -0.218657 -6.54781e-20)
(0.0814303 -0.227394 3.22233e-20)
(0.0020476 -0.225898 3.252e-20)
(0.0359248 -0.228214 3.25285e-20)
(0.169146 -0.127372 -3.35297e-20)
(0.159686 -0.141607 0)
(0.154864 -0.152811 0)
(0.140916 -0.168157 0)
(0.12374 -0.184126 -3.24934e-20)
(0.110749 -0.197383 6.48173e-20)
(0.070397 -0.211709 6.49782e-20)
(0.0802412 -0.218791 -9.60093e-20)
(0.000515891 -0.2182 1.60925e-20)
(0.0374064 -0.223118 -4.82217e-20)
(0.171885 -0.124457 -6.78962e-20)
(0.15745 -0.138168 1.34632e-19)
(0.151352 -0.148498 -1.33071e-19)
(0.137021 -0.162713 1.31543e-19)
(0.119797 -0.178243 -1.62818e-19)
(0.107282 -0.190171 0)
(0.0671663 -0.205433 -3.22733e-20)
(0.0790127 -0.210532 6.84212e-23)
(-0.00109267 -0.211225 -3.18098e-20)
(0.0395612 -0.218015 -3.14558e-20)
(0.175925 -0.121419 -3.46196e-20)
(0.15563 -0.134549 0)
(0.147904 -0.144591 -1.50658e-19)
(0.133078 -0.157718 2.63661e-19)
(0.115791 -0.172975 -9.74098e-20)
(0.103471 -0.183325 -1.59404e-20)
(0.0637741 -0.200039 3.19934e-20)
(0.0776349 -0.202737 -2.14968e-22)
(-0.0027653 -0.20513 4.68531e-20)
(0.0423794 -0.212915 4.64695e-20)
(0.180244 -0.115889 -1.51298e-19)
(0.153922 -0.128311 1.49445e-19)
(0.144432 -0.139054 1.82779e-20)
(0.12902 -0.151618 0)
(0.111766 -0.166877 0)
(0.0992122 -0.176056 1.71882e-20)
(0.0602559 -0.194538 6.77393e-20)
(0.076094 -0.195133 -6.68181e-20)
(-0.00443099 -0.199627 -1.64965e-20)
(0.0457456 -0.20756 1.63546e-20)
(0.187871 -0.0893034 0)
(0.1493 -0.102059 0)
(0.136326 -0.116361 0)
(0.119274 -0.129383 0)
(0.102302 -0.144681 0)
(0.0878194 -0.154996 0)
(0.0515856 -0.175432 0)
(0.0717436 -0.175374 0)
(-0.0081496 -0.185781 0)
(0.0542981 -0.192469 0)
(0.161903 -0.0918822 0)
(0.13974 -0.105215 0)
(0.128065 -0.119335 0)
(0.112808 -0.131084 0)
(0.0972412 -0.142235 0)
(0.0821613 -0.151316 0)
(0.0481364 -0.162289 0)
(0.0707373 -0.166513 0)
(-0.0102613 -0.170865 0)
(0.0570015 -0.174193 0)
(0.144037 -0.0683084 0)
(0.125652 -0.0812248 0)
(0.113792 -0.0959831 0)
(0.100151 -0.109423 0)
(0.0862167 -0.122038 0)
(0.0727012 -0.133367 0)
(0.0402672 -0.143265 0)
(0.065984 -0.152519 0)
(-0.014871 -0.155022 0)
(0.0542624 -0.156932 0)
(0.129809 -0.0583963 0)
(0.113101 -0.0700556 0)
(0.101115 -0.0825439 0)
(0.0881017 -0.0943617 0)
(0.0747772 -0.105895 0)
(0.062676 -0.117002 0)
(0.0299091 -0.125766 0)
(0.0585908 -0.138047 0)
(-0.0205923 -0.140103 0)
(0.0501397 -0.142562 0)
(0.115813 -0.0489249 0)
(0.10146 -0.0596154 0)
(0.0896424 -0.0707134 0)
(0.0769758 -0.081451 0)
(0.0638109 -0.0922444 0)
(0.0532066 -0.103261 0)
(0.0187675 -0.111311 0)
(0.050053 -0.125837 0)
(-0.0267114 -0.128749 0)
(0.0454737 -0.133132 0)
(0.103618 -0.0395647 0)
(0.0911212 -0.048723 0)
(0.0792788 -0.0583129 0)
(0.066544 -0.0679827 0)
(0.0529511 -0.0781792 0)
(0.0437135 -0.08947 0)
(0.00661785 -0.097946 0)
(0.0396187 -0.114069 0)
(-0.0344753 -0.122001 0)
(0.0399249 -0.128782 0)
(0.093959 -0.031088 0)
(0.0829322 -0.0381274 0)
(0.0707618 -0.0457895 0)
(0.057441 -0.0540307 0)
(0.0426283 -0.0632934 0)
(0.0338681 -0.0744862 0)
(-0.00620582 -0.0854424 0)
(0.0251713 -0.101189 0)
(-0.0466935 -0.119505 0)
(0.033543 -0.131946 0)
(0.0915761 -0.0230583 0)
(0.0817398 -0.027373 0)
(0.0687734 -0.0326635 0)
(0.0543176 -0.0389994 0)
(0.0376298 -0.0466622 0)
(0.026647 -0.0564202 0)
(-0.0160476 -0.0730676 0)
(0.00919918 -0.0852802 0)
(-0.0668423 -0.118392 0)
(0.0237745 -0.147524 0)
(0.134792 -0.0153673 0)
(0.12728 -0.0159547 0)
(0.113471 -0.0183948 0)
(0.0978689 -0.0221069 0)
(0.0795762 -0.0270134 0)
(0.0613217 -0.0343555 0)
(0.0168719 -0.0545009 0)
(0.0307218 -0.0577838 0)
(-0.0703867 -0.117372 0)
(0.0190301 -0.207588 0)
(0.453875 -0.00543205 0)
(0.447273 -0.00497845 0)
(0.436029 -0.00565857 0)
(0.423938 -0.00691995 0)
(0.408821 -0.00883607 0)
(0.388493 -0.0126853 0)
(0.358291 -0.0224799 0)
(0.336232 -0.0253032 0)
(0.212564 -0.0688924 0)
(0.245473 -0.133824 0)
(0.190287 -0.088072 1.55398e-19)
(0.160122 -0.0787736 -1.53026e-19)
(0.145685 -0.0582692 1.87851e-20)
(0.130666 -0.0490131 0)
(0.117115 -0.0400975 0)
(0.105492 -0.0319888 1.76696e-20)
(0.0965083 -0.0248551 -6.93191e-20)
(0.0958033 -0.017868 6.83116e-20)
(0.143987 -0.0141983 1.69023e-20)
(0.465311 -0.00678293 -1.70386e-20)
(0.192393 -0.0868789 -1.70246e-19)
(0.15992 -0.072326 0)
(0.146657 -0.0537217 1.16218e-19)
(0.131145 -0.044724 -2.61523e-19)
(0.117798 -0.0362235 1.61126e-19)
(0.106421 -0.0287479 -1.58742e-20)
(0.0978268 -0.0222813 3.14357e-20)
(0.098033 -0.015881 6.22005e-20)
(0.14897 -0.0137323 1.54489e-20)
(0.471348 -0.00736833 1.5082e-20)
(0.193719 -0.0844354 2.00268e-19)
(0.160774 -0.0652587 -1.33395e-19)
(0.147983 -0.0488353 1.31889e-19)
(0.131846 -0.0400773 -1.30549e-19)
(0.118624 -0.0321951 9.69888e-20)
(0.107427 -0.0254407 0)
(0.0991911 -0.0197437 -3.17129e-20)
(0.100194 -0.0141076 6.81925e-23)
(0.153855 -0.0132255 -3.13366e-20)
(0.477582 -0.00785527 -3.06938e-20)
(0.194156 -0.0799982 -3.28349e-20)
(0.162494 -0.0576622 0)
(0.14932 -0.0435395 0)
(0.132623 -0.0351027 0)
(0.119415 -0.0280641 9.72803e-20)
(0.108338 -0.0221126 -6.44757e-20)
(0.10039 -0.0172587 4.97623e-23)
(0.102004 -0.0124937 -3.18902e-20)
(0.158017 -0.0125858 -1.58752e-20)
(0.483455 -0.00816105 -1.56031e-20)
(0.194328 -0.0730338 4.11773e-22)
(0.164909 -0.0495588 -9.79112e-20)
(0.150495 -0.0378296 -6.54218e-20)
(0.133408 -0.0299014 6.52025e-20)
(0.120114 -0.0238967 -3.24912e-20)
(0.109119 -0.018813 0)
(0.101392 -0.0148407 -3.23139e-20)
(0.103471 -0.010984 6.45027e-20)
(0.161503 -0.0117568 -3.2237e-20)
(0.488907 -0.0082312 3.16477e-20)
(0.194543 -0.0635527 -2.57125e-19)
(0.167773 -0.0410107 3.21663e-20)
(0.151474 -0.0317322 -1.41116e-22)
(0.134179 -0.0245835 6.51888e-20)
(0.120711 -0.0197412 0)
(0.109771 -0.0155724 0)
(0.102202 -0.0124885 0)
(0.10462 -0.00953453 3.2619e-20)
(0.164402 -0.010718 0)
(0.493905 -0.00803445 0)
(0.194849 -0.0520244 0)
(0.170692 -0.032159 9.71925e-20)
(0.152218 -0.0252954 -6.49291e-20)
(0.134888 -0.0192341 -6.52664e-20)
(0.121185 -0.0156147 6.5372e-20)
(0.110282 -0.0123952 3.27649e-20)
(0.102813 -0.0101811 -3.28786e-20)
(0.105473 -0.00810443 -1.15015e-19)
(0.166714 -0.00946848 8.24748e-21)
(0.49834 -0.00755734 -2.43645e-20)
(0.195216 -0.0390893 0)
(0.173283 -0.0231653 -3.22227e-20)
(0.152695 -0.01858 -1.62577e-20)
(0.135473 -0.0139041 0)
(0.121511 -0.0115089 1.63849e-20)
(0.110634 -0.00926605 -4.93736e-20)
(0.103218 -0.00789324 4.94688e-20)