/*--------------------------------*- C++ -*----------------------------------*\
  =========                 |
  \\      /  F ield         | OpenFOAM: The Open Source CFD Toolbox
   \\    /   O peration     | Website:  https://openfoam.org
    \\  /    A nd           | Version:  7
     \\/     M anipulation  |
\*---------------------------------------------------------------------------*/
FoamFile
{
    version     2.0;
    format      ascii;
    class       volVectorField;
    location    "42.4";
    object      U;
}
// * * * * * * * * * * * * * * * * * * * * * * * * * * * * * * * * * * * * * //

dimensions      [0 1 -1 0 0 0 0];

internalField   nonuniform List<vector> 
2000
(
(-0.00116467 0.00535067 -3.88167e-22)
(-0.000376236 0.00693151 0)
(0.00384632 0.00694674 0)
(0.0103321 0.00815135 -2.1021e-21)
(0.0184279 0.0120371 7.44118e-22)
(0.0275947 0.0193173 5.642e-23)
(0.0374379 0.0302462 -1.27751e-21)
(0.0476368 0.0447898 0)
(0.0578855 0.0627113 0)
(0.0677792 0.0836047 0)
(-0.00133055 0.00542039 0)
(0.000302889 0.0054248 -1.53145e-21)
(0.0057404 0.00371439 1.41226e-21)
(0.0130773 0.00324728 2.83538e-21)
(0.0215179 0.0055576 0)
(0.0304981 0.0113462 2.68945e-21)
(0.039688 0.0208741 -2.50091e-21)
(0.0488816 0.0341586 0)
(0.0578888 0.0510643 4.69207e-21)
(0.06638 0.0713656 -8.97846e-21)
(-0.00134724 0.0051876 0)
(0.00169258 0.00350986 1.14527e-20)
(0.0089746 0.000243791 0)
(0.0177274 -0.00162913 1.07899e-20)
(0.0269748 -0.000615349 0)
(0.0361187 0.00390667 -1.01013e-20)
(0.0448934 0.0121495 0)
(0.0532155 0.0241436 9.50753e-21)
(0.061039 0.039841 -8.90415e-21)
(0.0681276 0.0592158 -8.32693e-21)
(-0.0011208 0.00459908 -2.86683e-21)
(0.00396362 0.00113466 -5.84108e-21)
(0.0137336 -0.00343549 -2.66267e-21)
(0.0244503 -0.0063524 -5.35108e-21)
(0.0349479 -0.00624443 -5.02323e-21)
(0.0445987 -0.00263674 5.0649e-21)
(0.0532065 0.00457283 4.68274e-21)
(0.0608157 0.0153731 -2.69978e-22)
(0.0675477 0.029766 8.5026e-21)
(0.073296 0.0479123 8.32247e-21)
(-0.000533264 0.00360703 -2.62853e-21)
(0.00730007 -0.00170732 -5.56065e-21)
(0.0201787 -0.00727099 -1.0604e-20)
(0.0333455 -0.0108001 4.98433e-21)
(0.0454656 -0.0111259 0)
(0.0559087 -0.00798122 0)
(0.0645693 -0.00143088 -9.12564e-21)
(0.0716291 0.00841256 -8.5978e-21)
(0.0773922 0.0215441 7.7536e-21)
(0.0819417 0.0382566 2.2092e-20)
(0.000548446 0.00219513 2.59491e-21)
(0.0118843 -0.00498211 2.86445e-21)
(0.0284206 -0.0111813 -1.43718e-20)
(0.0443993 -0.0148541 2.42025e-20)
(0.0583706 -0.0151126 -4.62971e-21)
(0.0697589 -0.0119425 0)
(0.0785934 -0.00561306 0)
(0.0852166 0.00361565 3.98058e-20)
(0.0901248 0.0156716 -3.75225e-20)
(0.093668 0.0308938 7.12036e-21)
(0.00226222 0.000384885 1.77471e-20)
(0.0178748 -0.00859852 0)
(0.0384903 -0.0150426 1.97814e-20)
(0.0574496 -0.0183965 -1.919e-20)
(0.0732818 -0.0181237 0)
(0.0855586 -0.0144888 8.58263e-21)
(0.0945127 -0.00797442 -2.34433e-20)
(0.100687 0.000995719 -3.02348e-20)
(0.104778 0.0122388 1.38141e-20)
(0.10747 0.0260533 1.31897e-20)
(0.00473856 -0.00175761 -3.41785e-20)
(0.0253816 -0.0123968 -4.84913e-21)
(0.0503109 -0.0186827 -8.82436e-21)
(0.0721654 -0.021307 -2.17768e-20)
(0.0895963 -0.0201441 -8.58537e-21)
(0.102449 -0.0157408 -7.54781e-21)
(0.111246 -0.00877107 1.17396e-21)
(0.11678 0.000196887 0)
(0.119953 0.0108546 0)
(0.121811 0.0233992 -2.02868e-22)
(0.00808576 -0.00412074 1.64317e-20)
(0.034436 -0.0161503 -1.7453e-20)
(0.0636719 -0.0218876 1.35222e-20)
(0.0880467 -0.0234691 3.01686e-20)
(0.106532 -0.0212188 -7.94309e-21)
(0.119403 -0.015942 8.47699e-21)
(0.127564 -0.00845226 7.38374e-21)
(0.132094 0.000590321 0)
(0.134094 0.0107736 0)
(0.134961 0.0221964 -1.37089e-21)
(0.0123772 -0.00655402 -1.82543e-21)
(0.0449636 -0.0195806 2.18572e-20)
(0.0782143 -0.024424 -4.05843e-21)
(0.104445 -0.0247895 0)
(0.123206 -0.0214528 0)
(0.135371 -0.0154215 1.44531e-20)
(0.142315 -0.00757148 0)
(0.145418 0.00142494 -1.05665e-20)
(0.145954 0.0111288 8.90131e-22)
(0.145571 0.0216509 8.54983e-21)
(0.0880467 0.136235 3.80589e-22)
(0.116268 0.238828 -3.85785e-22)
(0.122503 0.328681 -4.60424e-22)
(0.114138 0.402589 -5.57958e-22)
(0.095316 0.469851 -7.39521e-22)
(0.0788014 0.537862 -1.87992e-23)
(0.0549516 0.616424 3.88988e-22)
(0.0440345 0.711587 1.3943e-21)
(0.015038 0.829708 0)
(0.0127229 0.96266 -1.0226e-21)
(0.0836417 0.124569 1.33536e-21)
(0.110103 0.230785 -1.62386e-21)
(0.118227 0.326832 2.93115e-21)
(0.111423 0.404892 5.58956e-22)
(0.0934966 0.474007 1.20887e-21)
(0.0774171 0.542569 2.17493e-21)
(0.0539703 0.621109 -8.47754e-22)
(0.0430505 0.716182 -9.30384e-22)
(0.0148597 0.834195 1.81576e-21)
(0.0122519 0.966201 1.02016e-21)
(0.081688 0.112424 0)
(0.104728 0.220807 -1.31759e-21)
(0.11416 0.322911 -8.36091e-22)
(0.10893 0.405591 0)
(0.091959 0.477002 -3.70624e-21)
(0.0763379 0.54641 1.1018e-21)
(0.0532137 0.625083 1.31132e-21)
(0.0422179 0.720259 4.79366e-21)
(0.0147323 0.838478 -1.80989e-21)
(0.0118143 0.969754 3.53205e-21)
(0.0824881 0.100312 0)
(0.100292 0.209122 1.3288e-21)
(0.110297 0.316881 0)
(0.106585 0.404529 3.78874e-21)
(0.0906336 0.478575 -3.80819e-21)
(0.0755216 0.549 -2.60921e-21)
(0.0526999 0.627812 -2.65415e-22)
(0.0416203 0.723062 -4.57608e-21)
(0.0147446 0.841575 -7.54381e-22)
(0.0114174 0.97261 -4.33606e-21)
(0.0863335 0.0888 -1.20621e-22)
(0.097004 0.196107 -3.15233e-21)
(0.106645 0.308758 3.61737e-22)
(0.1043 0.401707 -2.75182e-21)
(0.0894571 0.479033 0)
(0.0749077 0.550967 -2.37824e-21)
(0.0523199 0.630231 -2.87045e-22)
(0.0410803 0.725841 5.6183e-21)
(0.0147307 0.844894 7.58496e-22)
(0.0110415 0.975744 -7.61157e-22)
(0.0933256 0.0784334 -8.16029e-21)
(0.0951361 0.182272 5.06742e-21)
(0.103246 0.298654 2.37813e-21)
(0.102014 0.396776 -2.37703e-21)
(0.088328 0.477537 -1.53385e-21)
(0.074471 0.551112 0)
(0.0521952 0.630843 -4.62001e-21)
(0.0408276 0.726717 2.25527e-21)
(0.0149011 0.846415 2.64652e-21)
(0.0107042 0.977819 2.74544e-21)
(0.103097 0.0696016 -7.70637e-22)
(0.0949818 0.168203 0)
(0.100141 0.286797 0)
(0.0996735 0.390412 0)
(0.0872276 0.475611 -1.68696e-21)
(0.0740846 0.551547 3.2154e-21)
(0.0520197 0.632186 4.39146e-21)
(0.0404405 0.728683 -6.89439e-21)
(0.0149096 0.849185 1.27261e-21)
(0.0103721 0.980741 -3.979e-21)
(0.114515 0.0624356 4.86981e-21)
(0.0967179 0.154614 2.98813e-21)
(0.0974762 0.273155 -2.96184e-21)
(0.0972021 0.380831 4.31048e-21)
(0.0859816 0.470011 -5.39142e-21)
(0.0738699 0.548458 0)
(0.052264 0.630117 -1.744e-21)
(0.0405435 0.727182 2.08472e-22)
(0.0152414 0.848848 -2.14781e-21)
(0.0100777 0.981933 -2.26793e-21)
(0.125437 0.0566179 -3.6748e-21)
(0.100018 0.14155 0)
(0.0952842 0.259438 -2.88608e-21)
(0.0947711 0.372735 6.16981e-21)
(0.0846877 0.467225 -2.38305e-21)
(0.0733205 0.54868 -6.26749e-22)
(0.051964 0.631597 1.74039e-21)
(0.040086 0.72943 2.4201e-23)
(0.0151504 0.85187 3.02727e-21)
(0.00976846 0.985016 3.26666e-21)
(0.13225 0.050683 -1.8834e-21)
(0.10341 0.126221 1.83497e-21)
(0.0934783 0.238521 2.4281e-22)
(0.0918859 0.354208 0)
(0.0831724 0.454177 0)
(0.073448 0.540129 5.9614e-22)
(0.0527785 0.625267 2.94338e-21)
(0.0406935 0.724428 -2.85928e-21)
(0.0157131 0.848958 -8.62311e-22)
(0.0095015 0.9851 8.36727e-22)
(0.125932 0.0486823 0)
(0.101777 0.117242 0)
(0.0894274 0.228632 0)
(0.0858279 0.350465 0)
(0.0776938 0.457352 0)
(0.0690675 0.548271 0)
(0.0498173 0.635557 0)
(0.0382734 0.73575 0)
(0.0147328 0.859878 0)
(0.00877876 0.994175 0)
(0.111736 0.0825049 0)
(0.0860823 0.148496 0)
(0.0715521 0.245094 0)
(0.0684672 0.358087 0)
(0.0647532 0.465278 0)
(0.0604959 0.559935 0)
(0.0450893 0.649574 0)
(0.0345897 0.74969 0)
(0.0131126 0.871355 0)
(0.00762129 1.00099 0)
(0.0897029 0.10051 0)
(0.066062 0.168252 0)
(0.0507389 0.258632 0)
(0.0465271 0.364157 0)
(0.045302 0.469936 0)
(0.0454414 0.568244 0)
(0.0355193 0.663148 0)
(0.0286534 0.76631 0)
(0.0105162 0.888337 0)
(0.00643014 1.01471 0)
(0.0632562 0.117621 0)
(0.0418284 0.185456 0)
(0.0273759 0.27035 0)
(0.0233323 0.368684 0)
(0.0247145 0.47132 0)
(0.0291524 0.5713 0)
(0.0245623 0.669894 0)
(0.021527 0.774489 0)
(0.00719278 0.895841 0)
(0.00497206 1.01778 0)
(0.0378547 0.133486 0)
(0.0179868 0.201097 0)
(0.00338313 0.279005 0)
(-0.00246826 0.368317 0)
(-3.56474e-05 0.466361 0)
(0.00815909 0.568952 0)
(0.00980043 0.673892 0)
(0.012351 0.784424 0)
(0.0025758 0.908501 0)
(0.00318524 1.02819 0)
(0.0163202 0.148358 0)
(-0.00236675 0.217113 0)
(-0.0151974 0.28993 0)
(-0.0210793 0.370851 0)
(-0.0182826 0.460867 0)
(-0.00873913 0.5602 0)
(-0.00308616 0.665969 0)
(0.00381039 0.780285 0)
(-0.00142887 0.906076 0)
(0.00148043 1.02363 0)
(0.000398676 0.162147 0)
(-0.018402 0.232053 0)
(-0.0330651 0.298493 0)
(-0.0404701 0.370753 0)
(-0.0378972 0.454354 0)
(-0.0272001 0.552119 0)
(-0.0171932 0.661601 0)
(-0.00545836 0.781766 0)
(-0.00597408 0.910902 0)
(7.72096e-05 1.02801 0)
(-0.00901824 0.173973 0)
(-0.0233868 0.247483 0)
(-0.036448 0.312266 0)
(-0.044544 0.376527 0)
(-0.0442219 0.449375 0)
(-0.0357118 0.538368 0)
(-0.025443 0.644578 0)
(-0.0123684 0.767104 0)
(-0.00954212 0.899204 0)
(-0.00120707 1.01494 0)
(-0.0150056 0.184405 0)
(-0.029909 0.257668 0)
(-0.0445558 0.317942 0)
(-0.053425 0.376532 0)
(-0.0535421 0.444892 0)
(-0.0450217 0.531742 0)
(-0.0331883 0.639527 0)
(-0.0181835 0.765403 0)
(-0.0127372 0.900693 0)
(-0.00219843 1.01624 0)
(-0.00974933 0.197912 0)
(-0.0207365 0.277955 0)
(-0.0343961 0.338628 0)
(-0.0449543 0.388242 0)
(-0.0485411 0.442973 0)
(-0.0440452 0.516907 0)
(-0.0348313 0.617518 0)
(-0.021324 0.74431 0)
(-0.0146155 0.88337 0)
(-0.00298599 0.998402 0)
(0.145304 0.0347194 -2.89785e-22)
(0.126631 0.0539474 2.86485e-22)
(0.0997996 0.0665666 -4.04447e-22)
(0.0703814 0.080114 0)
(0.0430664 0.0933018 0)
(0.0202088 0.105865 -5.62112e-22)
(0.00408955 0.117375 1.6639e-21)
(-0.0057081 0.126348 -1.63568e-21)
(-0.0105825 0.134753 -1.25015e-22)
(-0.00659282 0.143731 1.22063e-22)
(0.143953 0.0299915 -1.57268e-21)
(0.123147 0.0436827 0)
(0.0970277 0.0529848 -3.31708e-21)
(0.0691742 0.0642352 8.04286e-21)
(0.043454 0.0757173 -5.44818e-21)
(0.021596 0.0870273 5.4831e-22)
(0.00595475 0.097415 -8.97287e-22)
(-0.00355191 0.105342 -1.17974e-21)
(-0.00820411 0.112929 2.23408e-23)
(-0.00517299 0.120049 1.86646e-23)
(0.14346 0.0240398 1.26479e-21)
(0.120958 0.033202 2.45525e-21)
(0.0952643 0.0395407 -2.43112e-21)
(0.0683503 0.0482748 4.26608e-21)
(0.0438423 0.0575372 -3.11289e-21)
(0.0229625 0.0672072 0)
(0.00775007 0.0762593 8.99365e-22)
(-0.00143851 0.0832185 1.8884e-23)
(-0.00606079 0.0900572 3.79919e-22)
(-0.00390925 0.0956336 1.0195e-22)
(0.142231 0.0158535 -2.40567e-23)
(0.11858 0.0208812 0)
(0.0937237 0.0247443 0)
(0.0678172 0.031309 0)
(0.044382 0.0383979 -3.13819e-21)
(0.0242878 0.0463847 2.08125e-21)
(0.00945788 0.0540208 -9.76783e-23)
(0.000386215 0.0601517 5.2398e-22)
(-0.00416896 0.066322 1.18549e-22)
(-0.00281083 0.0705803 -1.3649e-23)
(0.140257 0.00548472 -1.71192e-21)
(0.11595 0.00672905 4.93789e-22)
(0.0921232 0.00833546 1.69168e-21)
(0.0672464 0.0130269 -1.69029e-21)
(0.0448654 0.0181309 1.04203e-21)
(0.0255153 0.0245854 0)
(0.0110688 0.0309413 8.49036e-22)
(0.00192883 0.0363186 -1.12214e-21)
(-0.00246864 0.0418184 4.92296e-22)
(-0.00185325 0.0450373 -1.05838e-22)
(0.137608 -0.00681583 8.40467e-23)
(0.113119 -0.00889357 6.46296e-22)
(0.0904891 -0.0094865 4.98512e-22)
(0.0666301 -0.0064648 -1.60738e-21)
(0.0452362 -0.00316932 0)
(0.0266224 0.00196677 0)
(0.0125558 0.00720772 0)
(0.00351362 0.011946 -5.90848e-22)
(-0.000906291 0.0168134 0)
(-0.00104537 0.0192084 0)
(0.134318 -0.0206767 0)
(0.110046 -0.0254784 -1.34831e-21)
(0.0887387 -0.0283176 1.0155e-21)
(0.0659247 -0.026802 1.77183e-21)
(0.0454918 -0.0251788 -1.78086e-21)
(0.0276148 -0.021157 -8.33744e-22)
(0.0139244 -0.0168734 9.16809e-22)
(0.00500526 -0.0126914 2.07262e-21)
(0.000396124 -0.00839687 -1.75866e-22)
(-0.000376765 -0.00663551 5.16329e-23)
(0.130281 -0.0356459 0)
(0.106691 -0.0424544 3.34996e-22)
(0.0868393 -0.0476623 2.78099e-22)
(0.0650817 -0.0474975 0)
(0.0456384 -0.0474408 -4.37916e-22)
(0.0284942 -0.0443608 1.27638e-21)
(0.0151847 -0.0409124 -1.07738e-21)
(0.00635845 -0.0372104 -2.46029e-22)
(0.00142839 -0.033481 1.65685e-22)
(0.000122899 -0.0322159 -1.09249e-22)
(0.125439 -0.0512332 3.14306e-22)
(0.103104 -0.0593269 -3.80179e-22)
(0.0848005 -0.0669999 -1.39558e-23)
(0.0640873 -0.0680021 -1.71676e-22)
(0.0456573 -0.0694333 -4.18617e-22)
(0.0292444 -0.0671742 -6.05899e-22)
(0.0163149 -0.0644911 1.69219e-22)
(0.00755431 -0.0612524 1.30029e-22)
(0.00232075 -0.0580895 -1.66226e-22)
(0.000464153 -0.0571768 -2.65425e-23)
(0.119942 -0.0669554 -2.16045e-24)
(0.0992762 -0.0756758 2.17925e-24)
(0.082547 -0.0858342 1.2007e-22)
(0.0629134 -0.0878154 1.71412e-22)
(0.0455122 -0.0906614 -1.84827e-22)
(0.0298452 -0.0891587 3.79527e-22)
(0.0172851 -0.0872157 -2.41669e-22)
(0.00858327 -0.0844668 -5.71104e-23)
(0.00305119 -0.081853 0)
(0.000671722 -0.0811855 2.65888e-23)
(0.114056 -0.0824145 2.48709e-23)
(0.0952327 -0.0911856 -2.5067e-23)
(0.0800694 -0.103769 7.78206e-23)
(0.0615717 -0.106553 1.32571e-22)
(0.0451764 -0.110724 1.68906e-22)
(0.0302733 -0.109965 -6.38113e-24)
(0.0180602 -0.108756 -7.9578e-23)
(0.00942104 -0.106543 -1.83949e-22)
(0.00360781 -0.104446 0)
(0.000798805 -0.103932 2.45795e-23)
(0.108037 -0.097327 0)
(0.0910833 -0.105665 1.27103e-22)
(0.0773978 -0.120518 -3.15625e-22)
(0.0601019 -0.123977 -1.32763e-22)
(0.0446355 -0.129342 -2.80609e-22)
(0.0305117 -0.129357 -4.61635e-22)
(0.0186103 -0.128863 1.4735e-22)
(0.0100462 -0.127236 1.15381e-22)
(0.00398681 -0.125605 -1.3669e-22)
(0.000844786 -0.125181 -2.45125e-23)
(0.102054 -0.111525 0)
(0.0869317 -0.119059 -1.60306e-22)
(0.074573 -0.135904 1.09955e-22)
(0.0585449 -0.139998 0)
(0.0438949 -0.146358 8.23786e-22)
(0.0305607 -0.147216 -2.48878e-22)
(0.018936 -0.147383 -2.63411e-22)
(0.0104689 -0.14638 -6.31179e-22)
(0.00421214 -0.145146 1.36243e-22)
(0.00082862 -0.144785 -8.54111e-23)
(0.0962168 -0.124932 0)
(0.0828509 -0.13145 1.61626e-22)
(0.0716357 -0.149843 0)
(0.0569345 -0.154656 -7.67558e-22)
(0.0429812 -0.161732 7.71569e-22)
(0.0304352 -0.163525 4.85609e-22)
(0.0190656 -0.164252 7.12522e-24)
(0.0107217 -0.1639 6.03226e-22)
(0.00432246 -0.162982 1.15787e-22)
(0.000774198 -0.162684 1.25559e-22)
(0.0906073 -0.137523 6.12168e-21)
(0.0789175 -0.143036 -2.21185e-21)
(0.0686341 -0.162325 -5.53425e-22)
(0.0553023 -0.168087 2.07633e-22)
(0.0419381 -0.17551 0)
(0.0301555 -0.178349 4.30931e-22)
(0.0190378 -0.179492 -4.82599e-23)
(0.0108376 -0.179807 -7.46604e-22)
(0.00435213 -0.179121 -3.72486e-23)
(0.000698726 -0.178904 3.71817e-23)
(0.0852797 -0.149266 1.81587e-21)
(0.075231 -0.154109 3.07384e-21)
(0.0656473 -0.173398 -1.79068e-23)
(0.0536841 -0.180471 1.78972e-23)
(0.0408265 -0.187811 2.64211e-22)
(0.0297467 -0.191806 0)
(0.018894 -0.193199 6.95441e-22)
(0.0108465 -0.194188 -3.80149e-22)
(0.00433058 -0.193649 -2.56973e-22)
(0.000614046 -0.193544 -6.22596e-23)
(0.0803347 -0.16007 -1.1323e-21)
(0.0719614 -0.165016 0)
(0.0628166 -0.183152 0)
(0.0521296 -0.191995 0)
(0.0397257 -0.198801 2.80047e-22)
(0.0292424 -0.204047 -5.43453e-22)
(0.0186777 -0.205524 -6.54383e-22)
(0.0107749 -0.207184 8.53939e-22)
(0.00428225 -0.206721 -6.02322e-23)
(0.000528417 -0.206764 1.21173e-22)
(0.0757246 -0.16973 -3.29363e-21)
(0.0691355 -0.176087 2.03968e-21)
(0.0602047 -0.19172 -2.02069e-21)
(0.0506234 -0.20281 -2.38592e-22)
(0.0386946 -0.208683 3.54054e-22)
(0.0286818 -0.215232 0)
(0.0184458 -0.216651 2.59595e-22)
(0.0106582 -0.218976 -3.17174e-23)
(0.00423234 -0.21853 1.51943e-22)
(0.000447594 -0.218759 4.68219e-23)
(0.0704038 -0.177805 -1.34061e-21)
(0.0659362 -0.187581 0)
(0.0574266 -0.199329 -1.41615e-21)
(0.04887 -0.213039 1.25216e-21)
(0.0376462 -0.217701 -2.2012e-22)
(0.0280475 -0.225537 8.30268e-23)
(0.0182435 -0.22679 -2.59005e-22)
(0.0105498 -0.229755 -4.88879e-23)
(0.0042141 -0.229289 -2.78022e-22)
(0.000373077 -0.229751 -9.14096e-23)
(0.0648128 -0.183392 -5.4182e-21)
(0.0621651 -0.199698 5.27623e-21)
(0.0545671 -0.206426 2.64199e-22)
(0.0467868 -0.222855 0)
(0.0364532 -0.226165 0)
(0.0272132 -0.235174 -8.57214e-23)
(0.0179255 -0.23617 -3.80896e-22)
(0.0103791 -0.23972 3.73519e-22)
(0.00418628 -0.239202 3.99723e-23)
(0.000299348 -0.239966 -3.90336e-23)
(0.0694862 -0.188859 0)
(0.0625592 -0.228528 0)
(0.0542256 -0.22297 0)
(0.0449832 -0.24545 0)
(0.034683 -0.245785 0)
(0.0250351 -0.257326 0)
(0.0163786 -0.257627 0)
(0.00916259 -0.262391 0)
(0.00364314 -0.261496 0)
(0.000184622 -0.262957 0)
(0.0529102 -0.238469 0)
(0.0454004 -0.273794 0)
(0.0416467 -0.264462 0)
(0.0337867 -0.285261 0)
(0.0273635 -0.282471 0)
(0.0196928 -0.294225 0)
(0.0134005 -0.292727 0)
(0.0074937 -0.298124 0)
(0.00317374 -0.296142 0)
(0.00024502 -0.298213 0)
(0.0475236 -0.285991 0)
(0.03881 -0.319366 0)
(0.034772 -0.307384 0)
(0.0272835 -0.327831 0)
(0.0221147 -0.322424 0)
(0.0156568 -0.334526 0)
(0.0109267 -0.331105 0)
(0.00609547 -0.336976 0)
(0.00278326 -0.333658 0)
(0.000213632 -0.336394 0)
(0.0411712 -0.338032 0)
(0.0325946 -0.370683 0)
(0.0289687 -0.356087 0)
(0.022075 -0.376811 0)
(0.0180206 -0.368904 0)
(0.0125286 -0.381659 0)
(0.00902063 -0.376254 0)
(0.00503265 -0.382775 0)
(0.00251577 -0.377991 0)
(0.000182632 -0.381592 0)
(0.0352984 -0.399272 0)
(0.0273016 -0.43182 0)
(0.0239691 -0.415136 0)
(0.0178423 -0.43649 0)
(0.0146981 -0.426421 0)
(0.0100651 -0.440099 0)
(0.00749636 -0.432857 0)
(0.00416 -0.440298 0)
(0.00224815 -0.434101 0)
(0.000132935 -0.438859 0)
(0.0297166 -0.473854 0)
(0.0223742 -0.50504 0)
(0.019514 -0.488291 0)
(0.014196 -0.509644 0)
(0.0118453 -0.498677 0)
(0.00790603 -0.512934 0)
(0.0060353 -0.504614 0)
(0.00316995 -0.512922 0)
(0.00178807 -0.505834 0)
(1.41152e-06 -0.511815 0)
(0.0230701 -0.560088 0)
(0.0175073 -0.586873 0)
(0.0151052 -0.573756 0)
(0.010879 -0.592888 0)
(0.00896822 -0.583418 0)
(0.00573479 -0.596639 0)
(0.00425432 -0.588891 0)
(0.00185874 -0.597055 0)
(0.00097407 -0.59029 0)
(-0.000201388 -0.59676 0)
(0.0180518 -0.645971 0)
(0.0131585 -0.665798 0)
(0.0110017 -0.658846 0)
(0.00739672 -0.672804 0)
(0.00601944 -0.667197 0)
(0.0033752 -0.677015 0)
(0.00233118 -0.671693 0)
(0.000414842 -0.677812 0)
(0.000118111 -0.67285 0)
(-0.000371848 -0.678093 0)
(0.0106667 -0.712285 0)
(0.00733588 -0.722579 0)
(0.00619436 -0.723073 0)
(0.00405802 -0.73116 0)
(0.00331911 -0.730445 0)
(0.00160153 -0.73553 0)
(0.000941139 -0.733374 0)
(-0.000283583 -0.736166 0)
(-0.000261343 -0.733644 0)
(-0.000327392 -0.736263 0)
(0.0024102 -0.744872 0)
(0.00177796 -0.753555 0)
(0.00166169 -0.756936 0)
(0.00129258 -0.761958 0)
(0.00102358 -0.762954 0)
(0.000527233 -0.765618 0)
(0.000222424 -0.764885 0)
(-0.000140937 -0.765978 0)
(-0.000151035 -0.764715 0)
(-0.000104624 -0.765847 0)
(0.0622997 -0.205523 8.47604e-21)
(0.0522526 -0.25516 -8.31604e-21)
(0.0486768 -0.303201 1.1459e-21)
(0.0427635 -0.356136 0)
(0.0374329 -0.417773 0)
(0.031823 -0.491052 1.39281e-21)
(0.0256348 -0.573211 -6.09405e-21)
(0.0195408 -0.650899 6.04792e-21)
(0.0121632 -0.712567 1.66994e-21)
(0.0037476 -0.740403 -1.64794e-21)
(0.0602051 -0.211863 -1.01283e-20)
(0.0525408 -0.260661 0)
(0.0492991 -0.308329 7.85873e-21)
(0.0435705 -0.361267 -1.82091e-20)
(0.0384342 -0.422908 1.18066e-20)
(0.0328119 -0.49567 -1.25681e-21)
(0.0267694 -0.57629 2.86193e-21)
(0.0202191 -0.652292 6.08789e-21)
(0.0128252 -0.711322 1.71854e-21)
(0.00432915 -0.739137 1.71267e-21)
(0.0590043 -0.218659 1.2219e-20)
(0.0535191 -0.26669 -8.74528e-21)
(0.0502993 -0.3134 8.66243e-21)
(0.0447237 -0.3658 -9.9427e-21)
(0.0396982 -0.427098 7.37336e-21)
(0.0340128 -0.499108 0)
(0.027897 -0.578134 -2.86908e-21)
(0.0209698 -0.652841 1.73857e-22)
(0.01334 -0.709222 -3.17754e-21)
(0.00462961 -0.737802 -3.31778e-21)
(0.0585835 -0.224796 -2.01247e-21)
(0.0550269 -0.272599 0)
(0.0517071 -0.3185 0)
(0.0462745 -0.370352 0)
(0.0412694 -0.431237 8.39609e-21)
(0.0354599 -0.502419 -5.60859e-21)
(0.0291124 -0.579883 -2.91885e-23)
(0.0218219 -0.652931 -3.478e-21)
(0.013777 -0.70719 -1.77895e-21)
(0.00473772 -0.735684 -1.90802e-21)
(0.058968 -0.230139 2.66811e-22)
(0.05694 -0.277594 -6.33524e-21)
(0.0534604 -0.322879 -4.97418e-21)
(0.0481712 -0.374394 4.97117e-21)
(0.0431117 -0.434979 -2.75029e-21)
(0.0371324 -0.505434 0)
(0.0304897 -0.581492 -3.2468e-21)
(0.0228067 -0.65272 7.13044e-21)
(0.0142647 -0.705275 -3.65591e-21)
(0.00481492 -0.732922 3.73074e-21)
(0.0602203 -0.23481 -1.73591e-20)
(0.059265 -0.281529 1.85317e-21)
(0.0555547 -0.326152 -3.91664e-22)
(0.0503719 -0.377431 5.1752e-21)
(0.0451849 -0.437807 0)
(0.0389983 -0.507664 0)
(0.0320425 -0.582534 0)
(0.0239385 -0.6521 3.85199e-21)
(0.0148808 -0.703237 0)
(0.00495541 -0.729837 0)
(0.0623572 -0.238739 0)
(0.0620473 -0.284461 7.34535e-21)
(0.0580418 -0.328316 -4.95176e-21)
(0.0528845 -0.379338 -5.88781e-21)
(0.0474898 -0.439503 5.91853e-21)
(0.041052 -0.508835 3.51689e-21)
(0.0337623 -0.582715 -3.49734e-21)
(0.0252128 -0.650917 -1.3787e-20)
(0.0156349 -0.700887 9.81872e-22)
(0.00517557 -0.726612 -3.37192e-21)
(0.0653684 -0.241732 0)
(0.0653114 -0.286364 -2.39928e-21)
(0.0609716 -0.32941 -1.37149e-21)
(0.0557368 -0.380149 0)
(0.0500555 -0.440067 1.72017e-21)
(0.0433153 -0.50891 -5.22259e-21)
(0.0356546 -0.581953 5.7758e-21)
(0.0266303 -0.64908 2.05494e-21)
(0.0165121 -0.698138 -2.26323e-21)
(0.00546145 -0.723265 4.4701e-21)
(0.069245 -0.243611 2.24249e-21)
(0.0690664 -0.287154 2.65694e-21)
(0.0643701 -0.329403 -5.97444e-22)
(0.0589474 -0.37988 7.89625e-22)
(0.0529125 -0.439533 1.65729e-21)
(0.0458171 -0.507948 2.77261e-21)
(0.0377344 -0.580306 -1.04178e-21)
(0.028191 -0.646613 -1.12415e-21)
(0.0174885 -0.695 2.27071e-21)
(0.00579211 -0.71976 1.23641e-21)
(0.0739837 -0.244227 -6.26055e-22)
(0.0733196 -0.286777 6.30787e-22)
(0.0682493 -0.328228 -7.13859e-22)
(0.0625234 -0.378505 -7.88667e-22)
(0.0560799 -0.4379 9.2993e-22)
(0.0485788 -0.505977 -1.89301e-21)
(0.0400272 -0.577804 1.5949e-21)
(0.0299152 -0.643521 5.67837e-22)
(0.0185699 -0.691473 0)
(0.00616713 -0.716038 -1.23914e-21)
(0.0795834 -0.243454 6.49913e-22)
(0.0780759 -0.285241 -6.55145e-22)
(0.0726177 -0.325835 -7.80837e-22)
(0.0664654 -0.376007 -8.64296e-22)
(0.0595714 -0.435144 -9.75171e-22)
(0.0516127 -0.503027 -6.58724e-23)
(0.042541 -0.574516 5.6733e-22)
(0.0317993 -0.639885 1.82305e-21)
(0.0197432 -0.68761 0)
(0.00657712 -0.712101 -1.36062e-21)
(0.086038 -0.241251 0)
(0.0833313 -0.2826 -3.01497e-21)
(0.0774853 -0.32222 5.4565e-21)
(0.0707737 -0.372401 8.65822e-22)
(0.0633946 -0.431267 2.0019e-21)
(0.0549253 -0.499065 3.24871e-21)
(0.0453039 -0.570369 -1.14674e-21)
(0.0338793 -0.635628 -1.23703e-21)
(0.0210438 -0.683356 2.74414e-21)
(0.00704162 -0.70791 1.35741e-21)
(0.0933325 -0.237709 0)
(0.0890792 -0.2789 -3.02509e-21)
(0.0828555 -0.317476 -1.64153e-21)
(0.0754437 -0.367731 0)
(0.0675673 -0.426295 -6.28999e-21)
(0.0585224 -0.494157 2.11429e-21)
(0.0482975 -0.565493 2.4817e-21)
(0.0361188 -0.630895 7.97395e-21)
(0.0224312 -0.678801 -2.73526e-21)
(0.00753498 -0.703506 5.92139e-21)
(0.101448 -0.232978 0)
(0.0953116 -0.274141 3.0511e-21)
(0.088726 -0.311691 0)
(0.0804907 -0.362007 8.1443e-21)
(0.0720892 -0.420331 -8.18602e-21)
(0.0624146 -0.488186 -4.90447e-21)
(0.0515733 -0.559682 -8.89321e-23)
(0.0385925 -0.625453 -8.21541e-21)
(0.0239816 -0.673785 -1.36866e-21)
(0.00810002 -0.69878 -7.36607e-21)
(0.110362 -0.227246 2.29829e-20)
(0.102027 -0.268314 -8.74071e-21)
(0.0950645 -0.305139 7.97203e-22)
(0.0858915 -0.355298 -7.73672e-21)
(0.0769913 -0.413453 0)
(0.0666157 -0.481327 -5.12907e-21)
(0.055051 -0.553281 -4.02278e-22)
(0.0411943 -0.619647 1.11836e-20)
(0.0255936 -0.668531 1.53328e-21)
(0.00867483 -0.693883 -1.53892e-21)
(0.120038 -0.220698 -1.84691e-21)
(0.109196 -0.261426 1.62271e-20)
(0.101871 -0.297695 8.08257e-21)
(0.0917402 -0.347339 -8.07708e-21)
(0.0822958 -0.40532 -4.77672e-21)
(0.0711908 -0.473268 0)
(0.0588723 -0.545727 -1.14733e-20)
(0.044111 -0.612924 5.75168e-21)
(0.0274337 -0.662696 6.12584e-21)
(0.00935358 -0.688607 6.58435e-21)
(0.130397 -0.213688 -3.22554e-21)
(0.116864 -0.253539 0)
(0.109106 -0.28955 0)
(0.0979652 -0.338786 0)
(0.0878712 -0.39681 -5.45997e-21)
(0.0759635 -0.465111 1.02191e-20)
(0.0627879 -0.538261 1.16982e-20)
(0.0470301 -0.606328 -1.83898e-20)
(0.0292261 -0.656874 3.28943e-21)
(0.00997094 -0.683283 -9.78038e-21)
(0.141332 -0.206183 -5.19101e-21)
(0.125138 -0.243975 1.58792e-20)
(0.116763 -0.280215 -1.57276e-20)
(0.104699 -0.328801 1.95269e-20)
(0.0939464 -0.386567 -2.45267e-20)
(0.0812959 -0.454943 0)
(0.0672975 -0.528784 -6.13351e-21)
(0.050514 -0.598164 -2.5775e-22)
(0.0314395 -0.650124 -6.84588e-21)
(0.0107954 -0.677348 -6.97865e-21)
(0.152504 -0.199487 -3.45055e-21)
(0.133726 -0.234939 0)
(0.124325 -0.272134 -2.07457e-20)
(0.111416 -0.320339 3.86602e-20)
(0.0998989 -0.378247 -1.48821e-20)
(0.0864041 -0.44698 -2.92801e-21)
(0.0714596 -0.521445 6.12053e-21)
(0.0535883 -0.591513 -3.10687e-22)
(0.0333017 -0.644047 9.9932e-21)
(0.0113755 -0.671669 1.0328e-20)
(0.164689 -0.189218 -1.52645e-20)
(0.144261 -0.221678 1.49184e-20)
(0.133318 -0.259436 2.21148e-21)
(0.119631 -0.306802 0)
(0.107285 -0.364382 0)
(0.092998 -0.433312 2.82719e-21)
(0.0771072 -0.509081 1.27677e-20)
(0.0580096 -0.581379 -1.24406e-20)
(0.0361512 -0.636128 -3.39395e-21)
(0.0124745 -0.66482 3.3329e-21)
(0.175703 -0.191603 0)
(0.165852 -0.216677 0)
(0.149859 -0.256571 0)
(0.134353 -0.302587 0)
(0.120408 -0.358977 0)
(0.10423 -0.425954 0)
(0.0862002 -0.499302 0)
(0.0646716 -0.569115 0)
(0.0401048 -0.622272 0)
(0.013301 -0.650798 0)
(0.197736 -0.171363 0)
(0.202639 -0.201251 0)
(0.177745 -0.245683 0)
(0.163276 -0.290658 0)
(0.146598 -0.346982 0)
(0.127342 -0.411917 0)
(0.105611 -0.481492 0)
(0.0795247 -0.546311 0)
(0.0497793 -0.59441 0)
(0.017664 -0.618576 0)
(0.230301 -0.150759 0)
(0.241062 -0.181179 0)
(0.207494 -0.225534 0)
(0.196521 -0.268757 0)
(0.175315 -0.324795 0)
(0.152593 -0.386619 0)
(0.126175 -0.452268 0)
(0.0945757 -0.513329 0)
(0.0585365 -0.559507 0)
(0.0190806 -0.584882 0)
(0.272616 -0.136359 0)
(0.285134 -0.165567 0)
(0.245159 -0.20899 0)
(0.238682 -0.251184 0)
(0.210654 -0.306415 0)
(0.184774 -0.363577 0)
(0.152602 -0.424368 0)
(0.11448 -0.479104 0)
(0.0714821 -0.518785 0)
(0.0255788 -0.537691 0)
(0.3241 -0.118828 0)
(0.335345 -0.146245 0)
(0.291038 -0.186549 0)
(0.286429 -0.22556 0)
(0.248061 -0.276139 0)
(0.218751 -0.326307 0)
(0.178218 -0.381527 0)
(0.132553 -0.43067 0)
(0.0812049 -0.468382 0)
(0.0254933 -0.490662 0)
(0.38861 -0.108368 0)
(0.396576 -0.133436 0)
(0.349362 -0.170329 0)
(0.342836 -0.205121 0)
(0.293465 -0.25036 0)
(0.262273 -0.293964 0)
(0.211437 -0.343306 0)
(0.157591 -0.383728 0)
(0.0975836 -0.413367 0)
(0.0361512 -0.425009 0)
(0.460538 -0.0865486 0)
(0.4607 -0.107224 0)
(0.410966 -0.138029 0)
(0.397566 -0.166258 0)
(0.33785 -0.203811 0)
(0.30309 -0.239029 0)
(0.235824 -0.279122 0)
(0.173857 -0.311206 0)
(0.102868 -0.341583 0)
(0.0283256 -0.364104 0)
(0.542904 -0.0745675 0)
(0.532453 -0.0903522 0)
(0.484141 -0.115295 0)
(0.459869 -0.136775 0)
(0.395735 -0.16681 0)
(0.352728 -0.193135 0)
(0.271785 -0.224445 0)
(0.205479 -0.25055 0)
(0.124955 -0.276149 0)
(0.0544002 -0.277782 0)
(0.606155 -0.0397289 0)
(0.585399 -0.0479693 0)
(0.53158 -0.0632606 0)
(0.494437 -0.074565 0)
(0.422528 -0.0926932 0)
(0.365818 -0.105937 0)
(0.271284 -0.124811 0)
(0.195121 -0.139627 0)
(0.0938733 -0.165181 0)
(-0.00545516 -0.210168 0)
(0.793927 -0.019715 0)
(0.767999 -0.023742 0)
(0.721917 -0.0298018 0)
(0.678845 -0.0353162 0)
(0.613941 -0.0434502 0)
(0.549909 -0.0510871 0)
(0.460141 -0.0628057 0)
(0.368387 -0.0768006 0)
(0.245512 -0.10496 0)
(0.165726 -0.159254 0)
(0.209195 -0.168114 1.62254e-20)
(0.23509 -0.144695 -1.5969e-20)
(0.268109 -0.125883 2.53608e-21)
(0.308906 -0.112976 0)
(0.359013 -0.0979108 0)
(0.420413 -0.0889913 3.61265e-21)
(0.489971 -0.0703569 -1.6845e-20)
(0.567437 -0.0612138 1.67027e-20)
(0.63291 -0.0313025 4.75207e-21)
(0.814421 -0.0165807 -4.77106e-21)
(0.218153 -0.158153 -1.55701e-20)
(0.243472 -0.133814 0)
(0.276371 -0.116024 1.76247e-20)
(0.31721 -0.103744 -4.21372e-20)
(0.367448 -0.089638 2.80663e-20)
(0.428643 -0.0813377 -3.30083e-21)
(0.498036 -0.0639108 7.15408e-21)
(0.574611 -0.0558442 1.58283e-20)
(0.641828 -0.0279114 4.40212e-21)
(0.82155 -0.0152628 4.26982e-21)
(0.226009 -0.146667 1.81758e-20)
(0.249802 -0.122509 -1.7211e-20)
(0.281805 -0.106069 1.70491e-20)
(0.322339 -0.0945134 -2.23365e-20)
(0.372596 -0.0814426 1.62818e-20)
(0.433831 -0.0738556 0)
(0.503262 -0.0577109 -7.17173e-21)
(0.579598 -0.0508256 -6.95601e-23)
(0.648923 -0.0248454 -8.25507e-21)
(0.827468 -0.0140246 -8.55249e-21)
(0.234713 -0.134323 -3.13661e-21)
(0.257665 -0.110931 0)
(0.288734 -0.0959442 0)
(0.328679 -0.0851979 0)
(0.378671 -0.0732593 1.81623e-20)
(0.439672 -0.0664901 -1.23084e-20)
(0.508927 -0.0517125 -3.75005e-22)
(0.584868 -0.0460891 -8.08332e-21)
(0.655825 -0.0220617 -4.16737e-21)
(0.833171 -0.0128712 -4.23374e-21)
(0.242982 -0.121563 2.78133e-21)
(0.265487 -0.0993193 -9.93951e-21)
(0.295836 -0.0857761 -9.55288e-21)
(0.33545 -0.0758829 9.5473e-21)
(0.385266 -0.0651304 -5.77306e-21)
(0.44607 -0.0592543 0)
(0.515125 -0.0458823 -7.10294e-21)
(0.590603 -0.0415401 1.56587e-20)
(0.662794 -0.0194668 -7.90492e-21)
(0.838806 -0.0117823 8.4827e-21)
(0.250353 -0.108463 -2.40044e-20)
(0.272348 -0.0877335 1.63195e-21)
(0.30183 -0.0756347 -1.27278e-21)
(0.341324 -0.066676 9.41528e-21)
(0.391111 -0.0571448 0)
(0.451909 -0.052214 0)
(0.520922 -0.0402471 0)
(0.596095 -0.0371598 7.56462e-21)
(0.66943 -0.0170143 0)
(0.844126 -0.0107451 0)
(0.256856 -0.0950579 0)
(0.27817 -0.0761214 1.1639e-20)
(0.306602 -0.0654828 -8.0126e-21)
(0.34594 -0.0575999 -1.05654e-20)
(0.395701 -0.0493228 1.06205e-20)
(0.456574 -0.045397 6.57869e-21)
(0.525679 -0.0348247 -6.28716e-21)
(0.600758 -0.0329623 -2.62051e-20)
(0.675301 -0.0147008 1.85974e-21)
(0.848852 -0.00975778 -6.18767e-21)
(0.26243 -0.0813868 0)
(0.282901 -0.0644482 -3.63777e-21)
(0.310365 -0.0552845 -2.1352e-21)
(0.349447 -0.0486135 0)
(0.399061 -0.0416259 3.10367e-21)
(0.46 -0.0387701 -9.04295e-21)
(0.529232 -0.0295929 1.04567e-20)
(0.604391 -0.0289415 3.92734e-21)
(0.68019 -0.0125233 -3.93349e-21)
(0.852857 -0.00882002 8.2739e-21)
(0.26693 -0.0674631 2.46278e-21)
(0.286454 -0.0527026 3.90252e-21)
(0.31313 -0.0450516 -7.46817e-22)
(0.351888 -0.0396688 1.22609e-21)