/*--------------------------------*- C++ -*----------------------------------*\
  =========                 |
  \\      /  F ield         | OpenFOAM: The Open Source CFD Toolbox
   \\    /   O peration     | Website:  https://openfoam.org
    \\  /    A nd           | Version:  7
     \\/     M anipulation  |
\*---------------------------------------------------------------------------*/
FoamFile
{
    version     2.0;
    format      ascii;
    class       volScalarField;
    location    "0.2625";
    object      p;
}
// * * * * * * * * * * * * * * * * * * * * * * * * * * * * * * * * * * * * * //

dimensions      [0 2 -2 0 0 0 0];

internalField   nonuniform List<scalar> 
400
(
5.76867e-06
-0.00589706
-0.013047
-0.0184917
-0.020514
-0.0183218
-0.0118515
-0.00154961
0.0117876
0.0271183
0.0432335
0.0588315
0.072604
0.0833463
0.090097
0.0923104
0.0900661
0.0842936
0.0769013
0.0710287
0.00583112
-0.000240246
-0.005774
-0.00948664
-0.0105346
-0.00836761
-0.00291211
0.00551701
0.0163249
0.0287089
0.0417205
0.0543311
0.0655093
0.0743164
0.0800186
0.0822148
0.080986
0.076991
0.0712605
0.0652445
0.0133982
0.00496578
-0.00100758
-0.00442401
-0.00527667
-0.00326859
0.00159649
0.00901924
0.0184903
0.0293334
0.0407452
0.051845
0.0617398
0.0696047
0.0747739
0.0768443
0.0758058
0.0720622
0.0658367
0.0574396
0.0202087
0.00859645
0.00120575
-0.00267563
-0.00373481
-0.0018993
0.00271699
0.00976943
0.0187641
0.0290776
0.0399732
0.0506337
0.060211
0.0678926
0.0729793
0.0749763
0.0737357
0.0694401
0.061667
0.0500017
0.0245951
0.00964927
0.000573234
-0.00398542
-0.00530753
-0.0035142
0.00116705
0.00832484
0.0174495
0.0279335
0.039066
0.0500474
0.0600229
0.0681361
0.0735959
0.0757653
0.07433
0.0692705
0.0596171
0.0444132
0.0253002
0.00700153
-0.00381592
-0.00904881
-0.0105126
-0.00850252
-0.00336048
0.00442318
0.0143037
0.0256654
0.0377959
0.0498808
0.061021
0.0702719
0.0767009
0.0794798
0.0780925
0.0723117
0.0606603
0.0417357
0.0212483
-0.000435197
-0.0129443
-0.0186926
-0.0200245
-0.0174116
-0.0113176
-0.00232201
0.00898416
0.0219654
0.0358938
0.0499229
0.0630849
0.0743125
0.082485
0.0865272
0.0856651
0.079421
0.0657728
0.0428812
0.011336
-0.0138146
-0.0278774
-0.033826
-0.0345898
-0.0308481
-0.0232059
-0.012342
0.00110334
0.0164771
0.0330398
0.0499141
0.0660563
0.0802552
0.0911597
0.0973804
0.0978016
0.0916016
0.0760818
0.0488801
-0.0057263
-0.0344857
-0.0498606
-0.0555049
-0.0550653
-0.0494962
-0.0395787
-0.0261034
-0.00975262
0.00882151
0.0288927
0.0495771
0.0697717
0.0881185
0.103002
0.112642
0.115464
0.110143
0.0930544
0.0611135
-0.0315536
-0.0641172
-0.0803899
-0.0849433
-0.0823817
-0.0740493
-0.0609571
-0.0440189
-0.02394
-0.00133192
0.0231431
0.0486495
0.0740728
0.0979361
0.118346
0.133055
0.139878
0.136747
0.118695
0.0815495
-0.0682772
-0.104864
-0.121292
-0.123501
-0.117461
-0.105086
-0.0876851
-0.0662997
-0.041618
-0.0141433
0.0156104
0.0469485
0.0788383
0.10976
0.137571
0.159503
0.172586
0.173672
0.155805
0.113061
-0.118889
-0.159632
-0.174827
-0.172637
-0.161077
-0.142878
-0.119718
-0.0927441
-0.0625515
-0.0294277
0.00638648
0.0444778
0.0840462
0.123675
0.161084
0.192992
0.215491
0.223923
0.208353
0.15994
-0.187941
-0.232518
-0.243805
-0.233797
-0.21361
-0.187096
-0.156326
-0.122464
-0.0858668
-0.0464453
-0.00399199
0.0415543
0.0898457
0.139813
0.189275
0.234591
0.270863
0.291448
0.282033
0.228821
-0.28306
-0.329537
-0.331638
-0.308107
-0.274623
-0.236384
-0.195721
-0.153575
-0.109808
-0.0637138
-0.0144066
0.0388925
0.0965761
0.158282
0.222351
0.285203
0.341167
0.381282
0.385113
0.330528
-0.418182
-0.459743
-0.442068
-0.395623
-0.342068
-0.287705
-0.23459
-0.182906
-0.131584
-0.0789534
-0.0231753
0.0375207
0.104601
0.17888
0.259883
0.344934
0.428408
0.499312
0.529621
0.483719
-0.619421
-0.636577
-0.578329
-0.494078
-0.411223
-0.33565
-0.267773
-0.205965
-0.14752
-0.0893527
-0.028382
0.0384079
0.11388
0.200553
0.300051
0.412064
0.532937
0.651427
0.732446
0.720598
-0.935594
-0.878175
-0.741678
-0.598051
-0.474385
-0.372621
-0.28884
-0.217734
-0.153921
-0.0924245
-0.0286723
0.041756
0.123339
0.220805
0.339005
0.482247
0.652268
0.841652
1.01496
1.09628
-1.48059
-1.20195
-0.920995
-0.692542
-0.517672
-0.387696
-0.290189
-0.21342
-0.148157
-0.087205
-0.0245236
0.0455632
0.129105
0.233302
0.367366
0.543126
0.772633
1.06029
1.39819
1.73407
-2.57157
-1.60192
-1.04346
-0.714824
-0.497794
-0.353382
-0.255524
-0.184278
-0.126591
-0.0737791
-0.0192052
0.0430691
0.119767
0.219656
0.356008
0.549826
0.829816
1.23508
1.88111
2.95926
-4.4451
-2.01726
-0.969792
-0.564334
-0.35704
-0.239029
-0.169351
-0.123292
-0.0871797
-0.0533646
-0.0166727
0.027518
0.0843026
0.161198
0.271582
0.441366
0.718808
1.2215
2.38403
4.9294
)
;

boundaryField
{
    movingWall
    {
        type            zeroGradient;
    }
    fixedWalls
    {
        type            zeroGradient;
    }
    frontAndBack
    {
        type            empty;
    }
}


// ************************************************************************* //
