/*--------------------------------*- C++ -*----------------------------------*\
  =========                 |
  \\      /  F ield         | OpenFOAM: The Open Source CFD Toolbox
   \\    /   O peration     | Website:  https://openfoam.org
    \\  /    A nd           | Version:  7
     \\/     M anipulation  |
\*---------------------------------------------------------------------------*/
FoamFile
{
    version     2.0;
    format      ascii;
    class       surfaceScalarField;
    location    "0.2625";
    object      phi;
}
// * * * * * * * * * * * * * * * * * * * * * * * * * * * * * * * * * * * * * //

dimensions      [0 3 -1 0 0 0 0];

internalField   nonuniform List<scalar> 
760
(
1.42665e-08
-1.42969e-08
-2.23548e-08
3.66214e-08
-1.14287e-07
9.19324e-08
-2.45427e-07
1.3114e-07
-3.95998e-07
1.5057e-07
-5.47248e-07
1.5125e-07
-6.83057e-07
1.3581e-07
-7.90515e-07
1.07458e-07
-8.60048e-07
6.9533e-08
-8.85475e-07
2.54268e-08
-8.64152e-07
-2.13232e-08
-7.97226e-07
-6.69268e-08
-6.89933e-07
-1.07293e-07
-5.51836e-07
-1.38096e-07
-3.9683e-07
-1.55006e-07
-2.42679e-07
-1.54151e-07
-1.09761e-07
-1.32918e-07
-1.85779e-08
-9.11833e-08
1.57742e-08
-3.43524e-08
1.5774e-08
-3.43554e-08
2.00585e-08
-1.80426e-07
1.82692e-07
-4.34043e-07
3.45549e-07
-7.64347e-07
4.61445e-07
-1.13192e-06
5.18148e-07
-1.49675e-06
5.16075e-07
-1.82265e-06
4.61715e-07
-2.0797e-06
3.64505e-07
-2.24534e-06
2.35168e-07
-2.30505e-06
8.51435e-08
-2.25293e-06
-7.34483e-08
-2.09215e-06
-2.27701e-07
-1.8355e-06
-3.63942e-07
-1.50548e-06
-4.68124e-07
-1.13374e-06
-5.26741e-07
-7.59407e-07
-5.28485e-07
-4.25448e-07
-4.66877e-07
-1.72746e-07
-3.43885e-07
-3.10008e-08
-1.76097e-07
-1.5227e-08
-9.20653e-08
1.12124e-07
-3.56873e-07
4.475e-07
-7.64387e-07
7.53062e-07
-1.26817e-06
9.65227e-07
-1.81418e-06
1.06416e-06
-2.34831e-06
1.05021e-06
-2.8215e-06
9.34905e-07
-3.19285e-06
7.3585e-07
-3.4314e-06
4.7372e-07
-3.51725e-06
1.7099e-07
-3.44231e-06
-1.48381e-07
-3.21107e-06
-4.58943e-07
-2.84106e-06
-7.33954e-07
-2.36295e-06
-9.46231e-07
-1.8197e-06
-1.07e-06
-1.2641e-06
-1.08408e-06
-7.54316e-07
-9.76661e-07
-3.46837e-07
-7.51363e-07
-8.71723e-08
-4.35762e-07
-1.024e-07
-1.45084e-07
2.57208e-07
-5.25254e-07
8.27669e-07
-1.08129e-06
1.3091e-06
-1.74698e-06
1.63091e-06
-2.45357e-06
1.77075e-06
-3.13539e-06
1.73203e-06
-3.7341e-06
1.53361e-06
-4.20155e-06
1.2033e-06
-4.50144e-06
7.73609e-07
-4.61038e-06
2.79932e-07
-4.5187e-06
-2.40055e-07
-4.23124e-06
-7.46402e-07
-3.76801e-06
-1.19719e-06
-3.16448e-06
-1.54976e-06
-2.47096e-06
-1.76351e-06
-1.75042e-06
-1.80462e-06
-1.0741e-06
-1.65298e-06
-5.14902e-07
-1.31056e-06
-1.39176e-07
-8.11487e-07
-2.41575e-07
-1.93513e-07
4.50721e-07
-6.84749e-07
1.31891e-06
-1.38516e-06
2.00951e-06
-2.20652e-06
2.45227e-06
-3.06447e-06
2.62871e-06
-3.88252e-06
2.55008e-06
-4.59502e-06
2.24611e-06
-5.14891e-06
1.75719e-06
-5.50463e-06
1.12933e-06
-5.63663e-06
4.11924e-07
-5.53384e-06
-3.42843e-07
-5.20051e-06
-1.07973e-06
-4.65714e-06
-1.74055e-06
-3.94143e-06
-2.26548e-06
-3.10846e-06
-2.59649e-06
-2.22958e-06
-2.6835e-06
-1.38905e-06
-2.49351e-06
-6.78192e-07
-2.02142e-06
-1.87646e-07
-1.30203e-06
-4.29221e-07
-2.39834e-07
6.90555e-07
-8.40035e-07
1.91911e-06
-1.68269e-06
2.85216e-06
-2.65613e-06
3.42572e-06
-3.65959e-06
3.63217e-06
-4.60623e-06
3.49672e-06
-5.42457e-06
3.06445e-06
-6.05858e-06
2.3912e-06
-6.46722e-06
1.53797e-06
-6.62381e-06
5.68519e-07
-6.51604e-06
-4.50617e-07
-6.14655e-06
-1.44922e-06
-5.5344e-06
-2.3527e-06
-4.717e-06
-3.08289e-06
-3.75184e-06
-3.56164e-06
-2.71725e-06
-3.71809e-06
-1.71074e-06
-3.50002e-06
-8.44248e-07
-2.88791e-06
-2.36029e-07
-1.91025e-06
-6.65249e-07
-2.86603e-07
9.77158e-07
-9.96681e-07
2.62919e-06
-1.98132e-06
3.8368e-06
-3.1038e-06
4.5482e-06
-4.24645e-06
4.77482e-06
-5.31301e-06
4.56328e-06
-6.22805e-06
3.97949e-06
-6.9349e-06
3.09805e-06
-7.39305e-06
1.99612e-06
-7.57607e-06
7.51534e-07
-7.47053e-06
-5.5615e-07
-7.07648e-06
-1.84328e-06
-6.40933e-06
-3.01985e-06
-5.50322e-06
-3.989e-06
-4.41501e-06
-4.64985e-06
-3.22776e-06
-4.90534e-06
-2.05187e-06
-4.67591e-06
-1.02196e-06
-3.91782e-06
-2.88067e-07
-2.64415e-06
-9.53316e-07
-3.36134e-07
1.31329e-06
-1.15984e-06
3.45289e-06
-2.28705e-06
4.964e-06
-3.55359e-06
5.81473e-06
-4.82483e-06
6.04607e-06
-5.99697e-06
5.73542e-06
-6.9937e-06
4.97622e-06
-7.76099e-06
3.86535e-06
-8.2618e-06
2.49692e-06
-8.47179e-06
9.61525e-07
-8.37703e-06
-6.5091e-07
-7.9739e-06
-2.2464e-06
-7.2716e-06
-3.72215e-06
-6.29711e-06
-4.96348e-06
-5.10213e-06
-5.84483e-06
-3.77045e-06
-6.23701e-06
-2.42343e-06
-6.02293e-06
-1.21994e-06
-5.12131e-06
-3.47395e-07
-3.51669e-06
-1.30071e-06
-3.90678e-07
1.70397e-06
-1.33418e-06
4.39639e-06
-2.60374e-06
6.23357e-06
-4.00423e-06
7.21522e-06
-5.38472e-06
7.42656e-06
-6.63739e-06
6.98808e-06
-7.68988e-06
6.02871e-06
-8.49576e-06
4.67123e-06
-9.02557e-06
3.02673e-06
-9.25993e-06
1.19588e-06
-9.1855e-06
-7.25333e-07
-8.7942e-06
-2.63771e-06
-8.08601e-06
-4.43034e-06
-7.0757e-06
-5.97379e-06
-5.80322e-06
-7.11731e-06
-4.3464e-06
-7.69384e-06
-2.83286e-06
-7.53647e-06
-1.44595e-06
-6.50822e-06
-4.17643e-07
-4.545e-06
-1.71835e-06
-4.53059e-07
2.15703e-06
-1.52473e-06
5.46806e-06
-2.93331e-06
7.64215e-06
-4.44805e-06
8.72995e-06
-5.90394e-06
8.88246e-06
-7.19525e-06
8.2794e-06
-8.261e-06
7.09446e-06
-9.06933e-06
5.47956e-06
-9.60404e-06
3.56144e-06
-9.85463e-06
1.44647e-06
-9.81026e-06
-7.69697e-07
-9.45799e-06
-2.98997e-06
-8.78551e-06
-5.10282e-06
-7.78928e-06
-6.97002e-06
-6.48856e-06
-8.41804e-06
-4.94468e-06
-9.23771e-06
-3.28254e-06
-9.1986e-06
-1.70709e-06
-8.08367e-06
-5.02936e-07
-5.74916e-06
-2.22129e-06
-5.27796e-07
2.68482e-06
-1.73838e-06
6.67865e-06
-3.27597e-06
9.17974e-06
-4.86916e-06
1.03231e-05
-6.34434e-06
1.03576e-05
-7.60812e-06
9.54318e-06
-8.6217e-06
8.10804e-06
-9.37708e-06
6.23493e-06
-9.87836e-06
4.06273e-06
-1.01288e-05
1.6969e-06
-1.01228e-05
-7.75668e-07
-9.84306e-06
-3.26974e-06
-9.26235e-06
-5.68353e-06
-8.35237e-06
-7.88e-06
-7.10057e-06
-9.66984e-06
-5.53675e-06
-1.08015e-05
-3.76741e-06
-1.09679e-05
-2.01002e-06
-9.84106e-06
-6.08799e-07
-7.15038e-06
-2.83009e-06
-6.23007e-07
3.30783e-06
-1.98574e-06
8.04138e-06
-3.62943e-06
1.08234e-05
-5.23908e-06
1.19328e-05
-6.64473e-06
1.17633e-05
-7.78183e-06
1.06803e-05
-8.64861e-06
8.97482e-06
-9.27211e-06
6.85843e-06
-9.68443e-06
4.47505e-06
-9.90766e-06
1.92012e-06
-9.94485e-06
-7.38474e-07
-9.77582e-06
-3.43877e-06
-9.35761e-06
-6.10174e-06
-8.63177e-06
-8.60584e-06
-7.54208e-06
-1.07595e-05
-6.06713e-06
-1.22765e-05
-4.27028e-06
-1.27648e-05
-2.36091e-06
-1.17504e-05
-7.43692e-07
-8.7676e-06
-3.57378e-06
-7.53525e-07
4.06136e-06
-2.28244e-06
9.5703e-06
-3.98412e-06
1.25251e-05
-5.50602e-06
1.34547e-05
-6.70683e-06
1.29641e-05
-7.57626e-06
1.15497e-05
-8.16823e-06
9.5668e-06
-8.55619e-06
7.24638e-06
-8.80651e-06
4.72538e-06
-8.96387e-06
2.07748e-06
-9.043e-06
-6.59342e-07
-9.02398e-06
-3.45779e-06
-8.85021e-06
-6.27551e-06
-8.43167e-06
-9.02437e-06
-7.65898e-06
-1.15322e-05
-6.43753e-06
-1.34979e-05
-4.75189e-06
-1.44504e-05
-2.76368e-06
-1.37386e-05
-9.21481e-07
-1.06098e-05
-4.49526e-06
-9.45599e-07
5.00696e-06
-2.64683e-06
1.12715e-05
-4.308e-06
1.41863e-05
-5.57037e-06
1.47171e-05
-6.36841e-06
1.37621e-05
-6.78175e-06
1.1963e-05
-6.93964e-06
9.72469e-06
-6.96939e-06
7.27614e-06
-6.97277e-06
4.72876e-06
-7.01662e-06
2.12133e-06
-7.12863e-06
-5.47335e-07
-7.29345e-06
-3.29297e-06
-7.44774e-06
-6.12123e-06
-7.47616e-06
-8.99595e-06
-7.21524e-06
-1.17931e-05
-6.47915e-06
-1.4234e-05
-5.12954e-06
-1.58e-05
-3.21252e-06
-1.56557e-05
-1.16471e-06
-1.26576e-05
-5.65997e-06
-1.24108e-06
6.24803e-06
-3.08337e-06
1.31138e-05
-4.50545e-06
1.56084e-05
-5.23248e-06
1.54441e-05
-5.35415e-06
1.38838e-05
-5.08167e-06
1.16906e-05
-4.63148e-06
9.2745e-06
-4.18041e-06
6.82507e-06
-3.85591e-06
4.40426e-06
-3.7388e-06
2.00422e-06
-3.86695e-06
-4.19184e-07
-4.2343e-06
-2.92563e-06
-4.78334e-06
-5.57218e-06
-5.39169e-06
-8.38761e-06
-5.85826e-06
-1.13266e-05
-5.90538e-06
-1.41869e-05
-5.2312e-06
-1.64742e-05
-3.66687e-06
-1.722e-05
-1.50479e-06
-1.48197e-05
-7.16477e-06
-1.68689e-06
7.93493e-06
-3.51915e-06
1.49461e-05
-4.31566e-06
1.64049e-05
-4.08913e-06
1.52176e-05
-3.19418e-06
1.29889e-05
-2.00061e-06
1.0497e-05
-7.97632e-07
8.07152e-06
2.16353e-07
5.81108e-06
9.14919e-07
3.7057e-06
1.22203e-06
1.6971e-06
1.09829e-06
-2.95439e-07
5.37189e-07
-2.36453e-06
-4.26771e-07
-4.60822e-06
-1.69626e-06
-7.11812e-06
-3.0759e-06
-9.94693e-06
-4.23412e-06
-1.30287e-05
-4.6996e-06
-1.60087e-05
-3.97652e-06
-1.79431e-05
-1.96095e-06
-1.68352e-05
-9.12572e-06
-2.2713e-06
1.02062e-05
-3.60891e-06
1.62837e-05
-3.0827e-06
1.58787e-05
-1.34764e-06
1.34825e-05
8.92841e-07
1.07484e-05
3.15055e-06
8.23928e-06
5.13352e-06
6.08855e-06
6.68393e-06
4.26067e-06
7.72087e-06
2.66875e-06
8.20137e-06
1.2166e-06
8.09835e-06
-1.92422e-07
7.39314e-06
-1.65932e-06
6.08056e-06
-3.29563e-06
4.19238e-06
-5.22994e-06
1.84661e-06
-7.60116e-06
-6.70421e-07
-1.05116e-05
-2.80423e-06
-1.38749e-05
-3.68946e-06
-1.70578e-05
-2.46026e-06
-1.80645e-05
-1.1586e-05
-2.69695e-06
1.29032e-05
-2.20743e-06
1.57942e-05
7.13874e-07
1.29574e-05
4.46378e-06
9.7326e-06
8.12624e-06
7.08591e-06
1.12944e-05
5.0711e-06
1.38222e-05
3.56079e-06
1.56814e-05
2.40142e-06
1.68851e-05
1.46508e-06
1.74482e-05
6.53511e-07
1.73693e-05
-1.13542e-07
1.66229e-05
-9.12871e-07
1.51588e-05
-1.83155e-06
1.29143e-05
-2.98548e-06
9.85195e-06
-4.53878e-06
6.05182e-06
-6.71151e-06
1.90021e-06
-9.72332e-06
-1.59532e-06
-1.35623e-05
-2.59407e-06
-1.70657e-05
-1.418e-05
-5.79036e-07
1.34822e-05
4.12017e-06
1.1095e-05
1.02998e-05
6.77771e-06
1.57883e-05
4.24412e-06
2.01501e-05
2.72413e-06
2.34496e-05
1.77157e-06
2.58529e-05
1.15753e-06
2.75143e-05
7.40037e-07
2.85472e-05
4.32186e-07
2.90194e-05
1.81221e-07
2.89552e-05
-4.92615e-08
2.8331e-05
-2.88662e-07
2.70731e-05
-5.73699e-07
2.50456e-05
-9.58013e-07
2.2043e-05
-1.53611e-06
1.78101e-05
-2.47869e-06
1.21751e-05
-4.08829e-06
5.52158e-06
-6.90877e-06
9.59201e-08
-1.164e-05
-1.40841e-05
1.34822e-05
2.45772e-05
3.13549e-05
3.5599e-05
3.83231e-05
4.00947e-05
4.12522e-05
4.19923e-05
4.24244e-05
4.26057e-05
4.25564e-05
4.22677e-05
4.1694e-05
4.0736e-05
3.91999e-05
3.67212e-05
3.26329e-05
2.57242e-05
1.40841e-05
)
;

boundaryField
{
    movingWall
    {
        type            calculated;
        value           uniform 0;
    }
    fixedWalls
    {
        type            calculated;
        value           uniform 0;
    }
    frontAndBack
    {
        type            empty;
        value           nonuniform 0();
    }
}


// ************************************************************************* //
