/*--------------------------------*- C++ -*----------------------------------*\
  =========                 |
  \\      /  F ield         | OpenFOAM: The Open Source CFD Toolbox
   \\    /   O peration     | Website:  https://openfoam.org
    \\  /    A nd           | Version:  7
     \\/     M anipulation  |
\*---------------------------------------------------------------------------*/
FoamFile
{
    version     2.0;
    format      ascii;
    class       volVectorField;
    location    "89.9";
    object      U;
}
// * * * * * * * * * * * * * * * * * * * * * * * * * * * * * * * * * * * * * //

dimensions      [0 1 -1 0 0 0 0];

internalField   nonuniform List<vector> 
2000
(
(-0.00010834 -0.00488761 -2.00187e-22)
(9.48814e-06 -0.0115886 0)
(0.000478587 -0.015462 0)
(0.0012485 -0.0169365 -1.02514e-21)
(0.00227037 -0.0162858 3.33279e-22)
(0.00352044 -0.0136906 1.32875e-23)
(0.00499688 -0.00927918 -5.73769e-22)
(0.00670392 -0.00316383 0)
(0.008642 0.00453242 0)
(0.0107008 0.0136595 0)
(0.000361519 -0.00473824 0)
(0.00133242 -0.0116083 -7.82094e-22)
(0.00255511 -0.0157011 7.21247e-22)
(0.00384977 -0.0174198 1.3695e-21)
(0.00517692 -0.0170453 0)
(0.00652351 -0.0147756 1.25241e-21)
(0.00790263 -0.0107489 -1.16466e-21)
(0.00934007 -0.00506835 0)
(0.0108729 0.0021766 2.14286e-21)
(0.0124022 0.0108862 -4.12628e-21)
(0.000871703 -0.00467108 0)
(0.00284328 -0.0117258 6.24541e-21)
(0.00499436 -0.0159904 0)
(0.00697958 -0.0178908 5.58253e-21)
(0.00876886 -0.0177265 0)
(0.0103605 -0.0157219 -5.03645e-21)
(0.0117824 -0.0120329 0)
(0.0130806 -0.00676164 4.5749e-21)
(0.0143291 3.08478e-05 -4.28468e-21)
(0.0154376 0.00828671 -4.20442e-21)
(0.0014535 -0.00470782 -1.62369e-21)
(0.004583 -0.0119644 -3.11896e-21)
(0.00782133 -0.0163415 -1.4604e-21)
(0.0106417 -0.0183457 -2.74209e-21)
(0.0130285 -0.0183077 -2.62363e-21)
(0.0149965 -0.0164864 2.47803e-21)
(0.016592 -0.0130626 2.37893e-21)
(0.0178814 -0.00814533 -2.54278e-23)
(0.0189742 -0.00177403 4.32435e-21)
(0.0197895 0.00602322 4.20246e-21)
(0.00214187 -0.00486086 -1.59518e-21)
(0.00659168 -0.0123322 -3.18138e-21)
(0.0110498 -0.0167527 -6.04099e-21)
(0.0148148 -0.0187746 2.77918e-21)
(0.0178969 -0.0187722 0)
(0.0203377 -0.0170444 0)
(0.0222092 -0.013802 -4.88606e-21)
(0.0236009 -0.00916679 -4.63717e-21)
(0.0246559 -0.00316248 4.37888e-21)
(0.0253056 0.00420001 1.26457e-20)
(0.00297241 -0.00512908 1.62228e-21)
(0.00890229 -0.0128154 1.65293e-21)
(0.014675 -0.0172054 -8.96179e-21)
(0.0194459 -0.0191606 1.42328e-20)
(0.0232688 -0.0191088 -2.65328e-21)
(0.0262266 -0.0173932 0)
(0.0284277 -0.0142558 0)
(0.0299919 -0.00983416 2.30873e-20)
(0.0310937 -0.00413857 -2.18553e-20)
(0.0316789 0.00282897 4.15314e-21)
(0.00397662 -0.00549555 1.26458e-20)
(0.0115336 -0.0133781 0)
(0.0186672 -0.0176644 1.19765e-20)
(0.0244466 -0.0194787 -1.13607e-20)
(0.0289921 -0.0193114 0)
(0.0324455 -0.0175506 5.16458e-21)
(0.034966 -0.0144693 -1.4483e-20)
(0.0367134 -0.01022 -1.84419e-20)
(0.0378934 -0.00479787 8.65487e-21)
(0.0384645 0.00180881 8.40589e-21)
(0.00517701 -0.00592802 -2.52926e-20)
(0.0144829 -0.0139637 -3.2236e-21)
(0.0229669 -0.0180789 -6.07381e-21)
(0.0296922 -0.019698 -1.42783e-20)
(0.0348737 -0.0193781 -5.46379e-21)
(0.0387313 -0.0175511 -5.15787e-21)
(0.0414898 -0.014519 4.28539e-23)
(0.0433615 -0.0104488 0)
(0.0445901 -0.00531676 0)
(0.0451412 0.000928338 3.99495e-23)
(0.00658254 -0.00638122 1.26471e-20)
(0.0177203 -0.0144998 -1.28562e-20)
(0.0274817 -0.0183888 9.03069e-21)
(0.0350258 -0.0197851 2.00984e-20)
(0.0406917 -0.019312 -5.36133e-21)
(0.0447978 -0.0174389 5.15581e-21)
(0.0476465 -0.0144943 4.86137e-21)
(0.0495145 -0.0106628 0)
(0.0506997 -0.00590455 0)
(0.0511865 -9.84387e-05 -1.9797e-22)
(0.00818546 -0.00680141 -1.59278e-21)
(0.0211844 -0.0149052 1.61313e-20)
(0.0320871 -0.0185317 -3.01813e-21)
(0.0402647 -0.0197114 0)
(0.0462129 -0.0191239 0)
(0.0503667 -0.0172647 1.02037e-20)
(0.0531146 -0.0144798 0)
(0.0547992 -0.0109762 -8.95918e-21)
(0.0557822 -0.00672754 1.2899e-23)
(0.0561127 -0.00156705 8.02338e-21)
(0.0148373 0.0367991 1.57133e-22)
(0.0260048 0.0898534 -1.58895e-22)
(0.034496 0.146232 -1.77929e-22)
(0.0363807 0.198664 -2.00288e-22)
(0.0327272 0.250105 -2.43932e-22)
(0.0290497 0.304422 -8.92544e-24)
(0.0183167 0.366795 1.27652e-22)
(0.0154829 0.453078 4.58082e-22)
(-0.00297615 0.584934 0)
(0.00450915 0.742536 -3.34286e-22)
(0.0147855 0.0332471 6.08881e-22)
(0.0235429 0.0853227 -6.81718e-22)
(0.0320863 0.14348 1.21599e-21)
(0.034407 0.197788 2.00616e-22)
(0.0311845 0.250473 4.32701e-22)
(0.0278256 0.305603 7.4338e-22)
(0.0175742 0.368506 -2.76505e-22)
(0.0148308 0.455128 -3.07514e-22)
(-0.00284373 0.586347 5.93618e-22)
(0.0041096 0.742354 3.33497e-22)
(0.0161661 0.0296822 0)
(0.0218092 0.0800718 -6.64994e-22)
(0.0300438 0.139647 -3.51844e-22)
(0.0326952 0.195906 0)
(0.0298496 0.249959 -1.33287e-21)
(0.0267876 0.30599 4.17193e-22)
(0.0169623 0.369445 4.65971e-22)
(0.0142668 0.456353 1.65957e-21)
(-0.00268262 0.587281 -5.91694e-22)
(0.00375484 0.741998 1.20479e-21)
(0.0190518 0.0263032 0)
(0.0209475 0.0743295 6.70564e-22)
(0.0283905 0.134782 0)
(0.0312359 0.193004 1.56205e-21)
(0.0287082 0.248554 -1.57017e-21)
(0.0259196 0.305583 -9.46318e-22)
(0.0164664 0.369599 -5.45625e-23)
(0.0137992 0.45674 -1.62769e-21)
(-0.0024957 0.587546 -2.65107e-22)
(0.00342472 0.741296 -1.48106e-21)
(0.0233679 0.0232698 3.59027e-23)
(0.021111 0.0683686 -1.92047e-21)
(0.0271631 0.128984 5.24595e-23)
(0.0300218 0.189092 -1.41397e-21)
(0.0277452 0.246258 0)
(0.0252039 0.304401 -9.05839e-22)
(0.0160709 0.369037 -7.53079e-23)
(0.0134126 0.456475 2.04317e-21)
(-0.00230326 0.587461 2.68639e-22)
(0.00312024 0.740542 -2.69626e-22)
(0.0288431 0.0206668 -5.18983e-21)
(0.0224057 0.062471 3.28847e-21)
(0.0264152 0.122406 1.38995e-21)
(0.0290495 0.184201 -1.38929e-21)
(0.0269478 0.243072 -7.48012e-22)
(0.0246295 0.302428 0)
(0.0157751 0.367684 -1.81257e-21)
(0.0131174 0.455312 9.10887e-22)
(-0.00209713 0.586472 9.86242e-22)
(0.00282093 0.739333 1.03035e-21)
(0.0349978 0.0184942 -6.23708e-22)
(0.0248086 0.0568958 0)
(0.0262061 0.115262 0)
(0.0283203 0.17839 0)
(0.0262989 0.239034 -7.9556e-22)
(0.0241754 0.299791 1.54122e-21)
(0.0155537 0.36584 1.76827e-21)
(0.0128685 0.453892 -2.75851e-21)
(-0.00191471 0.585631 4.85342e-22)
(0.00254869 0.738356 -1.50115e-21)
(0.0411741 0.0166479 3.9039e-21)
(0.0280822 0.0517457 2.68825e-21)
(0.02656 0.10778 -2.66368e-21)
(0.0278381 0.171769 2.80652e-21)
(0.0257963 0.234069 -3.48297e-21)
(0.0238437 0.296185 0)
(0.0154327 0.362882 -7.97737e-22)
(0.0127283 0.451011 3.90979e-23)
(-0.00170362 0.583166 -8.74622e-22)
(0.00226217 0.736593 -9.29229e-22)
(0.046559 0.0147457 -3.31092e-21)
(0.0317256 0.046636 0)
(0.0274264 0.0997719 -2.99784e-21)
(0.0275762 0.164375 5.38029e-21)
(0.0254002 0.228694 -1.99967e-21)
(0.023589 0.292695 -3.6425e-22)
(0.0153314 0.360523 7.96005e-22)
(0.0125462 0.449371 1.04864e-23)
(-0.00158216 0.582337 1.26569e-21)
(0.00201595 0.735668 1.34852e-21)
(0.050159 0.0126575 -2.6924e-21)
(0.0350251 0.0415706 2.63359e-21)
(0.0286953 0.0909723 3.34452e-22)
(0.0276371 0.154785 0)
(0.0251318 0.220253 0)
(0.0234751 0.285839 3.59238e-22)
(0.0154303 0.354471 1.51263e-21)
(0.0126357 0.443397 -1.46947e-21)
(-0.00132866 0.57745 -3.95526e-22)
(0.00172362 0.73313 3.8243e-22)
(0.0519249 0.0137251 0)
(0.039411 0.0399046 0)
(0.0310109 0.0850042 0)
(0.0284621 0.149225 0)
(0.025263 0.217684 0)
(0.0228048 0.286068 0)
(0.0148548 0.356449 0)
(0.011689 0.446693 0)
(-0.00151172 0.579885 0)
(0.00120348 0.73228 0)
(0.053418 0.0278312 0)
(0.0429172 0.0573778 0)
(0.032552 0.0973787 0)
(0.0278839 0.155444 0)
(0.024443 0.222024 0)
(0.0216793 0.290886 0)
(0.0142284 0.362834 0)
(0.0106797 0.454372 0)
(-0.001348 0.585845 0)
(0.00076396 0.732154 0)
(0.0505173 0.0315454 0)
(0.0438657 0.0656167 0)
(0.0341648 0.105891 0)
(0.0278607 0.161579 0)
(0.0236251 0.22717 0)
(0.0204535 0.296048 0)
(0.0134858 0.368651 0)
(0.00972279 0.460442 0)
(-0.00123046 0.590197 0)
(0.000434352 0.731593 0)
(0.0457124 0.0336473 0)
(0.0421232 0.0717706 0)
(0.0344103 0.112901 0)
(0.027847 0.167058 0)
(0.0230534 0.232157 0)
(0.0194593 0.3018 0)
(0.0128632 0.37589 0)
(0.00898167 0.468591 0)
(-0.000906325 0.596383 0)
(0.00027279 0.731717 0)
(0.0404077 0.0340464 0)
(0.038937 0.0762713 0)
(0.0332649 0.11911 0)
(0.027306 0.172215 0)
(0.0224494 0.236308 0)
(0.0186281 0.305922 0)
(0.0123173 0.380577 0)
(0.00829779 0.47344 0)
(-0.000817023 0.599753 0)
(6.94569e-05 0.731078 0)
(0.0348219 0.0329537 0)
(0.0350411 0.0789703 0)
(0.0311135 0.124162 0)
(0.0260615 0.177308 0)
(0.0215648 0.24114 0)
(0.0178258 0.311417 0)
(0.0119184 0.387522 0)
(0.007853 0.481325 0)
(-0.000465845 0.605627 0)
(5.38942e-06 0.73112 0)
(0.0291808 0.0305551 0)
(0.0309678 0.080139 0)
(0.028729 0.128043 0)
(0.0246502 0.181518 0)
(0.0205572 0.244669 0)
(0.0169691 0.314595 0)
(0.011431 0.39086 0)
(0.00736949 0.484596 0)
(-0.000427942 0.607783 0)
(-0.000129136 0.730443 0)
(0.0234806 0.0266957 0)
(0.0266556 0.0793426 0)
(0.025832 0.130224 0)
(0.0229013 0.185416 0)
(0.0194926 0.249437 0)
(0.016206 0.32044 0)
(0.0111126 0.398218 0)
(0.00708706 0.492837 0)
(-2.25151e-05 0.613776 0)
(-0.000110935 0.730539 0)
(0.0186403 0.0232211 0)
(0.0236366 0.0788184 0)
(0.0240657 0.132129 0)
(0.0217644 0.187825 0)
(0.0186734 0.251488 0)
(0.015549 0.322202 0)
(0.0107147 0.400035 0)
(0.00676292 0.494487 0)
(-2.99403e-05 0.61483 0)
(-0.000187494 0.730075 0)
(0.0125272 0.0121036 0)
(0.0183779 0.0715572 0)
(0.0212566 0.130623 0)
(0.0206411 0.190555 0)
(0.0182811 0.256432 0)
(0.0153402 0.328838 0)
(0.0107695 0.408396 0)
(0.00670621 0.50377 0)
(0.000508837 0.621425 0)
(-9.47108e-05 0.730322 0)
(0.0583584 0.00356936 2.35244e-21)
(0.0567545 0.009516 -2.3119e-21)
(0.0514659 0.0100485 2.01225e-22)
(0.0454774 0.00926755 0)
(0.0392651 0.00722565 0)
(0.032848 0.00421727 6.22137e-23)
(0.0264539 0.000353118 -8.25521e-23)
(0.0201287 -0.00458616 8.112e-23)
(0.0143239 -0.00905588 -1.02641e-23)
(0.00761786 -0.0188547 1.00827e-23)
(0.0593374 -0.000601892 -3.10632e-21)
(0.0560327 0.00185838 0)
(0.0500623 0.000816035 1.13703e-21)
(0.0438813 -0.00115913 -2.26639e-21)
(0.0376106 -0.00411046 1.1309e-21)
(0.0311775 -0.00777605 -6.08033e-23)
(0.0247678 -0.0121168 5.93888e-23)
(0.018472 -0.0173596 2.42974e-23)
(0.012474 -0.0221409 -1.77785e-23)
(0.00619691 -0.0310903 -2.00902e-23)
(0.0595254 -0.00483228 3.50334e-21)
(0.0548685 -0.00544311 -1.6329e-21)
(0.0485254 -0.00806426 1.61722e-21)
(0.0422271 -0.0112807 -9.0498e-22)
(0.0359122 -0.0151702 7.08823e-22)
(0.0294607 -0.0194964 0)
(0.0230431 -0.0242766 -5.95246e-23)
(0.0167917 -0.0297021 1.2786e-24)
(0.0107294 -0.0346029 2.04652e-24)
(0.00496843 -0.0424294 2.9149e-23)
(0.0590156 -0.0096813 -5.33538e-22)
(0.0532752 -0.0129056 0)
(0.0467948 -0.0169024 0)
(0.0404644 -0.0212295 0)
(0.0341554 -0.0259483 4.69327e-22)
(0.0277192 -0.030836 -2.90013e-22)
(0.0213255 -0.0359495 2.07196e-23)
(0.015139 -0.0414122 -7.79416e-25)
(0.00914285 -0.0462266 4.86997e-24)
(0.00388901 -0.0528331 1.2723e-23)
(0.0577536 -0.0152517 -3.63503e-22)
(0.0511881 -0.020628 -1.42957e-21)
(0.0447575 -0.0257672 -5.8436e-22)
(0.0384758 -0.0310036 5.83946e-22)
(0.0322405 -0.0363844 -1.77073e-22)
(0.025888 -0.041685 0)
(0.0195861 -0.0469883 -6.03337e-23)
(0.0135287 -0.0523368 3.5194e-23)
(0.00772705 -0.0568837 -1.36447e-23)
(0.00299404 -0.06229 -1.77857e-23)
(0.0558262 -0.0214637 -3.95207e-21)
(0.0487111 -0.0285218 6.53387e-22)
(0.0424768 -0.034591 1.6435e-22)
(0.0363058 -0.040517 5.75548e-22)
(0.030208 -0.0463792 0)
(0.0239995 -0.0519281 0)
(0.017855 -0.0572707 0)
(0.0119966 -0.0623702 3.03571e-23)
(0.00649112 -0.0665168 0)
(0.00228012 -0.0708162 0)
(0.0532998 -0.0281783 0)
(0.0459492 -0.0364265 1.1345e-21)
(0.0400225 -0.0432495 -7.31685e-22)
(0.0340216 -0.0496496 -4.25003e-22)
(0.0281155 -0.055821 4.27187e-22)
(0.0221049 -0.0614608 9.39809e-23)
(0.0161756 -0.0667066 -1.15919e-22)
(0.0105776 -0.0714538 -1.29375e-22)
(0.00543601 -0.0751239 1.04864e-23)
(0.00172338 -0.0784529 4.28752e-24)
(0.0502665 -0.0351755 0)
(0.0429926 -0.0441802 -4.03101e-22)
(0.0374545 -0.0516051 -1.63812e-22)
(0.0316789 -0.0582813 0)
(0.026012 -0.0646105 5.98532e-23)
(0.0202487 -0.0702054 -2.17158e-22)
(0.0145835 -0.0752459 1.01576e-22)
(0.00929452 -0.0795764 7.24805e-24)
(0.00455261 -0.0827457 -9.28771e-24)
(0.00129707 -0.0852596 -3.51044e-24)
(0.0468507 -0.04227 5.34023e-22)
(0.0399169 -0.0516404 3.66349e-22)
(0.0348267 -0.0595362 -1.23161e-22)
(0.0293285 -0.0663149 6.45011e-23)
(0.0239411 -0.0726769 9.25949e-23)
(0.0184679 -0.0781207 9.68817e-23)
(0.0131039 -0.0828802 -2.15071e-23)
(0.00815716 -0.0867683 -1.21234e-23)
(0.00382413 -0.0894535 9.3181e-24)
(0.000975626 -0.0913079 9.04002e-25)
(0.0431711 -0.0493097 -1.12753e-22)
(0.0367886 -0.0587008 1.13781e-22)
(0.0321878 -0.0669533 -8.28927e-23)
(0.0270171 -0.0736897 -6.44034e-23)
(0.0219393 -0.079986 4.14311e-23)
(0.016791 -0.0852048 -7.52483e-23)
(0.0117523 -0.08964 3.03187e-23)
(0.00716478 -0.0930929 3.25162e-24)
(0.00322951 -0.0953384 0)
(0.00073562 -0.0966762 -9.05948e-25)
(0.0393592 -0.0561807 1.15366e-22)
(0.0336798 -0.0652992 -1.16378e-22)
(0.0295902 -0.0738057 -8.70981e-23)
(0.0247918 -0.0803858 -6.84456e-23)
(0.0200398 -0.0865418 -4.34468e-23)
(0.0152399 -0.0914928 6.39625e-24)
(0.0105361 -0.0955876 1.55652e-23)
(0.00630959 -0.0986366 2.51629e-23)
(0.00274688 -0.100501 0)
(0.0005569 -0.101446 -2.26325e-24)
(0.035549 -0.0628173 0)
(0.0306686 -0.0714168 -3.91317e-22)
(0.0270863 -0.0800798 6.6143e-22)
(0.022697 -0.0864223 6.85466e-23)
(0.0182703 -0.0923815 1.08613e-22)
(0.0138296 -0.0970491 1.16698e-22)
(0.00945651 -0.100808 -2.52321e-23)
(0.00557959 -0.103499 -1.53822e-23)
(0.00235594 -0.105044 1.82695e-23)
(0.000423478 -0.105699 2.25792e-24)
(0.0318465 -0.0691988 0)
(0.0278172 -0.0770752 -4.50833e-22)
(0.0247119 -0.0857934 -1.80383e-22)
(0.0207615 -0.0918513 0)
(0.0166463 -0.0975681 -3.00838e-22)
(0.0125644 -0.101959 1.14118e-22)
(0.00850782 -0.105397 7.07161e-23)
(0.00495999 -0.107784 1.20495e-22)
(0.0020387 -0.109069 -1.82098e-23)
(0.000323067 -0.109516 1.31611e-23)
(0.0283258 -0.0753375 0)
(0.0251679 -0.082334 4.54571e-22)
(0.0224859 -0.0909896 0)
(0.0189977 -0.0967506 5.33151e-22)
(0.0151719 -0.102184 -5.35916e-22)
(0.0114394 -0.106321 -1.45945e-22)
(0.00767947 -0.109461 3.03499e-23)
(0.0044348 -0.111596 -1.24776e-22)
(0.00177983 -0.112672 -2.3015e-23)
(0.000246265 -0.112974 -2.01491e-23)
(0.0250382 -0.0812644 4.63649e-21)
(0.0227539 -0.0872861 -1.74012e-21)
(0.0204214 -0.0957297 -1.65594e-22)
(0.017409 -0.101216 -7.11047e-22)
(0.0138468 -0.106323 0)
(0.0104453 -0.110237 -1.54744e-22)
(0.00695943 -0.113101 4.95961e-23)
(0.00398903 -0.115034 1.861e-22)
(0.00156711 -0.115943 7.73149e-24)
(0.000186208 -0.116151 -7.72778e-24)
(0.0220104 -0.087011 3.88371e-22)
(0.0206021 -0.092052 2.70979e-21)
(0.0185321 -0.100087 7.41672e-22)
(0.0159941 -0.10535 -7.41214e-22)
(0.0126699 -0.110085 -2.61111e-22)
(0.00957185 -0.113812 0)
(0.00633676 -0.11642 -2.52221e-22)
(0.00361011 -0.118193 1.35129e-22)
(0.00139144 -0.118967 6.95401e-23)
(0.000138139 -0.119118 1.75044e-23)
(0.0192563 -0.0925861 -6.47392e-22)
(0.0187453 -0.0967742 0)
(0.0168456 -0.104141 0)
(0.0147549 -0.109258 0)
(0.0116453 -0.11357 -2.07846e-22)
(0.00881267 -0.117143 4.68427e-22)
(0.00580398 -0.11951 2.58746e-22)
(0.00328901 -0.121159 -3.08297e-22)
(0.00124676 -0.121823 1.78525e-23)
(9.88701e-05 -0.121947 -3.50125e-23)
(0.0167682 -0.0979545 -1.48379e-21)
(0.0171931 -0.101606 2.00985e-21)
(0.0153828 -0.107979 -1.99086e-21)
(0.0136804 -0.113035 1.29144e-21)
(0.0107703 -0.116875 -1.56712e-21)
(0.00815707 -0.120321 0)
(0.00535215 -0.122457 -1.55188e-22)
(0.00301724 -0.124011 -6.06834e-24)
(0.0011282 -0.124585 -5.83972e-23)
(6.59291e-05 -0.124706 -1.95299e-23)
(0.0143437 -0.102991 -7.00589e-22)
(0.0157388 -0.106692 0)
(0.0140441 -0.11169 -1.96633e-21)
(0.012667 -0.116771 3.06276e-21)
(0.00998009 -0.120092 -1.05431e-21)
(0.00755502 -0.12343 -1.13964e-22)
(0.00494942 -0.125343 1.54834e-22)
(0.00277492 -0.126823 1.95219e-23)
(0.00102705 -0.127321 1.19756e-22)
(3.83455e-05 -0.12746 3.88664e-23)
(0.0119903 -0.107368 -2.82681e-21)
(0.0142986 -0.112167 2.7651e-21)
(0.0128423 -0.1154 2.53103e-22)
(0.011708 -0.120556 0)
(0.00926579 -0.123321 0)
(0.00700424 -0.126557 1.17309e-22)
(0.00459237 -0.128246 2.86427e-22)
(0.00256214 -0.129665 -2.8111e-22)
(0.00094498 -0.130099 -2.13467e-23)
(2.67723e-05 -0.130276 2.08997e-23)
(0.0113823 -0.114441 0)
(0.014413 -0.12529 0)
(0.0125431 -0.124131 0)
(0.0112035 -0.129673 0)
(0.00879865 -0.131201 0)
(0.00654532 -0.134287 0)
(0.00428217 -0.13547 0)
(0.00238374 -0.136765 0)
(0.000910842 -0.137024 0)
(5.86498e-05 -0.137249 0)
(0.0114284 -0.136279 0)
(0.0105322 -0.148537 0)
(0.00885739 -0.144131 0)
(0.00756786 -0.149756 0)
(0.00581795 -0.149333 0)
(0.0043206 -0.152108 0)
(0.00278771 -0.152277 0)
(0.0015797 -0.153367 0)
(0.000608737 -0.153236 0)
(6.1611e-05 -0.153504 0)
(0.0120161 -0.163675 0)
(0.0098762 -0.177013 0)
(0.00804698 -0.170127 0)
(0.00643558 -0.176141 0)
(0.00486538 -0.174047 0)
(0.00351109 -0.176895 0)
(0.00227066 -0.176172 0)
(0.00130908 -0.177308 0)
(0.000542017 -0.176787 0)
(7.36839e-05 -0.177168 0)
(0.0122761 -0.197809 0)
(0.00927507 -0.212157 0)
(0.00746539 -0.203617 0)
(0.00558684 -0.210333 0)
(0.00423463 -0.206895 0)
(0.00294004 -0.210152 0)
(0.00195313 -0.208636 0)
(0.00112669 -0.210031 0)
(0.000511399 -0.209101 0)
(7.42609e-05 -0.209687 0)
(0.0121815 -0.238932 0)
(0.00876111 -0.253449 0)
(0.00702796 -0.244477 0)
(0.00495276 -0.251762 0)
(0.0038034 -0.247551 0)
(0.00250414 -0.251313 0)
(0.00173321 -0.249216 0)
(0.000957298 -0.250979 0)
(0.000477639 -0.249681 0)
(5.39558e-05 -0.250553 0)
(0.011439 -0.284682 0)
(0.00801702 -0.297859 0)
(0.00643703 -0.290044 0)
(0.00432862 -0.297184 0)
(0.00337216 -0.293088 0)
(0.00208532 -0.29704 0)
(0.00149457 -0.294776 0)
(0.000736761 -0.296776 0)
(0.000393258 -0.295291 0)
(7.5938e-06 -0.296401 0)
(0.00987396 -0.329953 0)
(0.00683622 -0.340434 0)
(0.00548683 -0.335124 0)
(0.00357406 -0.34118 0)
(0.002802 -0.33811 0)
(0.00162145 -0.34164 0)
(0.00117119 -0.339736 0)
(0.000464552 -0.341606 0)
(0.000251822 -0.340241 0)
(-4.64436e-05 -0.34137 0)
(0.00756382 -0.368627 0)
(0.00519851 -0.375938 0)
(0.00416171 -0.373621 0)
(0.002655 -0.378008 0)
(0.00207641 -0.376447 0)
(0.00112546 -0.379048 0)
(0.000793251 -0.377867 0)
(0.000213371 -0.379241 0)
(0.000107688 -0.378258 0)
(-7.69745e-05 -0.37913 0)
(0.0047271 -0.396032 0)
(0.00322779 -0.400728 0)
(0.00258 -0.400906 0)
(0.0016236 -0.403718 0)
(0.00126444 -0.403532 0)
(0.000647392 -0.405133 0)
(0.000437319 -0.404692 0)
(5.52341e-05 -0.405463 0)
(1.7223e-05 -0.404923 0)
(-6.88504e-05 -0.405414 0)
(0.00160734 -0.409996 0)
(0.00108789 -0.413284 0)
(0.000873121 -0.414825 0)
(0.000543592 -0.416722 0)
(0.000424254 -0.417319 0)
(0.000209005 -0.418303 0)
(0.000137118 -0.418307 0)
(2.29854e-06 -0.418691 0)
(-4.83453e-06 -0.418443 0)
(-2.74968e-05 -0.418672 0)
(0.011533 -0.122968 3.26001e-21)
(0.0128005 -0.146348 -3.19764e-21)
(0.0139042 -0.175242 4.09528e-22)
(0.0143231 -0.210061 0)
(0.0141701 -0.250544 0)
(0.0132005 -0.294074 4.74489e-22)
(0.0113394 -0.335962 -2.03979e-21)
(0.0086904 -0.371058 2.01065e-21)
(0.00545225 -0.395639 5.45899e-22)
(0.00185483 -0.408097 -5.37278e-22)
(0.0118473 -0.127543 -3.86917e-21)
(0.0135844 -0.15091 0)
(0.0148083 -0.179871 2.80083e-21)
(0.0152516 -0.214576 -6.46635e-21)
(0.0150454 -0.254568 4.15226e-21)
(0.013969 -0.297142 -4.41453e-22)
(0.0119821 -0.337762 9.84294e-22)
(0.00918933 -0.371595 2.07887e-21)
(0.005776 -0.395216 5.85009e-22)
(0.00196233 -0.407168 5.68029e-22)
(0.0124002 -0.132269 4.50816e-21)
(0.014643 -0.155681 -3.0844e-21)
(0.0159173 -0.184531 3.05513e-21)
(0.0163477 -0.218948 -3.42153e-21)
(0.0160528 -0.25831 2.53019e-21)
(0.0148372 -0.29985 0)
(0.0126902 -0.3392 -9.86673e-22)
(0.00971953 -0.371834 5.00288e-23)
(0.00610658 -0.394581 -1.09126e-21)
(0.00206589 -0.406085 -1.11434e-21)
(0.0132356 -0.13653 -7.2706e-22)
(0.0159244 -0.160053 0)
(0.0172087 -0.188833 0)
(0.0176041 -0.222984 0)
(0.017198 -0.261744 2.81896e-21)
(0.0158235 -0.302293 -1.88614e-21)
(0.0134893 -0.340434 -1.3832e-23)
(0.0103071 -0.371919 -1.1652e-21)
(0.00646464 -0.393819 -5.98296e-22)
(0.00217504 -0.404879 -6.40778e-22)
(0.0144193 -0.140426 6.09834e-23)
(0.0174193 -0.163898 -2.18574e-21)
(0.0186682 -0.192559 -1.66415e-21)
(0.0190064 -0.226452 1.66309e-21)
(0.0184713 -0.264656 -9.20085e-22)
(0.016926 -0.304313 0)
(0.0143875 -0.341367 -1.08414e-21)
(0.0109687 -0.371811 2.37638e-21)
(0.0068681 -0.392931 -1.21629e-21)
(0.00229926 -0.403571 1.25364e-21)
(0.0159844 -0.144008 -5.79598e-21)
(0.0191481 -0.167256 6.29735e-22)
(0.0203127 -0.195688 -1.22732e-22)
(0.020562 -0.22928 1.70704e-21)
(0.0198752 -0.266945 0)
(0.018144 -0.305795 0)
(0.0153848 -0.341896 0)
(0.0117076 -0.37144 1.27336e-21)
(0.00732241 -0.391884 0)
(0.00244267 -0.402161 0)
(0.0179417 -0.147187 0)
(0.0211247 -0.170102 2.38287e-21)
(0.0221647 -0.198217 -1.61095e-21)
(0.0222882 -0.231467 -1.91983e-21)
(0.021424 -0.268601 1.9298e-21)
(0.0194859 -0.306718 1.15746e-21)
(0.0164839 -0.341991 -1.14748e-21)
(0.0125239 -0.370773 -4.54849e-21)
(0.00782683 -0.390655 3.23801e-22)
(0.00260598 -0.400636 -1.10966e-21)
(0.0203012 -0.149856 0)
(0.0233552 -0.172362 -7.73729e-22)
(0.0242385 -0.200104 -4.36659e-22)
(0.0241988 -0.233001 0)
(0.0231322 -0.269633 5.63803e-22)
(0.0209635 -0.307097 -1.69913e-21)
(0.0176924 -0.341661 1.89883e-21)
(0.0134204 -0.369809 6.78549e-22)
(0.00838122 -0.389237 -7.42635e-22)
(0.00278954 -0.398987 1.47212e-21)
(0.023074 -0.151932 6.9328e-22)
(0.0258447 -0.173981 8.38069e-22)
(0.0265438 -0.201306 -1.85123e-22)
(0.0263023 -0.23386 2.50378e-22)
(0.0250105 -0.270034 5.34667e-22)
(0.0225868 -0.306941 9.00819e-22)
(0.0190185 -0.34092 -3.39641e-22)
(0.0144024 -0.368557 -3.67513e-22)
(0.00898763 -0.38763 7.45081e-22)
(0.00299436 -0.397207 4.03955e-22)
(0.0262703 -0.153349 -1.92906e-22)
(0.0285985 -0.174932 1.94752e-22)
(0.0290891 -0.201793 -2.24484e-22)
(0.028605 -0.234024 -2.50047e-22)
(0.0270667 -0.269795 2.987e-22)
(0.0243634 -0.30625 -6.10455e-22)
(0.0204696 -0.33977 5.19852e-22)
(0.0154762 -0.36702 1.86216e-22)
(0.00964969 -0.385833 0)
(0.00322194 -0.395293 -4.0486e-22)
(0.0298972 -0.154061 1.9731e-22)
(0.0316194 -0.175208 -1.99257e-22)
(0.0318819 -0.201557 -2.40493e-22)
(0.0311119 -0.233495 -2.7e-22)
(0.0293078 -0.268918 -3.11701e-22)
(0.0262996 -0.305027 -2.25348e-23)
(0.0220517 -0.338217 1.83046e-22)
(0.0166465 -0.365202 5.92172e-22)
(0.0103704 -0.383847 0)
(0.00347342 -0.393241 -4.42023e-22)
(0.03396 -0.154055 0)
(0.0349075 -0.174804 -9.18299e-22)
(0.0349268 -0.200604 1.66566e-21)
(0.0338266 -0.232279 2.70449e-22)
(0.0317402 -0.267408 6.31065e-22)
(0.0284014 -0.303275 1.04073e-21)
(0.0237718 -0.336257 -3.71186e-22)
(0.0179201 -0.363098 -4.01833e-22)
(0.011154 -0.381666 8.89749e-22)
(0.00374991 -0.391047 4.40996e-22)
(0.0384616 -0.153363 0)
(0.0384631 -0.173716 -9.0235e-22)
(0.0382234 -0.198973 -5.01005e-22)
(0.0367518 -0.230399 0)
(0.034368 -0.265291 -1.99101e-21)
(0.0306728 -0.301014 6.64346e-22)
(0.0256332 -0.333908 7.96607e-22)
(0.0192986 -0.360716 2.5778e-21)
(0.0120013 -0.379284 -8.86858e-22)
(0.00405117 -0.388699 1.91553e-21)
(0.043399 -0.152104 0)
(0.0422873 -0.171947 9.10014e-22)
(0.0417623 -0.196708 0)
(0.0398909 -0.227865 2.53301e-21)
(0.0371948 -0.262581 -2.54602e-21)
(0.0331203 -0.298244 -1.57056e-21)
(0.0276445 -0.331162 -3.73424e-23)
(0.0207934 -0.358044 -2.65368e-21)
(0.0129196 -0.376692 -4.42345e-22)
(0.00437799 -0.386186 -2.38264e-21)
(0.0487136 -0.15031 6.53176e-21)
(0.0464063 -0.169501 -2.50714e-21)
(0.0455332 -0.193832 2.83775e-22)
(0.0432466 -0.224698 -2.34961e-21)
(0.040219 -0.259299 0)
(0.0357468 -0.294989 -1.6381e-21)
(0.0298067 -0.32804 -1.41294e-22)
(0.022404 -0.355103 3.60392e-21)
(0.0139087 -0.373911 4.94841e-22)
(0.00472937 -0.383519 -4.96764e-22)
(0.0543799 -0.147953 -6.94249e-22)
(0.0508148 -0.16646 4.70048e-21)
(0.0495169 -0.190417 2.44342e-21)
(0.0468168 -0.220971 -2.44178e-21)
(0.0434399 -0.255481 -1.48571e-21)
(0.0385559 -0.291259 0)
(0.0321272 -0.324533 -3.67856e-21)
(0.0241394 -0.351876 1.84504e-21)
(0.014977 -0.370926 1.97383e-21)
(0.00510788 -0.380686 2.12129e-21)
(0.0603309 -0.145127 -8.97849e-22)
(0.055502 -0.162894 0)
(0.0536956 -0.186521 0)
(0.0505949 -0.216752 0)
(0.0468536 -0.251212 -1.72384e-21)
(0.041542 -0.287155 3.20398e-21)
(0.0345943 -0.320743 3.74783e-21)
(0.0259832 -0.34844 -5.90866e-21)
(0.0161107 -0.367776 1.0591e-21)
(0.00550603 -0.377703 -3.15065e-21)
(0.0664581 -0.141975 -1.32641e-21)
(0.0604592 -0.158846 4.65054e-21)
(0.0580477 -0.182165 -4.60623e-21)
(0.054571 -0.212011 5.99266e-21)
(0.050465 -0.246382 -7.54176e-21)
(0.0447297 -0.282489 0)
(0.0372531 -0.31646 -1.95944e-21)
(0.0279902 -0.344628 -8.16286e-23)
(0.017354 -0.364363 -2.2021e-21)
(0.0059404 -0.374507 -2.24508e-21)
(0.0726175 -0.138731 -9.52437e-22)
(0.0656826 -0.154518 0)
(0.0625352 -0.17764 -6.18363e-21)
(0.0586893 -0.207208 1.16978e-20)
(0.0541983 -0.241626 -4.53859e-21)
(0.0480096 -0.278003 -9.2442e-22)
(0.0399619 -0.312366 1.95516e-21)
(0.0300128 -0.340915 -1.00603e-22)
(0.0185974 -0.360935 3.21318e-21)
(0.00636429 -0.371229 3.32248e-21)
(0.078979 -0.134183 -4.31322e-21)
(0.0718 -0.148642 4.22929e-21)
(0.0676187 -0.171369 6.59489e-22)
(0.0633248 -0.200454 0)
(0.0584272 -0.234796 0)
(0.0518049 -0.271558 9.13482e-22)
(0.0431843 -0.306708 4.20706e-21)
(0.032484 -0.336173 -4.11854e-21)
(0.0201466 -0.356926 -1.13016e-21)
(0.00689691 -0.367539 1.11137e-21)
(0.0891405 -0.13401 0)
(0.085601 -0.146089 0)
(0.0786513 -0.169314 0)
(0.0730987 -0.197922 0)
(0.0669261 -0.231464 0)
(0.0589438 -0.26702 0)
(0.0488685 -0.300787 0)
(0.0366241 -0.329012 0)
(0.022662 -0.349013 0)
(0.00766346 -0.35947 0)
(0.106685 -0.122676 0)
(0.108617 -0.139098 0)
(0.0981082 -0.164682 0)
(0.0915091 -0.192773 0)
(0.0830156 -0.225067 0)
(0.0725495 -0.258472 0)
(0.0597653 -0.289714 0)
(0.0445982 -0.315426 0)
(0.0275645 -0.333122 0)
(0.00948698 -0.341666 0)
(0.128742 -0.111786 0)
(0.133074 -0.130471 0)
(0.119207 -0.156284 0)
(0.11195 -0.183013 0)
(0.100521 -0.213516 0)
(0.0871424 -0.244222 0)
(0.0711335 -0.272842 0)
(0.0526637 -0.296672 0)
(0.0323151 -0.313817 0)
(0.0107243 -0.3233 0)
(0.156049 -0.104029 0)
(0.161085 -0.123184 0)
(0.143553 -0.147925 0)
(0.135634 -0.173217 0)
(0.120516 -0.201943 0)
(0.104003 -0.229881 0)
(0.0842975 -0.255837 0)
(0.0620764 -0.277026 0)
(0.0380429 -0.291359 0)
(0.0132133 -0.2975 0)
(0.188049 -0.0946754 0)
(0.191487 -0.112278 0)
(0.170087 -0.13458 0)
(0.160705 -0.157306 0)
(0.140557 -0.18271 0)
(0.120277 -0.20676 0)
(0.0960392 -0.229699 0)
(0.069799 -0.249063 0)
(0.0421252 -0.263956 0)
(0.0133288 -0.273994 0)
(0.224331 -0.0871142 0)
(0.225256 -0.102551 0)
(0.200204 -0.123029 0)
(0.188747 -0.143125 0)
(0.162895 -0.16546 0)
(0.139301 -0.186486 0)
(0.110336 -0.207288 0)
(0.0798976 -0.224384 0)
(0.0483221 -0.236119 0)
(0.0177691 -0.238572 0)
(0.262191 -0.0723485 0)
(0.256878 -0.0843106 0)
(0.228965 -0.101026 0)
(0.213186 -0.116246 0)
(0.181009 -0.13372 0)
(0.153381 -0.150105 0)
(0.117634 -0.166846 0)
(0.0823891 -0.181588 0)
(0.0469634 -0.196559 0)
(0.0110368 -0.214847 0)
(0.298552 -0.0632102 0)
(0.289128 -0.0712073 0)
(0.26034 -0.0851407 0)
(0.240281 -0.0966234 0)
(0.205339 -0.112036 0)
(0.174803 -0.126365 0)
(0.135028 -0.142838 0)
(0.0964307 -0.158345 0)
(0.0565293 -0.173587 0)
(0.0290558 -0.168842 0)
(0.336596 -0.0353929 0)
(0.324086 -0.0388888 0)
(0.281834 -0.0472581 0)
(0.255618 -0.0527378 0)
(0.2083 -0.0618286 0)
(0.169096 -0.0688644 0)
(0.11542 -0.0778071 0)
(0.0639494 -0.0865819 0)
(0.0155659 -0.105223 0)
(-0.0415363 -0.156892 0)
(0.608802 -0.0186361 0)
(0.589273 -0.0215868 0)
(0.550148 -0.025886 0)
(0.519477 -0.0300598 0)
(0.471197 -0.0361546 0)
(0.426972 -0.0430522 0)
(0.364899 -0.0534108 0)
(0.297467 -0.0690659 0)
(0.208744 -0.0986043 0)
(0.150429 -0.157224 0)
(0.106269 -0.120706 4.41606e-21)
(0.125901 -0.109062 -4.34853e-21)
(0.148166 -0.0984583 7.24187e-22)
(0.174996 -0.090886 0)
(0.206978 -0.0821702 0)
(0.241856 -0.0753969 1.12326e-21)
(0.27926 -0.0623488 -5.37314e-21)
(0.313822 -0.0551986 5.29653e-21)
(0.362874 -0.0306536 1.51205e-21)
(0.629546 -0.0163434 -1.53602e-21)
(0.112225 -0.114903 -4.08596e-21)
(0.131705 -0.10316 0)
(0.153635 -0.092937 5.21592e-21)
(0.180167 -0.085577 -1.26497e-20)
(0.212155 -0.0771854 8.55812e-21)
(0.246982 -0.0707919 -1.0541e-21)
(0.284414 -0.0583837 2.28812e-21)
(0.319197 -0.0520363 5.19048e-21)
(0.372599 -0.0288086 1.39866e-21)
(0.637715 -0.0153689 1.4269e-21)
(0.117425 -0.108512 4.70955e-21)
(0.136683 -0.0969843 -4.83912e-21)
(0.158175 -0.0873082 4.7933e-21)
(0.184434 -0.080235 -6.73259e-21)
(0.21621 -0.0722627 4.87555e-21)
(0.251133 -0.0663262 0)
(0.288498 -0.0546139 -2.29361e-21)
(0.324045 -0.0490671 -5.56591e-23)
(0.38121 -0.0271319 -2.65228e-21)
(0.645489 -0.0144325 -2.83196e-21)
(0.122441 -0.101684 -8.08552e-22)
(0.141839 -0.0906433 0)
(0.162977 -0.0816179 0)
(0.189075 -0.0748705 0)
(0.220546 -0.067382 5.54353e-21)
(0.255481 -0.0619706 -3.78045e-21)
(0.292618 -0.0510119 -1.59164e-22)
(0.328945 -0.0462228 -2.64011e-21)
(0.389238 -0.0256121 -1.33957e-21)
(0.653039 -0.0135771 -1.38141e-21)
(0.126944 -0.0945273 8.44132e-22)
(0.146674 -0.0842256 -2.57561e-21)
(0.167564 -0.0759173 -2.7364e-21)
(0.193556 -0.0695402 2.73469e-21)
(0.224836 -0.0625698 -1.73798e-21)
(0.259806 -0.0577144 0)
(0.296654 -0.0475555 -2.22372e-21)
(0.333839 -0.0434611 4.99507e-21)
(0.396799 -0.0242152 -2.50673e-21)
(0.660276 -0.0128093 2.74725e-21)
(0.130772 -0.0870668 -6.06962e-21)
(0.150895 -0.0777535 2.68324e-22)
(0.171596 -0.0702153 -4.51895e-22)
(0.19746 -0.0642706 2.67023e-21)
(0.22862 -0.0578626 0)
(0.263687 -0.053564 0)
(0.300311 -0.044253 0)
(0.338395 -0.040792 2.37764e-21)
(0.403796 -0.022918 0)
(0.667096 -0.0121317 0)
(0.133848 -0.0793268 0)
(0.154454 -0.0712231 3.09892e-21)
(0.17503 -0.0644996 -2.15506e-21)
(0.200731 -0.0590552 -3.0649e-21)
(0.231776 -0.053256 3.08082e-21)
(0.266933 -0.0495251 2.00726e-21)
(0.303492 -0.0410924 -1.88758e-21)
(0.342383 -0.0382276 -8.1751e-21)
(0.410132 -0.0217127 5.77561e-22)
(0.673409 -0.0115295 -1.94556e-21)
(0.136075 -0.0713431 0)
(0.157315 -0.0646303 -9.47014e-22)