/*--------------------------------*- C++ -*----------------------------------*\
  =========                 |
  \\      /  F ield         | OpenFOAM: The Open Source CFD Toolbox
   \\    /   O peration     | Website:  https://openfoam.org
    \\  /    A nd           | Version:  7
     \\/     M anipulation  |
\*---------------------------------------------------------------------------*/
FoamFile
{
    version     2.0;
    format      ascii;
    class       volVectorField;
    location    "3.3";
    object      U;
}
// * * * * * * * * * * * * * * * * * * * * * * * * * * * * * * * * * * * * * //

dimensions      [0 1 -1 0 0 0 0];

internalField   nonuniform List<vector> 
2000
(
(-0.00564984 0.0370558 -1.0484e-20)
(-0.0062157 0.0879816 0)
(0.00428418 0.123417 0)
(0.0223962 0.147388 -5.19627e-20)
(0.043989 0.161839 1.64867e-20)
(0.0659684 0.169126 2.67414e-22)
(0.0863604 0.171805 -2.83559e-20)
(0.104099 0.172111 0)
(0.118814 0.171729 0)
(0.130748 0.171861 0)
(-0.00977896 0.0384278 0)
(-0.015995 0.0844719 -4.01486e-20)
(-0.00953963 0.113634 3.70223e-20)
(0.00668267 0.132318 6.94299e-20)
(0.0282829 0.143402 0)
(0.0517833 0.149297 6.08123e-20)
(0.0747097 0.152207 -5.65458e-20)
(0.0955256 0.153881 0)
(0.113478 0.155521 1.00203e-19)
(0.128541 0.157926 -1.89227e-19)
(-0.0140382 0.0402868 0)
(-0.0245924 0.0813547 3.18601e-19)
(-0.0204518 0.103819 0)
(-0.00473009 0.116543 2.76318e-19)
(0.0177987 0.123483 0)
(0.043254 0.12726 -2.41021e-19)
(0.0687541 0.129829 0)
(0.0924079 0.132505 2.12368e-19)
(0.113184 0.136022 -1.98884e-19)
(0.130951 0.140659 -1.87471e-19)
(-0.018385 0.0423356 -8.35235e-20)
(-0.0316828 0.0784387 -1.5935e-19)
(-0.027663 0.0941419 -7.36689e-20)
(-0.0105308 0.1007 -1.37713e-19)
(0.0143062 0.103133 -1.28011e-19)
(0.0424704 0.104369 1.20398e-19)
(0.0707144 0.106201 1.12147e-19)
(0.0969149 0.109571 -9.79803e-22)
(0.119897 0.114779 1.97811e-19)
(0.139746 0.121399 1.872e-19)
(-0.0226797 0.0442076 -8.29819e-20)
(-0.0368101 0.0754143 -1.59112e-19)
(-0.03029 0.0847492 -2.95342e-19)
(-0.0093536 0.0854784 1.3652e-19)
(0.0195973 0.083615 0)
(0.0515137 0.0823898 0)
(0.0827844 0.0834549 -2.24057e-19)
(0.111193 0.0874062 -2.09837e-19)
(0.135548 0.0941637 1.95959e-19)
(0.156722 0.102395 5.54362e-19)
(-0.0266876 0.0454898 8.27216e-20)
(-0.0394312 0.0718937 7.96686e-20)
(-0.0274762 0.0757039 -4.36229e-19)
(-3.60322e-05 0.0715272 6.80069e-19)
(0.0350455 0.0662419 -1.26448e-19)
(0.0718301 0.0632624 0)
(0.106359 0.0640227 0)
(0.136519 0.0687652 1.03852e-18)
(0.161206 0.0770431 -9.76276e-19)
(0.182835 0.0865971 1.83749e-19)
(-0.0300867 0.0457708 6.52704e-19)
(-0.0389797 0.0674938 0)
(-0.018514 0.0669635 5.8421e-19)
(0.018101 0.0593566 -5.43118e-19)
(0.0611236 0.0521345 0)
(0.103554 0.0486738 2.35514e-19)
(0.141206 0.05005 -6.5575e-19)
(0.172387 0.0561342 -8.25714e-19)
(0.196182 0.06603 3.85946e-19)
(0.217254 0.0769179 3.63864e-19)
(-0.0324662 0.044718 -1.29973e-18)
(-0.0348957 0.061904 -1.5606e-19)
(-0.00294976 0.0584634 -2.86319e-19)
(0.0450773 0.0493097 -6.66964e-19)
(0.0971135 0.0420113 -2.49966e-19)
(0.145171 0.0396329 -2.30295e-19)
(0.185157 0.0427419 5.15289e-21)
(0.216179 0.0509093 0)
(0.237704 0.0626096 0)
(0.256882 0.075385 -1.95921e-21)
(-0.033402 0.0422113 6.47033e-19)
(-0.0265576 0.0549466 -6.14553e-19)
(0.0194219 0.0502459 4.31527e-19)
(0.0802085 0.0416218 9.31759e-19)
(0.141145 0.0361411 -2.45747e-19)
(0.193735 0.0362589 2.35707e-19)
(0.234608 0.0419768 2.17604e-19)
(0.26403 0.0527952 0)
(0.282011 0.0664234 0)
(0.297204 0.0826626 -2.55887e-21)
(-0.0325019 0.0383037 -7.96959e-20)
(-0.0133564 0.0467365 7.67996e-19)
(0.0485853 0.0426133 -1.41416e-19)
(0.122169 0.0365532 0)
(0.190444 0.0344398 0)
(0.245394 0.0378835 4.56134e-19)
(0.28532 0.0464478 0)
(0.312087 0.0597994 -3.95713e-19)
(0.326743 0.0751471 -5.50965e-22)
(0.335736 0.0969468 3.4538e-19)
(0.148941 0.177937 7.12629e-21)
(0.155427 0.194721 -7.24115e-21)
(0.151632 0.208399 -7.33835e-21)
(0.15193 0.221702 -7.46784e-21)
(0.113093 0.232152 -7.60443e-21)
(0.133212 0.245748 -1.71043e-23)
(0.0526136 0.246712 3.83678e-21)
(0.105979 0.26321 1.18156e-20)
(-0.00811322 0.25371 0)
(0.064224 0.293211 -8.0469e-21)
(0.152659 0.171412 2.82169e-20)
(0.160241 0.192431 -2.90307e-20)
(0.156115 0.209629 5.12334e-20)
(0.156672 0.225352 7.48022e-21)
(0.117312 0.237242 1.499e-20)
(0.136826 0.252162 2.29771e-20)
(0.0558107 0.253655 -7.73291e-21)
(0.107612 0.270239 -7.87402e-21)
(-0.00650313 0.261886 1.57371e-20)
(0.0625463 0.300953 8.02828e-21)
(0.159037 0.163443 0)
(0.16658 0.18959 -2.8848e-20)
(0.161541 0.210546 -1.46747e-20)
(0.162099 0.228778 0)
(0.121941 0.242279 -4.5122e-20)
(0.140781 0.258543 1.50218e-20)
(0.0591553 0.260784 1.51327e-20)
(0.109397 0.277426 4.65284e-20)
(-0.00504134 0.270441 -1.56859e-20)
(0.0611432 0.308607 3.15764e-20)
(0.1687 0.15443 0)
(0.174478 0.186381 2.90932e-20)
(0.167901 0.211219 0)
(0.168223 0.232101 5.92897e-20)
(0.126993 0.247264 -5.95913e-20)
(0.14513 0.264915 -3.0265e-20)
(0.0626882 0.268108 -6.43999e-23)
(0.111452 0.284796 -4.62783e-20)
(-0.00362699 0.279329 -7.73433e-21)
(0.0600744 0.3162 -3.91623e-20)
(0.182448 0.145056 4.64692e-22)
(0.184114 0.182861 -8.65672e-20)
(0.175247 0.21159 3.43517e-22)
(0.17508 0.235282 -5.89427e-20)
(0.132498 0.25207 0)
(0.149929 0.271265 -3.00885e-20)
(0.0664315 0.275601 -1.15532e-22)
(0.113853 0.292383 6.09824e-20)
(-0.00218611 0.288519 7.64933e-21)
(0.0593713 0.323793 -7.67938e-21)
(0.200921 0.136374 -2.30452e-19)
(0.195711 0.179208 1.45971e-19)
(0.183652 0.211655 5.89918e-20)
(0.182708 0.238268 -5.89502e-20)
(0.138509 0.256498 -2.94908e-20)
(0.155258 0.277426 0)
(0.0704177 0.283044 -5.97775e-20)
(0.116677 0.300035 2.99269e-20)
(-0.000643306 0.297877 3.0118e-20)
(0.059041 0.331391 3.01366e-20)
(0.224219 0.129651 -2.88205e-20)
(0.209451 0.17581 0)
(0.193179 0.211482 0)
(0.191113 0.24115 0)
(0.145063 0.260703 -2.97942e-20)
(0.161146 0.28368 5.91915e-20)
(0.0746449 0.290608 5.9448e-20)
(0.119898 0.307946 -8.91663e-20)
(0.000981062 0.307462 1.48338e-20)
(0.0591164 0.339084 -4.45491e-20)
(0.251513 0.125992 1.76552e-19)
(0.22537 0.173183 1.19928e-19)
(0.203887 0.211067 -1.18795e-19)
(0.200362 0.243596 1.19043e-19)
(0.152247 0.264039 -1.47342e-19)
(0.167833 0.289287 0)
(0.0792872 0.2976 -2.91981e-20)
(0.123766 0.315652 2.24847e-22)
(0.00295995 0.316981 -2.89789e-20)
(0.0594695 0.346996 -2.88989e-20)
(0.28094 0.125549 -1.49851e-19)
(0.243223 0.171661 0)
(0.215532 0.21092 -1.35689e-19)
(0.210077 0.246837 2.38583e-19)
(0.159799 0.268465 -8.82733e-20)
(0.17465 0.296314 -1.46596e-20)
(0.0838013 0.305441 2.91346e-20)
(0.127725 0.324155 1.29304e-22)
(0.00468096 0.326882 4.29059e-20)
(0.0605231 0.354752 4.25791e-20)
(0.310303 0.125366 -1.23331e-19)
(0.265057 0.167891 1.21654e-19)
(0.230283 0.206386 1.512e-20)
(0.222009 0.244898 0)
(0.168946 0.267405 0)
(0.183907 0.299298 1.44179e-20)
(0.090085 0.310364 5.66025e-20)
(0.133178 0.331479 -5.54635e-20)
(0.0077359 0.336125 -1.37096e-20)
(0.0610117 0.36451 1.34534e-20)
(0.343837 0.150728 0)
(0.308471 0.186827 0)
(0.273027 0.227562 0)
(0.250671 0.272076 0)
(0.189235 0.295108 0)
(0.196223 0.328193 0)
(0.0957189 0.335577 0)
(0.142293 0.35573 0)
(0.00937787 0.361289 0)
(0.0691811 0.376067 0)
(0.378214 0.193134 0)
(0.341928 0.224682 0)
(0.305848 0.259226 0)
(0.280412 0.300194 0)
(0.21933 0.327057 0)
(0.2193 0.363358 0)
(0.112319 0.374565 0)
(0.155459 0.39878 0)
(0.00525121 0.409261 0)
(0.0756066 0.451816 0)
(0.41291 0.232976 0)
(0.370914 0.264692 0)
(0.333797 0.299251 0)
(0.306805 0.337431 0)
(0.246347 0.3662 0)
(0.242574 0.400072 0)
(0.133842 0.417327 0)
(0.170401 0.442433 0)
(0.0196787 0.449348 0)
(0.0920034 0.419124 0)
(0.44778 0.26992 0)
(0.406139 0.305302 0)
(0.367944 0.342033 0)
(0.339635 0.382238 0)
(0.274547 0.412353 0)
(0.272916 0.448422 0)
(0.159818 0.460431 0)
(0.206023 0.491566 0)
(0.0441424 0.505939 0)
(0.100097 0.617844 0)
(0.4874 0.311515 0)
(0.445961 0.351796 0)
(0.408832 0.391539 0)
(0.377342 0.430998 0)
(0.309834 0.468718 0)
(0.288934 0.502488 0)
(0.166633 0.529556 0)
(0.168366 0.548962 0)
(-0.0212736 0.544658 0)
(0.0670984 0.470652 0)
(0.530391 0.333569 0)
(0.485824 0.37598 0)
(0.442957 0.417845 0)
(0.417252 0.466777 0)
(0.346303 0.505681 0)
(0.352418 0.556589 0)
(0.238057 0.578354 0)
(0.302983 0.63823 0)
(0.17507 0.664855 0)
(0.155438 0.767053 0)
(0.57976 0.393418 0)
(0.54577 0.447339 0)
(0.506815 0.494596 0)
(0.467304 0.533933 0)
(0.382086 0.577578 0)
(0.334964 0.610609 0)
(0.183619 0.637632 0)
(0.154778 0.639035 0)
(-0.0546529 0.636184 0)
(0.0740894 0.672089 0)
(0.607396 0.372894 0)
(0.559344 0.425288 0)
(0.522575 0.486665 0)
(0.517906 0.560337 0)
(0.456362 0.623761 0)
(0.463856 0.699528 0)
(0.338163 0.751015 0)
(0.352843 0.820747 0)
(0.156 0.854545 0)
(0.115914 0.89931 0)
(0.742075 0.497647 0)
(0.69979 0.549024 0)
(0.625136 0.588781 0)
(0.560772 0.628534 0)
(0.455958 0.676814 0)
(0.413835 0.729075 0)
(0.266825 0.766243 0)
(0.265197 0.809555 0)
(0.0922713 0.816272 0)
(0.114597 0.846766 0)
(0.64315 0.375396 0)
(0.698925 0.503534 0)
(0.695767 0.608438 0)
(0.696104 0.701258 0)
(0.61117 0.78483 0)
(0.585554 0.873983 0)
(0.424547 0.945576 0)
(0.38764 1.02059 0)
(0.166454 1.06248 0)
(0.132344 1.12825 0)
(0.398536 0.138118 1.0654e-19)
(0.427377 0.176399 -1.0555e-19)
(0.4629 0.213017 1.11948e-20)
(0.494536 0.248033 0)
(0.530762 0.284238 0)
(0.572713 0.307938 6.75108e-21)
(0.61101 0.356374 -1.82571e-20)
(0.654411 0.351716 1.78619e-20)
(0.74096 0.448939 1.1225e-21)
(0.590848 0.285928 -1.10889e-21)
(0.414263 0.142545 -1.38827e-19)
(0.438319 0.180068 0)
(0.474909 0.213655 7.43477e-20)
(0.504926 0.246949 -1.5906e-19)
(0.541171 0.279199 9.02536e-20)
(0.582851 0.303012 -7.10908e-21)
(0.619637 0.346902 1.05834e-20)
(0.666914 0.3451 1.27264e-20)
(0.731706 0.428239 -8.63457e-22)
(0.561074 0.247419 -8.43641e-22)
(0.429674 0.145992 1.58459e-19)
(0.450874 0.179225 -9.20637e-20)
(0.489722 0.209072 9.11628e-20)
(0.51796 0.241068 -7.14722e-20)
(0.554031 0.270393 5.41164e-20)
(0.594805 0.294405 0)
(0.630026 0.334622 -1.0606e-20)
(0.678835 0.335507 -4.83161e-22)
(0.720075 0.403229 -3.68715e-21)
(0.529536 0.207535 -1.72242e-22)
(0.443563 0.148876 -2.51869e-20)
(0.459823 0.178646 0)
(0.50091 0.20463 0)
(0.527159 0.236125 0)
(0.563188 0.262414 4.43117e-20)
(0.602996 0.286933 -2.85864e-20)
(0.637631 0.323655 1.46797e-21)
(0.685756 0.325668 -4.79259e-21)
(0.701389 0.376477 -7.3423e-22)
(0.492921 0.166806 1.12254e-21)
(0.456018 0.149839 -5.96573e-21)
(0.468124 0.176542 -7.10464e-20)
(0.512124 0.197839 -3.80278e-20)
(0.536951 0.229478 3.79919e-20)
(0.573054 0.253058 -1.54999e-20)
(0.611877 0.277973 0)
(0.646044 0.311598 -9.69025e-21)
(0.690268 0.313174 1.0741e-20)
(0.679654 0.346133 -4.45823e-21)
(0.454212 0.125164 -4.02536e-22)
(0.466349 0.147443 -1.83917e-19)
(0.474948 0.173702 2.72934e-20)
(0.521566 0.189925 4.49227e-21)
(0.54535 0.222732 3.68769e-20)
(0.581317 0.243646 0)
(0.619103 0.269111 0)
(0.652646 0.299452 0)
(0.690229 0.299094 5.41944e-21)
(0.653093 0.313454 0)
(0.413646 0.0834373 0)
(0.473989 0.140648 0)
(0.481101 0.17039 6.10541e-20)
(0.529913 0.180679 -4.02688e-20)
(0.55343 0.215301 -3.10149e-20)
(0.589175 0.233611 3.11697e-20)
(0.625946 0.259394 1.00122e-20)
(0.658424 0.286376 -1.15572e-20)
(0.686295 0.282231 -1.9278e-20)
(0.623743 0.277442 1.76607e-21)
(0.373486 0.0426217 1.61894e-21)
(0.478893 0.129213 0)
(0.486826 0.167236 -2.08029e-20)
(0.536383 0.170615 -9.27642e-21)
(0.56041 0.207563 0)
(0.595691 0.223321 5.5797e-21)
(0.631416 0.249316 -1.80189e-20)
(0.661917 0.272511 1.1656e-20)
(0.677699 0.262934 1.7765e-21)
(0.591005 0.238584 -9.10318e-22)
(0.328653 0.00445617 -1.51773e-21)
(0.481488 0.114433 2.25073e-20)
(0.492447 0.164555 1.92985e-20)
(0.540682 0.159949 -5.64768e-21)
(0.566306 0.19925 3.9893e-21)
(0.6011 0.212618 6.87316e-21)
(0.635776 0.238492 8.11453e-21)
(0.663265 0.25747 -1.91561e-21)
(0.664958 0.240812 -1.09499e-21)
(0.555294 0.197339 9.13273e-22)
(0.276059 -0.0303772 -4.04874e-22)
(0.482694 0.0988446 -5.19399e-21)
(0.498075 0.161823 5.27588e-21)
(0.542602 0.148927 -4.5638e-21)
(0.57096 0.190276 -3.98172e-21)
(0.605162 0.201594 2.96408e-21)
(0.638616 0.22702 -5.64341e-21)
(0.661809 0.241183 2.64633e-21)
(0.648019 0.216338 3.58901e-22)
(0.516127 0.155609 0)
(0.239402 -0.0627402 4.05526e-22)
(0.483435 0.0852318 5.20012e-21)
(0.503621 0.157634 -5.27299e-21)
(0.542698 0.137753 -4.52687e-21)
(0.574734 0.18049 -3.91212e-21)
(0.60817 0.190228 -2.90976e-21)
(0.640057 0.21471 4.03858e-22)
(0.657784 0.223503 1.07143e-21)
(0.62754 0.189833 1.66332e-21)
(0.474963 0.113607 0)
(0.201333 -0.0933266 3.41131e-22)
(0.483972 0.0750532 0)
(0.508601 0.150384 -1.9107e-20)
(0.541655 0.126696 3.28753e-20)
(0.577707 0.169918 3.91626e-21)
(0.610133 0.178562 6.48615e-21)
(0.640047 0.201534 7.50595e-21)
(0.651281 0.204443 -1.76571e-21)
(0.604379 0.161745 -9.60478e-22)
(0.434134 0.0719354 5.7218e-22)
(0.166803 -0.121837 -3.40158e-22)
(0.483704 0.067685 0)
(0.512209 0.139542 -2.05245e-20)
(0.539794 0.116052 -9.11061e-21)
(0.579735 0.158641 0)
(0.611145 0.16654 -1.78649e-20)
(0.638791 0.187375 6.47814e-21)
(0.64284 0.183973 4.02925e-21)
(0.57962 0.132056 5.91749e-21)
(0.395612 0.03093 -5.70299e-22)
(0.13564 -0.148582 -9.63231e-22)
(0.481583 0.06114 0)
(0.513899 0.126127 2.06832e-20)
(0.53742 0.105897 0)
(0.580974 0.146714 2.85737e-20)
(0.611631 0.154074 -2.87276e-20)
(0.636841 0.172195 -8.05861e-21)
(0.633072 0.162169 1.55051e-21)
(0.554045 0.101035 -5.45455e-21)
(0.358056 -0.0100117 -1.03389e-21)
(0.106548 -0.174913 9.53095e-22)
(0.477161 0.0545409 1.87483e-19)
(0.514269 0.111626 -7.10889e-20)
(0.535696 0.0958436 -5.52083e-21)
(0.582274 0.134135 -3.46416e-20)
(0.612353 0.141055 0)
(0.635052 0.156033 -7.86102e-21)
(0.622497 0.139272 3.29646e-21)
(0.528211 0.0691538 7.72322e-21)
(0.322731 -0.0496153 5.25324e-24)
(0.0804902 -0.200362 -5.24176e-24)
(0.471514 0.0474937 8.91022e-21)
(0.514735 0.0967754 1.13947e-19)
(0.535741 0.0854669 3.51198e-20)
(0.584084 0.121113 -3.51057e-20)
(0.613781 0.12751 -1.29372e-20)
(0.633136 0.139132 0)
(0.610684 0.11574 -1.03101e-20)
(0.502108 0.0368914 5.42646e-21)
(0.289506 -0.0876388 1.7036e-21)
(0.0577101 -0.224379 -4.78098e-22)
(0.465615 0.0402794 -2.56968e-20)
(0.514925 0.0816437 0)
(0.53587 0.0746584 0)
(0.584205 0.107852 0)
(0.613003 0.113717 -9.48733e-21)
(0.628099 0.122019 2.24081e-20)
(0.595942 0.0919431 1.01967e-20)
(0.47506 0.0046573 -9.68447e-21)
(0.258115 -0.123927 2.42116e-23)
(0.0381312 -0.246889 4.47921e-22)
(0.456795 0.0335796 -5.70955e-20)
(0.509216 0.0668058 8.8409e-20)
(0.529599 0.0638584 -8.76173e-20)
(0.576495 0.0950586 6.14619e-20)
(0.604162 0.100135 -7.49235e-20)
(0.615641 0.104734 0)
(0.575394 0.0676205 -6.24891e-21)
(0.445377 -0.0280599 -7.65322e-23)
(0.227989 -0.159135 -4.60854e-22)
(0.0216829 -0.268372 2.62268e-22)
(0.44032 0.0294205 -2.79374e-20)
(0.492622 0.0535401 0)
(0.513284 0.0535254 -9.15612e-20)
(0.559398 0.0829415 1.45108e-19)
(0.587679 0.0865832 -5.07477e-20)
(0.596924 0.0868572 -5.21815e-21)
(0.550316 0.0420926 6.23345e-21)
(0.414013 -0.0620969 1.09908e-21)
(0.199225 -0.194449 2.00546e-21)
(0.00836621 -0.28977 -2.00483e-22)
(0.428857 0.0292329 -1.27394e-19)
(0.482297 0.0422875 1.24662e-19)
(0.50714 0.0431555 1.26606e-20)
(0.554457 0.0708391 0)
(0.583804 0.0725971 0)
(0.589827 0.0681472 5.91894e-21)
(0.53468 0.0153107 1.02103e-20)
(0.389137 -0.09748 -9.7725e-21)
(0.174025 -0.230473 -7.9292e-23)
(-0.00169885 -0.311938 7.54394e-23)
(0.449125 0.0247398 0)
(0.507015 0.0152322 0)
(0.546543 0.0129614 0)
(0.593001 0.0382409 0)
(0.61988 0.0376219 0)
(0.612792 0.0238319 0)
(0.531824 -0.0454038 0)
(0.355805 -0.176773 0)
(0.125345 -0.312749 0)
(-0.0251211 -0.366214 0)
(0.454127 -0.0484488 0)
(0.511211 -0.0358022 0)
(0.556325 -0.0438273 0)
(0.599694 -0.0106123 0)
(0.599424 -0.029433 0)
(0.536569 -0.0782004 0)
(0.38264 -0.195605 0)
(0.175513 -0.344603 0)
(0.0128372 -0.443823 0)
(-0.0308693 -0.457686 0)
(0.470618 -0.102839 0)
(0.527627 -0.0933472 0)
(0.572703 -0.0968048 0)
(0.603787 -0.0828716 0)
(0.567031 -0.123705 0)
(0.454299 -0.210345 0)
(0.277318 -0.348342 0)
(0.0912764 -0.474785 0)
(-0.0285997 -0.525137 0)
(-0.0209087 -0.51556 0)
(0.488412 -0.169154 0)
(0.544367 -0.170554 0)
(0.585046 -0.172765 0)
(0.577047 -0.177834 0)
(0.486593 -0.255153 0)
(0.323893 -0.373269 0)
(0.137936 -0.515263 0)
(0.000913001 -0.601711 0)
(-0.0403985 -0.602542 0)
(-0.000724535 -0.582872 0)
(0.483946 -0.240683 0)
(0.536603 -0.247073 0)
(0.5625 -0.265413 0)
(0.511025 -0.309795 0)
(0.372349 -0.42605 0)
(0.194936 -0.559883 0)
(0.0451427 -0.671598 0)
(-0.0276218 -0.698283 0)
(-0.020468 -0.668029 0)
(0.0115836 -0.659931 0)
(0.476879 -0.324363 0)
(0.529631 -0.348944 0)
(0.531971 -0.400849 0)
(0.426869 -0.492127 0)
(0.251803 -0.628676 0)
(0.0867032 -0.739538 0)
(-0.00488446 -0.794378 0)
(-0.0167231 -0.769913 0)
(0.0072508 -0.738359 0)
(0.0115464 -0.746516 0)
(0.470418 -0.430357 0)
(0.507743 -0.489096 0)
(0.457689 -0.580023 0)
(0.301322 -0.697779 0)
(0.129476 -0.818191 0)
(0.0213806 -0.879175 0)
(-0.00320205 -0.878618 0)
(0.0124694 -0.837066 0)
(0.018843 -0.830945 0)
(0.00315367 -0.846825 0)
(0.424441 -0.557008 0)
(0.411496 -0.642725 0)
(0.318754 -0.769897 0)
(0.1625 -0.899513 0)
(0.0489933 -0.989969 0)
(0.0117501 -1.00419 0)
(0.0238035 -0.975251 0)
(0.0262715 -0.952682 0)
(0.00916582 -0.973403 0)
(-0.00371276 -0.982076 0)
(0.264264 -0.654153 0)
(0.26463 -0.811858 0)
(0.172459 -1.01328 0)
(0.0624495 -1.15131 0)
(0.0225929 -1.19533 0)
(0.0329884 -1.17203 0)
(0.0316672 -1.16054 0)
(0.00795155 -1.17678 0)
(-0.00432528 -1.19623 0)
(-0.0011349 -1.18952 0)
(0.211017 -0.844117 0)
(0.120443 -1.09348 0)
(-0.000941907 -1.25395 0)
(-0.00845537 -1.28388 0)
(0.0379383 -1.31931 0)
(0.033344 -1.3598 0)
(-0.00313706 -1.37485 0)
(-0.00909585 -1.37308 0)
(0.00213777 -1.37572 0)
(0.00141009 -1.37465 0)
(0.395629 0.0121033 1.33906e-19)
(0.410799 -0.066532 -1.31433e-19)
(0.425589 -0.130727 1.67595e-20)
(0.433665 -0.199709 0)
(0.432097 -0.272293 0)
(0.420828 -0.347777 1.78435e-20)
(0.408522 -0.429812 -7.45128e-20)
(0.377724 -0.54792 7.43004e-20)
(0.217485 -0.598565 2.12385e-20)
(0.224437 -0.710611 -2.12368e-20)
(0.378568 -0.000610164 -1.61361e-19)
(0.393557 -0.0774876 0)
(0.407089 -0.137793 1.13083e-19)
(0.4104 -0.204328 -2.56958e-19)
(0.41039 -0.274532 1.61224e-19)
(0.397017 -0.347725 -1.64891e-20)
(0.380422 -0.421312 3.49327e-20)
(0.356251 -0.536647 7.2702e-20)
(0.195302 -0.572451 2.1597e-20)
(0.222367 -0.657726 2.01444e-20)
(0.364426 -0.013609 1.92009e-19)
(0.37663 -0.0934685 -1.28565e-19)
(0.390035 -0.148614 1.2731e-19)
(0.387423 -0.210528 -1.31965e-19)
(0.388929 -0.275887 9.8046e-20)
(0.372702 -0.345191 0)
(0.351496 -0.4109 -3.50171e-20)
(0.332636 -0.517893 7.52795e-22)
(0.169843 -0.544881 -3.91103e-20)
(0.212306 -0.605395 -4.0123e-20)
(0.351701 -0.0277791 -3.15275e-20)
(0.360323 -0.106934 0)
(0.374211 -0.159311 0)
(0.365367 -0.217553 0)
(0.368137 -0.279076 1.02806e-19)
(0.348539 -0.344019 -6.84868e-20)
(0.323069 -0.402983 -2.36085e-22)
(0.308377 -0.4992 -3.76749e-20)
(0.143504 -0.520218 -2.02946e-20)
(0.197001 -0.555635 -2.06545e-20)
(0.339976 -0.0412453 9.49229e-22)
(0.345218 -0.116538 -9.47718e-20)
(0.359403 -0.16681 -6.56289e-20)
(0.344822 -0.222166 6.55804e-20)
(0.348119 -0.281407 -3.38503e-20)
(0.32499 -0.342421 0)
(0.295627 -0.395935 -3.6706e-20)
(0.284577 -0.482159 7.70659e-20)
(0.11878 -0.498459 -3.9365e-20)
(0.179883 -0.511455 4.14301e-20)
(0.328714 -0.0536976 -2.56396e-19)
(0.331551 -0.123647 3.10609e-20)
(0.345647 -0.17149 -1.21664e-21)
(0.326553 -0.223584 6.62612e-20)
(0.329287 -0.281135 0)
(0.302826 -0.338515 0)
(0.269613 -0.387421 0)
(0.262036 -0.465222 3.86427e-20)
(0.0973967 -0.477757 0)
(0.163529 -0.47293 0)
(0.317324 -0.0647966 0)
(0.31908 -0.129029 9.75794e-20)
(0.332672 -0.174446 -6.53636e-20)
(0.310896 -0.222718 -6.86658e-20)
(0.312146 -0.278479 6.90199e-20)
(0.283005 -0.332249 3.70548e-20)
(0.245773 -0.377007 -3.70557e-20)
(0.241451 -0.447485 -1.36453e-19)
(0.0800433 -0.457271 9.74612e-21)
(0.149024 -0.43895 -3.1528e-20)
(0.305525 -0.0742992 0)
(0.307433 -0.132778 -3.22756e-20)
(0.319904 -0.176047 -1.66719e-20)
(0.297429 -0.220379 0)
(0.296741 -0.274134 1.81082e-20)
(0.266049 -0.324439 -5.45233e-20)
(0.224752 -0.365514 5.75521e-20)
(0.223349 -0.429478 1.96833e-20)
(0.0663699 -0.437422 -2.07909e-20)
(0.136104 -0.408784 4.22828e-20)
(0.293369 -0.0822659 3.23172e-20)
(0.29639 -0.13502 3.29292e-20)
(0.306939 -0.176263 -8.19708e-21)
(0.285359 -0.216896 8.6602e-21)
(0.282628 -0.26842 1.77258e-20)
(0.251755 -0.315609 2.76652e-20)
(0.206622 -0.353536 -9.68914e-21)
(0.207894 -0.411911 -9.89215e-21)
(0.0553489 -0.418616 2.08594e-20)
(0.123914 -0.38203 1.05428e-20)
(0.281093 -0.088888 -8.18698e-21)
(0.285873 -0.136013 8.19075e-21)
(0.293796 -0.175099 -8.38051e-21)
(0.274041 -0.212497 -8.64867e-21)
(0.269268 -0.261487 9.0971e-21)
(0.23949 -0.305937 -1.84451e-20)
(0.190905 -0.341146 1.458e-20)
(0.194851 -0.39486 4.97215e-21)
(0.0458745 -0.400664 0)
(0.111857 -0.358417 -1.05664e-20)
(0.269018 -0.0943769 8.25389e-21)
(0.275822 -0.136107 -8.2638e-21)
(0.280775 -0.172739 -8.53412e-21)
(0.263145 -0.20757 -8.79078e-21)
(0.256352 -0.253656 -9.15482e-21)
(0.228619 -0.295677 -1.26078e-22)
(0.176952 -0.328419 4.86667e-21)
(0.183767 -0.37811 1.48817e-20)
(0.0372446 -0.383162 0)
(0.0999752 -0.337816 -1.04887e-20)
(0.257514 -0.0987356 0)
(0.266182 -0.135572 -3.38276e-20)
(0.268246 -0.169395 5.98831e-20)
(0.25259 -0.202426 8.80524e-21)
(0.243846 -0.245307 1.82634e-20)
(0.218738 -0.28517 2.81642e-20)
(0.164279 -0.315622 -9.76329e-21)
(0.174212 -0.361599 -9.92827e-21)
(0.0293049 -0.365919 2.06753e-20)
(0.0887817 -0.320128 1.04645e-20)
(0.247039 -0.101863 0)
(0.25695 -0.134478 -3.40549e-20)
(0.256563 -0.165149 -1.73001e-20)
(0.242434 -0.197086 0)
(0.23189 -0.236643 -5.53423e-20)
(0.209685 -0.274585 1.84977e-20)
(0.152654 -0.302988 1.95232e-20)
(0.165884 -0.345406 5.94278e-20)
(0.02225 -0.348952 -2.06081e-20)
(0.0788796 -0.305117 4.13863e-20)
(0.238073 -0.103876 0)
(0.248228 -0.132902 3.43432e-20)
(0.246036 -0.160101 0)
(0.232816 -0.191471 7.26727e-20)
(0.220687 -0.227781 -7.30473e-20)
(0.201438 -0.263942 -3.83534e-20)
(0.142032 -0.290628 -5.6055e-22)
(0.158612 -0.329607 -5.90202e-20)
(0.0163098 -0.332349 -9.94606e-21)
(0.0706651 -0.292393 -5.13775e-20)
(0.23096 -0.104926 2.76938e-19)
(0.240162 -0.130988 -1.03453e-19)
(0.236885 -0.154527 1.16584e-21)
(0.223907 -0.185592 -7.19287e-20)
(0.21043 -0.218908 0)
(0.194036 -0.253307 -3.84243e-20)
(0.132448 -0.278666 -6.39583e-22)
(0.152298 -0.314299 7.8643e-20)
(0.011546 -0.316243 1.01102e-20)
(0.0642564 -0.281508 -1.01502e-20)
(0.225827 -0.104991 -1.50889e-21)
(0.232857 -0.128755 1.76707e-19)
(0.229189 -0.14871 7.27258e-20)
(0.215858 -0.179497 -7.26795e-20)
(0.201244 -0.210219 -3.74129e-20)
(0.187518 -0.242775 0)
(0.123945 -0.267255 -7.80583e-20)
(0.146884 -0.299612 3.85641e-20)
(0.00783361 -0.300804 3.95892e-20)
(0.0595775 -0.272034 3.99456e-20)
(0.222564 -0.104026 -3.605e-20)
(0.226379 -0.126127 0)
(0.222861 -0.142799 0)
(0.208751 -0.17318 0)
(0.193174 -0.201853 -3.82114e-20)
(0.181889 -0.232377 7.55078e-20)
(0.116524 -0.256469 7.78697e-20)
(0.142314 -0.285605 -1.16528e-19)
(0.00494439 -0.286158 1.97678e-20)
(0.0564765 -0.263577 -5.91564e-20)
(0.220852 -0.10201 -7.31112e-20)
(0.220785 -0.123033 1.49292e-19)
(0.21771 -0.136855 -1.47865e-19)
(0.202581 -0.166587 1.51556e-19)
(0.186173 -0.193887 -1.88106e-19)
(0.177115 -0.222144 0)
(0.110138 -0.246346 -3.8737e-20)
(0.138533 -0.272313 5.79785e-23)
(0.00265191 -0.272401 -3.89995e-20)
(0.0548141 -0.255845 -3.86647e-20)
(0.220323 -0.0994724 -3.81011e-20)
(0.215916 -0.119687 0)
(0.213446 -0.131169 -1.72167e-19)
(0.197257 -0.159847 3.04526e-19)
(0.180137 -0.186414 -1.13186e-19)
(0.173115 -0.212145 -1.90838e-20)
(0.104661 -0.236794 3.86511e-20)
(0.135401 -0.259571 -3.41598e-22)
(0.000754131 -0.259543 5.74492e-20)
(0.0545198 -0.248416 5.70711e-20)
(0.220677 -0.095976 -1.59557e-19)
(0.210328 -0.115527 1.55509e-19)
(0.209161 -0.125543 1.94625e-20)
(0.191842 -0.152612 0)
(0.174512 -0.179505 0)
(0.169777 -0.202205 1.90531e-20)
(0.100328 -0.228181 7.64771e-20)
(0.13335 -0.247821 -7.49776e-20)
(-0.000499491 -0.247765 -1.87736e-20)
(0.0554495 -0.241674 1.84918e-20)
(0.221885 -0.0794931 0)
(0.189774 -0.102952 0)
(0.195634 -0.108643 0)
(0.169768 -0.134705 0)
(0.153858 -0.160326 0)
(0.14959 -0.179359 0)
(0.0816587 -0.205911 0)
(0.120505 -0.217656 0)
(-0.00756243 -0.220305 0)
(0.0661683 -0.222203 0)
(0.208536 -0.0916045 0)
(0.173961 -0.10864 0)
(0.181423 -0.12382 0)
(0.156137 -0.139724 0)
(0.139084 -0.157689 0)
(0.135492 -0.172036 0)
(0.067781 -0.187118 0)
(0.110736 -0.195955 0)
(-0.0114408 -0.194592 0)
(0.0749601 -0.195545 0)
(0.18507 -0.0598228 0)
(0.159045 -0.0736675 0)
(0.158616 -0.0936022 0)
(0.136923 -0.110293 0)
(0.119068 -0.128899 0)
(0.120479 -0.14638 0)
(0.0539387 -0.159584 0)
(0.102168 -0.172526 0)
(-0.0161536 -0.171722 0)
(0.0733593 -0.169397 0)
(0.16997 -0.0582778 0)
(0.147111 -0.0708191 0)
(0.143931 -0.0863168 0)
(0.124172 -0.0983645 0)
(0.10403 -0.111429 0)
(0.108532 -0.126183 0)
(0.0409533 -0.135509 0)
(0.0932409 -0.148598 0)
(-0.0220823 -0.149116 0)
(0.0680308 -0.145444 0)
(0.151994 -0.0469323 0)
(0.134221 -0.0583441 0)
(0.129296 -0.0732442 0)
(0.112398 -0.0847321 0)
(0.0907611 -0.0959949 0)
(0.0986 -0.109569 0)
(0.0302038 -0.116667 0)
(0.0851748 -0.128956 0)
(-0.0273107 -0.130328 0)
(0.0629645 -0.127368 0)
(0.138901 -0.0383715 0)
(0.123338 -0.0476564 0)
(0.116797 -0.0596937 0)
(0.101742 -0.0697846 0)
(0.0784853 -0.0795022 0)
(0.0892481 -0.0919842 0)
(0.0199984 -0.098929 0)
(0.077013 -0.111132 0)
(-0.0325918 -0.114329 0)
(0.0580799 -0.11387 0)
(0.12795 -0.0307259 0)
(0.114495 -0.0379015 0)
(0.106744 -0.0472048 0)
(0.09283 -0.0555113 0)
(0.0679584 -0.0636744 0)
(0.0805004 -0.0739867 0)
(0.00977237 -0.0822549 0)
(0.0682524 -0.0940083 0)
(-0.0393969 -0.101256 0)
(0.0523934 -0.107711 0)
(0.120668 -0.0232659 0)
(0.108432 -0.0278379 0)
(0.0994199 -0.034582 0)
(0.0857818 -0.0410396 0)
(0.0597033 -0.0484987 0)
(0.0722928 -0.0556934 0)
(-0.000906483 -0.0665166 0)
(0.0583526 -0.0765746 0)
(-0.0527146 -0.090198 0)
(0.0427356 -0.094636 0)
(0.131205 -0.0148846 0)
(0.12181 -0.016539 0)
(0.110311 -0.0203615 0)
(0.0945667 -0.0246886 0)
(0.0668583 -0.0321977 0)
(0.0778678 -0.028914 0)
(-0.00473424 -0.0514719 0)
(0.0556206 -0.0495878 0)
(-0.0701813 -0.0723403 0)
(0.0118751 -0.142495 0)
(0.362038 -0.00496957 0)
(0.354746 -0.00589596 0)
(0.342004 -0.00731469 0)
(0.326107 -0.00917594 0)
(0.30912 -0.0121508 0)
(0.29471 -0.0107111 0)
(0.240959 -0.0260289 0)
(0.256592 -0.0236142 0)
(0.1175 -0.0526942 0)
(0.196003 -0.116298 0)
(0.231889 -0.0593318 1.66226e-19)
(0.207401 -0.0777069 -1.6163e-19)
(0.189379 -0.0449916 1.99885e-20)
(0.17075 -0.0479808 0)
(0.153256 -0.0364715 0)
(0.140475 -0.0307012 1.88766e-20)
(0.129863 -0.0245904 -7.41406e-20)
(0.123907 -0.0184072 7.26919e-20)
(0.139826 -0.0136007 1.78807e-20)
(0.372261 -0.00538643 -1.80682e-20)
(0.234336 -0.0508107 -1.8655e-19)
(0.203364 -0.0710791 0)
(0.189461 -0.0394164 1.29841e-19)
(0.169549 -0.0436053 -2.93232e-19)
(0.153204 -0.0322382 1.81248e-19)
(0.140817 -0.0275722 -1.79793e-20)
(0.130661 -0.0220697 3.54912e-20)
(0.125389 -0.0163861 7.0164e-20)
(0.143403 -0.013152 1.7323e-20)
(0.376972 -0.00569944 1.70272e-20)
(0.236234 -0.0415693 2.16665e-19)
(0.198745 -0.0624628 -1.45885e-19)
(0.189461 -0.0341782 1.44547e-19)
(0.167994 -0.0390038 -1.44868e-19)
(0.153217 -0.0280596 1.07578e-19)
(0.14116 -0.0244116 0)
(0.131561 -0.0195336 -3.55745e-20)
(0.126926 -0.0144277 -6.30314e-23)
(0.147031 -0.0127537 -3.50736e-20)
(0.381984 -0.00611156 -3.46602e-20)
(0.237929 -0.0335034 -3.52032e-20)
(0.194976 -0.0516993 0)
(0.190304 -0.0288901 0)
(0.16697 -0.0339393 0)
(0.153571 -0.0238003 1.07156e-19)
(0.141573 -0.0211121 -7.11924e-20)
(0.132427 -0.0169419 -3.46932e-23)
(0.128245 -0.0125508 -3.54417e-20)
(0.150227 -0.0123318 -1.76543e-20)
(0.386949 -0.00657083 -1.74698e-20)
(0.23878 -0.0296548 1.61925e-21)
(0.191544 -0.0401964 -1.03595e-19)
(0.190864 -0.0235986 -7.03882e-20)
(0.166126 -0.028391 7.03607e-20)
(0.153888 -0.0194365 -3.54806e-20)
(0.141864 -0.0176656 0)
(0.133099 -0.0143149 -3.56014e-20)
(0.129207 -0.0107686 7.1199e-20)
(0.152786 -0.0118061 -3.55942e-20)
(0.391657 -0.00702707 3.54574e-20)
(0.238875 -0.0311897 -2.69678e-19)
(0.189334 -0.0298499 3.30465e-20)
(0.190618 -0.0185764 -4.88339e-22)
(0.165349 -0.0225615 6.96932e-20)
(0.153996 -0.0150682 0)
(0.141985 -0.0141567 0)
(0.133552 -0.0117179 0)
(0.129819 -0.00910769 3.56554e-20)
(0.154775 -0.011121 0)
(0.396048 -0.00743513 0)
(0.238311 -0.0351911 0)
(0.189416 -0.0214145 1.01682e-19)
(0.18985 -0.0139063 -6.8276e-20)
(0.164813 -0.016678 -6.95185e-20)
(0.153926 -0.0108026 6.98847e-20)
(0.141978 -0.0106798 3.53398e-20)
(0.133802 -0.00920429 -3.5497e-20)
(0.130118 -0.00759154 -1.25187e-19)
(0.15622 -0.010264 9.00123e-21)
(0.400089 -0.00775012 -2.69577e-20)
(0.237013 -0.036592 0)
(0.191762 -0.0141521 -3.34835e-20)
(0.188886 -0.0093206 -1.69956e-20)
(0.164578 -0.0108758 0)
(0.153689 -0.00668235 1.74997e-20)
(0.14184 -0.00728916 -5.27763e-20)
(0.133833 -0.00678732 5.33548e-20)
(0.130128 -0.00621311 1.79392e-20)
(0.157074 -0.00926166 -1.80349e-20)
(0.403785 -0.00793348 3.62063e-20)
(0.235091 -0.0320224 3.21284e-20)
(0.195349 -0.00686618 3.33641e-20)
(0.187814 -0.0043791 -8.26573e-21)
(0.164536 -0.00519292 8.56352e-21)
(0.153261 -0.00268148 1.74009e-20)
(0.141549 -0.00399409 2.63689e-20)
(0.133628 -0.0044484 -8.87352e-21)
(0.129853 -0.0049227 -8.95225e-21)
(0.15731 -0.00813863 1.80941e-20)
(0.407101 -0.00796443 9.06423e-21)
(0.232733 -0.0213375 -8.1264e-21)
(0.199075 0.00112474 8.21333e-21)
(0.186625 0.00122476 -8.43009e-21)
(0.164526 0.000391769 -8.55178e-21)
(0.15265 0.0012642 8.68254e-21)
(0.141086 -0.000774243 -1.75398e-20)
(0.133169 -0.00214704 1.33134e-20)
(0.129318 -0.00365778 4.48483e-21)
(0.156978 -0.00689593 0)
(0.409921 -0.00781658 -9.08435e-21)
(0.22991 -0.0065799 8.10548e-21)
(0.20218 0.00984814 -8.19297e-21)
(0.185356 0.00757566 -8.39707e-21)
(0.164369 0.00592055 -8.52356e-21)
(0.151892 0.00521941 -8.66994e-21)
(0.140432 0.00241137 -6.22846e-24)
(0.13246 0.000150248 4.42222e-21)
(0.128541 -0.00237123 1.34081e-20)
(0.156153 -0.00551538 0)