/*--------------------------------*- C++ -*----------------------------------*\
  =========                 |
  \\      /  F ield         | OpenFOAM: The Open Source CFD Toolbox
   \\    /   O peration     | Website:  https://openfoam.org
    \\  /    A nd           | Version:  7
     \\/     M anipulation  |
\*---------------------------------------------------------------------------*/
FoamFile
{
    version     2.0;
    format      ascii;
    class       surfaceScalarField;
    location    "66";
    object      phi;
}
// * * * * * * * * * * * * * * * * * * * * * * * * * * * * * * * * * * * * * //

dimensions      [0 3 -1 0 0 0 0];

internalField   nonuniform List<scalar> 
3880
(
-2.46142e-05
-0.000771332
0.000795947
-1.61681e-05
-0.00163584
0.0016274
5.2263e-05
-0.00200537
0.00193694
0.000200046
-0.0019762
0.00182841
0.000443897
-0.00160363
0.00135978
0.000797888
-0.000922243
0.000568252
0.00127103
4.17064e-05
-0.000514847
0.00186428
0.00126081
-0.00185406
0.00256776
0.00270008
-0.00340357
0.00431276
0.00335845
-0.00510345
-2.34029e-05
-0.00074793
-1.08031e-05
-0.00164844
6.07882e-05
-0.00207696
0.000208583
-0.00212399
0.000449312
-0.00184436
0.000799499
-0.00127243
0.00127271
-0.000431505
0.0018755
0.000658012
0.0026032
0.00197239
0.00348051
0.00343545
-1.65983e-05
-0.000731331
1.04287e-05
-0.00167547
9.76362e-05
-0.00216417
0.000257757
-0.00228411
0.000505256
-0.00209186
0.000856999
-0.00162417
0.00132964
-0.000904146
0.00193505
5.25997e-05
0.00267487
0.00123258
0.00262181
0.00353357
-2.99772e-06
-0.000728334
4.96663e-05
-0.00172813
0.000167003
-0.0022815
0.000354944
-0.00247205
0.0006235
-0.00236042
0.000987529
-0.0019882
0.00146466
-0.00138127
0.00207091
-0.000553648
0.00281443
0.000489053
0.0017496
0.00368664
1.67725e-05
-0.000745106
0.000107588
-0.00181895
0.000270516
-0.00244443
0.000503776
-0.00270531
0.000811279
-0.00266792
0.00120375
-0.00238067
0.00169745
-0.00187497
0.00231052
-0.00116672
0.00305705
-0.000257471
0.000869538
0.00393711
4.29281e-05
-0.000788034
0.000182971
-0.00195899
0.000406071
-0.00266753
0.000701898
-0.00300114
0.00106742
-0.00303344
0.0015078
-0.00282106
0.00203591
-0.00240308
0.00266982
-0.00180063
0.00342817
-0.00101582
-2.23574e-05
0.00432007
7.44675e-05
-0.000862502
0.000272499
-0.00215702
0.000567156
-0.00296219
0.000939417
-0.0033734
0.00137929
-0.00347331
0.00188593
-0.00332771
0.00246755
-0.0029847
0.00314022
-0.0024733
0.00392494
-0.00180055
-0.000937979
0.00484056
0.000109673
-0.000972175
0.000370733
-0.00241808
0.000742845
-0.0033343
0.00119866
-0.00382922
0.0017219
-0.00399655
0.00230616
-0.00391197
0.00295457
-0.00363311
0.00367984
-0.00319857
0.00450372
-0.00262443
-0.0018864
0.00545214
0.000146332
-0.00111851
0.000470495
-0.00274225
0.00091855
-0.00378235
0.00145549
-0.00436615
0.00205994
-0.00460101
0.00272104
-0.00457306
0.00343707
-0.00434914
0.00421574
-0.00397724
0.00507658
-0.00348526
-0.00286626
0.00605644
0.000181852
-0.00130036
0.000563446
-0.00312384
0.00107737
-0.00429628
0.00168189
-0.00497068
0.00235216
-0.00527127
0.00307492
-0.00529582
0.00384548
-0.00511969
0.00466598
-0.00479774
0.00554538
-0.00436467
0.00652937
-0.00385025
0.00544207
0.0297464
-0.03183
0.0066856
0.0554826
-0.0567262
0.00680658
0.0772976
-0.0774185
0.00631747
0.0970159
-0.0965268
0.00552671
0.117536
-0.116745
0.00452888
0.140213
-0.139215
0.00336707
0.16572
-0.164558
0.00202704
0.196445
-0.195105
0.000783819
0.238985
-0.237742
0.28962
-0.288836
0.0058301
0.0273517
0.00754631
0.0537664
0.00799022
0.0768537
0.00767714
0.097329
0.00695981
0.118253
0.00594115
0.141232
0.00466047
0.167001
0.00309916
0.198006
0.00144093
0.240643
0.291061
0.00614451
0.0247408
0.00834666
0.0515643
0.00914464
0.0760557
0.00902897
0.0974447
0.00839407
0.118888
0.00735763
0.142268
0.00595789
0.1684
0.00417297
0.199791
0.00210061
0.242716
0.293161
0.00638199
0.0220454
0.00905344
0.0488928
0.0102371
0.0748721
0.0103442
0.0973376
0.00980542
0.119427
0.00875977
0.143314
0.00724533
0.169915
0.00523996
0.201796
0.00275437
0.245201
0.295916
0.00656046
0.0194221
0.00963728
0.045816
0.0112354
0.0732739
0.011595
0.096978
0.0111703
0.119851
0.0101277
0.144356
0.00850819
0.171534
0.00628775
0.204017
0.00339704
0.248092
0.299313
0.00671501
0.0170271
0.0100765
0.0424546
0.01211
0.0712404
0.0127536
0.0963344
0.0124639
0.120141
0.0114391
0.145381
0.00972848
0.173245
0.00730467
0.206441
0.00402198
0.251375
0.303335
0.00688304
0.0149846
0.0103645
0.0389731
0.0128358
0.0687691
0.0137972
0.095373
0.0136712
0.120267
0.0126849
0.146367
0.0108991
0.175031
0.00828349
0.209056
0.00462583
0.255032
0.30796
0.00707854
0.0133583
0.0105087
0.0355429
0.0133919
0.0658859
0.0146928
0.0940721
0.0147532
0.120207
0.0138256
0.147295
0.0119885
0.176868
0.00920729
0.211837
0.00519939
0.25904
0.31316
0.00726297
0.0121517
0.0105153
0.0322906
0.0137737
0.0626275
0.0154625
0.0923834
0.0157531
0.119916
0.014904
0.148144
0.0130274
0.178744
0.0100847
0.21478
0.00574454
0.263381
0.318904
0.00741514
0.011266
0.0104518
0.029254
0.0139204
0.0591588
0.0159616
0.0903422
0.0165253
0.119352
0.015804
0.148865
0.0139667
0.180582
0.010882
0.217865
0.00628875
0.267974
0.325193
0.0184665
0.0191609
-0.0263614
0.0140863
0.0336341
0.0135073
0.0597378
0.012879
0.0909705
0.0114475
0.120784
0.00939348
0.150919
0.00680995
0.183165
0.00371671
0.220958
0.000903141
0.270787
0.326096
0.0209016
0.0254019
-0.0271425
0.014932
0.0396036
0.0128637
0.0618061
0.0119964
0.0918378
0.0105743
0.122206
0.00864365
0.15285
0.00624678
0.185562
0.00338417
0.223821
0.000797116
0.273374
0.326893
0.0222974
0.029412
-0.0263075
0.0163882
0.0455129
0.0130071
0.0651872
0.0115706
0.0932743
0.0100148
0.123762
0.00800754
0.154857
0.00564325
0.187927
0.00294395
0.22652
0.000631511
0.275687
0.327525
0.0223926
0.0315917
-0.0245723
0.0174199
0.0504856
0.0133152
0.0692919
0.011213
0.0953765
0.00957682
0.125398
0.00773266
0.156701
0.00548873
0.19017
0.00290241
0.229106
0.00065872
0.27793
0.328184
0.0216386
0.0323444
-0.0223913
0.0179438
0.0541804
0.0139017
0.073334
0.0113504
0.0979278
0.00932856
0.12742
0.00728376
0.158746
0.00506893
0.192385
0.00264006
0.231535
0.000572491
0.279998
0.328756
0.0201247
0.0318462
-0.0196265
0.0176921
0.056613
0.0139267
0.0770994
0.0112793
0.100575
0.00939451
0.129305
0.00744543
0.160695
0.00520133
0.194629
0.00276069
0.233976
0.000677522
0.282081
0.329434
0.0180964
0.0301444
-0.0163946
0.0172416
0.0574678
0.0142591
0.0800818
0.0113481
0.103486
0.00909526
0.131557
0.00704769
0.162743
0.00490869
0.196768
0.00259626
0.236288
0.000634338
0.284043
0.330068
0.0154293
0.0274951
-0.01278
0.0158026
0.0570944
0.0139188
0.0819656
0.0116193
0.105786
0.00959251
0.133584
0.00750086
0.164835
0.00520141
0.199068
0.00281414
0.238675
0.00078672
0.286071
0.330855
0.0134658
0.0237622
-0.00973281
0.0151954
0.0553648
0.0139981
0.0831629
0.0115224
0.108262
0.00925458
0.135852
0.00720164
0.166887
0.00501405
0.201255
0.00272558
0.240964
0.000764079
0.288032
0.331619
0.0102013
-0.00591571
0.0135214
0.0142411
0.0127105
0.0103954
0.00794652
0.00550849
0.0030027
0.000973298
0.00801108
-0.0274655
-0.00690696
0.00820759
-0.027339
0.00780723
-0.0259071
0.00711182
-0.0238769
0.00622037
-0.0214999
0.00517896
-0.0185851
0.00402675
-0.0152424
0.00285707
-0.0116103
0.00151936
-0.00839509
-0.00479468
0.00727637
-0.0280034
-0.00673846
0.00701702
-0.0270797
0.00632854
-0.0252186
0.00543379
-0.0229821
0.00439389
-0.02046
0.00324498
-0.0174362
0.00202434
-0.0140217
0.000820654
-0.0104066
-0.000526135
-0.00704831
-0.00376715
0.00623739
-0.0280476
-0.00619324
0.00560362
-0.0264459
0.00468921
-0.0243042
0.00363094
-0.0219239
0.00247104
-0.0193001
0.0012418
-0.016207
-2.51524e-05
-0.0127548
-0.00122023
-0.00921153
-0.00244892
-0.00581961
-0.00282746
0.00488355
-0.027679
-0.00525209
0.0039618
-0.0255241
0.00288128
-0.0232237
0.00170559
-0.0207482
0.000465329
-0.0180598
-0.000798663
-0.014943
-0.00204553
-0.0115079
-0.00321624
-0.00804082
-0.00430789
-0.00472797
-0.00203373
0.00324339
-0.0269701
-0.0039523
0.00211523
-0.024396
0.000924812
-0.0220333
-0.000319867
-0.0195035
-0.00158336
-0.0167963
-0.00284426
-0.0136821
-0.00404295
-0.0103092
-0.00512821
-0.00695556
-0.00606094
-0.00379523
-0.00140323
0.00138055
-0.0259863
-0.00236443
0.000116341
-0.0231318
-0.00112366
-0.0207933
-0.00238788
-0.0182393
-0.00364318
-0.0155411
-0.00485499
-0.0124703
-0.00596634
-0.00919788
-0.00693016
-0.00599174
-0.00769094
-0.00303446
-0.000935548
-0.00061564
-0.0248003
-0.000570353
-0.00194892
-0.0217985
-0.00320796
-0.0195343
-0.00445663
-0.0169906
-0.00566049
-0.0143372
-0.00678669
-0.0113441
-0.00778153
-0.00820305
-0.00860101
-0.00517226
-0.00918938
-0.00244608
-0.000618839
-0.00267419
-0.0234529
0.0013268
-0.00402565
-0.020447
-0.00526386
-0.018296
-0.00646205
-0.0157924
-0.007585
-0.0132143
-0.0086001
-0.0103289
-0.0094606
-0.00734255
-0.0101268
-0.00450602
-0.0105535
-0.00201938
-0.000433776
-0.00470381
-0.0220058
0.00325675
-0.00603687
-0.019114
-0.0072282
-0.0171047
-0.00835082
-0.0146698
-0.00937331
-0.0121918
-0.0102631
-0.00943916
-0.0109835
-0.00662214
-0.0115005
-0.00398903
-0.0117849
-0.00173495
-0.000356904
-0.00663369
-0.0205136
0.00514146
-0.00792083
-0.0178268
-0.00904796
-0.0159776
-0.0100786
-0.0136392
-0.0109914
-0.0112789
-0.0117527
-0.00867791
-0.0123384
-0.00603637
-0.0127207
-0.00360676
-0.0128879
-0.00156771
-0.000363146
-0.00840408
-0.019021
0.00691153
-0.00962739
-0.0166035
-0.0106813
-0.0149237
-0.011612
-0.0127085
-0.012416
-0.0104749
-0.0130554
-0.00803849
-0.0135212
-0.00557059
-0.0137907
-0.0033372
-0.0138687
-0.00148977
-0.000427416
-0.00997745
-0.0175637
0.00852007
-0.0111232
-0.0154577
-0.0121016
-0.0139453
-0.0129318
-0.0118783
-0.0136353
-0.00977141
-0.0141674
-0.00750643
-0.014534
-0.00520393
-0.0147172
-0.00315406
-0.0147342
-0.00147273
-0.000525467
-0.0113259
-0.0161686
0.00993083
-0.012386
-0.0143976
-0.0132927
-0.0130386
-0.0140289
-0.0111421
-0.0146465
-0.00915379
-0.0150916
-0.00706135
-0.0153839
-0.00491158
-0.0155089
-0.00302912
-0.0154925
-0.00148911
-0.000634271
-0.0124368
-0.0148536
0.0111218
-0.0134074
-0.013427
-0.0142508
-0.0121952
-0.0149053
-0.0104876
-0.0154552
-0.00860387
-0.0158372
-0.00667931
-0.0160815
-0.00466733
-0.0161764
-0.00293425
-0.0161523
-0.00151319
-0.000732153
-0.0133104
-0.0136249
0.0120817
-0.0141909
-0.0125466
-0.014982
-0.0114041
-0.0155713
-0.0098983
-0.0160731
-0.00810209
-0.0164177
-0.00633472
-0.0166397
-0.00444527
-0.0167314
-0.00284259
-0.0167232
-0.0015214
-0.000798734
-0.0139565
-0.012474
0.0128057
-0.0147497
-0.0117534
-0.015499
-0.0106549
-0.0160434
-0.00935395
-0.0165161
-0.00762938
-0.0168488
-0.00600204
-0.0170731
-0.00422095
-0.0171864
-0.00272924
-0.0172156
-0.00149221
-0.00081481
-0.0143904
-0.0113767
0.013293
-0.0151046
-0.0110391
-0.0158194
-0.00994013
-0.0163412
-0.00883212
-0.0168024
-0.00716817
-0.0171475
-0.00565692
-0.0173965
-0.00397195
-0.0175543
-0.00257144
-0.0176406
-0.00140594
-0.000762219
-0.0146183
-0.0103016
0.0135432
-0.0152736
-0.0103838
-0.0159583
-0.00925535
-0.0164829
-0.0083076
-0.0169497
-0.00670136
-0.0173302
-0.0052764
-0.0176247
-0.00367747
-0.0178477
-0.00234837
-0.0180094
-0.00124424
-0.000623662
-0.0146363
-0.00922948
0.0135642
-0.0152756
-0.00974455
-0.0159341
-0.00859693
-0.016487
-0.00775467
-0.0169764
-0.00621196
-0.0174132
-0.00483963
-0.0177721
-0.00331855
-0.0180793
-0.00204118
-0.0183336
-0.000989954
-0.000382423
-0.0145067
-0.00812834
0.0134056
-0.0151825
-0.00906873
-0.0157908
-0.00798867
-0.016378
-0.00716748
-0.0169014
-0.00568853
-0.0174082
-0.00433283
-0.0178499
-0.00287684
-0.0182595
-0.00163163
-0.0186263
-0.000623134
-2.40293e-05
-0.0638725
-0.00748335
0.0632275
-0.0659425
-0.00699878
-0.067871
-0.0060601
-0.0698159
-0.0052226
-0.0713618
-0.00414262
-0.0726047
-0.0030899
-0.073415
-0.00206661
-0.0738823
-0.00116429
-0.0740402
-0.000465304
-3.11173e-05
-0.0752157
-0.00691685
0.0746493
-0.0764187
-0.00579587
-0.0775064
-0.00497235
-0.0787003
-0.00402872
-0.0796394
-0.00320353
-0.0804036
-0.00232565
-0.0808839
-0.0015863
-0.0811509
-0.000897358
-0.0812223
-0.000393886
-3.92593e-05
-0.0879339
-0.00664519
0.0876622
-0.0885161
-0.0052137
-0.0891525
-0.00433592
-0.0898489
-0.00333235
-0.0904178
-0.00263455
-0.0908854
-0.00185809
-0.0911659
-0.00130584
-0.0913128
-0.000750414
-0.0913346
-0.000372109
-4.26167e-05
-0.103493
-0.00652915
0.103377
-0.103864
-0.00484367
-0.104249
-0.00395015
-0.104688
-0.00289352
-0.105038
-0.00228478
-0.105338
-0.00155803
-0.105509
-0.00113485
-0.105608
-0.000651733
-0.105616
-0.000363286
-3.99881e-05
-0.122764
-0.00621172
0.122447
-0.123144
-0.00446414
-0.123478
-0.00361525
-0.123839
-0.00253259
-0.124114
-0.00201035
-0.124363
-0.0013089
-0.124516
-0.000982147
-0.12463
-0.000537487
-0.124672
-0.000320927
-1.77256e-05
-0.145093
-0.00556001
0.144441
-0.145649
-0.00390775
-0.146102
-0.00316246
-0.146508
-0.00212666
-0.146821
-0.0016974
-0.147093
-0.00103685
-0.147289
-0.000785956
-0.147466
-0.000361063
-0.147569
-0.000217908
1.99546e-05
-0.16799
-0.0045281
0.166958
-0.168786
-0.00311142
-0.169445
-0.00250362
-0.16994
-0.00163129
-0.170338
-0.00129949
-0.170645
-0.000730172
-0.170898
-0.000532578
-0.171104
-0.000155393
-0.171239
-8.28843e-05
5.8314e-05
-0.18791
-0.00313086
0.186513
-0.188874
-0.00214696
-0.189658
-0.00172013
-0.190197
-0.00109261
-0.190639
-0.000857161
-0.190935
-0.0004339
-0.191181
-0.000286585
-0.191334
-2.93757e-06
-0.19143
1.35606e-05
6.84747e-05
-0.201791
-0.00163392
0.200294
-0.20287
-0.00106839
-0.203751
-0.000839322
-0.204318
-0.000524887
-0.20476
-0.000415816
-0.205002
-0.000191386
-0.205175
-0.000114015
-0.205217
3.90286e-05
-0.205238
3.5017e-05
4.48583e-05
-0.208992
0.207358
-0.21006
-0.2109
-0.211424
-0.21184
-0.212032
-0.212146
-0.212107
-0.212072
-0.0147874
0.0643667
0.0136481
-0.0154476
0.0753095
-0.0159125
0.0881271
-0.0161036
0.103569
-0.0158227
0.122166
-0.014722
0.143341
-0.0125007
0.164737
-0.00910557
0.183118
-0.00481123
0.196
0.202547
-0.0139619
0.0651253
0.0132033
-0.0145655
0.0759131
-0.0149696
0.0885311
-0.0150744
0.103673
-0.0147066
0.121798
-0.0135657
0.1422
-0.0114182
0.162589
-0.00826189
0.179961
-0.00434131
0.192079
0.198205
-0.0132115
0.0657914
0.0125454
-0.0137421
0.0764438
-0.0140722
0.0888612
-0.014112
0.103713
-0.0136978
0.121384
-0.0125673
0.141069
-0.0105271
0.160549
-0.00759134
0.177026
-0.00397848
0.188467
0.194227
-0.0123563
0.0664233
0.0117243
-0.0128224
0.0769099
-0.0130705
0.0891093
-0.0130406
0.103683
-0.0125864
0.12093
-0.0114816
0.139964
-0.00957015
0.158637
-0.00687652
0.174332
-0.00359505
0.185185
0.190632
-0.0113724
0.0670168
0.0107789
-0.0117832
0.0773207
-0.0119615
0.0892876
-0.0118738
0.103596
-0.0113948
0.120451
-0.0103343
0.138904
-0.00856993
0.156873
-0.00613373
0.171896
-0.00319865
0.18225
0.187433
-0.0102829
0.0675609
0.00973876
-0.010631
0.0776689
-0.0107453
0.0894018
-0.0106126
0.103463
-0.0101263
0.119964
-0.00913102
0.137908
-0.00753378
0.155276
-0.00537053
0.169732
-0.00279335
0.179673
0.18464
-0.00911208
0.0680458
0.00862717
-0.0093902
0.077947
-0.00944026
0.0894519
-0.00927037
0.103293
-0.00879093
0.119485
-0.00787936
0.136997
-0.00646731
0.153864
-0.00459135
0.167856
-0.00238143
0.177463
0.182258
-0.00787887
0.0684584
0.00746633
-0.00808469
0.0781528
-0.00807082
0.089438
-0.00786955
0.103092
-0.00740733
0.119023
-0.00659347
0.136183
-0.0053801
0.15265
-0.00380177
0.166278
-0.00196541
0.175627
0.180293
-0.00660294
0.0687819
0.00627943
-0.00673717
0.0782871
-0.00666015
0.089361
-0.00643347
0.102865
-0.00599645
0.118586
-0.00529036
0.135477
-0.0042842
0.151644
-0.00300897
0.165003
-0.00154864
0.174166
0.178744
-0.00530472
0.0689959
0.00509064
-0.00537189
0.0783542
-0.00523002
0.0892191
-0.00498432
0.102619
-0.0045778
0.118179
-0.00398653
0.134886
-0.00319191
0.15085
-0.0022208
0.164032
-0.00113507
0.173081
0.177609
-0.00401808
0.0690841
0.00392996
-0.00401928
0.0783554
-0.00380881
0.0890086
-0.00354785
0.102359
-0.0031734
0.117805
-0.00270014
0.134412
-0.00211699
0.150266
-0.00144602
0.163361
-0.000729177
0.172364
0.17688
-0.00277514
0.0690472
0.00281202
-0.00269863
0.0782789
-0.00242734
0.0887373
-0.00214778
0.102079
-0.00180724
0.117464
-0.00144651
0.134052
-0.0010694
0.149889
-0.000693412
0.162985
-0.000334676
0.172005
0.176545
-0.0016146
0.0689006
0.00176117
-0.00144231
0.0781066
-0.00112634
0.0884214
-0.00082336
0.101776
-0.000521841
0.117163
-0.000269302
0.133799
-9.19689e-05
0.149712
-1.94999e-06
0.162895
3.05717e-05
0.171972
0.176576
-0.000571481
0.0686842
0.000787916
-0.000281201
0.0778164
3.15217e-05
0.0881086
0.000418333
0.101389
0.000710652
0.11687
0.000877429
0.133632
0.00087779
0.149712
0.000707182
0.163065
0.00039751
0.172282
0.176974
0.000390129
0.0684112
-0.000117104
0.00082549
0.077381
0.00124276
0.0876914
0.0016199
0.101012
0.00188419
0.116606
0.0019562
0.13356
0.00178135
0.149887
0.00135684
0.16349
0.000737023
0.172902
0.177711
0.00131791
0.0680136
-0.000920354
0.00183513
0.0768638
0.00229839
0.0872281
0.00270334
0.100607
0.00295062
0.116359
0.00294295
0.133568
0.0026107
0.150219
0.00195408
0.164147
0.00104798
0.173808
0.178759
0.00211466
0.0675528
-0.00165389
0.00272986
0.0762486
0.00323853
0.0867195
0.00367408
0.100172
0.00391393
0.116119
0.00384206
0.13364
0.00337151
0.150689
0.00250391
0.165014
0.00133366
0.174978
0.180092
0.00279737
0.0670771
-0.00232166
0.00350289
0.075543
0.00404961
0.0861727
0.00450944
0.0997117
0.00474307
0.115885
0.00461818
0.133765
0.00403029
0.151277
0.00298041
0.166064
0.00157932
0.176379
0.181672
0.00341688
0.0666142
-0.00295398
0.00420063
0.0747593
0.00478649
0.0855869
0.00527133
0.0992268
0.00550625
0.11565
0.00533893
0.133932
0.00464462
0.151972
0.00342421
0.167285
0.00180724
0.177996
0.183479
0.00379142
0.0663851
-0.00356227
0.00460692
0.0739438
0.00523178
0.084962
0.00573288
0.0987257
0.00597142
0.115412
0.00578631
0.134117
0.00503339
0.152724
0.00370717
0.168611
0.00194657
0.179757
0.185425
-0.0469423
0.0607163
0.052611
-0.042284
0.0692855
-0.0391156
0.0817936
-0.035858
0.0954681
-0.0322129
0.111767
-0.0277082
0.129613
-0.0220654
0.147082
-0.0153435
0.161889
-0.00784511
0.172259
0.17758
-0.057011
0.0560998
0.0616275
-0.0529195
0.065194
-0.0491219
0.077996
-0.0448818
0.091228
-0.0402061
0.107091
-0.034436
0.123842
-0.0273401
0.139986
-0.0190157
0.153564
-0.0098062
0.163049
0.167774
-0.0687794
0.0515294
0.0733498
-0.0645558
0.0609705
-0.059921
0.0733612
-0.0547121
0.086019
-0.0487973
0.101176
-0.0414353
0.11648
-0.0326285
0.131179
-0.0224956
0.143432
-0.0113945
0.151948
0.15638
-0.0830577
0.0472189
0.0873682
-0.0781701
0.0560828
-0.072629
0.0678201
-0.066375
0.079765
-0.0589579
0.0937592
-0.0497315
0.107254
-0.0389663
0.120414
-0.0268188
0.131284
-0.0137653
0.138894
0.142614
-0.0989277
0.0420931
0.104053
-0.0932217
0.0503769
-0.086587
0.0611854
-0.0787113
0.0718892
-0.0691218
0.0841698
-0.057591
0.0957233
-0.0445789
0.107402
-0.0301687
0.116874
-0.0150068
0.123733
0.127607
-0.117656
0.0368342
0.122915
-0.110733
0.0434538
-0.102637
0.0530891
-0.0926963
0.0619488
-0.0808274
0.0723009
-0.0670801
0.081976
-0.0517011
0.0920226
-0.0349469
0.10012
-0.0177995
0.106585
0.109808
-0.135854
0.0297885
0.1429
-0.127475
0.0350751
-0.117373
0.0429873
-0.104892
0.0494673
-0.0904638
0.057873
-0.07391
0.0654222
-0.0554585
0.0735711
-0.0357513
0.0804125
-0.016438
0.0872717
0.09337
-0.155427
0.022578
0.162638
-0.145623
0.0252715
-0.133699
0.031063
-0.119439
0.0352076
-0.10315
0.0415837
-0.08441
0.046682
-0.0638864
0.0530475
-0.042484
0.0590101
-0.0223507
0.0671384
0.0710193
-0.169937
0.0108381
0.181677
-0.1572
0.0125341
-0.141687
0.0155505
-0.124098
0.0176189
-0.103648
0.0211332
-0.0807972
0.0238313
-0.055513
0.0277633
-0.0285595
0.0320566
-0.00249151
0.0410704
0.0685278
-0.260086
0.270924
-0.247552
-0.232001
-0.214383
-0.193249
-0.169418
-0.141655
-0.109598
-0.0685278
0.00141168
0.0544201
-0.00322077
-0.000211086
0.0632503
-0.00130789
0.0744466
-0.00217651
0.0882368
-0.00272405
0.104601
-0.00291658
0.123108
-0.0026598
0.142643
-0.00205358
0.162031
-0.00215899
0.181782
0.268765
0.00181689
0.0561885
-0.00358528
0.00022963
0.0648376
-0.000944881
0.0756211
-0.00185226
0.0891442
-0.00244916
0.105198
-0.00267316
0.123331
-0.00249422
0.142464
-0.0019281
0.161465
-0.00193802
0.181792
0.266827
0.00230517
0.0578409
-0.00395754
0.000796563
0.0663462
-0.000397744
0.0768154
-0.00129836
0.0900448
-0.00191967
0.105819
-0.0021847
0.123597
-0.00209997
0.142379
-0.00163217
0.160997
-0.00172096
0.181881
0.265106
0.00278375
0.0593945
-0.00433743
0.00133676
0.0677932
0.000166136
0.0779861
-0.000693867
0.0909048
-0.00129298
0.106418
-0.00160284
0.123906
-0.00158525
0.142361
-0.0012632
0.160675
-0.00143753
0.182055
0.263669
0.00325113
0.0608591
-0.00471573
0.001886
0.0691583
0.000800876
0.0790712
-8.63014e-05
0.091792
-0.000632975
0.106965
-0.000973785
0.124247
-0.00101329
0.142401
-0.000840591
0.160503
-0.00110637
0.182321
0.262562
0.003733
0.0622083
-0.00508213
0.00247373
0.0704176
0.00146974
0.0800752
0.000667325
0.0925944
8.53395e-05
0.107547
-0.000291331
0.124624
-0.000374594
0.142484
-0.000371561
0.1605
-0.000735163
0.182685
0.261827
0.00422994
0.0634078
-0.00542943
0.00309852
0.071549
0.0021845
0.0809892
0.001456
0.0933229
0.000906688
0.108096
0.000502197
0.125028
0.000326539
0.14266
0.00015858
0.160668
-0.00032299
0.183166
0.261504
0.00473352
0.0644254
-0.00575116
0.00374831
0.0725342
0.00293483
0.0818027
0.00228241
0.0939753
0.00176183
0.108617
0.00135553
0.125435
0.00106808
0.142947
0.000785307
0.16095
0.000120652
0.183831
0.261625
0.00523772
0.0652267
-0.00603904
0.00441091
0.073361
0.00370744
0.0825062
0.00313875
0.094544
0.00265669
0.109099
0.00223777
0.125854
0.00185875
0.143326
0.00142279
0.161386
0.000561158
0.184693
0.262186
0.00573124
0.0657777
-0.00628218
0.0050737
0.0740186
0.00448999
0.0830899
0.00401264
0.0950213
0.00357861
0.109533
0.00314662
0.126286
0.0026791
0.143794
0.002083
0.161982
0.00103203
0.185744
0.263218
0.00619367
0.0660477
-0.00646373
0.00571757
0.0744947
0.00526508
0.0835424
0.00488493
0.0954015
0.00450596
0.109912
0.0040664
0.126725
0.00351308
0.144347
0.00275908
0.162736
0.00151658
0.186986
0.264735
0.00661677
0.0660145
-0.00658359
0.00633477
0.0747767
0.00602303
0.0838541
0.0057468
0.0956777
0.00542939
0.110229
0.00498956
0.127165
0.00435507
0.144982
0.00344688
0.163645
0.00201004
0.188423
0.266745
0.00697978
0.065668
-0.00663325
0.00690321
0.0748532
0.00673975
0.0840175
0.00657384
0.0958436
0.00632552
0.110478
0.00589523
0.127595
0.00518843
0.145689
0.00413362
0.164699
0.00250499
0.190052
0.26925
0.00726928
0.0650109
-0.00661217
0.00740713
0.0747154
0.00739727
0.0840274
0.00734604
0.0958949
0.00717526
0.110648
0.00676544
0.128005
0.00599809
0.146456
0.00480783
0.16589
0.00299384
0.191866
0.272243
0.00747118
0.0640644
-0.00652468
0.00783213
0.0743544
0.00797764
0.0838819
0.00804472
0.0958278
0.00796146
0.110732
0.00758383
0.128383
0.0067717
0.147268
0.00546059
0.167201
0.00347159
0.193855
0.275715
0.00757776
0.0628693
-0.00638263
0.00816616
0.073766
0.00846496
0.0835831
0.00865195
0.0956408
0.0086636
0.11072
0.0083302
0.128716
0.00749175
0.148106
0.00607786
0.168615
0.00392764
0.196005
0.279643
0.00759045
0.0614856
-0.00620678
0.00840262
0.0729539
0.0088507
0.083135
0.00915831
0.0953332
0.00927226
0.110606
0.0089986
0.12899
0.00815542
0.14895
0.00665783
0.170112
0.0043606
0.198302
0.284003
0.00751896
0.0599918
-0.00602517
0.00853272
0.0719401
0.00911908
0.0825487
0.00953942
0.0949128
0.00975515
0.11039
0.00955104
0.129194
0.0087248
0.149776
0.00717455
0.171662
0.0047524
0.200724
0.288756
0.00739311
0.058463
-0.00586432
0.00859607
0.0707371
0.00931654
0.0818282
0.0098464
0.094383
0.0101669
0.11007
0.0100428
0.129318
0.00924546
0.150573
0.00765594
0.173252
0.00511454
0.203266
0.29387
0.00711812
0.0570093
-0.00566442
0.00837192
0.0694833
0.00923562
0.0809645
0.0098673
0.0937513
0.0102988
0.109638
0.010274
0.129343
0.0095642
0.151283
0.00798339
0.174833
0.00542295
0.205826
0.299293
-0.0297156
0.0542052
0.0325196
-0.02553
0.0652978
-0.0216334
0.0770679
-0.0176765
0.0897944
-0.0137438
0.105706
-0.0095897
0.125189
-0.005228
0.146921
-0.00137519
0.17098
6.33876e-05
0.204387
0.299357
-0.0448542
0.050372
0.0486874
-0.0402461
0.0606897
-0.0351225
0.0719443
-0.0296501
0.084322
-0.0240201
0.100076
-0.017842
0.119011
-0.0112063
0.140286
-0.0050489
0.164823
-0.00190447
0.201243
0.297452
-0.0612879
0.0460042
0.0656557
-0.0557387
0.0551406
-0.0493774
0.065583
-0.0425524
0.0774969
-0.0352876
0.0928108
-0.0269344
0.110657
-0.0178588
0.13121
-0.00919702
0.156161
-0.00352896
0.195575
0.293923
-0.0794125
0.0411723
0.0842445
-0.0726767
0.0484047
-0.0652957
0.058202
-0.0571855
0.0693867
-0.047995
0.0836204
-0.0371577
0.0998201
-0.0254114
0.119464
-0.0140365
0.144786
-0.00564458
0.187183
0.288279
-0.0997233
0.0351196
0.105776
-0.0922349
0.0409163
-0.0840556
0.0500227
-0.0742857
0.0596168
-0.0627789
0.0721136
-0.0493191
0.0863602
-0.0347353
0.10488
-0.0201717
0.130222
-0.00838889
0.1754
0.27989
-0.123431
0.0289313
0.129619
-0.114944
0.0324289
-0.105383
0.0404622
-0.0935683
0.0478019
-0.07983
0.0583753
-0.0639914
0.0705217
-0.0466007
0.0874892
-0.0287352
0.112357
-0.0130859
0.159751
0.266804
-0.149882
0.0207669
0.158047
-0.140966
0.0235133
-0.130246
0.0297416
-0.117102
0.034658
-0.101971
0.0432441
-0.0841143
0.0526652
-0.0643178
0.0676927
-0.0429666
0.0910055
-0.0215753
0.13836
0.245228
-0.182478
0.0126079
0.190637
-0.172696
0.0137312
-0.160872
0.017918
-0.147036
0.0208217
-0.130794
0.0270019
-0.11182
0.0336915
-0.0904979
0.0463705
-0.066665
0.0671726
-0.0385472
0.110242
0.206681
-0.234917
0.00441847
0.243107
-0.22631
0.00512391
-0.215394
0.00700151
-0.203249
0.00867707
-0.188241
0.0119934
-0.170785
0.0162361
-0.148802
0.0243876
-0.119618
0.0379881
-0.0748762
0.0655003
0.131805
-0.308713
0.313131
-0.303589
-0.296588
-0.287911
-0.275917
-0.259681
-0.235293
-0.197305
-0.131805
0.00261908
0.0340376
-0.00413701
0.000351879
0.0509546
-0.00154491
0.0675525
-0.00318344
0.085883
-0.00446329
0.107056
-0.0054347
0.130591
-0.00580875
0.158421
-0.0058705
0.190699
-0.00431965
0.241556
0.308812
0.00252976
0.0351961
-0.00368826
0.00059896
0.0528854
-0.00124438
0.0693958
-0.00286504
0.0875037
-0.0041625
0.108353
-0.005128
0.131556
-0.00555718
0.15885
-0.00563046
0.190772
-0.0041823
0.240108
0.30463
0.00259521
0.035984
-0.00338313
0.000974992
0.0545057
-0.000732314
0.0711031
-0.00226211
0.0890335
-0.00352456
0.109616
-0.00447359
0.132505
-0.00496172
0.159338
-0.00504273
0.190853
-0.00382472
0.23889
0.300805
0.00274407
0.0364357
-0.0031958
0.00141504
0.0558347
-0.000158401
0.0726766
-0.00154973
0.0904248
-0.00274179
0.110808
-0.003685
0.133449
-0.00421685
0.15987
-0.00437754
0.191014
-0.00338949
0.237902
0.297415
0.00296357
0.0365687
-0.00309656
0.00193975
0.0568585
0.000575848
0.0740405
-0.000754955
0.0917556
-0.00186915
0.111922
-0.00280265
0.134382
-0.00338708
0.160454
-0.00364963
0.191276
-0.00289804
0.23715
0.294517
0.00326398
0.0363693
-0.00306453
0.00256453
0.057558
0.00141606
0.0751889
0.000144632
0.093027
-0.000885848
0.112952
-0.00181952
0.135316
-0.00247076
0.161105
-0.00285377
0.191659
-0.00236059
0.236657
0.292157
0.00364046
0.035812
-0.00308319
0.00328187
0.0579165
0.00235614
0.0761147
0.00126152
0.0941216
0.000220344
0.113994
-0.000738709
0.136275
-0.0014487
0.161815
-0.00198987
0.192201
-0.00178364
0.236451
0.290373
0.00407235
0.034876
-0.00313635
0.00407501
0.0579139
0.00338452
0.0768051
0.00243364
0.0950725
0.00145895
0.114968
0.000465485
0.137268
-0.000305856
0.162587
-0.00107008
0.192965
-0.00117018
0.236551
0.289203
0.00453576
0.0335483
-0.00320803
0.00492338
0.0575263
0.00448262
0.0772459
0.00367802
0.0958771
0.00275982
0.115887
0.0017911
0.138237
0.000866796
0.163511
-0.000134052
0.193966
-0.000520269
0.236937
0.288683
0.00500319
-0.00328493
0.00580327
0.00563063
0.0049809
0.00412247
0.0031443
0.00209718
0.000958217
0.000153277
0.000214188
-0.00151455
0.000641455
-0.00355111
0.00120174
-0.00485656
0.00184807
-0.00561701
0.00255414
-0.00597734
0.00330717
-0.00604886
0.0041037
-0.00591623
0.00494916
-0.0056432
0.00586617
-0.00528168
-0.00489104
0.00023706
-0.00175161
0.000691472
-0.00400552
0.00127164
-0.00543673
0.00192632
-0.00627169
0.0026289
-0.00667992
0.00336829
-0.00678825
0.00414306
-0.00669099
0.00495833
-0.00645847
0.00582328
-0.00614663
-0.00580622
0.000249964
-0.00200157
0.000708927
-0.00446448
0.00127632
-0.00600413
0.00189866
-0.00689403
0.00255069
-0.00733195
0.00322414
-0.0074617
0.00392033
-0.00738718
0.0046451
-0.00718325
0.00540371
-0.00690523
-0.00659576
0.000250449
-0.00225202
0.000687929
-0.00490196
0.00120685
-0.00652305
0.00175437
-0.00744155
0.00230864
-0.00788622
0.00286564
-0.0080187
0.00343057
-0.0079521
0.00401214
-0.00776482
0.00461799
-0.00751108
-0.00722986
0.000236706
-0.00248873
0.000625056
-0.00529031
0.0010599
-0.00695789
0.00149267
-0.00787432
0.00190725
-0.0083008
0.00230523
-0.00841668
0.00269658
-0.00834346
0.00309392
-0.00816216
0.00350898
-0.00792614
-0.00767318
0.000207732
-0.00269646
0.000519709
-0.00560229
0.000837941
-0.00727612
0.00112216
-0.00815854
0.00136413
-0.00854276
0.00157192
-0.00862447
0.00176037
-0.00853191
0.00194553
-0.00834732
0.00214204
-0.00812265
-0.00789557
0.000163477
-0.00285993
0.000374197
-0.00581301
0.000548801
-0.00745073
0.000659159
-0.0082689
0.000706486
-0.00859009
0.000705332
-0.00862331
0.000674643
-0.00850122
0.000632612
-0.00830529
0.000594532
-0.00808457
-0.00787139
0.00010492
-0.00296485
0.000193525
-0.00590162
0.000204692
-0.00746189
0.000125399
-0.0081896
-3.31505e-05
-0.00843154
-0.000250204
-0.00840626
-0.000504599
-0.00824683
-0.000777816
-0.00803208
-0.00105555
-0.00780684
-0.00760014
3.41397e-05
-0.00299899
-1.46016e-05
-0.00585287
-0.000179161
-0.00729734
-0.000454429
-0.00791434
-0.000819676
-0.00806629
-0.00125026
-0.00797568
-0.00172378
-0.0077733
-0.00222314
-0.00753272
-0.00273643
-0.00729354
-0.00707982
-4.68771e-05
-0.00295212
-0.000242546
-0.00565721
-0.000586161
-0.00695372
-0.00105518
-0.00744531
-0.00162019
-0.00750129
-0.00225378
-0.00734208
-0.00293438
-0.00709271
-0.00364723
-0.00681987
-0.00438369
-0.00655708
-0.00632205
-0.000120029
-0.00283209
-0.000460666
-0.00531657
-0.00097994