/*--------------------------------*- C++ -*----------------------------------*\
  =========                 |
  \\      /  F ield         | OpenFOAM: The Open Source CFD Toolbox
   \\    /   O peration     | Website:  https://openfoam.org
    \\  /    A nd           | Version:  7
     \\/     M anipulation  |
\*---------------------------------------------------------------------------*/
FoamFile
{
    version     2.0;
    format      ascii;
    class       surfaceScalarField;
    location    "3.9";
    object      phi;
}
// * * * * * * * * * * * * * * * * * * * * * * * * * * * * * * * * * * * * * //

dimensions      [0 3 -1 0 0 0 0];

internalField   nonuniform List<scalar> 
35640
(
-4.31777e-05
0.000720161
-0.000676983
-0.000140794
0.00199921
-0.00190159
-0.000276145
0.00317577
-0.00304042
-0.000435603
0.00420983
-0.00405037
-0.000608087
0.00510372
-0.00493123
-0.000784341
0.00587325
-0.005697
-0.000956709
0.00653532
-0.00636295
-0.00111898
0.00710364
-0.00694136
-0.00126609
0.00758752
-0.00744041
-0.001394
0.00799275
-0.00786485
-0.00149952
0.00832247
-0.00821695
-0.00158009
0.0085785
-0.00849792
-0.00163365
0.00876236
-0.0087088
-0.00165852
0.00887595
-0.00885107
-0.00165335
0.00892189
-0.00892707
-0.00161699
0.00890373
-0.00894008
-0.00154851
0.0088258
-0.00889429
-0.00144713
0.00869324
-0.00879462
-0.00131227
0.00851182
-0.00864668
-0.00114354
0.00828777
-0.0084565
-0.000940766
0.0080276
-0.00823037
-0.000704059
0.00773805
-0.00797475
-0.000433868
0.00742589
-0.00769608
-0.000131069
0.00709794
-0.00740074
0.000202922
0.00676098
-0.00709497
0.000565994
0.00642176
-0.00678483
0.000955147
0.00608705
-0.0064762
0.00136618
0.00576347
-0.00617451
0.00179343
0.00546065
-0.0058879
0.00519054
0.00222922
-0.00562633
-4.08331e-05
0.000760992
-0.000133263
0.00209164
-0.00026192
0.00330443
-0.00041419
0.0043621
-0.000579637
0.00526916
-0.000749405
0.00604302
-0.000915973
0.00670189
-0.00107311
0.00726078
-0.00121579
0.0077302
-0.00133993
0.00811689
-0.00144226
0.0084248
-0.00152013
0.00865637
-0.00157139
0.00881361
-0.00159425
0.0088988
-0.00158718
0.00891482
-0.00154887
0.00886542
-0.0014782
0.00875513
-0.00137423
0.00858927
-0.00123618
0.00837377
-0.00106346
0.00811505
-0.000855761
0.0078199
-0.00061305
0.00749533
-0.000335676
0.00714851
-2.44138e-05
0.00678667
0.000319417
0.00641715
0.000693771
0.0060474
0.00109571
0.00568511
0.00152109
0.0053381
0.00196407
0.00501767
0.00473816
0.00241646
-3.78207e-05
0.000798812
-0.000123597
0.00217741
-0.000243617
0.00342445
-0.000386389
0.00450487
-0.000542244
0.00542502
-0.000702746
0.00620352
-0.000860603
0.00685975
-0.00100967
0.00740985
-0.00114491
0.00786543
-0.00126217
0.00823415
-0.00135813
0.00852076
-0.00143008
0.00872832
-0.00147575
0.00885929
-0.00149325
0.0089163
-0.00148094
0.00890251
-0.00143737
0.00882184
-0.00136127
0.00867903
-0.00125154
0.00847955
-0.00110728
0.00822951
-0.000927793
0.00793557
-0.00071266
0.00760476
-0.000461773
0.00724445
-0.000175401
0.00686214
0.000145735
0.00646554
0.00050038
0.0060625
0.000886622
0.00566116
0.00130166
0.00527007
0.00174144
0.00489831
0.00220019
0.00455893
0.004269
0.00266934
-3.41913e-05
0.000833003
-0.00011211
0.00225533
-0.000221663
0.00353401
-0.000352702
0.00463591
-0.000496388
0.00556871
-0.000644827
0.00635196
-0.000791019
0.00700594
-0.000928882
0.00754771
-0.0010534
0.00798995
-0.00116045
0.0083412
-0.00124661
0.00860692
-0.00130908
0.0087908
-0.00134557
0.00889577
-0.00135406
0.0089248
-0.00133283
0.00888128
-0.00128033
0.00876934
-0.00119519
0.00859389
-0.00107623
0.00836059
-0.00092246
0.00807574
-0.000733134
0.00774624
-0.000507796
0.00737942
-0.000246318
0.00698297
5.10378e-05
0.00656479
0.000383575
0.006133
0.0007501
0.00569597
0.00114881
0.00526245
0.00157709
0.00484179
0.00203115
0.00444425
0.00250543
0.00408465
0.00378324
0.00299119
-3.00376e-05
0.000863041
-9.88705e-05
0.00232417
-0.000196207
0.00363134
-0.000313327
0.00475303
-0.000442344
0.00569772
-0.000575927
0.00648555
-0.000707403
0.00713742
-0.000830878
0.00767119
-0.000941366
0.00810044
-0.00103469
0.00843453
-0.00110742
0.00867965
-0.0011567
0.00884009
-0.00118017
0.00891924
-0.00117576
0.00892038
-0.00114167
0.00884719
-0.00107631
0.00870398
-0.000978271
0.00849586
-0.000846328
0.00822864
-0.000679482
0.00790889
-0.000477005
0.00754376
-0.000238467
0.00714088
3.62184e-05
0.00670828
0.000346744
0.00625426
0.000692381
0.00578736
0.00107196
0.0053164
0.00148377
0.00485063
0.00192544
0.00440012
0.0023935
0.0039762
0.00288277
0.00359538
0.00328138
0.00338463
-2.53992e-05
0.00088844
-8.40618e-05
0.00238283
-0.000167615
0.00371489
-0.000268807
0.00485422
-0.00038074
0.00580966
-0.000496737
0.00660155
-0.000610518
0.0072512
-0.000716387
0.00777706
-0.000809411
0.00819346
-0.000885427
0.00851054
-0.000940978
0.0087352
-0.000973184
0.00887229
-0.000979618
0.00892567
-0.000958202
0.00889897
-0.000907124
0.00879611
-0.000824781
0.00862164
-0.000709763
0.00838084
-0.000560886
0.00807977
-0.000377212
0.00772522
-0.00015808
0.00732463
9.68444e-05
0.00688596
0.000387541
0.00641758
0.000713596
0.0059282
0.0010742
0.00542675
0.00146816
0.00492244
0.00189382
0.00442496
0.00234902
0.00394492
0.0028307
0.00349453
0.00333422
0.00309186
0.00276427
0.00385133
-2.03893e-05
0.000908829
-6.79666e-05
0.00243041
-0.000136328
0.00378326
-0.000219708
0.0049376
-0.000312289
0.00590224
-0.000408083
0.00669734
-0.000501225
0.00734434
-0.000586283
0.00786211
-0.000658426
0.00826561
-0.000713512
0.00856563
-0.000748079
0.00876976
-0.00075924
0.00888345
-0.000744561
0.00891099
-0.000701969
0.00885637
-0.000629672
0.00872381
-0.000526112
0.00851808
-0.000389953
0.00824468
-0.000220105
0.00790992
-1.57486e-05
0.00752086
0.000223639
0.00708524
0.000498239
0.00661136
0.000807864
0.00610796
0.00115194
0.00558413
0.00152952
0.00504917
0.00193932
0.00451265
0.0023797
0.00398458
0.00284867
0.00347595
0.00334356
0.00299964
0.00386042
0.00257499
0.00223302
0.00439168
-1.51249e-05
0.000923955
-5.08755e-05
0.00246616
-0.000102849
0.00383523
-0.000166778
0.00500153
-0.000237917
0.00597337
-0.000311022
0.00677044
-0.000380721
0.00741404
-0.000441863
0.00792326
-0.000489755
0.0083135
-0.000520324
0.0085962
-0.000530137
0.00877958
-0.000516315
0.00886963
-0.000476448
0.00887113
-0.000408512
0.00878844
-0.000310784
0.00862608
-0.000181798
0.00838909
-2.03538e-05
0.00808323
0.000174482
0.00771508
0.000403353
0.00729199
0.000666589
0.006822
0.000964154
0.00631379
0.00129564
0.00577647
0.00166027
0.0052195
0.00205691
0.00465253
0.00248412
0.00408545
0.0029402
0.00352849
0.00342326
0.00299289
0.00393101
0.00249188
0.00446023
0.00204577
0.00168896
0.00500429
-9.70886e-06
0.000933664
-3.31251e-05
0.00248957
-6.77794e-05
0.00386989
-0.00011087
0.00504462
-0.000158728
0.00602123
-0.000206893
0.00681861
-0.000250524
0.00745767
-0.000284799
0.00795753
-0.000305217
0.00833392
-0.000307813
0.00859879
-0.00028921
0.00876097
-0.00024658
0.008827
-0.000177577
0.00880212
-8.02575e-05
0.00869112
4.69849e-05
0.00849884
0.000205461
0.00823062
0.000396184
0.00789251
0.000619878
0.00749139
0.000876955
0.00703491
0.00116749
0.00653147
0.00149118
0.0059901
0.00184737
0.00542028
0.00223503
0.00483184
0.00265278
0.00423478
0.00309897
0.00363926
0.00357178
0.00305567
0.00406936
0.00249532
0.00458969
0.00197155
0.00513029
0.00150517
0.00113358
0.00568567
-4.26598e-06
0.00093793
-1.50725e-05
0.00250038
-3.17741e-05
0.00388659
-5.29562e-05
0.00506581
-7.6004e-05
0.00604428
-9.72619e-05
0.00683987
-0.00011246
0.00747287
-0.00011716
0.00796223
-0.000107105
0.00832386
-7.84856e-05
0.00857018
-2.80248e-05
0.00871051
4.70161e-05
0.00875196
0.000148877
0.00870026
0.000279371
0.00856062
0.000439945
0.00833827
0.000631703
0.00803886
0.000855422
0.00766879
0.00111156
0.00723525
0.00140024
0.00674622
0.00172125
0.00621046
0.00207398
0.00563736
0.00245748
0.00503678
0.00287043
0.00441889
0.00331118
0.00379403
0.00377785
0.00317258
0.00426844
0.00256509
0.00478099
0.00198276
0.00531371
0.00143884
0.00586473
0.000954149
0.000568419
0.00642989
1.09794e-06
0.000936832
2.90985e-06
0.00249857
4.46768e-06
0.00388503
5.90609e-06
0.00506437
8.83489e-06
0.00604135
1.60991e-05
0.00683261
3.13586e-05
0.00745761
5.86181e-05
0.00793497
0.000101829
0.00828065
0.000164596
0.00850741
0.000250041
0.00862507
0.000360761
0.00864124
0.000498849
0.00856217
0.000665948
0.00839353
0.000863286
0.00814093
0.00109171
0.00781043
0.00135172
0.00740878
0.00164347
0.00694351
0.00196675
0.00642294
0.002321
0.00585621
0.00270529
0.00525307
0.00311834
0.00462373
0.00355852
0.0039787
0.00402392
0.00332864
0.00451236
0.00268414
0.00502161
0.00205583
0.0055496
0.00145477
0.00609456
0.000893879
0.00665517
0.000393544
-4.97772e-06
0.00722856
6.24494e-06
0.000930587
2.04403e-05
0.00248438
4.02205e-05
0.00386525
6.46023e-05
0.00503999
9.42619e-05
0.00601169
0.000131245
0.00679562
0.000178575
0.00741028
0.000239771
0.00787378
0.000318418
0.00820201
0.000417852
0.00840797
0.000540984
0.00850194
0.000690218
0.008492
0.00086745
0.00838494
0.00107409
0.00818688
0.00131112
0.0079039
0.00157908
0.00754247
0.00187815
0.00710972
0.00220812
0.00661353
0.00256844
0.00606263
0.00295817
0.00546648
0.00337604
0.0048352
0.00382042
0.00417935
0.00428937
0.00350975
0.00478067
0.00283735
0.00529187
0.00217294
0.0058205
0.0015272
0.00636426
0.000911005
0.00692136
0.000336786
0.00749079
-0.000175892
-0.000585168
0.00807098
1.10695e-05
0.000919518
3.71459e-05
0.0024583
7.47603e-05
0.00382763
0.000121994
0.00499276
0.000178685
0.005955
0.000246112
0.0067282
0.000326646
0.00732975
0.000423271
0.00777715
0.000539141
0.00808614
0.000677262
0.00826985
0.00084027
0.00833893
0.00103032
0.00830196
0.00124904
0.00816621
0.00149759
0.00793833
0.00177662
0.00762486
0.00208636
0.00723273
0.00242662
0.00676946
0.00279681
0.00624334
0.00319599
0.00566345
0.00362284
0.00503962
0.00407573
0.00438231
0.00455269
0.00370239
0.00505145
0.00301099
0.00556948
0.00231932
0.00610407
0.00163835
0.00665249
0.000978787
0.0072122
0.000351294
0.00778126
-0.000232272
0.00835885
-0.000753483
-0.00117078
0.00894446
1.5462e-05
0.000904057
5.26725e-05
0.00242109
0.000107385
0.00377292
0.000176955
0.00492318
0.0002605
0.00587146
0.000358585
0.00663011
0.000472921
0.00721542
0.000605909
0.00764417
0.000760224
0.00793182
0.000938472
0.00809161
0.00114294
0.00813445
0.00137548
0.00806942
0.00163741
0.00790428
0.00192955
0.00764619
0.00225223
0.00730219
0.00260529
0.00687967
0.00298817
0.00638659
0.00339988
0.00583162
0.00383909
0.00522424
0.00430408
0.00457463
0.00479285
0.00389354
0.00530308
0.00319215
0.00583218
0.00248189
0.00637733
0.00177417
0.00693555
0.00108013
0.00750383
0.000410503
0.00807941
-0.000224287
0.00866014
-0.000813002
0.00924523
-0.00133857
-0.00176059
0.00983503
1.93245e-05
0.000884733
6.6698e-05
0.00237372
0.000137443
0.00370218
0.000228418
0.00483221
0.000338156
0.00576172
0.000466575
0.00650169
0.000614731
0.00706726
0.000784418
0.00747448
0.000977775
0.00773846
0.00119694
0.00787244
0.00144381
0.00788759
0.00171982
0.0077934
0.00202597
0.00759814
0.00236269
0.00730946
0.00272993
0.00693495
0.00312715
0.00648245
0.00355338
0.00596036
0.00400724
0.00537776
0.00448698
0.00474451
0.00499051
0.0040711
0.00551546
0.00336859
0.00605915
0.00264846
0.00661866
0.00192238
0.00719088
0.00120195
0.00777255
0.000498458
0.00836043
-0.000177378
0.0089515
-0.000815354
0.00954338
-0.00140489
0.0101352
-0.00193037
-0.00235333
0.0107279
2.25749e-05
0.000862159
7.89467e-05
0.00231734
0.00016436
0.00361676
0.000275417
0.00472115
0.000410215
0.00562692
0.000568106
0.0063438
0.000749513
0.00688585
0.000955604
0.00726839
0.00118794
0.00750613
0.00144815
0.00761223
0.00173763
0.00759811
0.00205742
0.00747361
0.00240807
0.00724748
0.00278964
0.0069279
0.00320166
0.00652293
0.00364318
0.00604092
0.00411284
0.0054907
0.00460885
0.00488176
0.00512906
0.0042243
0.005671
0.00352915
0.00623192
0.00280767
0.0068088
0.00207159
0.00739837
0.0013328
0.00799722
0.000603107
0.00860181
-0.000106133
0.00920864
-0.000784214
0.00981447
-0.00142118
0.0104167
-0.0020071
0.0110142
-0.00252791
-0.00294759
0.0116085
2.51509e-05
0.000837008
8.92019e-05
0.00225329
0.000187669
0.0035183
0.000317139
0.00459168
0.000475431
0.00546863
0.000661418
0.00615782
0.000874931
0.00667234
0.00111651
0.00702681
0.00138711
0.00723552
0.00168779
0.00731155
0.00201943
0.00726647
0.00238259
0.00711046
0.00277736
0.00685271
0.00320337
0.00650189
0.00365973
0.00606657
0.00414511
0.00555555
0.0046577
0.0049781
0.00519534
0.00434412
0.00575548
0.00366416
0.00633528
0.00294935
0.0069316
0.00221136
0.00754103
0.00146215
0.00815996
0.000713872
0.00878464
-2.15678e-05
0.00941123
-0.000732732
0.010036
-0.00140898
0.0106555
-0.00204064
0.0112668
-0.00261844
0.0118688
-0.00312988
-0.00354181
0.012463
2.7013e-05
0.000809995
9.73177e-05
0.00218299
0.000207034
0.00340858
0.000352969
0.00444575
0.000532815
0.00528879
0.000745068
0.00594556
0.000989015
0.0064284
0.00126459
0.00675124
0.00157213
0.00692798
0.00191208
0.0069716
0.00228479
0.00689377
0.00269028
0.00670497
0.00312818
0.0064148
0.00359766
0.00603241
0.00409742
0.00556681
0.0046257
0.00502727
0.00518032
0.00442348
0.0057587
0.00376574
0.00635791
0.00306494
0.00697471
0.00233256
0.00760554
0.00158052
0.0082466
0.000821099
0.00889386
6.66029e-05
0.00954322
-0.000670924
0.0101905
-0.00138004
0.0108318
-0.00205023
0.0114633
-0.00267216
0.0120821
-0.00323729
0.0126869
-0.00373463
-0.00413416
0.0132792
2.81474e-05
0.000781848
0.000103229
0.00210791
0.000222274
0.00328954
0.00038253
0.00428549
0.000581705
0.00508961
0.000818024
0.00570925
0.0010903
0.00615612
0.00139789
0.00644365
0.00174051
0.00658536
0.00211801
0.0065941
0.00253015
0.00648163
0.00297643
0.00625868
0.003456
0.00593524
0.00396756
0.00552084
0.00450939
0.00502498
0.00507933
0.00445733
0.0056748
0.00382801
0.00629282
0.00314772
0.00693003
0.00242772
0.00758277
0.00167982
0.00824701
0.000916283
0.00891848
0.000149627
0.00959273
-0.000607645
0.0102652
-0.00134341
0.0109315
-0.0020463
0.0115873
-0.00270602
0.0122287
-0.00331365
0.0128529
-0.00386147
0.0134583
-0.00434003
-0.00472256
0.0140467
2.85678e-05
0.00075328
0.000106958
0.00202952
0.000233382
0.00316311
0.000405714
0.00411316
0.000621822
0.0048735
0.000879761
0.00545131
0.00117795
0.00585794
0.0015152
0.00610639
0.00189067
0.0062099
0.00230359
0.00618118
0.00275316
0.00603205
0.00323836
0.00577348
0.00375784
0.00541576
0.00430985
0.00496883
0.00489226
0.00444257
0.00550248
0.0038471
0.00613753
0.00319297
0.00679397
0.00249128
0.00746801
0.00175369
0.00815544
0.000992389
0.00885174
0.000219983
0.0095521
-0.000550729
0.0102515
-0.00130709
0.0109451
-0.00203698
0.011628
-0.00272919
0.0122957
-0.00337377
0.0129445
-0.0039624
0.0135713
-0.00448825
0.0141747
-0.00494346
-0.00530454
0.0147567
2.83174e-05
0.000724963
0.00010862
0.00194922
0.00024053
0.0030312
0.000422714
0.00393098
0.000653316
0.0046429
0.000930325
0.0051743
0.00125184
0.00553642
0.00161624
0.00574199
0.00202209
0.00580404
0.00246811
0.00573516
0.00295294
0.00554722
0.00347504
0.00525138
0.00403258
0.00485822
0.00462339
0.00437803
0.00524487
0.00382109
0.00589401
0.00319796
0.00656736
0.00251962
0.00726099
0.00179765
0.00797055
0.00104413
0.00869125
0.000271693
0.00941792
-0.000506693
0.0101452
-0.00127797
0.0108675
-0.0020294
0.0115794
-0.00274893
0.0122759
-0.00342568
0.0129524
-0.00405023
0.013605
-0.00461503
0.014231
-0.00511428
0.0148294
-0.00554177
-0.00587732
0.0154021
2.74682e-05
0.000697495
0.000108422
0.00186826
0.00024408
0.00289554
0.000434022
0.00374103
0.000676781
0.00440014
0.000970372
0.00488071
0.00131267
0.00519412
0.00170167
0.005353
0.00213548
0.00537023
0.00261229
0.00525835
0.00313023
0.00502927
0.0036873
0.00469432
0.00428118
0.00426434
0.00490923
0.00374997
0.00556842
0.0031619
0.00625524
0.00251114
0.00696566
0.0018092
0.00769517
0.00106813
0.00843875
0.000300553
0.0091909
-0.000480456
0.00994576
-0.00126155
0.0106973
-0.00202947
0.0114393
-0.00277148
0.0121662
-0.00347577
0.0128725
-0.00413196
0.0135536
-0.00473141
0.0142061
-0.00526752
0.0148275
-0.00573569
0.0154172
-0.00613144
-0.00643784
0.0159777
2.61199e-05
0.000671375
0.000106659
0.00178772
0.000244569
0.00275763
0.000440432
0.00354517
0.000693254
0.00414732
0.00100117
0.00457279
0.00136193
0.00483336
0.00177321
0.00494171
0.00223275
0.0049107
0.00273826
0.00475283
0.00328745
0.00448009
0.00387781
0.00410396
0.00450658
0.00363557
0.00517061
0.00308593
0.00586634
0.00246617
0.00658965
0.00178783
0.00733587
0.00106298
0.00809974
0.000304267
0.00887543
-0.000475137
0.00965664
-0.00126167
0.0104367
-0.00204166
0.011209
-0.00280174
0.0119669
-0.00352935
0.0127043
-0.00421314
0.0134157
-0.00484345
0.014097
-0.00541264
0.0147448
-0.0059153
0.0153573
-0.00634822
0.0159345
-0.00670869
-0.00698303
0.0164797
2.43966e-05
0.000646978
0.000103707
0.00170841
0.000242694
0.00261865
0.000443003
0.00334486
0.00070418
0.00388614
0.00102456
0.00425242
0.00140185
0.00445607
0.00183352
0.00451004
0.00231697
0.00442725
0.00284956
0.00422024
0.00342854
0.00390111
0.00405094
0.00348155
0.0047135
0.00297302
0.00541251
0.00238693
0.00614374
0.00173494
0.00690236
0.00102922
0.00768285
0.000282487
0.00847908
-0.000491961
0.00928431
-0.00128037
0.0100914
-0.00206872
0.0108928
-0.00284313
0.0116814
-0.00359032
0.0124502
-0.0042981
0.0131928
-0.00495583
0.0139043
-0.00555486
0.0145804
-0.00608878
0.0152187
-0.00655357
0.015818
-0.00694753
0.016379
-0.00726976
-0.00750988
0.0169059
2.24418e-05
0.000624536
0.000100003
0.00163085
0.000239283
0.00247936
0.000443018
0.00314113
0.000711344
0.00361782
0.00104286
0.0039209
0.00143531
0.00406362
0.00188603
0.00405932
0.00239219
0.0039211
0.00295078
0.00366165
0.00355863
0.00329325
0.00421229
0.0028279
0.00490788
0.00227742
0.00564103
0.00165377
0.00640671
0.000969265
0.00719915
0.000236771
0.00801189
-0.000530249
0.00883775
-0.00131782
0.009669
-0.00211162
0.0104976
-0.00289732
0.0113155
-0.00366101
0.0121149
-0.00438972
0.0128887
-0.00507193
0.0136309
-0.005698
0.0143366
-0.00626053
0.0150023
-0.00675456
0.0156263
-0.00717758
0.0162083
-0.00752948
0.0167498
-0.00781123
-0.00801573
0.0172556
2.04127e-05
0.000604124
9.60256e-05
0.00155524
0.000235255
0.00234014
0.000441919
0.00293446
0.000716778
0.00334296
0.00105874
0.00357894
0.00146565
0.00365671
0.00193479
0.00359018
0.00246309
0.0033928
0.00304723
0.00307751
0.00368357
0.00265691
0.00436807
0.0021434
0.00509616
0.00154934
0.00586259
0.000887344
0.00666134
0.00017051
0.00748558
-0.000587471
0.0083277
-0.00137237
0.00917943
-0.00216954
0.0100321
-0.00296425
0.0108768
-0.00374205
0.011705
-0.00448926
0.0125089
-0.00519356
0.0132814
-0.00584442
0.0140168
-0.00643348
0.0147111
-0.00695482
0.0153616
-0.00740501
0.0159672
-0.00778316
0.0165283
-0.00809066
0.0170474
-0.00833026
-0.00849818
0.0175298
1.84727e-05
0.000585651
9.2275e-05
0.00148143
0.000231569
0.00220084
0.00044123
0.0027248
0.00072264
0.00306155
0.00107505
0.00322653
0.00149645
0.00323531
0.00198406
0.00310257
0.00253462
0.00284224
0.00314442
0.00246771
0.00380928
0.00199205
0.00452443
0.00142824
0.00528442
0.000789347
0.00608295
8.88183e-05
0.00691281
-0.000659351
0.00776594
-0.0014406
0.0086335
-0.00223993
0.00950614
-0.00304219
0.0103743
-0.00383241
0.0112286
-0.00459635
0.0120603
-0.00532094
0.0128616
-0.00599485
0.0136261
-0.0066089
0.0143488
-0.00715624
0.0150266
-0.00763255
0.0156575
-0.008036
0.0162415
-0.00836715
0.0167796
-0.00862873
0.0172744
-0.00882504
-0.00895499
0.0177312
1.67827e-05
0.000568868
8.92435e-05
0.00140897
0.000229181
0.0020609
0.000442464
0.00251152
0.000731079
0.00277293
0.00109462
0.00286299
0.00153121
0.00279872
0.00203802
0.00259576
0.00261151
0.00226875
0.0032475
0.00183172
0.00394111
0.00129844
0.00468668
0.000682665
0.00547765
-1.61681e-06
0.00630644
-0.000739978
0.00716453
-0.00151744
0.00804252
-0.00231858
0.00893037
-0.00312778
0.00981776
-0.00392958
0.0106945
-0.00470915
0.011551
-0.00545282
0.0123786
-0.00614856
0.0131702
-0.00678645
0.0139202
-0.00735891
0.0146248
-0.00786086
0.0152819
-0.00828961
0.0158906
-0.00864475
0.0164514
-0.00892795
0.0169656
-0.00914286
0.0174355
-0.00929502
-0.00938406
0.0178646
1.54934e-05
0.000553374
8.73918e-05
0.00133708
0.000228983
0.00191931
0.000447039
0.00229346
0.000744098
0.00247587
0.00112006
0.00248703
0.00157314
0.00234564
0.00210038
0.00206852
0.00269785
0.00167127
0.00336074
0.00116883
0.00408327
0.000575907
0.00485865
-9.2719e-05
0.005679
-0.000821965
0.00653532
-0.0015963
0.00741765
-0.00239976
0.00831525
-0.00321619
0.00921704
-0.00402956
0.010112
-0.00482449
0.0109895
-0.0055867
0.0118403
-0.00630356
0.0126562
-0.00696451
0.0134312
-0.0075614
0.0141608
-0.0080886
0.0148429
-0.00854291
0.0154766
-0.00892332
0.0160625
-0.00923061
0.0166013
-0.0094668
0.0170932
-0.00963473
0.0175361
-0.00973798
-0.00978375
0.0179358
1.47361e-05
0.000538638
8.71273e-05
0.00126468
0.000231763
0.00177468
0.000456194
0.00206903
0.000763425
0.00216864
0.00115358
0.00209687
0.00162489
0.00187434
0.00217409
0.00151932
0.00279672
0.00104865
0.0034871
0.000478455
0.00423832
-0.000175319
0.00504225
-0.000896644
0.00588948
-0.0016692
0.00676949
-0.00247631
0.00767087
-0.00330115
0.00858172
-0.00412704
0.00949011
-0.00493795
0.0103846
-0.00571899
0.0112548
-0.00645692
0.0120919
-0.00714064
0.0128889
-0.00776149
0.0136409
-0.0083134
0.0143452
-0.00879292
0.0150012
-0.00919893
0.0156102
-0.00953226
0.0161747
-0.00979515
0.0166983
-0.00999035
0.0171833
-0.0101198
0.0176253
-0.01018
0.0179845
-0.0101429
0.00416377
0.0244707
-0.0264053
0.00587126
0.0203991
-0.0221066
0.00711267
0.0200339
-0.0212753
0.00795837
0.0215652
-0.0224109
0.00847581
0.0239485
-0.024466
0.00874162
0.0264546
-0.0267205
0.00882238
0.0286886
-0.0287694
0.0087735
0.0305734
-0.0305245
0.00863667
0.0321972
-0.0320603
0.00844011
0.0336873
-0.0334908
0.00820101
0.0351165
-0.0348774
0.00792989
0.0365101
-0.0362389
0.00763344
0.0378603
-0.0375639
0.00731584
0.0391545
-0.0388369
0.00698075
0.0403797
-0.0400446
0.00663136
0.0415253
-0.0411759
0.00626975
0.0425923
-0.0422307
0.00589857
0.043577
-0.0432058
0.00551939
0.0444791
-0.0440999
0.00513357
0.0453023
-0.0449165
0.00474307
0.0460357
-0.0456452
0.0043477
0.0466977
-0.0463023
0.00394959
0.0472638
-0.0468657
0.00354795
0.0477602
-0.0473585
0.00314376
0.0481593
-0.0477551
0.00273646
0.0484871
-0.0480798
0.00232522
0.0487188
-0.0483075
0.00191119
0.0488884
-0.0484744
0.00149448
0.0490031
-0.0485864
0.0491194
-0.0487089
0.00438157
0.0225056
0.00609796
0.0186827
0.00734102
0.0187908
0.00818315
0.020723
0.0086953
0.0234364
0.00895563
0.0261943
0.0090311
0.0286132
0.00897703
0.0306275
0.00883474
0.0323394
0.00863237
0.0338897
0.008388
0.0353609
0.00811088
0.0367872
0.00780809
0.0381631
0.00748372
0.0394789
0.00714173
0.0407217
0.0067844
0.0418826
0.00641474
0.042962
0.00603448
0.0439573
0.00564604
0.0448676
0.00525044
0.0456979
0.00484915
0.0464369
0.00444347
0.0471034
0.00403362
0.0476737
0.00362085
0.0481729
0.00320452
0.0485756
0.0027854
0.0489062
0.00236193
0.0491422
0.00193565
0.0493147
0.00150659
0.0494322
0.049543
0.00464181
0.0205331
0.00634825
0.0169763
0.00758189
0.0175572
0.00841385
0.0198911
0.00891722
0.022933
0.00917031
0.0259412
0.00923964
0.0285439
0.00918006
0.0306871
0.00903241
0.0324871
0.00882434
0.0340978
0.00857462
0.0356106
0.00829165
0.0370701
0.00798279
0.038472
0.00765181
0.0398099
0.00730295
0.0410706
0.00693783
0.0422477
0.00656022
0.0433396
0.00617098
0.0443465
0.00577333
0.0452652
0.00536797
0.0461033
0.00495596
0.0468489
0.00453996
0.0475194
0.0041184
0.0480953
0.00369451
0.0485968
0.00326605
0.0490041
0.00283506
0.0493372
0.00239933
0.049578
0.00196066
0.0497534
0.00151908
0.0498737
0.04998
0.00494574
0.0185786
0.00662245
0.0152996
0.00783511
0.0163445
0.00865009
0.0190761
0.00914121
0.0224419
0.00938532
0.0256971
0.00944777
0.0284814
0.00938239
0.0307525
0.00922925
0.0326402
0.00901576
0.0343113
0.00876065
0.0358657
0.00847217
0.0373586
0.00815739
0.0387867
0.00781996
0.0401473
0.0074642
0.0414263
0.00709167
0.0426202
0.00670598
0.0437252
0.00630803
0.0447445
0.0059012
0.045672
0.00548602
0.0465184
0.00506368
0.0472713
0.00463689
0.0479462
0.00420415
0.048528
0.00376868
0.0490323
0.00332844
0.0494443
0.00288532
0.0497803
0.00243739
0.0500259
0.00198624
0.0502045
0.00153192
0.0503281
0.0504304
0.00529426
0.016669
0.00692085
0.013673
0.00810047
0.0151649
0.00889141
0.0182852
0.00936673
0.0219665
0.00960026
0.0254636
0.0096551
0.0284266
0.00958358
0.030824
0.00942503
0.0327988
0.00920651
0.0345298
0.00894598
0.0361262
0.00865209
0.0376525
0.00833164
0.0391072
0.00798805
0.0404909
0.00762543
0.0417889
0.00724567
0.043
0.00685197
0.044119
0.00644555
0.0451509
0.00602949
0.0460881
0.00560452
0.0469434
0.00517209
0.0477037
0.0047343
0.048384
0.00429065
0.0489716
0.00384341
0.0494795
0.00339151
0.0498962
0.00293617
0.0502356
0.00247605
0.050486
0.00201232
0.0506683
0.00154509
0.0507953
0.0508943
0.00568787
0.0148324
0.00724361
0.0121173
0.00837759
0.0140309
0.00913747
0.0175253
0.0095934
0.0215106
0.00981471
0.0252423
0.00986127
0.02838
0.00978346
0.0309018
0.00961956
0.0329627
0.00939615
0.0347532
0.00913045
0.0363919
0.00883135
0.0379516
0.00850536
0.0394332
0.00815585
0.0408404
0.00778657
0.0421582
0.00739967
0.0433869
0.00699814
0.0445205
0.00658333
0.0455657
0.00615816
0.0465133
0.00572351
0.0473781
0.00528096
0.0481463
0.0048323
0.0488326
0.00437768
0.0494263
0.00391877
0.0499384
0.00345515
0.0503599
0.00298765
0.0507031
0.00251524
0.0509584
0.00203887
0.0511446
0.00155862
0.0512756
0.051372
0.00612639
0.0130977
0.00759063
0.010653
0.00866612
0.0129554
0.00938788
0.0168035
0.00982082
0.0210777
0.0100283
0.0250348
0.010066
0.0283423
0.00998177
0.030986
0.00981261
0.0331318
0.00958443
0.0349814
0.00931381
0.0366625
0.00900974
0.0382557
0.0086784
0.0397645
0.00832315
0.0411956
0.00794745
0.0425339
0.00755356
0.0437808
0.00714438
0.0449297
0.0067213
0.0459888
0.0062871
0.0469475
0.0058429
0.0478223
0.00539024
0.0485989
0.00493083
0.049292
0.00446519
0.0498919
0.00399472
0.0504089
0.00351931
0.0508353
0.00303968
0.0511828
0.00255494
0.0514432
0.00206591
0.0516337
0.0015725
0.051769
0.0518635
0.00660886
0.0114931
0.00796154
0.00930033
0.00896568
0.0119513
0.00964222
0.016127
0.0100486
0.0206713
0.0102406
0.0248428
0.0102689
0.028314
0.0101782
0.0310766
0.0100039
0.0333062
0.0097711
0.0352142
0.00949585
0.0369378
0.00918705
0.0385645
0.00885058
0.040101
0.00848979
0.0415564
0.00810791
0.0429158
0.00770721
0.0441815
0.00729054
0.0453463
0.00685935
0.04642
0.00641622
0.0473906
0.0059626
0.0482759
0.00549987
0.0490617
0.00502981
0.0497621
0.00455314
0.0503686
0.00407116
0.0508909
0.00358397
0.0513225
0.00309222
0.0516745
0.00259512
0.0519403
0.00209339
0.0521354
0.00158675
0.0522756
0.052369
0.00713326
0.0100455
0.00835551
0.00807809
0.00927575
0.0110311
0.00990008
0.0155026
0.0102763
0.0202951
0.0104513
0.0246679
0.0104697
0.0282956
0.0103725
0.0311738
0.0101932
0.0334855
0.00995597
0.0354514
0.00967634
0.0372174
0.00936306
0.0388778
0.00902173
0.0404423
0.00865563
0.0419225
0.00826781
0.0433036
0.0078605
0.0445888
0.00743649
0.0457703
0.00699737
0.0468591
0.00654544
0.0478425
0.0060825
0.0487388
0.00560979
0.0495344
0.00512916
0.0502427
0.00464147
0.0508563
0.00414804
0.0513843
0.00364909
0.0518214
0.00314525
0.0521784
0.00263575
0.0524498
0.00212131
0.0526498
0.00160136
0.0527955
0.0528887
0.00769642
0.00877901
0.00877113
0.00700338
0.0095956
0.0102066
0.010161
0.0149372
0.0105036
0.0199525
0.0106601
0.0245114
0.0106682
0.0282875
0.0105644
0.0312776
0.0103803
0.0336696
0.0101388
0.0356928
0.00985509
0.0375011
0.0095376
0.0391952
0.00919165
0.0407883
0.00882049
0.0422937
0.00842697
0.0436971
0.00801328
0.0450025
0.0075821
0.0462015
0.00713524
0.0473059
0.00667466
0.0483031
0.00620252
0.049211
0.00571991
0.050017
0.00522883
0.0507338
0.00473013
0.051355
0.0042253
0.0518891
0.00371461
0.0523321
0.00319872
0.0526943
0.00267681
0.0529717
0.00214964
0.053177
0.00161635
0.0533288
0.0534227
0.00829388
0.00771369
0.00920633
0.00609093
0.00992427
0.00948865
0.0104245
0.014437
0.0107302
0.0196468
0.0108668
0.0243748
0.0108641
0.0282902
0.0107537
0.031388
0.0105649
0.0338584
0.0103194
0.0359383
0.0100319
0.0377887
0.00971045
0.0395167
0.00936017
0.0411386
0.00898421
0.0426697
0.00858523
0.0440961
0.00816541
0.0454223
0.00772726
0.0466397
0.00727285
0.0477603
0.0068038
0.0487722
0.00632258
0.0496922
0.00583015
0.0505094
0.00532871
0.0512352
0.00481908
0.0518646
0.0043029
0.0524053
0.00378047
0.0528545
0.00325258
0.0532221
0.00271827
0.053506
0.00217837
0.0537169
0.00163172
0.0538755
0.0539711
0.0089198
0.00686487
0.00965836
0.00535238
0.0102605
0.00888654
0.01069
0.0140075
0.0109557
0.0193811
0.0110711
0.0242594
0.0110571
0.0283042
0.0109402
0.0315049
0.0107468
0.0340518
0.0104976
0.0361875
0.0102065
0.0380798
0.00988143
0.0398417
0.0095271
0.0414929
0.00914661
0.0430501
0.00874243
0.0445003
0.00831675
0.045848
0.00787185
0.0470846
0.00741006
0.0482221
0.00693273
0.0492495
0.00644258
0.0501823
0.00594046
0.0510115
0.00542874
0.051747
0.00490825
0.0523851
0.00438077
0.0529328
0.00384663
0.0533887
0.00330677
0.053762
0.00276012
0.0540526
0.00220748
0.0542695
0.00164744
0.0544355
0.054534
0.00956748
0.00624185
0.0101236
0.00479622
0.0106026
0.0084076
0.0109566
0.0136534
0.0111798
0.0191579
0.0112727
0.0241664
0.0112471
0.0283298
0.0111237
0.0316284
0.0109259
0.0342495
0.0106732
0.0364402
0.0103787
0.0383743
0.0100503
0.0401701
0.00969223
0.041851
0.00930751
0.0434349
0.0088984
0.0449094
0.00846712
0.0462793
0.00801572
0.047536
0.00754677
0.0486911
0.00706135
0.0497349
0.00656242
0.0506812
0.00605074
0.0515232
0.00552885
0.0522688
0.00499757
0.0529164
0.00445887
0.0534715
0.00391305
0.0539345
0.00336125
0.0543138
0.00280233
0.0546116
0.00223697
0.0548349
0.00166353
0.055009
0.0551117
0.0102289
0.00584802
0.010598
0.00442709
0.0109486
0.00805695
0.0112236
0.0133784
0.0114019
0.0189796
0.0114714
0.0240969
0.011434
0.0283672
0.011304
0.0317584
0.011102
0.0344516
0.010846
0.0366962
0.0105484
0.0386719
0.0102169
0.0405016
0.00985536
0.0422126
0.00946672
0.0438235
0.00905297
0.0453232
0.00861637
0.0467159
0.00815875
0.0479936
0.00768285
0.049167
0.00718955
0.0502282
0.006682
0.0511888
0.00616092
0.0520443