/*--------------------------------*- C++ -*----------------------------------*\
  =========                 |
  \\      /  F ield         | OpenFOAM: The Open Source CFD Toolbox
   \\    /   O peration     | Website:  https://openfoam.org
    \\  /    A nd           | Version:  7
     \\/     M anipulation  |
\*---------------------------------------------------------------------------*/
FoamFile
{
    version     2.0;
    format      ascii;
    class       volVectorField;
    location    "3.9";
    object      U;
}
// * * * * * * * * * * * * * * * * * * * * * * * * * * * * * * * * * * * * * //

dimensions      [0 1 -1 0 0 0 0];

internalField   nonuniform List<vector> 
18000
(
(-0.00131351 0.0209289 1.29541e-20)
(-0.00645699 0.0584187 0)
(-0.0147212 0.0930651 0)
(-0.0237355 0.12362 0)
(-0.0328784 0.150129 -4.2642e-21)
(-0.0415459 0.173048 2.15684e-20)
(-0.0493587 0.192867 -4.36684e-21)
(-0.056084 0.209979 4.39697e-21)
(-0.0615897 0.22465 0)
(-0.065813 0.237038 -1.3316e-20)
(-0.0687428 0.247225 -4.45717e-21)
(-0.0704009 0.255257 0)
(-0.0708294 0.261171 8.90202e-21)
(-0.0700822 0.265018 8.92643e-21)
(-0.0682189 0.266871 -1.78157e-20)
(-0.0653029 0.266833 -1.77714e-20)
(-0.0613963 0.265031 0)
(-0.05656 0.261614 -2.64985e-20)
(-0.0508543 0.256752 8.78884e-21)
(-0.0443389 0.250629 -2.62425e-20)
(-0.0370745 0.243437 8.69559e-21)
(-0.0291242 0.235371 0)
(-0.0205522 0.226629 -8.5384e-21)
(-0.0114274 0.217407 -8.52748e-21)
(-0.00182597 0.207901 0)
(0.00816522 0.198301 0)
(0.0184442 0.188794 -1.66386e-20)
(0.0289118 0.179561 -1.65001e-20)
(0.0394352 0.170864 -1.6429e-20)
(0.0496082 0.163023 1.82018e-20)
(-0.001855 0.0221923 1.84207e-20)
(-0.00778617 0.0611797 3.20509e-20)
(-0.016591 0.0967059 -3.27953e-20)
(-0.0260219 0.127733 -3.34303e-20)
(-0.0355014 0.15439 -8.50602e-21)
(-0.0444605 0.177197 2.57742e-20)
(-0.052539 0.1967 -3.47747e-20)
(-0.0595102 0.213339 -3.50612e-20)
(-0.065242 0.227416 3.52787e-20)
(-0.0696716 0.239123 3.54413e-20)
(-0.0727829 0.248567 -1.7757e-20)
(-0.0745906 0.255811 -3.55833e-20)
(-0.0751327 0.260907 -1.78548e-20)
(-0.0744581 0.263915 3.55572e-20)
(-0.0726218 0.264916 -3.54797e-20)
(-0.0696826 0.264017 3.54806e-20)
(-0.0657 0.26135 -7.06646e-20)
(-0.0607334 0.257067 5.27968e-20)
(-0.054842 0.251344 -3.49492e-20)
(-0.048085 0.244367 1.74704e-20)
(-0.0405253 0.236332 -3.45545e-20)
(-0.032229 0.227445 0)
(-0.0232647 0.217911 1.72984e-20)
(-0.0137062 0.207938 -3.39127e-20)
(-0.00363488 0.197736 3.36019e-20)
(0.00685709 0.187513 0)
(0.0176612 0.177483 -1.64286e-20)
(0.0286716 0.167858 1.63528e-20)
(0.0397388 0.158945 6.50784e-20)
(0.0504382 0.151119 3.60487e-20)
(-0.00243737 0.0232965 -2.95269e-20)
(-0.00915587 0.0635966 -3.20501e-20)
(-0.0184393 0.0999818 4.91736e-20)
(-0.0281949 0.131491 8.34258e-20)
(-0.0378994 0.158324 0)
(-0.0470256 0.18106 -3.44116e-20)
(-0.0552346 0.200287 3.47738e-20)
(-0.0623159 0.21649 1.04996e-19)
(-0.0681412 0.230009 -3.52777e-20)
(-0.072641 0.241065 -3.54329e-20)
(-0.0757968 0.249791 1.06381e-19)
(-0.0776208 0.256269 3.55824e-20)
(-0.0781444 0.260564 0)
(-0.0774121 0.262747 -7.10865e-20)
(-0.075475 0.262906 1.06103e-19)
(-0.0723896 0.261152 -3.52045e-20)
(-0.0682137 0.257621 3.52675e-20)
(-0.0630043 0.252472 3.50788e-20)
(-0.0568211 0.245881 1.32353e-22)
(-0.0497269 0.238041 0)
(-0.0417869 0.229154 1.0356e-19)
(-0.0330711 0.219433 -6.83799e-20)
(-0.0236539 0.209093 3.41005e-20)
(-0.0136146 0.198354 0)
(-0.00304047 0.187438 -3.36011e-20)
(0.00796946 0.176574 1.3279e-19)
(0.0193032 0.165998 -9.84698e-20)
(0.0308497 0.155958 -3.27883e-20)
(0.0424431 0.146808 3.20719e-20)
(0.0536426 0.138987 3.58293e-20)
(-0.00305966 0.0243348 0)
(-0.0105721 0.0658709 1.59615e-20)
(-0.0202762 0.10304 4.40908e-24)
(-0.0302691 0.134997 -8.33317e-20)
(-0.0400837 0.162005 0)
(-0.0492479 0.184683 -6.84668e-20)
(-0.0574545 0.203657 0)
(-0.0645046 0.219447 -1.04877e-19)
(-0.0702754 0.232434 3.51077e-20)
(-0.0746997 0.242866 -7.04507e-20)
(-0.077756 0.250898 -7.08462e-20)
(-0.0794514 0.256634 -3.54379e-20)
(-0.079813 0.26015 3.53694e-20)
(-0.0788818 0.261528 3.51815e-20)
(-0.0767071 0.260862 -3.54531e-20)
(-0.0733423 0.258268 -7.00853e-20)
(-0.0688438 0.253886 6.99715e-20)
(-0.0632702 0.247879 0)
(-0.0566835 0.240427 0)
(-0.0491493 0.231728 0)
(-0.040737 0.221993 0)
(-0.0315228 0.211441 0)
(-0.0215881 0.200296 0)
(-0.0110191 0.188789 -6.68569e-20)
(9.06445e-05 0.177157 -6.66382e-20)
(0.0116365 0.165644 -2.98904e-22)
(0.0235006 0.154511 -6.54139e-20)
(0.0355688 0.144038 -3.06553e-22)
(0.0476674 0.134628 -6.4866e-20)
(0.0593322 0.126798 1.4205e-19)
(-0.00370785 0.0252059 0)
(-0.0120074 0.0678097 1.43054e-19)
(-0.0220737 0.105695 5.2129e-24)
(-0.0322158 0.138089 -4.98201e-20)
(-0.0420315 0.165287 1.68522e-19)
(-0.0511106 0.18794 1.02669e-19)
(-0.0591781 0.206705 1.03459e-19)
(-0.0660543 0.222131 0)
(-0.0716259 0.234628 0)
(-0.0758262 0.244478 1.05644e-19)
(-0.0786321 0.251857 4.94381e-23)
(-0.0800485 0.256886 -2.46778e-19)
(-0.0800991 0.259657 2.11304e-19)
(-0.0788219 0.260261 -7.05684e-20)
(-0.0762641 0.258798 6.98833e-20)
(-0.0724786 0.25539 7.00382e-20)
(-0.0675227 0.250181 -6.94259e-20)
(-0.0614573 0.243337 6.94297e-20)
(-0.0543479 0.235045 1.37709e-19)
(-0.0462648 0.225507 -6.84883e-20)
(-0.037284 0.214942 -1.35804e-19)
(-0.027489 0.203576 1.34847e-19)
(-0.0169694 0.191644 -1.3385e-19)
(-0.00581932 0.179386 6.68548e-20)
(0.00586028 0.167051 0)
(0.0179585 0.154897 0)
(0.0303529 0.143206 6.10857e-22)
(0.0429261 0.132289 -2.57264e-19)
(0.0555021 0.1226 1.27351e-19)
(0.0675917 0.114742 -1.4101e-19)
(-0.00437542 0.0259452 0)
(-0.0134513 0.0694626 -1.27135e-19)
(-0.0238222 0.107983 1.29733e-19)
(-0.0340339 0.140782 0)
(-0.0437475 0.168175 -2.69198e-19)
(-0.052618 0.19083 -3.41091e-20)
(-0.0604135 0.209422 -6.90854e-20)
(-0.0669747 0.224524 -3.47041e-20)
(-0.072197 0.236578 0)
(-0.07602 0.245889 -7.01638e-20)
(-0.0784216 0.252656 7.02334e-20)
(-0.0794035 0.257019 1.4089e-19)
(-0.078987 0.259084 -1.40812e-19)
(-0.0772096 0.258951 0)
(-0.074118 0.256727 -1.40188e-19)
(-0.0697653 0.25254 1.39026e-19)
(-0.0642112 0.246538 1.39064e-19)
(-0.0575211 0.238892 2.06673e-19)
(-0.0497657 0.229792 -2.06101e-19)
(-0.0410219 0.21945 2.72338e-19)
(-0.0313734 0.208089 1.35501e-19)
(-0.0209128 0.195944 -1.34842e-19)
(-0.00973934 0.183259 2.66804e-19)
(0.00204439 0.170284 0)
(0.0143291 0.157276 1.30844e-19)
(0.0269967 0.144507 2.60128e-19)
(0.0399197 0.132273 -1.28053e-19)
(0.0529781 0.120914 1.28473e-19)
(0.0660003 0.110931 -3.21736e-22)
(0.0784693 0.10302 -1.39947e-19)
(-0.00505002 0.0265203 -1.45678e-20)
(-0.0148862 0.0707739 0)
(-0.0255085 0.109836 -1.62124e-19)
(-0.0357106 0.143003 3.30106e-20)
(-0.0452226 0.170597 1.00839e-19)
(-0.0537701 0.19328 3.39802e-20)
(-0.0611632 0.21174 1.37196e-19)
(-0.0672672 0.22657 0)
(-0.0719926 0.238232 6.96726e-20)
(-0.0752864 0.247053 6.97095e-20)
(-0.0771269 0.253258 -7.00723e-20)
(-0.0775159 0.257005 2.09915e-19)
(-0.076475 0.258411 0)
(-0.0740415 0.257588 0)
(-0.0702623 0.25465 2.0862e-19)
(-0.0651935 0.249731 -3.46687e-19)
(-0.0588997 0.242983 1.37661e-19)
(-0.0514514 0.234581 -1.37615e-19)
(-0.0429259 0.224722 -1.36007e-19)
(-0.0334089 0.213624 -4.06575e-19)
(-0.022994 0.201518 -5.27351e-22)
(-0.0117837 0.188645 1.33095e-19)
(0.000112856 0.175259 -2.65007e-19)
(0.0125821 0.161618 1.30991e-19)
(0.0255062 0.147987 -9.27595e-22)
(0.0387598 0.134646 -1.29753e-19)
(0.0522092 0.121901 1.28653e-19)
(0.0657314 0.110115 0)
(0.0791651 0.0998326 1.25489e-19)
(0.0919668 0.0918463 2.93196e-22)
(-0.00572286 0.0269272 -2.90422e-20)
(-0.0162964 0.0717238 3.15524e-20)
(-0.0271184 0.111226 -1.9354e-19)
(-0.0372402 0.144719 -9.85851e-20)
(-0.0464592 0.172507 1.33635e-19)
(-0.0545728 0.195244 -2.03217e-19)
(-0.0614381 0.213615 -6.8728e-20)
(-0.0669488 0.228222 -1.37861e-19)
(-0.071032 0.239544 1.38627e-19)
(-0.0736444 0.247932 -2.78684e-19)
(-0.0747684 0.253631 -1.39354e-19)
(-0.0744079 0.256815 -5.09843e-22)
(-0.0725853 0.257618 6.97536e-20)
(-0.0693394 0.25616 -2.08359e-19)
(-0.0647202 0.252565 -2.77265e-19)
(-0.0587888 0.24697 2.72913e-22)
(-0.0516152 0.239532 -4.12227e-22)
(-0.0432769 0.230434 1.36119e-19)
(-0.0338604 0.219879 1.36001e-19)
(-0.0234613 0.208089 3.24822e-22)
(-0.0121845 0.195302 -1.79849e-22)
(-0.000143493 0.18177 1.31676e-19)
(0.0125416 0.167751 1.32048e-19)
(0.0257458 0.153512 -3.39488e-22)
(0.0393413 0.139324 -3.88792e-19)
(0.0531954 0.125471 2.5609e-19)
(0.0671675 0.112267 2.54751e-19)
(0.0811305 0.100088 -2.51985e-19)
(0.0949389 0.0895134 -1.25484e-19)
(0.108027 0.0814319 -1.36189e-19)
(-0.00638247 0.02716 -2.60143e-19)
(-0.0176652 0.0722985 -3.14557e-20)
(-0.0286411 0.112127 1.61141e-19)
(-0.0386187 0.145889 1.31496e-19)
(-0.0474613 0.173862 -1.33632e-19)
(-0.0550394 0.196672 1.35388e-19)
(-0.0612589 0.214991 -6.83223e-20)
(-0.0660454 0.229424 2.06651e-19)
(-0.0693461 0.240464 -1.38623e-19)
(-0.0711299 0.248479 1.39111e-19)
(-0.0713858 0.253732 6.97758e-20)
(-0.070122 0.256414 -6.98279e-20)
(-0.0673641 0.256675 -4.16196e-19)
(-0.0631542 0.254646 2.77316e-19)
(-0.0575475 0.250456 1.38315e-19)
(-0.0506117 0.244251 0)
(-0.0424239 0.236193 0)
(-0.0330703 0.226472 -1.16401e-21)
(-0.0226482 0.215294 -1.34084e-19)
(-0.0112654 0.202889 0)
(0.000961852 0.189502 0)
(0.0139081 0.175391 -1.32203e-19)
(0.0274406 0.160823 0)
(0.041423 0.146069 -2.58288e-19)
(0.0557172 0.131406 0)
(0.0701824 0.117121 -1.27867e-19)
(0.084671 0.103527 2.52844e-19)
(0.0990501 0.091006 -2.501e-19)
(0.113194 0.0801643 0)
(0.126524 0.0719772 0)
(-0.00701864 0.0272179 2.31194e-19)
(-0.0189768 0.0724874 0)
(-0.0300662 0.112516 -3.21033e-20)
(-0.0398444 0.146483 3.27139e-20)
(-0.0482375 0.17462 -1.99127e-19)
(-0.0551884 0.197513 6.07033e-23)
(-0.0606537 0.215814 -6.80567e-20)
(-0.0645938 0.230122 0)
(-0.0669791 0.240936 0)
(-0.0677941 0.248638 -6.9227e-20)
(-0.0670375 0.253509 6.9295e-20)
(-0.0647235 0.255757 -1.38604e-19)
(-0.0608835 0.255544 1.39425e-19)
(-0.0555659 0.253012 0)
(-0.048833 0.248301 0)
(-0.0407598 0.24156 0)
(-0.0314327 0.232962 1.35167e-19)
(-0.020949 0.222698 -7.35703e-22)
(-0.009418 0.210984 1.34836e-19)
(0.00304006 0.198052 -2.65228e-19)
(0.0162958 0.184157 1.32023e-19)
(0.0302108 0.169563 -6.53647e-19)
(0.0446399 0.154541 7.34374e-22)
(0.059435 0.139369 2.58275e-19)
(0.0744474 0.124328 -1.12856e-21)
(0.0895285 0.109704 2.52698e-19)
(0.104523 0.0958064 -2.49772e-19)
(0.11929 0.083014 -2.48753e-19)
(0.133728 0.0719479 6.45425e-22)
(0.147259 0.0636585 -2.655e-19)
(-0.00762173 0.0271031 -2.87548e-20)
(-0.0202162 0.0722883 0)
(-0.0313847 0.112383 6.40086e-20)
(-0.0409181 0.146475 -6.52259e-20)
(-0.0487998 0.174742 5.96889e-19)
(-0.0550438 0.197721 6.01082e-23)
(-0.0596578 0.216031 -6.78505e-20)
(-0.0626403 0.230258 6.84208e-20)
(-0.0639882 0.240901 -3.43356e-19)
(-0.0637043 0.248353 0)
(-0.0618 0.252908 0)
(-0.0582995 0.254791 -1.37566e-19)
(-0.053242 0.254177 1.38345e-19)
(-0.0466845 0.251218 -1.37345e-19)
(-0.0386982 0.246063 1.36761e-19)
(-0.0293676 0.238871 0)
(-0.0187902 0.229818 -5.40729e-19)
(-0.00707573 0.219104 2.67784e-19)
(0.00565348 0.206947 1.33269e-19)
(0.0192638 0.193589 3.96651e-19)
(0.0336119 0.179288 0)
(0.0485459 0.164314 2.60895e-19)
(0.063908 0.148945 2.57677e-19)
(0.0795386 0.133463 2.55409e-19)
(0.0952789 0.11815 -1.79886e-21)
(0.110972 0.103293 -2.50168e-19)
(0.126455 0.0891921 2.49758e-19)
(0.141579 0.0762161 0)
(0.156267 0.0649877 6.54343e-22)
(0.16996 0.0566168 5.27247e-19)
(-0.00818327 0.0268223 -2.28877e-19)
(-0.0213706 0.0717071 0)
(-0.0325898 0.111722 -2.54727e-19)
(-0.0418427 0.145848 -3.24883e-19)
(-0.0491634 0.174199 -1.98781e-19)
(-0.0546337 0.197253 6.70139e-20)
(-0.058313 0.215588 5.26332e-23)
(-0.06024 0.229772 -6.81628e-20)
(-0.0604414 0.240295 8.70989e-22)
(-0.0589415 0.247558 1.37509e-19)
(-0.0557682 0.251866 1.37185e-19)
(-0.0509582 0.253456 -1.36539e-19)
(-0.0445621 0.252515 1.37276e-19)
(-0.0366473 0.249209 -4.09745e-19)
(-0.0272962 0.243695 4.07854e-19)
(-0.0166047 0.23614 2.70113e-19)
(-0.00468298 0.226727 6.72453e-19)
(0.00834558 0.21566 -1.34963e-19)
(0.0223448 0.203165 -2.64259e-19)
(0.0371671 0.189487 -1.54374e-21)
(0.0526546 0.17489 -2.60659e-19)
(0.0686419 0.159649 7.74261e-19)
(0.0849589 0.144047 -5.13861e-19)
(0.101434 0.128369 5.06607e-19)
(0.1179 0.1129 -2.52403e-19)
(0.134191 0.0979226 4.98541e-19)
(0.150138 0.0837294 1.11072e-21)
(0.165583 0.0706705 -4.89637e-19)
(0.180472 0.0593593 4.84114e-19)
(0.194292 0.0509476 2.59126e-19)
(-0.00869636 0.0263852 2.28877e-19)
(-0.0224292 0.0707561 0)
(-0.0336765 0.110538 5.72255e-19)
(-0.042623 0.144593 1.9498e-19)
(-0.0493454 0.172966 0)
(-0.0539893 0.196071 0)
(-0.0566655 0.214438 0)
(-0.0574547 0.228606 0)
(-0.056416 0.239056 1.37067e-19)
(-0.0535989 0.246186 1.37031e-19)
(-0.0490513 0.250313 -2.74818e-19)
(-0.042826 0.251682 2.74611e-19)
(-0.0349874 0.250493 4.09623e-19)
(-0.0256161 0.246923 1.36731e-19)
(-0.0148075 0.241137 1.34324e-19)
(-0.00267093 0.233312 -4.04884e-19)
(0.0106695 0.223637 -5.35312e-19)
(0.0250757 0.212321 -2.66342e-19)
(0.0403972 0.199595 2.64244e-19)
(0.056472 0.18571 -5.23336e-19)
(0.073128 0.170933 2.5903e-19)
(0.090186 0.155543 -5.14287e-19)
(0.107464 0.139827 2.53595e-19)
(0.12478 0.124073 -1.43906e-21)
(0.141956 0.108567 -2.49647e-19)
(0.15882 0.0935886 -4.9607e-19)
(0.175196 0.0794192 4.91189e-19)
(0.19092 0.0663881 0)
(0.205958 0.0550878 -6.19256e-22)
(0.219867 0.0466964 -5.14473e-19)
(-0.00915593 0.0258052 2.84649e-20)
(-0.0233839 0.0694552 0)
(-0.0346418 0.108843 -2.53919e-19)
(-0.043265 0.14271 6.46798e-20)
(-0.049364 0.171029 -6.56755e-20)
(-0.0531434 0.194144 0)
(-0.0547642 0.212535 -6.72783e-20)
(-0.0543501 0.226705 6.77417e-20)
(-0.0519954 0.237119 1.36218e-19)
(-0.0477783 0.244169 -4.09336e-19)
(-0.04177 0.248176 -1.36671e-19)
(-0.0340427 0.249395 7.5274e-23)
(-0.0246776 0.248037 -5.26202e-22)
(-0.0137709 0.244286 -2.71316e-19)
(-0.00143318 0.238319 -1.35471e-19)
(0.0122114 0.230319 0)
(0.0270235 0.220483 7.62593e-22)
(0.0428501 0.209024 2.6495e-19)
(0.0595262 0.196178 -2.62199e-19)
(0.076875 0.182201 0)
(0.0947101 0.167362 0)
(0.112839 0.151944 0)
(0.131069 0.136236 0)
(0.149207 0.120529 -1.59679e-21)
(0.167066 0.105107 0)
(0.184466 0.0902477 0)
(0.20123 0.0762215 2.42741e-19)
(0.217183 0.0633341 2.40511e-19)
(0.232309 0.0521483 2.39402e-19)
(0.24627 0.0438558 -6.05967e-22)
(-0.00955892 0.0250986 2.83691e-20)
(-0.0242297 0.0678308 -6.17248e-20)
(-0.035485 0.106661 3.7867e-19)
(-0.0437758 0.14021 -6.44112e-20)
(-0.0492376 0.168383 6.55391e-20)
(-0.0521282 0.191453 6.11627e-23)
(-0.0526576 0.209844 2.00773e-19)
(-0.0509926 0.224021 -2.69801e-19)
(-0.0472651 0.234424 4.06923e-19)
(-0.0415852 0.241439 4.61855e-22)
(-0.0340503 0.245384 -1.35769e-19)
(-0.0247555 0.24652 2.71688e-19)
(-0.0138015 0.245067 -2.70904e-19)
(-0.00130258 0.241218 2.6974e-19)
(0.0126141 0.23516 0)
(0.027808 0.227081 2.66492e-19)
(0.0441239 0.217184 0)
(0.0613934 0.205689 1.26395e-21)
(0.0794368 0.192835 -2.60088e-19)
(0.098063 0.178882 -2.57732e-19)
(0.117072 0.1641 2.55332e-19)
(0.136258 0.148776 -2.52915e-19)
(0.155417 0.133198 -2.50502e-19)
(0.174345 0.11766 -4.97744e-19)
(0.192847 0.102445 -2.45748e-19)
(0.210738 0.087825 2.44355e-19)
(0.227836 0.0740615 -4.84481e-19)
(0.243961 0.0614349 -2.40498e-19)
(0.259108 0.0504719 0)
(0.27307 0.0423689 -2.51709e-19)
(-0.00990447 0.0242837 0)
(-0.0249645 0.0659146 2.45604e-19)
(-0.0362068 0.104021 -1.89298e-19)
(-0.044162 0.137113 -3.20775e-19)
(-0.0489824 0.165033 0)
(-0.0509732 0.187986 0)
(-0.0503907 0.206338 -4.01523e-19)
(-0.047445 0.220511 5.3871e-19)
(-0.0423075 0.230919 -4.06094e-19)
(-0.0351224 0.237932 0)
(-0.0260165 0.241864 1.36285e-19)
(-0.0151104 0.242979 -1.36022e-19)
(-0.00252716 0.241503 9.63721e-22)
(0.0115992 0.237637 -1.35525e-19)
(0.0271232 0.231574 -1.3324e-19)
(0.043887 0.22351 -1.10666e-21)
(0.0617191 0.213653 2.63342e-19)
(0.0804358 0.202227 2.62349e-19)
(0.0998429 0.189477 7.84384e-22)
(0.119735 0.175662 5.14908e-19)
(0.139897 0.161056 -5.09881e-19)
(0.160113 0.145944 5.05153e-19)
(0.180166 0.130619 2.50488e-19)
(0.199842 0.115372 2.48096e-19)
(0.218938 0.100484 1.47696e-21)
(0.237261 0.086222 0)
(0.25463 0.0728385 2.40534e-19)
(0.270859 0.0605885 -7.1457e-19)
(0.285951 0.049957 2.34251e-19)
(0.299852 0.0421422 2.48287e-19)
(-0.0101939 0.0233809 -1.68704e-19)
(-0.025589 0.0637435 -5.51744e-19)
(-0.0368094 0.100961 -6.41375e-23)
(-0.0444296 0.133451 7.33095e-22)
(-0.0486118 0.160999 -1.9494e-19)
(-0.0497023 0.183747 0)
(-0.0480013 0.202004 -1.32842e-19)
(-0.043762 0.216148 -8.05657e-19)
(-0.0371958 0.226562 4.05214e-19)
(-0.0284832 0.233594 -2.70146e-19)
(-0.0177826 0.237553 4.05537e-19)
(-0.00524243 0.238702 -1.35204e-19)
(0.00898971 0.237269 2.69921e-19)
(0.0247584 0.23346 -6.70447e-19)
(0.041899 0.227476 4.00603e-19)
(0.0602355 0.219517 -7.65014e-22)
(0.07958 0.209797 -7.88536e-19)
(0.0997337 0.198544 2.60339e-19)
(0.120487 0.186005 -2.58385e-19)
(0.141621 0.17244 0)
(0.162907 0.158126 2.52672e-19)
(0.184115 0.143346 0)
(0.205016 0.128394 -2.48364e-19)
(0.225388 0.113557 2.4592e-19)
(0.245015 0.0991142 2.44244e-19)
(0.263701 0.0853275 2.40472e-19)
(0.281265 0.0724379 0)
(0.297521 0.0606764 0)
(0.312468 0.0504826 -4.70714e-19)
(0.32623 0.0430578 7.36126e-19)
(-0.0104308 0.0224119 1.68859e-19)
(-0.0261068 0.0613579 3.05877e-19)
(-0.0372953 0.0975258 -2.499e-19)
(-0.0445822 0.129264 5.10717e-19)
(-0.0481334 0.15631 6.57424e-20)
(-0.048331 0.178752 6.58598e-20)
(-0.0455164 0.196845 9.05057e-22)
(-0.0399847 0.210919 -2.66907e-19)
(-0.0319876 0.221324 -1.3413e-19)
(-0.0217428 0.228386 8.35717e-22)
(-0.0094423 0.232402 -8.56543e-22)
(0.00473616 0.233629 -4.03564e-19)
(0.020619 0.232296 -1.33718e-19)
(0.0380283 0.228615 9.47766e-22)
(0.0567793 0.222787 2.65157e-19)
(0.0766777 0.215021 2.6326e-19)
(0.097519 0.205531 1.06836e-21)
(0.119089 0.19455 -2.58848e-19)
(0.141163 0.182327 2.56809e-19)
(0.163507 0.169122 -2.54728e-19)
(0.185877 0.155212 -5.04095e-19)
(0.20803 0.14088 -2.4946e-19)
(0.229725 0.126418 4.93493e-19)
(0.250726 0.11211 0)
(0.270811 0.0982285 -2.41485e-19)
(0.289778 0.0850294 -4.79556e-19)
(0.307446 0.0727425 -4.75164e-19)
(0.323634 0.0615753 2.35544e-19)
(0.338338 0.0519191 -6.99943e-19)
(0.351863 0.0449829 2.42997e-19)
(-0.0106203 0.0213983 -2.79606e-19)
(-0.0265231 0.0588004 6.08666e-20)
(-0.0376671 0.093767 2.49902e-19)
(-0.0446198 0.124602 -1.91278e-19)
(-0.0475478 0.151012 6.50685e-20)
(-0.0468638 0.173036 -1.37183e-22)
(-0.0429478 0.19088 6.62324e-19)
(-0.0361351 0.204831 2.67337e-19)
(-0.0267174 0.215199 2.68636e-19)
(-0.01495 0.222289 4.03699e-19)
(-0.00105866 0.226379 -4.0391e-19)
(0.0147482 0.22772 2.68949e-19)
(0.0322703 0.226538 5.35436e-19)
(0.0513067 0.223045 2.66085e-19)
(0.0716518 0.217447 -7.50736e-22)
(0.093093 0.209953 -5.26264e-19)
(0.115409 0.200783 5.2147e-19)
(0.138369 0.19017 2.78712e-22)
(0.161732 0.178364 -2.55649e-19)
(0.185246 0.165626 2.53577e-19)
(0.208654 0.15223 2.51424e-19)
(0.231696 0.13846 -2.47693e-19)
(0.254116 0.124603 -4.92109e-19)
(0.275667 0.110938 2.68344e-23)
(0.296118 0.0977302 2.42092e-19)
(0.315264 0.0852265 2.39086e-19)
(0.33293 0.0736443 4.72403e-19)
(0.34894 0.0631682 -4.65934e-19)
(0.363286 0.0541392 0)
(0.376459 0.0477799 2.41039e-19)
(-0.0107694 0.0203613 7.34678e-22)
(-0.0268447 0.0561145 0)
(-0.0379258 0.0897387 -1.86084e-19)
(-0.0445378 0.119523 -6.33963e-20)
(-0.0468465 0.145159 -2.57586e-19)
(-0.0452914 0.166648 0)
(-0.0402885 0.18415 -3.96668e-19)
(-0.0322113 0.197911 1.33022e-19)
(-0.0213907 0.208204 0)
(-0.00811827 0.215307 -2.67647e-19)
(0.00734583 0.219479 0)
(0.0247628 0.220959 -4.0094e-19)
(0.0439058 0.219971 3.99732e-19)
(0.0645499 0.216722 -2.65837e-19)
(0.0864688 0.21142 -2.63242e-19)
(0.109431 0.204275 0)
(0.133196 0.195509 0)
(0.157516 0.185356 2.56965e-19)
(0.182132 0.174065 -5.03181e-22)
(0.206772 0.161897 2.51254e-19)
(0.23116 0.149124 -2.49861e-19)
(0.25502 0.136027 4.94669e-19)
(0.278081 0.122886 -2.44644e-19)
(0.300082 0.109973 0)
(0.320786 0.097546 7.19357e-19)
(0.339989 0.0858379 -1.18512e-18)
(0.357522 0.0750524 2.35233e-19)
(0.373225 0.0653519 2.33101e-19)
(0.387085 0.0570257 2.29529e-19)
(0.399773 0.0513139 4.76076e-19)
(-0.0108857 0.0193208 -2.2139e-19)
(-0.0270788 0.0533427 4.83299e-19)
(-0.0380703 0.0854982 2.48302e-19)
(-0.0443254 0.114094 5.68357e-19)
(-0.0460102 0.138822 7.06893e-19)
(-0.0435883 0.159654 1.30386e-19)
(-0.0375093 0.176717 -6.57489e-19)
(-0.0281832 0.190214 0)
(-0.0159776 0.200385 -5.32382e-19)
(-0.00121966 0.207476 -2.65997e-19)
(0.0157976 0.211728 0)
(0.0348055 0.213367 -2.65504e-19)
(0.0555503 0.212606 -6.92326e-22)
(0.0777836 0.209652 -7.9277e-19)
(0.101257 0.204707 2.63236e-19)
(0.125718 0.197984 2.60474e-19)
(0.150908 0.189703 -5.16782e-19)
(0.176556 0.180099 -5.12412e-19)
(0.202382 0.169419 5.41635e-22)
(0.228091 0.157921 -2.88294e-22)
(0.253388 0.145875 0)
(0.277976 0.133556 -2.45816e-19)
(0.301567 0.121238 -2.42098e-19)
(0.323892 0.109181 0)
(0.344709 0.0976319 0)
(0.363818 0.0868084 7.08404e-19)
(0.381066 0.0768982 -6.98529e-19)
(0.396314 0.0680417 0)
(0.409548 0.060476 6.85047e-19)
(0.421605 0.0554601 -4.71617e-19)
(-0.0109776 0.0182947 1.49694e-21)
(-0.0272319 0.0505261 -4.83233e-19)
(-0.0380962 0.081104 -6.17409e-20)
(-0.0439647 0.108386 -6.31243e-19)
(-0.0450076 0.132077 -3.85466e-19)
(-0.0417114 0.152137 1.29985e-19)
(-0.0345573 0.168662 2.63374e-19)
(-0.0239894 0.181819 6.6041e-19)
(-0.01041 0.191815 5.32382e-19)
(0.00582024 0.198867 5.33639e-19)
(0.0243771 0.203192 0)
(0.0449625 0.205001 1.71932e-21)
(0.0672966 0.204499 0)
(0.0911061 0.201883 5.28033e-19)
(0.11612 0.197355 0)
(0.142062 0.191122 -2.59495e-19)
(0.168649 0.183405 2.59883e-19)
(0.195588 0.174436 0)
(0.222568 0.164459 0)
(0.249273 0.153729 -7.48887e-19)
(0.275382 0.142509 2.47671e-19)
(0.300578 0.131069 0)
(0.324559 0.11967 4.84622e-19)
(0.347047 0.108562 4.80542e-19)
(0.367806 0.0979739 -9.48647e-19)
(0.386645 0.0881086 9.388e-19)
(0.403431 0.0791347 1.31071e-21)
(0.418059 0.0711709 4.58617e-19)
(0.43052 0.0644026 -4.56472e-19)
(0.441794 0.0601044 0)
(-0.0110531 0.0172983 5.5335e-19)
(-0.0273092 0.0477023 -6.00757e-20)
(-0.0379945 0.0766135 -4.91775e-19)
(-0.0434298 0.102471 0)
(-0.0437949 0.125013 -5.10304e-19)
(-0.0395994 0.144194 0)
(-0.0313546 0.160088 -6.53527e-19)
(-0.0195367 0.172832 -3.964e-19)
(-0.00458028 0.182601 -5.2908e-19)
(0.0131228 0.189582 0)
(0.0332185 0.193972 1.32704e-19)
(0.0553807 0.195963 1.33949e-19)
(0.0793023 0.195746 -2.64302e-19)
(0.104684 0.193513 -5.24392e-19)
(0.131228 0.189457 -2.60292e-19)
(0.158632 0.183782 -1.03446e-18)
(0.186585 0.176706 5.14856e-19)
(0.214761 0.168455 6.59148e-22)
(0.242821 0.159269 6.08879e-22)
(0.270419 0.149396 7.48331e-19)
(0.29721 0.139094 0)
(0.322857 0.128621 0)
(0.347048 0.118226 -1.33205e-21)
(0.369505 0.108143 9.32168e-22)
(0.390002 0.0985833 -4.70796e-19)
(0.408369 0.0897301 -4.67054e-19)
(0.424501 0.081732 1.11805e-21)
(0.438333 0.0746867 -4.58605e-19)
(0.449872 0.0687294 -4.53017e-19)
(0.460213 0.0651427 9.80571e-22)
(-0.0111194 0.0163438 0)
(-0.027313 0.0449044 4.78528e-19)
(-0.0377512 0.0720816 4.30369e-19)
(-0.0426863 0.0964268 6.25818e-20)
(-0.0423155 0.117723 1.01897e-18)
(-0.0371729 0.135933 -1.29171e-19)
(-0.0277996 0.151116 1.04348e-18)
(-0.0147017 0.163382 5.24826e-19)
(0.00165605 0.172877 7.93171e-19)
(0.0208524 0.179763 3.96192e-19)
(0.0425049 0.18421 1.32268e-19)
(0.066259 0.186395 6.60994e-19)
(0.091779 0.186494 -5.40514e-22)
(0.118736 0.184686 2.62359e-19)
(0.146803 0.181158 5.20851e-19)
(0.175644 0.176107 5.16742e-19)
(0.204913 0.169743 0)
(0.23425 0.162288 0)
(0.263281 0.153974 0)
(0.29163 0.14504 0)
(0.318929 0.135735 4.89442e-19)
(0.344827 0.126303 0)
(0.369008 0.116977 -8.79723e-22)
(0.391206 0.107974 9.48562e-19)
(0.411211 0.0994866 4.69683e-19)
(0.428886 0.0916757 4.64699e-19)
(0.444164 0.0846692 9.19554e-19)
(0.457025 0.0785445 0)
(0.4675 0.073389 -8.99671e-19)
(0.476776 0.0704811 9.23623e-19)
(-0.0111819 0.0154398 4.384e-19)
(-0.0272421 0.0421601 -4.78539e-19)
(-0.0373465 0.0675592 0)
(-0.0416915 0.0903268 -4.98536e-19)
(-0.0405009 0.110305 -1.28725e-19)
(-0.034337 0.127472 -3.85298e-19)
(-0.0237701 0.141879 -1.17032e-18)
(-0.00933553 0.153617 -1.76637e-21)
(0.00847349 0.162804 -3.94034e-19)
(0.0292074 0.169577 -9.23542e-19)
(0.0524552 0.174084 -1.31986e-19)
(0.0778326 0.17648 -5.25624e-19)
(0.104972 0.176927 -5.23523e-19)
(0.13351 0.17559 0)
(0.163083 0.172644 -5.16965e-19)
(0.193318 0.168279 -7.6928e-19)
(0.223827 0.162696 2.54952e-19)
(0.25421 0.156107 -5.03141e-19)
(0.284059 0.148733 -4.97948e-19)
(0.31297 0.140805 0)
(0.340555 0.132557 -9.76678e-19)
(0.366461 0.124217 0)
(0.390377 0.116002 -9.56209e-19)
(0.412059 0.10811 -4.72176e-19)
(0.431329 0.100712 -9.34644e-19)
(0.448088 0.0939483 4.62324e-19)
(0.462317 0.0879254 -1.37222e-18)
(0.474046 0.0827014 4.51413e-19)
(0.483334 0.0783189 2.40418e-21)
(0.491431 0.0760349 -4.58168e-19)
(-0.0112441 0.0145909 -4.3841e-19)
(-0.027091 0.0394905 5.95487e-20)
(-0.0367547 0.0630915 4.25922e-19)
(-0.040395 0.0842423 4.98547e-19)
(-0.0382733 0.102855 -5.07e-19)
(-0.0309842 0.118932 1.71903e-21)
(-0.0191288 0.132522 5.19281e-19)
(-0.00327166 0.1437 -1.0446e-18)
(0.0160661 0.152562 -1.2938e-19)
(0.0384059 0.159218 1.18335e-18)
(0.0633067 0.163795 -7.87631e-19)
(0.0903504 0.166428 1.3119e-18)
(0.119132 0.16726 1.30607e-18)
(0.149249 0.16644 -2.60128e-19)
(0.180294 0.16413 5.1696e-19)
(0.211847 0.16051 7.68239e-19)
(0.243477 0.155766 2.52078e-19)
(0.274744 0.1501 2.13856e-21)
(0.305205 0.14372 2.49834e-19)
(0.334436 0.136843 2.46094e-19)
(0.362041 0.129687 -2.40606e-19)
(0.387672 0.122466 2.40619e-19)
(0.411043 0.115376 -4.74264e-19)
(0.431941 0.108596 4.713e-19)
(0.450232 0.102278 2.34363e-21)
(0.465866 0.0965408 4.58758e-19)
(0.478872 0.0914726 2.40337e-21)
(0.489334 0.0871127 -4.50068e-19)
(0.49734 0.0834599 1.32175e-21)
(0.504177 0.0817308 0)
(-0.0113066 0.0137979 0)
(-0.0268495 0.0369106 0)
(-0.0359441 0.058717 -5.47657e-19)
(-0.0387399 0.0782392 6.19533e-20)
(-0.0355473 0.0954673 0)
(-0.0269994 0.110434 5.12193e-19)
(-0.0137306 0.123191 1.29209e-19)
(0.003664 0.133802 3.91337e-19)
(0.0246335 0.142339 5.23887e-19)
(0.0486679 0.148892 -5.25011e-19)
(0.0752916 0.153563 5.24914e-19)
(0.104047 0.156467 -5.23725e-19)
(0.134487 0.157725 -5.21577e-19)
(0.166158 0.157469 0)
(0.198604 0.155846 0)
(0.231357 0.153019 0)
(0.263938 0.14916 -5.05994e-19)
(0.295869 0.144456 7.50572e-19)
(0.326682 0.1391 -2.47706e-19)
(0.355943 0.133294 0)
(0.383263 0.127239 7.26702e-19)
(0.408315 0.121131 -2.39495e-19)
(0.430851 0.115149 4.74259e-19)
(0.450704 0.109453 -9.34223e-19)
(0.467795 0.104179 9.26667e-19)
(0.482124 0.0994283 -1.24476e-21)
(0.493772 0.0952718 1.17055e-21)
(0.502868 0.0917321 4.47612e-19)
(0.509531 0.088761 -3.27442e-22)
(0.515053 0.08752 4.52698e-19)
(-0.0113671 0.0130579 5.4362e-20)
(-0.0265021 0.0344287 -5.90629e-20)
(-0.0348781 0.054467 1.21174e-19)
(-0.0366647 0.0723756 -7.40559e-19)
(-0.0322342 0.0882295 1.25573e-19)
(-0.0222656 0.102095 0)
(-0.0074307 0.114032 5.13951e-19)
(0.0116411 0.12409 -5.17761e-19)
(0.0343652 0.132326 0)
(0.0601951 0.138805 6.51639e-19)
(0.0886138 0.143608 -1.30583e-19)
(0.119117 0.146825 0)
(0.151205 0.148553 -2.58921e-19)
(0.184371 0.148906 5.15448e-19)
(0.218103 0.148011 -2.56254e-19)
(0.251881 0.146013 2.53316e-19)
(0.285184 0.143067 -5.02728e-19)
(0.317503 0.139341 7.78654e-22)
(0.34836 0.135014 7.27094e-22)
(0.377324 0.13027 -2.42015e-19)
(0.404031 0.125293 -4.81067e-19)
(0.428195 0.120262 9.79745e-22)
(0.449619 0.11534 1.64518e-21)
(0.468196 0.110673 4.66625e-19)
(0.483905 0.106383 -4.60028e-19)
(0.4968 0.102562 4.56457e-19)
(0.507005 0.0992715 -9.00247e-19)
(0.514681 0.0965165 -1.28001e-21)
(0.519972 0.0942046 -8.79918e-19)
(0.52413 0.0934101 4.50195e-19)
(-0.0114193 0.0123641 0)
(-0.0260281 0.0320461 -4.70215e-19)
(-0.0335151 0.050364 0)
(-0.0341048 0.0667007 1.78777e-21)
(-0.028245 0.0812196 1.2532e-19)
(-0.0166696 0.0940229 1.58965e-22)
(-9.38042e-05 0.105178 -1.02593e-18)
(0.0208125 0.114726 3.88601e-19)
(0.0454244 0.122704 0)
(0.0731511 0.129156 -6.51141e-19)
(0.103426 0.134138 1.30078e-19)
(0.135688 0.137714 0)
(0.169378 0.139957 -2.57836e-19)
(0.20393 0.140956 2.57005e-19)
(0.238774 0.140819 2.54022e-19)
(0.273343 0.139668 5.05191e-19)
(0.307082 0.137641 -2.5064e-19)
(0.339466 0.134886 0)
(0.370021 0.131563 0)
(0.398342 0.127842 4.8588e-19)
(0.424107 0.123889 -4.78705e-19)
(0.447089 0.119868 4.74357e-19)
(0.467157 0.115929 4.6956e-19)
(0.484274 0.112207 4.62676e-19)
(0.498482 0.108821 -4.57986e-19)
(0.509889 0.105861 4.53782e-19)
(0.518646 0.103392 4.47391e-19)
(0.524901 0.101425 -4.42546e-19)
(0.528758 0.0998745 1.06823e-21)
(0.531261 0.0996558 8.95914e-19)
(-0.0114565 0.0117103 5.39815e-20)
(-0.0254045 0.0297619 4.11702e-19)
(-0.0318122 0.046425 0)
(-0.0309969 0.0612554 4.91745e-19)
(-0.0234962 0.0745052 0)
(-0.0101093 0.086312 0)
(0.0083964 0.0967497 3.84322e-19)
(0.0313023 0.105851 -2.15514e-23)
(0.0579336 0.113635 1.29314e-19)
(0.0876451 0.12012 1.29448e-19)
(0.11981 0.125337 -3.88248e-19)
(0.153803 0.12932 2.58516e-19)
(0.188999 0.132116 0)
(0.22477 0.13379 0)
(0.260493 0.134424 -5.08396e-19)
(0.295562 0.134119 0)
(0.329403 0.132991 -2.48652e-19)
(0.361494 0.13117 2.46945e-19)
(0.391385 0.128801 2.43528e-19)
(0.418717 0.126035 -6.95074e-22)
(0.443232 0.123026 -2.38779e-19)
(0.464774 0.119922 0)
(0.48329 0.116863 -4.65481e-19)
(0.498821 0.113979 4.60904e-19)
(0.511481 0.111387 0)
(0.52144 0.109189 0)
(0.528893 0.10748 0)
(0.534003 0.106333 0)
(0.536741 0.105755 -4.34896e-19)
(0.537837 0.106928 8.90389e-19)
(0.0820937 0.138718 -0.0135777)
(0.127811 0.115857 -0.0139026)
(0.16764 0.112581 -0.013992)
(0.193239 0.119842 -0.0140342)
(0.21092 0.131943 -0.0140031)
(0.220704 0.144922 -0.0139469)
(0.225144 0.156603 -0.013857)
(0.225573 0.166533 -0.0137504)
(0.223277 0.175151 -0.0136257)
(0.219116 0.183116 -0.0134853)
(0.213653 0.190798 -0.0133349)
(0.207229 0.198317 -0.0131788)
(0.20002 0.205616 -0.0130158)
(0.192197 0.212618 -0.0128492)
(0.1838 0.219256 -0.0126837)
(0.175005 0.225469 -0.0125154)
(0.165758 0.231258 -0.0123504)
(0.156289 0.236607 -0.0121892)
(0.146434 0.241507 -0.0120277)
(0.136523 0.245983 -0.0118686)
(0.126226 0.249974 -0.0117087)