/*--------------------------------*- C++ -*----------------------------------*\
  =========                 |
  \\      /  F ield         | OpenFOAM: The Open Source CFD Toolbox
   \\    /   O peration     | Website:  https://openfoam.org
    \\  /    A nd           | Version:  7
     \\/     M anipulation  |
\*---------------------------------------------------------------------------*/
FoamFile
{
    version     2.0;
    format      ascii;
    class       volScalarField;
    location    "7";
    object      p;
}
// * * * * * * * * * * * * * * * * * * * * * * * * * * * * * * * * * * * * * //

dimensions      [0 2 -2 0 0 0 0];

internalField   nonuniform List<scalar> 
32000
(
0.369571
0.37
0.370184
0.370327
0.370459
0.370605
0.370758
0.37092
0.371115
0.37138
0.371742
0.372212
0.372793
0.373484
0.37429
0.375218
0.376276
0.377471
0.37881
0.380298
0.381936
0.383722
0.385649
0.387707
0.389885
0.392174
0.394564
0.397043
0.399598
0.402216
0.404884
0.40759
0.41032
0.413063
0.415807
0.418539
0.421253
0.423942
0.426585
0.429117
0.369726
0.370117
0.370272
0.370381
0.370487
0.370612
0.370745
0.370887
0.371065
0.371311
0.371651
0.372097
0.372653
0.373319
0.374099
0.374999
0.376023
0.377179
0.378475
0.379916
0.381504
0.383236
0.385106
0.3871
0.389209
0.391424
0.393737
0.396137
0.398613
0.401153
0.403742
0.406368
0.409018
0.411681
0.414343
0.416996
0.41963
0.422241
0.424801
0.427264
0.369888
0.370237
0.370364
0.370444
0.370524
0.370627
0.370741
0.370866
0.371029
0.371262
0.371583
0.372008
0.372541
0.373185
0.373941
0.374813
0.375808
0.37693
0.378187
0.379585
0.381127
0.382809
0.384622
0.386555
0.388595
0.390738
0.392975
0.395297
0.397695
0.400154
0.402663
0.405208
0.407775
0.410354
0.412932
0.415501
0.418052
0.42058
0.423054
0.425446
0.370045
0.370346
0.370449
0.370505
0.370563
0.370646
0.370744
0.370856
0.37101
0.371231
0.37154
0.371947
0.37246
0.373083
0.373817
0.374666
0.375634
0.376726
0.377948
0.379308
0.380807
0.382441
0.384199
0.38607
0.388043
0.390115
0.392277
0.394523
0.396841
0.399221
0.401647
0.404108
0.40659
0.409083
0.411574
0.414055
0.416519
0.418962
0.421346
0.423661
0.370209
0.370462
0.370544
0.370578
0.370616
0.37068
0.370763
0.370866
0.371012
0.371225
0.371522
0.371915
0.372411
0.373015
0.373729
0.374557
0.375501
0.376566
0.377757
0.379082
0.380542
0.38213
0.383833
0.385643
0.387551
0.389553
0.391643
0.393813
0.396053
0.39835
0.400693
0.403068
0.405463
0.407867
0.410268
0.412659
0.415034
0.417386
0.419677
0.42191
0.370374
0.370577
0.370637
0.370652
0.370673
0.370721
0.370792
0.370889
0.371031
0.371238
0.371527
0.371909
0.372392
0.372981
0.373677
0.374486
0.375409
0.37645
0.377616
0.37891
0.380332
0.381874
0.383525
0.385275
0.387119
0.389054
0.391073
0.393168
0.395329
0.397544
0.399801
0.402089
0.404395
0.406707
0.409016
0.411313
0.413594
0.415853
0.418046
0.420193
0.37054
0.370695
0.370736
0.370734
0.370739
0.370774
0.370836
0.370929
0.371068
0.371273
0.371557
0.371931
0.372405
0.372981
0.373663
0.374454
0.37536
0.376382
0.377524
0.378791
0.380177
0.381675
0.383273
0.384966
0.386749
0.388618
0.390567
0.392588
0.39467
0.396801
0.398972
0.401171
0.403386
0.405605
0.407818
0.410019
0.412203
0.414364
0.416454
0.418511
0.370707
0.370813
0.370837
0.37082
0.370814
0.370839
0.370894
0.370984
0.371123
0.371327
0.37161
0.371982
0.372449
0.373016
0.373684
0.374462
0.375353
0.376359
0.377483
0.378724
0.380076
0.38153
0.383078
0.384716
0.38644
0.388245
0.390126
0.392073
0.394075
0.396123
0.398207
0.400316
0.402438
0.404561
0.406676
0.408777
0.410861
0.412919
0.414904
0.416865
0.37087
0.37093
0.370939
0.37091
0.370896
0.370914
0.370965
0.371054
0.371194
0.371401
0.371686
0.372058
0.372523
0.373082
0.373741
0.374508
0.375388
0.376382
0.37749
0.378707
0.380026
0.381439
0.38294
0.384525
0.386192
0.387935
0.389748
0.391621
0.393545
0.395509
0.397506
0.399523
0.40155
0.403576
0.40559
0.407589
0.409568
0.41152
0.413395
0.415256
0.371029
0.371043
0.371039
0.371002
0.370983
0.370998
0.371047
0.371136
0.37128
0.371491
0.371783
0.37216
0.372624
0.373179
0.373832
0.374592
0.375464
0.376449
0.377543
0.378738
0.380026
0.3814
0.382856
0.384392
0.386003
0.387686
0.389433
0.391233
0.393078
0.394959
0.396867
0.398793
0.400724
0.402649
0.404561
0.406454
0.408325
0.410168
0.411931
0.413687
0.371181
0.37115
0.371136
0.371095
0.371074
0.371088
0.371138
0.371229
0.371378
0.371599
0.3719
0.372284
0.372751
0.373305
0.373956
0.374712
0.375581
0.376559
0.377641
0.378816
0.380075
0.381413
0.382827
0.384315
0.385873
0.387497
0.389178
0.390907
0.392674
0.394471
0.396292
0.398125
0.399958
0.401782
0.403589
0.405374
0.407135
0.408865
0.410512
0.412159
0.371325
0.371251
0.371229
0.371186
0.371167
0.371183
0.371235
0.371331
0.371489
0.371721
0.372034
0.372428
0.372902
0.373459
0.374111
0.374868
0.375735
0.376709
0.377779
0.378936
0.38017
0.381475
0.38285
0.384292
0.3858
0.387367
0.388984
0.390641
0.39233
0.394045
0.395778
0.397517
0.399253
0.400974
0.402675
0.404349
0.405997
0.407612
0.409141
0.410674
0.371461
0.371344
0.371316
0.371274
0.371259
0.371279
0.371336
0.37144
0.371609
0.371856
0.372184
0.37259
0.373073
0.373638
0.374295
0.375057
0.375925
0.376895
0.377956
0.379097
0.380308
0.381583
0.382922
0.384323
0.385782
0.387293
0.388846
0.390432
0.392045
0.393678
0.395323
0.39697
0.398607
0.400225
0.401817
0.40338
0.404913
0.40641
0.407819
0.409234
0.371588
0.371429
0.371397
0.371358
0.371348
0.371374
0.371439
0.371554
0.371737
0.372001
0.372346
0.372767
0.373263
0.373839
0.374506
0.375275
0.376147
0.377115
0.378168
0.379294
0.380485
0.381734
0.383041
0.384402
0.385815
0.387271
0.388762
0.390279
0.391817
0.393369
0.394928
0.396482
0.39802
0.399534
0.401018
0.402468
0.403884
0.405262
0.40655
0.407843
0.371705
0.371507
0.371472
0.371435
0.371432
0.371466
0.371542
0.371671
0.371871
0.372153
0.372516
0.372955
0.373468
0.37406
0.374741
0.37552
0.376397
0.377364
0.37841
0.379525
0.380699
0.381925
0.383202
0.384527
0.385895
0.387299
0.388728
0.390178
0.391643
0.393117
0.39459
0.396052
0.397491
0.398901
0.400276
0.401613
0.402912
0.40417
0.405337
0.406505
0.371812
0.371576
0.371538
0.371505
0.37151
0.371554
0.371643
0.371788
0.372007
0.37231
0.372694
0.373153
0.373686
0.374297
0.374996
0.375788
0.376671
0.377638
0.37868
0.379785
0.380945
0.382152
0.383402
0.384693
0.386019
0.387371
0.388743
0.390128
0.391522
0.392918
0.394307
0.395677
0.397019
0.398326
0.399592
0.400816
0.401998
0.403137
0.404182
0.405222
0.371909
0.371636
0.371595
0.371566
0.371579
0.371635
0.37174
0.371904
0.372145
0.372469
0.372875
0.373357
0.373914
0.374549
0.375268
0.376074
0.376965
0.377934
0.378974
0.380073
0.381221
0.382411
0.383637
0.384897
0.386182
0.387486
0.388801
0.390124
0.39145
0.392771
0.394077
0.395357
0.396603
0.397807
0.398967
0.400078
0.401145
0.402164
0.403089
0.403999
0.371994
0.371688
0.371643
0.371616
0.371638
0.371709
0.371832
0.372018
0.372282
0.372629
0.373059
0.373567
0.37415
0.374811
0.375552
0.376375
0.377276
0.37825
0.379289
0.380384
0.381523
0.382699
0.383904
0.385134
0.386381
0.387639
0.388901
0.390165
0.391424
0.392671
0.393896
0.395089
0.39624
0.397345
0.398398
0.3994
0.400351
0.401253
0.40206
0.402837
0.372069
0.371729
0.37168
0.371655
0.371687
0.371773
0.371917
0.372127
0.372416
0.372789
0.373245
0.37378
0.374392
0.37508
0.375846
0.376687
0.3776
0.37858
0.379622
0.380715
0.381848
0.383011
0.384197
0.385399
0.386611
0.387825
0.389038
0.390244
0.39144
0.392616
0.393762
0.394869
0.395928
0.396935
0.397887
0.398781
0.39962
0.400404
0.401096
0.40174
0.37213
0.371759
0.371704
0.371681
0.371723
0.371827
0.371993
0.37223
0.372546
0.372946
0.373429
0.373994
0.374636
0.375354
0.376145
0.377006
0.377934
0.378924
0.37997
0.381063
0.382191
0.383344
0.384512
0.385689
0.386868
0.388042
0.389206
0.390359
0.391492
0.392599
0.393669
0.394694
0.395665
0.396578
0.39743
0.398219
0.398949
0.39962
0.400199
0.400711
0.372177
0.371775
0.371715
0.371693
0.371745
0.371868
0.37206
0.372325
0.372669
0.373097
0.373611
0.374207
0.374881
0.37563
0.376447
0.37733
0.378274
0.379276
0.380328
0.381423
0.382548
0.383692
0.384845
0.385999
0.387147
0.388282
0.389402
0.390502
0.391577
0.392617
0.393615
0.39456
0.395446
0.396269
0.397025
0.397715
0.398338
0.398899
0.39937
0.39975
0.372207
0.371775
0.37171
0.371689
0.371753
0.371896
0.372115
0.372409
0.372784
0.373242
0.373787
0.374415
0.375123
0.375903
0.376748
0.377654
0.378616
0.379631
0.380692
0.381791
0.382914
0.38405
0.38519
0.386323
0.387442
0.388542
0.38962
0.39067
0.391688
0.392666
0.393594
0.394464
0.395269
0.396005
0.39667
0.397264
0.397785
0.398241
0.398609
0.39886
0.372217
0.371757
0.371686
0.371667
0.371744
0.371909
0.372155
0.372481
0.372887
0.373377
0.373954
0.374617
0.375359
0.37617
0.377044
0.377974
0.378957
0.379986
0.381057
0.38216
0.383283
0.384414
0.385542
0.386656
0.387749
0.388816
0.389853
0.390856
0.39182
0.392738
0.3936
0.394399
0.395127
0.395782
0.396361
0.396863
0.397288
0.397642
0.397914
0.398039
0.372203
0.371717
0.371641
0.371626
0.371717
0.371905
0.372181
0.372538
0.372977
0.3735
0.374111
0.374808
0.375584
0.376429
0.377332
0.378288
0.379291
0.380336
0.381418
0.382527
0.383651
0.384778
0.385896
0.386993
0.388062
0.389097
0.390095
0.391054
0.391967
0.392828
0.393628
0.394359
0.395015
0.395593
0.396091
0.396508
0.396841
0.397101
0.397283
0.397287
0.372163
0.371653
0.371573
0.371564
0.37167
0.371882
0.372188
0.372578
0.37305
0.373607
0.374253
0.374986
0.375797
0.376674
0.377608
0.37859
0.379615
0.380677
0.381771
0.382886
0.384013
0.385137
0.386246
0.387328
0.388373
0.389379
0.390341
0.391258
0.392123
0.39293
0.393671
0.394338
0.394925
0.395431
0.395853
0.396191
0.39644
0.396612
0.396712
0.3966
0.372096
0.371564
0.371482
0.371479
0.371602
0.37184
0.372175
0.372599
0.373105
0.373697
0.374379
0.375148
0.375994
0.376905
0.377869
0.378877
0.379925
0.381005
0.382111
0.383234
0.384364
0.385486
0.386587
0.387654
0.388679
0.389656
0.390584
0.39146
0.392279
0.393035
0.39372
0.394326
0.394849
0.395288
0.395641
0.395905
0.396076
0.396168
0.396195
0.395975
0.371999
0.371447
0.371365
0.37137
0.371512
0.371775
0.372141
0.372598
0.37314
0.373768
0.374486
0.375291
0.376173
0.377116
0.378111
0.379147
0.380217
0.381315
0.382434
0.383565
0.384698
0.38582
0.386914
0.387967
0.38897
0.389921
0.390816
0.391654
0.392429
0.393136
0.393767
0.394316
0.394779
0.395155
0.395444
0.395642
0.395743
0.395761
0.395724
0.395406
0.371872
0.371303
0.371221
0.371237
0.371399
0.371688
0.372084
0.372574
0.373152
0.373818
0.374573
0.375414
0.37633
0.377307
0.378332
0.379395
0.380488
0.381604
0.382735
0.383875
0.385012
0.386132
0.387219
0.388258
0.389242
0.390167
0.391031
0.391831
0.392564
0.393223
0.393803
0.394297
0.394704
0.395023
0.395254
0.395392
0.39543
0.395384
0.395292
0.394886
0.371711
0.371128
0.37105
0.371078
0.371261
0.371576
0.372002
0.372526
0.37314
0.373844
0.374637
0.375514
0.376465
0.377474
0.378528
0.379618
0.380734
0.381867
0.383011
0.384158
0.385299
0.386417
0.387497
0.388523
0.389488
0.390388
0.391221
0.391985
0.392677
0.39329
0.39382
0.394263
0.394617
0.394882
0.395059
0.395144
0.395127
0.395026
0.394889
0.394406
0.371517
0.370922
0.37085
0.370893
0.371097
0.371438
0.371895
0.372451
0.373101
0.373843
0.374675
0.375589
0.376573
0.377614
0.378697
0.379813
0.38095
0.3821
0.383256
0.384411
0.385554
0.38667
0.387742
0.388754
0.3897
0.390576
0.391379
0.392108
0.392758
0.393326
0.393808
0.394201
0.394506
0.394722
0.39485
0.394887
0.394822
0.394675
0.394504
0.393958
0.371287
0.370684
0.370619
0.37068
0.370907
0.371274
0.37176
0.372349
0.373035
0.373814
0.374684
0.375634
0.376652
0.377723
0.378834
0.379975
0.381133
0.382299
0.383467
0.384628
0.385773
0.386885
0.387947
0.388946
0.389872
0.390723
0.391497
0.39219
0.3928
0.393324
0.393759
0.394104
0.39436
0.394529
0.394612
0.394607
0.394502
0.394318
0.394125
0.393531
0.371019
0.370412
0.370358
0.370437
0.370688
0.371081
0.371596
0.372217
0.372937
0.373754
0.374661
0.375647
0.376698
0.377799
0.378937
0.380101
0.381279
0.38246
0.383637
0.384804
0.385949
0.387056
0.388108
0.389091
0.389998
0.390824
0.391567
0.392224
0.392793
0.393272
0.39366
0.393958
0.394168
0.394292
0.394334
0.394291
0.394153
0.393941
0.393737
0.393113
0.370712
0.370104
0.370063
0.370163
0.370438
0.370859
0.371402
0.372054
0.372808
0.373661
0.374605
0.375626
0.376709
0.377838
0.379002
0.380189
0.381384
0.382579
0.383764
0.384935
0.386079
0.387179
0.388218
0.389184
0.390069
0.390869
0.39158
0.392201
0.392728
0.393162
0.393503
0.393754
0.393917
0.393997
0.393998
0.393922
0.393757
0.393528
0.393327
0.392693
0.370364
0.369758
0.369733
0.369855
0.370157
0.370604
0.371176
0.371858
0.372645
0.373533
0.374513
0.375568
0.376681
0.377838
0.379026
0.380233
0.381445
0.382651
0.383843
0.385016
0.386156
0.387247
0.388272
0.389219
0.39008
0.390852
0.391529
0.392111
0.392595
0.392983
0.393276
0.393478
0.393593
0.393628
0.39359
0.393482
0.393296
0.39306
0.392876
0.392257
0.369974
0.369374
0.369366
0.369512
0.369841
0.370317
0.370916
0.371627
0.372447
0.373369
0.374383
0.37547
0.376612
0.377795
0.379006
0.380232
0.381458
0.382673
0.38387
0.385042
0.386176
0.387255
0.388263
0.389188
0.390023
0.390764
0.391405
0.391946
0.392385
0.392724
0.392967
0.393117
0.393182
0.393169
0.393089
0.392949
0.392746
0.392511
0.392362
0.391789
0.369539
0.368948
0.368961
0.369132
0.36949
0.369994
0.370621
0.371361
0.372212
0.373167
0.374214
0.375331
0.376501
0.377708
0.37894
0.380182
0.381419
0.382641
0.38384
0.385009
0.386133
0.387197
0.388185
0.389086
0.389892
0.390598
0.3912
0.391697
0.392087
0.392375
0.392564
0.392659
0.392668
0.392603
0.392475
0.392299
0.392078
0.39185
0.391753
0.391269
0.36906
0.368481
0.368515
0.368715
0.369102
0.369636
0.370291
0.371058
0.371939
0.372926
0.374003
0.375149
0.376344
0.377573
0.378823
0.380079
0.381325
0.382551
0.383749
0.384911
0.386023
0.387068
0.388033
0.388905
0.389679
0.390347
0.390906
0.391355
0.391693
0.391925
0.392056
0.39209
0.392037
0.391909
0.391724
0.391501
0.391253
0.391031
0.390997
0.390656
0.368533
0.367971
0.368029
0.368259
0.368677
0.369239
0.369922
0.370717
0.371626
0.372643
0.373749
0.374921
0.376139
0.377388
0.378653
0.37992
0.381172
0.382399
0.383593
0.384744
0.385839
0.386862
0.3878
0.38864
0.389377
0.390003
0.390516
0.390912
0.391194
0.391366
0.391431
0.391397
0.391271
0.391069
0.39081
0.39052
0.390225
0.389993
0.390037
0.389929
0.367959
0.367416
0.3675
0.367762
0.368212
0.368803
0.369513
0.370335
0.371272
0.372317
0.373449
0.374645
0.375884
0.377149
0.378427
0.3797
0.380955
0.382179
0.383365
0.384502
0.385576
0.386573
0.387479
0.388284
0.388979
0.38956
0.390021
0.390361
0.390582
0.390687
0.390681
0.390569
0.390358
0.390062
0.389703
0.389311
0.388926
0.388653
0.388814
0.389155
0.367338
0.366819
0.366929
0.367224
0.367706
0.368326
0.369063
0.369912
0.370876
0.371947
0.373103
0.37432
0.375576
0.376854
0.37814
0.379418
0.380671
0.381889
0.383062
0.38418
0.385229
0.386196
0.387066
0.38783
0.388481
0.38901
0.389416
0.389695
0.38985
0.389883
0.389798
0.389598
0.389288
0.388876
0.388376
0.38781
0.387214
0.386714
0.386685
0.387199
0.437688
0.449454
0.458832
0.466544
0.472248
0.476914
0.48051
0.48353
0.486044
0.488252
0.490193
0.49191
0.493424
0.494783
0.495976
0.497015
0.497911
0.498688
0.499336
0.499857
0.500265
0.500576
0.500776
0.500878
0.500877
0.500766
0.500573
0.500282
0.499893
0.49941
0.498818
0.498139
0.497354
0.496468
0.495478
0.494387
0.493223
0.491946
0.490783
0.489304
0.435849
0.447409
0.456854
0.464582
0.47035
0.475062
0.478717
0.48179
0.484361
0.486612
0.488592
0.490354
0.491914
0.493301
0.49452
0.495598
0.49653
0.497322
0.497986
0.498538
0.498973
0.499299
0.499521
0.499632
0.499644
0.499557
0.499373
0.499093
0.498715
0.498239
0.497666
0.496989
0.496216
0.495342
0.494365
0.493283
0.492127
0.490863
0.489707
0.488238
0.43402
0.445362
0.454862
0.462605
0.468437
0.473197
0.476912
0.480043
0.482673
0.48497
0.48699
0.488797
0.490404
0.49182
0.493065
0.49418
0.495146
0.495956
0.496636
0.497217
0.497677
0.498018
0.498262
0.498383
0.498408
0.498345
0.498173
0.497904
0.49754
0.497071
0.496518
0.495845
0.495086
0.494223
0.493258
0.492187
0.491042
0.489791
0.488644
0.487187
0.432197
0.443313
0.452853
0.460616
0.466502
0.471319
0.475095
0.478287
0.480976
0.483326
0.485394
0.487243
0.48889
0.49034
0.491618
0.49276
0.493753
0.49459
0.495294
0.495896
0.496377
0.496735
0.496997
0.497136
0.497177
0.497129
0.496971
0.496716
0.496366
0.495911
0.49537
0.494712
0.493964
0.493112
0.492158
0.4911
0.489967
0.488728
0.487593
0.486151
0.430381
0.441264
0.450827
0.458608
0.464545
0.469427
0.473265
0.476524
0.479272
0.481681
0.483799
0.48569
0.487375
0.488862
0.490174
0.491341
0.492358
0.493224
0.493956
0.494574
0.495075
0.495453
0.49573
0.49589
0.495947
0.495912
0.49577
0.49553
0.495194
0.494756
0.494226
0.493586
0.49285
0.492008
0.491066
0.490021
0.488902
0.487676
0.486554
0.485128
0.42857
0.439216
0.448782
0.456579
0.462567
0.467516
0.471423
0.474752
0.477565
0.480034
0.482205
0.484139
0.485862
0.487386
0.488731
0.489924
0.490966
0.49186
0.492618
0.493255
0.493774
0.494171
0.494464
0.494645
0.494718
0.494697
0.494571
0.494348
0.494026
0.493605
0.493088
0.492464
0.491742
0.490913
0.489983
0.488952
0.487847
0.486635
0.485525
0.484115
0.426762
0.437169
0.446715
0.454527
0.460564
0.465586
0.469567
0.472972
0.475853
0.478386
0.48061
0.48259
0.484351
0.485912
0.487289
0.488509
0.489578
0.490497
0.491281
0.491937
0.492475
0.492891
0.4932
0.4934
0.49349
0.493485
0.493375
0.493168
0.492863
0.492458
0.491956
0.491348
0.490641
0.489826
0.48891
0.487892
0.486803
0.485605
0.484506
0.483112
0.424958
0.435123
0.444626
0.452453
0.458537
0.463636
0.467696
0.471183
0.474136
0.476736
0.479016
0.481043
0.482843
0.48444
0.485851
0.487098
0.488192
0.489137
0.489946
0.490621
0.491178
0.491614
0.491938
0.492157
0.492265
0.492275
0.492183
0.491992
0.491704
0.491316
0.490829
0.490239
0.489546
0.488746
0.487845
0.486843
0.485769
0.484585
0.483499
0.482119
0.423155
0.433081
0.442515
0.450353
0.456483
0.461663
0.465809
0.469383
0.472415
0.475084
0.477423
0.479499
0.481339
0.482972
0.484415
0.48569
0.48681
0.487779
0.488612
0.489307
0.489883
0.490338
0.490679
0.490915
0.491041
0.491068
0.490993
0.490821
0.490549
0.490178
0.489708
0.489135
0.488459
0.487675
0.48679
0.485804
0.484746
0.483576
0.482503
0.481136
0.421353
0.431042
0.44038
0.448228
0.4544
0.459667
0.463904
0.467573
0.470689
0.473431
0.475831
0.477956
0.479838
0.481507
0.482982
0.484285
0.485431
0.486424
0.487279
0.487996
0.48859
0.489065
0.489422
0.489677
0.48982
0.489864
0.489808
0.489653
0.489399
0.489047
0.488593
0.488037
0.487378
0.486612
0.485744
0.484775
0.483732
0.482578
0.481517
0.480164
0.419553
0.429009
0.438221
0.446077
0.452288
0.457645
0.46198
0.46575
0.468956
0.471776
0.47424
0.476417
0.478342
0.480046
0.481554
0.482884
0.484056
0.485072
0.485949
0.486687
0.487299
0.487793
0.488168
0.488441
0.488603
0.488664
0.488627
0.488489
0.488254
0.48792
0.487484
0.486946
0.486304
0.485557
0.484707
0.483755
0.48273
0.481591
0.480541
0.4792
0.417754
0.426984
0.436038
0.443898
0.450144
0.455596
0.460036
0.463915
0.467218
0.47012
0.472651
0.474881
0.47685
0.47859
0.48013
0.481488
0.482684
0.483724
0.484622
0.485381
0.486011
0.486525
0.486917
0.487208
0.48739
0.487468
0.48745
0.48733
0.487114
0.486798
0.48638
0.48586
0.485237
0.48451
0.483679
0.482745
0.481737
0.480614
0.479576
0.478247
0.415958
0.424969
0.433833
0.441692
0.447966
0.453518
0.45807
0.462065
0.465472
0.468461
0.471063
0.473349
0.475363
0.47714
0.478711
0.480096
0.481317
0.482379
0.483298
0.484078
0.484726
0.485259
0.48567
0.485979
0.48618
0.486276
0.486276
0.486176
0.485977
0.48568
0.485281
0.484782
0.484177
0.48347
0.48266
0.481745
0.480755
0.479646
0.478621
0.477304
0.414166
0.422967
0.431606
0.439458
0.445755
0.45141
0.456081
0.460201
0.463718
0.4668
0.469477
0.471821
0.473881
0.475694
0.477297
0.478709
0.479954
0.481039
0.481978
0.482778
0.483444
0.483996
0.484425
0.484752
0.484973
0.485086
0.485106
0.485025
0.484845
0.484567
0.484188
0.483709
0.483124
0.482438
0.481649
0.480755
0.479782
0.478689
0.477676
0.476371
0.412382
0.42098
0.429359
0.437196
0.443509
0.449271
0.454066
0.45832
0.461955
0.465136
0.467892
0.470297
0.472404
0.474255
0.475888
0.477326
0.478595
0.479702
0.480661
0.48148
0.482164
0.482735
0.483183
0.483528
0.483769
0.483901
0.483939
0.483878
0.483717
0.483458
0.4831
0.482642
0.482078
0.481414
0.480647
0.479774
0.478819
0.477742
0.476742
0.475448
0.410606
0.419012
0.427096
0.434907
0.441227
0.447098
0.452025
0.456421
0.460182
0.463469
0.466308
0.468778
0.470932
0.47282
0.474484
0.475948
0.47724
0.478369
0.479347
0.480186
0.480888
0.481477
0.481945
0.482306
0.482567
0.482719
0.482775
0.482734
0.482594
0.482354
0.482016
0.481581
0.481039
0.480398
0.479653
0.478801
0.477865
0.476805
0.475818
0.474535
0.408843
0.417067
0.424818
0.432591
0.438909
0.444892
0.449957
0.454503
0.4584
0.461799
0.464726
0.467262
0.469466
0.471391
0.473085
0.474575
0.47589
0.47704
0.478038
0.478895
0.479616
0.480222
0.480709
0.481087
0.481368
0.48154
0.481615
0.481593
0.481473
0.481253
0.480937
0.480525
0.480006
0.479388
0.478667
0.477837
0.47692
0.475878
0.474904
0.473633
0.407096
0.415148
0.422529
0.43025
0.436557
0.44265
0.44786
0.452565
0.456606
0.460125
0.463145
0.465751
0.468004
0.469968
0.471692
0.473208
0.474545
0.475715
0.476732
0.477608
0.478347
0.47897
0.479477
0.479872
0.480171
0.480363
0.480457
0.480454
0.480355
0.480156
0.479862
0.479474
0.478978
0.478385
0.477687
0.476881
0.475985
0.47496
0.473999
0.47274
0.40537
0.413258
0.420235
0.427885
0.43417
0.440374
0.445734
0.450606
0.454801
0.458447
0.461565
0.464243
0.466548
0.46855
0.470305
0.471847
0.473206
0.474396
0.475431
0.476324
0.477082
0.477721
0.478248
0.47866
0.478977
0.479189
0.479302
0.479318
0.47924
0.479063
0.478791
0.478427
0.477956
0.477388
0.476715
0.475932
0.475058
0.474052
0.473105
0.471857
0.403668
0.411404
0.417942
0.425499
0.431752
0.438062
0.443579
0.448626
0.452983
0.456764
0.459985
0.462739
0.465097
0.467139
0.468924
0.470491
0.471872
0.473082
0.474135
0.475045
0.475822
0.476476
0.477021
0.477452
0.477786
0.478018
0.478149
0.478185
0.478128
0.477973
0.477723
0.477384
0.476939
0.476396
0.475749
0.474991
0.47414
0.473154
0.47222
0.470984
0.401996
0.409587
0.415654
0.423096
0.429304
0.435716
0.441395
0.446624
0.451153
0.455075
0.458405
0.461237
0.463652
0.465734
0.467551
0.469143
0.470545
0.471774
0.472844
0.473771
0.474566
0.475235
0.475798
0.476248
0.476597
0.476848
0.476999
0.477054
0.477018
0.476885
0.476659
0.476345
0.475927
0.47541
0.474789
0.474058
0.473232
0.472267
0.471346
0.470122
0.400359
0.407814
0.41338
0.420681
0.426829
0.433338
0.439181
0.4446
0.44931
0.453381
0.456824
0.459739
0.462212
0.464335
0.466184
0.467801
0.469223
0.470471
0.471559
0.472502
0.473314
0.473999
0.474578
0.475046
0.475412
0.475682
0.47585
0.475925
0.47591
0.4758
0.475599
0.47531
0.474919
0.474428
0.473837
0.473133
0.472332
0.471389
0.470484
0.469272
0.398763
0.406087
0.411127
0.418258
0.424333
0.43093
0.436939
0.442555
0.447453
0.45168
0.455243
0.458245
0.460777
0.462944
0.464825
0.466466
0.467909
0.469175
0.470279
0.471237
0.472065
0.472766
0.473361
0.473848
0.474229
0.474517
0.474704
0.474799
0.474805
0.474718
0.474541
0.474278
0.473915
0.473452
0.47289
0.472216
0.471441
0.470523
0.469635
0.468433
0.397212
0.404413
0.408903
0.415835
0.421821
0.428495
0.434671
0.440488
0.445582
0.449973
0.453662
0.456754
0.45935
0.461561
0.463473
0.465138
0.4666
0.467885
0.469004
0.469978
0.470821
0.471538
0.472148
0.472653
0.473049
0.473355
0.473561
0.473674
0.473702
0.473639
0.473486
0.473249
0.472914
0.47248
0.471948
0.471305
0.470558
0.469666
0.468798
0.467608
0.395713
0.402794
0.406717
0.413417
0.419298
0.426038
0.43238
0.4384
0.443698
0.448259
0.452081
0.455267
0.457928
0.460185
0.462129
0.463818
0.465299
0.466601
0.467736
0.468724
0.469581
0.470314
0.470939
0.471461
0.471872
0.472195
0.47242
0.472552
0.472601
0.472561
0.472434
0.472222
0.471916
0.471512
0.471012
0.470401
0.469685
0.46882
0.467974
0.466795
0.39427
0.401234
0.404576
0.411012
0.416772
0.423563
0.430067
0.436294
0.441801
0.446538
0.450498
0.453784
0.456514
0.458817
0.460792
0.462505
0.464006
0.465324
0.466473
0.467475
0.468346
0.469094
0.469733
0.470271
0.470698
0.471038
0.471281
0.471432
0.471502
0.471486
0.471384
0.471197
0.470921
0.470547
0.470079
0.469502
0.468819
0.467985
0.467164
0.465998
0.39289
0.399735
0.40249
0.408628
0.414251
0.421075
0.427737
0.434169
0.43989
0.44481
0.448914
0.452304
0.455105
0.457457
0.459464
0.461201
0.462719
0.464053
0.465215
0.466232
0.467116
0.467879
0.468531
0.469085
0.469528
0.469883
0.470145
0.470314
0.470405
0.470412
0.470335
0.470174
0.469927
0.469584
0.46915
0.468608
0.467961
0.467161
0.466367
0.465216
0.391577
0.398299
0.400467
0.406274
0.411743
0.418583
0.425393
0.432029
0.437967
0.443074
0.447328
0.450826
0.453702
0.456104
0.458144
0.459905
0.46144
0.462789
0.463964
0.464993
0.465891
0.466667
0.467333
0.467902
0.468361
0.46873
0.469011
0.469198
0.46931
0.469339
0.469286
0.469151
0.468933
0.468623
0.468223
0.467719
0.467111
0.466348
0.465586
0.464451
0.390336
0.396927
0.398513
0.403958
0.409258
0.416093
0.423039
0.429876
0.436032
0.441332
0.44574
0.449351
0.452304
0.454758
0.456832
0.458617
0.460169
0.461531
0.462718
0.46376
0.46467
0.465459
0.466139
0.466721
0.467196
0.46758
0.467878
0.468084
0.468215
0.468266
0.468237
0.468128
0.46794
0.467662
0.467298
0.466833
0.466268
0.465547
0.46482
0.463705
0.389173
0.395617
0.396637
0.401692
0.406806
0.413614
0.420683
0.427713
0.434088
0.439585
0.444151
0.447879
0.450912
0.45342
0.455529
0.457337
0.458905
0.460279
0.461479
0.462531
0.463453
0.464255
0.464948
0.465542
0.466034
0.466431
0.466746
0.46697
0.46712
0.467193
0.467188
0.467105
0.466946
0.466701
0.466373
0.46595
0.465431
0.464756
0.464071
0.462979
0.388093
0.39437
0.394843
0.399485
0.404397
0.411154
0.418331
0.425546
0.432137
0.437833
0.442561
0.44641
0.449527
0.452091
0.454235
0.456066
0.457649
0.459035
0.460246
0.461308
0.462241
0.463055
0.46376
0.464367
0.464873
0.465283
0.465615
0.465858
0.466025
0.46612
0.466138
0.466081
0.46595
0.46574
0.465449
0.465068
0.464599
0.463977
0.46334
0.462277
0.387101
0.393183
0.393139
0.397346
0.402042
0.408722
0.415989
0.423377
0.430182
0.436077
0.44097
0.444944
0.448148
0.450769
0.45295
0.454803
0.456401
0.457798
0.459019
0.460091
0.461034
0.461859
0.462576
0.463193
0.463714
0.464138
0.464484
0.464745
0.46493
0.465046
0.465086
0.465055
0.464953
0.464776
0.464523
0.464187
0.46377
0.463208
0.462627
0.461599
0.386204
0.392052
0.391527
0.395285
0.399752
0.406328
0.413664
0.421213
0.428225
0.434318
0.439379
0.443482
0.446775
0.449456
0.451674
0.453548
0.455162
0.456568
0.457798
0.458879
0.459831
0.460666
0.461394
0.462022
0.462556
0.462993
0.463354
0.463632
0.463834
0.463971
0.464034
0.464027
0.463953
0.46381
0.463596
0.463306
0.462945
0.462449
0.461933
0.460951
0.385411
0.390973
0.390013
0.393309
0.397535
0.403983
0.411365
0.419059
0.426268
0.432558
0.437789
0.442022
0.445408
0.44815
0.450406
0.452302
0.45393
0.455346
0.456584
0.457673
0.458633
0.459478
0.460215
0.460853
0.461399
0.46185
0.462224
0.46252
0.462738
0.462894
0.462979
0.462996
0.46295
0.462839
0.462665
0.462422
0.46212
0.461697
0.46126
0.460336
0.384732
0.389943
0.388598
0.39143
0.395403
0.401697
0.4091
0.416921
0.424316
0.430799
0.4362
0.440567
0.444049
0.446853
0.449147
0.451065
0.452707
0.454131
0.455376
0.456473
0.45744
0.458293
0.459039
0.459687
0.460244
0.460708
0.461094
0.461407
0.461642
0.461817
0.461922
0.461962
0.461943
0.461865
0.461729
0.461535
0.461295
0.460952
0.460607
0.459761
0.384182
0.388959
0.387285
0.389653
0.393366
0.399482
0.406878
0.414807
0.422374
0.429045
0.434616
0.439117
0.442697
0.445565
0.447898
0.449839
0.451494
0.452926
0.454176
0.45528
0.456252
0.457112
0.457867
0.458523
0.45909
0.459568
0.459966
0.460294
0.460546
0.460738
0.460863
0.460926
0.460933
0.460886
0.460788
0.460643
0.460467
0.460211
0.459974
0.459232
0.383777
0.38802
0.386077
0.38799
0.391434
0.397349
0.404715
0.412729
0.420454
0.427304
0.433041
0.437678
0.441356
0.444288
0.446661
0.448624
0.450292
0.451729
0.452985
0.454093
0.45507
0.455936
0.456698
0.457363
0.457939
0.458429
0.458839
0.459182
0.459449
0.459657
0.459801
0.459886
0.459918
0.459901
0.459841
0.459745
0.459635
0.459473
0.459361
0.45876
0.38353
0.387134
0.384987
0.386457
0.389626
0.395312
0.40261
0.410674
0.418532
0.425549
0.431447
0.436218
0.439998
0.442998
0.445413
0.447402
0.449083
0.450528
0.451788
0.452901
0.453883
0.454755
0.455523
0.456196
0.456781
0.457283
0.457705
0.458062
0.458345
0.458568
0.458731
0.458836
0.458893
0.458905
0.458883
0.458835
0.458792
0.458729
0.458762
0.458354
0.3835
0.386278
0.383984
0.38502
0.387898
0.393314
0.400489
0.408558
0.416519
0.423693
0.429755
0.43467
0.438564
0.441644
0.444112
0.446134
0.447835
0.449292
0.450561
0.451681
0.45267
0.453549
0.454325
0.455008
0.455604
0.456118
0.456554
0.456925
0.457224
0.457464
0.457645
0.457771
0.457852
0.457893
0.457908
0.457908
0.457932
0.457974
0.458172
0.458031
0.384088
0.385453
0.382913
0.383499
0.386078
0.391229
0.398302
0.406408
0.414506
0.421863
0.428109
0.43318
0.437194
0.440356
0.442874
0.444924
0.446638
0.448101
0.449374
0.450495
0.451487
0.452369
0.453151
0.45384
0.454443
0.454967
0.455415
0.455796
0.45611
0.456363
0.456559
0.456704
0.456806
0.456874
0.456921
0.456966
0.45705
0.457194
0.457566
0.457787
0.387041
0.383257
0.379038
0.378092
0.379827
0.384569
0.391837
0.400539
0.409408
0.417524
0.424411
0.429962
0.43429
0.437606
0.440151
0.442146
0.443763
0.445124
0.446307
0.447356
0.448297
0.449141
0.449898
0.450572
0.451169
0.451693
0.452149
0.452541
0.452873
0.453148
0.453374
0.453556
0.453703
0.453829
0.45395
0.454094
0.454315
0.454698
0.455533
0.456986
0.375437
0.372462
0.3694
0.369506
0.372104
0.37727
0.384691
0.393384
0.402186
0.410236
0.417093
0.422655
0.42703
0.43042
0.433052
0.435134
0.436833
0.438266
0.43951
0.440614
0.441604
0.442495
0.443299
0.444021
0.444667
0.445241
0.445747
0.44619
0.446572
0.446899
0.447175
0.44741
0.447612
0.447795
0.447982
0.448205
0.448531
0.449093
0.450251
0.452262
0.362217
0.361419
0.360395
0.362124
0.365809
0.371389
0.378726
0.387084
0.395495
0.403214
0.409848
0.415295
0.419637
0.423053
0.425745
0.427903
0.429681
0.431189