/*--------------------------------*- C++ -*----------------------------------*\
  =========                 |
  \\      /  F ield         | OpenFOAM: The Open Source CFD Toolbox
   \\    /   O peration     | Website:  https://openfoam.org
    \\  /    A nd           | Version:  7
     \\/     M anipulation  |
\*---------------------------------------------------------------------------*/
FoamFile
{
    version     2.0;
    format      ascii;
    class       volVectorField;
    location    "7";
    object      U;
}
// * * * * * * * * * * * * * * * * * * * * * * * * * * * * * * * * * * * * * //

dimensions      [0 1 -1 0 0 0 0];

internalField   nonuniform List<vector> 
32000
(
(0.000155267 -0.0030495 -3.20709e-22)
(0.00083166 -0.00443941 0)
(0.00205996 -0.0018001 -2.86706e-21)
(0.00359195 0.003848 0)
(0.00540621 0.0118043 2.98635e-21)
(0.00746607 0.0215609 0)
(0.00975561 0.0327256 3.08512e-21)
(0.0122666 0.0449897 -2.34526e-21)
(0.0149909 0.0581105 4.90829e-25)
(0.0179187 0.0718908 6.74797e-25)
(0.0210375 0.0861703 -8.07339e-22)
(0.0243335 0.100815 3.25861e-21)
(0.0277913 0.115708 0)
(0.0313934 0.13075 -8.27821e-22)
(0.0351213 0.145846 8.31259e-22)
(0.0389549 0.160912 0)
(0.0428729 0.175869 4.20639e-21)
(0.0468536 0.190641 -8.43873e-22)
(0.0508755 0.205159 0)
(0.0549168 0.219356 1.70833e-21)
(0.0589563 0.233169 1.71288e-21)
(0.0629735 0.24654 0)
(0.0669488 0.259417 0)
(0.0708639 0.271752 0)
(0.0747023 0.283502 0)
(0.0784489 0.29463 0)
(0.0820903 0.305107 0)
(0.0856147 0.314907 0)
(0.0890123 0.324012 -3.49815e-21)
(0.0922758 0.332408 0)
(0.0953999 0.340087 3.51111e-21)
(0.0983809 0.347046 0)
(0.101217 0.353285 0)
(0.10391 0.358808 0)
(0.106463 0.363617 -3.52748e-21)
(0.108878 0.367717 -1.77365e-21)
(0.111163 0.371105 5.31118e-21)
(0.113334 0.373771 4.15483e-24)
(0.115388 0.375723 3.54708e-21)
(0.117209 0.376964 3.23026e-24)
(0.000203329 -0.00319473 0)
(0.000830669 -0.0048124 5.59754e-21)
(0.00186199 -0.00237143 1.43273e-21)
(0.00309973 0.00309791 -4.25412e-25)
(0.00454393 0.0108819 -1.49296e-21)
(0.00617904 0.0204656 0)
(0.00800359 0.0314546 3.08433e-21)
(0.0100208 0.0435388 -3.12628e-21)
(0.0122309 0.0564772 0)
(0.0146305 0.0700729 -6.39705e-21)
(0.0172133 0.0841672 0)
(0.0199705 0.0986282 -9.77269e-21)
(0.0228898 0.113343 0)
(0.0259574 0.128211 0)
(0.0291579 0.143142 3.33056e-21)
(0.0324734 0.158054 -3.3413e-21)
(0.0358851 0.172869 -3.36351e-21)
(0.0393744 0.187513 0)
(0.0429215 0.201916 1.01808e-20)
(0.0465065 0.216015 -3.39919e-21)
(0.0501107 0.229747 5.79286e-24)
(0.0537149 0.243054 -1.02782e-20)
(0.0573008 0.255885 -6.87766e-21)
(0.0608514 0.26819 -3.46075e-21)
(0.0643517 0.279929 1.03685e-20)
(0.0677872 0.291063 -1.04148e-20)
(0.0711447 0.301561 1.04469e-20)
(0.0744132 0.311397 -1.39176e-20)
(0.0775831 0.320552 -3.48138e-21)
(0.0806466 0.329011 3.123e-23)
(0.0835978 0.336763 -1.04686e-20)
(0.0864327 0.343804 -6.9995e-21)
(0.0891495 0.350133 1.40736e-20)
(0.0917479 0.355749 -1.40408e-20)
(0.0942294 0.360654 -3.50303e-21)
(0.096597 0.364851 -1.41008e-20)
(0.0988565 0.368336 -8.93293e-24)
(0.101022 0.371097 3.53739e-21)
(0.103077 0.373143 -1.40516e-20)
(0.104913 0.374482 -2.01481e-20)
(0.000257643 -0.00333736 -1.28409e-21)
(0.000844568 -0.00517921 -2.79869e-21)
(0.00168247 -0.0029123 -1.29036e-20)
(0.0026302 0.00239624 0)
(0.00371059 0.0100201 1.4932e-21)
(0.00492795 0.0194394 -1.5186e-21)
(0.00629552 0.0302575 -1.85062e-20)
(0.0078285 0.0421648 6.25294e-21)
(0.00953579 0.0549194 -3.16518e-21)
(0.0114196 0.0683277 1.91872e-20)
(0.0134795 0.0822332 6.45851e-21)
(0.015711 0.0965055 3.25949e-21)
(0.0181057 0.111034 -1.31265e-20)
(0.0206524 0.125721 0)
(0.0233384 0.140478 0)
(0.0261491 0.155224 6.69615e-21)
(0.0290678 0.169885 1.89245e-23)
(0.0320775 0.184387 -6.74135e-21)
(0.035161 0.198663 -6.78206e-21)
(0.0383007 0.212649 -1.36058e-20)
(0.0414786 0.226284 2.0498e-20)
(0.0446776 0.239511 1.89391e-23)
(0.0478808 0.252279 -1.28792e-23)
(0.0510726 0.264539 6.87574e-21)
(0.0542386 0.276249 -1.38471e-20)
(0.0573655 0.287371 2.7689e-20)
(0.0604407 0.297873 0)
(0.0634535 0.307729 6.96569e-21)
(0.0663941 0.316917 6.97945e-21)
(0.0692549 0.325421 1.39968e-20)
(0.0720297 0.333231 3.12289e-23)
(0.074714 0.340339 0)
(0.0773052 0.346742 7.04288e-21)
(0.0798019 0.352438 -6.95927e-21)
(0.082205 0.357429 -6.98343e-21)
(0.0845161 0.361712 2.11168e-20)
(0.0867402 0.365284 -2.09794e-20)
(0.0888892 0.368135 1.40786e-20)
(0.0909357 0.370273 -2.09603e-20)
(0.0927728 0.371708 7.96177e-21)
(0.000316499 -0.00344225 1.02744e-20)
(0.000867447 -0.00546072 -1.12016e-20)
(0.00151315 -0.00334944 2.29428e-20)
(0.00217292 0.00180904 0)
(0.00289285 0.0092779 8.95927e-21)
(0.00369881 0.0185338 1.51889e-20)
(0.00461852 0.0291787 3.08444e-21)
(0.00567739 0.0409047 1.11935e-24)
(0.00689291 0.0534698 9.49269e-21)
(0.00827401 0.0666833 -3.19993e-21)
(0.00982507 0.0803907 1.61415e-20)
(0.0115454 0.0944643 -1.95416e-20)
(0.0134301 0.108796 1.96843e-20)
(0.0154715 0.12329 -6.61395e-21)
(0.0176591 0.137861 6.64149e-21)
(0.0199801 0.15243 -1.33674e-20)
(0.0224202 0.166922 -2.01606e-20)
(0.0249648 0.181269 6.73794e-21)
(0.0275982 0.195403 -6.78731e-21)
(0.0303045 0.209262 2.0394e-20)
(0.0330677 0.222785 -1.36534e-20)
(0.0358718 0.235917 -1.36856e-20)
(0.0387012 0.248605 0)
(0.0415417 0.260803 0)
(0.04438 0.272468 -1.37943e-20)
(0.0472034 0.283561 -1.38455e-20)
(0.05 0.294051 -1.3852e-20)
(0.0527592 0.30391 0)
(0.0554716 0.313115 0)
(0.0581295 0.32165 -2.78945e-20)
(0.0607264 0.329502 -8.48822e-23)
(0.0632573 0.336663 1.39845e-20)
(0.0657189 0.343127 -1.39352e-20)
(0.0681093 0.348891 -1.40287e-20)
(0.0704279 0.353955 1.39937e-20)
(0.0726755 0.358316 0)
(0.0748559 0.361969 1.40152e-20)
(0.0769791 0.364903 -2.79802e-20)
(0.0790058 0.36713 2.79344e-20)
(0.0808325 0.368662 -3.20121e-20)
(0.000378044 -0.00353231 -5.13514e-21)
(0.000896723 -0.00570386 8.40157e-21)
(0.00135189 -0.00372806 -1.14726e-20)
(0.00172674 0.00129377 0)
(0.00209165 0.00861651 -1.49326e-20)
(0.00249282 0.0177137 -9.11364e-21)
(0.00297305 0.0281871 1.23375e-20)
(0.00356856 0.0397303 0)
(0.00430462 0.0521031 -1.89857e-20)
(0.00519613 0.0651172 -6.39776e-21)
(0.00625229 0.0786206 -6.45382e-21)
(0.00747667 0.0924887 1.30323e-20)
(0.0088675 0.106616 -1.3124e-20)
(0.010419 0.120908 6.60088e-21)
(0.0121235 0.135283 0)
(0.0139707 0.149664 2.00584e-20)
(0.0159478 0.163978 6.7262e-21)
(0.0180419 0.178157 -1.3511e-20)
(0.0202394 0.192137 2.70892e-20)
(0.0225261 0.205855 -2.71877e-20)
(0.024887 0.219252 2.72463e-20)
(0.0273075 0.232274 1.36856e-20)
(0.0297736 0.244869 0)
(0.0322723 0.256989 1.37875e-20)
(0.034791 0.268594 4.28195e-23)
(0.0373176 0.279643 0)
(0.039841 0.290105 1.3852e-20)
(0.042351 0.299951 -1.39037e-20)
(0.0448383 0.309158 1.38459e-20)
(0.0472949 0.317709 2.78627e-20)
(0.0497145 0.325589 -2.78374e-20)
(0.0520915 0.332788 2.78379e-20)
(0.0544219 0.339301 0)
(0.0567029 0.345122 0)
(0.058933 0.350249 2.7894e-20)
(0.0611117 0.354679 0)
(0.0632418 0.358406 0)
(0.0653311 0.36142 -2.78861e-20)
(0.0673289 0.363734 2.7759e-20)
(0.0691349 0.365364 1.59903e-20)
(0.00044068 -0.00359615 2.57025e-21)
(0.000928297 -0.00588511 0)
(0.00119407 -0.00402381 2.29568e-20)
(0.0012864 0.000874194 2.93092e-21)
(0.00130048 0.00805711 2.98753e-21)
(0.00130396 0.016998 1.82318e-20)
(0.00135412 0.0272994 2.46788e-20)
(0.00149706 0.0386568 0)
(0.00176589 0.0508327 6.32999e-21)
(0.00218178 0.0636413 1.91909e-20)
(0.00275827 0.0769338 2.58288e-20)
(0.00350235 0.0905884 -6.51602e-21)
(0.00441517 0.104502 -1.96883e-20)
(0.00549364 0.118583 0)
(0.00673208 0.132752 2.65815e-20)
(0.00812193 0.146933 0)
(0.00965244 0.161057 4.02988e-20)
(0.0113123 0.175057 -1.34669e-20)
(0.0130895 0.188869 0)
(0.0149712 0.202433 -1.36119e-20)
(0.0169437 0.215691 -2.93536e-23)
(0.0189938 0.228588 -1.36343e-20)
(0.0211088 0.241075 -1.36778e-20)
(0.0232766 0.253104 1.37732e-20)
(0.0254855 0.264633 -1.37372e-20)
(0.0277243 0.275623 0)
(0.0299822 0.286042 -1.38576e-20)
(0.0322492 0.295861 1.38047e-20)
(0.0345164 0.305056 0)
(0.0367759 0.313608 0)
(0.039021 0.321502 0)
(0.0412457 0.328728 -2.7873e-20)
(0.0434452 0.335277 2.77258e-20)
(0.0456161 0.341145 0)
(0.0477557 0.346326 -1.39253e-20)
(0.049862 0.350817 0)
(0.0519369 0.354613 2.78583e-20)
(0.0539859 0.357704 -1.37786e-20)
(0.0559472 0.360104 -2.77981e-20)
(0.0577235 0.361835 3.17374e-20)
(0.000502987 -0.0036382 1.80043e-20)
(0.00095917 -0.00601181 -2.5226e-20)
(0.00103596 -0.00424475 -4.30494e-20)
(0.000848444 0.000541111 -2.34543e-20)
(0.000517115 0.00759098 -5.97541e-21)
(0.00013034 0.0163783 -1.21528e-20)
(-0.000240133 0.0265072 -5.553e-20)
(-0.000537884 0.0376761 -1.87614e-20)
(-0.000722656 0.0496507 -3.16448e-20)
(-0.000767744 0.0622483 -3.19839e-20)
(-0.000655245 0.0753233 -4.52053e-20)
(-0.000374759 0.0887569 -2.60505e-20)
(7.73921e-05 0.102448 -2.02536e-24)
(0.000700221 0.11631 -2.64236e-20)
(0.00149016 0.130262 -2.65814e-20)
(0.00244047 0.144234 -4.01012e-20)
(0.00354194 0.158157 2.6851e-20)
(0.00478468 0.171966 -1.34647e-20)
(0.00615819 0.185599 0)
(0.00765075 0.198997 2.71621e-20)
(0.00925007 0.212103 0)
(0.0109442 0.224863 5.4657e-20)
(0.0127217 0.237228 0)
(0.0145713 0.249152 -1.37611e-20)
(0.0164821 0.260591 1.38024e-20)
(0.0184434 0.271509 -2.74963e-20)
(0.020445 0.281871 0)
(0.0224774 0.291649 -2.77157e-20)
(0.0245315 0.300818 2.76005e-20)
(0.0265999 0.309358 0)
(0.0286753 0.317255 0)
(0.0307513 0.324495 0)
(0.0328224 0.331071 -2.77035e-20)
(0.0348843 0.336974 0)
(0.0369331 0.342202 -2.78013e-20)
(0.0389656 0.346748 5.54219e-20)
(0.0409821 0.350609 -5.53774e-20)
(0.042986 0.353775 2.74701e-20)
(0.0449048 0.356263 5.52418e-20)
(0.0466438 0.358097 -3.16465e-20)
(0.000563308 -0.0036569 -2.31479e-20)
(0.000985882 -0.00608286 -7.10653e-24)
(0.000873962 -0.00439024 2.29624e-20)
(0.000409354 0.000295746 4.69137e-20)
(-0.000261912 0.00721867 -5.97648e-21)
(-0.00103064 0.0158542 -2.43166e-20)
(-0.00181103 0.0258099 2.46806e-20)
(-0.00253689 0.0367875 3.75253e-20)
(-0.00316102 0.0485565 1.2657e-20)
(-0.00365122 0.0609374 3.19879e-20)
(-0.00398567 0.0737885 2.58314e-20)
(-0.00415117 0.0869938 3.90709e-20)
(-0.00414164 0.100455 7.87485e-20)
(-0.00395585 0.114088 3.96483e-20)
(-0.00359555 0.127815 0)
(-0.00306606 0.141568 1.33458e-20)
(-0.00237512 0.15528 1.34103e-20)
(-0.00153122 0.168887 1.34631e-20)
(-0.000543642 0.18233 2.70691e-20)
(0.000576984 0.19555 -1.35605e-20)
(0.00181966 0.208492 0)
(0.00317374 0.221102 -8.44287e-24)
(0.00462871 0.233334 -2.73781e-20)
(0.00617416 0.245139 2.74343e-20)
(0.00779992 0.256476 5.49864e-20)
(0.00949594 0.267308 5.51284e-20)
(0.0112524 0.2776 5.33452e-23)
(0.01306 0.287324 2.75906e-20)
(0.0149102 0.296454 2.76136e-20)
(0.0167952 0.304971 -2.76301e-20)
(0.0187077 0.312859 2.76403e-20)
(0.0206405 0.320103 2.76438e-20)
(0.0225875 0.326695 5.5344e-20)
(0.0245436 0.332627 -1.05787e-22)
(0.0265035 0.337893 8.29098e-20)
(0.0284624 0.34249 3.10439e-23)
(0.0304193 0.346413 -2.75558e-20)
(0.0323752 0.349654 -2.76121e-20)
(0.0342474 0.352231 2.74689e-20)
(0.0359429 0.354173 3.15702e-20)
(0.000620346 -0.00365256 2.05933e-20)
(0.00100551 -0.00609861 2.80384e-20)
(0.000704578 -0.00446073 1.72319e-20)
(-3.41947e-05 0.000136496 -1.7594e-20)
(-0.00103934 0.00693808 -2.98906e-20)
(-0.00218107 0.0154237 2.43158e-20)
(-0.00335987 0.0252052 0)
(-0.00450014 0.0359885 2.50252e-20)
(-0.00554814 0.0475473 0)
(-0.00646657 0.0597064 -5.11899e-20)
(-0.00723 0.0723273 1.29256e-20)
(-0.00782273 0.0852971 -6.51377e-20)
(-0.00823648 0.0985209 -2.62511e-20)
(-0.00846804 0.111917 1.32321e-20)
(-0.00851754 0.125411 2.53573e-23)
(-0.00838899 0.138935 -1.33497e-20)
(-0.00808884 0.152426 -2.68518e-20)
(-0.00762436 0.165822 -5.39339e-20)
(-0.00700378 0.179064 0)
(-0.00623665 0.192095 4.6497e-23)
(-0.00533275 0.204861 -2.71918e-20)
(-0.00430156 0.217311 -2.73139e-20)
(-0.00315266 0.229397 2.73781e-20)
(-0.00189575 0.241072 -2.74983e-20)
(-0.000540403 0.252295 2.74679e-20)
(0.000903963 0.263028 -5.49779e-20)
(0.00242801 0.273239 5.26122e-23)
(0.00402271 0.282896 -5.50992e-20)
(0.00567968 0.291977 -2.76136e-20)
(0.0073911 0.300459 -4.80263e-23)
(0.0091492 0.308326 -9.39458e-23)
(0.0109464 0.315565 -2.76439e-20)
(0.0127757 0.322164 -2.76405e-20)
(0.0146311 0.328117 -6.53564e-23)
(0.016506 0.333417 -2.76124e-20)
(0.0183937 0.338061 -7.85086e-23)
(0.0202916 0.342043 -2.75998e-20)
(0.0221983 0.345361 8.22361e-20)
(0.0240217 0.34803 -2.7469e-20)
(0.0256696 0.350087 -3.15997e-20)
(0.000672891 -0.00362512 -2.05933e-20)
(0.00101545 -0.00605965 5.60993e-21)
(0.000524594 -0.00445782 -1.72304e-20)
(-0.000485419 6.13703e-05 -5.86727e-21)
(-0.00181774 0.00674697 2.39128e-20)
(-0.00332258 0.0150841 -6.08128e-21)
(-0.00488739 0.0246901 6.17297e-21)
(-0.00642743 0.035276 -3.75413e-20)
(-0.00788262 0.0466205 1.26622e-20)
(-0.00921112 0.0585525 2.55976e-20)
(-0.0103845 0.0709372 0)
(-0.0113846 0.083665 5.21296e-20)
(-0.0122011 0.0966442 0)
(-0.012829 0.109795 -5.28733e-20)
(-0.0132673 0.123048 -2.65972e-20)
(-0.0135187 0.136336 0)
(-0.0135884 0.149597 0)
(-0.0134827 0.162772 5.39435e-20)
(-0.013209 0.175803 2.71142e-20)
(-0.0127757 0.188636 -5.43245e-20)
(-0.0121913 0.201217 2.7193e-20)
(-0.0114644 0.213495 0)
(-0.0106038 0.225423 -2.74219e-20)
(-0.00961854 0.236957 5.48309e-20)
(-0.00851737 0.248055 -2.74036e-20)
(-0.00730934 0.258679 -2.75586e-20)
(-0.00600337 0.268796 2.74637e-20)
(-0.00460811 0.278377 0)
(-0.00313182 0.287396 5.51763e-20)
(-0.00158251 0.295833 -2.75046e-20)
(3.17315e-05 0.303671 -2.76384e-20)
(0.00170271 0.310895 -1.33292e-22)
(0.00342278 0.317494 1.10252e-19)
(0.00518463 0.323462 -8.2499e-20)
(0.00698028 0.328791 0)
(0.00880123 0.333478 -2.75092e-20)
(0.010643 0.337521 -5.49817e-20)
(0.0125016 0.340916 2.7212e-20)
(0.0142762 0.343683 2.72749e-20)
(0.0158743 0.34586 0)
(0.000719678 -0.0035747 -4.12199e-20)
(0.00101299 -0.00596718 -5.61184e-21)
(0.00033093 -0.00438333 4.59727e-20)
(-0.000946986 6.80887e-05 -4.69529e-20)
(-0.00259932 0.00664234 0)
(-0.00445675 0.0148318 0)
(-0.00639402 0.024261 -1.23512e-20)
(-0.00831785 0.0346467 -4.05403e-24)
(-0.0101625 0.0457728 1.26654e-20)
(-0.011882 0.0574727 0)
(-0.0134449 0.0696156 0)
(-0.0148311 0.0820953 -1.3024e-20)
(-0.0160286 0.0948233 1.79944e-23)
(-0.0170309 0.107723 1.32279e-20)
(-0.0178357 0.120727 2.65971e-20)
(-0.0184447 0.13377 0)
(-0.0188622 0.146793 2.69016e-20)
(-0.0190935 0.159739 -2.69011e-20)
(-0.0191451 0.172551 -5.416e-20)
(-0.0190245 0.185176 5.43353e-20)
(-0.0187392 0.197561 9.30808e-23)
(-0.0182968 0.209659 -2.72608e-20)
(-0.0177054 0.22142 2.74181e-20)
(-0.0169732 0.232802 -5.47747e-20)
(-0.0161086 0.243764 0)
(-0.0151202 0.254268 2.7543e-20)
(-0.0140163 0.264281 -5.50168e-20)
(-0.0128054 0.273775 2.74635e-20)
(-0.0114955 0.282724 -2.75483e-20)
(-0.010095 0.291107 -2.75998e-20)
(-0.00861233 0.298906 -2.77222e-20)
(-0.00705614 0.306108 1.10079e-19)
(-0.00543501 0.312701 -8.2402e-20)
(-0.00375745 0.318677 -5.5071e-20)
(-0.00203303 0.324032 5.4756e-20)
(-0.000272189 0.328761 0)
(0.00151849 0.332865 5.48144e-20)
(0.00333222 0.336341 -5.44713e-20)
(0.00506052 0.339211 -2.7275e-20)
(0.00660918 0.341518 0)
(0.00075955 -0.00350181 8.76074e-20)
(0.000995773 -0.00582251 3.92967e-20)
(0.000120891 -0.00423937 -4.59724e-20)
(-0.00142161 0.000153589 4.1083e-20)
(-0.00338611 0.00662055 -5.98189e-21)
(-0.00558448 0.0146632 1.21674e-20)
(-0.0078797 0.0239141 0)
(-0.0101705 0.0340966 -1.2523e-20)
(-0.0123856 0.0450003 1.2669e-20)
(-0.0144755 0.0564636 1.28136e-20)
(-0.0164064 0.0683595 -1.29257e-20)
(-0.0181565 0.0805855 -1.30498e-20)
(-0.0197119 0.0930565 1.31317e-20)
(-0.0210651 0.105699 0)
(-0.0222129 0.118447 0)
(-0.023156 0.131239 -2.67834e-20)
(-0.0238979 0.144017 2.68467e-20)
(-0.0244431 0.156725 -2.70278e-20)
(-0.0247974 0.16931 2.70499e-20)
(-0.0249671 0.181719 2.72191e-20)
(-0.0249589 0.193901 -5.45016e-20)
(-0.0247798 0.205808 5.46288e-20)
(-0.0244371 0.217393 1.00689e-22)
(-0.0239382 0.228614 -2.73594e-20)
(-0.0232912 0.239431 0)
(-0.0225039 0.249806 2.75315e-20)
(-0.0215847 0.259706 1.15687e-22)
(-0.0205414 0.269104 -2.74474e-20)
(-0.0193821 0.277973 0)
(-0.0181154 0.286293 5.51342e-20)
(-0.01675 0.294046 -5.48716e-20)
(-0.0152953 0.301218 0)
(-0.0137608 0.307798 5.50226e-20)
(-0.0121562 0.31378 -5.47194e-20)
(-0.0104928 0.319157 0)
(-0.00878306 0.323928 0)
(-0.00703601 0.328094 0)
(-0.00526121 0.331656 -5.45218e-20)
(-0.00357396 0.334636 5.41724e-20)
(-0.00207187 0.337083 6.2692e-20)
(0.000791378 -0.00340691 -4.12348e-20)
(0.000961399 -0.00562723 -4.49101e-20)
(-0.000108212 -0.00402869 -5.74826e-21)
(-0.00191151 0.000314413 1.76136e-20)
(-0.00417969 0.00667783 -2.39335e-20)
(-0.00670668 0.0145741 2.43422e-20)
(-0.00934422 0.023645 -2.47131e-20)
(-0.0119838 0.0336213 -3.75814e-20)
(-0.0145493 0.044299 0)
(-0.016988 0.0555213 -1.28184e-20)
(-0.0192641 0.0671655 1.29306e-20)
(-0.0213542 0.079133 0)
(-0.0232432 0.0913418 2.6312e-20)
(-0.0249227 0.103721 -2.64484e-20)
(-0.0263886 0.116208 -7.99189e-20)
(-0.0276411 0.128742 -5.81544e-23)
(-0.0286828 0.141269 5.37862e-20)
(-0.0295175 0.153734 -2.69681e-20)
(-0.0301503 0.166084 0)
(-0.0305866 0.178269 0)
(-0.0308325 0.19024 5.4532e-20)
(-0.0308942 0.201949 2.73689e-20)
(-0.0307781 0.21335 -2.7324e-20)
(-0.0304913 0.224402 -2.74652e-20)
(-0.0300413 0.235065 5.48926e-20)
(-0.0294356 0.245302 -2.74154e-20)
(-0.0286819 0.255082 5.50805e-20)
(-0.0277879 0.264374 -1.09966e-19)
(-0.0267617 0.273156 1.09961e-19)
(-0.025612 0.281405 -1.09925e-19)
(-0.024348 0.289105 1.09858e-19)
(-0.0229796 0.296241 -1.0976e-19)
(-0.0215173 0.302804 5.4703e-20)
(-0.0199721 0.308787 5.48437e-20)
(-0.0183571 0.314185 2.14529e-22)
(-0.0166871 0.318998 2.09238e-22)
(-0.0149736 0.323229 -5.42969e-20)
(-0.0132291 0.326881 1.70415e-22)
(-0.0115746 0.32998 -5.40052e-20)
(-0.0101132 0.332577 0)
(0.000814095 -0.00329078 5.15702e-21)
(0.000907767 -0.00538345 -5.61549e-21)
(-0.00035871 -0.0037543 1.72491e-20)
(-0.0024188 0.00054677 -2.34903e-20)
(-0.00498147 0.00680967 1.19695e-20)
(-0.00782372 0.0145597 0)
(-0.010787 0.023449 0)
(-0.0137561 0.0332162 5.01035e-20)
(-0.0166506 0.0436642 6.34139e-20)
(-0.0194153 0.0546416 -1.28132e-20)
(-0.0220125 0.0660302 6.4729e-20)
(-0.0244177 0.0777347 -1.30459e-20)
(-0.0266147 0.0896769 0)
(-0.0285945 0.101789 0)
(-0.0303525 0.114009 5.32663e-20)
(-0.0318882 0.126281 0)
(-0.0332037 0.138551 2.68908e-20)
(-0.0343022 0.150766 -2.70714e-20)
(-0.035188 0.162876 0)
(-0.0358659 0.174832 -5.4418e-20)
(-0.0363413 0.186585 -2.72151e-20)
(-0.0366198 0.198088 -8.19648e-20)
(-0.0367072 0.209299 -2.74291e-20)
(-0.0366099 0.220175 2.73703e-20)
(-0.036335 0.230676 5.49016e-20)
(-0.0358896 0.240768 0)
(-0.0352809 0.250419 5.49546e-20)
(-0.0345163 0.2596 1.10023e-19)
(-0.033604 0.268286 2.16722e-22)
(-0.0325528 0.276458 -5.48108e-20)
(-0.0313725 0.284098 -5.49822e-20)
(-0.0300733 0.291194 5.47055e-20)
(-0.0286668 0.297734 5.48391e-20)
(-0.0271653 0.303715 -1.09279e-19)
(-0.0255839 0.309133 1.09057e-19)
(-0.0239395 0.313989 -5.44583e-20)
(-0.0222466 0.318287 5.41666e-20)
(-0.0205207 0.322037 1.08217e-19)
(-0.0188876 0.325263 5.38502e-20)
(-0.0174577 0.328023 6.20542e-20)
(0.000826669 -0.0031542 -4.12736e-20)
(0.000832814 -0.00509342 3.93244e-20)
(-0.000632748 -0.00341971 -3.45092e-20)
(-0.00294523 0.000846302 3.52465e-20)
(-0.00579252 0.0070113 5.98651e-20)
(-0.00893585 0.014615 -4.87132e-20)
(-0.0122072 0.0233206 6.18237e-20)
(-0.0154855 0.0328761 3.76052e-20)
(-0.0186867 0.0430912 -8.87877e-20)
(-0.0217532 0.0538202 2.56555e-20)
(-0.0246463 0.0649494 1.29657e-20)
(-0.0273402 0.0763875 2.61377e-20)
(-0.0298184 0.0880595 2.63535e-20)
(-0.0320712 0.0998999 -5.30136e-20)
(-0.0340938 0.11185 5.33329e-20)
(-0.0358854 0.123855 8.04477e-20)
(-0.0374474 0.135864 -8.07264e-20)
(-0.0387825 0.147825 1.08148e-19)
(-0.0398945 0.15969 5.42869e-20)
(-0.0407876 0.171411 8.16773e-20)
(-0.0414667 0.182941 2.73476e-20)
(-0.0419366 0.194234 5.46778e-20)
(-0.0422027 0.205248 -5.47987e-20)
(-0.0422709 0.215941 0)
(-0.0421477 0.226275 -1.64825e-19)
(-0.0418399 0.236215 1.0988e-19)
(-0.0413542 0.245731 -5.47512e-20)
(-0.0406977 0.254793 -5.47489e-20)
(-0.0398785 0.263378 9.45812e-23)
(-0.0389058 0.271467 0)
(-0.0377895 0.279042 0)
(-0.0365406 0.286091 5.4728e-20)
(-0.0351713 0.292606 -5.47593e-20)
(-0.0336956 0.298582 5.44576e-20)
(-0.0321302 0.304019 -5.45197e-20)
(-0.0304947 0.308918 -5.43824e-20)
(-0.0288066 0.313289 0)
(-0.0270847 0.317141 -5.3887e-20)
(-0.025458 0.320505 -5.36954e-20)
(-0.0240469 0.323441 -1.86065e-19)
(0.00082816 -0.00299817 4.12765e-20)
(0.000734695 -0.00475975 -3.93194e-20)
(-0.000932263 -0.0030287 4.60115e-20)
(-0.00349231 0.00120839 -8.22461e-20)
(-0.00661364 0.00727746 -5.98673e-20)
(-0.010043 0.0147342 4.87131e-20)
(-0.0136038 0.0232542 -9.89303e-20)
(-0.0171699 0.0325953 -5.01347e-20)
(-0.0206543 0.0425746 6.34421e-20)
(-0.0239974 0.0530521 -1.15451e-19)
(-0.0271597 0.063919 -7.77279e-20)
(-0.0301149 0.0750879 -2.61642e-20)
(-0.0328461 0.0864868 -7.90123e-20)
(-0.0353434 0.0980529 7.95072e-20)
(-0.037602 0.10973 -5.3333e-20)
(-0.0396206 0.121466 -5.36175e-20)
(-0.0414004 0.13321 0)
(-0.0429437 0.144913 -5.40929e-20)
(-0.0442536 0.15653 -8.14796e-20)
(-0.0453341 0.168012 2.71962e-20)
(-0.0461896 0.179314 -5.45932e-20)
(-0.0468243 0.190392 0)
(-0.047243 0.201205 5.47987e-20)
(-0.0474512 0.21171 5.4974e-20)
(-0.047455 0.221872 -5.48509e-20)
(-0.0472605 0.231656 0)
(-0.0468742 0.24103 0)
(-0.0463028 0.249969 0)
(-0.0455545 0.258448 -1.35375e-23)
(-0.0446385 0.266447 0)
(-0.0435649 0.273952 -1.09656e-19)
(-0.0423452 0.280951 -1.20884e-22)
(-0.0409926 0.287437 -1.09257e-19)
(-0.0395224 0.293406 1.08948e-19)
(-0.0379533 0.29886 -5.42498e-20)
(-0.036307 0.303805 5.4234e-20)
(-0.0346049 0.30825 0)
(-0.0328689 0.312212 1.07784e-19)
(-0.0312301 0.315724 -5.3547e-20)
(-0.0298215 0.31885 0)
(0.000817679 -0.00282377 5.16144e-21)
(0.000611752 -0.00438533 0)
(-0.00125891 -0.0025854 -5.75309e-20)
(-0.00406132 0.00162806 7.05055e-20)
(-0.00744544 0.00760259 3.59342e-20)
(-0.011145 0.0149115 -4.87343e-20)
(-0.0149757 0.0232439 4.94718e-20)
(-0.0188072 0.032368 -5.0166e-20)
(-0.02255 0.0421087 0)
(-0.0261435 0.0523322 5.13247e-20)
(-0.0295473 0.0629344 -5.18543e-20)
(-0.0327351 0.073832 -2.89985e-23)
(-0.0356899 0.0849558 0)
(-0.0384019 0.0962457 5.30847e-20)
(-0.0408664 0.107648 -2.66866e-20)
(-0.043082 0.119112 5.37595e-20)
(-0.0450496 0.130589 2.70202e-20)
(-0.0467711 0.142033 -5.41777e-20)
(-0.0482494 0.153399 0)
(-0.0494881 0.16464 8.18334e-20)
(-0.0504912 0.175712 2.73883e-20)
(-0.0512625 0.186572 0)
(-0.0518063 0.197179 0)
(-0.0521276 0.207493 0)
(-0.0522321 0.217479 5.49368e-20)
(-0.0521253 0.227102 0)
(-0.0518132 0.236331 -5.50561e-20)
(-0.0513025 0.245142 1.09879e-19)
(-0.0506012 0.25351 -1.09706e-19)
(-0.0497183 0.261416 0)
(-0.0486643 0.268847 5.47725e-20)
(-0.0474511 0.275792 -5.46394e-20)
(-0.0460926 0.282245 5.45692e-20)
(-0.0446054 0.288205 0)
(-0.0430099 0.293676 0)
(-0.0413308 0.298666 5.41523e-20)
(-0.0395927 0.30319 -5.38223e-20)
(-0.0378212 0.307267 1.07509e-19)
(-0.0361482 0.310937 -1.0682e-19)
(-0.0347224 0.314268 0)
(0.000794414 -0.00263216 3.61468e-20)
(0.0004625 -0.00397321 1.12438e-20)
(-0.00161409 -0.00209417 4.60256e-20)
(-0.00465324 0.00210006 4.70145e-20)
(-0.00828825 0.00798085 -4.79107e-20)
(-0.0122412 0.0151408 4.87344e-20)
(-0.0163213 0.0232834 4.94961e-20)
(-0.0203949 0.0321879 5.0166e-20)
(-0.0243706 0.0416876 0)
(-0.028187 0.0516549 5.13688e-20)
(-0.0318036 0.0619908 5.18544e-20)
(-0.0351941 0.0726155 5.23109e-20)
(-0.0383419 0.083463 0)
(-0.0412377 0.0944758 3.76502e-23)
(-0.0438767 0.105602 5.34101e-20)
(-0.0462579 0.116793 -2.68068e-20)
(-0.0483818 0.128004 -2.69104e-20)
(-0.0502503 0.139187 8.1315e-20)
(-0.051866 0.1503 7.65163e-23)
(-0.0532323 0.161299 -2.71935e-20)
(-0.0543529 0.172139 -5.46723e-20)
(-0.0552312 0.182779 0)
(-0.055871 0.193179 0)
(-0.056277 0.203301 0)
(-0.0564543 0.213107 0)
(-0.056408 0.222566 0)
(-0.0561436 0.231648 0)
(-0.0556676 0.240327 5.50337e-20)
(-0.0549878 0.248581 -5.48051e-20)
(-0.054113 0.256391 0)
(-0.0530537 0.263744 0)
(-0.0518222 0.270631 5.46394e-20)
(-0.0504331 0.277049 0)
(-0.0489043 0.282998 5.44133e-20)
(-0.0472577 0.288484 -5.4102e-20)
(-0.0455205 0.29352 0)
(-0.0437215 0.298124 1.07696e-19)
(-0.0418899 0.302323 -1.07022e-19)
(-0.0401572 0.306161 0)
(-0.0386906 0.309711 0)
(0.000757643 -0.00242456 -4.13052e-20)
(0.00028568 -0.00352665 -1.12397e-20)
(-0.00199899 -0.00155957 1.15091e-20)
(-0.0052688 0.00261891 -4.70146e-20)
(-0.00914215 0.00840613 0)
(-0.0133311 0.0154155 0)
(-0.0176394 0.0233661 -3.71173e-20)
(-0.0219307 0.0320486 -1.25436e-20)
(-0.0261127 0.0413051 -2.54191e-20)
(-0.0301235 0.0510145 -2.56919e-20)
(-0.033923 0.0610826 -2.5965e-20)
(-0.0374854 0.0714337 2.61589e-20)
(-0.0407946 0.0820046 2.63784e-20)
(-0.0438419 0.0927402 -2.65762e-20)
(-0.0466231 0.103591 0)
(-0.049137 0.11451 0)
(-0.0513846 0.125453 -5.39997e-20)
(-0.0533674 0.136377 0)
(-0.0550882 0.147238 0)
(-0.0565501 0.157994 5.47353e-20)
(-0.0577566 0.168602 1.64562e-22)
(-0.0587107 0.179023 1.07418e-22)
(-0.0594161 0.189215 -5.50125e-20)
(-0.0598769 0.199143 5.48946e-20)
(-0.0600977 0.20877 5.50278e-20)
(-0.060083 0.218064 -5.50298e-20)
(-0.0598382 0.226996 0)
(-0.0593694 0.235541 5.50405e-20)
(-0.0586839 0.243678 1.66281e-22)
(-0.0577904 0.251389 -5.47322e-20)
(-0.0566993 0.258662 0)
(-0.0554231 0.265489 0)
(-0.0539769 0.271868 5.45168e-20)
(-0.0523795 0.277803 -5.42164e-20)
(-0.0506545 0.283303 -5.41648e-20)
(-0.0488317 0.288384 5.38443e-20)
(-0.0469441 0.293071 0)
(-0.0450248 0.297394 0)
(-0.0432033 0.30141 0)
(-0.041669 0.305194 -6.11386e-20)
(0.000706737 -0.00220234 5.16428e-20)
(8.02614e-05 -0.0030491 -2.24875e-20)
(-0.0024145 -0.00098637 1.15099e-20)
(-0.00590847 0.00317892 0)
(-0.010007 0.00887215 5.991e-20)
(-0.0144137 0.0157291 4.43064e-24)
(-0.0189281 0.0234851 4.95233e-20)
(-0.023412 0.0319433 -3.76585e-20)
(-0.0277728 0.0409545 5.08335e-20)
(-0.0319488 0.0504046 -2.5687e-20)
(-0.0359004 0.0602044 0)
(-0.0396027 0.0702817 2.62152e-20)
(-0.0430407 0.0805764 -7.91678e-20)
(-0.0462064 0.0910358 0)
(-0.0490959 0.101612 8.03243e-20)
(-0.0517087 0.112261 -5.37701e-20)
(-0.0540459 0.122939 -5.40727e-20)
(-0.0561092 0.133604 2.71129e-20)
(-0.0579013 0.144215 0)
(-0.0594254 0.15473 -5.46307e-20)
(-0.0606848 0.165108 -5.48721e-20)
(-0.0616822 0.175309 -5.90386e-23)
(-0.062421 0.185296 5.49958e-20)
(-0.0629051 0.19503 5.51059e-20)
(-0.0631385 0.204477 -1.0999e-19)
(-0.0631253 0.213607 5.50298e-20)
(-0.0628704 0.222389 0)
(-0.0623796 0.230801 -5.49828e-20)
(-0.0616597 0.238819 5.49092e-20)
(-0.0607191 0.24643 5.48135e-20)
(-0.0595681 0.25362 -5.46961e-20)
(-0.058219 0.260385 5.4557e-20)
(-0.0566873 0.266723 0)
(-0.0549926 0.272641 5.42945e-20)
(-0.05316 0.278153 1.08222e-19)
(-0.0512216 0.283278 -1.07551e-19)
(-0.049215 0.288046 1.07288e-19)
(-0.0471774 0.292498 1.66992e-22)
(-0.0452353 0.296698 -5.30657e-20)
(-0.0436033 0.30073 1.22056e-19)
(0.000641171 -0.00196691 -3.09941e-20)
(-0.000154561 -0.00254413 -6.74565e-20)
(-0.00286124 -0.000379479 4.60387e-20)
(-0.00657243 0.00377425 -3.52659e-20)
(-0.0108825 0.00937244 -1.19821e-20)
(-0.0154881 0.0160747 1.21881e-20)
(-0.0201856 0.0236336 -2.47474e-20)
(-0.0248364 0.031865 -2.50987e-20)
(-0.0293477 0.0406292 2.54384e-20)
(-0.0336587 0.049819 -5.14255e-20)
(-0.0377307 0.0593501 -3.85459e-23)
(-0.0415403 0.0691542 2.61868e-20)
(-0.0450734 0.0791738 0)
(-0.0483231 0.0893586 -2.66387e-20)
(-0.0512863 0.0996629 -2.67867e-20)
(-0.0539629 0.110044 5.3834e-20)
(-0.0563545 0.120459 0)
(-0.0584631 0.130869 0)
(-0.0602916 0.141233 5.46214e-20)
(-0.0618431 0.15151 -5.46286e-20)
(-0.0631209 0.16166 0)
(-0.0641276 0.171646 5.50271e-20)
(-0.0648664 0.181428 -5.4831e-20)
(-0.0653407 0.190972 -1.10132e-19)
(-0.0655543 0.200242 -1.62464e-22)
(-0.0655107 0.209209 5.50591e-20)
(-0.0652145 0.217843 -1.10032e-19)
(-0.0646709 0.226121 5.49828e-20)
(-0.0638864 0.234023 -5.49091e-20)
(-0.0628689 0.241532 7.06823e-23)
(-0.0616281 0.248639 7.33202e-23)
(-0.0601764 0.255339 -5.45569e-20)
(-0.0585293 0.261634 -5.43691e-20)
(-0.0567069 0.267533 -5.4176e-20)
(-0.0547355 0.273053 -5.16203e-23)
(-0.0526495 0.27822 0)
(-0.0504914 0.283068 -5.34794e-20)
(-0.0483025 0.287648 1.06576e-19)
(-0.0462053 0.292039 -1.58925e-19)
(-0.0444431 0.296331 1.04513e-22)
(0.000560525 -0.00171976 -1.03312e-20)
(-0.000419378 -0.00201535 8.99343e-20)
(-0.0033396 0.000256133 -4.60376e-20)
(-0.00726064 0.00439896 3.52655e-20)
(-0.0117679 0.00990049 -9.58618e-20)
(-0.0165528 0.0164454 1.21887e-20)
(-0.0214101 0.0238044 -4.95314e-20)
(-0.0262011 0.0318068 0)
(-0.0308339 0.0403223 0)
(-0.035249 0.0492509 -5.14522e-20)
(-0.0394092 0.0585135 2.60062e-20)
(-0.0432925 0.0680454 1.16006e-23)
(-0.0468863 0.0777918 2.6412e-20)
(-0.0501847 0.0877046 0)
(-0.0531859 0.09774 -8.04546e-20)
(-0.0558903 0.107856 2.69193e-20)
(-0.0583 0.118014 -5.4193e-20)
(-0.0604177 0.128173 0)
(-0.0622463 0.138293 0)
(-0.0637892 0.148337 5.3713e-23)
(-0.0650495 0.158265 -5.48127e-20)
(-0.06603 0.168039 5.50223e-20)
(-0.0667338 0.177622 -5.51497e-20)
(-0.0671639 0.186978 5.50314e-20)
(-0.0673237 0.196076 5.61394e-23)
(-0.0672164 0.204883 5.98772e-23)
(-0.0668461 0.213372 5.50632e-20)
(-0.0662176 0.22152 -5.50296e-20)
(-0.0653368 0.229306 0)
(-0.0642109 0.236716 -5.4886e-20)
(-0.0628493 0.24374 5.46245e-20)
(-0.0612638 0.250375 0)
(-0.05947 0.256625 5.4369e-20)
(-0.0574881 0.262502 -5.42305e-20)
(-0.0553453 0.268026 5.38234e-20)
(-0.0530783 0.27323 0)
(-0.0507342 0.278155 1.60424e-19)
(-0.0483593 0.282861 -1.06276e-19)
(-0.0460708 0.287446 0)
(-0.0441438 0.292007 6.07064e-20)
(0.00046448 -0.00146239 8.26509e-20)
(-0.000714576 -0.00146637 -4.49669e-20)
(-0.00384971 0.000915468 -1.15084e-20)
(-0.00797277 0.00504712 1.17551e-20)
(-0.0126623 0.0104498 4.79294e-20)
(-0.0176065 0.0168344 0)
(-0.0225995 0.0239907 4.95317e-20)
(-0.0275034 0.0317616 7.53495e-20)
(-0.0322281 0.0400269 2.5425e-20)
(-0.0367158 0.0486938 2.57018e-20)
(-0.0409311 0.0576884 2.5976e-20)
(-0.0448539 0.0669494 -7.87219e-20)
(-0.0484732 0.076425 2.64275e-20)
(-0.0517846 0.0860691 1.0663e-19)
(-0.0547872 0.0958395 2.67677e-20)
(-0.0574824 0.105696 2.69414e-20)
(-0.0598731 0.1156 5.41932e-20)
(-0.0619624 0.125513 0)
(-0.0637538 0.135397 0)