/*--------------------------------*- C++ -*----------------------------------*\
  =========                 |
  \\      /  F ield         | OpenFOAM: The Open Source CFD Toolbox
   \\    /   O peration     | Website:  https://openfoam.org
    \\  /    A nd           | Version:  7
     \\/     M anipulation  |
\*---------------------------------------------------------------------------*/
FoamFile
{
    version     2.0;
    format      ascii;
    class       volScalarField;
    location    "2.1";
    object      p;
}
// * * * * * * * * * * * * * * * * * * * * * * * * * * * * * * * * * * * * * //

dimensions      [0 2 -2 0 0 0 0];

internalField   nonuniform List<scalar> 
2000
(
0.470121
0.477563
0.483116
0.488651
0.493681
0.498077
0.501858
0.505088
0.507858
0.510147
0.466842
0.474829
0.480654
0.486368
0.491474
0.495862
0.499565
0.502659
0.505244
0.507281
0.463176
0.471836
0.477965
0.483875
0.489074
0.493471
0.49712
0.500107
0.502539
0.504316
0.459131
0.468583
0.47503
0.48114
0.486436
0.490853
0.494464
0.497373
0.499692
0.501212
0.454696
0.465058
0.471827
0.478132
0.483517
0.487953
0.491539
0.494394
0.496648
0.497928
0.449881
0.461265
0.468353
0.474834
0.480288
0.484731
0.48829
0.49111
0.493349
0.494432
0.444723
0.457227
0.464617
0.471242
0.476734
0.481155
0.484672
0.48746
0.489732
0.490699
0.439289
0.45299
0.46065
0.467377
0.47286
0.477219
0.480665
0.48342
0.485808
0.486838
0.433682
0.448618
0.456505
0.463277
0.46869
0.472923
0.476244
0.478976
0.481702
0.483282
0.428038
0.444199
0.452257
0.459009
0.464271
0.468258
0.47128
0.473758
0.47657
0.478893
0.514179
0.522963
0.527534
0.532948
0.53645
0.541087
0.542751
0.54648
0.546889
0.548375
0.510599
0.519772
0.524156
0.52955
0.533075
0.537732
0.539499
0.543241
0.543758
0.54525
0.506638
0.516457
0.520638
0.526028
0.529592
0.534286
0.536174
0.539946
0.540583
0.542087
0.502262
0.512974
0.516969
0.522371
0.525999
0.530743
0.532774
0.536587
0.537357
0.538878
0.497467
0.50927
0.513139
0.518572
0.522293
0.527099
0.529296
0.533156
0.534074
0.535615
0.492296
0.505295
0.509143
0.514627
0.518471
0.52335
0.52574
0.529647
0.53073
0.532289
0.486833
0.500982
0.50496
0.510522
0.514527
0.519491
0.522101
0.52605
0.527318
0.52889
0.481088
0.4961
0.500446
0.506159
0.510395
0.51548
0.518355
0.522347
0.523825
0.525407
0.47526
0.490428
0.495459
0.501441
0.50602
0.511283
0.514486
0.518524
0.520246
0.521834
0.471683
0.485678
0.49119
0.497237
0.502063
0.507322
0.510785
0.514721
0.516654
0.518178
0.474233
0.482657
0.486888
0.491462
0.495654
0.499663
0.503025
0.50607
0.508193
0.509302
0.446265
0.45625
0.462964
0.469681
0.47573
0.481035
0.485437
0.489058
0.491801
0.49313
0.415283
0.426747
0.435159
0.443694
0.451631
0.458656
0.464274
0.469031
0.472361
0.47404
0.379543
0.392746
0.40282
0.413161
0.422983
0.43172
0.438763
0.444828
0.449156
0.451506
0.337716
0.352685
0.364573
0.376813
0.388529
0.398949
0.407409
0.414497
0.419289
0.421462
0.287981
0.305122
0.319022
0.333213
0.346782
0.358867
0.368838
0.377439
0.384063
0.387671
0.232148
0.250652
0.266287
0.28188
0.296718
0.309936
0.320775
0.329397
0.334833
0.337058
0.164197
0.185203
0.202436
0.21896
0.234314
0.247932
0.259354
0.269517
0.278624
0.283694
0.0956301
0.115036
0.132283
0.147194
0.16012
0.171
0.179119
0.185347
0.19
0.19301
0.0125793
0.0317092
0.044787
0.0557339
0.0655945
0.0747204
0.0820558
0.0887281
0.0919904
0.0935671
0.455844
0.429984
0.399705
0.362652
0.320018
0.26857
0.214493
0.143596
0.0858057
-0.00726336
0.451503
0.42349
0.392698
0.355036
0.312019
0.260077
0.206435
0.134375
0.0804442
-0.0161459
0.445809
0.416455
0.38527
0.347199
0.303852
0.251608
0.198191
0.125327
0.0747468
-0.0249499
0.439674
0.409911
0.37837
0.339904
0.296157
0.243613
0.190146
0.116679
0.0689753
-0.033789
0.433742
0.404031
0.372077
0.333182
0.288955
0.236094
0.18232
0.108443
0.0631056
-0.0430086
0.428398
0.398918
0.366482
0.327101
0.282315
0.229102
0.174786
0.100703
0.0570089
-0.0536011
0.423987
0.394698
0.361708
0.32176
0.276328
0.222705
0.167653
0.0936258
0.0505511
-0.0667444
0.4208
0.391495
0.35787
0.317255
0.271082
0.216966
0.161046
0.0874162
0.0440441
-0.0793371
0.419054
0.389419
0.355064
0.313672
0.266654
0.211942
0.155064
0.0821463
0.0383815
-0.0786879
0.418889
0.388561
0.35337
0.311086
0.263113
0.207678
0.14977
0.077719
0.0337587
-0.0666382
0.42037
0.388983
0.352847
0.309556
0.260512
0.20421
0.145188
0.0740112
0.0301235
-0.0568258
0.423502
0.39073
0.353542
0.309139
0.258907
0.201578
0.141332
0.0708865
0.0274186
-0.0498286
0.428217
0.393846
0.355498
0.309892
0.258357
0.199823
0.138234
0.0681494
0.0239396
-0.0430793
0.434398
0.398363
0.358732
0.311855
0.25889
0.198969
0.135896
0.0657575
0.0205957
-0.0374074
0.441885
0.404188
0.363162
0.314943
0.260429
0.198952
0.134199
0.0639277
0.017499
-0.0328266
0.450359
0.411065
0.368551
0.318959
0.262825
0.199655
0.133025
0.0624805
0.0148542
-0.0290287
0.459501
0.418942
0.375003
0.324125
0.2664
0.201435
0.132729
0.0614551
0.0126547
-0.0257924
0.469804
0.42896
0.383848
0.331839
0.272551
0.205562
0.134253
0.0613522
0.0109425
-0.0229714
0.481954
0.442016
0.395835
0.342642
0.281627
0.212262
0.13775
0.0624159
0.00975814
-0.0203468
0.490246
0.451189
0.403707
0.349041
0.286264
0.215032
0.138476
0.062433
0.00867199
-0.017558
0.490556
0.453995
0.404857
0.347547
0.281876
0.208624
0.13137
0.0581108
0.00641943
-0.0108632
0.501224
0.462841
0.411782
0.3503
0.278759
0.199363
0.117888
0.0456268
0.000544067
-0.00774131
0.510597
0.472146
0.420042
0.355098
0.277966
0.192626
0.10799
0.0384676
0.00110221
-0.00370027
0.522086
0.484582
0.431875
0.363476
0.280112
0.18808
0.100453
0.0348681
0.00474388
0.000206419
0.536479
0.500882
0.448152
0.376234
0.285985
0.187063
0.0976749
0.0373439
0.0120568
0.00385935
0.55385
0.520911
0.468856
0.393888
0.297175
0.192329
0.102679
0.0475942
0.0233505
0.00768484
0.571985
0.543045
0.4943
0.419399
0.318897
0.209487
0.119158
0.0661154
0.0379626
0.0121535
0.590743
0.569433
0.528098
0.457348
0.355051
0.240104
0.145891
0.0900325
0.0537999
0.0175238
0.611323
0.597384
0.564751
0.499995
0.397152
0.276842
0.177162
0.115058
0.0689554
0.0230398
0.620908
0.612755
0.58698
0.528117
0.427142
0.304422
0.200687
0.132158
0.0781609
0.0268965
0.526545
0.531108
0.536525
0.544967
0.556238
0.56982
0.585543
0.597257
0.615137
0.620555
0.536966
0.540298
0.545195
0.552917
0.563385
0.575602
0.59031
0.599862
0.616135
0.620159
0.544756
0.546786
0.551649
0.559039
0.569078
0.580307
0.593876
0.602322
0.61649
0.619708
0.551803
0.552671
0.557283
0.564219
0.573748
0.584062
0.596529
0.604129
0.616418
0.619075
0.558123
0.558202
0.562467
0.56886
0.577786
0.587178
0.598613
0.605352
0.616086
0.618247
0.563512
0.563104
0.567044
0.572917
0.581239
0.589745
0.600227
0.606136
0.615549
0.617266
0.567984
0.567305
0.570941
0.576342
0.584092
0.591781
0.601392
0.606553
0.61483
0.616169
0.571618
0.570843
0.574195
0.579167
0.586379
0.593324
0.602147
0.606648
0.613951
0.614979
0.574495
0.573763
0.576862
0.581447
0.588157
0.594427
0.602542
0.606462
0.612939
0.613712
0.576708
0.576109
0.578996
0.583233
0.589479
0.595143
0.602624
0.606037
0.611813
0.612379
0.578359
0.577932
0.580654
0.584579
0.5904
0.595521
0.602436
0.605407
0.61059
0.610991
0.57955
0.579291
0.581895
0.585536
0.590971
0.595607
0.602016
0.604604
0.609283
0.609552
0.58038
0.580247
0.582778
0.586159
0.591242
0.595446
0.601399
0.603657
0.607903
0.608068
0.580934
0.580866
0.58336
0.586502
0.591259
0.595078
0.600617
0.602589
0.60646
0.606542
0.581277
0.58121
0.583692
0.586614
0.591067
0.594543
0.599699
0.601423
0.604961
0.604977
0.581453
0.581339
0.58382
0.586542
0.590704
0.593875
0.59867
0.600179
0.603413
0.603378
0.581491
0.581322
0.583792
0.586329
0.59021
0.593105
0.597556
0.598874
0.601823
0.601745
0.581417
0.581214
0.58363
0.585997
0.589603
0.592246
0.596374
0.59752
0.600198
0.600082
0.58109
0.580963
0.583287
0.585514
0.588857
0.591287
0.595115
0.596122
0.598537
0.59839
0.580136
0.580546
0.582847
0.585027
0.588079
0.590358
0.593808
0.594725
0.596834
0.596686
0.578066
0.580745
0.583171
0.585294
0.587347
0.589155
0.591096
0.591629
0.592756
0.59267
0.57906
0.580554
0.582141
0.583411
0.58434
0.585115
0.585971
0.585511
0.585993
0.585553
0.579405
0.580034
0.580774
0.581127
0.580989
0.580606
0.580521
0.578888
0.578764
0.577804
0.578798
0.578745
0.578751
0.578322
0.577239
0.575729
0.574648
0.571846
0.570858
0.569305
0.577594
0.576859
0.576108
0.574903
0.572921
0.57023
0.568112
0.564072
0.561935
0.55962
0.576011
0.574729
0.573248
0.571239
0.568328
0.564304
0.560954
0.555502
0.551633
0.54822
0.574002
0.572433
0.570318
0.567491
0.563598
0.558103
0.553112
0.545992
0.539663
0.533902
0.571697
0.570236
0.567563
0.563879
0.558814
0.551867
0.544596
0.534789
0.524833
0.51338
0.57015
0.569008
0.565925
0.561518
0.55527
0.54705
0.536958
0.52297
0.509439
0.488099
0.572888
0.571161
0.568069
0.564147
0.558631
0.551267
0.542066
0.531437
0.508555
0.41365
0.573242
0.575683
0.576652
0.576964
0.576765
0.576215
0.575519
0.575143
0.575036
0.576303
0.571268
0.57495
0.576095
0.576692
0.576736
0.576431
0.575983
0.575895
0.576118
0.576972
0.570121
0.574853
0.576052
0.576807
0.576971
0.576721
0.576344
0.576213
0.576439
0.576924
0.569375
0.574751
0.57603
0.576949
0.577217
0.577016
0.576677
0.576476
0.576643
0.576834
0.568794
0.574559
0.575974
0.577066
0.577444
0.577294
0.576979
0.57672
0.576835
0.576849
0.568345
0.574332
0.575936
0.57719
0.577676
0.577566
0.577251
0.576917
0.576966
0.576888
0.568012
0.574084
0.575928
0.577354
0.577905
0.577839
0.577499
0.577071
0.577028
0.576895
0.567805
0.573794
0.57594
0.577531
0.578158
0.578121
0.577738
0.577197
0.57704
0.576866
0.567641
0.573399
0.576031
0.577726
0.578436
0.578421
0.577981
0.577314
0.577026
0.576813
0.567462
0.572994
0.576118
0.577938
0.578745
0.57875
0.578243
0.577438
0.577004
0.576748
0.567247
0.572563
0.576199
0.57817
0.579088
0.579119
0.57854
0.577588
0.576993
0.576689
0.566966
0.572096
0.576272
0.578423
0.579471
0.579538
0.578887
0.577781
0.577011
0.576657
0.566574
0.571593
0.576328
0.578695
0.579896
0.580016
0.579299
0.578035
0.577073
0.576683
0.566023
0.571055
0.576352
0.578983
0.580366
0.58056
0.579791
0.578367
0.577197
0.576797
0.565258
0.570481
0.576328
0.579278
0.580878
0.581177
0.580373
0.578793
0.577394
0.577036
0.564227
0.569868
0.576239
0.579572
0.581426
0.581866
0.581057
0.579327
0.577675
0.577436
0.562894
0.569218
0.57608
0.579857
0.582007
0.582629
0.581847
0.579974
0.578037
0.578034
0.561188
0.568513
0.575839
0.580122
0.582616
0.583466
0.582744
0.580707
0.578415
0.578858
0.558807
0.5676
0.575427
0.580304
0.583215
0.58436
0.583748
0.581517
0.578763
0.579922
0.555806
0.566322
0.574713
0.580255
0.583671
0.585221
0.584914
0.582795
0.579834
0.581411
0.550839
0.563008
0.572549
0.5795
0.584232
0.58708
0.58837
0.588463
0.587746
0.587772
0.556603
0.567216
0.576249
0.583462
0.588689
0.592049
0.593743
0.594103
0.593653
0.592696
0.56179
0.57181
0.580689
0.588273
0.594068
0.598046
0.600225
0.600802
0.600225
0.598421
0.566432
0.576278
0.585392
0.593558
0.600135
0.604959
0.607851
0.60882
0.608287
0.606041
0.570954
0.581083
0.590626
0.599519
0.607054
0.612857
0.616661
0.618272
0.617878
0.615501
0.575902
0.586252
0.596481
0.606472
0.615575
0.622823
0.627876
0.629866
0.629715
0.628517
0.578942
0.589977
0.600911
0.611952
0.622807
0.632763
0.640174
0.643753
0.646036
0.649202
0.583123
0.594479
0.606444
0.619218
0.631651
0.644536
0.655776
0.663163
0.671223
0.692254
0.584507
0.596502
0.609064
0.62284
0.638399
0.655504
0.672404
0.685513
0.705849
0.778506
0.586326
0.598478
0.611755
0.626757
0.644911
0.667286
0.69369
0.725761
0.799218
0.973466
0.54066
0.54906
0.554333
0.560019
0.564063
0.569777
0.571621
0.576522
0.576845
0.578914
0.537051
0.546351
0.551649
0.55754
0.561509
0.567252
0.568809
0.573734
0.573763
0.575813
0.534898
0.544555
0.549692
0.555483
0.559331
0.56476
0.566251
0.570853
0.570871
0.572758
0.532751
0.542513
0.547543
0.553249
0.556986
0.562158
0.563607
0.567937
0.567964
0.569721
0.530449
0.540115
0.545099
0.550764
0.554419
0.559425
0.560839
0.564985
0.565018
0.56669
0.528097
0.537527
0.542486
0.548113
0.551706
0.556586
0.557989
0.561995
0.56205
0.563661
0.525675
0.534815
0.539749
0.54533
0.548877
0.553657
0.555075
0.558971
0.559067
0.56063
0.523122
0.53199
0.536886
0.542419
0.545935
0.550641
0.552095
0.55591
0.556064
0.557592
0.520389
0.529067
0.533896
0.539382
0.542881
0.547541
0.549049
0.55281
0.553037
0.55454
0.517425
0.526057
0.530779
0.536224
0.539719
0.544356
0.545934
0.549668
0.54998
0.551469
0.422528
0.43985
0.448017
0.454681
0.459709
0.463314
0.46576
0.46726
0.467794
0.46541
0.417402
0.435739
0.44393
0.450442
0.455187
0.458382
0.460282
0.461038
0.460488
0.457521
0.41288
0.432008
0.440141
0.446449
0.450892
0.453691
0.455116
0.455322
0.454249
0.451393
0.4092
0.428826
0.436814
0.44288
0.44701
0.449433
0.45043
0.450174
0.448713
0.445886
0.406606
0.426375
0.434136
0.439923
0.44374
0.445807
0.446415
0.445752
0.443947
0.441015
0.405334
0.424845
0.432294
0.437774
0.44128
0.443011
0.443257
0.442216
0.440066
0.436907
0.405601
0.42442
0.431476
0.436621
0.439818
0.44123
0.441131
0.439725
0.437214
0.43374
0.407602
0.425279
0.431861
0.436643
0.439527
0.440626
0.440193
0.438429
0.435549
0.431711
0.411477
0.42758
0.433606
0.43799
0.440547
0.441333
0.440569
0.438455
0.435212
0.430995
0.417135
0.431352
0.436777
0.44074
0.442961
0.443431
0.442344
0.439893
0.436307
0.431728
0.424142
0.436412
0.441306
0.444879
0.446776
0.446942
0.445544
0.442782
0.43889
0.433989
0.433405
0.443273
0.447497
0.450582
0.452089
0.451912
0.450192
0.44713
0.442972
0.437804
0.444617
0.451752
0.455213
0.457737
0.458803
0.458255
0.456208
0.452866
0.448492
0.44313
0.457492
0.461684
0.464321
0.46622
0.466797
0.46585
0.463473
0.45987
0.455333
0.449855
0.471789
0.472908
0.474664
0.475873
0.475904
0.474531
0.471817
0.467967
0.463316
0.457813
0.487216
0.485209
0.486022
0.48648
0.485917
0.48409
0.481032
0.476942
0.472212
0.466759
0.503416
0.498311
0.498137
0.497789
0.496593
0.494293
0.490886
0.486559
0.481751
0.476363
0.520003
0.511901
0.510715
0.509525
0.507673
0.504887
0.501132
0.496553
0.491576
0.486222
0.536567
0.525644
0.523444
0.521404
0.518895
0.515631
0.511538
0.506638
0.501199
0.495742
0.552687
0.539193
0.536012
0.533145
0.530016
0.526336
0.521987
0.516772
0.510601
0.504647
0.568
0.552236
0.548127
0.544482
0.540804
0.53683
0.532458
0.52735
0.521145
0.517595
0.582337
0.564523
0.559519
0.555148
0.550985
0.546792
0.542475
0.53776
0.532511
0.530082
0.59519
0.575704
0.569907
0.564891
0.560308
0.555929
0.55164
0.547221
0.542624
0.5404
0.606249
0.585539
0.579082
0.573523
0.568591
0.564064
0.559802
0.555617
0.551463
0.549266
0.615335
0.593867
0.586902
0.580917
0.575719
0.571092
0.566876
0.562901
0.559103
0.556918
0.622351
0.600589
0.593278
0.587001
0.581631
0.576963
0.572821
0.569051
0.56557
0.56341
0.627281
0.605667
0.598183
0.591753
0.586315
0.581674
0.577645
0.574087
0.570908
0.568804
0.630182
0.609121
0.601635
0.595197
0.5898
0.58526
0.581388
0.578058
0.575176
0.573168
0.631172
0.611022
0.603698
0.597394
0.592147
0.587784
0.584118
0.581038
0.578452
0.576577
0.630446
0.611488
0.604476
0.598439
0.593445
0.589334
0.585923
0.583113
0.580826
0.57912
0.628299
0.610704
0.604119
0.59846
0.59381
0.590018
0.586908
0.58439
0.5824
0.580894
0.624847
0.608775
0.602723
0.597549
0.593332
0.589926
0.587162
0.584962
0.583272
0.581996
0.620325
0.605878
0.600449
0.595847
0.592138
0.589175
0.586799
0.584937
0.583549
0.582525
0.614968
0.602196
0.597451
0.59349
0.590347
0.587875
0.585922
0.584418
0.583332
0.582574
0.608987
0.597894
0.593873
0.590601
0.588071
0.586127
0.584625
0.583495
0.582709
0.582225
0.602579
0.593126
0.589849
0.587295
0.58541
0.584023
0.582994
0.582254
0.581766
0.581553
0.595915
0.588032
0.5855
0.583678
0.582456
0.581646
0.581109
0.580772
0.58058
0.580623
0.589148
0.582737
0.580935
0.579843
0.57929
0.579067
0.579034
0.579116
0.579222
0.579502
0.582405
0.577351
0.576249
0.57587
0.575981
0.576347
0.576825
0.577335
0.577758
0.578254
0.575795
0.571967
0.571524
0.571828
0.572587
0.573538
0.574528
0.575494
0.576366
0.577134
0.56938
0.566649
0.566813
0.567763
0.569144
0.57067
0.572177
0.573692
0.575483
0.576953
0.563072
0.561396
0.56215
0.563711
0.565678
0.567731
0.56968
0.571524
0.573488
0.574856
0.557029
0.556306
0.557599
0.559721
0.562227
0.564766
0.567125
0.56927
0.571362
0.572748
0.551303
0.551436
0.5532
0.555829
0.558832
0.561828
0.564589
0.567066
0.569376
0.570938
0.545925
0.546792
0.548973
0.552057
0.555521
0.558946
0.562098
0.564911
0.567475
0.569286
0.540898
0.542386
0.544935
0.548419
0.552315
0.556134
0.55966
0.562802
0.565631
0.567736
0.536211
0.538224
0.541095
0.544945
0.549198
0.553393
0.557277
0.560736
0.563829
0.566269
0.531846
0.534298
0.537448
0.541613
0.546193
0.550727
0.554937
0.558698
0.562033
0.564719
0.527782
0.530591
0.533982
0.538419
0.543289
0.548124
0.552633
0.556675
0.560241
0.563184
0.524094
0.527136
0.530711
0.535367
0.540481
0.545575
0.550351
0.55465
0.558431
0.561648
0.521013
0.524069
0.527711
0.532497
0.537783
0.54308
0.548079
0.552601
0.556574
0.560059
0.517919
0.52106
0.524799
0.529709
0.535142
0.540611
0.5458
0.550518
0.554655
0.558385
0.514919
0.518175
0.522005
0.527013
0.532559
0.538159
0.543503
0.548383
0.552655
0.556602
0.512065
0.515437
0.519337
0.52441
0.530028
0.535719
0.541177
0.546185
0.550562
0.554693
0.509339
0.512829
0.516781
0.521891
0.527545
0.533287
0.53882
0.54392
0.548367
0.552644
0.506721
0.510333
0.514324
0.519447
0.525107
0.530862
0.53643
0.541585
0.546063
0.55044
0.504194
0.507936
0.511959
0.517076
0.522712
0.528446
0.534013
0.539185
0.543655
0.548077
0.50175
0.505627
0.509676
0.514773
0.520363
0.526047
0.531577
0.536733
0.541151
0.545542
0.499377
0.503398
0.507472
0.512538
0.518064
0.523672
0.529132
0.534227
0.538526
0.542724
0.497075
0.501243
0.50534
0.510371
0.515822
0.521338
0.526699
0.531706
0.535894
0.539694
0.494823
0.499144
0.503267
0.508262
0.513635
0.519059
0.524334
0.529399
0.534308
0.53846
0.492497
0.497042
0.501226
0.506201
0.511494
0.516807
0.521951
0.526887
0.531782
0.535849
0.49018
0.494974
0.499233
0.504195
0.509404
0.514587
0.519573
0.524328
0.529012
0.53291
0.487886
0.492937
0.497282
0.502241
0.507367
0.512414
0.517236
0.521812
0.526275
0.529985
0.485593
0.490911
0.495359
0.50033
0.505383
0.510294
0.514946
0.519332
0.523562
0.527086
0.483273
0.488873
0.493446
0.498449
0.503443
0.508225
0.512704
0.516887
0.520869
0.52421
0.48089
0.486799
0.49152
0.496579
0.501533
0.506198
0.510508
0.514482
0.518208
0.521363
0.478402
0.484653
0.489551
0.494694
0.499632
0.504196
0.508348
0.512116
0.515585
0.518544
0.475765
0.482399
0.487505
0.492761
0.497709
0.502196
0.506204
0.509777
0.512996
0.515747
0.472979
0.480024
0.485359
0.490751
0.495733
0.500166
0.504051
0.507442
0.510428
0.512956
)
;

boundaryField
{
    inlet
    {
        type            zeroGradient;
    }
    outlet
    {
        type            fixedValue;
        value           uniform 0;
    }
    cylinder
    {
        type            zeroGradient;
    }
    top
    {
        type            symmetryPlane;
    }
    bottom
    {
        type            symmetryPlane;
    }
    defaultFaces
    {
        type            empty;
    }
}


// ************************************************************************* //
