/*--------------------------------*- C++ -*----------------------------------*\
  =========                 |
  \\      /  F ield         | OpenFOAM: The Open Source CFD Toolbox
   \\    /   O peration     | Website:  https://openfoam.org
    \\  /    A nd           | Version:  7
     \\/     M anipulation  |
\*---------------------------------------------------------------------------*/
FoamFile
{
    version     2.0;
    format      ascii;
    class       volScalarField;
    location    "1.9";
    object      p;
}
// * * * * * * * * * * * * * * * * * * * * * * * * * * * * * * * * * * * * * //

dimensions      [0 2 -2 0 0 0 0];

internalField   nonuniform List<scalar> 
32000
(
1.58383
1.5834
1.58417
1.58533
1.58678
1.58839
1.59008
1.59183
1.59367
1.5956
1.59762
1.59976
1.60212
1.60474
1.60767
1.61088
1.61432
1.61794
1.62168
1.62547
1.62927
1.63305
1.63678
1.64044
1.64401
1.64747
1.65079
1.65397
1.657
1.65988
1.66263
1.66525
1.66774
1.67012
1.67241
1.67462
1.67675
1.67881
1.68082
1.68264
1.57881
1.57859
1.57943
1.58063
1.58208
1.58366
1.58527
1.58692
1.58863
1.59042
1.59228
1.59427
1.59646
1.59892
1.6017
1.60478
1.60812
1.61165
1.61532
1.61906
1.62282
1.62657
1.63028
1.63393
1.63749
1.64094
1.64426
1.64743
1.65044
1.65331
1.65603
1.6586
1.66105
1.66339
1.66563
1.66778
1.66985
1.67185
1.67378
1.67554
1.57372
1.57374
1.57466
1.5759
1.57737
1.57891
1.58046
1.582
1.58357
1.58521
1.58691
1.58872
1.59075
1.59306
1.59569
1.59864
1.60186
1.6053
1.60889
1.61258
1.61631
1.62003
1.62371
1.62735
1.6309
1.63435
1.63766
1.64082
1.64382
1.64665
1.64934
1.65188
1.65429
1.65658
1.65877
1.66086
1.66286
1.66479
1.66666
1.66835
1.56862
1.56886
1.56985
1.57116
1.57264
1.57416
1.57563
1.57706
1.5785
1.57997
1.5815
1.58315
1.58501
1.58716
1.58964
1.59245
1.59556
1.5989
1.60242
1.60605
1.60974
1.61343
1.61709
1.62071
1.62426
1.6277
1.63101
1.63415
1.63712
1.63993
1.64258
1.64508
1.64745
1.64969
1.65183
1.65386
1.6558
1.65766
1.65945
1.66108
1.56354
1.56401
1.56506
1.56642
1.56792
1.5694
1.57081
1.57213
1.57343
1.57473
1.57609
1.57756
1.57926
1.58125
1.58358
1.58625
1.58923
1.59248
1.59592
1.5995
1.60314
1.60679
1.61044
1.61404
1.61758
1.62102
1.6243
1.62742
1.63037
1.63314
1.63576
1.63822
1.64054
1.64274
1.64483
1.6468
1.64867
1.65045
1.65217
1.65374
1.55846
1.55914
1.56026
1.56167
1.56318
1.56465
1.56599
1.56721
1.56836
1.5695
1.57068
1.57199
1.57352
1.57535
1.57752
1.58005
1.58291
1.58605
1.58942
1.59292
1.59651
1.60014
1.60376
1.60736
1.61088
1.6143
1.61757
1.62066
1.62357
1.62631
1.62889
1.63131
1.63359
1.63574
1.63777
1.63967
1.64148
1.64318
1.64482
1.64632
1.5534
1.55429
1.55548
1.55694
1.55847
1.55991
1.56119
1.56231
1.56332
1.5643
1.56531
1.56644
1.5678
1.56946
1.57148
1.57387
1.57661
1.57965
1.58292
1.58635
1.58989
1.59348
1.59708
1.60067
1.60418
1.60757
1.61081
1.61387
1.61675
1.61945
1.62198
1.62436
1.62659
1.62869
1.63065
1.6325
1.63423
1.63586
1.63741
1.63885
1.54838
1.54948
1.55073
1.55223
1.55378
1.55521
1.55643
1.55744
1.55832
1.55914
1.55997
1.56093
1.56211
1.56362
1.56548
1.56773
1.57034
1.57327
1.57645
1.5798
1.58328
1.58684
1.59042
1.59398
1.59747
1.60084
1.60404
1.60706
1.6099
1.61256
1.61505
1.61738
1.61956
1.6216
1.6235
1.62528
1.62693
1.62848
1.62996
1.63132
1.5434
1.54469
1.546
1.54756
1.54913
1.55054
1.5517
1.55262
1.55336
1.55402
1.55468
1.55546
1.55648
1.55782
1.55953
1.56164
1.56413
1.56694
1.57001
1.57329
1.57671
1.58023
1.58379
1.58732
1.59078
1.59411
1.59727
1.60025
1.60305
1.60566
1.60811
1.61039
1.61251
1.61448
1.61632
1.61802
1.6196
1.62107
1.62246
1.62375
1.53848
1.53995
1.54133
1.54293
1.54452
1.54591
1.54702
1.54784
1.54846
1.54896
1.54946
1.55007
1.55091
1.55208
1.55365
1.55561
1.55797
1.56067
1.56363
1.56682
1.57019
1.57366
1.57719
1.58069
1.58411
1.5874
1.59051
1.59345
1.5962
1.59876
1.60115
1.60338
1.60544
1.60734
1.60911
1.61074
1.61224
1.61363
1.61493
1.61614
1.53361
1.53526
1.53669
1.53835
1.53995
1.54133
1.54238
1.54312
1.54361
1.54397
1.5443
1.54474
1.54541
1.54642
1.54784
1.54967
1.55189
1.55446
1.55732
1.56043
1.56373
1.56716
1.57064
1.5741
1.57747
1.58071
1.58378
1.58666
1.58936
1.59187
1.59421
1.59636
1.59836
1.60019
1.60188
1.60344
1.60486
1.60617
1.60738
1.60851
1.5288
1.53062
1.53211
1.5338
1.53542
1.53678
1.53779
1.53844
1.53883
1.53905
1.53922
1.53948
1.53999
1.54085
1.54211
1.5438
1.54589
1.54834
1.55109
1.55411
1.55734
1.56072
1.56415
1.56756
1.57088
1.57406
1.57707
1.5799
1.58254
1.585
1.58727
1.58936
1.59128
1.59304
1.59465
1.59613
1.59748
1.5987
1.59981
1.60086
1.52405
1.52603
1.52757
1.52931
1.53093
1.53228
1.53324
1.53383
1.53411
1.53419
1.53421
1.53431
1.53466
1.53536
1.53647
1.53803
1.53998
1.5423
1.54494
1.54788
1.55104
1.55435
1.55772
1.56107
1.56433
1.56745
1.5704
1.57317
1.57576
1.57815
1.58035
1.58237
1.58421
1.58589
1.58743
1.58883
1.59009
1.59122
1.59224
1.5932
1.51937
1.52149
1.52309
1.52486
1.52649
1.52782
1.52874
1.52926
1.52945
1.5294
1.52927
1.52922
1.52941
1.52996
1.53093
1.53234
1.53416
1.53636
1.53889
1.54174
1.54482
1.54806
1.55136
1.55464
1.55783
1.56089
1.56378
1.56649
1.56901
1.57133
1.57346
1.5754
1.57716
1.57877
1.58022
1.58154
1.58271
1.58375
1.58467
1.58555
1.51475
1.51701
1.51865
1.52045
1.52208
1.5234
1.52429
1.52475
1.52484
1.52468
1.5244
1.52421
1.52424
1.52465
1.52548
1.52675
1.52844
1.53051
1.53295
1.53569
1.53869
1.54185
1.54507
1.54828
1.5514
1.55439
1.55721
1.55985
1.5623
1.56455
1.5666
1.56846
1.57014
1.57166
1.57304
1.57427
1.57535
1.5763
1.57712
1.5779
1.51019
1.51256
1.51425
1.51608
1.51772
1.51902
1.51989
1.52029
1.52029
1.52001
1.51961
1.51927
1.51917
1.51942
1.52012
1.52125
1.52281
1.52477
1.5271
1.52975
1.53266
1.53573
1.53887
1.54199
1.54503
1.54795
1.5507
1.55327
1.55564
1.55781
1.55978
1.56156
1.56316
1.5646
1.56588
1.56702
1.56802
1.56887
1.56959
1.57028
1.50568
1.50816
1.50989
1.51175
1.51339
1.51469
1.51552
1.51587
1.51579
1.51541
1.51489
1.51442
1.51417
1.51429
1.51484
1.51585
1.51729
1.51913
1.52136
1.52392
1.52673
1.5297
1.53274
1.53578
1.53874
1.54158
1.54426
1.54675
1.54904
1.55112
1.553
1.5547
1.55621
1.55757
1.55877
1.55982
1.56072
1.56147
1.56209
1.56269
1.50121
1.50378
1.50556
1.50744
1.50909
1.51038
1.51119
1.51149
1.51134
1.51086
1.51023
1.50963
1.50926
1.50924
1.50965
1.51053
1.51185
1.51359
1.51572
1.51817
1.52088
1.52375
1.5267
1.52965
1.53252
1.53528
1.53787
1.54028
1.54248
1.54448
1.54627
1.54788
1.54932
1.55059
1.5517
1.55266
1.55346
1.55411
1.55463
1.55513
1.49678
1.49943
1.50124
1.50315
1.50481
1.5061
1.50688
1.50714
1.50691
1.50635
1.50562
1.50491
1.50441
1.50425
1.50454
1.5053
1.50651
1.50815
1.51017
1.51252
1.51513
1.51789
1.52074
1.52359
1.52638
1.52905
1.53155
1.53387
1.53598
1.53789
1.5396
1.54113
1.54248
1.54366
1.54469
1.54555
1.54626
1.54681
1.54722
1.54763
1.49238
1.49508
1.49694
1.49888
1.50055
1.50183
1.50259
1.5028
1.50252
1.50188
1.50106
1.50024
1.49962
1.49934
1.4995
1.50014
1.50125
1.50279
1.50471
1.50696
1.50946
1.51212
1.51486
1.51761
1.5203
1.52288
1.5253
1.52752
1.52954
1.53136
1.53298
1.53443
1.53569
1.53679
1.53773
1.5385
1.53911
1.53956
1.53987
1.54019
1.48799
1.49075
1.49264
1.49461
1.4963
1.49757
1.49831
1.49848
1.49814
1.49743
1.49652
1.49561
1.49488
1.49448
1.49453
1.49506
1.49606
1.4975
1.49933
1.50148
1.50386
1.50641
1.50905
1.5117
1.5143
1.51678
1.5191
1.52123
1.52316
1.52489
1.52643
1.52779
1.52897
1.52998
1.53083
1.53152
1.53203
1.53238
1.53259
1.53282
1.48361
1.48641
1.48834
1.49034
1.49204
1.49331
1.49402
1.49415
1.49376
1.49298
1.492
1.491
1.49017
1.48967
1.48961
1.49004
1.49094
1.49229
1.49402
1.49607
1.49835
1.50079
1.50332
1.50587
1.50837
1.51075
1.51297
1.515
1.51683
1.51848
1.51993
1.52121
1.52231
1.52324
1.524
1.5246
1.52502
1.52527
1.52539
1.52553
1.47922
1.48205
1.48402
1.48605
1.48777
1.48903
1.48972
1.48981
1.48937
1.48854
1.48749
1.48641
1.48549
1.4849
1.48474
1.48507
1.48588
1.48714
1.48878
1.49073
1.4929
1.49523
1.49765
1.5001
1.50249
1.50477
1.50689
1.50883
1.51057
1.51213
1.5135
1.51469
1.51571
1.51656
1.51724
1.51775
1.51808
1.51825
1.51828
1.51834
1.47482
1.47768
1.47968
1.48174
1.48347
1.48473
1.4854
1.48545
1.48497
1.48408
1.48297
1.48182
1.48083
1.48015
1.47991
1.48015
1.48088
1.48205
1.4836
1.48545
1.48751
1.48973
1.49205
1.49438
1.49667
1.49885
1.50087
1.50271
1.50437
1.50584
1.50713
1.50823
1.50917
1.50995
1.51055
1.51098
1.51123
1.51132
1.51126
1.51125
1.4704
1.47328
1.47531
1.4774
1.47914
1.4804
1.48105
1.48107
1.48054
1.4796
1.47843
1.47723
1.47617
1.47542
1.4751
1.47526
1.47591
1.477
1.47847
1.48022
1.48218
1.48429
1.4865
1.48873
1.49091
1.49298
1.4949
1.49665
1.49822
1.49961
1.50081
1.50184
1.5027
1.5034
1.50394
1.50429
1.50447
1.50448
1.50435
1.50426
1.46595
1.46884
1.4709
1.47301
1.47478
1.47603
1.47665
1.47664
1.47607
1.47509
1.47387
1.47262
1.47151
1.4707
1.47031
1.4704
1.47097
1.47199
1.47338
1.47504
1.4769
1.4789
1.481
1.48311
1.48519
1.48715
1.48898
1.49064
1.49213
1.49343
1.49456
1.49551
1.4963
1.49694
1.4974
1.4977
1.49781
1.49775
1.49755
1.4974
1.46146
1.46437
1.46645
1.46858
1.47036
1.47161
1.47221
1.47217
1.47156
1.47054
1.46928
1.46799
1.46683
1.46598
1.46553
1.46556
1.46606
1.46701
1.46832
1.46989
1.47166
1.47355
1.47554
1.47754
1.47951
1.48137
1.4831
1.48467
1.48608
1.4873
1.48835
1.48924
1.48997
1.49055
1.49095
1.49119
1.49125
1.49114
1.49088
1.49067
1.45693
1.45984
1.46194
1.4641
1.46588
1.46713
1.46771
1.46764
1.46699
1.46593
1.46465
1.46332
1.46214
1.46124
1.46075
1.46072
1.46117
1.46206
1.46329
1.46478
1.46644
1.46824
1.47011
1.47201
1.47386
1.47562
1.47726
1.47875
1.48007
1.48122
1.48221
1.48303
1.48371
1.48423
1.48459
1.48478
1.48479
1.48463
1.48433
1.48407
1.45234
1.45527
1.45738
1.45955
1.46134
1.46258
1.46315
1.46304
1.46237
1.46128
1.45997
1.45862
1.45741
1.45649
1.45595
1.45588
1.45629
1.45712
1.45828
1.45968
1.46126
1.46295
1.46472
1.4665
1.46825
1.46991
1.47145
1.47285
1.4741
1.47519
1.47611
1.47688
1.47751
1.47798
1.4783
1.47845
1.47844
1.47825
1.47792
1.47763
1.44769
1.45062
1.45274
1.45493
1.45673
1.45797
1.45852
1.45838
1.45768
1.45656
1.45524
1.45388
1.45265
1.45171
1.45115
1.45104
1.45141
1.45218
1.45328
1.4546
1.45609
1.45768
1.45935
1.46102
1.46266
1.46422
1.46567
1.46699
1.46817
1.46919
1.47006
1.47078
1.47137
1.47181
1.4721
1.47223
1.47219
1.472
1.47165
1.47135
1.44297
1.44591
1.44804
1.45024
1.45204
1.45327
1.45381
1.45365
1.45292
1.45179
1.45045
1.44908
1.44786
1.4469
1.44633
1.4462
1.44653
1.44726
1.44829
1.44954
1.45093
1.45243
1.45399
1.45556
1.4571
1.45856
1.45992
1.46116
1.46226
1.46323
1.46404
1.46473
1.46528
1.46569
1.46597
1.46609
1.46606
1.46587
1.46553
1.46523
1.43818
1.44113
1.44326
1.44547
1.44727
1.44849
1.44901
1.44883
1.44808
1.44694
1.4456
1.44424
1.44302
1.44206
1.44148
1.44135
1.44165
1.44233
1.4433
1.44448
1.44579
1.44719
1.44865
1.45011
1.45154
1.45291
1.45418
1.45534
1.45638
1.45729
1.45806
1.4587
1.45923
1.45963
1.4599
1.46003
1.46002
1.45986
1.45956
1.45928
1.4333
1.43627
1.4384
1.44061
1.44241
1.44362
1.44413
1.44394
1.44318
1.44204
1.4407
1.43935
1.43814
1.4372
1.43662
1.43648
1.43676
1.4374
1.43832
1.43942
1.44064
1.44195
1.44331
1.44467
1.446
1.44727
1.44846
1.44954
1.45051
1.45137
1.4521
1.45271
1.45321
1.45361
1.45389
1.45405
1.45408
1.45397
1.45374
1.45352
1.42834
1.43133
1.43346
1.43566
1.43746
1.43867
1.43916
1.43896
1.4382
1.43706
1.43574
1.43442
1.43322
1.4323
1.43174
1.4316
1.43186
1.43247
1.43333
1.43436
1.4355
1.43672
1.43798
1.43924
1.44047
1.44164
1.44274
1.44375
1.44466
1.44546
1.44615
1.44673
1.44722
1.44761
1.44792
1.44812
1.44821
1.44818
1.44805
1.44793
1.42329
1.4263
1.42843
1.43064
1.43243
1.43362
1.43411
1.4339
1.43315
1.43202
1.43073
1.42943
1.42826
1.42737
1.42683
1.4267
1.42695
1.42753
1.42833
1.42929
1.43035
1.43148
1.43264
1.43381
1.43494
1.43602
1.43703
1.43797
1.43881
1.43955
1.4402
1.44075
1.44123
1.44163
1.44196
1.44221
1.44239
1.44247
1.44247
1.4425
1.41814
1.42119
1.42332
1.42553
1.42731
1.42849
1.42897
1.42877
1.42802
1.42692
1.42565
1.42439
1.42327
1.4224
1.4219
1.42178
1.42203
1.42257
1.42333
1.42422
1.4252
1.42624
1.42731
1.42837
1.42941
1.4304
1.43133
1.43218
1.43295
1.43364
1.43424
1.43476
1.43522
1.43563
1.43599
1.4363
1.43657
1.43679
1.43696
1.4372
1.41291
1.416
1.41813
1.42033
1.4221
1.42327
1.42374
1.42355
1.42282
1.42175
1.42053
1.41931
1.41823
1.41741
1.41694
1.41684
1.41709
1.41761
1.41831
1.41913
1.42004
1.42099
1.42196
1.42293
1.42387
1.42477
1.42561
1.42639
1.42709
1.42771
1.42826
1.42874
1.42918
1.42958
1.42997
1.43035
1.43072
1.43108
1.43147
1.43197
1.40759
1.41073
1.41286
1.41506
1.41681
1.41797
1.41844
1.41826
1.41756
1.41653
1.41535
1.41418
1.41316
1.4124
1.41197
1.41189
1.41214
1.41263
1.41328
1.41404
1.41487
1.41573
1.41661
1.41749
1.41833
1.41914
1.41989
1.42058
1.4212
1.42175
1.42224
1.42268
1.42308
1.42346
1.42386
1.42427
1.42474
1.42526
1.4259
1.42676
1.40218
1.40538
1.40751
1.4097
1.41144
1.41258
1.41306
1.41289
1.41223
1.41124
1.41012
1.40902
1.40806
1.40736
1.40697
1.40693
1.40717
1.40764
1.40825
1.40894
1.40969
1.41047
1.41126
1.41203
1.41278
1.4135
1.41416
1.41476
1.4153
1.41577
1.41618
1.41655
1.41689
1.41723
1.41759
1.418
1.41851
1.41917
1.42014
1.42159
1.39669
1.39995
1.40208
1.40427
1.40599
1.40712
1.4076
1.40746
1.40684
1.40591
1.40486
1.40382
1.40294
1.4023
1.40197
1.40195
1.4022
1.40264
1.4032
1.40384
1.40452
1.40521
1.4059
1.40658
1.40723
1.40784
1.40841
1.40892
1.40937
1.40975
1.41008
1.41036
1.41062
1.41088
1.41115
1.41146
1.41185
1.41241
1.4133
1.41531
1.68803
1.69702
1.70433
1.71186
1.7186
1.72512
1.73138
1.73751
1.74349
1.74921
1.7547
1.76011
1.76535
1.77041
1.77531
1.78012
1.7849
1.78962
1.79438
1.79913
1.80394
1.80876
1.81359
1.81849
1.82342
1.82835
1.83327
1.83814
1.84294
1.84766
1.85219
1.85667
1.86083
1.865
1.86869
1.87264
1.87565
1.87988
1.88147
1.88826
1.68079
1.69039
1.69814
1.70602
1.71298
1.7197
1.72616
1.7324
1.73843
1.74429
1.74994
1.7554
1.76064
1.76579
1.77079
1.77564
1.78041
1.78518
1.78999
1.7948
1.79962
1.80446
1.80935
1.81426
1.81922
1.82419
1.82912
1.83401
1.83878
1.84352
1.84807
1.85254
1.85671
1.86087
1.86457
1.86854
1.87157
1.87582
1.87745
1.88427
1.67346
1.68369
1.69188
1.70011
1.70731
1.71425
1.7209
1.72725
1.73335
1.73934
1.74513
1.75064
1.7559
1.76113
1.76623
1.77112
1.77591
1.78073
1.78558
1.79045
1.79529
1.80015
1.80509
1.81002
1.81501
1.82002
1.82497
1.82988
1.83464
1.83939
1.84396
1.84843
1.85262
1.85678
1.86051
1.86451
1.86757
1.87184
1.87352
1.88038
1.66605
1.67694
1.68553
1.69416
1.70162
1.70877
1.71558
1.72207
1.72828
1.73436
1.74024
1.74583
1.75117
1.75645
1.7616
1.76655
1.7714
1.77627
1.78115
1.78606
1.79094
1.79584
1.80082
1.80579
1.81079
1.81583
1.82079
1.82572
1.83051
1.83528
1.83987
1.84436
1.84857
1.85275
1.85651
1.86053
1.86363
1.86793
1.86966
1.87657
1.65857
1.67012
1.67913
1.68816
1.6959
1.70326
1.71021
1.71685
1.72319
1.72936
1.73531
1.74098
1.74642
1.75174
1.75693
1.76196
1.76688
1.77179
1.77671
1.78165
1.78658
1.79153
1.79654
1.80155
1.80657
1.81162
1.81661
1.82157
1.82639
1.83118
1.83578
1.84031
1.84455
1.84877
1.85256
1.85662
1.85976
1.8641
1.86587
1.87284
1.65101
1.66324
1.67267
1.68213
1.69014
1.69771
1.70481
1.7116
1.71807
1.72433
1.73035
1.73611
1.74164
1.74702
1.75225
1.75734
1.76233
1.7673
1.77226
1.77723
1.78221
1.7872
1.79224
1.79729
1.80234
1.80742
1.81243
1.81742
1.82228
1.82709
1.83172
1.83628
1.84056
1.84483
1.84866
1.85276
1.85595
1.86033
1.86216
1.86918
1.64338
1.65632
1.66618
1.67606
1.68434
1.69213
1.69939
1.70633
1.71292
1.71927
1.72538
1.73121
1.73682
1.74226
1.74756
1.75271
1.75777
1.76278
1.76779
1.7728
1.77783
1.78287
1.78794
1.79303
1.79811
1.80321
1.80825
1.81327
1.81817
1.82302
1.82768
1.83228
1.83661
1.84093
1.84481
1.84895
1.85219
1.85664
1.85851
1.86559
1.63569
1.64934
1.65965
1.66996
1.67851
1.68653
1.69395
1.70103
1.70775
1.71419
1.72038
1.7263
1.73199
1.73749
1.74284
1.74806
1.75318
1.75825
1.7633
1.76835
1.77343
1.77852
1.78362
1.78875
1.79387
1.79899
1.80408
1.80913
1.81407
1.81896
1.82367
1.82831
1.83269
1.83706
1.841
1.8452
1.8485
1.853
1.85493
1.86206
1.62795
1.64233
1.65309
1.66384
1.67266
1.6809
1.68848
1.6957
1.70255
1.7091
1.71537
1.72136
1.72713
1.7327
1.73811
1.74339
1.74857
1.75369
1.75879
1.76389
1.76902
1.77416
1.7793
1.78446
1.78962
1.79478
1.7999
1.80499
1.80998
1.81491
1.81966
1.82436
1.8288
1.83323
1.83724
1.8415
1.84486
1.84943
1.85142
1.85861
1.62017
1.63529
1.64651
1.65769
1.66679
1.67524
1.683
1.69036
1.69733
1.70398
1.71034
1.71641
1.72226
1.72789
1.73336
1.7387
1.74395
1.74912
1.75427
1.75942
1.76459
1.76978
1.77496
1.78017
1.78536
1.79056
1.79572
1.80085
1.80589
1.81087
1.81568
1.82044
1.82493
1.82944
1.83352
1.83784
1.84128
1.84592
1.84798
1.85522
1.61235
1.62823
1.63991
1.65153
1.6609
1.66958
1.67751
1.68501
1.6921
1.69886
1.70531
1.71145
1.71737
1.72306
1.72861
1.73401
1.7393
1.74453
1.74973
1.75493
1.76016
1.7654
1.77062
1.77586
1.7811
1.78634
1.79154
1.79672
1.8018
1.80684
1.8117
1.81653
1.82109
1.82568
1.82983
1.83424
1.83776
1.84247
1.8446
1.8519
1.60452
1.62115
1.6333
1.64536
1.65501
1.6639
1.672
1.67965
1.68687
1.69372
1.70026
1.70648
1.71247
1.71823
1.72384
1.7293
1.73465
1.73993
1.74518
1.75044
1.75571
1.761
1.76626
1.77155
1.77683
1.78211
1.78736
1.79258
1.79772
1.80281
1.80774
1.81264
1.81727
1.82194
1.82618
1.83068
1.83428
1.83907
1.84128
1.84864
1.59667
1.61406
1.62669
1.63918
1.6491
1.65821
1.66649
1.67428
1.68162
1.68858
1.69521
1.70151
1.70757
1.7134
1.71907
1.72458
1.72998
1.73532
1.74062
1.74593
1.75124
1.75659
1.7619
1.76722
1.77256
1.77787
1.78317
1.78844
1.79363
1.79879
1.80379
1.80877
1.81348
1.81824
1.82257
1.82717
1.83086
1.83573
1.83802
1.84545
1.58881
1.60698
1.62009
1.633
1.6432
1.65252
1.66098
1.66891
1.67638
1.68344
1.69016
1.69653
1.70266
1.70856
1.71429
1.71986
1.72531
1.73069
1.73604
1.74141
1.74677
1.75216
1.75752
1.76289
1.76827
1.77363
1.77898
1.7843
1.78955
1.79478
1.79985
1.80491
1.80971
1.81456
1.819
1.8237
1.82748
1.83245
1.83483
1.84232
1.58097
1.59991
1.6135
1.62683
1.6373
1.64684
1.65546
1.66355
1.67114
1.6783
1.68511
1.69156
1.69776
1.70372
1.70951
1.71513
1.72063
1.72606
1.73146
1.73688
1.74229
1.74772
1.75313
1.75854
1.76398
1.76938
1.77478
1.78016
1.78547
1.79077
1.79592
1.80107
1.80596
1.81092
1.81546
1.82027
1.82416
1.82923
1.83169
1.83926
1.57314
1.59286
1.60694
1.62068
1.6314
1.64116
1.64995
1.65819
1.6659
1.67316
1.68005
1.68658
1.69285
1.69888
1.70472
1.71039
1.71594
1.72142
1.72687
1.73234
1.73779
1.74327
1.74873
1.75419
1.75967
1.76513
1.77057
1.77602
1.78139
1.78676
1.792
1.79724
1.80223
1.8073
1.81196
1.81689
1.82089
1.82607
1.82863
1.83627
1.56535
1.58584
1.60041
1.61454
1.62552
1.63549
1.64446
1.65284
1.66067
1.66803
1.67501
1.68162
1.68795
1.69404
1.69994
1.70565
1.71125
1.71678
1.72228
1.72779
1.73329
1.73882
1.74433
1.74983
1.75536
1.76087
1.76636
1.77187
1.77732
1.78276
1.78808
1.79342
1.79851
1.80371
1.80849
1.81355
1.81767
1.82297
1.82562
1.83334
1.5576
1.57887
1.59391
1.60842
1.61965
1.62983
1.63898
1.6475
1.65545
1.66291
1.66997
1.67666
1.68306
1.68921
1.69515
1.70092
1.70656
1.71214
1.71768
1.72324
1.72879
1.73435
1.73991
1.74546
1.75103
1.7566
1.76214
1.76771
1.77324
1.77876
1.78416
1.7896
1.79482
1.80014
1.80505
1.81025
1.8145
1.81993
1.82269
1.83049
1.5499
1.57195
1.58746
1.60233
1.61381
1.6242
1.63352
1.64218
1.65024
1.65781
1.66495
1.67172
1.67818
1.68439
1.69038
1.69619
1.70188
1.7075
1.71308
1.71869
1.72428
1.72988
1.73549
1.74108
1.74669
1.75232
1.75792
1.76356
1.76916
1.77476
1.78025
1.7858
1.79114
1.79659
1.80165
1.80699
1.81139
1.81696
1.81982
1.82771
1.54227
1.56509
1.58107
1.59627
1.608
1.6186
1.62808
1.63689
1.64506
1.65272
1.65994
1.66679
1.67332
1.67958
1.68562
1.69147
1.6972
1.70286
1.70849
1.71413
1.71977
1.7254
1.73106
1.7367
1.74235
1.74803
1.7537
1.75939
1.76507
1.77076
1.77635
1.78201
1.78747
1.79306
1.79827
1.80378
1.80833
1.81404
1.81702
1.82501
1.53472
1.55829
1.57474
1.59025
1.60222
1.61302
1.62268
1.63162
1.6399
1.64766
1.65496
1.66188
1.66847
1.67478
1.68087
1.68676
1.69253
1.69823
1.7039
1.70957
1.71525
1.72092
1.72661
1.73231
1.738
1.74374
1.74946
1.75523
1.76098
1.76676
1.77244
1.77822
1.78382
1.78956
1.79492
1.80061
1.80533
1.8112
1.8143
1.82238
1.52726
1.55159
1.56847
1.58428
1.59648
1.60749
1.61731
1.62639
1.63478
1.64262
1.65
1.657
1.66364
1.67
1.67614
1.68207
1.68787
1.69361
1.69931
1.70502
1.71073
1.71644
1.72217
1.72791
1.73364
1.73944
1.74522
1.75105
1.75688
1.76275
1.76853
1.77443
1.78017
1.78607
1.7916
1.79747
1.80237
1.80842
1.81165
1.81983
1.51991
1.54497
1.56228
1.57836
1.59079
1.602
1.61198
1.62119
1.62969
1.63762
1.64508
1.65214
1.65884
1.66525
1.67143
1.67738
1.68322
1.689
1.69473
1.70047
1.70622
1.71195
1.71772
1.7235
1.72928
1.73513
1.74097
1.74687
1.75278
1.75874
1.76462
1.77065
1.77653
1.78259
1.78831
1.79437
1.79947
1.8057
1.80909
1.81737
1.51267
1.53845
1.55617
1.5725
1.58515
1.59656
1.6067
1.61603
1.62464
1.63266
1.64018
1.64731
1.65407
1.66051
1.66673
1.67272
1.67858
1.68439
1.69016
1.69592
1.7017
1.70747
1.71326
1.7191
1.72491
1.73081
1.73672
1.74268
1.74867
1.75472
1.76071
1.76686
1.77289
1.77912
1.78503
1.79131
1.79661
1.80305
1.8066
1.81499
1.50556
1.53204
1.55014
1.56669
1.57957
1.59117
1.60147
1.61093
1.61963
1.62774
1.63533
1.64252
1.64932
1.65581
1.66205
1.66807
1.67396
1.6798
1.68559
1.69138
1.69718
1.70298
1.70881
1.71468
1.72054
1.72649
1.73245
1.73849
1.74455
1.75069
1.75679
1.76307
1.76925
1.77566
1.78177
1.78827
1.7938
1.80047
1.80419
1.81269
1.49858
1.52574
1.5442
1.56095
1.57405
1.58585
1.5963
1.60587
1.61468
1.62286
1.63052
1.63777
1.64461
1.65113
1.6574
1.66344
1.66935
1.67522
1.68104
1.68685
1.69267
1.6985
1.70435
1.71026
1.71616
1.72216
1.72818
1.73428
1.74042
1.74665
1.75287
1.75927
1.76561
1.7722
1.77852
1.78526
1.79104
1.79794
1.80186
1.81049
1.49176
1.51956
1.53836
1.55528
1.5686
1.58059
1.59119
1.60088
1.60978
1.61804
1.62576
1.63305
1.63994
1.64648
1.65277
1.65883
1.66477
1.67066
1.6765
1.68233
1.68816
1.69401
1.69989
1.70584
1.71178
1.71782
1.72391
1.73006
1.73627
1.7426
1.74893
1.75547
1.76197
1.76875
1.77527
1.78227
1.78832
1.79549
1.79962
1.80839
1.48511
1.51352
1.5326
1.54968
1.56323
1.57539
1.58615
1.59595
1.60494
1.61327
1.62104
1.62839
1.6353
1.64187
1.64818
1.65426
1.66021
1.66612
1.67197
1.67781
1.68367
1.68953
1.69544
1.70141
1.7074
1.71347
1.71962
1.72583
1.73212
1.73854
1.74499
1.75166
1.75832
1.76529
1.77204
1.7793
1.78564
1.79309
1.79747
1.8064
1.47865
1.5076
1.52695
1.54416
1.55793
1.57028
1.58118
1.59108
1.60016
1.60855
1.61638
1.62377
1.63071
1.6373
1.64361
1.64971
1.65567
1.66159
1.66746
1.67331
1.67918
1.68506
1.69098
1.69698
1.70301
1.70912
1.71532
1.72159
1.72796
1.73447
1.74103
1.74783
1.75465
1.76182
1.76881
1.77634
1.78299
1.79077
1.79542
1.80452
1.47239
1.50182
1.52139
1.53873
1.55273
1.56525
1.57629
1.58629
1.59545
1.60391
1.61178
1.61921
1.62616
1.63276
1.63909
1.64519
1.65117
1.65709
1.66296
1.66882
1.6747
1.68059
1.68653
1.69255
1.69861
1.70476
1.71101
1.71734
1.72378
1.73038
1.73706
1.74399
1.75098
1.75835
1.76558
1.7734
1.78038
1.78851
1.79347
1.80278
1.46635
1.49618
1.51594
1.53339
1.54762
1.56031
1.57149
1.58159
1.59082
1.59934
1.60725
1.6147
1.62166
1.62827
1.6346
1.6407
1.64669
1.65261
1.65849
1.66434
1.67023
1.67612
1.68208
1.68812
1.69421
1.70039
1.70669
1.71308
1.71959
1.72628
1.73307
1.74014
1.74729
1.75486
1.76234
1.77046
1.7778
1.78632
1.79163
1.80118
1.46056
1.49068
1.5106
1.52815
1.54262
1.55547
1.56679
1.57698
1.58627
1.59485
1.60279
1.61025
1.61722
1.62383
1.63016
1.63626
1.64224
1.64815
1.65403
1.65988
1.66577
1.67167
1.67764
1.68368
1.68981
1.69602
1.70236
1.70881
1.71538
1.72217
1.72906
1.73627
1.74358
1.75136
1.75909
1.76753
1.77523
1.7842
1.78991
1.79974
1.45503
1.48532
1.50537
1.52303
1.53773
1.55074
1.56218
1.57246
1.58182
1.59043
1.59839
1.60587
1.61284
1.61944
1.62576
1.63185
1.63783
1.64373
1.6496
1.65544
1.66132
1.66722
1.6732
1.67925
1.6854
1.69164
1.69802
1.70453
1.71116
1.71803
1.72504
1.73238
1.73985
1.74784
1.75582
1.76458
1.77269
1.78213
1.78833
1.79847
1.44978
1.48009
1.50026
1.51803
1.53297
1.54613
1.55769
1.56805
1.57746
1.58611
1.59408
1.60155
1.60851
1.61511
1.62141
1.62749
1.63346
1.63934
1.64519
1.65102
1.65689
1.66279
1.66877
1.67482
1.68098
1.68725
1.69366
1.70023
1.70693
1.71389
1.72099
1.72846
1.7361
1.74429
1.75253
1.76162
1.77015
1.78012
1.78688
1.79742
1.44485
1.47499
1.49528
1.51318
1.52835
1.54166
1.55333
1.56376
1.57321
1.58187
1.58985
1.59731
1.60426
1.61083
1.61712
1.62317
1.62912
1.63498
1.64081
1.64663
1.65247
1.65836
1.66434
1.67039
1.67657
1.68286
1.6893
1.69592
1.70267
1.70972
1.71692
1.72452
1.73232
1.74071
1.74921
1.75863
1.76761
1.77816
1.78557
1.7966
1.44026
1.47003
1.49046
1.5085
1.52389
1.53734
1.54911
1.5596
1.56908
1.57775
1.58572
1.59316
1.60008
1.60663
1.61288
1.61891
1.62484
1.63066
1.63646
1.64226
1.64808
1.65395
1.65992
1.66597
1.67215
1.67846
1.68492
1.69159
1.6984
1.70552
1.71283
1.72055
1.72851
1.73709
1.74585
1.75561
1.76506
1.77623
1.78442
1.79606
1.43606
1.46527
1.48586
1.50404
1.51965
1.53322
1.54507
1.5556
1.5651
1.57375
1.5817
1.58911
1.59599
1.6025
1.60872
1.61471
1.6206
1.62639
1.63215
1.63792
1.64371
1.64956
1.6555
1.66155
1.66773
1.67406
1.68054
1.68725
1.69412
1.70131
1.70871
1.71656
1.72466
1.73344
1.74245
1.75255
1.76249
1.77433
1.78342
1.79584
1.43222
1.46063
1.48136
1.49969
1.51548
1.52917
1.54109
1.55165
1.56115
1.56979
1.5777
1.58506
1.5919
1.59837
1.60454
1.61049
1.61634
1.62209
1.6278
1.63353
1.63928
1.64512
1.65104
1.65707
1.66325
1.66959
1.67609
1.68284
1.68977
1.69703
1.70453
1.71249
1.72075
1.72971
1.73897
1.7494
1.75985
1.7724
1.78256
1.79602
1.42837
1.45577
1.47662
1.4951
1.51108
1.52489
1.5369
1.5475
1.55701
1.56563
1.57352
1.58083
1.58764
1.59407
1.6002
1.60612
1.61192
1.61763
1.62331
1.629
1.63473
1.64054
1.64644
1.65247
1.65864
1.665
1.67153
1.67832
1.68531
1.69264
1.70024
1.70832
1.71673
1.72587
1.73538
1.74614
1.75711
1.77042
1.78184
1.79667
1.42504
1.45125
1.47216
1.49068
1.50675
1.52063
1.53268
1.5433
1.55282
1.56143
1.5693
1.57658
1.58336
1.58976
1.59586
1.60176
1.60752
1.61321
1.61885
1.62451
1.63021
1.636
1.64189
1.64791
1.65408
1.66045
1.66701
1.67382
1.68087
1.68827
1.69596
1.70414
1.71268
1.72198
1.73172
1.74277
1.75424
1.76827
1.78109
1.79766
1.41573
1.44073
1.46144
1.47988
1.4959
1.50966
1.52152
1.53197
1.54135
1.54986
1.55766
1.56484
1.57153
1.57782
1.58381
1.5896
1.59524
1.60081
1.60634
1.6119
1.61751
1.62321
1.62903
1.635
1.64115
1.64752
1.65411
1.66098
1.66813
1.67566
1.68353
1.69194
1.70077
1.71041
1.72065
1.73234
1.745
1.76078
1.77756
1.79979
1.38912
1.41335
1.43369
1.45164
1.4675
1.48131
1.49333
1.50397
1.51352
1.52219
1.53012
1.53744
1.54427
1.55072
1.55687
1.56282
1.56863
1.57437
1.58008
1.58582
1.59162
1.59752
1.60355
1.60974
1.61611
1.6227
1.62953
1.63665
1.64407
1.65188
1.66005
1.66877
1.67798
1.68805
1.69885
1.71125
1.72501
1.74244
1.76177
1.78694
1.3624
1.38577
1.40549
1.42305
1.43873
1.45252
1.4646
1.47535
1.48503
1.49382
1.50188
1.50935
1.51633
1.52294
1.52927
1.53539
1.54139
1.54731
1.55322
1.55917
1.56517
1.57129
1.57755
1.58397
1.59058
1.59743
1.60452
1.61191
1.6196
1.6277
1.63618
1.64525
1.65483
1.66534
1.67664
1.68965
1.70413
1.72242
1.74266
1.76888
1.33542
1.35792
1.37701
1.39415
1.4096
1.4233
1.43537
1.44616
1.45592
1.46481
1.473
1.4806
1.48773
1.49449
1.50098
1.50727
1.51345
1.51956
1.52567
1.53181
1.53803
1.54437
1.55085
1.55751
1.56438
1.57148
1.57884
1.5865
1.59449
1.6029
1.6117
1.62112
1.63106
1.64197
1.6537
1.66718
1.6821
1.70079
1.7213
1.74784
1.3082
1.32981
1.34825
1.36495
1.38015
1.39371
1.40573
1.41653
1.42634
1.43532
1.44362
1.45136
1.45864
1.46556
1.47222
1.4787
1.48506
1.49137
1.49768
1.50404
1.51048
1.51705
1.52377
1.53067
1.53779
1.54515
1.55277
1.56071
1.56899
1.57769
1.5868
1.59652
1.60679
1.61803
1.63008
1.64385
1.659
1.67782
1.6983
1.72483
1.28055
1.30135
1.31914
1.33539
1.3503
1.36371
1.37564
1.38643
1.39628
1.40534
1.41375
1.42162
1.42905
1.43615
1.44299
1.44966
1.45622
1.46274
1.46926
1.47584
1.48251
1.48932
1.49628
1.50343
1.5108
1.51841
1.5263
1.53451
1.54305
1.55202
1.5614
1.57139
1.58193
1.59341
1.60569
1.61962
1.63486
1.65364
1.67395
1.70035
1.25238
1.27242
1.2896
1.3054
1.32002
1.33326
1.34511
1.35586
1.36574
1.37487
1.38338
1.39139
1.39898
1.40624
1.41327
1.42014
1.42691
1.43364
1.44039
1.4472
1.45411
1.46115
1.46835
1.47575
1.48337
1.49124
1.49938
1.50784
1.51663
1.52584
1.53546
1.54568
1.55643
1.5681
1.58052
1.59453
1.60975
1.62841
1.64847
1.67467
1.22359
1.24296
1.25957
1.27494
1.28928
1.30235
1.31409
1.3248
1.3347
1.34389
1.3525
1.36063
1.36838
1.37582
1.38304
1.39011
1.3971
1.40405
1.41103
1.41807
1.42522
1.4325
1.43995
1.4476
1.45546
1.46357
1.47195
1.48065
1.48967
1.49911
1.50894
1.51935
1.53027
1.54207
1.55458
1.56861
1.58377
1.60225
1.62199
1.64792
1.19413
1.2129
1.22898
1.24395
1.25801
1.27092
1.28256
1.29322
1.30312
1.31237
1.32107
1.32933
1.33723
1.34485
1.35227
1.35954
1.36675
1.37393
1.38114
1.38841
1.3958
1.40332
1.41102
1.4189
1.42701
1.43536
1.44397
1.45289
1.46213
1.47177
1.48179
1.49237
1.50342
1.51532
1.52789
1.54191
1.55696
1.57521
1.59458
1.62021
1.16395
1.18219
1.19779
1.21238
1.22619
1.23894
1.25047
1.26108
1.27098
1.28028
1.28907
1.29746
1.30551
1.31331
1.32092
1.3284
1.33582
1.34323
1.35067
1.35819
1.36581
1.37358
1.38151
1.38964
1.39797
1.40655
1.41539
1.42452
1.43396
1.44379
1.45398
1.4647
1.47587
1.48785
1.50045
1.51442
1.52934
1.54734
1.56632
1.5916
1.13303
1.15079
1.16597
1.1802
1.19378
1.20637
1.21781
1.22837
1.23827
1.24761
1.25649
1.265
1.2732
1.28117
1.28897
1.29666
1.3043
1.31194
1.31961
1.32736
1.33522
1.34322
1.35139
1.35975
1.36832
1.37712
1.38617
1.39551
1.40514
1.41514
1.42548
1.43634
1.44761
1.45965
1.47226
1.48618
1.50095
1.51868
1.53724
1.56216
1.10134
1.11868
1.13347
1.14738
1.16073
1.17319
1.18454
1.19504
1.20495
1.21433
1.22329
1.23192
1.24027
1.24841
1.2564
1.26429
1.27215
1.28
1.2879
1.29589
1.30398
1.31222
1.32062
1.32921
1.338
1.34702
1.35628
1.36581
1.37563
1.38579
1.39628
1.40726
1.41862
1.43071
1.44332
1.45718
1.4718
1.48925
1.50739
1.53193
1.06887
1.08583
1.10027
1.11389
1.12703
1.13936
1.15063
1.16109
1.17099
1.18042
1.18946
1.19819
1.20668
1.21499
1.22317
1.23126
1.23933
1.2474
1.25553
1.26374
1.27207
1.28054
1.28916
1.29798
1.30699
1.31622
1.32568
1.3354
1.34539
1.35572
1.36635
1.37743
1.38888
1.40102
1.41363