/*--------------------------------*- C++ -*----------------------------------*\
  =========                 |
  \\      /  F ield         | OpenFOAM: The Open Source CFD Toolbox
   \\    /   O peration     | Website:  https://openfoam.org
    \\  /    A nd           | Version:  7
     \\/     M anipulation  |
\*---------------------------------------------------------------------------*/
FoamFile
{
    version     2.0;
    format      ascii;
    class       surfaceScalarField;
    location    "1.9";
    object      phi;
}
// * * * * * * * * * * * * * * * * * * * * * * * * * * * * * * * * * * * * * //

dimensions      [0 3 -1 0 0 0 0];

internalField   nonuniform List<scalar> 
63520
(
-1.58954e-05
0.00123464
-0.00121874
-5.33634e-05
0.00307806
-0.00304059
-0.0001072
0.00444736
-0.00439352
-0.00017118
0.00538337
-0.00531939
-0.000238507
0.00595075
-0.00588342
-0.000302324
0.00621801
-0.00615419
-0.000356222
0.00624803
-0.00619413
-0.000394543
0.00609449
-0.00605617
-0.000412566
0.00580181
-0.00578379
-0.000406558
0.00540598
-0.00541199
-0.000373779
0.00493624
-0.00496902
-0.000312459
0.00441667
-0.00447799
-0.000221703
0.00386725
-0.00395801
-0.000101434
0.00330487
-0.00342514
4.77002e-05
0.00274382
-0.00289295
0.000224417
0.00219621
-0.00237293
0.00042689
0.00167213
-0.0018746
0.000652866
0.00117969
-0.00140566
0.000899774
0.000725193
-0.000972101
0.00116483
0.000313197
-0.00057825
0.00144514
-5.34415e-05
-0.000226872
0.00173784
-0.000373382
8.06856e-05
0.00204011
-0.000646581
0.000344313
0.00234929
-0.000874144
0.000564962
0.00266295
-0.00105811
0.000744447
0.00297893
-0.00120123
0.000885257
0.00329531
-0.00130674
0.000990366
0.00361044
-0.00137818
0.00106305
0.00392297
-0.00141925
0.00110671
0.00423181
-0.00143363
0.00112478
0.00453611
-0.00142491
0.00112061
0.00483522
-0.00139652
0.0010974
0.00512869
-0.0013516
0.00105813
0.00541623
-0.00129306
0.00100552
0.00569765
-0.00122347
0.000942047
0.0059729
-0.00114516
0.000869908
0.00624197
-0.00106013
0.000791068
0.00650485
-0.000970277
0.000707397
0.00676156
-0.000875061
0.000618349
-0.0007692
0.00701191
0.000518849
-1.21556e-05
0.00124679
-4.18517e-05
0.00310775
-8.52785e-05
0.00449078
-0.000137373
0.00543546
-0.000192127
0.0060055
-0.000243236
0.00626912
-0.000284626
0.00628942
-0.000310841
0.0061207
-0.000317254
0.00580822
-0.000300199
0.00538892
-0.000256988
0.00489303
-0.000185861
0.00434554
-8.59205e-05
0.00376731
4.29189e-05
0.00317603
0.000199997
0.00258674
0.000384022
0.00201219
0.000593161
0.00146299
0.000825133
0.000947717
0.00107733
0.000472994
0.00134697
4.35577e-05
0.00163116
-0.000337626
0.00192699
-0.00066921
0.00223167
-0.000951262
0.00254259
-0.00118506
0.00285734
-0.00137287
0.00317379
-0.00151768
0.00349008
-0.00162303
0.00380465
-0.00169275
0.00411621
-0.00173081
0.00442374
-0.00174115
0.00472645
-0.00172763
0.00502378
-0.00169384
0.00531534
-0.00164316
0.0056009
-0.00157862
0.00588035
-0.00150293
0.00615368
-0.00141849
0.00642093
-0.00132738
0.00668216
-0.00123151
0.00693745
-0.00113034
-0.00101847
0.00718671
-8.4864e-06
0.00125528
-3.0289e-05
0.00312956
-6.30808e-05
0.00452357
-0.000102924
0.0054753
-0.000144623
0.0060472
-0.000182442
0.00630694
-0.000210656
0.00631763
-0.00022407
0.00613412
-0.000218188
0.00580234
-0.000189431
0.00536016
-0.000135138
0.00483874
-5.35605e-05
0.00426396
5.61672e-05
0.00365758
0.00019411
0.00303809
0.000359601
0.00242125
0.000551317
0.00182047
0.00076739
0.00124691
0.00100552
0.000709586
0.00126309
0.000215422
0.00153729
-0.000230635
0.0018252
-0.000625535
0.00212394
-0.000967953
0.00243074
-0.00125806
0.002743
-0.00149733
0.00305838
-0.00168825
0.00337481
-0.00183411
0.00369051
-0.00193873
0.00400398
-0.00200622
0.00431401
-0.00204084
0.00461967
-0.00204681
0.00492026
-0.00202822
0.0052153
-0.00198888
0.00550447
-0.00193233
0.0057876
-0.00186175
0.00606466
-0.00177999
0.00633569
-0.00168952
0.00660078
-0.00159248
0.00686006
-0.00149079
0.00711365
-0.00138394
-0.00126641
0.0073616
-4.8946e-06
0.00126017
-1.88296e-05
0.00314349
-4.08685e-05
0.00454561
-6.81951e-05
0.00550263
-9.64305e-05
0.00607543
-0.000120431
0.00633094
-0.000134885
0.00633209
-0.000134849
0.00613408
-0.000115988
0.00578348
-7.48221e-05
0.005319
-8.76677e-06
0.00477268
8.38864e-05
0.00417131
0.000203982
0.00353749
0.000351553
0.00289052
0.00052589
0.00224691
0.000725642
0.00162072
0.000948914
0.00102364
0.00119336
0.000465138
0.00145634
-4.75512e-05
0.00173501
-0.000509311
0.00202649
-0.000917006
0.00232787
-0.00126934
0.00263642
-0.00156662
0.00294962
-0.00181052
0.00326516
-0.0020038
0.00358106
-0.00215001
0.00389562
-0.00225329
0.00420743
-0.00231803
0.00451539
-0.00234879
0.00481864
-0.00235007
0.00511659
-0.00232617
0.00540882
-0.00228111
0.00569511
-0.00221862
0.00597538
-0.00214202
0.00624964
-0.00205425
0.00651798
-0.00195786
0.00678057
-0.00185506
0.00703757
-0.00174779
0.00728919
-0.00163555
-0.00151279
0.00753556
-1.43296e-06
0.00126161
-7.55426e-06
0.00314961
-1.88135e-05
0.00455687
-3.3448e-05
0.00551726
-4.79215e-05
0.00608991
-5.76868e-05
0.0063407
-5.78568e-05
0.00633226
-4.377e-05
0.00611999
-1.13096e-05
0.00575102
4.28911e-05
0.0052648
0.000121347
0.00469423
0.000225699
0.00406695
0.000356735
0.00340645
0.000514443
0.00273281
0.00069807
0.00206329
0.000906208
0.00141258
0.00113691
0.000792943
0.00138779
0.000214253
0.00165619
-0.000315951
0.00193926
-0.000792376
0.00223408
-0.00121183
0.00253781
-0.00157307
0.00284776
-0.00187656
0.00316145
-0.0021242
0.00347667
-0.00231902
0.00379152
-0.00246486
0.00410439
-0.00256616
0.004414
-0.00262764
0.00471932
-0.00265412
0.00501963
-0.00265038
0.00531442
-0.00262095
0.00560337
-0.00257006
0.00588633
-0.00250158
0.0061633
-0.00241898
0.00643435
-0.0023253
0.00669965
-0.00222316
0.0069594
-0.00211481
0.00721382
-0.00200221
0.00746316
-0.0018849
-0.00175731
0.00770768
1.92548e-06
0.00125968
3.47119e-06
0.00314807
2.92443e-06
0.00455742
1.02728e-06
0.00551916
5.24718e-07
0.00609041
5.34221e-06
0.00633588
1.99039e-05
0.0063177
4.8562e-05
0.00609133
9.52139e-05
0.00570436
0.000163074
0.00519694
0.000254541
0.00460276
0.000371177
0.00395032
0.000513707
0.00326392
0.00068204
0.00256448
0.000875349
0.00186998
0.00109217
0.00119576
0.0013305
0.000554617
0.00158791
-4.31597e-05
0.0018617
-0.000589746
0.00214902
-0.00107969
0.00244697
-0.00150978
0.00275274
-0.00187884
0.00306369
-0.00218751
0.00337741
-0.00243793
0.00369182
-0.00263342
0.00400509
-0.00277813
0.00431574
-0.00287681
0.00462259
-0.00293449
0.00492476
-0.00295629
0.00522161
-0.00294723
0.00551274
-0.00291208
0.00579794
-0.00285526
0.00607714
-0.00278079
0.0063504
-0.00269225
0.00661789
-0.00259279
0.0068798
-0.00248508
0.0071364
-0.00237141
0.00738796
-0.00225377
0.00763479
-0.00213173
-0.00199974
0.00787722
5.11971e-06
0.00125456
1.41377e-05
0.00313905
2.41678e-05
0.00454739
3.49985e-05
0.00550833
4.85799e-05
0.00607683
6.82237e-05
0.00631624
9.78905e-05
0.00628803
0.000141585
0.00604764
0.000202948
0.005643
0.000285016
0.00511487
0.000390062
0.00449771
0.000519536
0.00382084
0.000674057
0.0031094
0.000853446
0.00238509
0.0010568
0.00166663
0.00128257
0.000969991
0.00152868
0.000308506
0.00179267
-0.000307149
0.0020718
-0.000868883
0.00236322
-0.00137111
0.00266404
-0.0018106
0.0029715
-0.0021863
0.00328304
-0.00249905
0.00359636
-0.00275125
0.00390945
-0.00294651
0.00422063
-0.00308931
0.00452853
-0.00318472
0.00483212
-0.00323807
0.00513062
-0.00325479
0.00542352
-0.00324014
0.00571054
-0.0031991
0.00599155
-0.00313627
0.00626659
-0.00305583
0.00653579
-0.00296145
0.00679937
-0.00285636
0.0070576
-0.0027433
0.00731077
-0.00262459
0.00755922
-0.00250221
0.00780328
-0.0023758
-0.00223986
0.0080434
8.12621e-06
0.00124643
2.43709e-05
0.0031228
4.47696e-05
0.00452699
6.82127e-05
0.00548489
9.59054e-05
0.00604913
0.000130547
0.0062816
0.000175599
0.00624298
0.000234703
0.00598853
0.000311229
0.00556648
0.000408002
0.00501809
0.000527132
0.00437858
0.000669929
0.00367805
0.000836892
0.00294244
0.00102773
0.00219425
0.00124144
0.00145292
0.00147637
0.000735058
0.00173039
5.44899e-05
0.00200097
-0.000577733
0.00228536
-0.00115327
0.00258069
-0.00166643
0.00288411
-0.00211402
0.00319292
-0.00249511
0.00350466
-0.00281079
0.00381711
-0.00306371
0.00412841
-0.0032578
0.004437
-0.0033979
0.00474166
-0.00348938
0.00504148
-0.0035379
0.00533584
-0.00354915
0.00562435
-0.00352865
0.00590683
-0.00348157
0.00618327
-0.00341271
0.00645378
-0.00332634
0.00671859
-0.00322626
0.00697797
-0.00311574
0.00723224
-0.00299757
0.00748174
-0.00287409
0.00772684
-0.00274731
0.00796794
-0.0026169
-0.00247747
0.00820555
1.09322e-05
0.0012355
3.4095e-05
0.00309964
6.45777e-05
0.0044965
0.000100446
0.00544902
0.000142186
0.00600739
0.000191892
0.00623189
0.000252524
0.00618234
0.000327338
0.00591372
0.000419399
0.00547441
0.000531298
0.0049062
0.000664951
0.00424493
0.000821502
0.00352149
0.0010013
0.00276264
0.00120393
0.00199162
0.00142826
0.0012286
0.00167253
0.000490781
0.00193454
-0.000207518
0.0022117
-0.000854898
0.00250123
-0.0014428
0.00280026
-0.00196546
0.003106
-0.00241975
0.00341582
-0.00280493
0.00372734
-0.00312231
0.00403849
-0.00337486
0.00434753
-0.00356684
0.00465306
-0.00370342
0.004954
-0.00379032
0.00524961
-0.00383351
0.0055394
-0.00383893
0.0058231
-0.00381235
0.00610067
-0.00375914
0.00637219
-0.00368423
0.00663788
-0.00359203
0.00689801
-0.00348639
0.00715292
-0.00337066
0.007403
-0.00324765
0.00764862
-0.00311972
0.00789018
-0.00298887
0.00812813
-0.00285485
-0.00271238
0.00836305
1.35206e-05
0.00122198
4.32481e-05
0.00306991
8.34606e-05
0.00445629
0.000131482
0.005401
0.000187118
0.00595175
0.000251866
0.00616714
0.000328185
0.00610602
0.000418919
0.00582299
0.00052681
0.00536652
0.000654182
0.00477882
0.000802727
0.00409638
0.000973399
0.00335082
0.00116637
0.00256966
0.00138108
0.00177692
0.00161623
0.000993439
0.00186999
0.000237024
0.00214003
-0.000477562
0.00242373
-0.00113859
0.00271825
-0.00173733
0.00302077
-0.00226798
0.00332852
-0.00272751
0.00363899
-0.0031154
0.0039499
-0.00343322
0.00425932
-0.00368428
0.00456566
-0.00387318
0.00486768
-0.00400545
0.00516448
-0.00408712
0.00545546
-0.00412449
0.00574028
-0.00412376
0.00601883
-0.0040909
0.00629116
-0.00403148
0.00655748
-0.00395055
0.00681807
-0.00385262
0.00707329
-0.00374161
0.00732354
-0.00362091
0.00756924
-0.00349334
0.0078108
-0.00336128
0.00804866
-0.00322673
0.0082833
-0.00308949
-0.00294444
0.00851535
1.5876e-05
0.0012061
5.1776e-05
0.00303401
0.000101304
0.00440676
0.000161128
0.00534117
0.000230423
0.00588246
0.000310104
0.00608746
0.000402125
0.006014
0.000508905
0.00571621
0.000632838
0.00524259
0.000775953
0.00463571
0.000939691
0.00393265
0.00112478
0.00316573
0.00133121
0.00236324
0.00155821
0.00154991
0.00180437
0.000747281
0.0020677
-2.63021e-05
0.00234578
-0.000755648
0.00263592
-0.00142873
0.00293528
-0.00203669
0.00324104
-0.00257373
0.00355051
-0.00303699
0.00386128
-0.00342616
0.00417119
-0.00374313
0.00447846
-0.00399156
0.00478168
-0.0041764
0.00507979
-0.00430355
0.00537205
-0.00437938
0.00565803
-0.00441047
0.00593755
-0.00440328
0.00621063
-0.00436398
0.00647746
-0.00429831
0.00673833
-0.00421142
0.00699362
-0.00410791
0.00724376
-0.00399175
0.00748918
-0.00386633
0.00773036
-0.00373452
0.00796774
-0.00359866
0.00820177
-0.00346077
0.00843296
-0.00332068
-0.0031735
0.00866203
1.7993e-05
0.00118811
5.96368e-05
0.00299237
0.00011801
0.00434839
0.000189219
0.00526996
0.000271855
0.00579982
0.000366274
0.00599304
0.000473926
0.00590635
0.000596795
0.00559334
0.000736901
0.00510248
0.00089595
0.00447666
0.0010751
0.00375349
0.00127485
0.00296599
0.00149494
0.00214314
0.00173442
0.00131043
0.00199169
0.000490007
0.00226464
-0.000299244
0.00255073
-0.00104174
0.0028472
-0.0017252
0.00315119
-0.00234068
0.00345994
-0.00288247
0.00377082
-0.00334787
0.00408152
-0.00373686
0.00439005
-0.00405166
0.00469479
-0.0042963
0.0049945
-0.00447612
0.00528831
-0.00459736
0.00557568
-0.00466675
0.00585635
-0.00469113
0.00613029
-0.00467722
0.00639767
-0.00463136
0.00665878
-0.00455942
0.00691403
-0.00446667
0.00716387
-0.00435775
0.00740879
-0.00423667
0.00764929
-0.00410683
0.00788585
-0.00397108
0.00811896
-0.00383177
0.00834908
-0.00369089
0.00857675
-0.00354835
-0.00339947
0.00880271
1.98643e-05
0.00116825
6.67985e-05
0.00294543
0.000133505
0.00428168
0.000215621
0.00518784
0.000311208
0.00570424
0.00042009
0.00588416
0.000543223
0.00578322
0.000682139
0.00545442
0.000838466
0.00494616
0.00101357
0.00430156
0.00120829
0.00355877
0.00142285
0.00275143
0.00165676
0.00190924
0.00190883
0.00105835
0.00217729
0.000221554
0.00245984
-0.000581797
0.00275385
-0.00133576
0.0030565
-0.00202785
0.00336492
-0.0026491
0.00367637
-0.00319392
0.00398833
-0.00365984
0.00429861
-0.00404714
0.00460539
-0.00435843
0.00490722
-0.00459813
0.00520306
-0.00477197
0.00549225
-0.00488655
0.00577443
-0.00494893
0.00604952
-0.00496622
0.00631765
-0.00494535
0.00657913
-0.00489284
0.00683438
-0.00481467
0.00708389
-0.00471618
0.0073282
-0.00460205
0.00756784
-0.00447631
0.00780336
-0.00434235
0.00803527
-0.004203
0.00826407
-0.00406058
0.00849025
-0.00391706
0.00871433
-0.00377243
-0.00362227
0.00893713
2.14891e-05
0.00114676
7.32449e-05
0.00289368
0.000147737
0.00420719
0.00024023
0.00509535
0.000348316
0.00559615
0.000471317
0.00576116
0.000609701
0.00564483
0.000764546
0.00529958
0.000937068
0.00477364
0.00112826
0.00411037
0.00133863
0.00334839
0.00156811
0.00252195
0.00181592
0.00166143
0.00208065
0.000793632
0.00236028
-5.80851e-05
0.00265239
-0.000873903
0.00295421
-0.00163757
0.00326284
-0.00233649
0.00357543
-0.00296169
0.00388929
-0.00350777
0.00420199
-0.00397255
0.0045115
-0.00435665
0.00481616
-0.00466309
0.00511473
-0.0048967
0.00540638
-0.00506362
0.00569065
-0.00517082
0.00596739
-0.00522566
0.00623668
-0.00523551
0.00649884
-0.00520751
0.0067543
-0.00514831
0.0070036
-0.00506397
0.00724731
-0.0049599
0.00748605
-0.00484079
0.00772041
-0.00471067
0.00795096
-0.0045729
0.00817824
-0.00443027
0.00840275
-0.00428509
0.00862498
-0.0041393
0.00884548
-0.00399293
-0.00384188
0.00906509
2.28697e-05
0.00112389
7.89706e-05
0.00283757
0.000160679
0.00412548
0.000262981
0.00499305
0.000383061
0.00547607
0.000519775
0.00562444
0.000673117
0.00549149
0.000843701
0.005129
0.00103232
0.00458502
0.00123957
0.00390312
0.00146561
0.00312234
0.00171004
0.00227752
0.00197178
0.00139969
0.00224914
0.000516265
0.00253992
-0.000348857
0.00284146
-0.00117545
0.00315091
-0.00194702
0.00346529
-0.00265087
0.00378177
-0.00327817
0.0040977
-0.00382371
0.0044108
-0.00428565
0.00471918
-0.00466502
0.00502137
-0.00496528
0.00531636
-0.00519168
0.00560352
-0.00535079
0.00588262
-0.00544992
0.0061537
-0.00549674
0.00641705
-0.00549886
0.00667312
-0.00546358
0.0069225
-0.00539768
0.00716582
-0.00530729
0.00740375
-0.00519783
0.00763696
-0.005074
0.00786609
-0.00493979
0.00809173
-0.00479854
0.00831444
-0.00465299
0.00853473
-0.00450538
0.00875308
-0.00435765
0.00897004
-0.00420989
-0.0040583
0.00918646
2.40128e-05
0.00109988
8.39832e-05
0.0027776
0.000172327
0.00403714
0.000283843
0.00488153
0.000415376
0.00534453
0.000565348
0.00547447
0.000733292
0.00532355
0.000919363
0.00494292
0.00112391
0.00438047
0.00134712
0.00367991
0.00158878
0.00288068
0.00184812
0.00201818
0.00212375
0.00112406
0.00241369
0.000226325
0.00271548
-0.000650646
0.0030263
-0.00148627
0.00334314
-0.00226386
0.003663
-0.00297073
0.00398304
-0.0035982
0.0043007
-0.00414137
0.00461383
-0.00459878
0.00492071
-0.0049719
0.0052201
-0.00526467
0.00551119
-0.00548278
0.00579362
-0.00563321
0.00606734
-0.00572364
0.00633261
-0.00576201
0.00658991
-0.00575616
0.00683985
-0.00571352
0.00708313
-0.00564097
0.00732051
-0.00554467
0.00755272
-0.00543004
0.00778049
-0.00530178
0.0080045
-0.0051638
0.00822536
-0.0050194
0.00844363
-0.00487126
0.00865981
-0.00472156
0.00887439
-0.00457222
0.00908789
-0.00442339
-0.00427161
0.0093012
2.49292e-05
0.00107495
8.83032e-05
0.00271423
0.000182701
0.00394274
0.000302825
0.00476141
0.000445243
0.00520212
0.000607981
0.00531173
0.000790128
0.0051414
0.000991379
0.00474167
0.00121163
0.00416022
0.00145065
0.00344089
0.00170782
0.00262352
0.00198197
0.00174403
0.00227138
0.00083465
0.00257376
-7.60534e-05
0.00288638
-0.000963272
0.00320624
-0.00180612
0.0035302
-0.00258781
0.0038552
-0.00329574
0.00417843
-0.00392144
0.00449744
-0.00446038
0.00481022
-0.00491155
0.00511524
-0.00527693
0.00541149
-0.00556092
0.00569842
-0.0057697
0.00597587
-0.00591066
0.00624404
-0.00599182
0.00650341
-0.00602138
0.00675461
-0.00600736
0.00699842
-0.00595733
0.00723567
-0.00587821
0.00746719
-0.00577619
0.00769381
-0.00565667
0.0079163
-0.00552426
0.00813535
-0.00538285
0.0083516
-0.00523565
0.0085656
-0.00508526
0.00877784
-0.00493381
0.0089888
-0.00478318
0.00919899
-0.00463358
-0.00448192
0.0094093
2.56332e-05
0.00104931
9.19631e-05
0.0026479
0.000191846
0.00384286
0.000319974
0.00463328
0.000472696
0.0050494
0.000647684
0.00513674
0.000843598
0.00494549
0.00105968
0.00452559
0.00129537
0.00392453
0.00154999
0.00318627
0.00182248
0.00235103
0.00211129
0.00145522
0.0024143
0.000531636
0.00272891
-0.000390662
0.00305212
-0.00128648
0.00338071
-0.00213471
0.00371143
-0.00291854
0.00404119
-0.0036255
0.00436721
-0.00424746
0.00468716
-0.00478033
0.00499918
-0.00522357
0.00530198
-0.00557973
0.00559478
-0.00585372
0.00587728
-0.0060522
0.00614956
-0.00618295
0.00641207
-0.00625433
0.00666547
-0.00627478
0.00691058
-0.00625248
0.00714833
-0.00619508
0.00737964
-0.00610953
0.00760547
-0.00600202
0.00782668
-0.00587787
0.00804408
-0.00574166
0.00825839
-0.00559716
0.00847024
-0.0054475
0.0086802
-0.00529521
0.00888873
-0.00514234
0.00909627
-0.00499073
0.00930334
-0.00484065
-0.0046894
0.00951082
2.61425e-05
0.00102317
9.50068e-05
0.00257904
0.00019983
0.00373804
0.000335372
0.00449773
0.00049782
0.00488695
0.000684529
0.00495003
0.000893754
0.00473626
0.00112429
0.00429506
0.0013751
0.00367371
0.00164505
0.00291632
0.00193264
0.00206344
0.00223588
0.00115198
0.00255225
0.000215261
0.00287881
-0.00071722
0.00321228
-0.00161994
0.00354922
-0.00247166
0.00388629
-0.0032556
0.00422037
-0.00395957
0.00454872
-0.00457582
0.00486915
-0.00510075
0.00518001
-0.00553443
0.00548022
-0.00587995
0.00576927
-0.00614277
0.0060471
-0.00633003
0.00631407
-0.00644991
0.00657083
-0.00651109
0.00681825
-0.0065222
0.00705733
-0.00649156
0.00728912
-0.00642687
0.00751467
-0.00633509
0.007735
-0.00622234
0.00795102
-0.0060939
0.00816358
-0.00595422
0.00837341
-0.00580699
0.00858114
-0.00565524
0.00878732
-0.00550138
0.00899239
-0.00534742
0.00919678
-0.00519512
0.00940097
-0.00504484
-0.00489427
0.00960584
2.64777e-05
0.000996693
9.74884e-05
0.00250803
0.00020674
0.00362879
0.000349133
0.00435534
0.000520744
0.00471534
0.00071865
0.00475213
0.000940717
0.00451419
0.00118529
0.00405048
0.00145089
0.00340812
0.00173587
0.00263134
0.00203827
0.00176104
0.00235565
0.000834614
0.00268507
-0.000114159
0.00302321
-0.00105537
0.00336653
-0.00196326
0.00371138
-0.00281652
0.00405431
-0.00359854
0.00439219
-0.00429745
0.00472238
-0.00490601
0.00504282
-0.00542119
0.00535208
-0.00584369
0.00564934
-0.00617721
0.00593435
-0.00642777
0.00620731
-0.00660299
0.00646883
-0.00671144
0.00671981
-0.00676206
0.00696129
-0.00676368
0.00719444
-0.00672471
0.00742044
-0.00665287
0.00764043
-0.00655508
0.0078555
-0.0064374
0.00806661
-0.00630501
0.00827462
-0.00616223
0.00848027
-0.00601265
0.00868418
-0.00585915
0.00888688
-0.00570408
0.00908879
-0.00554933
0.00929032
-0.00539665
0.00949191
-0.00524642
-0.0050968
0.00969443
2.66618e-05
0.000970031
9.94705e-05
0.00243522
0.000212683
0.00351557
0.000361403
0.00420662
0.000541643
0.00453509
0.000750234
0.00454354
0.000984678
0.00427975
0.00124289
0.00379227
0.00152289
0.00312811
0.00182256
0.00233166
0.00213943
0.00144417
0.00247058
0.000503465
0.00281265
-0.00045623
0.00316195
-0.00140467
0.00351462
-0.00231593
0.00386686
-0.00316875
0.00421509
-0.00394677
0.00455621
-0.00463857
0.00488768
-0.00523748
0.00520762
-0.00574114
0.00551485
-0.00615092
0.0058088
-0.00647116
0.00608948
-0.00670845
0.00635739
-0.0068709
0.00661339
-0.00696744
0.00685858
-0.00700724
0.0070942
-0.00699931
0.00732156
-0.00695208
0.00754197
-0.00687328
0.00775666
-0.00676977
0.00796675
-0.0066475
0.00817326
-0.00651151
0.00837704
-0.00636601
0.00857884
-0.00621444
0.00877926
-0.00605958
0.00897881
-0.00590363
0.0091779
-0.00574842
0.00937689
-0.00559563
0.00957619
-0.00544573
-0.00529729
0.00977668
2.67199e-05
0.000943311
0.000101024
0.00236091
0.000217783
0.00339881
0.000372355
0.00405205
0.000560729
0.00434672
0.00077952
0.00432474
0.00102589
0.00403339
0.00129731
0.00352085
0.00159132
0.0028341
0.0019053
0.00201769
0.00223625
0.00111322
0.00258076
0.00015896
0.00293501
-0.000810481
0.00329493
-0.00176459
0.00365639
-0.00267738
0.00401538
-0.00352774
0.00436828
-0.00429967
0.00471202
-0.0049823
0.00504418
-0.00556964
0.0053631
-0.00606006
0.00566784
-0.00645565
0.00595811
-0.00676143
0.00623422
-0.00698456
0.00649693
-0.00713361
0.00674735
-0.00721785
0.00698678
-0.00724668
0.00721666
-0.00722919
0.00743844
-0.00717385
0.0076535
-0.00708834
0.00786316
-0.00697943
0.0080686
-0.00685293
0.00827083
-0.00671374
0.00847073
-0.00656592
0.00866903
-0.00641275
0.00886632
-0.00625687
0.00906308
-0.00610039
0.00925969
-0.00594503
0.00945648
-0.00579242
0.00965384
-0.00564309
-0.00549608
0.00985263
2.66779e-05
0.000916633
0.000102225
0.00228537
0.000222176
0.00327886
0.000382182
0.00389204
0.000578242
0.00415066
0.000806787
0.0040962
0.00106464
0.00377553
0.00134885
0.00323664
0.00165648
0.00252647
0.00198434
0.00168982
0.00232893
0.000768634
0.00268629
-0.000198405
0.00305217
-0.00117636
0.00342211
-0.00213453
0.00379169
-0.00304696
0.00415675
-0.0038928
0.00451361
-0.00465654
0.00485928
-0.00532797
0.00519151
-0.00590187
0.00550885
-0.0063774
0.00581064
-0.00675744
0.00609689
-0.00704768
0.00636818
-0.00725586
0.00662557
-0.007391
0.00687039
-0.00746267
0.00710416
-0.00748045
0.00732845
-0.00745349
0.00754485
-0.00739025
0.00775485
-0.00729834
0.0079598
-0.00718438
0.00816091
-0.00705405
0.00835923
-0.00691206
0.00855561
-0.0067623
0.00875078
-0.00660791
0.00894531
-0.00645139
0.00913963
-0.00629471
0.00933412
-0.00613951
0.00952907
-0.00598737
0.00972485
-0.00583887
-0.00569353
0.0099223
2.65624e-05
0.000890071
0.000103155
0.00220877
0.000226008
0.00315601
0.000391093
0.00372696
0.00059445
0.0039473
0.000832343
0.00385831
0.00110128
0.0035066
0.00139788
0.00294004
0.00171868
0.00220567
0.00205998
0.00134852
0.00241769
0.000410922
0.00278736
-0.000568067
0.00316423
-0.00155323
0.00354348
-0.00251379
0.00392043
-0.00342391
0.00429078
-0.00426315
0.00465084
-0.00501661
0.00499771
-0.00567485
0.00532934
-0.00623349
0.00564454
-0.0066926
0.00594292
-0.00705582
0.00622481
-0.00732957
0.00649108
-0.00752214
0.00674306
-0.00764297
0.00698229
-0.00770191
0.00721049
-0.00770865
0.00742939
-0.00767239
0.00764067
-0.00760154
0.0078459
-0.00750357
0.00804648
-0.00738496
0.00824363
-0.0072512
0.0084384
-0.00710682
0.00863164
-0.00695554
0.00882405
-0.00680032
0.00901617
-0.00664351
0.00920843
-0.00648697
0.00940115
-0.00633223
0.00959461
-0.00618084
0.00978916
-0.00603342
-0.00588999
0.00998563
2.63997e-05
0.000863671
0.000103897
0.00213127
0.000229428
0.00303048
0.000399306
0.00355708
0.000609633
0.00373698
0.00085652
0.00361142
0.00113616
0.00322696
0.00144474
0.00263146
0.00177829
0.00187212
0.00213253
0.000994278
0.00250281
4.06403e-05
0.00288413
-0.000949386
0.00327128
-0.00194038
0.00365906
-0.00290157
0.00404254
-0.0038074
0.00441733
-0.00463794
0.00477976
-0.00537904
0.00512706
-0.00602215
0.0054574
-0.00656384
0.00576988
-0.00700507
0.0060644
-0.00735035
0.00634162
-0.00760678
0.00660269
-0.00778321
0.00684918
-0.00788947
0.00708288
-0.0079356
0.00730566
-0.00793143
0.00751938
-0.00788611
0.00772583
-0.00780798
0.00792661
-0.00770435
0.00812316
-0.00758151
0.00831672
-0.00744475
0.00850831
-0.00729842
0.00869878
-0.00714601
0.0088888
-0.00699034
0.00907888
-0.00683359
0.00926941
-0.00667751
0.00946071
-0.00652353
0.00965303
-0.00637316
0.0098467
-0.00622709
-0.00608582
0.0100425
2.62162e-05
0.000837455
0.000104533
0.00205296
0.000232588
0.00290242
0.000407045
0.00338262
0.000624078
0.00351995
0.000879654
0.00335584
0.00116965
0.00293696
0.00148982
0.00231129
0.00183567
0.00152628
0.00220233
0.00062762
0.00258456
-0.00034159
0.00297682
-0.00134164
0.00337343
-0.002337
0.00376886
-0.003297
0.00415797
-0.0041965
0.00453627
-0.00501624
0.00490019
-0.00574295
0.00524711
-0.00636907
0.00557546
-0.00689219
0.00588464
-0.00731425
0.00617488
-0.00764059
0.00644712
-0.00787902
0.00670284
-0.00803893
0.00694382
-0.00813045
0.00717206
-0.00816384
0.00738959
-0.00814896
0.00759838
-0.00809491
0.00780029
-0.00800988
0.00799696
-0.00790102
0.00818985
-0.0077744
0.00838018
-0.00763509
0.00856897
-0.00748721
0.00875703
-0.00733408
0.00894501
-0.00717832
0.00913339
-0.00702197
0.00932254
-0.00686666
0.00951274
-0.00671373
0.00970423
-0.00656465
0.00989733
-0.00642019
-0.00628134
0.0100928
2.60376e-05
0.000811417
0.000105144
0.00197385
0.000235636
0.00277193
0.00041453
0.00320373
0.00063807
0.00329641
0.000902082
0.00309183
0.00120213
0.00263691
0.00153351
0.00197991
0.00189118
0.00116861
0.00226968
0.000249121
0.00266317
-0.000735086
0.00306558
-0.00174405
0.00347078
-0.00274219
0.0038729
-0.00369912
0.00426663
-0.00459023
0.00464748
-0.00539709
0.00501196
-0.00610743
0.00535767
-0.00671479
0.00568333
-0.00721785
0.00598865
-0.00761957
0.00627419
-0.00792613
0.0065412
-0.00814604
0.00679143
-0.00828915
0.0070269
-0.00836593
0.0072498
-0.00838674
0.00746227
-0.00836143
0.0076664
-0.00829904
0.00786408
-0.00820756
0.00805698
-0.00809393
0.00824657
-0.00796399
0.00843404
-0.00782256
0.00862039
-0.00767356
0.00880641
-0.00752009
0.00899269
-0.0073646
0.00917969
-0.00720897
0.00936775
-0.00705472
0.00955713
-0.00690311
0.00974807
-0.00675559
0.00994087
-0.00661299
-0.00647684
0.0101364
2.58893e-05
0.000785528
0.000105805
0.00189393
0.000238716
0.00263902
0.000421972
0.00302047
0.000651884
0.00306649
0.000924125
0.00281959
0.00123393
0.0023271
0.00157614
0.0016377
0.00194514
0.000799609
0.00233487
-0.000140603
0.00273888
-0.0011391
0.00315057
-0.00215573
0.00356337
-0.003155
0.00397115
-0.0041069
0.00436846
-0.00498755
0.00475083
-0.00577946
0.00511492
-0.00647152
0.00545859
-0.00705846
0.00578086
-0.00754012
0.00608177
-0.00792048
0.00636222
-0.00820658
0.00662377
-0.00840759
0.00686843
-0.00853381
0.00709843
-0.00859593
0.00731611
-0.00860442
0.00752375
-0.00856907
0.00772349
-0.00849878
0.00791727
-0.00840133
0.00810676
-0.00828342
0.0082934
-0.00815063
0.00847837
-0.00800754
0.00866263
-0.00785782
0.00884693
-0.00770439
0.00903182
-0.00754949
0.00921773
-0.00739489
0.00940498
-0.00724196
0.00959379
-0.00709193
0.00978441
-0.00694621
0.00997715
-0.00680573
-0.00667255
0.0101729
2.57945e-05
0.000759733
0.000106588
0.00181314
0.00024196
0.00250365
0.000429569
0.00283286
0.000665773
0.00283029
0.000946081
0.00253928
0.00126539
0.00200779
0.00161805
0.00128504
0.00199785
0.000419801
0.00239814
-0.000540884
0.00281186
-0.00155282
0.00323187
-0.00257575
0.00365125
-0.00357437
0.00406359
-0.00451924
0.00446337
-0.00538733
0.0048462
-0.0061623
0.00520894
-0.00683426
0.00554973
-0.00739925
0.00586792
-0.00785831
0.00616391
-0.00821646
0.00643892
-0.0084816
0.00669482
-0.00866349
0.00693385
-0.00877283
0.00715844
-0.00882053
0.00737107
-0.00881705
0.00757412
-0.00877212
0.00776977
-0.00869442
0.00795996
-0.00859152
0.00814638
-0.00846984
0.00833042
-0.00833468
0.00851325
-0.00819036
0.00869575
-0.00804033
0.00887864
-0.00788727
0.00906244
-0.00773328
0.00924752
-0.00757997
0.00943417
-0.00742861
0.00962262
-0.00728038
0.0098131
-0.00713668
0.0100059
-0.00699858
-0.00686865
0.010202
2.57739e-05
0.000733959
0.000107558
0.00173136
0.000245491
0.00236571
0.000437501
0.00264085
0.000679966
0.00258783
0.000968213
0.00225103
0.00129677
0.00167923
0.00165948
0.000922334
0.00204955
2.97343e-05
0.00245967
-0.000951003
0.00288222
-0.00197537
0.00330955
-0.00300309
0.00373439
-0.00399921
0.00415013
-0.00493499
0.00455125
-0.00578845
0.00493347
-0.00654451
0.00529389
-0.00719468
0.00563098
-0.00773634
0.00594444
-0.00817177
0.00623502
-0.00850704
0.00650429
-0.00875086
0.00675437
-0.00891357
0.00698775
-0.00900621
0.00720703
-0.00903981
0.0074148
-0.00902482
0.0076135
-0.00897082
0.00780535
-0.00888627
0.00799229
-0.00877846
0.00817597
-0.00865352
0.00835777
-0.00851647
0.00853877
-0.00837136
0.00871984
-0.00822139
0.00890161
-0.00806905
0.00908457
-0.00791624
0.00926905
-0.00776445
0.00945531
-0.00761487
0.00964354
-0.00746861
0.009834
-0.00732714
0.010027
-0.00719162
-0.00706523
0.0102236
2.58456e-05
0.000708113
0.000108773
0.00164843
0.000249413
0.00222507
0.000445919
0.00244435
0.00069466
0.00233909
0.000990746
0.00195495
0.00132832
0.00134166
0.00170067
0.00054998
0.0021004
-0.000369999
0.00251959
-0.00137019
0.00295002
-0.0024058
0.0033836
-0.00343667
0.00381272
-0.00442833
0.00423068
-0.00535294
0.00463197
-0.00618973
0.00501249
-0.00692504
0.00536964
-0.00755184
0.00570224
-0.00806894
0.00601036
-0.00847989
0.00629511
-0.00879179
0.00655836
-0.00901411
0.00680251
-0.00915773
0.00703026
-0.00923396
0.00724434
-0.0092539
0.00744745
-0.00922793
0.00764206
-0.00916543
0.00783041
-0.00907462
0.00801442
-0.00896247
0.0081957
-0.0088348
0.00837557
-0.00869634
0.00855506
-0.00855086
0.00873498
-0.00840132
0.00891592
-0.00824998
0.00909828
-0.0080986
0.00928236
-0.00794853
0.00946837
-0.00780087
0.00965649
-0.00765674
0.00984697
-0.00751762
0.0100402
-0.00738489
-0.0072623
0.0102373
2.60248e-05
0.000682088
0.000110279
0.00156417
0.000253816
0.00208154
0.000454954
0.00224321
0.000710015
0.00208402
0.00101386
0.0016511
0.00136019
0.000995329
0.00174176
0.000168415
0.00215052
-0.000778768
0.00257794
-0.0017976
0.00301526
-0.00284312
0.00345394
-0.00387535
0.00388615
-0.00486054
0.00430509
-0.00577189
0.00470537
-0.00659002
0.00508314
-0.0073028
0.0054361
-0.0079048
0.00576347
-0.0083963
0.00606567
-0.0087821
0.00634419
-0.0090703
0.0066012
-0.00927113
0.00683936
-0.00939588
0.00706151
-0.00945611
0.00727055
-0.00946293