/*--------------------------------*- C++ -*----------------------------------*\
  =========                 |
  \\      /  F ield         | OpenFOAM: The Open Source CFD Toolbox
   \\    /   O peration     | Website:  https://openfoam.org
    \\  /    A nd           | Version:  7
     \\/     M anipulation  |
\*---------------------------------------------------------------------------*/
FoamFile
{
    version     2.0;
    format      ascii;
    class       surfaceScalarField;
    location    "69";
    object      phi;
}
// * * * * * * * * * * * * * * * * * * * * * * * * * * * * * * * * * * * * * //

dimensions      [0 3 -1 0 0 0 0];

internalField   nonuniform List<scalar> 
3880
(
-2.28391e-05
-0.000712912
0.000735751
-1.29702e-05
-0.00156474
0.00155487
5.24853e-05
-0.00196837
0.00190292
0.00018918
-0.00200318
0.00186649
0.000411092
-0.00171641
0.0014945
0.000730919
-0.00113808
0.000818256
0.00115797
-0.000290869
-0.000136187
0.00169512
0.000802179
-0.00133932
0.00233569
0.00211189
-0.00275246
0.00359931
0.00306061
-0.00432423
-1.82323e-05
-0.00069468
2.17801e-06
-0.00158515
7.88305e-05
-0.00204502
0.000224777
-0.00214913
0.000453028
-0.00194466
0.000777635
-0.00146269
0.0012113
-0.000724539
0.00176158
0.000251908
0.00242655
0.00144691
0.0028356
0.00319026
-8.02814e-06
-0.000686652
3.25785e-05
-0.00162576
0.00013302
-0.00214547
0.000300893
-0.002317
0.000546464
-0.00219023
0.000883258
-0.00179948
0.00132592
-0.0011672
0.00188614
-0.000308314
0.0025675
0.000765551
0.00204413
0.00335897
8.29189e-06
-0.000694943
7.98629e-05
-0.00169733
0.000217383
-0.00228299
0.000421847
-0.00252146
0.000698875
-0.00246726
0.00105951
-0.00216012
0.00151846
-0.00162616
0.00209035
-0.000880201
0.00278414
7.17592e-05
0.00123287
0.0035954
3.01054e-05
-0.000725049
0.000143437
-0.00181066
0.00033153
-0.00247108
0.000587914
-0.00277785
0.000912434
-0.00279178
0.00131207
-0.00255975
0.00179977
-0.00211386
0.00239133
-0.00147176
0.00310036
-0.000637264
0.0004033
0.00392993
5.73362e-05
-0.000782385
0.00022133
-0.00197466
0.000471615
-0.00272136
0.000793639
-0.00309987
0.00118098
-0.00317912
0.00163567
-0.00301444
0.00216751
-0.0026457
0.00279184
-0.00209609
0.00352542
-0.00137085
-0.000450237
0.00437896
8.86855e-05
-0.000871071
0.000309663
-0.00219564
0.000629956
-0.00304166
0.00102694
-0.00349685
0.00148809
-0.00364027
0.00201043
-0.00353678
0.00259993
-0.0032352
0.00327026
-0.00276642
0.00403994
-0.00214052
-0.00133617
0.00492587
0.000122423
-0.000993494
0.000402844
-0.00247606
0.000795283
-0.0034341
0.0012694
-0.00397096
0.00180727
-0.00417814
0.00240142
-0.00413093
0.00305396
-0.00388774
0.00377614
-0.0034886
0.00458723
-0.00295162
-0.00225793
0.00550899
0.000156413
-0.00114991
0.000493956
-0.0028136
0.000953587
-0.00389373
0.00149789
-0.00451527
0.00210458
-0.00478483
0.00276266
-0.00478901
0.0034706
-0.00459568
0.00423614
-0.00425414
0.00507785
-0.00379332
-0.00320674
0.00602666
0.000188243
-0.00133815
0.000575291
-0.00320065
0.00108941
-0.00440785
0.00168708
-0.00511294
0.00234307
-0.00544082
0.00304453
-0.00549047
0.00378754
-0.00533869
0.0045754
-0.005042
0.00541956
-0.00463748
0.00636666
-0.00415384
0.00502187
0.026262
-0.0282232
0.00631855
0.0512924
-0.0525891
0.00651946
0.0732545
-0.0734554
0.00608859
0.0930512
-0.0926204
0.00533643
0.113408
-0.112656
0.004367
0.135697
-0.134728
0.0032317
0.160693
-0.159558
0.00192201
0.191192
-0.189883
0.000723284
0.234091
-0.232892
0.285328
-0.284605
0.00540071
0.0240515
0.00713749
0.0495556
0.00765673
0.0727352
0.00740435
0.0933036
0.00672778
0.114085
0.00574072
0.136685
0.00449286
0.161941
0.00297371
0.192712
0.0013708
0.235694
0.286699
0.00572411
0.0216864
0.00789996
0.0473798
0.00876509
0.0718701
0.008712
0.0933567
0.00812022
0.114677
0.00711846
0.137686
0.00575798
0.163302
0.00402633
0.194443
0.00202114
0.237699
0.28872
0.00599309
0.0192887
0.00857516
0.0447977
0.00981289
0.0706324
0.00998343
0.0931862
0.00949025
0.11517
0.0084822
0.138694
0.00701328
0.164771
0.00507185
0.196385
0.00266523
0.240106
0.291386
0.00622494
0.0169937
0.0091367
0.0418859
0.0107694
0.0689997
0.0111913
0.0927643
0.0108147
0.115547
0.00981247
0.139697
0.00824427
0.166339
0.00609817
0.198531
0.00329806
0.242906
0.294684
0.0064466
0.014926
0.00956702
0.0387655
0.0116064
0.0669603
0.0123087
0.092062
0.0120697
0.115786
0.0110882
0.140678
0.00943385
0.167993
0.00709381
0.200871
0.00391284
0.246087
0.298596
0.00668062
0.0131713
0.00986277
0.0355834
0.0123004
0.0645227
0.0133126
0.0910498
0.0132394
0.115859
0.0122988
0.141619
0.0105742
0.169718
0.00805169
0.203393
0.00450684
0.249632
0.303103
0.0069228
0.0117575
0.0100283
0.0324778
0.0128325
0.0617185
0.0141738
0.0897085
0.0142885
0.115744
0.0134088
0.142498
0.0116361
0.17149
0.00895493
0.206075
0.00507003
0.253517
0.308173
0.0071182
0.0106659
0.0100631
0.0295329
0.0131941
0.0585875
0.0149068
0.0879958
0.0152529
0.115398
0.014455
0.143296
0.0126473
0.173298
0.00981291
0.208909
0.00560605
0.257724
0.313779
0.00723127
0.00980133
0.0100271
0.0267371
0.0133422
0.0552723
0.0153868
0.0859512
0.0159997
0.114785
0.0153294
0.143966
0.0135602
0.175067
0.0105888
0.21188
0.00613774
0.262175
0.319917
0.0188887
0.016875
-0.0259624
0.0145769
0.0310488
0.013646
0.0562032
0.0128146
0.0867827
0.0112804
0.116319
0.00918791
0.146059
0.00659943
0.177656
0.00352167
0.214958
0.000774526
0.264922
0.320692
0.0205932
0.0224549
-0.0261732
0.0150957
0.0365463
0.0129373
0.0583617
0.011948
0.087772
0.0104961
0.117771
0.00853248
0.148023
0.00608454
0.180104
0.00320067
0.217842
0.000666654
0.267456
0.321358
0.0213027
0.0260602
-0.024908
0.016003
0.041846
0.0128281
0.0615366
0.0113329
0.0892672
0.00976734
0.119337
0.00780128
0.149989
0.00546843
0.182437
0.00278751
0.220523
0.000521802
0.269722
0.32188
0.0209114
0.0280828
-0.022934
0.0164786
0.0462788
0.0128386
0.0651767
0.0109047
0.0912011
0.00932061
0.120921
0.00748668
0.151823
0.00524356
0.18468
0.00268561
0.223081
0.000522773
0.271884
0.322403
0.0198869
0.0288585
-0.0206626
0.0165107
0.049655
0.0129611
0.0687262
0.0106859
0.0934764
0.00884621
0.12276
0.0069502
0.153719
0.00481536
0.186815
0.00242988
0.225466
0.000438193
0.273876
0.322841
0.0183303
0.0284992
-0.017971
0.016011
0.0519743
0.0127258
0.0720114
0.0104858
0.0957164
0.00879589
0.12445
0.00696315
0.155551
0.00481325
0.188964
0.00246432
0.227815
0.000505177
0.275835
0.323346
0.0164501
0.0270257
-0.0149766
0.0154349
0.0529895
0.0126708
0.0747755
0.0101953
0.0981919
0.00832327
0.126322
0.00653202
0.157343
0.00452793
0.190969
0.00230503
0.230038
0.000462448
0.277678
0.323809
0.0140999
0.0246528
-0.011727
0.0141856
0.0529038
0.0123374
0.0766237
0.0103311
0.100198
0.00858934
0.128064
0.00674696
0.159185
0.00465294
0.193063
0.00242909
0.232262
0.000575255
0.279532
0.324384
0.0124277
0.0212597
-0.00903459
0.0136531
0.0516784
0.0122461
0.0780307
0.0100498
0.102394
0.00819779
0.129916
0.0064557
0.160927
0.00447659
0.195042
0.0023403
0.234398
0.000551588
0.28132
0.324936
0.00952419
-0.00548555
0.0123476
0.0125734
0.0109664
0.00895897
0.00690618
0.00478701
0.00252224
0.000719317
0.00734405
-0.0267865
-0.00651995
0.0073733
-0.0262024
0.00690548
-0.0244401
0.00620925
-0.0222378
0.00536359
-0.0198169
0.00439841
-0.0170058
0.00333633
-0.0139145
0.00225607
-0.0106468
0.000990415
-0.00776894
-0.00444251
0.00655349
-0.027113
-0.00622693
0.00618567
-0.0258346
0.00546772
-0.0237222
0.00459469
-0.0213648
0.00361286
-0.0188351
0.0025458
-0.0159388
0.0014153
-0.012784
0.000303379
-0.00953486
-0.000957654
-0.00650791
-0.00346901
0.00549256
-0.0270063
-0.00559928
0.00479485
-0.0251369
0.0038794
-0.0228067
0.00286081
-0.0203462
0.00177029
-0.0177446
0.000629418
-0.0147979
-0.000533971
-0.0116206
-0.00165691
-0.00841192
-0.00280965
-0.00535516
-0.00258958
0.00415234
-0.0265374
-0.00462123
0.00320113
-0.0241857
0.00214061
-0.0217462
0.00101748
-0.019223
-0.000146958
-0.0165801
-0.00131557
-0.0136293
-0.00247004
-0.0104662
-0.00355653
-0.00732543
-0.0045793
-0.00433239
-0.0018505
0.002557
-0.0257679
-0.00332648
0.00142559
-0.0230543
0.000269755
-0.0205904
-0.000906756
-0.0180465
-0.00209012
-0.0153968
-0.0032567
-0.0124627
-0.00436238
-0.00936048
-0.00536576
-0.00632205
-0.00623523
-0.00346293
-0.00126708
0.000764558
-0.0247537
-0.00177874
-0.000478978
-0.0218108
-0.00167456
-0.0193948
-0.00287016
-0.0168509
-0.00403696
-0.01423
-0.00515282
-0.0113469
-0.00617307
-0.00834022
-0.00705924
-0.00543589
-0.00776331
-0.00275885
-0.000837953
-0.0011427
-0.0235739
-3.70928e-05
-0.00244469
-0.0205088
-0.00364657
-0.0181929
-0.00481869
-0.0156788
-0.00593173
-0.0131169
-0.00696311
-0.0103155
-0.00787051
-0.00743283
-0.00861841
-0.00468798
-0.0091578
-0.00221946
-0.000550996
-0.00309658
-0.0222346
0.0017573
-0.00440583
-0.0191995
-0.00557963
-0.0170191
-0.00669667
-0.0145618
-0.00772825
-0.0120853
-0.00865154
-0.0093922
-0.00943008
-0.00665429
-0.0100324
-0.00408563
-0.0104187
-0.00183322
-0.000387215
-0.0050132
-0.0208123
0.00359088
-0.00629454
-0.0179182
-0.0074161
-0.0158976
-0.00845501
-0.0135229
-0.00938733
-0.011153
-0.0101899
-0.00858958
-0.0108354
-0.00600881
-0.0112973
-0.00362374
-0.01155
-0.00158051
-0.000323994
-0.00682534
-0.019357
0.00537004
-0.00805376
-0.0166898
-0.00910745
-0.0148439
-0.0100537
-0.0125766
-0.0108792
-0.0103275
-0.0115594
-0.00790942
-0.0120783
-0.00548988
-0.0124147
-0.00328736
-0.0125585
-0.00143675
-0.000337452
-0.00847782
-0.0179106
0.00703136
-0.00963771
-0.0155299
-0.0106163
-0.0138653
-0.0114639
-0.0117291
-0.0121848
-0.00960657
-0.0127502
-0.00734397
-0.0131577
-0.00508241
-0.0133902
-0.00305486
-0.0134518
-0.0013751
-0.000403915
-0.00993709
-0.0165055
0.00853205
-0.011017
-0.0144499
-0.0119199
-0.0129624
-0.01267
-0.010979
-0.0132957
-0.00898085
-0.0137614
-0.00687829
-0.0140781
-0.00476577
-0.014232
-0.00290091
-0.0142385
-0.00136862
-0.000500648
-0.0111788
-0.0151662
0.00983954
-0.0121729
-0.0134558
-0.0130056
-0.0121297
-0.0136661
-0.0103184
-0.0142118
-0.00843514
-0.014598
-0.00649211
-0.0148478
-0.00451596
-0.01495
-0.00279876
-0.0149272
-0.00139144
-0.000606137
-0.0121935
-0.0139077
0.010935
-0.0131
-0.0125493
-0.0138721
-0.0113576
-0.0144561
-0.00973436
-0.0149401
-0.00795117
-0.0152701
-0.00616213
-0.0154781
-0.00430797
-0.0155549
-0.00272199
-0.0155268
-0.00141954
-0.000700158
-0.0129831
-0.012734
0.0118094
-0.0138032
-0.0117293
-0.0145265
-0.0106343
-0.0150512
-0.0092096
-0.0154928
-0.00750962
-0.015791
-0.00586391
-0.0159816
-0.00411737
-0.0160581
-0.00264554
-0.0160467
-0.00143089
-0.000763681
-0.0135587
-0.0116355
0.0124603
-0.0142964
-0.0109916
-0.0149822
-0.00994855
-0.0154676
-0.00872421
-0.0158853
-0.00709193
-0.0161759
-0.00557327
-0.0163721
-0.00392124
-0.0164713
-0.00254626
-0.0164968
-0.00140539
-0.000778737
-0.0139358
-0.0105876
0.0128879
-0.0146002
-0.0103271
-0.0152561
-0.00929262
-0.0157239
-0.00825641
-0.0161347
-0.00668113
-0.0164406
-0.00526738
-0.0166633
-0.00369861
-0.0168065
-0.00240297
-0.0168873
-0.00132458
-0.000728281
-0.0141212
-0.0095594
0.013093
-0.014732
-0.00971636
-0.015363
-0.00866165
-0.0158372
-0.00778222
-0.0162574
-0.00626089
-0.0166
-0.00492478
-0.0168686
-0.00343007
-0.0170753
-0.00219623
-0.0172287
-0.00117122
-0.000596014
-0.0141119
-0.00853148
0.013084
-0.0147099
-0.00911839
-0.0153197
-0.00805186
-0.0158244
-0.0072775
-0.0162702
-0.00581509
-0.016669
-0.00452596
-0.0170012
-0.00309787
-0.0172891
-0.00190835
-0.0175312
-0.000929111
-0.000366136
-0.0139652
-0.00747538
0.0129091
-0.0145988
-0.00848479
-0.0151661
-0.00748447
-0.015707
-0.00673662
-0.0161897
-0.00533242
-0.016658
-0.00405764
-0.0170714
-0.00268453
-0.0174576
-0.00152212
-0.0178071
-0.000579572
-2.46909e-05
-0.0616027
-0.00698667
0.061114
-0.0634246
-0.00666292
-0.0651713
-0.00573773
-0.0669278
-0.00498012
-0.0683362
-0.00392406
-0.0694612
-0.00293263
-0.0702
-0.00194569
-0.0706238
-0.00109835
-0.0707693
-0.000434087
-3.0995e-05
-0.0723117
-0.0065823
0.0719074
-0.0733764
-0.00559827
-0.0743585
-0.0047556
-0.0754498
-0.00388886
-0.0763185
-0.00305533
-0.0770213
-0.00222981
-0.077468
-0.00149901
-0.0777132
-0.000853197
-0.0777813
-0.000366006
-3.87706e-05
-0.0846334
-0.00642131
0.0844724
-0.0851579
-0.00507381
-0.0857288
-0.0041847
-0.0863773
-0.00324027
-0.0869051
-0.00252761
-0.087341
-0.00179388
-0.0876032
-0.00123681
-0.08774
-0.000716378
-0.087762
-0.000344015
-4.2492e-05
-0.0998861
-0.00635433
0.0998191
-0.100231
-0.00472932
-0.100578
-0.00383735
-0.100996
-0.00282215
-0.101321
-0.00220295
-0.101605
-0.00150927
-0.101765
-0.00107723
-0.101858
-0.00062285
-0.101867
-0.000335015
-4.02841e-05
-0.118751
-0.00606766
0.118464
-0.119116
-0.00436387
-0.119428
-0.0035261
-0.119777
-0.00247264
-0.120033
-0.00194688
-0.120272
-0.00127018
-0.120414
-0.000935968
-0.120523
-0.000513848
-0.120562
-0.000296152
-1.9376e-05
-0.140428
-0.00543966
0.1398
-0.140968
-0.00382437
-0.141402
-0.00309181
-0.141794
-0.00208039
-0.14209
-0.00165144
-0.14235
-0.00100993
-0.142531
-0.000754628
-0.142697
-0.000348603
-0.142789
-0.000203497
1.63421e-05
-0.162452
-0.00442994
0.161443
-0.163221
-0.00305547
-0.163853
-0.00246031
-0.164329
-0.00160405
-0.164708
-0.00127288
-0.164999
-0.000718296
-0.165234
-0.000520224
-0.165424
-0.000158725
-0.165544
-8.25567e-05
5.17411e-05
-0.181459
-0.0030862
0.180115
-0.182406
-0.00210862
-0.183175
-0.00169123
-0.183701
-0.00107753
-0.184128
-0.000845742
-0.184412
-0.000434801
-0.184642
-0.00028973
-0.184784
-1.73412e-05
-0.18487
4.14298e-06
6.13324e-05
-0.194749
-0.00159871
0.193261
-0.195799
-0.00105812
-0.196651
-0.000839227
-0.197203
-0.000525571
-0.197635
-0.000413785
-0.197874
-0.000196084
-0.198044
-0.000119769
-0.198088
2.69494e-05
-0.198111
2.7046e-05
4.03019e-05
-0.201565
0.199966
-0.202623
-0.203463
-0.203988
-0.204402
-0.204598
-0.204718
-0.204691
-0.204664
-0.0142115
0.0622026
0.0131228
-0.0148626
0.0725584
-0.0153452
0.084955
-0.0155644
0.100038
-0.0153075
0.118207
-0.0142358
0.138729
-0.0120722
0.159279
-0.00878566
0.176828
-0.00463532
0.189111
0.195331
-0.0134267
0.0629429
0.0126865
-0.0140292
0.0731609
-0.0144515
0.0853773
-0.0145842
0.100171
-0.0142413
0.117865
-0.0131318
0.137619
-0.0110423
0.157189
-0.00798333
0.17377
-0.00419098
0.185319
0.19114
-0.0127073
0.0636015
0.0120487
-0.0132428
0.0736964
-0.0135927
0.0857271
-0.0136582
0.100237
-0.013267
0.117473
-0.0121664
0.136519
-0.0101814
0.155204
-0.00733554
0.170924
-0.00384162
0.181825
0.187299
-0.0118863
0.0642322
0.0112556
-0.0123614
0.0741716
-0.0126313
0.085997
-0.0126263
0.100232
-0.0121938
0.117041
-0.0111177
0.135442
-0.00925779
0.153345
-0.00664611
0.168312
-0.00347243
0.178651
0.183826
-0.0109415
0.0648302
0.0103435
-0.0113639
0.074594
-0.0115644
0.0861975
-0.0115005
0.100168
-0.0110421
0.116583
-0.0100089
0.134409
-0.00829224
0.151628
-0.00592992
0.16595
-0.00309054
0.175812
0.180736
-0.00989443
0.0653844
0.00934017
-0.0102568
0.0749565
-0.010393
0.0863336
-0.0102823
0.100057
-0.00981539
0.116116
-0.00884572
0.133439
-0.00729172
0.150074
-0.00519386
0.163852
-0.00269985
0.173318
0.178036
-0.00876801
0.0658852
0.00826727
-0.00906321
0.0752517
-0.0091351
0.0864055
-0.00898554
0.0999074
-0.00852392
0.115654
-0.00763581
0.132551
-0.00626194
0.1487
-0.00444227
0.162032
-0.0023027
0.171178
0.175733
-0.00758009
0.0663195
0.00714573
-0.00780579
0.0754774
-0.00781402
0.0864137
-0.00763175
0.0997251
-0.00718601
0.115208
-0.00639309
0.131758
-0.00521232
0.147519
-0.00368071
0.160501
-0.00190161
0.169399
0.173831
-0.00634955
0.0666716
0.00599746
-0.00650639
0.0756342
-0.00645219
0.0863595
-0.00624343
0.0995164
-0.00582178
0.114787
-0.00513395
0.131071
-0.00415452
0.14654
-0.0029162
0.159262
-0.00149989
0.167983
0.172332
-0.00509608
0.0669224
0.00484533
-0.00518838
0.0757265
-0.00507086
0.086242
-0.00484201
0.0992875
-0.00445008
0.114395
-0.0038742
0.130495
-0.00310034
0.145766
-0.00215632
0.158318
-0.00110129
0.166928
0.17123
-0.00385253
0.0670569
0.00371795
-0.00388101
0.075755
-0.00369751
0.0860585
-0.00345254
0.0990425
-0.00309229
0.114035
-0.00263144
0.130034
-0.0020631
0.145198
-0.00140962
0.157665
-0.000710128
0.166228
0.17052
-0.00264846
0.0670765
0.00262892
-0.00260297
0.0757095
-0.00236075
0.0858163
-0.00209742
0.0987792
-0.00177035
0.113707
-0.00141994
0.129683
-0.00105204
0.14483
-0.000684002
0.157297
-0.000330024
0.165874
0.17019
-0.00152113
0.0669962
0.00160144
-0.00138525
0.0755736
-0.0010995
0.0855306
-0.000813932
0.0984936
-0.000524596
0.113418
-0.00028046
0.129439
-0.000106564
0.144656
-1.34523e-05
0.157204
2.10279e-05
0.16584
0.170211
-0.0005052
0.0668562
0.000645182
-0.0002584
0.0753268
2.39041e-05
0.0852482
0.000388975
0.0981286
0.000667652
0.113139
0.000826702
0.12928
0.000827427
0.144655
0.000666523
0.157364
0.000375182
0.166131
0.170586
0.000445955
0.0666509
-0.000240679
0.00081932
0.0749535
0.00119973
0.0848678
0.00155391
0.0977744
0.0018039
0.112889
0.00186955
0.129215
0.00169939
0.144825
0.00129278
0.157771
0.000701966
0.166722
0.171288
0.0013532
0.0663374
-0.00103973
0.00180345
0.0745032
0.00222604
0.0844452
0.00260549
0.0973949
0.00283757
0.112657
0.00282431
0.129228
0.00250044
0.145149
0.00186884
0.158403
0.00100157
0.167589
0.17229
0.00213908
0.0659677
-0.00176933
0.00267829
0.073964
0.00314159
0.0839819
0.00354825
0.0969883
0.00377122
0.112434
0.00369372
0.129305
0.00323447
0.145608
0.00239833
0.159239
0.00127633
0.168711
0.173566
0.00281829
0.0655865
-0.00243713
0.00343869
0.0733436
0.00393533
0.0834853
0.00436293
0.0965607
0.004578
0.112219
0.00444696
0.129436
0.00387216
0.146183
0.00285857
0.160252
0.00151338
0.170056
0.17508
0.0034347
0.0652222
-0.00307039
0.00412343
0.0726549
0.00465375
0.082955
0.00510273
0.0961117
0.00531718
0.112005
0.00514323
0.12961
0.00446408
0.146862
0.00328523
0.161431
0.00173206
0.17161
0.176812
0.00382497
0.0650753
-0.00367808
0.00453791
0.0719419
0.00510184
0.082391
0.00556291
0.0956506
0.00577821
0.11179
0.00558404
0.129805
0.00484515
0.147601
0.00356158
0.162715
0.00186827
0.173303
0.17868
-0.0452677
0.059555
0.0507879
-0.0407767
0.067451
-0.0377668
0.0793812
-0.0346758
0.0925597
-0.0311775
0.108291
-0.0268175
0.125445
-0.021347
0.142131
-0.0148391
0.156207
-0.00758735
0.166051
0.171093
-0.0549674
0.0550176
0.0595048
-0.0510241
0.0635077
-0.0474012
0.0757583
-0.0433478
0.0885062
-0.0388363
0.10378
-0.0332468
0.119855
-0.0263753
0.135259
-0.0183297
0.148161
-0.00944304
0.157165
0.161649
-0.0662875
0.0505283
0.0707768
-0.0622217
0.0594419
-0.0577938
0.0713303
-0.0527864
0.0834988
-0.0470619
0.0980554
-0.039935
0.112728
-0.0314189
0.126743
-0.0216469
0.138389
-0.0109652
0.146483
0.150684
-0.0800076
0.0463114
0.0842245
-0.0753075
0.0547418
-0.0699746
0.0659975
-0.0639277
0.0774518
-0.0567464
0.0908741
-0.0478265
0.103808
-0.037431
0.116348
-0.0257359
0.126694
-0.0131941
0.133941
0.13749
-0.0952592
0.0413158
0.100255
-0.0897303
0.0492129
-0.083303
0.0595702
-0.0756805
0.0698293
-0.0664124
0.081606
-0.0552772
0.0926731
-0.0427288
0.103799
-0.0288894
0.112855
-0.0143655
0.119417
0.123125
-0.11318
0.0362126
0.118283
-0.106449
0.042482
-0.0985952
0.0517163
-0.0889825
0.0602166
-0.0775169
0.0701405
-0.0642469
0.079403
-0.0494442
0.0889964
-0.0333823
0.0967928
-0.0169851
0.10302
0.10614
-0.130522
0.0293037
0.137431
-0.122381
0.0343401
-0.112592
0.0419274
-0.100512
0.0481372
-0.0865648
0.056193
-0.0706027
0.0634409
-0.0528842
0.071278
-0.0340093
0.0779179
-0.0155646
0.0845753
0.0905749
-0.14914
0.0222883
0.156155
-0.139626
0.0248263
-0.128086
0.0303878
-0.114309
0.0343598
-0.0986124
0.0404964
-0.0806084
0.045437
-0.0609476
0.0516171
-0.0404673
0.0574376
-0.0212945
0.0654025
0.0692804
-0.163403
0.0107135
0.174977
-0.150909
0.0123329
-0.135769
0.015247
-0.118657
0.017248
-0.0988109
0.0206505
-0.076679
0.023305
-0.0522142
0.0271524
-0.0262195
0.0314428
-0.00124743
0.0404305
0.068033
-0.255842
0.266556
-0.243509
-0.228262
-0.211014
-0.190364
-0.167059
-0.139906
-0.108463
-0.068033
0.00161338
0.052546
-0.0033714
-2.70486e-05
0.0611452
-0.0010605
0.0718103
-0.00190184
0.0850659
-0.00243346
0.100786
-0.00262765
0.118477
-0.00239023
0.137194
-0.00184309
0.155608
-0.00206275
0.175197
0.264493
0.00201574
0.0542716
-0.00374137
0.000485556
0.0626754
-0.000685767
0.0729816
-0.00156802
0.0859481
-0.00215008
0.101369
-0.00237724
0.118705
-0.00222008
0.137037
-0.00171531
0.155103
-0.00184557
0.175327
0.262647
0.00250332
0.0558857
-0.00411743
0.00103231
0.0641464
-0.000154407
0.0741683
-0.00102567
0.0868194
-0.00163281
0.101976
-0.00190237
0.118974
-0.00183676
0.136971
-0.00143197
0.154699
-0.00163142
0.175527
0.261016
0.00298321
0.0574006
-0.00449813
0.00156865
0.065561
0.000430401
0.0753065
-0.000442125
0.0876919
-0.00102607
0.10256
-0.00134152
0.11929
-0.00134118
0.136971
-0.00107938
0.154437
-0.0013527
0.1758
0.259663
0.00345153
0.0588225
-0.00487341
0.00211334
0.0668991
0.00104368
0.0763762
0.000172322
0.0885633
-0.000386364
0.103118
-0.000734866
0.119638
-0.00078815
0.137024
-0.000674821
0.154323
-0.0010265
0.176152
0.258637
0.00393141
0.0601238
-0.00523267
0.00269385
0.0681367
0.0016983
0.0773718
0.000904507
0.0893571
0.000327864
0.103695
-8.6247e-05
0.120052
-0.000164135
0.137102
-0.000227868
0.154387
-0.000660102
0.176584
0.257977
0.00442292
0.0612693
-0.00556848
0.00330905
0.0692506
0.00239761
0.0782832
0.00166829
0.0900864
0.00111647
0.104247
0.000707774
0.120461
0.000501848
0.137308
0.000308622
0.15458
-0.000252202
0.177145
0.257725
0.00491774
0.0622257
-0.0058741
0.00394721
0.0702211
0.00313055
0.0790999
0.00247156
0.0907454
0.0019461
0.104772
0.00152745
0.120879
0.00122133
0.137614
0.00090437
0.154897
0.000177249
0.177872
0.257902
0.00540985
0.0629571
-0.00614127
0.00459615
0.0710348
0.00388434
0.0798117
0.00330421
0.0913255
0.00281236
0.105264
0.00237981
0.121312
0.00198428
0.13801
0.00152017
0.155361
0.00061419
0.178778
0.258516
0.00588768
0.063429
-0.00635952
0.00524317
0.0716793
0.00464681
0.080408
0.00415324
0.0918191
0.00370471
0.105713
0.00325868
0.121758
0.00277564
0.138493
0.00215983
0.155977
0.00107841
0.179859
0.259594
0.00633099
0.0636111
-0.00651316
0.00586935
0.0721409
0.00540083
0.0808766
0.00499978
0.0922201
0.00460226
0.10611
0.00414764
0.122213
0.00358072
0.13906
0.00281507
0.156743
0.00155591
0.181119
0.26115
0.00673152
0.0634825
-0.00660287
0.00646696
0.0724055
0.006137
0.0812065
0.00583532
0.0925218
0.00549576
0.10645
0.00503937
0.122669
0.00439389
0.139705
0.0034817
0.157655
0.00204236
0.182558
0.263193
0.00706896
0.063035
-0.00662152
0.00701451
0.07246
0.00683173
0.0813893
0.0066364
0.0927171
0.00636246
0.106724
0.00591399
0.123118
0.00519873
0.14042
0.00414743
0.158706
0.00253035
0.184175
0.265723
0.00733047
0.0622747
-0.00657017
0.00749668
0.0722938
0.00746746
0.0814185
0.00738378
0.0928008
0.00718388
0.106924
0.00675436
0.123547
0.00598079
0.141194
0.00480143
0.159886
0.0030125
0.185964
0.268735
0.00750418
0.0612256
-0.00645502
0.00789951
0.0718984
0.00802726
0.0812908
0.00805933
0.0927687
0.0079432
0.10704
0.0075445
0.123946
0.00672772
0.142011
0.00543471
0.161179
0.0034836
0.187915
0.272219
0.00758246
0.0599327
-0.00628962
0.00821126
0.0712696
0.00849534
0.0810067
0.00864592
0.0926182
0.00862182
0.107064
0.00826555
0.124302
0.00742329
0.142853
0.00603433
0.162568
0.00393353
0.190016
0.276153
0.00756775
0.0584609
-0.00609587
0.00842513
0.0704122
0.00886269
0.0805691
0.00913348
0.0923474
0.00920895
0.106988
0.00891031
0.124601
0.00806354
0.1437
0.00659755
0.164034
0.00436042
0.192253
0.280513
0.00747196
0.0568906
-0.00590165
0.00853461
0.0693496
0.00911583
0.0799879
0.00950063
0.0919626
0.00967613
0.106813
0.00944517
0.124832
0.00861471
0.14453
0.007101
0.165547
0.00474689
0.194607
0.28526
0.00732078
0.0552968
-0.00572704
0.00857091
0.0680995
0.00929335
0.0792655
0.00979048
0.0914654
0.0100697
0.106534
0.00991726
0.124984
0.00911568
0.145332
0.00756931
0.167094
0.00510387
0.197072
0.290364
0.00703743
0.0537577
-0.00549836
0.00833884
0.0667981
0.00920854
0.0783958
0.0098116
0.0908624
0.0102015
0.106144
0.010146
0.12504
0.00942807
0.14605
0.00789171
0.16863
0.00541039
0.199554
0.295774
-0.0273646
0.0514957
0.0296267
-0.0235755
0.063009
-0.0198688
0.074689
-0.0160754
0.0870691
-0.0123158
0.102384
-0.00835742
0.121081
-0.00422511
0.141917
-0.000681185
0.165086
0.000394311
0.198478
0.296168
-0.0422551
0.0481066
0.0456442
-0.0379604
0.0587143
-0.0330233
0.0697519
-0.0277357
0.0817815
-0.0222912
0.0969395
-0.0163367
0.115127
-0.00997481
0.135555
-0.00416071
0.159272
-0.00144464
0.195762
0.294724
-0.0584246
0.0441357
0.0623954
-0.0531583
0.0534481
-0.0469707
0.0635643
-0.0403287
0.0751395
-0.0332478
0.0898586
-0.0251461
0.107025
-0.0163825
0.126792
-0.00814964
0.151039
-0.00303824
0.190651
0.291686
-0.0762428
0.0396146
0.0807639
-0.0697478
0.0469531
-0.0625208
0.0563373
-0.0545924
0.0672111
-0.0456052
0.0808713
-0.0350644
0.0964842
-0.0236844
0.115412
-0.0128171
0.140172
-0.00507378
0.182907
0.286612
-0.0961687
0.033847
0.101936
-0.0888287
0.0396131
-0.0808006
0.0483092
-0.0712414
0.0576519
-0.0599843
0.0696142
-0.0468736
0.0833735
-0.0327243
0.101263
-0.018786
0.126234
-0.00776417
0.171886
0.278848
-0.119266
0.0278559
0.125257
-0.110944
0.0312912
-0.101587
0.0389522
-0.090022
0.0460872
-0.0765833
0.0561756
-0.0611577
0.0679478
-0.0443151
0.08442
-0.0272042
0.109123
-0.0124088
0.15709
0.266439
-0.14503
0.0199015
0.152985
-0.136273
0.0225336
-0.12581
0.0284892
-0.112954
0.0332313
-0.0982084
0.0414304
-0.0808843
0.0506237
-0.0618344
0.06537
-0.0413959
0.0886844
-0.0209702
0.136664
0.245469
-0.177193
0.0119246
0.18517
-0.167642
0.0129823
-0.156134
0.0169813
-0.142673
0.0197707
-0.12695
0.0257071
-0.108636
0.0323095
-0.0881063
0.0448408
-0.0652834
0.0658615
-0.0381188
0.1095
0.20735
-0.230188
0.00404726
0.238065
-0.221924
0.00471842
-0.211451
0.00650802
-0.199815
0.00813535
-0.185465
0.0113562
-0.168743
0.0155884
-0.147618
0.0237152
-0.119261
0.0375043
-0.075081
0.0653202
0.132269
-0.305115
0.309162
-0.300397
-0.293889
-0.285753
-0.274397
-0.258809
-0.235093
-0.197589
-0.132269
0.00255942
0.0309967
-0.00392952
0.000419361
0.0477842
-0.00144591
0.0642607
-0.00306121
0.0823792
-0.00433001
0.103205
-0.00530146
0.126228
-0.00570452
0.153388
-0.00582147
0.185287
-0.00434241
0.236586
0.30482
0.00243412
0.0320048
-0.00344216
0.000624665
0.0495937
-0.00116437
0.0660497
-0.00275484
0.0839697
-0.00403682
0.104487
-0.00500066
0.127192
-0.00545303
0.15384
-0.00558298
0.185417
-0.00419693
0.2352
0.300623
0.00245504
0.0326577
-0.00310797
0.000955133
0.0510936
-0.000687799
0.0676926
-0.00218215
0.085464
-0.00342475
0.10573
-0.0043695
0.128137
-0.00487643
0.154347
-0.00500942
0.18555
-0.00383602
0.234027
0.296787
0.00256167
0.0329924
-0.00289639
0.00135309
0.0523022
-0.000147756
0.0691935
-0.001503
0.0868193
-0.00267321
0.1069
-0.00360863
0.129072
-0.00415584
0.154894
-0.00435924
0.185753
-0.00340302
0.233071
0.293384
0.00274192
0.0330267
-0.00277621
0.00183686
0.0532072
0.000548517
0.0704818
-0.00073961
0.0881074
-0.00183135
0.107992
-0.00275431
0.129995
-0.00335035
0.15549
-0.00364574
0.186048
-0.00291559
0.23234
0.290468
0.00300476
0.0327491
-0.00272707
0.00241913
0.0537928
0.00134847
0.0715525
0.000124893
0.089331
-0.000879674
0.108996
-0.0018002
0.130916
-0.0024574
0.156147
-0.00286448
0.186456
-0.00238328
0.231859
0.288085
0.00334316
0.0321396
-0.00273367
0.00309226
0.0540437
0.00224677
0.072398
0.00120148
0.0903763
0.000191035
0.110007
-0.000749938
0.131857
-0.00146104
0.156859
-0.00201614
0.187011
-0.00181253
0.231656
0.286272
0.0037379
0.0311835
-0.00278179
0.00384039
0.0539413
0.00323184
0.0730065
0.00233246
0.0912756
0.00138937
0.11095
0.000415779
0.13283
-0.000348966
0.157623
-0.00111288
0.187775
-0.00120671
0.231749
0.285066
0.00416681
0.0298749
-0.00285823
0.00464384
0.0534642
0.00428567
0.0733647
0.00353484
0.0920265
0.00265023
0.111834
0.00170492
0.133775
0.000796613
0.158532
-0.000189345
0.188761
-0.000566268
0.232126
0.2845
0.00460451
-0.00295284
0.00547963
0.00538897
0.00479505
0.00397315
0.00302052
0.00199409
0.000871824
0.000105616
0.000216131
-0.00155428
0.000639625
-0.00362414
0.00118725
-0.00495547
0.00181103
-0.00573672
0.0024848
-0.00611459
0.00319636
-0.00620203
0.00394271
-0.00608504
0.00472879
-0.00582809
0.00557346
-0.00548215
-0.00510033
0.000234022
-0.0017883
0.000674923
-0.00406504
0.00122953
-0.00551008
0.00184669
-0.00635388
0.00250067
-0.00676857
0.00318142
-0.00688278
0.00388827
-0.00679188
0.0046265
-0.00656632
0.00540498
-0.00626062
-0.00592229
0.000241823
-0.00203013
0.000677878
-0.0045011
0.00120808
-0.00604028
0.00178044
-0.00692624
0.00237153
-0.00735966
0.0029748
-0.00748606
0.00359295
-0.00741003
0.00423295
-0.00720632
0.00490153
-0.0069292
-0.00662003
0.000237436
-0.00226756
0.000643728
-0.00490739
0.00111619
-0.00651274
0.00160503
-0.00741509
0.00209119
-0.00784581
0.00257294
-0.00796781
0.00305725
-0.00789435
0.00355434
-0.0077034
0.00407356
-0.00744843
-0.0071677
0.000219396
-0.00248696
0.000570055
-0.00525805
0.000952284
-0.00689497
0.00132205
-0.00778485
0.00166672
-0.00819048
0.00199042
-0.00829151
0.00230488
-0.00820881
0.00262392
-0.00802245
0.00296056
-0.00778507
-0.00753362
0.00018702
-0.00267398
0.000457051
-0.00552808
0.00071998
-0.0071579
0.00094121
-0.00800608
0.00111631
-0.00836559
0.00125572
-0.00843092
0.00137551
-0.0083286
0.00149221
-0.00813915
0.00162052
-0.00791337
-0.00769184
0.000140524
-0.0028145
0.000307551
-0.0056951
0.000427594
-0.00727794
0.000478856
-0.00805734
0.00046619
-0.00835292
0.000406068
-0.0083708
0.000317919
-0.00824045
0.000219968
-0.0080412
0.000126524
-0.00781993
-0.00760241
8.10847e-05
-0.00289559
0.00012678
-0.0057408
8.71857e-05
-0.00723835
-4.42416e-05
-0.00792592
-0.000253003
-0.00814416
-0.000517552
-0.00810625
-0.000816442
-0.00794156
-0.0011319
-0.00772574
-0.00145062
-0.00750121
-0.00729573
1.05239e-05
-0.00290611
-7.79531e-05
-0.00565232
-0.000286681
-0.00702962
-0.000604915
-0.00760768
-0.00100937
-0.00773971
-0.00147479
-0.00764083
-0.00197943
-0.00743692
-0.00250699
-0.00719817
-0.00304619
-0.00696201
-0.00675104
-6.82567e-05
-0.00283786
-0.000298485
-0.00542209
-0.000678336
-0.00664977
-0.00117993
-0.00710609
-0.00177225
-0.00714739
-0.00242803
-0.00698505
-0.00312656
-0.0067384
-0.003854
-0.00647073
-0.0046024
-0.0062136
-0.00598341
-0.000138829
-0.00269903