/*--------------------------------*- C++ -*----------------------------------*\
  =========                 |
  \\      /  F ield         | OpenFOAM: The Open Source CFD Toolbox
   \\    /   O peration     | Website:  https://openfoam.org
    \\  /    A nd           | Version:  7
     \\/     M anipulation  |
\*---------------------------------------------------------------------------*/
FoamFile
{
    version     2.0;
    format      ascii;
    class       volVectorField;
    location    "69";
    object      U;
}
// * * * * * * * * * * * * * * * * * * * * * * * * * * * * * * * * * * * * * //

dimensions      [0 1 -1 0 0 0 0];

internalField   nonuniform List<vector> 
2000
(
(-0.000124076 -0.00725256 -3.03416e-22)
(7.91872e-05 -0.0156058 0)
(0.000905078 -0.0193397 0)
(0.00237268 -0.0192799 -1.55373e-21)
(0.00444737 -0.0159038 4.99028e-22)
(0.00709708 -0.00951505 1.56949e-23)
(0.0102823 -0.000355913 -8.58375e-22)
(0.0139319 0.0113087 0)
(0.0179046 0.0251311 0)
(0.0219902 0.0406475 0)
(0.000452718 -0.00702047 0)
(0.00148813 -0.0156615 -1.18944e-21)
(0.00285389 -0.0198506 1.0969e-21)
(0.00451278 -0.0203626 2.07334e-21)
(0.00646908 -0.017667 0)
(0.00873615 -0.0120645 1.87927e-21)
(0.0113281 -0.00377022 -1.74758e-21)
(0.0142331 0.00701168 0)
(0.0173706 0.0200256 3.16937e-21)
(0.0205499 0.0349256 -6.09991e-21)
(0.00106001 -0.00680647 0)
(0.00312518 -0.0157034 9.55657e-21)
(0.00528292 -0.0202678 0)
(0.00737166 -0.0212677 8.50579e-21)
(0.00942662 -0.0191856 0)
(0.0114974 -0.0143393 -7.61951e-21)
(0.0136449 -0.00693397 0)
(0.0159138 0.00287727 6.81446e-21)
(0.0182916 0.0149356 -6.3821e-21)
(0.0205959 0.0290268 -6.22068e-21)
(0.00172951 -0.00665154 -2.4989e-21)
(0.00504427 -0.0157731 -4.75735e-21)
(0.00825278 -0.0206062 -2.23611e-21)
(0.0110151 -0.0219673 -4.17744e-21)
(0.0133938 -0.020375 -3.99796e-21)
(0.0154713 -0.016186 3.74993e-21)
(0.0173502 -0.00961761 3.59812e-21)
(0.019126 -0.000790628 3.41991e-24)
(0.0208592 0.0102267 6.47127e-21)
(0.0223696 0.0233535 6.21941e-21)
(0.0025039 -0.00659229 -2.47714e-21)
(0.00730773 -0.0159084 -4.88458e-21)
(0.0118154 -0.0208778 -9.26409e-21)
(0.0154808 -0.0224398 4.25778e-21)
(0.018397 -0.0211689 0)
(0.0206828 -0.0174787 0)
(0.0224814 -0.0116214 -7.39423e-21)
(0.023935 -0.00371033 -6.98848e-21)
(0.0251794 0.00626055 6.59862e-21)
(0.0260415 0.0183291 1.89118e-20)
(0.00343213 -0.00665359 2.51398e-21)
(0.0099764 -0.0161308 2.52644e-21)
(0.0160037 -0.0210881 -1.38035e-20)
(0.0207628 -0.0226734 2.18575e-20)
(0.0243928 -0.0215315 -4.06854e-21)
(0.0270598 -0.018145 0)
(0.0289532 -0.0128187 0)
(0.0302614 -0.00568423 3.50779e-20)
(0.0311964 0.0033155 -3.30339e-20)
(0.0316107 0.0143105 6.24993e-21)
(0.00456657 -0.00684484 1.97552e-20)
(0.0131008 -0.0164378 0)
(0.0208184 -0.0212316 1.84213e-20)
(0.0267993 -0.0226659 -1.74533e-20)
(0.0312534 -0.0214649 0)
(0.0344136 -0.0181845 7.92508e-21)
(0.036528 -0.0131914 -2.22509e-20)
(0.0378365 -0.00665674 -2.81467e-20)
(0.0386284 0.00150191 1.32215e-20)
(0.0388093 0.0114811 1.27078e-20)
(0.00595595 -0.00715432 -3.94975e-20)
(0.0167111 -0.0168003 -4.97124e-21)
(0.0262194 -0.021289 -9.3593e-21)
(0.0334649 -0.0224227 -2.20105e-20)
(0.0387633 -0.0210092 -8.42198e-21)
(0.0424387 -0.0176727 -7.97658e-21)
(0.0448154 -0.0128416 -3.89883e-24)
(0.0461946 -0.00673985 0)
(0.046947 0.000716343 0)
(0.047063 0.00977841 1.47487e-22)
(0.00763763 -0.00754782 1.97427e-20)
(0.0208059 -0.0171617 -1.98191e-20)
(0.0321171 -0.0212261 1.39155e-20)
(0.0405705 -0.0219552 3.09971e-20)
(0.0466294 -0.020237 -8.27543e-21)
(0.0507376 -0.0167506 7.93588e-21)
(0.0533112 -0.0119734 7.49577e-21)
(0.0547212 -0.00618349 0)
(0.0554189 0.000686152 0)
(0.055524 0.00892224 -2.68947e-22)
(0.00963064 -0.0079714 -2.47519e-21)
(0.0253424 -0.0174419 2.4865e-20)
(0.0383692 -0.0209984 -4.65e-21)
(0.0478699 -0.0212811 0)
(0.0545049 -0.0192471 0)
(0.0588687 -0.0156076 1.57943e-20)
(0.0614861 -0.0108629 0)
(0.0627994 -0.00532334 -1.39418e-20)
(0.0633047 0.00103947 -1.82497e-23)
(0.0632514 0.00845244 1.25058e-20)
(0.0314558 0.077928 2.38341e-22)
(0.0467455 0.148509 -2.41136e-22)
(0.0515086 0.209573 -2.8224e-22)
(0.049936 0.265141 -3.24471e-22)
(0.0434595 0.322799 -4.00282e-22)
(0.0383563 0.386162 -1.4008e-23)
(0.0257693 0.457283 2.11703e-22)
(0.0223896 0.544188 7.51947e-22)
(0.00120456 0.666864 0)
(0.00706903 0.813689 -5.51922e-22)
(0.027693 0.0715434 9.02104e-22)
(0.0425515 0.143514 -1.05273e-21)
(0.0482177 0.207654 1.89329e-21)
(0.0473219 0.265054 3.25018e-22)
(0.0413661 0.323656 7.05595e-22)
(0.0366656 0.387649 1.21606e-21)
(0.0246424 0.459286 -4.56713e-22)
(0.0214375 0.546641 -5.04138e-22)
(0.00115116 0.668968 9.91775e-22)
(0.00661081 0.814484 5.50614e-22)
(0.0251248 0.0645206 0)
(0.0387989 0.137047 -9.91015e-22)
(0.0452581 0.204393 -5.5141e-22)
(0.0449913 0.263843 0)
(0.0395102 0.323512 -2.17276e-21)
(0.0351902 0.388228 6.77637e-22)
(0.0236686 0.460461 7.68991e-22)
(0.0205963 0.548315 2.7206e-21)
(0.00114113 0.67064 -9.88565e-22)
(0.00619626 0.815085 1.98893e-21)
(0.0240746 0.0572188 0)
(0.0355406 0.129198 9.99369e-22)
(0.0426224 0.199761 0)
(0.0429215 0.261476 2.50597e-21)
(0.0378741 0.322356 -2.51894e-21)
(0.0339115 0.387879 -1.54899e-21)
(0.0228351 0.460729 -9.88819e-23)
(0.0198773 0.549068 -2.6566e-21)
(0.00117919 0.671546 -4.3598e-22)
(0.00580641 0.815294 -2.44698e-21)
(0.0248984 0.0500599 4.73597e-23)
(0.0328923 0.120182 -2.84954e-21)
(0.0403037 0.193753 1.44501e-22)
(0.0410898 0.257934 -2.19131e-21)
(0.0364374 0.320212 0)
(0.0328058 0.386685 -1.47969e-21)
(0.0221173 0.460285 -1.2838e-22)
(0.0192485 0.549273 3.34569e-21)
(0.00122833 0.672193 4.44796e-22)
(0.00544397 0.81544 -4.46406e-22)
(0.0278507 0.0434639 -7.79482e-21)
(0.0310476 0.110362 4.91828e-21)
(0.0383012 0.186401 2.13652e-21)
(0.0394782 0.253201 -2.13543e-21)
(0.035186 0.317028 -1.19734e-21)
(0.0318634 0.384494 0)
(0.0215212 0.458813 -2.96894e-21)
(0.0187382 0.548351 1.47707e-21)
(0.00132326 0.671763 1.62543e-21)
(0.00509142 0.815087 1.69315e-21)
(0.0328934 0.0377713 -9.48513e-22)
(0.0302553 0.100243 0)
(0.0366285 0.177786 0)
(0.0380648 0.247323 0)
(0.034095 0.312999 -1.28314e-21)
(0.0310546 0.381746 2.47661e-21)
(0.021001 0.457064 2.8952e-21)
(0.0182624 0.547461 -4.50826e-21)
(0.00138081 0.67167 8.00878e-22)
(0.00476654 0.81494 -2.47005e-21)
(0.0395199 0.0331363 5.9769e-21)
(0.0307144 0.0903367 4.03583e-21)
(0.0353188 0.168103 -3.9994e-21)
(0.0368538 0.240175 4.40349e-21)
(0.033155 0.307605 -5.47802e-21)
(0.030391 0.377482 0)
(0.0206159 0.453595 -1.30396e-21)
(0.0179476 0.544596 6.44956e-23)
(0.0015274 0.669692 -1.44881e-21)
(0.00443745 0.814006 -1.51784e-21)
(0.046634 0.0292598 -5.11561e-21)
(0.0323803 0.0805313 0)
(0.0343749 0.157425 -4.56176e-21)
(0.0358 0.232531 8.31453e-21)
(0.0323549 0.302505 -3.11535e-21)
(0.0297997 0.374156 -5.85185e-22)
(0.0202098 0.451536 1.30117e-21)
(0.0175269 0.543587 7.97928e-24)
(0.00152466 0.669574 2.09193e-21)
(0.00414229 0.8138 2.20637e-21)
(0.0524386 0.026062 -4.12644e-21)
(0.0347704 0.070702 4.02902e-21)
(0.0339719 0.144089 4.98486e-22)
(0.0348968 0.22064 0)
(0.0316048 0.292596 0)
(0.0294309 0.365891 5.70551e-22)
(0.0201135 0.444477 2.4418e-21)
(0.0175035 0.53754 -2.37183e-21)
(0.00177988 0.665291 -6.41285e-22)
(0.00382324 0.812166 6.20961e-22)
(0.0569354 0.0287579 0)
(0.0383027 0.0654162 0)
(0.034458 0.135034 0)
(0.0343551 0.215686 0)
(0.0304378 0.291474 0)
(0.0276086 0.367123 0)
(0.018603 0.446891 0)
(0.015882 0.541172 0)
(0.00123786 0.668337 0)
(0.00318795 0.812479 0)
(0.0614211 0.0525838 0)
(0.0425047 0.0865641 0)
(0.0333036 0.143822 0)
(0.0319305 0.21966 0)
(0.0283819 0.295803 0)
(0.0255396 0.372809 0)
(0.0173878 0.454139 0)
(0.0144381 0.54998 0)
(0.0011436 0.676358 0)
(0.00262385 0.815463 0)
(0.0612956 0.0627149 0)
(0.046485 0.100406 0)
(0.034041 0.152181 0)
(0.0305133 0.224409 0)
(0.0267516 0.300362 0)
(0.0234383 0.377486 0)
(0.0157901 0.459233 0)
(0.012776 0.55545 0)
(0.000812807 0.680833 0)
(0.00211814 0.815852 0)
(0.058062 0.0692721 0)
(0.0482521 0.112148 0)
(0.0351686 0.160702 0)
(0.0294157 0.229137 0)
(0.0254957 0.305368 0)
(0.0223569 0.383785 0)
(0.0153136 0.466973 0)
(0.0120387 0.564365 0)
(0.00106121 0.688742 0)
(0.00184319 0.818725 0)
(0.0535074 0.0726959 0)
(0.048022 0.122025 0)
(0.0362698 0.169846 0)
(0.0292117 0.234206 0)
(0.0244785 0.309024 0)
(0.0207817 0.387281 0)
(0.0141569 0.470731 0)
(0.0109396 0.568328 0)
(0.000910428 0.691847 0)
(0.00152243 0.818577 0)
(0.0477979 0.0732114 0)
(0.0459952 0.129239 0)
(0.0360505 0.17827 0)
(0.028533 0.239775 0)
(0.0241889 0.31416 0)
(0.0206818 0.393588 0)
(0.014294 0.478441 0)
(0.0107088 0.577129 0)
(0.00135402 0.69944 0)
(0.0014007 0.821288 0)
(0.0412505 0.0710154 0)
(0.0430725 0.134141 0)
(0.0362232 0.187022 0)
(0.0282903 0.245923 0)
(0.022992 0.317406 0)
(0.0193214 0.395912 0)
(0.0134656 0.480809 0)
(0.0100109 0.579554 0)
(0.00129194 0.701241 0)
(0.00121313 0.82081 0)
(0.0337999 0.0657193 0)
(0.0383344 0.134119 0)
(0.0346195 0.191798 0)
(0.028405 0.252168 0)
(0.0236802 0.324041 0)
(0.0198719 0.403387 0)
(0.0139863 0.48937 0)
(0.010087 0.588985 0)
(0.00186906 0.709151 0)
(0.00119428 0.823724 0)
(0.0280594 0.0608363 0)
(0.0357011 0.135662 0)
(0.0344958 0.197998 0)
(0.0280589 0.256783 0)
(0.0226473 0.325931 0)
(0.0189264 0.404436 0)
(0.013467 0.490505 0)
(0.00969573 0.59007 0)
(0.00183047 0.709971 0)
(0.00109817 0.82332 0)
(0.0191833 0.0438657 0)
(0.0295667 0.124104 0)
(0.0335413 0.197546 0)
(0.0304042 0.264022 0)
(0.0250693 0.334899 0)
(0.0203979 0.41374 0)
(0.0144758 0.50052 0)
(0.0100606 0.6008 0)
(0.00256208 0.718758 0)
(0.0011443 0.826736 0)
(0.0693438 0.0190541 3.73198e-21)
(0.0693678 0.0315921 -3.6691e-21)
(0.0651562 0.0356569 3.24998e-22)
(0.0595664 0.0371027 0)
(0.0532544 0.0361559 0)
(0.0458558 0.0332586 1.02677e-22)
(0.0377 0.0285357 -1.354e-22)
(0.029015 0.0215455 1.33096e-22)
(0.0216591 0.0153058 -1.52942e-23)
(0.0128389 -0.000343918 1.50346e-23)
(0.0720326 0.0150784 -4.87001e-21)
(0.0697173 0.0226737 0)
(0.0642953 0.0239081 1.84627e-21)
(0.0581368 0.0232423 -3.69276e-21)
(0.0514557 0.0206024 1.85095e-21)
(0.0437602 0.0164384 -1.00539e-22)
(0.0353637 0.0107941 8.96605e-23)
(0.0266329 0.00327265 2.64604e-23)
(0.0187743 -0.00342818 -2.92776e-23)
(0.0103581 -0.0180595 -3.32554e-23)
(0.0734697 0.010463 5.49493e-21)
(0.0692784 0.0135931 -2.60674e-21)
(0.0631094 0.0122176 2.58165e-21)
(0.0565378 0.0095108 -1.46261e-21)
(0.0495331 0.00520501 1.14301e-21)
(0.041567 -0.000206136 0)
(0.0329618 -0.00673424 -8.98653e-23)
(0.0242254 -0.0146259 -1.89245e-24)
(0.0160298 -0.021596 7.74942e-24)
(0.00831191 -0.0346451 4.85473e-23)
(0.0739382 0.00441202 -8.42085e-22)
(0.0681412 0.00361947 0)
(0.0615096 3.8397e-05 0)
(0.054634 -0.00443523 0)
(0.047388 -0.0101847 7.32873e-22)
(0.0392487 -0.0166399 -4.51968e-22)
(0.0305191 -0.023859 3.16407e-23)
(0.0218154 -0.0318913 1.27557e-23)
(0.0135505 -0.038867 1.12623e-23)
(0.00652159 -0.0500214 2.26061e-23)
(0.0733174 -0.00316603 -5.37011e-22)
(0.0662232 -0.00728206 -2.24134e-21)
(0.059379 -0.0126861 -9.21439e-22)
(0.0523182 -0.0186035 9.20773e-22)
(0.0449318 -0.0255161 -2.77393e-22)
(0.036725 -0.0327369 0)
(0.0280028 -0.0403816 -8.15941e-23)
(0.0194297 -0.0483027 2.72198e-23)
(0.0113392 -0.0549942 -8.11799e-24)
(0.00498694 -0.0641811 -3.42261e-23)
(0.0717006 -0.0120758 -6.12262e-21)
(0.0636706 -0.0188758 1.01089e-21)
(0.0568231 -0.0257848 2.5685e-22)
(0.049669 -0.0328241 8.98125e-22)
(0.0422476 -0.0406079 0)
(0.0340601 -0.0483033 0)
(0.0254747 -0.0561017 0)
(0.0171435 -0.0636741 2.87443e-23)
(0.00941076 -0.0698352 0)
(0.00374486 -0.077147 0)
(0.069226 -0.0220195 0)
(0.0606202 -0.0308395 1.75728e-21)
(0.0539401 -0.0389939 -1.13466e-21)
(0.0467713 -0.0468464 -6.47531e-22)
(0.0394186 -0.0552306 6.50853e-22)
(0.0313541 -0.0631278 1.28533e-22)
(0.0230119 -0.070834 -1.61732e-22)
(0.0150244 -0.0778672 -1.35925e-22)
(0.00777441 -0.0833329 1.07556e-23)
(0.00277853 -0.0889659 1.08483e-23)
(0.0659646 -0.0327071 0)
(0.0571929 -0.042836 -6.23056e-22)
(0.0508058 -0.052034 -2.5229e-22)
(0.0437154 -0.0604092 0)
(0.0365265 -0.0691534 8.45978e-23)
(0.0286861 -0.0770172 -3.13394e-22)
(0.0206772 -0.084433 1.2778e-22)
(0.0131165 -0.0908019 1.94249e-24)
(0.00642068 -0.0954966 -7.88326e-24)
(0.00204643 -0.099702 -1.21283e-23)
(0.0620364 -0.0437369 8.18588e-22)
(0.0534979 -0.0545807 5.6319e-22)
(0.0475011 -0.0646449 -1.89046e-22)
(0.0405827 -0.0732767 9.77503e-23)
(0.0336448 -0.0821773 1.37559e-22)
(0.0261194 -0.0898221 1.36569e-22)
(0.0185154 -0.0968079 -2.81677e-23)
(0.011441 -0.102456 -1.39732e-23)
(0.00532388 -0.106383 7.90904e-24)
(0.00150394 -0.109428 -3.34367e-26)
(0.0576271 -0.0548071 -1.73033e-22)
(0.0496309 -0.065836 1.74586e-22)
(0.0441013 -0.0766101 -1.27262e-22)
(0.0374489 -0.0852641 -9.76013e-23)
(0.0308361 -0.0941569 6.01926e-23)
(0.0237034 -0.101452 -1.07923e-22)
(0.0165533 -0.107926 3.93607e-23)
(0.00999868 -0.112861 2.70244e-24)
(0.00444843 -0.116079 0)
(0.00110867 -0.118218 3.35062e-26)
(0.0529307 -0.0656721 1.7714e-22)
(0.0457039 -0.0764284 -1.78638e-22)
(0.0406934 -0.08777 -1.33605e-22)
(0.0343963 -0.0962517 -1.0364e-22)
(0.0281583 -0.105009 -6.33625e-23)
(0.0214767 -0.111879 1.03651e-23)
(0.0148033 -0.11781 2.16868e-23)
(0.00877627 -0.122085 3.22496e-23)
(0.00375562 -0.124688 0)
(0.000823122 -0.126145 -2.34406e-24)
(0.0481506 -0.0761543 0)
(0.0418419 -0.0862537 -6.01151e-22)
(0.0373683 -0.0980249 1.01595e-21)
(0.0315046 -0.106188 1.03793e-22)
(0.0256601 -0.114711 1.62115e-22)
(0.019465 -0.121131 1.68064e-22)
(0.0132655 -0.126525 -3.43151e-23)
(0.00775175 -0.130225 -1.94726e-23)
(0.00320867 -0.132317 2.29182e-23)
(0.000616814 -0.13328 2.33839e-24)
(0.0434521 -0.0861454 0)
(0.038145 -0.0952771 -6.95317e-22)
(0.0341891 -0.10733 -2.77152e-22)
(0.0288267 -0.115086 0)
(0.0233678 -0.123293 -4.46134e-22)
(0.0176747 -0.129282 1.7122e-22)
(0.0119283 -0.134166 1.01485e-22)
(0.00689793 -0.137393 1.63902e-22)
(0.00277538 -0.139072 -2.28434e-23)
(0.000466495 -0.139691 1.68643e-23)
(0.0389572 -0.0955963 0)
(0.034682 -0.103534 7.01076e-22)
(0.0311912 -0.115691 0)
(0.0263874 -0.123016 8.08465e-22)
(0.0212878 -0.130831 -8.12662e-22)
(0.0160957 -0.136442 -2.11399e-22)
(0.0107718 -0.14085 4.83611e-23)
(0.00618629 -0.143708 -1.71401e-22)
(0.00242939 -0.14506 -3.14212e-23)
(0.00035498 -0.145453 -2.61468e-23)
(0.0347583 -0.104502 7.20244e-21)
(0.0315081 -0.111127 -2.69844e-21)
(0.028399 -0.123153 -2.61699e-22)
(0.0241962 -0.130095 -1.09537e-21)
(0.0194191 -0.137432 0)
(0.0147105 -0.14274 -2.26864e-22)
(0.00977488 -0.146707 7.67573e-23)
(0.00559069 -0.149293 2.62436e-22)
(0.00215056 -0.150386 1.06223e-23)
(0.0002701 -0.150643 -1.06094e-23)
(0.0309116 -0.112878 6.20484e-22)
(0.028669 -0.118213 4.21079e-21)
(0.0258359 -0.129793 1.14699e-21)
(0.0222534 -0.136466 -1.14629e-21)
(0.0177601 -0.143227 -3.98969e-22)
(0.0135003 -0.148318 0)
(0.00891883 -0.151871 -3.68984e-22)
(0.00508956 -0.154268 1.97271e-22)
(0.00192454 -0.155153 9.8892e-23)
(0.000203566 -0.155344 2.51897e-23)
(0.0274547 -0.120722 -1.01449e-21)
(0.0262219 -0.125002 0)
(0.0235438 -0.135709 0)
(0.0205622 -0.142285 0)
(0.0163178 -0.14836 -3.14719e-22)
(0.0124516 -0.153318 7.12897e-22)
(0.00819097 -0.156473 3.80832e-22)
(0.00466741 -0.158753 -4.50275e-22)
(0.00174202 -0.159466 2.57419e-23)
(0.00014974 -0.159643 -5.04151e-23)
(0.0243915 -0.12798 -2.34781e-21)
(0.0241957 -0.131728 3.13996e-21)
(0.0215544 -0.141017 -3.11035e-21)
(0.0191045 -0.147703 1.99727e-21)
(0.015089 -0.152981 -2.42303e-21)
(0.0115454 -0.157878 0)
(0.00757714 -0.160644 -2.3339e-22)
(0.00431032 -0.162861 -1.08692e-23)
(0.00159583 -0.163427 -8.6009e-23)
(0.000103961 -0.163631 -2.9301e-23)
(0.0213992 -0.134472 -1.10251e-21)
(0.0222968 -0.13862 0)
(0.019712 -0.145854 -3.07753e-21)
(0.0177137 -0.152859 4.77641e-21)
(0.0139724 -0.157244 -1.64077e-21)
(0.0107006 -0.16213 -1.75007e-22)
(0.00702827 -0.164509 2.32858e-22)
(0.00398818 -0.166699 2.85447e-23)
(0.00147309 -0.167137 1.77368e-22)
(6.30704e-05 -0.167402 5.8107e-23)
(0.0184331 -0.139731 -4.47006e-21)
(0.0203641 -0.145887 4.36752e-21)
(0.0180276 -0.150417 3.98201e-22)
(0.0163605 -0.157897 0)
(0.0129495 -0.161316 0)
(0.00990953 -0.166216 1.80226e-22)
(0.00653634 -0.168201 4.34566e-22)
(0.00369876 -0.170381 -4.26446e-22)
(0.00137303 -0.170696 -3.22619e-23)
(4.07944e-05 -0.171054 3.15581e-23)
(0.0186897 -0.147136 0)
(0.0207179 -0.163111 0)
(0.0178183 -0.16074 0)
(0.0158161 -0.169669 0)
(0.0124338 -0.170902 0)
(0.00933077 -0.175944 0)
(0.00616999 -0.176993 0)
(0.00346898 -0.179151 0)
(0.00134834 -0.179117 0)
(7.68348e-05 -0.179649 0)
(0.0162343 -0.173733 0)
(0.014347 -0.190448 0)
(0.0124688 -0.183916 0)
(0.0104843 -0.192799 0)
(0.00831868 -0.191218 0)
(0.00617313 -0.195978 0)
(0.00414045 -0.195455 0)
(0.00236928 -0.197476 0)
(0.000984686 -0.196759 0)
(9.72224e-05 -0.197451 0)
(0.0165517 -0.204491 0)
(0.0135023 -0.221882 0)
(0.0112298 -0.21246 0)
(0.00891407 -0.221683 0)
(0.00695306 -0.21794 0)
(0.00500085 -0.222875 0)
(0.00340267 -0.221058 0)
(0.00196996 -0.223242 0)
(0.000903739 -0.221858 0)
(0.000109698 -0.222805 0)
(0.0162392 -0.242604 0)
(0.0124217 -0.261203 0)
(0.0101648 -0.249621 0)
(0.00765993 -0.259722 0)
(0.0059774 -0.254176 0)
(0.00417704 -0.25973 0)
(0.00293883 -0.256737 0)
(0.00171732 -0.259378 0)
(0.000874353 -0.257286 0)
(0.00011103 -0.258637 0)
(0.0157218 -0.290244 0)
(0.0115383 -0.309492 0)
(0.00933824 -0.296996 0)
(0.00670421 -0.307967 0)
(0.0052636 -0.301266 0)
(0.00354301 -0.307614 0)
(0.00258741 -0.30371 0)
(0.00147422 -0.306978 0)
(0.000814267 -0.304247 0)
(8.08249e-05 -0.306154 0)
(0.014584 -0.346227 0)
(0.0103818 -0.364167 0)
(0.00839295 -0.352882 0)
(0.00574877 -0.36375 0)
(0.00456492 -0.357131 0)
(0.00289723 -0.363788 0)
(0.00217208 -0.35961 0)
(0.00110557 -0.363291 0)
(0.000637599 -0.360254 0)
(1.07753e-06 -0.362632 0)
(0.0124512 -0.40431 0)
(0.00868651 -0.41876 0)
(0.00701746 -0.410826 0)
(0.00462261 -0.42006 0)
(0.00368507 -0.414983 0)
(0.00215442 -0.420889 0)
(0.00159896 -0.417343 0)
(0.000610654 -0.420754 0)
(0.000345162 -0.418002 0)
(-9.67156e-05 -0.420403 0)
(0.00942114 -0.455034 0)
(0.00649043 -0.465027 0)
(0.00520787 -0.461364 0)
(0.00333386 -0.4679 0)
(0.002626 -0.465181 0)
(0.00138936 -0.469387 0)
(0.000959944 -0.467118 0)
(0.000156918 -0.469537 0)
(6.13583e-05 -0.467574 0)
(-0.000149046 -0.469393 0)
(0.00581549 -0.490878 0)
(0.00394542 -0.497093 0)
(0.00315103 -0.497004 0)
(0.00197357 -0.50096 0)
(0.00153617 -0.500379 0)
(0.000729508 -0.502761 0)
(0.0004488 -0.501779 0)
(-7.53397e-05 -0.503013 0)
(-7.44583e-05 -0.50194 0)
(-0.000129659 -0.502917 0)
(0.00195773 -0.508909 0)
(0.0012956 -0.513169 0)
(0.00104568 -0.515015 0)
(0.000641538 -0.517483 0)
(0.000505019 -0.518079 0)
(0.000219212 -0.519347 0)
(0.00012605 -0.519119 0)
(-6.05774e-05 -0.519604 0)
(-4.49055e-05 -0.519089 0)
(-5.18093e-05 -0.519493 0)
(0.0179904 -0.157716 5.25014e-21)
(0.0177048 -0.185507 -5.14709e-21)
(0.0187605 -0.218057 6.66165e-22)
(0.0186338 -0.257411 0)
(0.0181396 -0.304878 0)
(0.0167479 -0.358608 7.72093e-22)
(0.0142834 -0.412536 -3.31978e-21)
(0.0108721 -0.458531 3.27706e-21)
(0.0068007 -0.490559 8.92613e-22)
(0.00231571 -0.506574 -8.7875e-22)
(0.0180987 -0.162926 -6.18131e-21)
(0.0185891 -0.19047 0)
(0.0198039 -0.223108 4.52511e-21)
(0.0197186 -0.262518 -1.04438e-20)
(0.0192055 -0.309669 6.70631e-21)
(0.0176956 -0.36245 -7.11236e-22)
(0.0150933 -0.414867 1.58556e-21)
(0.0115215 -0.459257 3.34693e-21)
(0.0072426 -0.490063 9.43959e-22)
(0.00247058 -0.505486 9.15791e-22)
(0.0185889 -0.168332 7.22839e-21)
(0.0198599 -0.195735 -4.99492e-21)
(0.021118 -0.228182 4.94765e-21)
(0.021026 -0.267361 -5.54428e-21)
(0.0204411 -0.313992 4.1032e-21)
(0.0187676 -0.365703 0)
(0.0159793 -0.416612 -1.58943e-21)
(0.012195 -0.459507 8.33716e-23)
(0.00766832 -0.489246 -1.75795e-21)
(0.0026055 -0.504184 -1.79636e-21)
(0.0194786 -0.173155 -1.17061e-21)
(0.0214421 -0.200622 0)
(0.0226841 -0.232968 0)
(0.0225568 -0.271929 0)
(0.0218589 -0.318034 4.57414e-21)
(0.0199904 -0.368688 -3.05847e-21)
(0.0169764 -0.418136 -2.06374e-23)
(0.0129289 -0.459577 -1.87886e-21)
(0.00810988 -0.488256 -9.64233e-22)
(0.00273611 -0.502669 -1.03215e-21)
(0.0208376 -0.177486 1.24739e-22)
(0.023304 -0.204879 -3.54088e-21)
(0.0244708 -0.237124 -2.71285e-21)
(0.0242844 -0.275906 2.71116e-21)
(0.0234425 -0.321535 -1.49513e-21)
(0.0213616 -0.371228 0)
(0.0180996 -0.419352 -1.75263e-21)
(0.0137551 -0.459455 3.83611e-21)
(0.00860548 -0.487121 -1.96326e-21)
(0.00288318 -0.500994 2.01992e-21)
(0.0227093 -0.18142 -9.4212e-21)
(0.0254678 -0.208539 1.01681e-21)
(0.0264902 -0.240562 -2.00192e-22)
(0.0262068 -0.279128 2.78722e-21)
(0.0251871 -0.324292 0)
(0.0228762 -0.373119 0)
(0.0193484 -0.420086 0)
(0.0146825 -0.459027 2.05587e-21)
(0.00917117 -0.485804 0)
(0.00305743 -0.49919 0)
(0.0251068 -0.184864 0)
(0.0279545 -0.211592 3.90217e-21)
(0.0287725 -0.243281 -2.63725e-21)
(0.0283429 -0.281569 -3.13025e-21)
(0.0271073 -0.326257 3.14654e-21)
(0.0245418 -0.374291 1.87366e-21)
(0.0207239 -0.420256 -1.8591e-21)
(0.01571 -0.458219 -7.344e-21)
(0.00980622 -0.484264 5.2289e-22)
(0.00326043 -0.497255 -1.78934e-21)
(0.028038 -0.187682 0)
(0.0307718 -0.213958 -1.26794e-21)
(0.0313396 -0.245246 -7.17158e-22)
(0.0307115 -0.283226 0)
(0.0292233 -0.327438 9.13891e-22)
(0.0263742 -0.374756 -2.7591e-21)
(0.0222346 -0.41986 3.06894e-21)
(0.0168388 -0.457018 1.09461e-21)
(0.0105072 -0.482482 -1.1979e-21)
(0.00349103 -0.495173 2.37394e-21)
(0.0315137 -0.189763 1.13917e-21)
(0.0339245 -0.215563 1.37828e-21)
(0.0342043 -0.2464 -3.05272e-22)
(0.0333239 -0.284075 4.10059e-22)
(0.0315507 -0.327836 8.71128e-22)
(0.0283882 -0.374534 1.46093e-21)
(0.0238917 -0.418925 -5.49134e-22)
(0.0180739 -0.455438 -5.93201e-22)
(0.0112736 -0.480456 1.20184e-21)
(0.00374897 -0.49293 6.51336e-22)
(0.0355443 -0.191016 -3.18172e-22)
(0.0374181 -0.216367 3.21083e-22)
(0.0373767 -0.246696 -3.69317e-22)
(0.0361866 -0.284092 -4.09532e-22)
(0.0341008 -0.327439 4.85678e-22)
(0.0305946 -0.37363 -9.91353e-22)
(0.025706 -0.417462 8.40266e-22)
(0.019424 -0.453489 3.00339e-22)
(0.0121099 -0.478188 0)
(0.00403589 -0.490519 -6.52789e-22)
(0.0401379 -0.191371 3.26271e-22)
(0.0412555 -0.216363 -3.29376e-22)
(0.0408668 -0.246111 -3.96851e-22)
(0.0393044 -0.283271 -4.42731e-22)
(0.0368825 -0.326243 -5.06889e-22)
(0.0330005 -0.372052 -3.52339e-23)
(0.0276847 -0.415482 2.96171e-22)
(0.0208945 -0.451183 9.55944e-22)
(0.0130187 -0.475681 0)
(0.00435287 -0.487937 -7.12478e-22)
(0.0452997 -0.190807 0)
(0.0454367 -0.215551 -1.51857e-21)
(0.0446822 -0.244655 2.75304e-21)
(0.0426792 -0.28162 4.43483e-22)
(0.0399046 -0.324249 1.02944e-21)
(0.0356131 -0.369794 1.68799e-21)
(0.029838 -0.412975 -6.00093e-22)
(0.022496 -0.448506 -6.48499e-22)
(0.0140076 -0.472929 1.43429e-21)
(0.00470237 -0.485178 7.10816e-22)
(0.0510309 -0.189369 0)
(0.0499609 -0.213922 -1.49769e-21)
(0.048827 -0.242369 -8.27943e-22)
(0.0463159 -0.279161 0)
(0.043173 -0.321497 -3.24131e-21)
(0.0384358 -0.366889 1.08363e-21)
(0.0321674 -0.409973 1.28857e-21)
(0.0242263 -0.445485 4.15973e-21)
(0.0150733 -0.469929 -1.42964e-21)
(0.00508232 -0.482232 3.08598e-21)
(0.0573277 -0.18718 0)
(0.0548305 -0.211468 1.51047e-21)
(0.0532889 -0.239401 0)
(0.0502146 -0.275881 4.14457e-21)
(0.0466944 -0.318001 -4.16582e-21)
(0.0414794 -0.363319 -2.54243e-21)
(0.0346851 -0.406442 -5.63235e-23)
(0.0261053 -0.442082 -4.28093e-21)
(0.0162326 -0.466653 -7.13571e-22)
(0.00549668 -0.479075 -3.8385e-21)
(0.0641666 -0.184354 1.09225e-20)
(0.0600454 -0.20816 -4.18899e-21)
(0.0580747 -0.235733 4.47753e-22)
(0.054408 -0.271789 -3.87404e-21)
(0.0504573 -0.313797 0)
(0.0447443 -0.35914 -2.65162e-21)
(0.0373846 -0.402448 -2.20696e-22)
(0.0281216 -0.438351 5.81463e-21)
(0.0174744 -0.463151 7.97025e-22)
(0.00593903 -0.475736 -8.00074e-22)
(0.0714848 -0.180886 -1.11214e-21)
(0.0656383 -0.204054 7.83602e-21)
(0.063146 -0.231346 4.03107e-21)
(0.0588846 -0.267024 -4.02832e-21)
(0.0544687 -0.308899 -2.42499e-21)
(0.048245 -0.35431 0)
(0.0402924 -0.397906 -5.93948e-21)
(0.0303079 -0.434209 2.97859e-21)
(0.0188265 -0.459367 3.18025e-21)
(0.00642104 -0.472176 3.41402e-21)
(0.079211 -0.176819 -1.5053e-21)
(0.0716049 -0.199311 0)
(0.0684714 -0.226393 0)
(0.0636259 -0.261738 0)
(0.0587168 -0.303523 -2.79587e-21)
(0.051952 -0.34911 5.21182e-21)
(0.0433577 -0.393107 6.05067e-21)
(0.0326003 -0.42988 -9.52604e-21)
(0.0202361 -0.455422 1.7047e-21)
(0.00691615 -0.468461 -5.0707e-21)
(0.0872187 -0.172257 -2.26376e-21)
(0.0779411 -0.193876 7.73106e-21)
(0.0740413 -0.220786 -7.65722e-21)
(0.0686474 -0.25568 9.81606e-21)
(0.0632468 -0.297274 -1.23438e-20)
(0.055954 -0.342992 0)
(0.046715 -0.38748 -3.16341e-21)
(0.0351509 -0.424932 -1.30152e-22)
(0.0218243 -0.451074 -3.54303e-21)
(0.00747744 -0.464434 -3.61027e-21)
(0.0953054 -0.16784 -1.59996e-21)
(0.084546 -0.18839 0)
(0.0797157 -0.215356 -1.02213e-20)
(0.0737886 -0.249954 1.92403e-20)
(0.067859 -0.291569 -7.44542e-21)
(0.0599847 -0.337553 -1.49777e-21)
(0.0500353 -0.382479 3.15657e-21)
(0.0376256 -0.420365 -1.59402e-22)
(0.0233414 -0.446833 5.17162e-21)
(0.00798862 -0.460383 5.34279e-21)
(0.10383 -0.16139 -7.18868e-21)
(0.0923971 -0.180405 7.04511e-21)
(0.0862593 -0.207256 1.08793e-21)
(0.0797196 -0.241302 0)
(0.0732276 -0.282731 0)
(0.0648067 -0.329095 1.46781e-21)
(0.0541498 -0.375035 6.71416e-21)
(0.0408021 -0.414203 -6.5664e-21)
(0.0253464 -0.441716 -1.79715e-21)
(0.00869792 -0.455707 1.76697e-21)
(0.114933 -0.162052 0)
(0.109424 -0.177548 0)
(0.0999402 -0.205435 0)
(0.0918777 -0.238851 0)
(0.0838765 -0.279286 0)
(0.0737941 -0.32404 0)
(0.0613322 -0.368074 0)
(0.0460359 -0.405485 0)
(0.0284995 -0.431931 0)
(0.00958481 -0.445736 0)
(0.134967 -0.147307 0)
(0.138513 -0.16797 0)
(0.123889 -0.199117 0)
(0.11512 -0.232142 0)
(0.104423 -0.271583 0)
(0.0913621 -0.313883 0)
(0.0755675 -0.354647 0)
(0.0565717 -0.388615 0)
(0.0350917 -0.411901 0)
(0.01219 -0.423075 0)
(0.162786 -0.133142 0)
(0.169713 -0.156105 0)
(0.14981 -0.187289 0)
(0.14109 -0.218943 0)
(0.126749 -0.256843 0)
(0.110207 -0.296044 0)
(0.0904112 -0.333521 0)
(0.0671788 -0.364974 0)
(0.04129 -0.387398 0)
(0.013614 -0.399713 0)
(0.197235 -0.123278 0)
(0.205566 -0.146175 0)
(0.180179 -0.176099 0)
(0.172049 -0.206551 0)
(0.15279 -0.242762 0)
(0.132532 -0.278339 0)
(0.108039 -0.312181 0)
(0.0799332 -0.33988 0)
(0.0492378 -0.358525 0)
(0.0172724 -0.366625 0)
(0.237904 -0.110813 0)
(0.244442 -0.131778 0)
(0.214028 -0.159276 0)
(0.205555 -0.187254 0)
(0.179053 -0.219436 0)
(0.154478 -0.24985 0)
(0.124038 -0.279742 0)
(0.0906887 -0.304687 0)
(0.0549154 -0.323436 0)
(0.0172968 -0.33554 0)
(0.285376 -0.101485 0)
(0.288268 -0.119789 0)
(0.253852 -0.145439 0)
(0.243314 -0.169962 0)
(0.208458 -0.197903 0)
(0.180622 -0.224099 0)
(0.143645 -0.250784 0)
(0.104757 -0.271896 0)
(0.0638774 -0.286416 0)
(0.0235842 -0.290235 0)
(0.334527 -0.0832398 0)
(0.329643 -0.0975226 0)
(0.292293 -0.118896 0)
(0.276186 -0.137388 0)
(0.233021 -0.159748 0)
(0.201569 -0.180415 0)
(0.154904 -0.201759 0)
(0.110442 -0.219252 0)
(0.0638833 -0.236688 0)
(0.0160827 -0.255344 0)
(0.384279 -0.070555 0)
(0.372258 -0.0805955 0)
(0.335248 -0.0981828 0)
(0.312107 -0.111708 0)
(0.265875 -0.130865 0)
(0.230002 -0.14744 0)
(0.176574 -0.166461 0)
(0.128469 -0.183393 0)
(0.0764345 -0.200207 0)
(0.0364905 -0.197667 0)
(0.42345 -0.0385387 0)
(0.406156 -0.0431299 0)
(0.358761 -0.053714 0)
(0.327915 -0.0601348 0)
(0.271213 -0.0716822 0)
(0.226266 -0.0794052 0)
(0.159287 -0.0902524 0)
(0.100708 -0.0999941 0)
(0.0374322 -0.120161 0)
(-0.0315728 -0.170479 0)
(0.660845 -0.0196746 0)
(0.63822 -0.0227577 0)
(0.595957 -0.027488 0)
(0.56083 -0.0317367 0)
(0.506943 -0.0382697 0)
(0.457184 -0.0448993 0)
(0.387364 -0.0553216 0)
(0.314267 -0.0701141 0)
(0.217046 -0.0991315 0)
(0.154255 -0.156648 0)
(0.138018 -0.144829 7.35225e-21)
(0.160906 -0.129576 -7.24275e-21)
(0.188947 -0.115993 1.18275e-21)
(0.223142 -0.106449 0)
(0.263639 -0.0951759 0)
(0.309084 -0.0867398 1.80575e-21)
(0.356829 -0.0706375 -8.62883e-21)
(0.403398 -0.0604075 8.51947e-21)
(0.450309 -0.0324553 2.43388e-21)
(0.682215 -0.0171284 -2.46069e-21)
(0.145479 -0.137478 -6.84769e-21)
(0.16821 -0.122015 0)
(0.195525 -0.108969 8.43318e-21)
(0.229736 -0.0997448 -2.03888e-20)
(0.270337 -0.0889653 1.37507e-20)
(0.315657 -0.0809141 -1.67768e-21)
(0.363372 -0.0656156 3.66444e-21)
(0.409713 -0.0563818 8.25728e-21)
(0.460164 -0.0300552 2.25837e-21)
(0.690509 -0.0160409 2.23828e-21)
(0.152009 -0.129317 7.91784e-21)
(0.174204 -0.114043 -7.93353e-21)
(0.200785 -0.101764 7.85849e-21)
(0.234693 -0.0929991 -1.08528e-20)
(0.275196 -0.0827949 7.87066e-21)
(0.320513 -0.0752395 0)
(0.36829 -0.0608314 -3.67332e-21)
(0.414983 -0.0526557 -7.21274e-23)
(0.468746 -0.0279055 -4.26304e-21)
(0.698209 -0.015 -4.47464e-21)
(0.158545 -0.120585 -1.3646e-21)
(0.180603 -0.105824 0)
(0.206758 -0.094414 0)
(0.240277 -0.086182 0)
(0.280549 -0.076636 8.92699e-21)
(0.32574 -0.0696768 -6.08097e-21)
(0.37341 -0.0562455 -2.36553e-22)
(0.420336 -0.0491376 -4.19853e-21)
(0.47676 -0.0259715 -2.14029e-21)
(0.705569 -0.0140375 -2.18537e-21)
(0.164536 -0.111457 1.36943e-21)
(0.186683 -0.0975004 -4.32004e-21)
(0.212564 -0.0870144 -4.462e-21)
(0.245923 -0.0793564 4.45923e-21)
(0.285957 -0.0705254 -2.80586e-21)
(0.331109 -0.0642342 0)
(0.378643 -0.0518176 -3.58251e-21)
(0.425749 -0.045743 8.0074e-21)
(0.484393 -0.0241847 -4.02775e-21)
(0.71258 -0.013152 4.36746e-21)
(0.169756 -0.101968 -1.02025e-20)
(0.191985 -0.0891006 5.26477e-22)
(0.217575 -0.0796108 -7.05023e-22)
(0.250887 -0.0725715 4.36152e-21)
(0.290737 -0.0644989 0)
(0.336012 -0.0589445 0)
(0.383392 -0.04755 0)
(0.430868 -0.042454 3.83095e-21)
(0.491488 -0.022506 0)
(0.719143 -0.0123326 0)
(0.174144 -0.0921375 0)
(0.196456 -0.0806092 5.13517e-21)
(0.22175 -0.0721825 -3.56234e-21)
(0.254954 -0.0658335 -4.98856e-21)
(0.294705 -0.058577 5.0145e-21)
(0.340138 -0.0537889 3.24838e-21)
(0.38737 -0.0434464 -3.06543e-21)
(0.435427 -0.0392938 -1.31971e-20)
(0.497856 -0.0209173 9.34716e-22)
(0.72518 -0.0115771 -3.13162e-21)
(0.177602 -0.0819999 0)
(0.200072 -0.0720184 -1.57801e-21)
(0.225134 -0.0647051 -9.49891e-22)
(0.258167 -0.0591268 0)
(0.297865 -0.0527401 1.51415e-21)
(0.343414 -0.0487431 -4.3571e-21)
(0.39064 -0.0394914 5.19165e-21)
(0.439277 -0.0362569 1.99275e-21)