/*--------------------------------*- C++ -*----------------------------------*\
  =========                 |
  \\      /  F ield         | OpenFOAM: The Open Source CFD Toolbox
   \\    /   O peration     | Website:  https://openfoam.org
    \\  /    A nd           | Version:  7
     \\/     M anipulation  |
\*---------------------------------------------------------------------------*/
FoamFile
{
    version     2.0;
    format      ascii;
    class       volVectorField;
    location    "1";
    object      U;
}
// * * * * * * * * * * * * * * * * * * * * * * * * * * * * * * * * * * * * * //

dimensions      [0 1 -1 0 0 0 0];

internalField   nonuniform List<vector> 
32000
(
(-0.00153575 0.0718344 -2.03552e-21)
(-0.00434527 0.157269 0)
(-0.00679263 0.196766 -1.8142e-20)
(-0.00729873 0.201262 0)
(-0.00522252 0.181186 1.89198e-20)
(-0.000157243 0.145354 0)
(0.00794635 0.100744 1.95736e-20)
(0.0188792 0.0526196 -1.48832e-20)
(0.0322569 0.00477946 9.8495e-24)
(0.0475825 -0.0401686 1.16631e-23)
(0.0643084 -0.0805654 -5.15278e-21)
(0.0818915 -0.115501 2.08098e-20)
(0.0998343 -0.144629 0)
(0.117709 -0.168021 -5.30944e-21)
(0.135173 -0.186035 5.33136e-21)
(0.151973 -0.199209 0)
(0.167934 -0.208168 2.69713e-20)
(0.182952 -0.21356 -5.41572e-21)
(0.19698 -0.216016 0)
(0.210012 -0.216115 1.09255e-20)
(0.222073 -0.214366 1.09099e-20)
(0.233211 -0.21121 0)
(0.243483 -0.207011 0)
(0.252956 -0.202071 0)
(0.261694 -0.196627 0)
(0.269761 -0.190868 0)
(0.277219 -0.184938 0)
(0.284124 -0.178946 0)
(0.290526 -0.172974 -2.16984e-20)
(0.296472 -0.167081 0)
(0.302003 -0.161307 2.15729e-20)
(0.307154 -0.15568 0)
(0.311959 -0.150217 0)
(0.316446 -0.144928 0)
(0.320642 -0.139817 -2.12533e-20)
(0.324567 -0.134884 -1.06088e-20)
(0.32824 -0.130125 3.16675e-20)
(0.331689 -0.125537 -2.0273e-23)
(0.33494 -0.121113 2.09262e-20)
(0.337782 -0.116846 -2.27959e-23)
(-0.0027901 0.0723122 0)
(-0.00668192 0.157918 3.52845e-20)
(-0.00899122 0.197025 9.079e-21)
(-0.00858728 0.200655 -8.7646e-24)
(-0.00510262 0.179346 -9.47756e-21)
(0.00163408 0.142055 0)
(0.0115042 0.0958895 1.94383e-20)
(0.0241706 0.0462344 -1.97229e-20)
(0.0391553 -0.00300968 0)
(0.0559014 -0.0491613 -4.06003e-20)
(0.0738242 -0.0905143 0)
(0.0923618 -0.126138 -6.22773e-20)
(0.111014 -0.15569 0)
(0.129365 -0.179265 0)
(0.147095 -0.197259 2.13141e-20)
(0.163977 -0.210246 -2.13823e-20)
(0.179868 -0.218892 -2.15621e-20)
(0.194695 -0.223885 0)
(0.208439 -0.225887 6.50345e-20)
(0.221119 -0.225502 -2.17233e-20)
(0.232785 -0.223263 -1.12439e-23)
(0.243501 -0.219623 -6.53558e-20)
(0.253341 -0.214957 -4.35863e-20)
(0.26238 -0.209573 -2.18506e-20)
(0.270694 -0.203711 6.53499e-20)
(0.278353 -0.197563 -6.53189e-20)
(0.285421 -0.191271 6.52885e-20)
(0.291957 -0.184944 -8.67373e-20)
(0.298013 -0.178662 -2.15495e-20)
(0.303637 -0.17248 1.11801e-22)
(0.308867 -0.166438 -6.44951e-20)
(0.31374 -0.160562 -4.28901e-20)
(0.318288 -0.154866 8.55012e-20)
(0.322539 -0.149358 -8.50996e-20)
(0.326516 -0.144041 -2.11021e-20)
(0.33024 -0.138914 -8.44564e-20)
(0.333729 -0.133971 4.22331e-23)
(0.337009 -0.129205 2.09293e-20)
(0.340099 -0.124606 -8.322e-20)
(0.342783 -0.120162 -1.12581e-19)
(-0.00407113 0.0726033 -8.08318e-21)
(-0.00905896 0.158217 -1.76691e-20)
(-0.0112013 0.196862 -8.10802e-20)
(-0.00983943 0.199614 0)
(-0.00487603 0.177103 9.41511e-21)
(0.00361892 0.138403 -9.57518e-21)
(0.0153427 0.0907466 -1.16756e-19)
(0.0298282 0.0396336 3.95793e-20)
(0.0465004 -0.010936 -2.00406e-20)
(0.0647332 -0.0582057 1.2147e-19)
(0.0838971 -0.100426 4.09838e-20)
(0.103412 -0.136649 2.07986e-20)
(0.12278 -0.166541 -8.34051e-20)
(0.141598 -0.190225 0)
(0.15957 -0.208131 0)
(0.176504 -0.220876 4.27422e-20)
(0.19229 -0.229168 1.21695e-22)
(0.206887 -0.233732 -4.30299e-20)
(0.220308 -0.235261 -4.33127e-20)
(0.232602 -0.234386 -8.65605e-20)
(0.243838 -0.231656 1.30211e-19)
(0.254103 -0.22754 1.23695e-22)
(0.263483 -0.22242 2.83283e-23)
(0.272067 -0.216609 4.34634e-20)
(0.279938 -0.210351 -8.70796e-20)
(0.287171 -0.203835 1.73613e-19)
(0.293835 -0.197205 0)
(0.29999 -0.190566 4.33506e-20)
(0.30569 -0.183996 4.32467e-20)
(0.310982 -0.177549 8.6217e-20)
(0.315906 -0.171262 1.11511e-22)
(0.320495 -0.165156 0)
(0.324781 -0.159247 4.26127e-20)
(0.328791 -0.153539 -4.23083e-20)
(0.332546 -0.148033 -4.20477e-20)
(0.336066 -0.142727 1.26432e-19)
(0.339367 -0.137614 -1.2542e-19)
(0.342474 -0.132685 8.34898e-20)
(0.3454 -0.127924 -1.24231e-19)
(0.347921 -0.123316 4.46837e-20)
(-0.00536691 0.0726963 6.43224e-20)
(-0.0114571 0.158126 -7.00865e-20)
(-0.0134034 0.196211 1.43874e-19)
(-0.0110255 0.19805 0)
(-0.00450972 0.174354 5.61372e-20)
(0.00582691 0.134294 9.53378e-20)
(0.0194969 0.0852207 1.96819e-20)
(0.0358874 0.032743 2.9658e-23)
(0.0543165 -0.0190479 5.97275e-20)
(0.0740858 -0.0673278 -2.05011e-20)
(0.0945225 -0.110308 1.01922e-19)
(0.115028 -0.147026 -1.23665e-19)
(0.135104 -0.177163 1.24971e-19)
(0.154367 -0.200871 -4.20317e-20)
(0.172552 -0.218619 4.22057e-20)
(0.189501 -0.231066 -8.49156e-20)
(0.205141 -0.238962 -1.28178e-19)
(0.219469 -0.24307 4.28811e-20)
(0.23253 -0.244111 -4.31453e-20)
(0.2444 -0.24274 1.29709e-19)
(0.255176 -0.239525 -8.67233e-20)
(0.264962 -0.234943 -8.65272e-20)
(0.273859 -0.229386 0)
(0.281967 -0.223169 0)
(0.289378 -0.216536 -8.65101e-20)
(0.296171 -0.209677 -8.67138e-20)
(0.302419 -0.202733 -8.62708e-20)
(0.308184 -0.195807 0)
(0.313521 -0.188974 0)
(0.318475 -0.182285 -1.71517e-19)
(0.323086 -0.175774 -1.41604e-22)
(0.327386 -0.169462 8.53975e-20)
(0.331408 -0.163359 -8.48615e-20)
(0.335173 -0.157469 -8.46644e-20)
(0.338704 -0.151794 8.44919e-20)
(0.342018 -0.146326 0)
(0.34513 -0.141057 8.36568e-20)
(0.348063 -0.135978 -1.66125e-19)
(0.350824 -0.131067 1.65505e-19)
(0.353177 -0.126307 -1.78626e-19)
(-0.00666825 0.0726086 -3.22161e-20)
(-0.0138556 0.157669 5.25962e-20)
(-0.0155734 0.195111 -7.18143e-20)
(-0.0121298 0.196019 0)
(-0.00399101 0.171158 -9.36056e-20)
(0.00827065 0.129792 -5.72294e-20)
(0.0239684 0.0793743 7.74812e-20)
(0.042339 0.0256166 0)
(0.0625872 -0.0272998 -1.19459e-19)
(0.0839356 -0.0764861 -4.04265e-20)
(0.105667 -0.120119 -4.07812e-20)
(0.127164 -0.15723 8.24679e-20)
(0.147935 -0.187518 -8.29624e-20)
(0.167617 -0.211168 4.17564e-20)
(0.18598 -0.228689 0)
(0.202906 -0.240786 1.27358e-19)
(0.21836 -0.248248 4.28171e-20)
(0.232378 -0.251875 -8.56969e-20)
(0.245041 -0.252416 1.71755e-19)
(0.256456 -0.250548 -1.72213e-19)
(0.266742 -0.246854 1.7229e-19)
(0.276023 -0.24182 8.65258e-20)
(0.284416 -0.235845 0)
(0.292032 -0.229243 8.64978e-20)
(0.298968 -0.22226 2.37666e-22)
(0.30531 -0.215084 0)
(0.311134 -0.207852 8.62698e-20)
(0.316502 -0.200665 -8.60137e-20)
(0.321469 -0.193594 8.5656e-20)
(0.326081 -0.186687 1.71205e-19)
(0.330375 -0.179976 -1.70445e-19)
(0.334385 -0.173478 1.6995e-19)
(0.338138 -0.167202 0)
(0.341658 -0.161151 0)
(0.344964 -0.155322 1.67862e-19)
(0.348071 -0.149709 0)
(0.350993 -0.144302 0)
(0.353754 -0.139086 -1.65388e-19)
(0.35635 -0.134039 1.64646e-19)
(0.358535 -0.129141 8.91088e-20)
(-0.00796393 0.0723527 1.59942e-20)
(-0.016235 0.156848 0)
(-0.0176923 0.193541 1.42646e-19)
(-0.0131269 0.19348 1.82716e-20)
(-0.0032941 0.167472 1.86571e-20)
(0.0109702 0.124851 1.13546e-19)
(0.0287735 0.0731664 1.53892e-19)
(0.049191 0.0182282 0)
(0.0713079 -0.035703 3.96582e-20)
(0.0942659 -0.08568 1.20053e-19)
(0.117302 -0.12985 1.6189e-19)
(0.139784 -0.167244 -4.10151e-20)
(0.161228 -0.197584 -1.23758e-19)
(0.181297 -0.221091 0)
(0.1998 -0.238316 1.67582e-19)
(0.216659 -0.25001 0)
(0.231885 -0.257002 2.54548e-19)
(0.245555 -0.260126 -8.51602e-20)
(0.257785 -0.260158 0)
(0.268712 -0.257795 -8.59089e-20)
(0.278482 -0.253631 -2.55571e-22)
(0.287236 -0.248163 -8.56691e-20)
(0.295107 -0.24179 -8.602e-20)
(0.302215 -0.234828 8.61887e-20)
(0.308666 -0.227522 -8.59631e-20)
(0.314548 -0.220055 0)
(0.31994 -0.212562 -8.58801e-20)
(0.324906 -0.20514 8.55523e-20)
(0.3295 -0.197856 0)
(0.333767 -0.190756 0)
(0.337743 -0.183868 0)
(0.341461 -0.177207 -1.69362e-19)
(0.344946 -0.170779 1.68468e-19)
(0.34822 -0.164586 0)
(0.3513 -0.158622 -8.37718e-20)
(0.354201 -0.15288 0)
(0.356935 -0.147349 1.65847e-19)
(0.359523 -0.142012 -8.21811e-20)
(0.361955 -0.136843 -1.64245e-19)
(0.36397 -0.131821 1.76978e-19)
(-0.00924541 0.071938 1.11324e-19)
(-0.0185743 0.155668 -1.56088e-19)
(-0.0197335 0.191512 -2.67002e-19)
(-0.0139928 0.190448 -1.45349e-19)
(-0.0023994 0.163307 -3.71496e-20)
(0.0139398 0.119484 -7.5857e-20)
(0.0339169 0.0666153 -3.45628e-19)
(0.0564375 0.0105963 -1.16581e-19)
(0.080462 -0.0442361 -1.97075e-19)
(0.10505 -0.0948831 -2.00111e-19)
(0.129393 -0.139471 -2.82839e-19)
(0.152845 -0.177038 -1.62938e-19)
(0.174932 -0.207331 5.93306e-22)
(0.195351 -0.23061 -1.65781e-19)
(0.213952 -0.247473 -1.67579e-19)
(0.230702 -0.258715 -2.52306e-19)
(0.245658 -0.265204 1.68603e-19)
(0.258941 -0.267806 -8.48562e-20)
(0.270703 -0.267324 0)
(0.281114 -0.264471 1.70692e-19)
(0.290343 -0.259851 0)
(0.298551 -0.253967 3.4304e-19)
(0.305885 -0.24722 0)
(0.312474 -0.239925 -8.58762e-20)
(0.318431 -0.232322 8.61253e-20)
(0.323848 -0.224592 -1.71105e-19)
(0.328804 -0.216866 0)
(0.333365 -0.209236 -1.70765e-19)
(0.337584 -0.201766 1.70055e-19)
(0.341505 -0.194498 0)
(0.345163 -0.187456 0)
(0.348588 -0.180654 0)
(0.351805 -0.174095 -1.67632e-19)
(0.354834 -0.167778 0)
(0.357689 -0.161698 -1.667e-19)
(0.360385 -0.155845 3.31672e-19)
(0.362931 -0.150206 -3.30138e-19)
(0.365349 -0.144761 1.63705e-19)
(0.367619 -0.139484 3.26927e-19)
(0.369463 -0.134352 -1.76219e-19)
(-0.0105032 0.0713724 -1.43138e-19)
(-0.0208526 0.154141 4.87927e-22)
(-0.0216727 0.189025 1.42149e-19)
(-0.0147029 0.186921 2.90192e-19)
(-0.00128528 0.158661 -3.70208e-20)
(0.0171942 0.113692 -1.50441e-19)
(0.0394036 0.0597219 1.53309e-19)
(0.0640735 0.00272831 2.33226e-19)
(0.0900354 -0.0528857 7.89456e-20)
(0.116264 -0.104079 1.9873e-19)
(0.141905 -0.148963 1.61301e-19)
(0.166303 -0.186589 2.43843e-19)
(0.189001 -0.216734 4.92401e-19)
(0.209729 -0.239703 2.48344e-19)
(0.228382 -0.256139 0)
(0.244978 -0.266881 8.40373e-20)
(0.259624 -0.272838 8.35701e-20)
(0.272481 -0.274904 8.42513e-20)
(0.283743 -0.273906 1.69924e-19)
(0.293611 -0.27057 -8.56992e-20)
(0.302278 -0.265511 0)
(0.309924 -0.259233 -6.23016e-22)
(0.316709 -0.252137 -1.70666e-19)
(0.322771 -0.244535 1.70641e-19)
(0.328227 -0.236665 3.41673e-19)
(0.333174 -0.2287 3.41091e-19)
(0.337693 -0.220768 -1.70371e-22)
(0.341848 -0.212958 1.6966e-19)
(0.345692 -0.205327 1.69233e-19)
(0.349267 -0.197915 -1.68746e-19)
(0.352608 -0.190744 1.68204e-19)
(0.355742 -0.183822 1.67612e-19)
(0.358693 -0.177153 3.34607e-19)
(0.361477 -0.170733 -4.52034e-22)
(0.36411 -0.164555 4.97426e-19)
(0.366602 -0.158607 -2.1314e-22)
(0.368963 -0.152876 -1.64073e-19)
(0.371213 -0.14734 -1.63946e-19)
(0.373321 -0.141968 1.6246e-19)
(0.374995 -0.136741 1.75217e-19)
(-0.0117295 0.0706631 1.26334e-19)
(-0.0230514 0.152274 1.72729e-19)
(-0.0234853 0.18609 1.05822e-19)
(-0.0152318 0.182903 -1.08677e-19)
(6.8793e-05 0.153538 -1.84103e-19)
(0.020747 0.107477 1.50403e-19)
(0.0452401 0.0524944 0)
(0.0720961 -0.00536412 1.54466e-19)
(0.100014 -0.0616366 0)
(0.127883 -0.113248 -3.17337e-19)
(0.154807 -0.158303 8.03187e-20)
(0.18012 -0.195874 -4.05012e-19)
(0.203387 -0.225772 -1.63832e-19)
(0.224379 -0.248349 8.19659e-20)
(0.243037 -0.264295 2.53272e-22)
(0.259434 -0.274494 -8.34268e-20)
(0.273726 -0.279892 -1.68297e-19)
(0.286123 -0.281411 -3.3745e-19)
(0.296856 -0.279898 0)
(0.306156 -0.276091 -1.08001e-22)
(0.314242 -0.270611 -1.69875e-19)
(0.321312 -0.263963 -1.70584e-19)
(0.327539 -0.256544 1.70664e-19)
(0.333068 -0.248664 -1.71119e-19)
(0.33802 -0.240555 1.69874e-19)
(0.342497 -0.232385 -3.40144e-19)
(0.346578 -0.224276 -1.78736e-22)
(0.350328 -0.216311 -3.38852e-19)
(0.353798 -0.208547 -1.69232e-19)
(0.35703 -0.201016 1.95417e-22)
(0.360055 -0.193737 -4.56348e-22)
(0.3629 -0.186719 -1.67611e-19)
(0.365586 -0.17996 -1.66975e-19)
(0.368128 -0.173456 -6.64385e-22)
(0.37054 -0.167198 -1.65587e-19)
(0.372831 -0.161174 -6.699e-22)
(0.375009 -0.155367 -1.63632e-19)
(0.377093 -0.149753 4.88256e-19)
(0.379043 -0.144302 -1.62459e-19)
(0.380547 -0.138995 -1.75191e-19)
(-0.0129164 0.0698169 -1.26346e-19)
(-0.0251511 0.150078 3.43577e-20)
(-0.0251476 0.182715 -1.0591e-19)
(-0.0155558 0.178402 -3.60018e-20)
(0.00168454 0.147944 1.47244e-19)
(0.0246142 0.100849 -3.74199e-20)
(0.0514327 0.0449429 3.7983e-20)
(0.0805021 -0.0136677 -2.31615e-19)
(0.110386 -0.0704717 7.80475e-20)
(0.139887 -0.12237 1.58379e-19)
(0.168067 -0.167471 0)
(0.194258 -0.204871 3.22914e-19)
(0.218049 -0.234424 0)
(0.239253 -0.256528 -3.2855e-19)
(0.257867 -0.271926 -1.65161e-19)
(0.274018 -0.281542 0)
(0.287916 -0.286357 0)
(0.299817 -0.287322 3.36217e-19)
(0.309991 -0.285299 1.68904e-19)
(0.318703 -0.281036 -3.3826e-19)
(0.326193 -0.275156 1.69249e-19)
(0.332678 -0.268162 0)
(0.33834 -0.260449 -1.69881e-19)
(0.343332 -0.25232 3.38717e-19)
(0.347781 -0.244001 -1.69398e-19)
(0.351788 -0.235655 -1.69488e-19)
(0.355434 -0.227397 1.68904e-19)
(0.358781 -0.219305 0)
(0.36188 -0.211432 3.36306e-19)
(0.36477 -0.203806 -1.67631e-19)
(0.367483 -0.196443 -1.67339e-19)
(0.370041 -0.189349 -2.4336e-22)
(0.372465 -0.182521 6.63698e-19)
(0.374767 -0.175953 -4.95999e-19)
(0.376961 -0.169634 0)
(0.379053 -0.16355 -1.64173e-19)
(0.38105 -0.157684 -3.26343e-19)
(0.382971 -0.152009 1.617e-19)
(0.384767 -0.146491 1.61093e-19)
(0.386101 -0.14112 0)
(-0.0140577 0.068842 -2.50803e-19)
(-0.0271354 0.147565 -3.42333e-20)
(-0.0266365 0.178912 2.80327e-19)
(-0.0156499 0.173429 -2.86662e-19)
(0.00358333 0.141891 0)
(0.0288108 0.0938188 0)
(0.0579899 0.0370805 -7.57702e-20)
(0.0892913 -0.0221659 -9.76724e-23)
(0.12114 -0.0793724 7.7766e-20)
(0.152255 -0.131426 0)
(0.181657 -0.176446 0)
(0.20868 -0.21356 -8.06108e-20)
(0.232942 -0.24267 2.40591e-22)
(0.254304 -0.264226 8.22606e-20)
(0.272821 -0.279018 1.65158e-19)
(0.288679 -0.288015 0)
(0.302142 -0.29223 1.66997e-19)
(0.313514 -0.292637 -1.67342e-19)
(0.323105 -0.290112 -3.36126e-19)
(0.33121 -0.285409 3.37006e-19)
(0.338093 -0.279151 3.82808e-22)
(0.343985 -0.271839 -1.68817e-19)
(0.349079 -0.26386 1.69237e-19)
(0.353535 -0.255513 -3.38234e-19)
(0.357482 -0.247013 0)
(0.361022 -0.238519 1.68833e-19)
(0.364235 -0.23014 -3.36783e-19)
(0.367184 -0.221948 1.67889e-19)
(0.369916 -0.21399 -1.67922e-19)
(0.372469 -0.206293 -1.67221e-19)
(0.374873 -0.198869 -1.66913e-19)
(0.377148 -0.19172 6.63795e-19)
(0.379311 -0.184843 -4.96024e-19)
(0.381377 -0.17823 -3.29472e-19)
(0.383355 -0.171868 3.27588e-19)
(0.38525 -0.165742 0)
(0.38707 -0.159833 3.24967e-19)
(0.38883 -0.154112 -3.22934e-19)
(0.390472 -0.148545 -1.61093e-19)
(0.391637 -0.143125 0)
(-0.0151468 0.0677445 5.32017e-19)
(-0.028987 0.144748 2.38409e-19)
(-0.0279296 0.174696 -2.80325e-19)
(-0.0154903 0.167997 2.50872e-19)
(0.00578749 0.135391 -3.65369e-20)
(0.0333544 0.0864001 7.4248e-20)
(0.0649205 0.0289237 0)
(0.098463 -0.0308412 -7.65948e-20)
(0.132267 -0.0883195 7.74847e-20)
(0.164967 -0.140394 7.85612e-20)
(0.195548 -0.185206 -7.9246e-20)
(0.223349 -0.221921 -8.02545e-20)
(0.248024 -0.250494 8.0756e-20)
(0.269486 -0.271428 0)
(0.287852 -0.285563 0)
(0.303369 -0.293908 -1.65517e-19)
(0.316357 -0.297509 1.65905e-19)
(0.32717 -0.297358 -1.67089e-19)
(0.336156 -0.294343 1.67224e-19)
(0.343638 -0.289219 1.68074e-19)
(0.349905 -0.282608 -3.36353e-19)
(0.3552 -0.275004 3.36714e-19)
(0.359726 -0.26679 3.33294e-22)
(0.363648 -0.258253 -1.68229e-19)
(0.367097 -0.249603 0)
(0.370175 -0.240989 1.68174e-19)
(0.372962 -0.232515 2.73685e-22)
(0.375518 -0.224249 -1.67229e-19)
(0.377888 -0.216231 0)
(0.380109 -0.208485 3.33097e-19)
(0.382207 -0.20102 -3.31511e-19)
(0.384202 -0.193838 0)
(0.386109 -0.186932 3.2948e-19)
(0.387941 -0.180292 -3.27665e-19)
(0.389705 -0.173906 0)
(0.391406 -0.167756 0)
(0.393049 -0.161821 0)
(0.394651 -0.15607 -3.21962e-19)
(0.396141 -0.150468 3.19899e-19)
(0.397137 -0.145018 3.45394e-19)
(-0.0161782 0.0665321 -2.4989e-19)
(-0.0306908 0.141639 -2.72516e-19)
(-0.0290049 0.17008 -3.48747e-20)
(-0.0150529 0.162122 1.06943e-19)
(0.00831917 0.12846 -1.45432e-19)
(0.038262 0.0786096 1.48028e-19)
(0.0722348 0.0204901 -1.50384e-19)
(0.108018 -0.0396734 -2.2828e-19)
(0.143757 -0.0972914 0)
(0.178003 -0.149254 -7.82744e-20)
(0.209711 -0.193731 7.89567e-20)
(0.23823 -0.229937 0)
(0.263253 -0.257881 1.61396e-19)
(0.284753 -0.278123 -1.62228e-19)
(0.302913 -0.291554 -4.90579e-19)
(0.318042 -0.29922 -4.87035e-22)
(0.330518 -0.302196 3.31053e-19)
(0.340743 -0.301491 -1.66018e-19)
(0.349103 -0.297999 0)
(0.355952 -0.292476 0)
(0.361596 -0.285538 3.34454e-19)
(0.366294 -0.277672 1.67889e-19)
(0.370255 -0.269252 -1.67613e-19)
(0.373648 -0.260554 -1.67889e-19)
(0.376605 -0.251782 3.35193e-19)
(0.379228 -0.243077 -1.67232e-19)
(0.381596 -0.234534 3.34405e-19)
(0.383765 -0.226217 -6.66773e-19)
(0.38578 -0.218162 6.6501e-19)
(0.387674 -0.210389 -6.63008e-19)
(0.389471 -0.202905 6.60789e-19)
(0.39119 -0.195709 -6.58372e-19)
(0.392844 -0.188792 3.27671e-19)
(0.394443 -0.182145 3.26723e-19)
(0.395995 -0.175751 4.13756e-22)
(0.397504 -0.169595 4.05526e-22)
(0.398972 -0.163651 -3.21778e-19)
(0.400416 -0.157887 8.9865e-22)
(0.401757 -0.152267 -3.185e-19)
(0.402582 -0.146804 0)
(-0.0171468 0.0652112 3.10631e-20)
(-0.032232 0.138252 -3.38989e-20)
(-0.0298411 0.165081 1.04212e-19)
(-0.0143136 0.155822 -1.42058e-19)
(0.011201 0.121118 7.24255e-20)
(0.0435516 0.070467 0)
(0.0799433 0.0118008 0)
(0.117958 -0.048641 3.045e-19)
(0.155602 -0.106266 3.844e-19)
(0.191345 -0.157983 -7.78274e-20)
(0.224118 -0.202001 3.93322e-19)
(0.253286 -0.237589 -7.94481e-20)
(0.278589 -0.264817 0)
(0.300063 -0.284303 0)
(0.317959 -0.296986 3.26684e-19)
(0.332653 -0.303951 0)
(0.344581 -0.306297 1.64076e-19)
(0.354193 -0.305045 -1.65236e-19)
(0.361912 -0.301092 0)
(0.368119 -0.295193 -3.32597e-19)
(0.373138 -0.287955 -1.67369e-19)
(0.37724 -0.279857 -5.00405e-19)
(0.380642 -0.27126 -1.67287e-19)
(0.383513 -0.262432 1.66928e-19)
(0.385987 -0.253566 3.33222e-19)
(0.388164 -0.244795 0)
(0.39012 -0.236209 3.32139e-19)
(0.39191 -0.227864 6.63671e-19)
(0.393576 -0.219794 4.81689e-22)
(0.395149 -0.212014 -3.29915e-19)
(0.396651 -0.20453 -3.29255e-19)
(0.398098 -0.197338 3.27599e-19)
(0.399501 -0.190429 3.26723e-19)
(0.400871 -0.183792 -6.50256e-19)
(0.402213 -0.177409 6.47342e-19)
(0.403529 -0.171263 -3.22851e-19)
(0.404822 -0.165328 3.20382e-19)
(0.40611 -0.159567 6.37894e-19)
(0.4073 -0.153946 3.1656e-19)
(0.407954 -0.14849 3.41364e-19)
(-0.0180477 0.0637885 -2.4714e-19)
(-0.0335963 0.134602 2.35757e-19)
(-0.0304175 0.159718 -2.07173e-19)
(-0.0132491 0.149116 2.11799e-19)
(0.0144553 0.113384 3.60463e-19)
(0.049241 0.0619944 -2.93414e-19)
(0.0880562 0.00287877 3.72733e-19)
(0.128284 -0.0577199 2.26623e-19)
(0.167791 -0.11522 -5.36811e-19)
(0.204973 -0.166558 1.54649e-19)
(0.238741 -0.209995 7.72343e-20)
(0.268483 -0.244861 1.5875e-19)
(0.293992 -0.271291 1.59618e-19)
(0.315373 -0.289961 -3.21967e-19)
(0.332949 -0.301859 3.24277e-19)
(0.347162 -0.308105 4.89965e-19)
(0.358508 -0.309819 -4.93281e-19)
(0.367484 -0.30803 6.60021e-19)
(0.374549 -0.303637 3.30498e-19)
(0.380109 -0.297386 4.98759e-19)
(0.384505 -0.289877 1.65811e-19)
(0.388016 -0.281576 3.33504e-19)
(0.390866 -0.272831 -3.32307e-19)
(0.393225 -0.263901 0)
(0.395226 -0.254967 -9.9795e-19)
(0.396967 -0.246156 6.64172e-19)
(0.398521 -0.23755 -3.3163e-19)
(0.399941 -0.2292 -3.30888e-19)
(0.401266 -0.221134 -4.41751e-22)
(0.402525 -0.213367 0)
(0.403736 -0.205901 0)
(0.404914 -0.198731 3.25751e-19)
(0.40607 -0.191847 -3.25331e-19)
(0.407211 -0.185236 3.2354e-19)
(0.408344 -0.178881 -3.22464e-19)
(0.409468 -0.172762 -3.20932e-19)
(0.410586 -0.166853 0)
(0.411716 -0.161113 -3.17348e-19)
(0.412754 -0.155509 -3.16215e-19)
(0.413234 -0.15008 -1.0229e-18)
(-0.0188764 0.0622706 2.47098e-19)
(-0.0347705 0.130703 -2.35961e-19)
(-0.0307141 0.15401 2.76344e-19)
(-0.0118362 0.142026 -4.9365e-19)
(0.0181042 0.105282 -3.60202e-19)
(0.0553475 0.0532166 2.93412e-19)
(0.0965834 -0.00625018 -5.95015e-19)
(0.138995 -0.0668843 -3.02293e-19)
(0.180315 -0.124127 3.82714e-19)
(0.218868 -0.174956 -6.95914e-19)
(0.253552 -0.217693 -4.69876e-19)
(0.283786 -0.251738 -1.57574e-19)
(0.309424 -0.277292 -4.78978e-19)
(0.330642 -0.295093 4.82409e-19)
(0.34784 -0.306174 -3.24274e-19)
(0.361529 -0.311689 -3.26282e-19)
(0.372263 -0.312773 0)
(0.380583 -0.310462 -3.29387e-19)
(0.386985 -0.305649 -4.95624e-19)
(0.391895 -0.299074 1.65149e-19)
(0.395672 -0.291322 -3.31889e-19)
(0.398602 -0.282847 0)
(0.40091 -0.273984 3.32305e-19)
(0.402769 -0.264978 3.31817e-19)
(0.404309 -0.256003 -3.29623e-19)
(0.405625 -0.247175 0)
(0.406788 -0.23857 0)
(0.407848 -0.230234 0)
(0.40884 -0.222193 -1.36349e-21)
(0.40979 -0.214456 0)
(0.410716 -0.207024 -6.52091e-19)
(0.41163 -0.199892 -8.98579e-22)
(0.412541 -0.193049 -6.46975e-19)
(0.413455 -0.18648 6.44676e-19)
(0.414378 -0.180168 -3.20683e-19)
(0.415309 -0.174093 3.2004e-19)
(0.41625 -0.168226 0)
(0.417219 -0.162524 6.33082e-19)
(0.418103 -0.156955 -3.14241e-19)
(0.418406 -0.151575 0)
(-0.0196286 0.0606639 3.0717e-20)
(-0.0357415 0.126569 0)
(-0.0307116 0.147977 -3.43106e-19)
(-0.0100528 0.134575 4.22132e-19)
(0.0221691 0.0968379 2.14573e-19)
(0.0618879 0.0441605 -2.91297e-19)
(0.105534 -0.0155581 2.96966e-19)
(0.150091 -0.0761059 -3.00095e-19)
(0.193162 -0.13296 0)
(0.233008 -0.183154 3.08759e-19)
(0.268521 -0.225077 -3.1102e-19)
(0.29916 -0.258205 1.15164e-21)
(0.324845 -0.282813 0)
(0.345832 -0.299697 3.19598e-19)
(0.362596 -0.309936 -1.60406e-19)
(0.375718 -0.314712 3.24323e-19)
(0.385811 -0.315173 1.62689e-19)
(0.393461 -0.312356 -3.26901e-19)
(0.399193 -0.307148 0)
(0.403457 -0.300275 4.93666e-19)
(0.406621 -0.29231 1.64517e-19)
(0.408979 -0.283689 0)
(0.410759 -0.274735 0)
(0.412131 -0.265681 0)
(0.413223 -0.256688 3.30567e-19)
(0.414128 -0.247865 0)
(0.414911 -0.239282 -3.2901e-19)
(0.415621 -0.230979 6.5597e-19)
(0.41629 -0.222978 -6.54611e-19)
(0.416939 -0.215287 0)
(0.417585 -0.207905 3.25597e-19)
(0.418238 -0.200825 -3.22973e-19)
(0.418906 -0.194036 3.23042e-19)
(0.419593 -0.187523 0)
(0.420306 -0.181269 0)
(0.421042 -0.175252 3.18082e-19)
(0.421803 -0.169444 -3.16145e-19)
(0.422607 -0.163796 6.29645e-19)
(0.423331 -0.158282 -6.25612e-19)
(0.423452 -0.152972 0)
(-0.0203002 0.0589745 2.13702e-19)
(-0.036497 0.122217 6.67268e-20)
(-0.0303916 0.141639 2.7435e-19)
(-0.00787745 0.126789 2.79567e-19)
(0.0266703 0.0880791 -2.86222e-19)
(0.0688777 0.0348557 2.91295e-19)
(0.114915 -0.0250149 2.94807e-19)
(0.161571 -0.0853552 3.00092e-19)
(0.206321 -0.141692 0)
(0.247372 -0.191126 3.06505e-19)
(0.28362 -0.232126 3.11017e-19)
(0.314572 -0.26425 3.14151e-19)
(0.34022 -0.287847 0)
(0.360904 -0.303773 -1.17574e-21)
(0.377179 -0.313151 3.21877e-19)
(0.389696 -0.317185 -1.62005e-19)
(0.399124 -0.317033 -1.63455e-19)
(0.406091 -0.313731 4.9024e-19)
(0.411151 -0.308153 3.89539e-22)
(0.414773 -0.301012 -1.65155e-19)
(0.417334 -0.292862 -3.29318e-19)
(0.419135 -0.284124 0)
(0.420401 -0.275106 0)
(0.421302 -0.266027 0)
(0.421961 -0.257039 0)
(0.422468 -0.248242 0)
(0.422885 -0.239698 0)
(0.423256 -0.231444 3.26847e-19)
(0.423609 -0.223498 -3.2549e-19)
(0.423965 -0.215867 0)
(0.424337 -0.208547 0)
(0.424733 -0.201532 3.22973e-19)
(0.425159 -0.194809 0)
(0.425621 -0.188365 3.19699e-19)
(0.426121 -0.182181 -3.17871e-19)
(0.426659 -0.176236 0)
(0.427236 -0.170501 6.30075e-19)
(0.427869 -0.164925 -6.26134e-19)
(0.428427 -0.159483 0)
(0.428361 -0.154268 0)
(-0.0208876 0.0572084 -2.44352e-19)
(-0.0370254 0.11766 -6.65756e-20)
(-0.029736 0.135019 6.81697e-20)
(-0.00528985 0.118693 -2.79566e-19)
(0.0316268 0.0790351 0)
(0.076331 0.0253334 0)
(0.124734 -0.0345886 -2.21204e-19)
(0.17343 -0.094601 -7.45763e-20)
(0.219777 -0.150295 -1.513e-19)
(0.261937 -0.198849 -1.53673e-19)
(0.298819 -0.238823 -1.54858e-19)
(0.329986 -0.269861 1.56009e-19)
(0.355513 -0.29239 1.56829e-19)
(0.375825 -0.307325 -1.59736e-19)
(0.391558 -0.315827 0)
(0.403433 -0.319122 0)
(0.412175 -0.318373 -3.24302e-19)
(0.41845 -0.314607 0)
(0.422839 -0.308686 0)
(0.425827 -0.301305 3.25938e-19)
(0.4278 -0.292999 6.59653e-22)
(0.429057 -0.284171 -3.31249e-22)
(0.429826 -0.275114 -3.27995e-19)
(0.430273 -0.266034 3.27292e-19)
(0.430516 -0.257071 3.2657e-19)
(0.43064 -0.248318 -3.2606e-19)
(0.430704 -0.23983 0)
(0.430747 -0.23164 3.25478e-19)
(0.430795 -0.223762 4.10744e-22)
(0.430865 -0.216202 -3.23087e-19)
(0.430968 -0.208956 0)
(0.431111 -0.202015 0)
(0.431299 -0.195369 3.19708e-19)
(0.431534 -0.189003 -3.17947e-19)
(0.43182 -0.1829 -3.16777e-19)
(0.432156 -0.17704 3.14904e-19)
(0.432542 -0.171391 0)
(0.432998 -0.165901 0)
(0.433382 -0.16055 0)
(0.433124 -0.155451 -3.34218e-19)
(-0.0213871 0.0553713 3.033e-19)
(-0.0373156 0.112914 -1.3256e-19)
(-0.0287282 0.128138 6.79187e-20)
(-0.0022707 0.110316 0)
(0.0370563 0.0697369 3.54035e-19)
(0.0842598 0.0156268 5.03886e-23)
(0.134994 -0.0442452 2.92705e-19)
(0.185663 -0.103811 -2.23078e-19)
(0.233516 -0.158738 3.01249e-19)
(0.27668 -0.206298 -1.52269e-19)
(0.314089 -0.245149 0)
(0.345372 -0.275028 1.55861e-19)
(0.37069 -0.296439 -4.7153e-19)
(0.390561 -0.310356 0)
(0.405701 -0.317975 4.77985e-19)
(0.416902 -0.320539 -3.1979e-19)
(0.42494 -0.31921 -3.22453e-19)
(0.430518 -0.315005 1.6169e-19)
(0.434242 -0.30877 0)
(0.436607 -0.301178 -3.26233e-19)
(0.438005 -0.292744 -3.2641e-19)
(0.438738 -0.283853 -9.61391e-22)
(0.439029 -0.274781 3.25751e-19)
(0.439039 -0.265721 3.26501e-19)
(0.438883 -0.256802 -6.52219e-19)
(0.43864 -0.248109 3.2606e-19)
(0.438365 -0.239692 0)
(0.438092 -0.231577 -3.23223e-19)
(0.437846 -0.223779 3.22277e-19)
(0.437639 -0.216299 3.21216e-19)
(0.437479 -0.209135 -3.20048e-19)
(0.437373 -0.202277 3.18783e-19)
(0.437323 -0.195715 0)
(0.437332 -0.189435 3.16856e-19)
(0.437402 -0.183421 6.30136e-19)
(0.437531 -0.177653 -6.26965e-19)
(0.437721 -0.172101 6.24289e-19)
(0.437992 -0.166711 5.36569e-22)
(0.438194 -0.161468 -3.09072e-19)
(0.43774 -0.156509 6.67316e-19)
(-0.0217951 0.0534684 -1.8194e-19)
(-0.0373569 0.107995 -3.9574e-19)
(-0.0273522 0.121019 2.70257e-19)
(0.00119775 0.101685 -2.07298e-19)
(0.0429747 0.0602169 -7.17134e-20)
(0.0926743 0.00577086 7.187e-20)
(0.145695 -0.0539493 -1.46524e-19)
(0.198262 -0.11295 -1.48057e-19)
(0.247521 -0.166991 1.50192e-19)
(0.291576 -0.21345 -3.03734e-19)
(0.329399 -0.251088 -3.76663e-22)
(0.360696 -0.279742 1.54869e-19)
(0.385719 -0.299994 0)
(0.405081 -0.312873 -1.57972e-19)
(0.419581 -0.319608 -1.5968e-19)
(0.430079 -0.321453 3.20235e-19)
(0.437399 -0.319566 0)
(0.44228 -0.314949 0)
(0.445346 -0.308428 3.23931e-19)
(0.447102 -0.300654 -3.23972e-19)
(0.447944 -0.29212 0)
(0.448172 -0.283191 3.25346e-19)
(0.448004 -0.274127 -3.25206e-19)
(0.447597 -0.265106 -6.49831e-19)
(0.44706 -0.256248 -4.77851e-22)
(0.446466 -0.24763 3.24702e-19)
(0.445867 -0.239294 -6.45831e-19)
(0.445292 -0.231266 3.23224e-19)
(0.444761 -0.223555 -3.22278e-19)
(0.444286 -0.216164 -5.14317e-22)
(0.443871 -0.209088 8.72827e-22)
(0.44352 -0.202319 -3.18784e-19)
(0.443236 -0.195846 -3.16023e-19)
(0.443018 -0.189657 -3.14581e-19)
(0.44287 -0.183737 -1.42329e-21)
(0.442788 -0.178068 0)
(0.442774 -0.17262 -3.09847e-19)
(0.442853 -0.16734 6.18005e-19)
(0.442866 -0.162221 -9.2192e-19)
(0.442214 -0.157422 5.17245e-22)
(-0.0221083 0.0515048 -6.02799e-20)
(-0.0371393 0.102915 5.26361e-19)
(-0.0255931 0.113686 -2.70348e-19)
(0.00513157 0.0928302 2.07474e-19)
(0.0493955 0.0505089 -5.63134e-19)
(0.101582 -0.00419798 7.16041e-20)
(0.156839 -0.0636639 -2.90483e-19)
(0.211216 -0.121985 0)
(0.261771 -0.175026 0)
(0.306599 -0.22028 -3.02033e-19)
(0.344721 -0.256624 1.53163e-19)
(0.375926 -0.283996 -5.77447e-22)
(0.400569 -0.303055 1.55689e-19)
(0.419357 -0.314884 0)
(0.433174 -0.320741 -4.74435e-19)
(0.442944 -0.321884 1.58997e-19)
(0.449537 -0.319463 -3.19423e-19)
(0.453723 -0.314463 0)
(0.456141 -0.307686 0)
(0.457305 -0.299758 9.51155e-22)
(0.457611 -0.291151 -3.23211e-19)
(0.457355 -0.282207 3.23119e-19)
(0.456749 -0.27317 -3.24041e-19)
(0.455945 -0.264207 3.23346e-19)
(0.455046 -0.255425 8.89592e-22)
(0.454119 -0.246893 8.9656e-22)
(0.453211 -0.23865 3.22687e-19)
(0.452347 -0.230716 -3.20497e-19)
(0.451544 -0.223101 0)
(0.450809 -0.215804 -3.19314e-19)
(0.450146 -0.20882 3.17794e-19)
(0.449557 -0.202142 0)
(0.44904 -0.19576 3.16025e-19)
(0.448598 -0.189664 -3.13443e-19)
(0.448229 -0.18384 3.11368e-19)
(0.447933 -0.178272 0)
(0.447712 -0.172934 9.28347e-19)
(0.447592 -0.167771 -6.14631e-19)
(0.44741 -0.162788 0)
(0.446561 -0.15817 3.3182e-19)
(-0.0223234 0.0494854 4.7946e-19)
(-0.0366534 0.0976919 -2.62687e-19)
(-0.0234375 0.106161 -6.72552e-20)
(0.00954511 0.0837815 6.86948e-20)
(0.05633 0.0406483 2.81015e-19)
(0.110989 -0.0142419 0)
(0.16842 -0.0733512 2.90482e-19)
(0.224512 -0.13088 4.39904e-19)
(0.276247 -0.182812 1.48844e-19)
(0.321722 -0.226766 1.5112e-19)
(0.360023 -0.261744 1.52227e-19)
(0.391033 -0.287785 -4.626e-19)
(0.415212 -0.305626 1.55119e-19)
(0.433364 -0.316401 6.25187e-19)
(0.446458 -0.321388 1.58054e-19)
(0.455478 -0.32185 1.58403e-19)
(0.461339 -0.318923 3.19423e-19)
(0.464835 -0.31357 0)
(0.46662 -0.306567 0)
(0.467211 -0.298514 6.44524e-19)
(0.467002 -0.289858 -1.28769e-18)
(0.466284 -0.280922 -9.37065e-22)
(0.465264 -0.271932 0)
(0.464084 -0.263042 0)
(0.462842 -0.254349 3.22572e-19)
(0.4616 -0.245915 0)
(0.460399 -0.237772 0)
(0.459261 -0.22994 -3.17773e-19)
(0.458197 -0.222424 -6.36326e-19)
(0.457213 -0.215224 0)
(0.45631 -0.208335 -6.31764e-19)
(0.455488 -0.201749 -1.26006e-18)
(0.454745 -0.195459 6.27543e-19)
(0.45408 -0.189455 -6.23516e-19)
(0.453492 -0.183725 6.22118e-19)
(0.452979 -0.178258 -6.18441e-19)
(0.452546 -0.173028 -6.13953e-19)
(0.452223 -0.167987 0)
(0.451844 -0.16315 0)
(0.450805 -0.158727 0)
(-0.022437 0.0474148 -4.79462e-19)
(-0.0358905 0.0923387 0)
(-0.0208728 0.0984679 0)
(0.0144508 0.0745699 0)
(0.0637868 0.0306712 0)
(0.120895 -0.0243222 0)
(0.180433 -0.0829727 1.445e-19)
(0.238135 -0.139599 -7.33454e-19)
(0.290924 -0.190319 -4.43959e-19)
(0.336918 -0.232887 -1.50041e-19)
(0.375275 -0.266434 0)
(0.405987 -0.291104 6.12391e-19)
(0.429619 -0.307712 1.54986e-19)
(0.447079 -0.317434 -1.40386e-18)
(0.459414 -0.321569 0)