/*--------------------------------*- C++ -*----------------------------------*\
  =========                 |
  \\      /  F ield         | OpenFOAM: The Open Source CFD Toolbox
   \\    /   O peration     | Website:  https://openfoam.org
    \\  /    A nd           | Version:  7
     \\/     M anipulation  |
\*---------------------------------------------------------------------------*/
FoamFile
{
    version     2.0;
    format      ascii;
    class       volScalarField;
    location    "7.1";
    object      p;
}
// * * * * * * * * * * * * * * * * * * * * * * * * * * * * * * * * * * * * * //

dimensions      [0 2 -2 0 0 0 0];

internalField   nonuniform List<scalar> 
32000
(
0.361116
0.361574
0.361776
0.361936
0.362083
0.362242
0.362404
0.36257
0.362765
0.363023
0.363375
0.36383
0.364393
0.365063
0.365846
0.366749
0.367781
0.36895
0.370262
0.371724
0.373336
0.375098
0.377003
0.379042
0.381204
0.383481
0.385862
0.388335
0.39089
0.39351
0.396185
0.398902
0.401647
0.404409
0.407175
0.409934
0.412676
0.415398
0.418075
0.420644
0.361275
0.361696
0.361869
0.361996
0.362115
0.362252
0.362393
0.362538
0.362715
0.362954
0.363282
0.363713
0.36425
0.364894
0.36565
0.366524
0.367522
0.368651
0.36992
0.371334
0.372896
0.374604
0.376452
0.378427
0.38052
0.382722
0.385026
0.387421
0.389897
0.392439
0.395036
0.397674
0.400339
0.403021
0.405707
0.408387
0.411051
0.413696
0.416291
0.418794
0.361442
0.361822
0.361966
0.362063
0.362156
0.36227
0.362391
0.362518
0.362679
0.362903
0.363213
0.363621
0.364134
0.364755
0.365486
0.366333
0.3673
0.368395
0.369624
0.370995
0.372511
0.374169
0.375961
0.377874
0.379899
0.382028
0.384257
0.386575
0.388972
0.391436
0.393953
0.396509
0.399093
0.401693
0.404296
0.406893
0.409476
0.412039
0.41455
0.416982
0.361605
0.361936
0.362056
0.362128
0.362199
0.362292
0.362395
0.362509
0.362659
0.362872
0.363167
0.363557
0.364049
0.364648
0.365357
0.366179
0.367119
0.368183
0.369378
0.37071
0.372184
0.373795
0.375531
0.377383
0.379341
0.3814
0.383554
0.385796
0.388115
0.390499
0.392935
0.395409
0.397909
0.400423
0.402941
0.405451
0.40795
0.410428
0.412852
0.415208
0.361775
0.362059
0.362156
0.362206
0.362256
0.362329
0.362416
0.362519
0.36266
0.362864
0.363147
0.363522
0.363996
0.364576
0.365264
0.366064
0.36698
0.368017
0.369181
0.370479
0.371913
0.373478
0.375161
0.376952
0.378845
0.380835
0.382917
0.385084
0.387326
0.389629
0.391982
0.394372
0.396786
0.399213
0.401642
0.404064
0.406474
0.408865
0.411196
0.413472
0.361947
0.36218
0.362256
0.362286
0.362317
0.362372
0.362446
0.362542
0.362678
0.362876
0.363149
0.363512
0.363973
0.364537
0.365207
0.365987
0.366882
0.367895
0.369033
0.370301
0.371699
0.373218
0.374848
0.376581
0.378411
0.380335
0.382347
0.38444
0.386604
0.388826
0.391095
0.393399
0.395726
0.398063
0.400401
0.402732
0.40505
0.407349
0.409584
0.411776
0.362121
0.362305
0.362361
0.362373
0.362388
0.362428
0.362492
0.362583
0.362715
0.362909
0.363177
0.363531
0.363982
0.364533
0.365187
0.365951
0.366828
0.367821
0.368937
0.370177
0.37154
0.373015
0.374594
0.376271
0.378041
0.3799
0.381844
0.383864
0.385949
0.38809
0.390274
0.392491
0.394729
0.396975
0.399219
0.401455
0.403678
0.405881
0.408016
0.410119
0.362296
0.362432
0.36247
0.362465
0.362467
0.362497
0.362552
0.362639
0.36277
0.362962
0.363227
0.363578
0.364023
0.364563
0.365205
0.365954
0.366816
0.367795
0.368891
0.370107
0.371436
0.372869
0.374399
0.376022
0.377733
0.379531
0.381407
0.383355
0.385363
0.387421
0.38952
0.391649
0.393796
0.395948
0.398097
0.400235
0.40236
0.404462
0.406493
0.408503
0.362469
0.362557
0.362579
0.362561
0.362554
0.362575
0.362626
0.36271
0.362841
0.363034
0.363301
0.363652
0.364093
0.364626
0.365258
0.365996
0.366848
0.367814
0.368895
0.370088
0.371385
0.372778
0.374261
0.375833
0.377489
0.379226
0.381037
0.382913
0.384844
0.38682
0.388834
0.390874
0.392928
0.394984
0.397035
0.399073
0.401095
0.403094
0.405018
0.40693
0.362638
0.362679
0.362687
0.36266
0.362646
0.362663
0.36271
0.362794
0.362927
0.363124
0.363396
0.363751
0.364191
0.36472
0.365345
0.366077
0.366921
0.367879
0.368947
0.370119
0.371386
0.372741
0.374181
0.375704
0.377307
0.378985
0.380732
0.382537
0.384391
0.386287
0.388214
0.390164
0.392124
0.394083
0.396033
0.397968
0.399886
0.401778
0.403591
0.405401
0.362802
0.362797
0.362793
0.36276
0.362744
0.362758
0.362804
0.362889
0.363026
0.363231
0.363512
0.363874
0.364316
0.364844
0.365466
0.366195
0.367035
0.367987
0.369045
0.370197
0.371437
0.372758
0.374157
0.375634
0.377186
0.378807
0.380491
0.382226
0.384005
0.385819
0.387661
0.38952
0.391385
0.393246
0.395094
0.396923
0.398733
0.400515
0.402215
0.403917
0.362958
0.362909
0.362896
0.36286
0.362843
0.362858
0.362905
0.362993
0.363138
0.363353
0.363646
0.364017
0.364466
0.364996
0.36562
0.366349
0.36719
0.368138
0.369185
0.370321
0.371536
0.372825
0.374187
0.375621
0.377124
0.378691
0.380312
0.381978
0.383682
0.385416
0.387172
0.388941
0.390711
0.392471
0.394215
0.395937
0.397637
0.399306
0.40089
0.402481
0.363108
0.363014
0.362994
0.362957
0.362943
0.36296
0.363011
0.363105
0.36326
0.363489
0.363796
0.364179
0.364637
0.365174
0.365804
0.366538
0.367381
0.368326
0.369365
0.370486
0.371679
0.372941
0.374269
0.375663
0.37712
0.378633
0.380193
0.381791
0.383421
0.385075
0.386747
0.388426
0.3901
0.391759
0.393398
0.395011
0.396598
0.398153
0.39962
0.401096
0.363249
0.363112
0.363086
0.36305
0.36304
0.363062
0.36312
0.363223
0.363391
0.363636
0.363959
0.364357
0.364827
0.365376
0.366017
0.366759
0.367605
0.36855
0.369582
0.37069
0.371865
0.373102
0.3744
0.375757
0.37717
0.378631
0.380131
0.381663
0.38322
0.384797
0.386385
0.387973
0.389551
0.39111
0.392643
0.394146
0.39562
0.397058
0.398406
0.399764
0.363382
0.363203
0.363172
0.363138
0.363134
0.363163
0.363229
0.363345
0.363529
0.363791
0.364132
0.364547
0.365034
0.3656
0.366254
0.367008
0.36786
0.368804
0.369831
0.370929
0.372089
0.373305
0.374576
0.375899
0.37727
0.378681
0.380123
0.38159
0.383077
0.384578
0.386083
0.387582
0.389065
0.390522
0.391949
0.393342
0.394701
0.396023
0.397252
0.398487
0.363506
0.363287
0.363252
0.36322
0.363222
0.363259
0.363338
0.363469
0.36367
0.363952
0.364313
0.364748
0.365255
0.365841
0.366514
0.36728
0.36814
0.369086
0.370109
0.3712
0.372348
0.373546
0.374793
0.376085
0.377416
0.378779
0.380165
0.381571
0.38299
0.384416
0.38584
0.387251
0.388639
0.389996
0.391317
0.3926
0.393845
0.39505
0.39616
0.397271
0.363621
0.363363
0.363323
0.363293
0.363302
0.36335
0.363443
0.363592
0.363814
0.364116
0.364499
0.364957
0.365488
0.366097
0.366791
0.367573
0.368442
0.369391
0.370414
0.3715
0.372639
0.373823
0.375048
0.376311
0.377605
0.378922
0.380256
0.381602
0.382955
0.38431
0.385654
0.386978
0.388272
0.38953
0.390747
0.39192
0.393053
0.39414
0.395133
0.396117
0.363726
0.36343
0.363385
0.363356
0.363373
0.363434
0.363544
0.363714
0.363957
0.364283
0.364689
0.365172
0.36573
0.366366
0.367083
0.367882
0.368762
0.369718
0.370742
0.371826
0.372958
0.37413
0.375337
0.376573
0.377832
0.379106
0.38039
0.38168
0.38297
0.384254
0.38552
0.386759
0.387962
0.389123
0.390238
0.391304
0.392324
0.393297
0.394174
0.395028
0.36382
0.363488
0.363438
0.363408
0.363433
0.363509
0.363639
0.363832
0.3641
0.364449
0.364881
0.365392
0.365979
0.366643
0.367385
0.368204
0.369098
0.370062
0.371091
0.372175
0.373302
0.374465
0.375655
0.376867
0.378093
0.379327
0.380564
0.3818
0.38303
0.384246
0.385437
0.386593
0.387707
0.388774
0.389788
0.39075
0.39166
0.392519
0.393282
0.394007
0.363903
0.363536
0.363478
0.363449
0.363483
0.363575
0.363727
0.363944
0.364238
0.364615
0.365074
0.365615
0.366233
0.366927
0.367695
0.368536
0.369446
0.370421
0.371456
0.372542
0.373668
0.374822
0.375998
0.377187
0.378384
0.37958
0.380773
0.381958
0.38313
0.38428
0.385398
0.386476
0.387504
0.388479
0.389397
0.390257
0.39106
0.391808
0.392461
0.393056
0.363972
0.363571
0.363506
0.363477
0.36352
0.36363
0.363805
0.36405
0.364372
0.364776
0.365265
0.365837
0.366488
0.367214
0.36801
0.368873
0.369801
0.37079
0.371834
0.372924
0.374049
0.375197
0.376361
0.37753
0.378699
0.379861
0.381013
0.382149
0.383265
0.384352
0.385401
0.386403
0.38735
0.388237
0.389062
0.389824
0.390524
0.391164
0.391711
0.392176
0.364024
0.363591
0.363519
0.363489
0.363542
0.363671
0.363872
0.364146
0.364497
0.364932
0.365452
0.366057
0.366742
0.3675
0.368325
0.369213
0.370161
0.371165
0.37222
0.373315
0.374441
0.375585
0.376738
0.37789
0.379034
0.380164
0.381277
0.382367
0.38343
0.384458
0.385441
0.38637
0.387239
0.388043
0.38878
0.389449
0.390049
0.390585
0.391031
0.391369
0.364057
0.363592
0.363513
0.363484
0.363549
0.363699
0.363926
0.36423
0.364613
0.365079
0.365632
0.366271
0.366991
0.367782
0.368637
0.369551
0.370521
0.371542
0.372608
0.373711
0.37484
0.375981
0.377126
0.378262
0.379383
0.380483
0.381559
0.382606
0.383619
0.384591
0.385512
0.386373
0.387168
0.387893
0.388547
0.389126
0.389632
0.390069
0.39042
0.390634
0.364067
0.363573
0.363487
0.363461
0.363538
0.363709
0.363965
0.364301
0.364715
0.365214
0.365801
0.366476
0.367231
0.368056
0.368942
0.369883
0.370876
0.371915
0.372995
0.374106
0.375239
0.37638
0.377517
0.37864
0.37974
0.380813
0.381854
0.38286
0.383826
0.384745
0.385607
0.386404
0.38713
0.387781
0.388356
0.388852
0.389269
0.389613
0.389875
0.38997
0.364051
0.36353
0.363439
0.363416
0.363508
0.363702
0.363987
0.364355
0.364803
0.365335
0.365958
0.366669
0.367459
0.368318
0.369236
0.370206
0.371222
0.37228
0.373374
0.374496
0.375634
0.376775
0.377907
0.379018
0.380099
0.381146
0.382154
0.383122
0.384044
0.384912
0.385719
0.386456
0.387117
0.387699
0.388201
0.38862
0.388954
0.389212
0.389393
0.389374
0.364008
0.363462
0.363368
0.36335
0.363457
0.363676
0.36399
0.36439
0.364873
0.365441
0.366099
0.366846
0.367673
0.368567
0.369517
0.370515
0.371556
0.372634
0.373743
0.374875
0.376019
0.377163
0.37829
0.37939
0.380454
0.381476
0.382454
0.383385
0.384265
0.385086
0.38584
0.38652
0.38712
0.387638
0.388073
0.388422
0.38868
0.388859
0.388967
0.388841
0.363936
0.363367
0.363271
0.36326
0.363384
0.363628
0.363972
0.364405
0.364923
0.365527
0.366223
0.367007
0.36787
0.368798
0.36978
0.370808
0.371874
0.372972
0.374097
0.37524
0.376391
0.377536
0.37866
0.37975
0.380797
0.381796
0.382745
0.383642
0.384482
0.385258
0.385962
0.386588
0.387131
0.38759
0.387964
0.388249
0.388438
0.388546
0.388591
0.388366
0.363833
0.363244
0.363147
0.363146
0.363289
0.363557
0.363931
0.364397
0.364951
0.365593
0.366326
0.367148
0.368046
0.369009
0.370023
0.37108
0.372171
0.37329
0.37443
0.375584
0.376742
0.37789
0.379011
0.380091
0.381122
0.382099
0.383021
0.383884
0.384686
0.385418
0.386075
0.38665
0.387141
0.387546
0.387864
0.388091
0.388219
0.388265
0.388255
0.387942
0.363697
0.363091
0.362996
0.363006
0.363169
0.363462
0.363865
0.364365
0.364955
0.365636
0.366408
0.367266
0.368201
0.369197
0.370243
0.371328
0.372445
0.373584
0.374739
0.375904
0.377069
0.378219
0.379336
0.380406
0.381422
0.382378
0.383273
0.384105
0.384869
0.385559
0.38617
0.386697
0.387139
0.387494
0.387761
0.387937
0.388012
0.388003
0.38795
0.38756
0.363527
0.362907
0.362817
0.36284
0.363023
0.363342
0.363774
0.364307
0.364933
0.365653
0.366464
0.36736
0.368329
0.369359
0.370435
0.371549
0.372689
0.373848
0.375019
0.376195
0.377365
0.378516
0.379629
0.38069
0.38169
0.382625
0.383494
0.384295
0.385022
0.385671
0.386238
0.38672
0.387115
0.387423
0.387645
0.387775
0.387804
0.387751
0.387664
0.38721
0.363321
0.36269
0.362607
0.362646
0.362851
0.363195
0.363656
0.364221
0.364883
0.365641
0.366491
0.367425
0.368429
0.369491
0.370597
0.371738
0.372902
0.374079
0.375264
0.37645
0.377626
0.378777
0.379884
0.380934
0.381919
0.382834
0.383677
0.384446
0.385136
0.385745
0.386269
0.386706
0.387056
0.387321
0.387501
0.387591
0.387582
0.387493
0.387385
0.386882
0.363077
0.362439
0.362366
0.362423
0.362651
0.36302
0.363509
0.364106
0.364803
0.365599
0.366488
0.367458
0.368497
0.36959
0.370726
0.371892
0.373078
0.374273
0.375471
0.376665
0.377845
0.378994
0.380095
0.381133
0.382102
0.382996
0.383812
0.384549
0.385203
0.385771
0.386252
0.386645
0.386952
0.387175
0.387316
0.387371
0.387331
0.387216
0.387098
0.386563
0.362793
0.362152
0.362091
0.362168
0.362419
0.362815
0.363332
0.36396
0.364692
0.365524
0.366451
0.367458
0.368529
0.369653
0.370816
0.372008
0.373214
0.374425
0.375634
0.376836
0.378018
0.379164
0.380256
0.381281
0.382232
0.383103
0.383892
0.384596
0.385211
0.385738
0.386176
0.386525
0.386789
0.386971
0.387074
0.387098
0.387033
0.386902
0.386788
0.38624
0.362468
0.361828
0.361782
0.361879
0.362156
0.362578
0.363123
0.363781
0.364546
0.365415
0.366378
0.36742
0.368524
0.369676
0.370866
0.372081
0.373305
0.374531
0.37575
0.376957
0.378139
0.379279
0.380361
0.381371
0.382302
0.383148
0.383908
0.384576
0.385152
0.385636
0.386029
0.386333
0.386552
0.386692
0.386758
0.386753
0.386669
0.386532
0.386435
0.3859
0.3621
0.361464
0.361434
0.361555
0.361858
0.362307
0.362881
0.363568
0.364365
0.365269
0.366267
0.367343
0.368478
0.369658
0.370873
0.372108
0.37335
0.374587
0.375815
0.377024
0.378204
0.379336
0.380404
0.381396
0.382304
0.383124
0.38385
0.384481
0.385016
0.385455
0.385801
0.386057
0.386228
0.386323
0.38635
0.386315
0.386214
0.38608
0.386018
0.385527
0.361687
0.361058
0.361048
0.361193
0.361525
0.362002
0.362603
0.363319
0.364148
0.365085
0.366117
0.367225
0.368389
0.369595
0.370833
0.372086
0.373342
0.37459
0.375823
0.377033
0.378206
0.379327
0.380379
0.38135
0.382233
0.383022
0.383712
0.384303
0.384792
0.385183
0.385478
0.385682
0.385801
0.385845
0.385827
0.385757
0.38564
0.385513
0.385504
0.385097
0.361228
0.360611
0.360621
0.360794
0.361155
0.361661
0.362289
0.363033
0.363892
0.364862
0.365926
0.367063
0.368254
0.369485
0.370743
0.372013
0.37328
0.374535
0.37577
0.376977
0.378141
0.379247
0.380279
0.381226
0.382079
0.382834
0.383486
0.384031
0.384472
0.38481
0.38505
0.385196
0.385255
0.385239
0.385165
0.38505
0.384907
0.384786
0.384842
0.384573
0.360722
0.36012
0.360153
0.360356
0.360746
0.361281
0.361937
0.362709
0.363597
0.364597
0.365691
0.366856
0.368072
0.369325
0.3706
0.371883
0.373159
0.374418
0.375652
0.376852
0.378003
0.379091
0.380099
0.381017
0.381837
0.382554
0.383162
0.383659
0.384046
0.384327
0.384505
0.384584
0.384573
0.384485
0.384339
0.38416
0.38397
0.38384
0.383973
0.383933
0.360168
0.359584
0.359642
0.359876
0.360298
0.360862
0.361545
0.362344
0.363261
0.36429
0.365411
0.366602
0.36784
0.369111
0.370401
0.371694
0.372975
0.374234
0.375463
0.376652
0.377786
0.378851
0.379832
0.380718
0.3815
0.382174
0.382734
0.383178
0.383507
0.383725
0.383833
0.383837
0.383743
0.383564
0.38332
0.38304
0.382763
0.382593
0.382844
0.383247
0.359566
0.359005
0.35909
0.359356
0.35981
0.360402
0.361112
0.361938
0.362882
0.363938
0.365085
0.366298
0.367555
0.368841
0.370142
0.371441
0.372724
0.37398
0.375199
0.376373
0.377486
0.378524
0.379472
0.380321
0.381062
0.381688
0.382195
0.382582
0.382848
0.382996
0.383028
0.382946
0.382754
0.382461
0.382079
0.381629
0.381146
0.380756
0.380829
0.381418
0.42936
0.441346
0.450984
0.458885
0.464759
0.469539
0.473221
0.476294
0.478844
0.481075
0.483033
0.484762
0.486287
0.487657
0.488861
0.489911
0.490817
0.491603
0.49226
0.492791
0.493208
0.493527
0.493734
0.493844
0.493851
0.493749
0.493564
0.493283
0.492904
0.492432
0.491852
0.491187
0.490416
0.489547
0.488574
0.487503
0.486359
0.485104
0.483963
0.482501
0.427531
0.43931
0.449018
0.456937
0.462873
0.467698
0.471434
0.47456
0.477165
0.479437
0.481432
0.483207
0.484779
0.486177
0.487407
0.488497
0.489439
0.490242
0.490916
0.491477
0.491921
0.492256
0.492486
0.492605
0.492625
0.492547
0.492373
0.492103
0.491736
0.491271
0.49071
0.490047
0.489289
0.488431
0.487472
0.486409
0.485275
0.484031
0.482898
0.481446
0.425717
0.437276
0.447042
0.454975
0.460973
0.465843
0.469636
0.472818
0.47548
0.477797
0.479831
0.481652
0.48327
0.484697
0.485955
0.487082
0.488059
0.48888
0.489571
0.490162
0.490632
0.490982
0.491234
0.491364
0.491398
0.491343
0.491182
0.490923
0.49057
0.490113
0.489572
0.488913
0.488169
0.487323
0.486376
0.485324
0.4842
0.48297
0.481845
0.480405
0.423915
0.435244
0.445054
0.453002
0.459054
0.463978
0.467828
0.471068
0.473785
0.476155
0.478235
0.480098
0.481757
0.483219
0.48451
0.485665
0.48667
0.487518
0.488234
0.488846
0.489337
0.489705
0.489976
0.490124
0.490174
0.490136
0.489988
0.489744
0.489404
0.488962
0.488433
0.487789
0.487057
0.486222
0.485286
0.484247
0.483135
0.481917
0.480804
0.479379
0.422124
0.433214
0.443052
0.451013
0.457114
0.462097
0.466008
0.469309
0.472085
0.474511
0.476642
0.478546
0.480243
0.481743
0.483068
0.484248
0.485278
0.486156
0.486901
0.48753
0.488041
0.488429
0.488716
0.488886
0.488952
0.488927
0.488795
0.488566
0.488242
0.487816
0.487299
0.486673
0.485953
0.485128
0.484204
0.483178
0.48208
0.480875
0.479775
0.478366
0.420344
0.431189
0.441034
0.449006
0.455155
0.4602
0.464175
0.467543
0.47038
0.472865
0.475048
0.476995
0.478731
0.480268
0.481627
0.482835
0.48389
0.484797
0.485568
0.486216
0.486747
0.487154
0.487457
0.487648
0.487731
0.48772
0.487605
0.487392
0.487083
0.486674
0.48617
0.485561
0.484854
0.484042
0.483131
0.482119
0.481035
0.479844
0.478756
0.477362
0.418573
0.429169
0.438999
0.446979
0.453174
0.458285
0.46233
0.465769
0.468671
0.471217
0.473453
0.475446
0.477221
0.478796
0.480188
0.481423
0.482506
0.483439
0.484237
0.484904
0.485454
0.485881
0.4862
0.48641
0.486511
0.486516
0.486417
0.486221
0.485928
0.485536
0.485047
0.484454
0.483763
0.482964
0.482067
0.481069
0.480001
0.478823
0.477747
0.476368
0.416812
0.427155
0.436945
0.444931
0.451169
0.456351
0.460469
0.463985
0.466957
0.469568
0.471859
0.4739
0.475714
0.477326
0.478752
0.480015
0.481125
0.482084
0.482906
0.483594
0.484163
0.48461
0.484946
0.485175
0.485294
0.485314
0.485233
0.485054
0.484777
0.484402
0.48393
0.483354
0.482678
0.481894
0.481012
0.480029
0.478976
0.477813
0.476749
0.475384
0.415058
0.425148
0.434873
0.442862
0.44914
0.454396
0.458593
0.462192
0.465238
0.467917
0.470266
0.472355
0.47421
0.475859
0.477318
0.47861
0.479747
0.48073
0.481577
0.482286
0.482874
0.483341
0.483694
0.483942
0.484078
0.484116
0.484053
0.483891
0.483632
0.483274
0.482818
0.482259
0.481599
0.480832
0.479966
0.478999
0.477962
0.476814
0.475761
0.47441
0.413311
0.423149
0.43278
0.44077
0.447085
0.452418
0.4567
0.460387
0.463514
0.466264
0.468674
0.470812
0.47271
0.474395
0.475888
0.477209
0.478372
0.47938
0.48025
0.480981
0.481588
0.482075
0.482445
0.482711
0.482866
0.482921
0.482876
0.482732
0.482491
0.482151
0.481712
0.481171
0.480527
0.479778
0.478929
0.477979
0.476957
0.475824
0.474784
0.473446
0.411572
0.421161
0.430669
0.438655
0.445001
0.450416
0.454789
0.458571
0.461784
0.464609
0.467082
0.469273
0.471214
0.472936
0.474462
0.475811
0.477
0.478033
0.478926
0.479678
0.480304
0.480811
0.481198
0.481483
0.481657
0.481729
0.481703
0.481577
0.481354
0.481033
0.480611
0.480088
0.479462
0.478732
0.477901
0.476968
0.475963
0.474845
0.473817
0.472491
0.40984
0.419185
0.428538
0.436517
0.442889
0.448388
0.452858
0.456742
0.460047
0.462952
0.465492
0.467736
0.469722
0.471481
0.473041
0.474418
0.475633
0.47669
0.477605
0.478378
0.479023
0.47955
0.479955
0.480258
0.480451
0.480542
0.480535
0.480427
0.480222
0.47992
0.479516
0.479011
0.478404
0.477694
0.476881
0.475967
0.474979
0.473876
0.47286
0.471546
0.408117
0.417224
0.426389
0.434354
0.440746
0.446333
0.450905
0.454898
0.458303
0.461293
0.463904
0.466203
0.468235
0.470032
0.471625
0.47303
0.47427
0.475351
0.476287
0.477082
0.477745
0.478291
0.478715
0.479037
0.47925
0.479357
0.47937
0.479281
0.479095
0.478811
0.478426
0.477941
0.477353
0.476663
0.47587
0.474975
0.474005
0.472917
0.471913
0.47061
0.406405
0.41528
0.424222
0.432167
0.438572
0.44425
0.44893
0.45304
0.45655
0.459631
0.462316
0.464675
0.466754
0.468588
0.470213
0.471646
0.472911
0.474015
0.474972
0.475788
0.47647
0.477036
0.477479
0.477818
0.478051
0.478177
0.478208
0.478139
0.477972
0.477707
0.477341
0.476877
0.476309
0.475639
0.474868
0.473993
0.47304
0.471968
0.470976
0.469685
0.404704
0.413357
0.42204
0.429956
0.436365
0.442136
0.44693
0.451166
0.454789
0.457967
0.46073
0.46315
0.465277
0.46715
0.468807
0.470267
0.471557
0.472684
0.473661
0.474497
0.475198
0.475783
0.476245
0.476602
0.476856
0.477
0.47705
0.477001
0.476853
0.476606
0.476262
0.475819
0.475271
0.474623
0.473874
0.47302
0.472084
0.471028
0.470049
0.468769
0.403018
0.411457
0.419845
0.42772
0.434124
0.439992
0.444904
0.449273
0.453018
0.456299
0.459144
0.461629
0.463805
0.465717
0.467405
0.468893
0.470207
0.471356
0.472354
0.47321
0.473929
0.474532
0.475014
0.475389
0.475662
0.475826
0.475895
0.475865
0.475737
0.475511
0.475187
0.474766
0.47424
0.473615
0.472888
0.472055
0.471138
0.470098
0.469132
0.467863
0.40135
0.409584
0.417639
0.425462
0.431851
0.437814
0.442852
0.447362
0.451236
0.454627
0.45756
0.460113
0.462338
0.464289
0.466009
0.467524
0.468862
0.470033
0.471051
0.471926
0.472664
0.473285
0.473787
0.474178
0.474472
0.474656
0.474742
0.474733
0.474626
0.474419
0.474116
0.473719
0.473215
0.472613
0.471909
0.471098
0.470201
0.469178
0.468225
0.466967
0.399702
0.407741
0.415427
0.423182
0.429544
0.435603
0.440772
0.445431
0.449443
0.452951
0.455976
0.4586
0.460877
0.462867
0.464618
0.46616
0.467522
0.468714
0.469752
0.470646
0.471402
0.472041
0.472563
0.472971
0.473283
0.473488
0.473593
0.473603
0.473517
0.473331
0.473049
0.472676
0.472195
0.471618
0.470937
0.470149
0.469272
0.468267
0.467327
0.466081
0.398078
0.405933
0.413213
0.420882
0.427206
0.433358
0.438663
0.443478
0.447638
0.45127
0.454393
0.45709
0.459421
0.461451
0.463234
0.464803
0.466187
0.467401
0.468457
0.46937
0.470145
0.4708
0.471342
0.471768
0.472098
0.472322
0.472447
0.472475
0.47241
0.472246
0.471987
0.471637
0.471181
0.470628
0.469972
0.469207
0.468352
0.467366
0.466438
0.465204
0.396483
0.404163
0.411002
0.418563
0.424838
0.431079
0.436525
0.441504
0.44582
0.449584
0.45281
0.455584
0.45797
0.460041
0.461857
0.463452
0.464859
0.466093
0.467168
0.468098
0.468893
0.469563
0.470124
0.470568
0.470915
0.47116
0.471303
0.471351
0.471306
0.471164
0.470927
0.470602
0.470172
0.469644
0.469014
0.468274
0.467441
0.466474
0.46556
0.464338
0.39492
0.402435
0.4088
0.416231
0.422442
0.428766
0.434357
0.439508
0.443989
0.447892
0.451227
0.45408
0.456524
0.458638
0.460486
0.462108
0.463537
0.464791
0.465884
0.466831
0.467645
0.468331
0.468909
0.469373
0.469735
0.469999
0.470161
0.470228
0.470205
0.470085
0.469872
0.469571
0.469167
0.468666
0.468062
0.467347
0.466539
0.465593
0.464692
0.463482
0.393395
0.400753
0.406613
0.413888
0.420021
0.426422
0.432161
0.437489
0.442144
0.446194
0.449643
0.45258
0.455083
0.457241
0.459123
0.460771
0.462222
0.463495
0.464606
0.46557
0.4664
0.467103
0.467697
0.46818
0.468558
0.468841
0.469022
0.469108
0.469106
0.469008
0.468819
0.468544
0.468167
0.467692
0.467116
0.466429
0.465645
0.464721
0.463836
0.462637
0.391912
0.399121
0.404449
0.41154
0.417579
0.424049
0.429936
0.435449
0.440284
0.444489
0.448058
0.451083
0.453649
0.455852
0.457767
0.45944
0.460912
0.462205
0.463333
0.464313
0.46516
0.465879
0.466489
0.466991
0.467384
0.467685
0.467884
0.467991
0.468009
0.467934
0.46777
0.46752
0.467171
0.466723
0.466176
0.465518
0.464761
0.46386
0.462992
0.461804
0.390476
0.397542
0.402314
0.409191
0.415121
0.421649
0.427684
0.433386
0.438411
0.442777
0.446472
0.44959
0.452221
0.45447
0.456418
0.458117
0.45961
0.460922
0.462066
0.463062
0.463925
0.464659
0.465285
0.465804
0.466214
0.466532
0.46675
0.466875
0.466914
0.466863
0.466724
0.466499
0.466178
0.465759
0.465242
0.464614
0.463884
0.46301
0.46216
0.460984
0.389092
0.396021
0.400217
0.40685
0.412653
0.419226
0.425408
0.431302
0.436524
0.441057
0.444885
0.4481
0.450799
0.453096
0.455078
0.456802
0.458315
0.459646
0.460805
0.461816
0.462693
0.463444
0.464085
0.464621
0.465046
0.465381
0.465618
0.465761
0.465822
0.465795
0.46568
0.46548
0.465188
0.464798
0.464312
0.463716
0.463016
0.462169
0.461341
0.460177
0.387763
0.39456
0.398166
0.404521
0.410182
0.416785
0.423111
0.429197
0.434622
0.439329
0.443297
0.446613
0.449383
0.451729
0.453745
0.455495
0.457028
0.458375
0.45955
0.460576
0.461467
0.462233
0.462888
0.463441
0.463881
0.464233
0.464488
0.46465
0.464732
0.464728
0.464638
0.464464
0.4642
0.46384
0.463386
0.462824
0.462157
0.46134
0.460536
0.459384
0.386496
0.39316
0.396168
0.402212
0.407714
0.41433
0.420794
0.427073
0.432705
0.437594
0.441707
0.44513
0.447974
0.450371
0.45242
0.454196
0.455748
0.457112
0.4583
0.459341
0.460245
0.461026
0.461695
0.462264
0.46272
0.463087
0.463361
0.463542
0.463644
0.463663
0.463597
0.463448
0.463214
0.462885
0.462463
0.461936
0.461305
0.460521
0.459744
0.458607
0.385294
0.391823
0.394231
0.399932
0.405259
0.411869
0.418462
0.424933
0.430775
0.43585
0.440114
0.443648
0.44657
0.449019
0.451104
0.452905
0.454475
0.455855
0.457057
0.45811
0.459029
0.459824
0.460506
0.46109
0.461562
0.461944
0.462236
0.462435
0.462558
0.462598
0.462557
0.462434
0.462228
0.461931
0.461543
0.461053
0.46046
0.459713
0.458967
0.457846
0.384162
0.390548
0.392361
0.397688
0.402824
0.409409
0.41612
0.422778
0.428832
0.434099
0.438519
0.442169
0.445171
0.447676
0.449796
0.451622
0.45321
0.454604
0.455819
0.456885
0.457817
0.458625
0.459321
0.459918
0.460407
0.460803
0.461113
0.46133
0.461472
0.461535
0.461517
0.461419
0.461243
0.460977
0.460625
0.460174
0.459623
0.458916
0.458206
0.457104
0.383104
0.389334
0.390565
0.395491
0.400419
0.406958
0.413773
0.420612
0.426879
0.432341
0.436923
0.440693
0.443779
0.44634
0.448497
0.450348
0.451953
0.45336
0.454588
0.455666
0.456609
0.45743
0.458139
0.458749
0.459254
0.459663
0.45999
0.460226
0.460386
0.460471
0.460476
0.460404
0.460256
0.460024
0.459708
0.459297
0.458791
0.45813
0.45746
0.456382
0.382124
0.38818
0.388849
0.39335
0.398055
0.404523
0.411428
0.41844
0.424918
0.430579
0.435324
0.439219
0.442392
0.445012
0.447207
0.449083
0.450704
0.452124
0.453363
0.454451
0.455406
0.456239
0.456961
0.457582
0.458103
0.458525
0.458868
0.459122
0.459301
0.459406
0.459435
0.459388
0.459269
0.45907
0.45879
0.458421
0.457964
0.457355
0.456732
0.455682
0.381229
0.387084
0.387216
0.391273
0.395742
0.402114
0.409091
0.416265
0.422951
0.428811
0.433724
0.437748
0.441011
0.443692
0.445926
0.447825
0.449463
0.450894
0.452145
0.453242
0.454208
0.455052
0.455786
0.456418
0.456953
0.457389
0.457747
0.458019
0.458215
0.458341
0.458392
0.458371
0.45828
0.458114
0.457872
0.457547
0.457141
0.456591
0.456022
0.455008
0.380422
0.38604
0.385673
0.38927
0.39349
0.39974
0.40677
0.414094
0.420981
0.42704
0.432124
0.43628
0.439637
0.44238
0.444653
0.446576
0.44823
0.449672
0.450932
0.452039
0.453014
0.453869
0.454614
0.455257
0.455804
0.456254
0.456626
0.456916
0.457128
0.457275
0.457348
0.457351
0.457288
0.457155
0.456951
0.456672
0.456321
0.455835
0.455331
0.454362
0.379713
0.385045
0.384221
0.387348
0.391309
0.397413
0.404472
0.41193
0.419011
0.425266
0.430523
0.434814
0.438268
0.441076
0.443389
0.445336
0.447006
0.448458
0.449727
0.450842
0.451825
0.452689
0.453444
0.454097
0.454657
0.455121
0.455506
0.455813
0.456041
0.456208
0.456302
0.456329
0.456293
0.456192
0.456028
0.455795
0.455502
0.455088
0.45466
0.453749
0.379111
0.384094
0.382865
0.385517
0.389208
0.395142
0.402206
0.409782
0.417044
0.423492
0.428923
0.433352
0.436906
0.43978
0.442134
0.444105
0.445791
0.447251
0.448528
0.449652
0.450641
0.451514
0.452278
0.452941
0.453512
0.453988
0.454386
0.45471
0.454955
0.45514
0.455254
0.455305
0.455295
0.455226
0.455099
0.454914
0.454682
0.454347
0.45401
0.453174
0.37863
0.383184
0.381604
0.383786
0.387199
0.392939
0.399983
0.407656
0.415086
0.421723
0.427327
0.431895
0.435551
0.438493
0.440889
0.442884
0.444585
0.446054
0.447337
0.448467
0.449463
0.450343
0.451115
0.451787
0.452368
0.452858
0.453267
0.453607
0.453868
0.45407
0.454204
0.454277
0.454293
0.454254
0.454166
0.454029
0.453859
0.45361
0.453379
0.452645
0.378283
0.382314
0.380444
0.382164
0.385292
0.390817
0.397815
0.405564
0.413149
0.419967
0.42574
0.430447
0.434207
0.437216
0.439656
0.441675
0.443389
0.444866
0.446154
0.44729
0.448291
0.449177
0.449956
0.450637
0.451227
0.451728
0.45215
0.452504
0.452781
0.452999
0.453152
0.453246
0.453287
0.453278
0.453226
0.453137
0.453033
0.452875
0.452767
0.452172
0.37808
0.381488
0.379395
0.380667
0.383506
0.388789
0.395709
0.403499
0.411213
0.418197
0.424134
0.42898
0.432846
0.435927
0.438412
0.440459
0.442188
0.443673
0.444967
0.446108
0.447113
0.448006
0.448792
0.44948
0.450079
0.450593
0.451027
0.451394
0.451687
0.45192
0.452092
0.452206
0.452271
0.452291
0.452276
0.452235
0.452196
0.452136
0.452169
0.451765
0.378077
0.380685
0.378426
0.379261
0.3818
0.386803
0.393591
0.401378
0.409189
0.416329
0.422432
0.427425
0.431409
0.434574
0.437115
0.439197
0.440948
0.442446
0.44375
0.444898
0.445911
0.446811
0.447605
0.448303
0.448912
0.449438
0.449886
0.450267
0.450576
0.450825
0.451015
0.45115
0.451239
0.451288
0.451309
0.451315
0.451342
0.451384
0.45158
0.451438
0.378701
0.379926
0.377402
0.37778
0.38
0.384718
0.391385
0.399197
0.407141
0.414467
0.420759
0.425917
0.430029
0.433281
0.435878
0.437992
0.439758
0.441265
0.442572
0.443723
0.444739
0.445642
0.446441
0.447145
0.447763
0.448299
0.448757
0.449149
0.449472
0.449734
0.44994
0.450093
0.450202
0.450277
0.45033
0.45038
0.450467
0.450609
0.450976
0.451189
0.38195
0.378082
0.373829
0.372584
0.373816
0.377987
0.384751
0.393115
0.401834
0.409951
0.41693
0.422611
0.427074
0.430513
0.433161
0.435236
0.436915
0.438323
0.439543
0.440622
0.441587
0.442451
0.443225
0.443913
0.444523
0.445059
0.445526
0.445927
0.446268
0.446552
0.446786
0.446976
0.44713
0.447262
0.447388
0.447535
0.447755
0.448133
0.448952
0.450378
0.37048
0.367362
0.364121
0.363813
0.36583
0.370414
0.377381
0.385816
0.39455
0.402668
0.409665
0.415388
0.419915
0.423433
0.426168
0.428329
0.430086
0.431563
0.432842
0.433971
0.434982
0.435891
0.436709
0.437443
0.4381
0.438684
0.439199
0.439649
0.44004
0.440373
0.440657
0.440898
0.441105
0.441293
0.441482
0.441706
0.442029
0.442581
0.443717
0.445691
0.357203
0.356157
0.354819
0.356104
0.359249
0.364325
0.371304
0.379494
0.387905
0.395738
0.402536
0.408156
0.412654
0.416196
0.418986
0.421218
0.423049
0.424596
0.425938
0.427124
0.428186