/*--------------------------------*- C++ -*----------------------------------*\
  =========                 |
  \\      /  F ield         | OpenFOAM: The Open Source CFD Toolbox
   \\    /   O peration     | Website:  https://openfoam.org
    \\  /    A nd           | Version:  7
     \\/     M anipulation  |
\*---------------------------------------------------------------------------*/
FoamFile
{
    version     2.0;
    format      ascii;
    class       volVectorField;
    location    "7.1";
    object      U;
}
// * * * * * * * * * * * * * * * * * * * * * * * * * * * * * * * * * * * * * //

dimensions      [0 1 -1 0 0 0 0];

internalField   nonuniform List<vector> 
32000
(
(0.000164527 -0.00320972 -3.13372e-22)
(0.000895109 -0.00492173 0)
(0.00222821 -0.00259291 -2.80196e-21)
(0.00389472 0.00277154 0)
(0.00586828 0.0104791 2.91884e-21)
(0.00810559 0.0200251 0)
(0.0105858 0.031018 3.01561e-21)
(0.013297 0.0431481 -2.29246e-21)
(0.0162282 0.0561711 4.8307e-25)
(0.0193674 0.0698876 6.56588e-25)
(0.0227003 0.0841351 -7.89168e-22)
(0.0262116 0.0987771 3.1852e-21)
(0.0298847 0.113696 0)
(0.0337013 0.128789 -8.09147e-22)
(0.0376418 0.14396 8.12507e-22)
(0.0416855 0.159125 0)
(0.0458101 0.174202 4.11135e-21)
(0.0499932 0.189114 -8.24818e-22)
(0.0542125 0.203791 0)
(0.0584454 0.218164 1.66983e-21)
(0.0626698 0.23217 1.67425e-21)
(0.0668645 0.245749 0)
(0.071009 0.258847 0)
(0.0750842 0.271414 0)
(0.0790727 0.283406 0)
(0.0829588 0.294786 0)
(0.0867284 0.305521 0)
(0.0903689 0.315585 0)
(0.0938704 0.324957 -3.42176e-21)
(0.0972249 0.333623 0)
(0.100427 0.341574 3.43551e-21)
(0.103472 0.348806 0)
(0.10636 0.355317 0)
(0.109091 0.36111 0)
(0.111667 0.36619 -3.45408e-21)
(0.114094 0.370557 -1.73734e-21)
(0.116379 0.37421 5.20319e-21)
(0.118538 0.377137 4.28647e-24)
(0.120568 0.379343 3.47666e-21)
(0.122358 0.380825 3.4135e-24)
(0.000216657 -0.00336775 0)
(0.00090728 -0.00532878 5.47024e-21)
(0.00205309 -0.00321612 1.40015e-21)
(0.00343397 0.00195443 -4.87481e-25)
(0.00504468 0.0094768 -1.45924e-21)
(0.00686292 0.0188389 0)
(0.00888233 0.0296466 3.01487e-21)
(0.0111024 0.0415888 -3.05591e-21)
(0.0135208 0.0544222 0)
(0.0161318 0.067948 -6.25303e-21)
(0.0189277 0.0820049 0)
(0.021898 0.0964588 -9.55243e-21)
(0.0250295 0.111195 0)
(0.0283076 0.126111 0)
(0.031716 0.141115 3.2553e-21)
(0.0352361 0.156123 -3.26579e-21)
(0.0388484 0.171056 -3.2875e-21)
(0.0425336 0.185839 0)
(0.0462712 0.200401 9.95054e-21)
(0.0500406 0.214677 -3.32236e-21)
(0.0538222 0.228603 5.64867e-24)
(0.0575964 0.242121 -1.00464e-20)
(0.0613438 0.255176 -6.7229e-21)
(0.065047 0.267719 -3.38332e-21)
(0.06869 0.279705 1.01366e-20)
(0.0722578 0.291097 -1.01831e-20)
(0.0757367 0.30186 1.0216e-20)
(0.0791149 0.311969 -1.36106e-20)
(0.0823825 0.321401 -3.40486e-21)
(0.0855314 0.33014 3.13403e-23)
(0.0885552 0.338175 -1.02415e-20)
(0.09145 0.345501 -6.84909e-21)
(0.0942137 0.352113 1.37752e-20)
(0.0968462 0.358013 -1.37444e-20)
(0.0993491 0.363201 -3.42959e-21)
(0.101726 0.367678 -1.381e-20)
(0.103983 0.371441 -9.20726e-24)
(0.106135 0.374475 3.46636e-21)
(0.108168 0.376787 -1.3769e-20)
(0.109971 0.378375 -1.97263e-20)
(0.000275527 -0.00352345 -1.25484e-21)
(0.000935382 -0.00572952 -2.73505e-21)
(0.00189756 -0.00380854 -1.2611e-20)
(0.00299699 0.00118634 0)
(0.00425098 0.00853606 1.4595e-21)
(0.00565691 0.0177231 -1.48433e-21)
(0.00722318 0.0283509 -1.80893e-20)
(0.00896144 0.0401082 6.11218e-21)
(0.010878 0.0527511 -3.09393e-21)
(0.012973 0.0660835 1.87552e-20)
(0.0152445 0.0799465 6.31299e-21)
(0.0176868 0.0942073 3.18601e-21)
(0.0202904 0.108753 -1.28301e-20)
(0.0230434 0.123484 0)
(0.0259325 0.138311 0)
(0.0289422 0.153152 6.54457e-21)
(0.0320553 0.167929 1.84352e-23)
(0.0352542 0.18257 -6.58868e-21)
(0.0385211 0.197004 -6.62859e-21)
(0.0418376 0.211168 -1.32976e-20)
(0.0451853 0.224999 2.00344e-20)
(0.0485463 0.238439 1.87917e-23)
(0.0519032 0.251434 -1.26415e-23)
(0.0552395 0.263935 6.72107e-21)
(0.0585404 0.275898 -1.35376e-20)
(0.0617919 0.287284 2.70712e-20)
(0.0649811 0.298058 0)
(0.0680964 0.308194 6.81216e-21)
(0.0711279 0.317668 6.82655e-21)
(0.0740676 0.326463 1.36925e-20)
(0.076909 0.334566 3.13391e-23)
(0.0796477 0.341969 0)
(0.0822808 0.348668 6.89392e-21)
(0.0848073 0.35466 -6.81078e-21)
(0.087228 0.359945 -6.83663e-21)
(0.0895452 0.364521 2.06808e-20)
(0.0917646 0.368383 -2.05467e-20)
(0.093899 0.371517 1.3794e-20)
(0.0959218 0.373931 -2.05366e-20)
(0.0977267 0.375624 7.7922e-21)
(0.000339401 -0.00364196 1.00402e-20)
(0.000973472 -0.00604612 -1.09473e-20)
(0.00175344 -0.00429821 2.24231e-20)
(0.00257345 0.000532189 0)
(0.0034738 0.00771488 8.75709e-21)
(0.00447339 0.0167284 1.48465e-20)
(0.00559524 0.0271742 3.01493e-21)
(0.00686135 0.0387429 1.10934e-24)
(0.0082867 0.0511899 9.27899e-21)
(0.00987837 0.064322 -3.1279e-21)
(0.0116393 0.0779819 1.57777e-20)
(0.0135676 0.0920398 -1.91006e-20)
(0.0156577 0.106385 1.92399e-20)
(0.017901 0.12092 -6.46432e-21)
(0.0202864 0.135559 6.49124e-21)
(0.0228006 0.15022 -1.30644e-20)
(0.0254287 0.164828 -1.97033e-20)
(0.0281555 0.179312 6.58515e-21)
(0.0309649 0.193604 -6.6334e-21)
(0.0338404 0.207641 1.99318e-20)
(0.0367654 0.221361 -1.33444e-20)
(0.0397233 0.234707 -1.33759e-20)
(0.0426981 0.247626 0)
(0.0456747 0.260069 0)
(0.0486396 0.271991 -1.34845e-20)
(0.0515793 0.283354 -1.35364e-20)
(0.0544817 0.294123 -1.35436e-20)
(0.0573356 0.304269 0)
(0.0601315 0.313768 0)
(0.0628611 0.322603 -2.72856e-20)
(0.0655179 0.330757 -8.52728e-23)
(0.0680969 0.338223 1.36838e-20)
(0.0705947 0.344994 -1.36364e-20)
(0.0730096 0.351066 -1.3733e-20)
(0.0753414 0.356435 1.36995e-20)
(0.0775914 0.3611 0)
(0.0797641 0.365053 1.37271e-20)
(0.0818707 0.368282 -2.74112e-20)
(0.0838726 0.370793 2.737e-20)
(0.0856664 0.372592 -3.13372e-20)
(0.000406478 -0.00374582 -5.01788e-21)
(0.00101898 -0.00632432 8.211e-21)
(0.00161843 -0.00472894 -1.12128e-20)
(0.00216184 -4.91854e-05 0)
(0.0027136 0.00697578 -1.45957e-20)
(0.00331302 0.0158209 -8.90828e-21)
(0.00399833 0.026087 1.20597e-20)
(0.00480247 0.0374657 0)
(0.0057484 0.0497143 -1.85582e-20)
(0.00684932 0.0626415 -6.25364e-21)
(0.0081131 0.0760929 -6.30845e-21)
(0.00954233 0.089941 1.2738e-20)
(0.0111345 0.104078 -1.28275e-20)
(0.0128831 0.118409 6.4516e-21)
(0.0147799 0.132849 0)
(0.0168142 0.147319 1.96036e-20)
(0.0189726 0.161747 6.57365e-21)
(0.0212418 0.176063 -1.32042e-20)
(0.0236076 0.1902 2.64741e-20)
(0.0260555 0.204097 -2.65706e-20)
(0.0285699 0.217692 2.6628e-20)
(0.0311357 0.23093 1.33759e-20)
(0.0337384 0.243757 0)
(0.0363644 0.256126 1.34771e-20)
(0.0390008 0.267992 4.26164e-23)
(0.0416351 0.279316 0)
(0.0442557 0.290063 1.35436e-20)
(0.046852 0.300203 -1.35963e-20)
(0.0494145 0.309712 1.35398e-20)
(0.0519352 0.31857 2.72539e-20)
(0.0544072 0.326762 -2.72321e-20)
(0.0568253 0.334277 2.72363e-20)
(0.0591854 0.341106 0)
(0.0614852 0.347244 0)
(0.0637233 0.352688 2.73074e-20)
(0.0658999 0.357431 0)
(0.0680188 0.361469 0)
(0.070089 0.364786 -2.73189e-20)
(0.0720604 0.367393 2.71949e-20)
(0.0738326 0.369296 1.5653e-20)
(0.000475157 -0.00382367 2.51177e-21)
(0.00106777 -0.00654082 0)
(0.00148781 -0.00507662 2.24379e-20)
(0.00175674 -0.000534202 2.86481e-21)
(0.00196365 0.00633985 2.92029e-21)
(0.00216944 0.0150193 1.78214e-20)
(0.00242698 0.0251056 2.41234e-20)
(0.00277935 0.0362917 0)
(0.00325749 0.0483374 6.18744e-21)
(0.00388103 0.061054 1.87585e-20)
(0.00466237 0.0742899 2.52463e-20)
(0.00560761 0.0879206 -6.36879e-21)
(0.00671725 0.10184 -1.92429e-20)
(0.00798762 0.115957 0)
(0.00941253 0.130188 2.59787e-20)
(0.010983 0.144457 0)
(0.0126877 0.158693 3.9383e-20)
(0.0145151 0.172828 -1.31608e-20)
(0.0164528 0.186798 0)
(0.0184873 0.20054 -1.33027e-20)
(0.0206046 0.213997 -2.8999e-23)
(0.0227911 0.227112 -1.33246e-20)
(0.0250336 0.239833 -1.3368e-20)
(0.0273196 0.252113 1.34628e-20)
(0.029637 0.263908 -1.34276e-20)
(0.0319742 0.275177 0)
(0.0343201 0.285887 -1.35491e-20)
(0.0366646 0.296006 1.34974e-20)
(0.0389982 0.305509 0)
(0.0413132 0.314376 0)
(0.0436027 0.322591 0)
(0.0458609 0.330141 -2.72728e-20)
(0.048083 0.337016 2.71288e-20)
(0.050266 0.34321 0)
(0.0524078 0.348717 -1.36322e-20)
(0.0545071 0.353531 0)
(0.0565666 0.357646 2.72855e-20)
(0.0585935 0.361049 -1.34936e-20)
(0.0605263 0.363749 -2.72381e-20)
(0.0622674 0.365759 3.10634e-20)
(0.000544013 -0.00387976 1.75955e-20)
(0.0011168 -0.00670251 -2.46555e-20)
(0.00135772 -0.00534876 -4.2077e-20)
(0.00135444 -0.000931428 -2.29256e-20)
(0.00122137 0.00579899 -5.84086e-21)
(0.0010403 0.0143161 -1.18791e-20)
(0.000878835 0.0242222 -5.42805e-20)
(0.000790583 0.0352133 -1.83394e-20)
(0.000813859 0.0470521 -3.09325e-20)
(0.000974014 0.0595526 -3.12632e-20)
(0.00128796 0.0725665 -4.41855e-20)
(0.00176534 0.0859722 -2.5462e-20)
(0.00240927 0.0996667 -1.7544e-24)
(0.00321827 0.11356 -2.58248e-20)
(0.00418833 0.127573 -2.59786e-20)
(0.00531229 0.14163 -3.91901e-20)
(0.00658058 0.155663 2.62403e-20)
(0.00798296 0.169606 -1.31585e-20)
(0.00950856 0.183396 0)
(0.0111453 0.196972 2.65441e-20)
(0.0128804 0.210277 0)
(0.0147016 0.223256 5.34167e-20)
(0.0165971 0.235858 0)
(0.0185553 0.248035 -1.34507e-20)
(0.0205649 0.259744 1.34924e-20)
(0.022615 0.270944 -2.68781e-20)
(0.0246951 0.281602 0)
(0.0267953 0.291685 -2.71014e-20)
(0.0289067 0.301169 2.69887e-20)
(0.0310214 0.310032 0)
(0.0331326 0.318256 0)
(0.0352337 0.325828 0)
(0.0373197 0.332738 -2.71085e-20)
(0.0393865 0.338977 0)
(0.041431 0.344539 -2.72177e-20)
(0.0434507 0.349417 5.4264e-20)
(0.0454473 0.353604 -5.42318e-20)
(0.0474254 0.357089 2.69017e-20)
(0.0493131 0.359882 5.4122e-20)
(0.0510149 0.362001 -3.09745e-20)
(0.000611383 -0.00391244 -2.26224e-20)
(0.00116252 -0.00680802 -7.61001e-24)
(0.00122438 -0.00554433 2.2444e-20)
(0.000951165 -0.00123926 4.58567e-20)
(0.000482926 0.00535413 -5.84199e-21)
(-7.74394e-05 0.013711 -2.37698e-20)
(-0.000647972 0.0234367 2.41253e-20)
(-0.00116504 0.0342302 3.6681e-20)
(-0.00158316 0.0458577 1.23721e-20)
(-0.00187126 0.0581366 3.12673e-20)
(-0.00200836 0.0709222 2.52487e-20)
(-0.00198189 0.0840957 3.81885e-20)
(-0.00178622 0.0975567 7.69665e-20)
(-0.00142057 0.111218 3.87495e-20)
(-0.00088706 0.125003 0)
(-0.000191333 0.138839 1.30428e-20)
(0.000658527 0.152659 1.31051e-20)
(0.00165373 0.166399 1.31565e-20)
(0.00278464 0.179998 2.6453e-20)
(0.0040403 0.193396 -1.32521e-20)
(0.00540939 0.206537 0)
(0.00688091 0.219367 -8.50243e-24)
(0.00844404 0.231836 -2.67575e-20)
(0.0100881 0.243897 2.68141e-20)
(0.0118025 0.255507 5.37473e-20)
(0.0135772 0.266625 5.38919e-20)
(0.015402 0.277216 5.34769e-23)
(0.0172674 0.287251 2.69769e-20)
(0.019165 0.296702 2.70029e-20)
(0.0210869 0.305548 -2.7023e-20)
(0.0230258 0.313769 2.70371e-20)
(0.0249748 0.321353 2.70451e-20)
(0.0269283 0.328286 5.41553e-20)
(0.0288815 0.334561 -1.06191e-22)
(0.03083 0.340169 8.11602e-20)
(0.0327699 0.345105 3.31948e-23)
(0.0347015 0.349361 -2.69855e-20)
(0.0366272 0.352926 -2.70465e-20)
(0.038465 0.355814 2.69119e-20)
(0.0401209 0.358044 3.09041e-20)
(0.000675939 -0.00392186 2.01272e-20)
(0.00120193 -0.00685741 2.74053e-20)
(0.00108412 -0.00566342 1.6844e-20)
(0.000543324 -0.00145887 -1.71976e-20)
(-0.000254761 0.00500363 -2.92185e-20)
(-0.00118628 0.0132025 2.37689e-20)
(-0.00215524 0.0227472 0)
(-0.00308829 0.0333402 2.44625e-20)
(-0.00393313 0.0447521 0)
(-0.00465341 0.0568043 -5.00366e-20)
(-0.00522435 0.0693552 1.26338e-20)
(-0.00563074 0.0822892 -6.36661e-20)
(-0.00586469 0.095509 -2.5657e-20)
(-0.00592332 0.108931 1.29318e-20)
(-0.00580709 0.122479 2.4365e-23)
(-0.00552029 0.136084 -1.30465e-20)
(-0.00506964 0.149681 -2.62409e-20)
(-0.00446269 0.163208 -5.2706e-20)
(-0.00370799 0.176605 0)
(-0.00281536 0.189814 4.5628e-23)
(-0.0017949 0.202779 -2.65731e-20)
(-0.000656352 0.215449 -2.66936e-20)
(0.000590421 0.227773 2.67576e-20)
(0.00193548 0.239706 -2.68775e-20)
(0.00336902 0.251203 2.68489e-20)
(0.00488144 0.262226 -5.37422e-20)
(0.00646325 0.272739 5.29699e-23)
(0.00810535 0.282713 -5.38721e-20)
(0.00979933 0.292118 -2.70029e-20)
(0.0115375 0.300935 -4.90762e-23)
(0.0133121 0.309143 -9.40233e-23)
(0.015116 0.316727 -2.70452e-20)
(0.0169428 0.323675 -2.70468e-20)
(0.0187868 0.329977 -6.37521e-23)
(0.0206424 0.335625 -2.70297e-20)
(0.0225041 0.340613 -7.65977e-23)
(0.0243707 0.344935 -2.70346e-20)
(0.0262424 0.348581 8.05462e-20)
(0.0280272 0.351565 -2.69121e-20)
(0.0296324 0.353912 -3.0934e-20)
(0.000736439 -0.00390783 -2.01273e-20)
(0.0012323 -0.00685096 5.48326e-21)
(0.000933515 -0.00570722 -1.68422e-20)
(0.000127422 -0.00159179 -5.73527e-21)
(-0.000994605 0.0047457 2.33752e-20)
(-0.00228827 0.0127884 -5.94465e-21)
(-0.00364417 0.0221509 6.03427e-21)
(-0.00497947 0.0325406 -3.66972e-20)
(-0.00623524 0.0437328 1.23774e-20)
(-0.00737039 0.055553 2.5021e-20)
(-0.00835691 0.0678631 0)
(-0.00917712 0.080551 5.09517e-20)
(-0.00982084 0.0935224 0)
(-0.0102835 0.106696 -5.16747e-20)
(-0.0105642 0.12 -2.59933e-20)
(-0.0106659 0.133366 0)
(-0.0105941 0.146731 0)
(-0.0103553 0.160035 5.27152e-20)
(-0.00995719 0.17322 2.64968e-20)
(-0.00940842 0.186229 -5.30881e-20)
(-0.00871779 0.199008 2.65743e-20)
(-0.00789408 0.211506 0)
(-0.00694639 0.223674 -2.68012e-20)
(-0.00588381 0.235467 5.35918e-20)
(-0.00471542 0.24684 -2.67851e-20)
(-0.00345036 0.257756 -2.69413e-20)
(-0.00209766 0.26818 2.68486e-20)
(-0.000665975 0.27808 0)
(0.000836463 0.287429 5.39589e-20)
(0.00240179 0.296205 -2.68985e-20)
(0.00402217 0.304389 -2.70379e-20)
(0.00568979 0.311964 -1.35132e-22)
(0.00739757 0.318918 1.07888e-19)
(0.00913892 0.32524 -8.0738e-20)
(0.0109068 0.330923 0)
(0.012694 0.33596 -2.69344e-20)
(0.0144976 0.340346 -5.38508e-20)
(0.0163154 0.344074 2.66496e-20)
(0.0180465 0.347157 2.6723e-20)
(0.0195977 0.349628 0)
(0.000791567 -0.00387035 -4.02901e-20)
(0.00125077 -0.00678953 -5.48535e-21)
(0.000769279 -0.00567712 4.494e-20)
(-0.0002995 -0.00163986 -4.5899e-20)
(-0.00173916 0.00457778 0)
(-0.0033854 0.0124656 0)
(-0.00511564 0.0216448 -1.20738e-20)
(-0.00683815 0.0318285 -3.73406e-24)
(-0.00848807 0.0427969 1.23807e-20)
(-0.0100199 0.0543799 0)
(-0.0114025 0.0664437 0)
(-0.012616 0.0788791 -1.273e-20)
(-0.0136486 0.0915954 1.70861e-23)
(-0.014494 0.104514 1.29278e-20)
(-0.01515 0.117565 2.59932e-20)
(-0.0156186 0.130684 0)
(-0.0159042 0.143809 2.62893e-20)
(-0.0160124 0.156881 -2.62888e-20)
(-0.0159499 0.169845 -5.29271e-20)
(-0.0157244 0.182644 5.30991e-20)
(-0.0153436 0.195228 9.1742e-23)
(-0.0148155 0.207544 -2.66415e-20)
(-0.0141481 0.219546 2.67979e-20)
(-0.01335 0.231187 -5.35362e-20)
(-0.0124296 0.242426 0)
(-0.0113956 0.253224 2.69266e-20)
(-0.0102565 0.263547 -5.37885e-20)
(-0.00902063 0.273363 2.68519e-20)
(-0.00769605 0.282645 -2.69396e-20)
(-0.00629074 0.291371 -2.69964e-20)
(-0.0048129 0.299521 -2.7125e-20)
(-0.00327078 0.307078 1.077e-19)
(-0.00167227 0.31403 -8.063e-20)
(-2.50768e-05 0.320367 -5.3906e-20)
(0.00166232 0.32608 5.35976e-20)
(0.0033808 0.331164 0)
(0.00512558 0.335614 5.36887e-20)
(0.00689173 0.339425 -5.33527e-20)
(0.00857048 0.342613 -2.6723e-20)
(0.010067 0.345214 0)
(0.000840115 -0.00380977 8.56336e-20)
(0.00125485 -0.00667413 3.84147e-20)
(0.000588476 -0.00557486 -4.49397e-20)
(-0.000740449 -0.00160571 4.01608e-20)
(-0.00249082 0.00449671 -5.84775e-21)
(-0.00447895 0.0122309 1.18945e-20)
(-0.00657001 0.0212255 0)
(-0.00866387 0.0312002 -1.22416e-20)
(-0.0106899 0.0419407 1.23843e-20)
(-0.0125987 0.0532821 1.25249e-20)
(-0.0143567 0.0650941 -1.26345e-20)
(-0.0159422 0.0772713 -1.27548e-20)
(-0.0173414 0.0897263 1.28349e-20)
(-0.0185468 0.102384 0)
(-0.0195554 0.115175 0)
(-0.0203681 0.128039 -2.61744e-20)
(-0.0209883 0.140916 2.62363e-20)
(-0.0214211 0.153749 -2.64128e-20)
(-0.0216721 0.166483 2.64344e-20)
(-0.0217481 0.179065 2.66004e-20)
(-0.0216559 0.191443 -5.32637e-20)
(-0.0214026 0.203568 5.339e-20)
(-0.0209956 0.215393 9.99264e-23)
(-0.0204426 0.226874 -2.67411e-20)
(-0.0197517 0.237969 0)
(-0.0189309 0.248639 2.69162e-20)
(-0.0179884 0.25885 1.16169e-22)
(-0.0169321 0.268572 -2.68369e-20)
(-0.01577 0.277778 0)
(-0.0145103 0.286444 5.39307e-20)
(-0.0131614 0.294552 -5.36739e-20)
(-0.0117321 0.302084 0)
(-0.0102313 0.309028 5.38502e-20)
(-0.00866765 0.315374 -5.35535e-20)
(-0.0070514 0.321113 0)
(-0.00539361 0.326242 0)
(-0.00370126 0.330757 0)
(-0.00198197 0.334656 -5.34162e-20)
(-0.000351636 0.337954 5.30739e-20)
(0.00109179 0.340694 6.13973e-20)
(0.000880887 -0.00372642 -4.03066e-20)
(0.00124196 -0.00650603 -4.39018e-20)
(0.000388178 -0.00540278 -5.61945e-21)
(-0.00119793 -0.00149235 1.7219e-20)
(-0.00325148 0.00449912 -2.33974e-20)
(-0.00557017 0.0120804 2.37967e-20)
(-0.00800743 0.020889 -2.41591e-20)
(-0.0104554 0.0306518 -3.67384e-20)
(-0.0128384 0.0411608 0)
(-0.0151036 0.0522559 -1.25298e-20)
(-0.0172152 0.0638112 1.26394e-20)
(-0.0191497 0.0757251 0)
(-0.020892 0.0879133 2.57165e-20)
(-0.0224337 0.100303 -2.58498e-20)
(-0.0237708 0.11283 -7.81058e-20)
(-0.0249035 0.125433 -5.62383e-23)
(-0.0258346 0.138054 5.25637e-20)
(-0.0265682 0.15064 -2.63549e-20)
(-0.0271092 0.163137 0)
(-0.0274636 0.175493 0)
(-0.0276374 0.187659 5.32954e-20)
(-0.027637 0.199584 2.67496e-20)
(-0.027469 0.211225 -2.67058e-20)
(-0.0271405 0.222536 -2.68473e-20)
(-0.0266591 0.233477 5.366e-20)
(-0.0260323 0.24401 -2.6801e-20)
(-0.0252679 0.254101 5.38579e-20)
(-0.0243734 0.26372 -1.07532e-19)
(-0.0233568 0.272841 1.07542e-19)
(-0.0222264 0.281439 -1.07523e-19)
(-0.0209911 0.289497 1.07475e-19)
(-0.0196603 0.296996 -1.07397e-19)
(-0.0182434 0.303926 5.35302e-20)
(-0.0167508 0.310276 5.36888e-20)
(-0.0151941 0.31604 2.21102e-22)
(-0.0135867 0.321213 2.16321e-22)
(-0.0119378 0.325795 -5.31759e-20)
(-0.0102581 0.329785 1.70736e-22)
(-0.00866951 0.333202 -5.29133e-20)
(-0.00727488 0.336091 0)
(0.000912741 -0.00362093 5.0413e-21)
(0.00120982 -0.00628706 -5.48978e-21)
(0.000165801 -0.00516352 1.68631e-20)
(-0.00167436 -0.00130318 -2.29648e-20)
(-0.00402287 0.00458094 1.17017e-20)
(-0.00665977 0.0120098 0)
(-0.00942765 0.0206308 0)
(-0.0122116 0.0301789 4.89796e-20)
(-0.0149313 0.0404528 6.19904e-20)
(-0.0175309 0.0512975 -1.25253e-20)
(-0.0199729 0.0625918 6.32712e-20)
(-0.0222323 0.0742377 -1.27518e-20)
(-0.0242931 0.0861544 0)
(-0.0261458 0.0982721 0)
(-0.0277862 0.110528 5.20582e-20)
(-0.0292136 0.122864 0)
(-0.0304304 0.135225 2.62808e-20)
(-0.0314397 0.147558 -2.64572e-20)
(-0.0322461 0.159812 0)
(-0.0328544 0.171935 -5.31843e-20)
(-0.0332704 0.18388 -2.65969e-20)
(-0.0334996 0.195599 -8.01116e-20)
(-0.0335479 0.207046 -2.68111e-20)
(-0.0334219 0.21818 2.67537e-20)
(-0.0331286 0.228959 5.36727e-20)
(-0.0326752 0.239347 0)
(-0.0320689 0.24931 5.37361e-20)
(-0.0313169 0.258818 1.07599e-19)
(-0.0304273 0.267846 2.19768e-22)
(-0.0294084 0.276369 -5.3612e-20)
(-0.0282697 0.284369 -5.37972e-20)
(-0.0270208 0.291831 5.35265e-20)
(-0.0256724 0.298741 5.36772e-20)
(-0.024236 0.305092 -1.06974e-19)
(-0.0227251 0.310878 1.06779e-19)
(-0.0211551 0.316095 -5.33299e-20)
(-0.0195384 0.320746 5.30522e-20)
(-0.0178882 0.324834 1.06026e-19)
(-0.0163316 0.328377 5.27735e-20)
(-0.0149785 0.331426 6.0783e-20)
(0.000934559 -0.00349396 -4.03507e-20)
(0.00115616 -0.00601918 3.84462e-20)
(-8.1056e-05 -0.00486023 -3.37392e-20)
(-0.00217177 -0.00104216 3.446e-20)
(-0.00480635 0.0047378 5.85284e-20)
(-0.00774831 0.0120144 -4.7625e-20)
(-0.0108302 0.0204462 6.0441e-20)
(-0.0139308 0.0297768 3.67633e-20)
(-0.0169656 0.0398121 -8.67961e-20)
(-0.0198766 0.0504028 2.50796e-20)
(-0.0226246 0.0614321 1.26751e-20)
(-0.0251836 0.0728062 2.5548e-20)
(-0.0275368 0.0844474 2.57585e-20)
(-0.0296743 0.0962886 -5.18152e-20)
(-0.0315913 0.10827 5.21257e-20)
(-0.0332869 0.120334 7.86244e-20)
(-0.0347628 0.13243 -7.88945e-20)
(-0.0360216 0.144504 1.05695e-19)
(-0.0370671 0.156509 5.3057e-20)
(-0.0379039 0.168394 7.98265e-20)
(-0.0385368 0.180113 2.67308e-20)
(-0.0389709 0.191618 5.34423e-20)
(-0.0392115 0.202867 -5.35664e-20)
(-0.0392645 0.213816 0)
(-0.0391367 0.224427 -1.61143e-19)
(-0.0388346 0.234662 1.07435e-19)
(-0.038365 0.24449 -5.35306e-20)
(-0.0377348 0.25388 -5.35345e-20)
(-0.036952 0.262807 9.85199e-23)
(-0.0360253 0.271248 0)
(-0.0349643 0.279185 0)
(-0.0337793 0.286603 5.35598e-20)
(-0.0324818 0.29349 -5.36035e-20)
(-0.0310846 0.299838 5.33081e-20)
(-0.0296033 0.305644 -5.3391e-20)
(-0.0280555 0.310907 -5.32682e-20)
(-0.0264565 0.31563 0)
(-0.0248229 0.31982 -5.27951e-20)
(-0.0232854 0.323499 -5.26101e-20)
(-0.0219632 0.326721 -1.82278e-19)
(0.00094531 -0.00334638 4.03533e-20)
(0.00107894 -0.00570475 -3.84413e-20)
(-0.000354588 -0.00449636 4.49845e-20)
(-0.00269196 -0.00071354 -8.04118e-20)
(-0.00560303 0.00496483 -5.8531e-20)
(-0.008836 0.012089 4.76249e-20)
(-0.0122142 0.0203297 -9.67195e-20)
(-0.015611 0.0294402 -4.90122e-20)
(-0.0189385 0.0392339 6.20194e-20)
(-0.0221366 0.0495673 -1.12859e-19)
(-0.025165 0.0603284 -7.59789e-20)
(-0.027997 0.0714274 -2.5575e-20)
(-0.0306153 0.0827898 -7.72287e-20)
(-0.0330099 0.0943512 7.77105e-20)
(-0.0351758 0.106054 -5.21257e-20)
(-0.0371117 0.117843 -5.24027e-20)
(-0.0388187 0.129669 0)
(-0.0402993 0.141482 -5.28667e-20)
(-0.0415566 0.153233 -7.96345e-20)
(-0.0425948 0.164876 2.6581e-20)
(-0.0434182 0.176363 -5.33597e-20)
(-0.0440312 0.18765 0)
(-0.0444387 0.198694 5.35665e-20)
(-0.0446461 0.209453 5.37461e-20)
(-0.0446596 0.219889 -5.36296e-20)
(-0.0444853 0.229967 0)
(-0.0441294 0.239653 0)
(-0.0435988 0.248918 0)
(-0.0429013 0.257739 -8.52019e-24)
(-0.0420457 0.266092 0)
(-0.0410419 0.27396 -1.07308e-19)
(-0.0399007 0.281329 -1.20723e-22)
(-0.0386345 0.288188 -1.06958e-19)
(-0.0372576 0.294532 1.06669e-19)
(-0.0357872 0.300357 -5.31206e-20)
(-0.0342436 0.305665 5.31195e-20)
(-0.0326454 0.310464 0)
(-0.0310123 0.314763 1.05625e-19)
(-0.0294776 0.318587 -5.24783e-20)
(-0.0281723 0.321995 0)
(0.000944009 -0.00317917 5.04642e-21)
(0.000976279 -0.00534641 0)
(-0.000656702 -0.00407574 -5.62511e-20)
(-0.00323647 -0.000321953 6.89347e-20)
(-0.00641375 0.00525681 3.51344e-20)
(-0.0099228 0.0122281 -4.76486e-20)
(-0.0135788 0.0202757 4.83669e-20)
(-0.0172503 0.0291636 -4.90454e-20)
(-0.0208468 0.0387128 0)
(-0.0243065 0.0487861 5.01731e-20)
(-0.0275885 0.0592764 -5.06901e-20)
(-0.0306657 0.0700978 -2.97096e-23)
(-0.0335208 0.0811789 0)
(-0.0361436 0.092458 5.18877e-20)
(-0.0385291 0.10388 -2.60849e-20)
(-0.0406761 0.115392 5.2545e-20)
(-0.0425852 0.126946 2.64103e-20)
(-0.0442585 0.138493 -5.29542e-20)
(-0.0456989 0.149989 0)
(-0.0469101 0.161385 7.99895e-20)
(-0.0478961 0.172637 2.67739e-20)
(-0.0486607 0.183702 0)
(-0.0492083 0.194537 0)
(-0.049544 0.205102 0)
(-0.0496732 0.215359 5.37144e-20)
(-0.0496017 0.225273 0)
(-0.0493353 0.234812 -5.38494e-20)
(-0.0488806 0.243948 1.07478e-19)
(-0.0482453 0.252657 -1.07319e-19)
(-0.0474383 0.260917 0)
(-0.0464695 0.268711 5.35989e-20)
(-0.0453503 0.276027 -5.34842e-20)
(-0.0440939 0.282855 5.342e-20)
(-0.042716 0.28919 0)
(-0.0412356 0.295034 0)
(-0.0396755 0.300388 5.30538e-20)
(-0.038058 0.305265 -5.27305e-20)
(-0.0364062 0.309679 1.05375e-19)
(-0.0348545 0.313659 -1.047e-19)
(-0.0335488 0.317267 0)
(0.00092974 -0.00299335 3.53444e-20)
(0.000846492 -0.00494701 1.0994e-20)
(-0.00098907 -0.00360246 4.5002e-20)
(-0.00380653 0.000127637 4.59704e-20)
(-0.00723906 0.00560822 -4.68442e-20)
(-0.0110084 0.0124257 4.76486e-20)
(-0.0149226 0.0202785 4.83937e-20)
(-0.0188465 0.0289412 4.90455e-20)
(-0.0226872 0.0382433 0)
(-0.0263821 0.0480541 5.02189e-20)
(-0.0298898 0.0582715 5.06902e-20)
(-0.0331832 0.0688134 5.11346e-20)
(-0.0362453 0.0796117 0)
(-0.0390663 0.090607 3.86944e-23)
(-0.0416411 0.101746 5.22046e-20)
(-0.0439686 0.11298 -2.62008e-20)
(-0.0460493 0.12426 -2.63006e-20)
(-0.0478849 0.135541 7.94797e-20)
(-0.0494783 0.146778 7.55783e-23)
(-0.0508328 0.157926 -2.65779e-20)
(-0.051952 0.168942 -5.34431e-20)
(-0.0528395 0.179782 0)
(-0.0534991 0.190405 0)
(-0.0539355 0.200772 0)
(-0.0541536 0.210846 0)
(-0.0541586 0.220593 0)
(-0.0539559 0.229982 0)
(-0.053552 0.238984 5.38409e-20)
(-0.0529543 0.247577 -5.36171e-20)
(-0.0521716 0.255739 0)
(-0.0512139 0.263456 0)
(-0.0500932 0.270714 5.34843e-20)
(-0.0488232 0.277507 0)
(-0.0474209 0.283832 5.32929e-20)
(-0.0459071 0.289692 -5.2988e-20)
(-0.0443073 0.295094 0)
(-0.0426476 0.300052 1.05548e-19)
(-0.0409546 0.304585 -1.04887e-19)
(-0.0393629 0.308731 0)
(-0.0380357 0.312553 0)
(0.000901677 -0.00279011 -4.03883e-20)
(0.0006881 -0.00450964 -1.09905e-20)
(-0.0013531 -0.00308087 1.12539e-20)
(-0.00440311 0.000630007 -4.59705e-20)
(-0.00807928 0.00601326 0)
(-0.0120924 0.0126759 0)
(-0.0162444 0.0203316 -3.62906e-20)
(-0.0203971 0.0287668 -1.22641e-20)
(-0.0244563 0.0378196 -2.4851e-20)
(-0.0283588 0.0473659 -2.51159e-20)
(-0.0320632 0.0573088 -2.53828e-20)
(-0.0355429 0.0675701 2.55723e-20)
(-0.0387813 0.0780846 2.5787e-20)
(-0.0417691 0.0887957 -2.59771e-20)
(-0.0445016 0.0996522 0)
(-0.0469777 0.110606 0)
(-0.0491982 0.121613 -5.27825e-20)
(-0.0511645 0.132628 0)
(-0.0528794 0.143606 0)
(-0.0543462 0.154505 5.35126e-20)
(-0.055568 0.165283 1.64147e-22)
(-0.0565482 0.175896 1.09142e-22)
(-0.0572902 0.186307 -5.37919e-20)
(-0.0577983 0.196475 5.36766e-20)
(-0.0580768 0.206364 5.38182e-20)
(-0.0581305 0.215941 -5.38268e-20)
(-0.0579645 0.225177 0)
(-0.0575847 0.234043 5.38536e-20)
(-0.0569985 0.242516 1.71482e-22)
(-0.0562144 0.250577 -5.35608e-20)
(-0.0552425 0.258212 0)
(-0.0540948 0.265409 0)
(-0.0527859 0.272164 5.33902e-20)
(-0.0513339 0.278477 -5.3096e-20)
(-0.0497611 0.284351 -5.30681e-20)
(-0.0480957 0.289799 5.27541e-20)
(-0.046368 0.29484 0)
(-0.0446084 0.299498 0)
(-0.0429501 0.303819 0)
(-0.0415771 0.307869 -5.99542e-20)
(0.000859088 -0.00257071 5.05022e-20)
(0.000499868 -0.00403761 -2.19901e-20)
(-0.00174991 -0.00251556 1.12553e-20)
(-0.00502688 0.00117968 0)
(-0.00893444 0.00646586 5.85828e-20)
(-0.013174 0.0129721 3.98865e-24)
(-0.0175425 0.0204286 4.84232e-20)
(-0.0218998 0.0286339 -3.68199e-20)
(-0.0261508 0.0374353 4.97e-20)
(-0.0302324 0.0467156 -2.51137e-20)
(-0.0341035 0.056383 0)
(-0.0377384 0.0663632 2.56275e-20)
(-0.0411213 0.076594 -7.73913e-20)
(-0.0442435 0.0870211 0)
(-0.0471009 0.0975956 7.85212e-20)
(-0.0496927 0.108272 -5.25635e-20)
(-0.0520197 0.119006 -5.28584e-20)
(-0.0540838 0.129754 2.65043e-20)
(-0.0558875 0.140475 0)
(-0.0574341 0.151126 -5.34071e-20)
(-0.0587265 0.161666 -5.36503e-20)
(-0.0597678 0.172054 -5.7417e-23)
(-0.0605612 0.182251 5.37807e-20)
(-0.0611104 0.19222 5.38942e-20)
(-0.0614196 0.201924 -1.07572e-19)
(-0.0614927 0.211331 5.38268e-20)
(-0.0613347 0.220412 0)
(-0.0609511 0.229139 -5.38031e-20)
(-0.0603488 0.237491 5.37399e-20)
(-0.059536 0.245449 5.36558e-20)
(-0.0585228 0.252999 -5.35508e-20)
(-0.0573212 0.260133 5.34249e-20)
(-0.0559464 0.266847 0)
(-0.0544173 0.273143 5.31914e-20)
(-0.0527578 0.27903 1.06056e-19)
(-0.0509986 0.284523 -1.05389e-19)
(-0.0491745 0.289647 1.05178e-19)
(-0.0473199 0.294433 1.87067e-22)
(-0.0455655 0.298937 -5.20242e-20)
(-0.0441192 0.30323 1.19717e-19)
(0.000801345 -0.00233653 -3.03095e-20)
(0.000280789 -0.0035344 -6.59691e-20)
(-0.00218036 -0.0019113 4.50233e-20)
(-0.00567825 0.00177098 -3.44873e-20)
(-0.00980428 0.00695976 -1.17149e-20)
(-0.0142521 0.0133079 1.19182e-20)
(-0.0188151 0.0205628 -2.41979e-20)
(-0.0233518 0.028536 -2.45414e-20)
(-0.0277671 0.0370842 2.48716e-20)
(-0.0319983 0.0460973 -5.02786e-20)
(-0.0360054 0.0554887 -3.68727e-23)
(-0.0397635 0.065188 2.56015e-20)
(-0.043258 0.0751357 0)
(-0.0464812 0.0852802 -2.60418e-20)
(-0.0494296 0.0955744 -2.61849e-20)
(-0.0521029 0.105974 5.2626e-20)
(-0.0545023 0.116438 0)
(-0.0566299 0.126923 0)
(-0.0584884 0.137388 5.34028e-20)
(-0.0600809 0.147793 -5.34099e-20)
(-0.0614105 0.158098 0)
(-0.0624799 0.168262 5.38114e-20)
(-0.0632922 0.178248 -5.3614e-20)
(-0.0638508 0.188018 -1.07716e-19)
(-0.0641592 0.197538 -1.65841e-22)
(-0.0642211 0.206776 5.38619e-20)
(-0.064041 0.215702 -1.07661e-19)
(-0.0636239 0.224291 5.38031e-20)
(-0.0629765 0.232521 -5.37399e-20)
(-0.0621064 0.240374 7.80387e-23)
(-0.0610233 0.247838 7.29049e-23)
(-0.0597395 0.254906 -5.34249e-20)
(-0.0582702 0.261575 -5.32603e-20)
(-0.0566349 0.267852 -5.30824e-20)
(-0.0548591 0.273749 -4.19574e-23)
(-0.0529758 0.279285 0)
(-0.0510246 0.28449 -5.24348e-20)
(-0.0490441 0.289405 1.0452e-19)
(-0.0471612 0.294099 -1.55862e-19)
(-0.0456113 0.298647 1.28721e-22)
(0.000727928 -0.00208901 -1.01041e-20)
(3.00844e-05 -0.00300355 8.79545e-20)
(-0.00264501 -0.00127298 -4.50221e-20)
(-0.0063573 0.00239808 3.44867e-20)
(-0.0106883 0.00748858 -9.37442e-20)
(-0.0153257 0.0136765 1.19193e-20)
(-0.0200603 0.0207274 -4.84352e-20)
(-0.0247505 0.0284663 0)
(-0.0293018 0.0367597 0)
(-0.0336524 0.0455048 -5.03076e-20)
(-0.0377637 0.0546202 2.5426e-20)
(-0.0416122 0.0640391 1.24357e-23)
(-0.0451847 0.0737054 2.58221e-20)
(-0.0484744 0.0835693 0)
(-0.051479 0.0935858 -7.86576e-20)
(-0.0541985 0.103713 2.63175e-20)
(-0.056635 0.113909 -5.29848e-20)
(-0.0587907 0.124133 0)
(-0.0606687 0.134347 0)
(-0.0622721 0.14451 5.20167e-23)
(-0.063604 0.154583 -5.3598e-20)
(-0.0646672 0.164527 5.38125e-20)
(-0.0654645 0.174305 -5.39428e-20)
(-0.0659991 0.18388 5.38271e-20)
(-0.066274 0.193219 5.52611e-23)
(-0.0662925 0.202289 5.89547e-23)
(-0.0660587 0.211063 5.38806e-20)
(-0.0655774 0.219515 -5.38641e-20)
(-0.0648542 0.227623 0)
(-0.0638967 0.235372 -5.37439e-20)
(-0.062714 0.242749 5.34879e-20)
(-0.0613181 0.249748 0)
(-0.0597242 0.256371 5.32602e-20)
(-0.0579524 0.262626 -5.31562e-20)
(-0.056029 0.268528 5.27458e-20)
(-0.0539897 0.274102 0)
(-0.0518786 0.279386 1.57312e-19)
(-0.0497391 0.28443 -1.04221e-19)
(-0.0476934 0.289318 0)
(-0.0460074 0.294132 5.95752e-20)
(0.000638427 -0.00182965 8.08416e-20)
(-0.00025281 -0.00244867 -4.39781e-20)
(-0.00314418 -0.000605559 -1.12552e-20)
(-0.00706386 0.0030551 1.14965e-20)
(-0.0115857 0.00804593 4.68718e-20)
(-0.0163931 0.0140713 0)
(-0.0212759 0.0209157 4.84355e-20)
(-0.0260929 0.0284181 7.36829e-20)
(-0.0307511 0.0364553 2.48614e-20)
(-0.0351902 0.0449318 2.51299e-20)
(-0.0393733 0.0537714 2.53983e-20)
(-0.0432788 0.0629114 -7.69668e-20)
(-0.0468947 0.0722982 2.58386e-20)
(-0.0502158 0.0818844 1.04255e-19)
(-0.0532407 0.0916268 2.61691e-20)
(-0.0559705 0.101484 2.63408e-20)
(-0.0584075 0.111418 5.29849e-20)
(-0.060555 0.121387 0)
(-0.062416 0.131354 0)