/*--------------------------------*- C++ -*----------------------------------*\
  =========                 |
  \\      /  F ield         | OpenFOAM: The Open Source CFD Toolbox
   \\    /   O peration     | Website:  https://openfoam.org
    \\  /    A nd           | Version:  7
     \\/     M anipulation  |
\*---------------------------------------------------------------------------*/
FoamFile
{
    version     2.0;
    format      ascii;
    class       volScalarField;
    location    "6.1";
    object      p;
}
// * * * * * * * * * * * * * * * * * * * * * * * * * * * * * * * * * * * * * //

dimensions      [0 2 -2 0 0 0 0];

internalField   nonuniform List<scalar> 
32000
(
0.451194
0.4513
0.451349
0.451354
0.45137
0.451441
0.451585
0.451797
0.452073
0.452435
0.452917
0.45355
0.454336
0.455261
0.456313
0.45749
0.458797
0.460245
0.461839
0.463576
0.465446
0.467437
0.469537
0.471735
0.474025
0.476397
0.478838
0.481333
0.483863
0.486414
0.488972
0.491526
0.494066
0.496584
0.499068
0.50151
0.503905
0.506252
0.508532
0.510668
0.451281
0.451342
0.451364
0.451343
0.451341
0.451403
0.451541
0.451744
0.452008
0.452356
0.452826
0.453444
0.454214
0.45512
0.456149
0.457298
0.458572
0.459981
0.46153
0.463218
0.465033
0.466964
0.468999
0.471127
0.473339
0.475628
0.477983
0.480388
0.482829
0.48529
0.487756
0.490217
0.492663
0.495085
0.497473
0.49982
0.502121
0.504374
0.506557
0.508613
0.451372
0.451389
0.451382
0.451334
0.451318
0.451372
0.451504
0.4517
0.451954
0.452293
0.452755
0.453362
0.454116
0.455003
0.45601
0.457133
0.458377
0.459751
0.461259
0.462897
0.464658
0.46653
0.4685
0.470557
0.472693
0.474899
0.477165
0.479479
0.481827
0.484193
0.486564
0.488928
0.491277
0.4936
0.495888
0.498135
0.500336
0.50249
0.504573
0.506543
0.451455
0.451421
0.451387
0.451316
0.45129
0.45134
0.451469
0.451661
0.451911
0.452247
0.452704
0.453302
0.454042
0.454911
0.455898
0.456998
0.458215
0.459556
0.461024
0.462615
0.464322
0.466134
0.46804
0.470026
0.472084
0.474205
0.476382
0.478603
0.480855
0.483124
0.485396
0.48766
0.489907
0.492126
0.494311
0.496454
0.498551
0.500602
0.502579
0.504459
0.451538
0.451458
0.4514
0.451309
0.451274
0.451322
0.451447
0.451636
0.451887
0.452222
0.452676
0.453266
0.453993
0.454845
0.455813
0.456892
0.458084
0.459394
0.460821
0.462366
0.46402
0.465775
0.467615
0.469529
0.471508
0.473544
0.47563
0.477757
0.479912
0.482081
0.484251
0.486412
0.488552
0.490664
0.492741
0.494776
0.496766
0.498708
0.500575
0.502358
0.451611
0.451485
0.451407
0.4513
0.451258
0.451304
0.451428
0.451618
0.451872
0.452211
0.452664
0.453248
0.453964
0.454802
0.455753
0.456814
0.457982
0.459261
0.460651
0.462151
0.463755
0.465451
0.467225
0.469066
0.470964
0.472914
0.474909
0.476941
0.478998
0.481065
0.48313
0.485183
0.487213
0.489215
0.491179
0.493102
0.494979
0.496809
0.498561
0.500242
0.451676
0.451509
0.451414
0.451295
0.451247
0.451292
0.451419
0.451612
0.451873
0.452217
0.452671
0.453251
0.453959
0.454785
0.455722
0.456764
0.457909
0.459159
0.460513
0.461971
0.463525
0.465162
0.466869
0.468635
0.470452
0.472316
0.47422
0.476156
0.478112
0.480075
0.482032
0.483973
0.485891
0.487777
0.489627
0.491433
0.493193
0.494905
0.496538
0.498111
0.451732
0.451526
0.451419
0.451291
0.451239
0.451285
0.451416
0.451616
0.451884
0.452236
0.452694
0.453274
0.453975
0.454792
0.455715
0.456741
0.457864
0.459086
0.460407
0.461824
0.463328
0.464906
0.466545
0.468235
0.469971
0.471748
0.473561
0.475401
0.477254
0.47911
0.480956
0.482783
0.484585
0.486354
0.488084
0.489769
0.491408
0.492998
0.494507
0.495967
0.451775
0.451535
0.451419
0.451285
0.451232
0.45128
0.451418
0.451627
0.451905
0.452267
0.452731
0.453312
0.454011
0.45482
0.455732
0.456741
0.457843
0.459039
0.460329
0.461707
0.463161
0.464679
0.466249
0.467864
0.46952
0.471211
0.472932
0.474674
0.476423
0.478169
0.479902
0.481613
0.483296
0.484945
0.486552
0.488113
0.489626
0.491089
0.492471
0.493811
0.451804
0.451534
0.451411
0.451275
0.451223
0.451277
0.451423
0.451643
0.451933
0.452306
0.452779
0.453366
0.454064
0.454868
0.455768
0.456762
0.457845
0.459018
0.460278
0.461617
0.463021
0.464479
0.465981
0.467522
0.469097
0.470703
0.472332
0.473974
0.475618
0.477253
0.478871
0.480464
0.482026
0.483551
0.485034
0.486467
0.48785
0.489182
0.490433
0.491647
0.451815
0.451519
0.451393
0.451258
0.451212
0.451274
0.45143
0.451661
0.451964
0.452351
0.452837
0.453431
0.454132
0.454931
0.455822
0.456802
0.457867
0.459019
0.460251
0.461551
0.462906
0.464304
0.465738
0.467205
0.468701
0.470221
0.471757
0.4733
0.474837
0.47636
0.477862
0.479335
0.480775
0.482175
0.483529
0.484831
0.486081
0.487279
0.488396
0.489479
0.451806
0.451488
0.451362
0.451233
0.451196
0.451269
0.451437
0.45168
0.451998
0.452401
0.452901
0.453506
0.454211
0.455007
0.45589
0.456857
0.457908
0.45904
0.460244
0.461506
0.462812
0.464151
0.46552
0.466914
0.468331
0.469765
0.471209
0.47265
0.47408
0.47549
0.476875
0.478227
0.479543
0.480817
0.48204
0.483209
0.484323
0.485384
0.486365
0.487311
0.451776
0.45144
0.451317
0.451197
0.451173
0.451259
0.45144
0.451698
0.452032
0.452453
0.452971
0.453588
0.454299
0.455094
0.455971
0.456927
0.457965
0.459078
0.460256
0.46148
0.462736
0.464019
0.465323
0.466646
0.467985
0.469333
0.470683
0.472024
0.473345
0.474642
0.475908
0.47714
0.478332
0.479477
0.480569
0.481603
0.48258
0.483502
0.484345
0.48515
0.451724
0.451372
0.451255
0.451148
0.451141
0.451242
0.451437
0.45171
0.452063
0.452505
0.453043
0.453675
0.454393
0.455189
0.456061
0.45701
0.458035
0.459131
0.460281
0.461468
0.462678
0.463904
0.465145
0.466398
0.46766
0.468923
0.470179
0.471418
0.472631
0.473814
0.474963
0.476074
0.477141
0.478157
0.479117
0.480016
0.480853
0.481635
0.482341
0.483001
0.451647
0.451284
0.451176
0.451086
0.451098
0.451216
0.451426
0.451717
0.45209
0.452555
0.453114
0.453762
0.45449
0.455289
0.456159
0.457102
0.458116
0.459194
0.460318
0.461468
0.462632
0.463804
0.464984
0.466168
0.467353
0.468531
0.469693
0.47083
0.471936
0.473007
0.474039
0.475028
0.475971
0.476858
0.477686
0.478449
0.479148
0.479789
0.480358
0.480871
0.451546
0.451176
0.451079
0.451008
0.451041
0.451177
0.451405
0.451714
0.452111
0.4526
0.453181
0.453847
0.454587
0.455392
0.456262
0.457201
0.458205
0.459265
0.460361
0.461476
0.462596
0.463716
0.464836
0.465953
0.467062
0.468155
0.469224
0.470261
0.47126
0.472219
0.473135
0.474005
0.474823
0.475582
0.476278
0.476906
0.477467
0.477969
0.478402
0.478766
0.45142
0.451046
0.450963
0.450914
0.450968
0.451124
0.451371
0.451702
0.452122
0.452636
0.453241
0.453926
0.45468
0.455493
0.456367
0.457303
0.458298
0.45934
0.460409
0.461489
0.462566
0.463636
0.464699
0.46575
0.466784
0.467793
0.46877
0.469707
0.470601
0.471451
0.472252
0.473003
0.473698
0.47433
0.474895
0.47539
0.475815
0.47618
0.476481
0.476694
0.451268
0.450894
0.450827
0.450801
0.450878
0.451056
0.451323
0.451676
0.452122
0.452662
0.453291
0.453997
0.454766
0.455592
0.456471
0.457406
0.458392
0.459415
0.460458
0.461503
0.46254
0.463563
0.464569
0.465556
0.466516
0.467443
0.468329
0.469169
0.46996
0.470701
0.47139
0.472023
0.472596
0.473103
0.47354
0.473904
0.474194
0.474425
0.474598
0.474662
0.451092
0.450721
0.450671
0.450668
0.45077
0.45097
0.451259
0.451637
0.452109
0.452676
0.453329
0.454057
0.454845
0.455684
0.456571
0.457506
0.458483
0.459488
0.460505
0.461518
0.462515
0.463493
0.464445
0.465369
0.466257
0.467102
0.467899
0.468644
0.469335
0.46997
0.470547
0.471065
0.471518
0.471902
0.472213
0.472449
0.47261
0.47271
0.47276
0.472677
0.450891
0.450526
0.450493
0.450515
0.450641
0.450865
0.451179
0.451583
0.452082
0.452675
0.453354
0.454104
0.454912
0.455767
0.456665
0.457601
0.458569
0.459556
0.460548
0.461529
0.46249
0.463423
0.464324
0.465185
0.466002
0.466768
0.467479
0.468132
0.468724
0.469255
0.469723
0.470127
0.470463
0.470727
0.470916
0.471028
0.471063
0.471038
0.470971
0.470745
0.450666
0.450309
0.450294
0.45034
0.450491
0.450741
0.451081
0.451513
0.45204
0.452659
0.453363
0.454137
0.454967
0.455839
0.456748
0.457686
0.458646
0.459616
0.460583
0.461535
0.46246
0.463351
0.464201
0.465003
0.465751
0.46644
0.467066
0.467629
0.468125
0.468554
0.468916
0.46921
0.469431
0.469578
0.469649
0.469643
0.469557
0.469411
0.469234
0.468871
0.450416
0.450071
0.450073
0.450142
0.450319
0.450596
0.450964
0.451425
0.451981
0.452627
0.453357
0.454156
0.455007
0.455898
0.456818
0.45776
0.458712
0.459666
0.46061
0.461532
0.462423
0.463274
0.464075
0.464818
0.465499
0.466113
0.466659
0.467133
0.467536
0.467866
0.468125
0.468312
0.468423
0.468457
0.468414
0.468294
0.468093
0.467833
0.467554
0.46706
0.450143
0.449809
0.449829
0.449921
0.450124
0.450429
0.450827
0.451319
0.451903
0.452578
0.453333
0.454157
0.455031
0.455941
0.456873
0.457818
0.458764
0.459703
0.460624
0.461518
0.462376
0.463188
0.463941
0.464629
0.465245
0.465787
0.466253
0.466643
0.466954
0.46719
0.467349
0.467432
0.467437
0.467364
0.467212
0.466982
0.466673
0.466306
0.465931
0.465316
0.449845
0.449524
0.44956
0.449676
0.449905
0.450239
0.450669
0.451192
0.451806
0.452509
0.453291
0.45414
0.455037
0.455966
0.45691
0.457859
0.458799
0.459723
0.460622
0.46149
0.462317
0.46309
0.463798
0.464432
0.464985
0.465458
0.465847
0.466154
0.466379
0.466522
0.466586
0.466571
0.466474
0.466297
0.466042
0.46571
0.465298
0.46483
0.464369
0.463643
0.449522
0.449213
0.449267
0.449405
0.449662
0.450025
0.450487
0.451043
0.451689
0.45242
0.45323
0.454103
0.455023
0.45597
0.456927
0.457879
0.458814
0.459724
0.460603
0.461445
0.462241
0.462978
0.463643
0.464224
0.464718
0.465123
0.465439
0.465666
0.465807
0.465862
0.465835
0.465726
0.465533
0.465257
0.464904
0.464476
0.463969
0.463408
0.462868
0.462041
0.449172
0.448877
0.448947
0.449108
0.449392
0.449785
0.450281
0.450871
0.451549
0.45231
0.453146
0.454044
0.454986
0.455951
0.456921
0.457877
0.458807
0.459704
0.460563
0.461381
0.462148
0.46285
0.463472
0.464003
0.464439
0.464779
0.465024
0.465175
0.465235
0.465207
0.465094
0.464894
0.46461
0.464242
0.463797
0.463279
0.462684
0.462037
0.461428
0.460511
0.448795
0.448513
0.4486
0.448784
0.449095
0.44952
0.450051
0.450675
0.451386
0.452177
0.45304
0.453962
0.454925
0.455909
0.45689
0.457851
0.458776
0.45966
0.460501
0.461295
0.462033
0.462701
0.463282
0.463764
0.464145
0.464423
0.4646
0.464678
0.464661
0.464553
0.464357
0.464074
0.463703
0.463248
0.462719
0.462118
0.461443
0.460718
0.460046
0.459053
0.448392
0.448123
0.448226
0.448432
0.448771
0.449228
0.449794
0.450454
0.451198
0.45202
0.45291
0.453855
0.454839
0.45584
0.456833
0.457798
0.458719
0.459591
0.460413
0.461185
0.461895
0.462529
0.463069
0.463505
0.463832
0.46405
0.464162
0.46417
0.46408
0.463896
0.463622
0.463258
0.462806
0.462272
0.461664
0.460989
0.460242
0.459448
0.458722
0.457664
0.44796
0.447705
0.447824
0.448052
0.448419
0.448909
0.44951
0.450206
0.450985
0.451837
0.452754
0.453723
0.454728
0.455745
0.456749
0.457717
0.458633
0.459494
0.460299
0.461048
0.46173
0.46233
0.46283
0.46322
0.463495
0.463656
0.463705
0.463646
0.463486
0.46323
0.462882
0.462443
0.461916
0.461308
0.460629
0.459886
0.459076
0.458222
0.45745
0.45634
0.447501
0.447258
0.447393
0.447644
0.44804
0.448563
0.449199
0.449932
0.450746
0.451629
0.452572
0.453564
0.454588
0.45562
0.456634
0.457604
0.458516
0.459365
0.460154
0.46088
0.461535
0.462101
0.462561
0.462905
0.46313
0.463235
0.463223
0.463101
0.462874
0.46255
0.462131
0.461621
0.461024
0.460348
0.459605
0.458804
0.457939
0.457035
0.456226
0.455078
0.447012
0.446781
0.446933
0.447207
0.447632
0.448188
0.44886
0.449629
0.450478
0.451392
0.452362
0.453377
0.454419
0.455465
0.456486
0.457458
0.458365
0.459202
0.459974
0.460678
0.461304
0.461835
0.462256
0.462555
0.46273
0.462781
0.462711
0.462527
0.462237
0.461846
0.46136
0.460783
0.460121
0.459384
0.458585
0.457733
0.456823
0.455878
0.455043
0.453871
0.446493
0.446274
0.446443
0.446742
0.447196
0.447786
0.448492
0.449298
0.450181
0.451125
0.452121
0.453158
0.454218
0.455276
0.456304
0.457275
0.458176
0.459002
0.459757
0.460438
0.461034
0.46153
0.46191
0.462164
0.46229
0.462287
0.462161
0.461918
0.461566
0.461112
0.460562
0.459922
0.459199
0.458406
0.457556
0.45666
0.455715
0.454742
0.453893
0.452715
0.445941
0.445735
0.445922
0.446247
0.446732
0.447354
0.448096
0.448936
0.449852
0.450826
0.451848
0.452906
0.453982
0.455051
0.456083
0.457053
0.457946
0.45876
0.459496
0.460153
0.46072
0.461179
0.461517
0.461726
0.461802
0.461747
0.461566
0.461265
0.460852
0.460336
0.459724
0.459024
0.458245
0.4574
0.456505
0.455573
0.454602
0.453613
0.452765
0.451602
0.445355
0.445163
0.445369
0.445721
0.446236
0.446893
0.447669
0.448543
0.44949
0.450492
0.451539
0.452617
0.453708
0.454786
0.455821
0.456787
0.457671
0.458472
0.459189
0.459821
0.460355
0.460777
0.461073
0.461235
0.461261
0.461154
0.460917
0.460559
0.460087
0.45951
0.458837
0.458078
0.457244
0.45635
0.455414
0.454452
0.453464
0.452474
0.451645
0.450524
0.444734
0.444555
0.444782
0.445162
0.445709
0.446399
0.44721
0.448116
0.449093
0.450123
0.451193
0.45229
0.453395
0.454479
0.455514
0.456475
0.457348
0.458133
0.45883
0.459435
0.459936
0.460318
0.46057
0.460684
0.460659
0.460498
0.460206
0.45979
0.459258
0.45862
0.457887
0.457069
0.456181
0.455239
0.454264
0.453276
0.45228
0.451301
0.450513
0.449471
0.444074
0.44391
0.444158
0.444567
0.445148
0.445873
0.446717
0.447654
0.448659
0.449715
0.450808
0.451922
0.453038
0.454127
0.45516
0.456112
0.456973
0.457741
0.458415
0.458991
0.459456
0.459797
0.460002
0.460066
0.459989
0.459773
0.459423
0.458948
0.458355
0.457656
0.456861
0.455984
0.455039
0.454047
0.453032
0.452017
0.451016
0.450062
0.449337
0.448422
0.443372
0.443225
0.443496
0.443937
0.444552
0.445312
0.446189
0.447154
0.448186
0.449267
0.450381
0.451511
0.452635
0.453726
0.454754
0.455696
0.456542
0.457289
0.457939
0.458483
0.45891
0.459206
0.459362
0.459374
0.459241
0.458968
0.458559
0.458023
0.457369
0.456606
0.455747
0.454806
0.4538
0.452752
0.45169
0.450643
0.449635
0.448707
0.448065
0.447333
0.442628
0.442499
0.442795
0.443269
0.44392
0.444715
0.445622
0.446616
0.447673
0.448777
0.449909
0.451053
0.452184
0.453274
0.454294
0.455222
0.45605
0.456774
0.457395
0.457905
0.45829
0.458539
0.458644
0.4586
0.45841
0.458077
0.457607
0.457007
0.456288
0.455459
0.454532
0.453522
0.452448
0.451334
0.45021
0.449114
0.448084
0.447178
0.446638
0.446179
0.441837
0.441729
0.442052
0.442562
0.44325
0.444079
0.445017
0.446037
0.447118
0.448242
0.449392
0.450546
0.45168
0.452766
0.453775
0.454686
0.455492
0.456191
0.456779
0.45725
0.457591
0.457789
0.457839
0.457738
0.457487
0.457091
0.456557
0.455893
0.455106
0.454207
0.453207
0.452122
0.45097
0.449772
0.448562
0.447381
0.446282
0.445363
0.444967
0.444977
0.441002
0.440917
0.44127
0.441817
0.442543
0.443405
0.44437
0.445415
0.446519
0.447662
0.448826
0.449987
0.451122
0.4522
0.453193
0.454084
0.454865
0.455533
0.456086
0.456514
0.456806
0.456951
0.456943
0.456781
0.456467
0.456006
0.455406
0.454673
0.453817
0.452845
0.451769
0.450602
0.44936
0.44806
0.446725
0.445387
0.444086
0.442935
0.442323
0.442444
0.517714
0.527477
0.534525
0.540693
0.545054
0.548842
0.551803
0.554375
0.556528
0.558395
0.559995
0.56138
0.562563
0.563556
0.564384
0.565058
0.565603
0.565997
0.566273
0.566435
0.566493
0.566441
0.566307
0.566077
0.565753
0.565346
0.564831
0.564228
0.563531
0.562725
0.561833
0.56082
0.559717
0.558503
0.55719
0.555778
0.554298
0.552733
0.551285
0.549631
0.515594
0.525212
0.532329
0.53857
0.543024
0.546908
0.549956
0.552605
0.554821
0.556744
0.558396
0.559818
0.561022
0.562047
0.562911
0.563607
0.56416
0.564586
0.564896
0.565073
0.565142
0.565114
0.564991
0.564788
0.56448
0.564075
0.563581
0.562988
0.5623
0.561514
0.560622
0.559632
0.558531
0.557328
0.55602
0.554621
0.55315
0.551591
0.550156
0.548517
0.513432
0.522913
0.530087
0.536412
0.540965
0.544956
0.548096
0.550827
0.553111
0.555092
0.556797
0.558255
0.559483
0.56054
0.561438
0.562155
0.562719
0.563174
0.563514
0.563708
0.56379
0.563787
0.563676
0.563496
0.563206
0.562806
0.562332
0.56175
0.561071
0.560306
0.559415
0.558448
0.557353
0.556162
0.554862
0.553477
0.552018
0.550468
0.549047
0.547423
0.511224
0.520579
0.527795
0.534217
0.538876
0.542984
0.546224
0.549045
0.551401
0.553441
0.555194
0.55669
0.557952
0.559037
0.559958
0.5607
0.561285
0.561763
0.562122
0.562339
0.562441
0.562458
0.562365
0.5622
0.561928
0.561542
0.561083
0.560516
0.559849
0.559097
0.558219
0.557263
0.556181
0.555003
0.553716
0.552345
0.550901
0.549363
0.547955
0.546345
0.508965
0.518208
0.525453
0.531983
0.536756
0.540992
0.54434
0.547256
0.54969
0.551791
0.553589
0.555125
0.556424
0.557536
0.558476
0.559244
0.559856
0.560352
0.560725
0.560968
0.561094
0.561129
0.561057
0.560901
0.560648
0.560283
0.559836
0.559286
0.558633
0.557891
0.557031
0.556083
0.555016
0.553854
0.552583
0.551225
0.549797
0.548274
0.546879
0.545283
0.506654
0.515799
0.52306
0.529709
0.534604
0.538977
0.542443
0.545461
0.547978
0.550141
0.551987
0.553563
0.554897
0.556035
0.556996
0.557789
0.558424
0.55894
0.55933
0.559597
0.559747
0.5598
0.559749
0.559605
0.55937
0.559024
0.558591
0.558058
0.557421
0.556691
0.555848
0.554911
0.553861
0.552715
0.551461
0.550117
0.548706
0.547198
0.545815
0.544233
0.504288
0.51335
0.520614
0.527393
0.532418
0.53694
0.540532
0.543659
0.546263
0.548491
0.550388
0.552003
0.553372
0.554537
0.555519
0.556334
0.556992
0.557528
0.557937
0.558227
0.558399
0.55847
0.55844
0.558311
0.558095
0.557768
0.557349
0.556834
0.556213
0.555496
0.554671
0.553749
0.552715
0.551587
0.550351
0.549022
0.547627
0.546134
0.544765
0.543197
0.501866
0.510862
0.518113
0.525033
0.530196
0.534879
0.538607
0.541851
0.544546
0.546843
0.548791
0.550447
0.551849
0.553041
0.554044
0.554882
0.555561
0.556118
0.556547
0.556858
0.557051
0.557141
0.557133
0.557019
0.55682
0.556513
0.55611
0.555612
0.555008
0.554308
0.5535
0.552595
0.551579
0.550468
0.549252
0.54794
0.546562
0.545083
0.543727
0.542173
0.499386
0.508335
0.515557
0.522628
0.527936
0.532793
0.536668
0.540036
0.542827
0.545195
0.547197
0.548893
0.550329
0.551547
0.552571
0.553431
0.554131
0.554709
0.555158
0.55549
0.555705
0.555812
0.555825
0.555729
0.555548
0.55526
0.554873
0.554393
0.553808
0.553124
0.552335
0.551449
0.550452
0.549361
0.548164
0.54687
0.545508
0.544045
0.5427
0.541161
0.496849
0.505769
0.512943
0.520176
0.525636
0.53068
0.534712
0.538213
0.541107
0.543549
0.545605
0.547343
0.548811
0.550056
0.551102
0.551983
0.552704
0.553303
0.553773
0.554124
0.55436
0.554485
0.554519
0.554441
0.554276
0.554009
0.553639
0.553177
0.552612
0.551947
0.551178
0.550311
0.549335
0.548263
0.547088
0.545812
0.544466
0.54302
0.541686
0.540162
0.494256
0.503165
0.510273
0.517676
0.523296
0.528539
0.53274
0.536382
0.539383
0.541903
0.544016
0.545797
0.547297
0.548568
0.549635
0.550538
0.55128
0.551899
0.55239
0.55276
0.553017
0.55316
0.553213
0.553155
0.553006
0.55276
0.552409
0.551965
0.55142
0.550775
0.550027
0.549181
0.548228
0.547176
0.546022
0.544766
0.543436
0.542007
0.540685
0.539176
0.49161
0.500526
0.507546
0.515127
0.520914
0.526369
0.53075
0.534542
0.537656
0.540258
0.542429
0.544253
0.545786
0.547083
0.548171
0.549095
0.549858
0.550497
0.551009
0.551398
0.551675
0.551836
0.551909
0.551871
0.551739
0.551513
0.551181
0.550757
0.550233
0.549609
0.548883
0.548059
0.54713
0.546098
0.544967
0.543732
0.542418
0.541008
0.539697
0.538201
0.488915
0.497854
0.504764
0.512529
0.51849
0.524168
0.528741
0.532692
0.535926
0.538612
0.540845
0.542712
0.544278
0.5456
0.546709
0.547654
0.548439
0.549098
0.549631
0.550038
0.550336
0.550515
0.550606
0.550589
0.550473
0.550268
0.549956
0.549552
0.549051
0.548449
0.547745
0.546944
0.54604
0.54503
0.543921
0.542708
0.541412
0.54002
0.538722
0.537238
0.486176
0.495154
0.501931
0.509881
0.516022
0.521935
0.526713
0.530831
0.534191
0.536967
0.539262
0.541174
0.542773
0.54412
0.545251
0.546217
0.547023
0.547702
0.548255
0.548681
0.548998
0.549197
0.549305
0.549308
0.54921
0.549025
0.548735
0.548351
0.547873
0.547294
0.546614
0.545836
0.544959
0.543971
0.542884
0.541696
0.540418
0.539045
0.53776
0.536288
0.4834
0.49243
0.49905
0.507186
0.513513
0.51967
0.524664
0.528959
0.532452
0.535322
0.537683
0.53964
0.541272
0.542644
0.543797
0.544783
0.54561
0.546309
0.546881
0.547326
0.547661
0.54788
0.548005
0.548029
0.547948
0.547784
0.547516
0.547153
0.546698
0.546144
0.545488
0.544734
0.543883
0.54292
0.541857
0.540694
0.539437
0.538082
0.536811
0.53535
0.480595
0.489688
0.496128
0.504445
0.510961
0.517373
0.522594
0.527076
0.530708
0.533678
0.536107
0.53811
0.539776
0.541172
0.542347
0.543354
0.544201
0.544919
0.545509
0.545973
0.546327
0.546566
0.546707
0.546751
0.546689
0.546544
0.5463
0.545959
0.545527
0.544997
0.544367
0.543637
0.542814
0.541877
0.540838
0.539702
0.538467
0.537131
0.535877
0.534426
0.477771
0.486937
0.49317
0.501661
0.50837
0.515044
0.520503
0.52518
0.528959
0.532033
0.534534
0.536584
0.538285
0.539705
0.540902
0.541928
0.542795
0.543531
0.54414
0.544623
0.544994
0.545253
0.545411
0.545474
0.545432
0.545306
0.545086
0.544768
0.544358
0.543855
0.543251
0.542546
0.54175
0.540841
0.539829
0.53872
0.537509
0.536193
0.534955
0.533514
0.474938
0.484184
0.490185
0.49884
0.505741
0.512683
0.518391
0.523273
0.527206
0.530389
0.532965
0.535063
0.536798
0.538243
0.539462
0.540507
0.541392
0.542147
0.542773
0.543275
0.543664
0.543942
0.544116
0.544198
0.544178
0.544071
0.543874
0.54358
0.543192
0.542716
0.542139
0.54146
0.540692
0.539812
0.538828
0.537747
0.536562
0.535267
0.534046
0.532615
0.472109
0.481438
0.487183
0.495985
0.503079
0.510292
0.516258
0.521353
0.525447
0.528746
0.531398
0.533546
0.535316
0.536786
0.538026
0.53909
0.539993
0.540765
0.541409
0.541929
0.542335
0.542633
0.542824
0.542924
0.542927
0.542838
0.542664
0.542394
0.54203
0.541579
0.541031
0.540378
0.539639
0.538789
0.537835
0.536782
0.535626
0.534352
0.53315
0.531728
0.469297
0.478711
0.484176
0.493105
0.500388
0.507872
0.514105
0.51942
0.523684
0.527101
0.529833
0.532033
0.533838
0.535333
0.536594
0.537677
0.538597
0.539386
0.540047
0.540585
0.541008
0.541325
0.541534
0.541651
0.541677
0.541608
0.541456
0.541211
0.540871
0.540446
0.539926
0.5393
0.538591
0.537772
0.536849
0.535826
0.5347
0.533449
0.532266
0.530854
0.466515
0.476013
0.481175
0.490206
0.497672
0.505427
0.511934
0.517476
0.521914
0.525456
0.528271
0.530524
0.532365
0.533886
0.535166
0.536268
0.537205
0.538011
0.538689
0.539244
0.539683
0.540018
0.540246
0.54038
0.540429
0.540379
0.540249
0.540031
0.539714
0.539315
0.538824
0.538225
0.537547
0.53676
0.53587
0.534878
0.533784
0.532558
0.531395
0.529992
0.463778
0.473355
0.478195
0.487297
0.494939
0.502959
0.509744
0.51552
0.520139
0.523811
0.526711
0.529021
0.530898
0.532444
0.533744
0.534863
0.535817
0.53664
0.537334
0.537906
0.538361
0.538714
0.538961
0.539111
0.539182
0.539153
0.539045
0.538851
0.538559
0.538186
0.537724
0.537154
0.536506
0.535753
0.534897
0.533938
0.532878
0.531679
0.530537
0.529144
0.461102
0.47075
0.475249
0.484389
0.492195
0.500474
0.507539
0.513554
0.518359
0.522165
0.525154
0.527522
0.529437
0.531008
0.532328
0.533464
0.534435
0.535273
0.535982
0.53657
0.537042
0.537411
0.537678
0.537844
0.537936
0.537928
0.537842
0.537673
0.537406
0.537058
0.536625
0.536085
0.535468
0.53475
0.533931
0.533006
0.531982
0.530812
0.529692
0.52831
0.458499
0.468208
0.472353
0.481492
0.489449
0.497977
0.505322
0.511579
0.516573
0.520519
0.5236
0.526028
0.527983
0.529579
0.53092
0.532071
0.533059
0.533911
0.534634
0.535238
0.535727
0.536112
0.536397
0.536579
0.536692
0.536704
0.53664
0.536497
0.536253
0.535931
0.535527
0.535018
0.534434
0.533752
0.53297
0.532081
0.531095
0.529957
0.528861
0.527492
0.455986
0.465741
0.469519
0.478618
0.48671
0.495472
0.503094
0.509595
0.514782
0.518872
0.522048
0.52454
0.526534
0.528156
0.529518
0.530685
0.531689
0.532553
0.533291
0.533909
0.534415
0.534814
0.535118
0.535317
0.535448
0.535482
0.53544
0.535321
0.535102
0.534806
0.534431
0.533954
0.533401
0.532757
0.532015
0.531165
0.530219
0.529115
0.528045
0.526689
0.453576
0.463358
0.466763
0.475779
0.483988
0.492968
0.50086
0.507604
0.512987
0.517224
0.5205
0.523056
0.525092
0.526741
0.528124
0.529306
0.530324
0.531201
0.531952
0.532584
0.533106
0.53352
0.533841
0.534056
0.534207
0.534262
0.53424
0.534145
0.533951
0.533681
0.533334
0.53289
0.532371
0.531765
0.531064
0.530255
0.529351
0.528287
0.527246
0.525904
0.451282
0.461067
0.464098
0.472989
0.481292
0.490471
0.498624
0.505609
0.51119
0.515576
0.518953
0.521577
0.523656
0.525334
0.526738
0.527935
0.528966
0.529854
0.530617
0.531263
0.5318
0.532228
0.532565
0.532798
0.532966
0.533043
0.53304
0.532969
0.5328
0.532556
0.532237
0.531827
0.531343
0.530775
0.530117
0.529352
0.528493
0.527472
0.526464
0.525138
0.449115
0.458876
0.461535
0.470258
0.478635
0.487988
0.496391
0.503611
0.50939
0.513928
0.51741
0.520103
0.522227
0.523934
0.525359
0.52657
0.527615
0.528513
0.529288
0.529946
0.530497
0.530939
0.531292
0.531542
0.531726
0.531825
0.531842
0.531794
0.531649
0.531431
0.53114
0.530763
0.530314
0.529787
0.529172
0.528453
0.527642
0.526669
0.5257
0.524391
0.447084
0.45679
0.459087
0.4676
0.476025
0.485528
0.494165
0.501614
0.50759
0.51228
0.51587
0.518635
0.520806
0.522543
0.523988
0.525214
0.52627
0.527178
0.527964
0.528633
0.529197
0.529652
0.53002
0.530288
0.530488
0.530608
0.530643
0.530617
0.530496
0.530305
0.530041
0.529699
0.529286
0.5288
0.528229
0.527559
0.5268
0.52588
0.524954
0.523666
0.4452
0.454811
0.456761
0.465025
0.473473
0.483097
0.49195
0.49962
0.505791
0.510634
0.514334
0.517172
0.519392
0.52116
0.522626
0.523865
0.524931
0.52585
0.526645
0.527325
0.5279
0.528369
0.528751
0.529036
0.529251
0.529391
0.529445
0.52944
0.529343
0.529177
0.528942
0.528634
0.528257
0.527811
0.527286
0.526667
0.525965
0.525104
0.524229
0.522966
0.443468
0.452942
0.454565
0.462545
0.470988
0.480703
0.489751
0.497631
0.503993
0.508989
0.512801
0.515715
0.517986
0.519786
0.521273
0.522525
0.523601
0.524528
0.525333
0.526022
0.526608
0.527089
0.527484
0.527786
0.528016
0.528174
0.528247
0.528262
0.528188
0.528048
0.527841
0.527566
0.527226
0.526821
0.526342
0.525777
0.525136
0.52434
0.523525
0.522293
0.441895
0.451181
0.452504
0.460169
0.468579
0.478354
0.487573
0.49565
0.502198
0.507345
0.511272
0.514266
0.516588
0.518421
0.519929
0.521194
0.522278
0.523214
0.524026
0.524723
0.525319
0.525812
0.526219
0.526536
0.526781
0.526957
0.527049
0.527081
0.527032
0.526917
0.526738
0.526496
0.526192
0.525828
0.525397
0.524888
0.524312
0.523589
0.522843
0.521651
0.44049
0.449528
0.450579
0.457904
0.466254
0.476055
0.485421
0.493679
0.500407
0.505706
0.509747
0.512824
0.5152
0.517066
0.518594
0.519871
0.520962
0.521906
0.522724
0.523429
0.524034
0.524538
0.524955
0.525288
0.525547
0.525739
0.525849
0.525899
0.525874
0.525783
0.525632
0.525423
0.525154
0.524832
0.524449
0.523998
0.523492
0.522849
0.522184
0.521045
0.43926
0.447978
0.448794
0.455758
0.46402
0.473814
0.4833
0.491723
0.498624
0.504071
0.50823
0.51139
0.513821
0.515721
0.517269
0.518558
0.519656
0.520606
0.521429
0.52214
0.522752
0.523265
0.523693
0.52404
0.524314
0.52452
0.524648
0.524716
0.524713
0.524646
0.524523
0.524346
0.524112
0.523832
0.523497
0.523106
0.522672
0.522119
0.521548
0.520479
0.438219
0.446528
0.447147
0.453736
0.461883
0.471637
0.481215
0.489785
0.496852
0.502444
0.50672
0.509966
0.512452
0.514388
0.515955
0.517255
0.518358
0.519313
0.520141
0.520855
0.521474
0.521995
0.522434
0.522793
0.523081
0.5233
0.523447
0.52353
0.523551
0.523507
0.523411
0.523265
0.523065
0.522826
0.52254
0.52221
0.521852
0.521398
0.520938
0.51996
0.437384
0.445174
0.445637
0.451841
0.459849
0.469533
0.479174
0.487875
0.495097
0.500831
0.505224
0.508554
0.511095
0.513066
0.514653
0.515963
0.517071
0.518028
0.518859
0.519576
0.520201
0.520729
0.521177
0.521547
0.521849
0.52208
0.522245
0.522344
0.522385
0.522364
0.522295
0.52218
0.522013
0.521814
0.521577
0.521308
0.521029
0.520682
0.520352
0.519498
0.436777
0.443917
0.444263
0.450081
0.457928
0.467512
0.477189
0.486
0.493365
0.499235
0.503742
0.507157
0.509753
0.511759
0.513364
0.514683
0.515794
0.516752
0.517585
0.518304
0.518932
0.519466
0.519923
0.520303
0.520617
0.52086
0.521041
0.521156
0.521218
0.52122
0.521175
0.52109
0.520955
0.520795
0.520606
0.520399
0.5202
0.519969
0.519791
0.519103
0.436439
0.44277
0.443037
0.448458
0.456106
0.465546
0.475219
0.484113
0.491611
0.497613
0.502237
0.50574
0.508396
0.510441
0.512065
0.513395
0.514511
0.515469
0.516302
0.517023
0.517654
0.518194
0.51866
0.519049
0.519376
0.519631
0.519827
0.519958
0.52004
0.520064
0.520044
0.519987
0.519885
0.519763
0.51962
0.519475
0.519358
0.51925
0.519248
0.518787
0.436443
0.441703
0.441916
0.446912
0.454308
0.463546
0.473169
0.482123
0.489748
0.495889
0.50064
0.504243
0.506969
0.509062
0.510716
0.512062
0.513187
0.51415
0.514986
0.515711
0.516347
0.516895
0.517369
0.51777
0.518109
0.518378
0.518591
0.51874
0.518841
0.518889
0.518894
0.518863
0.518795
0.51871
0.518614
0.518529
0.518494
0.518514
0.518715
0.518571
0.43691
0.440614
0.440713
0.445345
0.45257
0.461676
0.471285
0.480307
0.488051
0.494313
0.499172
0.502856
0.505638
0.507764
0.509433
0.510784
0.511909
0.512869
0.513703
0.514429
0.515065
0.515618
0.516099
0.516509
0.516857
0.517138
0.517364
0.517529
0.517647
0.517715
0.517741
0.517735
0.517696
0.517644
0.517591
0.517561
0.517601
0.517745
0.518164
0.518446
0.437592
0.436679
0.43587
0.439916
0.447297
0.456724
0.466791
0.47628
0.484446
0.491041
0.496143
0.499972
0.502793
0.50487
0.506427
0.507643
0.508642
0.509499
0.510254
0.510928
0.511528
0.512062
0.512531
0.512939
0.513288
0.513581
0.513822
0.514012
0.514159
0.514264
0.514335
0.51438
0.514407
0.514431
0.514474
0.514569
0.514781
0.515219
0.516212
0.517956
0.427004
0.427329
0.428503
0.433681
0.441418
0.450477
0.459868
0.468699
0.476372
0.482671
0.487648
0.491476
0.494378
0.496579
0.498278
0.499634
0.50076
0.501729
0.502584
0.503348
0.504034
0.50465
0.505199
0.505687
0.506115
0.506486
0.506804
0.507072
0.507294
0.507475
0.507621
0.507741
0.507845
0.507951
0.508085
0.508287
0.508638
0.509305
0.510703
0.513109
0.415746
0.418573
0.42194
0.427986
0.43566
0.444113
0.45271
0.460823
0.467983
0.473984
0.478835
0.482661
0.485642
0.487967
0.489811
0.491314
0.492577
0.493671
0.494638