/*--------------------------------*- C++ -*----------------------------------*\
  =========                 |
  \\      /  F ield         | OpenFOAM: The Open Source CFD Toolbox
   \\    /   O peration     | Website:  https://openfoam.org
    \\  /    A nd           | Version:  7
     \\/     M anipulation  |
\*---------------------------------------------------------------------------*/
FoamFile
{
    version     2.0;
    format      ascii;
    class       volVectorField;
    location    "6.1";
    object      U;
}
// * * * * * * * * * * * * * * * * * * * * * * * * * * * * * * * * * * * * * //

dimensions      [0 1 -1 0 0 0 0];

internalField   nonuniform List<vector> 
32000
(
(2.62727e-05 -0.00104963 -3.9154e-22)
(1.33833e-05 0.00142761 0)
(-3.85959e-05 0.00766123 -3.49534e-21)
(-9.36775e-05 0.0164819 0)
(-0.000103027 0.0271345 3.63837e-21)
(-1.89672e-05 0.0391064 0)
(0.000197442 0.0520221 3.75764e-21)
(0.000577361 0.0656016 -2.8566e-21)
(0.001145 0.0796331 6.79908e-25)
(0.00191723 0.0939563 9.08055e-25)
(0.00290232 0.108441 -9.8362e-22)
(0.0040994 0.122981 3.971e-21)
(0.00550233 0.137487 0)
(0.00710288 0.151875 -1.0092e-21)
(0.00889058 0.166073 1.01339e-21)
(0.0108526 0.18001 0)
(0.0129744 0.19362 5.12952e-21)
(0.0152403 0.206841 -1.02899e-21)
(0.0176331 0.219615 0)
(0.0201367 0.231887 2.08227e-21)
(0.0227349 0.243608 2.08776e-21)
(0.0254123 0.254732 0)
(0.0281545 0.265222 0)
(0.0309479 0.275044 0)
(0.0337795 0.284171 0)
(0.036637 0.292583 0)
(0.039509 0.300266 0)
(0.0423854 0.307211 0)
(0.0452576 0.313415 -4.23683e-21)
(0.0481181 0.31888 0)
(0.0509602 0.323611 4.24134e-21)
(0.0537784 0.32762 0)
(0.0565683 0.330918 0)
(0.0593262 0.333519 0)
(0.0620483 0.335439 -4.23482e-21)
(0.064732 0.336693 -2.1236e-21)
(0.0673742 0.337294 6.35187e-21)
(0.0699803 0.33725 1.98434e-24)
(0.0725397 0.336609 4.22513e-21)
(0.0749202 0.335436 4.11973e-25)
(2.55378e-05 -0.00102647 0)
(-0.0001324 0.00147513 6.82522e-21)
(-0.000470045 0.00770666 1.74717e-21)
(-0.000890858 0.0165057 4.55184e-26)
(-0.00132477 0.0271117 -1.81879e-21)
(-0.00170426 0.0390108 0)
(-0.00197529 0.0518296 3.75617e-21)
(-0.00209742 0.0652924 -3.80771e-21)
(-0.00203992 0.0791895 0)
(-0.00178067 0.093365 -7.79349e-21)
(-0.00130746 0.107692 0)
(-0.000617174 0.122068 -1.19097e-20)
(0.00028705 0.136404 0)
(0.00139968 0.150623 0)
(0.00271244 0.164652 4.06145e-21)
(0.0042139 0.178425 -4.07456e-21)
(0.00589146 0.191876 -4.10174e-21)
(0.00773129 0.204944 0)
(0.00971823 0.217573 1.24161e-20)
(0.0118371 0.229708 -4.14507e-21)
(0.0140729 0.241301 6.76374e-24)
(0.0164114 0.252307 -1.25261e-20)
(0.0188391 0.262689 -8.37728e-21)
(0.0213426 0.272412 -4.21068e-21)
(0.0239093 0.281452 1.2613e-20)
(0.0265275 0.289786 -1.2655e-20)
(0.0291863 0.2974 1.26807e-20)
(0.0318753 0.304285 -1.68842e-20)
(0.0345851 0.310438 -4.21887e-21)
(0.0373075 0.31586 3.10157e-23)
(0.0400354 0.320556 -1.26601e-20)
(0.0427627 0.324536 -8.45049e-21)
(0.0454833 0.327811 1.69471e-20)
(0.048192 0.330396 -1.68942e-20)
(0.050884 0.332304 -4.20776e-21)
(0.0535547 0.333553 -1.68964e-20)
(0.0561991 0.334155 -4.39111e-24)
(0.0588205 0.33412 4.21913e-21)
(0.0613967 0.333501 -1.67651e-20)
(0.0638013 0.332367 -2.42053e-20)
(2.57756e-05 -0.0010053 -1.56627e-21)
(-0.000272813 0.00151877 -3.41242e-21)
(-0.000892136 0.00776849 -1.57251e-20)
(-0.00167325 0.016559 0)
(-0.00252123 0.0271265 1.81866e-21)
(-0.0033498 0.0389588 -1.84961e-21)
(-0.00409298 0.0516844 -2.25375e-20)
(-0.004702 0.0650308 7.61614e-21)
(-0.0051378 0.0787928 -3.85586e-21)
(-0.00537243 0.0928172 2.33749e-20)
(-0.00539196 0.106982 7.86968e-21)
(-0.00518962 0.121187 3.97261e-21)
(-0.00476518 0.135349 -1.60018e-20)
(-0.00412236 0.14939 0)
(-0.00326739 0.163242 0)
(-0.0022093 0.17684 8.16748e-21)
(-0.00095877 0.190121 2.34057e-23)
(0.000471476 0.203025 -8.22299e-21)
(0.00206746 0.215497 -8.27154e-21)
(0.00381551 0.227483 -1.65941e-20)
(0.00570221 0.238935 2.49914e-20)
(0.00771386 0.249811 2.07053e-23)
(0.0098375 0.260071 -1.38556e-23)
(0.0120609 0.269684 8.37312e-21)
(0.0143718 0.278622 -1.68405e-20)
(0.0167587 0.286865 3.3659e-20)
(0.0192106 0.294397 0)
(0.021717 0.301211 8.44874e-21)
(0.0242683 0.3073 8.4556e-21)
(0.0268559 0.312668 1.69308e-20)
(0.0294721 0.317318 3.10081e-23)
(0.0321094 0.321259 0)
(0.0347605 0.324504 8.47321e-21)
(0.0374193 0.327064 -8.38595e-21)
(0.0400792 0.328956 -8.3888e-21)
(0.0427333 0.330196 2.53029e-20)
(0.0453753 0.330797 -2.51265e-20)
(0.0480061 0.330774 1.68071e-20)
(0.0505918 0.33018 -2.50168e-20)
(0.0530114 0.32909 9.58847e-21)
(2.53266e-05 -0.000941208 1.25332e-20)
(-0.00041559 0.00165322 -1.36522e-20)
(-0.00131648 0.0079349 2.79556e-20)
(-0.00245103 0.0167228 0)
(-0.00370348 0.0272526 1.091e-20)
(-0.00496962 0.0390145 1.84951e-20)
(-0.00617008 0.0516405 3.75771e-21)
(-0.00724706 0.0648624 1.86327e-24)
(-0.00815649 0.0784817 1.15627e-20)
(-0.00886609 0.0923463 -3.89918e-21)
(-0.00935766 0.106339 1.96678e-20)
(-0.00962172 0.120363 -2.38178e-20)
(-0.00965611 0.134338 2.39953e-20)
(-0.00946202 0.14819 -8.06573e-21)
(-0.00904339 0.161854 8.09934e-21)
(-0.00840806 0.175266 -1.63061e-20)
(-0.00756554 0.188364 -2.45946e-20)
(-0.00652662 0.201092 8.21976e-21)
(-0.00530371 0.213394 -8.27906e-21)
(-0.00390958 0.225218 2.48741e-20)
(-0.00235662 0.236518 -1.66478e-20)
(-0.000657344 0.24725 -1.6682e-20)
(0.00117598 0.257377 0)
(0.00313131 0.266866 0)
(0.00519692 0.275691 -1.67833e-20)
(0.0073618 0.28383 -1.68299e-20)
(0.00961522 0.29127 -1.68233e-20)
(0.0119465 0.298 0)
(0.0143457 0.304016 0)
(0.0168037 0.309319 -3.3748e-20)
(0.019312 0.313913 -7.88005e-23)
(0.0218621 0.317808 1.68764e-20)
(0.0244459 0.321013 -1.68048e-20)
(0.0270555 0.323544 -1.68638e-20)
(0.0296829 0.325414 1.68208e-20)
(0.0323192 0.326642 0)
(0.0349563 0.327243 1.67758e-20)
(0.0375921 0.327233 -3.34201e-20)
(0.0401821 0.326668 3.33359e-20)
(0.0426102 0.325628 -3.84715e-20)
(2.15214e-05 -0.000865792 -6.2662e-21)
(-0.000562001 0.00181533 1.02386e-20)
(-0.00174021 0.00814443 -1.39777e-20)
(-0.003222 0.0169381 0)
(-0.00486782 0.0274334 -1.81837e-20)
(-0.00655656 0.0391256 -1.10973e-20)
(-0.00819774 0.0516515 1.50233e-20)
(-0.00972456 0.0647474 0)
(-0.0110876 0.0782192 -2.31259e-20)
(-0.0122506 0.0919193 -7.79484e-21)
(-0.0131926 0.105734 -7.86295e-21)
(-0.0139016 0.119572 1.58854e-20)
(-0.0143725 0.133353 -1.59996e-20)
(-0.0146049 0.14701 8.04822e-21)
(-0.0146014 0.160477 0)
(-0.014368 0.173693 2.44686e-20)
(-0.0139127 0.186601 8.20569e-21)
(-0.0132452 0.199142 -1.64832e-20)
(-0.0123767 0.211265 3.30467e-20)
(-0.0113185 0.222917 -3.31617e-20)
(-0.0100821 0.234054 3.32272e-20)
(-0.00867928 0.244632 1.66819e-20)
(-0.00712187 0.254614 0)
(-0.00542111 0.263969 1.67815e-20)
(-0.00358813 0.272669 4.55665e-23)
(-0.00163366 0.280695 0)
(0.000431561 0.288031 1.68233e-20)
(0.00259681 0.294667 -1.68586e-20)
(0.00485189 0.300599 1.67886e-20)
(0.00718733 0.305828 3.37099e-20)
(0.0095937 0.310358 -3.3644e-20)
(0.0120617 0.314198 3.36085e-20)
(0.0145821 0.317358 0)
(0.0171458 0.319853 0)
(0.0197429 0.321699 3.35026e-20)
(0.0223622 0.322913 0)
(0.024994 0.323514 0)
(0.0276333 0.323519 -3.32913e-20)
(0.0302252 0.322989 3.31408e-20)
(0.032658 0.322007 1.9213e-20)
(1.37457e-05 -0.00076563 3.13401e-21)
(-0.000715385 0.00203309 0)
(-0.00216842 0.00842315 2.79562e-20)
(-0.00398937 0.0172291 3.56839e-21)
(-0.00601729 0.027692 3.63668e-21)
(-0.00811434 0.0393129 2.21925e-20)
(-0.0101786 0.0517357 3.0044e-20)
(-0.0121354 0.0647013 0)
(-0.0139311 0.0780204 7.71009e-21)
(-0.0155259 0.09155 2.33768e-20)
(-0.0168954 0.105181 3.14694e-20)
(-0.0180256 0.118824 -7.94248e-21)
(-0.0189097 0.132405 -2.40022e-20)
(-0.0195454 0.145857 0)
(-0.0199335 0.159118 3.24208e-20)
(-0.0200792 0.172131 0)
(-0.0199891 0.184838 4.91648e-20)
(-0.0196716 0.197184 -1.64299e-20)
(-0.0191366 0.209116 0)
(-0.0183944 0.220588 -1.66008e-20)
(-0.0174558 0.231551 -3.3623e-23)
(-0.0163319 0.241965 -1.66219e-20)
(-0.0150337 0.251793 -1.66681e-20)
(-0.0135718 0.261003 1.67635e-20)
(-0.0119568 0.269569 -1.67198e-20)
(-0.0101994 0.27747 0)
(-0.00831004 0.284693 -1.68204e-20)
(-0.00629951 0.291226 1.67562e-20)
(-0.00417824 0.297065 0)
(-0.00195624 0.302212 0)
(0.000356447 0.30667 0)
(0.00274972 0.310447 -3.36095e-20)
(0.00521348 0.313556 3.3432e-20)
(0.00773687 0.316012 0)
(0.0103081 0.31783 -1.67247e-20)
(0.0129141 0.31903 0)
(0.0155431 0.319632 3.3313e-20)
(0.0181871 0.319656 -1.64899e-20)
(0.0207816 0.319167 -3.3125e-20)
(0.023218 0.31825 3.81509e-20)
(1.36027e-07 -0.000647091 2.19425e-20)
(-0.000878114 0.00229256 -3.07211e-20)
(-0.00260206 0.00875673 -5.24171e-20)
(-0.00475423 0.0175805 -2.85477e-20)
(-0.00715166 0.0280119 -7.27308e-21)
(-0.00964046 0.0395609 -1.47942e-20)
(-0.012109 0.0518781 -6.75968e-20)
(-0.0144756 0.0647096 -2.28399e-20)
(-0.0166815 0.0778715 -3.8534e-20)
(-0.0186843 0.0912257 -3.89601e-20)
(-0.0204572 0.104667 -5.5076e-20)
(-0.0219841 0.11811 -3.17458e-20)
(-0.0232565 0.131483 -4.02411e-25)
(-0.0242704 0.144724 -3.22188e-20)
(-0.0250257 0.157774 -3.24207e-20)
(-0.0255263 0.170575 -4.89176e-20)
(-0.0257778 0.183073 3.27552e-20)
(-0.0257871 0.195215 -1.64267e-20)
(-0.0255633 0.206951 0)
(-0.0251159 0.218232 3.31261e-20)
(-0.0244548 0.229014 0)
(-0.0235903 0.239255 6.66151e-20)
(-0.0225328 0.248919 0)
(-0.0212923 0.257976 -1.67467e-20)
(-0.0198791 0.266399 1.67862e-20)
(-0.0183033 0.274169 -3.34349e-20)
(-0.0165755 0.281269 0)
(-0.0147066 0.287691 -3.35976e-20)
(-0.0127069 0.29343 3.3458e-20)
(-0.0105869 0.298486 0)
(-0.0083574 0.302865 0)
(-0.00602901 0.306575 0)
(-0.0036131 0.309628 -3.33662e-20)
(-0.00112189 0.312039 0)
(0.00143087 0.313828 -3.3352e-20)
(0.00403012 0.315013 6.643e-20)
(0.00666175 0.315619 -6.62615e-20)
(0.00931485 0.315667 3.28633e-20)
(0.0119159 0.315224 6.58681e-20)
(0.0143581 0.314382 -3.80192e-20)
(-2.01995e-05 -0.00051106 -2.82115e-20)
(-0.00105245 0.00259263 -8.06841e-25)
(-0.00304336 0.00914174 2.79559e-20)
(-0.00551735 0.017988 5.70945e-20)
(-0.00827063 0.0283896 -7.27288e-21)
(-0.0111341 0.0398653 -2.95894e-20)
(-0.013987 0.0520738 3.00403e-20)
(-0.0167409 0.0647677 4.56843e-20)
(-0.0193334 0.0777687 1.54135e-20)
(-0.0217195 0.0909431 3.89558e-20)
(-0.0238701 0.10419 3.147e-20)
(-0.0257676 0.117427 4.76079e-20)
(-0.0274018 0.130589 9.59882e-20)
(-0.0287676 0.143613 4.83436e-20)
(-0.0298641 0.156444 0)
(-0.0306938 0.169027 1.62793e-20)
(-0.0312614 0.18131 1.63546e-20)
(-0.031573 0.193241 1.64213e-20)
(-0.0316365 0.204773 3.30163e-20)
(-0.0314608 0.215857 -1.65443e-20)
(-0.0310552 0.226449 0)
(-0.030429 0.23651 -1.72948e-23)
(-0.0295919 0.246004 -3.33406e-20)
(-0.0285536 0.2549 3.33871e-20)
(-0.0273239 0.263173 6.68742e-20)
(-0.0259125 0.270803 6.69668e-20)
(-0.0243301 0.277774 4.20792e-23)
(-0.0225875 0.284078 3.34502e-20)
(-0.020695 0.289709 3.34375e-20)
(-0.0186635 0.294669 -3.34137e-20)
(-0.0165042 0.298962 3.33789e-20)
(-0.0142285 0.302599 3.33332e-20)
(-0.0118488 0.305592 6.66432e-20)
(-0.00937902 0.307957 -1.07146e-22)
(-0.00683444 0.309714 9.95039e-20)
(-0.00423237 0.310885 1.17269e-24)
(-0.00158936 0.311496 -3.2952e-20)
(0.0010807 0.311573 -3.2975e-20)
(0.00369594 0.311185 3.2733e-20)
(0.00615008 0.310426 3.78554e-20)
(-4.81095e-05 -0.00035867 2.50812e-20)
(-0.0012398 0.00292891 3.41345e-20)
(-0.00349364 0.00957318 2.09656e-20)
(-0.0062795 0.0184461 -2.14106e-20)
(-0.00937398 0.028818 -3.63618e-20)
(-0.0125937 0.0402188 2.95877e-20)
(-0.0158096 0.0523162 0)
(-0.0189276 0.0648696 3.04569e-20)
(-0.0218816 0.0777057 0)
(-0.0246247 0.0906964 -6.23365e-20)
(-0.0271259 0.103745 1.57466e-20)
(-0.0293662 0.116773 -7.93626e-20)
(-0.0313344 0.129717 -3.19963e-20)
(-0.0330245 0.14252 1.61291e-20)
(-0.0344344 0.155127 3.41506e-23)
(-0.0355659 0.167487 -1.62803e-20)
(-0.0364228 0.179549 -3.27535e-20)
(-0.0370103 0.191265 -6.57802e-20)
(-0.0373356 0.202586 0)
(-0.0374069 0.213467 4.77361e-23)
(-0.0372328 0.223864 -3.31475e-20)
(-0.0368219 0.233739 -3.32804e-20)
(-0.0361832 0.243056 3.33406e-20)
(-0.0353258 0.251786 -3.3458e-20)
(-0.0342592 0.259903 3.33892e-20)
(-0.0329932 0.267386 -6.68044e-20)
(-0.0315381 0.274222 3.90898e-23)
(-0.0299043 0.280401 -6.68131e-20)
(-0.0281024 0.285919 -3.34375e-20)
(-0.0261435 0.290777 -2.74577e-23)
(-0.024039 0.294981 -9.70058e-23)
(-0.0218013 0.29854 -3.33332e-20)
(-0.0194436 0.301468 -3.3277e-20)
(-0.0169813 0.303784 -9.58177e-23)
(-0.0144315 0.305508 -3.31339e-20)
(-0.0118137 0.306666 -1.11606e-22)
(-0.00914693 0.307286 -3.29303e-20)
(-0.00644828 0.307397 9.81903e-20)
(-0.00380695 0.307071 -3.2733e-20)
(-0.00133082 0.306407 -3.78725e-20)
(-8.42651e-05 -0.000191719 -2.50791e-20)
(-0.00144136 0.0032975 6.82909e-21)
(-0.00395377 0.0100454 -2.09675e-20)
(-0.00704108 0.0189476 -7.13752e-21)
(-0.0104613 0.0292899 2.90888e-20)
(-0.0140179 0.0406143 -7.39797e-21)
(-0.0175742 0.052598 7.50952e-21)
(-0.0210317 0.0650075 -4.56902e-20)
(-0.0243209 0.0776759 1.54111e-20)
(-0.0273932 0.0904798 3.11692e-20)
(-0.0302164 0.103326 0)
(-0.0327706 0.116142 6.35054e-20)
(-0.0350436 0.128866 0)
(-0.0370284 0.141443 -6.44485e-20)
(-0.0387224 0.153823 -3.24243e-20)
(-0.0401268 0.165955 0)
(-0.0412444 0.177793 0)
(-0.0420798 0.189288 6.57768e-20)
(-0.0426395 0.200395 3.30531e-20)
(-0.0429315 0.211068 -6.62134e-20)
(-0.0429632 0.221265 3.31392e-20)
(-0.0427426 0.230949 0)
(-0.0422781 0.240085 -3.33656e-20)
(-0.0415786 0.248644 6.66758e-20)
(-0.0406532 0.256599 -3.3318e-20)
(-0.0395112 0.263933 -3.34442e-20)
(-0.0381627 0.270629 3.33291e-20)
(-0.0366181 0.276679 0)
(-0.0348879 0.282079 6.67334e-20)
(-0.0329831 0.28683 -3.32596e-20)
(-0.0309157 0.290939 -3.33258e-20)
(-0.0286984 0.294417 -1.09064e-22)
(-0.0263457 0.297278 1.32589e-19)
(-0.023874 0.299542 -9.91439e-20)
(-0.0213023 0.301233 0)
(-0.0186522 0.302378 -3.2936e-20)
(-0.0159456 0.303009 -6.56349e-20)
(-0.0132026 0.30316 3.25038e-20)
(-0.0105189 0.302904 3.24627e-20)
(-0.00800634 0.302348 0)
(-0.000129007 -1.18405e-05 -5.01659e-20)
(-0.00165784 0.00369418 -6.82901e-21)
(-0.00442457 0.0105522 5.59054e-20)
(-0.00780225 0.0194858 -5.70873e-20)
(-0.0115317 0.0297978 0)
(-0.0154048 0.0410439 0)
(-0.0192783 0.052911 -1.50254e-20)
(-0.0230493 0.0651742 -9.00114e-24)
(-0.026646 0.0776723 1.54118e-20)
(-0.0300186 0.0902869 0)
(-0.033134 0.102929 0)
(-0.0359715 0.11553 -1.5864e-20)
(-0.0385183 0.128031 2.64144e-23)
(-0.040767 0.14038 1.61261e-20)
(-0.0427145 0.15253 3.24242e-20)
(-0.044361 0.164432 0)
(-0.0457089 0.176042 3.27952e-20)
(-0.0467625 0.187314 -3.28025e-20)
(-0.0475279 0.198203 -6.60086e-20)
(-0.048012 0.208665 6.62034e-20)
(-0.0482218 0.21866 9.86535e-23)
(-0.0481646 0.22815 -3.3195e-20)
(-0.0478483 0.237102 3.33456e-20)
(-0.0472815 0.245486 -6.6612e-20)
(-0.0464729 0.253277 0)
(-0.0454314 0.260456 3.34067e-20)
(-0.0441669 0.267009 -6.66923e-20)
(-0.0426895 0.272926 3.32732e-20)
(-0.0410095 0.278205 -3.33244e-20)
(-0.039138 0.282846 -3.33067e-20)
(-0.0370871 0.286858 -3.33548e-20)
(-0.0348701 0.290251 1.32538e-19)
(-0.0325022 0.293042 -9.91214e-20)
(-0.0300011 0.295253 -6.60379e-20)
(-0.0273874 0.296909 6.56601e-20)
(-0.0246849 0.298042 0)
(-0.0219183 0.298688 6.53882e-20)
(-0.0191112 0.298883 -6.49789e-20)
(-0.0163643 0.298707 -3.24627e-20)
(-0.0137963 0.29827 0)
(-0.000182811 0.000179231 1.06593e-19)
(-0.00188995 0.00411438 4.77783e-20)
(-0.00490628 0.0110875 -5.5905e-20)
(-0.00856273 0.0200534 4.99515e-20)
(-0.0125844 0.0303338 -7.27247e-21)
(-0.0167529 0.041499 1.47919e-20)
(-0.020919 0.0532471 0)
(-0.0249766 0.0653616 -1.5235e-20)
(-0.0288521 0.0776871 1.54126e-20)
(-0.0324948 0.0901106 1.5597e-20)
(-0.0358711 0.102548 -1.57335e-20)
(-0.03896 0.114932 -1.58933e-20)
(-0.0417485 0.127208 1.59931e-20)
(-0.0442286 0.139328 0)
(-0.0463969 0.151246 0)
(-0.0482534 0.162918 -3.2642e-20)
(-0.0497998 0.174299 3.27193e-20)
(-0.0510401 0.185346 -3.29323e-20)
(-0.0519801 0.196016 3.29594e-20)
(-0.0526263 0.206265 3.31442e-20)
(-0.0529845 0.216055 -6.63499e-20)
(-0.0530617 0.22535 6.64691e-20)
(-0.0528655 0.234116 9.87714e-23)
(-0.0524041 0.242323 -3.32559e-20)
(-0.0516857 0.249948 0)
(-0.0507189 0.256971 3.3371e-20)
(-0.0495133 0.263379 1.01962e-22)
(-0.0480785 0.269161 -3.32309e-20)
(-0.0464248 0.274316 0)
(-0.0445631 0.278845 6.64837e-20)
(-0.0425054 0.282756 -6.61671e-20)
(-0.0402656 0.286062 0)
(-0.0378595 0.288782 6.60362e-20)
(-0.0353057 0.290937 -6.56724e-20)
(-0.0326264 0.292559 0)
(-0.0298476 0.29368 0)
(-0.0269971 0.294342 0)
(-0.0241018 0.294587 -6.48713e-20)
(-0.0212665 0.294499 6.44555e-20)
(-0.0186196 0.294194 7.47126e-20)
(-0.000245817 0.000379428 -5.01612e-20)
(-0.00213792 0.00455361 -5.46067e-20)
(-0.00539909 0.011645 -6.98621e-21)
(-0.00932228 0.0206429 2.14057e-20)
(-0.0136184 0.0308895 -2.90865e-20)
(-0.0180603 0.0419712 2.95869e-20)
(-0.0224938 0.0535977 -3.00448e-20)
(-0.0268101 0.065561 -4.56959e-20)
(-0.0309345 0.0777124 0)
(-0.0348158 0.0899437 -1.5599e-20)
(-0.0384208 0.102174 1.57356e-20)
(-0.0417279 0.114341 0)
(-0.0447243 0.126393 3.20452e-20)
(-0.047402 0.138284 -3.22113e-20)
(-0.0497571 0.149971 -9.73497e-20)
(-0.0517896 0.161411 -7.11429e-23)
(-0.0535007 0.172563 6.55244e-20)
(-0.0548947 0.183385 -3.28519e-20)
(-0.0559767 0.193835 0)
(-0.0567524 0.203872 0)
(-0.0572274 0.213458 6.63339e-20)
(-0.057408 0.222557 3.32711e-20)
(-0.0573017 0.231136 -3.32166e-20)
(-0.0569161 0.239167 -3.33341e-20)
(-0.056259 0.246625 6.65899e-20)
(-0.0553387 0.253492 -3.32413e-20)
(-0.0541643 0.259754 6.66346e-20)
(-0.0527453 0.265401 -1.32949e-19)
(-0.0510913 0.270431 1.32767e-19)
(-0.049213 0.274847 -1.32535e-19)
(-0.0471226 0.278656 1.32255e-19)
(-0.044834 0.281874 -1.3193e-19)
(-0.0423636 0.284519 6.57e-20)
(-0.0397307 0.286618 6.56507e-20)
(-0.0369588 0.288203 1.44597e-22)
(-0.0340762 0.289313 1.35906e-22)
(-0.031114 0.289993 -6.47714e-20)
(-0.0281026 0.290291 1.80731e-22)
(-0.0251492 0.290299 -6.41964e-20)
(-0.0223958 0.29014 0)
(-0.000318234 0.000586967 6.26918e-21)
(-0.00240193 0.00500726 -6.82353e-21)
(-0.00590281 0.0122184 2.09577e-20)
(-0.0100803 0.0212467 -2.85386e-20)
(-0.0146327 0.0314565 1.45414e-20)
(-0.0193253 0.0424517 0)
(-0.0240001 0.0539537 0)
(-0.0285464 0.0657639 6.09215e-20)
(-0.0328889 0.0777397 7.71103e-20)
(-0.0369766 0.089778 -1.55842e-20)
(-0.0407765 0.101802 7.87512e-20)
(-0.0442676 0.113753 -1.58757e-20)
(-0.0474368 0.125581 0)
(-0.0502766 0.137243 0)
(-0.0527831 0.148699 6.48791e-20)
(-0.054956 0.15991 0)
(-0.0567968 0.170834 3.27327e-20)
(-0.0583093 0.181433 -3.29396e-20)
(-0.0594986 0.191664 0)
(-0.0603697 0.20149 -6.61893e-20)
(-0.0609277 0.210873 -3.31252e-20)
(-0.0611787 0.219777 -9.95978e-20)
(-0.0611297 0.228172 -3.32953e-20)
(-0.0607879 0.236028 3.32239e-20)
(-0.0601609 0.243321 6.65216e-20)
(-0.0592565 0.250034 0)
(-0.0580832 0.25615 6.64344e-20)
(-0.0566501 0.261663 1.32823e-19)
(-0.0549665 0.266569 1.68082e-22)
(-0.0530428 0.270871 -6.60701e-20)
(-0.0508908 0.274579 -6.60745e-20)
(-0.0485246 0.277707 6.5742e-20)
(-0.0459607 0.280277 6.56878e-20)
(-0.0432192 0.282318 -1.30787e-19)
(-0.0403248 0.283866 1.30299e-19)
(-0.0373076 0.284963 -6.49893e-20)
(-0.0342023 0.285661 6.45485e-20)
(-0.031043 0.286017 1.28611e-19)
(-0.0279381 0.286128 6.38548e-20)
(-0.0250464 0.286128 7.37294e-20)
(-0.000400055 0.000799824 -5.01366e-20)
(-0.00268193 0.0054708 4.77592e-20)
(-0.00641715 0.0128013 -4.19017e-20)
(-0.0108362 0.0218571 4.27943e-20)
(-0.0156262 0.0320265 7.26953e-20)
(-0.0205464 0.0429314 -5.91621e-20)
(-0.0254357 0.0543061 7.51094e-20)
(-0.0301825 0.065961 4.56971e-20)
(-0.0347115 0.0777601 -1.07939e-19)
(-0.0389724 0.0896053 3.11887e-20)
(-0.0429327 0.101423 1.57494e-20)
(-0.046572 0.113159 3.1805e-20)
(-0.049878 0.124765 3.20631e-20)
(-0.0528432 0.136201 -6.45138e-20)
(-0.055464 0.147429 6.49066e-20)
(-0.0577403 0.158412 9.79086e-20)
(-0.0596738 0.169112 -9.82726e-20)
(-0.0612682 0.179489 1.31601e-19)
(-0.0625281 0.189506 6.60185e-20)
(-0.0634584 0.199123 9.93252e-20)
(-0.0640637 0.208306 3.32006e-20)
(-0.0643498 0.21702 6.64253e-20)
(-0.0643233 0.225232 -6.64674e-20)
(-0.0639912 0.232916 0)
(-0.0633605 0.240048 -1.99583e-19)
(-0.0624386 0.246608 1.32927e-19)
(-0.0612337 0.252583 -6.62715e-20)
(-0.0597543 0.257964 -6.61902e-20)
(-0.0580092 0.262748 3.03854e-23)
(-0.0560082 0.266938 0)
(-0.0537631 0.270544 0)
(-0.0512876 0.273583 6.56034e-20)
(-0.0485984 0.276078 -6.55177e-20)
(-0.0457161 0.27806 6.51567e-20)
(-0.0426659 0.279569 -6.50087e-20)
(-0.0394803 0.280653 -6.47291e-20)
(-0.0361976 0.281369 0)
(-0.0328555 0.281783 -6.4022e-20)
(-0.0295621 0.282005 -6.37827e-20)
(-0.0264971 0.282176 -2.20718e-19)
(-0.000491203 0.0010161 5.01416e-20)
(-0.00297761 0.00593964 -4.77535e-20)
(-0.0069416 0.0133872 5.5873e-20)
(-0.0115891 0.0224665 -9.98463e-20)
(-0.0165976 0.0325909 -7.26929e-20)
(-0.0217217 0.0434014 5.9162e-20)
(-0.0267984 0.0546454 -1.20163e-19)
(-0.0317158 0.0661428 -6.09227e-20)
(-0.036399 0.0777642 7.71155e-20)
(-0.040799 0.0894163 -1.40346e-19)
(-0.0448843 0.10103 -9.45291e-20)
(-0.0486354 0.112551 -3.18145e-20)
(-0.0520406 0.123938 -9.61332e-20)
(-0.0550933 0.135152 9.67453e-20)
(-0.0577902 0.146156 -6.49065e-20)
(-0.0601315 0.156916 -6.52506e-20)
(-0.0621192 0.167394 0)
(-0.0637569 0.177555 -6.5805e-20)
(-0.0650492 0.18736 -9.90687e-20)
(-0.0660005 0.196774 3.30549e-20)
(-0.0666152 0.205762 -6.63198e-20)
(-0.066899 0.214289 0)
(-0.066858 0.222325 6.64671e-20)
(-0.0664989 0.229842 6.65523e-20)
(-0.0658283 0.236816 -6.63381e-20)
(-0.0648533 0.243229 0)
(-0.0635815 0.249067 0)
(-0.0620208 0.25432 0)
(-0.0601795 0.258985 -9.35956e-23)
(-0.0580669 0.263067 0)
(-0.0556944 0.266575 -1.31485e-19)
(-0.0530754 0.269526 -1.31087e-22)
(-0.0502266 0.271946 -1.30572e-19)
(-0.0471684 0.273868 1.30081e-19)
(-0.043927 0.275336 -6.47176e-20)
(-0.0405366 0.276405 6.45711e-20)
(-0.0370394 0.277137 0)
(-0.0334771 0.27761 1.2778e-19)
(-0.0299558 0.277947 -6.34343e-20)
(-0.0266798 0.278301 0)
(-0.000591522 0.00123397 6.26491e-21)
(-0.00328856 0.00640938 0)
(-0.00747549 0.0139701 -6.98065e-20)
(-0.0123381 0.0230674 8.55735e-20)
(-0.0175459 0.0331413 4.36019e-20)
(-0.02285 0.0438525 -5.91479e-20)
(-0.0280865 0.0549622 6.00795e-20)
(-0.0331439 0.0662997 -6.0919e-20)
(-0.0379486 0.0777424 0)
(-0.0424531 0.0892017 6.23826e-20)
(-0.0466273 0.100612 -6.30188e-20)
(-0.0504527 0.111923 -1.04704e-23)
(-0.0539189 0.123094 0)
(-0.05702 0.134089 6.4542e-20)
(-0.0597535 0.144874 -3.24385e-20)
(-0.06212 0.155415 6.53483e-20)
(-0.0641219 0.165678 3.28269e-20)
(-0.0657629 0.175628 -6.5826e-20)
(-0.0670474 0.185228 0)
(-0.0679797 0.194445 9.93269e-20)
(-0.0685642 0.203243 3.31933e-20)
(-0.0688061 0.21159 0)
(-0.0687114 0.219455 0)
(-0.0682865 0.226812 0)
(-0.0675375 0.233636 6.64377e-20)
(-0.0664712 0.239908 0)
(-0.0650946 0.245615 -6.63346e-20)
(-0.0634151 0.250746 1.32292e-19)
(-0.0614403 0.255299 -1.3198e-19)
(-0.0591794 0.259278 0)
(-0.0566428 0.262691 6.56811e-20)
(-0.0538437 0.265558 -6.53256e-20)
(-0.0507984 0.267904 6.52208e-20)
(-0.0475273 0.269767 0)
(-0.0440571 0.271193 0)
(-0.0404236 0.272243 6.429e-20)
(-0.0366731 0.27299 -6.38981e-20)
(-0.0328512 0.273519 1.2719e-19)
(-0.0290608 0.273974 -1.26375e-19)
(-0.0255344 0.274521 0)
(-0.000700753 0.00145169 4.3835e-20)
(-0.00361416 0.00687576 1.36399e-20)
(-0.00801804 0.0145439 5.58441e-20)
(-0.0130822 0.0236524 5.70212e-20)
(-0.0184698 0.0336693 -5.81366e-20)
(-0.0239299 0.0442758 5.91479e-20)
(-0.0292984 0.0552469 6.00666e-20)
(-0.0344652 0.0664219 6.0919e-20)
(-0.0393584 0.0776848 0)
(-0.0439322 0.0889517 6.23895e-20)
(-0.0481584 0.100161 6.30187e-20)
(-0.0520201 0.111264 6.35867e-20)
(-0.0555081 0.122223 0)
(-0.0586177 0.133005 1.34833e-23)
(-0.0613473 0.143576 6.49358e-20)
(-0.063698 0.153905 -3.26009e-20)
(-0.0656728 0.163959 -3.27424e-20)
(-0.0672756 0.173704 9.87785e-20)
(-0.0685107 0.183107 7.48787e-23)
(-0.0693823 0.192134 -3.3057e-20)
(-0.069895 0.20075 -6.63106e-20)
(-0.0700536 0.208925 0)
(-0.0698641 0.216628 0)
(-0.0693323 0.223833 0)
(-0.0684642 0.230515 0)
(-0.0672661 0.236655 0)
(-0.0657445 0.242239 0)
(-0.0639062 0.247257 6.61272e-20)
(-0.0617586 0.251705 -6.58524e-20)
(-0.05931 0.255587 0)
(-0.0565705 0.258912 0)
(-0.0535526 0.261699 6.53251e-20)
(-0.0502721 0.263975 0)
(-0.0467494 0.265779 6.47324e-20)
(-0.0430113 0.267163 -6.43619e-20)
(-0.0390952 0.268193 0)
(-0.0350513 0.268949 1.27448e-19)
(-0.0309297 0.269533 -1.2665e-19)
(-0.0268283 0.270106 0)
(-0.0230114 0.270854 0)
(-0.000818582 0.00166765 -5.00927e-20)
(-0.00395369 0.00733479 -1.36283e-20)
(-0.00856837 0.0151029 1.39549e-20)
(-0.0138205 0.0242146 -5.70212e-20)
(-0.0193684 0.0341671 0)
(-0.0249601 0.0446624 0)
(-0.0304329 0.0554901 -4.50447e-20)
(-0.0356783 0.0664994 -1.52216e-20)
(-0.0406265 0.0775812 -3.08624e-20)
(-0.0452344 0.0886561 -3.12139e-20)
(-0.0494755 0.0996656 -3.15388e-20)
(-0.053335 0.110565 3.17744e-20)
(-0.056805 0.121317 3.20306e-20)
(-0.0598824 0.131891 -3.23042e-20)
(-0.0625667 0.142255 0)
(-0.0648598 0.152379 0)
(-0.066765 0.162232 -6.55883e-20)
(-0.0682868 0.171781 0)
(-0.0694294 0.180995 0)
(-0.0701974 0.18984 6.62683e-20)
(-0.0705949 0.198284 1.4157e-22)
(-0.0706272 0.206296 6.52648e-23)
(-0.0702998 0.213847 -6.64655e-20)
(-0.0696183 0.220909 6.6323e-20)
(-0.0685884 0.227459 6.6324e-20)
(-0.0672159 0.233477 -6.62365e-20)
(-0.0655071 0.238948 0)
(-0.0634682 0.243863 6.60458e-20)
(-0.0611061 0.248216 9.29623e-23)
(-0.0584288 0.25201 -6.55698e-20)
(-0.0554457 0.255255 0)
(-0.0521686 0.257969 0)
(-0.0486129 0.26018 6.48689e-20)
(-0.0447987 0.26193 -6.45113e-20)
(-0.0407528 0.263272 -6.42266e-20)
(-0.0365139 0.264279 6.38466e-20)
(-0.0321363 0.265041 0)
(-0.027675 0.265673 0)
(-0.0232215 0.266363 0)
(-0.0190744 0.267317 -7.17139e-20)
(-0.000944654 0.00188045 6.25583e-20)
(-0.00430632 0.0077828 -2.72513e-20)
(-0.00912551 0.0156417 1.39491e-20)
(-0.0145519 0.0247474 0)
(-0.0202406 0.0346269 7.26192e-20)
(-0.0259399 0.0450038 8.81304e-24)
(-0.0314891 0.0556825 6.00572e-20)
(-0.0367821 0.0665225 -4.56884e-20)
(-0.0417523 0.0774214 6.16858e-20)
(-0.0463586 0.0883045 -3.11746e-20)
(-0.0505774 0.0991167 0)
(-0.0543957 0.109815 3.18314e-20)
(-0.0578078 0.120366 -9.61465e-20)
(-0.0608119 0.130737 0)
(-0.0634088 0.140901 9.74946e-20)
(-0.0656016 0.150828 -6.52521e-20)
(-0.0673941 0.160488 -6.56073e-20)
(-0.0687911 0.169851 3.28899e-20)
(-0.0697972 0.178886 0)
(-0.070417 0.18756 -6.61957e-20)
(-0.0706551 0.195842 -6.63675e-20)
(-0.0705166 0.203702 -7.20827e-23)
(-0.0700068 0.211111 6.63732e-20)
(-0.0691312 0.218042 6.64206e-20)
(-0.067895 0.224471 -1.32571e-19)
(-0.066304 0.230379 6.6236e-20)
(-0.064364 0.23575 0)
(-0.062081 0.240573 -6.58892e-20)
(-0.0594614 0.244843 6.56917e-20)
(-0.0565127 0.248561 6.54649e-20)
(-0.0532439 0.251736 -6.52107e-20)
(-0.0496662 0.254387 6.49306e-20)
(-0.0457945 0.25654 0)
(-0.0416483 0.25824 6.43892e-20)
(-0.0372548 0.259542 1.28009e-19)
(-0.0326533 0.260526 -1.27324e-19)
(-0.0279025 0.261289 1.26569e-19)
(-0.0230623 0.261963 -1.23252e-23)
(-0.018217 0.262765 -6.25985e-20)
(-0.0137015 0.263928 1.42849e-19)
(-0.00107857 0.00208881 -3.75443e-20)
(-0.00467114 0.00821645 -8.16905e-20)
(-0.00968845 0.0161555 5.57558e-20)
(-0.0152754 0.0252446 -4.27168e-20)
(-0.0210854 0.0350416 -1.4545e-20)
(-0.0268683 0.0452919 1.47714e-20)
(-0.0324662 0.0558152 -3.00116e-20)
(-0.0377763 0.0664814 -3.0433e-20)
(-0.0427351 0.077195 3.08595e-20)
(-0.0473046 0.0878861 -6.23908e-20)
(-0.0514638 0.0985027 -5.13584e-23)
(-0.0552021 0.109004 3.17783e-20)
(-0.058516 0.119358 0)
(-0.0614055 0.129534 -3.23238e-20)
(-0.0638728 0.139505 -3.25176e-20)
(-0.0659221 0.149244 6.53199e-20)
(-0.067558 0.158721 0)
(-0.0687858 0.167907 0)
(-0.0696106 0.176773 6.61199e-20)
(-0.0700372 0.185286 -6.61285e-20)
(-0.0700705 0.193418 0)
(-0.0697156 0.201138 6.64119e-20)
(-0.0689779 0.208417 -6.62547e-20)
(-0.0678626 0.21523 -1.32668e-19)
(-0.0663748 0.221552 -1.02219e-22)
(-0.0645199 0.227363 6.61835e-20)
(-0.0623037 0.232647 -1.31978e-19)
(-0.059732 0.237392 6.58886e-20)
(-0.0568109 0.241592 -6.5691e-20)
(-0.0535474 0.245248 -2.37076e-23)
(-0.0499501 0.248367 8.12974e-23)
(-0.04603 0.250965 -6.49299e-20)
(-0.0418012 0.253072 -6.44849e-20)
(-0.0372831 0.254728 -6.41418e-20)
(-0.0325025 0.255996 -1.70065e-22)
(-0.0274999 0.256956 0)
(-0.0223378 0.257717 -6.29846e-20)
(-0.017082 0.258426 1.25313e-19)
(-0.0118078 0.259335 -1.86868e-19)
(-0.0068881 0.260705 -1.19387e-22)
(-0.00121993 0.00229161 -1.25021e-20)
(-0.00504719 0.00863271 1.08874e-19)
(-0.0102562 0.0166399 -5.57565e-20)
(-0.01599 0.0257007 4.27197e-20)
(-0.0219019 0.0354044 -1.16124e-19)
(-0.0277446 0.0455189 1.47663e-20)
(-0.0333638 0.0558796 -6.00143e-20)
(-0.0386606 0.0663668 0)
(-0.0435751 0.0768922 0)
(-0.0480727 0.0873904 -6.23804e-20)
(-0.0521352 0.0978127 3.15432e-20)
(-0.055755 0.108121 -1.44662e-24)
(-0.0589307 0.118282 3.20365e-20)
(-0.0616642 0.12827 0)
(-0.0639595 0.138056 -9.75253e-20)
(-0.0658222 0.147615 3.26344e-20)
(-0.0672576 0.156919 -6.56308e-20)
(-0.0682716 0.165939 0)
(-0.0688699 0.174647 0)
(-0.0690578 0.183012 6.46184e-23)
(-0.0688405 0.191006 -6.62265e-20)
(-0.0682233 0.198598 6.63337e-20)
(-0.0672116 0.205762 -6.63984e-20)
(-0.0658105 0.212469 6.6256e-20)
(-0.064025 0.218698 6.16158e-23)
(-0.0618606 0.224427 6.68709e-23)
(-0.0593228 0.229639 6.59964e-20)
(-0.0564174 0.234322 -6.57482e-20)
(-0.0531504 0.238468 0)
(-0.0495285 0.242076 -6.53366e-20)
(-0.0455603 0.245153 6.50252e-20)
(-0.0412562 0.247714 0)
(-0.0366303 0.249786 6.4484e-20)
(-0.0317013 0.251411 -6.39817e-20)
(-0.026496 0.252651 6.36135e-20)
(-0.0210557 0.253591 0)
(-0.0154469 0.254348 1.8872e-19)
(-0.00974135 0.255085 -1.24948e-19)
(-0.00400518 0.256091 0)
(0.00135109 0.257666 7.0664e-20)
(-0.00136829 0.00248784 9.99232e-20)
(-0.00543352 0.00902896 -5.44223e-20)
(-0.0108276 0.0170909 -1.39296e-20)
(-0.0166947 0.0261105 1.42283e-20)
(-0.0226894 0.0357091 5.80467e-20)
(-0.0285682 0.0456777 0)
(-0.0341816 0.0558676 6.00145e-20)
(-0.0394351 0.0661697 9.12674e-20)
(-0.0442727 0.0765031 3.08093e-20)
(-0.0486637 0.086807 3.11661e-20)
(-0.0525931 0.0970356 3.14876e-20)
(-0.0560562 0.107152 -9.54513e-20)
(-0.0590541 0.117127 3.20374e-20)
(-0.0615908 0.126932 1.29199e-19)
(-0.0636722 0.136541 3.24625e-20)
(-0.0653052 0.14593 3.26384e-20)
(-0.0664964 0.15507 6.56306e-20)
(-0.0672522 0.163935 0)
(-0.067579 0.172497 0)
(-0.0674828 0.180726 1.3245e-19)