/*--------------------------------*- C++ -*----------------------------------*\
  =========                 |
  \\      /  F ield         | OpenFOAM: The Open Source CFD Toolbox
   \\    /   O peration     | Website:  https://openfoam.org
    \\  /    A nd           | Version:  7
     \\/     M anipulation  |
\*---------------------------------------------------------------------------*/
FoamFile
{
    version     2.0;
    format      ascii;
    class       volScalarField;
    location    "0.3";
    object      p;
}
// * * * * * * * * * * * * * * * * * * * * * * * * * * * * * * * * * * * * * //

dimensions      [0 2 -2 0 0 0 0];

internalField   nonuniform List<scalar> 
400
(
5.11155e-06
-0.0058981
-0.0130482
-0.018493
-0.0205154
-0.0183231
-0.0118528
-0.0015509
0.0117863
0.0271171
0.0432325
0.0588306
0.0726032
0.0833456
0.0900963
0.0923096
0.0900653
0.0842927
0.0769003
0.0710277
0.00583022
-0.000241253
-0.00577509
-0.0094878
-0.0105359
-0.00836886
-0.00291333
0.00551582
0.0163237
0.0287078
0.0417195
0.0543301
0.0655084
0.0743156
0.0800177
0.0822139
0.080985
0.07699
0.0712595
0.0652434
0.0133973
0.00496483
-0.0010086
-0.00442509
-0.00527781
-0.00326976
0.00159532
0.00901809
0.0184892
0.0293324
0.0407441
0.0518439
0.0617389
0.0696037
0.074773
0.0768433
0.0758048
0.0720611
0.0658355
0.0574384
0.0202079
0.00859554
0.00120477
-0.00267665
-0.00373588
-0.00190042
0.00271584
0.0097683
0.018763
0.0290765
0.0399721
0.0506326
0.0602099
0.0678916
0.0729783
0.0749753
0.0737346
0.0694389
0.0616658
0.0500004
0.0245944
0.00964839
0.00057227
-0.00398642
-0.00530858
-0.00351528
0.00116593
0.00832371
0.0174484
0.0279324
0.0390649
0.0500463
0.0600218
0.0681351
0.0735948
0.0757642
0.0743289
0.0692693
0.0596158
0.0444118
0.0252995
0.00700065
-0.00381689
-0.00904982
-0.0105136
-0.00850359
-0.00336159
0.00442204
0.0143025
0.0256643
0.0377948
0.0498797
0.0610199
0.0702708
0.0766997
0.0794787
0.0780913
0.0723105
0.060659
0.0417343
0.0212476
-0.000436098
-0.0129453
-0.0186937
-0.0200255
-0.0174127
-0.0113187
-0.00232316
0.00898298
0.0219642
0.0358926
0.0499218
0.0630837
0.0743113
0.0824838
0.086526
0.0856639
0.0794197
0.0657715
0.0428798
0.0113351
-0.0138155
-0.0278784
-0.0338271
-0.0345909
-0.0308493
-0.023207
-0.0123432
0.00110212
0.0164759
0.0330385
0.0499129
0.0660551
0.080254
0.0911585
0.0973792
0.0978003
0.0916003
0.0760805
0.0488787
-0.00572731
-0.0344867
-0.0498617
-0.055506
-0.0550665
-0.0494974
-0.0395799
-0.0261046
-0.00975387
0.00882023
0.0288914
0.0495758
0.0697704
0.0881173
0.103001
0.112641
0.115463
0.110142
0.0930531
0.0611121
-0.0315548
-0.0641184
-0.0803911
-0.0849444
-0.0823829
-0.0740506
-0.0609584
-0.0440202
-0.0239413
-0.00133325
0.0231418
0.0486481
0.0740715
0.0979348
0.118345
0.133054
0.139877
0.136745
0.118694
0.0815482
-0.0682785
-0.104865
-0.121293
-0.123502
-0.117463
-0.105087
-0.0876865
-0.0663011
-0.0416194
-0.0141447
0.015609
0.0469471
0.0788369
0.109758
0.13757
0.159502
0.172584
0.173671
0.155804
0.11306
-0.118891
-0.159633
-0.174828
-0.172639
-0.161079
-0.142879
-0.119719
-0.0927455
-0.0625529
-0.0294291
0.00638507
0.0444764
0.0840448
0.123674
0.161083
0.192991
0.21549
0.223921
0.208352
0.159939
-0.187943
-0.232519
-0.243806
-0.233798
-0.213612
-0.187097
-0.156328
-0.122465
-0.0858683
-0.0464468
-0.00399343
0.0415529
0.0898443
0.139812
0.189273
0.23459
0.270862
0.291447
0.282032
0.22882
-0.283061
-0.329538
-0.331639
-0.308108
-0.274624
-0.236385
-0.195722
-0.153576
-0.10981
-0.0637153
-0.0144081
0.0388911
0.0965747
0.158281
0.22235
0.285202
0.341166
0.381281
0.385112
0.330527
-0.418184
-0.459744
-0.44207
-0.395624
-0.34207
-0.287706
-0.234591
-0.182908
-0.131585
-0.0789548
-0.0231767
0.0375193
0.1046
0.178878
0.259882
0.344933
0.428407
0.49931
0.52962
0.483718
-0.619423
-0.636578
-0.57833
-0.494079
-0.411224
-0.335652
-0.267774
-0.205966
-0.147521
-0.089354
-0.0283834
0.0384066
0.113878
0.200552
0.30005
0.412063
0.532936
0.651425
0.732445
0.720597
-0.935596
-0.878177
-0.741679
-0.598052
-0.474386
-0.372622
-0.288841
-0.217736
-0.153922
-0.0924258
-0.0286736
0.0417547
0.123338
0.220803
0.339004
0.482245
0.652267
0.841651
1.01496
1.09628
-1.48059
-1.20196
-0.920996
-0.692543
-0.517673
-0.387697
-0.29019
-0.213421
-0.148158
-0.0872062
-0.0245249
0.0455619
0.129104
0.2333
0.367364
0.543124
0.772632
1.06029
1.39819
1.73407
-2.57157
-1.60192
-1.04347
-0.714825
-0.497795
-0.353383
-0.255525
-0.184279
-0.126592
-0.0737803
-0.0192065
0.0430678
0.119765
0.219654
0.356007
0.549824
0.829815
1.23507
1.88111
2.95926
-4.4451
-2.01726
-0.969793
-0.564335
-0.357041
-0.23903
-0.169352
-0.123293
-0.0871807
-0.0533658
-0.016674
0.0275167
0.0843012
0.161196
0.27158
0.441365
0.718807
1.2215
2.38403
4.92939
)
;

boundaryField
{
    movingWall
    {
        type            zeroGradient;
    }
    fixedWalls
    {
        type            zeroGradient;
    }
    frontAndBack
    {
        type            empty;
    }
}


// ************************************************************************* //
