/*--------------------------------*- C++ -*----------------------------------*\
  =========                 |
  \\      /  F ield         | OpenFOAM: The Open Source CFD Toolbox
   \\    /   O peration     | Website:  https://openfoam.org
    \\  /    A nd           | Version:  7
     \\/     M anipulation  |
\*---------------------------------------------------------------------------*/
FoamFile
{
    version     2.0;
    format      ascii;
    class       volVectorField;
    location    "0.3";
    object      U;
}
// * * * * * * * * * * * * * * * * * * * * * * * * * * * * * * * * * * * * * //

dimensions      [0 1 -1 0 0 0 0];

internalField   nonuniform List<vector> 
400
(
(0.000259618 -0.000254524 0)
(0.000149206 0.000104055 0)
(-0.00117538 0.000551004 0)
(-0.00348074 0.000868002 0)
(-0.00637593 0.00102701 0)
(-0.00946732 0.00104292 0)
(-0.0124005 0.000940712 0)
(-0.0148823 0.000746662 0)
(-0.0166866 0.000485543 0)
(-0.0176553 0.00018099 0)
(-0.0176991 -0.000142955 0)
(-0.016802 -0.000460357 0)
(-0.0150272 -0.000742452 0)
(-0.0125224 -0.000957635 0)
(-0.009524 -0.00107263 0)
(-0.00635333 -0.00105544 0)
(-0.0034002 -0.000881273 0)
(-0.00108409 -0.000543167 0)
(0.000204154 -8.4305e-05 0)
(0.000273131 0.000265713 0)
(-6.72874e-05 -0.000174899 0)
(-0.00160171 0.00163826 0)
(-0.00569473 0.00360241 0)
(-0.0117197 0.00501565 0)
(-0.0188888 0.00572228 0)
(-0.0263932 0.00573926 0)
(-0.0334577 0.00515266 0)
(-0.0394121 0.00407722 0)
(-0.0437267 0.00263749 0)
(-0.0460284 0.000962865 0)
(-0.0461104 -0.000810798 0)
(-0.0439432 -0.00253832 0)
(-0.0396851 -0.00406433 0)
(-0.0336899 -0.00522659 0)
(-0.0265047 -0.00586573 0)
(-0.0188504 -0.00584379 0)
(-0.0115672 -0.00507543 0)
(-0.00551501 -0.00357478 0)
(-0.00148434 -0.00155406 0)
(-3.35482e-05 0.000232528 0)
(-0.000511973 0.00108962 0)
(-0.00369363 0.00573917 0)
(-0.0105875 0.0102226 0)
(-0.0199887 0.0134032 0)
(-0.0307571 0.0149412 0)
(-0.0418105 0.0148339 0)
(-0.0521042 0.0132512 0)
(-0.0607252 0.0104525 0)
(-0.0669478 0.0067394 0)
(-0.0702594 0.00243755 0)
(-0.0703769 -0.00210644 0)
(-0.0672613 -0.00652383 0)
(-0.0611313 -0.010426 0)
(-0.0524706 -0.0134165 0)
(-0.0420232 -0.015118 0)
(-0.0307647 -0.0152197 0)
(-0.0198251 -0.0135506 0)
(-0.0103618 -0.0101765 0)
(-0.00353122 -0.00555413 0)
(-0.00046077 -0.000946531 0)
(-0.000905863 0.00347758 0)
(-0.00566734 0.0122235 0)
(-0.0152986 0.0199185 0)
(-0.0279106 0.0251903 0)
(-0.0419737 0.027588 0)
(-0.0561631 0.0271284 0)
(-0.0692322 0.0241006 0)
(-0.0801024 0.018947 0)
(-0.0879222 0.0121907 0)
(-0.092091 0.00440257 0)
(-0.0922749 -0.00380783 0)
(-0.0884221 -0.0117936 0)
(-0.0807785 -0.0188764 0)
(-0.0698995 -0.024368 0)
(-0.0566498 -0.0276176 0)
(-0.0421802 -0.0280911 0)
(-0.0278485 -0.0254884 0)
(-0.0150895 -0.0198874 0)
(-0.00548084 -0.0119304 0)
(-0.000839467 -0.00322255 0)
(-0.00125031 0.00687342 0)
(-0.00750535 0.0209537 0)
(-0.0198006 0.032503 0)
(-0.0355262 0.0400903 0)
(-0.0527277 0.0432753 0)
(-0.069838 0.0421777 0)
(-0.0854385 0.0372638 0)
(-0.0983319 0.0292018 0)
(-0.107588 0.0187692 0)
(-0.112555 0.00680949 0)
(-0.112862 -0.00578031 0)
(-0.10844 -0.0180501 0)
(-0.099529 -0.0290021 0)
(-0.0867089 -0.0376193 0)
(-0.0709097 -0.0429285 0)
(-0.0534099 -0.0441112 0)
(-0.0357727 -0.0406628 0)
(-0.0197292 -0.032583 0)
(-0.00733898 -0.0205901 0)
(-0.00117469 -0.00649339 0)
(-0.00157194 0.0112093 0)
(-0.00927985 0.031871 0)
(-0.0242036 0.0479395 0)
(-0.042991 0.0580533 0)
(-0.0632365 0.0619163 0)
(-0.0831268 0.0598606 0)
(-0.101093 0.0526098 0)
(-0.115857 0.0411106 0)
(-0.12645 0.026426 0)
(-0.132196 0.00968679 0)
(-0.132707 -0.00791685 0)
(-0.12788 -0.0251266 0)
(-0.117925 -0.0406132 0)
(-0.103395 -0.0530016 0)
(-0.0852345 -0.0609438 0)
(-0.0648078 -0.0632552 0)
(-0.0438686 -0.0591184 0)
(-0.0244691 -0.0483282 0)
(-0.00921361 -0.0315526 0)
(-0.00150068 -0.0107211 0)
(-0.00189683 0.0164683 0)
(-0.0110746 0.044966 0)
(-0.0286426 0.0662144 0)
(-0.0504643 0.0790335 0)
(-0.0736588 0.0834185 0)
(-0.0961712 0.0800474 0)
(-0.116314 0.0700006 0)
(-0.132772 0.0545654 0)
(-0.144585 0.0351174 0)
(-0.151093 0.0130763 0)
(-0.151899 -0.0100881 0)
(-0.146864 -0.0328267 0)
(-0.13613 -0.0534857 0)
(-0.120174 -0.0703149 0)
(-0.0998884 -0.0815364 0)
(-0.0766646 -0.0854993 0)
(-0.0524167 -0.0809305 0)
(-0.0295323 -0.0672519 0)
(-0.0112318 -0.0449284 0)
(-0.0018535 -0.0159405 0)
(-0.00224826 0.0226827 0)
(-0.0129686 0.0602865 0)
(-0.0332401 0.0873364 0)
(-0.0580595 0.102962 0)
(-0.0840421 0.10763 0)
(-0.108914 0.102528 0)
(-0.130923 0.089215 0)
(-0.148786 0.069387 0)
(-0.161614 0.0447539 0)
(-0.168813 0.0170088 0)
(-0.170005 -0.0121369 0)
(-0.165012 -0.0408878 0)
(-0.15387 -0.0672991 0)
(-0.136911 -0.0892475 0)
(-0.114888 -0.104476 0)
(-0.0891284 -0.110753 0)
(-0.0616389 -0.106167 0)
(-0.0351302 -0.0895425 0)
(-0.0135202 -0.0609298 0)
(-0.00226831 -0.0222613 0)
(-0.00264992 0.02993 0)
(-0.0150398 0.0779343 0)
(-0.0381 0.111319 0)
(-0.0658225 0.129705 0)
(-0.0942874 0.134273 0)
(-0.121053 0.126934 0)
(-0.144394 0.109868 0)
(-0.16316 0.0852539 0)
(-0.176631 0.055146 0)
(-0.184347 0.021473 0)
(-0.185995 -0.0138806 0)
(-0.181357 -0.0489528 0)
(-0.170327 -0.0815782 0)
(-0.153013 -0.109296 0)
(-0.129905 -0.12934 0)
(-0.102126 -0.138775 0)
(-0.0716473 -0.134828 0)
(-0.0414412 -0.115417 0)
(-0.0162049 -0.0798638 0)
(-0.00278252 -0.0298657 0)
(-0.00313392 0.0383357 0)
(-0.0173837 0.098057 0)
(-0.0433212 0.13814 0)
(-0.0737242 0.158991 0)
(-0.104114 0.162849 0)
(-0.131981 0.152628 0)
(-0.155772 0.131304 0)
(-0.174624 0.10161 0)
(-0.188111 0.0659338 0)
(-0.196009 0.0263726 0)
(-0.198124 -0.0151219 0)
(-0.194217 -0.0565449 0)
(-0.184011 -0.0956293 0)
(-0.167292 -0.129661 0)
(-0.144139 -0.155378 0)
(-0.115267 -0.169035 0)
(-0.0823916 -0.166729 0)
(-0.0486006 -0.145054 0)
(-0.0194233 -0.102112 0)
(-0.00344362 -0.0390122 0)
(-0.00375549 0.0480953 0)
(-0.0201458 0.120848 0)
(-0.0490202 0.167689 0)
(-0.0816466 0.190301 0)
(-0.113 0.1925 0)
(-0.140691 0.178567 0)
(-0.163568 0.152474 0)
(-0.181257 0.117561 0)
(-0.193795 0.0765098 0)
(-0.201308 0.0314747 0)
(-0.2038 -0.0156722 0)
(-0.201048 -0.0630552 0)
(-0.19258 -0.108484 0)
(-0.177781 -0.149147 0)
(-0.156141 -0.18137 0)
(-0.127696 -0.200538 0)
(-0.0935772 -0.201336 0)
(-0.0566857 -0.178482 0)
(-0.0233465 -0.128103 0)
(-0.00432354 -0.0500538 0)
(-0.00461945 0.0595254 0)
(-0.0235733 0.146555 0)
(-0.0553491 0.199678 0)
(-0.0893288 0.222717 0)
(-0.120064 0.221832 0)
(-0.14562 0.203142 0)
(-0.165581 0.171804 0)
(-0.180326 0.131782 0)
(-0.190539 0.0859454 0)
(-0.196822 0.0363551 0)
(-0.199458 -0.0153884 0)
(-0.198286 -0.0677549 0)
(-0.192658 -0.118868 0)
(-0.181503 -0.166063 0)
(-0.163562 -0.205449 0)
(-0.137876 -0.231592 0)
(-0.104518 -0.237525 0)
(-0.0656745 -0.215409 0)
(-0.0282125 -0.158269 0)
(-0.00554432 -0.063481 0)
(-0.0059283 0.0731688 0)
(-0.0280847 0.175477 0)
(-0.0624692 0.233474 0)
(-0.0962034 0.254667 0)
(-0.123796 0.248674 0)
(-0.144347 0.223987 0)
(-0.15863 0.187079 0)
(-0.168076 0.142439 0)
(-0.174176 0.0929476 0)
(-0.178096 0.0403574 0)
(-0.180461 -0.0142206 0)
(-0.181236 -0.0698414 0)
(-0.179655 -0.125224 0)
(-0.174216 -0.178179 0)
(-0.162823 -0.224947 0)
(-0.14323 -0.259526 0)
(-0.113857 -0.273222 0)
(-0.0753282 -0.254924 0)
(-0.0343633 -0.192952 0)
(-0.00732391 -0.0800101 0)
(-0.00806293 0.0899804 0)
(-0.0343388 0.207901 0)
(-0.0703752 0.267765 0)
(-0.10097 0.283525 0)
(-0.12152 0.269764 0)
(-0.13307 0.237814 0)
(-0.13814 0.195388 0)
(-0.139452 0.147219 0)
(-0.139366 0.0958938 0)
(-0.139599 0.0425995 0)
(-0.141113 -0.0122581 0)
(-0.144055 -0.0685353 0)
(-0.147659 -0.12582 0)
(-0.150145 -0.182785 0)
(-0.148676 -0.236317 0)
(-0.139578 -0.2804 0)
(-0.119028 -0.304921 0)
(-0.0848836 -0.29499 0)
(-0.0422483 -0.232191 0)
(-0.0100466 -0.10073 0)
(-0.0116763 0.111597 0)
(-0.0431729 0.243799 0)
(-0.0782859 0.299889 0)
(-0.100588 0.305016 0)
(-0.108318 0.280428 0)
(-0.105719 0.240372 0)
(-0.0975349 0.193279 0)
(-0.0877895 0.143546 0)
(-0.0795293 0.0930278 0)
(-0.0748201 0.0420784 0)
(-0.0748405 -0.00975462 0)
(-0.0799272 -0.0632447 0)
(-0.0894938 -0.119027 0)
(-0.101809 -0.176988 0)
(-0.11369 -0.235297 0)
(-0.120288 -0.288855 0)
(-0.115241 -0.327103 0)
(-0.0922694 -0.331605 0)
(-0.0522117 -0.275167 0)
(-0.0143124 -0.127271 0)
(-0.0176161 0.140747 0)
(-0.0548915 0.281885 0)
(-0.0828516 0.324525 0)
(-0.0880785 0.31241 0)
(-0.0751186 0.274444 0)
(-0.0526218 0.226777 0)
(-0.0275029 0.177301 0)
(-0.00456902 0.129144 0)
(0.0130362 0.0829126 0)
(0.0233708 0.0379353 0)
(0.0253247 -0.00709713 0)
(0.0184306 -0.0537934 0)
(0.00290234 -0.103794 0)
(-0.0200725 -0.158361 0)
(-0.0477572 -0.217527 0)
(-0.0750497 -0.27835 0)
(-0.0936148 -0.331711 0)
(-0.092201 -0.357447 0)
(-0.0634694 -0.318953 0)
(-0.0207144 -0.162055 0)
(-0.0260056 0.182265 0)
(-0.0664801 0.317045 0)
(-0.0735114 0.330976 0)
(-0.0481258 0.295357 0)
(-0.00565822 0.244244 0)
(0.0411295 0.192422 0)
(0.0845631 0.145086 0)
(0.120443 0.103 0)
(0.146605 0.0651514 0)
(0.161946 0.0298887 0)
(0.165834 -0.00469077 0)
(0.157822 -0.0406631 0)
(0.137611 -0.0802936 0)
(0.10531 -0.125969 0)
(0.0621173 -0.179766 0)
(0.0116395 -0.242026 0)
(-0.0379998 -0.30778 0)
(-0.0719961 -0.359671 0)
(-0.0709815 -0.355769 0)
(-0.0285828 -0.209058 0)
(-0.0317428 0.241377 0)
(-0.0630316 0.333928 0)
(-0.0219624 0.299651 0)
(0.0505848 0.240051 0)
(0.127426 0.183002 0)
(0.19685 0.13544 0)
(0.254196 0.0974418 0)
(0.298116 0.0668821 0)
(0.328693 0.0413721 0)
(0.346335 0.0187808 0)
(0.35124 -0.00280698 0)
(0.343157 -0.02529 0)
(0.32131 -0.0508225 0)
(0.284468 -0.0820858 0)
(0.231368 -0.122471 0)
(0.161959 -0.175654 0)
(0.0798399 -0.243233 0)
(-0.00333995 -0.318156 0)
(-0.0573586 -0.366745 0)
(-0.0309144 -0.270214 0)
(0.00230793 0.286369 0)
(0.0143153 0.294061 0)
(0.139843 0.210078 0)
(0.26489 0.143066 0)
(0.364214 0.0968724 0)
(0.440163 0.0655063 0)
(0.496577 0.0440281 0)
(0.536724 0.0287384 0)
(0.563305 0.017104 0)
(0.578167 0.00743555 0)
(0.58224 -0.00149967 0)
(0.575547 -0.0108075 0)
(0.557144 -0.0217572 0)
(0.524952 -0.0361779 0)
(0.475563 -0.0570192 0)
(0.404365 -0.0890486 0)
(0.305606 -0.139244 0)
(0.174284 -0.215451 0)
(0.035206 -0.310938 0)
(0.0120834 -0.304779 0)
(0.293148 0.148893 0)
(0.389648 0.127925 0)
(0.557568 0.0758012 0)
(0.674741 0.0433822 0)
(0.743792 0.0252388 0)
(0.787088 0.0149518 0)
(0.815465 0.00898707 0)
(0.833941 0.00534998 0)
(0.845368 0.00292528 0)
(0.851352 0.00109788 0)
(0.852644 -0.000502034 0)
(0.849358 -0.00217159 0)
(0.840977 -0.00424134 0)
(0.826117 -0.00726109 0)
(0.80203 -0.0122939 0)
(0.763557 -0.0214611 0)
(0.699431 -0.0389174 0)
(0.58444 -0.0723433 0)
(0.409338 -0.128341 0)
(0.302176 -0.152205 0)
)
;

boundaryField
{
    movingWall
    {
        type            fixedValue;
        value           uniform (1 0 0);
    }
    fixedWalls
    {
        type            noSlip;
    }
    frontAndBack
    {
        type            empty;
    }
}


// ************************************************************************* //
