/*--------------------------------*- C++ -*----------------------------------*\
  =========                 |
  \\      /  F ield         | OpenFOAM: The Open Source CFD Toolbox
   \\    /   O peration     | Website:  https://openfoam.org
    \\  /    A nd           | Version:  7
     \\/     M anipulation  |
\*---------------------------------------------------------------------------*/
FoamFile
{
    version     2.0;
    format      ascii;
    class       volVectorField;
    location    "7.9";
    object      U;
}
// * * * * * * * * * * * * * * * * * * * * * * * * * * * * * * * * * * * * * //

dimensions      [0 1 -1 0 0 0 0];

internalField   nonuniform List<vector> 
18000
(
(0.000497289 -0.00837978 5.17826e-21)
(0.00262049 -0.0165732 0)
(0.00636011 -0.0171754 0)
(0.0108935 -0.0120578 0)
(0.0161019 -0.00253204 -1.71271e-21)
(0.0218412 0.0104296 8.66509e-21)
(0.02802 0.0260739 -1.75222e-21)
(0.0345674 0.0438043 1.76425e-21)
(0.0414252 0.0631441 0)
(0.0485428 0.083704 -5.33466e-21)
(0.0558694 0.105157 -1.78388e-21)
(0.0633537 0.127217 0)
(0.0709416 0.149632 3.56089e-21)
(0.0785743 0.172168 3.5682e-21)
(0.0861908 0.194608 -7.129e-21)
(0.0937296 0.216748 -7.11897e-21)
(0.101129 0.238396 0)
(0.108329 0.259374 -1.06585e-20)
(0.115271 0.279519 3.53733e-21)
(0.121901 0.298684 -1.06215e-20)
(0.128168 0.316745 3.52303e-21)
(0.134033 0.333598 0)
(0.13946 0.34916 -3.49056e-21)
(0.144428 0.363373 -3.50226e-21)
(0.14892 0.3762 0)
(0.152933 0.387619 0)
(0.156472 0.397622 -6.96928e-21)
(0.159561 0.406192 -6.95261e-21)
(0.162218 0.413299 -6.98693e-21)
(0.164358 0.418826 7.54351e-21)
(0.000715545 -0.0088655 7.38323e-21)
(0.00295021 -0.0177859 1.28686e-20)
(0.00646607 -0.0189843 -1.3181e-20)
(0.010545 -0.0143807 -1.34458e-20)
(0.0151217 -0.00532046 -3.41958e-21)
(0.0200982 0.00720418 1.037e-20)
(0.0254171 0.0224311 -1.39758e-20)
(0.0310347 0.039758 -1.40791e-20)
(0.0369158 0.0587084 1.41536e-20)
(0.0430263 0.0788974 1.42066e-20)
(0.0493277 0.100001 -7.11304e-21)
(0.0557818 0.121741 -1.42453e-20)
(0.0623466 0.143869 -7.13991e-21)
(0.0689735 0.166158 1.42343e-20)
(0.0756123 0.188397 -1.42192e-20)
(0.0822119 0.210389 1.42126e-20)
(0.0887192 0.231946 -2.83909e-20)
(0.0950817 0.252894 2.12214e-20)
(0.101249 0.273071 -1.41076e-20)
(0.107173 0.292333 7.06762e-21)
(0.112809 0.310552 -1.40464e-20)
(0.118119 0.327621 0)
(0.123071 0.343453 7.11599e-21)
(0.127641 0.357982 -1.3935e-20)
(0.131814 0.371162 1.39215e-20)
(0.135583 0.382964 0)
(0.138952 0.393365 -6.88445e-21)
(0.141943 0.402336 6.85177e-21)
(0.144548 0.409835 2.75427e-20)
(0.146673 0.415733 1.50206e-20)
(0.000956316 -0.00934118 -1.18212e-20)
(0.00332767 -0.0189468 -1.28683e-20)
(0.0066302 -0.0206818 1.97704e-20)
(0.0102625 -0.0165519 3.35858e-20)
(0.0142151 -0.00793243 0)
(0.0184414 0.00416889 -1.38388e-20)
(0.0229199 0.0189805 1.39756e-20)
(0.027632 0.0359006 4.21882e-20)
(0.0325634 0.0544547 -1.41534e-20)
(0.0376962 0.0742587 -1.42033e-20)
(0.0430057 0.0949948 4.26396e-20)
(0.0484639 0.116391 1.42453e-20)
(0.0540389 0.138204 0)
(0.0596922 0.160215 -2.8471e-20)
(0.0653821 0.182218 4.25282e-20)
(0.0710661 0.204021 -1.41578e-20)
(0.0766998 0.225443 1.41667e-20)
(0.0822384 0.246313 1.41503e-20)
(0.0876382 0.266473 6.33697e-23)
(0.0928568 0.285778 0)
(0.0978547 0.3041 4.21741e-20)
(0.102597 0.321329 -2.78726e-20)
(0.107054 0.337375 1.39849e-20)
(0.111204 0.352166 0)
(0.115029 0.365648 -1.39216e-20)
(0.118523 0.377783 5.54316e-20)
(0.121689 0.388537 -4.12058e-20)
(0.124546 0.397871 -1.38173e-20)
(0.127062 0.405727 1.36029e-20)
(0.129137 0.411972 1.5075e-20)
(0.00121555 -0.00975059 0)
(0.00373929 -0.0199606 6.42625e-21)
(0.00682812 -0.0221954 6.19672e-24)
(0.0100158 -0.018516 -3.35607e-20)
(0.0133535 -0.0103259 0)
(0.0168421 0.00135445 -2.75925e-20)
(0.0204965 0.0157465 0)
(0.0243261 0.0322493 -4.21546e-20)
(0.0283358 0.0503904 1.41113e-20)
(0.0325226 0.0697911 -2.82989e-20)
(0.0368742 0.0901386 -2.84069e-20)
(0.0413723 0.111166 -1.42114e-20)
(0.0459934 0.132637 1.41836e-20)
(0.0507073 0.154338 1.4131e-20)
(0.0554811 0.176071 -1.42163e-20)
(0.0602798 0.197649 -2.82452e-20)
(0.0650657 0.218896 2.81487e-20)
(0.0698005 0.239644 0)
(0.0744469 0.259738 0)
(0.0789685 0.279036 0)
(0.0833304 0.297409 0)
(0.0875014 0.314747 0)
(0.0914546 0.330955 0)
(0.0951684 0.345956 -2.76373e-20)
(0.0986273 0.359691 -2.77306e-20)
(0.101823 0.372111 -1.80561e-22)
(0.104758 0.383174 -2.76051e-20)
(0.107452 0.39283 -4.29174e-22)
(0.109849 0.401012 -2.78057e-20)
(0.111842 0.407581 5.94624e-20)
(0.00148829 -0.0101206 0)
(0.00417458 -0.0208713 5.77175e-20)
(0.00705063 -0.0235567 5.47762e-24)
(0.0097949 -0.0202951 -2.01015e-20)
(0.0125207 -0.0125174 6.80295e-20)
(0.0152818 -0.00125354 4.138e-20)
(0.0181295 0.0127164 4.17167e-20)
(0.0210986 0.0287928 0)
(0.0242133 0.0465077 0)
(0.0274858 0.0654878 4.24414e-20)
(0.0309136 0.0854257 1.44354e-23)
(0.0344874 0.106061 -9.91594e-20)
(0.0381916 0.127163 8.49187e-20)
(0.0420038 0.148526 -2.83324e-20)
(0.0458974 0.169957 2.81474e-20)
(0.0498437 0.191275 2.81339e-20)
(0.0538112 0.212308 -2.81078e-20)
(0.0577678 0.232893 2.812e-20)
(0.0616819 0.252878 5.6012e-20)
(0.0655222 0.272123 -2.78235e-20)
(0.0692582 0.2905 -5.55406e-20)
(0.0728623 0.307897 5.53725e-20)
(0.0763104 0.324217 -5.52031e-20)
(0.0795823 0.33938 2.76375e-20)
(0.0826636 0.353318 0)
(0.0855458 0.365978 0)
(0.0882329 0.377308 3.47128e-22)
(0.0907416 0.387249 -1.08561e-19)
(0.0929948 0.395726 5.41088e-20)
(0.0948796 0.4026 -5.96798e-20)
(0.00177077 -0.0104343 0)
(0.00462362 -0.0216457 -5.1298e-20)
(0.00728067 -0.0247347 5.24644e-20)
(0.00957871 -0.0218659 0)
(0.0116971 -0.0144891 -1.08762e-19)
(0.0137408 -0.00364003 -1.37669e-20)
(0.0157975 0.00990059 -2.7838e-20)
(0.0179288 0.0255379 -1.39951e-20)
(0.0201771 0.0428104 0)
(0.0225666 0.0613499 -2.82359e-20)
(0.0251056 0.0808556 2.82634e-20)
(0.0277929 0.101074 5.6632e-20)
(0.0306195 0.121782 -5.66094e-20)
(0.0335689 0.142778 0)
(0.0366206 0.163876 -5.64448e-20)
(0.0397512 0.1849 5.61971e-20)
(0.0429344 0.205683 5.61824e-20)
(0.0461434 0.226066 8.39279e-20)
(0.0493519 0.245902 -8.37026e-20)
(0.0525331 0.265051 1.11313e-19)
(0.0556605 0.283388 5.56084e-20)
(0.0587098 0.300799 -5.53731e-20)
(0.0616597 0.317185 1.10197e-19)
(0.064492 0.332462 0)
(0.067193 0.34656 5.46184e-20)
(0.0697548 0.359415 1.09171e-19)
(0.0721821 0.370972 -5.38918e-20)
(0.0744906 0.381163 5.43105e-20)
(0.0765816 0.389906 3.91492e-23)
(0.0783363 0.397067 -5.9377e-20)
(0.00205772 -0.010691 -5.88567e-21)
(0.00507424 -0.0222845 0)
(0.00750477 -0.0257309 -6.55757e-20)
(0.00935316 -0.0232277 1.33612e-20)
(0.0108662 -0.0162411 4.07645e-20)
(0.0122028 -0.00580833 1.37437e-20)
(0.0134865 0.00729519 5.54681e-20)
(0.0148037 0.0224804 0)
(0.016214 0.0392922 2.80965e-20)
(0.0177539 0.0573705 2.81441e-20)
(0.0194411 0.0764218 -2.82425e-20)
(0.021281 0.0961989 8.46645e-20)
(0.0232705 0.116486 0)
(0.0253986 0.137087 0)
(0.0276493 0.157823 8.43976e-20)
(0.0300037 0.178521 -1.40312e-19)
(0.0324401 0.199021 5.59291e-20)
(0.0349368 0.219167 -5.58872e-20)
(0.0374716 0.238816 -5.55771e-20)
(0.0400215 0.25783 -1.66537e-19)
(0.0425637 0.276085 -2.32368e-22)
(0.0450772 0.293467 5.50016e-20)
(0.0475434 0.309876 -1.09798e-19)
(0.0499457 0.325226 5.46022e-20)
(0.0522715 0.339441 -2.21293e-22)
(0.0545134 0.352454 -5.4426e-20)
(0.0566767 0.3642 5.42284e-20)
(0.0587761 0.37461 0)
(0.0606925 0.383594 5.35215e-20)
(0.0623 0.391026 4.9514e-22)
(0.00234437 -0.0108868 -1.17615e-20)
(0.00551555 -0.0227796 1.27934e-20)
(0.00770811 -0.0265362 -7.85264e-20)
(0.00910197 -0.0243752 -4.00142e-20)
(0.0100131 -0.0177704 5.41961e-20)
(0.0106543 -0.00775587 -8.23216e-20)
(0.0111837 0.00490029 -2.77558e-20)
(0.0117123 0.0196175 -5.57809e-20)
(0.0123156 0.0359501 5.60574e-20)
(0.0130412 0.0535462 -1.12552e-19)
(0.0139151 0.0721199 -5.63292e-20)
(0.0149488 0.0914315 -8.49974e-23)
(0.0161441 0.111272 2.82061e-20)
(0.0174944 0.131452 -8.43591e-20)
(0.0189874 0.151796 -1.12351e-19)
(0.0206081 0.172139 -3.72134e-23)
(0.0223391 0.192323 -1.46828e-22)
(0.0241626 0.212199 5.56446e-20)
(0.02606 0.231625 5.55777e-20)
(0.0280116 0.250467 -6.80965e-23)
(0.0299978 0.268602 -2.8891e-22)
(0.0320009 0.285917 5.461e-20)
(0.0340044 0.302311 5.48039e-20)
(0.0359932 0.317694 7.28481e-23)
(0.0379559 0.331988 -1.62987e-19)
(0.0398854 0.345121 1.07872e-19)
(0.0417874 0.357025 1.08066e-19)
(0.0436752 0.367626 -1.06895e-19)
(0.0454102 0.37683 -5.3522e-20)
(0.0468579 0.384522 -5.90274e-20)
(0.00262517 -0.011017 -1.05731e-19)
(0.00593565 -0.0231253 -1.27794e-20)
(0.00787638 -0.0271465 6.54158e-20)
(0.00881067 -0.0253047 5.33587e-20)
(0.0091241 -0.0190751 -5.41958e-20)
(0.00908304 -0.00948362 5.48671e-20)
(0.00887958 0.00271339 -2.76779e-20)
(0.00864752 0.0169464 8.36497e-20)
(0.00847716 0.0327802 -5.60574e-20)
(0.00842622 0.0498723 5.62353e-20)
(0.00852784 0.0679453 2.81708e-20)
(0.0087989 0.0867672 -2.82111e-20)
(0.00924518 0.106136 -1.68815e-19)
(0.00986339 0.125868 1.12393e-19)
(0.0106446 0.145793 5.61288e-20)
(0.0115772 0.165751 0)
(0.0126474 0.18559 0)
(0.0138405 0.205165 -2.55936e-22)
(0.0151407 0.224336 -5.54087e-20)
(0.0165316 0.242972 0)
(0.0179965 0.260952 0)
(0.01952 0.278164 -5.4844e-20)
(0.0210876 0.294506 0)
(0.0226858 0.309888 -1.08497e-19)
(0.0243041 0.324227 0)
(0.0259354 0.337448 -5.39719e-20)
(0.0275851 0.349481 1.07598e-19)
(0.0292645 0.360249 -1.06431e-19)
(0.0308172 0.369657 0)
(0.0320972 0.377601 0)
(0.00289454 -0.0110787 9.39787e-20)
(0.00632285 -0.0233174 0)
(0.0079958 -0.0275579 -1.30647e-20)
(0.00846552 -0.0260145 1.33132e-20)
(0.00818699 -0.0201558 -8.1065e-20)
(0.00747945 -0.0109934 3.18087e-24)
(0.00656725 0.000731542 -2.76373e-20)
(0.00560539 0.014463 0)
(0.0046978 0.0297779 0)
(0.0039109 0.0463442 -2.80711e-20)
(0.00328411 0.0638936 2.80986e-20)
(0.0028387 0.0822021 -5.62782e-20)
(0.00258351 0.101074 5.63061e-20)
(0.00251799 0.120332 0)
(0.00263617 0.139812 0)
(0.00292921 0.159359 0)
(0.00338601 0.178825 5.55232e-20)
(0.00399451 0.198069 -8.07432e-23)
(0.00474175 0.216954 5.55046e-20)
(0.00561377 0.235353 -1.10078e-19)
(0.00659641 0.253147 5.50008e-20)
(0.00767629 0.270223 -2.73229e-19)
(0.00884037 0.286481 -1.61072e-22)
(0.0100767 0.301828 1.08498e-19)
(0.0113752 0.316181 -4.68989e-22)
(0.0127283 0.329463 1.07043e-19)
(0.0141405 0.341601 -1.0666e-19)
(0.0156204 0.352517 -1.06633e-19)
(0.0169953 0.362118 -8.57984e-23)
(0.0181047 0.370311 -1.16288e-19)
(0.00314678 -0.0110694 -1.17339e-20)
(0.00666553 -0.0233525 0)
(0.00805296 -0.0277687 2.6099e-20)
(0.00805392 -0.0265048 -2.65954e-20)
(0.00719142 -0.0210142 2.43099e-19)
(0.00583598 -0.0122883 2.94489e-24)
(0.00424246 -0.00104936 -2.76018e-20)
(0.00258512 0.0121628 2.78034e-20)
(0.00098002 0.0269386 -1.39621e-19)
(-0.000498953 0.0429576 0)
(-0.00180724 0.0599611 0)
(-0.00292016 0.077733 -5.60804e-20)
(-0.00382647 0.0960845 5.62457e-20)
(-0.00452453 0.114845 -5.61227e-20)
(-0.00501797 0.133854 5.58844e-20)
(-0.0053133 0.152964 0)
(-0.0054195 0.172031 -2.2249e-19)
(-0.00534642 0.190916 1.10786e-19)
(-0.00510466 0.209487 5.53273e-20)
(-0.0047059 0.227621 1.65108e-19)
(-0.00416231 0.245198 0)
(-0.0034858 0.262109 1.09164e-19)
(-0.00268795 0.278252 1.08297e-19)
(-0.00177964 0.293536 1.07777e-19)
(-0.000770919 0.307877 -2.90219e-22)
(0.0003296 0.321195 -1.06865e-19)
(0.00152451 0.333417 1.06661e-19)
(0.0028192 0.344468 0)
(0.00402614 0.354254 -6.92543e-23)
(0.00496675 0.362698 2.32296e-19)
(0.00337594 -0.010987 -9.37671e-20)
(0.00695221 -0.0232293 0)
(0.00803531 -0.0277789 -1.04214e-19)
(0.00756447 -0.0267772 -1.32767e-19)
(0.00612866 -0.0216536 -8.09997e-20)
(0.0041473 -0.0133728 2.73109e-20)
(0.00190354 -0.00263437 4.97026e-24)
(-0.000411239 0.0100405 -2.77627e-20)
(-0.00267049 0.0242575 1.25834e-22)
(-0.00479418 0.0397082 5.60147e-20)
(-0.00673375 0.0561442 5.60588e-20)
(-0.00846206 0.0733576 -5.60496e-20)
(-0.00996616 0.0911663 5.60489e-20)
(-0.0112427 0.109406 -1.68043e-19)
(-0.0122935 0.127922 1.67568e-19)
(-0.0131233 0.146571 1.11434e-19)
(-0.0137393 0.165213 2.77909e-19)
(-0.0141495 0.183714 -5.53844e-20)
(-0.0143625 0.201946 -1.10238e-19)
(-0.0143882 0.219786 -1.37613e-22)
(-0.0142369 0.23712 -1.09605e-19)
(-0.0139194 0.253838 3.26515e-19)
(-0.0134462 0.269841 -2.16904e-19)
(-0.0128275 0.285036 2.15269e-19)
(-0.0120738 0.29934 -1.07412e-19)
(-0.0111954 0.312673 2.13449e-19)
(-0.0101924 0.324963 4.2929e-22)
(-0.00906361 0.336139 -2.11078e-19)
(-0.00800932 0.346109 2.09378e-19)
(-0.00723067 0.354809 1.15595e-19)
(0.00357608 -0.0108304 9.3767e-20)
(0.00717167 -0.0229474 0)
(0.00793103 -0.0275902 2.34351e-19)
(0.00698716 -0.0268355 7.96661e-20)
(0.00499182 -0.022079 0)
(0.00241023 -0.0142526 0)
(-0.000448764 -0.0040294 0)
(-0.00337894 0.00809069 0)
(-0.00624512 0.0217298 5.57956e-20)
(-0.00896254 0.0365924 5.59195e-20)
(-0.0114797 0.0524407 -1.1213e-19)
(-0.013768 0.069075 1.12188e-19)
(-0.0158134 0.0863203 1.68134e-19)
(-0.0176114 0.104018 5.60607e-20)
(-0.0191625 0.122019 5.58385e-20)
(-0.0204701 0.140185 -1.67062e-19)
(-0.02154 0.158379 -2.22075e-19)
(-0.0223785 0.176473 -1.10676e-19)
(-0.0229927 0.194342 1.10239e-19)
(-0.0233908 0.211865 -2.19714e-19)
(-0.023582 0.22893 1.08993e-19)
(-0.0235758 0.245431 -2.17736e-19)
(-0.023382 0.261268 1.08087e-19)
(-0.0230105 0.276352 3.28378e-22)
(-0.0224727 0.290598 -1.06783e-19)
(-0.0217813 0.303929 -2.13298e-19)
(-0.0209403 0.316274 2.11569e-19)
(-0.019953 0.327568 0)
(-0.0190307 0.337723 6.47321e-23)
(-0.0184019 0.34669 -2.30929e-19)
(0.0037413 -0.0105993 1.17077e-20)
(0.00731311 -0.0225083 0)
(0.00772933 -0.0272063 -1.04099e-19)
(0.00631341 -0.0266848 2.65028e-20)
(0.00377582 -0.0222966 -2.69112e-20)
(0.000623677 -0.0149345 0)
(-0.00281136 -0.00524099 -2.7509e-20)
(-0.00631077 0.00630744 2.76988e-20)
(-0.00973272 0.0193507 5.57125e-20)
(-0.0129891 0.0336068 -1.67581e-19)
(-0.0160267 0.0488489 -5.60228e-20)
(-0.0188162 0.0648857 -7.64682e-23)
(-0.0213432 0.0815487 -3.13236e-23)
(-0.0236026 0.0986851 -1.11866e-19)
(-0.025594 0.116152 -5.59096e-20)
(-0.02732 0.133815 0)
(-0.0287851 0.151542 -1.38877e-22)
(-0.0299943 0.169207 1.10595e-19)
(-0.0309535 0.18669 -1.09914e-19)
(-0.0316695 0.203874 0)
(-0.0321503 0.220648 0)
(-0.0324046 0.236908 0)
(-0.0324417 0.252559 0)
(-0.0322716 0.26751 -1.53268e-22)
(-0.031907 0.28168 0)
(-0.0313635 0.294993 0)
(-0.0306499 0.307383 1.05469e-19)
(-0.0297748 0.31879 1.04788e-19)
(-0.0289585 0.329137 1.04443e-19)
(-0.0284618 0.338384 6.8285e-23)
(0.00386581 -0.0102944 1.16986e-20)
(0.00736639 -0.0219153 -2.53962e-20)
(0.00742056 -0.0266326 1.55825e-19)
(0.00553624 -0.0263321 -2.6473e-20)
(0.00247746 -0.0223143 2.688e-20)
(-0.00121131 -0.0154262 5.11926e-24)
(-0.00517892 -0.00627627 8.23596e-20)
(-0.00919722 0.00468472 -1.10637e-19)
(-0.0131197 0.0171155 1.66886e-19)
(-0.0168564 0.0307487 4.35415e-23)
(-0.0203535 0.0453682 -5.59329e-20)
(-0.0235821 0.0607911 1.11939e-19)
(-0.0265278 0.0768555 -1.11909e-19)
(-0.0291855 0.0934145 1.11778e-19)
(-0.0315544 0.110331 0)
(-0.0336365 0.127473 1.11262e-19)
(-0.0354355 0.144714 0)
(-0.0369554 0.161933 4.04047e-23)
(-0.0382008 0.179011 -1.10032e-19)
(-0.0391777 0.195835 -1.09538e-19)
(-0.039893 0.212298 1.09012e-19)
(-0.0403547 0.228297 -1.08456e-19)
(-0.0405716 0.24374 -1.07872e-19)
(-0.040554 0.258539 -2.1464e-19)
(-0.0403165 0.272616 -1.0662e-19)
(-0.039878 0.285898 1.06262e-19)
(-0.039253 0.298325 -2.10601e-19)
(-0.0384561 0.309845 -1.04789e-19)
(-0.0377142 0.32039 0)
(-0.0373262 0.329932 -1.15074e-19)
(0.00394407 -0.00991708 0)
(0.00732212 -0.0211731 1.0143e-19)
(0.00699642 -0.0258761 -7.7915e-20)
(0.0046504 -0.0257859 -1.32129e-19)
(0.00109552 -0.0221409 0)
(-0.00309154 -0.0157364 0)
(-0.00754391 -0.00714279 -1.64727e-19)
(-0.0120266 0.0032164 2.21127e-19)
(-0.0163905 0.0150201 -1.66779e-19)
(-0.0205452 0.0280159 0)
(-0.0244374 0.0419989 5.59065e-20)
(-0.0280394 0.0567941 -5.60275e-20)
(-0.0313377 0.0722463 5.21533e-23)
(-0.0343275 0.0882143 -5.59833e-20)
(-0.0370081 0.104565 -5.58225e-20)
(-0.0393815 0.121173 -2.50646e-23)
(-0.0414504 0.137913 1.10883e-19)
(-0.0432184 0.154669 1.10491e-19)
(-0.0446891 0.171326 -1.79665e-22)
(-0.0458677 0.187774 2.18862e-19)
(-0.0467602 0.203907 -2.18215e-19)
(-0.0473738 0.219627 2.16668e-19)
(-0.0477171 0.234844 1.07873e-19)
(-0.0478009 0.249474 1.07261e-19)
(-0.0476416 0.263442 1.14338e-22)
(-0.047262 0.276681 0)
(-0.0466828 0.289136 1.05377e-19)
(-0.0459254 0.300766 -3.13495e-19)
(-0.0452208 0.311519 1.02807e-19)
(-0.0449118 0.321373 1.14348e-19)
(0.00397089 -0.00946982 -7.003e-20)
(0.00717195 -0.0202882 -2.28082e-19)
(0.00645014 -0.024946 8.56432e-24)
(0.00365255 -0.0250564 1.39658e-22)
(-0.000369113 -0.0217867 -8.03651e-20)
(-0.00501168 -0.0158742 0)
(-0.00989665 -0.00784842 -5.47406e-20)
(-0.014785 0.00189651 -3.31398e-19)
(-0.0195272 0.0130607 1.66635e-19)
(-0.0240338 0.0254074 -1.11439e-19)
(-0.0282533 0.0387425 1.67609e-19)
(-0.0321599 0.0528991 -5.58791e-20)
(-0.0357416 0.0677286 1.1186e-19)
(-0.0389942 0.0830951 -2.79377e-19)
(-0.041918 0.0988704 1.6722e-19)
(-0.0445147 0.114932 1.51326e-22)
(-0.0467873 0.13116 -3.32477e-19)
(-0.0487384 0.147441 1.10649e-19)
(-0.0503713 0.163663 -1.09821e-19)
(-0.0516904 0.179719 0)
(-0.0527009 0.195508 1.08959e-19)
(-0.0534093 0.210933 0)
(-0.0538238 0.225907 -1.07986e-19)
(-0.0539559 0.240352 1.06924e-19)
(-0.0538237 0.254197 1.06508e-19)
(-0.0534538 0.267379 1.05705e-19)
(-0.0528741 0.279854 0)
(-0.052113 0.291592 0)
(-0.0514035 0.30256 -2.07431e-19)
(-0.0511379 0.312744 3.42869e-19)
(0.00394155 -0.00895594 7.00709e-20)
(0.00690877 -0.0192689 1.26648e-19)
(0.0057767 -0.0238527 -1.03478e-19)
(0.00254139 -0.0241549 2.10967e-19)
(-0.00191334 -0.0212625 2.69224e-20)
(-0.00696415 -0.0158495 2.71268e-20)
(-0.0122252 -0.00840108 1.62595e-22)
(-0.0174567 0.000719444 -1.10234e-19)
(-0.0225103 0.0112345 -5.54553e-20)
(-0.0272992 0.0229229 8.99303e-23)
(-0.0317749 0.0356018 -7.29117e-23)
(-0.035914 0.0491121 -1.67714e-19)
(-0.0397066 0.0633117 -5.59355e-20)
(-0.0431501 0.0780697 2.50578e-23)
(-0.0462454 0.0932622 1.11497e-19)
(-0.0489952 0.10877 1.11226e-19)
(-0.0514023 0.124479 -4.57579e-24)
(-0.0534694 0.140276 -1.10478e-19)
(-0.0551993 0.156053 1.10203e-19)
(-0.0565959 0.171707 -1.09312e-19)
(-0.0576635 0.187138 -2.17922e-19)
(-0.058408 0.202254 -1.08572e-19)
(-0.0588371 0.216972 2.15283e-19)
(-0.0589629 0.231217 0)
(-0.058805 0.244922 -1.06364e-19)
(-0.0583936 0.258035 -2.11329e-19)
(-0.0577639 0.27052 -2.10139e-19)
(-0.0569521 0.282362 1.03817e-19)
(-0.0561904 0.29355 -3.10189e-19)
(-0.0559266 0.304077 1.13905e-19)
(0.00385193 -0.00837976 -1.16488e-19)
(0.00652686 -0.0181249 2.53052e-20)
(0.00497303 -0.0226085 1.03479e-19)
(0.00131791 -0.0230943 -7.90787e-20)
(-0.00353168 -0.0205804 2.68059e-20)
(-0.008939 -0.0156722 -2.30389e-23)
(-0.0145156 -0.00880844 2.73442e-19)
(-0.0200234 -0.000319719 1.10289e-19)
(-0.0253179 0.00953931 1.10915e-19)
(-0.0303164 0.0205636 1.6705e-19)
(-0.0349739 0.032581 -1.67381e-19)
(-0.0392705 0.0454407 1.11765e-19)
(-0.0431989 0.0590067 2.23674e-19)
(-0.0467581 0.0731529 1.11811e-19)
(-0.049951 0.0877594 1.52777e-22)
(-0.0527808 0.102711 -2.22298e-19)
(-0.055251 0.117895 2.21951e-19)
(-0.0573645 0.133203 1.70221e-22)
(-0.0591241 0.148531 -1.10221e-19)
(-0.0605332 0.163775 1.0933e-19)
(-0.0615956 0.17884 1.08963e-19)
(-0.0623162 0.193637 -1.08379e-19)
(-0.0627024 0.208086 -2.15666e-19)
(-0.0627664 0.222117 -3.77928e-22)
(-0.0625289 0.23567 1.06193e-19)
(-0.0620232 0.248699 1.05624e-19)
(-0.0612919 0.26118 2.09925e-19)
(-0.0603791 0.273116 -2.07542e-19)
(-0.0595138 0.284524 0)
(-0.0592049 0.295407 1.14004e-19)
(0.00369858 -0.00774647 1.10847e-22)
(0.00602215 -0.0168678 0)
(0.00403818 -0.0212272 -7.73756e-20)
(-1.45274e-05 -0.0218883 -2.63028e-20)
(-0.00521617 -0.0197527 -1.06736e-19)
(-0.0109238 -0.0153526 0)
(-0.0167511 -0.00907768 -1.63966e-19)
(-0.022465 -0.00122499 5.50265e-20)
(-0.0279265 0.00797454 0)
(-0.0330585 0.0183319 -1.11168e-19)
(-0.0378207 0.0296862 0)
(-0.0421969 0.0418945 -1.67562e-19)
(-0.046183 0.0548268 1.67504e-19)
(-0.0497805 0.0683617 -1.11667e-19)
(-0.0529941 0.0823831 -1.11487e-19)
(-0.0558284 0.0967786 0)
(-0.0582879 0.111439 0)
(-0.060376 0.126259 1.10698e-19)
(-0.0620959 0.141135 3.79516e-22)
(-0.0634508 0.155966 1.09951e-19)
(-0.064444 0.170661 -1.08798e-19)
(-0.0650796 0.185133 2.16958e-19)
(-0.0653645 0.199305 -1.07549e-19)
(-0.0653108 0.213111 0)
(-0.0649396 0.226497 3.19296e-19)
(-0.0642865 0.239427 -5.27681e-19)
(-0.0634009 0.251887 1.04443e-19)
(-0.0623349 0.263903 1.03937e-19)
(-0.0613119 0.275525 1.02959e-19)
(-0.0609069 0.286765 2.27781e-19)
(0.00347889 -0.00706208 -9.28428e-20)
(0.00539237 -0.0155101 2.01529e-19)
(0.00297355 -0.0197235 1.03189e-19)
(-0.00144996 -0.0205517 2.36154e-19)
(-0.00695616 -0.0187921 2.93219e-19)
(-0.0129036 -0.0149003 5.40234e-20)
(-0.0189127 -0.00921523 -2.72586e-19)
(-0.0247587 -0.00199913 0)
(-0.0303101 0.00654109 -2.21153e-19)
(-0.0354965 0.0162326 -1.10968e-19)
(-0.0402834 0.0269257 0)
(-0.0446589 0.0384854 -1.11537e-19)
(-0.0486222 0.0507878 1.30828e-22)
(-0.0521781 0.063716 -3.34732e-19)
(-0.0553331 0.0771572 1.11488e-19)
(-0.0580941 0.0910022 1.11423e-19)
(-0.0604666 0.105145 -2.21505e-19)
(-0.0624553 0.11948 -2.21082e-19)
(-0.064064 0.133908 -3.82793e-22)
(-0.0652961 0.148331 -1.76486e-22)
(-0.0661546 0.162657 0)
(-0.0666432 0.176802 -1.08597e-19)
(-0.0667681 0.190692 -1.07957e-19)
(-0.0665409 0.204264 0)
(-0.0659825 0.217471 0)
(-0.0651296 0.230285 3.16854e-19)
(-0.0640378 0.242705 -3.13702e-19)
(-0.0627662 0.254778 0)
(-0.0615308 0.266597 3.08818e-19)
(-0.0609761 0.278186 -2.26754e-19)
(0.00319112 -0.00633336 2.44066e-22)
(0.0046372 -0.0140658 -2.01573e-19)
(0.00178301 -0.0181136 -2.57451e-20)
(-0.00297966 -0.0190997 -2.62333e-19)
(-0.00873815 -0.0177114 -1.59907e-19)
(-0.0148603 -0.0143247 5.39453e-20)
(-0.0209785 -0.00922644 1.09098e-19)
(-0.0268791 -0.00264332 2.74404e-19)
(-0.0324402 0.00524198 2.21157e-19)
(-0.0375992 0.0142728 2.22142e-19)
(-0.0423282 0.0243106 0)
(-0.0466201 0.0352287 1.35668e-22)
(-0.050478 0.046909 0)
(-0.0539099 0.0592389 2.23251e-19)
(-0.0569252 0.0721092 0)
(-0.0595327 0.0854133 -1.11435e-19)
(-0.0617399 0.0990471 1.10732e-19)
(-0.0635529 0.112909 0)
(-0.0649768 0.126898 0)
(-0.0660155 0.14092 -3.29074e-19)
(-0.0666723 0.154883 1.08864e-19)
(-0.0669508 0.168707 0)
(-0.0668568 0.182316 2.15197e-19)
(-0.0664011 0.195652 2.1409e-19)
(-0.0656036 0.208671 -4.25174e-19)
(-0.0645013 0.221352 4.21959e-19)
(-0.063154 0.233708 3.14194e-22)
(-0.0616273 0.245809 2.07498e-19)
(-0.0601267 0.257798 -2.0576e-19)
(-0.0593691 0.269713 0)
(0.00283458 -0.00556781 2.32014e-19)
(0.0037585 -0.0125501 -2.51625e-20)
(0.000473168 -0.0164143 -2.05338e-19)
(-0.004592 -0.0175481 0)
(-0.0105456 -0.0165234 -2.12427e-19)
(-0.0167732 -0.0136346 0)
(-0.0229238 -0.00911536 -2.71832e-19)
(-0.028798 -0.00315674 -1.64717e-19)
(-0.0342854 0.00408278 -2.20624e-19)
(-0.0393326 0.0124626 0)
(-0.0439186 0.0218556 5.57076e-20)
(-0.0480417 0.0321433 5.61341e-20)
(-0.0517094 0.0432134 -1.11437e-19)
(-0.0549332 0.0549578 -2.23113e-19)
(-0.0577254 0.0672704 -1.11247e-19)
(-0.0600974 0.0800475 -4.44991e-19)
(-0.0620589 0.0931872 2.21516e-19)
(-0.0636179 0.106589 -3.91278e-22)
(-0.0647811 0.120155 -3.91716e-22)
(-0.065554 0.133791 3.28718e-19)
(-0.0659405 0.147406 0)
(-0.0659449 0.160918 0)
(-0.0655728 0.174256 3.55784e-22)
(-0.0648347 0.187358 3.29496e-22)
(-0.0637492 0.200185 -2.12586e-19)
(-0.0623522 0.212722 -2.11231e-19)
(-0.0607064 0.224989 -2.37453e-22)
(-0.0588813 0.237082 -2.07498e-19)
(-0.0570691 0.249198 -2.05726e-19)
(-0.0560592 0.261398 -8.90297e-23)
(0.00240966 -0.00477358 0)
(0.00276043 -0.010979 2.00452e-19)
(-0.000946554 -0.0146435 1.79703e-19)
(-0.00627227 -0.0159131 2.61267e-20)
(-0.012359 -0.0152406 4.2446e-19)
(-0.018618 -0.0128376 -5.3772e-20)
(-0.0247204 -0.00888434 4.34374e-19)
(-0.0304838 -0.00353627 2.18783e-19)
(-0.035811 0.00307208 3.30878e-19)
(-0.0406591 0.010816 1.66096e-19)
(-0.0450146 0.0195797 5.56613e-20)
(-0.0488816 0.0292529 2.78865e-19)
(-0.0522723 0.0397294 3.45596e-22)
(-0.0552018 0.0509052 1.1176e-19)
(-0.0576858 0.0626777 2.22896e-19)
(-0.0597385 0.0749461 2.22489e-19)
(-0.061372 0.0876106 0)
(-0.0625967 0.100573 0)
(-0.0634217 0.113736 0)
(-0.0638542 0.127005 0)
(-0.0639 0.140293 2.18211e-19)
(-0.0635648 0.153515 0)
(-0.0628553 0.166597 -3.36844e-22)
(-0.0617823 0.179479 4.27931e-19)
(-0.0603637 0.192119 2.1228e-19)
(-0.0586336 0.204504 2.10645e-19)
(-0.0566556 0.216661 4.18368e-19)
(-0.0545005 0.228706 0)
(-0.0523429 0.240892 -4.11067e-19)
(-0.0510398 0.25331 4.51373e-19)
(0.001918 -0.00395944 1.84663e-19)
(0.00164959 -0.00936944 -2.00456e-19)
(-0.00246376 -0.0128193 0)
(-0.00800261 -0.0142108 -2.08329e-19)
(-0.0141554 -0.0138749 -5.34095e-20)
(-0.0203675 -0.0119403 -1.60732e-19)
(-0.0263369 -0.00853385 -4.8794e-19)
(-0.0319014 -0.00377608 -4.69217e-22)
(-0.0369788 0.0022219 -1.65006e-19)
(-0.0415376 0.00935097 -3.87169e-19)
(-0.0455723 0.0175067 -5.5451e-20)
(-0.0490936 0.0265869 -2.22519e-19)
(-0.0521183 0.0364913 -2.22813e-19)
(-0.0546655 0.0471203 0)
(-0.0567545 0.0583749 -2.22721e-19)
(-0.0584023 0.0701572 -3.33789e-19)
(-0.0596239 0.0823699 1.10738e-19)
(-0.0604324 0.0949165 -2.2116e-19)
(-0.0608394 0.107702 -2.20316e-19)
(-0.0608549 0.120632 0)
(-0.0604874 0.133619 -4.36408e-19)
(-0.0597454 0.146579 0)
(-0.0586383 0.159434 -4.31506e-19)
(-0.057179 0.172121 -2.14409e-19)
(-0.055386 0.184592 -4.25042e-19)
(-0.0532929 0.196831 2.11111e-19)
(-0.0509629 0.208865 -6.27058e-19)
(-0.0484648 0.22082 2.07219e-19)
(-0.0459483 0.233008 1.09893e-22)
(-0.0443272 0.245549 -2.25371e-19)
(0.00136247 -0.00313463 -1.84667e-19)
(0.000435098 -0.00773898 2.49673e-20)
(-0.00406302 -0.0109605 1.78491e-19)
(-0.0097619 -0.0124573 2.08333e-19)
(-0.0159086 -0.0124375 -2.11604e-19)
(-0.0219908 -0.0109478 4.5272e-22)
(-0.0277384 -0.00806236 2.16648e-19)
(-0.0330119 -0.0038676 -4.3662e-19)
(-0.0377464 0.00154794 -5.46563e-20)
(-0.0419224 0.00809031 4.97122e-19)
(-0.0455434 0.0156662 -3.32772e-19)
(-0.0486266 0.0241813 5.55821e-19)
(-0.051194 0.033541 5.56974e-19)
(-0.053269 0.0436506 -1.11202e-19)
(-0.0548743 0.0544146 2.22724e-19)
(-0.0560299 0.0657384 3.33751e-19)
(-0.056754 0.0775273 1.11059e-19)
(-0.0570623 0.0896872 7.70905e-23)
(-0.0569695 0.102125 1.09969e-19)
(-0.0564889 0.114748 1.09455e-19)
(-0.0556329 0.127469 -1.09203e-19)
(-0.054414 0.140202 1.08277e-19)
(-0.0528466 0.15287 -2.1547e-19)
(-0.0509485 0.1654 2.14072e-19)
(-0.0487426 0.17774 1.26443e-22)
(-0.046265 0.189861 2.10663e-19)
(-0.04358 0.201777 1.60878e-22)
(-0.0407522 0.213614 -2.06912e-19)
(-0.0378965 0.225725 2.65607e-22)
(-0.0359576 0.238263 0)
(0.00074727 -0.00230867 0)
(-0.000871399 -0.00610548 0)
(-0.00572588 -0.00908579 -2.29513e-19)
(-0.0115258 -0.0106685 2.59559e-20)
(-0.0175889 -0.0109392 0)
(-0.0234536 -0.00986417 2.13913e-19)
(-0.0288861 -0.0074664 5.40504e-20)
(-0.0337728 -0.00379944 1.6369e-19)
(-0.0380672 0.00106966 2.19632e-19)
(-0.0417634 0.00706159 -2.20813e-19)
(-0.0448742 0.0140936 2.21685e-19)
(-0.047424 0.022079 -2.22274e-19)
(-0.0494401 0.0309291 -2.22605e-19)
(-0.0509503 0.0405533 0)
(-0.051981 0.0508602 0)
(-0.0525552 0.0617585 0)
(-0.052694 0.0731567 -2.21759e-19)
(-0.0524161 0.0849635 3.31811e-19)
(-0.0517394 0.097088 -1.09895e-19)
(-0.0506808 0.109441 0)
(-0.0492571 0.121936 3.2735e-19)
(-0.0474865 0.134488 -1.08228e-19)
(-0.0453907 0.147017 2.15469e-19)
(-0.0429962 0.159448 -4.27957e-19)
(-0.040336 0.171717 4.24358e-19)
(-0.0374557 0.183778 1.39768e-22)
(-0.0344274 0.195621 3.27865e-22)
(-0.0313147 0.207343 2.06681e-19)
(-0.0281847 0.219305 -3.43405e-22)
(-0.025963 0.231677 2.24033e-19)
(7.79039e-05 -0.00149131 2.29116e-20)
(-0.00225572 -0.00448698 -2.48933e-20)
(-0.00743085 -0.00721397 5.08133e-20)
(-0.0132667 -0.00886008 -3.10382e-19)
(-0.0191636 -0.00939002 5.25844e-20)
(-0.0247181 -0.00869231 0)
(-0.0297376 -0.0067407 2.15255e-19)
(-0.0341372 -0.00355766 -2.17202e-19)
(-0.0378903 0.000810099 0)
(-0.0410054 0.0062971 2.75188e-19)
(-0.0435058 0.0128306 -5.52055e-20)
(-0.045423 0.0203309 0)
(-0.0467905 0.0287147 -1.11315e-19)
(-0.0476404 0.0378958 2.22355e-19)
(-0.0480027 0.0477866 -1.10919e-19)
(-0.0479037 0.0582995 1.11218e-19)
(-0.0473671 0.0693462 -2.21521e-19)
(-0.0464147 0.0808388 -4.25743e-22)
(-0.045067 0.09269 -4.08783e-22)
(-0.0433446 0.104814 -1.09615e-19)
(-0.0412689 0.117128 -2.18267e-19)
(-0.0388647 0.12955 -6.65241e-22)
(-0.0361623 0.142002 -1.7388e-22)
(-0.0332011 0.154406 2.13782e-19)
(-0.030031 0.166693 -2.12266e-19)
(-0.0267188 0.1788 2.10471e-19)
(-0.0233597 0.190677 -4.16956e-19)
(-0.0200331 0.20236 -3.63213e-22)
(-0.0167536 0.21415 -4.09521e-19)
(-0.0143231 0.226176 2.23294e-19)
(-0.000638619 -0.000692518 0)
(-0.00370091 -0.00290171 -1.9797e-19)
(-0.0091533 -0.00536387 0)
(-0.0149537 -0.00704743 5.83179e-22)
(-0.0205963 -0.00779946 5.24883e-20)
(-0.0257433 -0.00743416 7.46078e-23)
(-0.0302473 -0.00587857 -4.29874e-19)
(-0.0340546 -0.00312612 1.63027e-19)
(-0.0371605 0.000795402 0)
(-0.0395889 0.00583339 -2.75089e-19)
(-0.0413739 0.0119242 5.51022e-20)
(-0.0425553 0.0189945 0)
(-0.0431726 0.0269659 -1.11156e-19)
(-0.0432629 0.0357562 1.10803e-19)
(-0.0428598 0.0452815 1.10602e-19)
(-0.0419925 0.0554575 2.21737e-19)
(-0.0406876 0.0661997 -1.10418e-19)
(-0.0389691 0.0774238 0)
(-0.0368602 0.0890466 0)
(-0.0343839 0.100988 2.18948e-19)
(-0.0315656 0.113169 -2.18012e-19)
(-0.0284355 0.125515 2.16032e-19)
(-0.0250328 0.137955 2.15065e-19)
(-0.0214106 0.15042 2.13591e-19)
(-0.0176415 0.162843 -2.11423e-19)
(-0.0138268 0.175158 2.10089e-19)
(-0.0101128 0.187291 2.08231e-19)
(-0.00664884 0.199199 -2.0597e-19)
(-0.00346817 0.21107 -8.35409e-24)
(-0.00108535 0.222839 4.45103e-19)
(-0.00139475 7.86187e-05 2.2786e-20)
(-0.00518841 -0.00136675 1.73272e-19)
(-0.0108665 -0.0035531 0)
(-0.0165538 -0.00524482 2.06286e-19)
(-0.0218484 -0.00617579 0)
(-0.0264854 -0.00609024 0)
(-0.0303664 -0.00487161 1.61072e-19)
(-0.0334716 -0.00248657 -1.3929e-22)
(-0.0358194 0.00105449 5.44414e-20)
(-0.0374502 0.00571063 5.49382e-20)
(-0.0384101 0.0114262 -1.65375e-19)
(-0.0387475 0.0181334 1.10319e-19)
(-0.0385086 0.025758 0)
(-0.0377355 0.0342215 0)
(-0.0364656 0.0434431 -2.21837e-19)
(-0.0347314 0.0533417 0)