/*--------------------------------*- C++ -*----------------------------------*\
  =========                 |
  \\      /  F ield         | OpenFOAM: The Open Source CFD Toolbox
   \\    /   O peration     | Website:  https://openfoam.org
    \\  /    A nd           | Version:  7
     \\/     M anipulation  |
\*---------------------------------------------------------------------------*/
FoamFile
{
    version     2.0;
    format      ascii;
    class       volScalarField;
    location    "19";
    object      p;
}
// * * * * * * * * * * * * * * * * * * * * * * * * * * * * * * * * * * * * * //

dimensions      [0 2 -2 0 0 0 0];

internalField   nonuniform List<scalar> 
2000
(
-0.0127052
-0.00833248
-0.00552828
-0.00232093
0.00139365
0.00563764
0.0103446
0.0153541
0.0204717
0.0256326
-0.0111239
-0.00732695
-0.00493012
-0.00232885
0.000604207
0.00400321
0.00791929
0.0122822
0.0169274
0.0217914
-0.00963579
-0.00640786
-0.00435516
-0.00223943
3.52906e-05
0.00264809
0.00573921
0.00934245
0.0133665
0.0177816
-0.00826427
-0.00559117
-0.0038374
-0.00210282
-0.000348223
0.00159091
0.00389256
0.00667329
0.00993585
0.0137049
-0.00702343
-0.00488416
-0.0033971
-0.00196011
-0.00059226
0.00081958
0.00243793
0.00441235
0.00682889
0.00972277
-0.00591661
-0.00428203
-0.00303632
-0.00183386
-0.000739339
0.000298178
0.00138993
0.00266184
0.00424712
0.00603663
-0.00494329
-0.00377456
-0.00274411
-0.00172736
-0.000817302
-1.69145e-05
0.000722397
0.00146755
0.00234729
0.0028461
-0.00410538
-0.00335586
-0.00250695
-0.00163312
-0.000838814
-0.000164766
0.000383597
0.000819308
0.00119974
0.000358507
-0.00342093
-0.00302467
-0.00231856
-0.00154571
-0.000811922
-0.000179804
0.000310053
0.000651767
0.000742364
-0.00139136
-0.00291813
-0.00278879
-0.00218817
-0.00147529
-0.000753188
-9.41822e-05
0.000451438
0.000897328
0.00096547
-0.00181889
0.0361279
0.0503462
0.0609843
0.0680488
0.0725515
0.074953
0.0745972
0.0742107
0.0711864
0.074007
0.0320339
0.0471111
0.0581127
0.0652248
0.0698817
0.0724417
0.0723104
0.0719603
0.0690273
0.0721145
0.0275471
0.043808
0.0551759
0.0623629
0.0672538
0.0700262
0.0700985
0.0698706
0.067095
0.0703583
0.0227714
0.0404903
0.0521382
0.0594637
0.0646689
0.0676828
0.0679788
0.0678838
0.0654741
0.0686949
0.0179628
0.0372777
0.0490087
0.0565595
0.0621324
0.0653999
0.0659573
0.0659946
0.0641866
0.0670168
0.0134636
0.0341332
0.0457155
0.0536534
0.059632
0.0631687
0.0640279
0.0642721
0.0629013
0.0655304
0.00979544
0.0311579
0.0423637
0.050823
0.0571753
0.0609864
0.0621735
0.0626704
0.06163
0.0642118
0.00711218
0.0279113
0.038835
0.0480069
0.0547231
0.0588464
0.0603818
0.0611473
0.0603831
0.0630534
0.00593298
0.0248212
0.0355291
0.0453057
0.0522966
0.0567386
0.0586228
0.0596684
0.0591765
0.0619487
0.00414682
0.0206037
0.0319258
0.042383
0.0497942
0.0546556
0.0569092
0.0582095
0.057979
0.0608938
0.010739
0.015906
0.0257534
0.0360871
0.0439677
0.049488
0.0526193
0.0546096
0.0553271
0.0580463
0.0114308
0.0128494
0.0212146
0.0296692
0.0366851
0.0422476
0.0461549
0.0490496
0.0508953
0.0533844
0.0111803
0.0128279
0.0198508
0.0260899
0.0314177
0.0359903
0.0397017
0.0427248
0.0449225
0.0471345
0.0110012
0.0132807
0.0188237
0.0231861
0.0272833
0.0308618
0.0337755
0.0363186
0.0382355
0.0398539
0.0110271
0.0140753
0.0175392
0.0205161
0.0234874
0.0261426
0.0283377
0.0302046
0.0315496
0.0325332
0.0113431
0.013865
0.0156388
0.0177243
0.0197937
0.021601
0.0232075
0.0245211
0.0253766
0.0259093
0.012122
0.0138967
0.0143217
0.0149013
0.0158779
0.0168517
0.0180867
0.0189449
0.0195404
0.0198737
0.0112747
0.012531
0.0125229
0.0120242
0.0120229
0.0124126
0.0130133
0.0135297
0.0138787
0.0140654
0.00928043
0.0100141
0.00932645
0.00791579
0.00759614
0.00773368
0.00798978
0.00824815
0.00842219
0.00851859
0.00383018
0.00477128
0.00449393
0.00379443
0.00324106
0.00291768
0.00280342
0.00281858
0.00286257
0.00290237
0.00542589
0.0104608
0.011031
0.0106306
0.010414
0.0104142
0.0106746
0.0101435
0.00849916
0.00245052
0.00667224
0.0110915
0.0108853
0.00996103
0.00944773
0.00940483
0.00971266
0.0093003
0.0079692
0.00199207
0.00793283
0.011162
0.0101653
0.0086852
0.0079837
0.00803776
0.00859696
0.00836502
0.00743459
0.00162623
0.00854598
0.0104672
0.00873449
0.00689185
0.00623474
0.00653746
0.00744611
0.0074357
0.00689643
0.00132513
0.00837715
0.00894473
0.00658261
0.00465219
0.00428033
0.00496261
0.00626114
0.00650504
0.00632979
0.00108017
0.00718668
0.00657389
0.00380851
0.00209493
0.00220555
0.00335384
0.005046
0.00557375
0.00573181
0.000876527
0.00496197
0.00344252
0.00063388
-0.000599252
0.000109918
0.00175703
0.00382146
0.00465246
0.00510975
0.00069413
0.00200451
-0.000193017
-0.00264914
-0.00324093
-0.00191125
0.000218873
0.00262029
0.00375784
0.00447928
0.000524826
-0.00119946
-0.00391764
-0.00575031
-0.00566593
-0.00377293
-0.00121126
0.00148376
0.00291029
0.00386337
0.000366846
-0.00416068
-0.00729093
-0.00843481
-0.00775219
-0.00540201
-0.00248342
0.000454885
0.0021319
0.00327522
0.000330997
-0.00650528
-0.00999478
-0.0105494
-0.0094242
-0.00674071
-0.00354777
-0.0004325
0.00144903
0.00267911
0.000436339
-0.0080486
-0.0119
-0.0120283
-0.0106474
-0.00775852
-0.00437348
-0.00117267
0.000869155
0.00214126
0.000480758
-0.00873597
-0.0130136
-0.0128943
-0.0114233
-0.00844995
-0.00506526
-0.00176673
0.000374752
0.00167061
0.000465578
-0.00860324
-0.0134095
-0.0132285
-0.0117939
-0.00885269
-0.00546445
-0.00221802
-4.06496e-05
0.00126057
0.000417696
-0.00787861
-0.0131143
-0.0131242
-0.0118146
-0.00900204
-0.00569075
-0.00255109
-0.000386093
0.00090597
0.000353202
-0.00669081
-0.0123475
-0.0126732
-0.0115573
-0.00895956
-0.00578729
-0.00279143
-0.000672667
0.000601331
0.000281955
-0.0051684
-0.0112525
-0.0119817
-0.0110938
-0.00877898
-0.00578715
-0.00296056
-0.000910444
0.000340852
0.000210156
-0.00341241
-0.00992151
-0.0111476
-0.0104979
-0.00848458
-0.00571831
-0.00307638
-0.00110822
0.000118891
0.00014129
-0.00144482
-0.00835627
-0.0102035
-0.00983265
-0.00811805
-0.0056109
-0.00315832
-0.0012746
-7.0332e-05
7.75774e-05
0.000243309
-0.00655557
-0.00908714
-0.00902094
-0.00770553
-0.00547123
-0.00320025
-0.00140278
-0.000230562
2.25681e-05
0.00176022
-0.00224784
-0.00593237
-0.00658707
-0.00613822
-0.00472184
-0.00307079
-0.00157268
-0.000536575
-7.86331e-05
0.00364249
-0.000144628
-0.0028992
-0.00369091
-0.00381492
-0.00312109
-0.00221645
-0.00128466
-0.000527711
-7.43153e-05
0.00664022
0.00303023
9.49181e-05
-0.00115253
-0.00179572
-0.00170251
-0.00140774
-0.000838293
-0.000311378
8.18866e-05
0.00877692
0.00548848
0.00266336
0.00113824
3.41082e-05
-0.000412859
-0.000564499
-0.000263349
8.67462e-05
0.00034823
0.0114407
0.00791393
0.00492668
0.00311225
0.00162684
0.000745556
0.00030434
0.000384326
0.000604389
0.000678942
0.0140063
0.0102943
0.00710338
0.00490075
0.00299998
0.00178105
0.0010848
0.001051
0.00131448
0.0012234
0.0164999
0.0124617
0.00899803
0.00641832
0.00418088
0.0026633
0.00179478
0.00182419
0.00219476
0.00187157
0.0187799
0.0142801
0.0106459
0.00769845
0.00514109
0.00342421
0.00254675
0.00264392
0.00300662
0.00236141
0.0207151
0.0164295
0.0122616
0.00871575
0.0059079
0.00413722
0.00332608
0.00330383
0.00332034
0.00225034
0.0227083
0.0168358
0.0124295
0.00891621
0.00631891
0.00470996
0.00388048
0.00354583
0.00308056
0.00172761
0.00600591
0.00809398
0.00984793
0.0114449
0.0142079
0.0167229
0.0193664
0.0223673
0.0235014
0.0276723
0.00797885
0.0100492
0.0113984
0.012916
0.0158271
0.0182986
0.0211015
0.0241758
0.0255932
0.0291178
0.00972253
0.0114936
0.012774
0.0145474
0.0177363
0.0203133
0.02338
0.0264661
0.028531
0.0304382
0.0110597
0.0124914
0.01385
0.0159542
0.0193932
0.0221933
0.0255293
0.0287186
0.0312533
0.0323192
0.0121409
0.0133867
0.0148758
0.0172615
0.0208798
0.0239075
0.0274785
0.0308052
0.0336156
0.0346763
0.0130271
0.0142899
0.0159991
0.0186418
0.0224083
0.0256342
0.0294049
0.0328533
0.0358328
0.0372423
0.0137126
0.0151557
0.0172039
0.020128
0.0240665
0.0274944
0.031457
0.035019
0.0381253
0.0398744
0.0142029
0.0159478
0.0184427
0.0216782
0.0258373
0.0295027
0.0336775
0.0373735
0.0406029
0.0425703
0.0145197
0.0166698
0.0197071
0.0232584
0.0276893
0.0316269
0.0360473
0.0399127
0.0432853
0.0453839
0.0146866
0.0173345
0.0210173
0.024855
0.0296155
0.0338361
0.0385401
0.0426024
0.0461506
0.0483546
0.0147259
0.0179433
0.022397
0.026456
0.0316293
0.0361156
0.0411484
0.0454191
0.0491802
0.0514971
0.014656
0.0184822
0.0238461
0.0280521
0.0337309
0.0384666
0.0438689
0.0483548
0.0523625
0.0548043
0.0144884
0.0189299
0.0253247
0.0296542
0.035893
0.0409199
0.0466865
0.0514388
0.0557039
0.0582763
0.0142217
0.0192758
0.0267626
0.0313033
0.0380449
0.0435069
0.0495915
0.0546646
0.0591996
0.0619079
0.0138221
0.0195413
0.0280586
0.0330561
0.0402209
0.0461481
0.052586
0.058029
0.0628626
0.065717
0.0132518
0.0197157
0.029279
0.0347821
0.0423902
0.0487807
0.0556344
0.061492
0.0666735
0.0696984
0.0124778
0.0198253
0.0304353
0.0364367
0.0445364
0.0514247
0.0587609
0.0650869
0.0706609
0.0738846
0.0114964
0.0198722
0.0314028
0.0379645
0.0465621
0.0539997
0.0618599
0.0687239
0.0747725
0.0782525
0.0103451
0.0201102
0.0322138
0.0394635
0.0485485
0.0565984
0.0650187
0.0724867
0.07906
0.0828593
0.0088448
0.0199039
0.0323788
0.040491
0.0500128
0.0587453
0.0677889
0.0760351
0.0833478
0.0876437
0.00995828
0.023359
0.0347445
0.0448994
0.0553026
0.065507
0.0759236
0.0858868
0.0946875
0.100092
0.0198382
0.0331613
0.0446307
0.0564487
0.0681425
0.0807096
0.0938003
0.106673
0.118141
0.124946
0.0330659
0.0452913
0.0575447
0.0708418
0.0840557
0.0993072
0.115668
0.132051
0.146616
0.155478
0.0472653
0.0583805
0.0716391
0.0866838
0.102397
0.121117
0.141637
0.162392
0.180589
0.191642
0.0616413
0.0718234
0.0861354
0.103464
0.122739
0.146101
0.171978
0.197992
0.220436
0.234252
0.0780766
0.0868348
0.10194
0.122073
0.145957
0.17506
0.207298
0.239194
0.266281
0.282147
0.0944032
0.103026
0.119224
0.142655
0.171904
0.207532
0.246698
0.284873
0.316378
0.335398
0.111006
0.12045
0.138502
0.16542
0.200285
0.242561
0.288541
0.333119
0.368373
0.386899
0.122258
0.133034
0.153114
0.183707
0.223625
0.271524
0.323428
0.374048
0.412803
0.434093
0.128334
0.140879
0.162978
0.196073
0.239281
0.291057
0.347898
0.404947
0.449364
0.457824
0.0105528
0.0200333
0.0314348
0.045402
0.0606981
0.0776573
0.0942248
0.110307
0.120591
0.125925
0.0116942
0.0223285
0.0335383
0.0476908
0.0633296
0.0804498
0.096514
0.112073
0.121016
0.126175
0.0140099
0.0259338
0.0377574
0.0525939
0.0686338
0.085756
0.101037
0.115345
0.122434
0.127261
0.0170132
0.0292263
0.0415004
0.0569111
0.0732057
0.0901805
0.104879
0.117977
0.123765
0.128077
0.0205894
0.0326397
0.0450538
0.060691
0.0769465
0.0935556
0.107721
0.119836
0.124831
0.128567
0.0246097
0.0365304
0.0490701
0.0647018
0.080678
0.0967159
0.110215
0.121451
0.125855
0.129033
0.0289286
0.0408127
0.0535988
0.0691507
0.0847553
0.100127
0.112833
0.123188
0.127039
0.129703
0.0334269
0.0453128
0.0583901
0.0738226
0.0890401
0.103739
0.115626
0.125106
0.12842
0.130628
0.0379955
0.0499129
0.0632328
0.0784818
0.0932927
0.107337
0.118444
0.127109
0.129938
0.131745
0.0425282
0.0545234
0.0680035
0.0830014
0.0973692
0.110775
0.121155
0.129102
0.131518
0.132976
0.0469341
0.0590482
0.0726124
0.0873193
0.101211
0.114008
0.123707
0.131041
0.133116
0.134268
0.0511098
0.0633491
0.0769536
0.0913677
0.10478
0.117024
0.126097
0.132914
0.134716
0.135598
0.0549299
0.0672691
0.0809322
0.0950692
0.108051
0.119816
0.128335
0.134716
0.136321
0.136955
0.0582996
0.070745
0.084502
0.0983909
0.111022
0.122383
0.130432
0.13643
0.13794
0.138329
0.0611727
0.0737823
0.0876523
0.101338
0.113703
0.124732
0.132404
0.138067
0.139555
0.139714
0.0635101
0.0763902
0.0903736
0.103921
0.116103
0.126866
0.134259
0.139633
0.141112
0.141101
0.0653147
0.078604
0.0926801
0.106167
0.118241
0.128803
0.13601
0.141157
0.142598
0.142507
0.0664741
0.080371
0.0945315
0.108053
0.120099
0.130528
0.13764
0.142613
0.143988
0.143936
0.0671767
0.0818401
0.0960457
0.109665
0.121741
0.132079
0.139214
0.144014
0.145366
0.145428
0.0666519
0.0824079
0.0967872
0.11063
0.122896
0.133305
0.140558
0.145233
0.146584
0.146964
0.0680284
0.0853524
0.0998056
0.113918
0.126329
0.136679
0.144201
0.148732
0.15025
0.150931
0.0813334
0.0963772
0.109195
0.122466
0.133809
0.143356
0.150351
0.154695
0.156428
0.157232
0.0928028
0.106435
0.118507
0.130879
0.141178
0.150083
0.156592
0.160877
0.162933
0.163921
0.101022
0.113629
0.125637
0.137353
0.147383
0.156194
0.16278
0.167572
0.170658
0.172478
0.106306
0.118447
0.130531
0.14197
0.152346
0.161521
0.168846
0.174953
0.180182
0.184445
0.109466
0.121479
0.133797
0.145389
0.1565
0.166522
0.175328
0.184026
0.193782
0.203978
0.110122
0.122545
0.135352
0.147593
0.159756
0.171227
0.182428
0.195549
0.213646
0.236427
0.110007
0.123279
0.136915
0.150473
0.16419
0.177862
0.192774
0.214021
0.248076
0.295732
0.108551
0.121776
0.135776
0.150452
0.165689
0.182457
0.204256
0.239409
0.300357
0.391708
0.110708
0.125079
0.140502
0.157634
0.177095
0.200953
0.234674
0.290142
0.387268
0.53359
0.058651
0.0715985
0.0832455
0.0920303
0.0979371
0.102097
0.102667
0.102547
0.100495
0.101957
0.0569501
0.0698452
0.0810278
0.0894821
0.0951846
0.0992762
0.0996225
0.0994248
0.0972135
0.0986684
0.0569555
0.0700441
0.0805097
0.0882616
0.0933309
0.0967821
0.0966746
0.0962306
0.0939158
0.0957587
0.0557158
0.0689068
0.0791453
0.0865656
0.0912652
0.0942209
0.0937643
0.0930901
0.0906247
0.0927423
0.0537332
0.0667624
0.0768566
0.0841691
0.0888226
0.091513
0.0908471
0.0900448
0.0874124
0.0895827
0.0515353
0.0643945
0.0743295
0.0815154
0.0861355
0.0887576
0.0879313
0.0870917
0.0843382
0.0864377
0.0490986
0.0619533
0.0718131
0.0788691
0.0833949
0.0859873
0.0850555
0.0842343
0.0814182
0.0834693
0.0463387
0.0593344
0.0692472
0.0762354
0.0806701
0.0832101
0.0822633
0.0814955
0.0786447
0.0807577
0.0432504
0.0564994
0.0665741
0.073561
0.0779571
0.0803398
0.0796708
0.078906
0.0760118
0.0783015
0.0398486
0.053484
0.0638069
0.0708286
0.0752489
0.0775838
0.0771056
0.076479
0.0735222
0.0760632
-0.00262579
-0.00266846
-0.00213518
-0.00144836
-0.00070135
4.36385e-05
0.000757872
0.00152104
0.00253103
0.00334823
-0.00256871
-0.0026792
-0.00218175
-0.00150014
-0.000715983
0.000111047
0.00094455
0.0017949
0.00262531
0.00340581
-0.00275976
-0.00282458
-0.00233534
-0.00164719
-0.000827499
6.74466e-05
0.000990361
0.00190859
0.00267418
0.0032176
-0.00318531
-0.00308834
-0.00257815
-0.00187256
-0.00102278
-7.87738e-05
0.000904325
0.00186385
0.00259453
0.00301027
-0.00380693
-0.00343635
-0.00287075
-0.00213171
-0.00125606
-0.000286981
0.000716358
0.00167897
0.00241575
0.00284487
-0.00457234
-0.00382622
-0.00316827
-0.00237561
-0.0014776
-0.000512685
0.00046146
0.00137504
0.00211282
0.00259299
-0.00541791
-0.00422853
-0.00344021
-0.00257647
-0.00166598
-0.000745602
0.000134434
0.000919056
0.00155803
0.00200977
-0.0062954
-0.00462232
-0.0036798
-0.00273945
-0.00183898
-0.00101686
-0.000310466
0.000247051
0.00064529
0.000920272
-0.00716366
-0.00500361
-0.0039009
-0.00289305
-0.00203524
-0.00136855
-0.000911415
-0.00066748
-0.000614658
-0.0006571
-0.00799458
-0.00538085
-0.00412705
-0.0030679
-0.00228173
-0.00181024
-0.00164548
-0.00175443
-0.00207638
-0.0025012
-0.00877548
-0.00577007
-0.00437731
-0.00327409
-0.00256582
-0.00229145
-0.0024095
-0.00284491
-0.00350033
-0.00427327
-0.00943497
-0.00612669
-0.00460895
-0.00345802
-0.00280973
-0.00269768
-0.00304287
-0.00372783
-0.00463136
-0.00564813
-0.00993259
-0.00642547
-0.00478097
-0.00355302
-0.0029169
-0.0029012
-0.00338945
-0.00422647
-0.00527778
-0.00641477
-0.0102184
-0.00661843
-0.00482342
-0.00346768
-0.00278015
-0.00278636
-0.00333502
-0.00423982
-0.00535711
-0.00651968
-0.0102388
-0.00664343
-0.00465614
-0.0031136
-0.00231369
-0.0022793
-0.00282661
-0.00374394
-0.00488292
-0.00604168
-0.00994926
-0.00643787
-0.00420846
-0.00242683
-0.00147059
-0.00135672
-0.00186902
-0.00277108
-0.00389866
-0.00497126
-0.0093213
-0.0059493
-0.00343326
-0.00137865
-0.000246276
-4.18585e-05
-0.000516795
-0.00141005
-0.00251679
-0.00352647
-0.00834734
-0.00514516
-0.002315
2.4324e-05
0.00133066
0.00161228
0.00115205
0.000238239
-0.000896465
-0.00189334
-0.00704349
-0.0040216
-0.000871207
0.00174725
0.0032145
0.00355572
0.00307548
0.00206601
0.000769739
-0.000316445
-0.00545042
-0.00260787
0.000852362
0.00373023
0.00534917
0.00576415
0.00528011
0.00414504
0.00255545
0.00119617
-0.00362017
-0.000955704
0.00279611
0.00587165
0.00763607
0.00816951
0.00780584
0.00680382
0.00543188
0.00471471
-0.00158153
0.000895975
0.00484486
0.00805685
0.0099181
0.0105426
0.010289
0.00944644
0.00832466
0.00769785
0.000564091
0.00285111
0.00690213
0.0101718
0.012055
0.0127009
0.0124859
0.0117168
0.0106916
0.0100036
0.00272882
0.00482757
0.00888791
0.012125
0.0139504
0.0145468
0.0143074
0.0135531
0.0125614
0.0117913
0.00484709
0.00675683
0.0107358
0.0138515
0.0155469
0.0160369
0.0157307
0.0149625
0.0139933
0.0131761
0.00686844
0.00858634
0.0123987
0.0153125
0.0168173
0.0171601
0.016763
0.0159689
0.0150247
0.0142014
0.00875954
0.0102816
0.0138495
0.0164906
0.0177557
0.017923
0.0174229
0.0166003
0.0156883
0.0148934
0.0105078
0.0118271
0.0150801
0.0173866
0.0183717
0.0183433
0.0177339
0.0168843
0.0160129
0.015278
0.0121175
0.0132241
0.0160988
0.0180163
0.0186876
0.0184471
0.0177243
0.0168486
0.0160247
0.0153788
0.0135889
0.0144828
0.0169304
0.0184127
0.0187395
0.0182713
0.0174289
0.016525
0.0157502
0.0152168
0.0149089
0.015618
0.0176123
0.0186239
0.0185801
0.017868
0.0168962
0.0159563
0.0152232
0.0148148
0.0162306
0.016695
0.0181782
0.0186783
0.0182406
0.0172716
0.0161629
0.0151789
0.0144746
0.0141906
0.0175816
0.0177472
0.0186783
0.018637
0.0177875
0.0165496
0.0152924
0.0142504
0.0135505
0.0133665
0.0190024
0.0188155
0.019163
0.0185596
0.0172869
0.0157709
0.0143531
0.0132358
0.0125075
0.0123719
0.0205424
0.0199429
0.0196836
0.0185068
0.0168071
0.0150078
0.0134192
0.0122086
0.0114168
0.0112565
0.0222443
0.0211693
0.0202913
0.0185411
0.0164187
0.0143373
0.0125717
0.0112533
0.010368
0.0101128
0.0241386
0.0225281
0.0210339
0.018724
0.0161928
0.0138371
0.0118961
0.0104659
0.00947346
0.0090817
0.0262386
0.0240428
0.0219542
0.0191144
0.0161982
0.0135829
0.0114754
0.00994702
0.00887171
0.00834025
0.0285349
0.025723
0.0230859
0.0197669
0.0165017
0.0136455
0.0113792
0.00977612
0.00870673
0.00810262
0.0309886
0.0275576
0.0244477
0.0207283
0.0171727
0.0141092
0.0116879
0.0100132
0.00908623
0.00861357
0.03353
0.0295095
0.0260321
0.022024
0.0182778
0.0150963
0.0126177
0.0110181
0.0106008
0.0111166
0.0360602
0.0315062
0.027789
0.0236255
0.0198045
0.0165974
0.0141112
0.0124735
0.011916
0.012177
0.0384208
0.0334382
0.0296268
0.0254472
0.0216742
0.0185462
0.0161415
0.014517
0.0137775
0.0137838
0.0404403
0.0351748
0.0314199
0.0273645
0.0237616
0.020822
0.0186026
0.0171049
0.0163437
0.0162802
0.0419447
0.0365679
0.0330304
0.0292374
0.025921
0.0232687
0.0213173
0.0200246
0.0193572
0.019367
0.0427685
0.037482
0.0343261
0.0309327
0.028014
0.0257399
0.0241294
0.0231087
0.0226245
0.0228066
0.0427804
0.0378
0.0351937
0.0323372
0.0299247
0.028116
0.0269205
0.0262479
0.0260389
0.0264707
0.0418903
0.037436
0.0355473
0.0333629
0.0315608
0.030301
0.029594
0.02935
0.0295097
0.0302603
0.0400619
0.0363422
0.0353313
0.0339473
0.0328525
0.032218
0.0320674
0.0323269
0.0329411
0.0340737
0.0373368
0.0345174
0.0345227
0.0340532
0.0337507
0.0338074
0.0342711
0.0350961
0.0362352
0.037805
0.0338569
0.0320213
0.0331369
0.0336709
0.0342288
0.0350289
0.0361508
0.0375853
0.039298
0.0413488
0.0295806
0.0288705
0.0311908
0.0328031
0.0342739
0.0358552
0.0376644
0.0397325
0.0420419
0.0446015
0.0246825
0.0251697
0.028743
0.0314794
0.0338951
0.0362782
0.0387867
0.0414918
0.0443948
0.0474694
0.019366
0.0210541
0.0258753
0.0297468
0.033116
0.0363031
0.0395061
0.0428331
0.0463052
0.0498814
0.0138316
0.0166685
0.0226824
0.0276641
0.0319719
0.0359469
0.0398242
0.0437441
0.0477463
0.0517975
0.00828004
0.012166
0.019268
0.0252982
0.0305059
0.035235
0.0397517
0.0442225
0.0487019
0.0531877
0.00290302
0.00770263
0.0157399
0.02272
0.0287657
0.034197
0.0393036
0.0442727
0.0491679
0.0540417
-0.00211775
0.00342909
0.0121999
0.0200012
0.0268021
0.0328666
0.0385011
0.043907
0.0491389
0.0543189
-0.00663123
-0.000488137
0.00873204
0.0172141
0.0246648
0.0312744
0.0373541
0.0431225
0.0486017
0.0539934
-0.0105263
-0.00394535
0.00545409
0.0144352
0.0224056
0.0294629
0.0358951
0.0419663
0.0476471
0.0529705
-0.0137304
-0.00687491
0.00247407
0.0117313
0.0200711
0.0274733
0.0341273
0.040355
0.0461711
0.0511529
-0.0162532
-0.00922238
-0.000152485
0.00915666
0.0177048
0.0253267
0.0321645
0.0384244
0.04422
0.0496375
-0.0180299
-0.0109322
-0.00237079
0.0067641
0.0153603
0.023108
0.0300773
0.0364264
0.0423236
0.047775
-0.0190673
-0.0120055
-0.00414078
0.00460306
0.013081
0.0208498
0.027897
0.0343331
0.0403007
0.0457841
-0.0194223
-0.0124909
-0.00544501
0.00271412
0.0109007
0.0185698
0.0256194
0.0321002
0.0381257
0.0436592
-0.0191769
-0.01247
-0.00629103
0.00112542
0.00884667
0.0162799
0.0232369
0.0296947
0.0357268
0.0413031
-0.0184314
-0.0120447
-0.00671224
-0.000148226
0.00694477
0.0139959
0.0207523
0.0271121
0.033092
0.038679
-0.0173002
-0.0113245
-0.00676743
-0.00110676
0.00522229
0.0117446
0.0181813
0.0243627
0.0302356
0.0357907
-0.015903
-0.0104147
-0.00653603
-0.00176693
0.00370741
0.00956606
0.0155551
0.0214639
0.0271691
0.0326477
-0.0143452
-0.00940102
-0.00610349
-0.00216309
0.0024211
0.0075074
0.0129177
0.0184421
0.0239041
0.0292576
)
;

boundaryField
{
    inlet
    {
        type            zeroGradient;
    }
    outlet
    {
        type            fixedValue;
        value           uniform 0;
    }
    cylinder
    {
        type            zeroGradient;
    }
    top
    {
        type            symmetryPlane;
    }
    bottom
    {
        type            symmetryPlane;
    }
    defaultFaces
    {
        type            empty;
    }
}


// ************************************************************************* //
