/*--------------------------------*- C++ -*----------------------------------*\
  =========                 |
  \\      /  F ield         | OpenFOAM: The Open Source CFD Toolbox
   \\    /   O peration     | Website:  https://openfoam.org
    \\  /    A nd           | Version:  7
     \\/     M anipulation  |
\*---------------------------------------------------------------------------*/
FoamFile
{
    version     2.0;
    format      ascii;
    class       volScalarField;
    location    "0.4";
    object      p;
}
// * * * * * * * * * * * * * * * * * * * * * * * * * * * * * * * * * * * * * //

dimensions      [0 2 -2 0 0 0 0];

internalField   nonuniform List<scalar> 
18000
(
3.36985
3.37593
3.38725
3.40577
3.42866
3.45301
3.47669
3.49864
3.51858
3.53658
3.55292
3.56792
3.58184
3.59495
3.60744
3.61943
3.63101
3.64226
3.65328
3.66416
3.67498
3.68579
3.69663
3.70751
3.71843
3.72939
3.74038
3.75141
3.76245
3.77354
3.34489
3.35111
3.36249
3.38135
3.40476
3.4297
3.45397
3.47646
3.49686
3.51526
3.53192
3.54717
3.56129
3.57454
3.5871
3.59913
3.6107
3.62194
3.63292
3.64373
3.65445
3.66512
3.67579
3.68648
3.69721
3.70797
3.71874
3.72954
3.74034
3.75118
3.31952
3.32588
3.33733
3.35654
3.38048
3.40602
3.43088
3.45391
3.47477
3.49355
3.51052
3.52603
3.54034
3.55371
3.56633
3.57837
3.58994
3.60115
3.61209
3.62282
3.63341
3.64393
3.65442
3.66492
3.67543
3.68596
3.69651
3.70706
3.71761
3.72818
3.29374
3.30029
3.31179
3.33134
3.35583
3.38198
3.40744
3.431
3.45231
3.47146
3.48875
3.50451
3.519
3.53247
3.54515
3.55719
3.56875
3.57993
3.59081
3.60144
3.6119
3.62226
3.63256
3.64284
3.65313
3.66342
3.67372
3.684
3.69428
3.70457
3.26753
3.27427
3.28586
3.30579
3.33085
3.35763
3.38369
3.40778
3.42952
3.44904
3.46664
3.48263
3.49729
3.51086
3.52358
3.53563
3.54717
3.55831
3.56912
3.57964
3.58995
3.60013
3.61023
3.62029
3.63034
3.64038
3.65041
3.66041
3.67039
3.68038
3.24092
3.24789
3.25961
3.27994
3.3056
3.33302
3.35968
3.38427
3.40645
3.42634
3.44423
3.46044
3.47525
3.48891
3.50168
3.51374
3.52525
3.53633
3.54705
3.55745
3.5676
3.57758
3.58746
3.59729
3.60709
3.61686
3.6266
3.63631
3.64597
3.65565
3.21397
3.2212
3.23307
3.25385
3.28012
3.3082
3.33544
3.36055
3.38314
3.40338
3.42156
3.43798
3.45292
3.46668
3.47948
3.49154
3.50302
3.51403
3.52464
3.53489
3.54487
3.55465
3.56431
3.57389
3.58341
3.5929
3.60234
3.61173
3.62107
3.63041
3.18673
3.19424
3.20631
3.22756
3.25448
3.28321
3.31104
3.33663
3.35964
3.38023
3.39868
3.41529
3.43037
3.44419
3.45703
3.46909
3.48052
3.49144
3.50192
3.51201
3.5218
3.53137
3.54079
3.55011
3.55935
3.56853
3.57765
3.58671
3.59571
3.6047
3.15926
3.16707
3.17938
3.20114
3.22872
3.25811
3.28651
3.31259
3.33601
3.35692
3.37562
3.39242
3.40762
3.42152
3.43438
3.44641
3.45778
3.46859
3.47892
3.48884
3.49844
3.50778
3.51695
3.52599
3.53493
3.54379
3.55257
3.56128
3.56992
3.57855
3.13162
3.13975
3.15232
3.17464
3.20289
3.23293
3.26191
3.28847
3.31229
3.33351
3.35245
3.36941
3.38472
3.39868
3.41155
3.42355
3.43484
3.44552
3.45569
3.46542
3.47481
3.48391
3.49281
3.50156
3.51019
3.51872
3.52714
3.53549
3.54376
3.55201
3.10386
3.11232
3.1252
3.1481
3.17705
3.20775
3.23728
3.26431
3.28852
3.31005
3.3292
3.34631
3.36172
3.37573
3.3886
3.40055
3.41173
3.42227
3.43226
3.44179
3.45095
3.45981
3.46843
3.47687
3.48517
3.49334
3.5014
3.50937
3.51726
3.52512
3.07604
3.08484
3.09806
3.12158
3.15124
3.1826
3.21269
3.24018
3.26476
3.28657
3.30592
3.32316
3.33865
3.3527
3.36556
3.37744
3.3885
3.39887
3.40867
3.41798
3.4269
3.43549
3.44382
3.45195
3.4599
3.46771
3.4754
3.48298
3.49048
3.49794
3.04821
3.05736
3.07096
3.09513
3.12551
3.15753
3.18818
3.21612
3.24105
3.26313
3.28265
3.30001
3.31557
3.32963
3.34247
3.35426
3.36519
3.37538
3.38497
3.39404
3.4027
3.41102
3.41904
3.42683
3.43443
3.44187
3.44917
3.45636
3.46346
3.4705
3.02043
3.02993
3.04395
3.0688
3.09992
3.1326
3.16381
3.19218
3.21745
3.23976
3.25945
3.27691
3.29251
3.30658
3.31936
3.33106
3.34183
3.35183
3.36118
3.37001
3.3784
3.38641
3.39412
3.40156
3.4088
3.41585
3.42276
3.42955
3.43624
3.44286
2.99275
3.00261
3.01708
3.04264
3.07452
3.10787
3.13962
3.16843
3.194
3.21653
3.23636
3.25389
3.26952
3.28357
3.29629
3.30786
3.31846
3.32825
3.33736
3.34592
3.35402
3.36173
3.3691
3.37619
3.38304
3.38971
3.39622
3.4026
3.40887
3.41506
2.96522
2.97544
2.99039
3.01671
3.04937
3.08338
3.11566
3.14488
3.17075
3.19346
3.2134
3.231
3.24663
3.26064
3.27327
3.28471
3.29512
3.30468
3.31353
3.32181
3.32961
3.33699
3.34401
3.35074
3.35722
3.36349
3.36959
3.37556
3.3814
3.38714
2.93789
2.94848
2.96395
2.99105
3.02451
3.05919
3.09199
3.12159
3.14773
3.1706
3.19063
3.20826
3.22388
3.23783
3.25036
3.26164
3.27184
3.28116
3.28974
3.29772
3.3052
3.31224
3.31891
3.32527
3.33135
3.33722
3.34292
3.34846
3.35387
3.35915
2.91082
2.92177
2.93781
2.96572
2.99999
3.03535
3.06864
3.0986
3.12497
3.14799
3.16808
3.18571
3.2013
3.21518
3.22758
3.23868
3.24866
3.25772
3.26602
3.27369
3.28083
3.28753
3.29383
3.2998
3.3055
3.31096
3.31624
3.32135
3.32632
3.33113
2.88405
2.89537
2.91201
2.94077
2.97586
3.01188
3.04566
3.07594
3.10252
3.12565
3.14578
3.16339
3.17893
3.19271
3.20496
3.21587
3.22562
3.2344
3.2424
3.24974
3.25655
3.26288
3.26881
3.2744
3.27969
3.28474
3.2896
3.29428
3.2988
3.30312
2.85765
2.86933
2.8866
2.91625
2.95216
2.98884
3.02308
3.05365
3.08041
3.10363
3.12377
3.14135
3.15681
3.17047
3.18255
3.19324
3.20274
3.21124
3.21892
3.22593
3.23238
3.23835
3.2439
3.24909
3.25397
3.25861
3.26304
3.26729
3.27135
3.27517
2.83165
2.84369
2.86165
2.8922
2.92895
2.96627
3.00095
3.0318
3.05869
3.08196
3.10209
3.11961
3.13497
3.14848
3.16037
3.17083
3.18006
3.18827
3.19562
3.20229
3.20837
3.21396
3.21912
3.22391
3.22838
3.2326
3.23661
3.24042
3.24402
3.24733
2.80613
2.81852
2.83719
2.86869
2.90628
2.94421
2.9793
3.01039
3.03739
3.06068
3.08077
3.09821
3.11344
3.12678
3.13846
3.14866
3.15762
3.16551
3.17254
3.17884
3.18455
3.18975
3.19451
3.19889
3.20296
3.20676
3.21035
3.21374
3.21687
3.21967
2.78112
2.79387
2.8133
2.84576
2.88418
2.92271
2.95818
2.98948
3.01655
3.03982
3.05985
3.07718
3.09227
3.10541
3.11685
3.12679
3.13545
3.14302
3.14969
3.15563
3.16095
3.16576
3.17011
3.17408
3.17773
3.18113
3.1843
3.18728
3.18996
3.19227
2.75671
2.7698
2.79002
2.82346
2.86271
2.90181
2.93762
2.96908
2.9962
3.01943
3.03936
3.05656
3.07147
3.08439
3.09557
3.10523
3.11357
3.1208
3.12711
3.13267
3.1376
3.14199
3.14593
3.14949
3.15272
3.15571
3.15849
3.1611
3.16336
3.16525
2.73293
2.74638
2.76741
2.80183
2.8419
2.88154
2.91766
2.94925
2.97637
2.99952
3.01934
3.03638
3.05108
3.06376
3.07466
3.08401
3.09202
3.0989
3.10484
3.11
3.11451
3.11849
3.122
3.12512
3.12794
3.13053
3.13294
3.13521
3.13711
3.13869
2.70984
2.72365
2.74552
2.78093
2.8218
2.86196
2.89833
2.93001
2.95709
2.98014
2.99981
3.01666
3.03113
3.04353
3.05414
3.06317
3.07083
3.07734
3.08289
3.08764
3.09172
3.09526
3.09831
3.10099
3.10337
3.10556
3.10762
3.1096
3.1112
3.11265
2.68751
2.70166
2.7244
2.7608
2.80244
2.84308
2.87968
2.91139
2.9384
2.96131
2.9808
2.99744
3.01164
3.02376
3.03405
3.04274
3.05004
3.05616
3.0613
3.06562
3.06925
3.07231
3.07488
3.07707
3.07899
3.08075
3.08248
3.0842
3.08559
3.08731
2.66598
2.68047
2.70411
2.74149
2.78387
2.82495
2.86173
2.89343
2.92033
2.94308
2.96236
2.97874
2.99267
3.00447
3.01442
3.02275
3.02966
3.03538
3.0401
3.04397
3.04712
3.04967
3.05171
3.05335
3.05473
3.05601
3.05737
3.05885
3.06028
3.06282
2.64532
2.66015
2.6847
2.72306
2.76613
2.8076
2.84451
2.87616
2.90291
2.92546
2.9445
2.9606
2.97422
2.98569
2.99529
3.00323
3.00975
3.01505
3.01933
3.02273
3.02537
3.02737
3.02881
3.02982
3.03053
3.03114
3.03188
3.03294
3.03472
3.03881
2.62552
2.6407
2.6662
2.70553
2.74927
2.79107
2.82806
2.85962
2.88618
2.90849
2.92726
2.94306
2.95635
2.96746
2.97668
2.98423
2.99034
2.99521
2.99902
3.00193
3.00404
3.00545
3.00625
3.00652
3.00641
3.00606
3.0056
3.00524
3.00568
3.01094
3.80974
3.88035
3.9636
4.05482
4.15486
4.26382
4.38143
4.50784
4.64304
4.7868
4.93917
5.09989
5.26891
5.44594
5.63023
5.82148
6.01859
6.22052
6.42592
6.63337
6.84131
7.04856
7.2525
7.4548
7.64626
7.84812
8.00892
8.23204
8.35353
8.59619
3.78655
3.85761
3.94164
4.03313
4.13333
4.2424
4.36
4.48639
4.62158
4.76539
4.9179
5.07879
5.24811
5.42562
5.61036
5.80208
5.99977
6.20231
6.40821
6.61619
6.82443
7.03202
7.23607
7.43843
7.62984
7.83157
7.99223
8.21524
8.3366
8.57972
3.76273
3.83421
3.91901
4.01078
4.11112
4.22026
4.33784
4.46421
4.59935
4.74324
4.89589
5.05701
5.2267
5.40461
5.58987
5.78217
5.98044
6.18359
6.39008
6.59857
6.80725
7.01514
7.2194
7.42183
7.61321
7.81482
7.97537
8.19831
8.31953
8.56312
3.73826
3.81024
3.89575
3.98777
4.08826
4.19742
4.31498
4.44133
4.57641
4.72037
4.87317
5.03456
5.20462
5.38295
5.56877
5.76171
5.9606
6.16437
6.37151
6.58054
6.78976
6.99796
7.2025
7.40498
7.59637
7.79788
7.95835
8.18124
8.30231
8.54639
3.71315
3.78573
3.8719
3.96416
4.06476
4.17394
4.29145
4.41775
4.55278
4.6968
4.84976
5.01143
5.18187
5.36065
5.54708
5.74067
5.94024
6.14468
6.35251
6.56213
6.77194
6.98048
7.18535
7.38791
7.57934
7.78075
7.94117
8.16404
8.28494
8.52951
3.68745
3.76073
3.84751
3.93995
4.04067
4.14983
4.26728
4.39351
4.52848
4.67254
4.82568
4.98762
5.15846
5.33774
5.52478
5.71907
5.91937
6.12453
6.3331
6.54336
6.75378
6.96274
7.16793
7.37063
7.56211
7.76346
7.92384
8.14669
8.26742
8.51249
3.66119
3.73529
3.82262
3.9152
4.01601
4.12513
4.24248
4.36863
4.50353
4.64762
4.80093
4.96315
5.13438
5.3142
5.5019
5.6969
5.89799
6.10392
6.31328
6.52424
6.7353
6.94472
7.15026
7.35314
7.54469
7.746
7.90635
8.12922
8.24975
8.49532
3.63441
3.70944
3.79727
3.88994
3.99081
4.09987
4.21709
4.34313
4.47796
4.62206
4.77552
4.93803
5.10967
5.29004
5.47843
5.67417
5.8761
6.08285
6.29304
6.50476
6.7165
6.92644
7.13234
7.33544
7.52708
7.72838
7.88872
8.11162
8.23195
8.478
3.60716
3.68323
3.77149
3.8642
3.96511
4.07406
4.19113
4.31703
4.45179
4.59587
4.74948
4.91227
5.08432
5.26527
5.45437
5.65088
5.8537
6.06134
6.27241
6.48494
6.69739
6.9079
7.11418
7.31753
7.5093
7.71061
7.87095
8.09389
8.214
8.46053
3.5795
3.65669
3.74533
3.83803
3.93894
4.04774
4.16464
4.29036
4.42503
4.56907
4.7228
4.88589
5.05835
5.23988
5.42974
5.62706
5.8308
6.03938
6.25137
6.46476
6.67797
6.8891
7.09579
7.29942
7.49135
7.69268
7.85304
8.07604
8.19592
8.44291
3.55147
3.62987
3.71883
3.81146
3.91233
4.02093
4.13763
4.26314
4.39769
4.54169
4.6955
4.85889
5.03177
5.21389
5.40453
5.6027
5.80739
6.01697
6.22994
6.44425
6.65825
6.87004
7.07718
7.28111
7.47322
7.67459
7.83498
8.05806
8.1777
8.42514
3.52314
3.6028
3.69204
3.78453
3.88531
3.99368
4.11014
4.23541
4.36981
4.51374
4.66762
4.83128
5.00459
5.18731
5.37875
5.57781
5.78349
5.99412
6.20812
6.4234
6.63823
6.85073
7.05835
7.26261
7.45493
7.65636
7.8168
8.03996
8.15935
8.40721
3.49456
3.57552
3.66498
3.75728
3.85793
3.96601
4.0822
4.20718
4.34139
4.48523
4.63915
4.80308
4.97683
5.16015
5.35241
5.5524
5.7591
5.97084
6.18591
6.40221
6.61792
6.83116
7.03932
7.24393
7.43649
7.63798
7.79848
8.02175
8.14086
8.38911
3.46581
3.54807
3.63769
3.72976
3.83022
3.93797
4.05384
4.1785
4.31248
4.4562
4.61013
4.77431
4.94851
5.13243
5.32552
5.52648
5.73424
5.94713
6.16332
6.3807
6.59733
6.81135
7.02009
7.22507
7.41789
7.61946
7.78003
8.00343
8.12224
8.37087
3.43695
3.52048
3.61023
3.70202
3.80222
3.90961
4.02509
4.14939
4.28309
4.42666
4.58059
4.74499
4.91963
5.10415
5.29809
5.50006
5.70891
5.923
6.14036
6.35886
6.57647
6.7913
7.00065
7.20603
7.39914
7.60079
7.76146
7.985
8.10349
8.35246
3.40805
3.4928
3.58262
3.6741
3.77399
3.88096
3.99601
4.1199
4.25327
4.39666
4.55055
4.71514
4.89021
5.07535
5.27012
5.47314
5.68311
5.89845
6.11703
6.3367
6.55534
6.77102
6.98102
7.18681
7.38024
7.58198
7.74275
7.96646
8.08462
8.3339
3.37918
3.46508
3.55491
3.64606
3.74557
3.85207
3.96662
4.09005
4.22304
4.3662
4.52004
4.68479
4.86026
5.04602
5.24164
5.44574
5.65687
5.8735
6.09336
6.31424
6.53395
6.75051
6.9612
7.16741
7.36116
7.56303
7.72392
7.94783
8.06564
8.3152
3.35043
3.43735
3.52715
3.61793
3.717
3.82297
3.93696
4.05987
4.19244
4.33533
4.48907
4.65394
4.82981
5.01619
5.21266
5.41786
5.6302
5.84814
6.06934
6.29149
6.51229
6.72978
6.94119
7.14783
7.34192
7.54393
7.70496
7.9291
8.04657
8.29635
3.32186
3.40967
3.49939
3.58976
3.68832
3.79369
3.90706
4.02941
4.16149
4.30405
4.45767
4.62262
4.79886
4.98586
5.18319
5.3895
5.6031
5.82241
6.045
6.26844
6.4904
6.70882
6.92099
7.12809
7.32251
7.52469
7.68587
7.9103
8.02741
8.27738
3.29356
3.38211
3.47169
3.5616
3.65958
3.76428
3.87697
3.99869
4.13023
4.2724
4.42585
4.59086
4.76743
4.95505
5.15324
5.36069
5.57558
5.7963
6.02033
6.24512
6.46827
6.68767
6.90061
7.10818
7.30294
7.50531
7.66667
7.89144
8.0082
8.25829
3.26561
3.35472
3.44411
3.53352
3.63083
3.7348
3.84672
3.96776
4.09869
4.24042
4.39365
4.55867
4.73554
4.92378
5.12283
5.33143
5.54767
5.76983
5.99535
6.22154
6.44592
6.66632
6.88003
7.0881
7.28321
7.48579
7.64735
7.87252
7.98895
8.23909
3.23812
3.3276
3.41671
3.50553
3.60211
3.70527
3.81638
3.93665
4.06691
4.20812
4.36109
4.52609
4.70323
4.89205
5.09198
5.30174
5.51937
5.74301
5.97006
6.1977
6.42335
6.64478
6.85927
7.06786
7.26332
7.46614
7.62792
7.85356
7.96968
8.21982
3.21119
3.30079
3.38946
3.47762
3.57338
3.6757
3.78592
3.90535
4.03488
4.17553
4.32816
4.49311
4.67047
4.85987
5.06067
5.27161
5.49069
5.71585
5.94447
6.17361
6.40058
6.62307
6.83834
7.04745
7.24326
7.44635
7.60838
7.83457
7.95043
8.20049
3.18487
3.27424
3.36233
3.44976
3.54465
3.6461
3.75537
3.87389
4.00263
4.14265
4.2949
4.45974
4.63729
4.82725
5.02894
5.24107
5.46161
5.68834
5.91859
6.1493
6.37761
6.60119
6.81725
7.02687
7.22304
7.42641
7.58872
7.81554
7.93121
8.18112
3.15923
3.24814
3.33557
3.42224
3.51617
3.61667
3.72493
3.84245
3.9703
4.10962
4.2614
4.42607
4.60377
4.79426
4.99683
5.21016
5.4322
5.66055
5.89246
6.12478
6.35449
6.57917
6.79602
7.00616
7.20267
7.40633
7.56895
7.7965
7.91208
8.16177
3.13484
3.22314
3.30982
3.39562
3.48847
3.5879
3.69501
3.81139
3.93823
4.07674
4.22796
4.39237
4.57014
4.76112
4.96455
5.17905
5.4026
5.63261
5.86623
6.10019
6.33131
6.5571
6.77473
6.98535
7.18218
7.38615
7.54908
7.77748
7.89308
8.14249
3.11232
3.19923
3.28483
3.36964
3.46132
3.55958
3.66546
3.78061
3.90632
4.04391
4.19448
4.35856
4.53635
4.72778
4.93204
5.14772
5.37278
5.60449
5.83985
6.0755
6.30807
6.53496
6.75335
6.96442
7.16155
7.36582
7.52905
7.75849
7.87422
8.12326
3.08989
3.17331
3.25733
3.34114
3.43169
3.52887
3.6336
3.74757
3.87221
4.00895
4.15892
4.32273
4.5006
4.69254
4.89771
5.11467
5.34133
5.57485
5.81209
6.04954
6.28367
6.51175
6.73095
6.94253
7.14002
7.34474
7.50834
7.73914
7.85541
8.10401
3.06571
3.14368
3.22578
3.30873
3.39807
3.4942
3.59783
3.71065
3.83424
3.97015
4.11958
4.28317
4.46122
4.65377
4.85999
5.07842
5.30688
5.54247
5.78187
6.0214
6.25737
6.48686
6.70707
6.91932
7.11734
7.32266
7.48681
7.71918
7.83665
8.08474
3.0445
3.1191
3.19962
3.28174
3.36969
3.4646
3.56702
3.67853
3.80087
3.93577
4.08448
4.24771
4.42579
4.61881
4.82598
5.04577
5.27596
5.51353
5.75499
5.99648
6.23412
6.46479
6.68572
6.89824
7.09643
7.30171
7.46629
7.69914
7.81815
8.06558
2.99434
3.07104
3.14842
3.22798
3.31242
3.40395
3.50279
3.6104
3.72878
3.86032
4.00649
4.16808
4.34568
4.53941
4.74866
4.97177
5.20621
5.44867
5.69512
5.94111
6.18217
6.41468
6.63591
6.84727
7.04406
7.24705
7.41166
7.64293
7.76598
8.00978
2.89028
2.96447
3.03852
3.1147
3.19618
3.28513
3.38129
3.48589
3.60113
3.72974
3.87347
4.03349
4.21067
4.40536
4.61718
4.84461
5.08495
5.33454
5.58873
5.84215
6.08943
6.32614
6.54933
6.76059
6.9564
7.15698
7.32182
7.54945
7.67368
7.91487
2.79326
2.85998
2.92907
3.00155
3.07964
3.1655
3.25871
3.36024
3.4722
3.59738
3.73799
3.8954
4.07079
4.26476
4.4772
4.70688
4.95116
5.20625
5.4672
5.72799
5.98226
6.2247
6.45181
6.66522
6.86217
7.06265
7.22873
7.45411
7.58009
7.82043
2.69904
2.75829
2.82259
2.8913
2.96574
3.04818
3.13814
3.23637
3.34483
3.46611
3.60289
3.75674
3.92909
4.12083
4.33214
4.56212
4.80838
5.06719
5.33349
5.60096
5.8625
6.11175
6.34437
6.56167
6.76137
6.96375
7.13138
7.35714
7.48496
7.72511
2.60613
2.65845
2.71728
2.78173
2.85233
2.9312
3.01777
3.1126
3.21739
3.33456
3.467
3.61657
3.78492
3.97323
4.18198
4.41061
4.6571
4.9179
5.18805
5.46115
5.72974
5.98652
6.22603
6.44879
6.65272
6.85858
7.02897
7.25729
7.38776
7.62847
2.51282
2.55934
2.61314
2.67339
2.74009
2.81524
2.89823
2.98943
3.09033
3.20314
3.33075
3.47539
3.63887
3.82268
4.02757
4.25336
4.49846
4.7596
5.032
5.30943
5.5843
5.84875
6.09617
6.32579
6.53537
6.74603
6.92073
7.15367
7.28767
7.53044
2.41894
2.46041
2.50949
2.56556
2.62833
2.69968
2.77898
2.8664
2.96325
3.07152
3.19393
3.33311
3.491
3.66937
3.86928
4.09091
4.33312
4.59303
4.86613
5.14642
5.42648
5.69813
5.95397
6.19168
6.40833
6.62489
6.80547
7.04516
7.18321
7.43111
2.32414
2.36125
2.40599
2.45806
2.51692
2.58445
2.65994
2.74346
2.83611
2.93966
3.05661
3.18986
3.34154
3.51365
3.70757
3.92382
4.16174
4.41892
4.69118
4.97281
5.25669
5.53468
5.7988
6.04547
6.2706
6.49414
6.68186
6.93016
7.07312
7.3298
2.22837
2.26163
2.30238
2.35063
2.40566
2.46934
2.54097
2.62046
2.70878
2.80747
2.91879
3.04573
3.19067
3.3558
3.54282
3.75259
3.98489
4.23786
4.50775
4.78918
5.07538
5.3585
5.63034
5.88623
6.12104
6.35286
6.54876
6.80672
6.9559
7.22507
2.13176
2.16143
2.19849
2.2431
2.29439
2.35423
2.42194
2.49734
2.58122
2.67493
2.78049
2.90083
3.0386
3.19613
3.37542
3.57769
3.80312
4.05042
4.31637
4.59601
4.88294
5.1697
5.44827
5.71327
5.95856
6.19995
6.40522
6.6731
6.8297
7.11497
2.03442
2.06065
2.09419
2.13533
2.18298
2.23902
2.30279
2.37403
2.45338
2.54203
2.64177
2.75527
2.88552
3.03492
3.20575
3.39955
3.61693
3.85713
4.11755
4.39375
4.67975
4.96852
5.25241
5.52587
5.78204
6.03427
6.25038
6.52803
6.69263
6.99749
1.93596
1.95914
1.9894
2.02724
2.07136
2.12364
2.18346
2.2505
2.32527
2.40878
2.50264
2.60921
2.73164
2.87247
3.03417
3.21863
3.42682
3.65854
3.91184
4.18287
4.46616
4.75519
5.04277
5.32348
5.59024
5.8543
6.08292
6.37069
6.54384
6.87107
1.83632
1.85683
1.88408
1.91879
1.95948
2.00805
2.06394
2.12675
2.19689
2.27524
2.36317
2.46279
2.57715
2.70905
2.86105
3.03537
3.23334
3.45524
3.69981
3.96389
4.24264
4.53005
4.8195
5.10592
5.38231
5.65835
5.90108
6.20001
6.38406
6.73503
1.73567
1.75376
1.77822
1.80994
1.84732
1.89224
1.94423
2.00281
2.06831
2.14145
2.22342
2.3161
2.42225
2.54495
2.68679
2.85025
3.03705
3.24788
3.48216
3.7375
4.00977
4.2936
4.583
4.87334
5.15796
5.44549
5.70316
6.01495
6.21468
6.58895
1.63407
1.64995
1.67182
1.70069
1.73488
1.77622
1.82434
1.87871
1.93955
2.00747
2.08349
2.16924
2.26717
2.38046
2.5118
2.66382
2.83858
3.03721
3.25973
3.50458
3.76842
4.04667
4.334
4.62634
4.91752
5.2155
5.48841
5.81529
6.03576
6.43132
1.53158
1.54545
1.5649
1.59107
1.62217
1.66003
1.70432
1.7545
1.81069
1.8734
1.94349
2.02236
2.11215
2.21591
2.3365
2.47662
2.63863
2.82409
3.03355
3.26625
3.51979
3.79044
4.07364
4.36599
4.66192
4.96903
5.25703
5.60067
5.84557
6.25927
1.42825
1.44031
1.45749
1.48111
1.50925
1.54372
1.58424
1.63025
1.68181
1.73935
1.80355
1.87563
1.95742
2.05164
2.16135
2.28927
2.438
2.60948
2.80478
3.02388
3.26534
3.5264
3.80343
4.09371
4.39247
4.70713
5.0095
5.37032
5.64106
6.06901
1.32414
1.33457
1.34965
1.37085
1.39617
1.42733
1.46414
1.50603
1.55303
1.60544
1.66384
1.72921
1.80315
1.88799
1.98683
2.10243
2.23755
2.39446
2.57471
2.77897
3.00672
3.2563
3.52507
3.81112
4.11059
4.43087
4.74612
5.12303
5.41868
5.85639
1.21928
1.22825
1.24141
1.26033
1.28296
1.31091
1.3441
1.38196
1.42446
1.47183
1.5245
1.5833
1.64958
1.72533
1.81344
1.91678
2.03815
2.18012
2.34467
2.53308
2.74572
2.98198
3.24034
3.51983
3.81756
4.14104
4.46679
4.8571
5.17474
5.6176
1.11374
1.12141
1.13281
1.1496
1.16966
1.19453
1.22419
1.25811
1.29621
1.33861
1.38569
1.4381
1.49696
1.56398
1.64165
1.73295
1.84064
1.96753
2.11598
2.28779
2.48409
2.70529
2.951
3.2213
3.51439
3.83793
4.17081
4.57068
4.90597
5.34935
1.00754
1.01407
1.02387
1.03867
1.05632
1.07823
1.10447
1.13456
1.16835
1.20593
1.24757
1.29381
1.34554
1.40418
1.47188
1.55149
1.64582
1.75773
1.88989
2.04455
2.22347
2.42796
2.65872
2.91688
3.20185
3.52155
3.85725
4.26198
4.60958
5.04882
0.900671
0.906263
0.914628
0.927572
0.942966
0.962065
0.985012
1.01137
1.04099
1.0739
1.1103
1.15058
1.19548
1.24617
1.30446
1.37291
1.45434
1.55157
1.66748
1.80464
1.96532
2.15156
2.36497
2.60772
2.88051
3.19172
3.52524
3.9294
4.28319
4.71346
0.793166
0.797976
0.80509
0.816333
0.829621
0.846056
0.865857
0.888639
0.914226
0.942627
0.97397
1.00855
1.04696
1.09016
1.13965
1.19757
1.26669
1.34973
1.44961
1.56916
1.71093
1.87746
2.0711
2.29491
2.55095
2.84831
3.17395
3.57149
3.92469
4.34081
0.685071
0.689239
0.695281
0.704961
0.71629
0.730227
0.74704
0.766389
0.788097
0.812159
0.838663
0.867827
0.900104
0.936263
0.977508
1.02565
1.08317
1.15268
1.23697
1.33893
1.46131
1.60688
1.77843
1.97966
2.2139
2.49137
2.8027
3.1869
3.53198
3.92812
0.576333
0.580056
0.585221
0.593468
0.602989
0.61459
0.628555
0.644609
0.662609
0.682544
0.704445
0.728455
0.754929
0.784486
0.818095
0.85721
0.903882
0.960579
1.02986
1.1145
1.21725
1.34087
1.48825
1.66331
1.87044
2.12127
2.41106
2.77428
3.10272
3.47198
0.466842
0.470389
0.474964
0.481919
0.489743
0.49913
0.510382
0.523307
0.537783
0.553775
0.57128
0.59041
0.611437
0.634822
0.661319
0.692074
0.728701
0.773352
0.828314
0.89606
0.979166
1.08022
1.20181
1.34751
1.52218
1.73895
1.99883
2.33199
2.63408
2.96796
0.356477
0.360194
0.364552
0.370344
0.37654
0.383808
0.392484
0.402445
0.413568
0.425787
0.439103
0.453622
0.469533
0.487134
0.506976
0.529958
0.557318
0.590684
0.632001
0.683386
0.747086
0.825318
0.920132
1.03416
1.17167
1.3465
1.56636
1.85744
2.12215
2.41047
0.245434
0.249641
0.254097
0.258743
0.2633
0.268522
0.274727
0.281841
0.289754
0.298398
0.307768
0.317914
0.328951
0.341114
0.354777
0.370518
0.389198
0.412003
0.440397
0.475987
0.520587
0.576007
0.64373
0.72516
0.822749
0.948596
1.11604
1.34708
1.56036
1.79159
0.136983
0.141364
0.145727
0.149059
0.151815
0.154904
0.158617
0.162911
0.167689
0.172872
0.17843
0.184389
0.190818
0.197835
0.205656
0.214633
0.22524
0.238157
0.254323
0.274776
0.300694
0.333389
0.373948
0.422981
0.481011
0.55485
0.657412
0.803597
0.943877
1.10353
0.0410664
0.0428832
0.0451449
0.0465849
0.0474592
0.0483808
0.0495522
0.05096
0.052537
0.0542302
0.0560254
0.0579263
0.0599495
0.0621292
0.0645304
0.0672744
0.0705149
0.0744586
0.0794259
0.0857999
0.0940109
0.104592
0.118088
0.134851
0.15478
0.178842
0.211458
0.256304
0.301863
0.367251
2.92108
2.81959
2.7302
2.64098
2.55205
2.46165
2.37035
2.27815
2.18505
2.09107
1.99628
1.90015
1.80269
1.70417
1.60472
1.50434
1.40306
1.30098
1.19809
1.09448
0.990116
0.885016
0.779275
0.672913
0.565912
0.45831
0.350192
0.241791
0.135662
0.0401259
2.89702
2.7983
2.71103
2.6234
2.53569
2.44624
2.35578
2.26442
2.17221
2.07908
1.98505
1.88955
1.79277
1.69492
1.59611
1.49636
1.39569
1.29422
1.19191
1.08886
0.985026
0.880447
0.77522
0.669359
0.56286
0.45578
0.348212
0.240409
0.134949
0.0397027
2.87445
2.77885
2.69337
2.60719
2.52062
2.43213
2.34255
2.25203
2.16065
2.06839
1.97485
1.87999
1.78384
1.68661
1.5884
1.48923
1.38912
1.2882
1.18643
1.08388
0.980537
0.876429
0.771662
0.666258
0.560227
0.453629
0.346556
0.239275
0.134356
0.039326
2.85224
2.76009
2.67626
2.59141
2.50597
2.4185
2.32986
2.24015
2.14971
2.05796
1.96499
1.87073
1.7752
1.67857
1.58094
1.48235
1.38278
1.28239
1.18113
1.07907
0.976195
0.872539
0.76821
0.663255
0.557688
0.451559
0.344946
0.238145
0.133761
0.0390445
2.83087
2.74216
2.65987
2.57628
2.49197
2.40551
2.31778
2.22899
2.13908
2.04789
1.95547
1.86181
1.76687
1.67082
1.57374
1.4757
1.37666
1.27677
1.17602
1.07442
0.971994
0.868765
0.764855
0.660332
0.555208
0.449527
0.343356
0.237024
0.133161
0.0388293
2.81027
2.72496
2.64416
2.56179
2.47863
2.39309
2.30637
2.21817
2.12882
2.03819
1.94631
1.85321
1.75883
1.66333
1.56679
1.46928
1.37076
1.27135
1.17107
1.06991
0.967919
0.865102
0.761591
0.657473
0.552763
0.447506
0.341771
0.235907
0.132558
0.0386593
2.79047
2.7085
2.62917
2.54794
2.46598
2.3813
2.29534
2.20775
2.11892
2.02883
1.93748
1.84491
1.75107
1.6561
1.56009
1.46309
1.36505
1.26611
1.16629
1.06556
0.963979
0.861561
0.758427
0.654687
0.550364
0.445516
0.340211
0.234809
0.131955
0.0385233
2.77151
2.69279
2.61483
2.53493
2.45383
2.36998
2.28472
2.19771
2.1094
2.01984
1.92899
1.83691
1.74358
1.64913
1.55362
1.4571
1.35954
1.26105
1.16167
1.06137
0.960189
0.858158
0.755382
0.651995
0.548039
0.443584
0.338693
0.233733
0.131354
0.038412
2.75349
2.6778
2.60132
2.52241
2.44218
2.35911
2.2745
2.18807
2.10027
2.01121
1.92083
1.82922
1.73637
1.64241
1.54738
1.45132
1.35422
1.25617
1.15722
1.05734
0.956552
0.8549
0.752466
0.649414
0.545808
0.441727
0.337226
0.23268
0.130754
0.0383179
2.73642
2.66353
2.58842
2.51047
2.43103
2.34868
2.26467
2.17882
2.09153
2.00294
1.91302
1.82185
1.72946
1.63595
1.54137
1.44575
1.3491
1.25147
1.15294
1.05346
0.953064
0.851782
0.749681
0.64695
0.54368
0.439949
0.335809
0.231647
0.130155
0.0382357
2.72033
2.64992
2.57612
2.49909
2.42034
2.33867
2.25526
2.16997
2.08317
1.99502
1.90554
1.81479
1.72284
1.62975
1.5356
1.44039
1.34416
1.24695
1.14882
1.04974
0.949711
0.84879
0.747019
0.644602
0.541654
0.438247
0.334437
0.230635
0.129562
0.0381621
2.70518
2.63697
2.56438
2.48822
2.41011
2.3291
2.24626
2.1615
2.07518
1.98746
1.8984
1.80805
1.71651
1.62383
1.53007
1.43525
1.33942
1.2426
1.14485
1.04614
0.946479
0.845912
0.744468
0.642359
0.53972
0.436613
0.33311
0.229647
0.128981
0.0380953
2.69094
2.62466
2.55316
2.47781
2.40031
2.31994
2.23764
2.1534
2.06754
1.98025
1.8916
1.80164
1.71048
1.61817
1.52479
1.43034
1.33488
1.23842
1.14102
1.04268
0.943361
0.843136
0.742018
0.640211
0.537868
0.435045
0.331827
0.228688
0.128416
0.038034
2.67756
2.61294
2.54242
2.46788
2.39095
2.3112
2.2294
2.14566
2.06025
1.97337
1.88512
1.79553
1.70474
1.61279
1.51976
1.42566
1.33054
1.23442
1.13736
1.03934
0.940359
0.840461
0.739663
0.638154
0.536095
0.433542
0.330595
0.227767
0.127874
0.0379767
2.66502
2.60178
2.53218
2.45841
2.38203
2.30286
2.22154
2.13828
2.0533
1.96683
1.87895
1.78972
1.69928
1.60768
1.51499
1.42122
1.32643
1.23062
1.13386
1.03616
0.937486
0.837897
0.73741
0.63619
0.534404
0.43211
0.329422
0.226888
0.127356
0.0379216
2.65331
2.59118
2.52245
2.44942
2.37355
2.29493
2.21407
2.13127
2.0467
1.96061
1.8731
1.78422
1.69412
1.60285
1.51048
1.41703
1.32254
1.22704
1.13057
1.03315
0.934759
0.835457
0.735269
0.634327
0.5328
0.430754
0.328312
0.226054
0.126861
0.037866
2.64237
2.58115
2.51321
2.44091
2.3655
2.28741
2.20698
2.12462
2.04044
1.95473
1.86756
1.77903
1.68925
1.59831
1.50624
1.4131
1.3189
1.22369
1.12749
1.03032
0.932199
0.833159
0.733252
0.632573
0.531292
0.429478
0.327266
0.225262
0.126385
0.0378071
2.63216
2.5717
2.50448
2.43287
2.35789
2.28031
2.20029
2.11834
2.03454
1.94917
1.86234
1.77413
1.68467
1.59404
1.50227
1.40942
1.31551
1.22057
1.12462
1.0277
0.929815
0.831018
0.73137
0.630936
0.52988
0.428281
0.32628
0.224504
0.125921
0.0377424
2.62264
2.56284
2.49622
2.42528
2.3507
2.27363
2.19399
2.11243
2.02897
1.94395
1.85743
1.76953
1.68037
1.59003
1.49855
1.40599
1.31236
1.21769
1.12198
1.02527
0.927615
0.829039
0.729627
0.629417
0.528565
0.427159
0.325347
0.223775
0.125467
0.0376703
2.61379
2.55455
2.48844
2.41815
2.34394
2.26735
2.18807
2.10688
2.02375
1.93904
1.85283
1.76523
1.67635
1.58629
1.49507
1.4028
1.30944
1.21503
1.11954
1.02304
0.925594
0.827223
0.728022
0.628012
0.527341
0.426105
0.32446
0.22307
0.125019
0.0375907
2.60559
2.54682
2.48112
2.41146
2.33759
2.26146
2.18252
2.10169
2.01887
1.93447
1.84854
1.76122
1.6726
1.5828
1.49185
1.39984
1.30674
1.21257
1.1173
1.02099
0.923745
0.825563
0.726547
0.626717
0.526205
0.425117
0.323619
0.222389
0.124579
0.0375045
2.59802
2.53962
2.47425
2.40519
2.33163
2.25596
2.17734
2.09686
2.01433
1.93022
1.84456
1.75749
1.66912
1.57957
1.48887
1.3971
1.30424
1.2103
1.11523
1.01912
0.922058
0.824051
0.725198
0.625528
0.525157
0.424195
0.322823
0.221734
0.12415
0.0374134
2.59107
2.53296
2.46784
2.39935
2.32606
2.25083
2.17252
2.09237
2.01013
1.92629
1.84089
1.75406
1.66593
1.57661
1.48614
1.39459
1.30195
1.20822
1.11334
1.01741
0.920525
0.82268
0.723971
0.624445
0.524199
0.423343
0.322077
0.221111
0.123735
0.0373187
2.58472
2.52681
2.46187
2.39392
2.32086
2.24607
2.16805
2.08822
2.00627
1.92269
1.83754
1.75094
1.66303
1.57392
1.48367
1.39232
1.29988
1.20632
1.11163
1.01586
0.919142
0.821447
0.722866
0.62347
0.523335
0.422567
0.321385
0.220522
0.123334
0.0372209
2.57896
2.52118
2.45634
2.3889
2.31604
2.24167
2.16392
2.08442
2.00274
1.91942
1.8345
1.74812
1.66043
1.57152
1.48147
1.3903
1.29803
1.20463
1.1101
1.01449
0.91791
0.820351
0.721887
0.622607
0.522569
0.421867
0.320746
0.219966
0.122945
0.0371186
2.57379
2.51605
2.45125
2.38428
2.31158
2.23762
2.16013
2.08094
1.99952
1.91646
1.83177
1.74561
1.65813
1.56942
1.47954
1.38854
1.29641
1.20316
1.10877
1.01329
0.916829
0.819393
0.721036
0.621856
0.521898
0.421242
0.320156
0.219439
0.122563
0.0370094
2.56917
2.5114
2.44658
2.38006
2.30748
2.23392
2.15666
2.07778
1.99662
1.91381
1.82935
1.7434
1.65613
1.5676
1.4779
1.38703
1.29503
1.2019
1.10763
1.01226
0.915901
0.818573
0.720311
0.621214
0.521314
0.420683
0.319606
0.21893
0.122178
0.0368901
2.56509
2.50722
2.44234
2.37622
2.30373
2.23055
2.1535
2.07492
1.99401
1.91145
1.82721
1.74147
1.65442
1.56607
1.47652
1.38579
1.2939
1.20086
1.10668
1.0114
0.915124
0.817888
0.719708
0.620673
0.52081
0.42018
0.319087
0.218432
0.121786
0.0367585
2.56154
2.50349
2.4385
2.37276
2.30032
2.22751
2.15065
2.07237
1.99168
1.90937
1.82534
1.73982
1.65297
1.56479
1.47539
1.38478
1.29299
1.20003
1.10592
1.01071
0.914499
0.817337
0.71922
0.620225
0.520375
0.419724
0.318594
0.21794
0.121383
0.0366134
2.55851
2.5002
2.43508
2.36968
2.29725
2.22479
2.1481
2.0701
1.98962
1.90755
1.82374
1.73843
1.65177
1.56377
1.47451
1.38402
1.29231
1.19941
1.10535
1.01019
0.914023
0.816916
0.718844
0.619866
0.520005
0.419314
0.318125
0.217455
0.120971
0.0364556
2.55599
2.49736
2.43207
2.36698
2.29453
2.2224
2.14585
2.06812
1.98785
1.90601
1.8224
1.73729
1.65081
1.56298
1.47385
1.38347
1.29184
1.19898
1.10496
1.00983
0.9137
0.816628
0.718578
0.619597
0.519705
0.418953
0.317688
0.216981
0.120554
0.0362866
2.55399
2.49495
2.42947
2.36467
2.29215
2.22035
2.14391
2.06644
1.98636
1.90474
1.82132
1.7364
1.65009
1.56243