/*--------------------------------*- C++ -*----------------------------------*\
  =========                 |
  \\      /  F ield         | OpenFOAM: The Open Source CFD Toolbox
   \\    /   O peration     | Website:  https://openfoam.org
    \\  /    A nd           | Version:  7
     \\/     M anipulation  |
\*---------------------------------------------------------------------------*/
FoamFile
{
    version     2.0;
    format      ascii;
    class       volVectorField;
    location    "0.4";
    object      U;
}
// * * * * * * * * * * * * * * * * * * * * * * * * * * * * * * * * * * * * * //

dimensions      [0 1 -1 0 0 0 0];

internalField   nonuniform List<vector> 
18000
(
(-0.000791812 -0.00361365 3.84595e-20)
(0.00988958 -0.134618 0)
(0.0360601 -0.282345 0)
(0.0711015 -0.402253 0)
(0.110811 -0.483992 -1.2953e-20)
(0.151456 -0.532324 6.5557e-20)
(0.190732 -0.556072 -1.34112e-20)
(0.227407 -0.563427 1.35022e-20)
(0.260973 -0.560594 0)
(0.291363 -0.551875 -4.11749e-20)
(0.318747 -0.540068 -1.38351e-20)
(0.343369 -0.526895 0)
(0.365546 -0.513408 2.7676e-20)
(0.385573 -0.500199 2.78478e-20)
(0.403706 -0.487591 -5.55947e-20)
(0.420179 -0.475737 -5.54879e-20)
(0.435206 -0.464692 0)
(0.448972 -0.454453 -8.27975e-20)
(0.461621 -0.44498 2.74706e-20)
(0.47329 -0.436233 -8.20004e-20)
(0.484092 -0.428152 2.7175e-20)
(0.494123 -0.420675 0)
(0.503467 -0.413749 -2.66794e-20)
(0.512196 -0.407322 -2.66452e-20)
(0.520368 -0.401344 0)
(0.528046 -0.395774 0)
(0.53528 -0.39058 -5.20301e-20)
(0.542121 -0.385716 -5.16168e-20)
(0.548551 -0.381214 -5.14239e-20)
(0.554799 -0.377234 5.06947e-20)
(-0.000427986 -0.00522559 5.42544e-20)
(0.0147084 -0.142053 9.49903e-20)
(0.0460627 -0.295369 -9.75122e-20)
(0.0852391 -0.41947 -9.99218e-20)
(0.127622 -0.50369 -2.57252e-20)
(0.169616 -0.553041 7.77627e-20)
(0.209232 -0.576768 -1.05891e-19)
(0.245565 -0.583468 -1.07316e-19)
(0.27838 -0.57966 1.08451e-19)
(0.307796 -0.569832 1.09355e-19)
(0.334114 -0.556895 -5.49354e-20)
(0.357668 -0.542642 -1.10354e-19)
(0.378817 -0.528149 -5.56116e-20)
(0.397878 -0.514022 1.10636e-19)
(0.415125 -0.500584 -1.10487e-19)
(0.430799 -0.487982 1.10725e-19)
(0.445103 -0.476258 -2.20538e-19)
(0.458216 -0.46541 1.64876e-19)
(0.470281 -0.455392 -1.09121e-19)
(0.481424 -0.446149 5.45888e-20)
(0.491753 -0.437618 -1.07941e-19)
(0.501359 -0.429735 0)
(0.510317 -0.422437 5.40543e-20)
(0.518692 -0.415671 -1.05978e-19)
(0.526548 -0.409387 1.05052e-19)
(0.533941 -0.403535 0)
(0.540907 -0.398078 -5.14181e-20)
(0.547498 -0.392983 5.11582e-20)
(0.553699 -0.388271 2.0373e-19)
(0.559773 -0.384066 1.00764e-19)
(3.60935e-05 -0.00700056 -8.72661e-20)
(0.0199932 -0.149577 -9.49879e-20)
(0.056917 -0.308404 1.4622e-19)
(0.100498 -0.436523 2.48642e-19)
(0.145676 -0.522989 0)
(0.189025 -0.573136 -1.04166e-19)
(0.228925 -0.596682 1.05889e-19)
(0.264832 -0.602634 3.20534e-19)
(0.296793 -0.597801 -1.08449e-19)
(0.325139 -0.586856 -1.09316e-19)
(0.350311 -0.572811 3.28476e-19)
(0.372717 -0.557517 1.10353e-19)
(0.392766 -0.542073 0)
(0.410805 -0.527083 -2.21142e-19)
(0.427116 -0.512867 3.29975e-19)
(0.441942 -0.49957 -1.09558e-19)
(0.455483 -0.487225 1.10024e-19)
(0.46791 -0.475815 1.09463e-19)
(0.479358 -0.465291 4.79347e-22)
(0.489947 -0.455595 0)
(0.499776 -0.446651 3.23509e-19)
(0.508932 -0.43839 -2.13614e-19)
(0.517483 -0.430752 1.06565e-19)
(0.525489 -0.423673 0)
(0.533008 -0.417101 -1.05053e-19)
(0.540094 -0.410988 4.1546e-19)
(0.546775 -0.405294 -3.08174e-19)
(0.553108 -0.399979 -1.02622e-19)
(0.559066 -0.395067 1.00527e-19)
(0.56494 -0.390645 1.00579e-19)
(0.000635755 -0.00905969 0)
(0.0258294 -0.15753 4.70303e-20)
(0.0686771 -0.321615 2.25484e-22)
(0.116855 -0.453418 -2.47604e-19)
(0.164896 -0.541824 0)
(0.209586 -0.592531 -2.05398e-19)
(0.249699 -0.615729 0)
(0.285083 -0.620835 -3.19797e-19)
(0.316101 -0.614937 1.07071e-19)
(0.343288 -0.602873 -2.15875e-19)
(0.367225 -0.587753 -2.18532e-19)
(0.388413 -0.57147 -1.09575e-19)
(0.407305 -0.555127 1.09357e-19)
(0.424274 -0.539336 1.08786e-19)
(0.439604 -0.524406 -1.10426e-19)
(0.453544 -0.510472 -2.17783e-19)
(0.466291 -0.497558 2.17764e-19)
(0.478003 -0.485639 0)
(0.488804 -0.474658 0)
(0.498811 -0.464547 0)
(0.508124 -0.455229 0)
(0.51681 -0.446625 0)
(0.524933 -0.438673 0)
(0.532554 -0.431309 -2.09105e-19)
(0.539722 -0.424475 -2.08507e-19)
(0.546485 -0.41812 -9.2721e-22)
(0.552871 -0.412207 -2.04943e-19)
(0.558932 -0.406685 -1.13485e-21)
(0.564635 -0.40159 -2.03435e-19)
(0.570295 -0.396952 3.99976e-19)
(0.00139478 -0.0113601 0)
(0.03221 -0.165729 4.17785e-19)
(0.0812925 -0.334887 2.28853e-22)
(0.134247 -0.470078 -1.47281e-19)
(0.185208 -0.560124 4.99576e-19)
(0.231207 -0.61115 3.08113e-19)
(0.271457 -0.633843 3.1116e-19)
(0.306223 -0.638008 0)
(0.336196 -0.631006 0)
(0.362134 -0.617836 3.23731e-19)
(0.384765 -0.601678 5.24562e-22)
(0.404672 -0.584458 -7.59487e-19)
(0.422354 -0.567279 6.51614e-19)
(0.438207 -0.550751 -2.18632e-19)
(0.452523 -0.535172 2.16092e-19)
(0.465546 -0.520664 2.17355e-19)
(0.477467 -0.507239 -2.15815e-19)
(0.488438 -0.494864 2.16322e-19)
(0.498575 -0.483475 4.29366e-19)
(0.507981 -0.47299 -2.136e-19)
(0.516753 -0.463331 -4.24047e-19)
(0.524955 -0.454422 4.21386e-19)
(0.532639 -0.446188 -4.18557e-19)
(0.539858 -0.438566 2.09107e-19)
(0.546662 -0.431495 0)
(0.553091 -0.424924 0)
(0.55917 -0.418808 1.88439e-21)
(0.56495 -0.413099 -8.06326e-19)
(0.57039 -0.407832 3.99414e-19)
(0.575819 -0.402987 -3.99178e-19)
(0.00233429 -0.0139288 0)
(0.0391616 -0.174244 -3.71118e-19)
(0.0947635 -0.348215 3.77955e-19)
(0.152643 -0.48645 0)
(0.206555 -0.577826 -7.9625e-19)
(0.25381 -0.628931 -1.01976e-19)
(0.294105 -0.650949 -2.0819e-19)
(0.328151 -0.654088 -1.04419e-19)
(0.356982 -0.645962 0)
(0.381586 -0.631704 -2.14309e-19)
(0.402835 -0.614549 2.14506e-19)
(0.421406 -0.596451 4.33281e-19)
(0.437836 -0.578508 -4.34257e-19)
(0.452536 -0.561314 0)
(0.465804 -0.545149 -4.34278e-19)
(0.477885 -0.530129 4.30778e-19)
(0.488963 -0.516255 4.32264e-19)
(0.49917 -0.503475 6.42957e-19)
(0.508621 -0.491723 -6.42101e-19)
(0.517416 -0.48091 8.49623e-19)
(0.525633 -0.470951 4.23309e-19)
(0.533332 -0.461768 -4.21389e-19)
(0.540564 -0.453286 8.34451e-19)
(0.547372 -0.445435 0)
(0.5538 -0.438153 4.0984e-19)
(0.559885 -0.431386 8.15226e-19)
(0.565651 -0.425087 -4.01535e-19)
(0.571143 -0.419209 4.0278e-19)
(0.576314 -0.413784 -8.06375e-22)
(0.581495 -0.40874 -3.98099e-19)
(0.00347153 -0.0167652 -4.2082e-20)
(0.0466949 -0.183027 0)
(0.109084 -0.361541 -4.72348e-19)
(0.17201 -0.502477 9.6186e-20)
(0.228874 -0.594865 2.97407e-19)
(0.27732 -0.645799 1.00384e-19)
(0.317557 -0.66699 4.08861e-19)
(0.350769 -0.669031 0)
(0.378354 -0.659761 2.11124e-19)
(0.401546 -0.644436 2.11512e-19)
(0.421352 -0.626341 -2.14162e-19)
(0.438531 -0.607435 6.41706e-19)
(0.453667 -0.588795 0)
(0.46719 -0.571004 0)
(0.479392 -0.554328 6.44256e-19)
(0.490506 -0.538858 -1.07315e-18)
(0.500717 -0.524589 4.26834e-19)
(0.510152 -0.511461 -4.27975e-19)
(0.518906 -0.499393 -4.23332e-19)
(0.527071 -0.488297 -1.26805e-18)
(0.534722 -0.478079 -1.94049e-21)
(0.541911 -0.468658 4.16012e-19)
(0.548678 -0.459958 -8.29077e-19)
(0.555065 -0.451907 4.10211e-19)
(0.561111 -0.44444 -2.72086e-21)
(0.566846 -0.437499 -4.06669e-19)
(0.572291 -0.431037 4.03415e-19)
(0.577488 -0.425008 0)
(0.582387 -0.41944 3.93988e-19)
(0.587305 -0.414204 1.0531e-21)
(0.00482926 -0.0198661 -8.34497e-20)
(0.0548341 -0.192061 9.10449e-20)
(0.124249 -0.37483 -5.58483e-19)
(0.192316 -0.518101 -2.85898e-19)
(0.252116 -0.611168 3.9041e-19)
(0.301654 -0.661693 -5.99625e-19)
(0.34171 -0.681914 -2.06041e-19)
(0.373978 -0.682786 -4.11811e-19)
(0.400224 -0.672363 4.166e-19)
(0.42192 -0.656011 -8.43492e-19)
(0.44022 -0.637038 -4.23006e-19)
(0.455971 -0.61739 -2.84315e-21)
(0.469787 -0.598129 2.14075e-19)
(0.4821 -0.579815 -6.39632e-19)
(0.493216 -0.562698 -8.54806e-19)
(0.503357 -0.546844 6.81684e-22)
(0.512689 -0.532236 -2.07769e-21)
(0.521333 -0.518812 4.22495e-19)
(0.52938 -0.506482 4.23336e-19)
(0.536909 -0.495144 7.85025e-22)
(0.543985 -0.484705 -1.14719e-21)
(0.550653 -0.475084 4.11334e-19)
(0.556948 -0.4662 4.13187e-19)
(0.562909 -0.457978 -8.39279e-22)
(0.568566 -0.450351 -1.21864e-18)
(0.573947 -0.44326 8.03233e-19)
(0.579066 -0.436657 7.9963e-19)
(0.583964 -0.430496 -7.90966e-19)
(0.588588 -0.424798 -3.93994e-19)
(0.59323 -0.419378 -3.92491e-19)
(0.00642282 -0.0232236 -7.41671e-19)
(0.0635934 -0.201315 -9.0274e-20)
(0.14026 -0.388027 4.64062e-19)
(0.213533 -0.533257 3.8129e-19)
(0.276211 -0.626679 -3.90404e-19)
(0.326729 -0.676559 3.98674e-19)
(0.366478 -0.695663 -2.02962e-19)
(0.39768 -0.695307 6.16154e-19)
(0.422485 -0.683742 -4.16598e-19)
(0.442616 -0.66641 4.20296e-19)
(0.459365 -0.646621 2.11702e-19)
(0.473647 -0.626305 -2.13658e-19)
(0.486115 -0.606506 -1.2714e-18)
(0.497208 -0.587745 8.5021e-19)
(0.507226 -0.570251 4.26012e-19)
(0.516381 -0.554078 0)
(0.524826 -0.539196 0)
(0.532673 -0.525529 -4.81188e-21)
(0.540005 -0.51298 -4.17028e-19)
(0.54689 -0.501445 0)
(0.553384 -0.490828 0)
(0.559525 -0.481043 -4.13272e-19)
(0.565344 -0.472007 0)
(0.570873 -0.463643 -8.0934e-19)
(0.576138 -0.455882 0)
(0.58116 -0.448667 -4.01186e-19)
(0.585952 -0.441945 7.94007e-19)
(0.590549 -0.435669 -7.85404e-19)
(0.594896 -0.429854 0)
(0.599252 -0.424257 0)
(0.00827627 -0.0268308 6.58936e-19)
(0.0729967 -0.210751 0)
(0.157111 -0.401078 -9.20681e-20)
(0.235623 -0.547887 9.38096e-20)
(0.3011 -0.641333 -5.74596e-19)
(0.352463 -0.690333 1.79901e-21)
(0.391759 -0.708194 -1.99753e-19)
(0.421776 -0.706572 0)
(0.445048 -0.693878 0)
(0.463544 -0.67561 -2.08547e-19)
(0.478698 -0.655084 2.08742e-19)
(0.491488 -0.634186 -4.21487e-19)
(0.502591 -0.613922 4.26373e-19)
(0.512452 -0.594788 0)
(0.521363 -0.57699 0)
(0.529527 -0.560564 0)
(0.537082 -0.545465 4.16414e-19)
(0.544128 -0.531607 -2.83877e-21)
(0.550739 -0.518887 4.19825e-19)
(0.556976 -0.507199 -8.25589e-19)
(0.562883 -0.496444 4.12292e-19)
(0.568493 -0.486531 -2.04313e-18)
(0.573833 -0.477375 1.79673e-21)
(0.578928 -0.4689 8.09355e-19)
(0.583798 -0.461035 -3.82054e-21)
(0.58846 -0.453721 7.92973e-19)
(0.592924 -0.446903 -7.84505e-19)
(0.597219 -0.44053 -7.81599e-19)
(0.601292 -0.43461 1.98641e-21)
(0.60535 -0.428844 -7.75158e-19)
(0.0104058 -0.0306681 -8.12775e-20)
(0.0830608 -0.220333 0)
(0.174797 -0.41393 1.82572e-19)
(0.258547 -0.561922 -1.86026e-19)
(0.326711 -0.655063 1.72271e-18)
(0.378766 -0.702966 1.83624e-21)
(0.41746 -0.719469 -1.9822e-19)
(0.446167 -0.716546 2.02912e-19)
(0.46782 -0.702753 -1.01933e-18)
(0.48462 -0.683615 0)
(0.498142 -0.662427 0)
(0.509422 -0.641028 -4.13813e-19)
(0.519153 -0.620381 4.22585e-19)
(0.527777 -0.600952 -4.19954e-19)
(0.535578 -0.58292 4.18162e-19)
(0.542749 -0.566303 0)
(0.549412 -0.551042 -1.66827e-18)
(0.555655 -0.537044 8.28167e-19)
(0.561544 -0.524203 4.14165e-19)
(0.56713 -0.512406 1.23472e-18)
(0.572448 -0.501551 0)
(0.577525 -0.491546 8.15369e-19)
(0.582383 -0.482305 8.05849e-19)
(0.587042 -0.473751 7.99895e-19)
(0.591516 -0.465813 -5.73324e-21)
(0.595818 -0.458425 -7.85339e-19)
(0.599957 -0.451532 7.84522e-19)
(0.603953 -0.445081 0)
(0.607752 -0.439068 2.03802e-21)
(0.611501 -0.433142 1.55062e-18)
(0.0128317 -0.0347222 -6.41475e-19)
(0.0938028 -0.230017 0)
(0.193309 -0.426522 -7.18169e-19)
(0.282263 -0.575301 -9.23417e-19)
(0.352974 -0.667813 -5.73273e-19)
(0.405547 -0.714408 1.94875e-19)
(0.443482 -0.729454 1.7719e-21)
(0.470756 -0.725213 -1.99816e-19)
(0.490708 -0.710362 5.90717e-21)
(0.505765 -0.690425 4.11267e-19)
(0.517625 -0.668653 4.1118e-19)
(0.527383 -0.646837 -4.09955e-19)
(0.535739 -0.625891 4.14915e-19)
(0.543128 -0.606243 -1.24685e-18)
(0.549822 -0.588046 1.24471e-18)
(0.556001 -0.571298 8.27967e-19)
(0.561775 -0.555931 2.07182e-18)
(0.567216 -0.541846 -4.17731e-19)
(0.572382 -0.528929 -8.18664e-19)
(0.577315 -0.517064 -5.70704e-21)
(0.582044 -0.506149 -8.13203e-19)
(0.586587 -0.49609 2.41763e-18)
(0.590961 -0.4868 -1.608e-18)
(0.595183 -0.4782 1.58647e-18)
(0.599262 -0.470217 -7.91789e-19)
(0.603208 -0.462782 1.56491e-18)
(0.607026 -0.455837 3.77046e-21)
(0.610726 -0.44933 -1.53825e-18)
(0.614252 -0.443238 1.52083e-18)
(0.61768 -0.437159 7.67426e-19)
(0.0155721 -0.0389734 6.41473e-19)
(0.105238 -0.239756 0)
(0.212633 -0.438793 1.60948e-18)
(0.306724 -0.587958 5.5456e-19)
(0.379814 -0.679526 0)
(0.432716 -0.724618 0)
(0.46973 -0.738122 0)
(0.49545 -0.732562 0)
(0.513623 -0.716704 4.04899e-19)
(0.526898 -0.696045 4.0576e-19)
(0.53708 -0.673775 -8.22842e-19)
(0.545309 -0.651625 8.26668e-19)
(0.552293 -0.630461 1.23705e-18)
(0.558454 -0.610671 4.17192e-19)
(0.564048 -0.592373 4.08287e-19)
(0.569241 -0.575555 -1.23982e-18)
(0.574129 -0.560138 -1.64559e-18)
(0.578772 -0.546015 -8.2251e-19)
(0.583218 -0.533066 8.18683e-19)
(0.587499 -0.521175 -1.6267e-18)
(0.591638 -0.51024 8.05444e-19)
(0.595646 -0.500164 -1.60605e-18)
(0.599537 -0.490861 7.92484e-19)
(0.603321 -0.482247 -4.0301e-21)
(0.607007 -0.474248 -7.82251e-19)
(0.610601 -0.466796 -1.55705e-18)
(0.614102 -0.459828 1.54216e-18)
(0.61751 -0.453289 0)
(0.620765 -0.447129 -2.18429e-21)
(0.623862 -0.440902 -1.53555e-18)
(0.0186436 -0.0434002 7.90924e-20)
(0.117377 -0.249502 0)
(0.23275 -0.450679 -7.11863e-19)
(0.331875 -0.599828 1.82919e-19)
(0.407151 -0.690148 -1.85718e-19)
(0.460181 -0.733558 0)
(0.496109 -0.745455 -1.95482e-19)
(0.52016 -0.73859 1.96817e-19)
(0.536482 -0.721782 4.01759e-19)
(0.547945 -0.700484 -1.20841e-18)
(0.556441 -0.677806 -4.0816e-19)
(0.563145 -0.65541 -2.06385e-21)
(0.568764 -0.634108 -2.97879e-21)
(0.573708 -0.614246 -8.211e-19)
(0.578214 -0.595914 -4.14077e-19)
(0.582429 -0.579084 0)
(0.586437 -0.56367 1.63957e-21)
(0.590288 -0.549556 8.16731e-19)
(0.594017 -0.536618 -8.08983e-19)
(0.597649 -0.524742 0)
(0.601197 -0.513825 0)
(0.60467 -0.50377 0)
(0.608078 -0.494486 0)
(0.611426 -0.485892 -5.83321e-21)
(0.614721 -0.477912 0)
(0.617964 -0.470475 0)
(0.621154 -0.463514 7.61192e-19)
(0.624275 -0.456967 7.54399e-19)
(0.627265 -0.450753 7.5122e-19)
(0.630015 -0.444383 -2.34413e-21)
(0.0220622 -0.0479803 7.83677e-20)
(0.130227 -0.259202 -1.71245e-19)
(0.253637 -0.462113 1.0509e-18)
(0.357658 -0.610848 -1.79688e-19)
(0.434902 -0.699627 1.86129e-19)
(0.487846 -0.741195 1.98449e-21)
(0.522523 -0.751437 5.77424e-19)
(0.544798 -0.743298 -7.82015e-19)
(0.559208 -0.72561 1.1909e-18)
(0.568833 -0.703759 3.08567e-21)
(0.575646 -0.680765 -4.02579e-19)
(0.580835 -0.658211 8.09438e-19)
(0.585103 -0.63685 -8.11743e-19)
(0.588845 -0.616985 8.12646e-19)
(0.592277 -0.598681 0)
(0.595527 -0.581897 8.10912e-19)
(0.598665 -0.566534 0)
(0.60173 -0.552473 5.72502e-21)
(0.604748 -0.539588 -8.01525e-19)
(0.607732 -0.527768 -7.97062e-19)
(0.610691 -0.516906 7.92089e-19)
(0.61363 -0.506906 -7.86683e-19)
(0.616554 -0.497678 -7.80911e-19)
(0.619466 -0.48914 -1.55552e-18)
(0.622369 -0.481214 -7.68505e-19)
(0.625265 -0.473826 7.65664e-19)
(0.628147 -0.466905 -1.51874e-18)
(0.630988 -0.460378 -7.54422e-19)
(0.633714 -0.454124 0)
(0.636095 -0.447626 -7.62236e-19)
(0.025842 -0.052689 0)
(0.143791 -0.268799 6.74101e-19)
(0.275261 -0.47303 -5.24533e-19)
(0.38401 -0.620957 -8.90744e-19)
(0.462982 -0.707919 0)
(0.515618 -0.747505 0)
(0.548879 -0.756062 -1.15467e-18)
(0.569279 -0.746694 1.55483e-18)
(0.581729 -0.728204 -1.18539e-18)
(0.5895 -0.705892 0)
(0.594635 -0.682676 4.03116e-19)
(0.598329 -0.660049 -4.07262e-19)
(0.601266 -0.638704 5.68566e-21)
(0.603824 -0.618903 -4.11369e-19)
(0.606199 -0.600689 -4.027e-19)
(0.608498 -0.584002 -5.68612e-21)
(0.610778 -0.568739 8.02884e-19)
(0.613066 -0.554773 8.05416e-19)
(0.615378 -0.541983 1.87867e-21)
(0.617719 -0.530255 1.5903e-18)
(0.62009 -0.519484 -1.58221e-18)
(0.622495 -0.509575 1.56964e-18)
(0.624934 -0.500437 7.80937e-19)
(0.627407 -0.49199 7.74859e-19)
(0.629919 -0.484155 5.89395e-21)
(0.632467 -0.476853 0)
(0.635044 -0.470008 7.52995e-19)
(0.637608 -0.463535 -2.23712e-18)
(0.640068 -0.457264 7.33033e-19)
(0.642049 -0.450658 7.57299e-19)
(0.0299946 -0.0575001 -4.58754e-19)
(0.158066 -0.278238 -1.5103e-18)
(0.297585 -0.483362 -1.23619e-21)
(0.410862 -0.630096 4.25362e-21)
(0.491305 -0.714982 -5.44434e-19)
(0.543403 -0.752468 0)
(0.575086 -0.75933 -3.75725e-19)
(0.593521 -0.748788 -2.31984e-18)
(0.603975 -0.729587 1.17639e-18)
(0.609886 -0.706911 -7.88434e-19)
(0.613356 -0.683563 1.19379e-18)
(0.615577 -0.660949 -3.99363e-19)
(0.617209 -0.639694 8.06098e-19)
(0.618606 -0.620021 -2.01124e-18)
(0.619944 -0.601952 1.20783e-18)
(0.621309 -0.585413 -1.58948e-21)
(0.622744 -0.570293 -2.39895e-18)
(0.624267 -0.556464 7.97905e-19)
(0.625879 -0.543805 -7.9193e-19)
(0.62758 -0.532205 0)
(0.629367 -0.52156 7.80574e-19)
(0.631237 -0.511773 0)
(0.633187 -0.502761 -7.72942e-19)
(0.635219 -0.49444 7.65352e-19)
(0.637334 -0.486733 7.62664e-19)
(0.639532 -0.479558 7.50176e-19)
(0.641799 -0.472832 0)
(0.644084 -0.466452 0)
(0.646271 -0.46019 -1.47233e-18)
(0.64781 -0.453508 2.25747e-18)
(0.0345294 -0.0623861 4.59892e-19)
(0.173043 -0.287458 8.33927e-19)
(0.320568 -0.493044 -6.81007e-19)
(0.43814 -0.638207 1.40719e-18)
(0.519778 -0.720781 1.87563e-19)
(0.57111 -0.756072 1.88095e-19)
(0.601059 -0.761247 9.59368e-21)
(0.617447 -0.749601 -7.61762e-19)
(0.62588 -0.729785 -3.87756e-19)
(0.629937 -0.706843 5.60896e-21)
(0.631762 -0.683457 -5.60228e-21)
(0.632538 -0.660936 -1.19118e-18)
(0.632895 -0.639841 -3.97021e-19)
(0.633157 -0.620358 5.60315e-21)
(0.633478 -0.602487 7.95448e-19)
(0.633929 -0.586144 7.94007e-19)
(0.634536 -0.571209 5.65212e-21)
(0.635303 -0.557554 -7.88372e-19)
(0.636224 -0.545062 7.88199e-19)
(0.63729 -0.533622 -7.81832e-19)
(0.638494 -0.523132 -1.55544e-18)
(0.639827 -0.5135 -7.72978e-19)
(0.641285 -0.504644 1.52915e-18)
(0.642868 -0.496484 0)
(0.644579 -0.488941 -7.50904e-19)
(0.646416 -0.481935 -1.49449e-18)
(0.648364 -0.475375 -1.48209e-18)
(0.65036 -0.469133 7.35437e-19)
(0.652255 -0.462916 -2.18383e-18)
(0.653297 -0.456208 7.50361e-19)
(0.0394535 -0.0673184 -7.52757e-19)
(0.188708 -0.296399 1.64414e-19)
(0.344162 -0.50201 6.81012e-19)
(0.465767 -0.645238 -5.25171e-19)
(0.54831 -0.725285 1.81018e-19)
(0.598647 -0.75831 -4.25606e-21)
(0.626716 -0.761826 1.87154e-18)
(0.640986 -0.749156 7.64874e-19)
(0.647382 -0.728825 7.75018e-19)
(0.649601 -0.705719 1.17415e-18)
(0.649809 -0.682386 -1.18029e-18)
(0.649172 -0.660037 7.92571e-19)
(0.648285 -0.63917 1.58872e-18)
(0.647442 -0.619935 7.94771e-19)
(0.646773 -0.602314 -1.45552e-21)
(0.64633 -0.58621 -1.58392e-18)
(0.646125 -0.571498 1.58152e-18)
(0.64615 -0.558053 3.90424e-21)
(0.646389 -0.545759 -7.82497e-19)
(0.646827 -0.534508 7.76176e-19)
(0.647448 -0.524201 7.74866e-19)
(0.648242 -0.514751 -7.63601e-19)
(0.649201 -0.506079 -1.52477e-18)
(0.650325 -0.498109 -1.25302e-21)
(0.651617 -0.490766 7.53261e-19)
(0.653076 -0.48397 7.44313e-19)
(0.654684 -0.477622 1.47015e-18)
(0.656369 -0.471569 -1.44825e-18)
(0.657942 -0.465444 0)
(0.658423 -0.45879 7.4801e-19)
(0.0447712 -0.0722668 5.48887e-21)
(0.205043 -0.305 0)
(0.368314 -0.510195 -5.00315e-19)
(0.493664 -0.651141 -1.72075e-19)
(0.57681 -0.72847 -7.08297e-19)
(0.625924 -0.759181 0)
(0.65198 -0.761084 -1.12048e-18)
(0.664071 -0.74748 3.76374e-19)
(0.668425 -0.726741 0)
(0.66883 -0.703574 -7.71897e-19)
(0.667456 -0.680383 0)
(0.665442 -0.658281 -1.17471e-18)
(0.663348 -0.637708 1.17625e-18)
(0.661431 -0.618777 -7.90288e-19)
(0.659799 -0.601453 -7.84421e-19)
(0.658486 -0.585628 0)
(0.657488 -0.571175 0)
(0.656785 -0.557971 7.80903e-19)
(0.656353 -0.545904 1.77148e-21)
(0.656169 -0.534866 7.70178e-19)
(0.656211 -0.524765 -7.65523e-19)
(0.656463 -0.515518 1.52503e-18)
(0.656915 -0.507052 -7.54194e-19)
(0.657565 -0.499297 0)
(0.658417 -0.492182 2.23046e-18)
(0.659471 -0.485633 -3.67445e-18)
(0.660705 -0.479546 7.30614e-19)
(0.662044 -0.473735 7.24681e-19)
(0.66325 -0.467768 7.11658e-19)
(0.663103 -0.461283 1.48443e-18)
(0.0504842 -0.0772 -5.85149e-19)
(0.222025 -0.313199 1.28869e-18)
(0.392965 -0.517536 6.69203e-19)
(0.52175 -0.655872 1.53935e-18)
(0.605186 -0.730317 1.93861e-18)
(0.652853 -0.758689 3.63685e-19)
(0.676776 -0.759043 -1.83868e-18)
(0.686644 -0.744608 0)
(0.688957 -0.723569 -1.51741e-18)
(0.687581 -0.700441 -7.61201e-19)
(0.684666 -0.67748 0)
(0.681316 -0.655699 -7.7085e-19)
(0.678051 -0.63548 -1.04768e-21)
(0.675096 -0.616907 -2.3392e-18)
(0.67253 -0.599923 7.84452e-19)
(0.670372 -0.584414 7.81338e-19)
(0.668602 -0.570252 -1.54785e-18)
(0.667189 -0.557319 -1.54874e-18)
(0.666099 -0.545502 -1.6906e-21)
(0.6653 -0.534699 -3.62771e-21)
(0.664766 -0.524822 0)
(0.664474 -0.515795 -7.55658e-19)
(0.66441 -0.50755 -7.43987e-19)
(0.664569 -0.500025 0)
(0.664956 -0.493159 0)
(0.665567 -0.486884 2.19279e-18)
(0.66638 -0.481098 -2.15865e-18)
(0.667324 -0.475586 0)
(0.668102 -0.469858 2.11792e-18)
(0.667271 -0.463707 -1.47591e-18)
(0.0565921 -0.0820852 1.09067e-20)
(0.239624 -0.320935 -1.28783e-18)
(0.418054 -0.523974 -1.64605e-19)
(0.549937 -0.659389 -1.70925e-18)
(0.633349 -0.730813 -1.05784e-18)
(0.679352 -0.756846 3.61029e-19)
(0.701032 -0.755731 7.38761e-19)
(0.708646 -0.740575 1.85759e-18)
(0.708934 -0.719347 1.51746e-18)
(0.705814 -0.696359 1.53317e-18)
(0.701404 -0.673712 0)
(0.696764 -0.652322 1.05928e-20)
(0.692368 -0.632516 0)
(0.688409 -0.614347 1.55886e-18)
(0.684942 -0.597744 0)
(0.681965 -0.582587 -7.75883e-19)
(0.679447 -0.568747 7.82092e-19)
(0.677343 -0.55611 0)
(0.67561 -0.544564 0)
(0.674209 -0.534013 -2.27573e-18)
(0.673105 -0.524374 7.54339e-19)
(0.672269 -0.515575 0)
(0.671681 -0.507557 1.48587e-18)
(0.671331 -0.500269 1.47989e-18)
(0.671221 -0.493658 -2.92229e-18)
(0.671346 -0.48767 2.89535e-18)
(0.671681 -0.482211 6.66831e-21)
(0.672167 -0.477043 1.41403e-18)
(0.672447 -0.471658 -1.41155e-18)
(0.670905 -0.466054 0)
(0.0630924 -0.0868893 1.4622e-18)
(0.25781 -0.328145 -1.58607e-19)
(0.443513 -0.52945 -1.3047e-18)
(0.578138 -0.661659 0)
(0.661208 -0.729952 -1.38434e-18)
(0.705339 -0.753669 0)
(0.724681 -0.75118 -1.8168e-18)
(0.730026 -0.735421 -1.11823e-18)
(0.728314 -0.714118 -1.49677e-18)
(0.723495 -0.691367 0)
(0.717641 -0.669114 3.8332e-19)
(0.711757 -0.648181 3.97546e-19)
(0.706273 -0.628843 -7.68743e-19)
(0.701348 -0.611125 -1.53769e-18)
(0.697013 -0.594941 -7.64523e-19)
(0.693247 -0.580166 -3.07228e-18)
(0.690006 -0.566677 1.53722e-18)
(0.687232 -0.554358 -1.73094e-21)
(0.684875 -0.543102 -1.52038e-21)
(0.682887 -0.532817 2.2689e-18)
(0.681223 -0.523423 0)
(0.679847 -0.514854 0)
(0.678729 -0.507061 -4.75962e-21)
(0.677855 -0.500001 6.63669e-21)
(0.677219 -0.493634 -1.44404e-18)
(0.67681 -0.487922 -1.43692e-18)
(0.676601 -0.482792 5.05183e-21)
(0.676559 -0.477998 -1.4141e-18)
(0.67627 -0.473071 -1.39443e-18)
(0.674039 -0.468264 5.66748e-21)
(0.0699803 -0.0915786 0)
(0.276546 -0.334771 1.25553e-18)
(0.46927 -0.533911 1.14135e-18)
(0.606261 -0.66265 1.66469e-19)
(0.688675 -0.727734 2.75857e-18)
(0.73074 -0.749182 -3.55922e-19)
(0.747662 -0.745426 2.88777e-18)
(0.750734 -0.729188 1.46285e-18)
(0.747058 -0.707924 2.24243e-18)
(0.740591 -0.685505 1.12703e-18)
(0.733347 -0.663723 3.80768e-19)
(0.726269 -0.64331 1.91622e-18)
(0.719742 -0.624492 3.46944e-21)
(0.713891 -0.607267 7.73108e-19)
(0.708723 -0.591537 1.53683e-18)
(0.7042 -0.577176 1.53364e-18)
(0.700263 -0.564062 0)
(0.696845 -0.552083 0)
(0.693886 -0.541133 0)
(0.691328 -0.531123 0)
(0.68912 -0.521977 1.48245e-18)
(0.687214 -0.513635 0)
(0.68557 -0.506053 -6.39363e-21)
(0.684163 -0.499197 2.89683e-18)
(0.682977 -0.493039 1.43778e-18)
(0.681991 -0.487566 1.42412e-18)
(0.681176 -0.482729 2.82185e-18)
(0.680531 -0.478302 0)
(0.679606 -0.473935 -2.75944e-18)
(0.676765 -0.470184 2.92481e-18)
(0.0772497 -0.0961198 1.14031e-18)
(0.295791 -0.340753 -1.25555e-18)
(0.495249 -0.537307 0)
(0.634215 -0.662339 -1.32457e-18)
(0.715662 -0.724165 -3.54527e-19)
(0.755482 -0.74341 -1.05155e-18)
(0.769917 -0.738507 -3.23332e-18)
(0.770726 -0.721918 -1.33226e-20)
(0.765132 -0.700807 -1.10835e-18)
(0.757072 -0.678812 -2.61954e-18)
(0.748496 -0.657575 -3.75969e-19)
(0.740277 -0.637741 -1.51158e-18)
(0.732753 -0.619492 -1.5159e-18)
(0.726017 -0.6028 0)
(0.720053 -0.587558 -1.51621e-18)
(0.714805 -0.57364 -2.27281e-18)
(0.710203 -0.560926 7.55361e-19)
(0.706169 -0.549305 -1.50049e-18)
(0.702634 -0.538675 -1.49203e-18)
(0.699531 -0.528947 0)
(0.6968 -0.520049 -2.95417e-18)
(0.694382 -0.511925 0)
(0.692227 -0.504534 -2.9129e-18)
(0.690294 -0.497845 -1.44125e-18)
(0.688551 -0.491844 -2.8544e-18)
(0.686962 -0.48654 1.41405e-18)
(0.685496 -0.481914 -4.19819e-18)
(0.684181 -0.477788 1.37975e-18)
(0.682551 -0.474042 1.13972e-20)
(0.679204 -0.471592 -1.45613e-18)
(0.0848924 -0.10048 -1.14034e-18)
(0.315499 -0.346034 1.55604e-19)
(0.521371 -0.539592 1.11454e-18)
(0.661908 -0.66071 1.32461e-18)
(0.742084 -0.719254 -1.36441e-18)
(0.779497 -0.736386 9.37846e-21)
(0.791394 -0.730466 1.4314e-18)
(0.789961 -0.713658 -2.90444e-18)
(0.782504 -0.692811 -3.60074e-19)
(0.772913 -0.671328 3.34646e-18)
(0.763063 -0.650706 -2.2461e-18)
(0.753758 -0.631509 3.76482e-18)
(0.745284 -0.613874 3.77916e-18)
(0.737705 -0.597752 -7.54643e-19)
(0.730983 -0.583029 1.51629e-18)
(0.725046 -0.569582 2.26775e-18)
(0.719811 -0.557292 7.47056e-19)
(0.715193 -0.546048 1.03854e-20)
(0.711112 -0.53575 7.48129e-19)
(0.707494 -0.526312 7.37968e-19)
(0.704269 -0.517662 -7.22842e-19)
(0.701369 -0.509745 7.26931e-19)
(0.698731 -0.502519 -1.4369e-18)
(0.696297 -0.495954 1.43499e-18)
(0.694017 -0.490046 1.11682e-20)
(0.691833 -0.484813 1.39671e-18)
(0.689709 -0.480266 1.1271e-20)
(0.687681 -0.476311 -1.37386e-18)
(0.685264 -0.473186 6.01296e-21)
(0.681466 -0.472185 0)
(0.0928977 -0.104628 0)
(0.335618 -0.350559 0)
(0.54755 -0.540726 -1.43342e-18)
(0.689245 -0.657752 1.62677e-19)
(0.767856 -0.71302 0)
(0.80272 -0.728145 1.39113e-18)
(0.812048 -0.721349 3.56316e-19)
(0.808405 -0.704454 1.08883e-18)
(0.799144 -0.68398 1.46782e-18)
(0.788089 -0.663093 -1.48327e-18)
(0.777025 -0.643153 1.49449e-18)
(0.766689 -0.624646 -1.502e-18)
(0.757316 -0.607667 -1.50622e-18)
(0.748937 -0.59215 0)
(0.741495 -0.577978 0)
(0.734906 -0.56503 0)
(0.729073 -0.553186 -1.49739e-18)
(0.723904 -0.542337 2.23344e-18)
(0.719312 -0.532386 -7.37616e-19)
(0.715215 -0.523247 0)
(0.711534 -0.514849 2.1893e-18)
(0.708194 -0.507131 -7.21634e-19)
(0.705118 -0.500047 1.43698e-18)
(0.702233 -0.493564 -2.83194e-18)
(0.699464 -0.487671 2.81511e-18)
(0.69673 -0.482388 -5.21113e-21)
(0.693976 -0.477739 6.00355e-21)
(0.691201 -0.473753 1.36272e-18)
(0.687903 -0.471104 -6.77781e-22)
(0.683631 -0.47125 1.44474e-18)
(0.101251 -0.108528 1.40023e-19)
(0.356089 -0.354274 -1.52123e-19)
(0.573697 -0.540672 3.17014e-19)
(0.716137 -0.653461 -1.9474e-18)
(0.792901 -0.705485 3.32772e-19)
(0.825091 -0.718729 0)
(0.831835 -0.711204 1.4045e-18)
(0.826025 -0.694355 -1.42986e-18)
(0.815029 -0.674358 0)
(0.802578 -0.65415 1.83371e-18)
(0.790364 -0.634956 -3.68937e-19)
(0.779052 -0.617187 0)
(0.768828 -0.600903 -7.47455e-19)
(0.759694 -0.586024 1.49289e-18)
(0.751573 -0.572435 -7.44621e-19)
(0.744368 -0.560011 7.44872e-19)
(0.737974 -0.548635 -1.48227e-18)
(0.732291 -0.538202 -1.26818e-21)
(0.727224 -0.528616 -1.03565e-21)
(0.722688 -0.51979 -7.23557e-19)
(0.718598 -0.511651 -1.44592e-18)
(0.714871 -0.504134 -1.0784e-21)
(0.711424 -0.49718 4.8536e-21)
(0.708168 -0.490744 1.41309e-18)
(0.705005 -0.484795 -1.39429e-18)
(0.701821 -0.479328 1.38572e-18)
(0.698511 -0.474349 -2.73208e-18)
(0.694956 -0.470022 -5.93069e-21)
(0.690687 -0.467276 -2.67024e-18)
(0.685953 -0.467505 1.44016e-18)
(0.109938 -0.112147 0)
(0.376851 -0.35713 -1.20667e-18)
(0.599719 -0.539401 0)
(0.74249 -0.647838 8.53408e-21)
(0.817142 -0.696677 3.35699e-19)
(0.846553 -0.70818 4.78188e-21)
(0.850717 -0.70008 -2.79662e-18)
(0.842794 -0.683407 1.07549e-18)
(0.830135 -0.66399 0)
(0.81636 -0.644538 -1.83159e-18)
(0.803062 -0.62615 3.6674e-19)
(0.790829 -0.609166 0)
(0.779804 -0.593612 -7.42857e-19)
(0.769959 -0.579405 7.40508e-19)
(0.7612 -0.566427 7.35585e-19)
(0.753418 -0.554553 1.47834e-18)
(0.746499 -0.543669 -7.3558e-19)
(0.740338 -0.533675 0)
(0.734836 -0.524475 0)
(0.729903 -0.515981 1.45135e-18)
(0.725452 -0.50812 -1.43556e-18)
(0.7214 -0.500817 1.42256e-18)
(0.717663 -0.494003 1.41557e-18)
(0.714152 -0.487613 1.39702e-18)
(0.710762 -0.481579 -1.38287e-18)
(0.707351 -0.475836 1.37455e-18)
(0.703728 -0.470331 1.35495e-18)
(0.699528 -0.465225 -1.34027e-18)
(0.694063 -0.46115 4.69603e-21)
(0.687945 -0.459694 2.87252e-18)
(0.118958 -0.11547 1.37974e-19)
(0.397853 -0.359094 1.05727e-18)
(0.62553 -0.536896 0)
(0.768215 -0.64089 1.2887e-18)
(0.840505 -0.686626 0)
(0.867052 -0.696541 0)
(0.868653 -0.688023 1.04666e-18)
(0.858682 -0.671655 -3.6051e-21)
(0.844438 -0.652916 3.57762e-19)
(0.829416 -0.634297 3.64344e-19)
(0.815097 -0.61677 -1.09839e-18)
(0.802002 -0.600611 7.3327e-19)
(0.790226 -0.585826 0)
(0.779715 -0.572323 0)
(0.770359 -0.559983 -1.47798e-18)
(0.762037 -0.548684 0)
(0.754631 -0.538318 -7.32329e-19)
(0.748028 -0.528787 7.27332e-19)
(0.742129 -0.519994 7.23741e-19)
(0.736839 -0.511859 6.00908e-22)
(0.732076 -0.504304 -7.12309e-19)
(0.727758 -0.497246 0)
(0.723809 -0.490614 -1.39992e-18)
(0.720162 -0.484324 1.38617e-18)
(0.716738 -0.478264 0)
(0.713445 -0.472314 0)
(0.710131 -0.466307 0)
(0.706438 -0.460088 0)
(0.701145 -0.453762 -1.31505e-18)
(0.696797 -0.445968 2.85583e-18)
(0.5692 -0.353763 -0.0415858)
(0.591034 -0.333116 -0.044815)
(0.605216 -0.323629 -0.0467639)
(0.616257 -0.313934 -0.0489575)
(0.624734 -0.303244 -0.0514409)
(0.630765 -0.29266 -0.0541955)
(0.635027 -0.28246 -0.0572159)
(0.637704 -0.272702 -0.0605081)
(0.638994 -0.263344 -0.0640543)
(0.639289 -0.254426 -0.0678494)
(0.638578 -0.245829 -0.071884)
(0.637037 -0.237643 -0.0761436)
(0.635039 -0.229932 -0.0806187)
(0.632473 -0.222901 -0.0852458)
(0.629522 -0.216401 -0.0899975)
(0.626405 -0.21057 -0.0948214)
(0.623077 -0.205604 -0.0996189)
(0.619768 -0.201112 -0.104318)
(0.616546 -0.197388 -0.108833)
(0.613533 -0.194321 -0.113083)
(0.610815 -0.191776 -0.117034)
(0.608623 -0.1898 -0.120509)
(0.605965 -0.188432 -0.123775)
(0.606675 -0.187308 -0.125994)
(0.598397 -0.186818 -0.129557)
(0.616681 -0.186643 -0.129025)
(0.570874 -0.185066 -0.135221)
(0.66336 -0.192117 -0.133023)
(0.505092 -0.169833 -0.138902)
(0.766181 -0.205673 -0.120838)
(0.573462 -0.359445 -0.0413301)