/*--------------------------------*- C++ -*----------------------------------*\
  =========                 |
  \\      /  F ield         | OpenFOAM: The Open Source CFD Toolbox
   \\    /   O peration     | Website:  https://openfoam.org
    \\  /    A nd           | Version:  7
     \\/     M anipulation  |
\*---------------------------------------------------------------------------*/
FoamFile
{
    version     2.0;
    format      ascii;
    class       surfaceScalarField;
    location    "1.6";
    object      phi;
}
// * * * * * * * * * * * * * * * * * * * * * * * * * * * * * * * * * * * * * //

dimensions      [0 3 -1 0 0 0 0];

internalField   nonuniform List<scalar> 
63520
(
-1.44709e-05
0.00142387
-0.0014094
-4.72423e-05
0.00347044
-0.00343767
-9.23797e-05
0.00488663
-0.00484149
-0.000142467
0.00574722
-0.00569713
-0.000189513
0.00615112
-0.00610407
-0.000225776
0.00619707
-0.00616081
-0.000244334
0.00597263
-0.00595408
-0.000239454
0.00555105
-0.00555593
-0.000206739
0.00499184
-0.00502456
-0.000143231
0.004343
-0.00440651
-4.73065e-05
0.0036429
-0.00373882
8.14314e-05
0.00292242
-0.00305116
0.000242249
0.00220642
-0.00236723
0.000433463
0.00151467
-0.00170588
0.000652636
0.000862597
-0.00108177
0.000896747
0.000261721
-0.000505833
0.00116239
-0.000279989
1.43429e-05
0.00144597
-0.000757712
0.000474131
0.00174387
-0.00116941
0.000871511
0.00205258
-0.00151542
0.0012067
0.00236884
-0.00179798
0.00148172
0.00268969
-0.00202077
0.00169992
0.00301255
-0.00218854
0.00186568
0.00333524
-0.0023067
0.001984
0.00365597
-0.00238095
0.00206022
0.0039733
-0.00241704
0.00209971
0.00428614
-0.00242055
0.0021077
0.00459372
-0.00239671
0.00208913
0.00489552
-0.00235035
0.00204855
0.00519121
-0.00228578
0.00199009
0.00548065
-0.00220682
0.00191738
0.00576383
-0.00211675
0.00183357
0.00604084
-0.00201839
0.00174137
0.00631185
-0.00191409
0.00164308
0.00657704
-0.00180581
0.00154062
0.00683664
-0.00169517
0.00143557
0.00709088
-0.00158354
0.00132931
0.00733991
-0.00147222
0.00122318
0.00758386
-0.00136057
0.00111662
-0.00124369
0.00782271
0.00100484
-1.04587e-05
0.00143433
-3.49947e-05
0.00349498
-6.91131e-05
0.00492074
-0.000106622
0.00578473
-0.000140378
0.00618487
-0.000163193
0.00621988
-0.000168484
0.00597792
-0.00015077
0.00553333
-0.000105845
0.00494692
-3.08203e-05
0.00426797
7.58842e-05
0.00353619
0.000214622
0.00278368
0.000384626
0.00203641
0.000584175
0.00131512
0.000810777
0.000635994
0.00106136
1.1135e-05
0.00133249
-0.000551118
0.00162056
-0.00104578
0.00192196
-0.0014708
0.00223319
-0.00182665
0.00255102
-0.00211581
0.00287258
-0.00234233
0.00319536
-0.00251132
0.00351727
-0.00262861
0.00383662
-0.00270029
0.00415208
-0.00273251
0.00446269
-0.00273115
0.00476775
-0.00270178
0.00506684
-0.00264944
0.00535974
-0.00257868
0.00564637
-0.00249345
0.00592679
-0.00239718
0.00620116
-0.00229276
0.00646968
-0.0021826
0.00673258
-0.00206872
0.00699013
-0.00195272
0.00724254
-0.00183596
0.00749005
-0.00171973
0.00773281
-0.00160332
-0.00148172
0.00797084
-6.60719e-06
0.00144093
-2.28625e-05
0.00351123
-4.58474e-05
0.00494373
-7.05441e-05
0.00580942
-9.06315e-05
0.00620496
-9.95383e-05
0.00622879
-9.10961e-05
0.00596948
-6.0064e-05
0.0055023
-2.40044e-06
0.00488925
8.46995e-05
0.00418087
0.000202719
0.00341817
0.000351942
0.00263446
0.000531551
0.0018568
0.000739757
0.00110691
0.000974008
0.000401743
0.0012312
-0.000246053
0.00150785
-0.00082777
0.00180033
-0.00133826
0.00210502
-0.00177549
0.00241848
-0.0021401
0.00273753
-0.00243486
0.00305936
-0.00266416
0.00338159
-0.00283355
0.00370223
-0.00294925
0.0040197
-0.00301777
0.0043328
-0.0030456
0.00464066
-0.00303902
0.00494274
-0.00300385
0.00523869
-0.00294539
0.00552839
-0.00286838
0.00581184
-0.00277691
0.00608919
-0.00267452
0.00636062
-0.00256419
0.00662639
-0.00244838
0.00688677
-0.0023291
0.00714205
-0.00220799
0.00739249
-0.0020864
0.00763832
-0.00196556
0.00787973
-0.00184472
-0.00171878
0.00811679
-2.88888e-06
0.00144382
-1.09804e-05
0.00351932
-2.28136e-05
0.00495556
-3.45189e-05
0.00582113
-4.06625e-05
0.0062111
-3.52742e-05
0.0062234
-1.26062e-05
0.00594681
3.22867e-05
0.00545741
0.000103244
0.00481829
0.000202949
0.00408117
0.0003328
0.00328832
0.000492982
0.00247428
0.000682588
0.0016672
0.00089976
0.000889738
0.00114188
0.000159627
0.00140576
-0.000509933
0.00168788
-0.0011099
0.00198462
-0.00163499
0.00229236
-0.00208324
0.00260771
-0.00245545
0.00292755
-0.00275471
0.00324921
-0.00298582
0.00357039
-0.00315473
0.00388924
-0.00326809
0.00420431
-0.00333283
0.00451453
-0.00335583
0.00481918
-0.00334367
0.00511781
-0.00330248
0.0054102
-0.00323779
0.00569632
-0.00315449
0.00597625
-0.00305684
0.00625019
-0.00294847
0.00651841
-0.0028324
0.00678119
-0.00271115
0.00703884
-0.00258675
0.00729168
-0.00246083
0.00753999
-0.00233472
0.00778402
-0.00220959
0.00802397
-0.00208468
-0.00195479
0.00825998
6.30503e-07
0.00144319
5.75267e-07
0.00351938
-1.59757e-07
0.0049563
1.17522e-06
0.00581979
9.18297e-06
0.00620309
2.91962e-05
0.00620339
6.64844e-05
0.00590952
0.000125694
0.0053982
0.00021047
0.00473352
0.000323312
0.00396833
0.000465493
0.00314614
0.000637091
0.00230268
0.000837082
0.0014672
0.0010635
0.00066332
0.00131363
-9.05061e-05
0.00158424
-0.000780541
0.00187178
-0.00139743
0.00217258
-0.0019358
0.00248308
-0.00239374
0.00279994
-0.0027723
0.00312016
-0.00307493
0.00344116
-0.00330682
0.00376078
-0.00347436
0.00407733
-0.00358464
0.00438949
-0.003645
0.00469635
-0.00366269
0.00499732
-0.00364464
0.00529207
-0.00359723
0.0055805
-0.00352622
0.00586266
-0.00343665
0.00613874
-0.00333292
0.006409
-0.00321872
0.00667374
-0.00309715
0.0069333
-0.00297072
0.00718803
-0.00284148
0.00743827
-0.00271107
0.00768431
-0.00258076
0.00792643
-0.00245171
0.00816485
-0.0023231
-0.0021897
0.00839976
4.00293e-06
0.00143919
1.1738e-05
0.00351164
2.19453e-05
0.00494609
3.63171e-05
0.00580542
5.85909e-05
0.00618082
9.34766e-05
0.0061685
0.00014576
0.00585724
0.00021974
0.00532422
0.000318815
0.00463444
0.00044529
0.00384185
0.000600279
0.00299115
0.000783703
0.00211926
0.000994397
0.00125651
0.00123028
0.000427437
0.00148854
-0.000348768
0.00176587
-0.00105787
0.00205867
-0.00169024
0.00236331
-0.00224043
0.00267624
-0.00270667
0.00299421
-0.00309027
0.00331434
-0.00339506
0.00363419
-0.00362666
0.00395176
-0.00379192
0.00426549
-0.00389837
0.00457425
-0.00395376
0.00487728
-0.00396572
0.00517412
-0.00394148
0.00546459
-0.0038877
0.00574869
-0.00381031
0.00602657
-0.00371454
0.0062985
-0.00360485
0.0065648
-0.00348502
0.00682583
-0.00335818
0.00708198
-0.00322686
0.00733361
-0.00309312
0.00758109
-0.00295855
0.00782474
-0.00282441
0.00806483
-0.0026918
0.00830162
-0.00255989
-0.00242342
0.00853534
7.16333e-06
0.00143203
2.24488e-05
0.00349636
4.33904e-05
0.00492515
7.06983e-05
0.00577811
0.000107301
0.00614422
0.000157249
0.00611855
0.00022482
0.00578967
0.00031395
0.00523509
0.000427759
0.00452063
0.00056831
0.0037013
0.00073651
0.00282295
0.000932103
0.00192366
0.00115377
0.00103484
0.00139928
0.000181926
0.00166571
-0.000615202
0.00194969
-0.00134184
0.00224759
-0.00198814
0.00255578
-0.00254862
0.00287078
-0.00302167
0.00318945
-0.00340894
0.00350904
-0.00371465
0.00382726
-0.00394488
0.00414227
-0.00410694
0.00445271
-0.0042088
0.0047576
-0.00425865
0.00505636
-0.00426448
0.00534868
-0.0042338
0.00563449
-0.00417351
0.00591392
-0.00408975
0.00618723
-0.00398784
0.00645475
-0.00387236
0.00671686
-0.00374714
0.00697399
-0.0036153
0.00722654
-0.00347942
0.00747492
-0.0033415
0.00771951
-0.00320313
0.00796063
-0.00306553
0.00819858
-0.00292976
0.00843364
-0.00279495
-0.00265584
0.00866607
1.01098e-05
0.00142192
3.26365e-05
0.00347383
6.40528e-05
0.00489373
0.000104152
0.00573801
0.000155056
0.00609331
0.000220171
0.00605344
0.000303267
0.00570657
0.000407865
0.00513049
0.000536766
0.00439173
0.000691761
0.00354631
0.000873515
0.00264119
0.00108157
0.00171561
0.0013144
0.000802008
0.00156964
-7.33137e-05
0.00184425
-0.000889806
0.00213476
-0.00163236
0.00243755
-0.00229093
0.00274899
-0.00286006
0.00306569
-0.00333837
0.00338463
-0.00372788
0.00370323
-0.00403324
0.00401934
-0.00426099
0.00433133
-0.00441893
0.00463801
-0.00451549
0.00493861
-0.00455925
0.00523269
-0.00455856
0.00552011
-0.00452122
0.00580094
-0.00445435
0.00607542
-0.00436423
0.00634389
-0.00425632
0.00660678
-0.00413525
0.00686451
-0.00400487
0.00711756
-0.00386835
0.00736637
-0.00372822
0.00761136
-0.00358649
0.00785292
-0.00344469
0.00809141
-0.00330402
0.00832712
-0.00316547
0.00856033
-0.00302817
-0.00288688
0.00879137
1.28312e-05
0.00140908
4.22633e-05
0.0034444
8.38361e-05
0.00485216
0.000136502
0.00568535
0.000201618
0.00602819
0.000281941
0.00597311
0.000380714
0.0056078
0.000501023
0.00501018
0.000645305
0.00424745
0.000815042
0.00337657
0.00101063
0.00244561
0.00123135
0.00149489
0.0014755
0.00055786
0.00174051
-0.000338329
0.00202324
-0.00117253
0.00232014
-0.00192926
0.00262756
-0.00259835
0.00294193
-0.00317443
0.00325995
-0.0036564
0.00357875
-0.00404668
0.00389589
-0.00435038
0.00420944
-0.00457454
0.00451796
-0.00472744
0.00482046
-0.00481799
0.00511636
-0.00485515
0.00540541
-0.00484761
0.00568761
-0.00480343
0.00596318
-0.00472991
0.00623246
-0.00463351
0.00649589
-0.00451975
0.00675395
-0.00439331
0.00700715
-0.00425807
0.00725598
-0.00411718
0.00750091
-0.00397316
0.0077424
-0.00382798
0.00798084
-0.00368313
0.00821659
-0.00353976
0.00844995
-0.00339883
0.00868122
-0.00325944
-0.00311642
0.00891076
1.53212e-05
0.00139376
5.12889e-05
0.00340843
0.000102656
0.00480079
0.000167604
0.0056204
0.000246771
0.00594903
0.00034227
0.00587761
0.000456803
0.00549327
0.000592986
0.004874
0.000752865
0.00408757
0.00093757
0.00319186
0.00114719
0.00223599
0.00138074
0.00126133
0.00163628
0.00030232
0.00191107
-0.000613114
0.00220181
-0.00146327
0.0025049
-0.00223236
0.00281668
-0.00291013
0.00313364
-0.00349138
0.0034526
-0.00397536
0.00377082
-0.00436491
0.00408608
-0.00466563
0.00439663
-0.00488509
0.00470125
-0.00503207
0.00499919
-0.00511592
0.00529004
-0.005146
0.00557373
-0.0051313
0.00585044
-0.00508014
0.00612051
-0.00499998
0.00638439
-0.00489739
0.0066426
-0.00477796
0.0068957
-0.00464641
0.00714424
-0.00450661
0.00738875
-0.00436169
0.00762972
-0.00421413
0.00786761
-0.00406587
0.00810284
-0.00391836
0.00833575
-0.00377268
0.00856667
-0.00362974
0.00879589
-0.00348867
-0.00334435
0.00902382
1.758e-05
0.00137618
5.96878e-05
0.00336632
0.000120443
0.00474003
0.000197338
0.0055435
0.000290331
0.00585603
0.000400903
0.00576704
0.0005312
0.00536297
0.000683353
0.00472185
0.000858966
0.00391196
0.00105879
0.00299204
0.00128258
0.0020122
0.00152906
0.00101486
0.00179601
3.53676e-05
0.0020805
-0.000897611
0.00237912
-0.00176188
0.00268818
-0.00254142
0.00300401
-0.00322596
0.0033232
-0.00381057
0.00364269
-0.00429485
0.00395993
-0.00468214
0.00427286
-0.00497857
0.00458
-0.00519223
0.00488035
-0.00533242
0.00517336
-0.00540893
0.00545885
-0.00543149
0.00573693
-0.00540938
0.00600792
-0.00535113
0.0062723
-0.00526436
0.00653063
-0.00515571
0.00678351
-0.00503084
0.00703154
-0.00489445
0.00727534
-0.00475041
0.00751545
-0.0046018
0.00775239
-0.00445108
0.00798662
-0.00430011
0.00821856
-0.00415029
0.00844856
-0.00400268
0.00867694
-0.00385812
0.00890401
-0.00371574
-0.00357055
0.00913021
1.96047e-05
0.00135658
6.74446e-05
0.00331848
0.000137149
0.00467033
0.000225605
0.00545505
0.00033214
0.0057495
0.00045762
0.00564156
0.000603621
0.00521697
0.000771757
0.00455371
0.000963172
0.00372054
0.00117821
0.002777
0.00141624
0.00177417
0.00167565
0.000755441
0.00195398
-0.000242961
0.00224808
-0.00119171
0.00255437
-0.00206818
0.00286912
-0.00285617
0.00318869
-0.00354553
0.00350973
-0.00413161
0.00382935
-0.00461447
0.00414517
-0.00499796
0.00445537
-0.00528877
0.00475871
-0.00549557
0.00505443
-0.00562814
0.00534221
-0.00569671
0.00562207
-0.00571136
0.00589432
-0.00568162
0.00615942
-0.00561623
0.00641798
-0.00552292
0.00667065
-0.00540839
0.00691812
-0.00527831
0.00716105
-0.00513738
0.00740006
-0.00498942
0.00763574
-0.00483748
0.00786861
-0.00468395
0.00809914
-0.00453064
0.00832774
-0.00437889
0.00855476
-0.00422969
0.00878051
-0.00408388
0.00900533
-0.00394055
-0.00379488
0.00922966
2.14024e-05
0.00133518
7.45557e-05
0.00326533
0.000152742
0.00459214
0.000252335
0.00535545
0.000372082
0.00562975
0.000512242
0.0055014
0.000673817
0.00505539
0.000857886
0.00436964
0.0010651
0.00351332
0.00129536
0.00254674
0.00154763
0.0015219
0.00181996
0.000483116
0.00210956
-0.000532567
0.00241309
-0.00149523
0.00272681
-0.0023819
0.00304695
-0.00317631
0.00336989
-0.00386847
0.00369239
-0.00445411
0.00401172
-0.0049338
0.00432571
-0.00531195
0.0046328
-0.00559586
0.00493198
-0.00579475
0.00522276
-0.00591892
0.00550503
-0.00597899
0.00577906
-0.00598538
0.0060453
-0.00594786
0.00630439
-0.00587532
0.00655704
-0.00577558
0.00680401
-0.00565536
0.00704605
-0.00552034
0.00728385
-0.00537518
0.00751808
-0.00522365
0.00774933
-0.00506873
0.00797814
-0.00491275
0.00820495
-0.00475745
0.00843017
-0.00460411
0.00865416
-0.00445368
0.00887722
-0.00430694
0.00909967
-0.00416301
-0.00401723
0.00932201
2.29798e-05
0.0013122
8.10253e-05
0.00320728
0.000167213
0.00450595
0.000277491
0.00524518
0.000410074
0.00549716
0.000564634
0.00534684
0.000741597
0.00487843
0.000941485
0.00416975
0.00116444
0.00329037
0.00140987
0.00230131
0.00167632
0.00125545
0.00196145
0.000197988
0.00226217
-0.000833293
0.0025749
-0.00180795
0.00289576
-0.00270277
0.00322094
-0.00350148
0.00354685
-0.00419438
0.00387039
-0.00477765
0.00418901
-0.00525242
0.00450078
-0.00562372
0.00480437
-0.00589946
0.00509907
-0.00608945
0.00538462
-0.00620447
0.00566118
-0.00625554
0.00592919
-0.00625339
0.00618931
-0.00620799
0.00644232
-0.00612833
0.00668905
-0.0060223
0.00693032
-0.00589664
0.00716694
-0.00575696
0.00739966
-0.0056079
0.00762915
-0.00545314
0.00785602
-0.0052956
0.00808078
-0.00513751
0.00830389
-0.00498056
0.00852573
-0.00482596
0.00874665
-0.0046746
0.00896695
-0.00452724
0.00918695
-0.00438301
-0.00423746
0.00940719
2.43482e-05
0.00128785
8.68697e-05
0.00314476
0.00018057
0.00441225
0.000301063
0.00512468
0.000446074
0.00535215
0.000614713
0.0051782
0.000806822
0.00468632
0.00102236
0.00395422
0.00126091
0.00305182
0.0015214
0.00204082
0.0018019
0.000974952
0.00209966
-9.97743e-05
0.00241128
-0.00114491
0.00273292
-0.00212959
0.00306059
-0.00303043
0.00339041
-0.0038313
0.00371888
-0.00452285
0.00404303
-0.0051018
0.00436051
-0.0055699
0.00466964
-0.00593285
0.0049694
-0.00619921
0.00525931
-0.00637936
0.00553939
-0.00648455
0.00581005
-0.0065262
0.00607194
-0.00651528
0.00632589
-0.00646194
0.0065728
-0.00637525
0.00681362
-0.00626312
0.00704924
-0.00613226
0.00728052
-0.00598825
0.00750824
-0.00583562
0.00773307
-0.00567798
0.00795563
-0.00551816
0.00817641
-0.0053583
0.00839586
-0.00520001
0.00861435
-0.00504445
0.0088322
-0.00489245
0.00904971
-0.00474474
0.00926719
-0.00460049
-0.00445547
0.0094852
2.55206e-05
0.00126233
9.21153e-05
0.00307816
0.000192845
0.00431152
0.000323071
0.00499446
0.000480079
0.00519514
0.000662438
0.00499584
0.00086941
0.00447935
0.00110037
0.00372326
0.00135435
0.00279784
0.00162972
0.00176545
0.00192407
0.000680603
0.00223423
-0.000409934
0.00255645
-0.00146714
0.00288666
-0.0024598
0.00322071
-0.00336449
0.00355474
-0.00416532
0.00388531
-0.00485342
0.00420961
-0.00542611
0.00452553
-0.00588582
0.00483165
-0.00623897
0.00512722
-0.00649479
0.00541208
-0.00666422
0.00568651
-0.00675898
0.00595115
-0.00679084
0.00620685
-0.00677098
0.00645461
-0.0067097
0.00669547
-0.0066161
0.00693044
-0.0064981
0.00716052
-0.00636233
0.00738658
-0.00621431
0.00760941
-0.00605845
0.00782972
-0.00589828
0.00804807
-0.00573651
0.00826498
-0.00557521
0.00848086
-0.00541588
0.00869604
-0.00525963
0.00891084
-0.00510725
0.00912554
-0.00495944
0.00934045
-0.0048154
-0.00467118
0.00955616
2.65122e-05
0.00123581
9.67973e-05
0.00300788
0.000204085
0.00420424
0.000343564
0.00485498
0.000512126
0.00502658
0.00070782
0.00480015
0.000929334
0.00425783
0.00117545
0.00347715
0.0014446
0.00252868
0.00173462
0.00147544
0.00204255
0.000372665
0.00236481
-0.000732186
0.00269727
-0.0017996
0.00303563
-0.00279816
0.00337563
-0.00370449
0.00371338
-0.00450308
0.00404556
-0.0051856
0.00436955
-0.00575009
0.00468346
-0.00619974
0.00498619
-0.0065417
0.00527728
-0.00678588
0.00555686
-0.00694379
0.00582548
-0.0070276
0.00608401
-0.00704937
0.00633351
-0.00702048
0.00657513
-0.00695131
0.00681001
-0.00685099
0.00703927
-0.00672736
0.00726394
-0.006587
0.00748494
-0.0064353
0.00770306
-0.00627658
0.007919
-0.00611422
0.00813331
-0.00595083
0.00834648
-0.00578837
0.00855889
-0.00562829
0.00877086
-0.0054716
0.00898267
-0.00531907
0.00919458
-0.00517135
0.00940691
-0.00502772
-0.00488452
0.00962025
2.73401e-05
0.00120847
0.000100959
0.00293426
0.000214356
0.00409084
0.000362618
0.00470671
0.000542286
0.00484691
0.000750916
0.00459152
0.000986621
0.00402213
0.00124758
0.00321619
0.00153162
0.00224464
0.00183598
0.00117108
0.00215717
5.14678e-05
0.00249114
-0.00106615
0.00283343
-0.00214189
0.00317946
-0.00314419
0.00352489
-0.00404992
0.00386583
-0.00484402
0.0041991
-0.00551887
0.00452227
-0.00607326
0.00483376
-0.00651122
0.00513274
-0.00684068
0.00541907
-0.00707221
0.00569317
-0.0072179
0.00595587
-0.0072903
0.00620826
-0.00730176
0.00645159
-0.00726381
0.00668715
-0.00718687
0.00691619
-0.00708003
0.00713991
-0.00695107
0.00735936
-0.00680646
0.0075755
-0.00665144
0.00778912
-0.0064902
0.00800088
-0.00632598
0.00821134
-0.00616129
0.00842094
-0.00599797
0.00863003
-0.00583738
0.00883891
-0.00568049
0.00904783
-0.00552798
0.00925702
-0.00538054
0.00946678
-0.00523748
-0.00509549
0.00967776
2.80234e-05
0.00118045
0.000104651
0.00285763
0.000223738
0.00397175
0.000380333
0.00455012
0.000570667
0.00465658
0.000791824
0.00437036
0.00104135
0.0037726
0.00131681
0.00294073
0.00161539
0.00194605
0.00193373
0.000852747
0.00226779
-0.000282591
0.00261303
-0.00141139
0.00296462
-0.00249348
0.00331778
-0.00349735
0.00366807
-0.00440021
0.00401164
-0.00518759
0.00434544
-0.00585268
0.00466731
-0.00639513
0.00497594
-0.00681985
0.00527082
-0.00713556
0.00555214
-0.00735353
0.00582061
-0.00748637
0.00607732
-0.00754701
0.00632358
-0.00754802
0.00656082
-0.00750105
0.00679045
-0.0074165
0.00701383
-0.00730341
0.00723221
-0.00716945
0.00744669
-0.00702094
0.0076582
-0.00686296
0.00786755
-0.00669954
0.00807537
-0.00653381
0.0082822
-0.00636811
0.00848843
-0.00620421
0.00869439
-0.00604335
0.00890035
-0.00588644
0.0091065
-0.00573414
0.00931308
-0.00558712
0.00952036
-0.00544476
-0.00530414
0.00972901
2.85823e-05
0.00115187
0.00010793
0.00277828
0.000232326
0.00384736
0.000396831
0.00438561
0.000597406
0.004456
0.000830683
0.00413708
0.00109364
0.00350964
0.00138322
0.00265116
0.00169596
0.00163331
0.00202786
0.000520848
0.00237432
-0.000629044
0.0027303
-0.00176737
0.00309063
-0.00285381
0.00345031
-0.00385703
0.00380482
-0.00475472
0.0041504
-0.00553317
0.00448418
-0.00618645
0.00480423
-0.00671518
0.00510957
-0.00712519
0.00540004
-0.00742603
0.00567612
-0.00762962
0.00593884
-0.00774908
0.00618953
-0.0077977
0.00642972
-0.00778821
0.00666098
-0.00773232
0.00688487
-0.00764038
0.00710281
-0.00752136
0.0073161
-0.00738274
0.00752585
-0.00723069
0.00773301
-0.00707012
0.00793836
-0.00690489
0.00814251
-0.00673796
0.00834595
-0.00657155
0.00854905
-0.00640731
0.00875211
-0.0062464
0.00895533
-0.00608966
0.00915891
-0.00593772
0.00936303
-0.00579124
0.00956796
-0.0056497
-0.00551055
0.00977438
2.90373e-05
0.00112283
0.000110859
0.00269646
0.000240224
0.00371799
0.000412253
0.00421358
0.000622666
0.00424559
0.000867661
0.00389209
0.00114366
0.00323365
0.00144695
0.00234787
0.00177342
0.00130683
0.0021184
0.000175864
0.00247671
-0.000987356
0.00284284
-0.0021335
0.00321127
-0.00322224
0.00357679
-0.00422255
0.00393485
-0.00511278
0.00428178
-0.00588011
0.00461493
-0.00651959
0.00493265
-0.00703291
0.00523431
-0.00742684
0.00552005
-0.00771177
0.00579071
-0.00790028
0.00604759
-0.00800596
0.00629228
-0.00804238
0.00652649
-0.00802242
0.00675195
-0.00795778
0.0069703
-0.00785874
0.00718305
-0.00773411
0.00739153
-0.00759122
0.00759685
-0.00743601
0.00779995
-0.00727322
0.00800159
-0.00710652
0.00820235
-0.00693871
0.00840268
-0.00677189
0.00860292
-0.00660756
0.00880332
-0.0064468
0.00900405
-0.00629039
0.00920526
-0.00613893
0.00940713
-0.0059931
0.0096099
-0.00585247
-0.00571491
0.00981426
2.94103e-05
0.00109342
0.000113503
0.00261237
0.000247545
0.00358395
0.000426749
0.00403438
0.000646627
0.00402571
0.000902954
0.00363576
0.00119158
0.00294502
0.00150815
0.0020313
0.00184787
0.000967117
0.0022054
-0.000181667
0.00257496
-0.00135692
0.00295058
-0.00250911
0.00332637
-0.00359803
0.00369699
-0.00459317
0.00405788
-0.00547367
0.00440548
-0.00622771
0.00473738
-0.0068515
0.00505227
-0.0073478
0.00534984
-0.0077244
0.00563059
-0.00799252
0.00589567
-0.00816537
0.00614667
-0.00825696
0.0063854
-0.00828111
0.00661376
-0.00825078
0.00683361
-0.00817763
0.00704668
-0.00807181
0.00725452
-0.00794195
0.00745849
-0.00779518
0.00765969
-0.00763722
0.00785906
-0.00747259
0.0080573
-0.00730477
0.00825497
-0.00713639
0.0084525
-0.00696941
0.00865016
-0.00680522
0.00884817
-0.00664481
0.00904667
-0.00648889
0.00924578
-0.00633804
0.00944563
-0.00619295
0.00964648
-0.00605331
-0.00591745
0.00984902
2.97234e-05
0.0010637
0.000115929
0.00252616
0.000254404
0.00344547
0.000440484
0.0038483
0.000669485
0.00379671
0.00093677
0.00336848
0.00123762
0.00264417
0.00156701
0.0017019
0.00191946
0.000614673
0.00228894
-0.000551148
0.00266908
-0.00173706
0.00305343
-0.00289346
0.00343582
-0.00398042
0.00381074
-0.0049681
0.00417367
-0.0058366
0.00452123
-0.00657527
0.00485128
-0.00718154
0.00516283
-0.00765935
0.00545592
-0.0080175
0.00573143
-0.00826803
0.00599081
-0.00842475
0.00623592
-0.00850207
0.00646878
-0.00851398
0.00669146
-0.00847347
0.00690593
-0.0083921
0.007114
-0.00827987
0.00731724
-0.0081452
0.00751701
-0.00799496
0.00771443
-0.00783464
0.00791038
-0.00766854
0.00810556
-0.00749994
0.00830047
-0.0073313
0.00849549
-0.00716443
0.00869088
-0.00700061
0.0088868
-0.00684073
0.00908335
-0.00668545
0.00928064
-0.00653532
0.00947876
-0.00639108
0.00967797
-0.00625251
-0.00611845
0.00987896
2.99998e-05
0.0010337
0.000118202
0.00243796
0.00026092
0.00330276
0.000453623
0.00365559
0.000691442
0.00355889
0.000969329
0.00309059
0.00128199
0.00233151
0.00162373
0.00136016
0.00198833
0.000250069
0.00236911
-0.000931925
0.00275909
-0.00212704
0.00315136
-0.00328573
0.00353948
-0.00436854
0.00391786
-0.00534647
0.00428202
-0.00620076
0.00462881
-0.00692206
0.00495638
-0.00750911
0.0052641
-0.00796707
0.00555238
-0.00830578
0.00582242
-0.00853807
0.00607602
-0.00867834
0.00631526
-0.00874131
0.00654238
-0.0087411
0.00675958
-0.00869067
0.00696892
-0.00860144
0.00717227
-0.00848322
0.00737124
-0.00834416
0.00756716
-0.00819088
0.00776113
-0.00802861
0.00795401
-0.00786142
0.00814645
-0.00769238
0.00833893
-0.00752378
0.00853176
-0.00735727
0.00872518
-0.00719402
0.00891931
-0.00703486
0.00911422
-0.00688036
0.00930998
-0.00673108
0.00950668
-0.00658778
0.00970456
-0.00645038
-0.00631823
0.00990434
3.02627e-05
0.00100343
0.00012039
0.00234783
0.000267211
0.00315593
0.000466332
0.00345647
0.000712699
0.00331253
0.00100085
0.00280244
0.00132491
0.00200746
0.00167848
0.00100659
0.00205463
-0.000126087
0.00244599
-0.00132328
0.002845
-0.00252605
0.00324432
-0.00368505
0.00363727
-0.0047615
0.0040182
-0.0057274
0.00438277
-0.00656532
0.00472804
-0.00726734
0.00505252
-0.00783359
0.00535593
-0.00827049
0.00563906
-0.00858891
0.00590347
-0.00880248
0.00615122
-0.00892609
0.00638465
-0.00897474
0.00660618
-0.00896263
0.00681812
-0.00890261
0.00702262
-0.00880594
0.00722157
-0.00868217
0.00741659
-0.00853918
0.007609
-0.0083833
0.00779988
-0.00821949
0.00799002
-0.00805157
0.00818006
-0.00788242
0.00837042
-0.00771414
0.00856139
-0.00754824
0.00875314
-0.00738578
0.00894578
-0.00722749
0.00913935
-0.00707393
0.00933389
-0.00692562
0.00952949
-0.00678338
0.00972636
-0.00664725
-0.00651715
0.00992528
3.05338e-05
0.000972901
0.000122555
0.00225581
0.000273392
0.0030051
0.000478772
0.00325109
0.00073345
0.00305785
0.00103154
0.00250435
0.00136657
0.00167243
0.00173145
0.000641718
0.0021185
-0.000513137
0.00251966
-0.00172445
0.00292682
-0.00293321
0.00333226
-0.00409049
0.00372908
-0.00515832
0.00411164
-0.00610996
0.00447575
-0.00692943
0.00481877
-0.00761036
0.00513955
-0.00815437
0.00543821
-0.00856915
0.0057159
-0.0088666
0.00597451
-0.00906109
0.0062164
-0.00916798
0.00644412
-0.00920246
0.00666023
-0.00917874
0.00686716
-0.00910954
0.0070671
-0.00900588
0.00726197
-0.00887705
0.00745339
-0.00873059
0.00764264
-0.00857255
0.00783075
-0.0084076
0.0080185
-0.00823932
0.00820646
-0.00807038
0.00839502
-0.00790269
0.00858442
-0.00773764
0.00877481
-0.00757617
0.00896626
-0.00741894
0.00915878
-0.00726645
0.0093524
-0.00711924
0.0095472
-0.00697817
0.00974339
-0.00684344
-0.00671555
0.00994179
3.08333e-05
0.000942068
0.000124759
0.00216188
0.00027957
0.00285029
0.000491091
0.00303957
0.000753877
0.00279506
0.0010616
0.00219662
0.00140718
0.00132685
0.00178279
0.000266105
0.00218003
-0.000910381
0.00259018
-0.00213459
0.00300457
-0.0033476
0.00341512
-0.00450105
0.00381482
-0.00555802
0.00419805
-0.00649319
0.00456084
-0.00729222
0.00490088
-0.0079504
0.00521738
-0.00847087
0.00551086
-0.00886263
0.00578285
-0.00913859
0.00603556
-0.0093138
0.00627159
-0.00940402
0.00649371
-0.00942458
0.0067046
-0.00938963
0.00690678
-0.00931171
0.00710247
-0.00920157
0.00729359
-0.00906817
0.00748173
-0.00891873
0.00766815
-0.00875897
0.00785384
-0.00859329
0.00803953
-0.00842501
0.00822573
-0.00825658
0.00841279
-0.00808976
0.00860092
-0.00792578
0.00879023
-0.00776548
0.00898076
-0.00760946
0.00917251
-0.0074582
0.00936548
-0.00731222
0.00955976
-0.00717245
0.00975557
-0.00703926
-0.00691375
0.00995377
3.11791e-05
0.000910888
0.000127056
0.00206601
0.000285842
0.0026915
0.000503426
0.00282199
0.000774141
0.00252435
0.0010912
0.00187956
0.00144688
0.000971172
0.00183264
-0.000119651
0.00223933
-0.00131707
0.00265757
-0.00255283
0.0030782
-0.00376823
0.00349284
-0.00491569
0.00389438
-0.00595956
0.00427732
-0.00687613
0.00463793
-0.00765284
0.00497427
-0.00828673
0.00528594
-0.00878254
0.00557386
-0.00915055
0.00583992
-0.00940465
0.00608664
-0.00956052
0.00631687
-0.00963425
0.00653352
-0.00964124
0.00673941
-0.00959552
0.0069371
-0.0095094
0.00712885
-0.00939332
0.00731654
-0.00925587
0.00750174
-0.00910393
0.00768566
-0.0089429
0.00786925
-0.00877688
0.00805318
-0.00860894
0.00823792
-0.00844132
0.00842377
-0.00827561
0.00861091
-0.00811291
0.0087994
-0.00795397
0.00898926
-0.00779932
0.00918048
-0.00764942
0.00937305
-0.00750479
0.00956705
-0.00736645
0.00976275
-0.00723495
-0.00711203
0.00996104
3.15871e-05
0.000879301
0.000129495
0.0019681
0.000292293
0.0025287
0.000515896
0.00259839
0.000794385
0.00224586
0.00112048
0.00155346
0.00148581
0.000605845
0.00188108
-0.000514926
0.00229643
-0.00173242
0.00272183
-0.00297823
0.00314768
-0.00419407
0.00356534
-0.00533335
0.00396767
-0.00636189
0.00434934
-0.0072578
0.00470693
-0.00801043
0.00503887
-0.00861867
0.00534519
-0.00908886
0.0056272
-0.00943256
0.00588715
-0.00966459
0.00612783
-0.00980121
0.00635233
-0.00985874
0.00656368
-0.0098526
0.0067648
-0.00979664
0.00695828
-0.00970288
0.00714638
-0.00958141
0.00733096
-0.00944045
0.00751353
-0.00928651
0.00769528
-0.00912464
0.00787707
-0.00895867
0.00805953
-0.0087914
0.00824309
-0.00862488
0.008428
-0.00846052
0.0086144
-0.0082993
0.00880231
-0.00814188
0.00899173
-0.00798874
0.00918262
-0.00784031
0.00937499
-0.00769716
0.00956891
-0.00756037
0.00976469
-0.00743073
-0.00731063
0.00996328
3.20713e-05
0.000847229
0.000132118
0.00186805
0.000298998
0.00236182
0.000528601
0.00236878
0.000814723
0.00195974
0.00114956
0.00121862
0.00152406
0.000231348
0.00192819
-0.000919056
0.00235136
-0.00215559
0.00278295
-0.00340981
0.00321293
-0.00462406
0.00363252
-0.00575293
0.00403458
-0.00676396
0.00441402
-0.00763724
0.00476777
-0.00836417
0.00509466
-0.00894556
0.00539514
-0.00938934
0.00567094
-0.00970836
0.00592462
-0.00991828
0.00615926
-0.0100358
0.00637811
-0.0100776
0.00658435
-0.0100588
0.00678093
-0.00999322
0.00697047
-0.00989242
0.00715521
-0.00976615
0.00733698
-0.00962221
0.00751723
-0.00946676
0.00769709
-0.0093045
0.00787737
-0.00913895
0.00805865
-0.00897268
0.00824129
-0.00880752
0.0084255
-0.00864474
0.00861138
-0.00848518
0.00879893
-0.00832943
0.0089881
-0.00817791
0.00917884
-0.00803105
0.00937115
-0.00788946
0.00956512
-0.00775435
0.00976111
-0.00762672
-0.00750967
0.00996016
3.26434e-05
0.000814585
0.000134958
0.00176573
0.000306014
0.00219077
0.000541622
0.00213317
0.000835242
0.00166612
0.00117852
0.000875348
0.00156169
-0.000151822
0.00197398
-0.00133134
0.00240409
-0.0025857
0.00284084
-0.00384657
0.00327387
-0.00505709
0.00369427
-0.00617332
0.00409501
-0.00716471
0.00447128
-0.00801351
0.00482039
-0.00871328
0.00514161
-0.00926678
0.00543582
-0.00968356
0.00570514
-0.00997768
0.00595245
-0.0101656
0.00618106
-0.0102645
0.00639438
-0.0102909
0.00659568
-0.0102601
0.00678796
-0.0101855
0.00697384
-0.0100783
0.0071555
-0.00994781
0.00733474
-0.00980145
0.00751295
-0.00964498
0.0076912
-0.00948274
0.00787023
-0.00931798
0.00805057
-0.00915302
0.00823253
-0.00898948
0.00841628
-0.00882849
0.00860186
-0.00867076
0.00878923
-0.0085168
0.00897832
-0.008367
0.00916905
-0.00822178
0.00936139
-0.00808181
0.00955549
-0.00794844
0.00975174
-0.00782297
-0.00770923
0.0099513
3.33122e-05
0.000781273
0.000138042
0.001661
0.000313386
0.00201542
0.000555015
0.00189155
0.000856001
0.00136513
0.00120739
0.000523958
0.00159871
-0.000543137
0.00201842
-0.00175106
0.00245456
-0.00302184
0.00289543
-0.00428744
0.00333039
-0.00549205
0.00375047
-0.00659341
0.00414886
-0.0075631
0.00452104
-0.00838569
0.00486476
-0.009057
0.00517974
-0.00958176
0.0054673
-0.00997113
0.00572992
-0.0102403
0.00597078
-0.0104064
0.0061934
-0.0104871
0.00640132
-0.0104988
0.00659788
-0.0104567
0.0067861
-0.0103737
0.00696856
-0.0102608
0.00714741
-0.0101267