/*--------------------------------*- C++ -*----------------------------------*\
  =========                 |
  \\      /  F ield         | OpenFOAM: The Open Source CFD Toolbox
   \\    /   O peration     | Website:  https://openfoam.org
    \\  /    A nd           | Version:  7
     \\/     M anipulation  |
\*---------------------------------------------------------------------------*/
FoamFile
{
    version     2.0;
    format      ascii;
    class       volScalarField;
    location    "9.7";
    object      p;
}
// * * * * * * * * * * * * * * * * * * * * * * * * * * * * * * * * * * * * * //

dimensions      [0 2 -2 0 0 0 0];

internalField   nonuniform List<scalar> 
32000
(
0.174255
0.174987
0.175478
0.175972
0.176407
0.176799
0.177165
0.177517
0.177861
0.178197
0.17853
0.17887
0.179233
0.17964
0.180114
0.180674
0.181336
0.182109
0.183004
0.184033
0.18521
0.186546
0.188052
0.189729
0.19158
0.193602
0.195793
0.198149
0.200663
0.203326
0.206127
0.209054
0.212093
0.215231
0.218453
0.221744
0.225089
0.228475
0.231876
0.235222
0.174527
0.175242
0.175717
0.176187
0.176596
0.176958
0.177294
0.177615
0.177927
0.178233
0.178536
0.178842
0.179168
0.179533
0.17996
0.180471
0.181078
0.181793
0.182623
0.183579
0.184676
0.185927
0.18734
0.188921
0.190671
0.19259
0.194674
0.19692
0.199323
0.201875
0.204566
0.207385
0.210319
0.213356
0.216481
0.21968
0.222939
0.226244
0.229563
0.232837
0.174804
0.175497
0.17595
0.176394
0.176777
0.177112
0.17742
0.177712
0.177993
0.178269
0.178541
0.178816
0.179107
0.179435
0.179821
0.180286
0.180844
0.181504
0.182274
0.183164
0.184188
0.185359
0.186687
0.188178
0.189834
0.191654
0.193636
0.195777
0.198073
0.200516
0.203099
0.205811
0.208642
0.211578
0.214606
0.217711
0.220881
0.224102
0.227336
0.230535
0.175074
0.175739
0.176171
0.17659
0.176949
0.17726
0.177542
0.177807
0.17806
0.178307
0.178549
0.178795
0.179056
0.17935
0.1797
0.180124
0.180637
0.181246
0.181961
0.18279
0.183747
0.184844
0.186093
0.1875
0.189068
0.190795
0.19268
0.194721
0.196913
0.199251
0.201729
0.204336
0.207064
0.209899
0.212829
0.21584
0.21892
0.222054
0.2252
0.22832
0.175346
0.175983
0.176392
0.176787
0.177122
0.177411
0.177669
0.177907
0.178133
0.17835
0.178565
0.178783
0.179016
0.179281
0.179598
0.179985
0.180456
0.181019
0.181683
0.182457
0.183352
0.184382
0.185558
0.186888
0.188373
0.190013
0.191806
0.19375
0.195843
0.19808
0.200456
0.202961
0.205587
0.208322
0.211155
0.214071
0.217058
0.220105
0.223159
0.226199
0.175619
0.176224
0.176609
0.17698
0.177293
0.17756
0.177795
0.178008
0.178208
0.178399
0.178588
0.178781
0.178988
0.179226
0.179514
0.179869
0.180302
0.180824
0.181442
0.182164
0.183003
0.183971
0.185082
0.18634
0.187749
0.189307
0.191013
0.192866
0.194864
0.197004
0.199281
0.201687
0.204214
0.20685
0.209585
0.212406
0.215301
0.218257
0.221219
0.224175
0.175898
0.176467
0.176828
0.177174
0.177464
0.177712
0.177924
0.178114
0.178289
0.178455
0.17862
0.17879
0.178975
0.179189
0.179451
0.179777
0.180177
0.180662
0.181237
0.181913
0.182701
0.183615
0.184666
0.185859
0.187197
0.188678
0.190302
0.192068
0.193977
0.196024
0.198206
0.200516
0.202945
0.205484
0.208123
0.210848
0.21365
0.216516
0.219383
0.222255
0.176183
0.176714
0.17705
0.17737
0.177637
0.177864
0.178057
0.178225
0.178377
0.17852
0.178663
0.178812
0.178976
0.17917
0.179411
0.179711
0.180082
0.180533
0.18107
0.181704
0.182447
0.183313
0.18431
0.185444
0.186716
0.188126
0.189673
0.191359
0.193182
0.195141
0.197232
0.199448
0.201783
0.204227
0.20677
0.2094
0.21211
0.214885
0.217657
0.220442
0.176476
0.176965
0.177275
0.177567
0.177812
0.178019
0.178193
0.178341
0.178472
0.178595
0.178718
0.178847
0.178994
0.179171
0.179393
0.179672
0.180017
0.180437
0.180941
0.181538
0.182243
0.183066
0.184015
0.185095
0.186307
0.187651
0.189127
0.190736
0.19248
0.194355
0.196359
0.198485
0.200728
0.203079
0.205528
0.208066
0.210683
0.213367
0.216044
0.218742
0.176778
0.177223
0.177504
0.177768
0.177988
0.178176
0.178332
0.178462
0.178575
0.17868
0.178784
0.178897
0.179029
0.179192
0.179399
0.17966
0.179983
0.180376
0.180851
0.181417
0.182088
0.182873
0.18378
0.184812
0.185969
0.187252
0.188663
0.190202
0.19187
0.193667
0.195587
0.197628
0.199782
0.202042
0.204401
0.206846
0.209372
0.211967
0.214547
0.217157
0.17709
0.177488
0.177738
0.177971
0.178167
0.178336
0.178476
0.17859
0.178687
0.178774
0.178862
0.178961
0.179081
0.179234
0.179429
0.179674
0.179978
0.18035
0.1808
0.18134
0.181982
0.182736
0.183605
0.184594
0.185702
0.18693
0.18828
0.189754
0.191353
0.193076
0.194918
0.196876
0.198945
0.201119
0.203388
0.205744
0.20818
0.210686
0.213171
0.215692
0.177412
0.17776
0.177977
0.178179
0.17835
0.178499
0.178624
0.178725
0.178807
0.17888
0.178954
0.179041
0.179152
0.179297
0.179482
0.179716
0.180005
0.180359
0.18079
0.181309
0.181928
0.182654
0.183491
0.184442
0.185506
0.186684
0.18798
0.189395
0.19093
0.192583
0.194351
0.196232
0.198219
0.200309
0.202492
0.204761
0.20711
0.209527
0.211918
0.21435
0.177745
0.178039
0.178223
0.178391
0.178537
0.178668
0.178779
0.178867
0.178937
0.178997
0.17906
0.179138
0.179243
0.179382
0.179561
0.179786
0.180064
0.180405
0.180822
0.181325
0.181924
0.182628
0.183438
0.184355
0.18538
0.186515
0.187762
0.189123
0.190599
0.192188
0.193887
0.195694
0.197605
0.199614
0.201714
0.203898
0.206162
0.208493
0.21079
0.213134
0.178088
0.178325
0.178474
0.178608
0.178729
0.178842
0.17894
0.179017
0.179076
0.179127
0.179181
0.179253
0.179354
0.17949
0.179665
0.179884
0.180155
0.180488
0.180896
0.181388
0.181973
0.182659
0.183446
0.184335
0.185326
0.186422
0.187626
0.18894
0.190362
0.191891
0.193526
0.195263
0.197101
0.199034
0.201056
0.203158
0.205339
0.207586
0.209791
0.212047
0.178439
0.178617
0.17873
0.178831
0.178927
0.179022
0.179107
0.179174
0.179226
0.179269
0.179318
0.179387
0.179486
0.179621
0.179794
0.180011
0.180279
0.18061
0.181013
0.181498
0.182074
0.182746
0.183515
0.184381
0.185344
0.186407
0.187573
0.188844
0.190217
0.191692
0.193267
0.19494
0.196709
0.19857
0.200516
0.202541
0.204641
0.206806
0.208921
0.21109
0.178799
0.178913
0.178991
0.179059
0.179131
0.179208
0.179281
0.17934
0.179386
0.179425
0.179472
0.179541
0.17964
0.179775
0.179949
0.180167
0.180437
0.180769
0.181173
0.181657
0.182228
0.182891
0.183646
0.184493
0.185433
0.186469
0.187603
0.188835
0.190165
0.19159
0.19311
0.194723
0.196429
0.198222
0.200097
0.202046
0.20407
0.206154
0.208182
0.210264
0.179165
0.179214
0.179256
0.179292
0.179339
0.1794
0.179462
0.179514
0.179556
0.179594
0.179642
0.179713
0.179815
0.179953
0.18013
0.180353
0.18063
0.180968
0.181376
0.181863
0.182433
0.183091
0.183837
0.18467
0.185592
0.186606
0.187713
0.188912
0.190203
0.191584
0.193054
0.194613
0.196259
0.197989
0.199796
0.201675
0.203624
0.205631
0.207574
0.209572
0.179536
0.179516
0.179525
0.179529
0.179553
0.179598
0.179649
0.179695
0.179735
0.179775
0.179827
0.179902
0.18001
0.180153
0.180338
0.180569
0.180855
0.181204
0.181622
0.182115
0.18269
0.183347
0.184088
0.184912
0.185822
0.186818
0.187903
0.189074
0.190331
0.191672
0.193098
0.194608
0.1962
0.197871
0.199615
0.201427
0.203305
0.205237
0.207098
0.209012
0.179909
0.17982
0.179795
0.179769
0.179771
0.1798
0.179841
0.179883
0.179924
0.179969
0.180027
0.18011
0.180224
0.180376
0.18057
0.180814
0.181114
0.181477
0.181908
0.182413
0.182995
0.183657
0.184397
0.185218
0.18612
0.187104
0.188171
0.189319
0.190548
0.191855
0.193242
0.194708
0.196251
0.197867
0.199553
0.2013
0.203111
0.204972
0.206754
0.208587
0.180284
0.180122
0.180065
0.180011
0.179992
0.180006
0.180038
0.180078
0.180121
0.180173
0.180241
0.180333
0.180457
0.18062
0.180828
0.181087
0.181404
0.181785
0.182234
0.182755
0.183349
0.184019
0.184764
0.185586
0.186484
0.187461
0.188515
0.189645
0.190851
0.19213
0.193483
0.19491
0.196408
0.197976
0.199607
0.201295
0.203042
0.204836
0.206542
0.208295
0.180657
0.180422
0.180335
0.180253
0.180215
0.180214
0.180238
0.180277
0.180326
0.180387
0.180466
0.180571
0.180707
0.180885
0.181109
0.181387
0.181725
0.182128
0.182599
0.183139
0.18375
0.184433
0.185187
0.186013
0.186913
0.187886
0.188933
0.190051
0.191239
0.192495
0.19382
0.195213
0.196672
0.198195
0.199776
0.201409
0.203097
0.204826
0.206462
0.208137
0.181028
0.18072
0.180602
0.180495
0.180437
0.180424
0.180441
0.18048
0.180536
0.180609
0.180702
0.180822
0.180974
0.181168
0.181412
0.181713
0.182076
0.182504
0.182999
0.183563
0.184195
0.184895
0.185662
0.186498
0.187404
0.188379
0.189423
0.190533
0.191709
0.192948
0.194249
0.195613
0.197038
0.198521
0.200057
0.20164
0.203272
0.204942
0.20651
0.20811
0.181394
0.181012
0.180867
0.180734
0.180659
0.180633
0.180645
0.180686
0.180751
0.180838
0.180948
0.181084
0.181255
0.18147
0.181736
0.182063
0.182453
0.18291
0.183435
0.184026
0.184682
0.185403
0.186188
0.187038
0.187954
0.188935
0.189981
0.191089
0.192257
0.193484
0.194768
0.196108
0.197504
0.198952
0.200447
0.201984
0.203566
0.205181
0.206687
0.208214
0.181755
0.181299
0.181126
0.18097
0.180878
0.180841
0.180849
0.180893
0.180969
0.181072
0.1812
0.181357
0.181549
0.181787
0.182079
0.182434
0.182856
0.183346
0.183902
0.184524
0.185208
0.185954
0.18676
0.187628
0.188559
0.189552
0.190605
0.191715
0.192881
0.194101
0.195372
0.196694
0.198065
0.199484
0.200944
0.20244
0.203976
0.20554
0.206988
0.208444
0.182107
0.181577
0.181378
0.181199
0.181091
0.181044
0.18105
0.1811
0.181189
0.181309
0.181458
0.181637
0.181853
0.182117
0.182438
0.182825
0.183281
0.183806
0.184398
0.185054
0.18577
0.186544
0.187375
0.188265
0.189215
0.190224
0.191289
0.192407
0.193576
0.194793
0.196056
0.197365
0.198719
0.200113
0.201543
0.203004
0.204498
0.206015
0.207411
0.208799
0.182447
0.181844
0.18162
0.18142
0.181297
0.181242
0.181247
0.181304
0.181407
0.181546
0.181718
0.181922
0.182165
0.182458
0.182811
0.183232
0.183725
0.184289
0.184919
0.185612
0.186362
0.187167
0.188028
0.188944
0.189918
0.190947
0.192028
0.193159
0.194335
0.195555
0.196817
0.198119
0.199459
0.200835
0.20224
0.20367
0.205127
0.206603
0.207952
0.209275
0.182774
0.182098
0.181849
0.181629
0.181493
0.181431
0.181437
0.181503
0.181621
0.181782
0.181977
0.182208
0.18248
0.182805
0.183193
0.183652
0.184185
0.184789
0.185461
0.186193
0.18698
0.18782
0.188713
0.18966
0.190661
0.191715
0.192817
0.193965
0.195154
0.196382
0.197647
0.198947
0.200281
0.201643
0.203029
0.204434
0.20586
0.2073
0.208607
0.209869
0.183082
0.182335
0.182064
0.181823
0.181676
0.18161
0.181619
0.181695
0.18183
0.182012
0.182233
0.182492
0.182796
0.183155
0.183581
0.18408
0.184655
0.185303
0.186018
0.186792
0.187619
0.188497
0.189426
0.190407
0.19144
0.192523
0.19365
0.194819
0.196025
0.197266
0.19854
0.199845
0.201177
0.202532
0.203905
0.20529
0.20669
0.208099
0.209371
0.210575
0.183369
0.182554
0.182259
0.182
0.181843
0.181774
0.181788
0.181877
0.182029
0.182233
0.182481
0.18277
0.183108
0.183505
0.18397
0.184512
0.185131
0.185825
0.186585
0.187403
0.188273
0.189192
0.190161
0.19118
0.192248
0.193363
0.194519
0.195713
0.196941
0.198201
0.199489
0.200803
0.20214
0.203494
0.20486
0.206231
0.207612
0.208996
0.210238
0.211388
0.183632
0.182749
0.182433
0.182156
0.181991
0.181921
0.181942
0.182045
0.182216
0.182444
0.182719
0.18304
0.183413
0.183849
0.184357
0.184944
0.185609
0.18635
0.187157
0.188022
0.188937
0.1899
0.190911
0.191971
0.193078
0.194228
0.195417
0.19664
0.197895
0.199177
0.200485
0.201814
0.203161
0.20452
0.205885
0.207249
0.208617
0.209983
0.211204
0.212303
0.183867
0.18292
0.182582
0.182288
0.182116
0.182048
0.182077
0.182196
0.182388
0.18264
0.182943
0.183297
0.183708
0.184185
0.184737
0.18537
0.186083
0.186872
0.187728
0.188641
0.189604
0.190614
0.19167
0.192774
0.193922
0.195111
0.196335
0.197591
0.198876
0.200186
0.201518
0.202868
0.204231
0.205601
0.206972
0.208336
0.209698
0.211053
0.212261
0.213315
0.18407
0.183061
0.182704
0.182394
0.182216
0.182151
0.182192
0.182326
0.18254
0.182817
0.18315
0.183539
0.183988
0.184508
0.185106
0.185786
0.186548
0.187387
0.188293
0.189256
0.190268
0.191326
0.192431
0.193581
0.194773
0.196003
0.197266
0.198558
0.199876
0.201218
0.202578
0.203954
0.205338
0.206726
0.208109
0.209481
0.210845
0.212198
0.213402
0.214417
0.184238
0.183171
0.182795
0.182471
0.182289
0.182229
0.182281
0.182434
0.18267
0.182974
0.183337
0.183761
0.18425
0.184814
0.185458
0.186187
0.186999
0.187889
0.188845
0.189859
0.190922
0.192031
0.193185
0.194383
0.195621
0.196895
0.198198
0.19953
0.200885
0.202261
0.203654
0.205059
0.206471
0.207882
0.209286
0.210674
0.212048
0.21341
0.21462
0.215603
0.184367
0.183247
0.182853
0.182516
0.182331
0.182277
0.182344
0.182516
0.182775
0.183105
0.1835
0.18396
0.18449
0.185098
0.185789
0.186567
0.187429
0.18837
0.189378
0.190444
0.191558
0.192719
0.193925
0.195173
0.196458
0.197777
0.199124
0.200496
0.201891
0.203305
0.204734
0.206173
0.207616
0.209058
0.210489
0.211902
0.213297
0.214678
0.215908
0.216866
0.184455
0.183286
0.182875
0.182527
0.182341
0.182295
0.182376
0.182568
0.18285
0.183209
0.183635
0.184132
0.184704
0.185357
0.186095
0.186921
0.187834
0.188826
0.189886
0.191003
0.19217
0.193384
0.194641
0.19594
0.197274
0.19864
0.200032
0.201447
0.202884
0.204337
0.205804
0.207281
0.20876
0.210237
0.211703
0.21315
0.214578
0.215991
0.217257
0.218202
0.184496
0.183285
0.18286
0.182502
0.182316
0.182279
0.182375
0.182587
0.182894
0.18328
0.183739
0.184273
0.184887
0.185585
0.18637
0.187245
0.188207
0.189249
0.19036
0.191529
0.192749
0.194016
0.195326
0.196676
0.19806
0.199473
0.200911
0.202372
0.203851
0.205345
0.206853
0.208368
0.209887
0.211405
0.212913
0.214403
0.215876
0.217339
0.218662
0.219607
0.184489
0.183242
0.182804
0.182439
0.182254
0.182226
0.182339
0.182571
0.182902
0.183316
0.183808
0.18438
0.185035
0.185777
0.186609
0.187532
0.188543
0.189635
0.190796
0.192017
0.193289
0.194609
0.195971
0.197372
0.198806
0.200267
0.201752
0.203257
0.20478
0.206316
0.207864
0.20942
0.210981
0.212542
0.214097
0.21564
0.217171
0.218703
0.220111
0.221082
0.18443
0.183152
0.182704
0.182334
0.182152
0.182134
0.182264
0.182517
0.182872
0.183314
0.183839
0.184447
0.185144
0.18593
0.186807
0.187777
0.188836
0.189977
0.191188
0.192459
0.193783
0.195155
0.196569
0.19802
0.199503
0.201012
0.202543
0.204093
0.205658
0.207236
0.208824
0.21042
0.212022
0.213628
0.215233
0.216835
0.218436
0.22006
0.221599
0.222645
0.184315
0.183014
0.182559
0.182186
0.182008
0.182003
0.182149
0.182423
0.182801
0.183271
0.183828
0.184473
0.18521
0.186039
0.186961
0.187976
0.189082
0.19027
0.19153
0.192851
0.194225
0.195646
0.19711
0.198611
0.200142
0.201698
0.203274
0.204867
0.206474
0.208091
0.209717
0.211351
0.212992
0.214638
0.216292
0.217955
0.219638
0.221387
0.223153
0.224416
0.184143
0.182826
0.182366
0.181993
0.181822
0.181829
0.181992
0.182286
0.182688
0.183184
0.183773
0.184454
0.18523
0.186101
0.187066
0.188126
0.189276
0.19051
0.191816
0.193184
0.194607
0.196077
0.197589
0.199136
0.200713
0.202314
0.203933
0.205568
0.207213
0.208867
0.210528
0.212194
0.213866
0.215545
0.217237
0.218951
0.220712
0.22261
0.224693
0.226422
0.246706
0.263763
0.279066
0.291878
0.302388
0.310961
0.317927
0.323647
0.32838
0.332339
0.335674
0.338522
0.34099
0.343155
0.345057
0.346742
0.348253
0.349611
0.350826
0.351918
0.352904
0.353779
0.354541
0.355208
0.355777
0.356251
0.356637
0.356938
0.357149
0.35727
0.357295
0.357231
0.357071
0.356818
0.356472
0.356041
0.355531
0.354912
0.35436
0.353431
0.24443
0.261362
0.276881
0.289816
0.30047
0.309145
0.316192
0.321979
0.326764
0.330763
0.334131
0.337019
0.339516
0.341704
0.343638
0.345362
0.346898
0.348274
0.349517
0.35064
0.351647
0.352542
0.35333
0.354014
0.354601
0.355099
0.355507
0.355821
0.356048
0.356182
0.356228
0.356175
0.356029
0.355789
0.355457
0.355037
0.354537
0.353926
0.353382
0.352459
0.24223
0.258993
0.274718
0.28776
0.298554
0.307328
0.314458
0.320311
0.325149
0.329185
0.332587
0.335514
0.33804
0.340252
0.342217
0.34398
0.345541
0.346936
0.348207
0.349361
0.350389
0.351304
0.352117
0.35282
0.353426
0.353949
0.354379
0.354707
0.35495
0.355098
0.355165
0.355123
0.354992
0.354764
0.354447
0.354037
0.353549
0.352944
0.352409
0.351492
0.240109
0.25666
0.272579
0.285711
0.296641
0.305512
0.312727
0.318643
0.32353
0.327606
0.331046
0.334005
0.336563
0.338804
0.340798
0.342591
0.344179
0.345602
0.346899
0.348077
0.349129
0.350066
0.350903
0.351628
0.352256
0.352799
0.353248
0.353595
0.353856
0.35402
0.354103
0.354076
0.35396
0.353745
0.353442
0.353042
0.352566
0.351968
0.351442
0.350531
0.238073
0.254368
0.270467
0.28367
0.294732
0.303698
0.310998
0.316974
0.32191
0.326027
0.329505
0.332494
0.335084
0.337358
0.33938
0.341197
0.342815
0.34427
0.345591
0.346791
0.347867
0.348829
0.349688
0.350437
0.351089
0.35165
0.352117
0.352486
0.352764
0.352947
0.353043
0.353033
0.352931
0.352733
0.352441
0.352052
0.351587
0.350998
0.35048
0.349576
0.236122
0.252118
0.268384
0.281641
0.29283
0.301885
0.309269
0.315305
0.32029
0.324448
0.327964
0.330983
0.333605
0.335911
0.337961
0.339803
0.341451
0.342936
0.344283
0.345505
0.346606
0.347593
0.348474
0.349247
0.349922
0.350502
0.350988
0.351379
0.351676
0.351876
0.351987
0.351995
0.351907
0.351724
0.351446
0.351068
0.350615
0.350035
0.349525
0.348628
0.234262
0.249915
0.266332
0.279626
0.290936
0.300076
0.30754
0.313636
0.318671
0.32287
0.326424
0.329473
0.332126
0.334463
0.336541
0.338411
0.340087
0.341601
0.342974
0.34422
0.345346
0.346357
0.347262
0.348058
0.348756
0.349357
0.349862
0.350274
0.350589
0.350807
0.350934
0.35096
0.350887
0.35072
0.350456
0.35009
0.349649
0.349078
0.348576
0.347687
0.232494
0.247765
0.264316
0.277627
0.28905
0.298269
0.305813
0.311969
0.317053
0.321292
0.324883
0.327964
0.330647
0.333014
0.335122
0.337019
0.338724
0.340266
0.341665
0.342936
0.344087
0.345121
0.34605
0.34687
0.347591
0.348214
0.348739
0.34917
0.349505
0.349741
0.349884
0.349929
0.349871
0.34972
0.349471
0.349118
0.348689
0.348128
0.347635
0.346753
0.230823
0.245673
0.262339
0.275646
0.287174
0.296468
0.304088
0.310303
0.315437
0.319716
0.323344
0.326456
0.32917
0.331566
0.333704
0.335628
0.337362
0.338932
0.340358
0.341654
0.34283
0.343888
0.344841
0.345684
0.346427
0.347073
0.347617
0.348068
0.348423
0.348678
0.348838
0.348901
0.34886
0.348724
0.348491
0.348152
0.347735
0.347185
0.346699
0.345826
0.22925
0.243643
0.260403
0.273687
0.28531
0.294672
0.302365
0.308638
0.313822
0.318142
0.321805
0.324949
0.327694
0.33012
0.332286
0.334239
0.336001
0.337599
0.339052
0.340373
0.341574
0.342656
0.343633
0.3445
0.345265
0.345933
0.346498
0.346969
0.347344
0.347618
0.347796
0.347877
0.347853
0.347733
0.347517
0.347191
0.346786
0.346248
0.34577
0.344906
0.227779
0.241681
0.258512
0.27175
0.283458
0.292882
0.300646
0.306976
0.312209
0.316569
0.320268
0.323444
0.326219
0.328674
0.33087
0.33285
0.334641
0.336267
0.337748
0.339094
0.34032
0.341427
0.342428
0.343318
0.344106
0.344797
0.345382
0.345873
0.346268
0.346561
0.346758
0.346857
0.346851
0.346747
0.346547
0.346236
0.345843
0.345318
0.344847
0.343991
0.226411
0.239792
0.25667
0.26984
0.281621
0.291098
0.298931
0.305316
0.310599
0.314999
0.318733
0.321941
0.324746
0.32723
0.329455
0.331464
0.333284
0.334938
0.336445
0.337818
0.339069
0.3402
0.341225
0.34214
0.342949
0.343663
0.34427
0.34478
0.345195
0.345508
0.345723
0.345841
0.345854
0.345766
0.345582
0.345287
0.344905
0.344394
0.343932
0.343084
0.225149
0.23798
0.254878
0.267958
0.279799
0.289323
0.29722
0.303659
0.308991
0.313431
0.317201
0.32044
0.323275
0.325788
0.328042
0.33008
0.331928
0.33361
0.335145
0.336544
0.33782
0.338977
0.340025
0.340964
0.341796
0.342532
0.34316
0.343691
0.344126
0.344459
0.344692
0.344829
0.344861
0.34479
0.344622
0.344343
0.343973
0.343475
0.343022
0.342182
0.223995
0.236253
0.25314
0.266106
0.277995
0.287556
0.295514
0.302005
0.307385
0.311866
0.315671
0.318942
0.321807
0.324348
0.326632
0.328698
0.330576
0.332286
0.333848
0.335273
0.336575
0.337757
0.338829
0.339793
0.340646
0.341404
0.342055
0.342604
0.34306
0.343413
0.343666
0.343821
0.343873
0.343819
0.343667
0.343405
0.343047
0.342563
0.34212
0.341286
0.222949
0.234613
0.251459
0.264289
0.276209
0.285799
0.293814
0.300355
0.305783
0.310304
0.314144
0.317446
0.320341
0.322911
0.325224
0.327319
0.329226
0.330964
0.332553
0.334006
0.335333
0.336541
0.337637
0.338625
0.339501
0.34028
0.340953
0.341522
0.341998
0.342372
0.342643
0.342817
0.342889
0.342852
0.342717
0.342472
0.342128
0.341656
0.341223
0.340397
0.222014
0.233067
0.249838
0.262508
0.274443
0.284053
0.29212
0.298709
0.304185
0.308746
0.312621
0.315954
0.318879
0.321478
0.323821
0.325945
0.327879
0.329646
0.331261
0.332742
0.334094
0.335328
0.336448
0.337461
0.338359
0.339159
0.339855
0.340443
0.340939
0.341334
0.341625
0.341817
0.341909
0.34189
0.341772
0.341545
0.341215
0.340756
0.340334
0.339514
0.221189
0.231618
0.248278
0.260767
0.2727
0.282318
0.290432
0.297067
0.302589
0.30719
0.3111
0.314464
0.317421
0.320048
0.322422
0.324574
0.326537
0.328332
0.329974
0.331481
0.33286
0.334119
0.335263
0.3363
0.337221
0.338042
0.338759
0.339368
0.339884
0.340299
0.34061
0.340821
0.340933
0.340933
0.340832
0.340623
0.340308
0.339861
0.339451
0.338638
0.220476
0.230273
0.246783
0.259068
0.270979
0.280596
0.288751
0.295429
0.300998
0.305638
0.309584
0.312979
0.315967
0.318623
0.321027
0.323207
0.325198
0.327021
0.32869
0.330225
0.331628
0.332914
0.334082
0.335143
0.336087
0.336928
0.337667
0.338297
0.338832
0.339268
0.339599
0.339829
0.339961
0.33998
0.339897
0.339706
0.339407
0.338973
0.338575
0.33777
0.219876
0.229036
0.245356
0.257415
0.269283
0.278887
0.287077
0.293796
0.29941
0.30409
0.308071
0.311498
0.314517
0.317203
0.319636
0.321845
0.323863
0.325715
0.32741
0.328972
0.330401
0.331713
0.332905
0.333989
0.334957
0.335818
0.336578
0.337229
0.337783
0.338239
0.338592
0.33884
0.338992
0.339032
0.338967
0.338794
0.338512
0.338092
0.337706
0.336909
0.219388
0.227911
0.243999
0.255811
0.267614
0.277194
0.285412
0.292167
0.297826
0.302546
0.306562
0.310022
0.313072
0.315788
0.31825
0.320488
0.322533
0.324413
0.326135
0.327723
0.329178
0.330516
0.331732
0.332838
0.33383
0.334711
0.335492
0.336164
0.336737
0.337214
0.337587
0.337855
0.338027
0.338088
0.338042
0.337887
0.337623
0.337217
0.336844
0.336055
0.219011
0.226901
0.242714
0.254259
0.265974
0.275517
0.283755
0.290543
0.296246
0.301005
0.305057
0.308551
0.311633
0.314378
0.316869
0.319135
0.321208
0.323115
0.324864
0.326479
0.32796
0.329322
0.330563
0.331691
0.332707
0.333608
0.33441
0.335102
0.335695
0.336192
0.336586
0.336873
0.337066
0.337147
0.337121
0.336985
0.336741
0.336349
0.33599
0.335209
0.218746
0.226012
0.241503
0.25276
0.264364
0.273858
0.282108
0.288925
0.29467
0.299469
0.303557
0.307084
0.310198
0.312974
0.315493
0.317787
0.319887
0.321822
0.323598
0.325239
0.326746
0.328133
0.329398
0.330548
0.331587
0.332509
0.33333
0.334044
0.334656
0.335172
0.335587
0.335894
0.336108
0.336211
0.336205
0.336088
0.335864
0.335488
0.335142
0.334371
0.21859
0.225245
0.24037
0.251319
0.262786
0.272219
0.280472
0.287312
0.293098
0.297936
0.302062
0.305623
0.308769
0.311575
0.314122
0.316445
0.318573
0.320534
0.322337
0.324005
0.325537
0.326949
0.328238
0.32941
0.33047
0.331413
0.332254
0.332989
0.33362
0.334156
0.334592
0.334919
0.335153
0.335277
0.335293
0.335196
0.334992
0.334634
0.334303
0.33354
0.218542
0.224603
0.239315
0.249939
0.261244
0.2706
0.278847
0.285704
0.29153
0.296407
0.300571
0.304167
0.307346
0.310182
0.312758
0.315109
0.317264
0.319251
0.321082
0.322775
0.324334
0.32577
0.327083
0.328276
0.329358
0.330321
0.331182
0.331937
0.332587
0.333142
0.333599
0.333946
0.3342
0.334347
0.334384
0.334308
0.334127
0.333788
0.333471
0.332718
0.2186
0.224088
0.238342
0.248622
0.259739
0.269004
0.277233
0.284103
0.289966
0.294883
0.299084
0.302716
0.305928
0.308794
0.3114
0.313778
0.315961
0.317975
0.319832
0.321552
0.323137
0.324596
0.325932
0.327147
0.32825
0.329234
0.330113
0.330888
0.331558
0.332132
0.332608
0.332977
0.333251
0.333419
0.333479
0.333426
0.333267
0.332948
0.332647
0.331905
0.218761
0.223702
0.237451
0.247371
0.258273
0.267434
0.275633
0.282508
0.288407
0.293363
0.297601
0.301269
0.304515
0.307413
0.310048
0.312453
0.314664
0.316704
0.318589
0.320334
0.321945
0.323427
0.324786
0.326022
0.327146
0.32815
0.329048
0.329844
0.330532
0.331125
0.331621
0.332011
0.332305
0.332495
0.332578
0.332548
0.332413
0.332116
0.331831
0.331101
0.219023
0.223445
0.236645
0.24619
0.256849
0.265891
0.274047
0.280921
0.286853
0.291848
0.296123
0.299829
0.303108
0.306037
0.308702
0.311135
0.313374
0.31544
0.317352
0.319122
0.320758
0.322264
0.323645
0.324903
0.326046
0.327071
0.327987
0.328803
0.329509
0.330122
0.330636
0.331047
0.331361
0.331573
0.33168
0.331674
0.331565
0.331291
0.331025
0.330307
0.219381
0.223316
0.235924
0.245081
0.255472
0.264378
0.272479
0.279343
0.285306
0.290337
0.294651
0.298393
0.301707
0.304668
0.307363
0.309823
0.31209
0.314182
0.316121
0.317916
0.319577
0.321107
0.322509
0.323789
0.324951
0.325997
0.32693
0.327765
0.32849
0.329122
0.329654
0.330086
0.33042
0.330654
0.330785
0.330804
0.330721
0.330473
0.330228
0.329523
0.219831
0.223316
0.23529
0.244047
0.254143
0.262896
0.270931
0.277775
0.283767
0.288832
0.293183
0.296964
0.300312
0.303306
0.30603
0.308518
0.310812
0.312932
0.314896
0.316717
0.318402
0.319955
0.321379
0.32268
0.323861
0.324927
0.325878
0.326732
0.327475
0.328125
0.328676
0.329127
0.329481
0.329737
0.329892
0.329938
0.329883
0.329662
0.32944
0.328751
0.220369
0.223441
0.234744
0.24309
0.252866
0.26145
0.269403
0.276218
0.282234
0.287332
0.291721
0.295539
0.298924
0.30195
0.304704
0.30722
0.309542
0.311688
0.313679
0.315525
0.317234
0.31881
0.320254
0.321576
0.322776
0.323861
0.324831
0.325702
0.326463
0.327132
0.3277
0.328171
0.328544
0.328822
0.329001
0.329074
0.329049
0.328858
0.328661
0.327991
0.220989
0.223687
0.234287
0.242214
0.251644
0.260043
0.2679
0.274674
0.280709
0.285837
0.290264
0.294121
0.297541
0.3006
0.303385
0.305929
0.308278
0.310451
0.312468
0.314339
0.316071
0.31767
0.319135
0.320478
0.321696
0.3228
0.323788
0.324677
0.325455
0.326142
0.326727
0.327216
0.327609
0.327908
0.328112
0.328213
0.328219
0.328061
0.327893
0.327244
0.221687
0.224049
0.233918
0.241419
0.25048
0.258676
0.266422
0.273145
0.279193
0.284348
0.288812
0.292707
0.296164
0.299257
0.302072
0.304646
0.307022
0.309222
0.311265
0.31316
0.314915
0.316536
0.318022
0.319384
0.320621
0.321744
0.322749
0.323655
0.324451
0.325154
0.325756
0.326263
0.326675
0.326996
0.327224
0.327353
0.327392
0.32727
0.327135
0.326513
0.222456
0.224519
0.233636
0.24071
0.249378
0.257354
0.264975
0.271633
0.277686
0.282865
0.287365
0.291299
0.294794
0.29792
0.300767
0.30337
0.305774
0.308001
0.310069
0.311987
0.313766
0.315408
0.316914
0.318296
0.319552
0.320691
0.321715
0.322637
0.32345
0.324169
0.324786
0.325312
0.325741
0.326084
0.326337
0.326496
0.326569
0.326486
0.326389
0.325799
0.223288
0.225089
0.233441
0.240087
0.248342
0.25608
0.263562
0.27014
0.276192
0.281391
0.285924
0.289897
0.293429
0.296591
0.299469
0.302103
0.304534
0.306787
0.30888
0.310822
0.312623
0.314286
0.315812
0.317213
0.318487
0.319643
0.320684
0.321622
0.322451
0.323185
0.323818
0.324361
0.324809
0.325173
0.32545
0.325639
0.325748
0.325708
0.325654
0.325106
0.224177
0.225749
0.233334
0.239553
0.247377
0.254858
0.262185
0.268669
0.27471
0.279924
0.28449
0.288501
0.292071
0.295268
0.298179
0.300843
0.303302
0.305582
0.3077
0.309664
0.311487
0.31317
0.314716
0.316134
0.317427
0.318599
0.319657
0.32061
0.321454
0.322203
0.322852
0.323411
0.323877
0.324263
0.324564
0.324783
0.324928
0.324935
0.32493
0.324435
0.225118
0.22649
0.233315
0.23911
0.246488
0.253691
0.260848
0.267224
0.273243
0.278467
0.283062
0.287111
0.290719
0.293953
0.296897
0.299593
0.302079
0.304385
0.306527
0.308514
0.310358
0.312061
0.313625
0.315061
0.316371
0.317559
0.318634
0.319601
0.32046
0.321223
0.321887
0.322463
0.322946
0.323352
0.323678
0.323927
0.324109
0.324166
0.324219
0.323791
0.226107
0.227302
0.23339
0.238765
0.24568
0.252586
0.259557
0.265809
0.271793
0.277022
0.281643
0.285729
0.289374
0.292647
0.295625
0.298351
0.300865
0.303197
0.305364
0.307372
0.309237
0.310959
0.312541
0.313994
0.315321
0.316524
0.317614
0.318594
0.319468
0.320244
0.320923
0.321514
0.322015
0.322441
0.322792
0.323069
0.32329
0.323401
0.32352
0.323179
0.227078
0.228133
0.233533
0.238507
0.244951
0.251543
0.258311
0.264427
0.270363
0.275589
0.280234
0.284354
0.288037
0.291347
0.294358
0.297115
0.299657
0.302014
0.304204
0.306234
0.308118
0.309857
0.311458
0.312926
0.31427
0.315488
0.316592
0.317586
0.318474
0.319264
0.319957
0.320564
0.321082
0.321528
0.321901
0.322208
0.322466
0.322634
0.322829
0.322605
0.227955
0.228899
0.233654
0.238254
0.244237
0.25051
0.257071
0.263045
0.268923
0.274142
0.278805
0.282958
0.286677
0.290025
0.29307
0.295858
0.29843
0.300813
0.303027
0.30508
0.306985
0.308743
0.310363
0.311849
0.313209
0.314442
0.315562
0.316569
0.317471
0.318275
0.318983
0.319605
0.320141
0.320606
0.321003
0.321339
0.321634
0.321862
0.322144
0.322077
0.229528
0.230138
0.234117
0.238221
0.243654
0.249537
0.255848
0.261636
0.267432
0.272626
0.277298
0.281482
0.285245
0.288644
0.291739
0.294575
0.297189
0.29961
0.301856
0.303937
0.305865
0.307645
0.309284
0.310787
0.312162
0.313411
0.314543
0.315563
0.316478
0.317294
0.318015
0.31865
0.319202
0.319684
0.320102
0.320464
0.320794
0.32108
0.321454
0.3216
0.239389
0.238748
0.240449
0.242414
0.245336
0.249031
0.253693
0.258128
0.26321
0.268043
0.272635
0.276935
0.28092
0.284584
0.287932
0.290989
0.29378
0.296335
0.29868
0.300836
0.302821
0.304646
0.306321
0.307854
0.309253
0.310524
0.311676
0.312713
0.313647
0.314482
0.315226
0.315886
0.316471
0.31699
0.317453
0.317874
0.318283
0.318707
0.319322
0.32019
0.242356
0.241478
0.242522
0.243228
0.244488
0.246423
0.249461
0.253265
0.257361
0.261721
0.266096
0.270416
0.274551
0.278415
0.281965
0.285196
0.288128
0.29079
0.293216
0.295433
0.297465
0.299328
0.301034
0.302593
0.304016
0.305309
0.30648
0.307538
0.30849
0.309342
0.310104
0.310782
0.311385
0.311924
0.31241
0.312861
0.313311
0.313817
0.314584
0.315782
0.242447
0.241576
0.242341
0.242381
0.242574
0.243194
0.24493
0.248166
0.25122
0.255221
0.259473
0.263869
0.268202
0.272308
0.276091
0.279519
0.2826
0.285369
0.287867
0.290132