/*--------------------------------*- C++ -*----------------------------------*\
  =========                 |
  \\      /  F ield         | OpenFOAM: The Open Source CFD Toolbox
   \\    /   O peration     | Website:  https://openfoam.org
    \\  /    A nd           | Version:  7
     \\/     M anipulation  |
\*---------------------------------------------------------------------------*/
FoamFile
{
    version     2.0;
    format      ascii;
    class       volScalarField;
    location    "41";
    object      p;
}
// * * * * * * * * * * * * * * * * * * * * * * * * * * * * * * * * * * * * * //

dimensions      [0 2 -2 0 0 0 0];

internalField   nonuniform List<scalar> 
2000
(
0.00524051
0.00602449
0.00682143
0.00769704
0.00851504
0.00919661
0.00970516
0.0100405
0.0102355
0.010345
0.00470489
0.00556942
0.00636472
0.00721993
0.00800129
0.00862743
0.00905603
0.0092782
0.0093145
0.0092115
0.00407697
0.00504062
0.00583154
0.00666115
0.00740053
0.00796822
0.00831858
0.00843577
0.0083294
0.0080312
0.00337044
0.00445252
0.00523797
0.00603768
0.00672882
0.00723203
0.00750126
0.00751651
0.00728008
0.00680574
0.00260305
0.00382347
0.00460442
0.00537097
0.0060067
0.0064359
0.00661543
0.00652492
0.00616507
0.00553384
0.00179846
0.00317519
0.00395458
0.00468592
0.00525839
0.00560092
0.00567656
0.00546905
0.00498424
0.00421157
0.000984524
0.00253178
0.00331406
0.00400916
0.00451018
0.00475138
0.00470501
0.00436321
0.00374297
0.00283559
0.000194095
0.00191906
0.00270921
0.00336749
0.00378924
0.00391484
0.00372828
0.00323291
0.00245977
0.00141282
-0.000535942
0.00136401
0.00216641
0.00278726
0.00312338
0.00312347
0.00278621
0.00212721
0.00118876
-9.87883e-06
-0.00116548
0.000894727
0.00171249
0.00229465
0.00254077
0.00241253
0.00192873
0.00112176
4.42275e-05
-0.00128803
0.0105812
0.0126681
0.017159
0.023628
0.030503
0.0373365
0.0427505
0.0479397
0.0504759
0.0528692
0.00893676
0.0102066
0.013925
0.0199081
0.0264816
0.0331705
0.0384571
0.0435882
0.0461237
0.048472
0.00723215
0.00778715
0.0107129
0.0161906
0.0224828
0.0290526
0.034269
0.0393799
0.0419092
0.0442464
0.00547012
0.00543799
0.00755755
0.01251
0.0185329
0.0249953
0.0301817
0.0352897
0.0378503
0.0401966
0.00365713
0.00317295
0.00449247
0.0089113
0.0146727
0.0210384
0.0262236
0.0313467
0.0339796
0.0363427
0.00180653
0.000993612
0.00154596
0.00542572
0.0109085
0.0171699
0.0223661
0.0275185
0.0302561
0.0326609
-5.39954e-05
-0.00111452
-0.00125648
0.00211147
0.00731266
0.0134638
0.0186785
0.0238706
0.0267195
0.0291668
-0.0018746
-0.00316674
-0.00389962
-0.00106102
0.00381071
0.00982532
0.015062
0.0203029
0.0232853
0.025811
-0.00361817
-0.00518918
-0.00629346
-0.00391174
0.000616917
0.00644384
0.0116758
0.0169423
0.0200458
0.0226244
-0.00527893
-0.0071531
-0.00860208
-0.0067963
-0.00267792
0.00293682
0.00818618
0.0134975
0.0168109
0.0195067
-0.00626127
-0.0083423
-0.0105615
-0.0105375
-0.00806795
-0.00365209
0.00125497
0.00627655
0.00994262
0.0124961
-0.0141967
-0.0165517
-0.0183587
-0.018405
-0.0165402
-0.0129106
-0.00848255
-0.00370564
3.28397e-05
0.0026352
-0.0185637
-0.0209558
-0.0230232
-0.0235497
-0.0223385
-0.0194897
-0.0158134
-0.0114655
-0.00794518
-0.00526018
-0.0204708
-0.0221825
-0.0240048
-0.0247799
-0.0242122
-0.0221096
-0.0195273
-0.0160569
-0.013056
-0.0106985
-0.0200812
-0.0209131
-0.0221794
-0.0228414
-0.0226442
-0.0213715
-0.0194838
-0.0169807
-0.0147345
-0.0129708
-0.0178183
-0.0179643
-0.0186347
-0.0190865
-0.0190628
-0.018326
-0.0171022
-0.0153615
-0.0136881
-0.0124229
-0.0139837
-0.0138103
-0.0141236
-0.0144614
-0.0145275
-0.0141248
-0.0134282
-0.0123071
-0.0111483
-0.0101405
-0.00957031
-0.00923926
-0.00930898
-0.0095612
-0.00970972
-0.00957655
-0.00929714
-0.00872217
-0.00811048
-0.0074019
-0.00504062
-0.00483122
-0.00492293
-0.00514038
-0.00527237
-0.00522384
-0.00515799
-0.00495252
-0.00484936
-0.00450766
-0.00106998
-0.000901961
-0.000991813
-0.00120339
-0.00138705
-0.00145618
-0.00155099
-0.00149786
-0.00164432
-0.00153017
-0.00593711
-0.012694
-0.016853
-0.0190224
-0.0189666
-0.0171103
-0.0138918
-0.00961637
-0.00516185
-0.00125201
-0.00669679
-0.0129123
-0.0167446
-0.0187201
-0.0186246
-0.0167727
-0.01331
-0.00943932
-0.00510524
-0.00129587
-0.00731972
-0.013011
-0.0166068
-0.0184355
-0.0182699
-0.0164238
-0.0131359
-0.00926446
-0.00504199
-0.00133786
-0.00770066
-0.0129103
-0.0163143
-0.0180515
-0.0178533
-0.0160505
-0.0128838
-0.00908848
-0.00499253
-0.00138869
-0.00780689
-0.0126254
-0.0158864
-0.0175696
-0.0173674
-0.0156358
-0.0125929
-0.00888634
-0.00494149
-0.00143054
-0.00760385
-0.0121409
-0.0153066
-0.0169826
-0.016803
-0.0151703
-0.0122728
-0.00867994
-0.00488346
-0.00145418
-0.00707435
-0.0114476
-0.0145571
-0.0162757
-0.0161533
-0.0146469
-0.0119199
-0.00846451
-0.00481714
-0.0014759
-0.00618547
-0.0105462
-0.0136455
-0.0154415
-0.015414
-0.0140566
-0.0114921
-0.00823828
-0.00472585
-0.00149031
-0.00497017
-0.00944538
-0.0125702
-0.014482
-0.0145818
-0.0134
-0.0110242
-0.00797727
-0.00463595
-0.00149043
-0.00348726
-0.00816038
-0.0113491
-0.0134098
-0.0136657
-0.0126822
-0.0105183
-0.00768532
-0.00452636
-0.00147548
-0.00180454
-0.00673102
-0.0100085
-0.012245
-0.0126798
-0.011911
-0.00997546
-0.00736073
-0.00439035
-0.0014422
2.77697e-05
-0.00519864
-0.00857761
-0.0110091
-0.0116415
-0.0110973
-0.00940092
-0.00700681
-0.00422957
-0.00139187
0.00196976
-0.00359126
-0.00708545
-0.00972217
-0.0105688
-0.0102535
-0.00880338
-0.00663018
-0.00404845
-0.00132863
0.00398288
-0.00193259
-0.00555867
-0.00840263
-0.0094781
-0.00939051
-0.00818955
-0.00623496
-0.00384894
-0.00125562
0.00603548
-0.000239668
-0.00402041
-0.00706648
-0.00838345
-0.00851846
-0.00756576
-0.00582561
-0.00363369
-0.00117574
0.00809672
0.00147231
-0.00249254
-0.00572824
-0.00729591
-0.00764632
-0.00693776
-0.0054068
-0.00340579
-0.00109151
0.0101232
0.0031841
-0.000993939
-0.0044002
-0.00622343
-0.00678234
-0.00631085
-0.00498293
-0.00316813
-0.00100482
0.0121175
0.00492233
0.000490664
-0.0030779
-0.00516649
-0.00593363
-0.00569215
-0.00456002
-0.00292437
-0.000916862
0.0142267
0.00682658
0.00203412
-0.00172685
-0.00410916
-0.0050968
-0.00508474
-0.00414408
-0.00267805
-0.000827489
0.0160527
0.00871092
0.00352973
-0.000401633
-0.00304964
-0.00425205
-0.0044556
-0.00371184
-0.00241471
-0.000734502
0.0172231
0.0116229
0.0063465
0.00238619
-0.000546098
-0.00218497
-0.00283231
-0.00255365
-0.0017016
-0.00052239
0.0186421
0.0136653
0.00892445
0.00523941
0.00231386
0.000426411
-0.000659732
-0.00090869
-0.000630796
-9.40386e-05
0.021066
0.0161958
0.0115274
0.00784952
0.00477986
0.00263196
0.00118503
0.000534379
0.000357608
0.000339634
0.0236404
0.0187183
0.0140128
0.010228
0.00695769
0.00453934
0.00277724
0.0018115
0.00128669
0.000794511
0.0264442
0.021282
0.0164162
0.0124286
0.00891122
0.00621873
0.00418144
0.00297311
0.00218853
0.00127974
0.0294626
0.0239317
0.0187795
0.0144893
0.0106982
0.00773722
0.00546601
0.00406277
0.0030697
0.0017747
0.0326193
0.026605
0.0210441
0.0164038
0.0123653
0.00915842
0.00668777
0.00508463
0.00385441
0.00214837
0.0355139
0.0286872
0.0230064
0.0181637
0.0139242
0.0104966
0.00783684
0.00595495
0.00433846
0.00219163
0.037978
0.0315129
0.0252212
0.0197722
0.0152083
0.0115842
0.00873568
0.00649734
0.00439601
0.00191183
0.0400248
0.0320029
0.0255702
0.0202525
0.0158133
0.0122024
0.00925838
0.00677041
0.00435761
0.00169731
0.0212323
0.0225712
0.0247354
0.0272097
0.030139
0.0333526
0.036637
0.040897
0.0420182
0.0460923
0.0227795
0.024429
0.0266335
0.0291848
0.0322419
0.035588
0.0390352
0.0431382
0.0446334
0.0480713
0.023999
0.0260926
0.0285606
0.0314211
0.034764
0.0383755
0.0420956
0.0457799
0.0479678
0.0499203
0.0251715
0.0275171
0.0302175
0.033408
0.0370455
0.0409357
0.0449291
0.0485299
0.0511651
0.0523489
0.0264145
0.0289587
0.0318307
0.0352797
0.0391454
0.0432528
0.0474669
0.0512373
0.0541284
0.0552975
0.0276886
0.0304951
0.0335713
0.0372483
0.0412992
0.0455748
0.049956
0.0539506
0.0570281
0.058499
0.0289632
0.0320844
0.0354398
0.039367
0.043613
0.0480592
0.0525925
0.0567798
0.060021
0.0617839
0.0302488
0.0336984
0.0373891
0.0415936
0.0460689
0.0507193
0.0554279
0.0597857
0.0631758
0.0651165
0.0315647
0.0353377
0.0393981
0.0438876
0.0486219
0.0535085
0.0584289
0.062966
0.0664973
0.0685274
0.0329247
0.0370043
0.0414666
0.0462322
0.0512476
0.0563867
0.0615505
0.0662905
0.069966
0.0720503
0.0343404
0.0386857
0.0435952
0.0486169
0.053939
0.059335
0.0647684
0.0697346
0.0735655
0.0757019
0.035814
0.040352
0.0457727
0.0510218
0.0566885
0.0623426
0.0680719
0.0732838
0.0772867
0.0794835
0.0373145
0.0419775
0.0479674
0.0534252
0.0594781
0.0654104
0.0714648
0.0769394
0.081134
0.0833996
0.0387896
0.0435529
0.050131
0.0558124
0.0622795
0.0685419
0.0749413
0.0807003
0.0851098
0.0874658
0.0401788
0.045081
0.0522104
0.058182
0.0650526
0.0717713
0.0785123
0.0845766
0.0892172
0.0916672
0.0414138
0.046565
0.054141
0.0605534
0.0678317
0.0749935
0.0821183
0.0885315
0.0934339
0.0959916
0.0424273
0.047997
0.0559867
0.0628782
0.0705712
0.0781839
0.0857574
0.0925677
0.0977632
0.100453
0.0431228
0.0493973
0.0576468
0.065026
0.0731542
0.0812553
0.0893421
0.0966185
0.102171
0.105042
0.0434953
0.0508052
0.0591547
0.067061
0.0756549
0.0842948
0.0929355
0.100722
0.106681
0.109791
0.0432978
0.0516365
0.0601115
0.06854
0.0776051
0.0868418
0.0961456
0.10462
0.111172
0.114657
0.0451906
0.0556954
0.064517
0.0739348
0.083942
0.0943771
0.104978
0.114819
0.122574
0.126888
0.0567914
0.0665635
0.0756942
0.0865491
0.0981684
0.110543
0.123219
0.135024
0.144339
0.149431
0.0687232
0.0789759
0.089245
0.101799
0.115225
0.129849
0.144725
0.158469
0.169229
0.175133
0.0805906
0.0919273
0.10405
0.118655
0.134352
0.151693
0.168933
0.184701
0.196855
0.203353
0.0925515
0.105396
0.119727
0.136659
0.155072
0.175421
0.195121
0.213006
0.226457
0.233739
0.105088
0.119605
0.136348
0.155844
0.17729
0.200713
0.222904
0.242874
0.257295
0.26464
0.117738
0.134158
0.153315
0.17548
0.200004
0.22625
0.250904
0.272646
0.287524
0.295547
0.1303
0.148494
0.170017
0.194801
0.222228
0.25094
0.278189
0.301516
0.316257
0.322366
0.139904
0.159593
0.182964
0.209767
0.239364
0.269968
0.299535
0.324259
0.339133
0.345927
0.146764
0.167291
0.191883
0.220039
0.251083
0.283221
0.31498
0.342977
0.361546
0.352307
0.0413954
0.052358
0.0630365
0.0742316
0.0853164
0.0972818
0.108802
0.120801
0.129711
0.136345
0.0408701
0.052149
0.0624581
0.0733469
0.0840692
0.0957015
0.106722
0.118328
0.126617
0.132974
0.041137
0.0529594
0.0632062
0.0739701
0.0844792
0.0957762
0.106362
0.117364
0.12479
0.130641
0.0409981
0.0530275
0.063226
0.0739669
0.0843343
0.0953825
0.105619
0.116126
0.12294
0.128332
0.040671
0.0526844
0.062758
0.0733917
0.0835694
0.0943465
0.104242
0.114345
0.120787
0.125845
0.0403311
0.0522948
0.0623076
0.0727752
0.0827247
0.0931823
0.10271
0.112426
0.118581
0.123388
0.039961
0.0518928
0.0619894
0.07231
0.0820715
0.092231
0.101408
0.11076
0.116634
0.121224
0.0395453
0.0514876
0.0617286
0.0719612
0.0816131
0.091548
0.100449
0.10949
0.115109
0.119496
0.0391066
0.0511256
0.0614963
0.0716822
0.0813058
0.0910795
0.0998118
0.108572
0.114036
0.118212
0.0386786
0.0508372
0.061327
0.0715068
0.0811247
0.0907882
0.0994578
0.107927
0.113384
0.117319
0.0382956
0.0506349
0.0612512
0.0714637
0.0810855
0.0906911
0.0993295
0.107586
0.113066
0.116796
0.037941
0.0504906
0.0612601
0.0715466
0.0811991
0.0907976
0.0994213
0.107559
0.113044
0.116636
0.037562
0.0503552
0.0613238
0.0717329
0.0814609
0.0911078
0.0997473
0.107846
0.113328
0.116834
0.037137
0.0502113
0.0614278
0.0720076
0.0818625
0.0916121
0.100309
0.108432
0.113921
0.117382
0.0366578
0.0500605
0.0615683
0.0723654
0.0824021
0.0923061
0.101113
0.109315
0.114832
0.11827
0.0360895
0.0498834
0.0617222
0.0727849
0.0830577
0.0931637
0.102136
0.110466
0.116039
0.119487
0.0354067
0.0496805
0.0618827
0.0732618
0.0838307
0.0941932
0.103396
0.111893
0.117553
0.121028
0.0344798
0.0493509
0.0619582
0.0737119
0.0846342
0.0953043
0.104806
0.113524
0.119325
0.122883
0.033451
0.0490339
0.0620432
0.0742101
0.0855413
0.0965684
0.106433
0.115407
0.121391
0.125057
0.031535
0.0480679
0.0616056
0.074268
0.0860721
0.0975286
0.107883
0.117269
0.123605
0.127543
0.031345
0.0484564
0.0627726
0.0764017
0.0892766
0.101607
0.112975
0.123068
0.130168
0.13443
0.0416172
0.0581046
0.0721707
0.0865772
0.100566
0.114269
0.127215
0.138696
0.146856
0.151382
0.053693
0.0706008
0.0851924
0.10085
0.116157
0.131643
0.146524
0.159809
0.169259
0.174181
0.0656274
0.0834164
0.0994867
0.117109
0.134483
0.1527
0.170297
0.186195
0.197677
0.203417
0.0772475
0.096119
0.114262
0.134312
0.154552
0.176446
0.197645
0.21742
0.232189
0.239596
0.0883358
0.108549
0.129385
0.152203
0.176121
0.202377
0.228188
0.253541
0.273613
0.284869
0.0982781
0.120399
0.143977
0.169823
0.198008
0.228928
0.260524
0.293335
0.321688
0.3415
0.107503
0.131515
0.1578
0.186897
0.219475
0.255255
0.294087
0.336352
0.377535
0.415268
0.113125
0.138779
0.167172
0.198862
0.235012
0.275695
0.322787
0.376718
0.438288
0.508244
0.116683
0.144826
0.175084
0.209166
0.248622
0.294525
0.350007
0.418264
0.508942
0.625261
0.0252142
0.0342371
0.04423
0.0543577
0.0646707
0.0755558
0.0841449
0.0933614
0.0985066
0.0999081
0.0234189
0.0321582
0.0415555
0.0514702
0.061168
0.0717264
0.0796518
0.0888226
0.0934148
0.0954905
0.0222703
0.0309157
0.0401397
0.050073
0.0594969
0.0694976
0.076761
0.085504
0.0893494
0.0932037
0.0209243
0.029123
0.0380779
0.0477758
0.0571699
0.0666654
0.0734286
0.0816479
0.0849138
0.0897685
0.0195018
0.0269629
0.0354313
0.0446687
0.0538452
0.0629298
0.0693025
0.0770127
0.0798226
0.0847146
0.0180861
0.0247081
0.032597
0.0413349
0.0500241
0.05874
0.0648183
0.0719851
0.0744126
0.0788013
0.0166587
0.0223995
0.0296862
0.0379701
0.0461604
0.0543371
0.0603919
0.0669306
0.0690938
0.0728635
0.0152012
0.0200259
0.0266774
0.0345291
0.0423278
0.0499938
0.0559707
0.0619846
0.0640898
0.0673224
0.0137064
0.0175986
0.0235674
0.0309736
0.0384561
0.0457438
0.0515395
0.0571329
0.0594214
0.0622185
0.0121683
0.0151393
0.0203835
0.0273249
0.0345082
0.04153
0.0471203
0.0524451
0.0549101
0.0574334
-0.00164922
0.000542659
0.00137681
0.0019174
0.00206986
0.00181473
0.00119666
0.000270838
-0.000887365
-0.00220443
-0.00192499
0.000348744
0.0011935
0.00168615
0.00174084
0.00136105
0.000617982
-0.000412604
-0.00164382
-0.00300141
-0.00194954
0.000346572
0.00119593
0.00163418
0.00158791
0.00108685
0.000227532
-0.000896342
-0.00218666
-0.00357308
-0.00167589
0.000575672
0.00142182
0.0017981
0.00164822
0.00103042
6.3554e-05
-0.00114449
-0.00248789
-0.00390467
-0.00105879
0.00107669
0.00190855
0.0022136
0.00195759
0.00122834
0.000162826
-0.00112125
-0.00251521
-0.00396866
-6.13245e-05
0.00188595
0.00268812
0.00291038
0.00254509
0.00170966
0.00055423
-0.000797892
-0.00223985
-0.00373354
0.00134117
0.00303119
0.00378243
0.00390732
0.00342784
0.00249058
0.00125315
-0.000159548
-0.00164565
-0.00317839
0.00315853
0.00452725
0.00519968
0.00521056
0.00460583
0.00357085
0.00225842
0.000791836
-0.000732354
-0.00229616
0.00537878
0.00636931
0.00693116
0.00681243
0.00605847
0.00493279
0.00355078
0.00203871
0.000483509
-0.001111
0.00794435
0.00852279
0.00894436
0.00865402
0.00778335
0.0065491
0.00509808
0.00354531
0.00196646
0.000351389
0.010745
0.0109313
0.0111867
0.010717
0.00970894
0.00837118
0.00685402
0.00526532
0.00367071
0.00204117
0.0138301
0.0135719
0.0136137
0.0129424
0.0117837
0.0103434
0.00876354
0.00714456
0.00554259
0.00390392
0.0170903
0.016358
0.0161537
0.0152646
0.01395
0.0124092
0.0107712
0.00912795
0.00752707
0.00588582
0.020416
0.0192015
0.0187292
0.0176142
0.0161446
0.0145086
0.0128192
0.0111593
0.00956919
0.0079352
0.0237014
0.0220118
0.0212609
0.0199212
0.0183043
0.0165829
0.0148519
0.0131849
0.0116174
0.0100051
0.0268397
0.0246975
0.0236711
0.0221187
0.0203693
0.0185772
0.0168179
0.0151555
0.0136243
0.0120527
0.0297269
0.0271711
0.0258884
0.0241468
0.0222872
0.0204439
0.0186729
0.0170285
0.0155467
0.0140332
0.0322679
0.0293542
0.0278506
0.0259552
0.0240151
0.0221452
0.0203826
0.018769
0.0173414
0.0158962
0.0343809
0.0311804
0.0295076
0.0275058
0.0255225
0.0236546
0.0219206
0.0203405
0.0189497
0.0175908
0.0359999
0.0325976
0.0308219
0.0287738
0.0267952
0.0249663
0.0232848
0.0217305
0.0203455
0.0191322
0.0370773
0.0335686
0.0317675
0.0297442
0.027833
0.0261072
0.0245625
0.0231576
0.0219503
0.0213172
0.0375817
0.0340676
0.0323241
0.0303987
0.0286123
0.0270311
0.0256473
0.0244094
0.0233575
0.0228415
0.0374977
0.0340861
0.032484
0.0307262
0.0291164
0.0277137
0.0265084
0.0254481
0.0245448
0.0240656
0.0368378
0.0336341
0.0322533
0.0307294
0.0293463
0.0281593
0.0271606
0.0263036
0.0255827
0.0251934
0.0356379
0.0327386
0.0316525
0.030425
0.0293174
0.0283849
0.0276245
0.0269982
0.026491
0.0262478
0.0339537
0.0314422
0.0307154
0.0298418
0.0290559
0.0284155
0.0279246
0.0275541
0.0272848
0.0272241
0.0318572
0.0298
0.029486
0.0290167
0.0285946
0.028281
0.0280882
0.027997
0.027987
0.0281356
0.0294304
0.0278752
0.0280146
0.0279914
0.0279695
0.0280129
0.0281432
0.0283518
0.0286207
0.0290031
0.0267623
0.0257346
0.0263539
0.0268085
0.027216
0.0276412
0.0281151
0.0286404
0.029205
0.0298441
0.0239596
0.0234505
0.0245579
0.0255096
0.0263674
0.0271929
0.028026
0.0288808
0.029754
0.0306701
0.0211616
0.021112
0.0226865
0.0241374
0.0254559
0.0266927
0.0278947
0.0290871
0.0302768
0.0314867
0.0183172
0.0187321
0.0207687
0.0227187
0.0245024
0.0261561
0.0277321
0.0292656
0.0307737
0.0322884
0.0155154
0.0163711
0.0188459
0.0212818
0.0235267
0.0255959
0.027545
0.0294172
0.0312378
0.0330578
0.01283
0.0140821
0.0169546
0.01985
0.0225427
0.025019
0.0273344
0.0295372
0.0316566
0.0337687
0.0103049
0.011905
0.0151227
0.018441
0.0215594
0.0244278
0.0270971
0.029618
0.0320157
0.0343925
0.00797756
0.00987521
0.0133646
0.0170679
0.0205825
0.0238215
0.0268278
0.0296514
0.0323034
0.0349004
0.00587144
0.00801597
0.0117025
0.0157399
0.0196149
0.0231979
0.0265204
0.0296319
0.0325198
0.0352741
0.00400065
0.00633327
0.0101616
0.0144662
0.0186564
0.022553
0.0261672
0.029552
0.032677
0.0355139
0.00237317
0.00483899
0.00874684
0.0132531
0.0177081
0.0218836
0.0257642
0.0294071
0.0328156
0.0357244
0.000991639
0.00354099
0.00746392
0.0121034
0.0167679
0.0211815
0.0252982
0.0291729
0.0328374
0.0361127
-0.000151145
0.00243947
0.0063168
0.0110196
0.0158339
0.0204411
0.0247644
0.0288535
0.0328838
0.0369719
-0.00109273
0.00152064
0.00530501
0.0100044
0.0149029
0.019642
0.0241038
0.0282889
0.0323281
0.0363097
-0.00181696
0.000790158
0.00443453
0.00906469
0.0139809
0.0187891
0.0233303
0.0275657
0.031577
0.0354124
-0.00232858
0.000243653
0.00370811
0.00821045
0.0130852
0.017914
0.0225051
0.0267994
0.0308553
0.0346697
-0.0026436
-0.0001295
0.00312601
0.00745198
0.0122343
0.0170442
0.021663
0.0260124
0.0301314
0.0339767
-0.00277984
-0.000342128
0.00268605
0.00679704
0.0114422
0.0161955
0.0208158
0.0252016
0.02937
0.033262
-0.0027555
-0.000408509
0.00238322
0.00625018
0.0107189
0.0153793
0.0199737
0.0243762
0.0285797
0.0325206
-0.00258995
-0.000344794
0.00220969
0.00581304
0.0100729
0.0146067
0.0191486
0.0235497
0.0277765
0.0317636
-0.00230253
-0.000168841
0.00215451
0.00548414
0.00950995
0.0138876
0.0183512
0.022733
0.0269723
0.0310026
-0.00190198
0.000107718
0.00220811
0.00526028
0.00903319
0.0132284
0.0175891
0.0219332
0.0261744
0.0302471
-0.00137957
0.000491028
0.00237558
0.00514891
0.0086529
0.0126405
0.0168721
0.021158
0.0253888
0.0295024
-0.000818459
0.000920518
0.00261353
0.00512376
0.00835756
0.0121217
0.0162022
0.0204095
0.024614
0.0287593
-0.00021726
0.0013935
0.00291528
0.00517909
0.00814505
0.0116729
0.0155805
0.0196861
0.0238437
0.0279998
0.000418939
0.00190257
0.00327127
0.00530645
0.00801043
0.0112923
0.0150061
0.0189853
0.0230714
0.0272117
0.00107766
0.0024355
0.00366912
0.00549568
0.00794785
0.0109785
0.0144796
0.0183065
0.0222933
0.0263864
0.00174632
0.00298087
0.00409723
0.00573687
0.00795128
0.0107298
0.014002
0.0176505
0.0215057
0.0255101
0.0024132
0.00352864
0.00454522
0.00602056
0.00801439
0.0105441
0.013575
0.0170202
0.0207081
0.0245705
0.00306664
0.00406935
0.00500322
0.00633732
0.00813028
0.0104189
0.0131999
0.0164205
0.0199061
0.0235567
0.00369464
0.0045935
0.00546132
0.00667727
0.00829113
0.0103504
0.012878
0.0158594
0.0191221
0.0224937
0.00428491
0.00509137
0.00590902
0.00702938
0.00848723
0.0103327
0.0126062
0.0153343
0.0183855
0.0214408
0.00482472
0.0055522
0.00633411
0.00737984
0.00870478
0.0103551
0.0123785
0.0148358
0.0177637
0.0207879
0.00529791
0.00596244
0.00672271
0.00771427
0.00892943
0.0104041
0.0121827
0.0143187
0.0168869
0.0196529
0.00569478
0.00631361
0.0070635
0.00801821
0.00914518
0.0104655
0.012018
0.013849
0.0160413
0.0184831
0.00600449
0.00659558
0.00734351
0.00827556
0.00933441
0.0105248
0.0118789
0.0134443
0.0153076
0.0174057
0.0062187
0.00679711
0.00754999
0.00847
0.00947743
0.0105605
0.0117427
0.0130711
0.0146326
0.0163928
0.00633326
0.00690731
0.00767189
0.00858653
0.00955456
0.0105485
0.0115814
0.0126957
0.0139753
0.0154131
0.00633561
0.00692624
0.00770121
0.00861274
0.00954877
0.0104672
0.0113699
0.0122925
0.013312
0.0144456
0.00622235
0.00685085
0.00763217
0.00853966
0.00944716
0.0102997
0.0110878
0.0118391
0.0126214
0.0134706
0.006002
0.00667254
0.00746137
0.00836222
0.00924164
0.0100342
0.0107203
0.0113182
0.011885
0.0124698
0.00567391
0.0063951
0.00718979
0.00808002
0.00892976
0.00966583
0.0102593
0.0107192
0.0110909
0.0114299
)
;

boundaryField
{
    inlet
    {
        type            zeroGradient;
    }
    outlet
    {
        type            fixedValue;
        value           uniform 0;
    }
    cylinder
    {
        type            zeroGradient;
    }
    top
    {
        type            symmetryPlane;
    }
    bottom
    {
        type            symmetryPlane;
    }
    defaultFaces
    {
        type            empty;
    }
}


// ************************************************************************* //
