/*--------------------------------*- C++ -*----------------------------------*\
  =========                 |
  \\      /  F ield         | OpenFOAM: The Open Source CFD Toolbox
   \\    /   O peration     | Website:  https://openfoam.org
    \\  /    A nd           | Version:  7
     \\/     M anipulation  |
\*---------------------------------------------------------------------------*/
FoamFile
{
    version     2.0;
    format      ascii;
    class       volVectorField;
    location    "41";
    object      U;
}
// * * * * * * * * * * * * * * * * * * * * * * * * * * * * * * * * * * * * * //

dimensions      [0 1 -1 0 0 0 0];

internalField   nonuniform List<vector> 
2000
(
(-0.000435948 0.00315252 -1.27236e-22)
(0.00224541 0.000573434 0)
(0.00881562 -0.00247506 0)
(0.0172336 -0.00292731 -8.52295e-22)
(0.0268042 0.000601687 3.47779e-22)
(0.0369729 0.00858745 4.00654e-23)
(0.0473519 0.0210044 -5.89658e-22)
(0.0576373 0.0375293 0)
(0.0675567 0.0576449 0)
(0.0768096 0.0806883 0)
(-0.000364024 0.00264632 0)
(0.00344516 -0.00193871 -5.49568e-22)
(0.0112724 -0.00679263 5.06787e-22)
(0.0204298 -0.00884663 1.16972e-21)
(0.0301274 -0.00673448 0)
(0.0398539 -1.82218e-05 1.18642e-21)
(0.0493382 0.0112803 -1.10325e-21)
(0.0584198 0.0268878 0)
(0.066937 0.046363 2.02132e-21)
(0.0746404 0.0691529 -3.82083e-21)
(-8.79122e-05 0.001902 0)
(0.00540803 -0.00470866 3.50265e-21)
(0.0150389 -0.0111483 0)
(0.0253742 -0.0145325 3.98285e-21)
(0.0355242 -0.0136011 0)
(0.0450283 -0.00801716 -4.08048e-21)
(0.0537457 0.00216183 0)
(0.0616776 0.0167006 3.90611e-21)
(0.0688093 0.035251 -3.65823e-21)
(0.0749549 0.0574073 -3.07765e-21)
(0.000481573 0.000883461 -7.56584e-22)
(0.00828526 -0.00773298 -1.89164e-21)
(0.0202741 -0.0154594 -8.22637e-22)
(0.0322179 -0.0198093 -1.98272e-21)
(0.0431402 -0.019719 -1.84733e-21)
(0.0526486 -0.0150207 2.10336e-21)
(0.0607479 -0.00586075 1.83833e-21)
(0.0676149 0.0075352 -1.76627e-22)
(0.0734113 0.0249154 3.22893e-21)
(0.0780433 0.0460521 3.07686e-21)
(0.0014485 -0.000432265 -5.05454e-22)
(0.012234 -0.0109895 -1.55125e-21)
(0.027113 -0.019636 -3.17559e-21)
(0.0410497 -0.0245136 1.56167e-21)
(0.0530199 -0.0248403 0)
(0.0627345 -0.0206814 0)
(0.0703673 -0.0123274 -3.28026e-21)
(0.0762827 -3.86848e-05 -3.00364e-21)
(0.0808386 0.0160136 2.43245e-21)
(0.0840765 0.0357909 6.25574e-21)
(0.00292792 -0.00204982 4.79141e-22)
(0.0174028 -0.0144285 8.56598e-22)
(0.0356373 -0.0235778 -3.2435e-21)
(0.0518496 -0.0285043 7.01121e-21)
(0.0650396 -0.0287827 -1.43877e-21)
(0.0750818 -0.0247582 0)
(0.0823574 -0.0169096 0)
(0.0874338 -0.00557973 1.22478e-20)
(0.0908759 0.0091078 -1.10128e-20)
(0.0929154 0.0272909 1.90549e-21)
(0.00503759 -0.00394468 9.15513e-22)
(0.0239119 -0.0179588 0)
(0.0458461 -0.027166 4.94573e-21)
(0.0644525 -0.0316679 -5.45357e-21)
(0.0788652 -0.0314539 0)
(0.0892113 -0.0271722 2.53842e-21)
(0.0961343 -0.0195089 -6.57044e-21)
(0.100429 -0.00892363 -8.36117e-21)
(0.102872 0.00446724 3.54051e-21)
(0.103934 0.0209471 2.92078e-21)
(0.00788779 -0.00605658 -6.50061e-22)
(0.0318311 -0.0214388 -8.50328e-22)
(0.0576321 -0.0302591 -1.50211e-21)
(0.0785311 -0.0339191 -4.81101e-21)
(0.0939493 -0.0328605 -2.23108e-21)
(0.104381 -0.0280272 -1.71108e-21)
(0.110798 -0.0203015 9.5789e-22)
(0.114254 -0.0102716 0)
(0.115736 0.00191282 0)
(0.115973 0.0166479 6.78721e-23)
(0.0115682 -0.00828563 -2.65515e-22)
(0.0411562 -0.0246758 -1.66688e-21)
(0.0707641 -0.0326962 2.47721e-21)
(0.093602 -0.0352024 6.48693e-21)
(0.109573 -0.0330975 -1.71042e-21)
(0.119665 -0.0275821 2.39423e-21)
(0.125243 -0.0196911 1.77583e-21)
(0.127643 -0.010129 0)
(0.128066 0.000871416 0)
(0.1275 0.0137719 -1.33179e-21)
(0.0161349 -0.0104956 2.26391e-22)
(0.0517865 -0.0274363 2.14461e-21)
(0.0848807 -0.0343106 -4.40248e-22)
(0.109056 -0.0354986 0)
(0.124929 -0.0323334 0)
(0.134105 -0.0261965 2.9723e-21)
(0.138373 -0.0181972 0)
(0.139329 -0.00911088 -5.49767e-22)
(0.138359 0.00069958 1.05077e-21)
(0.136799 0.0115958 -5.09426e-22)
(0.0951381 0.137673 1.77993e-22)
(0.119458 0.242866 -1.8048e-22)
(0.125069 0.335461 -2.43343e-22)
(0.11811 0.412308 -3.43874e-22)
(0.100552 0.481416 -5.408e-22)
(0.084481 0.55062 -2.132e-23)
(0.0596401 0.629786 2.90953e-22)
(0.0470455 0.725141 1.12083e-21)
(0.0166703 0.842672 0)
(0.0132109 0.974695 -8.46142e-22)
(0.0901429 0.127181 5.62251e-22)
(0.112491 0.235745 -7.51596e-22)
(0.11954 0.333433 1.3883e-21)
(0.114378 0.414048 3.44491e-22)
(0.098197 0.485198 7.81253e-22)
(0.082938 0.555306 1.56843e-21)
(0.0587058 0.634808 -6.58843e-22)
(0.0461737 0.730157 -7.48824e-22)
(0.0165433 0.847529 1.45261e-21)
(0.012744 0.97855 8.44122e-22)
(0.0869621 0.115962 0)
(0.106153 0.226803 -4.13623e-22)
(0.114058 0.329345 -3.88307e-22)
(0.110654 0.414063 0)
(0.0959234 0.48766 -2.43146e-21)
(0.0815537 0.559016 6.58273e-22)
(0.0579139 0.639083 8.95658e-22)
(0.045418 0.734684 3.6419e-21)
(0.0164521 0.85221 -1.44792e-21)
(0.0123075 0.982433 2.8005e-21)
(0.085841 0.104372 0)
(0.100549 0.216208 4.17144e-22)
(0.108637 0.323199 0)
(0.106863 0.412225 1.98187e-21)
(0.0936403 0.488541 -1.99204e-21)
(0.0802561 0.561324 -1.77923e-21)
(0.0572467 0.641992 -3.00045e-22)
(0.0448336 0.737866 -3.41104e-21)
(0.016484 0.85567 -5.58464e-22)
(0.0119091 0.9856 -3.4241e-21)
(0.08707 0.0928584 -4.28689e-22)
(0.0958339 0.204215 -5.15127e-22)
(0.103302 0.315057 3.67764e-22)
(0.10293 0.408577 -8.6124e-22)
(0.0912682 0.488147 0)
(0.0789695 0.562871 -1.526e-21)
(0.0566008 0.64454 -3.33657e-22)
(0.044247 0.741054 4.03032e-21)
(0.0164558 0.859391 5.71911e-22)
(0.011524 0.989063 -5.73913e-22)
(0.0908739 0.0819145 -1.30319e-21)
(0.0922089 0.191188 4.97092e-22)
(0.0981244 0.305044 4.51709e-22)
(0.0988176 0.402819 -4.51497e-22)
(0.0887007 0.485663 -5.88629e-22)
(0.0776255 0.562393 0)
(0.0560289 0.645062 -2.93821e-21)
(0.0438491 0.742181 1.40466e-21)
(0.0165863 0.861249 1.86484e-21)
(0.0111743 0.991432 1.99652e-21)
(0.0971994 0.0719797 6.4693e-23)
(0.0899102 0.177563 0)
(0.0931688 0.293423 0)
(0.0945076 0.395675 0)
(0.0859412 0.482625 -7.60257e-22)
(0.0761394 0.56209 1.34631e-21)
(0.0552917 0.6463 2.69631e-21)
(0.0432417 0.74445 -4.43573e-21)
(0.0165023 0.864391 8.93716e-22)
(0.0108142 0.994662 -2.86194e-21)
(0.105375 0.0633501 -8.58673e-23)
(0.089132 0.163945 -9.51585e-22)
(0.0885827 0.280053 9.43188e-22)
(0.0899491 0.385432 3.62859e-22)
(0.0827834 0.475846 -5.03479e-22)
(0.0745048 0.557979 0)
(0.0546954 0.643762 -8.60287e-22)
(0.0429872 0.742989 2.21201e-22)
(0.0167118 0.864333 -1.37151e-21)
(0.0104916 0.996111 -1.52204e-21)
(0.113662 0.0559043 4.44332e-22)
(0.0896954 0.150516 0)
(0.0844681 0.266753 1.64314e-21)
(0.0854291 0.376753 -1.81241e-21)
(0.079516 0.471845 5.81984e-22)
(0.0724812 0.557216 -1.52228e-22)
(0.0535181 0.644887 8.58509e-22)
(0.0420892 0.745373 8.00103e-24)
(0.0164211 0.867633 1.84552e-21)
(0.0101249 0.999443 2.15749e-21)
(0.11856 0.0480981 1.81644e-21)
(0.0903511 0.134243 -1.7659e-21)
(0.0805256 0.246227 -2.556e-22)
(0.0802611 0.358017 0)
(0.0755814 0.457582 0)
(0.0705594 0.547213 1.44666e-22)
(0.0529891 0.637659 1.3032e-21)
(0.0420786 0.740177 -1.26544e-21)
(0.0167546 0.864948 -5.14071e-22)
(0.00980934 0.999736 4.98932e-22)
(0.109366 0.0436177 0)
(0.0845186 0.123855 0)
(0.0720063 0.236785 0)
(0.0692378 0.35317 0)
(0.065256 0.458028 0)
(0.0621186 0.552694 0)
(0.0471858 0.646367 0)
(0.0379201 0.751089 0)
(0.0149515 0.876041 0)
(0.00884664 1.00913 0)
(0.091566 0.0840703 0)
(0.0629755 0.156042 0)
(0.0476771 0.252647 0)
(0.0440807 0.359155 0)
(0.0429866 0.462497 0)
(0.0442426 0.560007 0)
(0.0352504 0.657396 0)
(0.0300585 0.76344 0)
(0.0112042 0.887338 0)
(0.00715768 1.01583 0)
(0.0682918 0.107261 0)
(0.0405005 0.178462 0)
(0.0232989 0.266905 0)
(0.0171092 0.364069 0)
(0.0165436 0.463093 0)
(0.020986 0.562269 0)
(0.0179864 0.664433 0)
(0.0188539 0.774657 0)
(0.00586809 0.901477 0)
(0.00520273 1.02749 0)
(0.0431698 0.129377 0)
(0.0169445 0.199639 0)
(-0.000917696 0.28082 0)
(-0.00852244 0.369188 0)
(-0.00785183 0.461977 0)
(-0.000502037 0.559796 0)
(0.00173915 0.663343 0)
(0.00762821 0.776571 0)
(7.75829e-05 0.904251 0)
(0.00279036 1.02743 0)
(0.021289 0.149194 0)
(-0.00264307 0.219201 0)
(-0.0206922 0.292585 0)
(-0.0305968 0.37079 0)
(-0.0305562 0.455777 0)
(-0.0219213 0.551014 0)
(-0.0146454 0.65687 0)
(-0.00334276 0.776251 0)
(-0.00547912 0.9086 0)
(0.000933488 1.03205 0)
(0.00424305 0.167275 0)
(-0.0173881 0.238764 0)
(-0.0335204 0.307515 0)
(-0.0428088 0.3776 0)
(-0.0430284 0.453435 0)
(-0.0347343 0.541474 0)
(-0.0254101 0.644384 0)
(-0.0116222 0.764842 0)
(-0.00959166 0.899413 0)
(-0.000506923 1.02173 0)
(-0.00676572 0.182486 0)
(-0.0256607 0.25576 0)
(-0.0425537 0.318948 0)
(-0.0529863 0.380084 0)
(-0.053942 0.448022 0)
(-0.0457827 0.531279 0)
(-0.0346136 0.634278 0)
(-0.0185759 0.758503 0)
(-0.0133992 0.897404 0)
(-0.00162903 1.01993 0)
(-0.0119223 0.19408 0)
(-0.0252729 0.271236 0)
(-0.0390387 0.334424 0)
(-0.0488507 0.389728 0)
(-0.0514889 0.44798 0)
(-0.0459315 0.521339 0)
(-0.0363964 0.617974 0)
(-0.0216897 0.741486 0)
(-0.0152499 0.882399 0)
(-0.00251174 1.00388 0)
(-0.0134092 0.204046 0)
(-0.0261494 0.282141 0)
(-0.0406058 0.3417 0)
(-0.0509382 0.391263 0)
(-0.0539951 0.444554 0)
(-0.0488115 0.514524 0)
(-0.0388851 0.610886 0)
(-0.0238933 0.736388 0)
(-0.0167451 0.880206 0)
(-0.00297225 1.00205 0)
(-0.0056354 0.21318 0)
(-0.0133496 0.298337 0)
(-0.025133 0.361445 0)
(-0.0359982 0.405895 0)
(-0.0419045 0.448348 0)
(-0.0407793 0.506082 0)
(-0.0345569 0.59341 0)
(-0.0225879 0.716889 0)
(-0.0159954 0.861919 0)
(-0.00310723 0.98278 0)
(0.129777 0.0280951 -2.68607e-21)
(0.10855 0.0543449 2.65478e-21)
(0.0803854 0.0728757 -5.89259e-22)
(0.0519978 0.0915472 0)
(0.0278233 0.108525 0)
(0.00921803 0.123827 -5.65506e-22)
(-0.0021882 0.136145 1.54322e-21)
(-0.0087258 0.144617 -1.51624e-21)
(-0.00985775 0.152583 -1.01734e-22)
(-0.00378562 0.158061 9.92203e-23)
(0.129656 0.0248785 1.57957e-21)
(0.106998 0.0446348 0)
(0.0797994 0.0594735 -4.2453e-21)
(0.0527994 0.0756303 9.73894e-21)
(0.0296134 0.0907117 -6.13961e-21)
(0.0114276 0.104392 5.50709e-22)
(0.000178695 0.115569 -8.48219e-22)
(-0.00653016 0.12307 -1.05316e-21)
(-0.00788368 0.130118 3.76087e-23)
(-0.00286553 0.134109 1.75611e-23)
(0.12997 0.0209466 -2.19157e-21)
(0.105893 0.0352952 3.98627e-21)
(0.079389 0.0464831 -3.94715e-21)
(0.0534282 0.0596459 4.84617e-21)
(0.0312559 0.0722372 -3.59511e-21)
(0.0135239 0.0839996 0)
(0.00190458 0.0937896 8.50187e-22)
(-0.00458039 0.100363 1.11902e-23)
(-0.00612008 0.106655 3.21105e-22)
(-0.00204807 0.109477 8.2422e-23)
(0.129766 0.0145327 4.94861e-22)
(0.104755 0.0241417 0)
(0.0792193 0.0322433 0)
(0.0541967 0.0426764 0)
(0.0328322 0.0527466 -3.34757e-21)
(0.0154718 0.0625638 2.19359e-21)
(0.00377028 0.0709243 -1.12868e-22)
(-0.00276352 0.0766711 4.60663e-22)
(-0.00456181 0.0822757 1.0206e-22)
(-0.00133981 0.0842046 -1.18425e-23)
(0.128849 0.00545981 -1.38456e-21)
(0.103296 0.0107984 1.84471e-21)
(0.0789181 0.016176 2.1651e-21)
(0.05483 0.0242496 -2.16335e-21)
(0.0342265 0.0319946 1.1381e-21)
(0.0172474 0.0400372 0)
(0.00556953 0.0470698 8.22447e-22)
(-0.000959123 0.0521395 -1.02639e-21)
(-0.00313429 0.0571336 4.46234e-22)
(-0.000756522 0.0584054 -9.09368e-23)
(0.127281 -0.006053 3.67872e-21)
(0.101582 -0.00449118 2.17475e-23)
(0.0784654 -0.00167871 3.09836e-22)
(0.0552823 0.00434259 -2.0718e-21)
(0.0354089 0.00999847 0)
(0.0188378 0.0165319 0)
(0.00722574 0.0224011 0)
(0.000595709 0.0269685 -5.55985e-22)
(-0.0018594 0.0314733 0)
(-0.000290059 0.0322506 0)
(0.125066 -0.0195868 0)
(0.0996334 -0.0211927 -2.33658e-21)
(0.077791 -0.0209236 1.6502e-21)
(0.0555532 -0.0167163 2.06794e-21)
(0.0363891 -0.0129398 -2.07849e-21)
(0.0202741 -0.00764343 -8.55705e-22)
(0.00873855 -0.002701 9.58405e-22)
(0.00192878 0.00146023 1.9816e-21)
(-0.000728488 0.00552262 -1.65841e-22)
(0.000104926 0.00599378 4.60091e-23)
(0.122067 -0.0346108 0)
(0.097343 -0.0386251 6.88711e-22)
(0.0768977 -0.0409729 4.13229e-22)
(0.0556075 -0.0383869 0)
(0.0371827 -0.0363133 -4.62467e-22)
(0.0215621 -0.0320173 1.39044e-21)
(0.0101443 -0.0278357 -1.07875e-21)
(0.00326473 -0.0240135 -2.23354e-22)
(0.00024161 -0.0203503 1.53964e-22)
(0.000388467 -0.0200388 -9.81354e-23)
(0.1182 -0.0505072 -1.21194e-22)
(0.094708 -0.0561754 -6.85512e-22)
(0.0758277 -0.061211 9.19543e-23)
(0.0554414 -0.0600181 -2.20654e-22)
(0.0378108 -0.0595213 -4.78539e-22)
(0.0227061 -0.0560587 -6.51462e-22)
(0.0114623 -0.0525436 1.74728e-22)
(0.00450476 -0.0490276 1.28116e-22)
(0.00104273 -0.0457626 -1.54468e-22)
(0.000588657 -0.0455052 -2.46286e-23)
(0.1136 -0.0666907 8.9678e-23)
(0.091774 -0.0732976 -9.0455e-23)
(0.0744774 -0.0810248 1.87285e-22)
(0.0550369 -0.0810007 2.20315e-22)
(0.0382488 -0.0819783 -2.09952e-22)
(0.0237069 -0.0792549 4.21569e-22)
(0.0126574 -0.0763715 -2.48622e-22)
(0.00562036 -0.073188 -5.37405e-23)
(0.00173358 -0.0703301 0)
(0.000711952 -0.0700579 2.46713e-23)
(0.108512 -0.082668 -6.57835e-23)
(0.0885559 -0.0895704 6.63e-23)
(0.0728297 -0.0999184 1.45479e-22)
(0.0544099 -0.100855 1.83645e-22)
(0.0384759 -0.103205 1.95947e-22)
(0.0245432 -0.101195 -1.27214e-23)
(0.0136903 -0.0989462 -8.6898e-23)
(0.00658823 -0.0961597 -1.88592e-22)
(0.00231071 -0.0937041 0)
(0.000775204 -0.0933776 2.35627e-23)
(0.103181 -0.0980791 0)
(0.0851457 -0.104732 4.28913e-22)
(0.0709055 -0.117541 -8.23858e-22)
(0.0535988 -0.119278 -1.83912e-22)
(0.0384782 -0.122871 -3.54225e-22)
(0.0251899 -0.121605 -5.28429e-22)
(0.0145194 -0.119997 1.57147e-22)
(0.00737311 -0.117684 1.17518e-22)
(0.00274841 -0.115608 -1.36583e-22)
(0.00078525 -0.115218 -2.34982e-23)
(0.0977858 -0.112709 0)
(0.0816511 -0.118695 1.7247e-22)
(0.0687466 -0.133684 2.4667e-22)
(0.0526468 -0.136151 0)
(0.0382579 -0.140802 1.02024e-21)
(0.0256406 -0.140352 -3.26597e-22)
(0.0151338 -0.139364 -3.00709e-22)
(0.00797373 -0.137593 -6.71979e-22)
(0.00305586 -0.135859 1.36137e-22)
(0.000754809 -0.135425 -8.52867e-23)
(0.0924591 -0.126466 0)
(0.0781584 -0.131537 -1.7389e-22)
(0.0664038 -0.148263 0)
(0.0515927 -0.151514 -1.13996e-21)
(0.0378374 -0.156961 1.14591e-21)
(0.0259066 -0.157429 5.6621e-22)
(0.0155544 -0.156993 -1.9017e-23)
(0.00841491 -0.15582 6.47317e-22)
(0.00326244 -0.154371 1.23244e-22)
(0.000699761 -0.153931 1.2648e-22)
(0.0873 -0.139334 3.06438e-21)
(0.074755 -0.14347 -1.051e-21)
(0.0639341 -0.161284 -4.36663e-22)
(0.0504718 -0.165524 7.11201e-22)
(0.0372548 -0.171418 0)
(0.0260044 -0.17292 5.18599e-22)
(0.0158117 -0.172922 -8.70881e-23)
(0.00872217 -0.172384 -8.25295e-22)
(0.00339441 -0.171157 -3.90933e-23)
(0.000631609 -0.170759 3.90298e-23)
(0.0823742 -0.151302 1.65181e-21)
(0.0715481 -0.154813 1.27888e-21)
(0.0614213 -0.172818 -5.31627e-22)
(0.0493208 -0.178393 5.3134e-22)
(0.0365651 -0.184317 4.36387e-22)
(0.0259541 -0.186969 0)
(0.0159409 -0.187264 8.26027e-22)
(0.00891958 -0.187382 -4.4926e-22)
(0.00347519 -0.186312 -2.84389e-22)
(0.000558346 -0.186007 -6.73255e-23)
(0.0777801 -0.162299 -7.39809e-22)
(0.0687044 -0.165943 0)
(0.059003 -0.182976 0)
(0.048185 -0.19034 0)
(0.035843 -0.195848 4.06037e-22)
(0.025784 -0.199749 -8.41326e-22)
(0.015979 -0.200181 -7.90588e-22)
(0.00902877 -0.200969 1.0021e-21)
(0.00352489 -0.199992 -6.67406e-23)
(0.000485764 -0.199831 1.32635e-22)
(0.0734636 -0.17213 -2.42543e-21)
(0.0662557 -0.177222 7.28453e-22)
(0.0567529 -0.191905 -7.21669e-22)
(0.0470579 -0.201546 -1.08744e-21)
(0.0351588 -0.206231 1.3807e-21)
(0.0255418 -0.211439 0)
(0.0159812 -0.21187 3.46321e-22)
(0.00908075 -0.213329 -2.67563e-23)
(0.00356536 -0.212397 1.77289e-22)
(0.000418508 -0.212427 5.45092e-23)
(0.068447 -0.180349 -9.26617e-22)
(0.0634681 -0.188936 0)
(0.0543668 -0.199836 -1.37785e-22)
(0.0457049 -0.212152 -7.37096e-22)
(0.0344725 -0.215716 4.63208e-22)
(0.0252433 -0.222225 1.51781e-22)
(0.0160176 -0.22254 -3.45534e-22)
(0.0091355 -0.224661 -5.94473e-23)
(0.00363132 -0.223741 -3.33887e-22)
(0.000358288 -0.224012 -1.07603e-22)
(0.0631266 -0.186045 -3.73059e-21)
(0.0600905 -0.201303 3.63258e-21)
(0.0518731 -0.20721 1.00145e-22)
(0.0439905 -0.22233 0)
(0.0336088 -0.224607 0)
(0.0247084 -0.232317 -1.56642e-22)
(0.0159452 -0.232417 -5.37029e-22)
(0.00913163 -0.235157 5.26693e-22)
(0.00368668 -0.234226 4.9902e-23)
(0.000296879 -0.234812 -4.87385e-23)
(0.0671069 -0.191492 0)
(0.0601845 -0.230747 0)
(0.0512489 -0.224283 0)
(0.0420678 -0.245713 0)
(0.0318602 -0.24512 0)
(0.0226996 -0.255512 0)
(0.0146587 -0.255013 0)
(0.00815123 -0.259059 0)
(0.00326896 -0.257857 0)
(0.00018677 -0.259167 0)
(0.0519498 -0.241267 0)
(0.0441855 -0.276505 0)
(0.0400239 -0.266225 0)
(0.0320999 -0.286477 0)
(0.0256967 -0.282837 0)
(0.018304 -0.293858 0)
(0.0123906 -0.291781 0)
(0.00694782 -0.296704 0)
(0.00299091 -0.294541 0)
(0.000254058 -0.296504 0)
(0.0466591 -0.289304 0)
(0.03784 -0.322565 0)
(0.0336209 -0.309775 0)
(0.0261718 -0.329868 0)
(0.0210899 -0.323765 0)
(0.014843 -0.335427 0)
(0.0103828 -0.331589 0)
(0.00582038 -0.337194 0)
(0.0027074 -0.33377 0)
(0.000225344 -0.336437 0)
(0.0406172 -0.341538 0)
(0.0320175 -0.374092 0)
(0.0282602 -0.358892 0)
(0.0214213 -0.379427 0)
(0.017435 -0.371001 0)
(0.0120906 -0.383541 0)
(0.0087574 -0.377836 0)
(0.00491431 -0.38424 0)
(0.00250434 -0.379371 0)
(0.000194776 -0.38294 0)
(0.034976 -0.402862 0)
(0.0269819 -0.435427 0)
(0.0235585 -0.418256 0)
(0.017493 -0.439587 0)
(0.0143861 -0.429114 0)
(0.00986083 -0.442754 0)
(0.00739154 -0.435264 0)
(0.00413725 -0.442698 0)
(0.00227507 -0.436397 0)
(0.000145455 -0.441163 0)
(0.0295327 -0.477824 0)
(0.0222051 -0.509258 0)
(0.0192899 -0.491983 0)
(0.0140354 -0.513527 0)
(0.0117022 -0.502155 0)
(0.00784551 -0.516549 0)
(0.00602621 -0.507957 0)
(0.00321099 -0.516373 0)
(0.00183855 -0.509117 0)
(1.68681e-05 -0.515177 0)
(0.0229564 -0.565401 0)
(0.0174345 -0.592682 0)
(0.0149993 -0.57895 0)
(0.010831 -0.598473 0)
(0.00892064 -0.588544 0)
(0.00574936 -0.602066 0)
(0.00428923 -0.593988 0)
(0.00191778 -0.602377 0)
(0.00101643 -0.595372 0)
(-0.000191323 -0.602016 0)
(0.0180989 -0.653942 0)
(0.013164 -0.674268 0)
(0.0109767 -0.6668 0)
(0.00737363 -0.681146 0)
(0.0060036 -0.675159 0)
(0.00338746 -0.6853 0)
(0.00235298 -0.679689 0)
(0.000438545 -0.686055 0)
(0.000126045 -0.68087 0)
(-0.000373176 -0.686338 0)
(0.0106301 -0.723221 0)
(0.00727751 -0.733639 0)
(0.00613401 -0.733932 0)
(0.00401932 -0.742218 0)
(0.00329237 -0.741343 0)
(0.00159305 -0.746592 0)
(0.000931926 -0.744279 0)
(-0.000292803 -0.747198 0)
(-0.000276551 -0.744544 0)
(-0.000332424 -0.747306 0)
(0.00229831 -0.757369 0)
(0.00170775 -0.766179 0)
(0.0015997 -0.769466 0)
(0.00127323 -0.774549 0)
(0.00100206 -0.775448 0)
(0.000523555 -0.778162 0)
(0.00020936 -0.777332 0)
(-0.000147452 -0.778465 0)
(-0.000162385 -0.777124 0)
(-0.000105892 -0.778321 0)
(0.0606361 -0.209334 6.74874e-21)
(0.0517096 -0.258925 -6.62117e-21)
(0.048052 -0.307227 9.5601e-22)
(0.0424303 -0.360114 0)
(0.0372313 -0.42176 0)
(0.031713 -0.495469 1.23936e-21)
(0.0256019 -0.579063 -5.53107e-21)
(0.0195828 -0.65923 5.49158e-21)
(0.0121775 -0.723797 1.54179e-21)
(0.00372248 -0.752903 -1.52188e-21)
(0.0587844 -0.215732 -8.03854e-21)
(0.0521362 -0.26452 0)
(0.0487743 -0.312413 6.68511e-21)
(0.0433256 -0.365278 -1.56346e-20)
(0.0382818 -0.426947 1.02782e-20)
(0.0327359 -0.500187 -1.1176e-21)
(0.0267697 -0.582283 2.59712e-21)
(0.0202591 -0.660778 5.58888e-21)
(0.012865 -0.722596 1.60054e-21)
(0.00434611 -0.751714 1.59924e-21)
(0.0578517 -0.22247 9.80588e-21)
(0.0532311 -0.270465 -7.33235e-21)
(0.0498727 -0.317381 7.26291e-21)
(0.0445581 -0.369728 -8.71487e-21)
(0.0395892 -0.431099 6.45266e-21)
(0.0339688 -0.503655 0)
(0.0279198 -0.584211 -2.60362e-21)
(0.0210126 -0.661447 1.71803e-22)
(0.0133919 -0.720489 -2.92959e-21)
(0.00466611 -0.75049 -3.08303e-21)
(0.0577115 -0.228673 -1.62953e-21)
(0.0548543 -0.276369 0)
(0.0513832 -0.32243 0)
(0.0461824 -0.374239 0)
(0.0412012 -0.435225 7.52709e-21)
(0.0354457 -0.507008 -5.03671e-21)
(0.0291512 -0.586046 -3.45111e-23)
(0.0218704 -0.661631 -3.22606e-21)
(0.0138289 -0.718466 -1.65466e-21)
(0.00477492 -0.748434 -1.78389e-21)
(0.0583634 -0.234095 3.63581e-22)
(0.0568819 -0.281413 -5.23677e-21)
(0.053246 -0.326814 -4.33408e-21)
(0.0481502 -0.378287 4.33147e-21)
(0.0430849 -0.438989 -2.45705e-21)
(0.0371477 -0.510089 0)
(0.0305432 -0.587753 -2.97892e-21)
(0.0228625 -0.661503 6.61553e-21)
(0.014312 -0.716579 -3.39969e-21)
(0.00484589 -0.745686 3.47939e-21)
(0.0598651 -0.238805 -1.43947e-20)
(0.0593168 -0.285375 1.43955e-21)
(0.0554528 -0.330092 -4.31555e-22)
(0.0504192 -0.381337 4.53725e-21)
(0.0452002 -0.441846 0)
(0.0390426 -0.512388 0)
(0.0321114 -0.58889 0)
(0.0240026 -0.660958 3.58863e-21)
(0.0149259 -0.714575 0)
(0.00498129 -0.74259 0)
(0.0622388 -0.242741 0)
(0.0622071 -0.2883 6.33113e-21)
(0.0580528 -0.332236 -4.27922e-21)
(0.0529962 -0.383239 -5.28571e-21)
(0.0475467 -0.443557 5.3133e-21)
(0.0411239 -0.513612 3.23956e-21)
(0.0338463 -0.589148 -3.21312e-21)
(0.0252858 -0.659838 -1.2856e-20)
(0.0156817 -0.712253 9.14796e-22)
(0.00519978 -0.73935 -3.1789e-21)
(0.0654787 -0.245724 0)
(0.0655824 -0.290172 -2.05698e-21)
(0.0610955 -0.333292 -1.20896e-21)
(0.0559102 -0.384027 0)
(0.0501536 -0.444117 1.57942e-21)
(0.0434132 -0.513719 -4.78991e-21)
(0.0357534 -0.588437 5.36657e-21)
(0.0267131 -0.658044 1.92435e-21)
(0.0165641 -0.70952 -2.13243e-21)
(0.0054867 -0.735992 4.21048e-21)
(0.0695783 -0.247574 1.86875e-21)
(0.0694545 -0.290916 2.32546e-21)
(0.0646072 -0.333236 -5.06205e-22)
(0.0591817 -0.383722 7.12523e-22)
(0.053052 -0.443565 1.50976e-21)
(0.0459399 -0.512769 2.55935e-21)
(0.0378475 -0.58682 -9.72805e-22)
(0.0282836 -0.6556 -1.05707e-21)
(0.0175471 -0.706387 2.13948e-21)
(0.0058194 -0.732477 1.17126e-21)
(0.0745367 -0.248137 -5.38599e-22)
(0.0738316 -0.290475 5.42656e-22)
(0.0685999 -0.332 -6.3295e-22)
(0.0628191 -0.382298 -7.1166e-22)
(0.0562613 -0.4419 8.57686e-22)
(0.0487263 -0.510791 -1.74893e-21)
(0.0401554 -0.584322 1.49199e-21)
(0.0300188 -0.652509 5.34891e-22)
(0.0186364 -0.702852 0)
(0.00619706 -0.728743 -1.17385e-21)
(0.0803561 -0.247287 5.62335e-22)
(0.0787186 -0.288858 -5.66849e-22)
(0.0730819 -0.329533 -6.99775e-22)
(0.0668241 -0.379741 -7.87115e-22)
(0.0597958 -0.439099 -9.02863e-22)
(0.0517852 -0.507818 -6.75311e-23)
(0.0426849 -0.581019 5.32207e-22)
(0.0319137 -0.64886 1.72184e-21)
(0.0198174 -0.698974 0)
(0.00660949 -0.72479 -1.2957e-21)
(0.087033 -0.244988 0)
(0.0841111 -0.286123 -2.68212e-21)
(0.0780636 -0.325832 4.87714e-21)
(0.0711981 -0.376063 7.88507e-22)
(0.0636623 -0.435163 1.85391e-21)
(0.0551231 -0.503814 3.03479e-21)
(0.045466 -0.576833 -1.07775e-21)
(0.0340069 -0.644567 -1.17008e-21)
(0.0211281 -0.694692 2.61405e-21)
(0.0070777 -0.720578 1.29265e-21)
(0.0945537 -0.241333 0)
(0.0900026 -0.282318 -2.67907e-21)
(0.0835489 -0.32099 -1.47826e-21)
(0.0759371 -0.371311 0)
(0.0678805 -0.430116 -5.85188e-21)
(0.0587467 -0.498847 1.9651e-21)
(0.0484781 -0.571903 2.34197e-21)
(0.0362585 -0.63979 7.57294e-21)
(0.0225245 -0.690106 -2.60559e-21)
(0.00757403 -0.71615 5.66674e-21)
(0.102899 -0.236472 0)
(0.0963849 -0.277446 2.70212e-21)
(0.0895374 -0.315094 0)
(0.0810577 -0.365493 7.53708e-21)
(0.0724485 -0.424072 -7.57568e-21)
(0.062667 -0.492792 -4.62586e-21)
(0.0517768 -0.566009 -9.47534e-23)
(0.0387485 -0.634276 -7.81737e-21)
(0.024089 -0.685039 -1.30168e-21)
(0.00814541 -0.711393 -7.04951e-21)
(0.112048 -0.230597 1.99557e-20)
(0.103256 -0.271501 -7.6087e-21)
(0.0959963 -0.308427 8.39276e-22)
(0.0865349 -0.358682 -7.09059e-21)
(0.0774021 -0.417107 0)
(0.0668986 -0.485829 -4.8513e-21)
(0.0552753 -0.55952 -4.14407e-22)
(0.0413646 -0.628399 1.06545e-20)
(0.0257114 -0.679736 1.471e-21)
(0.00872298 -0.706473 -1.47641e-21)
(0.121964 -0.22389 -1.96571e-21)
(0.110586 -0.264478 1.43805e-20)
(0.10293 -0.300852 7.431e-21)
(0.092466 -0.350597 -7.42594e-21)
(0.082765 -0.408863 -4.47838e-21)
(0.0715098 -0.477638 0)
(0.0591221 -0.551838 -1.09395e-20)
(0.0443041 -0.621562 5.48344e-21)
(0.0275692 -0.673826 5.87319e-21)
(0.00940917 -0.701161 6.34388e-21)
(0.13257 -0.216708 -2.83227e-21)
(0.11842 -0.256462 0)
(0.110294 -0.292579 0)
(0.0987762 -0.341927 0)
(0.0883991 -0.400248 -5.17635e-21)
(0.0763173 -0.469368 9.63802e-21)
(0.0630589 -0.544263 1.11674e-20)
(0.047239 -0.614879 -1.76206e-20)
(0.0293705 -0.66795 3.16971e-21)
(0.0100267 -0.695808 -9.42356e-21)
(0.143758 -0.209027 -4.29985e-21)
(0.126867 -0.24671 1.44276e-20)
(0.118093 -0.283076 -1.42897e-20)
(0.105609 -0.331787 1.82749e-20)
(0.0945444 -0.389855 -2.29853e-20)
(0.0816962 -0.459034 0)
(0.0676034 -0.5346 -5.8686e-21)
(0.0507542 -0.60655 -2.60338e-22)
(0.0316076 -0.6611 -6.61073e-21)
(0.0108629 -0.689823 -6.75147e-21)
(0.155182 -0.202243 -3.03249e-21)
(0.135625 -0.237528 0)
(0.125778 -0.274899 -1.91991e-20)
(0.112412 -0.323235 3.60438e-20)
(0.100555 -0.381446 -1.39363e-20)
(0.0868404 -0.450976 -2.78712e-21)
(0.0717882 -0.527164 5.85619e-21)
(0.0538432 -0.59982 -3.18064e-22)
(0.0334769 -0.654969 9.63773e-21)
(0.0114401 -0.684114 9.99197e-21)
(0.167723 -0.191682 -1.35878e-20)
(0.146387 -0.223998 1.328e-20)
(0.134938 -0.261977 2.03299e-21)
(0.120759 -0.3095 0)
(0.108033 -0.367389 0)
(0.0934977 -0.437083 2.68972e-21)
(0.0774846 -0.514542 1.2274e-20)
(0.0583068 -0.589459 -1.19559e-20)
(0.0363586 -0.646916 -3.2854e-21)
(0.0125583 -0.6772 3.22578e-21)
(0.178748 -0.194241 0)
(0.168299 -0.218908 0)
(0.151656 -0.259074 0)
(0.135625 -0.305198 0)
(0.121267 -0.361893 0)
(0.104815 -0.429645 0)
(0.0866416 -0.504692 0)
(0.0650145 -0.57711 0)
(0.0403359 -0.632957 0)
(0.0133679 -0.663095 0)
(0.200835 -0.173212 0)
(0.205428 -0.202854 0)
(0.17969 -0.24773 0)
(0.164802 -0.292847 0)
(0.147692 -0.349651 0)
(0.128177 -0.41553 0)
(0.106297 -0.4869 0)
(0.0800931 -0.554303 0)
(0.0501771 -0.604978 0)
(0.0178397 -0.630622 0)
(0.2335 -0.151843 0)
(0.24401 -0.181976 0)
(0.20954 -0.226874 0)
(0.198353 -0.270334 0)
(0.176689 -0.327017 0)
(0.153737 -0.389907 0)
(0.127147 -0.457423 0)
(0.0953829 -0.52104 0)
(0.0590814 -0.569716 0)
(0.0192455 -0.596573 0)
(0.275957 -0.136856 0)
(0.288298 -0.165889 0)
(0.247518 -0.209957 0)
(0.240995 -0.252425 0)
(0.212468 -0.308435 0)
(0.186462 -0.366775 0)
(0.154111 -0.429494 0)
(0.115763 -0.486689 0)
(0.0723622 -0.528677 0)
(0.0259353 -0.548864 0)
(0.327691 -0.118796 0)
(0.338872 -0.146199 0)
(0.293939 -0.187121 0)
(0.289416 -0.226353 0)
(0.250534 -0.277811 0)
(0.221212 -0.329228 0)
(0.1804 -0.38637 0)
(0.13437 -0.437799 0)
(0.0824137 -0.477621 0)
(0.0258715 -0.501112 0)
(0.392794 -0.10808 0)
(0.400951 -0.133293 0)
(0.353273 -0.170685 0)
(0.34693 -0.205791 0)
(0.297064 -0.252111 0)
(0.265954 -0.296923 0)
(0.214654 -0.348055 0)
(0.160281 -0.390452 0)
(0.0993719 -0.421897 0)
(0.0368403 -0.434482 0)
(0.465992 -0.0860511 0)
(0.466576 -0.106959 0)
(0.416413 -0.13814 0)
(0.403267 -0.166856 0)
(0.343048 -0.205402 0)
(0.308349 -0.241629 0)
(0.240272 -0.283315 0)
(0.177517 -0.317013 0)
(0.105228 -0.348921 0)
(0.0291111 -0.37205 0)
(0.550645 -0.0743541 0)
(0.540601 -0.0903469 0)
(0.491871 -0.115606 0)
(0.467824 -0.137596 0)
(0.403076 -0.168368 0)
(0.359928 -0.195511 0)
(0.277698 -0.228025 0)
(0.210374 -0.25521 0)
(0.128101 -0.281872 0)
(0.0555951 -0.283969 0)
(0.616542 -0.0395397 0)
(0.595919 -0.0479501 0)
(0.541894 -0.0634935 0)
(0.504712 -0.0751524 0)
(0.432188 -0.0937332 0)
(0.374968 -0.10752 0)
(0.27896 -0.127157 0)
(0.201606 -0.142561 0)
(0.0978655 -0.168705 0)
(-0.0036119 -0.213385 0)
(0.802712 -0.0196315 0)
(0.776793 -0.0237288 0)
(0.730671 -0.0298684 0)
(0.687348 -0.0354829 0)
(0.621921 -0.0437349 0)
(0.557068 -0.051514 0)
(0.466003 -0.0634063 0)
(0.372859 -0.0774772 0)
(0.248047 -0.10567 0)
(0.166619 -0.15973 0)
(0.213125 -0.170366 1.43216e-20)
(0.239058 -0.146129 -1.40949e-20)
(0.27205 -0.126621 2.3205e-21)
(0.312797 -0.113181 0)
(0.363033 -0.0976708 0)
(0.424944 -0.0885572 3.42873e-21)
(0.495781 -0.069792 -1.61562e-20)
(0.57544 -0.0609339 1.60246e-20)
(0.643234 -0.0310557 4.59783e-21)
(0.823072 -0.0164815 -4.61513e-21)
(0.22226 -0.160276 -1.32809e-20)
(0.247617 -0.135107 0)
(0.280466 -0.116633 1.62579e-20)
(0.321227 -0.103835 -3.91119e-20)
(0.371579 -0.0893171 2.62454e-20)
(0.433269 -0.0808498 -3.13066e-21)
(0.503943 -0.0633215 6.82432e-21)
(0.58266 -0.0555304 1.52054e-20)
(0.652057 -0.0276386 4.26173e-21)
(0.830063 -0.0151601 4.12819e-21)
(0.23025 -0.148638 1.54897e-20)
(0.254046 -0.123679 -1.55869e-20)
(0.285957 -0.106564 1.54404e-20)
(0.326405 -0.094504 -2.08692e-20)
(0.376773 -0.0810492 1.5184e-20)
(0.438502 -0.0733172 0)
(0.509205 -0.0570935 -6.84116e-21)
(0.587637 -0.0504682 -7.01554e-23)
(0.65903 -0.0245393 -7.95406e-21)
(0.835797 -0.0139174 -8.26109e-21)
(0.239162 -0.136141 -2.70547e-21)
(0.262075 -0.11199 0)
(0.292995 -0.0963328 0)
(0.332825 -0.0850966 0)
(0.38291 -0.0728 1.71032e-20)
(0.444396 -0.0659031 -1.161e-20)
(0.514907 -0.0510632 -3.82014e-22)
(0.592906 -0.0456844 -7.76816e-21)
(0.665851 -0.0217173 -4.01658e-21)
(0.84135 -0.0127566 -4.08588e-21)
(0.247675 -0.12325 2.87787e-21)
(0.270084 -0.100281 -8.67533e-21)
(0.300244 -0.0860641 -8.7942e-21)
(0.339708 -0.0756959 8.7891e-21)
(0.389587 -0.0646094 -5.41719e-21)
(0.45086 -0.0586199 0)
(0.521153 -0.0451996 -6.76803e-21)
(0.59866 -0.0410896 1.50174e-20)
(0.672781 -0.0190842 -7.58677e-21)
(0.846882 -0.0116581 8.18119e-21)
(0.25529 -0.110043 -2.05849e-20)
(0.277116 -0.0886112 1.15796e-21)
(0.306389 -0.0758348 -1.30887e-21)
(0.345693 -0.0664113 8.65585e-21)
(0.395516 -0.0565667 0)
(0.456764 -0.0515347 0)
(0.527 -0.0395321 0)
(0.604172 -0.0366683 7.23398e-21)
(0.679389 -0.0165971 0)
(0.852122 -0.0106109 0)
(0.262024 -0.0965551 0)
(0.283126 -0.0769296 1.04408e-20)
(0.3113 -0.065608 -7.21803e-21)
(0.35041 -0.0572647 -9.83509e-21)
(0.400175 -0.0486931 9.88646e-21)
(0.461479 -0.0446767 6.23309e-21)
(0.531794 -0.0340786 -5.93299e-21)
(0.608843 -0.0324342 -2.50358e-20)
(0.685233 -0.0142543 1.77506e-21)
(0.856768 -0.00961456 -5.948e-21)
(0.267822 -0.0828306 0)
(0.288064 -0.0651988 -3.23341e-21)
(0.315193 -0.0553428 -1.94044e-21)
(0.354001 -0.0482173 0)
(0.403597 -0.0409496 2.92943e-21)
(0.464934 -0.0380133 -8.50858e-21)
(0.53537 -0.0288172 9.94271e-21)
(0.612457 -0.0283815 3.76306e-21)
(0.690076 -0.0120522 -3.76827e-21)
(0.860678 -0.00866818 7.95162e-21)
(0.272539 -0.0688816 2.01688e-21)
(0.291822 -0.0534073 3.50463e-21)
(0.318096 -0.0450475 -6.37406e-22)