/*--------------------------------*- C++ -*----------------------------------*\
  =========                 |
  \\      /  F ield         | OpenFOAM: The Open Source CFD Toolbox
   \\    /   O peration     | Website:  https://openfoam.org
    \\  /    A nd           | Version:  7
     \\/     M anipulation  |
\*---------------------------------------------------------------------------*/
FoamFile
{
    version     2.0;
    format      ascii;
    class       surfaceScalarField;
    location    "6.7";
    object      phi;
}
// * * * * * * * * * * * * * * * * * * * * * * * * * * * * * * * * * * * * * //

dimensions      [0 3 -1 0 0 0 0];

internalField   nonuniform List<scalar> 
35640
(
1.10768e-05
-0.000217965
0.000206888
3.68109e-05
-0.0003375
0.000311766
7.38595e-05
-0.000195521
0.000158473
0.000120869
0.000128755
-0.000175765
0.000177525
0.00058212
-0.000638775
0.000244009
0.00112755
-0.00119403
0.000320675
0.00173809
-0.00181476
0.000407851
0.00239359
-0.00248077
0.000505763
0.00307878
-0.00317669
0.000614472
0.00378173
-0.00389044
0.000733842
0.00449274
-0.00461211
0.000863515
0.00520358
-0.00533325
0.00100297
0.00590704
-0.00604649
0.0011515
0.00659666
-0.00674519
0.00130828
0.00726657
-0.00742334
0.00147235
0.00791142
-0.00807549
0.00164267
0.00852644
-0.00869676
0.00181817
0.00910736
-0.00928286
0.00199775
0.00965056
-0.00983014
0.00218033
0.010153
-0.0103356
0.00236489
0.0106124
-0.010797
0.00255052
0.0110271
-0.0112127
0.00273639
0.0113958
-0.0115817
0.00292186
0.0117182
-0.0119036
0.00310643
0.0119939
-0.0121784
0.00328981
0.0122231
-0.0124065
0.00347188
0.0124059
-0.012588
0.00365261
0.0125422
-0.012723
0.00383188
0.0126325
-0.0128118
0.0126771
0.00400925
-0.0128544
9.21985e-06
-0.000227185
3.06066e-05
-0.000358887
6.1361e-05
-0.000226276
0.000100566
8.95498e-05
0.000148239
0.000534447
0.000204783
0.001071
0.000270761
0.00167212
0.00034668
0.00231767
0.00043291
0.00299255
0.00052963
0.00368501
0.000636812
0.00438556
0.000754218
0.00508617
0.000881429
0.00577982
0.00101786
0.00646022
0.00116279
0.00712164
0.00131536
0.00775885
0.00147464
0.00836716
0.00163965
0.00894236
0.00180936
0.00948084
0.0019828
0.0099796
0.002159
0.0104363
0.00233706
0.010849
0.00251619
0.0112167
0.00269575
0.0115386
0.00287522
0.0118144
0.00305424
0.0120441
0.00323256
0.0122276
0.00341001
0.0123648
0.00358625
0.0124563
0.0125028
0.00376047
7.3291e-06
-0.000234514
2.43158e-05
-0.000375873
4.87405e-05
-0.0002507
8.01432e-05
5.81472e-05
0.0001189
0.000495691
0.00016568
0.00102422
0.000221251
0.00161655
0.000286261
0.00225266
0.000361208
0.0029176
0.000446398
0.00359982
0.000541915
0.00429004
0.000647626
0.00498046
0.000763211
0.00566424
0.000888184
0.00633525
0.0010219
0.00698792
0.00116361
0.00761714
0.00131248
0.00821829
0.00146761
0.00878723
0.00162806
0.00932039
0.00179288
0.00981478
0.00196116
0.010268
0.00213205
0.0106781
0.00230478
0.011044
0.00247868
0.0113647
0.00265318
0.0116399
0.00282784
0.0118694
0.00300229
0.0120531
0.00317618
0.0121909
0.00334889
0.0122836
0.0123324
0.00351932
5.43445e-06
-0.000239949
1.78927e-05
-0.000388332
3.59146e-05
-0.000268722
5.95579e-05
3.45039e-05
8.95551e-05
0.000465694
0.000126816
0.000986963
0.000172304
0.00157106
0.000226829
0.00219814
0.000291006
0.00285342
0.000365243
0.00352558
0.000449731
0.00420555
0.000544436
0.00488576
0.000649116
0.00555956
0.000763372
0.00622099
0.000886658
0.00686463
0.0010183
0.0074855
0.00115755
0.00807904
0.00130355
0.00864122
0.00145545
0.0091685
0.00161235
0.00965788
0.00177338
0.0101069
0.0019377
0.0105138
0.00210454
0.0108771
0.0022732
0.011196
0.00244307
0.01147
0.00261359
0.0116989
0.00278425
0.0118825
0.00295448
0.0120207
0.00312342
0.0121146
0.0121662
0.00328964
3.4817e-06
-0.000243431
1.13954e-05
-0.000396245
2.3063e-05
-0.00028039
3.90648e-05
1.85025e-05
6.05037e-05
0.000444255
8.85716e-05
0.000958896
0.000124393
0.00153524
0.000168925
0.0021536
0.000222905
0.00279944
0.000286843
0.00346164
0.000361012
0.00413138
0.000445464
0.0048013
0.000540053
0.00546497
0.000644452
0.0061166
0.000758182
0.0067509
0.000880647
0.00736303
0.00101115
0.00794854
0.00114893
0.00850344
0.00129316
0.00902427
0.00144299
0.00950805
0.00159757
0.00995235
0.00175609
0.0103553
0.00191776
0.0107155
0.00208183
0.011032
0.00224761
0.0113043
0.00241445
0.011532
0.00258165
0.0117153
0.00274843
0.0118539
0.00291365
0.0119494
0.0120042
0.00307559
1.53116e-06
-0.000244962
4.89054e-06
-0.000399605
1.02629e-05
-0.000285762
1.88017e-05
9.96388e-06
3.1975e-05
0.000431082
5.12267e-05
0.000939644
7.78626e-05
0.0015086
0.000112981
0.00211849
0.000157421
0.002755
0.000211782
0.00340728
0.000276428
0.00406674
0.00035149
0.00472624
0.000436893
0.00537957
0.000532376
0.00602111
0.00063753
0.00664575
0.000751825
0.00724874
0.00087462
0.00782574
0.00100519
0.00837287
0.00114277
0.0088867
0.00128653
0.00936429
0.00143566
0.00980322
0.00158933
0.0102016
0.00174673
0.0105581
0.00190707
0.0108716
0.00206957
0.0111418
0.00223343
0.0113682
0.00239779
0.0115509
0.00256162
0.0116901
0.00272352
0.0117875
0.0118463
0.00288146
-4.357e-07
-0.000244526
-1.5801e-06
-0.00039846
-2.35597e-06
-0.000284986
-1.03531e-06
8.6434e-06
4.22148e-06
0.000425826
1.51273e-05
0.000928738
3.31515e-05
0.00149058
5.95105e-05
0.00209213
9.51518e-05
0.00271936
0.000140762
0.00336167
0.000196775
0.00401072
0.000263394
0.00465962
0.00034061
0.00530235
0.000428228
0.00593349
0.000525898
0.00654808
0.000633139
0.0071415
0.000749361
0.00770952
0.000873885
0.00824835
0.00100597
0.00875461
0.00114483
0.00922542
0.00128966
0.0096584
0.00143961
0.0100517
0.00159385
0.0104038
0.00175154
0.0107139
0.0019118
0.0109815
0.00207368
0.0112063
0.00223613
0.0113885
0.00239788
0.0115283
0.00255725
0.0116282
0.0116917
0.0027119
-2.39066e-06
-0.000242135
-7.95194e-06
-0.000392899
-1.46872e-05
-0.000278251
-2.02723e-05
1.42287e-05
-2.24923e-05
0.000428046
-1.93879e-05
0.000925633
-9.32736e-06
0.00148052
9.0245e-06
0.00207378
3.67068e-05
0.00269168
7.44786e-05
0.0033239
0.000122844
0.00396236
0.00018207
0.0046004
0.000252205
0.00523221
0.000333111
0.00585259
0.000424492
0.0064567
0.000525913
0.00704008
0.000636823
0.00759861
0.000756581
0.00812859
0.000884478
0.00862671
0.00101975
0.00909015
0.00116158
0.00951656
0.00130914
0.0099041
0.00146155
0.0102514
0.0016179
0.0105576
0.00177722
0.0108222
0.00193842
0.0110451
0.00210025
0.0112266
0.00226119
0.0113674
0.00241928
0.0114701
0.0115391
0.00257186
-4.32408e-06
-0.000237811
-1.41745e-05
-0.000383048
-2.66207e-05
-0.000265804
-3.87361e-05
2.63441e-05
-4.79309e-05
0.000437241
-5.20048e-05
0.000929708
-4.91697e-05
0.00147768
-3.7985e-05
0.00206259
-1.73328e-05
0.00267103
1.36129e-05
0.00329296
5.54164e-05
0.00392056
0.000108399
0.00454741
0.000172663
0.00516795
0.00024812
0.00577713
0.000334522
0.0063703
0.000431472
0.00694313
0.000538454
0.00749163
0.000654862
0.00801218
0.000780009
0.00850157
0.000913147
0.00895701
0.00105347
0.00937624
0.00120013
0.00975744
0.00135223
0.0100993
0.00150881
0.010401
0.00166877
0.0106622
0.00183092
0.010883
0.00199379
0.0110638
0.00215564
0.0112055
0.00231422
0.0113115
0.0113868
0.00246653
-6.21786e-06
-0.000231593
-2.01942e-05
-0.000369071
-3.80572e-05
-0.000247941
-5.62713e-05
4.45584e-05
-7.18724e-05
0.000452842
-8.24277e-05
0.000940263
-8.60018e-05
0.00148126
-8.10604e-05
0.00205765
-6.64169e-05
0.00265638
-4.11881e-05
0.00326773
-4.76079e-06
0.00388413
4.32327e-05
0.00449942
0.000102942
0.00510824
0.000174325
0.00570575
0.000257171
0.00628745
0.000351119
0.00684918
0.000455685
0.00738706
0.000570289
0.00789758
0.000694267
0.00837759
0.000826886
0.0088244
0.000967349
0.00923577
0.0011148
0.00960999
0.00126833
0.00994579
0.00142691
0.0102424
0.0015894
0.0104997
0.00175445
0.0107179
0.00192044
0.0108978
0.0020854
0.0110406
0.00224679
0.0111501
0.0112323
0.00240126
-8.05433e-06
-0.000223539
-2.59644e-05
-0.000351161
-4.89082e-05
-0.000224997
-7.27378e-05
6.83884e-05
-9.41193e-05
0.000474223
-0.000110395
0.000956539
-0.000119489
0.00149035
-0.000119787
0.00205795
-0.000110043
0.00264664
-8.93302e-05
0.00324701
-5.69956e-05
0.00385179
-1.26325e-05
0.00445506
4.39499e-05
0.00505166
0.000112747
0.00563695
0.00019358
0.00620662
0.000286117
0.00675664
0.000389907
0.00728327
0.000504391
0.00778309
0.000628925
0.00825305
0.000762791
0.00869053
0.000905207
0.00909336
0.00105533
0.00945987
0.00121222
0.00978889
0.00137485
0.0100798
0.001542
0.0103326
0.00171225
0.0105477
0.00188384
0.0107262
0.00205459
0.0108698
0.00222169
0.010983
0.0110726
0.0023814
-9.81885e-06
-0.00021372
-3.14436e-05
-0.000329536
-5.90959e-05
-0.000197345
-8.80176e-05
9.73103e-05
-0.000114506
0.000500712
-0.000135683
0.000977718
-0.000149346
0.00150402
-0.000153807
0.00206241
-0.000147775
0.00264061
-0.000130288
0.00322953
-0.000100665
0.00382217
-5.84693e-05
0.00441286
-3.4771e-06
0.00499667
6.43365e-05
0.00556914
0.000144819
0.00612613
0.000237669
0.00666379
0.000342455
0.00717849
0.000458641
0.00766691
0.000585602
0.00812609
0.00072264
0.00855349
0.000868994
0.008947
0.00102383
0.00930503
0.00118624
0.00962649
0.00135517
0.00991088
0.00152942
0.0101583
0.00170749
0.0103696
0.00188753
0.0105461
0.00206721
0.0106902
0.00224347
0.0108067
0.0109039
0.00241214
-1.14991e-05
-0.00020222
-3.65986e-05
-0.000304436
-6.85593e-05
-0.000165384
-0.000102017
0.000130768
-0.000132899
0.000531594
-0.000158117
0.00100294
-0.000175344
0.00152124
-0.00018283
0.0020699
-0.00017925
0.00263703
-0.000163619
0.0032139
-0.000135237
0.00379379
-9.36454e-05
0.00437127
-3.85987e-05
0.00494162
2.99502e-05
0.00550059
0.000111871
0.00604421
0.000206883
0.00656878
0.000314577
0.00707079
0.000434434
0.00754705
0.000565849
0.00799468
0.000708148
0.00841119
0.000860594
0.00879456
0.00102239
0.00914323
0.00119265
0.00945622
0.00137038
0.00973316
0.00155437
0.00997433
0.00174316
0.0101808
0.00193487
0.0103544
0.00212704
0.010498
0.0023164
0.0106174
0.010722
0.00249832
-1.30859e-05
-0.000189134
-4.14045e-05
-0.000276117
-7.72537e-05
-0.000129535
-0.000114668
0.000168182
-0.000149206
0.000566133
-0.00017757
0.0010313
-0.000197318
0.00154099
-0.000206644
0.00207922
-0.000204197
0.00263458
-0.00018898
0.00319868
-0.000160286
0.00376509
-0.000117644
0.00432863
-6.07957e-05
0.00488477
1.032e-05
0.00542947
9.55901e-05
0.00595894
0.00019475
0.00646962
0.000307405
0.00695814
0.000433055
0.0074214
0.000571111
0.00785662
0.000720925
0.00826138
0.000881796
0.00863369
0.00105297
0.00897206
0.00123362
0.00927557
0.00142281
0.00954397
0.00161943
0.00977771
0.00182209
0.00997814
0.00202893
0.0101476
0.00223748
0.0102894
0.00244427
0.0104106
0.010522
0.00264423
-1.45734e-05
-0.00017456
-4.58448e-05
-0.000244846
-8.51513e-05
-9.02283e-05
-0.00012593
0.00020896
-0.000163372
0.000603574
-0.000193969
0.0010619
-0.000215171
0.00156219
-0.000225119
0.00208917
-0.000222442
0.00263191
-0.000206143
0.00318238
-0.000175515
0.00373447
-0.000130086
0.0042832
-6.95943e-05
0.00482428
6.03053e-06
0.00535385
9.66803e-05
0.00586829
0.000202105
0.00636419
0.000321919
0.00683832
0.000455635
0.00728768
0.000602685
0.00770957
0.000762443
0.00810162
0.000934247
0.00846188
0.00111739
0.00878891
0.00131114
0.00908183
0.00151465
0.00934046
0.00172694
0.00956542
0.00194676
0.00975832
0.00217239
0.00992195
0.0024014
0.0100604
0.00263022
0.0101818
0.0102989
0.00285332
-1.59584e-05
-0.000158602
-4.99113e-05
-0.000210893
-9.22404e-05
-4.78992e-05
-0.000135789
0.000252509
-0.000175379
0.000643164
-0.000207294
0.00109381
-0.000228875
0.00158378
-0.00023821
0.00209851
-0.000233917
0.00262761
-0.000215003
0.00316347
-0.00018077
0.00370023
-0.000130752
0.00423318
-6.46935e-05
0.00475822
1.74726e-05
0.00527168
0.000115647
0.00577012
0.000229579
0.00625026
0.000358892
0.00670901
0.000503105
0.00714347
0.000661662
0.00755101
0.000833962
0.00792932
0.00101938
0.00827646
0.00121727
0.00859102
0.00142698
0.00887212
0.0016478
0.00911964
0.00187892
0.00933429
0.0021193
0.00951794
0.00236743
0.00967382
0.00262104
0.00980682
0.00287656
0.00992623
0.0100475
0.00312803
-1.72404e-05
-0.000141361
-5.36033e-05
-0.00017453
-9.85233e-05
-2.97907e-06
-0.000144253
0.000298239
-0.000185246
0.000684157
-0.000217576
0.00112614
-0.00023847
0.00160467
-0.000245963
0.002106
-0.000238663
0.00262031
-0.000215587
0.00314039
-0.000176048
0.00366069
-0.000119597
0.00417673
-4.59904e-05
0.00468461
4.48318e-05
0.00518086
0.000152765
0.00566219
0.000277557
0.00612547
0.000418831
0.00656773
0.000576108
0.00698619
0.000748841
0.00737828
0.000936447
0.00774171
0.00113833
0.00807458
0.00135389
0.00837545
0.00158258
0.00864343
0.00182382
0.0088784
0.002077
0.00908111
0.00234133
0.0092536
0.00261562
0.00939953
0.00289786
0.00952459
0.0031846
0.00963949
0.0097625
0.00346955
-1.84212e-05
-0.00012294
-5.6926e-05
-0.000136025
-0.000104014
4.41087e-05
-0.00015135
0.000345576
-0.000193022
0.000725829
-0.000224887
0.00115801
-0.000244054
0.00162384
-0.000248504
0.00211045
-0.000236828
0.00260864
-0.000208054
0.00311162
-0.00016151
0.00361415
-9.67668e-05
0.00411198
-1.35983e-05
0.00460145
8.80361e-05
0.00507922
0.000208026
0.0055422
0.000346112
0.00598738
0.00050191
0.00641194
0.000674938
0.00681317
0.000864648
0.00718857
0.00107046
0.0075359
0.0012918
0.00785325
0.00152811
0.00813914
0.0017789
0.00839264
0.00204374
0.00861356
0.00232222
0.00880264
0.00261384
0.00896198
0.00291777
0.0090956
0.00323238
0.00920997
0.00355452
0.00931735
0.00943932
0.0038777
-1.95042e-05
-0.000103436
-5.98886e-05
-9.56402e-05
-0.000108733
9.29529e-05
-0.000157122
0.000393964
-0.000198776
0.000767483
-0.000229334
0.00118857
-0.000245778
0.00164028
-0.000246026
0.0021107
-0.000228652
0.00259126
-0.000192685
0.00307565
-0.000137471
0.00355893
-6.26007e-05
0.00403711
3.21277e-05
0.00450672
0.000146742
0.00496461
0.000281112
0.00540783
0.000434966
0.00583353
0.000607908
0.00623899
0.000799446
0.00662163
0.00100902
0.00697899
0.00123604
0.00730888
0.00147993
0.00760936
0.00174015
0.00787892
0.00201625
0.00811654
0.00230791
0.0083219
0.00261488
0.00849566
0.00293696
0.0086399
0.00327373
0.00875883
0.00362405
0.00885965
0.00398519
0.00895621
0.00907381
0.00435071
-2.04931e-05
-8.29427e-05
-6.25013e-05
-5.3632e-05
-0.000112704
0.000143155
-0.000161612
0.000442873
-0.000202587
0.000808457
-0.00023104
0.00121702
-0.00024382
0.00165306
-0.000238775
0.00210565
-0.000214449
0.00256694
-0.000169866
0.00303107
-0.000104385
0.00349345
-1.76162e-05
0.00395034
9.06206e-05
0.00439848
0.000220333
0.0048349
0.000371372
0.00525679
0.00054345
0.00566145
0.000736155
0.00604629
0.000948973
0.00640881
0.00118132
0.00674664
0.00143259
0.00705761
0.00170216
0.00733979
0.00198949
0.0075916
0.00229412
0.00781191
0.00261577
0.00800025
0.00295433
0.0081571
0.00330983
0.0082844
0.00368226
0.0083864
0.00407103
0.00847089
0.00447402
0.00855321
0.00866273
0.0048851
-2.13911e-05
-6.15515e-05
-6.47723e-05
-1.02509e-05
-0.000115946
0.000194329
-0.000164863
0.00049179
-0.00020453
0.000848124
-0.000230131
0.00124262
-0.000238372
0.0016613
-0.000227019
0.0020943
-0.000194577
0.0025345
-0.000140055
0.00297654
-6.28147e-05
0.00341621
3.75171e-05
0.00385001
0.000161104
0.00427489
0.000307933
0.00468807
0.000477836
0.00508688
0.000670506
0.00546878
0.000885509
0.00583129
0.00112231
0.00617201
0.00138028
0.00648867
0.00165877
0.00677912
0.0019571
0.00704145
0.00227467
0.00727403
0.00261097
0.00747561
0.00296567
0.00764554
0.00333872
0.00778405
0.0037303
0.00789282
0.00414074
0.00797597
0.00457003
0.0080416
0.00501682
0.00810642
0.00820395
0.0054756
-2.22e-05
-3.93515e-05
-6.67043e-05
3.42534e-05
-0.000118468
0.000246092
-0.0001669
0.000540222
-0.000204662
0.000885887
-0.000226711
0.00126467
-0.000229603
0.0016642
-0.000211014
0.00207571
-0.000169397
0.00249288
-0.000103732
0.00291088
-1.33745e-05
0.00332585
0.000102041
0.0037346
0.000242665
0.00413427
0.000408468
0.00452227
0.000599265
0.00489609
0.000814727
0.00525332
0.0010544
0.00559162
0.0013177
0.00590871
0.00160397
0.00620239
0.00191249
0.00647061
0.00224249
0.00671145
0.00259326
0.00692326
0.00296417
0.00710471
0.00335477
0.00725493
0.00376493
0.00737389
0.00419485
0.0074629
0.0046451
0.00752572
0.00511621
0.00757049
0.0056077
0.00761492
0.0076966
0.00611505
-2.29185e-05
-1.6433e-05
-6.82915e-05
7.96264e-05
-0.000120262
0.000298063
-0.000167723
0.000587683
-0.000203005
0.000921169
-0.000220839
0.00128251
-0.000217634
0.00166099
-0.000190964
0.00204904
-0.000139218
0.00244113
-6.13359e-05
0.00283299
4.33429e-05
0.00322117
0.000175187
0.00360275
0.000334341
0.00397512
0.000520764
0.00433584
0.000734255
0.00468259
0.000974467
0.00501311
0.00124091
0.00532517
0.00153298
0.00561664
0.00184995
0.00588542
0.00219102
0.00612954
0.0025553
0.00634717
0.00294193
0.00653664
0.00335008
0.00669655
0.00377909
0.00682592
0.00422859
0.00692439
0.00469865
0.00699283
0.00518989
0.00703448
0.00570325
0.00705713
0.00623919
0.00707898
0.00714125
0.00679454
-2.3542e-05
7.10898e-06
-6.95165e-05
0.000125601
-0.000121299
0.000349845
-0.000167296
0.000633679
-0.000199527
0.000953401
-0.000212508
0.00129549
-0.000202499
0.00165098
-0.000166971
0.00201351
-0.000104237
0.0023784
-1.319e-05
0.00274195
0.00010686
0.00310112
0.000256291
0.00345332
0.000435251
0.00379616
0.000643694
0.0041274
0.000881407
0.00444488
0.00114802
0.00474649
0.00144303
0.00503017
0.00176577
0.0052939
0.00211546
0.00553573
0.0024912
0.0057538
0.00289198
0.00594639
0.00331672
0.00611189
0.00376434
0.00624893
0.00423386
0.00635641
0.0047245
0.00643374
0.00523599
0.00648135
0.00576872
0.00650175
0.00632384
0.00650201
0.00690269
0.00650013
0.00654005
0.00750389
-2.40609e-05
3.11698e-05
-7.03482e-05
0.000171888
-0.000121522
0.000401018
-0.000165537
0.000677695
-0.000194131
0.000981994
-0.000201616
0.00130298
-0.000184115
0.00163348
-0.000138992
0.00196839
-6.44804e-05
0.00230389
4.05805e-05
0.00263689
0.000176915
0.00296479
0.000344922
0.00328531
0.000544756
0.00359632
0.00077637
0.00389579
0.00103954
0.00418171
0.00133389
0.00445214
0.00165887
0.00470519
0.0020138
0.00493897
0.00239781
0.00515171
0.00280991
0.0053417
0.00324894
0.00550736
0.00371359
0.00564724
0.00420248
0.00576004
0.00471418
0.00584471
0.00524737
0.00590055
0.00580114
0.00592758
0.00637529
0.00592759
0.00697078
0.00590652
0.00758962
0.00588129
0.00589701
0.00823266
-2.44604e-05
5.56301e-05
-7.07397e-05
0.000218167
-0.000120841
0.000451119
-0.000162314
0.000719168
-0.00018664
0.00100632
-0.000187955
0.00130429
-0.000162252
0.00160778
-0.000106796
0.00191294
-1.97407e-05
0.00221683
0.000100129
0.00251702
0.000253575
0.00281134
0.00044102
0.00309787
0.000662628
0.00337471
0.000918355
0.00364006
0.00120797
0.00389209
0.00153108
0.00412904
0.00188711
0.00434916
0.00227533
0.00455075
0.00269484
0.0047322
0.00314454
0.00489201
0.00362313
0.00502878
0.00412908
0.00514129
0.00466066
0.00522846
0.00521594
0.00528943
0.0057929
0.00532359
0.00638966
0.00533082
0.00700495
0.00531231
0.0076388
0.00527267
0.00829332
0.00522677
0.00521845
0.00897188
-2.47206e-05
8.03507e-05
-7.06287e-05
0.000264076
-0.000119136
0.000499626
-0.000157436
0.000757469
-0.000176794
0.00102568
-0.000171193
0.00129869
-0.000136513
0.0015731
-6.99348e-05
0.00184636
3.04681e-05
0.00211643
0.000165956
0.00238153
0.000337325
0.00263997
0.00054502
0.00289017
0.000789218
0.00313052
0.00106987
0.00335941
0.00138674
0.00357522
0.00173941
0.00377637
0.00212729
0.00396127
0.00254963
0.00412842
0.00300546
0.00427637
0.00349363
0.00440384
0.00401272
0.00450969
0.00456103
0.00459297
0.00513653
0.00465297
0.00573678
0.00468918
0.00635894
0.00470142
0.0069999
0.00468987
0.00765661
0.00465559
0.00832704
0.00460224
0.00901188
0.00454194
0.00451367
0.00971666
-2.48167e-05
0.000105167
-6.99373e-05
0.000309196
-0.000116255
0.000545944
-0.000150663
0.000791877
-0.000164248
0.00103926
-0.000150875
0.00128532
-0.000106329
0.00152855
-2.7709e-05
0.00176774
8.69392e-05
0.00200178
0.000238947
0.00222952
0.000429129
0.00244979
0.000657945
0.00266136
0.00092557
0.00286289
0.00123195
0.00305302
0.00157684
0.00323034
0.00195978
0.00339342
0.00238019
0.00354087
0.00283727
0.00367134
0.00333005
0.00378359
0.00385733
0.00387656
0.00441765
0.00394937
0.00500922
0.00400139
0.00562984
0.00403234
0.00627672
0.00404231
0.0069463
0.00403185
0.00763405
0.00400211
0.00833449
0.00395515
0.00904176
0.00389498
0.00975191
0.00383179
0.00379452
0.0104711
-2.47201e-05
0.000129887
-6.85753e-05
0.000353051
-0.000112018
0.000589387
-0.000141704
0.000821563
-0.000148582
0.00104614
-0.000126431
0.00126316
-7.09682e-05
0.00147309
2.07537e-05
0.00167601
0.000150761
0.00187177
0.00032038
0.0020599
0.000530445
0.00223973
0.00078142
0.00241038
0.00107347
0.00257084
0.00140652
0.00271998
0.00178028
0.00285657
0.0021943
0.0029794
0.00264793
0.00308723
0.00314038
0.00317889
0.00367067
0.00325331
0.0042376
0.00330963
0.00483976
0.0033472
0.00547543
0.00336572
0.00614247
0.00336531
0.00683811
0.00334667
0.0075586
0.00331136
0.00829857
0.00326214
0.00905008
0.00320364
0.00980139
0.00314366
0.0105364
0.00309674
0.0030713
0.0112597
-2.43995e-05
0.000154287
-6.64421e-05
0.000395094
-0.000106226
0.00062917
-0.00013023
0.000845566
-0.000129311
0.00104522
-9.71946e-05
0.00123105
-2.95529e-05
0.00140545
7.65956e-05
0.00156987
0.000223292
0.00172508
0.000411874
0.00187132
0.000643169
0.00200843
0.000917621
0.00213593
0.00123536
0.0022531
0.00159628
0.00235906
0.00200004
0.00245281
0.00244613
0.00253331
0.00293389
0.00259948
0.00346247
0.00265031
0.00403089
0.00268489
0.004638
0.00270251
0.00528251
0.0027027
0.00596291
0.00268533
0.00667745
0.00265077
0.00742403
0.00260008
0.00819995
0.00253544
0.00900136
0.00246073
0.00982206
0.00238293
0.01065
0.00231574
0.0114535
0.00229319
0.0121532
0.00237162
0.00439011
0.0701005
-0.0704814
0.00471517
0.0674031
-0.0677282
0.00500193
0.0625557
-0.0628425
0.00529899
0.0577061
-0.0580032
0.00560197
0.0536517
-0.0539547
0.00588804
0.0506305
-0.0509165
0.00612326
0.0485907
-0.0488259
0.00628223
0.0473031
-0.047462
0.00635562
0.0465562
-0.0466296
0.00634716
0.0461906
-0.0461821
0.00626899
0.0461141
-0.0460359
0.00613441
0.0462649
-0.0461303
0.00595535
0.0465995
-0.0464204
0.00574104
0.0470685
-0.0468542
0.00549873
0.0476274
-0.0473851
0.00523378
0.0482381
-0.0479731
0.00495069
0.0488694
-0.0485863
0.00465354
0.0494977
-0.0492005
0.00434527
0.0501099
-0.0498017
0.0040283
0.0506953
-0.0503783
0.00370481
0.0512441
-0.0509206
0.00337617
0.0517546
-0.051426
0.00304356
0.052221
-0.0518884
0.00270772
0.0526404
-0.0523045
0.00236899
0.0530121
-0.0526734
0.00202743
0.0533327
-0.0529911
0.00168268
0.0536095
-0.0532648
0.00133513
0.0538551
-0.0535075
0.000986733
0.0540789
-0.0537305
0.0542284
-0.0538829
0.00420808
0.0696529
0.00459696
0.0670142
0.00493598
0.0622167
0.00528324
0.0573589
0.00563271
0.0533022
0.00596034
0.0503029
0.00623006
0.048321
0.00641545
0.0471177
0.00650692
0.0464648
0.00650939
0.0461881
0.00643607
0.0461874
0.00630229
0.0463987
0.00612076
0.046781
0.00590197
0.0472873
0.00565321
0.0478761
0.00538067
0.0485106
0.00508906
0.049161
0.00478245
0.0498043
0.004464
0.0504284
0.00413666
0.0510226
0.00380211
0.0515786
0.0034623
0.0520944
0.00311841
0.0525649
0.0027709
0.0529879
0.00242078
0.0533622
0.00206761
0.0536859
0.00171155
0.0539656
0.0013531
0.0542136
0.000994092
0.0544379
0.0545843
0.00402517
0.0691471
0.00447297
0.0665664
0.00486188
0.0618278
0.00525921
0.0569615
0.00565647
0.0529049
0.00602746
0.0499319
0.00633346
0.048015
0.00654673
0.0469044
0.0066574
0.0463541
0.00667168
0.0461738
0.0066038
0.0462553
0.00647116
0.0465313
0.00628736
0.0469648
0.00606424
0.0475104
0.00580922
0.0481312
0.0055292
0.0487907
0.00522916
0.0494611
0.00491315
0.0501203
0.00458455
0.050757
0.00424676
0.0513604
0.0039011
0.0519243
0.00355002
0.0524455
0.0031947
0.0529202
0.00283543
0.0533472
0.00247377
0.0537239
0.00210885
0.0540508
0.00174132
0.0543331
0.00137182
0.0545831
0.00100195
0.0548078
0.0549509
0.00384437
0.0685923
0.00434556
0.0660652
0.00478136
0.061392
0.00522808
0.0565148
0.00567399
0.052459
0.0060898
0.0495161
0.00643356
0.0476712
0.00667605
0.0466619
0.00680706
0.0462231
0.00683386
0.046147
0.00677201
0.0463171
0.00664071
0.0466626
0.00645501
0.0471505
0.00622764
0.0477378
0.00596665
0.0483921
0.00567923
0.0490781
0.00537082
0.0497695
0.00504548
0.0504456
0.00470684
0.0510956
0.00435848
0.0517088
0.00400179
0.052281
0.00363935
0.0528079
0.00327244
0.0532871
0.00290143
0.0537182
0.00252792
0.0540974
0.00215123
0.0544275
0.00177204
0.0547123
0.00139126
0.0549638
0.00101038
0.0551887
0.0553284
0.00366921
0.0679987
0.00421748
0.065517
0.00469667
0.0609128
0.00519147
0.05602
0.00568624
0.0519643
0.00614784
0.0490545
0.00653065
0.0472884
0.00680349
0.0463891
0.00695572
0.0460709
0.00699567
0.0461071
0.00694047
0.0463723
0.00681084
0.0467922
0.00662351
0.0473379
0.00639194
0.0479694
0.00612521
0.0486589
0.0058306
0.0493727
0.00551385
0.0500862
0.0051793
0.0507802
0.00483077
0.0514442
0.00447173
0.0520678
0.00410409
0.0526486
0.00373021
0.0531818
0.00335156
0.0536658
0.00296882
0.0541009
0.00258324
0.054483
0.00219475
0.054816
0.00180375
0.0551033
0.00141145
0.0553561
0.0010194
0.0555807
0.0557173
0.00350381
0.0673764
0.00409211
0.0649287
0.00461047
0.0603944
0.00515125
0.0554792
0.00569444
0.0514211
0.00620226
0.0485466
0.00662494
0.0468657
0.00692903
0.046085
0.00710332
0.0458966
0.00715704
0.0460534
0.00710898
0.0464204
0.00698133
0.0469199
0.00679261
0.0475266
0.00655704
0.0482049
0.0062847
0.0489312
0.00598307
0.0496743
0.00565812
0.0504112
0.00531449
0.0511238
0.00495614
0.0518025
0.00458649
0.0524375
0.00420789
0.0530272
0.00382255
0.0535672
0.00343212
0.0540562
0.00303754
0.0544955
0.00263982
0.0548807
0.0022394
0.0552164
0.00183645
0.0555063
0.00143246
0.0557601
0.00102901
0.0559842
0.0561178
0.00335277
0.0667355
0.0039734
0.064308
0.00452593
0.0598419
0.00510968
0.0548955
0.00570002
0.0508307
0.00625383
0.0479928
0.00671676
0.0464028
0.00705272
0.045749
0.00724977
0.0456995
0.00731781
0.0459853
0.00727732
0.0464609
0.00715198
0.0470452
0.00696207
0.0477165
0.00672273
0.0484443
0.00644491
0.0492091
0.00613644
0.0499828
0.00580348
0.0507441
0.00545087
0.0514764
0.00508279
0.0521706
0.00470264
0.0528176
0.00431306
0.0534168
0.00391629
0.0539639
0.00351405
0.0544584
0.00310755
0.054902
0.00269763
0.0552906
0.00228515
0.0556289
0.00187016
0.0559212
0.00145427
0.056176
0.00103919
0.0563993
0.0565302
0.00322127
0.0660861
0.0038658
0.0636635
0.00444676
0.0592609
0.00506938
0.0542728
0.00570466
0.0501955
0.00630346
0.047394
0.00680653
0.0458997
0.00717467
0.0453809
0.00739498
0.0454792
0.00747782
0.0459025
0.0074453
0.0464934
0.00732257
0.0471679
0.00713168
0.0479074
0.00688879
0.0486872
0.00660565
0.0494922
0.00629051
0.0502979
0.0059497
0.051085
0.00558827
0.0518378
0.00521057
0.0525483
0.00482005
0.0532081
0.00441951
0.0538173
0.00401135
0.0543721
0.00359729
0.0548725
0.00317882
0.0553204
0.00275665
0.0557128
0.00233199
0.0560535
0.00190485
0.0563484
0.00147691
0.056604
0.00104995
0.0568262
0.0569548
0.00311502
0.0654376
0.00377432
0.0630042
0.0043771
0.0586581
0.00503336
0.0536166
0.00571027
0.0495185
0.00635225
0.046752
0.00689474
0.0453572
0.007295
0.0449806
0.0075389
0.0452353
0.00763694
0.0458044
0.00761273
0.0465176
0.0074929
0.0472878
0.00730123
0.0480991
0.007055
0.0489334
0.0067667
0.0497805
0.00644507
0.0506195
0.00609659
0.0514334
0.00572653
0.0522079
0.00533931
0.0529355
0.00493855
0.0536089
0.00452714
0.0542288
0.00410761
0.0547916
0.00368175
0.0552984
0.00325128
0.0557509
0.00281682
0.0561472
0.00237988
0.0564905
0.00194052
0.0567878
0.00150036
0.0570441
0.00106129
0.0572653
0.057392
0.00304016
0.0647987
0.00370447
0.0623399
0.00432158
0.058041
0.00500496
0.0529332
0.00571903
0.0488045
0.00640142
0.0460697
0.00698198
0.0447766
0.00741394
0.0445487
0.00768149
0.0449677
0.007795
0.0456909
0.0077794
0.0465332
0.00766276
0.0474044
0.00747052
0.0482913
0.00722113
0.0491828
0.00692786
0.0500738
0.00659991
0.0509475
0.00624395
0.0517894
0.00586544
0.0525864
0.00546885
0.0533321
0.00505799
0.0540198
0.0046358
0.054651
0.00420497
0.0552224
0.00376734
0.055736
0.00332485
0.0561934
0.00287811
0.056594
0.00242879
0.0569398
0.00197711
0.0572394
0.00152462
0.0574966
0.00107319
0.0577167
0.0578419
0.00300313
0.064177
0.00366214
0.0616809
0.00428517
0.057418
0.00498791
0.0522305
0.00573338
0.048059
0.00645241
0.0453506
0.00706895
0.0441601
0.00753172
0.0440859
0.00782274
0.0446767
0.0079519
0.0455618
0.00794515
0.04654
0.00783194
0.0475176
0.00763934
0.0484839
0.00738697
0.0494351
0.00708892
0.0503718
0.00675484
0.0512816
0.00639158
0.0521526
0.00600482
0.0529732
0.00559902
0.0537379
0.0051782
0.0544406
0.00474535
0.0550838
0.00430329
0.0556645
0.00385396
0.0561853
0.00339943
0.0566479
0.00294042
0.057053
0.00247867
0.0574015
0.0020146
0.0577035
0.00154963
0.0579616
0.00108566
0.0581807
0.0583048
0.00301045
0.0635786
0.0036535
0.0610378
0.00427316
0.0567984
0.00498621
0.0515174
0.00575601
0.0472892
0.00650681
0.0445998
0.00715647
0.0435104
0.00764866
0.0435937
0.00796267
0.0443627
0.0081075
0.0454169
0.00810976
0.0465377
0.00800023
0.0476271
0.00780747
0.0486767
0.00755232
0.0496903
0.00724966
0.0506745
0.00690964
0.0516216
0.00653928
0.052523
0.00614447
0.053368
0.00572966
0.0541527
0.00529901
0.0548712
0.00485566
0.0555271
0.00440246
0.0561177
0.00394149
0.0566463
0.00347495
0.0571145
0.00300369
0.0575242
0.00252946
0.0578758
0.00205293
0.05818
0.00157537
0.0584391
0.00109867
0.0586574
0.058781
0.00306847
0.0630085
0.00368478
0.0604215
0.00429101
0.0561921
0.00500409
0.0508043
0.00578985
0.0465034
0.00656641
0.0438233
0.00724548
0.0428314
0.00776513
0.0430741
0.00810134
0.0440265
0.00826168
0.0452566
0.00827308
0.0465263
0.00816742
0.0477328
0.00797469
0.0488694
0.00771695
0.049948
0.00740989
0.0509815
0.00706412
0.0519674
0.00668687
0.0529002
0.00628418
0.0537707
0.00586058
0.0545763
0.00542027
0.0553116
0.00496657
0.0559808
0.00450233
0.0565819
0.00402983
0.0571188
0.00355131
0.057593
0.00306782
0.0580077
0.00258109
0.0583625
0.00209205
0.0586691
0.0016018
0.0589294
0.00111221
0.059147
0.0592707
0.00318304
0.0624697
0.00376207
0.0598425
0.00434426
0.0556099
0.00504596
0.0501026
0.00583802
0.0457114
0.00663316
0.0430281
0.00733705
0.0421275
0.0078816
0.0425295
0.00823884
0.0436693
0.00841435
0.0450811
0.0084349
0.0465057