/*--------------------------------*- C++ -*----------------------------------*\
  =========                 |
  \\      /  F ield         | OpenFOAM: The Open Source CFD Toolbox
   \\    /   O peration     | Website:  https://openfoam.org
    \\  /    A nd           | Version:  7
     \\/     M anipulation  |
\*---------------------------------------------------------------------------*/
FoamFile
{
    version     2.0;
    format      ascii;
    class       surfaceScalarField;
    location    "1.1";
    object      phi;
}
// * * * * * * * * * * * * * * * * * * * * * * * * * * * * * * * * * * * * * //

dimensions      [0 3 -1 0 0 0 0];

internalField   nonuniform List<scalar> 
3880
(
0.000310996
0.00237616
-0.00268715
0.00124835
0.00489181
-0.00582916
0.00272407
0.00640216
-0.00787789
0.00461448
0.00736863
-0.00925904
0.00678702
0.00805227
-0.0102248
0.00911971
0.00860649
-0.0109392
0.0115119
0.00912314
-0.0115153
0.0138863
0.00965748
-0.0120319
0.0161847
0.0102436
-0.012542
0.0109046
0.0183603
-0.0130802
0.000337343
0.00203881
0.00134849
0.00388066
0.00294075
0.0048099
0.00498551
0.00532387
0.007345
0.00569279
0.00989193
0.00605956
0.0125208
0.00649427
0.0151503
0.00702796
0.0177188
0.00767508
0.00844861
0.0201748
0.000369235
0.00166958
0.00146297
0.00278693
0.00317934
0.00309353
0.00538212
0.0031211
0.00792717
0.00314773
0.0106823
0.00330446
0.0135388
0.00363779
0.0164142
0.00415247
0.0192471
0.00484218
0.00571124
0.0219845
0.000407732
0.00126184
0.00159353
0.00160112
0.00344144
0.00124563
0.00580494
0.000757605
0.00853248
0.000420187
0.0114871
0.000349798
0.0145586
0.000566353
0.017666
0.00104509
0.0207516
0.00175651
0.00269768
0.0237652
0.000453298
0.000808546
0.0017407
0.000313719
0.00372719
-0.00074085
0.00625327
-0.00176847
0.00915898
-0.00248553
0.012303
-0.00279419
0.0155744
-0.00270507
0.0188962
-0.00227669
0.0222181
-0.0015654
-0.00058117
0.0254969
0.000506315
0.000302233
0.00190441
-0.00108437
0.00403521
-0.00287165
0.0067239
-0.00445716
0.00980159
-0.00556322
0.0131231
-0.00611567
0.016578
-0.00616004
0.0200945
-0.00579318
0.0236324
-0.00510332
-0.00410912
0.0271604
0.000566612
-0.00026438
0.00208286
-0.00260063
0.00436092
-0.0051497
0.00720878
-0.00730503
0.0104488
-0.00880326
0.0139331
-0.00959993
0.0175528
-0.00977979
0.0212418
-0.0094821
0.0249711
-0.00883265
-0.0078632
0.0287252
0.000633357
-0.000897737
0.00227224
-0.00423951
0.00469572
-0.00757318
0.00769348
-0.0103028
0.0110801
-0.0121899
0.0147067
-0.0132265
0.0184671
-0.0135401
0.0222994
-0.0133145
0.0261856
-0.0127188
-0.0118108
0.0301332
0.000704928
-0.00160266
0.0024663
-0.00600088
0.0050264
-0.0101333
0.00815624
-0.0134326
0.0116647
-0.0156983
0.0154049
-0.0169668
0.0192747
-0.01741
0.0232128
-0.0172525
0.0272017
-0.0167077
-0.0159095
0.0313004
0.000778846
-0.00238151
0.00265631
-0.00787835
0.00533505
-0.012812
0.0085679
-0.0166655
0.0121614
-0.0192917
0.0159769
-0.0207824
0.0199246
-0.0213576
0.0239494
-0.0212773
0.0280182
-0.0207765
0.0321542
-0.0200456
0.019627
0.0491181
-0.0503848
0.0195484
0.0571561
-0.0570776
0.018382
0.0649601
-0.0637936
0.016531
0.071992
-0.070141
0.0142727
0.0781216
-0.0758633
0.0116337
0.0835733
-0.0809343
0.00893425
0.0873866
-0.0846872
0.00593947
0.0920604
-0.0890656
0.00280036
0.09447
-0.0913309
0.102663
-0.099863
0.0215735
0.0477194
0.0215138
0.0572158
0.0202929
0.0661811
0.0183134
0.0739714
0.0158642
0.0805709
0.012979
0.0864585
0.00998853
0.0903771
0.00665789
0.095391
0.00315917
0.0979687
0.105823
0.023503
0.046201
0.023476
0.0572428
0.0222252
0.067432
0.0201336
0.0760629
0.0175081
0.0831964
0.0143754
0.0895913
0.0111039
0.0936486
0.00742394
0.099071
0.00356389
0.101829
0.109386
0.0253876
0.0445786
0.0254075
0.0572228
0.0241544
0.068685
0.0219728
0.0782445
0.0191911
0.0859781
0.0158136
0.0929687
0.0122756
0.0971865
0.00823461
0.103112
0.00401408
0.106049
0.113401
0.0272015
0.042874
0.027278
0.0571464
0.0260511
0.0699119
0.0238065
0.0804891
0.0208945
0.0888902
0.0172793
0.096584
0.0134949
0.100971
0.00908272
0.107524
0.0045074
0.110625
0.117908
0.0289228
0.0411116
0.0290579
0.0570113
0.027882
0.0710878
0.025605
0.0827662
0.0225943
0.0919009
0.0187528
0.100425
0.0147478
0.104976
0.00995628
0.112316
0.00503914
0.115542
0.122947
0.0305223
0.0393145
0.030712
0.0568216
0.0296076
0.0721922
0.0273309
0.0850428
0.024259
0.0949728
0.0202085
0.104476
0.0160145
0.10917
0.0108381
0.117492
0.00560094
0.120779
0.128548
0.0319312
0.0375164
0.0321796
0.0565732
0.0311726
0.0731992
0.0289362
0.0872793
0.0258476
0.0980613
0.0216141
0.10871
0.0172689
0.113515
0.0117065
0.123055
0.00618076
0.126305
0.134729
0.0330735
0.0357434
0.0334303
0.0562164
0.0325567
0.0740728
0.0303986
0.0894373
0.0273327
0.101127
0.022943
0.113099
0.0184903
0.117968
0.0125385
0.129006
0.0067658
0.132077
0.141495
0.0339812
0.0339164
0.0346196
0.0555779
0.033871
0.0748215
0.0317991
0.0915092
0.028711
0.104215
0.024237
0.117573
0.0196055
0.122599
0.013375
0.135237
0.00730632
0.138146
0.148801
0.131831
0.0486628
-0.146578
0.118357
0.0690521
0.105223
0.0879557
0.0923928
0.104339
0.0785977
0.11801
0.0651847
0.130986
0.0493242
0.13846
0.0340986
0.150462
0.018186
0.154059
0.166987
0.148023
0.0625434
-0.161904
0.135092
0.0819828
0.122065
0.100983
0.108151
0.118253
0.0928162
0.133345
0.0768068
0.146996
0.0584703
0.156796
0.040492
0.168441
0.0214081
0.173142
0.188395
0.165552
0.0754883
-0.178497
0.152642
0.0948924
0.139027
0.114598
0.124058
0.133223
0.107289
0.150114
0.0890443
0.16524
0.0684829
0.177358
0.0474046
0.189519
0.0247472
0.1958
0.213142
0.185173
0.0876773
-0.197361
0.171902
0.108163
0.157299
0.1292
0.140938
0.149584
0.122474
0.168577
0.101931
0.185784
0.0788996
0.200389
0.0544566
0.213962
0.0282361
0.22202
0.241378
0.206272
0.0994962
-0.218091
0.192759
0.121676
0.177398
0.144561
0.159797
0.167186
0.139599
0.188774
0.116678
0.208706
0.0908685
0.226198
0.0629251
0.241905
0.0329221
0.252023
0.2743
0.228943
0.110896
-0.240343
0.215481
0.135138
0.199727
0.160315
0.1812
0.185713
0.159428
0.210546
0.134099
0.234034
0.104937
0.25536
0.0723073
0.274536
0.0371361
0.287195
0.311436
0.254189
0.122108
-0.265402
0.240884
0.148443
0.225008
0.176191
0.205875
0.204846
0.182738
0.233683
0.155036
0.261736
0.122483
0.287913
0.085686
0.311332
0.0454456
0.327435
0.356882
0.27929
0.131414
-0.288596
0.267755
0.159979
0.253158
0.190788
0.234613
0.223391
0.211389
0.256907
0.18296
0.290166
0.148569
0.322304
0.108373
0.351529
0.059426
0.376382
0.416308
0.311984
0.138775
-0.319345
0.301099
0.170864
0.286244
0.205643
0.266593
0.243041
0.24056
0.282941
0.206166
0.324559
0.161352
0.367118
0.106657
0.406223
0.0491248
0.433914
0.465433
0.325268
-0.30624
0.330972
0.327658
0.317387
0.300561
0.27508
0.239762
0.184385
0.107748
0.0376584
-0.150756
-0.0334804
0.0405329
-0.164778
0.0426628
-0.180627
0.0441654
-0.198864
0.0449568
-0.218882
0.0451215
-0.240507
0.0441432
-0.264424
0.042732
-0.287185
0.0370815
-0.313694
-0.293408
0.03608
-0.154192
-0.0326435
0.0387253
-0.167423
0.0406691
-0.18257
0.0420033
-0.200198
0.0426661
-0.219545
0.0427412
-0.240582
0.0417531
-0.263435
0.0403735
-0.285805
0.0344658
-0.307787
-0.279688
0.0341572
-0.157178
-0.0311709
0.036567
-0.169833
0.0383088
-0.184312
0.0394795
-0.201369
0.0400434
-0.220108
0.0400592
-0.240598
0.0391436
-0.26252
0.0378119
-0.284474
0.0317405
-0.301715
-0.265141
0.0317587
-0.159809
-0.0291282
0.0339212
-0.171996
0.0354675
-0.185858
0.0365001
-0.202402
0.0370094
-0.220618
0.0370269
-0.240616
0.0362575
-0.26175
0.0350282
-0.283245
0.0288604
-0.295547
-0.249911
0.0288599
-0.162111
-0.0265579
0.0307533
-0.173889
0.032125
-0.18723
0.0330573
-0.203334
0.0335641
-0.221125
0.0336479
-0.240699
0.033093
-0.261196
0.0320037
-0.282155
0.0258456
-0.289389
-0.23415
0.0254659
-0.16408
-0.0234963
0.0270749
-0.175498
0.0283024
-0.188458
0.0291764
-0.204208
0.0297318
-0.22168
0.0299414
-0.240909
0.0296533
-0.260908
0.0287196
-0.281221
0.0227476
-0.283417
-0.218004
0.0216095
-0.165703
-0.0199866
0.0229283
-0.176817
0.024044
-0.189573
0.0248999
-0.205064
0.0255492
-0.222329
0.0259351
-0.241295
0.0259428
-0.260915
0.0251473
-0.280426
0.0196122
-0.277882
-0.201676
0.0173444
-0.166964
-0.016084
0.0183741
-0.177847
0.0194072
-0.190607
0.0202801
-0.205937
0.0210612
-0.22311
0.0216655
-0.241899
0.0219786
-0.261228
0.021278
-0.279725
0.0163579
-0.272962
-0.185726
0.0127404
-0.167849
-0.0118553
0.0134863
-0.178593
0.0144592
-0.191579
0.0153775
-0.206855
0.0163206
-0.224054
0.0171786
-0.242757
0.0178067
-0.261856
0.0172227
-0.279141
0.0126868
-0.268426
-0.171458
0.00787793
-0.168351
-0.00737571
0.00834873
-0.179063
0.00927533
-0.192506
0.0102602
-0.20784
0.0113876
-0.225181
0.0125283
-0.243898
0.0134948
-0.262823
0.0131513
-0.278798
0.00894743
-0.264222
-0.15943
0.00284503
-0.168458
-0.00273799
0.00306433
-0.179283
0.0039494
-0.193391
0.00501277
-0.208903
0.00633713
-0.226505
0.00778099
-0.245342
0.00911869
-0.264161
0.00913605
-0.278815
0.00535051
-0.260437
-0.149364
-0.002274
-0.168189
0.00200523
-0.00229109
-0.179266
-0.00145476
-0.194227
-0.000303838
-0.210054
0.00122169
-0.228031
0.00298361
-0.247104
0.00472223
-0.265899
0.00520008
-0.279293
0.00166903
-0.256906
-0.141161
-0.00737831
-0.167569
0.00675774
-0.00760115
-0.179043
-0.00683026
-0.194998
-0.00559592
-0.211289
-0.00387606
-0.229751
-0.00180798
-0.249172
0.000228713
-0.267936
0.00145954
-0.280524
-0.00141608
-0.25403
-0.134109
-0.0123871
-0.166615
0.0114334
-0.0127629
-0.178667
-0.0120843
-0.195677
-0.0107805
-0.212592
-0.00888765
-0.231643
-0.00651447
-0.251545
-0.00389858
-0.270552
-0.00240654
-0.282016
-0.00407707
-0.25236
-0.127691
-0.0171999
-0.16535
0.0159352
-0.0176826
-0.178184
-0.0171298
-0.19623
-0.0157829
-0.213939
-0.0137507
-0.233676
-0.0111029
-0.254193
-0.00808843
-0.273566
-0.00606956
-0.284035
-0.00692274
-0.251507
-0.12201
-0.0217239
-0.16378
0.0201534
-0.0222821
-0.177626
-0.0218887
-0.196623
-0.0205373
-0.215291
-0.0184097
-0.235803
-0.0155316
-0.257071
-0.0121502
-0.276948
-0.00957414
-0.286611
-0.00978823
-0.251292
-0.117033
-0.0258444
-0.161911
0.0239753
-0.0264688
-0.177002
-0.0262653
-0.196827
-0.0249613
-0.216595
-0.0227933
-0.237971
-0.0197433
-0.260121
-0.0160396
-0.280651
-0.0129423
-0.289708
-0.0126108
-0.251624
-0.112684
-0.0293799
-0.159826
0.0272952
-0.0301104
-0.176271
-0.0301352
-0.196802
-0.0289489
-0.217781
-0.0268131
-0.240107
-0.023671
-0.263263
-0.0197145
-0.284608
-0.0161643
-0.293258
-0.0153651
-0.252423
-0.108881
-0.0322993
-0.157564
0.0300377
-0.0332494
-0.175321
-0.0335439
-0.196507
-0.032546
-0.218779
-0.0305151
-0.242138
-0.0273558
-0.266422
-0.0232115
-0.288752
-0.0192693
-0.2972
-0.0180674
-0.253625
-0.10556
-0.0349847
-0.154735
0.0321551
-0.0362377
-0.174068
-0.0367646
-0.19598
-0.0360196
-0.219524
-0.0341314
-0.244026
-0.0309855
-0.269568
-0.0266328
-0.293105
-0.0222985
-0.301535
-0.0203439
-0.25558
-0.102213
-0.0340678
-0.146114
0.0254468
-0.0393142
-0.168822
-0.04397
-0.191324
-0.0474415
-0.216052
-0.0493052
-0.242162
-0.0501293
-0.268744
-0.052006
-0.291228
-0.0605731
-0.292968
-0.0822181
-0.233935
-0.0763484
-0.05734
-0.138425
0.0496512
-0.0638963
-0.162265
-0.0696138
-0.185607
-0.0742193
-0.211447
-0.0773114
-0.23907
-0.079408
-0.266648
-0.0834196
-0.287217
-0.0961905
-0.280197
-0.12304
-0.207085
-0.052696
-0.0792603
-0.130259
0.0710948
-0.0877068
-0.153819
-0.095372
-0.177942
-0.101868
-0.204951
-0.106821
-0.234117
-0.110946
-0.262523
-0.117998
-0.280164
-0.135343
-0.262852
-0.165297
-0.177131
-0.0319033
-0.101471
-0.120668
0.0918795
-0.112221
-0.143069
-0.122463
-0.1677
-0.131551
-0.195862
-0.138968
-0.226701
-0.145738
-0.255753
-0.156656
-0.269246
-0.179186
-0.240322
-0.211628
-0.144689
-0.0144346
-0.123294
-0.108331
0.110957
-0.137013
-0.129349
-0.15075
-0.153963
-0.16354
-0.183073
-0.174678
-0.215563
-0.185526
-0.244905
-0.201713
-0.253059
-0.229699
-0.212336
-0.263201
-0.111188
-0.000923916
-0.143907
-0.0934309
0.129007
-0.161576
-0.111679
-0.180085
-0.135454
-0.198292
-0.164865
-0.215341
-0.198514
-0.232687
-0.227559
-0.255858
-0.229888
-0.288754
-0.17944
-0.320817
-0.0791246
0.00781151
-0.162995
-0.0723217
0.141886
-0.185694
-0.08898
-0.210334
-0.110814
-0.236234
-0.138966
-0.262329
-0.172419
-0.289413
-0.200475
-0.32111
-0.198192
-0.357283
-0.143267
-0.384872
-0.051535
0.011447
-0.18087
-0.0519099
0.160459
-0.207268
-0.062582
-0.238496
-0.0795862
-0.273725
-0.103737
-0.311879
-0.134264
-0.352875
-0.159479
-0.397005
-0.154061
-0.437891
-0.102381
-0.460819
-0.0286067
0.0105948
-0.183429
-0.0261096
0.157629
-0.214062
-0.031949
-0.251527
-0.0421209
-0.297498
-0.0577666
-0.353256
-0.0785054
-0.418085
-0.0946511
-0.484577
-0.0875686
-0.535432
-0.0515265
-0.554571
-0.00946757
0.00631247
-0.175267
0.149157
-0.207216
-0.249336
-0.307103
-0.385609
-0.48026
-0.567828
-0.619355
-0.628822
-0.0375039
0.0293463
0.0336044
-0.0392339
0.0513812
-0.0396367
0.0714976
-0.0384916
0.0907344
-0.0356431
0.108108
-0.0312699
0.124633
-0.0253645
0.13598
-0.0174593
0.152553
-0.00910744
0.149277
0.140049
-0.0368831
0.0322149
0.0340145
-0.0380516
0.0525497
-0.0381095
0.0715556
-0.0366475
0.0892724
-0.0336811
0.105142
-0.029183
0.120135
-0.0236832
0.130481
-0.015871
0.144741
-0.00841418
0.14182
0.131635
-0.0363178
0.0346705
0.0338622
-0.0370361
0.0532679
-0.0366997
0.0712192
-0.0349128
0.0874855
-0.0317803
0.102009
-0.0272771
0.115632
-0.021885
0.125088
-0.0145592
0.137415
-0.00757461
0.134835
0.124061
-0.0353749
0.036837
0.0332084
-0.0357803
0.0536733
-0.0351123
0.0705512
-0.0330693
0.0854426
-0.0298284
0.0987682
-0.0253691
0.111173
-0.020136
0.119855
-0.0132712
0.130551
-0.00674381
0.128308
0.117317
-0.0340237
0.0387113
0.0321495
-0.0342077
0.0538573
-0.0332821
0.0696256
-0.0310734
0.0832338
-0.0277955
0.0954903
-0.0234433
0.106821
-0.0184105
0.114822
-0.0120152
0.124155
-0.00592984
0.122223
0.111387
-0.0323608
0.0403129
0.0307592
-0.0323795
0.053876
-0.031255
0.0685012
-0.0289582
0.080937
-0.0257064
0.0922385
-0.0215138
0.102628
-0.0167202
0.110029
-0.0108011
0.118236
-0.00515491
0.116576
0.106232
-0.0304598
0.0416748
0.029098
-0.0303617
0.0537778
-0.0290937
0.0672332
-0.0267738
0.0786172
-0.0236005
0.0890652
-0.0196074
0.0986349
-0.0150867
0.105508
-0.00964385
0.112793
-0.00443897
0.111372
0.101793
-0.0283789
0.042826
0.0272276
-0.0282061
0.053605
-0.02685
0.0658772
-0.0245629
0.07633
-0.021512
0.0860142
-0.0177492
0.0948722
-0.0135287
0.101288
-0.00855666
0.107821
-0.00379235
0.106607
0.0980008
-0.0261779
0.0437917
0.0252122
-0.0259644
0.0533915
-0.0245717
0.0644845
-0.0223626
0.0741209
-0.0194701
0.0831217
-0.0159599
0.0913619
-0.0120596
0.0973874
-0.0075469
0.103309
-0.0032163
0.102277
0.0947845
-0.023915
0.0445925
0.0231143
-0.023687
0.0531634
-0.022303
0.0631006
-0.0202062
0.0720242
-0.0174997
0.0804152
-0.0142557
0.088118
-0.0106884
0.0938201
-0.00661643
0.0992366
-0.00270663
0.0983668
0.0920779
-0.0216473
0.0452442
0.0209956
-0.0214226
0.0529387
-0.0200852
0.0617631
-0.0181244
0.0700634
-0.0156234
0.0779141
-0.0126509
0.0851455
-0.00942242
0.0905915
-0.00576523
0.0955795
-0.00225792
0.0948595
0.0898199
-0.0194152
0.0457576
0.0189018
-0.0192027
0.0527262
-0.0179416
0.060502
-0.0161316
0.0682534
-0.0138491
0.0756317
-0.0111471
0.0824435
-0.00825908
0.0877035
-0.00498733
0.0923077
-0.00186309
0.0917353
0.0879569
-0.017261
0.0461404
0.0168782
-0.0170609
0.0525261
-0.0158978
0.0593389
-0.0142452
0.0666009
-0.0121882
0.0735746
-0.00974922
0.0800045
-0.00719923
0.0851535
-0.00428038
0.0893889
-0.00151858
0.0889735
0.0864383
-0.0152143
0.0463987
0.014956
-0.015017
0.0523288
-0.013966
0.0582878
-0.012472
0.0651068
-0.0106425
0.0717451
-0.00845453
0.0778166
-0.00623821
0.0829372
-0.00363962
0.0867903
-0.00122171
0.0865556
0.0852166
-0.0132936
0.0465354
0.0131568
-0.0130808
0.0521161
-0.0121487
0.0573557
-0.0108098
0.0637679
-0.00920658
0.0701419
-0.00725447
0.0758645
-0.00536726
0.08105
-0.00305869
0.0844817
-0.000970903
0.0844678
0.0842457
-0.0115127
0.0465485
0.0114996
-0.0112535
0.0518569
-0.0104389
0.0565411
-0.00924891
0.062578
-0.00786814
0.0687611
-0.00613489
0.0741312
-0.00457317
0.0794883
-0.0025289
0.0824374
-0.000765106
0.082704
0.0834806
-0.00987854
0.0464218
0.0100052
-0.00952777
0.0515061
-0.00882035
0.0558337
-0.00777228
0.0615299
-0.00660863
0.0675975
-0.00507711
0.0725997
-0.00383869
0.0782499
-0.00203924
0.080638
-0.000603194
0.0812679
0.0828774
-0.00838019
0.0461123
0.00868966
-0.00788834
0.0510143
-0.00727272
0.0552181
-0.00636034
0.0606175
-0.00540703
0.0666442
-0.00406189
0.0712546
-0.00314547
0.0773335
-0.00157795
0.0790705
-0.000483704
0.0801737
0.0823937
-0.00704136
0.0456066
0.0075471
-0.00636493
0.0503378
-0.00581415
0.0546673
-0.0050219
0.0598253
-0.00426274
0.065885
-0.00308055
0.0700724
-0.00248513
0.076738
-0.00113648
0.0777218
-0.000405176
0.0794424
0.0819885
-0.00600219
0.0450435
0.00656531
-0.005087
0.0494227
-0.00454095
0.0541212
-0.00384162
0.059126
-0.00320872
0.0652521
-0.00218559
0.0690492
-0.00183932
0.0763918
-0.00073672
0.0766192
-0.000356706
0.0790624
0.0816318
-0.0648483
0.0353408
0.074551
-0.0568642
0.0414385
-0.0501459
0.047403
-0.0437758
0.0527558
-0.0366351
0.0581114
-0.0299893
0.0624034
-0.0217059
0.0681084
-0.0148083
0.0697216
-0.00761613
0.0718703
0.0740156
-0.058674
0.0306556
0.0633592
-0.0530558
0.0358204
-0.0471464
0.0414936
-0.0409838
0.0465933
-0.0344092
0.0515369
-0.0279702
0.0559643
-0.0203265
0.0604647
-0.0142289
0.063624
-0.00760771
0.065249
0.0664079
-0.0522303
0.025898
0.0569878
-0.0472604
0.0308505
-0.0418717
0.036105
-0.0362295
0.040951
-0.030331
0.0456383
-0.0244414
0.0500747
-0.0177889
0.0538123
-0.0122833
0.0581184
-0.00626767
0.0592334
0.0601403
-0.0468411
0.0215365
0.0512026
-0.0421316
0.026141
-0.0369533
0.0309266
-0.0314932
0.035491
-0.0258594
0.0400044
-0.0202731
0.0444885
-0.0143443
0.0478834
-0.00940678
0.0531809
-0.00446106
0.0542877
0.0556792
-0.0418232
0.0176863
0.0456734
-0.0374114
0.0217292
-0.0324252
0.0259404
-0.0270472
0.0301131
-0.0214606
0.0344178
-0.0160108
0.0390388
-0.0105458
0.0424184
-0.00605584
0.0486909
-0.0024884
0.0507203
0.0531908
-0.0374207
0.0141713
0.0409357
-0.033178
0.0174866
-0.0282374
0.0209998
-0.0227883
0.024664
-0.0170357
0.0286652
-0.01142
0.0334231
-0.00630288
0.0373013
-0.00153166
0.0439196
-0.000262527
0.0494511
0.0529283
-0.0340349
0.0109382
0.037268
-0.0298037
0.0132553
-0.024713
0.015909
-0.0189696
0.0189207
-0.0127616
0.0224572
-0.00635446
0.0270159
-0.00155978
0.0325066
0.00388596
0.0384739
0.00422094
0.0491161
0.0571492
-0.0339827
0.00772091
0.0372
-0.0295337
0.00880638
-0.0240604
0.0104356
-0.0177261
0.0125864
-0.0106178
0.0153488
-0.00239255
0.0187907
0.0034796
0.0266345
0.0106046
0.0313489
0.0113661
0.0483547
0.0685153
-0.0547496
0.00411814
0.0583524
-0.0499116
0.00396835
-0.0440297
0.00455379
-0.0369778
0.00553446
-0.0284867
0.00685779
-0.0188041
0.00910807
-0.00836765
0.016198
0.00582653
0.0171547
0.0134582
0.040723
0.0819734
-0.186072
0.19019
-0.182103
-0.17755
-0.172015
-0.165157
-0.156049
-0.139851
-0.122696
-0.0819734
-0.00519803
0.0736134
0.00613557
-0.00361479
0.0617759
-0.00267707
0.0560501
-0.00168923
0.0502148
-0.000923234
0.0449074
-0.000388941
0.0404014
-0.000130602
0.0370097
-0.000360719
0.0374301
-0.00142518
0.0594168
0.188765
-0.00405748
0.0725348
0.00513616
-0.00294118
0.0606596
-0.00223171
0.0553406
-0.00142117
0.0494042
-0.000794145
0.0442803
-0.000354798
0.039962
-0.00015579
0.0368107
-0.000339482
0.0376138
-0.00122736
0.0603047
0.187537
-0.003052
0.0715172
0.00406953
-0.00238099
0.0599886
-0.00183994
0.0547996
-0.00120112
0.0487654
-0.000691815
0.043771
-0.000328427
0.0395986
-0.000163962
0.0366462
-0.000297382
0.0377472
-0.00101282
0.0610201
0.186524
-0.00215613
0.0706342
0.00303918
-0.00190734
0.0597398
-0.00149689
0.0543892
-0.00100647
0.048275
-0.000593866
0.0433584
-0.000291326
0.0392961
-0.000146487
0.0365014
-0.000227501
0.0378282
-0.000794069
0.0615867
0.18573
-0.0014144
0.0699223
0.00212631
-0.00150596
0.0598314
-0.00119189
0.0540751
-0.000827309
0.0479104
-0.000492718
0.0430238
-0.000239504
0.0390429
-0.000105383
0.0363673
-0.000137438
0.0378603
-0.000576401
0.0620257
0.185154
-0.000852333
0.0694015
0.0013731
-0.0011625
0.0601416
-0.000916211
0.0538288
-0.00065519
0.0476494
-0.000384247
0.0427529
-0.000172379
0.038831
-4.5088e-05
0.03624
-3.06044e-05
0.0378458
-0.000365071
0.0623601
0.184789
-0.00045
0.0690683
0.000783245
-0.000858948
0.0605505
-0.000662425
0.0536323
-0.000483986
0.0474709
-0.000267126
0.042536
-9.1647e-05
0.0386555
3.05017e-05
0.0361178
6.68902e-05
0.0378094
-0.000164468
0.0625915
0.184624
-0.000164694
0.0688997
0.000333294
-0.000576528
0.0609623
-0.000423658
0.0534794
-0.000310475
0.0473578
-0.000142528
0.0423681
9.25772e-07
0.0385121
0.000108503
0.0360103
0.000165875
0.037752
2.36782e-05
0.0627337
0.184648
4.03459e-05
0.0688798
-2.04484e-05
-0.000301242
0.0613039
-0.000195251
0.0533734
-0.000134416
0.0472969
-1.30975e-05
0.0422468
9.25585e-05
0.0384064
0.00018995
0.0359129
0.0002645
0.0376775
0.00020917
0.062789
0.184857
0.000252731
0.0689237
-0.00029666
-1.99158e-05
0.0615766
1.64538e-05
0.053337
4.30479e-05
0.0472703
0.00011393
0.0421759
0.000185896
0.0383345
0.000269036
0.0358297
0.000356627
0.0375899
0.000373835
0.0627718
0.185231
0.000435665
0.0690286
-0.000540607
0.000244179
0.061768
0.000235079
0.0533461
0.000214493
0.0472909
0.000237941
0.0421524
0.000276266
0.0382961
0.000340382
0.0357656
0.000436578
0.0374937
0.000521866
0.0626865
0.185753
0.000621436
0.0691929
-0.000785691
0.000523361
0.0618661
0.000445213
0.0534243
0.00038521
0.0473509
0.000357155
0.0421805
0.000359405
0.0382939
0.000402133
0.0357229
0.000502908
0.0373929
0.000656514
0.0625329
0.18641
0.000815036
0.0694285
-0.00105067
0.000804757
0.0618764
0.000652879
0.0535762
0.000549103
0.0474547
0.000467208
0.0422624
0.000431668
0.0383294
0.000451598
0.035703
0.00055466
0.0372898
0.000777568
0.06231
0.187187
0.00102784
0.0697614
-0.00136069
0.00108593
0.0618183
0.000860653
0.0538014
0.000705167
0.0476102
0.000566671
0.0424009
0.000491134
0.038405
0.000487684
0.0357064
0.00059215
0.0371854
0.000886016
0.0620162
0.188073
0.00127643
0.0702278
-0.00174286
0.00136853
0.0617262
0.00107209
0.0540979
0.000853517
0.0478288
0.000654913
0.0425995
0.000536575
0.0385233
0.000509863
0.0357331
0.000616513
0.0370787
0.000983845
0.0616488
0.189057
0.0015848
0.0708686
-0.0022256
0.00165758
0.0616534
0.00129206
0.0544634
0.000995991
0.0481248
0.000732333
0.0428631
0.000567508
0.0386881
0.000517992
0.0357826
0.000629596
0.0369671
0.00107415
0.0612043
0.190131
0.0019838
0.0717203
-0.00283549
0.00196248
0.0616748
0.00152618
0.0548997
0.00113589
0.0485151
0.000800211
0.0431988
0.000584102
0.0389042
0.000511967
0.0358548
0.000633629
0.0368455
0.00116078
0.0606771
0.191292
0.00250047
0.0728102
-0.0035904
0.00229484
0.0618804
0.00177909
0.0554154
0.00127729
0.0490169
0.000860638
0.0436155
0.000587238
0.0391776
0.000491206
0.0359508
0.000630433
0.0367062
0.00124754
0.06006
0.192539
0.00316307
0.0741326
-0.00448548
0.00267433
0.0623691
0.00206322
0.0560266
0.00143026
0.0496499
0.000920514
0.0441252
0.000580932
0.0395172
0.000455218
0.0360765
0.000620353
0.0365411
0.0013412
0.0593392
0.193881
0.00407585
0.0755346
-0.0054778
0.00316327
0.0632817
0.00242291
0.0567669
0.00163548
0.0504373
0.0010114
0.0447493
0.000588411
0.0399402
0.000415224
0.0362497
0.00061604
0.0363403
0.00145684
0.0584984
0.195337
-0.0412541
0.065097
0.0516917
-0.0328363
0.0548639
-0.0265454
0.050476
-0.0213627
0.0452546
-0.0169732
0.0403598
-0.0130975
0.0360645
-0.00967051
0.0328227
-0.00672687
0.0333966
-0.00458552
0.056357
0.190752
-0.0427069
0.0558682
0.0519357
-0.0372166
0.0493736
-0.0314246
0.0446839
-0.0261267
0.0399567
-0.02126
0.0354932
-0.0166739
0.0314784
-0.0122676
0.0284164
-0.00801856
0.0291476
-0.00396983
0.0523083
0.186782
-0.0469627
0.0477425
0.0550883
-0.0416108
0.0440217
-0.0358943
0.0389674
-0.0304408
0.0345032
-0.0251776
0.03023
-0.0199724
0.0262731
-0.0146895
0.0231335
-0.00926811
0.0237262
-0.00394357
0.0469838
0.182839
-0.0518539
0.0410008
0.0585957
-0.0461311
0.0382989
-0.0403445
0.0331809
-0.0347067
0.0288654
-0.0291216
0.0246449
-0.0234206
0.0205721
-0.0174128
0.0171258
-0.0109773
0.0172907
-0.00445736
0.0404638
0.178381
-0.0567267
0.0337599
0.0639676
-0.0505572
0.0321293
-0.0447042
0.0273279
-0.0389935
0.0231548
-0.0332539
0.0189052
-0.027239
0.0145572
-0.0206723
0.010559
-0.013255
0.00987343
-0.00532333
0.0325321
0.173058
-0.0602582
0.0284125
0.0656056
-0.0545775
0.0264487
-0.0490212
0.0217715
-0.0435783
0.0177119
-0.0381093
0.0134362
-0.0321498
0.00859772
-0.024859
0.00326827
-0.0155864
0.000600838
-0.00679275
0.0237385
0.166265
-0.065666
0.0205528
0.0735257
-0.0584301
0.0192128
-0.0522618
0.0156032
-0.0466531
0.0121032
-0.0413787
0.00816175
-0.0363945
0.00361352
-0.0316478
-0.00147839
-0.0252449
-0.00580209
-0.0146139
0.0131076
0.151651
-0.0680746
0.0152075
0.07342
-0.0624441
0.0135822
-0.0574393
0.0105984
-0.0530135
0.00767738
-0.0488137
0.00396199
-0.0436064
-0.00159378
-0.0374914
-0.00759345
-0.029917
-0.0133765
-0.0158441
-0.000965288
0.135807
-0.0717383
0.00789961
0.0790462
-0.064848
0.00669189
-0.0593261
0.00507647
-0.0550701
0.00342145
-0.0524945
0.00138634
-0.052272
-0.00181628
-0.0522561
-0.00760935
-0.0512539
-0.0143787
-0.0469205
-0.0052987
0.0888865
-0.0763597
0.0842593
-0.0696678
-0.0645913
-0.0611699
-0.0597835
-0.0615998
-0.0692092
-0.0835878
-0.0888865
0.00542835
0.0525022
-0.00623877
0.0042531
0.053111
0.00342584
0.0559156
0.00270758
0.0593139
0.00223936
0.0644358
0.0013492
0.0664957
0.00136127
0.0735136
0.000639482
0.0741418
0.000755427
0.0789303
0.0850147
0.00622648
0.0533688
-0.00709312
0.00511163
0.0542258
0.00429693
0.0567303
0.00352105
0.0600898
0.00298136
0.0649755
0.0020057
0.0674714
0.00187342
0.0736459
0.000997655
0.0750175
0.000943626
0.0789843
0.0859583
0.00722882
0.0539727
-0.0078327
0.00629964
0.055155
0.00549093
0.057539
0.00462902
0.0609517
0.00392697
0.0656775
0.0028472
0.0685512
0.00245365
0.0740394
0.00145173
0.0760194
0.00111264
0.0793234
0.087071
0.00830159
0.054235
-0.00856394
0.00761525
0.0558413
0.00682546
0.0583288
0.00586465
0.0619125
0.00498713
0.0665551
0.00376665
0.0697717
0.00310462
0.0747014
0.00193827
0.0771858
0.00127909
0.0799825
0.0883501
0.00947116
0.054181
-0.00941711
0.00901203
0.0563004
0.00823116
0.0591097
0.00717171
0.062972
0.00611307
0.0676137
0.00473838
0.0711463
0.00379977
0.0756401
0.0024422
0.0785434
0.00144052
0.0809842
0.0897906
0.0108086
0.0538447
-0.0104723
0.0105205
0.0565885
0.00971887
0.0599113
0.0085503
0.0641406
0.00730298
0.068861
0.00575712
0.0726922
0.00453509
0.0768621
0.00295992
0.0801185
0.0016045
0.0823396
0.0913951
0.0123293
0.0532635
-0.0117482
0.0121496
0.0567682
0.0112967
0.0607643
0.0100046
0.0654327
0.00856044
0.0703052
0.00682442
0.0744282
0.00531287
0.0783736
0.00349465
0.0819367
0.00178188
0.0840524
0.093177
0.0140091
0.0524749
-0.0132205
0.0138866
0.0568907
0.0129605
0.0616903
0.0115334
0.0668598
0.00988639
0.0719522
0.00794313
0.0763715
0.00613696
0.0801798
0.00405286
0.0840209
0.00198287
0.0861224
0.0951599
0.0158115
0.0515084
-0.014845
0.0157131
0.0569892
0.0147032
0.0627002
0.0131342
0.0684288
0.0112814
0.0738051
0.0091165
0.0785364
0.00701231
0.082284
0.0046421
0.0863911
0.00221592
0.0885486
0.0973758
0.0176974
-0.0165738
0.0176091
0.0165157
0.0148034
0.0127452
0.0103472
0.00794407
0.00526952
0.00248723
0.000854054
-0.00323556
0.00283425
-0.00985855
0.00560087
-0.0155786
0.00889011
-0.0199547
0.01251
-0.0229116
0.0163374
-0.0246097
0.020309
-0.0253293
0.0244152
-0.0253834
0.0287222
-0.0250836
-0.0248037
0.000916646
-0.00415221