/*--------------------------------*- C++ -*----------------------------------*\
  =========                 |
  \\      /  F ield         | OpenFOAM: The Open Source CFD Toolbox
   \\    /   O peration     | Website:  https://openfoam.org
    \\  /    A nd           | Version:  7
     \\/     M anipulation  |
\*---------------------------------------------------------------------------*/
FoamFile
{
    version     2.0;
    format      ascii;
    class       volScalarField;
    location    "3.5";
    object      p;
}
// * * * * * * * * * * * * * * * * * * * * * * * * * * * * * * * * * * * * * //

dimensions      [0 2 -2 0 0 0 0];

internalField   nonuniform List<scalar> 
32000
(
0.811766
0.810598
0.810416
0.810426
0.810718
0.811247
0.811989
0.812901
0.813939
0.81508
0.816323
0.817676
0.819145
0.820723
0.822395
0.824148
0.825981
0.827889
0.829867
0.831909
0.834001
0.836132
0.838295
0.840484
0.842694
0.844915
0.847136
0.849344
0.85153
0.853683
0.855795
0.857858
0.859868
0.861821
0.863712
0.865539
0.867298
0.868996
0.870618
0.872007
0.810366
0.809266
0.809107
0.809141
0.809452
0.809992
0.810731
0.811628
0.812633
0.813723
0.814901
0.816179
0.817558
0.819034
0.820592
0.822221
0.823923
0.825696
0.827537
0.829437
0.831388
0.833378
0.835402
0.837462
0.839552
0.841662
0.843783
0.845901
0.848005
0.850085
0.852134
0.854145
0.856111
0.858027
0.859888
0.86169
0.863428
0.865108
0.866715
0.868094
0.808887
0.807883
0.807752
0.807811
0.808143
0.808696
0.809431
0.810309
0.81128
0.812317
0.81343
0.814629
0.815916
0.817284
0.818722
0.820223
0.821789
0.823422
0.82512
0.826875
0.828677
0.830521
0.832405
0.834332
0.836299
0.838296
0.840313
0.842337
0.844357
0.846365
0.848351
0.85031
0.852234
0.854116
0.855951
0.857732
0.859454
0.86112
0.862717
0.864091
0.807345
0.806438
0.806341
0.80643
0.806785
0.807352
0.808087
0.808942
0.809876
0.810863
0.81191
0.813029
0.814219
0.815475
0.816788
0.818156
0.819583
0.821073
0.822623
0.824226
0.825876
0.827569
0.82931
0.831102
0.832944
0.834824
0.836734
0.838661
0.840596
0.84253
0.844455
0.846363
0.848246
0.850098
0.85191
0.853674
0.855382
0.857039
0.85863
0.860005
0.805762
0.804968
0.804908
0.805028
0.805404
0.805983
0.806714
0.807545
0.808436
0.809369
0.810349
0.811384
0.812473
0.813613
0.8148
0.816032
0.817316
0.818657
0.820054
0.821501
0.822993
0.824533
0.826129
0.827785
0.829496
0.831257
0.833056
0.834884
0.836733
0.838593
0.840457
0.842315
0.844159
0.845981
0.847773
0.849523
0.851221
0.852873
0.854464
0.855843
0.804131
0.80345
0.803431
0.803587
0.803985
0.804575
0.805302
0.806109
0.806958
0.807836
0.808748
0.809697
0.810683
0.811706
0.812764
0.813859
0.814998
0.816187
0.817426
0.818711
0.820042
0.821428
0.822877
0.824392
0.825971
0.827608
0.829294
0.831021
0.832783
0.83457
0.836372
0.83818
0.839985
0.841779
0.843552
0.84529
0.846983
0.848633
0.850228
0.851614
0.802461
0.801903
0.801929
0.802125
0.802547
0.803147
0.803867
0.80465
0.805457
0.80628
0.80712
0.80798
0.808861
0.809765
0.810695
0.81165
0.81264
0.813673
0.81475
0.81587
0.81704
0.818269
0.819568
0.820939
0.822382
0.823893
0.825464
0.827089
0.828764
0.830476
0.832216
0.833973
0.83574
0.837506
0.839262
0.84099
0.842679
0.844331
0.845935
0.84733
0.800761
0.80033
0.800404
0.800643
0.801092
0.801701
0.802414
0.803172
0.803939
0.804705
0.805473
0.806242
0.807016
0.807801
0.808601
0.809416
0.810255
0.811129
0.81204
0.812994
0.814001
0.815073
0.816218
0.817443
0.818748
0.82013
0.821585
0.823108
0.824694
0.826331
0.828008
0.829714
0.831442
0.833181
0.834919
0.836639
0.838327
0.839981
0.841596
0.843004
0.799034
0.798736
0.798861
0.799145
0.799621
0.800239
0.800945
0.80168
0.802408
0.80312
0.803814
0.804491
0.805158
0.805825
0.806494
0.807167
0.807855
0.808567
0.809312
0.810099
0.810942
0.811855
0.812846
0.813922
0.815087
0.81634
0.817678
0.819098
0.820593
0.822154
0.823766
0.82542
0.827109
0.828822
0.830543
0.832255
0.833941
0.8356
0.837228
0.838648
0.79729
0.797128
0.797304
0.797634
0.798137
0.798765
0.799464
0.800178
0.80087
0.801528
0.802148
0.802734
0.803297
0.803846
0.804385
0.804916
0.805451
0.806002
0.80658
0.807201
0.807881
0.808634
0.809469
0.810396
0.811421
0.812543
0.813764
0.815079
0.816484
0.817966
0.819512
0.821114
0.822764
0.824449
0.826153
0.827856
0.82954
0.831203
0.832844
0.834278
0.795532
0.795508
0.795736
0.796113
0.796643
0.797282
0.797976
0.798672
0.799329
0.799934
0.800483
0.800982
0.801442
0.801875
0.802284
0.802674
0.803057
0.803447
0.803861
0.804318
0.804834
0.805426
0.806106
0.806884
0.807768
0.808762
0.809865
0.811076
0.812388
0.81379
0.815269
0.816818
0.818428
0.820084
0.821769
0.823462
0.825142
0.826808
0.828461
0.829909
0.793768
0.793882
0.794162
0.794584
0.795142
0.795794
0.796486
0.797165
0.79779
0.798345
0.798826
0.799241
0.799602
0.799921
0.800202
0.800452
0.800684
0.800918
0.801171
0.801465
0.801819
0.80225
0.802775
0.803406
0.804151
0.805016
0.806002
0.807108
0.808328
0.809649
0.811061
0.812555
0.814123
0.815749
0.817413
0.819094
0.820768
0.822434
0.824098
0.825559
0.792001
0.792253
0.792584
0.793052
0.793639
0.794305
0.794997
0.795661
0.796258
0.796767
0.797184
0.797519
0.797785
0.797994
0.798149
0.798262
0.798348
0.798429
0.798525
0.798658
0.798852
0.799125
0.799498
0.799983
0.80059
0.801327
0.802198
0.803201
0.804327
0.805566
0.806909
0.808347
0.809871
0.811465
0.813106
0.814771
0.816437
0.8181
0.819772
0.821246
0.790237
0.790623
0.791005
0.79152
0.792136
0.792819
0.793513
0.794167
0.794737
0.795204
0.795564
0.795825
0.796001
0.796102
0.796136
0.796116
0.796061
0.795994
0.795938
0.795914
0.79595
0.796068
0.796291
0.796633
0.797105
0.797717
0.798475
0.799374
0.800406
0.801562
0.802835
0.804216
0.805695
0.807253
0.808868
0.810514
0.812168
0.813822
0.815497
0.816983
0.788478
0.788994
0.789427
0.789989
0.790637
0.791339
0.792038
0.792684
0.793233
0.793664
0.793973
0.794166
0.794256
0.794254
0.794171
0.794024
0.793835
0.793627
0.793422
0.793246
0.793128
0.793096
0.793173
0.793374
0.793715
0.794206
0.794851
0.795646
0.796585
0.797658
0.79886
0.800183
0.801614
0.803134
0.804718
0.806341
0.807976
0.809615
0.811287
0.812771
0.786728
0.787368
0.787851
0.788461
0.789144
0.789866
0.790575
0.791217
0.79175
0.792151
0.792415
0.792547
0.792557
0.792458
0.792264
0.791998
0.791682
0.791339
0.790991
0.790667
0.7904
0.790222
0.790158
0.790224
0.790438
0.79081
0.791344
0.792037
0.792881
0.793871
0.795002
0.796265
0.797646
0.799124
0.800673
0.802268
0.803878
0.805496
0.807158
0.808644
0.78499
0.785746
0.78628
0.786938
0.787657
0.788404
0.789124
0.789767
0.79029
0.790669
0.790895
0.790972
0.790908
0.790719
0.790423
0.790044
0.789608
0.789136
0.788652
0.788186
0.787777
0.787459
0.787259
0.787196
0.787287
0.787543
0.787968
0.788559
0.789311
0.790218
0.791277
0.792478
0.793806
0.795238
0.796748
0.798308
0.799888
0.801478
0.803121
0.8046
0.783266
0.78413
0.784713
0.785422
0.786179
0.786952
0.787689
0.788338
0.788856
0.789218
0.789414
0.789442
0.789313
0.789041
0.788651
0.788169
0.78762
0.787026
0.786411
0.785811
0.785266
0.784815
0.784486
0.784299
0.784272
0.784416
0.784735
0.785226
0.785886
0.786712
0.787698
0.788836
0.790108
0.79149
0.792955
0.794474
0.796016
0.79757
0.799185
0.800651
0.781558
0.78252
0.783152
0.783911
0.784709
0.785512
0.786269
0.786928
0.787448
0.787801
0.787972
0.787959
0.787771
0.787428
0.786953
0.786376
0.785721
0.785011
0.784273
0.783546
0.782874
0.782296
0.781845
0.781541
0.781401
0.781437
0.781652
0.782045
0.782616
0.783361
0.784275
0.785348
0.78656
0.787888
0.789303
0.790775
0.792273
0.793783
0.795362
0.796807
0.779867
0.780917
0.781596
0.782406
0.783246
0.784082
0.784864
0.785539
0.786066
0.786415
0.786568
0.786522
0.786285
0.785878
0.785328
0.784665
0.783911
0.783092
0.782239
0.781392
0.780601
0.779906
0.779339
0.778924
0.778676
0.778607
0.778722
0.779022
0.779505
0.780171
0.781013
0.782018
0.783167
0.784437
0.785797
0.787216
0.788663
0.790123
0.791657
0.793075
0.778195
0.77932
0.780045
0.780906
0.78179
0.782663
0.783473
0.784169
0.784709
0.78506
0.785202
0.785129
0.784851
0.78439
0.783775
0.783032
0.782187
0.781266
0.780305
0.779349
0.778447
0.777643
0.776968
0.776447
0.776097
0.775929
0.775947
0.776156
0.776556
0.777143
0.777911
0.778847
0.779932
0.781139
0.782439
0.7838
0.78519
0.786592
0.788073
0.789457
0.776541
0.77773
0.7785
0.77941
0.780339
0.781252
0.782096
0.782818
0.783375
0.783734
0.783871
0.783778
0.783467
0.782961
0.782288
0.781473
0.780544
0.77953
0.77847
0.777412
0.776408
0.775502
0.774727
0.774107
0.77366
0.773396
0.773324
0.773446
0.773763
0.774274
0.774968
0.775834
0.776851
0.777993
0.779229
0.780527
0.781854
0.783193
0.784613
0.785955
0.774907
0.776148
0.776959
0.777917
0.778893
0.779849
0.780729
0.781481
0.782062
0.782433
0.78257
0.782465
0.782128
0.781585
0.780861
0.779982
0.778976
0.777876
0.776725
0.775575
0.774478
0.773477
0.772608
0.771895
0.771356
0.771004
0.770845
0.770884
0.771123
0.771557
0.772179
0.772974
0.773922
0.774996
0.776164
0.777395
0.778655
0.779925
0.781276
0.78257
0.773293
0.774574
0.775423
0.776427
0.77745
0.77845
0.77937
0.780157
0.780764
0.781153
0.781295
0.781183
0.780828
0.780254
0.779486
0.77855
0.777474
0.776296
0.775063
0.773828
0.772645
0.771558
0.770601
0.769802
0.769178
0.768742
0.768501
0.768462
0.768624
0.768985
0.769535
0.77026
0.771138
0.772142
0.773239
0.774398
0.775587
0.776784
0.778062
0.779305
0.771697
0.773006
0.773889
0.774937
0.776008
0.777054
0.778017
0.778841
0.779479
0.779889
0.780041
0.779928
0.77956
0.778961
0.778155
0.777166
0.776026
0.774777
0.77347
0.772159
0.770898
0.769731
0.768694
0.767814
0.767111
0.766598
0.766281
0.766168
0.766257
0.766547
0.767027
0.767682
0.76849
0.769422
0.770446
0.771532
0.772645
0.773766
0.774965
0.776151
0.770116
0.771441
0.772355
0.773446
0.774564
0.775657
0.776665
0.77753
0.778201
0.778634
0.778801
0.77869
0.778314
0.777694
0.776854
0.775818
0.774621
0.773308
0.771934
0.770554
0.769222
0.767982
0.766871
0.765918
0.765143
0.764558
0.764171
0.763987
0.764009
0.76423
0.764642
0.765229
0.765967
0.766827
0.767777
0.768786
0.769822
0.770863
0.771978
0.7731
0.768545
0.769876
0.770819
0.771951
0.773115
0.774256
0.77531
0.776218
0.776924
0.777383
0.777565
0.77746
0.77708
0.776443
0.775572
0.774493
0.773244
0.771874
0.77044
0.768999
0.767602
0.766296
0.765119
0.764099
0.763257
0.762606
0.762154
0.761906
0.761863
0.76202
0.762367
0.762887
0.763556
0.764344
0.765218
0.76615
0.767108
0.768067
0.769097
0.770155
0.766979
0.768308
0.769276
0.770448
0.771657
0.772847
0.77395
0.7749
0.775641
0.776126
0.776325
0.776229
0.775846
0.775195
0.774297
0.773179
0.771882
0.77046
0.768972
0.767476
0.766023
0.764657
0.763419
0.762338
0.761437
0.760726
0.760215
0.759908
0.759805
0.759901
0.760187
0.760642
0.761242
0.761958
0.762758
0.763613
0.764493
0.765371
0.766314
0.767304
0.765412
0.766731
0.767724
0.768933
0.770187
0.771426
0.772578
0.773571
0.774347
0.774857
0.775073
0.774984
0.774601
0.773937
0.773014
0.77186
0.77052
0.769052
0.767517
0.765971
0.764467
0.763048
0.761756
0.760621
0.759666
0.758902
0.758336
0.757975
0.757817
0.757857
0.758084
0.758476
0.75901
0.759656
0.760383
0.761162
0.761965
0.762763
0.76362
0.764541
0.763839
0.765143
0.766157
0.767401
0.7687
0.769989
0.771188
0.772224
0.773034
0.773568
0.773798
0.773717
0.773332
0.772656
0.77171
0.770523
0.769144
0.767635
0.766057
0.764468
0.762918
0.761453
0.760113
0.758932
0.757928
0.757116
0.756502
0.756091
0.755883
0.755871
0.756042
0.756374
0.756843
0.75742
0.758076
0.758783
0.759512
0.760234
0.761008
0.761861
0.762254
0.763538
0.764572
0.765849
0.767192
0.768529
0.769776
0.770852
0.771694
0.77225
0.772493
0.772418
0.77203
0.771341
0.770372
0.769154
0.76774
0.766194
0.764579
0.762952
0.761362
0.759857
0.758476
0.757253
0.756208
0.755353
0.754695
0.75424
0.753987
0.753927
0.754044
0.754318
0.754724
0.755235
0.755824
0.756462
0.757121
0.757772
0.758471
0.759259
0.760649
0.761911
0.762962
0.764273
0.765658
0.767042
0.768334
0.769449
0.77032
0.770895
0.771149
0.771076
0.770682
0.76998
0.768987
0.76774
0.766294
0.764716
0.763069
0.761409
0.759785
0.758245
0.75683
0.755572
0.754491
0.753598
0.752902
0.752408
0.752113
0.752008
0.752074
0.752292
0.752637
0.753086
0.75361
0.754183
0.754779
0.755367
0.755998
0.756731
0.759018
0.760257
0.761325
0.762668
0.764095
0.765523
0.766856
0.768008
0.768905
0.769496
0.769756
0.769681
0.769279
0.76856
0.767544
0.76627
0.764795
0.763188
0.761514
0.759826
0.758175
0.756606
0.755163
0.753876
0.752763
0.751839
0.75111
0.750581
0.750248
0.750099
0.750116
0.750279
0.750566
0.750954
0.751417
0.751931
0.75247
0.753004
0.75358
0.75427
0.757353
0.75857
0.759656
0.761031
0.762499
0.763967
0.765338
0.766521
0.76744
0.768043
0.768305
0.768224
0.76781
0.767073
0.766033
0.764732
0.763232
0.761601
0.759904
0.758193
0.75652
0.754929
0.753464
0.752153
0.751015
0.750064
0.749306
0.748746
0.748377
0.748186
0.748154
0.748263
0.748492
0.748822
0.749227
0.749687
0.750178
0.750669
0.751205
0.751868
0.755647
0.756846
0.757951
0.759358
0.760864
0.762369
0.763774
0.764983
0.765919
0.766528
0.766787
0.766698
0.766267
0.765509
0.764444
0.763118
0.761596
0.759946
0.75823
0.756502
0.754812
0.753206
0.751723
0.750394
0.749236
0.748262
0.747479
0.74689
0.746487
0.746253
0.746172
0.746226
0.746399
0.746671
0.747022
0.747432
0.747882
0.748343
0.748856
0.749515
0.753895
0.755079
0.756204
0.757643
0.759185
0.760723
0.762156
0.763387
0.764334
0.764944
0.765197
0.765093
0.764644
0.763862
0.762772
0.761423
0.759881
0.758214
0.756485
0.754746
0.753045
0.751429
0.749935
0.748592
0.747418
0.746425
0.74562
0.745003
0.744564
0.744287
0.744155
0.744153
0.744268
0.744482
0.744779
0.745143
0.745558
0.746001
0.74651
0.74719
0.752089
0.753266
0.754413
0.755882
0.757457
0.759025
0.760481
0.761727
0.76268
0.763286
0.763526
0.763406
0.762934
0.762126
0.761011
0.75964
0.758082
0.756404
0.754667
0.752921
0.751215
0.749594
0.748093
0.746741
0.745554
0.744544
0.743718
0.743073
0.742598
0.742276
0.74209
0.742029
0.742081
0.742234
0.742474
0.742792
0.743177
0.743611
0.744134
0.744865
0.750225
0.751401
0.75257
0.754071
0.755676
0.757269
0.758744
0.759999
0.760951
0.761547
0.761772
0.76163
0.761133
0.760299
0.759159
0.75777
0.756198
0.754512
0.752771
0.751025
0.749319
0.747697
0.746194
0.744835
0.743638
0.742614
0.741767
0.741093
0.740579
0.740209
0.739966
0.739841
0.739824
0.739907
0.740082
0.740346
0.740698
0.741129
0.741689
0.74251
0.748296
0.749479
0.750673
0.752205
0.753838
0.755454
0.756941
0.758199
0.759144
0.759725
0.759929
0.759763
0.759239
0.758378
0.757216
0.75581
0.754228
0.752539
0.750799
0.749056
0.747356
0.745737
0.744234
0.742871
0.741667
0.740629
0.739761
0.739056
0.738501
0.738079
0.737775
0.737579
0.737484
0.737484
0.737577
0.737764
0.738056
0.738473
0.73911
0.740136
0.746302
0.747501
0.748721
0.750283
0.751943
0.753576
0.755071
0.756325
0.757257
0.757818
0.757996
0.757803
0.757252
0.756365
0.755182
0.753762
0.752175
0.750486
0.748751
0.747017
0.745326
0.743714
0.742215
0.740851
0.739639
0.738588
0.737698
0.73696
0.736361
0.735883
0.735513
0.73524
0.735058
0.734961
0.734945
0.735011
0.735168
0.735444
0.735947
0.737118
0.876291
0.88384
0.88788
0.892145
0.894949
0.897406
0.899282
0.900853
0.902132
0.903192
0.904086
0.904814
0.905425
0.9059
0.906253
0.906489
0.906604
0.90665
0.9066
0.906471
0.906246
0.90595
0.905594
0.90517
0.904673
0.904082
0.903392
0.902599
0.901684
0.900655
0.899483
0.898174
0.896708
0.895091
0.893327
0.891439
0.889424
0.887369
0.885322
0.883665
0.872403
0.880493
0.88481
0.88936
0.892304
0.894889
0.896823
0.898478
0.899803
0.9009
0.901812
0.902593
0.903251
0.90375
0.904123
0.904398
0.904557
0.904625
0.904598
0.904491
0.904302
0.904032
0.903698
0.903287
0.902814
0.902249
0.901574
0.900798
0.899905
0.898882
0.897721
0.896418
0.894956
0.893351
0.891594
0.889709
0.887703
0.885658
0.883617
0.881964
0.868413
0.877095
0.881701
0.886542
0.889637
0.892353
0.894352
0.896087
0.897455
0.898596
0.89953
0.900364
0.901064
0.901591
0.901989
0.902302
0.902504
0.902594
0.902593
0.902509
0.902355
0.902114
0.901803
0.901408
0.900957
0.900417
0.899758
0.899
0.898128
0.897114
0.895967
0.894673
0.89322
0.891631
0.889886
0.88801
0.886015
0.883986
0.881952
0.880304
0.864327
0.873643
0.878563
0.883683
0.886955
0.889792
0.891879
0.89367
0.895088
0.896277
0.897254
0.898128
0.89886
0.899422
0.899857
0.9002
0.900437
0.900556
0.900586
0.90053
0.900404
0.900191
0.899905
0.899536
0.899103
0.898584
0.897947
0.897206
0.896351
0.895351
0.894221
0.892939
0.891504
0.889928
0.888202
0.886343
0.884361
0.882348
0.880324
0.878683
0.860147
0.870143
0.875391
0.880792
0.884253
0.887211
0.889395
0.891235
0.892708
0.893948
0.894976
0.895883
0.896644
0.897248
0.897724
0.898093
0.898361
0.898513
0.898576
0.898549
0.898449
0.898266
0.898005
0.897667
0.897251
0.896753
0.896139
0.895417
0.894578
0.893597
0.892484
0.89122
0.889805
0.888245
0.886542
0.884705
0.882737
0.880742
0.87873
0.877095
0.855878
0.8666
0.87218
0.877879
0.881528
0.884613
0.886895
0.888792
0.890319
0.89161
0.892687
0.893632
0.894426
0.895067
0.895583
0.895982
0.896282
0.896466
0.89656
0.896564
0.896492
0.896339
0.896104
0.895796
0.895401
0.894925
0.894335
0.893631
0.892812
0.891852
0.890758
0.889515
0.888124
0.886583
0.884903
0.883092
0.88114
0.879163
0.877166
0.875535
0.85153
0.863017
0.868932
0.874942
0.878782
0.881999
0.884379
0.88634
0.887923
0.889264
0.89039
0.891373
0.892204
0.892882
0.893437
0.893867
0.894198
0.894414
0.894539
0.894577
0.894534
0.894412
0.894203
0.893925
0.893554
0.893099
0.892534
0.891851
0.891052
0.890116
0.889044
0.887824
0.88646
0.884942
0.883287
0.881504
0.879569
0.87761
0.87563
0.874004
0.84711
0.859398
0.865651
0.871983
0.876015
0.87937
0.881851
0.883878
0.885519
0.886911
0.888085
0.889109
0.889978
0.890693
0.891285
0.891747
0.89211
0.892359
0.892516
0.892588
0.892574
0.892483
0.892303
0.892054
0.891709
0.891276
0.890737
0.890077
0.8893
0.888389
0.887342
0.886147
0.884813
0.883321
0.881691
0.879937
0.878024
0.876083
0.874121
0.872502
0.842632
0.855747
0.862342
0.869003
0.87323
0.876725
0.879309
0.881409
0.883108
0.884552
0.885775
0.886839
0.887748
0.888501
0.889129
0.889624
0.89002
0.890302
0.890491
0.890597
0.890613
0.890555
0.890403
0.890182
0.889865
0.889455
0.888943
0.888307
0.887554
0.886671
0.885652
0.884484
0.883181
0.881721
0.880117
0.878392
0.876505
0.874582
0.87264
0.871027
0.838108
0.852068
0.859007
0.866002
0.870428
0.874065
0.876756
0.878931
0.880691
0.882187
0.88346
0.884566
0.885514
0.886305
0.886969
0.887498
0.887927
0.888244
0.888465
0.888605
0.888651
0.888625
0.888504
0.88831
0.888024
0.887637
0.887151
0.886543
0.885815
0.88496
0.883974
0.882836
0.881565
0.880139
0.878564
0.876869
0.87501
0.873107
0.871185
0.869581
0.833554
0.848367
0.855652
0.862982
0.867609
0.871393
0.874192
0.876446
0.878268
0.879818
0.881141
0.88229
0.883278
0.884106
0.884807
0.885369
0.885832
0.886183
0.886436
0.886611
0.886689
0.886695
0.886606
0.886438
0.886182
0.88582
0.885362
0.884783
0.884083
0.883258
0.882306
0.881203
0.879965
0.878574
0.877032
0.875368
0.87354
0.871656
0.869757
0.868163
0.828992
0.84465
0.85228
0.859944
0.864776
0.868709
0.871618
0.873955
0.875841
0.877447
0.878819
0.880012
0.881039
0.881906
0.882642
0.883239
0.883736
0.884121
0.884405
0.884615
0.884726
0.884764
0.884707
0.884565
0.884341
0.884005
0.883575
0.883027
0.882357
0.881565
0.880649
0.879582
0.87838
0.877028
0.87552
0.873887
0.872094
0.870231
0.868356
0.866773
0.824449
0.840924
0.848897
0.856892
0.861931
0.866014
0.869037
0.87146
0.873412
0.875074
0.876495
0.877732
0.878798
0.879705
0.880477
0.881109
0.881638
0.882058
0.882374
0.882618
0.882763
0.882832
0.882808
0.882693
0.882498
0.882192
0.881791
0.881275
0.880638
0.879882
0.879003
0.877974
0.876809
0.875498
0.874028
0.872426
0.870671
0.868832
0.866982
0.865411
0.81993
0.837198
0.845507
0.853825
0.859074
0.863309
0.866449
0.868961
0.870982
0.8727
0.874171
0.875452
0.876556
0.877503
0.878311
0.878978
0.87954
0.879994
0.880344
0.880621
0.8808
0.8809
0.880909
0.880821
0.880657
0.880382
0.88001
0.879527
0.878924
0.878207
0.877366
0.876378
0.875251
0.873983
0.872555
0.870985
0.869271
0.867461
0.865634
0.864076
0.815295
0.833477
0.842116
0.850747
0.856207
0.860595
0.863857
0.866458
0.868551
0.870325
0.871846
0.873171
0.874315
0.875302
0.876146
0.876849
0.877444
0.877931
0.878315
0.878625
0.878839
0.878967
0.879009
0.878951
0.878816
0.878573
0.878232
0.877784
0.877217
0.87654
0.875738
0.874792
0.873706
0.872483
0.871099
0.869565
0.867893
0.866115
0.864311
0.862767
0.810847
0.829781
0.838729
0.84766
0.853332
0.857874
0.86126
0.863954
0.866121
0.867951
0.869521
0.87089
0.872074
0.873101
0.873982
0.874721
0.87535
0.87587
0.876288
0.87663
0.876878
0.877035
0.877109
0.877084
0.876976
0.876766
0.876456
0.876046
0.875517
0.874879
0.874118
0.873216
0.872173
0.870995
0.869659
0.868166
0.866538
0.864795
0.863015
0.861485
0.806445
0.82609
0.835352
0.844565
0.850451
0.855147
0.858661
0.86145
0.863691
0.865579
0.867197
0.86861
0.869835
0.870903
0.871821
0.872595
0.873258
0.873812
0.874263
0.874637
0.874919
0.875105
0.875209
0.875217
0.875138
0.874961
0.874684
0.874311
0.873822
0.873224
0.872505
0.871649
0.870651
0.86952
0.868236
0.866789
0.865204
0.863501
0.861745
0.86023
0.802103
0.822215
0.831987
0.841467
0.847565
0.852416
0.85606
0.858947
0.861264
0.863209
0.864877
0.866333
0.867599
0.868708
0.869663
0.870472
0.871168
0.871755
0.872241
0.872645
0.872959
0.873176
0.87331
0.873351
0.8733
0.873157
0.872915
0.87258
0.872132
0.871575
0.870898
0.87009
0.86914
0.868058
0.866828
0.865432
0.863892
0.862232
0.860504
0.859003
0.797855
0.818476
0.828641
0.838368
0.844675
0.849684
0.853459
0.856446
0.85884
0.860844
0.862561
0.864063
0.86537
0.866519
0.86751
0.868352
0.869082
0.869701
0.870221
0.870655
0.871
0.871248
0.87141
0.871484
0.871462
0.871355
0.871148
0.870852
0.870447
0.869931
0.869296
0.868538
0.867637
0.866608
0.865436
0.864095
0.862602
0.860988
0.859292
0.857804
0.793719
0.814924
0.825318
0.835273
0.841784
0.846953
0.85086
0.85395
0.856421
0.858485
0.860253
0.8618
0.863149
0.864336
0.865361
0.866236
0.866998
0.86765
0.868203
0.868666
0.869042
0.869321
0.869511
0.869617
0.869625
0.869554
0.869385
0.869126
0.868764
0.868291
0.867699
0.866992
0.866142
0.865169
0.864057
0.862777
0.861334
0.859769
0.858109
0.856634
0.789696
0.811416
0.822022
0.832183
0.838894
0.844225
0.848266
0.851459
0.85401
0.856134
0.857955
0.859547
0.860936
0.86216
0.863218
0.864125
0.864919
0.865602
0.866188
0.866681
0.867085
0.867396
0.867613
0.86775
0.86779
0.867754
0.867624
0.867401
0.867083
0.866654
0.866106
0.865451
0.864654
0.863741
0.86269
0.861475
0.860087
0.858576
0.856955
0.855493
0.785792
0.807785
0.818752
0.829101
0.836008
0.841501
0.845678
0.848975
0.851607
0.853793
0.855667
0.857305
0.858732
0.859992
0.861081
0.86202
0.862845
0.863557
0.864175
0.864698
0.86513
0.865472
0.865715
0.865884
0.865956
0.865955
0.865864
0.865678
0.865404
0.865019
0.864514
0.863913
0.863173
0.862321
0.861335
0.860189
0.858861
0.857407
0.85583
0.854383
0.782029
0.804093
0.815509
0.826029
0.833128
0.838783
0.843097
0.8465
0.849214
0.851462
0.853391
0.855073
0.856539
0.857833
0.858951
0.859923
0.860777
0.861517
0.862166
0.862717
0.863176
0.863548
0.863819
0.864018
0.864124
0.864157
0.864104
0.863955
0.863724
0.863384
0.862923
0.862376
0.861696
0.860909
0.859989
0.858917
0.857657
0.856263
0.854734
0.853303
0.778429
0.800628
0.812297
0.822968
0.830257
0.836074
0.840527
0.844034
0.846833
0.849145
0.851128
0.852852
0.854355
0.855682
0.85683
0.857832
0.858715
0.859482
0.860161
0.86074
0.861225
0.861626
0.861924
0.862153
0.862292
0.862358
0.862344
0.862232
0.862043
0.861747
0.861333
0.860841
0.860222
0.859503
0.858653
0.857659
0.856473
0.855146
0.853669
0.852257
0.774951
0.797261
0.809118
0.819921
0.827397
0.833377
0.837967
0.841581
0.844467
0.846843
0.84888
0.850645
0.852183
0.853542
0.854718
0.85575
0.856659
0.857453
0.858159
0.858767
0.859276
0.859705
0.860031
0.860289
0.86046
0.860558
0.860581
0.860507
0.860359
0.860109
0.859742
0.859306
0.858752
0.858102
0.857326
0.856414
0.855309
0.854055
0.852635
0.851245
0.771585
0.793938
0.805974
0.816892
0.824551
0.830693
0.835422
0.839145
0.842117
0.84456
0.846649
0.848455
0.850026
0.851414
0.852618
0.853678
0.854612
0.855432
0.856164
0.856797
0.85733
0.857786
0.85814
0.858426
0.858628
0.858757
0.858817
0.85878
0.858673
0.858466
0.858151
0.857771
0.857283
0.856705
0.856007
0.855181
0.854165
0.852991
0.851635
0.85027
0.768418
0.790671
0.802872
0.813884
0.821722
0.828027
0.832893
0.836726
0.839788
0.842297
0.844437
0.846282
0.847885
0.849301
0.850531
0.851615
0.852574
0.853418
0.854174
0.854832
0.855389
0.85587
0.85625
0.856562
0.856794
0.856954
0.857049
0.85705
0.856982
0.85682
0.856558
0.856235
0.855815
0.855311
0.854695
0.85396
0.853038
0.851955
0.85067
0.849334
0.765381
0.787469
0.799813
0.810901
0.818915
0.82538
0.830385
0.834329
0.83748
0.840056
0.842245
0.84413
0.845764
0.847205
0.848458
0.849565
0.850547
0.851414
0.852191
0.852873
0.853451
0.853956
0.854361
0.8547
0.85496
0.85515
0.855279
0.855316
0.855288
0.855171
0.854963
0.854698
0.854346
0.853918
0.853388
0.852749
0.85193
0.850947
0.849743
0.848442
0.762476
0.78434
0.796798
0.807945
0.816132
0.822755
0.8279
0.831955
0.835196
0.837838
0.840077
0.841999
0.843661
0.845126
0.846401
0.847528
0.848531
0.84942
0.850217
0.85092
0.851519
0.852045
0.852475
0.852837
0.853124
0.853345
0.853506
0.853578
0.853589
0.853518
0.853365
0.853158
0.852876
0.852526
0.852085
0.851546
0.850838
0.849967
0.848857
0.847596
0.759712
0.781286
0.793831
0.805019
0.813379
0.820156
0.825441
0.829607
0.832938
0.835645
0.837932
0.83989
0.841579
0.843065
0.84436
0.845505
0.846529
0.847437
0.848251
0.848973
0.849592
0.850138
0.85059
0.850976
0.851288
0.851539
0.85173
0.851836
0.851888
0.851861
0.851764
0.851615
0.851404
0.851131
0.850783
0.85035
0.84976
0.849014
0.848013
0.846803
0.757093
0.778308
0.790913
0.802129
0.810658
0.817588
0.823011
0.82729
0.830708
0.833479
0.835814
0.837803
0.839519
0.841023
0.842335
0.843498
0.84454
0.845464
0.846295
0.847034
0.847671
0.848234
0.848707
0.849116
0.849453
0.849731
0.849952
0.850092
0.850183
0.8502
0.850157
0.850068
0.849927
0.849733
0.84948
0.849159
0.848696
0.848087
0.847215
0.846067
0.754618
0.775406
0.788045
0.799281
0.807974
0.815055
0.820614
0.825005
0.828509
0.831344
0.833723
0.835742
0.83748
0.839001
0.840329
0.841508
0.842565
0.843504
0.844349
0.845103
0.845756
0.846335
0.846827
0.847258
0.847617
0.847922
0.848171
0.848345
0.848474
0.848535
0.848546
0.848516
0.848445
0.848331
0.848174
0.847969
0.847642
0.847187
0.846464
0.845397
0.752288
0.77258
0.78523
0.79648
0.805332
0.812562
0.818254
0.822756
0.826344
0.829241
0.831663
0.833708
0.835466
0.837
0.838342
0.839536
0.840606
0.841558
0.842414
0.843179
0.843847
0.84444
0.84495
0.845401
0.845781
0.846112
0.846387
0.846595
0.846761
0.846865
0.846927
0.846957
0.846956
0.846922
0.846863
0.846779
0.846596
0.846311
0.845764
0.844801
0.750107
0.769829
0.78247
0.793732
0.802737
0.81011
0.815934
0.820544
0.824216
0.827173
0.829634
0.831702
0.833478
0.835024
0.836378
0.837584
0.838663
0.839624
0.84049
0.841265
0.841945
0.84255
0.843077
0.843546
0.843945
0.8443
0.844601
0.844841
0.845043
0.845189
0.845303
0.845391
0.84546
0.845505
0.845545
0.845584
0.845556
0.845458
0.845116
0.84429
0.748077
0.767153
0.779771
0.791047
0.800197
0.807707
0.81366
0.818375
0.822128
0.825142
0.827638
0.829728
0.831517
0.833073
0.834436
0.835652
0.836737
0.837705
0.838578
0.839359
0.84005
0.840666
0.841206
0.841692
0.842109
0.842488
0.842812
0.843083
0.843318
0.843508
0.843671
0.843817
0.843955
0.84408
0.844218
0.844381
0.844516
0.844622
0.844522
0.843876
0.746206
0.76456
0.777151
0.788442
0.797726
0.805365
0.811442
0.816257
0.820086
0.823154
0.825681
0.827789
0.829589
0.831151
0.832521
0.833741
0.83483
0.835802
0.836678
0.837463
0.838162
0.838787
0.839338
0.839838
0.840272
0.840672
0.841019
0.841319
0.841587
0.841819
0.842032
0.842233
0.842439
0.842643
0.842878
0.843167
0.84347
0.8438
0.843982
0.843578
0.744505
0.762061
0.774628
0.785934
0.795338
0.803096
0.809289
0.8142
0.818099
0.821216
0.823768
0.825891
0.827698
0.829263
0.830634
0.831855
0.832943
0.833915
0.834792
0.835578
0.836281
0.836913
0.837473
0.837986
0.838434
0.838854
0.839222
0.83955
0.839851
0.840124
0.840383
0.840639
0.840911
0.841192
0.841524
0.841936
0.842412
0.842985
0.843494
0.843415
0.742969
0.759602
0.772134
0.78345
0.792963
0.800836
0.807144
0.81215
0.816119
0.819284
0.821862
0.823998
0.82581
0.827375
0.828745
0.829961
0.831046
0.832017
0.832893
0.833678
0.834384
0.835019
0.835589
0.836112
0.836576
0.837013
0.837403
0.83776
0.838092
0.838406
0.838712
0.839021
0.839357
0.839715
0.840141
0.840675
0.841327
0.84216
0.843049
0.843417
0.741488
0.75702
0.769512
0.78084
0.790459
0.798453
0.804885
0.809997
0.814044
0.817265
0.819877
0.822032
0.823853
0.825421
0.826791
0.828005
0.829089
0.83006
0.830935
0.831721
0.832432
0.833073
0.833654
0.834189
0.834671
0.835127
0.835541
0.835927
0.836293
0.836648
0.837002
0.837365
0.837762
0.838197
0.838716
0.839371
0.840198
0.841306
0.842634
0.843617
0.740277
0.754752
0.767227
0.778528
0.788189
0.796251
0.802767
0.807948
0.812044
0.815297
0.817924
0.820087
0.821911
0.82348
0.824852
0.826066
0.82715
0.82812
0.828996
0.829782
0.830497
0.831143
0.831734
0.832279
0.832778
0.83325
0.833686
0.834099
0.834495
0.834887
0.835282
0.835695
0.836146
0.836651
0.837253
0.838018
0.839007
0.840386
0.842188
0.843987
0.735901
0.749357
0.761979
0.773273
0.782939
0.791065
0.797713
0.802998
0.807116
0.810305
0.812817
0.814871
0.816612
0.818128
0.819469
0.82066
0.821723
0.822672
0.823526
0.824295
0.824998
0.825639
0.826234
0.826788
0.827309
0.827805
0.828281
0.828747
0.829205
0.829675
0.830162
0.830682
0.831258
0.83192
0.832712
0.833727
0.835089
0.837127
0.840226
0.844792
0.723656
0.736492
0.748477
0.759181
0.768475
0.776456
0.783118
0.788537
0.792879
0.79635
0.799159
0.80149
0.803481
0.805218
0.806757
0.808132
0.809368
0.810486
0.811504
0.812436
0.813297
0.814097
0.814847
0.815554
0.816228
0.816874
0.817499
0.818113
0.818722
0.81934
0.819976
0.820649
0.821384
0.82222
0.823212
0.824473
0.82618
0.8288
0.832876
0.838805
0.710742
0.722988
0.734299
0.744538
0.753555
0.761411
0.768083
0.773631
0.778194
0.781937
0.78503
0.787634
0.789872
0.791834
0.793581