/*--------------------------------*- C++ -*----------------------------------*\
  =========                 |
  \\      /  F ield         | OpenFOAM: The Open Source CFD Toolbox
   \\    /   O peration     | Website:  https://openfoam.org
    \\  /    A nd           | Version:  7
     \\/     M anipulation  |
\*---------------------------------------------------------------------------*/
FoamFile
{
    version     2.0;
    format      ascii;
    class       volVectorField;
    location    "3.5";
    object      U;
}
// * * * * * * * * * * * * * * * * * * * * * * * * * * * * * * * * * * * * * //

dimensions      [0 1 -1 0 0 0 0];

internalField   nonuniform List<vector> 
32000
(
(-0.000783318 0.0193272 -7.04444e-22)
(-0.00399376 0.0536772 0)
(-0.00936899 0.084683 -6.27101e-21)
(-0.0155617 0.111772 0)
(-0.0222095 0.135037 6.53041e-21)
(-0.0289083 0.154827 0)
(-0.035374 0.171555 6.75213e-21)
(-0.0413967 0.185627 -5.13467e-21)
(-0.0468206 0.1974 2.32283e-24)
(-0.0515356 0.207168 2.5675e-24)
(-0.0554698 0.215167 -1.77262e-21)
(-0.0585822 0.221571 7.15414e-21)
(-0.0608554 0.226511 0)
(-0.0622884 0.230087 -1.81931e-21)
(-0.0628918 0.232381 1.82688e-21)
(-0.0626853 0.233463 0)
(-0.0616946 0.233401 9.22779e-21)
(-0.0599502 0.232264 -1.85197e-21)
(-0.0574858 0.230125 0)
(-0.0543375 0.227061 3.73436e-21)
(-0.0505426 0.223156 3.73014e-21)
(-0.0461384 0.218498 0)
(-0.0411635 0.213178 0)
(-0.0356583 0.20729 0)
(-0.029664 0.200931 0)
(-0.023222 0.194195 0)
(-0.0163744 0.187177 0)
(-0.00916369 0.179968 0)
(-0.00163316 0.172656 -7.44927e-21)
(0.00617344 0.165325 0)
(0.0142119 0.158054 7.41689e-21)
(0.0224377 0.150915 0)
(0.0308064 0.143977 0)
(0.0392721 0.137302 0)
(0.0477892 0.130949 -7.32458e-21)
(0.056309 0.124974 -3.66008e-21)
(0.0647783 0.119429 1.09277e-20)
(0.0731588 0.114363 -9.11731e-24)
(0.0814043 0.109902 7.22399e-21)
(0.0892123 0.106234 -1.19226e-23)
(-0.00114891 0.0200655 0)
(-0.00489057 0.0553785 1.22267e-20)
(-0.0106012 0.0870315 3.13701e-21)
(-0.0170158 0.114551 -6.77147e-25)
(-0.0238024 0.138066 -3.26751e-21)
(-0.0305887 0.157952 0)
(-0.0371104 0.174646 6.72928e-21)
(-0.0431699 0.188571 -6.82612e-21)
(-0.048619 0.200105 0)
(-0.053352 0.209556 -1.40093e-20)
(-0.0573001 0.217173 0)
(-0.0604218 0.223146 -2.14323e-20)
(-0.0626962 0.227615 0)
(-0.0641223 0.230691 0)
(-0.0647106 0.232461 7.30523e-21)
(-0.0644763 0.233003 -7.32884e-21)
(-0.063444 0.232389 -7.3779e-21)
(-0.0616441 0.230693 0)
(-0.0591081 0.227991 2.22426e-20)
(-0.0558706 0.224364 -7.42804e-21)
(-0.0519691 0.219899 -2.83053e-24)
(-0.0474409 0.214687 -2.23452e-20)
(-0.0423243 0.208822 -1.49047e-20)
(-0.03666 0.202401 -7.47732e-21)
(-0.0304902 0.195523 2.23629e-20)
(-0.0238579 0.188286 -2.23685e-20)
(-0.0168062 0.180789 2.23772e-20)
(-0.00937952 0.173125 -2.97344e-20)
(-0.00162332 0.165385 -7.38612e-21)
(0.0064169 0.157657 5.02882e-23)
(0.0146949 0.150022 -2.21501e-20)
(0.0231638 0.142556 -1.47442e-20)
(0.0317768 0.13533 2.94177e-20)
(0.0404866 0.12841 -2.92878e-20)
(0.0492459 0.12186 -7.25848e-21)
(0.0580036 0.115738 -2.91016e-20)
(0.0667062 0.110107 1.87327e-23)
(0.0753142 0.105023 7.21596e-21)
(0.0837745 0.100627 -2.86967e-20)
(0.0917801 0.0971245 -4.1007e-20)
(-0.00153439 0.0207155 -2.80507e-21)
(-0.0058163 0.0568706 -6.11682e-21)
(-0.0118451 0.0891312 -2.81187e-20)
(-0.0184507 0.117067 0)
(-0.0253355 0.140837 3.25755e-21)
(-0.0321598 0.160836 -3.31301e-21)
(-0.0386817 0.177518 -4.03948e-20)
(-0.0447179 0.191322 1.36739e-20)
(-0.0501327 0.202641 -6.92371e-21)
(-0.0548238 0.211799 4.19687e-20)
(-0.0587215 0.219058 1.41392e-20)
(-0.0617879 0.22462 7.15159e-21)
(-0.0640029 0.228637 -2.87257e-20)
(-0.0653617 0.231227 0)
(-0.0658725 0.232487 0)
(-0.0655514 0.2325 1.46503e-20)
(-0.0644203 0.231344 2.86108e-23)
(-0.0625075 0.229096 -1.47365e-20)
(-0.0598449 0.225838 -1.48153e-20)
(-0.0564667 0.221653 -2.96065e-20)
(-0.0524093 0.216631 4.45215e-20)
(-0.0477101 0.210866 4.21398e-23)
(-0.0424078 0.204456 9.63119e-24)
(-0.0365444 0.197501 1.48628e-20)
(-0.0301631 0.190103 -2.97987e-20)
(-0.0233081 0.182365 5.94148e-20)
(-0.0160246 0.174385 0)
(-0.008359 0.166263 1.48606e-20)
(-0.00035809 0.158094 1.48349e-20)
(0.00793002 0.149966 2.9593e-20)
(0.0164566 0.141965 5.01645e-23)
(0.0251728 0.134169 0)
(0.0340302 0.126653 1.46494e-20)
(0.0429797 0.119487 -1.45361e-20)
(0.0519717 0.112736 -1.44471e-20)
(0.0609546 0.106466 4.35418e-20)
(0.0698739 0.100744 -4.31699e-20)
(0.0786878 0.0956389 2.87683e-20)
(0.0873418 0.0913048 -4.27879e-20)
(0.0955215 0.0879685 1.62455e-20)
(-0.00193684 0.0213242 2.23893e-20)
(-0.00676889 0.0582796 -2.43658e-20)
(-0.0131056 0.0911035 4.99387e-20)
(-0.0198764 0.11943 0)
(-0.0268193 0.143443 1.9481e-20)
(-0.0336334 0.163554 3.3061e-20)
(-0.0401024 0.180232 6.77183e-21)
(-0.046058 0.193926 7.54215e-24)
(-0.0513741 0.205042 2.07011e-20)
(-0.0559567 0.213922 -7.04111e-21)
(-0.0597406 0.220839 3.52488e-20)
(-0.0626875 0.226005 -4.26932e-20)
(-0.0647761 0.229583 4.30622e-20)
(-0.0660021 0.231702 -1.44558e-20)
(-0.0663728 0.232465 1.45161e-20)
(-0.0659015 0.231961 -2.91605e-20)
(-0.0646096 0.230274 -4.39505e-20)
(-0.0625254 0.227485 1.46954e-20)
(-0.0596795 0.223679 -1.47629e-20)
(-0.0561055 0.218943 4.43708e-20)
(-0.0518401 0.21337 -2.96528e-20)
(-0.0469211 0.207058 -2.95764e-20)
(-0.0413881 0.200107 0)
(-0.035284 0.192622 0)
(-0.0286537 0.184708 -2.95709e-20)
(-0.0215431 0.176469 -2.96701e-20)
(-0.0139993 0.168009 -2.95088e-20)
(-0.00607041 0.159432 0)
(0.00219419 0.150833 0)
(0.010744 0.142307 -5.87827e-20)
(0.0195283 0.133941 -6.65766e-23)
(0.0284962 0.125818 2.93228e-20)
(0.0375972 0.118013 -2.91309e-20)
(0.0467805 0.110601 -2.90966e-20)
(0.0559953 0.10365 2.90688e-20)
(0.0651887 0.0972302 0)
(0.0743055 0.0914154 2.87983e-20)
(0.083304 0.0862849 -5.71673e-20)
(0.0921275 0.0820088 5.69899e-20)
(0.100454 0.0788347 -6.48379e-20)
(-0.00235448 0.0218486 -1.12082e-20)
(-0.00774232 0.0595002 1.82766e-20)
(-0.0143688 0.092835 -2.49469e-20)
(-0.0212765 0.121529 0)
(-0.0282413 0.145779 -3.24776e-20)
(-0.0349992 0.166011 -1.98423e-20)
(-0.0413612 0.182701 2.6869e-20)
(-0.0471789 0.196308 0)
(-0.0523368 0.207249 -4.14013e-20)
(-0.0567483 0.215876 -1.39795e-20)
(-0.0603525 0.222475 -1.4103e-20)
(-0.0631138 0.227268 2.84637e-20)
(-0.0650113 0.230431 -2.86335e-20)
(-0.0660392 0.232099 1.44009e-20)
(-0.0662039 0.232384 0)
(-0.0655191 0.231381 4.37324e-20)
(-0.0640047 0.229179 1.46705e-20)
(-0.0616877 0.225863 -2.93554e-20)
(-0.0585994 0.221522 5.88098e-20)
(-0.0547736 0.216247 -5.89211e-20)
(-0.0502469 0.210133 5.89177e-20)
(-0.0450576 0.203284 2.95758e-20)
(-0.0392469 0.195802 0)
(-0.0328595 0.187794 2.95559e-20)
(-0.0259419 0.17937 9.18783e-23)
(-0.0185416 0.170638 0)
(-0.010708 0.161705 2.95083e-20)
(-0.00249149 0.152677 -2.94276e-20)
(0.00605612 0.143656 2.93051e-20)
(0.014882 0.134737 5.86433e-20)
(0.023933 0.126012 -5.83919e-20)
(0.0331564 0.117566 5.82639e-20)
(0.0424997 0.109478 0)
(0.0519104 0.101824 0)
(0.0613367 0.094676 5.76378e-20)
(0.0707252 0.0881079 0)
(0.0800196 0.0821995 0)
(0.0891781 0.0770404 -5.6844e-20)
(0.0981444 0.0728165 5.66185e-20)
(0.106588 0.0697991 3.22906e-20)
(-0.00278256 0.0223043 5.58036e-21)
(-0.00872826 0.0605703 0)
(-0.015631 0.094364 4.97108e-20)
(-0.022651 0.123394 6.35582e-21)
(-0.029601 0.147873 6.4854e-21)
(-0.0362592 0.168229 3.95232e-20)
(-0.0424651 0.184941 5.35498e-20)
(-0.0480888 0.198479 0)
(-0.0530278 0.209265 1.37716e-20)
(-0.0572052 0.217663 4.17109e-20)
(-0.0605655 0.223966 5.61702e-20)
(-0.063075 0.22841 -1.41869e-20)
(-0.0647137 0.231179 -4.27988e-20)
(-0.0654764 0.232417 0)
(-0.0653694 0.232244 5.77493e-20)
(-0.0644052 0.230761 0)
(-0.0626034 0.228061 8.73969e-20)
(-0.0599914 0.224236 -2.92201e-20)
(-0.0566008 0.219375 0)
(-0.0524653 0.213576 -2.93834e-20)
(-0.0476219 0.206937 -7.68456e-23)
(-0.0421107 0.199564 -2.92708e-20)
(-0.0359749 0.191564 -2.93872e-20)
(-0.0292607 0.183046 2.9432e-20)
(-0.0220163 0.174124 -2.93549e-20)
(-0.0142918 0.164909 0)
(-0.00613881 0.155514 -2.93402e-20)
(0.00238985 0.146047 2.92281e-20)
(0.0112399 0.136614 0)
(0.0203558 0.127313 0)
(0.0296822 0.118239 0)
(0.0391644 0.10948 -5.80015e-20)
(0.048748 0.101117 5.76946e-20)
(0.0583793 0.0932288 0)
(0.0680053 0.0858899 -2.87474e-20)
(0.0775719 0.0791772 0)
(0.0870227 0.073176 5.69492e-20)
(0.0963158 0.0679858 -2.81977e-20)
(0.105397 0.0638084 -5.64355e-20)
(0.113926 0.0609406 6.39431e-20)
(-0.0032182 0.0226808 3.89338e-20)
(-0.00972206 0.0614631 -5.45146e-20)
(-0.0168845 0.0956556 -9.31186e-20)
(-0.0239912 0.124991 -5.0694e-20)
(-0.0308935 0.149686 -1.29396e-20)
(-0.0374108 0.170167 -2.63754e-20)
(-0.0434112 0.186916 -1.20371e-19)
(-0.0487869 0.200404 -4.06425e-20)
(-0.0534494 0.211059 -6.86329e-20)
(-0.0573309 0.219252 -6.95204e-20)
(-0.0603826 0.225287 -9.82038e-20)
(-0.0625744 0.229408 -5.65312e-20)
(-0.063888 0.231808 1.29228e-22)
(-0.0643183 0.232642 -5.72997e-20)
(-0.0638723 0.232035 -5.77482e-20)
(-0.0625627 0.230094 -8.68316e-20)
(-0.0604091 0.226919 5.79679e-20)
(-0.0574392 0.222604 -2.91322e-20)
(-0.0536851 0.217245 0)
(-0.0491812 0.210941 5.84112e-20)
(-0.043966 0.203796 0)
(-0.0380814 0.195917 1.17183e-19)
(-0.0315725 0.187415 0)
(-0.0244876 0.178405 -2.93058e-20)
(-0.0168771 0.169001 2.94119e-20)
(-0.00879388 0.159322 -5.83846e-20)
(-0.000292013 0.14948 0)
(0.00857329 0.13959 -5.8298e-20)
(0.0177448 0.129759 5.80553e-20)
(0.0271641 0.120091 0)
(0.0367741 0.110682 0)
(0.046518 0.101623 0)
(0.0563396 0.0929984 -5.73162e-20)
(0.0661837 0.0848876 0)
(0.0759967 0.0773671 -5.71172e-20)
(0.0857242 0.0705168 1.13673e-19)
(0.0953093 0.0644259 -1.13206e-19)
(0.10471 0.0592031 5.61055e-20)
(0.113877 0.0550661 1.12201e-19)
(0.122461 0.0523389 -6.35007e-20)
(-0.00365737 0.0229749 -5.00589e-20)
(-0.010716 0.0621725 9.57467e-23)
(-0.0181227 0.0967024 4.96157e-20)
(-0.0252926 0.126307 1.01292e-19)
(-0.0321151 0.151202 -1.2916e-20)
(-0.0384522 0.17181 -5.25263e-20)
(-0.0442016 0.188607 5.34397e-20)
(-0.0492777 0.202064 8.12972e-20)
(-0.0536066 0.212611 2.74763e-20)
(-0.0571318 0.220626 6.92615e-20)
(-0.0598122 0.226419 5.60544e-20)
(-0.0616214 0.230245 8.46899e-20)
(-0.0625431 0.232305 1.70635e-19)
(-0.0625743 0.232761 8.5857e-20)
(-0.0617228 0.231746 0)
(-0.060002 0.229373 2.89491e-20)
(-0.0574318 0.225747 2.87963e-20)
(-0.054041 0.220968 2.8951e-20)
(-0.0498625 0.215134 5.82316e-20)
(-0.044932 0.208349 -2.93432e-20)
(-0.0392898 0.200721 0)
(-0.0329802 0.192359 -2.29637e-22)
(-0.0260506 0.183378 -5.82274e-20)
(-0.0185516 0.173897 5.81842e-20)
(-0.0105363 0.164034 1.16499e-19)
(-0.00206029 0.153909 1.16258e-19)
(0.00681961 0.143642 -8.64786e-23)
(0.0160452 0.133349 5.78165e-20)
(0.0255564 0.123141 5.76838e-20)
(0.0352924 0.113124 -5.7537e-20)
(0.0451935 0.103399 5.73767e-20)
(0.0552012 0.0940581 5.72035e-20)
(0.0652578 0.0851884 1.14333e-19)
(0.0753067 0.0768702 -2.08274e-22)
(0.0852934 0.0691814 1.70137e-19)
(0.0951636 0.0622034 -8.98488e-23)
(0.10486 0.0560286 -5.61631e-20)
(0.114342 0.0507737 -5.62131e-20)
(0.123564 0.0466716 5.56704e-20)
(0.13217 0.0440743 6.29366e-20)
(-0.00409605 0.0231858 4.43101e-20)
(-0.0117031 0.0626926 6.04328e-20)
(-0.0193385 0.0974926 3.7057e-20)
(-0.0265499 0.127327 -3.79569e-20)
(-0.0332634 0.152405 -6.43845e-20)
(-0.039384 0.173138 5.25148e-20)
(-0.0448392 0.189993 0)
(-0.0495661 0.203436 5.40128e-20)
(-0.0535074 0.213899 0)
(-0.0566183 0.221762 -1.10696e-19)
(-0.0588659 0.227343 2.79521e-20)
(-0.0602285 0.230903 -1.40852e-19)
(-0.0606932 0.232652 -5.68119e-20)
(-0.0602598 0.23276 2.84156e-20)
(-0.0589372 0.231366 2.38701e-23)
(-0.0567398 0.22859 -2.87914e-20)
(-0.0536891 0.224542 -5.7878e-20)
(-0.0498151 0.219325 -1.15867e-19)
(-0.0451521 0.213044 0)
(-0.0397376 0.205806 -7.36905e-23)
(-0.0336142 0.197721 -5.80985e-20)
(-0.026829 0.188903 -5.82455e-20)
(-0.019432 0.17947 5.82261e-20)
(-0.0114763 0.169544 -5.83501e-20)
(-0.00301828 0.159247 5.78608e-20)
(0.00588356 0.148704 -1.1589e-19)
(0.0151695 0.138037 -8.80726e-23)
(0.0247781 0.127365 -1.15439e-19)
(0.0346464 0.116804 -5.76826e-20)
(0.044711 0.106463 8.97215e-23)
(0.0549102 0.0964446 -2.03534e-22)
(0.0651835 0.0868443 -5.72023e-20)
(0.0754713 0.0777501 -5.70172e-20)
(0.0857159 0.0692433 -2.98534e-22)
(0.0958626 0.061403 -5.66124e-20)
(0.105857 0.0543107 -2.96799e-22)
(0.115643 0.048061 -5.59786e-20)
(0.125178 0.0427765 1.67065e-19)
(0.134425 0.0387049 -5.56693e-20)
(0.143021 0.036226 -6.27989e-20)
(-0.00453005 0.0233121 -4.43086e-20)
(-0.0126759 0.0630184 1.20535e-20)
(-0.0205253 0.0980184 -3.70772e-20)
(-0.027758 0.128041 -1.26111e-20)
(-0.0343363 0.15328 5.15005e-20)
(-0.0402073 0.174132 -1.30981e-20)
(-0.0453284 0.191052 1.32956e-20)
(-0.0496601 0.204498 -8.10043e-20)
(-0.0531625 0.2149 2.73069e-20)
(-0.0558033 0.222638 5.52922e-20)
(-0.0575589 0.228036 0)
(-0.0584131 0.231361 1.12443e-19)
(-0.0583578 0.232831 0)
(-0.0573956 0.232622 -1.13893e-19)
(-0.0555375 0.23088 -5.71475e-20)
(-0.0527999 0.227732 0)
(-0.0492063 0.223293 0)
(-0.0447883 0.217671 1.15497e-19)
(-0.0395822 0.210974 5.78591e-20)
(-0.0336277 0.203313 -1.1578e-19)
(-0.0269704 0.194802 5.78836e-20)
(-0.0196605 0.185559 0)
(-0.0117509 0.175705 -5.78958e-20)
(-0.00329767 0.165365 1.15361e-19)
(0.00563947 0.154666 -5.76895e-20)
(0.0149987 0.143735 -5.76727e-20)
(0.0247171 0.132697 5.74737e-20)
(0.0347301 0.121677 0)
(0.0449716 0.110792 1.14407e-19)
(0.0553759 0.100154 -5.70444e-20)
(0.0658788 0.0898697 -5.69868e-20)
(0.0764181 0.0800356 -1.12385e-22)
(0.0869326 0.0707413 2.26182e-19)
(0.0973636 0.0620689 -1.69148e-19)
(0.107656 0.0540971 0)
(0.117756 0.0469075 -5.6095e-20)
(0.127607 0.0405949 -1.11547e-19)
(0.137168 0.0352865 5.52218e-20)
(0.146409 0.0312428 5.50873e-20)
(0.154964 0.0288708 0)
(-0.00495523 0.0233537 -8.82291e-20)
(-0.0136268 0.0631477 -1.20279e-20)
(-0.021676 0.0982741 9.84582e-20)
(-0.0289127 0.128437 -1.0062e-19)
(-0.0353326 0.153813 0)
(-0.0409243 0.174777 0)
(-0.0456751 0.191766 -2.65645e-20)
(-0.049569 0.20523 -2.28188e-23)
(-0.0525846 0.215591 2.72546e-20)
(-0.0547028 0.223231 0)
(-0.05591 0.228476 0)
(-0.0561969 0.231598 -2.81022e-20)
(-0.0555607 0.232821 1.57459e-23)
(-0.054008 0.232328 2.84804e-20)
(-0.0515526 0.230272 5.71463e-20)
(-0.0482133 0.226786 0)
(-0.0440165 0.22199 5.74604e-20)
(-0.0389959 0.215996 -5.76267e-20)
(-0.0331901 0.208917 -1.15283e-19)
(-0.026642 0.200869 1.15363e-19)
(-0.0194006 0.191967 3.97088e-23)
(-0.0115191 0.182333 -5.7646e-20)
(-0.00305364 0.172093 5.76487e-20)
(0.00593584 0.161375 -1.15203e-19)
(0.0153862 0.150308 0)
(0.0252323 0.139023 5.7399e-20)
(0.0354078 0.12765 -1.14484e-19)
(0.0458447 0.116315 5.70637e-20)
(0.0564739 0.105139 -5.71044e-20)
(0.0672271 0.0942375 -5.68549e-20)
(0.0780382 0.083718 -5.67941e-20)
(0.0888428 0.07368 2.25831e-19)
(0.0995785 0.0642138 -1.68844e-19)
(0.110186 0.0554018 -1.12258e-19)
(0.120609 0.0473225 1.11615e-19)
(0.130795 0.040056 0)
(0.140688 0.0336961 1.10954e-19)
(0.150247 0.0283725 -1.10259e-19)
(0.159452 0.0243566 -5.50862e-20)
(0.167935 0.0220813 0)
(-0.00536762 0.0233119 1.87278e-19)
(-0.0145486 0.0630802 8.39235e-20)
(-0.0227844 0.0982563 -9.84573e-20)
(-0.0300096 0.12851 8.8049e-20)
(-0.0362513 0.153993 -1.28296e-20)
(-0.0415379 0.175056 2.6076e-20)
(-0.0458864 0.192117 0)
(-0.0493041 0.20561 -2.68888e-20)
(-0.0517887 0.215951 2.72022e-20)
(-0.0533355 0.223518 2.75164e-20)
(-0.0539414 0.228638 -2.77572e-20)
(-0.0536053 0.231589 -2.79937e-20)
(-0.0523307 0.232599 2.81694e-20)
(-0.0501289 0.231857 0)
(-0.0470171 0.229522 0)
(-0.0430178 0.225734 -5.71323e-20)
(-0.0381602 0.220616 5.72672e-20)
(-0.0324812 0.214288 -5.73905e-20)
(-0.0260224 0.206866 5.74373e-20)
(-0.0188302 0.198467 5.74874e-20)
(-0.0109571 0.189212 -1.14944e-19)
(-0.00245992 0.179227 1.1488e-19)
(0.00660142 0.16864 4.12991e-23)
(0.0161631 0.157582 -5.72806e-20)
(0.0261582 0.146187 0)
(0.0365182 0.134588 5.71277e-20)
(0.0471729 0.122918 7.39402e-23)
(0.0580508 0.111306 -5.67867e-20)
(0.0690801 0.0998756 0)
(0.0801899 0.0887458 1.13124e-19)
(0.0913117 0.0780262 -1.12585e-19)
(0.10238 0.0678176 0)
(0.11333 0.0582111 1.12054e-19)
(0.124102 0.0492893 -1.11436e-19)
(0.13464 0.0411294 0)
(0.144894 0.0338098 0)
(0.154805 0.0274219 0)
(0.164336 0.0220953 -1.09895e-19)
(0.173475 0.0181101 1.0919e-19)
(0.181857 0.0159228 1.22495e-19)
(-0.00576364 0.0231886 -8.80318e-20)
(-0.0154344 0.062818 -9.5925e-20)
(-0.0238441 0.0979646 -1.22741e-20)
(-0.0310451 0.128255 3.76282e-20)
(-0.0370922 0.153811 -5.11622e-20)
(-0.042052 0.174957 5.20756e-20)
(-0.0459702 0.192087 -5.29058e-20)
(-0.0488777 0.205618 -8.03924e-20)
(-0.0507916 0.215956 0)
(-0.0517223 0.223473 -2.74605e-20)
(-0.0516782 0.228498 2.77008e-20)
(-0.0506675 0.231309 0)
(-0.0487008 0.23214 5.62299e-20)
(-0.0457949 0.231184 -5.65212e-20)
(-0.0419716 0.228608 -1.70186e-19)
(-0.0372574 0.224556 -7.10194e-24)
(-0.0316854 0.219156 1.14214e-19)
(-0.0252959 0.212533 -5.7199e-20)
(-0.0181343 0.204806 0)
(-0.0102511 0.196098 0)
(-0.00170242 0.186532 1.14306e-19)
(0.00745098 0.176238 5.72266e-20)
(0.0171448 0.165346 -5.71325e-20)
(0.0273112 0.153991 -5.70791e-20)
(0.0378795 0.142309 1.13907e-19)
(0.0487772 0.130438 -5.68036e-20)
(0.0599304 0.118513 1.13461e-19)
(0.0712641 0.106666 -2.26205e-19)
(0.0827033 0.0950227 2.25578e-19)
(0.0941749 0.0837043 -2.24913e-19)
(0.105608 0.0728228 2.24213e-19)
(0.116936 0.0624802 -2.23479e-19)
(0.128092 0.0527681 1.11251e-19)
(0.139017 0.043769 1.11071e-19)
(0.149655 0.0355587 2.24778e-22)
(0.159955 0.0282129 2.25143e-22)
(0.169863 0.0218193 -1.09556e-19)
(0.179338 0.0165055 3.96819e-22)
(0.188383 0.0125568 -1.08613e-19)
(0.196638 0.0104511 0)
(-0.00613991 0.0229867 1.09672e-20)
(-0.0162781 0.0623653 -1.19565e-20)
(-0.0248498 0.0974012 3.67428e-20)
(-0.0320157 0.12767 -5.00679e-20)
(-0.0378554 0.153263 2.55219e-20)
(-0.0424707 0.17447 0)
(-0.0459354 0.191661 0)
(-0.0483033 0.205235 1.07207e-19)
(-0.0496116 0.215584 1.35446e-19)
(-0.0498862 0.223075 -2.7391e-20)
(-0.0491482 0.228031 1.3815e-19)
(-0.0474158 0.230733 -2.78622e-20)
(-0.0447078 0.231419 0)
(-0.0410475 0.230286 0)
(-0.0364618 0.227506 1.13405e-19)
(-0.0309821 0.223228 0)
(-0.0246462 0.217587 5.67855e-20)
(-0.0174987 0.21071 -5.68542e-20)
(-0.00958905 0.202722 0)
(-0.000971992 0.193747 -1.13957e-19)
(0.00829205 0.183915 -5.72511e-20)
(0.0181379 0.173356 -1.70762e-19)
(0.0284969 0.162204 -5.69273e-20)
(0.0392967 0.150598 5.68049e-20)
(0.0504628 0.138677 1.13163e-19)
(0.0619188 0.126579 0)
(0.0735865 0.114445 1.12605e-19)
(0.0853875 0.102406 2.24923e-19)
(0.0972441 0.0905938 1.53443e-22)
(0.109081 0.0791295 -1.1181e-19)
(0.120824 0.0681272 -1.1163e-19)
(0.132405 0.05769 1.11067e-19)
(0.143758 0.04791 1.10885e-19)
(0.154822 0.0388688 -2.20764e-19)
(0.165543 0.0306408 2.19937e-19)
(0.175871 0.0232983 -1.09821e-19)
(0.185751 0.0169243 1.08981e-19)
(0.195146 0.0116421 2.17265e-19)
(0.204069 0.00774008 1.07876e-19)
(0.212172 0.00571604 1.20183e-19)
(-0.00649358 0.0227101 -8.74482e-20)
(-0.0170742 0.0617282 8.33936e-20)
(-0.0257966 0.0965711 -7.32379e-20)
(-0.0329188 0.126758 7.4847e-20)
(-0.0385415 0.152344 1.2731e-19)
(-0.0427987 0.173587 -1.03663e-19)
(-0.0457911 0.190828 1.31684e-19)
(-0.0475951 0.204446 8.00909e-20)
(-0.048268 0.214817 -1.89389e-19)
(-0.0478517 0.222298 5.45892e-20)
(-0.046381 0.227211 2.73713e-20)
(-0.043885 0.229835 5.56197e-20)
(-0.0403916 0.230409 5.58554e-20)
(-0.0359314 0.229135 -1.12396e-19)
(-0.0305375 0.22619 1.12844e-19)
(-0.0242469 0.221727 1.69834e-19)
(-0.0171028 0.215885 -1.70512e-19)
(-0.0091545 0.208798 2.27427e-19)
(-0.000456312 0.200591 1.13599e-19)
(0.00893253 0.191396 1.70831e-19)
(0.018947 0.181343 5.6644e-20)
(0.0295171 0.170567 1.13771e-19)
(0.0405693 0.159204 -1.13166e-19)
(0.0520272 0.147395 0)
(0.0638119 0.135282 -3.38799e-19)
(0.0758427 0.123007 2.25298e-19)
(0.0880376 0.11071 -1.125e-19)
(0.100314 0.0985286 -1.12169e-19)
(0.112593 0.0865933 -1.93629e-22)
(0.124794 0.0750286 0)
(0.136844 0.0639494 0)
(0.148672 0.0534596 1.10332e-19)
(0.16021 0.0436514 -1.10319e-19)
(0.171399 0.0346058 1.0971e-19)
(0.182184 0.0263948 -1.09511e-19)
(0.192518 0.0190873 -1.09089e-19)
(0.202349 0.0127602 0)
(0.211639 0.00753052 -1.07961e-19)
(0.22042 0.00368623 -1.07664e-19)
(0.228366 0.00173823 -3.58875e-19)
(-0.00682227 0.0223634 8.744e-20)
(-0.0178179 0.060915 -8.34332e-20)
(-0.0266801 0.095482 9.76736e-20)
(-0.033752 0.125522 -1.74543e-19)
(-0.0391512 0.151054 -1.27261e-19)
(-0.0430407 0.172302 1.03663e-19)
(-0.0455467 0.189577 -2.10443e-19)
(-0.0467675 0.203235 -1.06805e-19)
(-0.0467803 0.213634 1.35136e-19)
(-0.045644 0.221123 -2.45634e-19)
(-0.0434072 0.226015 -1.65359e-19)
(-0.0401114 0.228588 -5.53966e-20)
(-0.0357942 0.229082 -1.6767e-19)
(-0.0304943 0.227703 1.68531e-19)
(-0.0242518 0.22463 -1.12842e-19)
(-0.0171105 0.220023 -1.13177e-19)
(-0.00911916 0.214024 0)
(-0.000332874 0.206769 -1.13544e-19)
(0.00918903 0.198391 -1.70296e-19)
(0.0193824 0.189022 5.67066e-20)
(0.0301771 0.178796 -1.13489e-19)
(0.0414983 0.167851 0)
(0.0532675 0.156327 1.13163e-19)
(0.0654036 0.144365 1.12729e-19)
(0.0778234 0.132111 -1.11977e-19)
(0.0904418 0.119709 0)
(0.103173 0.107301 0)
(0.115931 0.0950265 0)
(0.128632 0.0830173 -5.09958e-22)
(0.141196 0.0713998 0)
(0.153547 0.0602898 -2.20709e-19)
(0.165611 0.0497916 -3.58344e-22)
(0.177321 0.039997 -2.1917e-19)
(0.188618 0.0309862 2.18531e-19)
(0.199449 0.022829 -1.08742e-19)
(0.209767 0.0155899 1.08694e-19)
(0.219524 0.00933917 0)
(0.228683 0.00418491 2.15413e-19)
(0.23729 0.000409593 -1.06934e-19)
(0.245043 -0.00147315 0)
(-0.00712411 0.0219522 1.08943e-20)
(-0.0185055 0.0599359 0)
(-0.0274971 0.094144 -1.21639e-19)
(-0.0345136 0.12397 1.49425e-19)
(-0.0396855 0.149398 7.60776e-20)
(-0.0432016 0.170614 -1.03278e-19)
(-0.0452113 0.187902 1.05124e-19)
(-0.0458346 0.201589 -1.06413e-19)
(-0.0451682 0.21202 0)
(-0.0432882 0.219527 1.09069e-19)
(-0.0402581 0.224417 -1.09848e-19)
(-0.0361321 0.226965 2.17422e-22)
(-0.0309585 0.22741 0)
(-0.0247851 0.22596 1.119e-19)
(-0.0176599 0.222799 -5.61086e-20)
(-0.00963378 0.218087 1.12588e-19)
(-0.000762268 0.211973 5.63193e-20)
(0.00889358 0.204596 -1.12911e-19)
(0.0192688 0.196092 0)
(0.030294 0.186597 1.69362e-19)
(0.0418937 0.176248 5.62628e-20)
(0.0539878 0.165185 0)
(0.0664927 0.15355 0)
(0.0793226 0.141488 0)
(0.0923898 0.129145 1.12222e-19)
(0.105605 0.116669 0)
(0.118877 0.104202 -1.11409e-19)
(0.132118 0.0918853 2.22061e-19)
(0.14524 0.0798532 -2.21534e-19)
(0.158162 0.0682324 0)
(0.170804 0.0571395 1.10179e-19)
(0.183092 0.0466786 -1.0928e-19)
(0.19496 0.0369414 1.09399e-19)
(0.206347 0.0280065 0)
(0.217202 0.0199412 0)
(0.227482 0.0128057 1.07988e-19)
(0.237141 0.00666306 -1.07329e-19)
(0.246143 0.00161118 2.14168e-19)
(0.254548 -0.0020752 -2.12795e-19)
(0.262086 -0.00388076 0)
(-0.0073978 0.0214825 7.59857e-20)
(-0.0191341 0.0588026 2.36974e-20)
(-0.0282449 0.0925697 9.72839e-20)
(-0.0352024 0.122113 9.9264e-20)
(-0.0401456 0.147382 -1.01453e-19)
(-0.0432856 0.168526 1.03278e-19)
(-0.0447935 0.185798 1.04741e-19)
(-0.0448098 0.199502 1.06413e-19)
(-0.0434503 0.20996 0)
(-0.0408089 0.217493 1.08668e-19)
(-0.0369641 0.222397 1.09847e-19)
(-0.0319837 0.224942 1.10674e-19)
(-0.0259274 0.225366 0)
(-0.0188528 0.223879 -2.3313e-22)
(-0.0108167 0.220664 1.12314e-19)
(-0.00187811 0.215888 -5.63939e-20)
(0.0079005 0.209701 -5.66315e-20)
(0.0184515 0.202247 1.69265e-19)
(0.0297041 0.193664 -4.356e-23)
(0.0415828 0.184091 -5.66985e-20)
(0.0540069 0.173669 -1.12732e-19)
(0.0668908 0.162539 0)
(0.0801456 0.150845 0)
(0.0936806 0.138736 0)
(0.107403 0.126358 0)
(0.121219 0.113861 0)
(0.135035 0.101389 0)
(0.148757 0.0890833 1.10599e-19)
(0.162296 0.0770805 -1.10139e-19)
(0.175567 0.0655076 0)
(0.188489 0.054481 0)
(0.200987 0.0441047 1.09278e-19)
(0.212994 0.0344697 0)
(0.224451 0.0256529 1.08314e-19)
(0.235309 0.0177189 -1.07694e-19)
(0.245526 0.0107233 0)
(0.255062 0.00472183 2.14034e-19)
(0.263882 -0.000199053 -2.12694e-19)
(0.272059 -0.00377486 0)
(0.279365 -0.00549162 0)
(-0.00764258 0.0209609 -8.68679e-20)
(-0.0197018 0.0575282 -2.36714e-20)
(-0.0289216 0.0907738 2.42385e-20)
(-0.0358173 0.119964 -9.92639e-20)
(-0.0405323 0.145015 0)
(-0.0432965 0.166041 0)
(-0.0443008 0.183265 -7.85683e-20)
(-0.0437049 0.196965 -2.65202e-20)
(-0.0416438 0.207444 -5.37281e-20)
(-0.0382286 0.215004 -5.43947e-20)
(-0.0335538 0.219934 -5.47708e-20)
(-0.0277008 0.222495 5.51792e-20)
(-0.0207417 0.222924 5.54188e-20)
(-0.0127446 0.22143 -5.58764e-20)
(-0.00377593 0.218198 0)
(0.00609682 0.213396 0)
(0.0168034 0.207178 -1.1253e-19)
(0.0282695 0.199689 0)
(0.0404177 0.191074 0)
(0.0531665 0.181472 1.11996e-19)
(0.0664294 0.171026 -8.95695e-23)
(0.080115 0.15988 -2.12607e-22)
(0.0941293 0.148181 -1.11729e-19)
(0.108376 0.136078 1.11489e-19)
(0.122759 0.123719 1.10961e-19)
(0.137177 0.111255 -1.1062e-19)
(0.151534 0.0988322 0)
(0.165732 0.0865925 1.10142e-19)
(0.17968 0.0746724 9.21865e-23)
(0.193289 0.0631994 -1.09284e-19)
(0.206476 0.0522895 0)
(0.219167 0.0420462 0)
(0.231293 0.0325592 1.08225e-19)
(0.242797 0.0239037 -1.07628e-19)
(0.253633 0.0161409 -1.07394e-19)
(0.263763 0.00932192 1.06758e-19)
(0.273149 0.00349496 0)
(0.28176 -0.00126576 0)
(0.289684 -0.00470893 0)
(0.29674 -0.00632611 -1.15619e-19)
(-0.0078583 0.0203946 1.08154e-19)
(-0.0202077 0.0561272 -4.72211e-20)
(-0.0295262 0.0887731 2.41896e-20)
(-0.0363576 0.11754 0)
(-0.0408461 0.14231 1.26143e-19)
(-0.043237 0.163168 2.65231e-23)
(-0.0437389 0.180307 1.04391e-19)
(-0.0425299 0.193979 -7.94594e-20)
(-0.0397631 0.204465 1.07237e-19)
(-0.0355672 0.212051 -5.41768e-20)
(-0.0300526 0.217012 0)
(-0.0233148 0.219605 5.50693e-20)
(-0.0154389 0.220062 -1.66331e-19)
(-0.00650418 0.218588 0)
(0.0034128 0.215371 1.67434e-19)
(0.0142354 0.210579 -1.11911e-19)
(0.0258852 0.20437 -1.12131e-19)
(0.0382806 0.196891 5.61242e-20)
(0.0513375 0.188288 0)
(0.0649679 0.178705 -1.12204e-19)
(0.0790791 0.168285 -1.11829e-19)
(0.0935742 0.157175 -1.21182e-22)
(0.108353 0.145523 1.11221e-19)
(0.123316 0.133479 1.11074e-19)
(0.138358 0.121195 -2.21741e-19)
(0.153376 0.108819 1.10618e-19)
(0.168269 0.0964998 0)
(0.182935 0.0843804 -1.09472e-19)
(0.19728 0.0725971 1.09078e-19)
(0.211212 0.0612767 1.08677e-19)
(0.224646 0.0505346 -1.0827e-19)
(0.237508 0.0404733 1.07859e-19)
(0.249731 0.0311808 0)
(0.261258 0.0227298 1.07337e-19)
(0.272045 0.0151783 2.13687e-19)
(0.282059 0.00857262 -2.12557e-19)
(0.291267 0.00295345 2.12036e-19)
(0.299644 -0.00161784 3.99587e-22)
(0.307287 -0.00490532 -1.05013e-19)
(0.314072 -0.00640991 2.30085e-19)
(-0.00804536 0.0197909 -6.48774e-20)
(-0.0206519 0.054615 -1.41289e-19)
(-0.0300582 0.086586 9.64888e-20)
(-0.0368229 0.114857 -7.40103e-20)
(-0.041087 0.139285 -2.53991e-20)
(-0.0431086 0.159922 2.56405e-20)
(-0.0431118 0.176933 -5.22063e-20)
(-0.0412919 0.190546 -5.28526e-20)
(-0.0378195 0.20102 5.35406e-20)
(-0.0328406 0.208624 -1.08183e-19)
(-0.0264815 0.21362 -2.44572e-24)
(-0.0188523 0.216256 5.4982e-20)
(-0.0100512 0.216757 0)
(-0.000169439 0.215329 -5.5536e-20)
(0.0107058 0.212157 -5.58333e-20)
(0.0224884 0.207411 1.11859e-19)
(0.0350912 0.201248 0)
(0.0484253 0.19382 0)
(0.0623992 0.185274 1.1181e-19)
(0.0769183 0.175756 -1.11823e-19)
(0.0918833 0.165412 0)
(0.107191 0.154388 1.11281e-19)
(0.122737 0.142836 -1.11304e-19)
(0.138414 0.130905 -2.21483e-19)
(0.154112 0.118748 3.69396e-23)
(0.169725 0.106516 1.10227e-19)
(0.185144 0.0943559 -2.19128e-19)
(0.200267 0.0824119 1.09469e-19)
(0.214992 0.0708196 -1.09075e-19)
(0.229228 0.0597049 -1.57884e-22)
(0.242889 0.0491821 2.68931e-22)
(0.255897 0.0393519 -1.07856e-19)
(0.268189 0.0303003 -1.07006e-19)
(0.27971 0.022097 -1.06576e-19)
(0.290419 0.0147964 -4.46364e-22)
(0.300287 0.00844014 0)
(0.309289 0.0030614 -1.05228e-19)
(0.317402 -0.00129175 2.10154e-19)
(0.324737 -0.00440025 -3.13547e-19)
(0.331232 -0.00577724 2.75025e-24)
(-0.00820473 0.0191575 -2.15542e-20)
(-0.0210353 0.0530077 1.88138e-19)
(-0.0305177 0.0842322 -9.65137e-20)
(-0.0372124 0.111938 7.40295e-20)
(-0.0412542 0.135958 -2.01239e-19)
(-0.042911 0.156316 2.55936e-20)
(-0.0424207 0.173154 -1.03999e-19)
(-0.0399946 0.186674 0)
(-0.0358201 0.197113 0)
(-0.0300597 0.204722 -1.07917e-19)
(-0.022856 0.20975 5.44817e-20)
(-0.0143334 0.212435 -8.44138e-23)
(-0.00460374 0.212996 5.52174e-20)
(0.00622945 0.211635 0)
(0.018068 0.208534 -1.66785e-19)
(0.0308158 0.203865 5.57884e-20)
(0.0443771 0.197785 -1.11536e-19)
(0.0586547 0.190448 0)
(0.0735499 0.182002 0)
(0.0889607 0.172595 6.00374e-23)
(0.104781 0.162373 -1.11345e-19)
(0.120903 0.151486 1.10875e-19)
(0.137213 0.140084 -1.10682e-19)
(0.1536 0.128319 1.10444e-19)
(0.169948 0.116344 1.45144e-22)
(0.186145 0.10431 1.60806e-22)
(0.202078 0.0923649 1.09469e-19)
(0.217639 0.0806514 -1.08703e-19)
(0.232726 0.0693043 0)
(0.247242 0.0584484 -1.08108e-19)
(0.261102 0.0481961 1.07593e-19)
(0.274229 0.0386459 0)
(0.286559 0.029881 1.07003e-19)
(0.298041 0.0219679 -1.06312e-19)
(0.308639 0.0149569 1.05531e-19)
(0.318329 0.00888477 0)
(0.327092 0.00377747 3.15407e-19)
(0.334912 -0.000330021 -2.08866e-19)
(0.341912 -0.00323717 0)
(0.348095 -0.00447145 1.13681e-19)
(-0.00833788 0.0185021 1.71892e-19)
(-0.0213596 0.0513217 -9.39738e-20)
(-0.0309054 0.0817327 -2.40716e-20)
(-0.0375252 0.108805 2.45875e-20)
(-0.0413457 0.132351 1.00511e-19)
(-0.0426419 0.152373 0)
(-0.0416639 0.168988 1.03999e-19)
(-0.0386378 0.182375 1.57887e-19)
(-0.0337667 0.192751 5.33279e-20)
(-0.0272295 0.200348 5.39987e-20)
(-0.0191843 0.205401 5.43894e-20)
(-0.00977035 0.208137 -1.64456e-19)
(0.000887213 0.208768 5.51235e-20)
(0.0126721 0.207491 2.21243e-19)
(0.0254749 0.204486 5.56688e-20)
(0.0391893 0.199922 5.56836e-20)
(0.0537106 0.19396 1.11534e-19)
(0.0689332 0.186751 0)
(0.0847505 0.178446 0)
(0.101053 0.169193 2.22472e-19)
(0.117728 0.15914 -4.43722e-19)
(0.134659 0.148438 -7.3038e-23)
(0.151729 0.137237 0)
(0.168818 0.125691 0)
(0.185806 0.113951 1.0988e-19)
(0.202572 0.10217 0)
(0.219001 0.0904937 0)
(0.23498 0.079065 -1.07999e-19)
(0.250403 0.0680169 -2.15853e-19)
(0.265171 0.0574722 0)
(0.279198 0.0475409 -2.14135e-19)
(0.292409 0.0383188 -4.27038e-19)
(0.304741 0.0298854 2.12642e-19)
(0.316148 0.0223034 -2.11503e-19)
(0.326597 0.0156188 2.11164e-19)
(0.336072 0.00986361 -2.09915e-19)
(0.344563 0.00505651 -2.08727e-19)