/*--------------------------------*- C++ -*----------------------------------*\
  =========                 |
  \\      /  F ield         | OpenFOAM: The Open Source CFD Toolbox
   \\    /   O peration     | Website:  https://openfoam.org
    \\  /    A nd           | Version:  7
     \\/     M anipulation  |
\*---------------------------------------------------------------------------*/
FoamFile
{
    version     2.0;
    format      ascii;
    class       volScalarField;
    location    "9";
    object      p;
}
// * * * * * * * * * * * * * * * * * * * * * * * * * * * * * * * * * * * * * //

dimensions      [0 2 -2 0 0 0 0];

internalField   nonuniform List<scalar> 
8000
(
0.134611
0.136906
0.138348
0.139959
0.141604
0.143292
0.14502
0.146778
0.148554
0.150339
0.152123
0.153898
0.155658
0.157396
0.159107
0.160789
0.162436
0.164046
0.165613
0.167148
0.133957
0.136287
0.137765
0.139409
0.141081
0.142785
0.144519
0.146272
0.148034
0.149795
0.151546
0.153281
0.154994
0.156679
0.158334
0.159954
0.161538
0.163079
0.164563
0.166053
0.13326
0.13565
0.137174
0.138862
0.140568
0.142295
0.144041
0.145795
0.147547
0.149289
0.151012
0.152711
0.15438
0.156015
0.157613
0.159173
0.160694
0.162166
0.163567
0.165006
0.132578
0.135034
0.136606
0.138339
0.140082
0.141835
0.143597
0.145356
0.147102
0.148828
0.150526
0.152191
0.153819
0.155406
0.156949
0.158449
0.159906
0.161309
0.162625
0.164006
0.131912
0.134434
0.136055
0.137837
0.13962
0.141404
0.143185
0.144952
0.146696
0.148409
0.150086
0.151721
0.15331
0.154851
0.156341
0.157782
0.159175
0.160508
0.16174
0.163056
0.131254
0.133842
0.135516
0.13735
0.139177
0.140995
0.1428
0.14458
0.146326
0.148032
0.149691
0.151299
0.152853
0.15435
0.15579
0.157172
0.158503
0.159766
0.160913
0.162155
0.130601
0.133256
0.134985
0.136875
0.13875
0.140608
0.142441
0.144239
0.145992
0.147694
0.14934
0.150925
0.152447
0.153904
0.155294
0.156621
0.157889
0.159083
0.160146
0.161303
0.12995
0.132671
0.134459
0.136409
0.138338
0.140239
0.142106
0.143926
0.145691
0.147394
0.14903
0.150597
0.152091
0.15351
0.154856
0.156128
0.157335
0.158461
0.15944
0.160503
0.129294
0.132084
0.133934
0.135948
0.137935
0.139886
0.141792
0.143639
0.14542
0.147129
0.148761
0.150312
0.151782
0.153169
0.154473
0.155694
0.156842
0.157902
0.158799
0.159755
0.128628
0.131489
0.133405
0.135489
0.13754
0.139544
0.141493
0.143373
0.145176
0.146895
0.148527
0.150069
0.15152
0.152878
0.154144
0.155319
0.156411
0.157408
0.158225
0.159063
0.127944
0.130881
0.132868
0.135027
0.137146
0.13921
0.141207
0.143124
0.144953
0.146687
0.148324
0.149861
0.151298
0.152634
0.153868
0.155002
0.156042
0.15698
0.157723
0.158431
0.127232
0.130254
0.132318
0.134557
0.13675
0.138878
0.140929
0.142888
0.144747
0.146501
0.148147
0.149684
0.151113
0.152432
0.153641
0.15474
0.155736
0.156621
0.157299
0.157866
0.126486
0.129603
0.131749
0.134075
0.136347
0.138544
0.140653
0.142657
0.144551
0.146328
0.147989
0.149531
0.150957
0.152266
0.153457
0.15453
0.155491
0.156335
0.15696
0.157377
0.125695
0.128921
0.131157
0.133576
0.135933
0.138204
0.140374
0.142428
0.144359
0.146164
0.147841
0.149393
0.150821
0.152126
0.153309
0.154368
0.155306
0.156123
0.156715
0.156978
0.124853
0.128203
0.130537
0.133057
0.135504
0.137852
0.140087
0.142193
0.144164
0.145998
0.147696
0.149261
0.150695
0.152004
0.153187
0.154244
0.155175
0.155988
0.156579
0.156692
0.123949
0.127445
0.129885
0.132512
0.135054
0.137484
0.139786
0.141946
0.143959
0.145824
0.147543
0.149122
0.150567
0.151883
0.153076
0.154144
0.155088
0.155929
0.156566
0.15655
0.122977
0.12664
0.129195
0.131937
0.13458
0.137094
0.139466
0.141681
0.143736
0.145631
0.147372
0.148965
0.15042
0.151746
0.152953
0.154044
0.155023
0.155927
0.156682
0.156596
0.12193
0.125785
0.128464
0.131329
0.134077
0.136679
0.139121
0.141392
0.143487
0.145412
0.147171
0.148775
0.150236
0.15157
0.152792
0.153913
0.154945
0.155959
0.156959
0.156956
0.120801
0.124875
0.127689
0.130684
0.133541
0.136234
0.138747
0.141072
0.143206
0.145156
0.146929
0.148537
0.149997
0.151327
0.152554
0.153703
0.154805
0.15602
0.157571
0.158103
0.119591
0.123911
0.126868
0.13
0.132971
0.135754
0.138339
0.140715
0.142885
0.144855
0.146634
0.148237
0.149679
0.150983
0.15218
0.153306
0.154426
0.155824
0.158044
0.15969
0.170616
0.175584
0.179589
0.183411
0.186567
0.189394
0.191831
0.193983
0.195869
0.197529
0.198986
0.200258
0.201361
0.202308
0.203113
0.203783
0.204323
0.204734
0.205015
0.20516
0.169764
0.174323
0.178333
0.182047
0.185166
0.187957
0.190376
0.192514
0.194394
0.196051
0.197505
0.198775
0.199876
0.20082
0.20162
0.202282
0.202814
0.203219
0.203498
0.203648
0.168928
0.173098
0.177094
0.180699
0.183773
0.186525
0.188922
0.191045
0.192916
0.19457
0.196022
0.197291
0.198391
0.199331
0.200127
0.200783
0.20131
0.20171
0.201986
0.202143
0.168107
0.171915
0.175873
0.179369
0.182392
0.185101
0.187472
0.189578
0.19144
0.19309
0.194539
0.195808
0.196906
0.197845
0.198638
0.19929
0.199812
0.200211
0.200484
0.200648
0.167297
0.170774
0.174672
0.17806
0.181025
0.183686
0.186028
0.188116
0.189967
0.191611
0.193059
0.194326
0.195424
0.196362
0.197152
0.197801
0.198321
0.198717
0.19899
0.199159
0.166491
0.169679
0.173492
0.176774
0.179674
0.182285
0.184594
0.186661
0.1885
0.190137
0.191583
0.19285
0.193948
0.194885
0.195673
0.196321
0.196837
0.197233
0.197505
0.197679
0.165683
0.168632
0.172334
0.175513
0.17834
0.180897
0.183171
0.185215
0.18704
0.18867
0.190113
0.191379
0.192477
0.193414
0.194201
0.194847
0.195362
0.195757
0.196028
0.196207
0.164863
0.167632
0.171197
0.174276
0.177025
0.179526
0.181761
0.183779
0.185589
0.187211
0.18865
0.189915
0.191013
0.19195
0.192736
0.193382
0.193895
0.194289
0.19456
0.194743
0.16402
0.166682
0.170083
0.173066
0.17573
0.178171
0.180366
0.182356
0.18415
0.185761
0.187197
0.18846
0.189558
0.190495
0.19128
0.191925
0.192437
0.19283
0.193101
0.193287
0.163144
0.165779
0.168989
0.171881
0.174456
0.176835
0.178985
0.180947
0.182722
0.184323
0.185753
0.187015
0.188111
0.189048
0.189834
0.190478
0.190989
0.191381
0.19165
0.191838
0.162224
0.164921
0.167916
0.17072
0.173202
0.175517
0.177622
0.179552
0.181308
0.182898
0.184321
0.18558
0.186676
0.187612
0.188397
0.18904
0.18955
0.189941
0.190209
0.190397
0.161249
0.164101
0.166862
0.169581
0.171969
0.174218
0.176276
0.178174
0.179908
0.181485
0.182901
0.184156
0.185251
0.186187
0.186971
0.187613
0.188121
0.18851
0.188776
0.188964
0.160213
0.163311
0.165826
0.168462
0.170755
0.172937
0.174947
0.176811
0.178524
0.180087
0.181495
0.182745
0.183837
0.184772
0.185555
0.186196
0.186702
0.187089
0.187353
0.187538
0.159113
0.162537
0.164805
0.167358
0.169558
0.171674
0.173635
0.175466
0.177155
0.178703
0.180101
0.181346
0.182435
0.183369
0.184151
0.18479
0.185294
0.185677
0.185938
0.18612
0.157957
0.161763
0.163798
0.166266
0.168378
0.170427
0.17234
0.174137
0.175803
0.177334
0.178722
0.179961
0.181046
0.181978
0.182757
0.183394
0.183895
0.184275
0.184531
0.184708
0.156776
0.160983
0.162813
0.165191
0.167219
0.169201
0.171067
0.172828
0.174469
0.175983
0.17736
0.178591
0.179672
0.1806
0.181376
0.18201
0.182507
0.182882
0.183133
0.183303
0.155601
0.160172
0.161841
0.164127
0.166077
0.167993
0.169812
0.171537
0.173153
0.174648
0.176012
0.177235
0.17831
0.179234
0.180007
0.180636
0.181129
0.181498
0.181744
0.181904
0.154344
0.159159
0.160767
0.162981
0.164878
0.166743
0.168526
0.170225
0.171822
0.173303
0.174658
0.175876
0.176947
0.177869
0.178641
0.179268
0.179757
0.18012
0.18036
0.18051
0.153096
0.157844
0.159489
0.161659
0.163543
0.165388
0.167163
0.168857
0.170451
0.171932
0.173287
0.174506
0.17558
0.176504
0.177277
0.177904
0.17839
0.17875
0.178984
0.179122
0.153903
0.157597
0.158978
0.160938
0.16271
0.164457
0.166162
0.167803
0.169356
0.170802
0.172126
0.173316
0.174363
0.17526
0.176007
0.176609
0.177072
0.177409
0.177624
0.177744
0.165595
0.163785
0.163126
0.163789
0.164558
0.165396
0.166342
0.167366
0.168424
0.16947
0.170466
0.171377
0.172177
0.172852
0.173397
0.173817
0.174123
0.174333
0.174461
0.174524
0.159962
0.158691
0.158419
0.159327
0.1602
0.161031
0.161921
0.162863
0.163824
0.164769
0.165667
0.166492
0.167221
0.167841
0.168347
0.168742
0.169034
0.169237
0.169363
0.169424
0.15324
0.152803
0.153027
0.154233
0.155297
0.156231
0.157165
0.158106
0.159035
0.159931
0.160772
0.161539
0.162219
0.162799
0.163278
0.163656
0.163941
0.164142
0.164269
0.16433
0.146167
0.146704
0.147436
0.148949
0.150245
0.151331
0.152347
0.153323
0.15425
0.155118
0.155918
0.156638
0.157268
0.157804
0.158244
0.158592
0.158855
0.159041
0.159158
0.159215
0.137866
0.13941
0.140802
0.14276
0.144425
0.145792
0.147008
0.148118
0.149127
0.150039
0.150853
0.151567
0.152181
0.152696
0.153115
0.153444
0.153691
0.153866
0.153977
0.154031
0.128557
0.131053
0.133179
0.135661
0.137784
0.139534
0.141051
0.142388
0.143563
0.14459
0.145478
0.146236
0.146873
0.147397
0.147818
0.148145
0.14839
0.148563
0.148673
0.148726
0.118632
0.121978
0.12483
0.127847
0.130459
0.132643
0.134522
0.136151
0.137555
0.138753
0.139766
0.140611
0.141305
0.141865
0.142309
0.14265
0.142904
0.143082
0.143195
0.14325
0.10834
0.112406
0.115925
0.119448
0.122541
0.125174
0.127446
0.129408
0.131084
0.132499
0.133678
0.134645
0.135427
0.136049
0.136533
0.136902
0.137174
0.137364
0.137484
0.137542
0.0978533
0.10249
0.106581
0.110556
0.114095
0.117166
0.119837
0.12215
0.124125
0.125787
0.127163
0.128283
0.129179
0.129883
0.130427
0.130836
0.131136
0.131344
0.131474
0.131537
0.0873009
0.0923525
0.0969016
0.101253
0.105184
0.108656
0.111709
0.11437
0.116653
0.118579
0.120172
0.121466
0.122497
0.123301
0.123918
0.124379
0.124714
0.124945
0.12509
0.12516
0.0767834
0.0820982
0.0869799
0.0916194
0.0958693
0.0996851
0.103082
0.106067
0.108648
0.110837
0.112655
0.114134
0.115312
0.11623
0.11693
0.117451
0.117828
0.118087
0.118249
0.118326
0.0663688
0.071809
0.0768961
0.0817256
0.0862075
0.0902939
0.0939749
0.097243
0.100093
0.102528
0.104564
0.106227
0.107555
0.10859
0.109379
0.109966
0.110388
0.110677
0.110857
0.110942
0.0561333
0.061563
0.0667275
0.0716408
0.0762563
0.0805238
0.0844131
0.0879015
0.0909723
0.0936191
0.0958484
0.097681
0.0991503
0.100299
0.101176
0.101826
0.102294
0.102613
0.102811
0.102905
0.0461006
0.051418
0.0565397
0.0614285
0.0660711
0.0704174
0.0744223
0.0780506
0.0812753
0.0840797
0.0864611
0.0884322
0.0900213
0.0912688
0.092222
0.0929297
0.0934372
0.0937831
0.0939972
0.094099
0.036409
0.0414681
0.0464177
0.0511622
0.0557126
0.0600209
0.0640317
0.0677005
0.0709916
0.073879
0.0763505
0.0784105
0.0800805
0.0813967
0.0824044
0.0831528
0.0836887
0.0840532
0.0842786
0.0843864
0.0269546
0.0317338
0.0364059
0.0408959
0.045233
0.0493764
0.0532686
0.0568607
0.0601112
0.0629872
0.0654682
0.0675505
0.0692484
0.0705923
0.0716241
0.072391
0.07294
0.073313
0.0735433
0.0736517
0.0182597
0.0224268
0.0266464
0.0307288
0.034706
0.0385396
0.0421689
0.0455418
0.048614
0.0513487
0.0537205
0.0557199
0.0573551
0.0586511
0.0596455
0.0603829
0.0609086
0.0612642
0.0614854
0.0615993
0.00947228
0.0134019
0.017114
0.0206663
0.0241339
0.0275046
0.0307255
0.0337452
0.0365191
0.0390077
0.0411816
0.0430259
0.044543
0.0457516
0.0466833
0.047377
0.0478729
0.0482079
0.0484141
0.0485022
0.00259795
0.00509624
0.00820429
0.011091
0.0138742
0.0165534
0.0190805
0.0214175
0.0235378
0.0254197
0.0270478
0.028416
0.0295298
0.0304062
0.0310718
0.0315589
0.0319006
0.0321251
0.0322683
0.03243
-0.0103096
-0.00599518
-0.00307965
-0.000392228
0.00217558
0.00460645
0.00688028
0.0089761
0.010867
0.0125291
0.0139499
0.01513
0.0160821
0.0168285
0.0173968
0.0178165
0.0181151
0.0183116
0.0183946
0.0182996
0.153873
0.148882
0.143878
0.137332
0.129657
0.121073
0.1119
0.102321
0.0924907
0.0825232
0.07253
0.0625698
0.0527706
0.0430677
0.0338404
0.024435
0.0167086
0.00660811
0.00489908
-0.0167666
0.154119
0.147805
0.142898
0.13597
0.12801
0.119197
0.109856
0.100169
0.0902887
0.0803253
0.0703856
0.0605162
0.0508496
0.0412834
0.0322678
0.0229522
0.0156821
0.00518618
0.00538804
-0.0192258
0.154632
0.146867
0.14184
0.134455
0.1262
0.117152
0.107646
0.0978519
0.0879245
0.077967
0.0680807
0.0583051
0.0487701
0.039353
0.0305382
0.0213629
0.0144735
0.00382224
0.00527331
-0.0211175
0.154358
0.145415
0.140349
0.132604
0.124152
0.114956
0.105358
0.0955208
0.0855944
0.0756787
0.0658694
0.0562017
0.0468027
0.0375358
0.0289078
0.0198758
0.0133082
0.00256489
0.00502871
-0.0228446
0.153704
0.143763
0.138676
0.130623
0.122011
0.1127
0.103041
0.0931862
0.0832834
0.0734282
0.0637102
0.0541611
0.044904
0.0357921
0.0273458
0.0184633
0.0121791
0.00138117
0.00473106
-0.0245213
0.152794
0.142036
0.136896
0.128567
0.119816
0.110408
0.100703
0.0908473
0.0809816
0.0711986
0.0615818
0.0521592
0.043049
0.0340975
0.0258293
0.0171058
0.01107
0.000260491
0.00436489
-0.0261594
0.151604
0.140231
0.134999
0.126436
0.117569
0.108085
0.0983534
0.088512
0.0786972
0.0689975
0.0594909
0.0502015
0.0412422
0.0324556
0.0243616
0.0158064
0.00998488
-0.000794392
0.00393189
-0.0277808
0.150134
0.138352
0.13299
0.12424
0.115279
0.105742
0.0960011
0.0861902
0.0764393
0.0668333
0.0574452
0.048295
0.0394901
0.0308722
0.0229491
0.0145707
0.00893188
-0.00177794
0.00344267
-0.0294166
0.148403
0.136417
0.130886
0.121993
0.112958
0.103389
0.0936567
0.0838906
0.0742155
0.0647125
0.0554499
0.0464442
0.0377968
0.0293512
0.0215964
0.0134033
0.00791926
-0.00268227
0.00290888
-0.0310888
0.146437
0.134438
0.128705
0.119711
0.11062
0.101039
0.09133
0.0816215
0.0720326
0.0626406
0.0535097
0.0446532
0.0361659
0.0278958
0.0203077
0.0123089
0.00695588
-0.00349548
0.00233748
-0.0328372
0.144266
0.132427
0.126468
0.117409
0.108278
0.0987011
0.0890305
0.0793911
0.0698975
0.0606234
0.0516292
0.0429258
0.0346008
0.0265092
0.0190877
0.0112927
0.00605246
-0.00419847
0.00170651
-0.0348815
0.141928
0.130394
0.124193
0.115102
0.105945
0.0963882
0.0867678
0.0772073
0.0678166
0.0586661
0.0498128
0.0412657
0.033105
0.0251946
0.0179407
0.01036
0.00522299
-0.00475684
0.000966669
-0.0376583
0.139466
0.128349
0.121902
0.112804
0.103636
0.094111
0.0845511
0.0750775
0.0657959
0.0567738
0.0480645
0.0396761
0.0316815
0.0239546
0.0168706
0.00951566
0.00448401
-0.00511935
0.000204797
-0.0403109
0.136928
0.126304
0.119616
0.110529
0.101362
0.0918802
0.0823892
0.073009
0.0638413
0.054951
0.0463879
0.0381599
0.0303326
0.0227911
0.01588
0.00876246
0.00384801
-0.00525044
-0.000204478
-0.0376427
0.134364
0.124268
0.117355
0.108293
0.0991377
0.0897063
0.0802906
0.0710084
0.061958
0.0532018
0.0447864
0.0367195
0.0290605
0.0217055
0.0149704
0.00809999
0.00331686
-0.00516617
-0.00033892
-0.0300189
0.131825
0.122256
0.115139
0.10611
0.0969745
0.0875991
0.0782632
0.069082
0.0601509
0.05153
0.0432629
0.0353571
0.0278665
0.0206985
0.0141418
0.00752468
0.00288194
-0.00492713
-0.000609714
-0.0234397
0.129361
0.120282
0.112988
0.103993
0.0948842
0.0855679
0.0763143
0.0672356
0.0584246
0.0499391
0.04182
0.0340744
0.0267518
0.0197702
0.0133932
0.00703127
0.00253196
-0.00459988
-0.000994593
-0.0185229
0.127018
0.11836
0.11092
0.101956
0.0928779
0.0836215
0.0744509
0.0654746
0.0567832
0.048432
0.0404598
0.0328729
0.0257168
0.01892
0.0127226
0.00661417
0.00226168
-0.00419719
-0.00128864
-0.014764
0.124839
0.116509
0.108952
0.100012
0.0909655
0.0817679
0.0726792
0.0638036
0.0552302
0.0470116
0.0391842
0.0317539
0.024762
0.0181471
0.0121276
0.00626789
0.00206641
-0.00378019
-0.00147687
-0.0117748
0.12286
0.114745
0.107098
0.0981716
0.0891563
0.0800143
0.0710046
0.0622271
0.0537692
0.0456803
0.037995
0.0307181
0.0238871
0.0174503
0.0116057
0.00598639
0.00191462
-0.00334706
-0.00158542
-0.00937828
0.12111
0.113086
0.105374
0.0964469
0.0874587
0.078367
0.0694322
0.0607488
0.052403
0.0444403
0.0368935
0.0297662
0.023092
0.0168285
0.0111545
0.00576566
0.00182561
-0.00292673
-0.00163082
-0.0074584
0.119613
0.111552
0.103792
0.0948469
0.0858788
0.0768304
0.0679649
0.0593709
0.0511329
0.0432922
0.0358796
0.0288972
0.0223751
0.016279
0.0107706
0.00560038
0.00179056
-0.00251817
-0.00162057
-0.00591761
0.118385
0.110161
0.102361
0.0933801
0.0844228
0.0754091
0.0666064
0.0580963
0.0499609
0.0422373
0.0349539
0.0281111
0.0217356
0.0158003
0.0104511
0.0054868
0.00180192
-0.00211956
-0.00156152
-0.00467662
0.117437
0.108928
0.101091
0.0920535
0.0830952
0.0741065
0.0653592
0.0569271
0.0488885
0.0412766
0.0341168
0.0274075
0.0211724
0.0153905
0.0101938
0.00542141
0.00185514
-0.00173087
-0.00146149
-0.00367352
0.116773
0.10787
0.0999884
0.0908724
0.0818991
0.0729253
0.0642254
0.0558648
0.0479168
0.0404105
0.0333681
0.0267855
0.0206842
0.0150475
0.00999566
0.00540115
0.00194642
-0.00135189
-0.00132812
-0.00286005
0.116393
0.107001
0.0990568
0.0898405
0.0808367
0.0718669
0.0632064
0.0549104
0.0470464
0.0396389
0.0327073
0.0262442
0.0202694
0.0147692
0.00985399
0.00542313
0.00207208
-0.000981921
-0.00116826
-0.00219826
0.116292
0.106333
0.0982985
0.08896
0.0799087
0.0709322
0.062303
0.0540646
0.0462774
0.0389607
0.0321341
0.0257824
0.0199262
0.0145538
0.00976604
0.00548463
0.00222861
-0.000620162
-0.000987946
-0.00165827
0.11646
0.105877
0.0977128
0.0882313
0.0791152
0.0701216
0.0615157
0.0533275
0.0456092
0.0383746
0.0316489
0.0253984
0.0196526
0.0143989
0.00972906
0.00558307
0.00241276
-0.000265891
-0.000792299
-0.00121643
0.116886
0.105641
0.0972969
0.0876532
0.0784554
0.0694351
0.0608443
0.0526986
0.045041
0.0378875
0.0312421
0.0250902
0.0194466
0.0143022
0.00974034
0.00571599
0.00262153
8.15177e-05
-0.000585597
-0.000854004
0.117553
0.105632
0.0970454
0.0872232
0.0779285
0.0688729
0.0602889
0.0521777
0.0445747
0.0374878
0.0309195
0.0248559
0.0193059
0.0142613
0.00979714
0.00588101
0.00285219
0.000422622
-0.000371303
-0.000556085
0.118443
0.10585
0.0969514
0.0869386
0.0775335
0.0684358
0.0598498
0.0517648
0.0442058
0.0371776
0.0306785
0.0246934
0.0192279
0.0142734
0.0098968
0.00607579
0.00310223
0.000757924
-0.000152159
-0.000310739
0.119534
0.106293
0.0970087
0.0867971
0.0772706
0.0681248
0.0595263
0.0514575
0.0439336
0.036955
0.0305161
0.0246002
0.0192102
0.014336
0.0100367
0.00629805
0.00336938
0.00108789
6.97042e-05
-0.000108369
0.120794
0.106951
0.0972139
0.0867981
0.0771425
0.0679375
0.0593176
0.0512544
0.0437559
0.0368174
0.0304295
0.0245738
0.01925
0.0144463
0.0102144
0.0065456
0.00365162
0.001413
0.000292694
5.88229e-05
0.122168
0.107851
0.0975526
0.0869435
0.0771515
0.0678772
0.0592235
0.0511542
0.0436707
0.0367627
0.0304166
0.024612
0.019345
0.014602
0.0104275
0.0068165
0.00394729
0.00173376
0.000515708
0.000197248
0.123614
0.10896
0.0980463
0.0872402
0.0773042
0.0679476
0.0592456
0.0511576
0.0436782
0.0367903
0.0304764
0.0247136
0.0194934
0.0148015
0.0106744
0.00710921
0.00425513
0.00205083
0.000738096
0.000312265
0.125068
0.110246
0.0986895
0.0876822
0.0775952
0.0681423
0.0593781
0.0512595
0.0437736
0.0368961
0.0306051
0.024875
0.0196923
0.0150419
0.0109525
0.00742186
0.00457381
0.0023647
0.000959458
0.000408433
0.126421
0.111671
0.0994645
0.088235
0.0779834
0.0684185
0.0595804
0.0514235
0.0439254
0.0370534
0.0307812
0.0250788
0.0199282
0.015313
0.0112543
0.00774932
0.00490016
0.00267481
0.00117916
0.000489747
0.127601
0.113356
0.100484
0.0889412
0.0784707
0.0687574
0.0598232
0.0516172
0.0441019
0.0372342
0.0309803
0.025305
0.0201853
0.0156025
0.0115704
0.00808544
0.00523052
0.00298039
0.00139688
0.000559921
0.128601
0.115621
0.102156
0.090168
0.079386
0.0694547
0.0603677
0.0520652
0.0444917
0.0375927
0.0313252
0.0256485
0.0205347
0.0159618
0.0119364
0.00845394
0.00557956
0.00329066
0.00161781
0.000622342
0.128879
0.117752
0.104326
0.0920945
0.0811101
0.0710073
0.0617548
0.0532997
0.0455858
0.0385597
0.0321784
0.0264031
0.0212052
0.0165622
0.0124748
0.00893784
0.00599776
0.00363311
0.00185556
0.000678593
0.126452
0.119216
0.107924
0.0962029
0.0854327
0.0753902
0.066021
0.0573303
0.0493061
0.0419296
0.0351831
0.0290492
0.0235124
0.01856
0.0141868
0.0103895
0.0071757
0.0045315
0.00244587
0.000810207
0.120171
0.116764
0.104321
0.0924204
0.0818673
0.0722113
0.0633266
0.0551714
0.0476923
0.0408403
0.0345761
0.0288693
0.0236966
0.0190401
0.0148867
0.0112246
0.00804078
0.0053115
0.00300062
0.000989178
0.118809
0.112244
0.101217
0.0899277
0.0797903
0.0705403
0.0620598
0.0542962
0.0471877
0.0406768
0.0347165
0.02927
0.0243088
0.0198103
0.015755
0.012123
0.00889056
0.00602526
0.00347948
0.00114973
0.117064
0.109337
0.0989032
0.0882603
0.0786143
0.06979
0.0616919
0.0542649
0.0474471
0.0411815
0.0354208
0.0301276
0.0252723
0.0208302
0.0167791
0.0130953
0.00975058
0.00670863
0.0039194
0.00129566
0.115576
0.107459
0.0973133
0.0872207
0.0780202
0.0695676
0.0617897
0.0546325
0.0480376
0.0419512
0.0363277
0.0311301
0.026328
0.0218956
0.0178088
0.0140418
0.0105644
0.0073395
0.00431864
0.00142862
0.114728
0.10645
0.0965251
0.0868893
0.0780515
0.0698916
0.0623531
0.0553862
0.048938
0.0429595
0.0374083
0.0322485
0.0274498
0.0229855
0.0188301
0.0149565
0.0113336
0.00792474
0.00468455
0.00155101
0.114638
0.10626
0.0965154
0.0872342
0.0786635
0.070711
0.0633318
0.0564801
0.0501092
0.0441753
0.0386394
0.0334673
0.028629
0.0240974
0.0198461
0.0158469
0.0120685
0.00847544
0.00502553
0.00166526
0.115306
0.106825
0.0972083
0.0881735
0.0797728
0.071944
0.0646485
0.057845
0.0514921
0.0455504
0.0399837
0.0347594
0.0298481
0.0252222
0.0208544
0.016716
0.0127757
0.00899938
0.00534762
0.00177325
0.11667
0.108056
0.0985072
0.0896156
0.0812961
0.0735151
0.0662366
0.0594237
0.0530389
0.0470462
0.0414116
0.0361038
0.0310936
0.0263529
0.0218535
0.0175663
0.0134602
0.00950218
0.0056551
0.00187635
0.118637
0.10985
0.100309
0.0914695
0.0831553
0.0753572
0.0680398
0.0611696
0.054712
0.0486335
0.0429015
0.0374856
0.0323562
0.0274849
0.0228425
0.0183997
0.0141256
0.00998776
0.0059508
0.00197548
0.121095
0.112098
0.102511
0.093648
0.0852774
0.0774095
0.0700076
0.0630415
0.0564786
0.0502866
0.0444342
0.0388909
0.0336269
0.028613
0.0238195
0.0192166
0.0147734
0.010458
0.0062362
0.00207111
0.123929
0.114687
0.105012
0.0960662
0.0875917
0.0796126
0.072091
0.0649993
0.0583058
0.0519795
0.0459891
0.040304
0.0348941
0.0297293
0.0247795
0.0200142
0.0154024
0.0109126
0.00651137
0.00216331
0.127011
0.117502
0.107708
0.0986365
0.0900241
0.081904
0.0742373
0.0669985
0.0601567
0.0536813
0.0475409
0.0417048
0.036142
0.0308218
0.0257136
0.0207862
0.0160086
0.0113492
0.00677505
0.00225167
0.130208
0.12042
0.11049
0.101264
0.0924926
0.0842126
0.0763853
0.0689868
0.0619865
0.0553539
0.0490577
0.0430663
0.0373486
0.031873
0.0266081
0.0215224
0.0165845
0.0117628
0.00702458
0.00233532
0.133373
0.123308
0.113238
0.103843
0.0949041
0.0864569
0.0784636
0.0709017
0.0637408
0.0569504
0.050499
0.0443547
0.0384856
0.0328596
0.0274445
0.0222085
0.0171198
0.0121466
0.00725588
0.00241289
0.136349
0.126024
0.115821
0.106257
0.0971552
0.0885446
0.0803905
0.0726711
0.0653562
0.0584156
0.0518173
0.0455293
0.0395188
0.0337533
0.0282
0.0228267
0.0176012
0.0124914
0.00746355
0.00248257
0.138977
0.128425
0.118104
0.108386
0.0991362
0.0903774
0.0820781
0.0742169
0.066764
0.0596892
0.0529604
0.0465451
0.0404102
0.0345225
0.028849
0.023357
0.0180137
0.0127864
0.00764119
0.00254217
0.141107
0.130372
0.119958
0.110111
0.100739
0.0918581
0.0834394
0.0754615
0.0678954
0.0607109
0.0538758
0.0473571
0.0411214
0.0351353
0.0293655
0.0237784
0.0183412
0.0130205
0.00778205
0.00258945
0.14261
0.131747
0.121268
0.111328
0.101869
0.0929009
0.084397
0.0763361
0.0686896
0.0614272
0.0545166
0.0479248
0.0416182
0.035563
0.0297255
0.024072
0.0185691
0.0131833
0.00787993
0.00262227
0.143389
0.132454
0.121943
0.111954
0.102452
0.0934377
0.0848897
0.0767858
0.0690976
0.0617949
0.0548454
0.0482159
0.0418727
0.035782
0.0299098
0.0242222
0.0186856
0.0132665
0.00792982
0.00263883
0.150322
0.146002
0.143163
0.139377
0.135873
0.133004
0.131033
0.130044
0.130012
0.130833
0.132362
0.134432
0.13687
0.139506
0.14217
0.144703
0.146951
0.148781
0.150075
0.150765
0.154422
0.150687
0.147481
0.143393
0.139746
0.136783
0.134745
0.133699
0.133615
0.134385
0.135863
0.137884
0.140272
0.142855
0.145466
0.147947
0.150149
0.151944
0.153218
0.153917
0.156439
0.152198
0.148388
0.144101
0.140542
0.13781
0.136075
0.135339
0.135542
0.136558
0.13824
0.140425
0.142946
0.145638
0.14834
0.150896
0.15316
0.155008
0.156321
0.157057
0.15907
0.154177
0.14995
0.145412
0.141829
0.13921
0.137665
0.137147
0.137564
0.138775
0.140626
0.142955
0.145599
0.148398
0.151193
0.153831
0.156166
0.158074
0.159431
0.160206
0.161964
0.156941
0.152164
0.147411
0.143767
0.141197
0.139765
0.139383
0.139938
0.14128
0.143246
0.145676
0.148408
0.151283
0.154146
0.156845
0.159232
0.161184
0.162575
0.163379
0.16481
0.159659
0.15449
0.149589
0.145902
0.143379
0.142047
0.141786
0.142463
0.143917
0.145984
0.148501
0.151309
0.15425
0.15717
0.159917
0.162345
0.164332
0.165747
0.166576
0.167647
0.162297
0.156843
0.151851
0.148132
0.145655
0.144415
0.144267
0.145058
0.14662
0.148782
0.151382
0.154262
0.157265
0.160236
0.163027
0.165492
0.167509
0.168945
0.169793
0.17051
0.164938
0.159265
0.154225
0.150489
0.148052
0.14689
0.146839
0.147732
0.149391
0.15164
0.154317
0.157263
0.160323
0.163343
0.166173
0.16867
0.170712
0.172165
0.173029
0.173399
0.1676
0.161766
0.156712
0.152974
0.150577
0.149482
0.149514
0.150494
0.152237
0.154565
0.15731
0.160316
0.163427
0.166489
0.169354
0.171878
0.173942
0.175408
0.176283
0.17631
0.170291
0.164336
0.159294
0.155571
0.153217
0.15218
0.152284
0.15334
0.155157
0.157553
0.160359
0.163417
0.166574
0.169674
0.172569
0.175115
0.177195
0.178673
0.179553
0.179248
0.173017
0.166975
0.161959
0.158266
0.155958
0.154976
0.155142
0.156263
0.158143
0.160599
0.16346
0.166565
0.169761
0.172894
0.175814
0.178379
0.180472
0.181956
0.182839
0.182222
0.175786
0.169682
0.164702
0.161048
0.158791
0.157859
0.15808
0.159257
0.161192
0.1637
0.166608
0.169755
0.172985
0.176145
0.179087
0.181667
0.183769
0.185257
0.186138
0.185221
0.178602
0.172454
0.167518
0.163911
0.161706
0.160821
0.16109
0.162316
0.164298
0.166851
0.1698
0.172982
0.176242
0.179426
0.182385
0.184976
0.187083
0.188573
0.189448
0.188165
0.181459
0.175288
0.170402
0.166847
0.164696
0.163854
0.164166
0.165433
0.167455
0.170045
0.17303
0.176243
0.179528
0.182731
0.185704
0.188304
0.190414
0.191902
0.192768
0.19119
0.184357
0.17818
0.173349
0.169847
0.16775
0.166951
0.167299
0.168601
0.170658
0.173279
0.176293
0.179532
0.182838
0.186057
0.189041
0.191646
0.193756
0.195241
0.196096
0.194189
0.187286
0.181122
0.176351
0.172905
0.170861
0.170101
0.170483
0.171814
0.173899
0.176546
0.179584
0.182844
0.186168
0.1894
0.192391
0.195
0.197108
0.198588
0.199428
0.197154
0.190236
0.184104
0.179402
0.176013
0.17402
0.173298
0.17371
0.175065
0.177171
0.17984
0.182897
0.186174
0.189512
0.192754
0.195751
0.198362
0.200465
0.201939
0.202764
0.200086
0.193199
0.187117
0.18249
0.179162
0.17722
0.176533
0.17697
0.178344
0.180468
0.183153
0.186226
0.189517
0.192866
0.196116
0.199117
0.201726
0.203825
0.205291
0.206098
0.202977
0.196164
0.190148
0.185608
0.182343
0.180451
0.179796
0.180256
0.181646
0.183783
0.186481
0.189565
0.192867
0.196225
0.19948
0.202482
0.20509
0.207183
0.208641
0.209429
0.205812
0.19912
0.193186
0.188743
0.185544
0.183703
0.18308
0.18356
0.184961
0.187108
0.189815
0.192907
0.196218
0.199581
0.20284
0.205844
0.208449
0.210535
0.211985
0.212753
0.208578
0.202053
0.196219
0.191884
0.188757
0.186969
0.186375
0.186872
0.188284
0.190436
0.193149
0.196248
0.199564
0.202932
0.206193
0.209196
0.211798
0.213877
0.215319
0.216066
0.211259
0.204946
0.199229
0.195016
0.191966
0.190232
0.189669
0.190183
0.191602
0.193759
0.196476
0.199578
0.202897
0.206268
0.209531
0.212533
0.215132
0.217204
0.218638
0.219365
0.213844
0.207787
0.202203
0.198125
0.195158
0.193483
0.192952
0.193482
0.194909
0.197068
0.199787
0.202891
0.206212
0.209585
0.212849
0.215851
0.218447
0.220512
0.221939
0.222645
0.216322
0.210561
0.205128
0.201197
0.198321
0.19671
0.196214
0.196761
0.198195
0.200356
0.203075
0.20618
0.209502
0.212876
0.216142
0.219143
0.221736
0.223795
0.225216
0.225903
0.218684
0.213254
0.207989
0.204218
0.201442
0.1999
0.199443
0.200011
0.201451
0.203615
0.206333
0.209438
0.212761
0.216136
0.219403
0.222405
0.224996
0.22705
0.228466
0.229136
0.220922
0.215853
0.210774
0.207174
0.204508
0.203042
0.202629
0.203219
0.204669
0.206835
0.209553
0.212658
0.215982
0.219358
0.222626
0.225629
0.22822
0.23027
0.231683
0.232338
0.223031
0.218345
0.21347
0.210052
0.207506
0.206123
0.20576
0.206377
0.207839
0.210009
0.212727
0.215833
0.219158
0.222536
0.225807
0.228812
0.231404
0.233452
0.234863
0.235505
0.225006
0.220718
0.216065
0.212838
0.210422
0.209131
0.208825
0.209475
0.210952
0.213129
0.215849
0.218956
0.222283
0.225664
0.228938
0.231947
0.234542
0.23659
0.238
0.238633
0.226846
0.222962
0.218549
0.215519
0.213245
0.212054
0.211814
0.212502
0.214
0.216186
0.218911
0.222021
0.22535
0.228736
0.232015
0.235029
0.23763
0.239679
0.241091
0.241717
0.228551
0.225068
0.220911
0.218085
0.215964
0.214883
0.214717
0.21545
0.216973
0.219173
0.221905
0.225019
0.228354
0.231746
0.235031
0.238053
0.240661
0.242714
0.244129
0.244752
0.230122
0.227028
0.223142
0.220525
0.218569
0.217607
0.217524
0.21831
0.219865
0.222082
0.224825
0.227946
0.231287
0.234688
0.237982
0.241013
0.24363
0.24569
0.24711
0.247733
0.23156
0.228836
0.225236
0.222833
0.221052
0.22022
0.220229
0.221075
0.222667
0.224905
0.227663
0.230794
0.234144
0.237556
0.240861
0.243904
0.246533
0.248602
0.250029
0.250656
0.232868
0.230485
0.227187
0.225003
0.22341
0.222715
0.222824
0.223737
0.225371
0.227637
0.230412
0.233557
0.23692
0.240345
0.243665
0.246722
0.249365
0.251446
0.252881
0.253515
0.234043
0.231972
0.22899
0.227033
0.225637
0.225088
0.225303
0.226288
0.227971
0.230268
0.233066
0.236229
0.239608
0.24305
0.246388
0.249462
0.25212
0.254216
0.255662
0.256307
0.235083
0.233296
0.230647
0.228926
0.227736
0.227337
0.227663
0.228725
0.230461
0.232795
0.23562
0.238805
0.242205
0.245667
0.249026
0.252119
0.254795
0.256908
0.258368
0.259026
0.235983
0.234462
0.232167
0.230692
0.229716
0.229469
0.229908
0.231049
0.232843
0.235217
0.238073
0.241284
0.244709
0.248195
0.251576
0.254691
0.257387
0.259519
0.260994
0.261669
0.23673
0.23547
0.233551
0.232332
0.231569
0.231474
0.232026
0.233249
0.235103
0.237522