/*--------------------------------*- C++ -*----------------------------------*\
  =========                 |
  \\      /  F ield         | OpenFOAM: The Open Source CFD Toolbox
   \\    /   O peration     | Website:  https://openfoam.org
    \\  /    A nd           | Version:  7
     \\/     M anipulation  |
\*---------------------------------------------------------------------------*/
FoamFile
{
    version     2.0;
    format      ascii;
    class       volScalarField;
    location    "9";
    object      p;
}
// * * * * * * * * * * * * * * * * * * * * * * * * * * * * * * * * * * * * * //

dimensions      [0 2 -2 0 0 0 0];

internalField   nonuniform List<scalar> 
2000
(
0.121108
0.123613
0.126077
0.130332
0.136373
0.143704
0.151659
0.159624
0.167176
0.174183
0.123132
0.125234
0.127295
0.130926
0.136193
0.142722
0.149945
0.157303
0.16437
0.170998
0.125195
0.126916
0.128669
0.131813
0.136439
0.142255
0.148783
0.155524
0.162069
0.168247
0.127294
0.128658
0.130191
0.132974
0.137087
0.142287
0.148168
0.154294
0.160282
0.165943
0.129409
0.130449
0.13185
0.134393
0.138116
0.142798
0.148086
0.153607
0.159015
0.164093
0.13151
0.132271
0.13363
0.13605
0.139502
0.143762
0.148517
0.153452
0.158259
0.162693
0.133548
0.134093
0.135503
0.137913
0.14121
0.145147
0.14943
0.153799
0.157987
0.161727
0.135455
0.135865
0.137418
0.139927
0.143182
0.146891
0.150768
0.154596
0.158142
0.161147
0.137134
0.137515
0.139296
0.142002
0.145316
0.148892
0.152432
0.155743
0.158605
0.160789
0.138483
0.138954
0.141033
0.144005
0.147458
0.150982
0.154256
0.1571
0.159287
0.160427
0.187432
0.199956
0.207221
0.212862
0.216634
0.220166
0.222194
0.224215
0.225105
0.225761
0.18419
0.196643
0.203812
0.209535
0.213397
0.217036
0.219119
0.221204
0.222113
0.222809
0.18129
0.193472
0.20045
0.206238
0.210191
0.21393
0.21608
0.218229
0.219149
0.21988
0.178768
0.190437
0.197151
0.202975
0.20702
0.210849
0.213084
0.215293
0.216221
0.216979
0.176664
0.187531
0.193927
0.199762
0.203889
0.207795
0.210136
0.212398
0.21333
0.214101
0.174977
0.184724
0.190788
0.19661
0.2008
0.204773
0.207235
0.209546
0.210482
0.211256
0.173706
0.182002
0.18777
0.193542
0.19777
0.201797
0.20439
0.206744
0.207666
0.208407
0.172749
0.179282
0.184864
0.190546
0.194791
0.198856
0.201584
0.203981
0.204902
0.205634
0.172252
0.176664
0.18216
0.187668
0.191917
0.196003
0.198875
0.20129
0.202125
0.202714
0.171413
0.173877
0.179483
0.184813
0.189073
0.193136
0.196129
0.198596
0.199495
0.200158
0.174259
0.16843
0.173525
0.178369
0.182854
0.186957
0.190285
0.192324
0.192136
0.191412
0.156588
0.158339
0.163363
0.168314
0.172248
0.175149
0.177691
0.180207
0.183392
0.187256
0.137212
0.144108
0.150495
0.156534
0.161551
0.165804
0.168684
0.169838
0.170961
0.17228
0.118576
0.128308
0.136203
0.143267
0.148605
0.15253
0.15586
0.158517
0.160271
0.162156
0.100346
0.11128
0.119453
0.126925
0.133858
0.139444
0.142519
0.143886
0.145397
0.147265
0.0811897
0.09254
0.101078
0.108575
0.115356
0.121172
0.125625
0.128157
0.130184
0.131547
0.0619753
0.0727133
0.0814153
0.0893992
0.0963176
0.101348
0.104948
0.107732
0.1099
0.111471
0.0420022
0.0517416
0.0596994
0.0669035
0.0736236
0.0789502
0.0824345
0.0846872
0.0863804
0.0877662
0.0225339
0.0305699
0.0373953
0.0426685
0.0473847
0.0515718
0.0545928
0.0563066
0.0572279
0.0577287
0.00209809
0.0084549
0.0129639
0.015793
0.017988
0.01988
0.0214112
0.0224324
0.0228103
0.022853
0.162514
0.145186
0.125585
0.107319
0.0896878
0.0710722
0.0537663
0.0346868
0.0184378
-0.00196215
0.159724
0.141252
0.120582
0.102243
0.0849163
0.0666725
0.0499214
0.0315013
0.0167719
-0.00343332
0.154939
0.136603
0.115594
0.0973892
0.080453
0.0626767
0.046483
0.0288549
0.0153245
-0.00479705
0.149075
0.13164
0.110791
0.092662
0.0760524
0.0588325
0.0431688
0.0264576
0.0139935
-0.00617945
0.143107
0.126255
0.106056
0.0881187
0.0718017
0.0551854
0.0400837
0.0244069
0.0128744
-0.00731771
0.13732
0.120721
0.101419
0.0837898
0.067716
0.0517092
0.0372028
0.0226291
0.0120159
-0.00714903
0.131766
0.115273
0.0968781
0.0796809
0.0638503
0.0484309
0.0345482
0.021087
0.0114031
-0.00568461
0.126512
0.110125
0.09252
0.0758192
0.0602459
0.0453738
0.0321244
0.0197191
0.0108384
-0.00382258
0.121683
0.105429
0.088441
0.0722371
0.0569402
0.0425728
0.0299507
0.0185108
0.0102668
-0.00198147
0.117374
0.101251
0.0847091
0.0689578
0.0539464
0.0400461
0.028039
0.017493
0.00976568
-0.000425203
0.11361
0.0975558
0.0813176
0.0659674
0.0512466
0.0377863
0.0263836
0.0166776
0.00937964
0.000770511
0.110416
0.0943334
0.0782773
0.0632768
0.0488381
0.0357865
0.0249764
0.0160384
0.00912573
0.00162056
0.107853
0.0916548
0.0756498
0.0609343
0.0467426
0.0340566
0.023818
0.0155586
0.00898482
0.0021791
0.105979
0.0895718
0.0734592
0.0589583
0.0449684
0.0326186
0.0228997
0.0152325
0.0089338
0.00251661
0.104771
0.0879907
0.0716068
0.0572895
0.0435089
0.0314892
0.0222139
0.0150545
0.00895683
0.00270605
0.104007
0.0866748
0.0699418
0.055857
0.0423974
0.0306365
0.0217586
0.0150172
0.00904023
0.00281282
0.103528
0.0857928
0.0687076
0.054836
0.0416499
0.0300875
0.0215234
0.0151052
0.00921456
0.0028885
0.104183
0.0865647
0.0688716
0.0547262
0.0414192
0.029852
0.0214858
0.0152919
0.00944348
0.00296505
0.10703
0.0895432
0.0707109
0.0556871
0.0418318
0.0299141
0.0215889
0.0157863
0.00971613
0.00306355
0.107452
0.089665
0.0704285
0.0556984
0.0423623
0.0303344
0.0218427
0.0161566
0.0100811
0.00318514
0.0982778
0.0791364
0.0612514
0.0504854
0.0429498
0.0336888
0.0246467
0.0172658
0.0104319
0.00344677
0.0871898
0.0702088
0.0531598
0.0401494
0.0319823
0.0266359
0.0217355
0.0163489
0.0101395
0.00353647
0.0850384
0.070362
0.0589398
0.050121
0.041525
0.0328156
0.0248934
0.0176183
0.0104056
0.0033699
0.0879719
0.0727048
0.0602167
0.0499045
0.0406922
0.0326698
0.0252415
0.0179117
0.0105157
0.00327067
0.0953912
0.0796797
0.0654901
0.0542599
0.0438109
0.0349781
0.0268247
0.0189105
0.0111322
0.00373494
0.0997709
0.0833884
0.0684749
0.0563437
0.0457833
0.0370019
0.0282854
0.019769
0.0117244
0.00410017
0.103666
0.0865153
0.0715596
0.0589464
0.0481264
0.0390765
0.0294308
0.0205212
0.0122442
0.00440933
0.106722
0.0893922
0.0747911
0.0621012
0.0507345
0.0405142
0.0303283
0.021347
0.0127235
0.00473985
0.109736
0.0930475
0.078145
0.0645266
0.052547
0.0417323
0.0313655
0.022037
0.013206
0.00488229
0.112708
0.0944802
0.0798682
0.0665252
0.0538098
0.0421442
0.0320042
0.0225654
0.0133084
0.00449417
0.117754
0.115254
0.103608
0.103158
0.106983
0.110802
0.115307
0.119308
0.121661
0.127195
0.123638
0.117915
0.109175
0.109669
0.112832
0.116517
0.121083
0.125597
0.129275
0.134913
0.130276
0.122967
0.112963
0.114439
0.118917
0.123413
0.128186
0.133458
0.139606
0.144886
0.136928
0.128225
0.117855
0.118871
0.124425
0.130071
0.135346
0.141364
0.149201
0.154542
0.143984
0.133854
0.123735
0.124246
0.12995
0.136337
0.142186
0.148834
0.157407
0.163151
0.15149
0.14009
0.130086
0.130551
0.1361
0.142675
0.148931
0.15605
0.164838
0.171049
0.159489
0.14701
0.136877
0.137344
0.142862
0.149421
0.155925
0.163386
0.172249
0.178839
0.167948
0.154586
0.144196
0.144455
0.149932
0.156564
0.163336
0.17111
0.180089
0.186956
0.176767
0.162592
0.152037
0.15193
0.157119
0.163951
0.171137
0.179298
0.1885
0.195589
0.185793
0.170826
0.160325
0.159779
0.164402
0.17148
0.179227
0.187877
0.197439
0.204755
0.19479
0.179589
0.168955
0.16791
0.171823
0.179132
0.187531
0.196726
0.206809
0.214399
0.20366
0.188591
0.177895
0.176223
0.179438
0.186922
0.196014
0.205751
0.216504
0.224423
0.212338
0.197746
0.187139
0.184681
0.187346
0.194869
0.204663
0.214957
0.226465
0.234769
0.220656
0.206867
0.196601
0.193306
0.1956
0.203017
0.21347
0.224385
0.236668
0.245355
0.228459
0.215755
0.20612
0.202123
0.204155
0.211434
0.222431
0.234091
0.247166
0.256192
0.235613
0.224218
0.215497
0.211115
0.212875
0.220157
0.231492
0.244041
0.257958
0.267235
0.242009
0.232102
0.22458
0.22019
0.22162
0.229176
0.240685
0.254235
0.269055
0.278571
0.24756
0.239334
0.233168
0.229164
0.230284
0.238294
0.249908
0.264503
0.280268
0.290123
0.252307
0.245967
0.241004
0.237793
0.238842
0.247451
0.259333
0.274882
0.29162
0.301907
0.256576
0.252218
0.248322
0.246071
0.247127
0.255859
0.268339
0.284705
0.302525
0.313715
0.265618
0.266662
0.266954
0.268187
0.271339
0.279461
0.292357
0.310344
0.329783
0.34208
0.280094
0.28569
0.291236
0.298117
0.307123
0.319234
0.334066
0.353115
0.373037
0.386486
0.294184
0.302173
0.310941
0.321449
0.334244
0.350141
0.367699
0.387714
0.407914
0.421111
0.306245
0.315669
0.326314
0.338785
0.35309
0.369993
0.387949
0.406604
0.42532
0.436369
0.316137
0.326225
0.337798
0.351186
0.365905
0.382414
0.399384
0.415331
0.430776
0.439202
0.323741
0.334241
0.346253
0.35996
0.374625
0.390314
0.406034
0.419576
0.431764
0.437676
0.328997
0.33982
0.352088
0.365898
0.380373
0.395241
0.409821
0.421525
0.431123
0.435823
0.33232
0.343369
0.355867
0.369886
0.38445
0.399048
0.413049
0.423952
0.43192
0.433795
0.332823
0.344425
0.357071
0.371352
0.385888
0.400118
0.41428
0.424516
0.429915
0.435958
0.335599
0.346984
0.36004
0.3745
0.389545
0.405078
0.41981
0.432127
0.439916
0.425886
0.263951
0.275915
0.288968
0.300513
0.310361
0.31785
0.322977
0.326546
0.326905
0.329363
0.265182
0.27651
0.288788
0.299669
0.309006
0.316064
0.320897
0.324319
0.324699
0.326945
0.266912
0.278601
0.290121
0.300098
0.308552
0.314889
0.319227
0.322255
0.322739
0.324618
0.267132
0.279249
0.29045
0.29991
0.307761
0.313579
0.317553
0.320243
0.320845
0.322293
0.266774
0.278972
0.289949
0.299123
0.306601
0.31209
0.315829
0.318281
0.318983
0.320036
0.266361
0.278579
0.289285
0.29819
0.305352
0.310574
0.314129
0.316396
0.317186
0.317917
0.265817
0.278169
0.288641
0.297277
0.304136
0.309113
0.312502
0.314606
0.315479
0.315964
0.265069
0.277631
0.287952
0.296362
0.302952
0.307713
0.310955
0.312916
0.313868
0.314168
0.264155
0.276946
0.287181
0.295416
0.301787
0.306367
0.309485
0.311326
0.312352
0.312511
0.26314
0.276157
0.286353
0.294451
0.300646
0.305081
0.308094
0.309838
0.31092
0.310971
0.262074
0.275297
0.285493
0.293485
0.299544
0.30386
0.306784
0.308449
0.309577
0.309523
0.260931
0.274345
0.284602
0.292523
0.298485
0.30271
0.305561
0.30715
0.308318
0.308156
0.259637
0.273255
0.283667
0.29156
0.297469
0.30163
0.304424
0.305938
0.307133
0.306866
0.258166
0.272023
0.282684
0.290599
0.296494
0.300618
0.303365
0.30481
0.306006
0.305654
0.256519
0.270682
0.28165
0.289642
0.295565
0.299665
0.302383
0.303764
0.304923
0.304521
0.254646
0.269255
0.280552
0.288693
0.294663
0.298779
0.301474
0.302793
0.303863
0.303468
0.252464
0.267845
0.279372
0.287737
0.293802
0.29796
0.300636
0.301891
0.302809
0.302512
0.249991
0.266264
0.278106
0.286769
0.292976
0.2972
0.299866
0.301053
0.301729
0.301654
0.247417
0.264633
0.276803
0.285801
0.292182
0.296498
0.299162
0.300277
0.300642
0.300946
0.243797
0.262545
0.275247
0.284718
0.291366
0.295824
0.298512
0.299553
0.299429
0.300337
0.237299
0.258236
0.271985
0.28242
0.289624
0.2944
0.297165
0.298307
0.297758
0.299291
0.245507
0.261483
0.273155
0.282717
0.289358
0.293711
0.295939
0.296658
0.295779
0.296641
0.251143
0.264747
0.275315
0.283802
0.28986
0.293712
0.29532
0.295468
0.294139
0.29409
0.254369
0.266654
0.276971
0.284811
0.290557
0.294015
0.295089
0.294758
0.293246
0.29305
0.256439
0.26813
0.278256
0.285794
0.291401
0.294506
0.295085
0.294315
0.292687
0.293514
0.258498
0.269538
0.279464
0.286973
0.292484
0.295215
0.295141
0.293917
0.293096
0.297614
0.259744
0.270595
0.280456
0.288001
0.293448
0.295396
0.294008
0.292115
0.293568
0.308322
0.261238
0.271931
0.282082
0.290551
0.295796
0.297152
0.294871
0.292997
0.301804
0.338678
0.261565
0.272177
0.282548
0.291162
0.296282
0.296124
0.292712
0.294848
0.323166
0.403762
0.262389
0.273409
0.285055
0.296347
0.30569
0.310287
0.313508
0.329661
0.390551
0.524942
0.22491
0.234729
0.239938
0.245032
0.247486
0.250935
0.252201
0.254383
0.254712
0.255597
0.221048
0.231053
0.236265
0.241663
0.244162
0.247963
0.249176
0.251538
0.251803
0.252684
0.21856
0.228514
0.233968
0.239073
0.241526
0.245228
0.246374
0.248675
0.248885
0.249704
0.215259
0.225446
0.231196
0.236266
0.238831
0.242365
0.243554
0.245726
0.245962
0.246711
0.211369
0.221873
0.227898
0.233058
0.235861
0.239283
0.240642
0.242681
0.243074
0.243723
0.207299
0.218162
0.224452
0.229712
0.232726
0.23611
0.237631
0.239601
0.240135
0.240736
0.203154
0.214441
0.221011
0.226353
0.22954
0.232917
0.234567
0.236514
0.23715
0.237737
0.198987
0.210719
0.217569
0.222987
0.226339
0.229717
0.231483
0.233421
0.234145
0.234732
0.194901
0.207027
0.214112
0.219606
0.223118
0.226517
0.228389
0.230332
0.23113
0.231729
0.191014
0.203422
0.210657
0.216223
0.219881
0.223328
0.225289
0.227259
0.228115
0.228736
0.139397
0.140083
0.1425
0.145773
0.149396
0.152899
0.155912
0.158211
0.159446
0.157812
0.139772
0.140806
0.143572
0.147133
0.150892
0.154344
0.157078
0.158825
0.159454
0.156636
0.139542
0.141058
0.144152
0.14793
0.151725
0.15501
0.157375
0.158522
0.158584
0.155367
0.138673
0.140806
0.144178
0.148058
0.151735
0.154671
0.156498
0.156954
0.156254
0.153014
0.13716
0.140062
0.14363
0.14748
0.150861
0.153262
0.154396
0.154133
0.152636
0.149543
0.13505
0.138841
0.14253
0.146212
0.149139
0.150876
0.151251
0.150311
0.148178
0.145174
0.132418
0.13716
0.140909
0.144308
0.146679
0.147708
0.14737
0.145848
0.143299
0.140244
0.129323
0.135072
0.138809
0.141853
0.143653
0.14403
0.143105
0.14114
0.138346
0.135164
0.125856
0.132619
0.136291
0.138977
0.140282
0.140145
0.1388
0.136542
0.133611
0.1303
0.122129
0.129852
0.133453
0.135864
0.136825
0.136353
0.13475
0.132321
0.129307
0.125895
0.118271
0.126828
0.130446
0.132749
0.133553
0.132917
0.131181
0.128656
0.125577
0.122077
0.11455
0.12376
0.127562
0.129941
0.130745
0.130061
0.128259
0.125663
0.122505
0.118913
0.111195
0.120838
0.125067
0.127699
0.128611
0.127938
0.126088
0.123412
0.120144
0.116443
0.108459
0.118346
0.123255
0.126267
0.127325
0.126665
0.124746
0.121953
0.118533
0.114699
0.106601
0.116626
0.122396
0.125836
0.127019
0.126327
0.12429
0.121324
0.117698
0.113691
0.10587
0.116027
0.122718
0.12655
0.127787
0.126989
0.124761
0.121554
0.117652
0.113383
0.106511
0.11685
0.124396
0.12851
0.129697
0.1287
0.126196
0.122659
0.118375
0.113678
0.108759
0.119322
0.127552
0.131781
0.132799
0.131515
0.128653
0.124668
0.1198
0.114502
0.11282
0.123578
0.132242
0.136383
0.137114
0.13548
0.13223
0.12772
0.122067
0.116029
0.118842
0.129663
0.138477
0.142274
0.142612
0.140593
0.136979
0.132015
0.125819
0.119369
0.126901
0.137547
0.146238
0.149341
0.149207
0.146771
0.142804
0.13757
0.131418
0.125828
0.137061
0.147155
0.15524
0.15764
0.156803
0.153858
0.149483
0.143957
0.137858
0.132677
0.149149
0.158384
0.165328
0.166822
0.16522
0.161711
0.156917
0.151122
0.144956
0.139764
0.163028
0.170693
0.176311
0.176702
0.174267
0.170152
0.164919
0.158838
0.152521
0.14716
0.178152
0.183822
0.187895
0.187057
0.183748
0.179019
0.173359
0.167005
0.160516
0.15494
0.194018
0.19744
0.19977
0.19764
0.193452
0.188128
0.182082
0.175505
0.168879
0.163098
0.210094
0.211135
0.211619
0.208195
0.203163
0.197299
0.190939
0.184224
0.177539
0.171603
0.225831
0.224479
0.22312
0.218463
0.212665
0.206348
0.199772
0.19303
0.18639
0.180376
0.240692
0.237053
0.23396
0.228192
0.221745
0.215088
0.208415
0.201776
0.195305
0.189307
0.254141
0.248466
0.24385
0.237151
0.230203
0.22334
0.2167
0.210302
0.204138
0.198259
0.265685
0.258388
0.252545
0.245135
0.23786
0.230938
0.224462
0.218434
0.212716
0.207066
0.275196
0.266611
0.259854
0.251981
0.244571
0.237742
0.231556
0.226008
0.220852
0.215557
0.282409
0.272955
0.265644
0.257578
0.250231
0.243648
0.237866
0.232882
0.228378
0.223564
0.287162
0.277308
0.269831
0.26185
0.254765
0.248576
0.243302
0.23895
0.235161
0.230942
0.289396
0.279627
0.272378
0.264764
0.25814
0.252485
0.24781
0.24414
0.241109
0.237574
0.289145
0.279935
0.273304
0.266332
0.260355
0.255365
0.251369
0.248414
0.246162
0.243377
0.28652
0.278313
0.27267
0.266598
0.261445
0.257236
0.253987
0.251767
0.250289
0.24829
0.281706
0.274896
0.270577
0.265645
0.261472
0.258145
0.255699
0.254219
0.253487
0.25228
0.274937
0.269855
0.267158
0.263576
0.260521
0.258166
0.256573
0.255835
0.255788
0.255327
0.266494
0.263394
0.262567
0.260516
0.258695
0.257381
0.256681
0.256661
0.257167
0.257406
0.256668
0.255732
0.256972
0.256601
0.256107
0.25589
0.256119
0.256822
0.2578
0.258982
0.245715
0.247092
0.250547
0.251972
0.252881
0.253801
0.254979
0.25648
0.258179
0.260084
0.234015
0.23773
0.243477
0.246773
0.249134
0.251211
0.253332
0.25562
0.257998
0.260491
0.221904
0.227896
0.235936
0.241137
0.244976
0.248213
0.251257
0.254294
0.257291
0.260203
0.209683
0.217815
0.228084
0.235187
0.240507
0.244898
0.248844
0.2526
0.256193
0.259519
0.19762
0.207684
0.220067
0.229033
0.23582
0.241349
0.246177
0.250626
0.254792
0.258566
0.185951
0.197669
0.212009
0.222765
0.230988
0.237632
0.24332
0.248434
0.25314
0.257357
0.174913
0.187884
0.204018
0.216454
0.226068
0.233797
0.240317
0.246067
0.251278
0.255913
0.164723
0.178436
0.196167
0.210152
0.221103
0.229877
0.237199
0.24356
0.249245
0.254279
0.15541
0.169632
0.188455
0.203901
0.216123
0.225893
0.233985
0.240933
0.24707
0.252491
0.14715
0.161513
0.181021
0.197755
0.211139
0.221849
0.230678
0.238192
0.244763
0.250565
0.13963
0.153969
0.173968
0.19175
0.206174
0.217757
0.227285
0.235339
0.242318
0.248486
0.132955
0.147076
0.167305
0.185904
0.201231
0.213613
0.223794
0.232359
0.23972
0.246221
0.127186
0.140896
0.161039
0.180213
0.196292
0.209395
0.220181
0.229228
0.236951
0.243724
0.122309
0.135447
0.155192
0.174685
0.191362
0.205082
0.216411
0.225919
0.233998
0.240981
0.118283
0.130729
0.149794
0.169342
0.186443
0.200677
0.212484
0.222399
0.230803
0.23804
0.115063
0.126733
0.14487
0.164208
0.181545
0.196176
0.208392
0.218671
0.227373
0.234915
0.112597
0.123439
0.140442
0.159313
0.176687
0.19158
0.204124
0.21472
0.223673
0.231435
0.110826
0.120817
0.136526
0.15469
0.171894
0.1869
0.199663
0.210502
0.21963
0.227507
0.109688
0.11883
0.133135
0.150376
0.167206
0.182168
0.195028
0.206044
0.215342
0.223028
0.109116
0.117429
0.130274
0.146409
0.16267
0.177426
0.190226
0.201207
0.21053
0.217573
0.108998
0.116542
0.127931
0.142824
0.158341
0.172742
0.185373
0.196194
0.205422
0.212778
0.109314
0.116134
0.126099
0.139655
0.154281
0.168208
0.180631
0.191365
0.200622
0.208404
0.110013
0.116151
0.124761
0.136932
0.150552
0.1639
0.17607
0.186746
0.196046
0.20403
0.111033
0.116534
0.123887
0.13467
0.147197
0.15986
0.171684
0.182232
0.191503
0.199542
0.112313
0.117224
0.123439
0.132872
0.144251
0.156124
0.167489
0.177807
0.186965
0.194988
0.113803
0.118166
0.123375
0.131532
0.141739
0.152739
0.16354
0.173532
0.182502
0.190446
0.115455
0.119311
0.123649
0.130632
0.139685
0.149761
0.159914
0.169493
0.178202
0.186001
0.117233
0.120614
0.124212
0.130149
0.138105
0.147239
0.156685
0.165779
0.174158
0.181748
0.119117
0.122048
0.125025
0.130052
0.136999
0.145209
0.153915
0.162465
0.170456
0.177782
)
;

boundaryField
{
    inlet
    {
        type            zeroGradient;
    }
    outlet
    {
        type            fixedValue;
        value           uniform 0;
    }
    cylinder
    {
        type            zeroGradient;
    }
    top
    {
        type            symmetryPlane;
    }
    bottom
    {
        type            symmetryPlane;
    }
    defaultFaces
    {
        type            empty;
    }
}


// ************************************************************************* //
