/*--------------------------------*- C++ -*----------------------------------*\
  =========                 |
  \\      /  F ield         | OpenFOAM: The Open Source CFD Toolbox
   \\    /   O peration     | Website:  https://openfoam.org
    \\  /    A nd           | Version:  7
     \\/     M anipulation  |
\*---------------------------------------------------------------------------*/
FoamFile
{
    version     2.0;
    format      ascii;
    class       volVectorField;
    location    "9";
    object      U;
}
// * * * * * * * * * * * * * * * * * * * * * * * * * * * * * * * * * * * * * //

dimensions      [0 1 -1 0 0 0 0];

internalField   nonuniform List<vector> 
8000
(
(-0.000170221 0.0168442 1.77887e-22)
(0.000509438 0.0455811 2.7488e-24)
(0.00244755 0.0708628 2.33109e-24)
(0.0049591 0.0933734 2.24968e-22)
(0.00787175 0.113627 1.37806e-21)
(0.0110104 0.131999 0)
(0.0142517 0.148769 4.91328e-22)
(0.0175065 0.164145 -4.97092e-22)
(0.0207085 0.178288 5.1324e-22)
(0.023808 0.191319 -5.15666e-22)
(0.0267681 0.203334 2.09978e-21)
(0.0295612 0.214408 0)
(0.0321672 0.224601 0)
(0.0345712 0.233963 0)
(0.0367629 0.242533 0)
(0.0387357 0.250347 0)
(0.0404859 0.257433 0)
(0.0420122 0.263821 -1.09656e-21)
(0.0433143 0.269532 1.08529e-21)
(0.0443969 0.274577 0)
(-0.000790086 0.0164829 0)
(-0.00113665 0.0446061 0)
(-5.35602e-05 0.0694053 3.35906e-21)
(0.00174405 0.0915275 0)
(0.00406118 0.111472 1.82113e-21)
(0.00670386 0.129602 0)
(0.00953415 0.146188 3.88669e-21)
(0.0124513 0.161432 -3.98017e-21)
(0.0153795 0.175489 4.06023e-21)
(0.0182613 0.188477 -4.12782e-21)
(0.0210531 0.200487 4.1918e-21)
(0.0237216 0.21159 -2.10654e-21)
(0.0262415 0.221846 -2.11682e-21)
(0.0285935 0.231299 -2.17065e-21)
(0.0307635 0.239988 4.33001e-21)
(0.0327414 0.247944 -4.34327e-21)
(0.0345213 0.255196 1.30064e-20)
(0.0360981 0.261769 -8.6466e-21)
(0.0374614 0.267682 -4.32109e-21)
(0.0386274 0.272942 -9.8641e-21)
(-0.00138278 0.0160852 0)
(-0.00270945 0.0435354 0)
(-0.00244185 0.0677973 -1.17347e-20)
(-0.00132547 0.0894805 8.74894e-21)
(0.000423527 0.109069 -3.65563e-21)
(0.00259323 0.126914 -7.53236e-21)
(0.00503161 0.143277 -3.88661e-21)
(0.00762673 0.158354 3.98009e-21)
(0.0102937 0.172292 -4.06015e-21)
(0.0129675 0.185206 -4.10106e-21)
(0.0155984 0.197184 -4.18382e-21)
(0.0181474 0.208294 0)
(0.0205845 0.218591 -4.2327e-21)
(0.0228863 0.228119 -4.29208e-21)
(0.0250346 0.236913 4.31106e-21)
(0.027016 0.245002 -4.32284e-21)
(0.0288223 0.252412 -4.32815e-21)
(0.0304448 0.259165 4.32749e-21)
(0.0318629 0.265276 -4.27e-21)
(0.0331022 0.270751 -4.93109e-21)
(-0.001946 0.0156491 6.94698e-22)
(-0.00420292 0.0423729 1.59145e-21)
(-0.00470796 0.0660468 5.03031e-21)
(-0.00423647 0.0872427 -7.005e-21)
(-0.00302475 0.106431 0)
(-0.00130183 0.12395 3.74909e-21)
(0.000766626 0.140052 7.73577e-21)
(0.00305795 0.154925 -3.93735e-21)
(0.00547853 0.168713 0)
(0.00795636 0.181524 1.64331e-20)
(0.0104355 0.193444 0)
(0.0128721 0.204537 0)
(0.0152313 0.214855 1.69659e-20)
(0.0174858 0.224439 -8.57444e-21)
(0.0196135 0.233324 1.71305e-20)
(0.0215978 0.241535 -8.54429e-21)
(0.0234277 0.249095 1.72002e-20)
(0.0250912 0.256022 -8.54742e-21)
(0.026558 0.262329 1.71933e-20)
(0.0278593 0.268019 -9.68673e-21)
(-0.00247801 0.0151806 2.73796e-21)
(-0.00561171 0.0411259 6.26298e-21)
(-0.00684303 0.0641632 -3.31041e-21)
(-0.00697624 0.0848265 -1.73017e-21)
(-0.00626711 0.103572 0)
(-0.00496125 0.120726 -7.48619e-21)
(-0.00323741 0.13653 0)
(-0.00122862 0.151166 -3.97402e-21)
(0.000963228 0.164772 4.00577e-21)
(0.00325942 0.177452 -8.20429e-21)
(0.0055984 0.189287 0)
(0.00793145 0.200338 0)
(0.0102196 0.210656 -8.46809e-21)
(0.0124314 0.22028 -8.54243e-21)
(0.0145412 0.229239 -2.59003e-23)
(0.016529 0.237559 0)
(0.018381 0.24526 -8.57149e-21)
(0.0200818 0.252358 1.71498e-20)
(0.0215913 0.258857 -1.69737e-20)
(0.0229433 0.264763 -9.64242e-21)
(-0.00297709 0.0146849 -4.1402e-21)
(-0.00693041 0.0398035 4.65402e-21)
(-0.00883798 0.0621588 -4.93782e-21)
(-0.00953167 0.0822466 0)
(-0.00928641 0.10051 -3.63601e-21)
(-0.00836396 0.117261 1.11993e-20)
(-0.00695583 0.132733 0)
(-0.00520499 0.1471 -2.36704e-20)
(-0.00322121 0.160494 1.6077e-20)
(-0.0010895 0.173014 -8.12432e-21)
(0.00112339 0.184737 0)
(0.00336428 0.195724 1.67083e-20)
(0.00559023 0.20602 0)
(0.0077661 0.215663 0)
(0.0098627 0.224682 2.5598e-20)
(0.0118564 0.233098 -3.40596e-20)
(0.0137306 0.240931 1.69593e-20)
(0.0154662 0.248192 0)
(0.0170138 0.254883 0)
(0.0184053 0.261005 2.89829e-20)
(-0.00344168 0.0141657 -1.38231e-21)
(-0.00815369 0.0384128 -2.02948e-20)
(-0.0106834 0.0600439 6.62067e-21)
(-0.011889 0.0795166 -1.03768e-20)
(-0.0120646 0.0972601 3.62541e-21)
(-0.0114878 0.113574 -1.85922e-20)
(-0.0103626 0.128682 0)
(-0.00884151 0.14275 7.83319e-21)
(-0.00704182 0.155903 -8.05315e-21)
(-0.00505438 0.168237 -1.62896e-20)
(-0.0029507 0.179824 -8.30346e-21)
(-0.000787983 0.190722 -8.40857e-21)
(0.00138722 0.200975 1.6793e-20)
(0.00353634 0.210619 0)
(0.00562673 0.21968 -1.7023e-20)
(0.00763121 0.228179 3.38445e-20)
(0.00952982 0.236134 0)
(0.0112999 0.243554 -1.68995e-20)
(0.0128831 0.250433 1.68335e-20)
(0.0143043 0.256775 1.92398e-20)
(-0.00387049 0.0136264 1.36178e-21)
(-0.00927636 0.0369612 1.24642e-20)
(-0.0123698 0.0578296 3.30868e-21)
(-0.0140342 0.0766512 1.03893e-20)
(-0.0145829 0.093842 0)
(-0.0143095 0.109689 7.40565e-21)
(-0.0134303 0.124403 7.60483e-21)
(-0.0121069 0.138145 0)
(-0.0104637 0.151032 1.60255e-20)
(-0.00859704 0.163154 1.62895e-20)
(-0.00658259 0.174581 0)
(-0.00448114 0.185368 9.76748e-23)
(-0.00234244 0.195556 -3.35778e-20)
(-0.000208134 0.20518 3.36148e-20)
(0.00188588 0.214266 1.69721e-20)
(0.0039088 0.222834 -5.07771e-20)
(0.00583705 0.2309 5.06851e-20)
(0.00764418 0.238472 9.34057e-23)
(0.0092632 0.245541 -5.04478e-20)
(0.0107066 0.252105 -1.80305e-22)
(-0.00426237 0.0130703 -1.08113e-20)
(-0.0102933 0.0354563 1.23538e-20)
(-0.0138873 0.0555274 0)
(-0.0159522 0.073666 1.37179e-20)
(-0.0168216 0.0902749 0)
(-0.0168049 0.105627 -7.46631e-21)
(-0.0161302 0.119924 1.52747e-20)
(-0.0149683 0.133315 -1.56556e-20)
(-0.0134502 0.145912 1.59763e-20)
(-0.0116771 0.1578 8.15645e-21)
(-0.00972851 0.169046 1.65409e-20)
(-0.00766828 0.179699 -1.6598e-20)
(-0.00554877 0.189802 1.6626e-20)
(-0.00341428 0.199387 -1.68372e-20)
(-0.00130364 0.20848 0)
(0.000748806 0.217102 0)
(0.0027155 0.225268 -4.96315e-23)
(0.00456605 0.232986 0)
(0.00622505 0.240243 1.67624e-20)
(0.00768643 0.247034 -1.9206e-20)
(-0.00461631 0.0125004 1.08114e-20)
(-0.0111994 0.0339051 -2.46512e-20)
(-0.0152255 0.0531487 -1.62959e-20)
(-0.0176278 0.0705771 -3.08909e-20)
(-0.0187602 0.0865795 -7.17364e-21)
(-0.0189483 0.101415 0)
(-0.018432 0.115273 -1.52298e-20)
(-0.017391 0.128294 7.86333e-21)
(-0.0159624 0.140582 -2.38662e-20)
(-0.0142519 0.152218 -4.8744e-20)
(-0.0123423 0.163261 1.63388e-20)
(-0.0102998 0.173762 -1.66722e-20)
(-0.00817896 0.18376 -3.35776e-20)
(-0.006026 0.193286 -6.17269e-23)
(-0.00388225 0.202369 1.6889e-20)
(-0.00178541 0.211028 -1.67664e-20)
(0.000232749 0.219281 -1.68293e-20)
(0.00213765 0.227138 -1.67312e-20)
(0.00384588 0.234584 0)
(0.00532587 0.241607 -1.88923e-20)
(-0.00493126 0.0119191 -7.98443e-21)
(-0.0119891 0.0323146 -2.97441e-21)
(-0.0163737 0.0507053 9.73913e-21)
(-0.0190447 0.067401 1.70558e-20)
(-0.0203771 0.0827777 7.08727e-21)
(-0.020713 0.0970789 7.32517e-21)
(-0.0203043 0.110482 1.52298e-20)
(-0.0193388 0.123118 0)
(-0.0179597 0.135083 -8.22058e-23)
(-0.0162768 0.146451 3.23045e-20)
(-0.0143754 0.157278 0)
(-0.0123238 0.167609 -1.66485e-20)
(-0.0101775 0.177483 1.66283e-20)
(-0.00798442 0.186933 1.6773e-20)
(-0.00578747 0.195985 0)
(-0.00362727 0.204664 -1.67818e-20)
(-0.00153991 0.212991 -3.3633e-20)
(0.000435739 0.220978 -1.3721e-22)
(0.00220867 0.228611 -1.52934e-22)
(0.00371411 0.235874 -2.92295e-22)
(-0.00520604 0.0113287 -1.05741e-20)
(-0.0126566 0.030691 1.22397e-20)
(-0.0173205 0.0482086 0)
(-0.0201858 0.0641549 0)
(-0.0216499 0.0788922 7.15393e-21)
(-0.0220714 0.0926482 1.10836e-22)
(-0.021714 0.105587 -1.51809e-20)
(-0.020774 0.117829 2.34112e-20)
(-0.0193999 0.129462 -1.58021e-20)
(-0.0177051 0.140551 0)
(-0.0157772 0.151149 3.27582e-20)
(-0.0136856 0.161298 3.30833e-20)
(-0.0114866 0.171034 4.99888e-20)
(-0.0092282 0.180389 0)
(-0.00695436 0.189393 0)
(-0.0047077 0.198074 1.67818e-20)
(-0.00252835 0.206457 0)
(-0.00045939 0.214561 1.66892e-20)
(0.00140122 0.222379 -3.31049e-20)
(0.0029468 0.229889 3.76036e-20)
(-0.00543923 0.0107306 1.85876e-20)
(-0.0131957 0.0290404 3.00028e-21)
(-0.0180538 0.0456702 0)
(-0.0210333 0.0608564 0)
(-0.022555 0.0749471 3.54058e-20)
(-0.0229945 0.0881531 2.20588e-20)
(-0.0226274 0.100625 0)
(-0.0216576 0.11247 0)
(-0.0202391 0.123767 1.59806e-20)
(-0.0184884 0.134574 3.24824e-20)
(-0.016495 0.144938 -9.82157e-20)
(-0.0143287 0.154897 -1.66361e-20)
(-0.0120458 0.164483 -3.33134e-20)
(-0.00969377 0.173729 -3.34231e-20)
(-0.00731595 0.182667 3.34844e-20)
(-0.00495583 0.191329 1.21036e-22)
(-0.00265668 0.199747 -6.67048e-20)
(-0.000465183 0.207953 0)
(0.00151482 0.215951 6.6148e-20)
(0.00312494 0.223711 -3.72535e-20)
(-0.00562904 0.0101262 0)
(-0.0135993 0.0273682 3.04727e-21)
(-0.0185606 0.0431015 -3.17692e-21)
(-0.0215684 0.0575235 0)
(-0.0230681 0.0709673 -2.82713e-20)
(-0.0234528 0.0836254 -3.67299e-20)
(-0.0230094 0.095633 7.50343e-21)
(-0.0219497 0.107086 0)
(-0.0204324 0.118051 -3.17043e-20)
(-0.018577 0.12858 -3.22928e-20)
(-0.0164744 0.138711 3.27247e-20)
(-0.0141946 0.148478 -1.65964e-20)
(-0.011793 0.15791 1.65539e-20)
(-0.00931545 0.167037 3.34232e-20)
(-0.0068035 0.175893 -3.34844e-20)
(-0.00429955 0.184514 3.34723e-20)
(-0.00184834 0.192944 3.39706e-23)
(0.000501649 0.201229 -6.65165e-20)
(0.00264268 0.209394 -8.84944e-23)
(0.00435357 0.217406 7.45825e-20)
(-0.00577321 0.00951632 2.65147e-21)
(-0.0138593 0.0256798 -2.96482e-21)
(-0.0188268 0.0405141 2.54526e-20)
(-0.0217715 0.0541746 0)
(-0.0231643 0.0669784 2.80929e-20)
(-0.023416 0.0790986 2.91963e-20)
(-0.0228249 0.0906537 -1.52066e-20)
(-0.0216099 0.101726 1.53853e-20)
(-0.0199344 0.112372 3.17046e-20)
(-0.0179204 0.122634 1.62121e-20)
(-0.0156599 0.132542 -1.62436e-20)
(-0.0132229 0.142123 1.65822e-20)
(-0.0106635 0.151402 1.51336e-22)
(-0.00802523 0.160407 -5.01283e-20)
(-0.00534621 0.169171 6.6868e-20)
(-0.00266554 0.177733 -6.67295e-20)
(-2.66721e-05 0.186146 2.33802e-23)
(0.00252364 0.194478 3.32197e-20)
(0.00487808 0.202787 1.31547e-23)
(0.00674027 0.211043 -3.71278e-20)
(-0.00586896 0.00890151 3.60778e-23)
(-0.013967 0.0239801 -8.97576e-21)
(-0.0188377 0.0379195 -1.91663e-20)
(-0.0216223 0.0508287 -6.76092e-21)
(-0.0228183 0.0630073 6.84897e-21)
(-0.022854 0.074607 -2.91968e-20)
(-0.0220388 0.085729 1.49124e-20)
(-0.0205983 0.0964409 1.53556e-20)
(-0.0186999 0.106788 -1.59208e-20)
(-0.016468 0.116802 1.59963e-20)
(-0.0139955 0.126506 0)
(-0.0113521 0.135919 0)
(-0.00859081 0.145059 1.66774e-20)
(-0.00575223 0.153948 -1.66046e-20)
(-0.00287005 0.162617 0)
(2.21898e-05 0.171106 3.3417e-20)
(0.00288602 0.179473 -8.04023e-23)
(0.00568247 0.18781 -8.98661e-23)
(0.00831368 0.196225 6.59714e-20)
(0.0103954 0.204703 1.11798e-23)
(-0.00591283 0.00828218 2.57772e-21)
(-0.0139125 0.0222741 -5.99548e-21)
(-0.0185776 0.0353297 1.26305e-20)
(-0.0210999 0.0475054 -6.59839e-21)
(-0.0220044 0.0590815 -2.79982e-20)
(-0.0217367 0.0701865 -7.33117e-21)
(-0.0206166 0.0809027 -2.26409e-20)
(-0.0188758 0.0912827 0)
(-0.0166851 0.10136 -1.56645e-20)
(-0.0141705 0.111155 -1.59735e-20)
(-0.0114258 0.120683 -4.89734e-20)
(-0.00852063 0.129955 -1.6859e-22)
(-0.00550659 0.138982 4.98321e-20)
(-0.00242193 0.147777 -3.31781e-20)
(0.000704435 0.156364 -3.33733e-20)
(0.0038461 0.164777 3.34901e-20)
(0.00697331 0.173076 -9.99236e-20)
(0.0100638 0.181368 3.30923e-20)
(0.0130476 0.189824 -3.30394e-20)
(0.0154441 0.198479 -3.70658e-20)
(-0.00590069 0.00765856 0)
(-0.0136848 0.0205668 0)
(-0.01803 0.0327571 6.34741e-21)
(-0.0201833 0.0442252 1.99222e-20)
(-0.0206975 0.0552295 0)
(-0.0200354 0.0658736 -2.89412e-20)
(-0.018526 0.0762194 2.99419e-20)
(-0.016406 0.086304 3.07945e-20)
(-0.0138488 0.0961479 4.7436e-20)
(-0.0109816 0.105762 3.22853e-20)
(-0.00789833 0.115153 1.64011e-20)
(-0.00466819 0.124323 -4.94046e-20)
(-0.00134195 0.133276 8.28842e-20)
(0.00204398 0.142016 1.20829e-22)
(0.00546448 0.150555 3.33734e-20)
(0.00889996 0.158916 0)
(0.0123309 0.167143 2.34647e-23)
(0.015761 0.175343 3.30964e-20)
(0.0191845 0.183752 6.60019e-20)
(0.0220402 0.1925 0)
(-0.00582765 0.00703091 0)
(-0.0132721 0.0188639 2.3326e-20)
(-0.0171777 0.0302148 -6.31288e-21)
(-0.0188513 0.0410092 1.30717e-20)
(-0.0188735 0.0514808 -2.75316e-20)
(-0.0177229 0.0617057 2.17905e-20)
(-0.0157368 0.0717244 -2.99427e-20)
(-0.0131558 0.0815574 -7.37366e-23)
(-0.0101546 0.0912125 0)
(-0.00686023 0.100691 1.60627e-20)
(-0.00336585 0.10999 1.87146e-22)
(0.000260515 0.119107 1.65401e-20)
(0.00396949 0.128038 -6.1469e-23)
(0.00772621 0.136781 -6.43934e-23)
(0.0115077 0.145336 3.34287e-20)
(0.0152977 0.153709 -3.33472e-20)
(0.0190804 0.161918 3.30331e-20)
(0.022879 0.170047 -1.23656e-22)
(0.0267885 0.178389 0)
(0.0302719 0.187155 -4.91622e-22)
(-0.00568891 0.00640051 0)
(-0.0126622 0.017172 -2.33332e-20)
(-0.0160036 0.0277173 0)
(-0.0170836 0.03788 -3.3006e-20)
(-0.0165094 0.0478659 2.75313e-20)
(-0.0147748 0.057721 7.12478e-21)
(-0.0122232 0.0674629 -1.50359e-20)
(-0.00909769 0.0770949 -1.55127e-20)
(-0.00557256 0.0866118 0)
(-0.00177341 0.096005 -1.59309e-20)
(0.00220929 0.105265 -1.61234e-20)
(0.00631074 0.114384 -1.64709e-20)
(0.0104854 0.123352 -4.97835e-20)
(0.0147031 0.132165 -1.82012e-22)
(0.018946 0.14082 3.33454e-20)
(0.0232038 0.149316 -6.63711e-20)
(0.0274657 0.157655 3.33351e-20)
(0.0317548 0.165913 -3.30208e-20)
(0.0362106 0.174409 0)
(0.0404398 0.183237 1.68638e-22)
(0.0464183 0.28451 -1.59826e-21)
(0.0475977 0.298568 5.39822e-22)
(0.0469683 0.308337 -5.63789e-22)
(0.0441464 0.3158 5.75303e-22)
(0.0398034 0.32135 0)
(0.0340685 0.325957 0)
(0.0274289 0.330252 -6.06119e-22)
(0.0202023 0.334783 6.05675e-22)
(0.0127476 0.339928 0)
(0.00537946 0.34594 1.23841e-21)
(-0.0015848 0.352956 -6.20995e-22)
(-0.00782738 0.361007 3.14225e-22)
(-0.0130237 0.370011 3.1335e-22)
(-0.0168547 0.379762 -3.13048e-22)
(-0.0190343 0.389909 -3.16333e-22)
(-0.0193537 0.399958 0)
(-0.0177319 0.409278 -1.59269e-22)
(-0.0142679 0.417163 -4.75591e-22)
(-0.00926284 0.422924 -6.34883e-22)
(-0.00322106 0.425973 -6.40581e-22)
(0.0411026 0.283394 4.72233e-21)
(0.0435015 0.298119 -1.61785e-21)
(0.0437924 0.30864 2.83436e-21)
(0.0419735 0.316727 -5.32233e-22)
(0.0385177 0.322803 -2.31042e-21)
(0.0335924 0.327797 -2.37864e-21)
(0.0276551 0.332351 4.7823e-21)
(0.0210335 0.337017 -2.40358e-21)
(0.0140914 0.342186 0)
(0.00715065 0.348119 -1.84068e-21)
(0.000531552 0.354956 0)
(-0.00545065 0.36273 2.48594e-21)
(-0.01048 0.371362 -1.87285e-21)
(-0.0142506 0.380653 6.2934e-22)
(-0.0164912 0.390274 0)
(-0.0170051 0.39976 0)
(-0.0157167 0.408527 -1.25803e-21)
(-0.0127165 0.415924 9.50504e-22)
(-0.00828462 0.421319 -9.40941e-22)
(-0.00288328 0.424171 6.40186e-22)
(0.0359875 0.281745 8.34061e-21)
(0.0395264 0.297193 -4.3127e-21)
(0.040702 0.308507 0)
(0.0398492 0.317266 0)
(0.0372624 0.323916 -6.9609e-21)
(0.0331341 0.32934 2.29466e-21)
(0.0278917 0.33419 2.35733e-21)
(0.0218686 0.339026 0)
(0.015431 0.344248 2.42859e-21)
(0.00890708 0.350128 -1.20337e-21)
(0.00262001 0.356813 0)
(-0.00311651 0.36434 -3.71068e-21)
(-0.00799366 0.372634 1.22892e-21)
(-0.0117165 0.381508 1.24043e-21)
(-0.0140263 0.390649 -1.24911e-21)
(-0.0147367 0.399622 1.24783e-21)
(-0.0137755 0.407886 1.25652e-21)
(-0.011225 0.41484 0)
(-0.00734507 0.419902 1.25806e-21)
(-0.00255877 0.422575 0)
(0.0311056 0.279576 2.07588e-21)
(0.0356932 0.29579 -2.1604e-21)
(0.0377113 0.307936 0)
(0.0377813 0.317413 0)
(0.0360404 0.32468 2.30161e-21)
(0.0326929 0.330579 -2.31576e-21)
(0.0281361 0.335764 0)
(0.0227037 0.340803 2.40857e-21)
(0.0167625 0.34611 2.43162e-21)
(0.0106457 0.351966 -7.23353e-21)
(0.0046787 0.358527 -2.43832e-21)
(-0.00082562 0.365837 4.87059e-21)
(-0.00556382 0.373829 0)
(-0.00925008 0.382323 -1.41795e-23)
(-0.0116362 0.391028 4.32348e-24)
(-0.0125442 0.399534 0)
(-0.0119041 0.40734 1.24154e-21)
(-0.00978969 0.41389 -6.19061e-22)
(-0.00644193 0.418649 -6.20479e-22)
(-0.00224688 0.421158 0)
(0.026496 0.276905 6.29381e-21)
(0.0320274 0.293916 -1.5075e-20)
(0.0348389 0.306931 8.7e-21)
(0.035781 0.317166 0)
(0.0348573 0.325095 0)
(0.0322704 0.331511 4.60916e-21)
(0.0283868 0.337072 -4.68837e-21)
(0.0235362 0.342351 7.04619e-21)
(0.018083 0.347775 -2.38387e-21)
(0.0123637 0.353638 -4.80278e-21)
(0.00670577 0.360106 9.61215e-21)
(0.0014216 0.367231 -2.37172e-24)
(-0.00318959 0.374955 1.26638e-23)
(-0.00684931 0.383111 -2.43863e-21)
(-0.00931798 0.391422 2.46532e-21)
(-0.0104242 0.399506 -2.44845e-21)
(-0.0100991 0.406898 0)
(-0.00840764 0.413082 -6.15028e-22)
(-0.0055731 0.417567 6.14374e-22)
(-0.0019469 0.419928 0)
(0.0222055 0.273756 -8.07726e-21)
(0.0285603 0.291583 4.26479e-21)
(0.0321088 0.305498 -8.81764e-21)
(0.033864 0.316528 1.32317e-20)
(0.0337222 0.325157 4.49263e-21)
(0.0318708 0.332132 -2.29281e-21)
(0.0286451 0.33811 4.60131e-21)
(0.0243653 0.343667 0)
(0.0193911 0.349243 4.68504e-21)
(0.0140601 0.355144 4.71917e-21)
(0.00870106 0.361551 -7.14126e-21)
(0.00362603 0.368525 4.80568e-21)
(-0.000868837 0.376017 -4.66133e-24)
(-0.00451092 0.383872 0)
(-0.00706745 0.39183 -7.25125e-21)
(-0.00837202 0.399535 2.42294e-21)
(-0.00835586 0.406553 4.84286e-21)
(-0.00707522 0.412407 0)
(-0.00473624 0.416643 -4.84889e-21)
(-0.00165813 0.418871 0)
(0.0182892 0.270159 -8.03627e-21)
(0.02533 0.288805 -4.26419e-21)
(0.0295506 0.303646 0)
(0.0320506 0.315502 -8.81573e-21)
(0.0326484 0.32487 6.40179e-23)
(0.0315017 0.332445 -1.80983e-20)
(0.0289143 0.338879 -5.68174e-23)
(0.0251922 0.344751 4.60011e-21)
(0.020687 0.350514 2.16461e-24)
(0.015735 0.356489 -4.70465e-21)
(0.0106652 0.362868 3.63855e-23)
(0.0057893 0.369724 -4.75461e-21)
(0.00140112 0.377019 9.48409e-21)
(-0.00223121 0.38461 -9.52559e-21)
(-0.00488018 0.392256 3.62232e-23)
(-0.006383 0.399623 0)
(-0.00667008 0.406306 -8.41188e-21)
(-0.00578875 0.411863 -1.20173e-21)
(-0.00392894 0.415875 4.83161e-21)
(-0.00137977 0.417982 0)
(0.0148108 0.266147 -2.35656e-22)
(0.0223816 0.2856 8.38049e-21)
(0.0272 0.301389 0)
(0.0303667 0.314096 4.38765e-21)
(0.031653 0.324237 -4.47739e-21)
(0.0311737 0.332448 8.90532e-21)
(0.0292005 0.339378 4.54751e-21)
(0.02602 0.345604 -4.5886e-21)
(0.0219723 0.35159 0)
(0.0173896 0.357673 -4.65593e-21)
(0.0125996 0.364058 9.36363e-21)
(0.00791364 0.37083 -4.67242e-21)
(0.00362347 0.377964 -4.72531e-21)
(-6.12583e-06 0.38533 4.74099e-21)
(-0.00275155 0.392702 4.7534e-21)
(-0.0044523 0.399769 0)
(-0.00503719 0.406153 7.1477e-21)
(-0.00454458 0.411446 -2.37551e-21)
(-0.00314888 0.415256 0)
(-0.00111111 0.417255 0)
(0.0118435 0.261758 3.23007e-20)
(0.0197686 0.281993 -2.08562e-20)
(0.0250998 0.298745 0)
(0.0288438 0.312324 4.32177e-21)
(0.0307579 0.323265 -8.84404e-21)
(0.0309014 0.332148 8.82074e-21)
(0.0295128 0.339609 0)
(0.0268541 0.346226 0)
(0.0232501 0.352473 0)
(0.0190261 0.358699 0)
(0.0145068 0.365124 4.62693e-21)
(0.0100019 0.371847 -4.61768e-21)
(0.00580179 0.378856 0)
(0.0021686 0.386033 0)
(-0.000676782 0.393169 4.66044e-21)
(-0.00257506 0.399974 -2.3467e-21)
(-0.00345272 0.406094 2.34367e-21)
(-0.00333912 0.411151 -5.85546e-21)
(-0.00239374 0.414782 1.17414e-21)
(-0.000851413 0.416683 0)
(0.0094703 0.257038 1.6294e-20)
(0.0175535 0.278015 -1.2386e-20)
(0.0232995 0.295737 0)
(0.0275193 0.310199 -4.31598e-21)
(0.0299898 0.321964 0)
(0.0307031 0.331548 0)
(0.0298629 0.339577 0)
(0.0277019 0.346621 -4.45559e-21)
(0.0245254 0.353164 0)
(0.0206482 0.359568 9.09937e-21)
(0.0163898 0.366068 -4.4725e-21)
(0.0120575 0.372778 -1.37125e-20)
(0.00793995 0.379697 4.58043e-21)
(0.00429739 0.386721 2.71064e-23)
(0.00134889 0.393658 -1.38727e-20)
(-0.000746513 0.400235 4.61965e-21)
(-0.00191233 0.406126 -2.31921e-21)
(-0.00216891 0.410974 5.81176e-21)
(-0.00166133 0.414446 -2.88319e-21)
(-0.00059999 0.416262 -5.85021e-22)
(0.00778369 0.252032 -4.42925e-21)
(0.0158087 0.273702 1.64803e-20)
(0.0218563 0.29239 -4.19903e-21)
(0.0264374 0.307742 -1.71873e-20)
(0.0293805 0.320348 2.5802e-20)
(0.0306011 0.33066 -4.31169e-21)
(0.030266 0.339285 0)
(0.0285734 0.346791 4.43951e-21)
(0.0258048 0.353665 8.94199e-21)
(0.0222607 0.360283 -4.45555e-21)
(0.0182527 0.366894 4.51681e-21)
(0.0140843 0.373625 -4.50108e-21)
(0.010042 0.380488 0)
(0.00638465 0.387396 4.53807e-21)
(0.00333012 0.394169 4.54845e-21)
(0.00103796 0.400554 0)
(-0.000411825 0.406245 -6.84306e-21)
(-0.00103065 0.410912 4.57548e-21)
(-0.000949539 0.414244 2.30833e-21)
(-0.000356185 0.415984 0)
(0.00688577 0.246791 4.2336e-22)
(0.0146175 0.269096 -1.63856e-20)
(0.0208348 0.288737 4.19496e-21)
(0.0256488 0.304978 1.70406e-20)
(0.0289669 0.318434 -3.41598e-20)
(0.0306219 0.329493 1.27973e-20)
(0.0307404 0.338744 0)
(0.0294811 0.346742 4.43034e-21)
(0.0270967 0.353981 -8.75244e-21)
(0.0238694 0.360847 -1.33141e-20)
(0.0200999 0.367603 -4.48895e-21)
(0.0160863 0.374389 2.2307e-20)
(0.0121121 0.381233 -8.92052e-21)
(0.00843468 0.388058 -7.6948e-24)
(0.00527132 0.394701 -7.61697e-24)
(0.00278268 0.400927 0)
(0.00105266 0.406449 9.01732e-21)
(7.87494e-05 0.41096 -6.75394e-21)
(-0.000256418 0.414171 3.38575e-21)
(-0.000119391 0.415845 -5.67853e-21)
(0.00688739 0.241365 7.94156e-21)
(0.0140741 0.264248 -1.65717e-20)
(0.0203069 0.284815 1.64801e-20)
(0.0252103 0.301937 0)
(0.0287911 0.316244 1.70284e-20)
(0.0307965 0.328065 -1.26969e-20)
(0.031308 0.337961 -4.27602e-21)
(0.0304401 0.34648 4.33522e-21)
(0.0284115 0.354115 0)
(0.0254815 0.361263 1.31073e-20)
(0.0219369 0.368197 -8.69568e-21)
(0.0180679 0.375073 0)
(0.0141543 0.381931 -8.84446e-21)
(0.0104515 0.388708 8.82181e-21)
(0.00717649 0.395255 -8.88664e-21)
(0.00449152 0.401353 4.43056e-21)
(0.00248463 0.406735 -8.88761e-21)
(0.00116203 0.411114 2.23939e-21)
(0.000419783 0.414221 5.54517e-21)
(0.000110933 0.41584 5.63164e-21)
(0.007907 0.235803 -7.55895e-21)
(0.0142845 0.259209 -3.26666e-20)
(0.0203518 0.280664 1.63715e-20)
(0.0251848 0.298652 -4.14563e-21)
(0.0289002 0.313803 0)
(0.0311599 0.326392 1.27327e-20)
(0.0319941 0.336951 -1.26157e-20)
(0.0314682 0.346014 0)
(0.0297613 0.354074 0)
(0.0271054 0.361533 -4.3213e-21)
(0.0237694 0.368679 4.33766e-21)
(0.0200335 0.375678 8.69632e-21)
(0.0161721 0.382583 4.8198e-23)
(0.0124385 0.389346 -8.69224e-21)
(0.00904903 0.395829 -4.37301e-21)
(0.00616774 0.401831 8.72019e-21)
(0.00388701 0.4071 4.39418e-21)
(0.00222155 0.411371 4.36549e-21)
(0.00108057 0.414391 1.06366e-21)
(0.000335247 0.415963 3.3032e-21)
(0.0100684 0.230154 1.97953e-20)
(0.0153652 0.254042 -2.84101e-20)
(0.0210547 0.276332 1.62627e-20)
(0.02564 0.295163 4.13694e-21)
(0.0293456 0.311141 -2.08248e-20)
(0.0317511 0.324497 1.2428e-20)
(0.0328276 0.335728 -4.17655e-21)
(0.032586 0.345354 1.2659e-20)
(0.0311604 0.353863 -4.1361e-21)
(0.0287505 0.361664 -2.12054e-20)
(0.0256037 0.369052 1.27901e-20)
(0.0219873 0.376206 -4.25837e-21)
(0.0181689 0.383192 0)
(0.0143983 0.389972 4.32572e-21)
(0.0108915 0.396423 -8.57875e-21)
(0.00781377 0.402358 -4.3212e-21)
(0.00526203 0.407542 2.07277e-23)
(0.00325911 0.411726 -8.64154e-21)
(0.00172711 0.414675 -3.25502e-21)
(0.000553911 0.416209 -5.46443e-21)
(0.0134977 0.224471 -1.55474e-20)
(0.0174423 0.248821 -2.03471e-20)
(0.0225053 0.27188 1.61535e-20)
(0.0266472 0.291518 1.64508e-20)
(0.0301825 0.308296 8.40916e-21)
(0.0326132 0.322407 -1.2262e-20)
(0.033841 0.334314 4.15659e-21)
(0.0338171 0.344515 -2.50204e-20)
(0.032625 0.353495 2.49492e-20)
(0.0304273 0.361662 8.36882e-21)
(0.0274463 0.369321 -4.20927e-21)
(0.0239332 0.376661 1.6791e-20)
(0.0201469 0.383758 -8.40629e-21)
(0.0163327 0.390586 8.44753e-21)
(0.0127051 0.397036 0)
(0.00943089 0.402932 -4.22042e-21)
(0.00661096 0.408056 4.25777e-21)
(0.00427584 0.412175 -4.23045e-21)
(0.00236019 0.415069 -4.23488e-21)
(0.000767168 0.416574 0)
(0.0183206 0.218816 3.1214e-20)
(0.0206471 0.243634 3.13975e-22)
(0.0247946 0.26738 -1.60426e-20)
(0.0282781 0.287779 0)
(0.0314684 0.305316 -4.07822e-21)
(0.0337926 0.320161 -4.06228e-21)
(0.0350704 0.332735 0)
(0.0351881 0.343518 3.11236e-23)
(0.0341733 0.352983 -4.12815e-21)
(0.0321474 0.361538 -8.24543e-21)
(0.0293034 0.369493 0)
(0.025874 0.377046 -8.28153e-21)
(0.0221068 0.384283 0)
(0.0182412 0.39119 -8.31066e-21)
(0.0144894 0.397667 0)
(0.0110188 0.403552 1.25068e-20)
(0.00793374 0.408641 -4.16657e-21)
(0.00527187 0.412715 8.35486e-21)
(0.00298 0.41557 4.19844e-21)
(0.000975127 0.417052 4.20528e-21)
(0.0246489 0.213166 0)
(0.025109 0.238475 0)
(0.0280106 0.262839 1.8097e-20)
(0.0306016 0.283956 -1.79414e-20)
(0.0332616 0.302208 0)
(0.0353385 0.317761 4.04377e-21)
(0.0365552 0.330993 1.62284e-20)
(0.0367281 0.34236 -2.82924e-20)
(0.0358251 0.352322 3.24137e-20)
(0.0339224 0.361285 -1.20944e-20)
(0.0311807 0.369561 2.02546e-21)
(0.027811 0.377355 2.06047e-21)
(0.0240474 0.384761 0)
(0.0201215 0.391775 6.13646e-21)
(0.0162417 0.398309 -6.13633e-21)
(0.012575 0.404211 -4.12503e-21)
(0.00922859 0.40929 8.20251e-21)
(0.00624615 0.41334 -1.02817e-20)
(0.0035861 0.41617 1.0265e-21)
(0.00117778 0.41764 -3.13033e-21)
(0.0325053 0.207338 -1.55992e-20)
(0.0309503 0.233158 -9.90869e-22)
(0.0322419 0.258123 -1.79405e-20)
(0.0336864 0.279931 1.77655e-20)
(0.0356243 0.298873 0)
(0.0373065 0.315125 9.91356e-22)
(0.0383417 0.32902 1.69964e-20)
(0.0384722 0.340987 1.55245e-22)
(0.037604 0.35147 -1.48917e-20)
(0.035766 0.360868 -8.02158e-21)
(0.0330839 0.369495 -1.07067e-21)
(0.0297443 0.377561 1.09903e-20)
(0.0259653 0.38517 0)
(0.0219686 0.392325 -1.01506e-21)
(0.0179569 0.398947 3.01924e-21)
(0.0140952 0.404896 -4.03093e-21)
(0.0104922 0.409992 4.02546e-21)
(0.00719654 0.414042 2.01981e-21)
(0.00417748 0.416864 -2.02038e-21)
(0.00137518 0.41833 0)
(0.0416864 0.202168 1.82517e-20)
(0.0382715 0.228279 -1.73663e-20)
(0.0375753 0.253647 3.67839e-20)
(0.0376027 0.276007 -1.82778e-20)
(0.0386299 0.295549 1.84926e-20)
(0.0397671 0.312449 -1.94619e-20)
(0.0404899 0.326985 -1.15499e-21)
(0.0404663 0.339545 0)
(0.0395414 0.350553 -1.9707e-20)
(0.0376963 0.360396 1.84134e-20)
(0.0350203 0.369389 8.12639e-21)
(0.0316736 0.377745 -1.03924e-20)
(0.0278555 0.385574 9.291e-21)
(0.0237752 0.392888 -1.04083e-20)
(0.0196274 0.399618 -1.16279e-21)
(0.0155725 0.405632 -4.63933e-21)
(0.0117193 0.410762 4.62514e-21)
(0.00811958 0.414826 0)
(0.00475256 0.417651 1.15681e-21)
(0.00156768 0.419119 -1.16539e-21)
(0.0624437 0.199527 0)
(0.056158 0.224069 0)
(0.0509274 0.248836 0)
(0.0476743 0.271362 0)
(0.0465793 0.29138 0)
(0.0463497 0.30903 0)
(0.0461835 0.324456 0)
(0.0456184 0.337943 0)
(0.0443906 0.349837 0)
(0.0423882 0.360478 0)
(0.0396223 0.370149 0)
(0.0361904 0.379047 0)
(0.0322421 0.38728 0)
(0.0279486 0.394868 0)
(0.0234778 0.401757 0)
(0.0189737 0.407839 0)
(0.014541 0.412972 0)
(0.010238 0.417003 0)
(0.00606957 0.419789 0)
(0.00201115 0.421231 0)
(0.102587 0.226707 0)
(0.0897167 0.241842 0)
(0.0779734 0.259783 0)
(0.0692172 0.278098 0)
(0.0639576 0.295631 0)
(0.0607086 0.311932 0)
(0.0583758 0.326824 0)
(0.0562938 0.340328 0)
(0.0540198 0.35258 0)
(0.0512831 0.363745 0)
(0.0479614 0.373972 0)
(0.0440449 0.383368 0)
(0.0396001 0.391984 0)
(0.0347369 0.399818 0)
(0.0295807 0.40682 0)
(0.0242507 0.412904 0)
(0.018844 0.417965 0)
(0.0134274 0.421892 0)
(0.00803384 0.424582 0)
(0.00267332 0.42596 0)
(0.145167 0.253373 0)
(0.12639 0.262296 0)
(0.109171 0.274284 0)
(0.0952789 0.28807 0)
(0.0855832 0.30247 0)
(0.078764 0.316779 0)
(0.0736559 0.330584 0)
(0.0694681 0.343677 0)
(0.0656125 0.355981 0)
(0.0616723 0.36748 0)
(0.0573937 0.378177 0)
(0.0526569 0.388068 0)
(0.0474414 0.397131 0)
(0.041792 0.405323 0)
(0.0357891 0.412578 0)
(0.0295246 0.418818 0)
(0.0230842 0.423956 0)
(0.016538 0.427909 0)
(0.00993634 0.430598 0)
(0.00331358 0.431964 0)
(0.185517 0.280602 0)
(0.163626 0.285177 0)
(0.142728 0.292282 0)
(0.124655 0.301674 0)
(0.110779 0.312572 0)
(0.100216 0.324339 0)
(0.0919467 0.336492 0)
(0.0851829 0.348675 0)
(0.0792676 0.360636 0)
(0.0736811 0.372187 0)
(0.0680573 0.383179 0)
(0.0621723 0.393484 0)
(0.0559171 0.402987 0)
(0.0492676 0.411583 0)
(0.0422546 0.419176 0)
(0.0349375 0.425675 0)
(0.0273858 0.430998 0)
(0.0196664 0.43507 0)
(0.0118384 0.437827 0)
(0.00395207 0.439222 0)
(0.222243 0.307985 0)
(0.199322 0.310124 0)
(0.176516 0.313632 0)
(0.155573 0.319175 0)
(0.13825 0.326561 0)
(0.124201 0.335446 0)
(0.112711 0.345456 0)
(0.103126 0.356213 0)
(0.0948193 0.367367 0)
(0.0872353 0.378596 0)
(0.0799348 0.389607 0)
(0.0726088 0.400143 0)
(0.0650675 0.409983 0)
(0.0572181 0.418944 0)
(0.0490385 0.426877 0)
(0.0405518 0.433666 0)
(0.0318056 0.439215 0)
(0.0228579 0.443451 0)
(0.0137693 0.446312 0)
(0.00459866 0.447756 0)
(0.254353 0.333935 0)
(0.231973 0.335337 0)
(0.208786 0.336734 0)
(0.186347 0.339421 0)
(0.166585 0.343774 0)
(0.149646 0.349849 0)
(0.135187 0.357517 0)
(0.122787 0.36651 0)
(0.111943 0.376478 0)
(0.102139 0.387031 0)
(0.0929149 0.397771 0)
(0.0839108 0.408322 0)
(0.0748728 0.418354 0)
(0.0656464 0.427594 0)
(0.0561579 0.435829 0)
(0.0463915 0.442899 0)
(0.0363692 0.448687 0)
(0.0261347 0.453105 0)
(0.015744 0.456089 0)
(0.00525855 0.457593 0)
(0.281253 0.35721 0)
(0.260592 0.359295 0)
(0.238267 0.360034 0)
(0.215593 0.361064 0)
(0.19448 0.363202 0)
(0.175447 0.3669 0)
(0.158516 0.372342 0)
(0.143539 0.379466 0)
(0.130206 0.388022 0)
(0.118105 0.39763 0)
(0.106818 0.40784 0)
(0.0959711 0.418191 0)
(0.0852746 0.428253 0)
(0.0745264 0.437664 0)
(0.0636071 0.446137 0)
(0.052463 0.453459 0)
(0.0410881 0.459477 0)
(0.0295085 0.464081 0)
(0.0177712 0.467194 0)
(0.00593494 0.468764 0)
(0.302746 0.377063 0)
(0.284653 0.381 0)
(0.264133 0.382377 0)
(0.242275 0.382958 0)
(0.220838 0.383858 0)
(0.200582 0.385855 0)
(0.181829 0.389446 0)
(0.164699 0.394827 0)
(0.1491 0.401917 0)
(0.134778 0.410425 0)
(0.121402 0.419911 0)
(0.108635 0.429871 0)
(0.0961782 0.439804 0)
(0.0838045 0.449267 0)
(0.0713594 0.457898 0)
(0.0587562 0.465424 0)
(0.0459617 0.471647 0)
(0.0329829 0.476428 0)
(0.0198545 0.479668 0)
(0.00662932 0.481305 0)