/*--------------------------------*- C++ -*----------------------------------*\
  =========                 |
  \\      /  F ield         | OpenFOAM: The Open Source CFD Toolbox
   \\    /   O peration     | Website:  https://openfoam.org
    \\  /    A nd           | Version:  7
     \\/     M anipulation  |
\*---------------------------------------------------------------------------*/
FoamFile
{
    version     2.0;
    format      ascii;
    class       volScalarField;
    location    "37.3";
    object      p;
}
// * * * * * * * * * * * * * * * * * * * * * * * * * * * * * * * * * * * * * //

dimensions      [0 2 -2 0 0 0 0];

internalField   nonuniform List<scalar> 
2000
(
-0.018519
-0.0175396
-0.017064
-0.0168374
-0.0169492
-0.0173779
-0.0180355
-0.0188115
-0.0195997
-0.0202946
-0.0185439
-0.0175887
-0.0170991
-0.0168418
-0.0169211
-0.0173318
-0.0180008
-0.0188283
-0.019717
-0.0205653
-0.0185498
-0.0176113
-0.0170939
-0.0167843
-0.0168026
-0.017161
-0.0178026
-0.0186402
-0.0195854
-0.0205472
-0.0185393
-0.0176029
-0.0170435
-0.0166625
-0.0165965
-0.0168741
-0.0174552
-0.0182662
-0.0192274
-0.0202653
-0.0185121
-0.0175578
-0.0169435
-0.0164768
-0.0163101
-0.0164874
-0.0169834
-0.0177381
-0.0186804
-0.019761
-0.0184645
-0.0174685
-0.0167887
-0.0162275
-0.0159525
-0.0160205
-0.016418
-0.0170967
-0.0179931
-0.0190891
-0.018389
-0.0173255
-0.016572
-0.0159137
-0.0155324
-0.0154938
-0.0157927
-0.0163882
-0.0172217
-0.0183138
-0.0182723
-0.0171163
-0.0162839
-0.015532
-0.0150544
-0.014923
-0.0151363
-0.0156572
-0.0164279
-0.0175088
-0.0180952
-0.0168258
-0.0159126
-0.015076
-0.0145174
-0.0143106
-0.0144543
-0.0149138
-0.0156407
-0.0167564
-0.017833
-0.0164373
-0.0154458
-0.0145384
-0.0139172
-0.013648
-0.013718
-0.0140831
-0.0147084
-0.0158257
-0.0213132
-0.0205718
-0.0172251
-0.011721
-0.00542025
0.00166633
0.00810773
0.0150494
0.0193942
0.0233296
-0.0219315
-0.0220673
-0.019425
-0.0144765
-0.0086275
-0.00184821
0.00434308
0.0111279
0.0154359
0.0192756
-0.0222528
-0.0232403
-0.0212911
-0.0169095
-0.0114985
-0.00502234
0.000936468
0.00755161
0.0117984
0.0155698
-0.0223023
-0.0240782
-0.0228053
-0.0189988
-0.0140151
-0.00784825
-0.00211083
0.00431527
0.00848565
0.0122099
-0.0221223
-0.0245837
-0.0239631
-0.0207266
-0.0161586
-0.0103019
-0.00478131
0.0014488
0.00553576
0.00921241
-0.0217704
-0.0247755
-0.0247807
-0.0221044
-0.01795
-0.0124092
-0.00711648
-0.00109222
0.00290789
0.0065493
-0.0213134
-0.0246919
-0.0252799
-0.0231228
-0.0193636
-0.0141336
-0.00907589
-0.00325786
0.000637477
0.00423555
-0.020824
-0.0243881
-0.0255221
-0.0238669
-0.0205082
-0.0155952
-0.0107839
-0.0051701
-0.00138563
0.0022132
-0.0204485
-0.02393
-0.0254699
-0.0242298
-0.0212529
-0.0166643
-0.0121133
-0.00671245
-0.0030781
0.000503657
-0.0201345
-0.0234058
-0.0254126
-0.0246314
-0.0220493
-0.0177763
-0.0134471
-0.00822637
-0.00465933
-0.00101435
-0.0148877
-0.0186846
-0.021932
-0.0226085
-0.0213512
-0.0182966
-0.0147261
-0.0103764
-0.00710076
-0.00393892
-0.0157034
-0.0170435
-0.018467
-0.0189557
-0.0182621
-0.0163322
-0.0139165
-0.0110109
-0.00856238
-0.00638609
-0.0145794
-0.0146828
-0.0149703
-0.0148712
-0.0141767
-0.0128025
-0.0112405
-0.00951504
-0.00818571
-0.00689727
-0.0128194
-0.0118275
-0.0113996
-0.0109545
-0.0102338
-0.0091662
-0.00810791
-0.00701844
-0.00647102
-0.00589687
-0.0108184
-0.00912826
-0.00819492
-0.00761455
-0.00699895
-0.00620803
-0.00553587
-0.00486405
-0.00459361
-0.00419328
-0.00849369
-0.00660071
-0.00552425
-0.00494291
-0.00444781
-0.0038699
-0.00343555
-0.00307778
-0.00312184
-0.00285527
-0.00587438
-0.0041516
-0.00322092
-0.00280965
-0.00251651
-0.00216147
-0.00190065
-0.00168189
-0.00190541
-0.00183138
-0.00342865
-0.00213163
-0.00146119
-0.00120774
-0.00108169
-0.000912497
-0.00081984
-0.000737698
-0.0010228
-0.000990317
-0.00132997
-0.000430038
-0.000189022
-0.000190742
-0.000228328
-0.000176974
-0.000157791
-0.000114175
-0.000423488
-0.000369524
-0.000119713
0.000300798
0.000405924
0.000337906
0.000236825
0.000190142
0.000105095
0.000104896
-0.00015554
-9.22032e-05
-0.0129613
-0.014008
-0.0136478
-0.0127109
-0.0112234
-0.00911
-0.00675335
-0.00423106
-0.00179986
-0.000445809
-0.0124769
-0.0136541
-0.0135638
-0.0128498
-0.0114586
-0.00937758
-0.00690448
-0.00429612
-0.00195779
-0.000560724
-0.0122747
-0.0135563
-0.0136373
-0.0130528
-0.0116965
-0.00962319
-0.00710992
-0.00449862
-0.0021091
-0.000655428
-0.0122002
-0.0135053
-0.0137229
-0.0132413
-0.0119104
-0.00984579
-0.0073037
-0.00466958
-0.00225372
-0.000739927
-0.0121581
-0.013448
-0.0137751
-0.0133889
-0.0120802
-0.010029
-0.00746892
-0.00482176
-0.00238826
-0.000815358
-0.0120383
-0.0133322
-0.0137533
-0.0134647
-0.0121825
-0.0101565
-0.00759675
-0.00495263
-0.00251108
-0.000882646
-0.0117444
-0.0130974
-0.0136111
-0.013436
-0.0121942
-0.0102143
-0.00767887
-0.00505701
-0.00262013
-0.000945109
-0.0112133
-0.012701
-0.0133114
-0.0132788
-0.0120977
-0.0101925
-0.00770881
-0.00513149
-0.00271161
-0.00100166
-0.0103784
-0.0121219
-0.0128706
-0.0129752
-0.0118909
-0.010085
-0.00768561
-0.00517253
-0.00279184
-0.00102517
-0.00928979
-0.0113561
-0.012259
-0.0125303
-0.011571
-0.00989311
-0.00760717
-0.00517915
-0.00285109
-0.00101635
-0.00799194
-0.0104227
-0.0114934
-0.0119562
-0.0111477
-0.0096215
-0.00747255
-0.00514697
-0.00288506
-0.000997754
-0.00653022
-0.00935635
-0.0106013
-0.0112723
-0.0106375
-0.00928
-0.00728675
-0.00507717
-0.00289343
-0.00097282
-0.00495121
-0.00818981
-0.00961441
-0.0105016
-0.0100602
-0.00888267
-0.00705934
-0.00497496
-0.00287803
-0.000942871
-0.00329905
-0.00695212
-0.0085644
-0.00966664
-0.00943486
-0.0084419
-0.00679726
-0.00484334
-0.00283965
-0.000909134
-0.00161052
-0.00566592
-0.00747922
-0.00878799
-0.0087779
-0.00796889
-0.00650713
-0.00468596
-0.0027801
-0.000872667
8.09191e-05
-0.00434973
-0.00638347
-0.00788338
-0.00810234
-0.00747347
-0.006195
-0.00450695
-0.00270169
-0.000834133
0.00173783
-0.00302055
-0.00529616
-0.00696717
-0.00741839
-0.00696444
-0.00586627
-0.00431027
-0.00260674
-0.000793863
0.00335983
-0.00166177
-0.00421284
-0.00604367
-0.0067328
-0.0064519
-0.00552852
-0.00410144
-0.00249837
-0.000751868
0.005031
-0.000185841
-0.00309408
-0.00509881
-0.00603919
-0.00593941
-0.00518883
-0.00388767
-0.00238033
-0.000707149
0.00643787
0.00128405
-0.00199188
-0.00414905
-0.00531289
-0.00538969
-0.00481399
-0.00365007
-0.00224116
-0.000656744
0.00751675
0.00377839
0.000287947
-0.00199453
-0.00346761
-0.0039293
-0.00372625
-0.00292624
-0.00181115
-0.000540441
0.00939047
0.00597348
0.00274445
0.000505681
-0.00112908
-0.00191118
-0.00213238
-0.0017605
-0.00105927
-0.000225911
0.0120422
0.00856613
0.00525101
0.00287841
0.000998408
-9.82368e-05
-0.000684271
-0.000654458
-0.000296472
0.000127939
0.0148908
0.0112024
0.00771585
0.0051209
0.00295725
0.00154117
0.000633055
0.000391938
0.000480009
0.000531841
0.0179392
0.0138888
0.010133
0.00724212
0.00476211
0.00302846
0.00184048
0.00139256
0.00128015
0.000990654
0.0211504
0.0166452
0.0125169
0.00924685
0.00643287
0.00439572
0.00297348
0.00236435
0.00210063
0.00148525
0.0244729
0.0193926
0.0147865
0.0111079
0.0080004
0.00569097
0.00407592
0.0033056
0.00286967
0.0018961
0.0274837
0.0215182
0.0167559
0.0128343
0.00948626
0.00693469
0.00514365
0.00413698
0.00336581
0.00196584
0.0300938
0.0245519
0.0190853
0.0144616
0.010736
0.00797218
0.00600249
0.00465508
0.00340652
0.00166478
0.0323784
0.024974
0.0193306
0.0148619
0.0112955
0.0085672
0.0065143
0.004908
0.00332626
0.00140599
0.0104906
0.0122869
0.0147882
0.017646
0.0208961
0.0243689
0.0278763
0.0324056
0.0333965
0.0381824
0.0116745
0.0137658
0.0163595
0.0193339
0.0227365
0.0263668
0.0300547
0.0344263
0.0358562
0.0398742
0.012669
0.0151898
0.0180837
0.0213824
0.0250797
0.0289878
0.0329531
0.0368826
0.0391464
0.0413204
0.0135905
0.0163908
0.0195536
0.0231905
0.0271929
0.0313901
0.0356326
0.0394733
0.0422629
0.0434533
0.014557
0.017593
0.0209654
0.0248702
0.0291141
0.0335391
0.0380094
0.0420249
0.0450991
0.0462337
0.0155579
0.0188919
0.0225025
0.0266461
0.0310888
0.0356913
0.0403365
0.0445817
0.0478555
0.0493374
0.016572
0.0202588
0.0241767
0.0285823
0.0332338
0.0380154
0.0428205
0.0472623
0.0507126
0.0525443
0.0176096
0.0216669
0.0259436
0.0306398
0.0355341
0.0405292
0.0455181
0.0501357
0.0537487
0.0557987
0.0186901
0.0231161
0.0277818
0.0327781
0.0379441
0.0431861
0.0483972
0.0532025
0.0569698
0.0591322
0.0198287
0.0246077
0.0296913
0.0349804
0.0404387
0.0459455
0.0514114
0.0564309
0.0603549
0.062587
0.0210382
0.0261295
0.0316728
0.0372372
0.0430107
0.0487888
0.0545356
0.059795
0.0638864
0.0661862
0.022319
0.0276503
0.0337137
0.0395281
0.0456522
0.0517053
0.057758
0.063279
0.0675549
0.0699331
0.0236375
0.0291389
0.0357804
0.0418289
0.0483452
0.0546942
0.0610831
0.0668867
0.0713672
0.0738295
0.0249394
0.0305811
0.0378233
0.0441219
0.0510629
0.0577541
0.0645031
0.0706147
0.0753357
0.077882
0.0261615
0.0319765
0.039789
0.046404
0.0537754
0.0609167
0.0680295
0.0744714
0.0794442
0.0820869
0.0272313
0.0333269
0.0416078
0.0487061
0.0564907
0.0640818
0.0716039
0.078417
0.0836703
0.0864337
0.0280793
0.0346216
0.0433635
0.0509517
0.0591672
0.0672316
0.0752264
0.0824584
0.0880248
0.0909371
0.0285982
0.0358859
0.0449254
0.0530126
0.0616905
0.0702706
0.0788004
0.086523
0.092473
0.0955842
0.0287983
0.0371579
0.0463346
0.0549682
0.0641408
0.0732854
0.0823931
0.0906551
0.0970397
0.100409
0.0283641
0.0378214
0.0471641
0.0563494
0.0660238
0.0757881
0.0855855
0.0945724
0.101594
0.105368
0.0298541
0.0415982
0.0513484
0.0615669
0.0722473
0.083276
0.0944542
0.104902
0.113221
0.117895
0.041775
0.0526198
0.062606
0.0742631
0.0866081
0.0996849
0.113097
0.125702
0.135772
0.141331
0.0541007
0.0653234
0.0764129
0.089789
0.104003
0.119482
0.135314
0.15012
0.161876
0.168392
0.0662832
0.078531
0.0915041
0.106998
0.123618
0.142052
0.160545
0.177715
0.191161
0.198446
0.0785177
0.0922428
0.107493
0.125419
0.144986
0.166765
0.18811
0.207825
0.2229
0.231167
0.0912736
0.10671
0.124456
0.145126
0.168072
0.193355
0.217667
0.239967
0.256364
0.264902
0.104152
0.121544
0.141845
0.165494
0.191945
0.220525
0.247849
0.272457
0.289614
0.299088
0.116942
0.136235
0.159165
0.18581
0.21559
0.247115
0.277616
0.304305
0.3216
0.329243
0.126852
0.147823
0.172867
0.201821
0.234109
0.267947
0.301262
0.329744
0.347546
0.355889
0.134011
0.15598
0.182382
0.212851
0.246798
0.282471
0.318277
0.350239
0.371998
0.364567
0.0252363
0.0364922
0.0476236
0.0592521
0.0706806
0.0829136
0.0945851
0.106816
0.116044
0.122897
0.0244156
0.0359976
0.0467984
0.05815
0.0692337
0.0811513
0.0923047
0.104178
0.112842
0.119411
0.0244314
0.0366057
0.0474008
0.0586367
0.0695131
0.0811057
0.0918397
0.103151
0.11101
0.117114
0.023986
0.0364221
0.0472324
0.0584601
0.0692138
0.0805726
0.0909876
0.101822
0.10908
0.114759
0.0232803
0.0358017
0.0465254
0.0576702
0.0682607
0.079368
0.0894687
0.0999003
0.106759
0.11211
0.0225441
0.0350994
0.045816
0.0568261
0.0672176
0.0780259
0.0877801
0.0978173
0.104352
0.109433
0.0217624
0.0343509
0.045232
0.0561341
0.0663716
0.0769047
0.0863236
0.0959999
0.102216
0.107057
0.0209086
0.033584
0.0446847
0.0555596
0.0657288
0.0760638
0.0852205
0.0946066
0.100533
0.105157
0.0200024
0.0328441
0.0441519
0.0550517
0.0652403
0.0754484
0.0844553
0.0935901
0.0993327
0.103748
0.0190778
0.032159
0.0436799
0.0546423
0.0648814
0.0750102
0.0840132
0.0928425
0.0985823
0.102767
0.0181663
0.0315451
0.0433015
0.054368
0.0646692
0.0747781
0.0838028
0.0924133
0.0981937
0.10217
0.017251
0.0309714
0.0430045
0.0542247
0.0646172
0.0747624
0.0838121
0.0923185
0.0981225
0.101953
0.0162791
0.0303845
0.0427543
0.0541864
0.0647203
0.0749612
0.0840626
0.0925547
0.0983737
0.102112
0.0152299
0.0297674
0.0425336
0.0542335
0.0649672
0.0753637
0.0845612
0.0931045
0.0989509
0.102643
0.0140977
0.0291271
0.0423391
0.0543587
0.0653551
0.0759654
0.0853153
0.0939669
0.0998631
0.103537
0.0128507
0.0284421
0.0421403
0.0545357
0.0658595
0.0767372
0.0862979
0.0951098
0.101088
0.10478
0.011471
0.0277223
0.0419337
0.0547654
0.0664845
0.0776882
0.0875284
0.0965451
0.102637
0.106367
0.00982003
0.0268383
0.0416019
0.0549491
0.0671326
0.07872
0.088913
0.0981935
0.10446
0.108286
0.00807511
0.0259764
0.0412718
0.0551794
0.0678817
0.0799054
0.0905188
0.100105
0.106591
0.110541
0.00537355
0.0243084
0.0403097
0.0549015
0.06821
0.0807596
0.091929
0.101986
0.108879
0.113125
0.00396538
0.023384
0.0403496
0.0562323
0.0708989
0.0845738
0.0969644
0.107895
0.115678
0.120309
0.0123092
0.0318383
0.0491474
0.0661423
0.0821762
0.097424
0.111611
0.124163
0.133201
0.138216
0.0237961
0.0444198
0.0625975
0.0810195
0.0984091
0.115534
0.131837
0.146388
0.156905
0.162429
0.0361704
0.0581361
0.0779355
0.0983485
0.117757
0.137814
0.157013
0.174396
0.18712
0.19354
0.0486277
0.0721216
0.0940165
0.116739
0.139073
0.163076
0.186115
0.207724
0.223934
0.232065
0.0610454
0.0861196
0.110536
0.135932
0.162142
0.190777
0.218838
0.24635
0.268078
0.279987
0.0726851
0.0996536
0.126612
0.155046
0.185736
0.219483
0.253886
0.288977
0.319179
0.339303
0.0836643
0.112168
0.141789
0.173635
0.209049
0.248263
0.290271
0.335001
0.378028
0.415243
0.0908453
0.120684
0.152459
0.1871
0.226469
0.270848
0.321078
0.377727
0.440613
0.50932
0.0949028
0.127127
0.160822
0.197944
0.240743
0.290145
0.348653
0.419781
0.511045
0.62554
-0.00300204
0.00394647
0.0126629
0.0227955
0.0330935
0.0447974
0.0545684
0.0655453
0.0725691
0.0747119
-0.0055099
0.00105123
0.00915679
0.0188386
0.0285259
0.0397912
0.0487135
0.0596088
0.0660656
0.0691091
-0.00754985
-0.00112918
0.00685719
0.0164103
0.0260764
0.0367947
0.0450607
0.05552
0.0611238
0.0661969
-0.0097106
-0.00367814
0.00402358
0.0132829
0.0229452
0.0332519
0.0410846
0.0510804
0.0560729
0.0623313
-0.011892
-0.00645577
0.000735005
0.00949308
0.0187557
0.0288084
0.0362538
0.0458144
0.0503919
0.056828
-0.0139793
-0.00921339
-0.00260728
0.00558643
0.0142526
0.0238449
0.0310867
0.0401095
0.0443548
0.0503934
-0.0159193
-0.0118678
-0.00585476
0.00179773
0.00989057
0.0188056
0.0260833
0.0344279
0.0384473
0.043928
-0.0176637
-0.0143797
-0.00898282
-0.00185447
0.00575843
0.0140631
0.0212122
0.0290303
0.0330291
0.0379515
-0.0191657
-0.0166986
-0.0119567
-0.00536057
0.0018225
0.00964099
0.0165708
0.0239758
0.0281499
0.0325768
-0.0203893
-0.0187746
-0.0147215
-0.00867028
-0.00191837
0.00550295
0.0121936
0.0193168
0.0236334
0.0277383
-0.0174532
-0.0159313
-0.0148704
-0.0139142
-0.013256
-0.0129421
-0.0129314
-0.0131463
-0.0134942
-0.013787
-0.0169044
-0.0152823
-0.0141728
-0.0132
-0.0125422
-0.0122236
-0.0121817
-0.0123285
-0.0125805
-0.0128098
-0.0161601
-0.0144752
-0.0133423
-0.0123903
-0.0117767
-0.0115015
-0.011485
-0.0116356
-0.0118754
-0.0121238
-0.015187
-0.0134903
-0.012364
-0.0114728
-0.0109471
-0.0107607
-0.0108191
-0.0110268
-0.0113021
-0.0115886
-0.0139521
-0.0123069
-0.0112202
-0.010428
-0.0100277
-0.00996628
-0.0101362
-0.0104381
-0.0107859
-0.0111407
-0.0124284
-0.0109062
-0.00989265
-0.00923236
-0.00898493
-0.00907153
-0.00937401
-0.0097908
-0.0102343
-0.0106813
-0.0105985
-0.00927336
-0.00836549
-0.00786327
-0.00778586
-0.00803087
-0.00847333
-0.00901169
-0.0095615
-0.0101126
-0.00845678
-0.00740072
-0.00662963
-0.00630571
-0.00640718
-0.00681175
-0.00739198
-0.0080493
-0.0087063
-0.00935862
-0.00601526
-0.00529331
-0.00468712
-0.00455761
-0.0048418
-0.00540169
-0.0061121
-0.00687938
-0.00763634
-0.00839488
-0.00332479
-0.0029785
-0.00255705
-0.0026345
-0.00310019
-0.00380909
-0.0046403
-0.00550723
-0.00635432
-0.0072026
-0.000482201
-0.000503458
-0.000280692
-0.000566753
-0.00121119
-0.00206174
-0.0030041
-0.00395984
-0.00488439
-0.00580662
0.00255521
0.00211362
0.00210776
0.00160216
0.000780572
-0.000204018
-0.00124737
-0.00228018
-0.00326757
-0.00424886
0.00569033
0.00480034
0.00454787
0.00381829
0.00282445
0.00171468
0.000580847
-0.000517124
-0.00155242
-0.00257829
0.00882404
0.00748022
0.00697225
0.00602056
0.00486316
0.00363946
0.00242717
0.00127688
0.000209198
-0.000845718
0.0118603
0.0100735
0.00931042
0.00814586
0.00683856
0.00551559
0.00423924
0.00305084
0.00196714
0.000901025
0.0147017
0.0124985
0.0114925
0.0101332
0.00869565
0.00729216
0.00596885
0.00475794
0.00367537
0.00261839
0.0172532
0.0146767
0.0134533
0.0119276
0.010386
0.00892509
0.00757497
0.00635854
0.00529326
0.0042648
0.0194284
0.0165372
0.0151364
0.013483
0.0118703
0.0103799
0.00902687
0.0078228
0.00678352
0.00579505
0.0211533
0.0180206
0.0164963
0.0147647
0.0131209
0.0116328
0.0103012
0.00911868
0.00809467
0.00715508
0.0223697
0.0190807
0.0175001
0.0157509
0.014125
0.0126775
0.0113927
0.0102303
0.00919518
0.0083395
0.0230365
0.019686
0.0181257
0.0164297
0.0148845
0.0135418
0.0123876
0.0113773
0.0105398
0.0101752
0.023125
0.019815
0.0183576
0.0167871
0.0153804
0.0141853
0.013188
0.0123439
0.011676
0.0114317
0.0226287
0.0194648
0.0181921
0.0168161
0.0155994
0.0145868
0.0137653
0.0130927
0.0125721
0.0123802
0.0215661
0.0186496
0.0176388
0.0165224
0.0155456
0.0147531
0.0141363
0.0136596
0.0133119
0.0132124
0.0199764
0.0173991
0.0167205
0.0159249
0.0152364
0.0147031
0.0143234
0.0140703
0.0139256
0.0139695
0.017918
0.0157578
0.0154724
0.0150535
0.0146991
0.0144628
0.0143519
0.0143482
0.0144316
0.0146561
0.0154639
0.0137817
0.0139393
0.0139457
0.0139671
0.0140627
0.0142498
0.0145197
0.0148539
0.015287
0.0126969
0.0115347
0.0121717
0.0126432
0.0130763
0.0135345
0.0140454
0.0146109
0.0152167
0.0158839
0.00970573
0.00908334
0.0102223
0.0111886
0.0120623
0.0129083
0.0137647
0.0146441
0.0155401
0.0164652
0.00659781
0.00649985
0.00814456
0.009623
0.0109578
0.0122107
0.0134293
0.0146374
0.0158384
0.0170431
0.00351542
0.00387423
0.00599855
0.00798876
0.00979431
0.0114655
0.0130573
0.0146043
0.0161204
0.0176227
0.000396131
0.0012164
0.00381274
0.00631234
0.00859248
0.0106878
0.0126589
0.0145497
0.0163851
0.0181974
-0.00266934
-0.00141372
0.00162794
0.00462112
0.00737061
0.00988859
0.0122388
0.0144728
0.0166234
0.0187473
-0.00560608
-0.00396337
-0.000519836
0.00293698
0.00614093
0.00907273
0.0117955
0.0143659
0.0168194
0.019243
-0.00837116
-0.00639184
-0.00260403
0.00127662
0.00491105
0.00824043
0.0113234
0.0142183
0.0169555
0.0196516
-0.0109267
-0.00865654
-0.00461672
-0.000347685
0.00368519
0.00738865
0.0108138
0.0140181
0.0170156
0.0199386
-0.0132509
-0.010746
-0.00652169
-0.00192854
0.00246496
0.00651271
0.0102572
0.0137559
0.0169966
0.020079
-0.0153293
-0.0126508
-0.00830149
-0.00345203
0.00124762
0.00560681
0.00964263
0.0134182
0.0169078
0.0200646
-0.0171538
-0.0143576
-0.00995105
-0.00491639
3.58615e-05
0.00466663
0.00896367
0.0129909
0.016787
0.0199957
-0.0187221
-0.0158585
-0.0114634
-0.00631769
-0.00117278
0.00368362
0.00820909
0.0124675
0.0164968
0.0200788
-0.0200418
-0.0171534
-0.0128337
-0.00765195
-0.0023798
0.00265172
0.0073672
0.011823
0.0161978
0.0205652
-0.0211524
-0.0182568
-0.0140617
-0.00891508
-0.00358637
0.00155396
0.00638824
0.0109217
0.0152895
0.0195462
-0.0220365
-0.0191625
-0.0151406
-0.0100984
-0.00478389
0.000399098
0.00529265
0.00986188
0.0141948
0.0183206
-0.0226987
-0.0198754
-0.0160673
-0.0111906
-0.00595306
-0.000779455
0.00414154
0.00875476
0.0131249
0.0172347
-0.023156
-0.0204068
-0.0168411
-0.0121803
-0.00707409
-0.00195385
0.0029673
0.0076153
0.0120347
0.0161682
-0.0234273
-0.0207705
-0.0174644
-0.0130589
-0.0081321
-0.00310785
0.00178136
0.00643899
0.010888
0.0150566
-0.0235322
-0.020982
-0.0179428
-0.0138214
-0.00911567
-0.00422851
0.000595396
0.00523706
0.00969579
0.0138987
-0.0234919
-0.021059
-0.0182848
-0.014466
-0.0100155
-0.00530309
-0.00057689
0.00402457
0.00847542
0.0127045
-0.0233275
-0.0210208
-0.0185024
-0.0149943
-0.0108247
-0.00632024
-0.00172301
0.00281366
0.00723903
0.0114853
-0.0230498
-0.0208806
-0.0186066
-0.0154102
-0.0115399
-0.00727226
-0.00283404
0.00161284
0.00599513
0.0102512
-0.0226514
-0.0206335
-0.0185937
-0.0157073
-0.012151
-0.00814692
-0.00389832
0.000431724
0.00475088
0.00900726
-0.0222219
-0.0203427
-0.0185088
-0.0159133
-0.0126704
-0.00894638
-0.00491319
-0.000726666
0.00350594
0.00774465
-0.0217625
-0.0200127
-0.0183607
-0.0160361
-0.0131021
-0.00967062
-0.00587717
-0.00186248
0.00225521
0.00644553
-0.0212818
-0.0196529
-0.0181616
-0.0160874
-0.0134539
-0.0103234
-0.0067918
-0.00297788
0.000993724
0.00509887
-0.0207963
-0.0192785
-0.0179271
-0.0160812
-0.0137358
-0.01091
-0.0076589
-0.00407394
-0.000281395
0.00369753
-0.0203224
-0.0189037
-0.0176727
-0.0160325
-0.0139599
-0.0114375
-0.00848164
-0.00515206
-0.00157361
0.00222962
-0.019875
-0.0185415
-0.0174132
-0.0159567
-0.0141397
-0.0119159
-0.00926533
-0.00621429
-0.00288525
0.000684262
-0.0194674
-0.0182039
-0.0171627
-0.0158698
-0.0142905
-0.0123572
-0.0100181
-0.00726418
-0.00421645
-0.000949859
-0.0191106
-0.0179013
-0.0169345
-0.0157876
-0.0144288
-0.0127759
-0.0107504
-0.00830568
-0.0055569
-0.00265634
-0.0188128
-0.0176426
-0.0167404
-0.0157249
-0.0145708
-0.0131871
-0.0114765
-0.00935319
-0.00688902
-0.00438227
-0.0185789
-0.0174345
-0.0165904
-0.0156956
-0.0147331
-0.0136079
-0.0122128
-0.0104351
-0.00818472
-0.00582694
-0.0184127
-0.0172826
-0.0164917
-0.0157087
-0.0149263
-0.0140494
-0.0129675
-0.0115766
-0.0097507
-0.00767116
-0.0183078
-0.0171847
-0.0164449
-0.015767
-0.0151541
-0.014514
-0.013732
-0.0127061
-0.0113016
-0.00957076
-0.0182564
-0.0171375
-0.0164475
-0.0158689
-0.0154144
-0.0149956
-0.0144932
-0.013797
-0.0127676
-0.0114091
-0.0182489
-0.017135
-0.0164937
-0.0160077
-0.0156988
-0.0154836
-0.0152397
-0.0148486
-0.0141686
-0.0131798
-0.0182739
-0.0171692
-0.0165743
-0.0161722
-0.0159938
-0.0159617
-0.0159529
-0.0158433
-0.015492
-0.0148574
-0.0183191
-0.01723
-0.0166776
-0.0163477
-0.0162811
-0.0164075
-0.0166057
-0.0167489
-0.0166998
-0.0163968
-0.0183727
-0.0173069
-0.0167906
-0.0165179
-0.0165397
-0.0167953
-0.0171674
-0.0175294
-0.0177497
-0.0177495
-0.0184245
-0.0173888
-0.0169002
-0.0166661
-0.0167493
-0.0171002
-0.0176088
-0.0181509
-0.0186028
-0.0188717
-0.018471
-0.0174675
-0.0169944
-0.0167771
-0.0168913
-0.0173005
-0.0179048
-0.0185854
-0.0192272
-0.0197281
)
;

boundaryField
{
    inlet
    {
        type            zeroGradient;
    }
    outlet
    {
        type            fixedValue;
        value           uniform 0;
    }
    cylinder
    {
        type            zeroGradient;
    }
    top
    {
        type            symmetryPlane;
    }
    bottom
    {
        type            symmetryPlane;
    }
    defaultFaces
    {
        type            empty;
    }
}


// ************************************************************************* //
