/*--------------------------------*- C++ -*----------------------------------*\
  =========                 |
  \\      /  F ield         | OpenFOAM: The Open Source CFD Toolbox
   \\    /   O peration     | Website:  https://openfoam.org
    \\  /    A nd           | Version:  7
     \\/     M anipulation  |
\*---------------------------------------------------------------------------*/
FoamFile
{
    version     2.0;
    format      ascii;
    class       surfaceScalarField;
    location    "9.8";
    object      phi;
}
// * * * * * * * * * * * * * * * * * * * * * * * * * * * * * * * * * * * * * //

dimensions      [0 3 -1 0 0 0 0];

internalField   nonuniform List<scalar> 
35640
(
1.68521e-05
-0.000314827
0.000297975
6.45763e-05
-0.000698057
0.000650332
0.00014249
-0.00085571
0.000777796
0.000250412
-0.000834777
0.000726855
0.000388486
-0.000668954
0.000530881
0.000557025
-0.00038356
0.000215021
0.000756429
1.45153e-06
-0.000200854
0.000987106
0.000470296
-0.000700974
0.00124935
0.00101029
-0.00127254
0.00154326
0.00161093
-0.00190484
0.00186868
0.00226328
-0.0025887
0.00222506
0.0029594
-0.00331578
0.0026114
0.00369193
-0.00407826
0.00302614
0.00445372
-0.00486847
0.00346719
0.00523768
-0.00567873
0.00393184
0.0060366
-0.00650124
0.00441677
0.0068431
-0.00732803
0.00491815
0.00764969
-0.00815107
0.00543167
0.00844884
-0.00896236
0.0059527
0.00923309
-0.00975413
0.00647641
0.00999527
-0.010519
0.00699792
0.0107287
-0.0112502
0.00751245
0.0114271
-0.0119417
0.00801552
0.0120854
-0.0125885
0.008503
0.012699
-0.0131865
0.00897133
0.0132645
-0.0137328
0.00941756
0.0137793
-0.0142255
0.00983954
0.0142413
-0.0146632
0.010236
0.0146481
-0.0150446
0.0149926
0.0106072
-0.0153638
1.64311e-05
-0.000331258
6.23398e-05
-0.000743966
0.000136664
-0.000930034
0.000239045
-0.000937158
0.000369592
-0.0007995
0.00052866
-0.000542629
0.000716686
-0.000186573
0.000934123
0.000252859
0.00118136
0.000763055
0.00145862
0.00133367
0.00176588
0.00195602
0.00210281
0.00262247
0.0024687
0.00332604
0.00286236
0.00406005
0.00328211
0.00481793
0.00372569
0.00559301
0.00419033
0.00637846
0.0046727
0.00716732
0.00516903
0.00795251
0.00567515
0.00872697
0.00618664
0.00948379
0.00669894
0.0102164
0.00720749
0.0109186
0.00770792
0.011585
0.0081961
0.0122108
0.00866838
0.0127922
0.00912162
0.013326
0.00955339
0.0138095
0.0099621
0.0142394
0.0146074
0.0103473
1.59674e-05
-0.000347226
5.99023e-05
-0.0007879
0.000130412
-0.00100054
0.000227048
-0.00103379
0.00034994
-0.000922392
0.000499498
-0.000692186
0.000676217
-0.000363293
0.000880624
4.84523e-05
0.00111318
0.000530497
0.0013742
0.00107265
0.0016638
0.00166642
0.00198181
0.00230445
0.00232775
0.0029801
0.00270071
0.00368709
0.00309937
0.00441928
0.00352188
0.00517049
0.00396593
0.00593442
0.00442866
0.00670458
0.00490679
0.00747438
0.00539662
0.00823714
0.00589415
0.00898626
0.00639516
0.00971535
0.0068954
0.0104184
0.00739063
0.0110897
0.00787686
0.0117246
0.00835035
0.0123187
0.00880789
0.0128685
0.00924685
0.0133705
0.00966535
0.0138209
0.0142103
0.0100624
1.54241e-05
-0.00036265
5.71067e-05
-0.000829583
0.000123484
-0.00106692
0.00021408
-0.00112439
0.000329071
-0.00103738
0.000468963
-0.000832078
0.000634346
-0.000528675
0.000825811
-0.000143013
0.00104391
0.000312403
0.00128903
0.000827524
0.0015614
0.00139405
0.00186099
0.00200487
0.00218747
0.00265362
0.0025402
0.00333436
0.00291813
0.00404136
0.00331976
0.00476886
0.00374315
0.00551102
0.00418591
0.00626183
0.00464518
0.00701511
0.0051177
0.00776462
0.00559989
0.00850407
0.00608793
0.00922731
0.00657785
0.00992844
0.00706565
0.0106019
0.00754745
0.0112428
0.0080196
0.0118466
0.00847884
0.0124092
0.00892242
0.012927
0.00934822
0.0133951
0.0138037
0.0097548
1.47406e-05
-0.000377391
5.3879e-05
-0.000868721
0.000115737
-0.00112878
0.000199896
-0.00120855
0.00030665
-0.00114414
0.000436612
-0.000962039
0.000590495
-0.000682559
0.000768998
-0.000321515
0.000972744
0.000108657
0.00120221
0.000598058
0.0014577
0.00113857
0.00173929
0.00172327
0.00204682
0.00234609
0.0023798
0.00300138
0.00273741
0.00368374
0.00311847
0.00438781
0.00352135
0.00510814
0.00394403
0.00583915
0.00438406
0.00657508
0.0048386
0.00731008
0.00530446
0.00803821
0.00577818
0.00875359
0.00625612
0.0094505
0.00673455
0.0101235
0.00720979
0.0107676
0.00767828
0.0113781
0.0081368
0.0119507
0.00858253
0.0124812
0.00901317
0.0129644
0.0133901
0.00942683
1.39036e-05
-0.000391294
5.01253e-05
-0.000904943
0.00010701
-0.00118566
0.000184261
-0.0012858
0.000282335
-0.00124221
0.000402006
-0.00108171
0.000544136
-0.000824689
0.00070954
-0.000486919
0.000898931
-8.07341e-05
0.00111287
0.000384118
0.00135174
0.000899697
0.00161571
0.00145931
0.00190471
0.00205708
0.00221842
0.00268767
0.0025562
0.00334596
0.00291708
0.00402693
0.00329973
0.00472549
0.00370243
0.00543644
0.0041231
0.00615442
0.00455926
0.00687392
0.00500809
0.00758937
0.00546651
0.00829517
0.00593118
0.00898582
0.00639868
0.00965601
0.00686553
0.0103007
0.00732835
0.0109152
0.00778397
0.0114951
0.00822958
0.0120356
0.00866275
0.0125313
0.0129716
0.00908121
1.28732e-05
-0.000404168
4.57733e-05
-0.000937843
9.71703e-05
-0.00123706
0.000166969
-0.0013556
0.000255852
-0.00133109
0.000364791
-0.00119065
0.000494817
-0.000954716
0.000646891
-0.000638992
0.00082183
-0.000255673
0.00102028
0.000185669
0.00124269
0.000677283
0.00148932
0.00121268
0.00176018
0.00178622
0.00205507
0.00239279
0.00237347
0.00302755
0.00271463
0.00368577
0.00307742
0.0043627
0.00346041
0.00505345
0.0038618
0.00575303
0.00427944
0.00645628
0.00471086
0.00715795
0.0051533
0.00785273
0.00560377
0.00853535
0.00605911
0.00920067
0.00651609
0.00984374
0.00697153
0.0104598
0.00742237
0.0110443
0.00786585
0.0115921
0.00829942
0.0120977
0.0125505
0.0087205
1.16259e-05
-0.000415793
4.07548e-05
-0.000966972
8.61035e-05
-0.00128241
0.000147857
-0.00141735
0.000226976
-0.00141021
0.000324671
-0.00128834
0.000442178
-0.00107222
0.000580613
-0.000777427
0.000740913
-0.000415973
0.000923816
2.76644e-06
0.00112985
0.000471245
0.00135934
0.000983189
0.00161238
0.00153318
0.00188883
0.00211634
0.00218833
0.00272806
0.00251022
0.00336388
0.0028536
0.00401932
0.00321723
0.00468982
0.00359958
0.00537069
0.00399878
0.00605709
0.00441265
0.00674407
0.00483875
0.00742663
0.00527439
0.00809972
0.00571668
0.00875838
0.00616266
0.00939776
0.00660934
0.0100131
0.00705383
0.0105998
0.00749341
0.0111526
0.00792551
0.0116656
0.0121288
0.00834722
1.01401e-05
-0.000425933
3.50208e-05
-0.000991853
7.37252e-05
-0.00132111
0.000126802
-0.00147043
0.000195545
-0.00147896
0.000281443
-0.00137424
0.000385958
-0.00117674
0.000510383
-0.000901852
0.000655789
-0.000561379
0.000823016
-0.000164461
0.00101268
0.000281585
0.00122515
0.000770715
0.0014606
0.00129774
0.00171896
0.00185797
0.00199996
0.00244706
0.00230306
0.00306077
0.00262749
0.00369488
0.00297221
0.0043451
0.00333587
0.00500702
0.00371686
0.0056761
0.00411326
0.00634767
0.0045229
0.00701699
0.00494337
0.00767925
0.00537205
0.00832969
0.00580622
0.00896358
0.00624311
0.00957624
0.00667999
0.0101629
0.00711423
0.0107183
0.0075432
0.0112366
0.0117082
0.0079638
8.40323e-06
-0.000434336
2.85373e-05
-0.00101199
5.99816e-05
-0.00135256
0.000103733
-0.00151418
0.000161466
-0.00153669
0.000234988
-0.00144776
0.000326008
-0.00126776
0.000436013
-0.00101186
0.00056622
-0.000691585
0.000717582
-0.000315823
0.000890794
0.000108374
0.0010863
0.000575205
0.00130433
0.00107971
0.00154489
0.00161742
0.00180775
0.0021842
0.0020925
0.00277603
0.00239846
0.00338893
0.00272473
0.00401883
0.00307014
0.0046616
0.00343328
0.00531296
0.00381246
0.00596849
0.00420574
0.00662371
0.00461096
0.00727404
0.00502574
0.0079149
0.00544761
0.00854171
0.005874
0.00914986
0.00630233
0.00973456
0.00673007
0.0102906
0.00715459
0.0108121
0.0112902
0.00757257
6.40657e-06
-0.000440743
2.12883e-05
-0.00102687
4.48547e-05
-0.00137612
7.86311e-05
-0.00154796
0.000124725
-0.00158278
0.000185288
-0.00150833
0.000262301
-0.00134477
0.000357454
-0.00110701
0.000472128
-0.000806258
0.000607394
-0.000451089
0.000764037
-4.82698e-05
0.000942578
0.000396664
0.0011433
0.000878984
0.00136626
0.00139446
0.00161131
0.00193915
0.0018781
0.00250925
0.00216604
0.00310098
0.00247435
0.00371052
0.00280201
0.00433395
0.00314775
0.00496721
0.00351008
0.00560616
0.00388727
0.00624652
0.00427736
0.00688395
0.00467822
0.00751404
0.00508757
0.00813237
0.00550303
0.0087344
0.0059222
0.00931539
0.00634262
0.00987016
0.00676164
0.0103931
0.0108761
0.00717577
4.14864e-06
-0.000444892
1.32781e-05
-0.001036
2.83625e-05
-0.00139121
5.15358e-05
-0.00157113
8.53814e-05
-0.00161663
0.000132426
-0.00155537
0.00019493
-0.00140727
0.000274807
-0.00118689
0.000373604
-0.000905056
0.000492523
-0.000570008
0.000632446
-0.000188193
0.00079397
0.00023514
0.00097744
0.000695514
0.00118297
0.00118892
0.00141048
0.00171164
0.00165965
0.00226007
0.00193001
0.00283063
0.00222084
0.00341969
0.00253125
0.00402354
0.0028601
0.00463836
0.00320605
0.0052602
0.00356755
0.00588502
0.00394284
0.00650867
0.00432995
0.00712693
0.00472681
0.00773551
0.00513122
0.00832999
0.00554089
0.00890572
0.00595346
0.00945759
0.00636623
0.00998033
0.0104667
0.00677559
1.6343e-06
-0.000446526
4.53098e-06
-0.00103889
1.05612e-05
-0.00139724
2.25442e-05
-0.00158311
4.35785e-05
-0.00163766
7.65837e-05
-0.00158837
0.000124116
-0.0014548
0.000188317
-0.00125109
0.000270911
-0.00098765
0.000373234
-0.000672331
0.000496271
-0.00031123
0.000640705
9.0706e-05
0.000806948
0.000529271
0.000995176
0.0010007
0.00120535
0.00150147
0.00143723
0.00202819
0.0016904
0.00257746
0.00196422
0.00314587
0.00225789
0.00372987
0.00257039
0.00432586
0.0029005
0.00493009
0.00324682
0.0055387
0.00360774
0.00614775
0.00398147
0.00675319
0.00436609
0.00735089
0.00475954
0.00793654
0.00515965
0.00850561
0.00556411
0.00905314
0.00597018
0.00957426
0.0100628
0.00637412
-1.12693e-06
-0.000445399
-4.90826e-06
-0.00103511
-8.45419e-06
-0.00139369
-8.18748e-06
-0.00158338
-4.62085e-07
-0.00164539
1.80484e-05
-0.00160689
5.02042e-05
-0.00148696
9.83801e-05
-0.00129926
0.00016448
-0.00105375
0.00024998
-0.000757831
0.000355977
-0.000417227
0.000483243
-3.65598e-05
0.000632265
0.000380248
0.000803283
0.000829678
0.000996316
0.00130844
0.00121118
0.00181332
0.00144752
0.00234113
0.00170477
0.00288861
0.00198221
0.00345244
0.0022789
0.00402916
0.00259376
0.00461523
0.00292548
0.00520698
0.00327259
0.00580064
0.00363344
0.00639234
0.00400624
0.00697809
0.00438904
0.00755374
0.00477977
0.00811488
0.00517612
0.00865679
0.0055753
0.00917507
0.00966465
0.00597345
-4.11258e-06
-0.000441286
-1.49744e-05
-0.00102425
-2.85501e-05
-0.00138012
-4.0445e-05
-0.00157148
-4.64401e-05
-0.00163939
-4.2794e-05
-0.00161053
-2.63388e-05
-0.00150342
5.53404e-06
-0.00133114
5.49092e-05
-0.00110312
0.000123406
-0.000826327
0.000212237
-0.000506059
0.000322273
-0.000146596
0.000454082
0.000248439
0.000607974
0.000675787
0.000784032
0.00113238
0.000982136
0.00161521
0.00120198
0.00212128
0.00144308
0.00264752
0.00170477
0.00319075
0.00198622
0.00374772
0.00228641
0.00431504
0.00260415
0.00488924
0.00293809
0.00546671
0.00328667
0.00604375
0.00364822
0.00661654
0.00402087
0.00718109
0.00440258
0.00773317
0.00479105
0.00826832
0.0051834
0.00878272
0.0092724
0.00557566
-7.29953e-06
-0.000433986
-2.55808e-05
-0.00100597
-4.9555e-05
-0.00135614
-7.39576e-05
-0.00154708
-9.39793e-05
-0.00161937
-0.000105461
-0.00159905
-0.000104929
-0.00150395
-8.95445e-05
-0.00134652
-5.70449e-05
-0.00113562
-5.66609e-06
-0.000877706
6.59281e-05
-0.000577654
0.000158708
-0.000239376
0.000273333
0.000133814
0.000410191
0.000538929
0.000569434
0.000973135
0.000751011
0.00143364
0.000954677
0.00191762
0.00118002
0.00242218
0.00142644
0.00294433
0.00169318
0.00348097
0.00197931
0.00402891
0.00228374
0.00458481
0.00260517
0.00514527
0.00294219
0.00570674
0.00329315
0.00626558
0.00365627
0.00681797
0.00402951
0.00735993
0.00441053
0.0078873
0.00479634
0.0083969
0.00888591
0.00518283
-1.06548e-05
-0.000423331
-3.66213e-05
-0.000980002
-7.12615e-05
-0.0013215
-0.000108401
-0.00150994
-0.000142632
-0.00158514
-0.000169379
-0.0015723
-0.000184872
-0.00148845
-0.000186048
-0.00134534
-0.000170473
-0.0011512
-0.000136236
-0.000911943
-8.18772e-05
-0.000632012
-6.31921e-06
-0.000314934
9.11926e-05
3.63024e-05
0.000211133
0.000418989
0.000353735
0.000830532
0.000519018
0.00126835
0.000706812
0.00172982
0.000916769
0.00221222
0.00114837
0.00271273
0.00140093
0.00322841
0.00167361
0.00375623
0.00196537
0.00429305
0.00227502
0.00483561
0.0026012
0.00538056
0.00294234
0.00592444
0.00329666
0.00646365
0.00366211
0.00699448
0.00403627
0.00751314
0.00441603
0.00801715
0.00850483
0.00479711
-1.41393e-05
-0.000409192
-4.79709e-05
-0.000946171
-9.34286e-05
-0.00127604
-0.000143403
-0.00145997
-0.000191883
-0.00153666
-0.000233891
-0.00153029
-0.00026537
-0.00145697
-0.000283049
-0.00132766
-0.000284321
-0.00114993
-0.00026714
-0.000929125
-0.000229919
-0.000669233
-0.000171471
-0.000373383
-9.09371e-05
-4.42311e-05
1.22507e-05
0.000315801
0.000138414
0.000704369
0.000287654
0.00111911
0.00045988
0.0015576
0.000654823
0.00201728
0.000872043
0.0024955
0.00111093
0.00298952
0.00137072
0.00349645
0.00165047
0.00401331
0.00194905
0.00453703
0.00226515
0.00506446
0.00259726
0.00559233
0.00294359
0.00611732
0.00330204
0.00663602
0.00367008
0.0071451
0.00404444
0.0076428
0.00812859
0.00442068
-1.7708e-05
-0.000391484
-5.94872e-05
-0.000904392
-0.000115785
-0.00121975
-0.000178544
-0.00139721
-0.000241159
-0.00147405
-0.000298264
-0.00147319
-0.000345535
-0.0014097
-0.000379503
-0.0012937
-0.000397407
-0.00113202
-0.000397062
-0.00092947
-0.000376764
-0.000689532
-0.000335207
-0.000414939
-0.00027143
-0.000108008
-0.000184761
0.000229132
-7.47844e-05
0.000594392
5.86949e-05
0.000985634
0.000215675
0.00140062
0.000395973
0.00183698
0.000599232
0.00229225
0.000824931
0.00276382
0.00107238
0.00324899
0.00134073
0.00374497
0.00162891
0.00424885
0.00193569
0.00475768
0.00225957
0.00526845
0.00259875
0.00577814
0.00295107
0.00628371
0.00331385
0.00678232
0.00368362
0.00727302
0.00775641
0.0040558
-2.13102e-05
-0.000370174
-7.10128e-05
-0.000854689
-0.000138033
-0.00115273
-0.000213368
-0.00132187
-0.000289834
-0.00139758
-0.000361701
-0.00140132
-0.000424395
-0.00134701
-0.000474272
-0.00124382
-0.000508425
-0.00109787
-0.000524545
-0.000913351
-0.000520808
-0.000693268
-0.000495799
-0.000439949
-0.000448445
-0.000155362
-0.000377968
0.000158655
-0.000283849
0.000500273
-0.000165794
0.000867579
-2.3706e-05
0.00125853
0.000142326
0.00167095
0.000332038
0.00210253
0.000545002
0.00255085
0.000780622
0.00301337
0.00103813
0.00348746
0.00131655
0.00397042
0.00161471
0.00445952
0.00193112
0.00495204
0.002264
0.00544526
0.00261108
0.00593662
0.00296954
0.00642386
0.0033357
0.00690686
0.00738735
0.00370477
-2.48907e-05
-0.000345283
-8.23778e-05
-0.000797202
-0.000159854
-0.00107525
-0.000247387
-0.00123434
-0.000337242
-0.00130773
-0.000423348
-0.00131521
-0.000500911
-0.00126945
-0.000566128
-0.0011786
-0.000615966
-0.00104803
-0.000647999
-0.000881317
-0.000660298
-0.00068097
-0.000651335
-0.000448911
-0.00061993
-0.000186768
-0.000565195
0.000103921
-0.000486505
0.000421583
-0.000383457
0.000764531
-0.000255853
0.00113092
-0.000103679
0.00151877
7.29014e-05
0.00192595
0.000273561
0.0023502
0.000497807
0.00278913
0.000744969
0.0032403
0.00101418
0.00370121
0.00130431
0.00416939
0.00161396
0.00464238
0.00194132
0.0051179
0.00228406
0.00559388
0.00263921
0.00606871
0.00300285
0.00654322
0.00702024
0.00336996
-2.83908e-05
-0.000316892
-9.34028e-05
-0.00073219
-0.000180913
-0.00098774
-0.000280092
-0.00113516
-0.000382684
-0.00120513
-0.000482311
-0.00121559
-0.000573986
-0.00117777
-0.000653772
-0.00109881
-0.000718525
-0.00098328
-0.000765723
-0.00083412
-0.000793335
-0.000653358
-0.000799733
-0.000442514
-0.000783629
-0.000202871
-0.000744032
6.43233e-05
-0.000680205
0.000357756
-0.000591637
0.000675963
-0.000478023
0.00101731
-0.000339245
0.00138
-0.00017536
0.00176207
1.34121e-05
0.00216142
0.000226689
0.00257585
0.000463913
0.00300307
0.000724326
0.0034408
0.00100692
0.00388679
0.00131037
0.00433894
0.00163288
0.00479538
0.00197212
0.00525465
0.00232497
0.00571587
0.00268729
0.00618089
0.00665375
0.00305378
-3.17493e-05
-0.000285143
-0.000103903
-0.000660036
-0.000200867
-0.000890777
-0.00031096
-0.00102507
-0.000425444
-0.00109065
-0.00053767
-0.00110336
-0.000642488
-0.00107295
-0.000735851
-0.00100545
-0.000814529
-0.000904603
-0.000875915
-0.000772734
-0.000917895
-0.000611379
-0.000938749
-0.000421659
-0.000937094
-0.000204527
-0.000911834
3.90636e-05
-0.000862128
0.00030805
-0.000787359
0.000601194
-0.000687117
0.000917067
-0.00056118
0.00125406
-0.000409502
0.00161039
-0.000232193
0.00198411
-2.95212e-05
0.00237318
0.000198077
0.00277547
0.00044998
0.0031889
0.000725321
0.00361145
0.0010229
0.00404136
0.00134107
0.00447722
0.0016775
0.00491822
0.00202903
0.00536433
0.00239134
0.00581859
0.00628633
0.00275876
-3.49043e-05
-0.000250239
-0.000113693
-0.000581247
-0.000219371
-0.000785099
-0.000339463
-0.000904976
-0.000464798
-0.000965315
-0.000588492
-0.000979666
-0.000705262
-0.000956182
-0.000810979
-0.000899734
-0.000902347
-0.000813235
-0.000976697
-0.000698384
-0.00103185
-0.00055623
-0.001066
-0.000387506
-0.00107769
-0.000192839
-0.00106572
2.71007e-05
-0.00102917
0.000271497
-0.000967314
0.000539336
-0.000879646
0.000829399
-0.00076585
0.00114027
-0.000625784
0.00147032
-0.00045946
0.00181779
-0.000267039
0.00218076
-4.8832e-05
0.00255727
0.000194686
0.00294538
0.00046283
0.00334331
0.000754615
0.00374957
0.0010686
0.00416324
0.00140267
0.00458415
0.00175375
0.00501325
0.00211739
0.00545495
0.00591622
0.00248749
-3.77945e-05
-0.000212444
-0.00012259
-0.000496452
-0.000236085
-0.000671604
-0.000365083
-0.000775978
-0.000500032
-0.000830367
-0.00063385
-0.000845848
-0.000761154
-0.000828877
-0.000877756
-0.000783132
-0.000980321
-0.000710671
-0.00106614
-0.000612567
-0.00113297
-0.000489393
-0.00117898
-0.000341503
-0.00120261
-0.000169206
-0.00120261
2.71009e-05
-0.00117796
0.000246844
-0.00112785
0.000489231
-0.00105171
0.000753255
-0.00094913
0.00103769
-0.000819898
0.00134109
-0.000663948
0.00166184
-0.000481357
0.00199817
-0.000272331
0.00234824
-3.7199e-05
0.00271025
0.000223559
0.00308255
0.000509248
0.00346388
0.000818798
0.00385369
0.00115051
0.00425243
0.0015017
0.00466206
0.001868
0.00508865
0.00554141
0.00224282
-4.03611e-05
-0.000172083
-0.000130417
-0.000406396
-0.000250684
-0.000551336
-0.000387324
-0.000639338
-0.000530456
-0.000687235
-0.000672843
-0.000703461
-0.000809031
-0.00069269
-0.000934798
-0.000657364
-0.00104679
-0.000598676
-0.00114228
-0.000517076
-0.00121901
-0.000412665
-0.00127509
-0.000285428
-0.00130893
-0.000135368
-0.00131921
3.73811e-05
-0.00130485
0.000232483
-0.00126498
0.000449369
-0.00119897
0.000687244
-0.00110636
0.000945079
-0.00098689
0.00122162
-0.000840448
0.0015154
-0.000667072
0.00182479
-0.000466911
0.00214808
-0.000240191
0.00248353
1.2801e-05
0.00282956
0.000291705
0.00318498
0.000595981
0.00354941
0.000924675
0.00392374
0.00127596
0.00431077
0.00164611
0.0047185
0.00515955
0.00202796
-4.25496e-05
-0.000129534
-0.000137012
-0.000311934
-0.000262865
-0.000425483
-0.000405718
-0.000496486
-0.00055542
-0.000537533
-0.000704615
-0.000554266
-0.000847806
-0.000549499
-0.000980762
-0.000524408
-0.00110014
-0.000479303
-0.0012032
-0.000414012
-0.00128769
-0.000328178
-0.00135169
-0.000221423
-0.00139361
-9.34536e-05
-0.00141207
5.58501e-05
-0.00140598
0.000226384
-0.00137441
0.000417804
-0.0013167
0.000629531
-0.00123236
0.000860743
-0.00112113
0.00111038
-0.000982892
0.00137716
-0.000817718
0.00165962
-0.000625774
0.00195614
-0.00040728
0.00226503
-0.000162421
0.0025847
0.000108734
0.00291382
0.000406265
0.00325188
0.000730299
0.00359971
0.00108063
0.00396045
0.00145526
0.00434387
0.00476789
0.00184692
-4.43119e-05
-8.52217e-05
-0.00014223
-0.000214016
-0.000272357
-0.000295356
-0.000419844
-0.000348998
-0.000574331
-0.000383046
-0.000728376
-0.000400221
-0.000876465
-0.00040141
-0.00101438
-0.000386493
-0.00113879
-0.000354888
-0.001247
-0.000305803
-0.00133676
-0.000238425
-0.00140616
-0.000152024
-0.00145359
-4.60189e-05
-0.0014777
7.99555e-05
-0.00147734
0.000226024
-0.0014516
0.000392067
-0.00139979
0.000577724
-0.00132145
0.000782397
-0.00121631
0.00100524
-0.00108433
0.00124519
-0.000925671
0.00150096
-0.000740615
0.00177108
-0.000529525
0.00205394
-0.000292682
0.00234785
-3.00826e-05
0.00265122
0.00025883
0.00296296
0.000575394
0.00328314
0.000921792
0.00361405
0.00129989
0.00396577
0.0043628
0.00170499
-4.56071e-05
-3.96147e-05
-0.000145946
-0.000113677
-0.000278924
-0.000162378
-0.000429336
-0.000198586
-0.000586667
-0.000225715
-0.000743421
-0.000243466
-0.000894091
-0.00025074
-0.00103449
-0.000246096
-0.00116132
-0.000228051
-0.00127193
-0.000195195
-0.00136409
-0.000146263
-0.00143594
-8.01769e-05
-0.00148589
3.92395e-06
-0.00151257
0.000106642
-0.00151488
0.000228329
-0.0014919
0.000369086
-0.00144295
0.00052878
-0.0013676
0.000707041
-0.00126562
0.000903267
-0.00113707
0.00111664
-0.000982224
0.00134611
-0.000801589
0.00159045
-0.000595813
0.00184817
-0.000365537
0.00211758
-0.000111107
0.00239679
0.000167935
0.00268392
0.000473561
0.00297752
0.000810129
0.00327748
0.00118548
0.00359042
0.0039372
0.00161108
-4.64025e-05
6.78771e-06
-0.000148063
-1.20168e-05
-0.000282379
-2.80619e-05
-0.000433894
-4.70714e-05
-0.000591991
-6.76175e-05
-0.000749154
-8.63035e-05
-0.000899896
-9.99987e-05
-0.00104007
-0.000105922
-0.00116644
-0.000101684
-0.00127638
-8.52516e-05
-0.00136773
-5.4911e-05
-0.00143867
-9.23941e-06
-0.00148764
5.28949e-05
-0.00151333
0.000132331
-0.00151464
0.00022964
-0.0014907
0.000345143
-0.00144085
0.000478929
-0.00136467
0.000630864
-0.001262
0.000800601
-0.00113296
0.000987593
-0.000977953
0.0011911
-0.000797676
0.00141017
-0.0005931
0.00164359
-0.000365347
0.00188982
-0.000115442
0.00214689
0.000156282
0.0024122
0.000451243
0.00268255
0.000773572
0.00295515
0.00113613
0.00322786
0.00159207
0.00348126
0.0108077
0.0887584
-0.0889589
0.0103996
0.0912119
-0.0908038
0.00973821
0.0893493
-0.0886879
0.00901297
0.0858408
-0.0851156
0.00834182
0.0820308
-0.0813597
0.00776041
0.0784933
-0.0779119
0.00726579
0.0753306
-0.074836
0.00684293
0.0725087
-0.0720858
0.00647483
0.0699892
-0.0696211
0.0061474
0.0677464
-0.067419
0.00584803
0.0657784
-0.0654791
0.0055675
0.064099
-0.0638184
0.00529844
0.0627204
-0.0624514
0.00503612
0.0616409
-0.0613786
0.0047767
0.0608356
-0.0605762
0.00451748
0.0602646
-0.0600054
0.00425674
0.0598822
-0.0596214
0.00399246
0.059645
-0.0593807
0.00372412
0.0595155
-0.0592472
0.00345106
0.0594645
-0.0591915
0.00317333
0.0594704
-0.0591926
0.00289117
0.0595144
-0.0592322
0.00260475
0.0595841
-0.0592977
0.00231476
0.0596667
-0.0593767
0.00202113
0.0597532
-0.0594596
0.00172418
0.0598359
-0.059539
0.0014237
0.0599107
-0.0596102
0.00111984
0.0599782
-0.0596743
0.000813389
0.06004
-0.0597336
0.0600687
-0.0597628
0.0107243
0.0883814
0.0104331
0.091503
0.0098429
0.0899395
0.00915334
0.0865304
0.00849776
0.0826864
0.0079222
0.0790688
0.00742955
0.0758233
0.0070067
0.0729316
0.00663737
0.0703586
0.00630741
0.0680764
0.00600453
0.0660813
0.00571947
0.064384
0.0054454
0.0629945
0.00517762
0.0619087
0.00491253
0.0611007
0.00464732
0.0605298
0.00438008
0.0601494
0.00410897
0.0599161
0.00383335
0.0597911
0.00355238
0.0597455
0.00326637
0.0597564
0.00297524
0.0598055
0.0026795
0.0598798
0.00237965
0.0599666
0.00207574
0.0600571
0.00176812
0.0601435
0.0014566
0.0602222
0.0011414
0.0602934
0.000823443
0.060358
0.0603865
0.0106169
0.0878269
0.0104479
0.091672
0.00993477
0.0904527
0.0092853
0.0871799
0.00864813
0.0833236
0.00807995
0.079637
0.00759015
0.0763131
0.00716788
0.0733538
0.00679777
0.0707287
0.00646563
0.0684085
0.00615959
0.0663873
0.00587036
0.0646733
0.00559159
0.0632733
0.00531859
0.0621817
0.005048
0.0613713
0.00477695
0.0608008
0.00450334
0.060423
0.00422551
0.0601939
0.00394265
0.060074
0.00365384
0.0600343
0.00335956
0.0600507
0.0030595
0.0601056
0.00275448
0.0601848
0.00244474
0.0602763
0.00213056
0.0603713
0.00181225
0.0604618
0.00148968
0.0605448
0.00116313
0.0606199
0.000833602
0.0606875
0.0607161
0.0104863
0.0870954
0.0104438
0.0917145
0.0100133
0.0908832
0.00940826
0.0877849
0.00879246
0.0839394
0.00823337
0.0801961
0.0077473
0.0767991
0.00732621
0.0737749
0.00695569
0.0710992
0.00662182
0.0687424
0.00631302
0.0666961
0.00602007
0.0649662
0.00573686
0.0635565
0.00545894
0.0624596
0.00518303
0.0616472
0.00490629
0.0610776
0.00462649
0.0607028
0.00434201
0.0604784
0.00405192
0.0603641
0.00375541
0.0603308
0.0034528
0.0603533
0.00314394
0.0604144
0.00282956
0.0604992
0.00250999
0.0605959
0.00218555
0.0606957
0.00185656
0.0607908
0.00152293
0.0608784
0.00118502
0.0609579
0.000843855
0.0610287
0.0610576
0.0103332
0.086189
0.0104208
0.0916269
0.0100779
0.0912261
0.00952169
0.0883411
0.00893033
0.0845307
0.00838206
0.0807444
0.00790056
0.0772806
0.00748129
0.0741942
0.00711095
0.0714695
0.00677584
0.0690775
0.00646461
0.0670074
0.00616837
0.0652625
0.0058811
0.0638438
0.0055986
0.0627421
0.00531759
0.0619282
0.00503526
0.0613599
0.00474943
0.0609886
0.00445841
0.0607694
0.00416113
0.0606614
0.00385699
0.060635
0.00354606
0.0606642
0.00322847
0.060732
0.00290474
0.0608229
0.00257537
0.0609253
0.00224069
0.0610304
0.00190098
0.0611305
0.0015563
0.0612231
0.00120701
0.0613071
0.000854186
0.0613815
0.0614111
0.0101585
0.0851117
0.010379
0.0914065
0.0101284
0.0914766
0.00962516
0.0888444
0.00906126
0.0850946
0.00852562
0.08128
0.00804969
0.0777566
0.00763286
0.074611
0.0072632
0.0718392
0.00692737
0.0694133
0.00661422
0.0673205
0.00631512
0.0655615
0.0060242
0.0641347
0.00573743
0.0630289
0.00545156
0.0622141
0.00516385
0.0616476
0.00487211
0.0612804
0.00457465
0.0610669
0.00427025
0.0609658
0.00395853
0.0609467
0.00363934
0.0609834
0.00331302
0.0610583
0.00297998
0.061156
0.00264082
0.0612644
0.00229592
0.0613753
0.0019455
0.061481
0.00158977
0.0615788
0.00122909
0.0616678
0.000864584
0.061746
0.0617767
0.00996341
0.0838688
0.0103187
0.0910512
0.0101645
0.0916307
0.00971826
0.0892907
0.00918481
0.0856281
0.00866365
0.0818012
0.00819435
0.0782259
0.0077806
0.0750248
0.00741215
0.0722077
0.00707615
0.0697493
0.00676162
0.0676351
0.00646017
0.065863
0.00616603
0.0644288
0.00587533
0.0633196
0.00558489
0.0625045
0.00529201
0.0619405
0.00499448
0.0615779
0.00469067
0.0613707
0.00437926
0.0612772
0.00405997
0.061266
0.00373259
0.0613108
0.00339755
0.0613934
0.00305524
0.0614983
0.00270629
0.0616134
0.00235118
0.0617304
0.00199008
0.0618421
0.00162332
0.0619456
0.00125123
0.0620399
0.00087504
0.0621222
0.0621543
0.00974921
0.0824668
0.0102403
0.0905601
0.0101861
0.0916849
0.00980066
0.0896762
0.00930062
0.0861281
0.00879581
0.082306
0.00833419
0.0786875
0.0079242
0.0754347
0.0075575
0.0725744
0.0072219
0.0700849
0.00690658
0.0679504
0.00660332
0.0661663
0.00630646
0.0647257
0.0060122
0.0636138
0.00571749
0.0627992
0.00541967
0.0622383
0.00511649
0.0618811
0.00480644
0.0616807
0.00448811
0.0615955
0.00416128
0.0615928
0.00382575
0.0616463
0.00348201
0.0617371
0.00313046
0.0618499
0.00277175
0.0619721
0.00240645
0.0620957
0.0020347
0.0622138
0.0016569
0.0623234
0.00127343
0.0624234
0.000885537
0.0625101
0.0625441
0.00951737
0.0809133
0.0101446
0.0899328
0.0101932
0.0916364
0.00987213
0.0899972
0.00940836
0.0865919
0.00892174
0.0827926
0.00846887
0.0791403
0.00806334
0.0758403
0.00769896
0.0729387
0.00736437
0.0704195
0.00704889
0.0682659
0.00674441
0.0664707
0.00644534
0.0650248
0.00614795
0.0639112
0.00584928
0.0630979
0.00554676
0.0625408
0.00523811
0.0621897
0.00492191
0.0619969
0.00459676
0.0619206
0.00426243
0.0619271
0.00391881
0.0619899
0.00356639
0.0620895
0.00320563
0.0622106
0.00283716
0.0623405
0.00246168
0.0624712
0.00207932
0.0625962
0.0016905
0.0627122
0.00129566
0.0628182
0.00089606
0.0629097
0.0629461
0.00926947
0.0792164
0.0100323
0.08917
0.0101859
0.0914828
0.00993253
0.0902506
0.00950774
0.0870167
0.00904115
0.0832592
0.00859807
0.0795834
0.00819768
0.0762407
0.00783621
0.0733002
0.00750327
0.0707524
0.00718828
0.0685809
0.00688323
0.0667758
0.00658252
0.0653255
0.00628246
0.0642112
0.00598019
0.0634002
0.00567323
0.0628478
0.0053593
0.0625037
0.00503705
0.0623192
0.00470517
0.0622525
0.0043634
0.0622689
0.00401172
0.0623416
0.00365063
0.0624506
0.0032807
0.0625806
0.0029025
0.0627187
0.00251684
0.0628569
0.0021239
0.0629891
0.00172409
0.063112
0.0013179
0.0632244
0.000906597
0.063321
0.0633602
0.00900717
0.077385
0.0099045
0.0882726
0.0101646
0.0912227
0.00998181
0.0904334
0.00959856
0.0873999
0.00915375
0.083704
0.00872149
0.0800157
0.00832692
0.0766352
0.00796894
0.0736582
0.0076383
0.0710831
0.00732452
0.0688946
0.00701956
0.0670807
0.00671783
0.0656272
0.00641561
0.0645135
0.00611012
0.0637057
0.00579899
0.0631589
0.00548
0.0628227
0.00515183
0.0626473
0.0048133
0.0625911
0.00446416
0.062618
0.00410446
0.0627013
0.00373473
0.0628203
0.00335564
0.0629596
0.00296774
0.0631066
0.00257192
0.0632527
0.00216841
0.0633926
0.00175765
0.0635228
0.00134015
0.0636419
0.000917143
0.063744
0.0637864
0.00873222
0.0754283
0.00976222
0.0872426
0.0101296
0.0908553
0.01002
0.090543
0.00968067
0.0877393
0.0092593
0.0841254
0.00883883
0.0804361
0.00845074
0.0770233
0.00809683
0.0740121
0.00776917
0.0714107
0.00745733
0.0692065
0.00715321
0.0673849
0.0068511
0.0659293
0.00654726
0.0648173
0.00623898
0.064014
0.00592398
0.0634739
0.00560016
0.0631465
0.00526621
0.0629813
0.00492114
0.0629361
0.00456469
0.0629745
0.00419701
0.063069
0.00381867
0.0631987
0.00343043
0.0633479
0.00303285
0.0635042
0.00262689
0.0636586
0.00221285
0.0638067
0.00179116
0.0639445
0.00136237
0.0640707
0.000927694
0.0641787
0.0642248
0.00844643
0.073356
0.00960673
0.0860823
0.0100817
0.0903803
0.0100474
0.0905772
0.00975402
0.0880327
0.00935764
0.0845217
0.00894986
0.0808439
0.00856885
0.0774043
0.0082196
0.0743613
0.00789558
0.0717348
0.00758645
0.0695156
0.00728393
0.0676874
0.00698215
0.0662311
0.00667728
0.0651222
0.00636666
0.0643246
0.00604813
0.0637924
0.00571971
0.0634749
0.00538016
0.0633208
0.00502865