/*--------------------------------*- C++ -*----------------------------------*\
  =========                 |
  \\      /  F ield         | OpenFOAM: The Open Source CFD Toolbox
   \\    /   O peration     | Website:  https://openfoam.org
    \\  /    A nd           | Version:  7
     \\/     M anipulation  |
\*---------------------------------------------------------------------------*/
FoamFile
{
    version     2.0;
    format      ascii;
    class       volVectorField;
    location    "9.8";
    object      U;
}
// * * * * * * * * * * * * * * * * * * * * * * * * * * * * * * * * * * * * * //

dimensions      [0 1 -1 0 0 0 0];

internalField   nonuniform List<vector> 
18000
(
(0.000434168 -0.00919643 3.49147e-21)
(0.00260838 -0.0202182 0)
(0.00675786 -0.0244518 0)
(0.0121585 -0.0233148 0)
(0.0187112 -0.0178131 -1.16164e-21)
(0.0262559 -0.00870578 5.87899e-21)
(0.0346778 0.00340881 -1.19102e-21)
(0.0438846 0.0180557 1.19918e-21)
(0.0537958 0.0348518 0)
(0.0643365 0.0534786 -3.62858e-21)
(0.0754337 0.0736633 -1.21409e-21)
(0.0870117 0.0951613 0)
(0.0989881 0.117744 2.42026e-21)
(0.111272 0.141189 2.42722e-21)
(0.123763 0.165273 -4.8435e-21)
(0.136352 0.18977 -4.83519e-21)
(0.148924 0.214448 0)
(0.161356 0.239074 -7.24258e-21)
(0.173525 0.263411 2.40573e-21)
(0.185306 0.287229 -7.22859e-21)
(0.196581 0.310309 2.40078e-21)
(0.207243 0.332444 0)
(0.217194 0.353453 -2.37898e-21)
(0.226355 0.373176 -2.40184e-21)
(0.234663 0.391486 0)
(0.242073 0.408285 0)
(0.248563 0.423503 -4.82911e-21)
(0.254132 0.437091 -4.83817e-21)
(0.258803 0.448991 -4.90664e-21)
(0.262495 0.459005 5.17522e-21)
(0.000692082 -0.00966735 4.97651e-21)
(0.00312417 -0.0215287 8.68576e-21)
(0.0072457 -0.0265423 -8.90627e-21)
(0.0123806 -0.0261486 -9.0965e-21)
(0.0184647 -0.0213679 -2.31829e-21)
(0.0253714 -0.0129684 7.02951e-21)
(0.0330144 -0.00155479 -9.48728e-21)
(0.0413249 0.0123959 -9.56407e-21)
(0.0502416 0.0285023 9.6187e-21)
(0.0597074 0.0464489 9.65836e-21)
(0.0696662 0.0659689 -4.83189e-21)
(0.080058 0.0868269 -9.67908e-21)
(0.0908178 0.108805 -4.85489e-21)
(0.101873 0.131694 9.66215e-21)
(0.113143 0.155285 -9.64213e-21)
(0.124539 0.179366 9.65023e-21)
(0.135963 0.203722 -1.92548e-20)
(0.147312 0.228131 1.44039e-20)
(0.158481 0.252369 -9.5651e-21)
(0.169361 0.276213 4.80681e-21)
(0.179846 0.299449 -9.53912e-21)
(0.189836 0.321871 0)
(0.199242 0.343292 4.89269e-21)
(0.207983 0.363545 -9.52348e-21)
(0.215996 0.38249 9.5381e-21)
(0.22323 0.400013 0)
(0.229655 0.416028 -4.73079e-21)
(0.235267 0.430461 4.72646e-21)
(0.240054 0.443225 1.91681e-20)
(0.243886 0.454082 1.02588e-20)
(0.000974643 -0.0101436 -7.96897e-21)
(0.00370172 -0.0228072 -8.68556e-21)
(0.00782098 -0.0285418 1.33607e-20)
(0.0127147 -0.0288392 2.27185e-20)
(0.0183598 -0.0247361 0)
(0.0246645 -0.0170111 -9.38519e-21)
(0.0315699 -0.00627135 9.48715e-21)
(0.0390323 0.00700432 2.86442e-20)
(0.0470092 0.022435 -9.61861e-21)
(0.0554585 0.0397093 -9.65405e-21)
(0.0643391 0.0585661 2.896e-20)
(0.073606 0.0787779 9.67905e-21)
(0.083208 0.100137 0)
(0.0930879 0.122444 -1.93165e-20)
(0.103181 0.145506 2.88289e-20)
(0.113414 0.169123 -9.57443e-21)
(0.123709 0.193095 9.60351e-21)
(0.13398 0.217213 9.58288e-21)
(0.144136 0.241266 5.42265e-23)
(0.154086 0.265042 0)
(0.163734 0.28833 2.86283e-20)
(0.172994 0.310929 -1.89158e-20)
(0.18178 0.33265 9.53012e-21)
(0.190019 0.353322 0)
(0.197645 0.372796 -9.53821e-21)
(0.204607 0.390945 3.80335e-20)
(0.210871 0.407665 -2.82858e-20)
(0.216428 0.422864 -9.57421e-21)
(0.22124 0.436428 9.38654e-21)
(0.225124 0.448081 1.03044e-20)
(0.00127901 -0.0105787 0)
(0.00432656 -0.0239812 4.33802e-21)
(0.00845771 -0.0303933 8.89596e-24)
(0.0131286 -0.0313432 -2.26928e-20)
(0.0183551 -0.0278859 0)
(0.0240843 -0.0208101 -1.86906e-20)
(0.0302877 -0.010725 0)
(0.0369435 0.00188982 -2.86117e-20)
(0.0440279 0.0166541 9.57618e-21)
(0.0515147 0.033261 -1.91975e-20)
(0.0593754 0.051455 -1.92867e-20)
(0.0675766 0.0710152 -9.63654e-21)
(0.0760792 0.091742 9.61765e-21)
(0.084839 0.113448 9.56226e-21)
(0.0938046 0.13595 -9.63404e-21)
(0.102918 0.159063 -1.907e-20)
(0.112114 0.182599 1.90358e-20)
(0.121323 0.206363 0)
(0.13047 0.230155 0)
(0.139475 0.253775 0)
(0.14826 0.27702 0)
(0.156746 0.299694 0)
(0.164857 0.321609 0)
(0.172525 0.342592 -1.87568e-20)
(0.179688 0.362488 -1.89275e-20)
(0.186294 0.38116 -1.8735e-22)
(0.192309 0.39849 -1.89743e-20)
(0.197723 0.414368 -4.48593e-22)
(0.20247 0.428657 -1.94324e-20)
(0.206322 0.441046 4.02681e-20)
(0.00160177 -0.0109948 0)
(0.00499031 -0.0250821 3.89297e-20)
(0.0091416 -0.0321166 8.06623e-24)
(0.0135967 -0.0336742 -1.3588e-20)
(0.0184172 -0.0308274 4.60103e-20)
(0.0235904 -0.024373 2.80302e-20)
(0.0291176 -0.0149231 2.82577e-20)
(0.035001 -0.00295555 0)
(0.0412353 0.0111521 0)
(0.0478076 0.0270969 2.87851e-20)
(0.0547012 0.0446285 5.78212e-24)
(0.0618932 0.0635327 -6.71474e-20)
(0.0693546 0.0836183 5.74692e-20)
(0.077051 0.104707 -1.91788e-20)
(0.0849422 0.126625 1.90025e-20)
(0.0929816 0.149201 1.90296e-20)
(0.101117 0.172257 -1.89297e-20)
(0.109292 0.195611 1.89661e-20)
(0.117445 0.219078 3.77347e-20)
(0.12551 0.242465 -1.87647e-20)
(0.133419 0.265581 -3.74338e-20)
(0.141105 0.288236 3.73514e-20)
(0.148502 0.310245 -3.72857e-20)
(0.155547 0.331436 1.8757e-20)
(0.162185 0.351649 0)
(0.168365 0.370741 0)
(0.174055 0.388583 3.71315e-22)
(0.179245 0.40505 -7.43434e-20)
(0.183846 0.419981 3.72043e-20)
(0.187587 0.433039 -4.04661e-20)
(0.00194018 -0.0113761 0)
(0.00568088 -0.0260804 -3.45975e-20)
(0.00985065 -0.033686 3.54031e-20)
(0.0140908 -0.0358102 0)
(0.0185101 -0.0335429 -7.35413e-20)
(0.0231384 -0.0276883 -9.31894e-21)
(0.02801 -0.0188583 -1.88654e-20)
(0.0331496 -0.00752802 -9.47781e-21)
(0.0385693 0.00592818 0)
(0.0442702 0.0212124 -1.912e-20)
(0.0502461 0.0380805 1.91385e-20)
(0.0564825 0.0563244 3.83412e-20)
(0.0629583 0.0757597 -3.82976e-20)
(0.0696479 0.0962165 0)
(0.0765195 0.117531 -3.81207e-20)
(0.083536 0.139541 3.78591e-20)
(0.0906559 0.16208 3.78832e-20)
(0.0978335 0.184979 5.64684e-20)
(0.105018 0.208063 -5.63755e-20)
(0.112157 0.231152 7.48789e-20)
(0.119193 0.254062 3.74442e-20)
(0.126068 0.276612 -3.7352e-20)
(0.132728 0.298623 7.43334e-20)
(0.139116 0.319924 0)
(0.145183 0.340354 3.6933e-20)
(0.150881 0.359766 7.41305e-20)
(0.156183 0.378022 -3.65279e-20)
(0.161082 0.394984 3.71941e-20)
(0.165464 0.410473 3.55436e-23)
(0.169022 0.424127 -4.01155e-20)
(0.00229003 -0.011721 -3.96342e-21)
(0.0063867 -0.026973 0)
(0.0105663 -0.0350953 -4.42527e-20)
(0.0145836 -0.0377454 9.01831e-21)
(0.0185998 -0.0360293 2.75556e-20)
(0.0226895 -0.0307546 9.2909e-21)
(0.0269197 -0.0225322 3.75121e-20)
(0.0313382 -0.0118331 0)
(0.0359748 0.000974145 1.90105e-20)
(0.0408432 0.0155978 1.90151e-20)
(0.0459463 0.0317995 -1.90904e-20)
(0.051277 0.0493771 5.71893e-20)
(0.0568212 0.0681535 0)
(0.0625595 0.087966 0)
(0.0684668 0.108659 5.68289e-20)
(0.0745136 0.130079 -9.44584e-20)
(0.0806671 0.152071 3.75818e-20)
(0.0868904 0.174476 -3.75929e-20)
(0.0931428 0.19713 -3.72966e-20)
(0.0993805 0.219862 -1.11849e-19)
(0.105557 0.242499 -2.01083e-22)
(0.111626 0.264869 3.69258e-20)
(0.11754 0.286798 -7.38768e-20)
(0.123251 0.308119 3.67481e-20)
(0.128714 0.328673 -2.50527e-22)
(0.133891 0.348309 -3.68999e-20)
(0.138755 0.366882 3.688e-20)
(0.143308 0.384247 0)
(0.147408 0.400206 3.65492e-20)
(0.150723 0.414382 5.67231e-22)
(0.0026471 -0.0120229 -7.91838e-21)
(0.0070947 -0.0277469 8.6253e-21)
(0.0112675 -0.036332 -5.29547e-20)
(0.0150485 -0.0394689 -2.70019e-20)
(0.0186541 -0.0382776 3.65928e-20)
(0.0222059 -0.0335672 -5.562e-20)
(0.0258044 -0.0259443 -1.87819e-20)
(0.0295209 -0.0158733 -3.7694e-20)
(0.0334015 -0.00371572 3.78733e-20)
(0.0374723 0.0102437 -7.60542e-20)
(0.0417442 0.0257732 -3.80164e-20)
(0.0462166 0.0426772 -1.08118e-22)
(0.0508805 0.0607852 1.90066e-20)
(0.0557213 0.079941 -5.67974e-20)
(0.0607194 0.0999967 -7.5586e-20)
(0.0658512 0.120807 2.3944e-23)
(0.0710904 0.142226 -1.12346e-22)
(0.0764071 0.164103 3.72966e-20)
(0.0817686 0.186285 3.72972e-20)
(0.0871397 0.208611 -1.01698e-23)
(0.0924832 0.230918 -2.03915e-22)
(0.0977604 0.253041 3.65353e-20)
(0.102932 0.274814 3.68297e-20)
(0.107959 0.296074 3.84645e-23)
(0.112804 0.316665 -1.09824e-19)
(0.117432 0.336433 7.27345e-20)
(0.121824 0.355233 7.32887e-20)
(0.125986 0.37291 -7.24938e-20)
(0.129756 0.389253 -3.65498e-20)
(0.132775 0.403876 -3.97395e-20)
(0.00300629 -0.0122753 -7.11641e-20)
(0.00779133 -0.0283914 -8.61315e-21)
(0.0119339 -0.0373842 4.41064e-20)
(0.0154591 -0.0409704 3.60052e-20)
(0.0186419 -0.0402811 -3.65926e-20)
(0.0216531 -0.0361224 3.7064e-20)
(0.0246266 -0.0290942 -1.86946e-20)
(0.0276567 -0.0196521 5.65174e-20)
(0.0308058 -0.00814847 -3.78734e-20)
(0.0341109 0.00514016 3.79772e-20)
(0.0375903 0.0199892 1.90323e-20)
(0.0412487 0.0362101 -1.9029e-20)
(0.0450812 0.0536385 -1.13581e-19)
(0.049077 0.0721249 7.56341e-20)
(0.0532202 0.0915281 3.77328e-20)
(0.057492 0.11171 0)
(0.0618706 0.132533 0)
(0.0663317 0.153855 -2.52098e-22)
(0.0708489 0.17553 -3.70091e-20)
(0.0753942 0.197408 0)
(0.0799377 0.219334 0)
(0.0844483 0.241152 -3.67423e-20)
(0.0888943 0.262703 0)
(0.0932439 0.283831 -7.26924e-20)
(0.0974659 0.304379 0)
(0.101532 0.324199 -3.63911e-20)
(0.10543 0.343138 7.27785e-20)
(0.109171 0.361043 -7.19892e-20)
(0.112573 0.377688 0)
(0.115255 0.392683 0)
(0.0033621 -0.012472 6.32532e-20)
(0.00846238 -0.0288951 0)
(0.0125446 -0.0382405 -8.80732e-21)
(0.0157899 -0.0422407 8.97478e-21)
(0.0185348 -0.0420331 -5.46629e-20)
(0.0209999 -0.0384171 5.91371e-24)
(0.0233529 -0.0319823 -1.86506e-20)
(0.0257105 -0.0231731 0)
(0.0281505 -0.0123308 0)
(0.0307198 0.000277334 -1.89166e-20)
(0.0334433 0.0144349 1.8935e-20)
(0.0363298 0.0299607 -3.78566e-20)
(0.0393778 0.0466969 3.79787e-20)
(0.0425792 0.0645004 0)
(0.045921 0.0832363 0)
(0.0493872 0.102773 0)
(0.0529597 0.122979 3.71181e-20)
(0.0566182 0.14372 -1.1033e-22)
(0.0603412 0.164859 3.71345e-20)
(0.0641064 0.186253 -7.34597e-20)
(0.06789 0.207756 3.67363e-20)
(0.0716673 0.229219 -1.82484e-19)
(0.0754131 0.250492 -7.28905e-23)
(0.0791023 0.271422 7.26939e-20)
(0.0827101 0.291859 -4.60395e-22)
(0.0862138 0.311653 7.1848e-20)
(0.0896075 0.330655 -7.17934e-20)
(0.0929096 0.348708 -7.21976e-20)
(0.0959175 0.365576 -1.06461e-22)
(0.0982324 0.380873 -7.75568e-20)
(0.00370826 -0.0126063 -7.89597e-21)
(0.00909288 -0.0292473 0)
(0.0130792 -0.0388904 1.75873e-20)
(0.0160169 -0.043271 -1.79217e-20)
(0.0183064 -0.0435277 1.63903e-19)
(0.0202188 -0.0404483 3.35188e-24)
(0.021955 -0.0346088 -1.86124e-20)
(0.0236534 -0.0264394 1.87386e-20)
(0.0254056 -0.0162689 -9.40419e-20)
(0.0272679 -0.00435381 0)
(0.0292705 0.00909869 0)
(0.0314259 0.0239153 -3.76668e-20)
(0.0337348 0.0399451 3.77943e-20)
(0.036191 0.057051 -3.7613e-20)
(0.0387833 0.0751038 3.7453e-20)
(0.0414978 0.0939779 0)
(0.0443186 0.113548 -1.48675e-19)
(0.0472286 0.133686 7.39076e-20)
(0.0502099 0.154262 3.69018e-20)
(0.0532444 0.175141 1.10097e-19)
(0.0563132 0.196184 0)
(0.0593969 0.21725 7.28647e-20)
(0.0624761 0.238195 7.22422e-20)
(0.0655312 0.258872 7.19699e-20)
(0.0685431 0.279135 -3.15052e-22)
(0.0714946 0.298838 -7.16171e-20)
(0.0743864 0.317832 7.1795e-20)
(0.0772422 0.33596 0)
(0.0798411 0.352982 -1.0301e-22)
(0.0817687 0.368514 1.54877e-19)
(0.00403804 -0.0126721 -6.3091e-20)
(0.00966745 -0.029438 0)
(0.0135173 -0.0393241 -7.01797e-20)
(0.0161176 -0.0440537 -8.94333e-20)
(0.0179333 -0.04476 -5.46028e-20)
(0.0192865 -0.042214 1.84024e-20)
(0.0204099 -0.0369742 -1.69454e-24)
(0.0214624 -0.0294542 -1.87016e-20)
(0.0225485 -0.0199683 1.6204e-22)
(0.0237322 -0.00876096 3.76581e-20)
(0.0250484 0.00397082 3.76103e-20)
(0.0265124 0.0180623 -3.75116e-20)
(0.0281265 0.0333696 3.76039e-20)
(0.0298855 0.0497616 -1.12467e-19)
(0.0317793 0.0671149 1.12054e-19)
(0.0337951 0.0853092 7.43938e-20)
(0.0359186 0.104224 1.85432e-19)
(0.0381347 0.123739 -3.70385e-20)
(0.0404281 0.143729 -7.33925e-20)
(0.0427837 0.164066 -1.88352e-22)
(0.0451866 0.184617 -7.2985e-20)
(0.0476215 0.205249 2.1742e-19)
(0.0500737 0.225822 -1.44661e-19)
(0.0525284 0.246198 1.43535e-19)
(0.0549716 0.266235 -7.18317e-20)
(0.0573908 0.285787 1.42947e-19)
(0.0597924 0.30471 4.42359e-22)
(0.0622051 0.32285 -1.42154e-19)
(0.0643906 0.339962 1.413e-19)
(0.06592 0.355671 7.70054e-20)
(0.00434411 -0.0126636 6.30909e-20)
(0.0101703 -0.0294583 0)
(0.0138394 -0.0395335 1.57795e-19)
(0.0160711 -0.0445824 5.36658e-20)
(0.0173952 -0.0457258 0)
(0.0181837 -0.0437123 0)
(0.0186998 -0.0390787 0)
(0.0191212 -0.0322196 0)
(0.0195636 -0.0234331 3.75714e-20)
(0.0200978 -0.01295 3.75855e-20)
(0.0207624 -0.000956169 -7.53062e-20)
(0.0215746 0.0123926 7.52666e-20)
(0.0225376 0.0269597 1.12532e-19)
(0.0236466 0.0426204 3.75206e-20)
(0.0248921 0.0592567 3.71848e-20)
(0.0262615 0.0767534 -1.1153e-19)
(0.0277416 0.0949957 -1.48003e-19)
(0.0293184 0.113867 -7.37367e-20)
(0.0309785 0.133249 7.33941e-20)
(0.0327088 0.153019 -1.46168e-19)
(0.0344972 0.173051 7.24848e-20)
(0.036332 0.193216 -1.449e-19)
(0.0382018 0.213382 7.19174e-20)
(0.0400961 0.233415 2.40469e-22)
(0.0420046 0.253177 -7.1213e-20)
(0.0439193 0.272529 -1.42793e-19)
(0.0458513 0.291327 1.41818e-19)
(0.0478327 0.309423 0)
(0.0496093 0.326569 1.2253e-22)
(0.0507381 0.342403 -1.53871e-19)
(0.00461871 -0.0125759 7.87742e-21)
(0.0105857 -0.0293009 0)
(0.0140267 -0.0395117 -7.00819e-20)
(0.0158587 -0.0448523 1.78402e-20)
(0.0166748 -0.0464225 -1.8115e-20)
(0.0168956 -0.0449422 0)
(0.0168123 -0.0409228 -1.84997e-20)
(0.0166195 -0.0347373 1.86273e-20)
(0.0164427 -0.0266659 3.74091e-20)
(0.0163579 -0.0169244 -1.12454e-19)
(0.0164065 -0.00568693 -3.75414e-20)
(0.016607 0.00690038 -7.69746e-24)
(0.0169626 0.0207086 -6.5724e-23)
(0.0174686 0.0356194 -7.47344e-20)
(0.0181153 0.0515204 -3.73238e-20)
(0.0188903 0.0683012 0)
(0.0197805 0.085852 -1.73714e-23)
(0.0207727 0.104061 7.3598e-20)
(0.0218543 0.122814 -7.30779e-20)
(0.0230138 0.141994 0)
(0.0242413 0.161481 0)
(0.0255272 0.181151 0)
(0.0268631 0.200878 0)
(0.0282415 0.220532 -1.56875e-22)
(0.0296556 0.239981 0)
(0.0311001 0.259087 0)
(0.0325901 0.277714 7.06378e-20)
(0.0341595 0.295718 7.03929e-20)
(0.0355397 0.312852 7.05304e-20)
(0.0362723 0.328766 1.59792e-22)
(0.00485381 -0.0124046 7.87171e-21)
(0.0108979 -0.0289601 -1.70908e-20)
(0.014062 -0.0392542 1.04855e-19)
(0.0154642 -0.0448603 -1.78146e-20)
(0.0157586 -0.0468483 1.80815e-20)
(0.0154117 -0.0459031 -4.41986e-24)
(0.0147404 -0.0425066 5.53315e-20)
(0.0139536 -0.0370079 -7.42882e-20)
(0.0131845 -0.0296675 1.11955e-19)
(0.0125135 -0.0206854 6.74812e-23)
(0.0119834 -0.0102229 -3.74083e-20)
(0.011613 0.00158379 7.48541e-20)
(0.0114056 0.0146138 -7.4742e-20)
(0.0113557 0.0287556 7.45589e-20)
(0.0114531 0.0439023 0)
(0.0116853 0.0599484 7.40354e-20)
(0.0120389 0.0767887 0)
(0.0125008 0.0943159 8.9159e-23)
(0.0130591 0.11242 -7.30446e-20)
(0.0137031 0.130989 -7.26963e-20)
(0.0144242 0.149908 7.23491e-20)
(0.0152147 0.169057 -7.20076e-20)
(0.016068 0.188316 -7.16756e-20)
(0.016979 0.207559 -1.42824e-19)
(0.0179431 0.22666 -7.10488e-20)
(0.0189572 0.245484 7.10588e-20)
(0.0200385 0.2639 -1.40942e-19)
(0.0212213 0.281772 -7.03947e-20)
(0.0222237 0.298855 0)
(0.0225707 0.314813 -7.68828e-20)
(0.00504124 -0.0121467 0)
(0.0110918 -0.0284324 6.82475e-20)
(0.0139292 -0.0387585 -5.24316e-20)
(0.0148739 -0.0446055 -8.88696e-20)
(0.0146366 -0.0470032 0)
(0.0137265 -0.0465951 0)
(0.0124826 -0.0438301 -1.10664e-19)
(0.0111256 -0.039031 1.48453e-19)
(0.00979469 -0.0324369 -1.11823e-19)
(0.00857272 -0.0242312 0)
(0.00750311 -0.0145619 3.7468e-20)
(0.00660454 -0.00355468 -3.74623e-20)
(0.00587931 0.00867797 1.03628e-22)
(0.00532125 0.0220314 -3.73692e-20)
(0.00491934 0.0364045 -3.71187e-20)
(0.00466031 0.0516969 -7.68567e-23)
(0.00453048 0.0678077 7.36546e-20)
(0.00451654 0.0846337 7.33904e-20)
(0.0046066 0.102069 -8.60451e-23)
(0.00479075 0.120007 1.45239e-19)
(0.00506102 0.138335 -1.44824e-19)
(0.00541085 0.156939 1.43825e-19)
(0.00583501 0.175704 7.16776e-20)
(0.00632977 0.19451 7.13576e-20)
(0.00689197 0.213232 8.18477e-23)
(0.00751944 0.231742 0)
(0.00822982 0.249914 7.06535e-20)
(0.00905625 0.267621 -2.10627e-19)
(0.00970491 0.284621 6.87922e-20)
(0.00968138 0.300593 7.62331e-20)
(0.0051729 -0.0118003 -4.71363e-20)
(0.0111531 -0.0277166 -1.53457e-19)
(0.0136146 -0.0380249 1.05637e-23)
(0.0140772 -0.0440891 1.23639e-22)
(0.0133029 -0.0468886 -5.39992e-20)
(0.0118389 -0.0470192 0)
(0.0100426 -0.0448932 -3.67394e-20)
(0.00814374 -0.0408047 -2.22266e-19)
(0.0062851 -0.0349708 1.117e-19)
(0.00455072 -0.0275569 -7.45616e-20)
(0.00298355 -0.0186977 1.12011e-19)
(0.00160128 -0.00850777 -3.73386e-20)
(0.000405101 0.00290912 7.46418e-20)
(-0.000612345 0.0154555 -1.86092e-19)
(-0.00146315 0.0290361 1.11314e-19)
(-0.00216141 0.0435556 4.05778e-23)
(-0.00272143 0.0589176 -2.20821e-19)
(-0.00315692 0.0750228 7.3413e-20)
(-0.00347981 0.0917699 -7.28629e-20)
(-0.00369976 0.109055 0)
(-0.00382431 0.126771 7.2279e-20)
(-0.00385944 0.144809 0)
(-0.00380965 0.163057 -7.17839e-20)
(-0.00367792 0.181398 7.10781e-20)
(-0.00346699 0.199715 7.09708e-20)
(-0.00317937 0.217884 7.06118e-20)
(-0.0027986 0.235785 0)
(-0.0022946 0.2533 0)
(-0.00197173 0.270194 -1.39983e-19)
(-0.00234691 0.286156 2.29687e-19)
(0.00524096 -0.0113651 4.71656e-20)
(0.0110687 -0.026814 8.52115e-20)
(0.0131066 -0.037056 -6.95852e-20)
(0.0130667 -0.0433142 1.4182e-19)
(0.0117555 -0.0465072 1.81131e-20)
(0.00975262 -0.0471768 1.81923e-20)
(0.00742947 -0.0456951 1.21469e-22)
(0.00502182 -0.0423262 -7.38305e-20)
(0.00267387 -0.0372635 -3.7085e-20)
(0.000469212 -0.0306547 1.14921e-22)
(-0.00155064 -0.02262 -1.03861e-22)
(-0.00336964 -0.0132632 -1.11867e-19)
(-0.00498811 -0.0026788 -3.72338e-20)
(-0.00641484 0.00904295 6.52483e-23)
(-0.00766316 0.0218129 7.41196e-20)
(-0.00874812 0.0355411 7.38699e-20)
(-0.00968479 0.0501353 2.45705e-23)
(-0.0104874 0.0655006 -7.32835e-20)
(-0.011168 0.0815392 7.30845e-20)
(-0.0117362 0.0981516 -7.24936e-20)
(-0.0121994 0.115235 -1.44573e-19)
(-0.0125634 0.132684 -7.21072e-20)
(-0.0128323 0.150392 1.43035e-19)
(-0.0130092 0.168246 0)
(-0.0130973 0.186134 -7.0938e-20)
(-0.0131006 0.203938 -1.41221e-19)
(-0.0130057 0.221543 -1.41012e-19)
(-0.0127873 0.238844 6.95223e-20)
(-0.012759 0.255614 -2.09358e-19)
(-0.013464 0.271551 7.6311e-20)
(0.00523807 -0.010842 -7.84227e-20)
(0.0108271 -0.0257287 1.70297e-20)
(0.0123962 -0.0358576 6.9586e-20)
(0.0118386 -0.0422865 -5.31597e-20)
(0.0099967 -0.0458634 1.80258e-20)
(0.0074759 -0.0470699 1.51701e-23)
(0.00465729 -0.0462351 1.83351e-19)
(0.00177913 -0.0435912 7.38949e-20)
(-0.00101514 -0.0393074 7.4237e-20)
(-0.00364401 -0.0335131 1.11655e-19)
(-0.00606836 -0.0263143 -1.11793e-19)
(-0.00827438 -0.0178034 7.45555e-20)
(-0.0102643 -0.00806573 1.48963e-19)
(-0.0120485 0.00281602 7.43504e-20)
(-0.0136418 0.014759 4.99104e-23)
(-0.0150601 0.0276785 -1.47657e-19)
(-0.0163195 0.0414869 1.47275e-19)
(-0.0174347 0.0560931 1.03095e-22)
(-0.0184179 0.071404 -7.31016e-20)
(-0.0192786 0.0873235 7.25105e-20)
(-0.0200245 0.103753 7.22943e-20)
(-0.0206612 0.120592 -7.19985e-20)
(-0.0211931 0.137737 -1.43425e-19)
(-0.0216237 0.155082 -3.7737e-22)
(-0.0219575 0.172519 7.07157e-20)
(-0.0222015 0.189934 7.06091e-20)
(-0.0223469 0.207225 1.41006e-19)
(-0.0223752 0.224294 -1.39486e-19)
(-0.0226077 0.240928 0)
(-0.023618 0.256826 7.69178e-20)
(0.00515756 -0.0102337 6.45178e-23)
(0.0104186 -0.0244676 0)
(0.0114775 -0.0344377 -5.20151e-20)
(0.0103927 -0.041014 -1.76766e-20)
(0.00803283 -0.0449633 -7.16392e-20)
(0.0050217 -0.0467014 0)
(0.00174503 -0.046512 -1.09874e-19)
(-0.0015599 -0.044594 3.68536e-20)
(-0.00475269 -0.0410923 0)
(-0.00775551 -0.0361175 -7.42326e-20)
(-0.0105326 -0.0297616 0)
(-0.0130728 -0.0221054 -1.11634e-19)
(-0.0153809 -0.0132251 1.11514e-19)
(-0.0174689 -0.00319564 -7.42761e-20)
(-0.0193529 0.00790648 -7.406e-20)
(-0.0210504 0.0200019 0)
(-0.0225781 0.0330077 0)
(-0.023951 0.0468372 7.34302e-20)
(-0.0251817 0.0614014 2.62286e-22)
(-0.0262798 0.0766083 7.30102e-20)
(-0.0272529 0.0923637 -7.22124e-20)
(-0.0281068 0.108571 1.44205e-19)
(-0.0288465 0.125131 -7.15205e-20)
(-0.0294761 0.141943 0)
(-0.0300025 0.158905 2.13416e-19)
(-0.0304364 0.175912 -3.53428e-19)
(-0.0307756 0.192869 6.98769e-20)
(-0.0310096 0.209692 6.99737e-20)
(-0.0314667 0.226179 6.96443e-20)
(-0.0327557 0.242032 1.5505e-19)
(0.00499372 -0.00954454 -6.25381e-20)
(0.00983608 -0.0230403 1.35535e-19)
(0.0103479 -0.0328077 6.93628e-20)
(0.00873268 -0.0395069 1.58571e-19)
(0.00587455 -0.0438141 1.96741e-19)
(0.00240742 -0.0460747 3.61999e-20)
(-0.00128368 -0.0465244 -1.8254e-19)
(-0.00496599 -0.045328 0)
(-0.00850449 -0.0426057 -1.47752e-19)
(-0.0118265 -0.03845 -7.40174e-20)
(-0.0149006 -0.0329384 0)
(-0.0177191 -0.0261406 -7.42458e-20)
(-0.0202891 -0.0181236 3.44058e-23)
(-0.0226249 -0.00895475 -2.22541e-19)
(-0.0247441 0.00129617 7.40622e-20)
(-0.0266652 0.0125552 7.39512e-20)
(-0.0284059 0.0247441 -1.4702e-19)
(-0.0299817 0.0377808 -1.467e-19)
(-0.0314051 0.0515806 -2.77745e-22)
(-0.0326859 0.0660557 -1.12476e-22)
(-0.0338318 0.0811159 0)
(-0.0348489 0.0966687 -7.22969e-20)
(-0.0357423 0.112621 -7.20841e-20)
(-0.0365176 0.128877 0)
(-0.0371841 0.145342 0)
(-0.0377573 0.161919 2.12665e-19)
(-0.0382431 0.178522 -2.11014e-19)
(-0.0386407 0.195084 0)
(-0.0392839 0.211419 2.09543e-19)
(-0.0408218 0.227221 -1.54099e-19)
(0.00474203 -0.00878034 1.38172e-22)
(0.00907473 -0.0214592 -1.35584e-19)
(0.00900793 -0.0309814 -1.73066e-20)
(0.00686616 -0.0377775 -1.76133e-19)
(0.00353666 -0.0424249 -1.07274e-19)
(-0.000345235 -0.045194 3.61293e-20)
(-0.00440078 -0.0462706 7.30666e-20)
(-0.00840533 -0.0457852 1.8346e-19)
(-0.0122316 -0.0438333 1.47756e-19)
(-0.0158135 -0.0404893 1.48256e-19)
(-0.0191248 -0.0358171 0)
(-0.0221618 -0.0298752 1.51144e-22)
(-0.0249346 -0.0227217 0)
(-0.0274596 -0.0144162 1.48396e-19)
(-0.029756 -0.0050221 0)
(-0.0318439 0.00539217 -7.39714e-20)
(-0.0337415 0.0167533 7.34591e-20)
(-0.0354649 0.028984 0)
(-0.0370266 0.042004 0)
(-0.0384366 0.0557295 -2.18785e-19)
(-0.0397026 0.0700744 7.23773e-20)
(-0.0408306 0.0849511 0)
(-0.0418261 0.100271 1.43458e-19)
(-0.042696 0.115947 1.43024e-19)
(-0.0434522 0.131889 -2.84973e-19)
(-0.0441154 0.148011 2.83587e-19)
(-0.0447006 0.16424 2.82594e-22)
(-0.0452178 0.180525 1.40513e-19)
(-0.0460055 0.196698 -1.39461e-19)
(-0.0477592 0.212446 0)
(0.00439933 -0.00794864 1.56265e-19)
(0.00813283 -0.0197395 -1.69343e-20)
(0.00746218 -0.0289753 -1.37921e-19)
(0.00480476 -0.0358407 0)
(0.00103805 -0.0408063 -1.42393e-19)
(-0.00321051 -0.0440642 0)
(-0.00757414 -0.0457492 -1.81805e-19)
(-0.01184 -0.0459568 -1.10098e-19)
(-0.0158906 -0.0447587 -1.47245e-19)
(-0.0196682 -0.0422115 0)
(-0.0231526 -0.0383659 3.70962e-20)
(-0.0263445 -0.03327 3.73656e-20)
(-0.0292573 -0.026973 -7.41403e-20)
(-0.0319099 -0.0195271 -1.48262e-19)
(-0.0343234 -0.0109893 -7.39069e-20)
(-0.0365192 -0.0014226 -2.9551e-19)
(-0.0385166 0.00910482 1.4705e-19)
(-0.0403318 0.0205205 -2.92575e-22)
(-0.0419778 0.0327485 -3.15382e-22)
(-0.0434646 0.0457091 2.18559e-19)
(-0.0447998 0.0593204 0)
(-0.0459895 0.0734992 0)
(-0.047039 0.0881629 5.26674e-22)
(-0.0479561 0.10323 2.43367e-22)
(-0.048755 0.118621 -1.42961e-19)
(-0.0494612 0.134259 -1.42507e-19)
(-0.0500993 0.150087 -5.84251e-22)
(-0.0506907 0.166073 -1.40517e-19)
(-0.0515773 0.182075 -1.402e-19)
(-0.0535087 0.197763 -5.70032e-22)
(0.00396404 -0.00705847 0)
(0.00701177 -0.0178988 1.34732e-19)
(0.00571883 -0.0268085 1.20715e-19)
(0.00256405 -0.0337131 1.75369e-20)
(-0.00159848 -0.0389705 2.84453e-19)
(-0.00615881 -0.0426912 -3.59761e-20)
(-0.0107679 -0.0449586 2.90493e-19)
(-0.0152282 -0.0458334 1.46132e-19)
(-0.0194346 -0.0453641 2.20812e-19)
(-0.0233385 -0.0435901 1.1066e-19)
(-0.026927 -0.0405498 3.70518e-20)
(-0.0302059 -0.0362812 1.85532e-19)
(-0.0331921 -0.0308253 1.80001e-22)
(-0.0359072 -0.024227 7.42478e-20)
(-0.0383747 -0.0165373 1.48055e-19)
(-0.0406173 -0.00781371 1.47759e-19)
(-0.0426554 0.00188065 0)
(-0.0445059 0.0124782 0)
(-0.0461822 0.0239071 0)
(-0.0476945 0.0360918 0)
(-0.0490506 0.0489541 1.45685e-19)
(-0.050256 0.0624154 0)
(-0.051316 0.0763981 -2.42862e-22)
(-0.0522383 0.0908276 2.87338e-19)
(-0.0530381 0.105634 1.4274e-19)
(-0.0537447 0.120753 1.42051e-19)
(-0.0543913 0.136144 2.83536e-19)
(-0.0550094 0.1518 0)
(-0.0559439 0.167613 -2.80976e-19)
(-0.0580074 0.183233 3.11897e-19)
(0.00343631 -0.00612021 1.24382e-19)
(0.00571624 -0.0159571 -1.34735e-19)
(0.00378989 -0.0245023 0)
(0.000163456 -0.0314136 -1.39663e-19)
(-0.00434641 -0.0369309 -3.58299e-20)
(-0.00915702 -0.0410819 -1.07477e-19)
(-0.0139428 -0.0438978 -3.26069e-19)
(-0.018525 -0.0454055 -3.57134e-22)
(-0.0228128 -0.0456306 -1.0998e-19)
(-0.0267685 -0.0445967 -2.57968e-19)
(-0.0303872 -0.0423305 -3.6929e-20)
(-0.0336803 -0.0388607 -1.47995e-19)
(-0.0366687 -0.0342205 -1.4811e-19)
(-0.0393773 -0.0284481 0)
(-0.0418318 -0.0215888 -1.47993e-19)
(-0.0440569 -0.013695 -2.21852e-19)
(-0.0460744 -0.00482443 7.36021e-20)
(-0.047902 0.00495982 -1.47214e-19)
(-0.049554 0.01559 -1.46835e-19)
(-0.0510414 0.0269942 0)
(-0.052372 0.0390979 -2.91627e-19)
(-0.0535512 0.051826 0)
(-0.0545835 0.0651055 -2.8971e-19)
(-0.0554757 0.0788678 -1.44554e-19)
(-0.0562424 0.0930517 -2.87026e-19)
(-0.0569138 0.107607 1.43271e-19)
(-0.0575284 0.122513 -4.26086e-19)
(-0.0581251 0.137793 1.41672e-19)
(-0.0590483 0.153383 -4.47734e-22)
(-0.061187 0.168919 -1.57667e-19)
(0.00281807 -0.00514538 -1.24385e-19)
(0.00425432 -0.0139361 1.67638e-20)
(0.00169115 -0.0220799 1.19731e-19)
(-0.00237386 -0.0289628 1.39666e-19)
(-0.00717574 -0.0347028 -1.41698e-19)
(-0.0121688 -0.0392442 3.89908e-22)
(-0.0170565 -0.0425666 1.44744e-19)
(-0.0216823 -0.0446638 -2.91303e-19)
(-0.0259718 -0.0455393 -3.63292e-20)
(-0.0298993 -0.0452021 3.31062e-19)
(-0.0334689 -0.0436679 -2.21377e-19)
(-0.0366981 -0.0409573 3.69642e-19)
(-0.0396125 -0.037096 3.70204e-19)
(-0.0422405 -0.0321166 -7.39061e-20)
(-0.0446107 -0.0260589 1.47997e-19)
(-0.04675 -0.0189701 2.21875e-19)
(-0.0486818 -0.0109033 7.397e-20)
(-0.0504256 -0.00191688 -9.91557e-23)
(-0.0519971 0.00792517 7.31834e-20)
(-0.0534084 0.0185542 7.30605e-20)
(-0.0546682 0.0298985 -7.34826e-20)
(-0.0557822 0.0418859 7.25787e-20)
(-0.0567542 0.054446 -1.45207e-19)
(-0.0575893 0.0675144 1.44314e-19)
(-0.0582988 0.0810369 -3.79869e-22)
(-0.0589098 0.0949761 1.43469e-19)
(-0.0594605 0.109331 -4.36072e-22)
(-0.0599888 0.124163 -1.41521e-19)
(-0.060831 0.139473 1.54618e-22)
(-0.0629699 0.154893 0)
(0.00211316 -0.0041464 0)
(0.00263748 -0.0118593 0)
(-0.000557939 -0.0195666 -1.53959e-19)
(-0.00502129 -0.026383 1.73978e-20)
(-0.0100534 -0.0323031 0)
(-0.015155 -0.0371879 1.42993e-19)
(-0.0200642 -0.0409662 3.60584e-20)
(-0.0246497 -0.0435998 1.09169e-19)
(-0.0288556 -0.0450716 1.46347e-19)
(-0.0326693 -0.0453765 -1.47008e-19)
(-0.0361047 -0.0445209 1.47482e-19)
(-0.0391863 -0.0425175 -1.4779e-19)
(-0.0419447 -0.0393862 -1.47954e-19)
(-0.0444124 -0.0351538 0)
(-0.0466213 -0.0298556 0)
(-0.0486011 -0.0235341 0)
(-0.0503773 -0.0162375 -1.47594e-19)
(-0.0519719 -0.00802014 2.21205e-19)
(-0.0534027 0.00105773 -7.33298e-20)
(-0.0546842 0.0109304 0)
(-0.0558268 0.0215284 2.19557e-19)
(-0.0568375 0.0327809 -7.27058e-20)
(-0.0577205 0.0446181 1.4521e-19)
(-0.0584786 0.056976 -2.90294e-19)
(-0.0591183 0.0698029 2.87909e-19)
(-0.0596582 0.0830687 6.55906e-22)
(-0.0601273 0.0967889 2.29054e-22)
(-0.0605471 0.111067 1.41966e-19)
(-0.0612252 0.125994 -7.47824e-22)
(-0.0632568 0.141235 1.58064e-19)
(0.00132726 -0.0031364 1.54007e-20)
(0.000880533 -0.00975119 -1.67328e-20)
(-0.00293445 -0.0169888 3.40383e-20)
(-0.00774902 -0.0236981 -2.07728e-19)
(-0.0129434 -0.02975 3.51796e-20)
(-0.0180742 -0.0349238 0)
(-0.0229191 -0.0390991 1.43525e-19)
(-0.027375 -0.0422066 -1.44672e-19)
(-0.0314064 -0.0442099 0)
(-0.0350151 -0.0450913 1.82998e-19)
(-0.0382254 -0.0448486 -3.67126e-20)
(-0.0410693 -0.0434878 0)
(-0.0435835 -0.0410235 -7.39744e-20)
(-0.0458047 -0.0374781 1.47792e-19)
(-0.0477688 -0.0328827 -7.3737e-20)
(-0.0495087 -0.0272753 7.40653e-20)
(-0.0510528 -0.0206999 -1.47629e-19)
(-0.0524262 -0.0132066 -4.1783e-22)
(-0.0536499 -0.00485213 -4.35228e-22)
(-0.0547417 0.00430058 -7.37097e-20)
(-0.0557155 0.014184 -1.46969e-19)
(-0.0565812 0.0247276 -9.33984e-22)
(-0.0573452 0.0358599 -5.88687e-22)
(-0.0580099 0.0475126 1.45002e-19)
(-0.0585762 0.059629 -1.45109e-19)
(-0.0590503 0.0721747 1.43897e-19)
(-0.0594416 0.085167 -2.86955e-19)
(-0.0597315 0.0987412 -2.352e-22)
(-0.0601498 0.113104 -2.8501e-19)
(-0.0618981 0.128031 1.58842e-19)
(0.000468051 -0.0021291 0)
(-0.000998315 -0.00763748 -1.32747e-19)
(-0.00541208 -0.0143742 0)
(-0.0105243 -0.0209332 4.96158e-22)
(-0.0158076 -0.0270635 3.50455e-20)
(-0.020883 -0.0324651 7.60723e-24)
(-0.0255729 -0.0369699 -2.86552e-19)
(-0.0298048 -0.0404794 1.08583e-19)
(-0.0335656 -0.0429391 0)
(-0.0368723 -0.0443199 -1.82913e-19)
(-0.0397604 -0.044612 3.66229e-20)
(-0.0422703 -0.0438158 0)
(-0.044445 -0.0419415 -7.38626e-20)
(-0.0463265 -0.0390078 7.36293e-20)
(-0.0479547 -0.0350423 7.35392e-20)
(-0.0493663 -0.0300791 1.47669e-19)
(-0.0505936 -0.0241579 -7.35846e-20)
(-0.051665 -0.0173252 0)
(-0.0526058 -0.00963382 0)
(-0.0534381 -0.00114347 1.46923e-19)
(-0.0541808 0.00808071 -1.47151e-19)
(-0.054849 0.0179685 1.45816e-19)
(-0.0554539 0.0284456 1.45772e-19)
(-0.0560012 0.0394363 1.45932e-19)
(-0.0564898 0.0508707 -1.44452e-19)
(-0.0569151 0.0626935 1.44247e-19)
(-0.0572636 0.074894 1.44379e-19)
(-0.0574595 0.087605 -1.42812e-19)
(-0.0575802 0.101155 -6.91925e-22)
(-0.0588094 0.11551 3.2028e-19)
(-0.000455491 -0.00113784 1.52985e-20)
(-0.00297837 -0.0055435 1.16165e-19)
(-0.00796198 -0.0117506 0)
(-0.0133121 -0.0181143 1.37937e-19)
(-0.0186061 -0.0242647 0)
(-0.0235369 -0.0298262 0)
(-0.0279764 -0.0345854 1.07346e-19)
(-0.0318854 -0.0384161 -5.86177e-23)
(-0.0352741 -0.0412471 3.62039e-20)
(-0.0381764 -0.0430391 3.649e-20)
(-0.0406393 -0.0437758 -1.09828e-19)
(-0.0427124 -0.0434528 7.32604e-20)
(-0.0444454 -0.0420768 0)
(-0.045886 -0.039664 0)
(-0.0470791 -0.0362388 -1.4757e-19)
(-0.0480653 -0.0318319 0)
(-0.0488811 -0.0264795 -7.39782e-20)
(-0.049559 -0.0202239 7.34731e-20)