/*--------------------------------*- C++ -*----------------------------------*\
  =========                 |
  \\      /  F ield         | OpenFOAM: The Open Source CFD Toolbox
   \\    /   O peration     | Website:  https://openfoam.org
    \\  /    A nd           | Version:  7
     \\/     M anipulation  |
\*---------------------------------------------------------------------------*/
FoamFile
{
    version     2.0;
    format      ascii;
    class       surfaceScalarField;
    location    "2.3";
    object      phi;
}
// * * * * * * * * * * * * * * * * * * * * * * * * * * * * * * * * * * * * * //

dimensions      [0 3 -1 0 0 0 0];

internalField   nonuniform List<scalar> 
35640
(
-4.03376e-05
0.00203557
-0.00199523
-0.000134747
0.00484842
-0.00475401
-0.000268142
0.00681741
-0.00668401
-0.000422204
0.00806216
-0.0079081
-0.000577893
0.0087338
-0.00857811
-0.000717364
0.00896967
-0.0088302
-0.000825304
0.0088789
-0.00877096
-0.000889398
0.00854358
-0.00847949
-0.00090025
0.0080252
-0.00801435
-0.000851244
0.00737151
-0.00742051
-0.000738397
0.0066218
-0.00673464
-0.000560067
0.00581012
-0.00598845
-0.000316726
0.00496696
-0.0052103
-1.07881e-05
0.00411975
-0.00442569
0.00035363
0.00329277
-0.00365719
0.000771016
0.00250672
-0.00292411
0.00123483
0.00177838
-0.0022422
0.00173784
0.00112034
-0.00162335
0.00227247
0.000541038
-0.00107567
0.00283113
4.49732e-05
-0.000603632
0.00340659
-0.000366957
-0.000208502
0.00399217
-0.000696832
0.000111248
0.00458192
-0.00094912
0.000359367
0.00517071
-0.00113002
0.000541237
0.00575427
-0.00124683
0.000663265
0.00632923
-0.00130737
0.000732405
0.00689297
-0.00131938
0.000755635
0.00744354
-0.00128999
0.000739429
0.00797951
-0.00122231
0.00068634
-0.00110815
0.0084991
0.000588565
-2.89905e-05
0.00206456
-0.000100755
0.00492019
-0.000205633
0.00692229
-0.000328696
0.00818523
-0.000452963
0.00885807
-0.000561769
0.00907848
-0.000640303
0.00895743
-0.000676392
0.00857967
-0.000660724
0.00800953
-0.000586751
0.00729754
-0.000450491
0.00648554
-0.000250306
0.00560994
1.32544e-05
0.0047034
0.000337685
0.00379532
0.000718787
0.00291166
0.00115097
0.00207454
0.00162756
0.00130179
0.00214121
0.000606687
0.00268429
-2.0487e-06
0.00324927
-0.00052
0.00382892
-0.000946614
0.00441667
-0.00128458
0.00500671
-0.00153916
0.00559412
-0.00171743
0.00617489
-0.0018276
0.00674585
-0.00187833
0.00730469
-0.00187822
0.0078498
-0.0018351
0.00838017
-0.00175267
-0.00162264
0.00889466
-1.76632e-05
0.00208223
-6.60887e-05
0.00496861
-0.000141064
0.00699726
-0.000231141
0.00827531
-0.000321611
0.00894854
-0.000397014
0.00915388
-0.000443202
0.00900362
-0.000448375
0.00858485
-0.000403396
0.00796455
-0.000301805
0.00719595
-0.000139705
0.00632344
8.44327e-05
0.0053858
0.000369958
0.00441787
0.00071425
0.00345103
0.00111295
0.00251296
0.00156032
0.00162717
0.00204962
0.000812496
0.00257343
8.28696e-05
0.00312412
-0.000552732
0.00369413
-0.00109001
0.00427638
-0.00152887
0.00486449
-0.00187269
0.00545287
-0.00212755
0.00603687
-0.00230144
0.00661277
-0.0024035
0.00717774
-0.0024433
0.00772979
-0.00243027
0.00826764
-0.00237294
0.00879069
-0.00227573
-0.00213049
0.00929854
-6.50523e-06
0.00208873
-3.1392e-05
0.0049935
-7.55166e-05
0.00704139
-0.000131066
0.00833086
-0.000185622
0.0090031
-0.000225192
0.00919345
-0.00023646
0.00901489
-0.000208037
0.00855642
-0.000131093
0.00788761
6.03569e-07
0.00706425
0.000190815
0.00613323
0.000440916
0.0051357
0.000750057
0.00410873
0.00111543
0.00308566
0.00153252
0.00209587
0.00199545
0.00116423
0.00249736
0.000310589
0.00303077
-0.000450544
0.00358806
-0.00111002
0.00416179
-0.00166375
0.00474507
-0.00211215
0.00533172
-0.00245935
0.0059165
-0.00271232
0.00649508
-0.00288002
0.0070641
-0.00297252
0.00762113
-0.00300032
0.00816451
-0.00297365
0.00869335
-0.00290179
0.00920748
-0.00278987
-0.00263017
0.00970716
4.33315e-06
0.0020844
2.77949e-06
0.00499505
-9.97856e-06
0.00705415
-2.99929e-05
0.00835087
-4.70617e-05
0.00902017
-4.87771e-05
0.00919517
-2.27983e-05
0.00898891
4.16175e-05
0.00849201
0.000152906
0.00777632
0.000317038
0.00690012
0.000537504
0.00591276
0.000815412
0.00485779
0.00114969
0.00377445
0.0015373
0.00269805
0.00197351
0.00165966
0.00245226
0.000685474
0.00296658
-0.000203731
0.00350898
-0.000992941
0.00407188
-0.00167292
0.004648
-0.00223988
0.0052307
-0.00269484
0.00581412
-0.00304277
0.0063934
-0.0032916
0.00696463
-0.00345125
0.00752489
-0.00353278
0.00807215
-0.00354758
0.00860517
-0.00350667
0.00912342
-0.00342004
0.00962715
-0.0032936
-0.00312028
0.0101173
1.46112e-05
0.00206979
3.5911e-05
0.00497375
5.42753e-05
0.00703578
7.04635e-05
0.00833468
9.20606e-05
0.00899857
0.000129818
0.00915741
0.000194943
0.00892379
0.000297438
0.00838951
0.000445229
0.00762853
0.000643869
0.00670148
0.000896493
0.00566014
0.0012039
0.00455039
0.0015647
0.00341365
0.00197554
0.0022872
0.00243146
0.00120374
0.00292621
0.000190724
0.0034527
-0.000730217
0.00400341
-0.00154366
0.00457089
-0.00224039
0.00514807
-0.00281706
0.00572863
-0.0032754
0.00630712
-0.00362126
0.00687912
-0.0038636
0.00744121
-0.00401335
0.00799097
-0.00408254
0.00852683
-0.00408343
0.00904797
-0.00402782
0.00955428
-0.00392634
0.0100464
-0.0037857
-0.0035997
0.0105258
2.41663e-05
0.00204562
6.74262e-05
0.00493049
0.000116454
0.00698675
0.000168843
0.00828229
0.000229727
0.00893769
0.000308085
0.00907906
0.000413868
0.00881801
0.000556162
0.00824722
0.000742249
0.00744244
0.000977183
0.00646655
0.00126365
0.00537367
0.00160202
0.00421201
0.00199053
0.00302515
0.00242547
0.00185226
0.00290158
0.000727622
0.00341241
-0.000320101
0.00395073
-0.00126854
0.00450906
-0.00210199
0.00508008
-0.00281142
0.00565703
-0.00339401
0.00623396
-0.00385233
0.0068059
-0.00419321
0.00736897
-0.00442666
0.00792031
-0.00456469
0.00845803
-0.00462026
0.00898107
-0.00460647
0.00948907
-0.00453582
0.0099823
-0.00441957
0.0104618
-0.00426518
-0.00406754
0.0109296
3.28378e-05
0.00201278
9.6833e-05
0.00486649
0.000175523
0.00690806
0.000263637
0.00819418
0.000363944
0.00883738
0.000483557
0.00895944
0.000631022
0.00867054
0.000814412
0.00806383
0.00104025
0.00721661
0.00131295
0.00619384
0.00163466
0.00505197
0.00200524
0.00384144
0.00242245
0.00260794
0.00288219
0.00139252
0.00337885
0.00023096
0.00390573
-0.000846979
0.00445549
-0.0018183
0.0050207
-0.0026672
0.00559424
-0.00338496
0.0061697
-0.00396947
0.00674159
-0.00442422
0.00730551
-0.00475713
0.00785818
-0.00497933
0.00839734
-0.00510386
0.00892171
-0.00514463
0.00943076
-0.00511552
0.00992459
-0.00502965
0.0104039
-0.00489887
0.01087
-0.00473132
-0.00452312
0.0113256
4.05095e-05
0.00197227
0.000123681
0.00478332
0.000230603
0.00680114
0.000353485
0.0080713
0.000492817
0.00869805
0.00065381
0.00879845
0.000843519
0.00848083
0.00106889
0.00783847
0.00133554
0.00694996
0.00164715
0.00588223
0.0020052
0.00469391
0.00240898
0.00343766
0.0028557
0.00216122
0.00334077
0.000907445
0.00385819
-0.000286465
0.00440099
-0.00138978
0.00496173
-0.00237904
0.00553305
-0.00323852
0.00610809
-0.00396001
0.00668086
-0.00454224
0.0072464
-0.00498976
0.00780096
-0.00531169
0.00834192
-0.00552029
0.00886771
-0.00562965
0.00937766
-0.00565458
0.0098718
-0.00560966
0.0103508
-0.0055086
0.0108156
-0.00536368
0.0112679
-0.00518368
-0.0049661
0.0117109
4.70779e-05
0.0019252
0.000147615
0.00468279
0.000280949
0.00666781
0.000437166
0.00791508
0.000614619
0.0085206
0.000816618
0.00859645
0.00104866
0.00824879
0.00131644
0.00757068
0.00162458
0.00664182
0.0019759
0.00553091
0.00237113
0.00429868
0.00280886
0.00299992
0.00328567
0.00168442
0.00379642
0.000396694
0.00433466
-0.000824707
0.00489312
-0.00194824
0.00546428
-0.0029502
0.00604088
-0.00381512
0.00661639
-0.00453552
0.0071853
-0.00511114
0.00774329
-0.00554775
0.0082873
-0.0058557
0.00881545
-0.00604844
0.0093269
-0.0061411
0.00982162
-0.00614931
0.0103002
-0.00608829
0.0107639
-0.00597222
0.0112139
-0.00581373
0.0116524
-0.00562214
-0.00539641
0.0120827
5.24839e-05
0.00187271
0.000168372
0.0045669
0.000325972
0.00651021
0.000513669
0.00772739
0.000727874
0.0083064
0.000970034
0.00835429
0.00124404
0.00797479
0.00155425
0.00726047
0.00190417
0.0062919
0.00229568
0.00513941
0.00272863
0.00386573
0.00320081
0.00252774
0.00370807
0.00117715
0.00424466
-0.000139888
0.00480359
-0.00138365
0.00537731
-0.00252196
0.00595821
-0.0035311
0.00653919
-0.0043961
0.00711411
-0.00511044
0.00767803
-0.00567506
0.00822733
-0.00609706
0.00875975
-0.00638812
0.00927419
-0.00656289
0.00977057
-0.00663747
0.0102495
-0.00662827
0.0107123
-0.00655106
0.0111604
-0.00642035
0.0115957
-0.00624903
0.0120204
-0.00604684
-0.00581426
0.0124383
5.67034e-05
0.00181601
0.000185794
0.00443781
0.000365265
0.00633074
0.000582246
0.00751041
0.000831431
0.00805721
0.00111248
0.00807325
0.00142766
0.0076596
0.00177994
0.0069082
0.0021716
0.00590023
0.00260346
0.00470756
0.00307439
0.0033948
0.00358127
0.00202086
0.00411913
0.000639291
0.00468146
-0.000702223
0.00526076
-0.00196295
0.00584914
-0.00311033
0.00643894
-0.0041209
0.0070233
-0.00498046
0.00759652
-0.00568366
0.00815432
-0.00623286
0.00869391
-0.00663664
0.00921384
-0.00690805
0.00971386
-0.00706291
0.0101947
-0.00711827
0.0106576
-0.00709121
0.0111044
-0.00699791
0.0115372
-0.00685313
0.0119581
-0.00666987
0.0123694
-0.0064582
-0.00622011
0.0127753
5.97495e-05
0.00175626
0.000199839
0.00429772
0.000398627
0.00613195
0.000642443
0.00726659
0.000924513
0.00777514
0.00124283
0.00775493
0.00159806
0.00730438
0.0019917
0.00651456
0.00242475
0.00546718
0.00289684
0.00423547
0.00340575
0.00288589
0.00394733
0.00147928
0.00451565
7.09712e-05
0.0051034
-0.00128997
0.00570248
-0.00256203
0.00630468
-0.00371254
0.00690235
-0.00471857
0.00748893
-0.00556703
0.00805927
-0.006254
0.00860986
-0.00678345
0.00913875
-0.00716554
0.00964544
-0.00741473
0.0101305
-0.007548
0.0105955
-0.00758324
0.0110424
-0.00753809
0.0114735
-0.00742904
0.0118913
-0.00727095
0.0122982
-0.0070768
0.0126969
-0.00685687
-0.00661464
0.0130914
6.16707e-05
0.00169459
0.000210576
0.00414881
0.000426073
0.00591646
0.000694124
0.00699854
0.00100677
0.0074625
0.00136048
0.00740122
0.00175434
0.00691052
0.00218838
0.00608052
0.00266221
0.00499335
0.00317418
0.0037235
0.00372083
0.00233924
0.00429683
0.000903278
0.00489518
-0.000527386
0.0055077
-0.00190249
0.00612565
-0.00317999
0.00674056
-0.00432745
0.00734484
-0.00532284
0.0079323
-0.0061545
0.0084985
-0.0068202
0.00904075
-0.0073257
0.00955807
-0.00768286
0.0100509
-0.00790756
0.0105207
-0.00801783
0.0109698
-0.00803233
0.0114008
-0.00796912
0.0118167
-0.00784488
0.0122202
-0.00767442
0.0126139
-0.00747057
0.0130008
-0.0072437
-0.00699874
0.0133849
6.25499e-05
0.00163204
0.00021819
0.00399317
0.000447832
0.00568682
0.000737489
0.00670888
0.0010783
0.00712168
0.00146537
0.00701415
0.00189629
0.0064796
0.00236957
0.00560724
0.00288338
0.00447954
0.00343463
0.00317225
0.0040185
0.00175537
0.00462834
0.000293438
0.00525596
-0.00115501
0.00589223
-0.00253875
0.0065278
-0.00381556
0.00715397
-0.00495361
0.00776331
-0.00593218
0.00835016
-0.00674135
0.00891084
-0.00738088
0.00944363
-0.0078585
0.00994857
-0.0081878
0.010427
-0.00838604
0.0108815
-0.00847225
0.0113148
-0.00846571
0.0117305
-0.00838476
0.0121317
-0.0082461
0.0125216
-0.00806435
0.0129032
-0.00785212
0.0132792
-0.0076197
-0.00737342
0.0136539
6.25033e-05
0.00156954
0.000222973
0.0038327
0.000464346
0.00544544
0.000773067
0.00640016
0.00113965
0.0067551
0.00155803
0.00659578
0.00202434
0.00601329
0.00253559
0.00509599
0.00308841
0.00392672
0.00367815
0.00258251
0.00429845
0.00113507
0.0049412
-0.00034931
0.00559692
-0.00181074
0.0062555
-0.00319733
0.00690702
-0.00446708
0.00754262
-0.00558922
0.00815519
-0.00654475
0.00873972
-0.00732588
0.00929344
-0.0079346
0.00981566
-0.00838073
0.0103075
-0.00867961
0.0107713
-0.00884984
0.0112103
-0.00891131
0.0116284
-0.00888375
0.0120292
-0.00878564
0.0124167
-0.00863353
0.0127941
-0.00844174
0.0131644
-0.0082225
0.0135307
-0.00798597
-0.00773978
0.0138971
6.16765e-05
0.00150786
0.000225312
0.00366907
0.000476249
0.00519451
0.000801694
0.00607472
0.00119181
0.00636498
0.0016395
0.00614808
0.00213957
0.00551322
0.00268747
0.00454809
0.0032782
0.00333599
0.00390541
0.0019553
0.00456103
0.000479447
0.00523536
-0.00102363
0.00591755
-0.00249293
0.00659652
-0.0038763
0.00726184
-0.0051324
0.00790469
-0.00623206
0.00851837
-0.00715844
0.0090987
-0.00790621
0.00964394
-0.00847983
0.0101545
-0.00889131
0.0106326
-0.0091577
0.0110816
-0.0092988
0.0115055
-0.00933522
0.0119087
-0.009287
0.0122956
-0.00917255
0.0126702
-0.00900814
0.0130362
-0.00880766
0.0133965
-0.00858286
0.0137542
-0.00834368
-0.00809894
0.0141134
6.02384e-05
0.00144762
0.000225676
0.00350363
0.00048434
0.00493584
0.000824473
0.00573458
0.00123612
0.00595334
0.00171132
0.00567287
0.0022436
0.00498095
0.00282683
0.00396486
0.00345426
0.00270856
0.00411768
0.00129188
0.00480715
-0.000210025
0.00551125
-0.00172774
0.00621777
-0.00319945
0.00691468
-0.0045732
0.00759121
-0.00580893
0.0082387
-0.00687955
0.00885113
-0.00777086
0.00942526
-0.00848033
0.00996047
-0.00901505
0.0104584
-0.00938922
0.0109223
-0.00962156
0.0113564
-0.0097329
0.0117655
-0.0097444
0.0121547
-0.00967619
0.0125286
-0.00954646
0.0128915
-0.00937105
0.0132472
-0.00916329
0.0135987
-0.00893439
0.013949
-0.00869398
-0.008452
0.014302
5.83742e-05
0.00138925
0.000224594
0.00333741
0.000489545
0.00467089
0.00084272
0.00538141
0.00127422
0.00552184
0.0017754
0.0051717
0.00233848
0.00441787
0.00295574
0.00334759
0.00361853
0.00204578
0.0043166
0.000593809
0.00503802
-0.000931445
0.00576958
-0.0024593
0.0064977
-0.00392757
0.00720957
-0.00528508
0.00789425
-0.00649362
0.00854349
-0.00752879
0.00915209
-0.00837946
0.00971793
-0.00904617
0.0102416
-0.00953876
0.010726
-0.00987359
0.0111753
-0.0100709
0.0115947
-0.0101523
0.0119898
-0.0101394
0.0123658
-0.0100522
0.0127278
-0.00990845
0.0130801
-0.00972343
0.0134267
-0.00950983
0.0137705
-0.00927825
0.0141145
-0.00903796
-0.00879996
0.0144625
5.62787e-05
0.00133297
0.00022263
0.00317106
0.000492873
0.00440065
0.000857888
0.00501639
0.00130798
0.00507174
0.00183387
0.00464581
0.00242654
0.0038252
0.00307653
0.0026976
0.00377316
0.00134915
0.00450399
-0.00013702
0.00525497
-0.00168243
0.00601109
-0.00321542
0.00675753
-0.004674
0.00748087
-0.00600842
0.00817025
-0.007183
0.00881806
-0.00817659
0.00942014
-0.00898153
0.00997563
-0.00960166
0.0104864
-0.0100496
0.0109565
-0.0103437
0.0113912
-0.0105055
0.0117963
-0.0105575
0.0121779
-0.0105211
0.0125418
-0.0104161
0.012893
-0.0102597
0.0132361
-0.0100665
0.0135747
-0.00984847
0.013912
-0.00961555
0.0142507
-0.00937664
-0.00914373
0.0145945
5.41481e-05
0.00127882
0.000220359
0.00300485
0.000495366
0.00412564
0.000871496
0.00464026
0.00133934
0.0046039
0.00188901
0.00409615
0.00251019
0.00320402
0.00319159
0.0020162
0.0039203
0.000620436
0.00468158
-0.000898297
0.0054592
-0.00246004
0.00623642
-0.00399264
0.00699733
-0.00543491
0.0077282
-0.00673929
0.00841852
-0.00787333
0.00906157
-0.00881964
0.00965444
-0.0095744
0.0101976
-0.0101448
0.0106943
-0.0105463
0.0111496
-0.010799
0.0115697
-0.0109256
0.0119611
-0.0109489
0.0123303
-0.0108902
0.0126832
-0.0107689
0.0130249
-0.0106014
0.0133599
-0.0104015
0.0136918
-0.0101804
0.0140236
-0.00994731
0.0143578
-0.00971089
-0.00948404
0.0146981
5.21721e-05
0.00122665
0.000218343
0.00283868
0.000498046
0.00384594
0.000885037
0.00425327
0.00137019
0.00411874
0.00194299
0.00352335
0.00259172
0.00255529
0.0033031
0.00130481
0.00406186
-0.00013832
0.00485081
-0.00168725
0.00565158
-0.00326081
0.00644587
-0.00478693
0.00721694
-0.00620598
0.00795105
-0.0074734
0.00863837
-0.00856065
0.00927332
-0.00945459
0.00985438
-0.0101555
0.0103835
-0.0106739
0.0108651
-0.0110279
0.0113053
-0.0112393
0.0117112
-0.0113315
0.0120897
-0.0113274
0.0124475
-0.0112481
0.0127906
-0.011112
0.0131242
-0.010935
0.0134524
-0.0107297
0.0137786
-0.0105066
0.0141057
-0.0102744
0.0144362
-0.0100414
-0.00982139
0.0147736
5.0525e-05
0.00117613
0.000217103
0.0026721
0.000501868
0.00356117
0.0008999
0.00385524
0.0014023
0.00361635
0.0019978
0.00292784
0.00267317
0.00187993
0.00341293
0.000565055
0.0041993
-0.000924696
0.00501266
-0.0025006
0.00583256
-0.00408072
0.00663938
-0.00559375
0.00741591
-0.00698252
0.00814877
-0.00820625
0.00882909
-0.00924097
0.00945269
-0.0100782
0.0100196
-0.0107223
0.0105331
-0.0111874
0.0109989
-0.0114937
0.0114241
-0.0116645
0.0118164
-0.0117237
0.0121829
-0.011694
0.0125306
-0.0115958
0.0128654
-0.0114468
0.0131921
-0.0112617
0.0135147
-0.0110523
0.0138364
-0.0108283
0.0141596
-0.0105977
0.0144868
-0.0103685
-0.010156
0.0148214
4.93587e-05
0.00112677
0.000217097
0.00250436
0.000507667
0.0032706
0.000917293
0.00344561
0.00143715
0.00309649
0.00205508
0.00230991
0.0027561
0.00117891
0.00352237
-0.000201222
0.00433353
-0.00173585
0.00516751
-0.00333458
0.00600203
-0.00491524
0.00681646
-0.00640818
0.00759353
-0.00775959
0.00832057
-0.00893329
0.00899003
-0.00991043
0.00959927
-0.0106874
0.0101499
-0.0112729
0.0106466
-0.0116842
0.0110963
-0.0119434
0.0115068
-0.012075
0.0118862
-0.0121031
0.012242
-0.0120498
0.012581
-0.0119348
0.0129088
-0.0117746
0.0132302
-0.011583
0.0135485
-0.0113707
0.0138666
-0.0111465
0.0141867
-0.0109177
0.0145108
-0.0106926
-0.0104877
0.0148425
4.8797e-05
0.00107797
0.000218701
0.00233446
0.000516123
0.00297318
0.000938183
0.00302355
0.00147591
0.00255877
0.00211602
0.00166979
0.00284155
0.000453376
0.00363215
-0.000991823
0.0044648
-0.00256851
0.00531515
-0.00418492
0.00615937
-0.00575946
0.00697624
-0.00722504
0.00774884
-0.00853219
0.00846563
-0.00965008
0.00912058
-0.0105654
0.00971278
-0.0112796
0.0102454
-0.0118056
0.0107246
-0.0121633
0.0111581
-0.0123769
0.0115545
-0.0124714
0.011922
-0.0124706
0.0122684
-0.0123961
0.0126001
-0.0122665
0.0129227
-0.0120972
0.0132401
-0.0119004
0.0135556
-0.0116862
0.0138713
-0.0114622
0.0141889
-0.0112353
0.01451
-0.0110137
-0.0108162
0.0148384
4.89328e-05
0.00102904
0.000222195
0.00216119
0.000527738
0.00266764
0.000963253
0.00258803
0.00151934
0.00200268
0.00218131
0.00100783
0.00292997
-0.000295288
0.00374232
-0.00180418
0.00459274
-0.00341892
0.00545479
-0.00504698
0.00630351
-0.00660818
0.00711754
-0.00803907
0.00788077
-0.00929543
0.00858311
-0.0103524
0.0092203
-0.0112026
0.0097932
-0.0118525
0.0103066
-0.0123189
0.0107677
-0.0126245
0.0111853
-0.0127945
0.0115683
-0.0128544
0.0119252
-0.0128275
0.0122636
-0.0127345
0.0125897
-0.0125926
0.0129086
-0.0124161
0.0132239
-0.0122158
0.0135381
-0.0120004
0.0138528
-0.0117768
0.0141687
-0.0115511
0.0144868
-0.0113319
-0.0111402
0.0148109
4.98261e-05
0.000979211
0.000227759
0.00198326
0.000542818
0.00235258
0.000992889
0.00213796
0.00156779
0.00142778
0.00225111
0.000324511
0.0030212
-0.00106538
0.00385232
-0.00263529
0.00471635
-0.00428296
0.00558515
-0.00591578
0.00643303
-0.00745606
0.00723901
-0.00884506
0.00798823
-0.0100446
0.00867231
-0.0110365
0.00928894
-0.0118192
0.00984075
-0.0124043
0.010334
-0.0128121
0.010777
-0.0130675
0.0111792
-0.0131967
0.0115497
-0.013225
0.0118972
-0.013175
0.012229
-0.0130663
0.0125512
-0.0129148
0.0128683
-0.0127331
0.0131834
-0.0125309
0.0134983
-0.0123154
0.0138137
-0.0120922
0.0141294
-0.0118668
0.014445
-0.0116475
-0.011458
0.0147627
5.15045e-05
0.000927706
0.000235469
0.00179929
0.000561478
0.00202657
0.00102717
0.00167227
0.00162121
0.00083375
0.00232509
-0.000379376
0.00311453
-0.00185482
0.00396103
-0.00348179
0.00483422
-0.00515615
0.00570461
-0.00678617
0.00654633
-0.00829778
0.00733928
-0.00963801
0.00807021
-0.0107756
0.00873272
-0.011699
0.00932649
-0.012413
0.0098559
-0.0129337
0.0103285
-0.0132847
0.0107536
-0.0134926
0.011141
-0.0135841
0.0115001
-0.0135841
0.0118395
-0.0135144
0.0121662
-0.013393
0.0124861
-0.0132346
0.0128032
-0.0130503
0.0131204
-0.012848
0.0134387
-0.0126337
0.0137576
-0.0124111
0.0140753
-0.0121845
0.0143895
-0.0119618
-0.0117666
0.0146982
5.39671e-05
0.000873739
0.000245312
0.00160795
0.000583655
0.00168823
0.00106592
0.00119
0.00167916
0.000220509
0.0024025
-0.00110271
0.00320881
-0.00266113
0.00406695
-0.00433993
0.00494457
-0.00603378
0.00581135
-0.00765295
0.00664177
-0.0091282
0.00741705
-0.0104133
0.00812591
-0.0114844
0.00876409
-0.0123372
0.00933325
-0.0129821
0.00983941
-0.0134399
0.0102913
-0.0137366
0.0106989
-0.0139002
0.0110723
-0.0139575
0.0114209
-0.0139328
0.0117532
-0.0138466
0.0120761
-0.0137159
0.0123951
-0.0135536
0.0127142
-0.0133694
0.0130362
-0.01317
0.0133618
-0.0129593
0.0136895
-0.0127389
0.0140139
-0.0125089
0.014323
-0.012271
-0.0120642
0.0146206
5.71874e-05
0.000816551
0.000257195
0.00140794
0.000609129
0.00133629
0.00110869
0.000690441
0.00174091
-0.000411708
0.0024822
-0.001844
0.00330253
-0.00348146
0.00416825
-0.00520564
0.00504546
-0.00691099
0.00590351
-0.008511
0.00671777
-0.00994246
0.00747124
-0.0111668
0.00815481
-0.012168
0.00876646
-0.0129488
0.00930978
-0.0135255
0.00979226
-0.0139224
0.0102236
-0.0141679
0.0106142
-0.0142908
0.0109743
-0.0143177
0.0113134
-0.0142718
0.0116395
-0.0141727
0.0119593
-0.0140357
0.0122782
-0.0138726
0.0126006
-0.0136918
0.0129297
-0.0134991
0.0132677
-0.0132973
0.0136157
-0.0130869
0.0139717
-0.0128648
0.0143237
-0.012623
0.0145966
-0.0123371
0.00971863
-0.00158694
0.000367411
0.0104576
0.00292927
-0.00366821
0.0108565
0.0077819
-0.00818079
0.0110433
0.0118858
-0.0120727
0.0110885
0.0151113
-0.0151566
0.011038
0.0175604
-0.0175098
0.0109207
0.0195674
-0.0194501
0.0107543
0.0214018
-0.0212354
0.0105498
0.0231833
-0.0229788
0.0103147
0.0249341
-0.024699
0.0100537
0.0266347
-0.0263737
0.00977071
0.028264
-0.0279811
0.00946846
0.0298079
-0.0295056
0.00914976
0.0312611
-0.0309424
0.00881648
0.0326237
-0.0322905
0.00847028
0.0338928
-0.0335466
0.00811296
0.0350683
-0.034711
0.00774553
0.0361514
-0.035784
0.00736952
0.0371375
-0.0367615
0.00698557
0.0380313
-0.0376473
0.00659517
0.0388188
-0.0384284
0.00619825
0.0395204
-0.0391235
0.00579488
0.0401047
-0.0397014
0.00538608
0.0406092
-0.0402004
0.00496801
0.0409944
-0.0405763
0.00454469
0.0412812
-0.0408579
0.00410609
0.041532
-0.0410934
0.00365918
0.0415322
-0.0410853
0.00319388
0.0417008
-0.0412355
0.0417892
-0.0413133
0.0100161
-0.00270836
0.0106968
0.00224861
0.0110628
0.00741591
0.0112312
0.0117174
0.0112663
0.0150762
0.0112103
0.0176164
0.0110898
0.019688
0.0109211
0.0215705
0.0107142
0.0233902
0.0104765
0.0251717
0.0102127
0.0268985
0.00992624
0.0285504
0.00961999
0.0301141
0.00929635
0.0315847
0.00895767
0.0329624
0.00860528
0.0342452
0.00824104
0.0354326
0.00786594
0.0365265
0.00748187
0.0375216
0.0070891
0.0384241
0.0066892
0.0392187
0.00628231
0.0399273
0.00586871
0.0405183
0.00544918
0.0410287
0.00502014
0.0414235
0.00458573
0.0417157
0.00413595
0.0419818
0.00367803
0.0419901
0.00320196
0.0421769
0.042276
0.0103137
-0.00372347
0.010932
0.0016303
0.0112647
0.00708314
0.0114148
0.0115674
0.0114402
0.0150508
0.0113792
0.0176774
0.0112557
0.0198115
0.0110851
0.0217411
0.0108763
0.023599
0.0106364
0.0254117
0.01037
0.0271649
0.0100803
0.0288401
0.00977041
0.030424
0.00944214
0.031913
0.00909824
0.0333063
0.00873984
0.0346036
0.0083689
0.0358035
0.00798632
0.0369091
0.00759426
0.0379136
0.00719278
0.0388255
0.00678351
0.039628
0.00636674
0.040344
0.00594296
0.0409421
0.00551281
0.0414589
0.00507295
0.0418633
0.00462752
0.0421611
0.0041667
0.0424426
0.0036978
0.042459
0.0032109
0.0426638
0.0427738
0.0106082
-0.0046245
0.0111631
0.00107535
0.0114617
0.00678462
0.0115937
0.0114354
0.0116097
0.0150347
0.0115441
0.017743
0.0114182
0.0199373
0.0112461
0.0219132
0.0110359
0.0238092
0.010794
0.0256535
0.0105254
0.0274336
0.0102329
0.0291325
0.00991953
0.0307374
0.00958695
0.0322455
0.00923803
0.0336552
0.00887392
0.0349677
0.00849644
0.036181
0.00810662
0.0372989
0.00770663
0.0383136
0.00729655
0.0392356
0.00687807
0.0400465
0.00645159
0.0407705
0.00601761
0.0413761
0.005577
0.0418995
0.00512636
0.042314
0.00467008
0.0426174
0.00419826
0.0429145
0.00371854
0.0429388
0.00322064
0.0431617
0.0432826
0.0108988
-0.00540605
0.0113888
0.000585374
0.0116529
0.00652051
0.0117672
0.011321
0.0117747
0.0150273
0.0117051
0.0178127
0.0115773
0.0200651
0.0114038
0.0220867
0.0111926
0.0240204
0.0109494
0.0258967
0.0106788
0.0277042
0.0103838
0.0294275
0.0100672
0.0310541
0.0097307
0.032582
0.00937701
0.0340089
0.0090074
0.0353373
0.00862358
0.0365648
0.00822676
0.0376957
0.00781888
0.0387215
0.00740034
0.0396542
0.00697283
0.040474
0.0065368
0.0412065
0.00609263
0.0418203
0.0056417
0.0423504
0.00518036
0.0427753
0.00471335
0.0430844
0.00423064
0.0433972
0.00374016
0.0434292
0.00323121
0.0436707
0.0438025
0.0111851
-0.00606533
0.0116068
0.00016365
0.011838
0.00628934
0.0119353
0.0112237
0.0119348
0.0150277
0.0118617
0.0178858
0.0117325
0.0201944
0.0115581
0.0222611
0.0113463
0.0242322
0.0111021
0.0261409
0.01083
0.0279762
0.0105328
0.0297248
0.0102133
0.0313736
0.00987321
0.0329221
0.00951502
0.0343671
0.00914014
0.0357122
0.00875022
0.0369547
0.00834659
0.0380993
0.00793104
0.0391371
0.00750419
0.040081
0.0070677
0.0409104
0.00662226
0.041652
0.00616806
0.0422745
0.00570688
0.0428116
0.00523496
0.0432472
0.00475731
0.043562
0.0042638
0.0438907
0.00376261
0.0439304
0.00324267
0.0441906
0.0443337
0.0114636
-0.00659935
0.0118186
-0.000191372
0.0120164
0.00609157
0.0120977
0.0111425
0.01209
0.0150354
0.0120139
0.0179618
0.0118837
0.0203246
0.011709
0.0224358
0.0114969
0.0244443
0.0112521
0.0263857
0.0109789
0.0282495
0.0106798
0.0300238
0.0103577
0.0316957
0.0100143
0.0332655
0.00965193
0.0347295
0.00927206
0.0360921
0.0088763
0.0373505
0.00846603
0.0385096
0.008043
0.0395601
0.00760801
0.040516
0.00716269
0.0413558
0.00670792
0.0421067
0.00624385
0.0427386
0.00577249
0.043283
0.00529011
0.0437296
0.00480192
0.0440502
0.00429772
0.0443949
0.00378591
0.0444422
0.00325497
0.0447216
0.0448761
0.0117341
-0.00700785
0.0120227
-0.000480006
0.0121881
0.00592625
0.0122542
0.0110764
0.01224
0.0150496
0.0121616
0.0180402
0.0120308
0.0204554
0.0118561
0.0226105
0.0116442
0.0246562
0.0113991
0.0266307
0.0111251
0.0285234
0.0108246
0.0303244
0.0105003
0.03202
0.0101539
0.0336118
0.00978762
0.0350958
0.00940305
0.0364766
0.0090017
0.0377518
0.00858498
0.0389263
0.0081547
0.0399904
0.00771175
0.0409589
0.00725773
0.0418098
0.00679374
0.0425707
0.00631995
0.0432123
0.00583849
0.0437644
0.0053458
0.0442223
0.00484714
0.0445489
0.00433236
0.0449097
0.00381002
0.0449646
0.00326812
0.0452635
0.0454301
0.0119957
-0.00729267
0.0122187
-0.00070296
0.0123528
0.00579217
0.0124048
0.0110243
0.012385
0.0150694
0.0123048
0.0181205
0.0121738
0.0205863
0.0119994
0.0227849
0.0117879
0.0248677
0.011543
0.0268757
0.0112686
0.0287978
0.010967
0.030626
0.0106409
0.0323462
0.0102918
0.0339608
0.00992197
0.0354657
0.00953297
0.0368656
0.00912631
0.0381585
0.00870339
0.0393492
0.00826605
0.0404277
0.00781533
0.0414097
0.00735279
0.0422723
0.00687969
0.0430438
0.0063963
0.0436957
0.00590484
0.0442559
0.00540197
0.0447251
0.00489295
0.0450579
0.00436768
0.0454349
0.00383491
0.0454974
0.00328211
0.0458163
0.0459955
0.0122474
-0.00745736
0.0124061
-0.000861716
0.0125104
0.00568785
0.0125498
0.010985
0.012525
0.0150941
0.0124434
0.0182021
0.0123125
0.0207172
0.0121389
0.0229585
0.0119281
0.0250785
0.0116837
0.0271201
0.0114093
0.0290722
0.011107
0.0309282
0.0107793
0.0326739
0.010428
0.0343121
0.0100548
0.0358388
0.0096617
0.0372588
0.00925001
0.0385702
0.00882115
0.0397781
0.00837699
0.0408719
0.00791866
0.041868
0.0074478
0.0427432
0.00696571
0.0435259
0.00647286
0.0441886
0.00597149
0.0447572
0.00545858
0.0452381
0.0049393
0.0455772
0.00440363
0.0459706
0.00386056
0.0460404
0.00329694
0.0463799
0.0465724
0.0124881
-0.00750721
0.0125849
-0.000958485
0.0126612
0.00561153
0.0126891
0.0109571
0.0126603
0.015123
0.0125777
0.0182847
0.0124471
0.0208479
0.0122744
0.0231313
0.0120645
0.0252883
0.011821
0.0273636
0.0115468
0.0293463
0.0112442
0.0312308
0.0109154
0.0330027
0.0105621
0.0346654
0.0101861
0.0362148
0.00978914
0.0376558
0.00937272
0.0389866
0.00893816
0.0402126
0.00848744
0.0413226
0.00802168
0.0423338
0.0075427
0.0432221
0.00705174
0.0440169
0.00654959
0.0446907
0.0060384
0.0452684
0.00551555
0.0457609
0.00498612
0.0461066
0.00444021
0.0465165
0.00388694
0.0465937
0.00331258
0.0469542
0.047161
0.0127172
-0.00744917
0.0127549
-0.000996167
0.0128053
0.00556116
0.0128231
0.0109393
0.012791
0.0151551
0.0127078
0.0183679
0.0125776
0.0209781
0.0124059
0.023303
0.0121972
0.0254969
0.0119548
0.0276061
0.0116813
0.0296198
0.0113787
0.0315334
0.0110491
0.0333323
0.0106942
0.0350203
0.0103157
0.0365934
0.00991516
0.0380563
0.00949431
0.0394074
0.00905432
0.0406526
0.00859731
0.0417796
0.00812432
0.0428067
0.00763742
0.043709
0.00713772
0.0445166
0.00662643
0.045202
0.00610554
0.0457893
0.00557284
0.0462936
0.00503337
0.0466461
0.00447736
0.0470725
0.00391403
0.047157
0.00332902
0.0475393
0.0477613
0.012934
-0.00729168
0.0129161
-0.000978306
0.0129428
0.00553447
0.012952
0.0109301
0.0129174
0.0151897
0.0128338
0.0184515
0.012704
0.0211078
0.0125335
0.0234735
0.0123261
0.0257043
0.012085
0.0278472
0.0118124
0.0298924
0.0115102
0.0318356
0.0111802
0.0336623
0.0108241
0.0353764
0.0104434
0.0369741
0.0100396
0.03846
0.00961468
0.0398324
0.00916953
0.0410978
0.00870651
0.0422426
0.00822649
0.0432868
0.00773189
0.0442037
0.0072236
0.0450249
0.00670332
0.0457223
0.00617285
0.0463198
0.00563038
0.0468361
0.00508097
0.0471955
0.00451503
0.0476384
0.00394178
0.0477303
0.00334622
0.0481348
0.0483732
0.0131376
-0.00704443
0.0130684
-0.000909047
0.0130738
0.005529
0.0130758
0.0109281
0.0130394
0.0152261
0.0129556
0.0185353
0.0128264
0.021237
0.012657
0.0236429
0.0124511
0.0259102
0.0122116
0.0280867
0.0119402
0.0301638
0.0116387
0.0321371
0.0113087
0.0339924
0.0109516
0.0357335
0.010569
0.0373567
0.0101624
0.0388666
0.00973372
0.0402611
0.00928371
0.0415478
0.00881494
0.0427114
0.00832812
0.0437736
0.00782602
0.0447058
0.00730932
0.0455416
0.00678017
0.0462514
0.00624024
0.0468597
0.0056881
0.0473882
0.00512888
0.0477547
0.00455316
0.0482141
0.00397014
0.0483133
0.00336418
0.0487408
0.0489967
0.0133276
-0.00671815
0.0132116
-0.000793038
0.0131983
0.00554225
0.0131943
0.0109321
0.0131569
0.0152635
0.0130732
0.018619
0.0129446
0.0213656