/*--------------------------------*- C++ -*----------------------------------*\
  =========                 |
  \\      /  F ield         | OpenFOAM: The Open Source CFD Toolbox
   \\    /   O peration     | Website:  https://openfoam.org
    \\  /    A nd           | Version:  7
     \\/     M anipulation  |
\*---------------------------------------------------------------------------*/
FoamFile
{
    version     2.0;
    format      ascii;
    class       volVectorField;
    location    "2.3";
    object      U;
}
// * * * * * * * * * * * * * * * * * * * * * * * * * * * * * * * * * * * * * //

dimensions      [0 1 -1 0 0 0 0];

internalField   nonuniform List<vector> 
18000
(
(-0.00185242 0.0604923 2.21164e-20)
(-0.0073721 0.144066 0)
(-0.0158497 0.202496 0)
(-0.024855 0.239433 0)
(-0.0333955 0.259448 -7.30347e-21)
(-0.0404887 0.266664 3.69176e-20)
(-0.0454676 0.264334 -7.47694e-21)
(-0.0479336 0.254883 7.52841e-21)
(-0.0476989 0.240116 0)
(-0.0447358 0.221423 -2.27479e-20)
(-0.0391433 0.199945 -7.6218e-21)
(-0.0311099 0.176664 0)
(-0.02089 0.152461 1.51823e-20)
(-0.00878556 0.128124 1.5249e-20)
(0.00487269 0.104353 -3.04016e-20)
(0.0197376 0.0817436 -3.03252e-20)
(0.0354624 0.0607788 0)
(0.051717 0.0418213 -4.52262e-20)
(0.068194 0.0251154 1.50047e-20)
(0.0846157 0.0107929 -4.47836e-20)
(0.100743 -0.00111678 1.4841e-20)
(0.116377 -0.0106701 0)
(0.131363 -0.0179921 -1.45655e-20)
(0.145589 -0.0232574 -1.45411e-20)
(0.158977 -0.0266726 0)
(0.171484 -0.0284605 0)
(0.18309 -0.028841 -2.83329e-20)
(0.193808 -0.0280188 -2.80832e-20)
(0.203713 -0.0260775 -2.79337e-20)
(0.212646 -0.0227768 2.97717e-20)
(-0.00317052 0.0614972 3.13666e-20)
(-0.00978373 0.146442 5.46903e-20)
(-0.0181179 0.205759 -5.59927e-20)
(-0.0263969 0.243084 -5.71055e-20)
(-0.0338574 0.262964 -1.45448e-20)
(-0.0396931 0.269568 4.40006e-20)
(-0.0433415 0.266226 -5.93977e-20)
(-0.0444578 0.255458 -5.98594e-20)
(-0.0428835 0.239159 6.01983e-20)
(-0.0386156 0.218806 6.04795e-20)
(-0.0317699 0.195612 -3.02349e-20)
(-0.0225478 0.170628 -6.06376e-20)
(-0.0112194 0.144789 -3.04763e-20)
(0.00189781 0.118937 6.05753e-20)
(0.0164592 0.0938116 -6.04224e-20)
(0.0321071 0.0700417 6.05195e-20)
(0.048485 0.0481331 -1.20474e-19)
(0.0652532 0.0284614 9.00579e-20)
(0.0821021 0.011272 -5.95928e-20)
(0.0987587 -0.00331201 2.98111e-20)
(0.11499 -0.0152774 -5.89387e-20)
(0.130605 -0.0247031 0)
(0.145462 -0.0317401 2.94918e-20)
(0.159462 -0.0365915 -5.7832e-20)
(0.172545 -0.0394922 5.72905e-20)
(0.184683 -0.0406904 0)
(0.195871 -0.0404316 -2.80071e-20)
(0.206135 -0.0389401 2.78647e-20)
(0.215564 -0.0363134 1.10775e-19)
(0.224022 -0.0323085 5.8947e-20)
(-0.00452341 0.0621048 -5.03352e-20)
(-0.012262 0.147985 -5.46889e-20)
(-0.0204256 0.208085 8.39415e-20)
(-0.0278968 0.245811 1.42366e-19)
(-0.0341575 0.265636 0)
(-0.0385834 0.271736 -5.87933e-20)
(-0.0407215 0.267503 5.9395e-20)
(-0.0402995 0.25554 1.79048e-19)
(-0.0372022 0.23783 -6.01953e-20)
(-0.0314501 0.21593 -6.0428e-20)
(-0.023181 0.19113 1.81115e-19)
(-0.0126192 0.164546 6.06343e-20)
(-5.19553e-05 0.137172 0)
(0.0141864 0.109901 -1.21052e-19)
(0.0297348 0.0835146 1.80563e-19)
(0.0462203 0.0586754 -5.98732e-20)
(0.0632759 0.03591 6.01048e-20)
(0.0805589 0.0156055 5.97809e-20)
(0.0977595 -0.00199128 2.58282e-22)
(0.114607 -0.0167671 0)
(0.130878 -0.0287272 1.7663e-19)
(0.146398 -0.0379734 -1.16624e-19)
(0.161039 -0.044684 5.81622e-20)
(0.174722 -0.0490905 0)
(0.187404 -0.051456 -5.72881e-20)
(0.199079 -0.0520555 2.26412e-19)
(0.209757 -0.0511596 -1.67904e-19)
(0.21948 -0.0490106 -5.58395e-20)
(0.228349 -0.0457239 5.46824e-20)
(0.236255 -0.0410587 5.8558e-20)
(-0.0058968 0.0623717 0)
(-0.0147866 0.148874 2.71842e-20)
(-0.0227633 0.20959 2.23299e-23)
(-0.0293728 0.247669 -1.42106e-19)
(-0.0343247 0.267479 0)
(-0.0371991 0.273163 -1.16611e-19)
(-0.0376693 0.268149 0)
(-0.0355378 0.255111 -1.78669e-19)
(-0.0307393 0.236113 5.97616e-20)
(-0.0233314 0.212792 -1.19709e-19)
(-0.0134801 0.186508 -1.20539e-19)
(-0.00143342 0.158444 -6.02175e-20)
(0.0124983 0.129653 6.00992e-20)
(0.0279589 0.101076 5.9681e-20)
(0.0445684 0.0735391 -6.03589e-20)
(0.0619403 0.0477353 -1.19062e-19)
(0.0796977 0.0242138 1.19013e-19)
(0.0974918 0.00337127 0)
(0.115014 -0.014548 0)
(0.132004 -0.0294412 0)
(0.148251 -0.0413311 0)
(0.163597 -0.0503451 0)
(0.177936 -0.0566893 0)
(0.191209 -0.0606241 -1.14119e-19)
(0.203399 -0.0624409 -1.13698e-19)
(0.214517 -0.0624407 -4.60895e-22)
(0.224596 -0.0609169 -1.11575e-19)
(0.233696 -0.0581327 -4.36891e-22)
(0.241929 -0.0542211 -1.10418e-19)
(0.24921 -0.0489491 2.32399e-19)
(-0.00725985 0.0622424 0)
(-0.0173163 0.148974 2.43089e-19)
(-0.0251103 0.210132 2.33789e-23)
(-0.0308188 0.248541 -8.47896e-20)
(-0.0343837 0.268386 2.86692e-19)
(-0.0355932 0.273755 1.74804e-19)
(-0.0342519 0.268088 1.75802e-19)
(-0.0302537 0.254113 0)
(-0.0235932 0.233968 0)
(-0.0143694 0.209367 1.79439e-19)
(-0.0027839 0.18174 6.20033e-23)
(0.0108835 0.152333 -4.18429e-19)
(0.0262957 0.122257 3.5824e-19)
(0.043073 0.0925053 -1.19819e-19)
(0.0608138 0.0639442 1.18425e-19)
(0.0791146 0.0372977 1.18937e-19)
(0.0975882 0.0131336 -1.17952e-19)
(0.115883 -0.00814347 1.18161e-19)
(0.133696 -0.026291 2.34524e-19)
(0.150776 -0.0412188 -1.16654e-19)
(0.16693 -0.0529707 -2.31593e-19)
(0.182024 -0.0616998 2.30121e-19)
(0.195974 -0.0676406 -2.28543e-19)
(0.208749 -0.0710821 1.14114e-19)
(0.220356 -0.0723423 0)
(0.230831 -0.0717483 0)
(0.240231 -0.0696141 8.93612e-22)
(0.248631 -0.0662226 -4.39208e-19)
(0.256158 -0.0617255 2.1737e-19)
(0.262755 -0.0559051 -2.30843e-19)
(-0.00859648 0.0617836 0)
(-0.0198235 0.148368 -2.16015e-19)
(-0.0274484 0.209775 2.20263e-19)
(-0.0322432 0.248446 0)
(-0.0343636 0.268351 -4.57591e-19)
(-0.0338102 0.273487 -5.795e-20)
(-0.0305371 0.267282 -1.17522e-19)
(-0.0245335 0.252505 -5.89232e-20)
(-0.0158611 0.231361 0)
(-0.00467451 0.205631 -1.18888e-19)
(0.00878216 0.176811 1.19002e-19)
(0.0241954 0.14621 2.38796e-19)
(0.041196 0.115 -2.38662e-19)
(0.0593747 0.08422 0)
(0.0783061 0.0547762 -2.37788e-19)
(0.0975693 0.0274215 2.35752e-19)
(0.116767 0.00274091 2.36263e-19)
(0.135547 -0.0188547 3.51376e-19)
(0.153611 -0.0371278 -3.50756e-19)
(0.170726 -0.0520032 4.64131e-19)
(0.18672 -0.0635471 2.31217e-19)
(0.201482 -0.0719389 -2.3011e-19)
(0.21496 -0.0774417 4.55693e-19)
(0.227152 -0.0803721 0)
(0.238093 -0.0810748 2.23731e-19)
(0.247847 -0.0798995 4.44699e-19)
(0.256494 -0.0771807 -2.19084e-19)
(0.264129 -0.0732182 2.19372e-19)
(0.270893 -0.0681825 -4.809e-22)
(0.276753 -0.0618762 -2.29416e-19)
(-0.00988624 0.0609961 -2.46739e-20)
(-0.0222795 0.147051 0)
(-0.0297611 0.208495 -2.75234e-19)
(-0.0336393 0.247343 5.60207e-20)
(-0.0342797 0.267324 1.71336e-19)
(-0.0318946 0.272301 5.76732e-20)
(-0.026588 0.265674 2.32536e-19)
(-0.0184572 0.250237 0)
(-0.00764514 0.228247 1.17942e-19)
(0.00563326 0.201545 1.17748e-19)
(0.0210863 0.171694 -1.18502e-19)
(0.038358 0.140066 3.54793e-19)
(0.057041 0.107884 0)
(0.0766944 0.076236 0)
(0.0968664 0.0460653 3.53161e-19)
(0.117116 0.0181504 -5.87549e-19)
(0.137038 -0.00690856 2.33537e-19)
(0.156279 -0.0286974 -2.33901e-19)
(0.174554 -0.0469865 -2.31416e-19)
(0.191645 -0.0617179 -6.92897e-19)
(0.207407 -0.0729817 -1.00756e-21)
(0.221761 -0.0809846 2.2735e-19)
(0.234687 -0.0860174 -4.52932e-19)
(0.246217 -0.0884239 2.24115e-19)
(0.256417 -0.0885741 -1.36248e-21)
(0.265381 -0.0868377 -2.21886e-19)
(0.273213 -0.0835672 2.19981e-19)
(0.280028 -0.0790768 0)
(0.285982 -0.0735559 2.14666e-19)
(0.291068 -0.0668317 3.44166e-22)
(-0.0111154 0.0599098 -4.91294e-20)
(-0.0246576 0.145056 5.34558e-20)
(-0.0320268 0.206314 -3.27849e-19)
(-0.0350054 0.245237 -1.67011e-19)
(-0.0341508 0.265282 2.26424e-19)
(-0.0298833 0.270162 -3.44242e-19)
(-0.0224647 0.263221 -1.1653e-19)
(-0.012109 0.24726 -2.33163e-19)
(0.000952729 0.224575 2.34256e-19)
(0.0164365 0.197067 -4.70902e-19)
(0.0339942 0.166358 -2.35185e-19)
(0.0532212 0.133877 -1.18256e-21)
(0.0736685 0.100898 1.17835e-19)
(0.0948582 0.0685557 -3.51911e-19)
(0.116308 0.0378261 -4.68962e-19)
(0.137559 0.00951058 3.88799e-22)
(0.158195 -0.0157784 -9.45166e-22)
(0.177868 -0.0376264 2.31181e-19)
(0.196305 -0.0558157 2.31404e-19)
(0.213311 -0.0703083 3.72504e-22)
(0.228772 -0.081219 -6.15742e-22)
(0.242643 -0.0887821 2.24985e-19)
(0.254943 -0.0933162 2.25771e-19)
(0.265739 -0.0951915 -4.24772e-22)
(0.275131 -0.0947997 -6.65673e-19)
(0.283245 -0.0925288 4.38758e-19)
(0.290212 -0.0887455 4.36289e-19)
(0.296166 -0.0837765 -4.31559e-19)
(0.301276 -0.0778275 -2.1466e-19)
(0.305561 -0.0707565 -2.24492e-19)
(-0.0122703 0.0585551 -4.39364e-19)
(-0.0269336 0.142427 -5.323e-20)
(-0.0342264 0.203259 2.72869e-19)
(-0.0363336 0.242131 2.22792e-19)
(-0.0339871 0.262212 -2.26418e-19)
(-0.0278091 0.267038 2.29316e-19)
(-0.0182221 0.259877 -1.15528e-19)
(-0.00556383 0.243522 3.49477e-19)
(0.00983785 0.220298 -2.34245e-19)
(0.0276214 0.192152 2.34893e-19)
(0.0473753 0.160762 1.17844e-19)
(0.06864 0.127609 -1.17895e-19)
(0.0909187 0.0940202 -7.01814e-19)
(0.113692 0.0611673 4.68117e-19)
(0.136446 0.0300567 2.33824e-19)
(0.1587 0.0015109 0)
(0.180032 -0.0238499 0)
(0.200098 -0.0456163 -2.28199e-21)
(0.218643 -0.0635854 -2.28334e-19)
(0.2355 -0.0777417 0)
(0.250588 -0.088226 0)
(0.263905 -0.0953005 -2.25965e-19)
(0.275509 -0.0993113 0)
(0.285507 -0.100653 -4.42748e-19)
(0.294037 -0.0997352 0)
(0.301255 -0.0969618 -2.19151e-19)
(0.307318 -0.0927099 4.33539e-19)
(0.312382 -0.0873162 -4.28839e-19)
(0.316627 -0.0810005 0)
(0.320101 -0.0736543 0)
(-0.0133412 0.0569664 3.90448e-19)
(-0.0290855 0.139214 0)
(-0.0363388 0.199372 -5.42901e-20)
(-0.0376119 0.238047 5.53214e-20)
(-0.0337922 0.258112 -3.36582e-19)
(-0.0256948 0.262908 4.5798e-23)
(-0.0139033 0.255608 -1.15027e-19)
(0.00111483 0.238979 0)
(0.0189271 0.215364 0)
(0.0390868 0.186749 -1.16637e-19)
(0.0611114 0.154859 1.16748e-19)
(0.0844803 0.121225 -2.33478e-19)
(0.108642 0.0872182 2.35366e-19)
(0.133031 0.0540462 0)
(0.157099 0.0227427 0)
(0.180346 -0.00585412 0)
(0.202343 -0.0311214 2.28664e-19)
(0.222755 -0.0526599 -1.30061e-21)
(0.241347 -0.0702853 2.2964e-19)
(0.257986 -0.0840065 -4.52208e-19)
(0.272632 -0.093992 2.25684e-19)
(0.285327 -0.100533 -1.11855e-18)
(0.296172 -0.104 7.89198e-22)
(0.305318 -0.104809 4.42731e-19)
(0.31294 -0.103387 -1.80181e-21)
(0.319227 -0.100148 4.33758e-19)
(0.324362 -0.0954771 -4.29047e-19)
(0.328521 -0.0897162 -4.26845e-19)
(0.331897 -0.0830975 1.01699e-21)
(0.334559 -0.0755482 -4.40792e-19)
(-0.0143211 0.0551805 -4.84882e-20)
(-0.0310939 0.135475 0)
(-0.0383416 0.194706 1.08131e-19)
(-0.0388228 0.23302 -1.10185e-19)
(-0.0335602 0.252993 1.00849e-18)
(-0.0235502 0.257761 4.29402e-23)
(-0.00953598 0.250386 -1.14553e-19)
(0.00788039 0.233594 1.15319e-19)
(0.0281555 0.20973 -5.78223e-19)
(0.0507502 0.180811 0)
(0.0751036 0.148602 0)
(0.100626 0.11468 -2.31127e-19)
(0.126705 0.0804523 2.33127e-19)
(0.152726 0.0471602 -2.31523e-19)
(0.178104 0.0158595 2.30534e-19)
(0.202318 -0.0126021 0)
(0.224936 -0.0376057 -9.15716e-19)
(0.245633 -0.0587665 4.5447e-19)
(0.264203 -0.0759228 2.26988e-19)
(0.280553 -0.0891107 6.76605e-19)
(0.294686 -0.0985281 0)
(0.306693 -0.104493 4.46496e-19)
(0.316724 -0.107402 4.41514e-19)
(0.324973 -0.107686 4.38162e-19)
(0.331655 -0.105786 -2.69814e-21)
(0.33699 -0.102122 -4.30128e-19)
(0.341187 -0.0970847 4.29035e-19)
(0.34444 -0.0910169 0)
(0.346953 -0.08416 1.05931e-21)
(0.348819 -0.0764784 8.78244e-19)
(-0.0152062 0.0532356 -3.85424e-19)
(-0.0329423 0.131275 0)
(-0.0402112 0.189322 -4.29602e-19)
(-0.0399426 0.227095 -5.48158e-19)
(-0.0332739 0.24688 -3.35744e-19)
(-0.0213693 0.251601 1.13027e-19)
(-0.00512906 0.244197 -2.16092e-24)
(0.0147081 0.227336 -1.14865e-19)
(0.0374822 0.203355 1.95655e-21)
(0.0625545 0.174292 2.31153e-19)
(0.0892777 0.141945 2.30251e-19)
(0.116985 0.107928 -2.29026e-19)
(0.144999 0.0736814 2.30741e-19)
(0.17265 0.0404737 -6.89577e-19)
(0.199315 0.00937657 6.87118e-19)
(0.224452 -0.0187597 4.56053e-19)
(0.24763 -0.0433261 1.13858e-18)
(0.268541 -0.0639581 -2.2886e-19)
(0.287012 -0.0805208 -4.49557e-19)
(0.302994 -0.0930804 -2.57939e-21)
(0.316544 -0.101865 -4.46009e-19)
(0.327802 -0.107218 1.32617e-18)
(0.33697 -0.109557 -8.81277e-19)
(0.344288 -0.109329 8.70137e-19)
(0.350008 -0.106981 -4.33791e-19)
(0.354383 -0.102938 8.57535e-19)
(0.357646 -0.0975894 1.69403e-21)
(0.360006 -0.0912764 -8.42021e-19)
(0.361676 -0.0842458 8.32347e-19)
(0.362774 -0.0764998 4.33514e-19)
(-0.0159955 0.0511701 3.85423e-19)
(-0.0346169 0.126682 0)
(-0.0419221 0.183292 9.64687e-19)
(-0.0409402 0.220331 3.29019e-19)
(-0.0329028 0.239813 0)
(-0.0191284 0.244447 0)
(-0.000668709 0.237039 0)
(0.0215994 0.220188 0)
(0.0468949 0.196213 2.30743e-19)
(0.0744724 0.167158 2.30253e-19)
(0.10359 0.134849 -4.61604e-19)
(0.133498 0.100929 4.6124e-19)
(0.163443 0.0668675 6.87935e-19)
(0.192701 0.0339515 2.30248e-19)
(0.220608 0.00326163 2.26133e-19)
(0.246605 -0.0243569 -6.83289e-19)
(0.270264 -0.0483125 -9.05747e-19)
(0.291301 -0.0682664 -4.51918e-19)
(0.309586 -0.0841148 4.49539e-19)
(0.325119 -0.0959561 -8.93145e-19)
(0.338013 -0.104048 4.42351e-19)
(0.348466 -0.10876 -8.81538e-19)
(0.35673 -0.110526 4.35331e-19)
(0.363093 -0.109802 -1.76285e-21)
(0.367844 -0.107041 -4.29335e-19)
(0.371264 -0.102667 -8.53823e-19)
(0.373608 -0.0970641 8.4547e-19)
(0.375101 -0.0905675 0)
(0.375961 -0.0834263 -1.09583e-21)
(0.376329 -0.0756803 -8.64009e-19)
(-0.0166906 0.049021 4.78738e-20)
(-0.0361065 0.121767 0)
(-0.0434472 0.176693 -4.2784e-19)
(-0.041777 0.212798 1.08967e-19)
(-0.0324031 0.231844 -1.10641e-19)
(-0.0167838 0.236333 0)
(0.00388368 0.228927 -1.13154e-19)
(0.028585 0.21215 1.1393e-19)
(0.0564134 0.188288 2.28662e-19)
(0.0865104 0.159386 -6.86686e-19)
(0.118031 0.127287 -2.2921e-19)
(0.150134 0.0936548 5.35317e-23)
(0.181987 0.0599811 -1.03525e-21)
(0.212804 0.0275648 -4.55885e-19)
(0.241884 -0.00251402 -2.28379e-19)
(0.268654 -0.0294237 0)
(0.292695 -0.0525975 7.73854e-22)
(0.313757 -0.0717288 4.49451e-19)
(0.331757 -0.0867484 -4.45313e-19)
(0.346754 -0.097789 0)
(0.358922 -0.105138 0)
(0.368517 -0.109186 0)
(0.375846 -0.11038 0)
(0.38124 -0.109185 -2.62465e-21)
(0.385026 -0.10605 0)
(0.387509 -0.101395 0)
(0.388963 -0.095595 4.1819e-19)
(0.389626 -0.0889751 4.14229e-19)
(0.38972 -0.0817839 4.1179e-19)
(0.389406 -0.0740982 -1.17286e-21)
(-0.0172951 0.0468232 4.7675e-20)
(-0.0374016 0.116599 -1.03841e-19)
(-0.0447571 0.169608 6.3699e-19)
(-0.0424064 0.204574 -1.08399e-19)
(-0.0317166 0.223041 1.1029e-19)
(-0.0142716 0.227308 3.88163e-23)
(0.00859281 0.219895 3.37266e-19)
(0.0357257 0.20324 -4.52884e-19)
(0.0660908 0.179586 6.82353e-19)
(0.0987092 0.150971 9.6436e-22)
(0.132625 0.119246 -2.27169e-19)
(0.166896 0.0860904 4.54944e-19)
(0.200608 0.053006 -4.53921e-19)
(0.23291 0.0212956 4.52548e-19)
(0.263067 -0.00797094 0)
(0.290496 -0.0339849 4.4902e-19)
(0.314799 -0.0562125 0)
(0.335767 -0.074385 2.37717e-21)
(0.353375 -0.0884716 -4.4212e-19)
(0.367746 -0.0986397 -4.3942e-19)
(0.379118 -0.105205 4.36528e-19)
(0.387809 -0.108576 -4.33446e-19)
(0.39418 -0.10921 -4.30179e-19)
(0.398604 -0.10757 -8.56076e-19)
(0.401439 -0.104104 -4.23132e-19)
(0.403014 -0.0992195 4.21011e-19)
(0.403619 -0.0932783 -8.34719e-19)
(0.403501 -0.0865932 -4.14222e-19)
(0.402883 -0.0794093 0)
(0.401942 -0.0718392 -4.26047e-19)
(-0.0178141 0.0446083 0)
(-0.038494 0.111243 4.12563e-19)
(-0.0458201 0.162118 -3.1842e-19)
(-0.0427743 0.195747 -5.39253e-19)
(-0.0307714 0.213483 0)
(-0.0115079 0.21744 0)
(0.0135488 0.209995 -6.74467e-19)
(0.043112 0.193494 9.04064e-19)
(0.076012 0.170133 -6.80479e-19)
(0.111142 0.141931 0)
(0.147427 0.110738 2.2832e-19)
(0.183817 0.0782413 -2.27895e-19)
(0.219308 0.045944 2.08305e-21)
(0.25299 0.0151412 -2.2793e-19)
(0.284096 -0.013118 -2.23868e-19)
(0.312045 -0.038058 -2.24189e-21)
(0.336467 -0.0591857 4.44618e-19)
(0.357208 -0.0762756 4.44609e-19)
(0.374308 -0.0893379 7.78282e-22)
(0.387959 -0.098575 8.77168e-19)
(0.39847 -0.104328 -8.72213e-19)
(0.406219 -0.107019 8.65185e-19)
(0.411619 -0.10711 4.3017e-19)
(0.41508 -0.105061 4.26728e-19)
(0.416992 -0.101307 2.61177e-21)
(0.417701 -0.0962443 0)
(0.417507 -0.0902167 4.14417e-19)
(0.416664 -0.0835215 -1.23073e-18)
(0.415395 -0.0763981 4.03909e-19)
(0.413889 -0.0689933 4.22336e-19)
(-0.0182535 0.0424041 -2.82935e-19)
(-0.0393762 0.105764 -9.26451e-19)
(-0.0466019 0.154308 -1.47629e-22)
(-0.0428195 0.186408 1.5895e-21)
(-0.029483 0.20326 -3.27335e-19)
(-0.00839056 0.20681 0)
(0.0188647 0.199298 -2.22801e-19)
(0.0508606 0.182974 -1.35037e-18)
(0.0862895 0.159978 6.78786e-19)
(0.123909 0.132305 -4.51622e-19)
(0.162516 0.101798 6.77728e-19)
(0.200946 0.0701363 -2.26034e-19)
(0.238107 0.0388175 4.51809e-19)
(0.273029 0.00911634 -1.12336e-18)
(0.304924 -0.0179507 6.72428e-19)
(0.333225 -0.041651 -8.41306e-22)
(0.357603 -0.0615401 -1.33015e-18)
(0.377971 -0.0774397 4.41463e-19)
(0.39444 -0.0894034 -4.38154e-19)
(0.40728 -0.0976669 0)
(0.41687 -0.102592 4.31588e-19)
(0.423647 -0.104612 0)
(0.428073 -0.104185 -4.26692e-19)
(0.430593 -0.101764 4.22504e-19)
(0.431619 -0.0977695 4.20506e-19)
(0.431512 -0.0925786 4.14111e-19)
(0.430579 -0.0865165 0)
(0.429075 -0.079862 0)
(0.42722 -0.0728475 -8.09876e-19)
(0.425214 -0.0656519 1.25556e-18)
(-0.0186193 0.0402336 2.83237e-19)
(-0.04004 0.100218 5.13307e-19)
(-0.0470655 0.146258 -4.19251e-19)
(-0.0424746 0.176651 8.57405e-19)
(-0.0277563 0.192472 1.10726e-19)
(-0.00480235 0.195515 1.10379e-19)
(0.0246723 0.187893 1.74032e-21)
(0.0591088 0.171759 -4.46443e-19)
(0.0970564 0.149195 -2.23948e-19)
(0.137129 0.122161 1.90813e-21)
(0.177987 0.0924835 -1.95355e-21)
(0.218347 0.0618283 -6.7374e-19)
(0.25703 0.0316709 -2.2327e-19)
(0.293017 0.00325398 2.09018e-21)
(0.325509 -0.0224505 4.44372e-19)
(0.353967 -0.044763 4.42343e-19)
(0.378121 -0.0632939 2.23246e-21)
(0.397958 -0.0779162 -4.37657e-19)
(0.413673 -0.0887262 4.3653e-19)
(0.425614 -0.0959906 -4.33003e-19)
(0.43423 -0.100088 -8.60736e-19)
(0.440017 -0.101455 -4.27522e-19)
(0.443478 -0.100543 8.46047e-19)
(0.445089 -0.0977912 0)
(0.445277 -0.0936026 -4.1533e-19)
(0.444413 -0.0883322 -8.2561e-19)
(0.442806 -0.0822834 -8.18143e-19)
(0.44071 -0.075716 4.05761e-19)
(0.438338 -0.0688527 -1.20388e-18)
(0.435901 -0.061904 4.16164e-19)
(-0.0189171 0.0381145 -4.68318e-19)
(-0.0404763 0.0946535 1.02001e-19)
(-0.0471715 0.138046 4.19255e-19)
(-0.0416671 0.166571 -3.21036e-19)
(-0.0254879 0.181221 1.09379e-19)
(-0.000615317 0.183663 -7.16408e-23)
(0.0311156 0.175886 1.10924e-18)
(0.0680067 0.159952 4.47394e-19)
(0.108456 0.13788 4.49033e-19)
(0.150927 0.11159 6.73934e-19)
(0.193935 0.0828813 -6.74025e-19)
(0.236081 0.0533938 4.48862e-19)
(0.276101 0.0245688 8.94288e-19)
(0.31294 -0.00239691 4.45064e-19)
(0.345805 -0.0265877 -9.28808e-22)
(0.374203 -0.0473861 -8.83446e-19)
(0.397939 -0.0644625 8.7934e-19)
(0.417086 -0.0777433 1.40006e-21)
(0.431925 -0.0873661 -4.34171e-19)
(0.442887 -0.0936243 4.30664e-19)
(0.450489 -0.0969073 4.2915e-19)
(0.455279 -0.0976496 -4.23493e-19)
(0.457796 -0.0962917 -8.44165e-19)
(0.458539 -0.0932539 -5.47074e-22)
(0.457947 -0.0889171 4.16343e-19)
(0.456392 -0.0836125 4.115e-19)
(0.454182 -0.0776205 8.12855e-19)
(0.451564 -0.0711803 -8.01431e-19)
(0.448746 -0.0645047 0)
(0.445943 -0.0578343 4.13535e-19)
(-0.0191509 0.0360594 1.53666e-21)
(-0.0406744 0.0891119 0)
(-0.0468781 0.129739 -3.11595e-19)
(-0.0403212 0.156261 -1.06232e-19)
(-0.0225705 0.169618 -4.31403e-19)
(0.0043037 0.17137 0)
(0.0383439 0.163399 -6.63669e-19)
(0.077707 0.147675 2.22384e-19)
(0.120633 0.126152 0)
(0.165423 0.100706 -4.45846e-19)
(0.21045 0.0730982 0)
(0.254196 0.0449289 -6.67699e-19)
(0.295329 0.017592 6.66003e-19)
(0.332772 -0.00777496 -4.44073e-19)
(0.36576 -0.0303243 -4.40126e-19)
(0.393865 -0.0495081 0)
(0.416982 -0.0650604 0)
(0.435278 -0.0769608 4.34525e-19)
(0.449128 -0.0853852 5.60681e-22)
(0.459044 -0.0906484 4.28053e-19)
(0.465604 -0.0931443 -4.25244e-19)
(0.469404 -0.0933 8.46033e-19)
(0.471012 -0.0915396 -4.18548e-19)
(0.47094 -0.0882609 0)
(0.469631 -0.0838198 1.23614e-18)
(0.467456 -0.0785222 -2.03677e-18)
(0.464715 -0.0726243 4.0458e-19)
(0.461647 -0.0663452 4.00896e-19)
(0.458451 -0.0598871 3.94154e-19)
(0.455349 -0.0535203 8.18885e-19)
(-0.0193231 0.0340751 -3.69821e-19)
(-0.0406209 0.0836253 8.08411e-19)
(-0.0461418 0.121401 4.15855e-19)
(-0.0383602 0.145809 9.51228e-19)
(-0.018896 0.15777 1.1831e-18)
(0.0100867 0.15876 2.18001e-19)
(0.0465023 0.150562 -1.09828e-18)
(0.0883546 0.135063 0)
(0.133716 0.114148 -8.86674e-19)
(0.18072 0.0896427 -4.41937e-19)
(0.227595 0.0632588 0)
(0.272717 0.0365452 -4.4083e-19)
(0.3147 0.0108336 -1.11689e-21)
(0.352468 -0.012811 -1.32092e-18)
(0.385309 -0.0336186 4.40119e-19)
(0.412879 -0.0511162 4.3708e-19)
(0.435175 -0.0651034 -8.66612e-19)
(0.45247 -0.0756108 -8.64056e-19)
(0.465232 -0.0828481 -4.93573e-22)
(0.474048 -0.0871446 -1.42558e-21)
(0.479556 -0.0888933 0)
(0.482388 -0.0885079 -4.20075e-19)
(0.483132 -0.0863915 -4.14122e-19)
(0.482306 -0.0829165 0)
(0.480352 -0.0784117 0)
(0.47763 -0.0731564 1.21676e-18)
(0.474431 -0.0673833 -1.19903e-18)
(0.470983 -0.0612917 0)
(0.467476 -0.0550743 1.17488e-18)
(0.464135 -0.049031 -8.12848e-19)
(-0.0194338 0.0321635 3.18904e-21)
(-0.0403002 0.0782176 -8.08258e-19)
(-0.044918 0.113085 -1.03245e-19)
(-0.0357085 0.135297 -1.05631e-18)
(-0.0143607 0.145784 -6.45024e-19)
(0.0168578 0.145957 2.17087e-19)
(0.0557233 0.137514 4.40124e-19)
(0.100076 0.122261 1.10032e-18)
(0.14781 0.102016 8.86671e-19)
(0.196891 0.0785444 8.87772e-19)
(0.245405 0.0534989 0)
(0.291638 0.0283628 4.04901e-21)
(0.334174 0.00439133 0)
(0.371965 -0.0174344 8.79846e-19)
(0.404375 -0.0364301 0)
(0.431167 -0.0522012 -4.34905e-19)
(0.45245 -0.0646116 4.36634e-19)
(0.468608 -0.0737395 0)
(0.4802 -0.079822 0)
(0.487884 -0.0831963 -1.26978e-18)
(0.492347 -0.0842479 4.20543e-19)
(0.494247 -0.0833722 0)
(0.494183 -0.0809477 8.27369e-19)
(0.492674 -0.0773186 8.2288e-19)
(0.490148 -0.0727853 -1.62561e-18)
(0.486955 -0.067601 1.60998e-18)
(0.48337 -0.0619754 2.84045e-21)
(0.479607 -0.05609 7.86291e-19)
(0.475848 -0.0501294 -7.8313e-19)
(0.472323 -0.0444246 0)
(-0.0194804 0.0303223 9.24248e-19)
(-0.039694 0.0729045 -1.00327e-19)
(-0.0431624 0.104836 -8.21364e-19)
(-0.0322943 0.1248 0)
(-0.00886908 0.133762 -8.52045e-19)
(0.0247269 0.133086 0)
(0.0661181 0.124395 -1.08877e-18)
(0.112968 0.10942 -6.60248e-19)
(0.162986 0.0899107 -8.7882e-19)
(0.213968 0.0675625 0)
(0.263871 0.0439586 2.2018e-19)
(0.310915 0.0205028 2.23615e-19)
(0.35368 -0.00163865 -4.38697e-19)
(0.391178 -0.0215791 -8.71535e-19)
(0.422873 -0.0387253 -4.32709e-19)
(0.448651 -0.0527609 -1.72848e-18)
(0.468747 -0.063612 8.62349e-19)
(0.483652 -0.0713983 -3.1142e-22)
(0.494015 -0.0763772 -3.59293e-22)
(0.500555 -0.0788868 1.26704e-18)
(0.503997 -0.0792995 0)
(0.505016 -0.0779878 0)
(0.504213 -0.0753023 -2.13198e-21)
(0.502095 -0.0715573 2.83149e-21)
(0.499077 -0.0670245 -8.05256e-19)
(0.495487 -0.0619315 -8.00168e-19)
(0.491583 -0.056467 2.30008e-21)
(0.487566 -0.0507973 -7.86295e-19)
(0.483606 -0.0451016 -7.75616e-19)
(0.479945 -0.0397444 2.45627e-21)
(-0.0194579 0.0285452 0)
(-0.0387816 0.0676941 7.98218e-19)
(-0.0408314 0.0966903 7.18848e-19)
(-0.0280521 0.114385 1.04475e-19)
(-0.00233864 0.1218 1.70042e-18)
(0.0337836 0.120266 -2.15216e-19)
(0.0777696 0.111344 1.73765e-18)
(0.127092 0.0966919 8.72196e-19)
(0.179272 0.077986 1.31721e-18)
(0.23194 0.0568468 6.5612e-19)
(0.282946 0.0347746 2.19157e-19)
(0.330468 0.0130807 1.09602e-18)
(0.373121 -0.00716897 -3.73585e-22)
(0.410004 -0.0251896 4.36662e-19)
(0.440708 -0.0404808 8.67589e-19)
(0.465256 -0.0528029 8.63133e-19)
(0.484013 -0.062139 0)
(0.497577 -0.0686433 0)
(0.506676 -0.0725858 0)
(0.512082 -0.074299 0)
(0.514545 -0.0741364 8.29642e-19)
(0.514748 -0.0724442 0)
(0.513282 -0.0695425 -2.74668e-21)
(0.510637 -0.0657145 1.61809e-18)
(0.507205 -0.0612035 8.02505e-19)
(0.503293 -0.056213 7.94632e-19)
(0.499134 -0.0509127 1.57368e-18)
(0.494914 -0.0454568 0)
(0.490795 -0.0400247 -1.53849e-18)
(0.487036 -0.0350166 1.59821e-18)
(-0.0193582 0.026823 7.30153e-19)
(-0.0375398 0.062588 -7.98235e-19)
(-0.0378837 0.0886748 0)
(-0.0229246 0.104109 -8.3099e-19)
(0.00529705 0.109986 -2.15428e-19)
(0.0440921 0.107612 -6.4096e-19)
(0.0907266 0.0984941 -1.94584e-18)
(0.14247 0.0842206 -3.7816e-21)
(0.196651 0.0663905 -6.52369e-19)
(0.250751 0.0465393 -1.5291e-18)
(0.302537 0.0260732 -2.18449e-19)
(0.350185 0.00619923 -8.69242e-19)
(0.392376 -0.0121262 -8.6656e-19)
(0.42833 -0.0282242 0)
(0.457785 -0.0416863 -8.59104e-19)
(0.480913 -0.0523454 -1.2829e-18)
(0.498208 -0.0602347 4.2578e-19)
(0.51037 -0.0655351 -8.43904e-19)
(0.518197 -0.0685213 -8.37946e-19)
(0.522501 -0.0695138 0)
(0.524045 -0.0688431 -1.65452e-18)
(0.523508 -0.0668254 0)
(0.521463 -0.0637485 -1.62864e-18)
(0.518377 -0.0598643 -8.05646e-19)
(0.514613 -0.0553882 -1.59539e-18)
(0.51045 -0.0505009 7.89983e-19)
(0.506096 -0.0453557 -2.34513e-18)
(0.501718 -0.0400984 7.71119e-19)
(0.497469 -0.0349157 4.98983e-21)
(0.49364 -0.0302494 -7.93573e-19)
(-0.0191712 0.025144 -7.30169e-19)
(-0.0359439 0.0575828 9.91999e-20)
(-0.0342807 0.0808101 7.09212e-19)
(-0.0168649 0.0940236 8.31006e-19)
(0.0140854 0.0983973 -8.44632e-19)
(0.0556888 0.0952275 3.92645e-21)
(0.105001 0.0859691 8.62891e-19)
(0.159078 0.0721416 -1.73178e-18)
(0.21506 0.0552611 -2.12839e-19)
(0.270301 0.0367685 1.95661e-18)
(0.32252 0.017965 -1.30098e-18)
(0.369928 -5.631e-05 2.16817e-18)
(0.41131 -0.0164547 2.16098e-18)
(0.446039 -0.0306579 -4.30685e-19)
(0.474015 -0.0423457 8.59109e-19)
(0.495564 -0.0514175 1.28072e-18)
(0.511308 -0.0579485 4.21424e-19)
(0.522039 -0.0621375 4.5028e-21)
(0.528612 -0.0642567 4.20041e-19)
(0.531864 -0.0646095 4.14543e-19)
(0.532563 -0.0634988 -4.06531e-19)
(0.531372 -0.0612088 4.07609e-19)
(0.52884 -0.0579938 -8.05528e-19)
(0.525401 -0.0540742 8.02935e-19)
(0.521388 -0.0496377 5.09103e-21)
(0.517045 -0.0448433 7.82151e-19)
(0.512555 -0.0398297 5.10841e-21)
(0.508056 -0.0347389 -7.6843e-19)
(0.503694 -0.0297752 2.64389e-21)
(0.499809 -0.0254283 0)
(-0.0188843 0.0234958 0)
(-0.0339682 0.0526716 0)
(-0.0299886 0.0731112 -9.11907e-19)
(-0.00983741 0.0841693 1.03104e-19)
(0.0240534 0.0871052 0)
(0.06858 0.083207 8.51297e-19)
(0.120567 0.0738816 2.14101e-19)
(0.17685 0.0605768 6.48289e-19)
(0.234394 0.0447187 8.66571e-19)
(0.290453 0.0276445 -8.67439e-19)
(0.342738 0.0105406 8.66825e-19)
(0.389539 -0.00562115 -8.6505e-19)
(0.429782 -0.0201185 -8.6236e-19)
(0.463015 -0.0324831 0)
(0.489316 -0.0424771 0)
(0.509166 -0.0500584 0)
(0.523305 -0.0553353 -8.45044e-19)
(0.532605 -0.0585159 1.25805e-18)
(0.537964 -0.0598637 -4.15492e-19)
(0.540234 -0.05966 0)
(0.540174 -0.0581773 1.22899e-18)
(0.538423 -0.0556662 -4.05198e-19)
(0.535499 -0.0523468 8.05542e-19)
(0.5318 -0.0484072 -1.58831e-18)
(0.527622 -0.0440069 1.57753e-18)
(0.523175 -0.0392832 -2.43517e-21)
(0.518604 -0.03436 2.6995e-21)
(0.51402 -0.0293793 7.63305e-19)
(0.509549 -0.0245786 -3.99176e-22)
(0.505594 -0.0204957 7.84161e-19)
(-0.0184831 0.0218655 9.03318e-20)
(-0.0315865 0.0478463 -9.8142e-20)
(-0.024978 0.0655889 2.01448e-19)
(-0.00181931 0.0745824 -1.2305e-18)
(0.0352068 0.0761707 2.08655e-19)
(0.0827426 0.0716341 0)
(0.137363 0.062331 8.50634e-19)
(0.195683 0.0496322 -8.55463e-19)
(0.254513 0.0348658 0)
(0.311042 0.0192566 1.07404e-18)
(0.363019 0.00386838 -2.15294e-19)
(0.408854 -0.0104525 0)
(0.447652 -0.0231016 -4.27821e-19)
(0.479156 -0.0337089 8.52599e-19)
(0.503625 -0.0421112 -4.24327e-19)
(0.521693 -0.0483155 4.21799e-19)
(0.534206 -0.0524535 -8.38434e-19)
(0.542102 -0.0547355 2.75616e-24)
(0.54631 -0.0554106 -2.19459e-23)
(0.547682 -0.0547339 -4.07567e-19)
(0.546957 -0.0529461 -8.12909e-19)
(0.544746 -0.0502636 -6.71439e-23)
(0.541528 -0.0468719 2.49762e-21)
(0.537667 -0.0429256 7.92838e-19)
(0.533417 -0.0385542 -7.8245e-19)
(0.528948 -0.033868 7.77094e-19)
(0.524362 -0.0289698 -1.53277e-18)
(0.519718 -0.0240058 -2.73787e-21)
(0.515123 -0.0192477 -1.49847e-18)
(0.511044 -0.0153122 7.7973e-19)
(-0.0179511 0.0202405 0)
(-0.0287723 0.0430979 -7.80418e-19)
(-0.0192248 0.0582512 0)
(0.00720039 0.0652929 3.88726e-21)
(0.0475315 0.0656468 2.07773e-19)
(0.0981265 0.0605816 -4.6006e-23)
(0.155297 0.0514023 -1.69725e-18)
(0.215443 0.0393957 6.42014e-19)
(0.275248 0.025784 0)
(0.331882 0.0116715 -1.07298e-18)
(0.383178 -0.00200612 2.14223e-19)
(0.427712 -0.0145295 0)
(0.464792 -0.0254072 -4.25683e-19)
(0.494371 -0.0343598 4.24323e-19)
(0.516895 -0.0412894 4.19971e-19)
(0.533136 -0.0462418 8.3934e-19)
(0.544035 -0.0493631 -4.17047e-19)
(0.550581 -0.0508592 0)
(0.553716 -0.0509602 0)
(0.554282 -0.0498929 8.17495e-19)
(0.552991 -0.0478659 -8.08002e-19)
(0.550419 -0.0450619 8.00691e-19)
(0.547009 -0.041632 7.95526e-19)
(0.543087 -0.0376975 7.85112e-19)
(0.538875 -0.0333534 -7.77167e-19)
(0.534499 -0.0286718 7.71733e-19)
(0.530005 -0.0237185 7.61082e-19)
(0.525346 -0.0186102 -7.52842e-19)
(0.520479 -0.0135787 2.21225e-21)
(0.515768 -0.00937331 1.55158e-18)
(-0.0172751 0.0186141 8.95107e-20)
(-0.0255033 0.0384226 6.83394e-19)
(-0.0127124 0.0511078 0)
(0.0172192 0.0563291 8.16041e-19)
(0.0609935 0.0555809 0)
(0.114657 0.0501123 0)
(0.174248 0.041167 6.35581e-19)
(0.23597 0.0299389 2.86374e-22)
(0.296415 0.0175358 2.13105e-19)
(0.352781 0.00493542 2.12978e-19)
(0.403036 -0.00705794 -6.38865e-19)
(0.445958 -0.0178495 4.25426e-19)
(0.481088 -0.0270535 0)
(0.508593 -0.0344712 0)
(0.529098 -0.0400593 -8.42004e-19)
(0.543504 -0.0438919 0)
(0.55283 -0.0461218 -4.14719e-19)
(0.558098 -0.0469448 4.11891e-19)
(0.56025 -0.0465682 4.08567e-19)
(0.560108 -0.0451902 -1.13528e-22)
(0.558349 -0.0429885 -4.01672e-19)
(0.555511 -0.0401139 0)
(0.552004 -0.0366867 -7.87819e-19)
(0.548123 -0.0327971 7.80088e-19)
(0.544068 -0.0285035 0)
(0.539953 -0.0238333 0)
(0.53581 -0.0187816 0)
(0.531556 -0.0133362 0)
(0.526833 -0.00762979 -7.39553e-19)
(0.522238 -0.00139662 1.54126e-18)
(0.23737 -0.00560733 -0.0227923)
(0.258406 0.0177668 -0.0234628)
(0.273197 0.0433437 -0.0236243)
(0.279695 0.0651745 -0.0237493)
(0.282545 0.0823958 -0.0238091)
(0.282385 0.0954968 -0.0238326)
(0.280267 0.106266 -0.0238204)
(0.27671 0.116144 -0.0237837)
(0.272032 0.125763 -0.0237269)