/*--------------------------------*- C++ -*----------------------------------*\
  =========                 |
  \\      /  F ield         | OpenFOAM: The Open Source CFD Toolbox
   \\    /   O peration     | Website:  https://openfoam.org
    \\  /    A nd           | Version:  7
     \\/     M anipulation  |
\*---------------------------------------------------------------------------*/
FoamFile
{
    version     2.0;
    format      ascii;
    class       surfaceScalarField;
    location    "0.5";
    object      phi;
}
// * * * * * * * * * * * * * * * * * * * * * * * * * * * * * * * * * * * * * //

dimensions      [0 3 -1 0 0 0 0];

internalField   nonuniform List<scalar> 
35640
(
1.16917e-05
0.00154397
-0.00155566
0.00017313
-0.00068414
0.000522705
0.00052489
-0.00477435
0.00442259
0.00105422
-0.00887148
0.00834215
0.00172149
-0.0121832
0.0115159
0.0024808
-0.0145261
0.0137667
0.00329226
-0.0159991
0.0151876
0.00412625
-0.0167954
0.0159615
0.0049635
-0.0171099
0.0162727
0.00579265
-0.0171041
0.0162749
0.00660796
-0.0168983
0.016083
0.00740715
-0.016577
0.0157778
0.00819001
-0.0161964
0.0154135
0.00895739
-0.0157927
0.0150253
0.00971059
-0.0153879
0.0146347
0.0104511
-0.0149952
0.0142547
0.0111802
-0.0146215
0.0138924
0.0118994
-0.0142703
0.0135511
0.0126098
-0.0139424
0.013232
0.0133123
-0.0136376
0.0129351
0.014008
-0.013355
0.0126593
0.0146976
-0.013093
0.0124034
0.0153817
-0.01285
0.0121659
0.016061
-0.0126245
0.0119452
0.016736
-0.0124149
0.0117398
0.0174072
-0.0122197
0.0115485
0.018075
-0.0120376
0.0113698
0.0187398
-0.0118675
0.0112027
0.019402
-0.0117088
0.0110466
-0.0115648
0.0200612
0.0109055
2.25603e-05
0.00152142
0.000203612
-0.000865186
0.000577791
-0.00514852
0.00112772
-0.0094214
0.00181035
-0.0128658
0.00257809
-0.0152938
0.00339093
-0.0168119
0.00422027
-0.0176248
0.00504821
-0.0179378
0.00586477
-0.0179206
0.00666542
-0.017699
0.00744893
-0.0173605
0.00821577
-0.0169633
0.00896729
-0.0165442
0.0097051
-0.0161258
0.0104309
-0.015721
0.0111461
-0.0153368
0.0118521
-0.0149763
0.0125501
-0.0146404
0.013241
-0.0143286
0.0139257
-0.0140397
0.014605
-0.0137722
0.0152793
-0.0135244
0.0159494
-0.0132945
0.0166156
-0.0130811
0.0172783
-0.0128824
0.0179381
-0.0126973
0.0185951
-0.0125245
0.0192498
-0.0123635
-0.0122166
0.0199016
3.34749e-05
0.00148794
0.00023514
-0.00106685
0.000632934
-0.00554631
0.00120402
-0.00999249
0.00190161
-0.0135634
0.00267668
-0.0160689
0.00348949
-0.0176247
0.00431264
-0.0184479
0.0051297
-0.0187549
0.00593224
-0.0187232
0.006717
-0.0184837
0.00748372
-0.0181272
0.00823359
-0.0177131
0.00896843
-0.017279
0.00969014
-0.0168475
0.0104005
-0.0164314
0.0111012
-0.0160374
0.0117935
-0.0156686
0.0124785
-0.0153254
0.0131572
-0.0150073
0.0138304
-0.0147129
0.0144987
-0.0144405
0.0151627
-0.0141884
0.015823
-0.0139547
0.0164798
-0.0137379
0.0171336
-0.0135363
0.0177847
-0.0133484
0.0184334
-0.0131732
0.01908
-0.0130101
-0.0128605
0.0197239
4.46733e-05
0.00144327
0.000268107
-0.00129028
0.000690253
-0.00596846
0.0012823
-0.0105845
0.00199396
-0.0142751
0.00277504
-0.0168499
0.00358625
-0.0184359
0.00440161
-0.0192633
0.00520633
-0.0195596
0.00599352
-0.0195104
0.00676123
-0.0192515
0.0075102
-0.0188762
0.0082423
-0.0184452
0.00895975
-0.0179965
0.00966475
-0.0175525
0.0103592
-0.0171259
0.0110448
-0.016723
0.0117228
-0.0163466
0.0123944
-0.0159969
0.0130603
-0.0156732
0.0137215
-0.015374
0.0143784
-0.0150974
0.0150316
-0.0148416
0.0156814
-0.0146046
0.0163284
-0.0143848
0.0169727
-0.0141806
0.0176148
-0.0139905
0.0182547
-0.0138131
0.0188927
-0.0136481
-0.0134959
0.0195281
5.62538e-05
0.00138702
0.000301974
-0.00153599
0.000748703
-0.00641518
0.00136135
-0.0111972
0.0020861
-0.0149998
0.0028718
-0.0176356
0.00367989
-0.019244
0.00448591
-0.0200693
0.00527683
-0.0203505
0.00604741
-0.020281
0.00679705
-0.0200011
0.0075274
-0.0196065
0.00824098
-0.0191588
0.00894045
-0.0186959
0.0096282
-0.0182402
0.0103063
-0.0178039
0.0109763
-0.017393
0.0116395
-0.0170099
0.0122972
-0.0166545
0.0129499
-0.016326
0.0135986
-0.0160226
0.0142436
-0.0157424
0.0148854
-0.0154834
0.0155245
-0.0152437
0.0161611
-0.0150214
0.0167955
-0.014815
0.017428
-0.0146229
0.0180586
-0.0144438
0.0186876
-0.0142771
-0.0141223
0.0193141
6.80561e-05
0.00131896
0.000336503
-0.00180444
0.00080778
-0.00688646
0.00144037
-0.0118298
0.00217707
-0.0157365
0.00296594
-0.0184245
0.00376931
-0.0200474
0.00456442
-0.0208644
0.00534014
-0.0211263
0.00609294
-0.0210337
0.00682351
-0.0207317
0.00753445
-0.0203175
0.0082289
-0.0198533
0.00890985
-0.0193769
0.00957989
-0.0189102
0.0102411
-0.0184651
0.0108951
-0.0180471
0.0115433
-0.017658
0.0121865
-0.0172978
0.0128257
-0.0169652
0.0134613
-0.0166583
0.014094
-0.0163751
0.014724
-0.0161135
0.0153518
-0.0158715
0.0159776
-0.0156472
0.0166017
-0.0154391
0.0172241
-0.0152454
0.0178451
-0.0150648
0.0184647
-0.0148967
-0.0147394
0.0190818
8.00286e-05
0.00123893
0.000371342
-0.00209575
0.000866899
-0.00738202
0.00151864
-0.0124815
0.00226603
-0.0164839
0.0030565
-0.019215
0.00385351
-0.0208444
0.00463616
-0.021647
0.00539532
-0.0218854
0.00612921
-0.0217676
0.00683984
-0.0214423
0.00753068
-0.0210083
0.00820545
-0.020528
0.00886743
-0.0200389
0.00951936
-0.0195622
0.0101633
-0.0191091
0.010801
-0.0186847
0.0114336
-0.0182906
0.0120621
-0.0179263
0.0126872
-0.0175903
0.0133094
-0.0172805
0.0139292
-0.0169949
0.014547
-0.0167313
0.0151631
-0.0164875
0.0157777
-0.0162618
0.0163909
-0.0160523
0.017003
-0.0158574
0.0176139
-0.0156758
0.0182237
-0.0155065
-0.0153468
0.018831
9.20704e-05
0.00114686
0.000406235
-0.00240991
0.000925626
-0.00790141
0.00159555
-0.0131514
0.00235223
-0.0172406
0.00314265
-0.0200054
0.00393159
-0.0216334
0.00470021
-0.0224157
0.00544151
-0.0226267
0.00615546
-0.0224816
0.00684536
-0.0221322
0.00751551
-0.0216785
0.00817013
-0.0211826
0.00881277
-0.0206815
0.00944624
-0.0201956
0.0100727
-0.0197355
0.0106936
-0.0193057
0.0113103
-0.0189073
0.0119236
-0.0185396
0.0125342
-0.0182009
0.0131426
-0.0178889
0.0137492
-0.0176015
0.0143543
-0.0173364
0.0149582
-0.0170914
0.015561
-0.0168647
0.0161631
-0.0166543
0.0167643
-0.0164586
0.0173648
-0.0162763
0.0179644
-0.016106
-0.0159439
0.0185616
0.000104111
0.00104275
0.000440961
-0.00274676
0.000983591
-0.00844404
0.00167057
-0.0138384
0.00243499
-0.018005
0.00322359
-0.020794
0.00400271
-0.0224125
0.00475578
-0.0231687
0.00547799
-0.0233489
0.00617106
-0.0231747
0.00683952
-0.0228006
0.00748848
-0.0223274
0.00812257
-0.0218167
0.00874555
-0.0213045
0.00936027
-0.0208104
0.00996885
-0.0203441
0.0105728
-0.0199096
0.0111732
-0.0195078
0.011771
-0.0191374
0.0123667
-0.0187966
0.0129608
-0.018483
0.0135536
-0.0181943
0.0141455
-0.0179283
0.0147368
-0.0176826
0.0153275
-0.0174554
0.0159178
-0.0172446
0.0165079
-0.0170487
0.0170976
-0.016866
0.0176867
-0.0166951
-0.0165306
0.0182733
0.000116096
0.000926652
0.000475342
-0.00310601
0.00104046
-0.00900915
0.0017432
-0.0145412
0.00251365
-0.0187755
0.00329857
-0.0215789
0.00406611
-0.02318
0.00480214
-0.0239048
0.00550411
-0.0240509
0.00617546
-0.023846
0.0068219
-0.0234471
0.00744925
-0.0229548
0.00806251
-0.02243
0.00866557
-0.0219075
0.0092613
-0.0214061
0.00985175
-0.0209345
0.0104384
-0.0204963
0.0110222
-0.0200916
0.0116041
-0.0197192
0.0121844
-0.0193769
0.0127638
-0.0190623
0.0133424
-0.018773
0.0139206
-0.0185065
0.0144987
-0.0182607
0.0150768
-0.0180335
0.015655
-0.0178229
0.0162334
-0.0176271
0.0168119
-0.0174445
0.0173901
-0.0172733
-0.0171064
0.0179659
0.000127982
0.000798668
0.00050922
-0.00348725
0.00109591
-0.00959585
0.00181295
-0.0152582
0.00258758
-0.0195501
0.0033669
-0.0223582
0.00412112
-0.0239342
0.00483868
-0.0246223
0.00551933
-0.0247315
0.00616822
-0.0244949
0.00679214
-0.024071
0.00739757
-0.0235602
0.00798976
-0.0230222
0.0085727
-0.0224905
0.00914923
-0.0219826
0.00972132
-0.0215066
0.0102904
-0.0210653
0.0108573
-0.0206585
0.0114228
-0.0202847
0.0119874
-0.0199415
0.0125515
-0.0196264
0.0131154
-0.0193369
0.0136794
-0.0190705
0.0142438
-0.0188251
0.0148087
-0.0185984
0.0153743
-0.0183884
0.0159406
-0.0181934
0.0165075
-0.0180114
0.0170744
-0.0178401
-0.0176709
0.0176389
0.000139732
0.000658935
0.000542453
-0.00388997
0.00114966
-0.010203
0.00187936
-0.0159879
0.00265622
-0.020327
0.00342795
-0.02313
0.00416712
-0.0246734
0.00486486
-0.0253201
0.00552323
-0.0253899
0.00614901
-0.0251207
0.00675004
-0.024672
0.00733329
-0.0241434
0.00790425
-0.0235931
0.00846693
-0.0230532
0.00902408
-0.0225398
0.0095776
-0.0220602
0.0101288
-0.0216165
0.0106785
-0.0212082
0.0112273
-0.0208335
0.0117756
-0.0204899
0.012324
-0.0201747
0.0128726
-0.0198855
0.0134218
-0.0196197
0.0139719
-0.0193751
0.014523
-0.0191495
0.0150754
-0.0189408
0.015629
-0.0187471
0.0161839
-0.0185663
0.016739
-0.0183953
-0.0182236
0.0172917
0.000151315
0.000507619
0.000574906
-0.00431356
0.0012014
-0.0108295
0.001942
-0.0167285
0.00271901
-0.021104
0.00348116
-0.0238921
0.00420359
-0.0253958
0.00488024
-0.0259967
0.00551546
-0.0260251
0.00611762
-0.0257228
0.00669545
-0.0252499
0.00725636
-0.0247044
0.00780598
-0.0241428
0.00834828
-0.0235954
0.00888592
-0.0230774
0.00942068
-0.0225949
0.00995373
-0.0221495
0.0104858
-0.0217403
0.0110175
-0.0213652
0.0115492
-0.0210216
0.0120813
-0.0207068
0.0126141
-0.0204183
0.0131478
-0.0201535
0.0136829
-0.0199102
0.0142195
-0.0196861
0.014758
-0.0194792
0.0152984
-0.0192874
0.0158405
-0.0191084
0.0163833
-0.0189381
-0.018764
0.0169237
0.000162701
0.000344917
0.000606447
-0.00475731
0.00125086
-0.011474
0.00200043
-0.0174781
0.00277545
-0.021879
0.00352602
-0.0246427
0.00423009
-0.0260999
0.00488448
-0.0266511
0.0054958
-0.0266364
0.0060739
-0.0263009
0.00662832
-0.0258043
0.00716681
-0.0252428
0.00769502
-0.024671
0.00821687
-0.0241173
0.00873489
-0.0235954
0.00925072
-0.0231107
0.00976541
-0.0226642
0.0102796
-0.0222545
0.0107938
-0.0218794
0.0113084
-0.0215362
0.0118236
-0.0212221
0.0123399
-0.0209345
0.0128575
-0.0206711
0.0133768
-0.0204295
0.0138981
-0.0202075
0.0144218
-0.0200029
0.0149481
-0.0198137
0.0154767
-0.019637
0.0160064
-0.0194678
-0.0192914
0.0165338
0.000173858
0.000171059
0.000636946
-0.00522039
0.00129776
-0.0121348
0.00205425
-0.0182346
0.00282509
-0.0226498
0.0035621
-0.0253797
0.00424625
-0.026784
0.00487732
-0.0272822
0.00546411
-0.0272232
0.00601783
-0.0268547
0.00654871
-0.0263352
0.00706472
-0.0257589
0.00757152
-0.0251778
0.00807287
-0.0246186
0.00857118
-0.0240937
0.00906794
-0.0236075
0.00956405
-0.0231603
0.0100601
-0.0227506
0.0105564
-0.0223757
0.0110534
-0.0220331
0.0115512
-0.0217199
0.0120503
-0.0214336
0.012551
-0.0211718
0.0130536
-0.0209321
0.0135586
-0.0207125
0.0140666
-0.0205109
0.0145776
-0.0203248
0.0150917
-0.0201511
0.0156073
-0.0199833
-0.0198048
0.0161207
0.000184757
-1.36981e-05
0.000666271
-0.00570191
0.00134183
-0.0128103
0.0021031
-0.0189958
0.00286752
-0.0234143
0.00358902
-0.0261012
0.0042518
-0.0274468
0.0048586
-0.027889
0.00542033
-0.027785
0.00594943
-0.0273838
0.00645671
-0.0268425
0.00695026
-0.0262524
0.00743566
-0.0256632
0.00791651
-0.0250995
0.00839506
-0.0245723
0.00887262
-0.0240851
0.00934996
-0.0236377
0.00982753
-0.0232281
0.0103056
-0.0228538
0.0107845
-0.022512
0.0112644
-0.0221998
0.0117456
-0.0219148
0.0122285
-0.0216546
0.0127135
-0.0214171
0.0132011
-0.0212002
0.013692
-0.0210017
0.0141865
-0.0208193
0.0146846
-0.0206491
0.0151846
-0.0204833
-0.0203031
0.0156828
0.000195367
-0.000209066
0.000694295
-0.00620083
0.00138283
-0.0134989
0.00214663
-0.0197596
0.00290239
-0.02417
0.00360649
-0.0268053
0.00424655
-0.0280869
0.00482825
-0.0284707
0.00536449
-0.0283212
0.00586883
-0.0278881
0.0063525
-0.0273261
0.00682364
-0.0267236
0.0072877
-0.0261272
0.00774808
-0.0255599
0.00820683
-0.025031
0.00866509
-0.0245433
0.00912349
-0.0240961
0.00958236
-0.023687
0.0100419
-0.0233134
0.0105023
-0.0229723
0.0109636
-0.0226612
0.0114263
-0.0223775
0.0118905
-0.0221189
0.0123568
-0.0218834
0.0128258
-0.0216692
0.0132981
-0.0214741
0.0137744
-0.0212955
0.0142546
-0.0211293
0.0147372
-0.0209659
-0.0207845
0.0152187
0.000205658
-0.000414724
0.000720893
-0.00671607
0.00142052
-0.0141985
0.00218454
-0.0205236
0.0029294
-0.0249149
0.0036143
-0.0274902
0.00423039
-0.028703
0.00478625
-0.0290266
0.0052967
-0.0288317
0.00577621
-0.0283676
0.00623632
-0.0277862
0.00668514
-0.0271724
0.00712793
-0.02657
0.00756788
-0.0259998
0.00800682
-0.02547
0.00844573
-0.0249822
0.00888506
-0.0245354
0.00932503
-0.024127
0.00976573
-0.0237541
0.0102072
-0.0234138
0.0106496
-0.0231036
0.011093
-0.0228209
0.0115377
-0.0225636
0.0119842
-0.0223299
0.0124331
-0.0221181
0.0128852
-0.0219261
0.0133412
-0.0217515
0.0138013
-0.0215894
0.0142641
-0.0214288
-0.0212474
0.014727
0.000215601
-0.000630325
0.000745944
-0.00724641
0.00145468
-0.0149072
0.00221656
-0.0212855
0.00294831
-0.0256466
0.00361228
-0.0281542
0.00420326
-0.029294
0.0047327
-0.029556
0.00521712
-0.0293161
0.0056718
-0.0288223
0.00610845
-0.0282229
0.00653507
-0.027599
0.00695669
-0.0269916
0.00737627
-0.0264194
0.00779543
-0.0258891
0.00821494
-0.0254017
0.00863513
-0.0249556
0.00905608
-0.0245479
0.00947775
-0.0241757
0.00990009
-0.0238362
0.010323
-0.0235265
0.0107467
-0.0232445
0.0111711
-0.0229881
0.0115967
-0.0227555
0.0120241
-0.0225454
0.012454
-0.022356
0.0128873
-0.0221848
0.0133245
-0.0220267
0.0137649
-0.0218692
-0.0216898
0.0142073
0.000225168
-0.000855493
0.000769333
-0.00779057
0.0014851
-0.015623
0.00224246
-0.0220429
0.00295893
-0.0263631
0.00360033
-0.0287956
0.00416521
-0.0298588
0.00466774
-0.0300586
0.00512599
-0.0297743
0.00555589
-0.0292522
0.0059692
-0.0286362
0.00637375
-0.0280035
0.00677432
-0.0273922
0.00717362
-0.0268187
0.00757303
-0.0262885
0.00797317
-0.0258019
0.0083742
-0.0253566
0.00877607
-0.0249498
0.00917862
-0.0245783
0.00958164
-0.0242392
0.00998493
-0.0239298
0.0103883
-0.0236479
0.0107918
-0.0233916
0.0111956
-0.0231593
0.0116
-0.0229499
0.0120059
-0.0227618
0.012414
-0.022593
0.0128254
-0.0224381
0.0132404
-0.0222841
-0.0221094
0.01366
0.000234329
-0.00108982
0.000790952
-0.0083472
0.00151161
-0.0163436
0.00226204
-0.0227933
0.00296111
-0.0270622
0.00357845
-0.0294129
0.00411634
-0.0303967
0.00459156
-0.0305338
0.00502358
-0.0302063
0.00542879
-0.0296574
0.00581892
-0.0290263
0.00620156
-0.0283862
0.00658121
-0.0277718
0.00696031
-0.0271978
0.00734005
-0.0266683
0.00772086
-0.0261827
0.00810277
-0.0257385
0.00848561
-0.0253326
0.00886907
-0.0249617
0.00925278
-0.0246229
0.00963632
-0.0243134
0.0100193
-0.0240309
0.0104015
-0.0237738
0.0107828
-0.0235406
0.0111632
-0.0233303
0.0115433
-0.0231419
0.0119238
-0.0229735
0.0123063
-0.0228205
0.0126925
-0.0226703
-0.022504
0.013087
0.000243055
-0.00133288
0.000810698
-0.00891484
0.00153403
-0.017067
0.00227514
-0.0235344
0.00295479
-0.0277418
0.00354667
-0.0300048
0.00405679
-0.0309068
0.00450443
-0.0309814
0.00491021
-0.0306121
0.00529085
-0.0300381
0.00565797
-0.0293934
0.00601885
-0.0287471
0.00637771
-0.0281307
0.00673673
-0.0275568
0.00709688
-0.0270284
0.00745846
-0.0265443
0.00782137
-0.0261014
0.00818532
-0.0256966
0.00854985
-0.0253263
0.00891441
-0.0249874
0.0092784
-0.0246773
0.00964116
-0.0243937
0.0100021
-0.0241347
0.0103606
-0.0238991
0.0107164
-0.0236861
0.0110695
-0.0234949
0.0114205
-0.0233245
0.0117711
-0.0231712
0.0121253
-0.0230244
-0.0228708
0.012492
0.000251318
-0.0015842
0.000828473
-0.00949199
0.00155223
-0.0177907
0.00228164
-0.0242638
0.00293993
-0.0284001
0.00350508
-0.03057
0.00398679
-0.0313886
0.00440662
-0.0314013
0.00478622
-0.0309917
0.00514245
-0.0303943
0.00548672
-0.0297377
0.00582602
-0.0290864
0.0061642
-0.0284689
0.00650323
-0.0278958
0.00684391
-0.0273691
0.00718638
-0.0268867
0.00753046
-0.0264455
0.00787575
-0.0260419
0.00822166
-0.0256722
0.00856747
-0.0253333
0.00891235
-0.0250222
0.00925539
-0.0247367
0.00959559
-0.0244749
0.00993187
-0.0242354
0.0102632
-0.0240174
0.010589
-0.0238207
0.0109093
-0.0236448
0.0112259
-0.0234877
0.0115448
-0.0233432
-0.0232061
0.0118801
0.00025909
-0.00184329
0.000844193
-0.0100771
0.00156609
-0.0185126
0.00228146
-0.0249792
0.00291657
-0.0290352
0.00345383
-0.0311072
0.00390658
-0.0318413
0.00429848
-0.0317932
0.00465197
-0.0313452
0.00498396
-0.0307263
0.00530557
-0.0300593
0.00562341
-0.0294042
0.00594104
-0.0287865
0.00626018
-0.028215
0.00658149
-0.0276904
0.00690501
-0.0272103
0.00723048
-0.026771
0.00755741
-0.0263688
0.00788512
-0.0259999
0.00821277
-0.0256609
0.00853933
-0.0253488
0.00886363
-0.025061
0.00918425
-0.0247955
0.00949956
-0.0245507
0.00980781
-0.0243257
0.0101074
-0.0241203
0.0103972
-0.0239347
0.0106786
-0.0237692
0.0109591
-0.0236237
-0.0235051
0.0112581
0.000266347
-0.00210963
0.00085778
-0.0106685
0.0015755
-0.0192304
0.00227457
-0.0256782
0.00288476
-0.0296454
0.00339312
-0.0316156
0.00381648
-0.0322647
0.00418037
-0.0321571
0.00450788
-0.0316727
0.00481579
-0.0310342
0.00511489
-0.0303584
0.00541139
-0.0297007
0.00570855
-0.0290837
0.0060079
-0.0285143
0.00630993
-0.0279924
0.00661466
-0.027515
0.00692175
-0.0270781
0.00723069
-0.0266777
0.00754074
-0.0263099
0.00785098
-0.0259711
0.00816028
-0.0256581
0.00846725
-0.025368
0.00877012
-0.0250984
0.00906673
-0.0248473
0.00935452
-0.0246135
0.00963067
-0.0243964
0.00989252
-0.0241966
0.0101395
-0.0240161
0.0103792
-0.0238634
-0.023761
0.0106351
0.000273068
-0.0023827
0.000869169
-0.0112646
0.00158039
-0.0199416
0.00226095
-0.0263588
0.00284462
-0.0302291
0.00332318
-0.0320941
0.0037168
-0.0326583
0.00405268
-0.032493
0.00435433
-0.0319743
0.00463834
-0.0313182
0.00491505
-0.0306351
0.0051903
-0.0299759
0.00546706
-0.0293604
0.00574666
-0.0287939
0.00602951
-0.0282753
0.00631556
-0.027801
0.00660451
-0.027367
0.00689583
-0.026969
0.0071888
-0.0266029
0.0074825
-0.0262648
0.0077758
-0.0259514
0.00806723
-0.0256594
0.00835479
-0.025386
0.00863594
-0.0251285
0.00890743
-0.024885
0.00916516
-0.0246541
0.00940431
-0.0244357
0.00962104
-0.0242328
0.00981992
-0.0240622
-0.0239667
0.0100256
0.000279237
-0.00266194
0.000878307
-0.0118637
0.00158072
-0.020644
0.00224064
-0.0270187
0.00279631
-0.0307848
0.00324428
-0.0325421
0.00360791
-0.0330219
0.00391581
-0.0328009
0.00419175
-0.0322503
0.00445199
-0.0315784
0.00470643
-0.0308896
0.00496049
-0.03023
0.00521687
-0.0296168
0.00547673
-0.0290538
0.00574042
-0.028539
0.0060079
-0.0280685
0.00627888
-0.027638
0.0065529
-0.027243
0.00682931
-0.0268793
0.00710734
-0.0265429
0.007386
-0.02623
0.00766389
-0.0259373
0.00793909
-0.0256611
0.00820894
-0.0253983
0.00846975
-0.0251458
0.00871632
-0.0249007
0.0089416
-0.024661
0.00913783
-0.0244291
0.00930287
-0.0242273
-0.024118
0.00945425
0.00028485
-0.00294679
0.000885161
-0.012464
0.00157647
-0.0213353
0.0022137
-0.0276559
0.00274002
-0.0313111
0.00315674
-0.0329588
0.00349018
-0.0333553
0.00377017
-0.0330809
0.00402055
-0.0325007
0.00425716
-0.031815
0.00448939
-0.0311218
0.00472227
-0.0304629
0.00495824
-0.0298528
0.00519832
-0.0292939
0.00544284
-0.0287835
0.00569176
-0.0283174
0.00594485
-0.0278911
0.00620176
-0.0275
0.00646201
-0.0271396
0.00672508
-0.0268059
0.00699028
-0.0264952
0.00725659
-0.0262036
0.00752258
-0.0259271
0.0077861
-0.0256618
0.00804366
-0.0254033
0.00828955
-0.0251466
0.00851474
-0.0248862
0.00870714
-0.0246215
0.00885545
-0.0243756
-0.0242261
0.00896354
0.000289929
-0.00323671
0.000889726
-0.0130638
0.00156764
-0.0220132
0.00218026
-0.0282686
0.002676
-0.0318068
0.0030609
-0.0333437
0.00336404
-0.0336585
0.00361622
-0.033333
0.00384116
-0.0327256
0.00405423
-0.0320281
0.00426429
-0.0313319
0.00447596
-0.0306745
0.00469145
-0.0300683
0.00491166
-0.0295141
0.00513689
-0.0290087
0.00536716
-0.0285477
0.00560231
-0.0281263
0.00584211
-0.0277397
0.00608633
-0.0273838
0.00633477
-0.0270544
0.00658718
-0.0267477
0.00684323
-0.0264597
0.00710251
-0.0261864
0.00736434
-0.0259237
0.00762718
-0.0256662
0.00788742
-0.0254068
0.00813689
-0.0251357
0.00835803
-0.0248426
0.00851767
-0.0245352
-0.024339
0.00863052
0.000294532
-0.00353125
0.000892026
-0.0136613
0.00155431
-0.0226755
0.00214048
-0.0288547
0.00260454
-0.0322709
0.00295715
-0.0336964
0.00322992
-0.0339313
0.00345438
-0.0335575
0.00365402
-0.0329252
0.00384361
-0.0322177
0.00403148
-0.0315197
0.00422187
-0.0308649
0.00441675
-0.0302632
0.00461692
-0.0297143
0.00482269
-0.0292145
0.0050341
-0.0287591
0.00525108
-0.0283432
0.00547354
-0.0279622
0.00570152
-0.0276118
0.00593513
-0.027288
0.00617457
-0.0269871
0.00642031
-0.0267054
0.00667319
-0.0264393
0.00693458
-0.0261851
0.00720664
-0.0259382
0.00749251
-0.0256927
0.00779633
-0.0254395
0.00811866
-0.0251649
0.00842287
-0.0248394
0.00843353
-0.0243497
0.0207919
-0.0563612
0.0556305
0.0212901
-0.0515606
0.0510624
0.0216684
-0.0492539
0.0488756
0.0219261
-0.0471864
0.0469286
0.0220974
-0.0450042
0.0448329
0.0222075
-0.0428095
0.0426994
0.0222687
-0.0407029
0.0406417
0.0222933
-0.0387147
0.03869
0.0222924
-0.0368431
0.0368441
0.0222715
-0.0351158
0.0351367
0.0222396
-0.0334858
0.0335177
0.0221976
-0.0320137
0.0320556
0.0221525
-0.0306499
0.030695
0.0221024
-0.0294358
0.0294859
0.0220517
-0.0283299
0.0283806
0.0219995
-0.0273586
0.0274107
0.0219447
-0.0264907
0.0265456
0.0218895
-0.0257299
0.025785
0.0218303
-0.0250601
0.0251194
0.0217676
-0.0244872
0.0245498
0.0217001
-0.0239966
0.0240642
0.0216242
-0.0235831
0.023659
0.0215426
-0.0232643
0.0233459
0.0214478
-0.0229949
0.0230896
0.0213483
-0.0228242
0.0229237
0.0212291
-0.0227482
0.0228674
0.0211031
-0.0222864
0.0224124
0.020972
-0.0237879
0.023919
0.0207988
-0.019739
0.0199122
-0.024859
0.0250125
0.0206106
-0.0570701
0.021103
-0.052053
0.0214875
-0.0496384
0.0217557
-0.0474545
0.0219374
-0.0451859
0.0220593
-0.0429314
0.0221323
-0.0407759
0.0221684
-0.0387508
0.0221783
-0.0368531
0.0221662
-0.0351037
0.0221436
-0.0334632
0.022109
-0.031979
0.0220709
-0.0306118
0.0220266
-0.0293915
0.021982
-0.0282853
0.0219351
-0.0273117
0.0218848
-0.0264403
0.0218348
-0.0256799
0.0217794
-0.0250047
0.0217211
-0.024429
0.0216571
-0.0239326
0.0215849
-0.0235109
0.0215068
-0.0231863
0.021416
-0.0229041
0.0213202
-0.0227283
0.0212059
-0.0226339
0.0210853
-0.0221658
0.0209608
-0.0236634
0.0207946
-0.0195728
-0.0247169
0.0204092
-0.0577555
0.0208977
-0.0525414
0.0212889
-0.0500296
0.0215672
-0.0477328
0.021761
-0.0453797
0.0218955
-0.0430659
0.0219808
-0.0408613
0.0220292
-0.0387991
0.0220501
-0.036874
0.0220484
-0.035102
0.0220349
-0.0334497
0.0220085
-0.0319526
0.0219781
-0.0305814
0.0219408
-0.0293542
0.0219024
-0.0282469
0.0218616
-0.0272709
0.021817
-0.0263957
0.0217722
-0.0256351
0.021722
-0.0249545
0.0216682
-0.0243752
0.0216088
-0.0238732
0.0215413
-0.0234434
0.0214672
-0.0231123
0.0213812
-0.022818
0.02129
-0.0226372
0.0211808
-0.0225246
0.0210665
-0.0220515
0.0209493
-0.0235461
0.0207904
-0.0194139
-0.024587
0.0201881
-0.0584155
0.0206735
-0.0530269
0.0210724
-0.0504285
0.0213614
-0.0480219
0.0215683
-0.0455866
0.0217161
-0.0432137
0.0218145
-0.0409596
0.0218759
-0.0388606
0.0219082
-0.0369063
0.0219178
-0.0351115
0.0219139
-0.0334458
0.0218966
-0.0319353
0.0218741
-0.030559
0.0218448
-0.0293249
0.0218132
-0.0282153
0.0217792
-0.0272369
0.0217413
-0.0263578
0.0217019
-0.0255957
0.0216581
-0.0249107
0.0216094
-0.0243266
0.0215553
-0.023819
0.0214933
-0.0233814
0.0214239
-0.0230429
0.0213432
-0.0227372
0.0212578
-0.0225518
0.021154
-0.0224208
0.0210468
-0.0219444
0.0209375
-0.0234368
0.0207862
-0.0192627
-0.0244697
0.0199473
-0.0590487
0.0204309
-0.0535104
0.020838
-0.0508356
0.0211385
-0.0483224
0.0213594
-0.0458075
0.0215212
-0.0433755
0.0216334
-0.0410718
0.0217085
-0.0389356
0.0217529
-0.0369507
0.0217744
-0.0351331
0.0217806
-0.033452
0.0217732
-0.0319279
0.0217592
-0.0305451
0.0217388
-0.0293044
0.0217145
-0.028191
0.0216879
-0.0272104
0.0216575
-0.0263274
0.0216242
-0.0255624
0.0215876
-0.024874
0.0215447
-0.0242837
0.0214967
-0.023771
0.0214408
-0.0233256
0.021377
-0.0229791
0.0213022
-0.0226624
0.0212233
-0.0224729
0.0211256
-0.0223231
0.0210262
-0.021845
0.0209252
-0.0233358
0.0207822
-0.0191196
-0.0243656
0.0196867
-0.0596536
0.0201697
-0.0539935
0.0205858
-0.0512516
0.0208987
-0.0486353
0.0211344
-0.0460431
0.021311
-0.0435521
0.0214378
-0.0411986
0.021527
-0.0390249
0.0215844
-0.0370081
0.0216182
-0.0351668
0.0216354
-0.0334692
0.0216385
-0.031931
0.0216337
-0.0305403
0.0216226
-0.0292934
0.0216066
-0.0281749
0.021588
-0.0271918
0.0215658
-0.0263052
0.0215394
-0.0255359
0.0215105
-0.0248452
0.0214743
-0.0242476
0.021433
-0.0237296
0.0213839
-0.0232765
0.0213265
-0.0229217
0.0212581
-0.022594
0.0211864
-0.0224012
0.0210956
-0.0222323
0.0210045
-0.0217538
0.0209124
-0.0232437
0.0207781
-0.0189853
-0.0242752
0.0194062
-0.0602287
0.0198902
-0.0544774
0.020316
-0.0516775
0.0206421
-0.0489614
0.0208934
-0.0462944
0.0210856
-0.0437443
0.0212278
-0.0413407
0.0213318
-0.0391289
0.021403
-0.0370794
0.0214495
-0.0352133
0.0214785
-0.0334982
0.0214926
-0.0319451
0.0214977
-0.0305454
0.0214965
-0.0292923
0.0214895
-0.0281679
0.0214794
-0.0271817
0.0214662
-0.026292
0.0214475
-0.0255172
0.0214268
-0.0248245
0.0213984
-0.0242192
0.0213643
-0.0236955
0.0213227
-0.0232348
0.0212726
-0.0228716
0.0212112
-0.0225326
0.0211472
-0.0223373
0.021064
-0.0221491
0.0209818
-0.0216716
0.0208989
-0.0231609
0.0207741
-0.0188605
-0.0241987
0.0191063
-0.0607735
0.0195924
-0.0549635
0.0200287
-0.0521138
0.020369
-0.0493017
0.0206366
-0.0465621
0.0208453
-0.043953
0.0210036
-0.041499
0.0211229
-0.0392482
0.0212088
-0.0371653
0.0212685
-0.035273
0.0213099
-0.0335396
0.0213357
-0.0319709
0.0213513
-0.030561
0.0213607
-0.0293016
0.0213635
-0.0281707
0.0213625
-0.0271807
0.0213589
-0.0262884
0.0213488
-0.025507
0.0213368
-0.0248125
0.0213169
-0.0241993
0.0212908
-0.0236694
0.0212571
-0.0232011
0.0212151
-0.0228295
0.0211614
-0.0224789
0.0211057
-0.0222817
0.0210308
-0.0220741
0.0209581
-0.0215989
0.0208848
-0.0230876
0.0207699
-0.0187456
-0.0241368
0.0187873
-0.0612875
0.0192766
-0.0554528
0.0197242
-0.0525614
0.0200795
-0.049657
0.0203644
-0.0468469
0.0205902
-0.0441788
0.0207654
-0.0416742
0.0209007
-0.0393835
0.0210019
-0.0372665
0.0210755
-0.0353466
0.0211298
-0.033594
0.021168
-0.0320091
0.0211949
-0.0305878
0.0212152
-0.0293219
0.0212288
-0.0281843
0.0212374
-0.0271893
0.021244
-0.026295
0.0212433
-0.0255063
0.0212405
-0.0248098
0.02123
-0.0241888
0.0212125
-0.0236519
0.0211874
-0.023176
0.021154
-0.0227961
0.0211088
-0.0224336
0.021062
-0.0222349
0.0209959
-0.022008
0.0209334
-0.0215364
0.0208699
-0.0230241
0.0207655
-0.0186412
-0.0240897
0.0184496
-0.0617712
0.0189429
-0.0559461
0.0194027
-0.0530212
0.019774
-0.0500283
0.0200768
-0.0471498
0.0203205
-0.0444225
0.0205134
-0.0418671
0.0206652
-0.0395353
0.0207825
-0.0373837
0.0208706
-0.0354346
0.0209385
-0.033662
0.0209898
-0.0320604
0.0210285
-0.0306266
0.0210604
-0.0293538
0.0210853
-0.0282092
0.0211043
-0.0272084
0.0211216
-0.0263123
0.0211312
-0.0255159
0.0211382
-0.0248168
0.0211377
-0.0241883
0.0211296
-0.0236438
0.0211136
-0.0231601
0.0210896
-0.0227721
0.0210534
-0.0223975
0.0210159
-0.0221974
0.0209592
-0.0219513
0.0209077
-0.0214849
0.0208542
-0.0229706
0.0207609
-0.0185478
-0.0240579
0.0180935
-0.0622258
0.0185915
-0.0564441
0.0190645
-0.0534942
0.0194527
-0.0504165
0.0197743
-0.0474713
0.0200365
-0.0446847
0.0202479
-0.0420785
0.0204169
-0.0397043
0.0205508
-0.0375177
0.0206541
-0.0355379
0.0207362
-0.0337441
0.0208011
-0.0321253
0.0208524
-0.0306779
0.0208963
-0.0293976
0.0209333
-0.0282463
0.0209634
-0.0272384
0.0209919
-0.0263408
0.0210126
-0.0255366
0.0210298
-0.024834
0.02104
-0.0241985
0.021042
-0.0236458
0.0210358
-0.0231539
0.0210216
-0.0227579
0.0209953
-0.0223712
0.0209677
-0.0221698
0.0209207
-0.0219043
0.020881
-0.0214452
0.0208378
-0.0229274
0.0207559
-0.018466
-0.0240417
0.0177198
-0.0626539
0.0182228
-0.0569471
0.01871
-0.0539813
0.0191158
-0.0508224
0.0194569
-0.0478124
0.0197383
-0.0449661
0.019969
-0.0423092
0.0201558
-0.039891
0.020307
-0.0376689
0.0204262
-0.0356571
0.020523
-0.0338409
0.0206023
-0.0322046
0.0206669
-0.0307425
0.0207232
-0.029454
0.020773
-0.0282961
0.0208149
-0.0272803
0.0208549
-0.0263808
0.0208875
-0.0255692
0.0209156
-0.0248621
0.0209371
-0.0242199
0.0209499
-0.0236586
0.0209541
-0.0231581
0.0209504
-0.0227542
0.0209345
-0.0223553
0.0209174
-0.0221527
0.0208804
-0.0218672
0.0208533
-0.0214181
0.0208205
-0.0228947
0.0207506
-0.018396
-0.0240417
0.0173291
-0.0630593
0.0178373
-0.0574552
0.0183395
-0.0544835
0.0187639
-0.0512468
0.0191252
-0.0481737
0.0194264
-0.0452673
0.0196771
-0.0425599
0.0198823
-0.0400962
0.0200514
-0.0378381
0.0201873
-0.035793
0.0202993
-0.0339529
0.0203934
-0.0322987
0.020472
-0.0308211
0.0205414
-0.0295233
0.0206044
-0.0283591
0.0206588
-0.0273347
0.0207109
-0.0264329
0.0207562
-0.0256145
0.0207957
-0.0249017
0.020829
-0.0242532
0.0208534
-0.023683
0.0208686
-0.0231733
0.0208759
-0.0227615
0.020871
-0.0223504
0.0208651
-0.0221469
0.0208383
-0.0218404
0.0208244
-0.0214042
0.0208025
-0.0228728
0.0207448
-0.0183383
-0.0240582
0.0169225
-0.0634479
0.0174355
-0.0579683
0.0179537
-0.0550018
0.0183975
-0.0516905
0.0187794
-0.0485557
0.0191011
-0.045589
0.0193724
-0.0428312
0.0195967
-0.0403205
0.0197843
-0.0380257
0.0199375
-0.0359461
0.0200654
-0.0340808
0.0201748
-0.0324081
0.0202681
-0.0309144
0.020351
-0.0296062
0.0204278
-0.0284359
0.0204955
-0.0274024
0.0205601
-0.0264975
0.0206186
-0.0256731
0.0206703
-0.0249534
0.0207159
-0.0242987
0.0207524
-0.0237195
0.0207793
-0.0232002
0.0207982
-0.0227803
0.0208047
-0.0223569
0.0208108
-0.022153
0.0207945
-0.0218242
0.0207944
-0.0214041
0.0207837
-0.0228621
0.0207385
-0.0182931
-0.0240915
0.0165009
-0.0638282
0.0170186
-0.058486
0.0175533
-0.0555365
0.0180172
-0.0521545
0.0184201
-0.0489585
0.0187628
-0.0459317
0.0190551
-0.0431235
0.0192994
-0.0405648
0.0195059
-0.0382322
0.0196771
-0.0361173
0.0198215
-0.0342253
0.0199466
-0.0325332
0.0200553
-0.0310231
0.0201523
-0.0297031
0.0202432
-0.0285269
0.020325
-0.0274841
0.0204025
-0.0265751
0.0204749
-0.0257454
0.0205395
-0.025018
0.0205978
-0.024357
0.0206472
-0.0237689
0.0206864
-0.0232394
0.0207173
-0.0228113
0.0207356
-0.0223752
0.0207544
-0.0221717
0.020749
-0.0218188
0.0207632
-0.0214183
0.020764
-0.022863
0.0207317
-0.0182608
-0.0241418
0.0160659
-0.0642113
0.0165884
-0.0590084
0.017139
-0.0560871
0.0176239