/*--------------------------------*- C++ -*----------------------------------*\
  =========                 |
  \\      /  F ield         | OpenFOAM: The Open Source CFD Toolbox
   \\    /   O peration     | Website:  https://openfoam.org
    \\  /    A nd           | Version:  7
     \\/     M anipulation  |
\*---------------------------------------------------------------------------*/
FoamFile
{
    version     2.0;
    format      ascii;
    class       volScalarField;
    location    "0.1125";
    object      p;
}
// * * * * * * * * * * * * * * * * * * * * * * * * * * * * * * * * * * * * * //

dimensions      [0 2 -2 0 0 0 0];

internalField   nonuniform List<scalar> 
400
(
2.41933e-06
-0.0058647
-0.0129645
-0.0183636
-0.020355
-0.0181515
-0.0116908
-0.00141742
0.0118763
0.027154
0.043213
0.0587585
0.0724889
0.0832053
0.0899501
0.0921787
0.0899685
0.084242
0.0768967
0.0710548
0.00579133
-0.000243009
-0.00573796
-0.00941693
-0.0104409
-0.00826262
-0.00280954
0.00560439
0.0163866
0.0287381
0.0417147
0.0542924
0.0654445
0.0742365
0.0799371
0.0821461
0.0809428
0.0769815
0.0712869
0.0653014
0.0133098
0.00492658
-0.00100803
-0.00439453
-0.0052251
-0.00320424
0.00166379
0.00908026
0.0185372
0.0293609
0.0407508
0.0518297
0.0617084
0.0695647
0.0747355
0.0768184
0.0758025
0.0720888
0.065899
0.057543
0.0200765
0.00852643
0.00117846
-0.00267279
-0.00370932
-0.00185878
0.00276485
0.00981752
0.0188062
0.0291088
0.0399909
0.0506379
0.0602048
0.0678818
0.0729719
0.074982
0.0737634
0.0694976
0.061764
0.0501515
0.0244356
0.00956039
0.000529789
-0.00399833
-0.00529689
-0.00348631
0.00120617
0.00836955
0.0174945
0.0279743
0.0390995
0.0500725
0.0600412
0.0681519
0.0736159
0.075798
0.0743842
0.0693543
0.0597431
0.0446
0.0251372
0.00691055
-0.00386185
-0.00906479
-0.0105046
-0.00847559
-0.0033192
0.00447427
0.0143599
0.0257223
0.0378498
0.0499296
0.0610649
0.0703138
0.0767462
0.0795362
0.0781684
0.0724158
0.0608065
0.041945
0.0211083
-0.000509539
-0.0129777
-0.0186984
-0.020007
-0.0173743
-0.0112638
-0.00225527
0.00905957
0.0220449
0.035973
0.0499988
0.0631562
0.0743807
0.0825544
0.0866045
0.0857582
0.0795386
0.065929
0.0430967
0.0112438
-0.0138545
-0.0278842
-0.0338094
-0.0345521
-0.0307909
-0.0231308
-0.0122519
0.00120454
0.0165846
0.0331486
0.05002
0.0661569
0.0803505
0.0912526
0.0974764
0.0979079
0.0917265
0.0762381
0.0490862
-0.00575047
-0.0344769
-0.0498298
-0.0554566
-0.0549995
-0.0494122
-0.0394766
-0.0259849
-0.00962146
0.00896038
0.0290336
0.0497148
0.0699023
0.0882408
0.103117
0.112755
0.11558
0.11027
0.093202
0.0612967
-0.0314975
-0.0640513
-0.0803151
-0.0848584
-0.0822839
-0.0739358
-0.0608261
-0.043871
-0.0237783
-0.00116159
0.0233157
0.048818
0.0742321
0.0980837
0.118482
0.133182
0.14
0.13687
0.118827
0.0816993
-0.0681383
-0.10474
-0.121173
-0.12338
-0.117333
-0.104946
-0.0875284
-0.0661259
-0.0414295
-0.0139453
0.0158107
0.0471437
0.0790221
0.109928
0.137723
0.15964
0.17271
0.173788
0.155916
0.113171
-0.118676
-0.159456
-0.174671
-0.172488
-0.160927
-0.142719
-0.119544
-0.0925528
-0.0623443
-0.0292101
0.00660672
0.044692
0.0842469
0.123857
0.161245
0.193133
0.215612
0.224026
0.208438
0.160005
-0.187672
-0.232306
-0.243625
-0.233632
-0.213451
-0.186932
-0.156148
-0.122268
-0.0856529
-0.0462193
-0.00376257
0.0417772
0.0900532
0.139999
0.189436
0.234728
0.270975
0.291536
0.282091
0.22884
-0.282763
-0.32931
-0.331453
-0.307946
-0.274473
-0.236232
-0.195555
-0.153389
-0.109601
-0.0634923
-0.0141802
0.0391124
0.0967792
0.158461
0.222503
0.285327
0.341264
0.38135
0.385144
0.330506
-0.417891
-0.459528
-0.441902
-0.395488
-0.341949
-0.287585
-0.234454
-0.182746
-0.131398
-0.0787489
-0.022963
0.0377275
0.10479
0.179043
0.260017
0.345038
0.428484
0.499358
0.529627
0.483662
-0.61917
-0.636399
-0.578203
-0.493988
-0.411151
-0.335577
-0.26768
-0.205842
-0.147367
-0.0891748
-0.028192
0.0385952
0.11405
0.200697
0.300164
0.412145
0.532989
0.65145
0.73243
0.720518
-0.93541
-0.878054
-0.741609
-0.598021
-0.474373
-0.372604
-0.288798
-0.217657
-0.153805
-0.0922778
-0.0285073
0.0419235
0.123493
0.220934
0.339102
0.48231
0.652301
0.841658
1.01493
1.0962
-1.48048
-1.2019
-0.920988
-0.692573
-0.517719
-0.387735
-0.290199
-0.213388
-0.14808
-0.0870887
-0.0243803
0.0457175
0.129254
0.233429
0.367463
0.543188
0.772663
1.06029
1.39816
1.73399
-2.57153
-1.60192
-1.04351
-0.714912
-0.4979
-0.353479
-0.255589
-0.184294
-0.126552
-0.073689
-0.0190742
0.0432249
0.119929
0.219807
0.356134
0.549917
0.829871
1.2351
1.8811
2.95921
-4.44509
-2.0173
-0.969884
-0.564481
-0.357216
-0.239201
-0.169487
-0.123368
-0.0871846
-0.053297
-0.0165418
0.0276955
0.0845054
0.161403
0.271771
0.441522
0.718921
1.22157
2.38405
4.92938
)
;

boundaryField
{
    movingWall
    {
        type            zeroGradient;
    }
    fixedWalls
    {
        type            zeroGradient;
    }
    frontAndBack
    {
        type            empty;
    }
}


// ************************************************************************* //
