/*--------------------------------*- C++ -*----------------------------------*\
  =========                 |
  \\      /  F ield         | OpenFOAM: The Open Source CFD Toolbox
   \\    /   O peration     | Website:  https://openfoam.org
    \\  /    A nd           | Version:  7
     \\/     M anipulation  |
\*---------------------------------------------------------------------------*/
FoamFile
{
    version     2.0;
    format      ascii;
    class       surfaceScalarField;
    location    "0.1125";
    object      phi;
}
// * * * * * * * * * * * * * * * * * * * * * * * * * * * * * * * * * * * * * //

dimensions      [0 3 -1 0 0 0 0];

internalField   nonuniform List<scalar> 
760
(
1.41618e-08
-1.41752e-08
-2.22827e-08
3.64437e-08
-1.13697e-07
9.14145e-08
-2.44069e-07
1.30372e-07
-3.93739e-07
1.49671e-07
-5.44077e-07
1.50338e-07
-6.79069e-07
1.34992e-07
-7.85891e-07
1.06822e-07
-8.55034e-07
6.9143e-08
-8.80357e-07
2.53225e-08
-8.59227e-07
-2.11306e-08
-7.92771e-07
-6.64561e-08
-6.86179e-07
-1.06592e-07
-5.48938e-07
-1.37241e-07
-3.94846e-07
-1.54092e-07
-2.41556e-07
-1.5329e-07
-1.09334e-07
-1.32223e-07
-1.85821e-08
-9.07514e-08
1.56525e-08
-3.42345e-08
1.56526e-08
-3.4168e-08
1.99912e-08
-1.79399e-07
1.81674e-07
-4.31518e-07
3.43533e-07
-7.59841e-07
4.58694e-07
-1.12519e-06
5.15021e-07
-1.4878e-06
5.12944e-07
-1.81173e-06
4.58925e-07
-2.06725e-06
3.62345e-07
-2.23196e-06
2.33855e-07
-2.29145e-06
8.48058e-08
-2.2398e-06
-7.27769e-08
-2.08017e-06
-2.26087e-07
-1.82521e-06
-3.6155e-07
-1.49725e-06
-4.65204e-07
-1.12773e-06
-5.23608e-07
-7.55528e-07
-5.25492e-07
-4.23378e-07
-4.64373e-07
-1.71967e-07
-3.42162e-07
-3.08872e-08
-1.75314e-07
-1.52346e-08
-9.15219e-08
1.11513e-07
-3.54794e-07
4.44948e-07
-7.59942e-07
7.48681e-07
-1.26078e-06
9.59532e-07
-1.80358e-06
1.05782e-06
-2.33457e-06
1.04393e-06
-2.80499e-06
9.2935e-07
-3.17422e-06
7.31572e-07
-3.4115e-06
4.71136e-07
-3.49704e-06
1.70346e-07
-3.42279e-06
-1.47026e-07
-3.19315e-06
-4.55724e-07
-2.82551e-06
-7.29193e-07
-2.35031e-06
-9.40411e-07
-1.81019e-06
-1.06372e-06
-1.25767e-06
-1.07802e-06
-7.50577e-07
-9.71463e-07
-3.45161e-07
-7.47578e-07
-8.67608e-08
-4.33714e-07
-1.01995e-07
-1.44257e-07
2.5577e-07
-5.22341e-07
8.23033e-07
-1.07536e-06
1.3017e-06
-1.73742e-06
1.62159e-06
-2.44015e-06
1.76055e-06
-3.11824e-06
1.72202e-06
-3.7137e-06
1.52481e-06
-4.17868e-06
1.19655e-06
-4.4771e-06
7.69559e-07
-4.5857e-06
2.78949e-07
-4.49484e-06
-2.37887e-07
-4.20927e-06
-7.41299e-07
-3.74881e-06
-1.18965e-06
-3.14869e-06
-1.54053e-06
-2.4589e-06
-1.75351e-06
-1.74205e-06
-1.79486e-06
-1.06906e-06
-1.64446e-06
-5.12509e-07
-1.30413e-06
-1.38524e-07
-8.07699e-07
-2.4052e-07
-1.92516e-07
4.48286e-07
-6.81346e-07
1.31186e-06
-1.37837e-06
1.99872e-06
-2.19576e-06
2.43898e-06
-3.04954e-06
2.61434e-06
-3.86362e-06
2.5361e-06
-4.57269e-06
2.23388e-06
-5.12399e-06
1.74785e-06
-5.47818e-06
1.12375e-06
-5.60983e-06
4.10597e-07
-5.5079e-06
-3.39814e-07
-5.17656e-06
-1.07265e-06
-4.63612e-06
-1.73009e-06
-3.92401e-06
-2.25264e-06
-3.09501e-06
-2.58251e-06
-2.22012e-06
-2.66975e-06
-1.38324e-06
-2.48133e-06
-6.75367e-07
-2.012e-06
-1.8685e-07
-1.29622e-06
-4.2737e-07
-2.38795e-07
6.87081e-07
-8.36533e-07
1.9096e-06
-1.67577e-06
2.83796e-06
-2.64527e-06
3.40848e-06
-3.64463e-06
3.6137e-06
-4.5874e-06
3.47886e-06
-5.4024e-06
3.04888e-06
-6.03391e-06
2.37936e-06
-6.44107e-06
1.53091e-06
-6.59733e-06
5.66857e-07
-6.49038e-06
-4.46762e-07
-6.1228e-06
-1.44023e-06
-5.51347e-06
-2.33941e-06
-4.69956e-06
-3.06655e-06
-3.73828e-06
-3.54379e-06
-2.70762e-06
-3.70041e-06
-1.70476e-06
-3.4842e-06
-8.41304e-07
-2.87546e-06
-2.35188e-07
-1.90233e-06
-6.62558e-07
-2.85647e-07
9.72727e-07
-9.93476e-07
2.61743e-06
-1.97502e-06
3.8195e-06
-3.09395e-06
4.5274e-06
-4.23293e-06
4.75269e-06
-5.29602e-06
4.54195e-06
-6.2081e-06
3.96096e-06
-6.91272e-06
3.08398e-06
-7.36955e-06
1.98774e-06
-7.55225e-06
7.49556e-07
-7.44742e-06
-5.5159e-07
-7.05503e-06
-1.83262e-06
-6.39035e-06
-3.00409e-06
-5.48733e-06
-3.96957e-06
-4.40258e-06
-4.62854e-06
-3.21887e-06
-4.88412e-06
-2.04631e-06
-4.65676e-06
-1.0192e-06
-3.90256e-06
-2.87273e-07
-2.63426e-06
-9.4983e-07
-3.35372e-07
1.3081e-06
-1.15729e-06
3.43935e-06
-2.28204e-06
4.94426e-06
-3.54576e-06
5.79111e-06
-4.81409e-06
6.02101e-06
-5.98347e-06
5.71134e-06
-6.97783e-06
4.95532e-06
-7.74333e-06
3.84948e-06
-8.24305e-06
2.48746e-06
-8.45275e-06
9.59254e-07
-8.3585e-06
-6.45842e-07
-7.95663e-06
-2.23449e-06
-7.25624e-06
-3.70447e-06
-6.28418e-06
-4.94164e-06
-5.09193e-06
-5.82079e-06
-3.7631e-06
-6.21295e-06
-2.41879e-06
-6.00107e-06
-1.21762e-06
-5.10373e-06
-3.46724e-07
-3.50516e-06
-1.29655e-06
-3.90202e-07
1.6983e-06
-1.33258e-06
4.38172e-06
-2.60058e-06
6.21226e-06
-3.99924e-06
7.18978e-06
-5.37784e-06
7.39961e-06
-6.62868e-06
6.96218e-06
-7.67959e-06
6.00622e-06
-8.48424e-06
4.65413e-06
-9.01327e-06
3.01649e-06
-9.24737e-06
1.19335e-06
-9.1732e-06
-7.20013e-07
-8.78264e-06
-2.62505e-06
-8.07563e-06
-4.41148e-06
-7.06686e-06
-5.95041e-06
-5.79617e-06
-7.09148e-06
-4.34124e-06
-7.66787e-06
-2.82956e-06
-7.51275e-06
-1.44428e-06
-6.48901e-06
-4.17153e-07
-4.53229e-06
-1.71371e-06
-4.5293e-07
2.15123e-06
-1.52427e-06
5.45306e-06
-2.93235e-06
7.62034e-06
-4.44645e-06
8.70388e-06
-5.90163e-06
8.85479e-06
-7.19221e-06
8.25276e-06
-8.25728e-06
7.07129e-06
-9.06505e-06
5.4619e-06
-9.59935e-06
3.55079e-06
-9.8497e-06
1.4437e-06
-9.8053e-06
-7.64412e-07
-9.45319e-06
-2.97716e-06
-8.78106e-06
-5.08362e-06
-7.78534e-06
-6.94613e-06
-6.48528e-06
-8.39154e-06
-4.94218e-06
-9.21097e-06
-3.28087e-06
-9.17406e-06
-1.70621e-06
-8.06368e-06
-5.02666e-07
-5.73583e-06
-2.21637e-06
-5.28039e-07
2.67927e-06
-1.73914e-06
6.66416e-06
-3.27736e-06
9.15856e-06
-4.87116e-06
1.02977e-05
-6.34689e-06
1.03305e-05
-7.6111e-06
9.51698e-06
-8.62497e-06
8.08516e-06
-9.38048e-06
6.21741e-06
-9.88175e-06
4.05206e-06
-1.0132e-05
1.69396e-06
-1.01257e-05
-7.70703e-07
-9.84551e-06
-3.25736e-06
-9.26427e-06
-5.66486e-06
-8.35372e-06
-7.85667e-06
-7.1014e-06
-9.64387e-06
-5.53715e-06
-1.07752e-05
-3.76753e-06
-1.09437e-05
-2.01001e-06
-9.8212e-06
-6.08771e-07
-7.13707e-06
-2.82514e-06
-6.23605e-07
3.30288e-06
-1.98766e-06
8.02821e-06
-3.63305e-06
1.0804e-05
-5.24452e-06
1.19092e-05
-6.65193e-06
1.17379e-05
-7.79058e-06
1.06556e-05
-8.65861e-06
8.95319e-06
-9.28295e-06
6.84175e-06
-9.69567e-06
4.46478e-06
-9.9188e-06
1.91709e-06
-9.95543e-06
-7.34075e-07
-9.78539e-06
-3.4274e-06
-9.36582e-06
-6.08444e-06
-8.63839e-06
-8.5841e-06
-7.54701e-06
-1.07353e-05
-6.07045e-06
-1.22518e-05
-4.27221e-06
-1.27419e-05
-2.36178e-06
-1.17316e-05
-7.4391e-07
-8.75494e-06
-3.56905e-06
-7.54415e-07
4.05729e-06
-2.28532e-06
9.55912e-06
-3.9896e-06
1.25082e-05
-5.51435e-06
1.34339e-05
-6.71798e-06
1.29416e-05
-7.58996e-06
1.15276e-05
-8.18404e-06
9.54726e-06
-8.57349e-06
7.23121e-06
-8.82462e-06
4.71591e-06
-8.98201e-06
2.07448e-06
-9.06041e-06
-6.55678e-07
-9.03993e-06
-3.44788e-06
-8.86411e-06
-6.26026e-06
-8.44308e-06
-9.00513e-06
-7.66767e-06
-1.15107e-05
-6.44354e-06
-1.34759e-05
-4.7555e-06
-1.443e-05
-2.76538e-06
-1.37217e-05
-9.21933e-07
-1.05984e-05
-4.49099e-06
-9.46675e-07
5.00397e-06
-2.65033e-06
1.12628e-05
-4.31473e-06
1.41726e-05
-5.5807e-06
1.46999e-05
-6.38235e-06
1.37432e-05
-6.79903e-06
1.19443e-05
-6.95973e-06
9.70796e-06
-6.99156e-06
7.26304e-06
-6.99612e-06
4.72047e-06
-7.04017e-06
2.11853e-06
-7.15137e-06
-5.44477e-07
-7.31444e-06
-3.28481e-06
-7.46617e-06
-6.10853e-06
-7.49143e-06
-8.97987e-06
-7.22701e-06
-1.17751e-05
-6.48739e-06
-1.42155e-05
-5.13456e-06
-1.57828e-05
-3.21493e-06
-1.56414e-05
-1.16537e-06
-1.26479e-05
-5.65636e-06
-1.2422e-06
6.24616e-06
-3.08706e-06
1.31076e-05
-4.51263e-06
1.55982e-05
-5.24365e-06
1.54309e-05
-5.36941e-06
1.3869e-05
-5.10078e-06
1.16757e-05
-4.65391e-06
9.26109e-06
-4.20534e-06
6.81447e-06
-3.88235e-06
4.39748e-06
-3.76562e-06
2.0018e-06
-3.89299e-06
-4.17102e-07
-4.25847e-06
-2.91933e-06
-4.80469e-06
-5.56231e-06
-5.40949e-06
-8.37507e-06
-5.87209e-06
-1.13125e-05
-5.91516e-06
-1.41725e-05
-5.23722e-06
-1.64607e-05
-3.66979e-06
-1.72088e-05
-1.50561e-06
-1.48121e-05
-7.16196e-06
-1.6879e-06
7.93406e-06
-3.52256e-06
1.49423e-05
-4.32243e-06
1.63981e-05
-4.09988e-06
1.52083e-05
-3.20913e-06
1.29782e-05
-2.01962e-06
1.04862e-05
-8.20191e-07
8.06166e-06
1.91032e-07
5.80325e-06
8.87878e-07
3.70063e-06
1.19444e-06
1.69523e-06
1.07137e-06
-2.94026e-07
5.12095e-07
-2.36006e-06
-4.4903e-07
-4.60118e-06
-1.71491e-06
-7.10919e-06
-3.09047e-06
-9.93691e-06
-4.2445e-06
-1.30184e-05
-4.70604e-06
-1.59992e-05
-3.97967e-06
-1.79352e-05
-1.96185e-06
-1.68299e-05
-9.12381e-06
-2.27202e-06
1.02061e-05
-3.61158e-06
1.62819e-05
-3.08827e-06
1.58748e-05
-1.35681e-06
1.34769e-05
8.79745e-07
1.07417e-05
3.13356e-06
8.23234e-06
5.11302e-06
6.0822e-06
6.66067e-06
4.2556e-06
7.69582e-06
2.66548e-06
8.17567e-06
1.21539e-06
8.07318e-06
-1.91534e-07
7.36961e-06
-1.65649e-06
6.05964e-06
-3.2912e-06
4.17481e-06
-5.22436e-06
1.83284e-06
-7.59494e-06
-6.80259e-07
-1.05053e-05
-2.81037e-06
-1.38691e-05
-3.69249e-06
-1.70531e-05
-2.46112e-06
-1.80613e-05
-1.15849e-05
-2.69731e-06
1.29034e-05
-2.20906e-06
1.57936e-05
7.1008e-07
1.29556e-05
4.4571e-06
9.72986e-06
8.11624e-06
7.08253e-06
1.1281e-05
5.06755e-06
1.38057e-05
3.55753e-06
1.56625e-05
2.39883e-06
1.68645e-05
1.46343e-06
1.7427e-05
6.52924e-07
1.73485e-05
-1.13054e-07
1.66034e-05
-9.11413e-07
1.51415e-05
-1.82931e-06
1.28999e-05
-2.9827e-06
9.84064e-06
-4.53572e-06
6.04376e-06
-6.70846e-06
1.8952e-06
-9.72053e-06
-1.59778e-06
-1.35601e-05
-2.59477e-06
-1.70643e-05
-1.41797e-05
-5.79019e-07
1.34824e-05
4.11964e-06
1.10949e-05
1.0298e-05
6.77729e-06
1.57845e-05
4.24333e-06
2.01439e-05
2.72311e-06
2.3441e-05
1.7705e-06
2.5842e-05
1.15655e-06
2.75015e-05
7.39276e-07
2.85332e-05
4.3172e-07
2.90051e-05
1.81084e-07
2.89411e-05
-4.9079e-08
2.83179e-05
-2.88199e-07
2.70616e-05
-5.73021e-07
2.50361e-05
-9.57198e-07
2.20356e-05
-1.53524e-06
1.7805e-05
-2.47784e-06
1.2172e-05
-4.08754e-06
5.52013e-06
-6.9082e-06
9.55505e-08
-1.16397e-05
-1.40842e-05
1.34824e-05
2.45774e-05
3.13547e-05
3.5598e-05
3.83211e-05
4.00916e-05
4.12481e-05
4.19874e-05
4.24191e-05
4.26002e-05
4.25511e-05
4.22629e-05
4.16899e-05
4.07327e-05
3.91975e-05
3.67196e-05
3.26321e-05
2.57239e-05
1.40842e-05
)
;

boundaryField
{
    movingWall
    {
        type            calculated;
        value           uniform 0;
    }
    fixedWalls
    {
        type            calculated;
        value           uniform 0;
    }
    frontAndBack
    {
        type            empty;
        value           nonuniform 0();
    }
}


// ************************************************************************* //
