/*--------------------------------*- C++ -*----------------------------------*\
  =========                 |
  \\      /  F ield         | OpenFOAM: The Open Source CFD Toolbox
   \\    /   O peration     | Website:  https://openfoam.org
    \\  /    A nd           | Version:  7
     \\/     M anipulation  |
\*---------------------------------------------------------------------------*/
FoamFile
{
    version     2.0;
    format      ascii;
    class       volVectorField;
    location    "0.1125";
    object      U;
}
// * * * * * * * * * * * * * * * * * * * * * * * * * * * * * * * * * * * * * //

dimensions      [0 1 -1 0 0 0 0];

internalField   nonuniform List<vector> 
400
(
(0.000257868 -0.000252621 0)
(0.000147462 0.000103935 0)
(-0.00116999 0.000548143 0)
(-0.003462 0.000863107 0)
(-0.00633997 0.00102103 0)
(-0.00941272 0.00103676 0)
(-0.0123282 0.000935132 0)
(-0.014795 0.000742286 0)
(-0.0165889 0.000482827 0)
(-0.0175525 0.000180215 0)
(-0.0175972 -0.000141702 0)
(-0.0167069 -0.000457195 0)
(-0.0149441 -0.000737708 0)
(-0.0124553 -0.000951834 0)
(-0.00947505 -0.00106647 0)
(-0.00632264 -0.00104974 0)
(-0.00338555 -0.000876903 0)
(-0.00108107 -0.000540912 0)
(0.000201642 -8.455e-05 0)
(0.000271345 0.00026393 0)
(-6.70778e-05 -0.000172919 0)
(-0.00159288 0.00162968 0)
(-0.00566199 0.00358171 0)
(-0.011651 0.0049859 0)
(-0.0187768 0.00568777 0)
(-0.0262354 0.00570438 0)
(-0.0332569 0.0051214 0)
(-0.0391753 0.00405292 0)
(-0.0434649 0.00262261 0)
(-0.0457547 0.000958895 0)
(-0.0458392 -0.000803444 0)
(-0.0436887 -0.00252037 0)
(-0.0394597 -0.00403763 0)
(-0.033503 -0.00519399 0)
(-0.0263618 -0.00583088 0)
(-0.0187523 -0.00581081 0)
(-0.0115096 -0.00504849 0)
(-0.00548927 -0.00355738 0)
(-0.00147839 -0.00154796 0)
(-3.38425e-05 0.000230019 0)
(-0.000508898 0.00108415 0)
(-0.00367203 0.00570644 0)
(-0.010526 0.0101625 0)
(-0.0198722 0.013323 0)
(-0.0305774 0.0148509 0)
(-0.0415654 0.0147438 0)
(-0.0517985 0.0131711 0)
(-0.0603694 0.0103906 0)
(-0.0665572 0.00670182 0)
(-0.0698527 0.00242796 0)
(-0.0699741 -0.00208712 0)
(-0.066882 -0.00647754 0)
(-0.0607928 -0.0103575 0)
(-0.0521862 -0.0133328 0)
(-0.0418009 -0.015028 0)
(-0.0306061 -0.0151333 0)
(-0.0197257 -0.0134775 0)
(-0.0103113 -0.010125 0)
(-0.00351453 -0.00552843 0)
(-0.000458704 -0.000943704 0)
(-0.000900489 0.00345797 0)
(-0.00563548 0.0121535 0)
(-0.0152142 0.0198029 0)
(-0.0277575 0.0250424 0)
(-0.0417436 0.0274247 0)
(-0.0558552 0.0269674 0)
(-0.0688528 0.0239584 0)
(-0.0796644 0.0188377 0)
(-0.0874439 0.0121248 0)
(-0.0915942 0.00438632 0)
(-0.091783 -0.00377303 0)
(-0.0879579 -0.0117112 0)
(-0.0803622 -0.0187546 0)
(-0.0695466 -0.0242191 0)
(-0.0563701 -0.0274567 0)
(-0.0419766 -0.027935 0)
(-0.0277169 -0.0253534 0)
(-0.0150193 -0.0197873 0)
(-0.00545543 -0.0118738 0)
(-0.000835493 -0.00320872 0)
(-0.00124355 0.00683503 0)
(-0.00746735 0.0208375 0)
(-0.0197029 0.0323216 0)
(-0.0353524 0.0398645 0)
(-0.0524704 0.0430297 0)
(-0.0694972 0.0419378 0)
(-0.0850219 0.0370533 0)
(-0.0978537 0.0290407 0)
(-0.107068 0.0186727 0)
(-0.112015 0.00678631 0)
(-0.112328 -0.0057283 0)
(-0.107935 -0.017928 0)
(-0.0990743 -0.0288219 0)
(-0.0863212 -0.0373984 0)
(-0.0705996 -0.0426887 0)
(-0.0531813 -0.0438763 0)
(-0.0356223 -0.0404563 0)
(-0.0196471 -0.0324251 0)
(-0.00730826 -0.0204947 0)
(-0.00116956 -0.00646466 0)
(-0.00156477 0.0111499 0)
(-0.0092404 0.0317048 0)
(-0.0241035 0.0476884 0)
(-0.0428147 0.0577463 0)
(-0.0629777 0.0615861 0)
(-0.0827863 0.0595403 0)
(-0.100679 0.0523301 0)
(-0.115383 0.0408975 0)
(-0.125935 0.0262989 0)
(-0.131663 0.00965679 0)
(-0.132179 -0.00784748 0)
(-0.12738 -0.0249647 0)
(-0.117473 -0.0403741 0)
(-0.103008 -0.0527081 0)
(-0.0849229 -0.0606237 0)
(-0.0645761 -0.0629393 0)
(-0.0437145 -0.0588372 0)
(-0.0243839 -0.0481086 0)
(-0.00918125 -0.0314148 0)
(-0.00149515 -0.0106755 0)
(-0.00189019 0.0163885 0)
(-0.0110383 0.0447513 0)
(-0.0285512 0.0658966 0)
(-0.0503041 0.0786496 0)
(-0.0734244 0.0830088 0)
(-0.0958638 0.0796521 0)
(-0.115941 0.0696566 0)
(-0.132346 0.054304 0)
(-0.144123 0.0349618 0)
(-0.150614 0.0130398 0)
(-0.151424 -0.010003 0)
(-0.146413 -0.0326283 0)
(-0.135722 -0.0531924 0)
(-0.119823 -0.0699539 0)
(-0.0996036 -0.0811412 0)
(-0.0764513 -0.0851069 0)
(-0.0522738 -0.0805778 0)
(-0.0294526 -0.0669724 0)
(-0.0112012 -0.0447489 0)
(-0.00184823 -0.0158782 0)
(-0.00224297 0.0225853 0)
(-0.0129397 0.0600303 0)
(-0.0331674 0.0869616 0)
(-0.0579321 0.102513 0)
(-0.0838559 0.107152 0)
(-0.10867 0.102069 0)
(-0.130626 0.0888165 0)
(-0.148447 0.0690846 0)
(-0.161246 0.0445738 0)
(-0.16843 0.0169662 0)
(-0.169625 -0.0120392 0)
(-0.16465 -0.0406593 0)
(-0.15354 -0.0669608 0)
(-0.136625 -0.0888301 0)
(-0.114655 -0.104018 0)
(-0.0889527 -0.110296 0)
(-0.0615201 -0.105753 0)
(-0.0350635 -0.0892106 0)
(-0.0134944 -0.0607133 0)
(-0.00226382 -0.022184 0)
(-0.00264664 0.0298198 0)
(-0.0150218 0.0776481 0)
(-0.0380543 0.110903 0)
(-0.0657417 0.129208 0)
(-0.0941684 0.133747 0)
(-0.120896 0.126428 0)
(-0.144202 0.109429 0)
(-0.162939 0.0849207 0)
(-0.17639 0.0549471 0)
(-0.184096 0.0214248 0)
(-0.185744 -0.013775 0)
(-0.181115 -0.0487037 0)
(-0.170106 -0.0812082 0)
(-0.152819 -0.108838 0)
(-0.129745 -0.128835 0)
(-0.102004 -0.138269 0)
(-0.0715633 -0.134367 0)
(-0.0413933 -0.115045 0)
(-0.0161861 -0.0796183 0)
(-0.00277917 -0.0297765 0)
(-0.00313311 0.0382192 0)
(-0.0173788 0.0977557 0)
(-0.0433078 0.137702 0)
(-0.0736992 0.158468 0)
(-0.104075 0.162296 0)
(-0.131927 0.152096 0)
(-0.155704 0.130842 0)
(-0.174543 0.101258 0)
(-0.188021 0.0657229 0)
(-0.195912 0.0263194 0)
(-0.198024 -0.015014 0)
(-0.194119 -0.0562865 0)
(-0.183917 -0.0952435 0)
(-0.167207 -0.129182 0)
(-0.144066 -0.154848 0)
(-0.115208 -0.168501 0)
(-0.0823498 -0.16624 0)
(-0.0485756 -0.144657 0)
(-0.019413 -0.101848 0)
(-0.00344168 -0.0389153 0)
(-0.00375734 0.04798 0)
(-0.0201549 0.120549 0)
(-0.0490413 0.167253 0)
(-0.0816808 0.189779 0)
(-0.113046 0.191944 0)
(-0.140748 0.178032 0)
(-0.163631 0.152008 0)
(-0.181324 0.117206 0)
(-0.193863 0.0762944 0)
(-0.201375 0.0314174 0)
(-0.203862 -0.015568 0)
(-0.201102 -0.0627998 0)
(-0.192624 -0.1081 0)
(-0.177813 -0.148668 0)
(-0.156163 -0.180839 0)
(-0.127708 -0.2 0)
(-0.0935816 -0.200841 0)
(-0.056686 -0.178078 0)
(-0.0233457 -0.127833 0)
(-0.00432313 -0.0499539 0)
(-0.00462382 0.0594186 0)
(-0.0235958 0.146274 0)
(-0.0554031 0.199265 0)
(-0.0894194 0.222219 0)
(-0.120191 0.2213 0)
(-0.145781 0.202627 0)
(-0.16577 0.171354 0)
(-0.180537 0.131436 0)
(-0.190763 0.0857338 0)
(-0.197049 0.0362949 0)
(-0.199678 -0.0152935 0)
(-0.19849 -0.0675144 0)
(-0.192838 -0.118504 0)
(-0.181653 -0.165607 0)
(-0.163678 -0.20494 0)
(-0.137958 -0.231075 0)
(-0.104569 -0.237047 0)
(-0.0657004 -0.215017 0)
(-0.0282213 -0.158005 0)
(-0.0055455 -0.063383 0)
(-0.00593474 0.0730773 0)
(-0.0281182 0.17523 0)
(-0.0625504 0.233106 0)
(-0.0963412 0.254218 0)
(-0.123992 0.24819 0)
(-0.144597 0.223514 0)
(-0.158928 0.186662 0)
(-0.168411 0.142117 0)
(-0.174534 0.0927479 0)
(-0.178463 0.0402964 0)
(-0.180821 -0.0141392 0)
(-0.181574 -0.0696262 0)
(-0.179957 -0.124895 0)
(-0.174471 -0.177764 0)
(-0.163025 -0.224483 0)
(-0.143376 -0.259053 0)
(-0.113951 -0.272784 0)
(-0.0753781 -0.254563 0)
(-0.0343811 -0.192708 0)
(-0.00732662 -0.0799189 0)
(-0.00807062 0.0899091 0)
(-0.0343793 0.2077 0)
(-0.0704745 0.267457 0)
(-0.10114 0.283142 0)
(-0.121764 0.269345 0)
(-0.133384 0.237401 0)
(-0.138518 0.195021 0)
(-0.13988 0.146934 0)
(-0.139827 0.095714 0)
(-0.140073 0.0425406 0)
(-0.141582 -0.0121927 0)
(-0.144497 -0.0683532 0)
(-0.148058 -0.125539 0)
(-0.150485 -0.182429 0)
(-0.148948 -0.235917 0)
(-0.139778 -0.279991 0)
(-0.119159 -0.30454 0)
(-0.0849539 -0.294675 0)
(-0.042274 -0.231978 0)
(-0.0100507 -0.10065 0)
(-0.0116841 0.111548 0)
(-0.0432151 0.24365 0)
(-0.0783911 0.29965 0)
(-0.10077 0.304711 0)
(-0.108583 0.280088 0)
(-0.106065 0.240033 0)
(-0.0979543 0.192975 0)
(-0.0882683 0.143307 0)
(-0.0800492 0.0928752 0)
(-0.0753593 0.0420251 0)
(-0.0753758 -0.00970566 0)
(-0.0804355 -0.0630999 0)
(-0.0899542 -0.1188 0)
(-0.102204 -0.176701 0)
(-0.114009 -0.234973 0)
(-0.120524 -0.288524 0)
(-0.115397 -0.326794 0)
(-0.0923542 -0.331348 0)
(-0.0522432 -0.274993 0)
(-0.0143176 -0.127206 0)
(-0.0176228 0.14072 0)
(-0.0549297 0.281787 0)
(-0.0829496 0.324356 0)
(-0.0882522 0.312186 0)
(-0.0753759 0.274189 0)
(-0.0529634 0.226519 0)
(-0.0279223 0.177067 0)
(-0.00505294 0.128958 0)
(0.0125064 0.0827929 0)
(0.0228176 0.0378914 0)
(0.0247726 -0.00706299 0)
(0.017904 -0.0536864 0)
(0.00242328 -0.103625 0)
(-0.0204857 -0.158147 0)
(-0.0480918 -0.217286 0)
(-0.0752993 -0.278104 0)
(-0.0937807 -0.331481 0)
(-0.0922922 -0.357256 0)
(-0.0635038 -0.318824 0)
(-0.0207203 -0.162008 0)
(-0.02601 0.182257 0)
(-0.0665088 0.316991 0)
(-0.0735897 0.330872 0)
(-0.048271 0.295211 0)
(-0.00588036 0.244073 0)
(0.0408271 0.192245 0)
(0.0841848 0.144925 0)
(0.120001 0.102872 0)
(0.146116 0.0650679 0)
(0.161432 0.0298574 0)
(0.165319 -0.00466865 0)
(0.157328 -0.0405914 0)
(0.137161 -0.0801807 0)
(0.104922 -0.125826 0)
(0.0618017 -0.179606 0)
(0.0114032 -0.241863 0)
(-0.0381576 -0.307628 0)
(-0.0720834 -0.359546 0)
(-0.0710146 -0.355686 0)
(-0.0285885 -0.209029 0)
(-0.0317441 0.241379 0)
(-0.063047 0.333907 0)
(-0.0220128 0.299599 0)
(0.0504826 0.239971 0)
(0.12726 0.182905 0)
(0.196615 0.135339 0)
(0.253894 0.0973488 0)
(0.297758 0.0668079 0)
(0.328292 0.0413242 0)
(0.345911 0.0187632 0)
(0.350813 -0.00279395 0)
(0.342749 -0.025249 0)
(0.320938 -0.0507587 0)
(0.284147 -0.082006 0)
(0.231109 -0.122383 0)
(0.161765 -0.175565 0)
(0.0797107 -0.243151 0)
(-0.003411 -0.31809 0)
(-0.057385 -0.366703 0)
(-0.0309187 -0.270201 0)
(0.00230972 0.286375 0)
(0.0143134 0.294059 0)
(0.139823 0.210062 0)
(0.264836 0.143036 0)
(0.364116 0.0968345 0)
(0.440015 0.0654661 0)
(0.49638 0.0439912 0)
(0.536484 0.0287093 0)
(0.563035 0.0170858 0)
(0.57788 0.00742968 0)
(0.581952 -0.00149336 0)
(0.575272 -0.0107904 0)
(0.556895 -0.0217316 0)
(0.524739 -0.0361466 0)
(0.475393 -0.0569854 0)
(0.40424 -0.0890153 0)
(0.305524 -0.139215 0)
(0.174241 -0.215427 0)
(0.0351915 -0.310925 0)
(0.0120818 -0.304778 0)
(0.29315 0.148896 0)
(0.389654 0.127927 0)
(0.557569 0.0757994 0)
(0.674729 0.0433773 0)
(0.743762 0.025232 0)
(0.787037 0.0149444 0)
(0.815393 0.0089804 0)
(0.83385 0.00534494 0)
(0.845265 0.00292241 0)
(0.851243 0.00109737 0)
(0.852535 -0.000500301 0)
(0.849256 -0.00216799 0)
(0.840886 -0.00423638 0)
(0.826042 -0.00725536 0)
(0.801972 -0.0122879 0)
(0.763517 -0.0214555 0)
(0.699407 -0.0389125 0)
(0.58443 -0.0723398 0)
(0.409337 -0.12834 0)
(0.302177 -0.152206 0)
)
;

boundaryField
{
    movingWall
    {
        type            fixedValue;
        value           uniform (1 0 0);
    }
    fixedWalls
    {
        type            noSlip;
    }
    frontAndBack
    {
        type            empty;
    }
}


// ************************************************************************* //
