/*--------------------------------*- C++ -*----------------------------------*\
  =========                 |
  \\      /  F ield         | OpenFOAM: The Open Source CFD Toolbox
   \\    /   O peration     | Website:  https://openfoam.org
    \\  /    A nd           | Version:  7
     \\/     M anipulation  |
\*---------------------------------------------------------------------------*/
FoamFile
{
    version     2.0;
    format      ascii;
    class       surfaceScalarField;
    location    "72.4";
    object      phi;
}
// * * * * * * * * * * * * * * * * * * * * * * * * * * * * * * * * * * * * * //

dimensions      [0 3 -1 0 0 0 0];

internalField   nonuniform List<scalar> 
3880
(
-2.22959e-05
-0.000652506
0.000674802
-1.39072e-05
-0.00147788
0.0014695
4.46062e-05
-0.00190025
0.00184174
0.000165911
-0.0019854
0.00186409
0.000361521
-0.00177345
0.00157784
0.00064276
-0.00129055
0.00100931
0.001019
-0.000556213
0.000179968
0.0014947
0.000410438
-0.000886138
0.00206616
0.00158575
-0.0021572
0.00293855
0.00271821
-0.00359059
-1.48503e-05
-0.000637656
9.39341e-06
-0.00150213
8.65078e-05
-0.00197737
0.000225619
-0.00212451
0.000436592
-0.00198442
0.000731083
-0.00158504
0.00112069
-0.00094582
0.00161347
-8.23452e-05
0.00220994
0.00098928
0.0022503
0.00289819
-1.45597e-06
-0.0006362
4.79274e-05
-0.00155151
0.0001558
-0.00208524
0.000325673
-0.00229438
0.000564057
-0.0022228
0.000881271
-0.00190225
0.00128973
-0.00135428
0.00180048
-0.000593098
0.00241846
0.000371305
0.00153214
0.00313662
1.66429e-05
-0.000652842
0.000101796
-0.00163666
0.000253005
-0.00223645
0.000467551
-0.00250893
0.000747326
-0.00250258
0.00109979
-0.00225471
0.00153662
-0.00179111
0.00207058
-0.00112706
0.00271082
-0.000268931
0.000786781
0.00345618
4.01675e-05
-0.00069301
0.000169878
-0.00176637
0.000375976
-0.00244254
0.000648498
-0.00278145
0.00098392
-0.002838
0.00138577
-0.00265656
0.00186366
-0.002269
0.00243069
-0.00169409
0.00309929
-0.000937526
1.16098e-05
0.00387446
6.80658e-05
-0.000761075
0.000249437
-0.00194775
0.000519379
-0.00271249
0.000860371
-0.00312244
0.00126328
-0.00324091
0.00172728
-0.00312056
0.00225911
-0.00280083
0.00287106
-0.00230605
0.00357757
-0.00164403
-0.000800356
0.00438954
9.89836e-05
-0.000860059
0.000336155
-0.00218492
0.000674596
-0.00305093
0.0010893
-0.00353715
0.00156586
-0.00371746
0.0020993
-0.00365401
0.0026933
-0.00339483
0.00335879
-0.00297154
0.00411128
-0.00239653
-0.00165461
0.00496554
0.000131173
-0.000991232
0.000424366
-0.00247811
0.000830174
-0.00345673
0.00131647
-0.00402345
0.00186419
-0.00426518
0.00246487
-0.00425468
0.00311934
-0.0040493
0.003837
-0.0036892
0.00463424
-0.00319377
-0.00254891
0.00552854
0.000162581
-0.00115381
0.000507441
-0.00282297
0.000972747
-0.00392204
0.00151985
-0.00457055
0.00212595
-0.00487129
0.00277989
-0.00490862
0.00347994
-0.00474935
0.00423334
-0.0044426
0.00505711
-0.00401754
-0.00346835
0.00597655
0.000190969
-0.00134478
0.000578287
-0.00321029
0.00108824
-0.004432
0.00167663
-0.00515893
0.00231818
-0.00551284
0.00300036
-0.0055908
0.00371969
-0.00546868
0.00448014
-0.00520305
0.0052948
-0.0048322
0.00620995
-0.0043835
0.00453641
0.0228464
-0.0246646
0.00588567
0.0468833
-0.0482326
0.00618086
0.0688513
-0.0691465
0.00582228
0.0886654
-0.0883068
0.00511862
0.108802
-0.108098
0.00418464
0.130643
-0.129709
0.00308131
0.155097
-0.153994
0.00180662
0.185417
-0.184142
0.00065684
0.228755
-0.227605
0.280646
-0.279989
0.00490321
0.0208414
0.0066548
0.0451317
0.0072634
0.0682427
0.00708652
0.0888423
0.00646155
0.109427
0.00551426
0.13159
0.00430628
0.156305
0.00283564
0.186887
0.00129388
0.230297
0.28194
0.00523543
0.0187426
0.00737241
0.0429948
0.00831769
0.0672974
0.00834248
0.0888175
0.00780555
0.109964
0.00684782
0.132548
0.00553517
0.157618
0.00386489
0.188558
0.00193406
0.232228
0.283874
0.00553775
0.016661
0.00801054
0.040522
0.00931341
0.0659946
0.00956281
0.0885681
0.00912776
0.110399
0.00816769
0.133508
0.00675438
0.159031
0.00488675
0.190425
0.00256761
0.234547
0.286441
0.00582573
0.0147097
0.00854671
0.037801
0.0102214
0.0643198
0.0107208
0.0880687
0.0104056
0.110714
0.00945507
0.134459
0.00794969
0.160537
0.00588953
0.192485
0.00318973
0.237246
0.289631
0.00611767
0.0129816
0.00896859
0.0349501
0.0110155
0.0622729
0.0117906
0.0872936
0.0116161
0.110889
0.0106899
0.135385
0.00910476
0.162122
0.00686169
0.194728
0.00379346
0.240315
0.293425
0.00642168
0.0115255
0.00927497
0.0320968
0.0116739
0.059874
0.0127495
0.0862179
0.0127428
0.110895
0.0118607
0.136267
0.0102114
0.163771
0.00779667
0.197143
0.00437684
0.243735
0.297801
0.00671676
0.0103372
0.0094677
0.0293458
0.0121798
0.0571619
0.0135716
0.0848262
0.0137543
0.110713
0.0129354
0.137086
0.0112422
0.165464
0.00867724
0.199708
0.00492882
0.247483
0.30273
0.00693467
0.00937913
0.00953827
0.0267422
0.0125216
0.0541786
0.0142644
0.0830834
0.0146788
0.110298
0.0139455
0.137819
0.0122229
0.167187
0.00951415
0.202417
0.00545506
0.251542
0.308185
0.00703051
0.00855857
0.00953884
0.0242339
0.0126741
0.0510433
0.0147238
0.0810337
0.0153965
0.109625
0.01479
0.138426
0.0131053
0.168872
0.0102663
0.205256
0.00597323
0.255835
0.314159
0.0193481
0.0148744
-0.0256639
0.015014
0.0285681
0.0137168
0.0523404
0.0127057
0.0820448
0.0110954
0.111236
0.0089809
0.14054
0.00638856
0.171464
0.0033219
0.208322
0.000640528
0.258517
0.314799
0.0205723
0.0197559
-0.0254538
0.0154408
0.0336995
0.013085
0.0546962
0.0119266
0.0832032
0.0104124
0.11275
0.00839935
0.142553
0.00590332
0.17396
0.00300853
0.211217
0.000535527
0.26099
0.315335
0.020739
0.0228502
-0.0238332
0.0160099
0.0384286
0.0128915
0.0578146
0.0112598
0.0848349
0.00964505
0.114365
0.0076838
0.144515
0.00534135
0.176302
0.00264782
0.213911
0.00041558
0.263222
0.31575
0.0199122
0.024579
-0.021641
0.0160554
0.0422853
0.0127392
0.0611308
0.0108168
0.0867574
0.00918145
0.116
0.00730875
0.146387
0.00505032
0.178561
0.00250633
0.216455
0.000405087
0.265323
0.316155
0.0185915
0.0252398
-0.0192522
0.0156536
0.0452232
0.0125246
0.0642599
0.0104017
0.0888802
0.00863588
0.117766
0.00678308
0.14824
0.00465076
0.180693
0.00226799
0.218838
0.000327717
0.267263
0.316483
0.0169013
0.0249219
-0.0165834
0.0148619
0.0472626
0.0120506
0.0670712
0.0100579
0.0908728
0.00843815
0.119386
0.00664812
0.15003
0.00454235
0.182799
0.00224117
0.221139
0.00036862
0.269136
0.316852
0.0150363
0.0236293
-0.0137437
0.0140549
0.0482439
0.011653
0.0694732
0.00955356
0.0929723
0.00790863
0.121031
0.00623228
0.151706
0.0042732
0.184758
0.00208827
0.223324
0.000326266
0.270898
0.317178
0.0128693
0.0215348
-0.0107748
0.0128214
0.0482918
0.0111722
0.0711224
0.00945765
0.0946868
0.0079223
0.122566
0.00624426
0.153384
0.00427275
0.186729
0.00214534
0.225451
0.000412576
0.272631
0.317591
0.0113533
0.0184817
-0.00830014
0.0122487
0.0473963
0.0109036
0.0724675
0.0090708
0.0965196
0.00752875
0.124108
0.00597019
0.154943
0.00410436
0.188595
0.00205683
0.227499
0.000389533
0.274298
0.31798
0.00865627
-0.00487467
0.0110797
0.0110739
0.00962203
0.00794974
0.00619478
0.00428171
0.00217242
0.000528386
0.00676866
-0.0262474
-0.00618518
0.00662938
-0.0253145
0.00607266
-0.0232765
0.00534663
-0.020915
0.00451707
-0.0184226
0.00360546
-0.0156718
0.00262193
-0.0127602
0.00162513
-0.00977798
0.000442775
-0.00711778
-0.00393262
0.00592017
-0.0263833
-0.00578435
0.00543522
-0.0248296
0.00466721
-0.0225085
0.00379178
-0.0200396
0.00284505
-0.0174759
0.00184356
-0.0146703
0.00079637
-0.011713
-0.000232768
-0.00874884
-0.00138845
-0.0059621
-0.0030424
0.00483375
-0.026134
-0.00508305
0.00406065
-0.0240565
0.00312565
-0.0215735
0.00212745
-0.0190414
0.0010884
-0.0164369
2.2646e-05
-0.0136046
-0.0010488
-0.0106416
-0.00209138
-0.00770625
-0.00315072
-0.00490277
-0.00225168
0.0035028
-0.0255653
-0.00407141
0.00251103
-0.0230647
0.00145476
-0.0205172
0.000369666
-0.0179563
-0.000723851
-0.0153433
-0.00181345
-0.012515
-0.00287708
-0.00957792
-0.0038798
-0.00670354
-0.00481983
-0.00396274
-0.00159287
0.00194872
-0.0247317
-0.00278235
0.000805583
-0.0219215
-0.00032491
-0.0193867
-0.00145139
-0.0168298
-0.00256188
-0.0142328
-0.00363826
-0.0114386
-0.00465278
-0.00856339
-0.00557431
-0.00578201
-0.00637144
-0.0031656
-0.0010771
0.000232599
-0.0236903
-0.00127397
-0.00100584
-0.0206831
-0.00216538
-0.0182272
-0.0032988
-0.0156964
-0.00438575
-0.0131459
-0.00541
-0.0104144
-0.00634184
-0.00763155
-0.00715128
-0.00497257
-0.00779414
-0.00252275
-0.000702109
-0.00158859
-0.0224869
0.000385137
-0.00286398
-0.0194077
-0.00401704
-0.0170741
-0.00511929
-0.0145941
-0.0061495
-0.0121157
-0.00709117
-0.00947268
-0.00791559
-0.00680712
-0.0085946
-0.00429356
-0.00908414
-0.00203321
-0.000456199
-0.00343378
-0.0211585
0.00210539
-0.00470337
-0.0181381
-0.00582003
-0.0159575
-0.00686287
-0.0135513
-0.00781146
-0.0111671
-0.00864961
-0.00863453
-0.00935278
-0.00610396
-0.00989586
-0.00375048
-0.0102434
-0.00168567
-0.000321628
-0.00523159
-0.0197629
0.003836
-0.00646346
-0.0169063
-0.00752231
-0.0148986
-0.0084853
-0.0125883
-0.00933702
-0.0103154
-0.0100612
-0.0079104
-0.0106403
-0.00552479
-0.0110534
-0.0033374
-0.0112777
-0.00146134
-0.000277526
-0.00692024
-0.0183466
0.00550396
-0.00809257
-0.0157339
-0.00908046
-0.0139107
-0.00995156
-0.0117172
-0.0107009
-0.00956603
-0.0113106
-0.00730066
-0.0117729
-0.00506249
-0.0120708
-0.00303955
-0.0121952
-0.00133696
-0.000301963
-0.00845019
-0.0169482
0.00705174
-0.00955017
-0.014634
-0.0104621
-0.0129988
-0.0112373
-0.010942
-0.0118878
-0.0089156
-0.0123915
-0.00679692
-0.0127518
-0.00470218
-0.0129551
-0.00283624
-0.0130047
-0.00128737
-0.000373232
-0.00979257
-0.0155968
0.00844123
-0.0108114
-0.0136151
-0.0116486
-0.0121616
-0.0123308
-0.0102598
-0.0128925
-0.00835391
-0.0133051
-0.00638435
-0.0135832
-0.00442407
-0.0137158
-0.00270367
-0.0137157
-0.00128745
-0.000470486
-0.0109272
-0.0143137
0.00964407
-0.0118613
-0.0126811
-0.0126306
-0.0113922
-0.0132287
-0.00966162
-0.0137168
-0.00786578
-0.0140578
-0.00604343
-0.0142763
-0.00420558
-0.014363
-0.00261695
-0.0143372
-0.0013132
-0.000573973
-0.0118474
-0.013111
0.0106447
-0.0126968
-0.0118317
-0.0134087
-0.0106803
-0.0139364
-0.00913396
-0.0143688
-0.0074334
-0.0146601
-0.00575212
-0.0148423
-0.00402334
-0.0149077
-0.0025516
-0.0148786
-0.0013423
-0.000665076
-0.0125573
-0.0119905
0.0114367
-0.0133245
-0.0110645
-0.0139912
-0.0100135
-0.0144654
-0.00865981
-0.0148605
-0.00703826
-0.0151251
-0.00548754
-0.0152938
-0.00385465
-0.0153609
-0.00248449
-0.0153489
-0.0013543
-0.00072622
-0.0130684
-0.0109413
0.0120192
-0.0137584
-0.0103745
-0.0143913
-0.00938066
-0.0148313
-0.00821986
-0.0152068
-0.0066627
-0.0154672
-0.00522722
-0.0156436
-0.00367824
-0.0157339
-0.00239418
-0.0157577
-0.00133045
-0.000740741
-0.013396
-0.00993878
0.0123935
-0.0140184
-0.00975202
-0.0146251
-0.00877391
-0.0150516
-0.00779344
-0.0154236
-0.00629067
-0.0157008
-0.00494999
-0.0159044
-0.00347464
-0.0160376
-0.00226104
-0.0161145
-0.00125349
-0.00069276
-0.0135469
-0.00895294
0.0125611
-0.0141209
-0.00917804
-0.0147064
-0.00818837
-0.0151417
-0.00735815
-0.0155257
-0.00590669
-0.0158397
-0.00463601
-0.0160885
-0.00322576
-0.0162826
-0.00206696
-0.0164289
-0.00110721
-0.000567018
-0.0135183
-0.00796529
0.0125306
-0.0140825
-0.00861381
-0.0146507
-0.00762018
-0.0151172
-0.00689168
-0.0155283
-0.00549561
-0.0158971
-0.00426715
-0.0162079
-0.00291493
-0.0164796
-0.00179534
-0.0167105
-0.00087627
-0.00034865
-0.0133644
-0.00695003
0.0123492
-0.0139629
-0.00801533
-0.0144945
-0.00708854
-0.014997
-0.00638923
-0.0154461
-0.00504655
-0.0158824
-0.00383076
-0.0162718
-0.00252561
-0.0166372
-0.00142988
-0.0169703
-0.000543164
-2.43026e-05
-0.0589956
-0.00657003
0.0586156
-0.0606302
-0.00638071
-0.0622472
-0.00547156
-0.0638676
-0.00476879
-0.0651801
-0.00373402
-0.0662203
-0.00279059
-0.0669089
-0.00183697
-0.0673014
-0.00103742
-0.0674392
-0.000405361
-3.02373e-05
-0.0691816
-0.00628544
0.0688971
-0.0701571
-0.0054053
-0.0710731
-0.00455553
-0.0720941
-0.00374783
-0.0729149
-0.00291319
-0.0735727
-0.00213275
-0.0739952
-0.0014145
-0.0742243
-0.000808278
-0.0742909
-0.000338793
-3.7647e-05
-0.0811913
-0.00619757
0.0811034
-0.0816835
-0.00491305
-0.0822113
-0.00402781
-0.082828
-0.00313111
-0.083325
-0.00241614
-0.0837371
-0.00172066
-0.0839851
-0.0011665
-0.0841146
-0.000678794
-0.0841374
-0.000315952
-4.14749e-05
-0.0961617
-0.00615793
0.096122
-0.0964903
-0.00458447
-0.0968099
-0.00370816
-0.0972119
-0.0027291
-0.0975157
-0.00211235
-0.0977875
-0.00144886
-0.0979372
-0.00101676
-0.0980269
-0.000589094
-0.0980363
-0.000306612
-3.93406e-05
-0.114588
-0.0058921
0.114322
-0.11494
-0.0042329
-0.115232
-0.00341634
-0.115568
-0.00239241
-0.115808
-0.00187293
-0.116036
-0.00122019
-0.116167
-0.000886329
-0.11627
-0.000485337
-0.116306
-0.000271412
-1.9665e-05
-0.135551
-0.00528661
0.134946
-0.13607
-0.00371433
-0.136485
-0.00300087
-0.136861
-0.00201715
-0.137139
-0.00159484
-0.137385
-0.000973635
-0.137552
-0.000719745
-0.137705
-0.000332397
-0.137787
-0.00018917
1.36306e-05
-0.156643
-0.00430625
0.155663
-0.157381
-0.00297618
-0.157985
-0.0023975
-0.158439
-0.00156301
-0.158797
-0.00123689
-0.159071
-0.00069929
-0.159286
-0.00050457
-0.159459
-0.000159332
-0.159566
-8.20306e-05
4.58396e-05
-0.174723
-0.00301372
0.173431
-0.175641
-0.0020584
-0.176387
-0.00165175
-0.176896
-0.00105399
-0.177305
-0.000827795
-0.177574
-0.000430599
-0.177788
-0.000290049
-0.177918
-2.97714e-05
-0.177996
-4.05006e-06
5.46359e-05
-0.187389
-0.00155576
0.185931
-0.188409
-0.00103874
-0.189232
-0.000828523
-0.189766
-0.000520219
-0.190185
-0.000408466
-0.190418
-0.000198078
-0.190584
-0.000124015
-0.190629
1.57107e-05
-0.190653
1.94481e-05
3.59905e-05
-0.193844
0.192289
-0.194883
-0.195712
-0.196232
-0.19664
-0.196838
-0.196962
-0.196947
-0.196927
-0.0135921
0.0596654
0.0125423
-0.0142471
0.0695521
-0.0147533
0.0816096
-0.0150002
0.0963689
-0.0147648
0.114087
-0.0137217
0.133903
-0.0116205
0.153561
-0.00844859
0.170259
-0.0044522
0.181935
0.187836
-0.0128522
0.0603959
0.0121217
-0.0134629
0.0701628
-0.0139077
0.0820544
-0.0140678
0.0965289
-0.0137479
0.113767
-0.0126704
0.132825
-0.0106434
0.151534
-0.00768852
0.167304
-0.00403314
0.178279
0.183803
-0.0121693
0.0610542
0.0115111
-0.0127164
0.0707099
-0.0130885
0.0824265
-0.0131786
0.0966191
-0.0128089
0.113397
-0.0117393
0.131756
-0.0098139
0.149609
-0.00706467
0.164555
-0.00369751
0.174912
0.180106
-0.0113876
0.0616889
0.0107529
-0.0118766
0.0711989
-0.012169
0.0827189
-0.0121872
0.0966373
-0.0117753
0.112985
-0.010729
0.130709
-0.00892503
0.147805
-0.00640172
0.162031
-0.00334297
0.171854
0.176763
-0.0104864
0.0622943
0.009881
-0.0109233
0.0716357
-0.0111456
0.0829413
-0.0111036
0.0965952
-0.0106649
0.112547
-0.00966042
0.129705
-0.00799564
0.14614
-0.00571315
0.159749
-0.00297607
0.169116
0.173787
-0.00948629
0.0628595
0.00892116
-0.00986361
0.072013
-0.0100204
0.083098
-0.00992978
0.0965046
-0.00948141
0.112098
-0.00853899
0.128763
-0.00703226
0.144634
-0.00500528
0.157722
-0.00260054
0.166712
0.171186
-0.00840869
0.0633745
0.00789361
-0.00871968
0.072324
-0.00881111
0.0831895
-0.00867989
0.0963734
-0.00823559
0.111654
-0.00737262
0.1279
-0.00604072
0.143302
-0.00428236
0.155964
-0.00221871
0.164648
0.168968
-0.00727056
0.0638271
0.006818
-0.00751311
0.0725666
-0.00754023
0.0832166
-0.00737483
0.096208
-0.0069452
0.111224
-0.00617494
0.127129
-0.00503029
0.142157
-0.00354991
0.154483
-0.00183312
0.162931
0.167134
-0.00609004
0.0642022
0.005715
-0.00626488
0.0727414
-0.00622932
0.083181
-0.00603618
0.0960149
-0.00562956
0.110818
-0.00496167
0.126461
-0.00401218
0.141207
-0.00281477
0.153286
-0.00144699
0.161563
0.165687
-0.0048861
0.064482
0.00460624
-0.00499748
0.0728528
-0.00489907
0.0830826
-0.0046846
0.0958004
-0.00430683
0.11044
-0.00374792
0.125903
-0.00299768
0.140457
-0.00208421
0.152372
-0.00106391
0.160543
0.164623
-0.00369059
0.0646537
0.00351888
-0.00373908
0.0729013
-0.00357607
0.0829196
-0.0033444
0.0955687
-0.00299768
0.110093
-0.00255073
0.125456
-0.00199963
0.139906
-0.00136657
0.151739
-0.00068803
0.159865
0.163935
-0.00253057
0.0647187
0.00246556
-0.00250751
0.0728782
-0.00228684
0.0826989
-0.00203648
0.0953184
-0.00172213
0.109779
-0.00138327
0.125117
-0.00102664
0.13955
-0.000668938
0.151382
-0.000322827
0.159518
0.163613
-0.00144172
0.0646921
0.00146835
-0.00133233
0.0727688
-0.00106845
0.0824351
-0.000796245
0.0950461
-0.000518389
0.109501
-0.000283594
0.124882
-0.000115027
0.139381
-2.17256e-05
0.151288
1.38075e-05
0.159483
0.163626
-0.000457889
0.0646138
0.000536133
-0.000243239
0.0725542
1.74968e-05
0.0821743
0.000366047
0.0946976
0.00063214
0.109235
0.0007828
0.124731
0.00078257
0.139381
0.000629769
0.151441
0.000354665
0.159758
0.163981
0.000471977
0.0644699
-0.000328052
0.000799967
0.0722262
0.00115421
0.0818201
0.00149154
0.0943603
0.00172891
0.108998
0.001788
0.124672
0.00162166
0.139548
0.00123175
0.151831
0.000668363
0.160321
0.164649
0.0013541
0.0642306
-0.00111481
0.00175371
0.0718266
0.00214742
0.0814264
0.00250859
0.0939991
0.00272773
0.108778
0.00270912
0.124691
0.00239316
0.139863
0.00178584
0.152438
0.000956236
0.161151
0.165606
0.00212344
0.0639426
-0.00183539
0.00260353
0.0713465
0.00303456
0.0809954
0.00342073
0.0936129
0.00362982
0.108569
0.00354739
0.124773
0.00309936
0.140311
0.00229438
0.153243
0.00121981
0.162226
0.166826
0.0027937
0.0636471
-0.00249825
0.00334597
0.0707942
0.00380691
0.0805344
0.0042119
0.0932079
0.00441224
0.108369
0.00427629
0.124909
0.00371493
0.140873
0.00273774
0.15422
0.00144796
0.163515
0.168273
0.00340166
0.0633734
-0.00312793
0.00401224
0.0701836
0.0045028
0.0800438
0.00492686
0.0927839
0.00512561
0.10817
0.00494677
0.125088
0.00428358
0.141536
0.00314677
0.155357
0.00165723
0.165005
0.169931
0.00380409
0.0633003
-0.003731
0.00443013
0.0695576
0.00494962
0.0795244
0.00538284
0.0923507
0.0055807
0.107972
0.00537987
0.125289
0.00465624
0.14226
0.0034161
0.156597
0.00179016
0.166631
0.171721
-0.0434795
0.0579771
0.0488027
-0.0391914
0.0652695
-0.0363485
0.0766815
-0.0334238
0.0894259
-0.0300714
0.10462
-0.0258605
0.121078
-0.0205741
0.136973
-0.0142963
0.15032
-0.00731039
0.159645
0.16441
-0.0528138
0.0535294
0.0572614
-0.0490283
0.061484
-0.0455872
0.0732404
-0.0417257
0.0855644
-0.0373822
0.100277
-0.0319816
0.115677
-0.0253494
0.130341
-0.0176018
0.142572
-0.00905903
0.151102
0.155351
-0.0636282
0.049201
0.0679567
-0.059751
0.0576068
-0.055548
0.0690374
-0.0507551
0.0807714
-0.0452287
0.0947502
-0.0383487
0.108797
-0.0301412
0.122134
-0.0207518
0.133183
-0.0105123
0.140863
0.144839
-0.0767456
0.045097
0.0808497
-0.0722684
0.0531295
-0.0671756
0.0639447
-0.0613538
0.0749496
-0.0544199
0.0878164
-0.0458237
0.100201
-0.0358206
0.112131
-0.0246029
0.121965
-0.0125975
0.128857
0.132242
-0.0913381
0.040283
0.0961521
-0.0860334
0.0478249
-0.0798476
0.0577588
-0.0724983
0.0676003
-0.0635715
0.0788895
-0.0528565
0.0894861
-0.0407989
0.100073
-0.0275578
0.108724
-0.0136988
0.114998
0.118543
-0.108409
0.0353893
0.113303
-0.101922
0.0413373
-0.0943444
0.0501814
-0.0850908
0.0583468
-0.0740595
0.0678582
-0.0612977
0.0767243
-0.0471028
0.0858781
-0.0317633
0.0933843
-0.0161455
0.0993805
0.102397
-0.124863
0.0286756
0.131577
-0.117013
0.0334866
-0.107579
0.0407477
-0.0959453
0.0467132
-0.0825146
0.0544274
-0.0671774
0.061387
-0.0502222
0.068923
-0.0322162
0.0753783
-0.0146831
0.0818474
0.0877143
-0.142495
0.0219164
0.149254
-0.133326
0.0243175
-0.122223
0.0296445
-0.108976
0.0334661
-0.093911
0.0393627
-0.0766839
0.0441599
-0.0579209
0.05016
-0.0383863
0.0558437
-0.0202228
0.0636839
0.0674915
-0.156597
0.0105574
0.167956
-0.144389
0.0121086
-0.129662
0.0149182
-0.113061
0.0168644
-0.0938505
0.0201527
-0.0724643
0.0227737
-0.0488438
0.0265395
-0.0238304
0.0308303
6.35976e-05
0.0397899
0.067555
-0.251532
0.26209
-0.239424
-0.224505
-0.207641
-0.187488
-0.164715
-0.138175
-0.107345
-0.067555
0.0017513
0.0505036
-0.00345213
0.000196676
0.0588161
-0.000854058
0.0690074
-0.0016609
0.0816565
-0.00216906
0.0966603
-0.00235782
0.113492
-0.00213077
0.13135
-0.00163637
0.14876
-0.0019705
0.168291
0.260119
0.00215057
0.0521763
-0.00382327
0.000669442
0.0602972
-0.000475728
0.0701526
-0.00132197
0.0825028
-0.00187983
0.0972181
-0.00210267
0.113715
-0.00195827
0.131206
-0.00150713
0.148309
-0.00175703
0.16854
0.258362
0.0026343
0.0537424
-0.00420038
0.00120198
0.0617295
3.50352e-05
0.0713195
-0.000794754
0.0833326
-0.00137685
0.0978002
-0.00164351
0.113981
-0.00158574
0.131148
-0.00123687
0.14796
-0.00154585
0.168849
0.256816
0.00311257
0.0552104
-0.00458057
0.00173228
0.0631098
0.000631527
0.0724203
-0.000235755
0.0841998
-0.000792182
0.0983566
-0.00110568
0.114295
-0.00111031
0.131152
-0.000901257
0.147751
-0.00127198
0.16922
0.255544
0.0035803
0.0565829
-0.00495287
0.00227156
0.0644185
0.00122884
0.073463
0.000392833
0.0850359
-0.000176895
0.0989264
-0.000523978
0.114642
-0.000576931
0.131205
-0.000515826
0.14769
-0.00095096
0.169655
0.254593
0.00405803
0.0578312
-0.00530634
0.00284507
0.0656315
0.00186828
0.0744398
0.001091
0.0858131
0.000526643
0.0994907
0.000113488
0.115055
3.4097e-05
0.131285
-9.52288e-05
0.147819
-0.000589483
0.17015
0.254004
0.0045451
0.0589193
-0.00563316
0.00345131
0.0667253
0.00255105
0.07534
0.00183023
0.086534
0.00128533
0.100036
0.000880003
0.11546
0.000660568
0.131504
0.000445515
0.148034
-0.000185481
0.170781
0.253818
0.00503316
0.0598124
-0.00592621
0.00407884
0.0676796
0.00326613
0.0761527
0.00260879
0.0871913
0.00208675
0.100558
0.0016664
0.115881
0.00135471
0.131816
0.0010131
0.148376
0.000230715
0.171563
0.254049
0.00551601
0.0604735
-0.00617711
0.00471563
0.06848
0.00400106
0.0768673
0.00341557
0.0877768
0.00292304
0.10105
0.00248688
0.116317
0.0020881
0.132215
0.00160587
0.148858
0.000662956
0.172506
0.254712
0.00598149
0.0608677
-0.00637569
0.00534891
0.0691125
0.00474367
0.0774726
0.0042379
0.0882825
0.00378407
0.101504
0.00333346
0.116767
0.00284849
0.1327
0.00222353
0.149483
0.00112031
0.173609
0.255832
0.00640957
0.0609654
-0.0065073
0.00595993
0.0695622
0.00547708
0.0779554
0.00505746
0.0887022
0.00464993
0.101912
0.00418947
0.117228
0.00362251
0.133267
0.00285663
0.150249
0.00159059
0.174875
0.257423
0.00679186
0.0607468
-0.00657323
0.00654086
0.0698132
0.00619228
0.078304
0.00586592
0.0890285
0.00551166
0.102266
0.00504774
0.117692
0.00440464
0.13391
0.00350087
0.151153
0.00206983
0.176306
0.259493
0.00710853
0.0602058
-0.00656759
0.00707081
0.0698509
0.0068664
0.0785084
0.00664067
0.0892542
0.00634734
0.102559
0.00588927
0.11815
0.00517882
0.13462
0.00414443
0.152187
0.00255061
0.1779
0.262043
0.00734699
0.0593517
-0.00649287
0.0075348
0.0696631
0.00748215
0.078561
0.00736325
0.0893731
0.00713913
0.102783
0.00669782
0.118591
0.00593117
0.135387
0.0047771
0.153341
0.00302577
0.179651
0.265069
0.00749703
0.0582117
-0.00635698
0.0079193
0.0692408
0.00802348
0.0784569
0.00801616
0.0893805
0.00787063
0.102929
0.00745789
0.119004
0.00664946
0.136195
0.00538997
0.154601
0.00348983
0.181551
0.268559
0.00755204
0.0568346
-0.00617496
0.00821295
0.0685799
0.00847497
0.0781948
0.00858307
0.0892724
0.00852483
0.102987
0.00815199
0.119377
0.00731863
0.137029
0.00597117
0.155948
0.00393316
0.183589
0.272492
0.00751511
0.0552889
-0.00596947
0.00840873
0.0676863
0.00882712
0.0777765
0.00905343
0.0890461
0.00909012
0.10295
0.00877178
0.119695
0.00793355
0.137867
0.00651725
0.157364
0.00435309
0.185754
0.276845
0.00739978
0.0536565
-0.00576734
0.00850199
0.0665841
0.00906851
0.0772099
0.00940874
0.0887058
0.00954181
0.102817
0.00928813
0.119949
0.00846468
0.13869
0.00700746
0.158822
0.00473335
0.188028
0.281579
0.00722952
0.0520078
-0.00558084
0.00851561
0.065298
0.0092298
0.0764958
0.0096839
0.0882517
0.00991774
0.102583
0.00973985
0.120127
0.00894422
0.139486
0.00746329
0.160303
0.00508332
0.190408
0.286662
0.00693886
0.050391
-0.00532204
0.00828079
0.063956
0.00914598
0.0756306
0.00970915
0.0876886
0.0100513
0.102241
0.00996654
0.120212
0.00924899
0.140203
0.007781
0.16177
0.00538795
0.192801
0.29205
-0.0249401
0.0486649
0.0266662
-0.0215608
0.0605768
-0.0180623
0.0721321
-0.0144448
0.0840711
-0.0108652
0.0986617
-0.00710643
0.116453
-0.00320695
0.136304
-2.01118e-05
0.158584
0.000734814
0.192046
0.292785
-0.0395176
0.0457327
0.0424498
-0.0355458
0.0566049
-0.0308073
0.0673936
-0.0257117
0.0789755
-0.0204656
0.0934155
-0.0147507
0.110738
-0.00868334
0.130237
-0.00322566
0.153126
-0.000966089
0.189786
0.291819
-0.0553488
0.0421652
0.0589163
-0.0503732
0.0516293
-0.0443641
0.0613845
-0.0379094
0.0725208
-0.0310292
0.0865353
-0.023207
0.102916
-0.0147935
0.121823
-0.00703009
0.145363
-0.00251493
0.185271
0.289304
-0.0727708
0.0379612
0.0769748
-0.066524
0.0453825
-0.0594523
0.0543128
-0.0517136
0.0647821
-0.042957
0.0777787
-0.0327558
0.0927145
-0.0217979
0.110865
-0.0114924
0.135057
-0.00446925
0.178248
0.284834
-0.0922061
0.0324811
0.0976863
-0.0850236
0.0382001
-0.0771496
0.0464387
-0.0678208
0.0554533
-0.0568544
0.0668124
-0.0441526
0.0800126
-0.0305136
0.0972261
-0.0172829
0.121826
-0.00709976
0.168065
0.277735
-0.11459
0.0266892
0.120382
-0.106449
0.0300587
-0.0973101
0.0373
-0.0860329
0.044176
-0.0729488
0.0537283
-0.058005
0.0650688
-0.0417974
0.0810185
-0.0255373
0.105566
-0.011682
0.154209
0.266053
-0.13961
0.0189643
0.147335
-0.131021
0.0214693
-0.120837
0.0271165
-0.108321
0.0316593
-0.0940232
0.0394309
-0.0773128
0.0483584
-0.0590946
0.0628003
-0.0396794
0.0861511
-0.0203226
0.134853
0.24573
-0.171361
0.011183
0.179142
-0.162059
0.0121679
-0.1509
0.0159574
-0.137861
0.0186198
-0.122716
0.0242866
-0.105153
0.0307947
-0.0855319
0.0431796
-0.063814
0.0644333
-0.0376615
0.1087
0.208069
-0.225022
0.00364475
0.23256
-0.21713
0.00427682
-0.207142
0.00596931
-0.196065
0.00754249
-0.182438
0.0106594
-0.166526
0.0148832
-0.146334
0.0229872
-0.118876
0.0369749
-0.0753022
0.0651266
0.132766
-0.301186
0.304831
-0.29691
-0.29094
-0.283398
-0.272738
-0.257855
-0.234868
-0.197893
-0.132766
0.00249163
0.0278913
-0.00371677
0.000487439
0.044454
-0.00133365
0.0607374
-0.0029181
0.0785593
-0.00417214
0.0989403
-0.00514439
0.121354
-0.00558387
0.147775
-0.00576563
0.179324
-0.00436912
0.231163
0.300462
0.00232772
0.0287546
-0.00319102
0.000648922
0.0461328
-0.00107439
0.0624607
-0.00262652
0.0801114
-0.00388863
0.100202
-0.00485129
0.122317
-0.00533332
0.148257
-0.00552924
0.17952
-0.00421157
0.229846
0.29625
0.00230053
0.0292805
-0.00282641
0.000929658
0.0475036
-0.000637542
0.0640279
-0.00208823
0.0815621
-0.00330636
0.101421
-0.00424685
0.123257
-0.00477818
0.148788
-0.00497132
0.179713
-0.00384798
0.228722
0.292403
0.00236023
0.029508
-0.00258767
0.00128024
0.0485836
-0.000136041
0.0654442
-0.00144697
0.082873
-0.00259059
0.102564
-0.00351761
0.124185
-0.00408486
0.149355
-0.00433766
0.179965
-0.00341756
0.227802
0.288985
0.00249571
0.0294547
-0.00244243
0.00171683
0.0493625
0.000516247
0.0666448
-0.000720119
0.0841094
-0.00178438
0.103628
-0.00269553
0.125096
-0.00330649
0.149966
-0.00364013
0.180299
-0.00293465
0.227097
0.28605
0.00271459
0.0291112
-0.00237108
0.00224953
0.0498276
0.00126929
0.067625
0.000103435
0.0852752
-0.000869639
0.104601
-0.00177494
0.126001
-0.00244032
0.150632
-0.00287515
0.180734
-0.00240812
0.22663
0.283642
0.00300764
0.0284634
-0.00235986
0.00287075
0.0499645
0.00211852
0.0683773
0.00113315
0.0862606
0.000160055
0.105575
-0.000760022
0.126921
-0.00147324
0.151345
-0.00204418
0.181305
-0.00184432
0.22643
0.281798
0.00335768
0.0275027
-0.00239697
0.00356567
0.0497565
0.0030525
0.0688904
0.00221601
0.0870971
0.00131163
0.106479
0.000361785
0.127871
-0.000395603
0.152102
-0.00115932
0.182069
-0.00124698
0.226517
0.280551
0.00374459
0.0262305
-0.00247244
0.00431567
0.0491854
0.00405393
0.0691522
0.00336916
0.0877819
0.00252633
0.107322
0.00160925
0.128788
0.000719392
0.152992
-0.000251117
0.183039
-0.000616843
0.226883
0.279934
0.00414579
-0.00257989
0.00509861
0.00510427
0.00457928
0.00380294
0.00288176
0.00187987
0.000777036
5.50346e-05
0.000214795
-0.00155958
0.000630532
-0.00362602
0.00116308
-0.00496454
0.00176443
-0.00576028
0.00240875
-0.00615717
0.00308436
-0.0062664
0.00378856
-0.00617289
0.00452595
-0.00594044
0.00531246
-0.00561872
-0.00525621
0.000228291
-0.00178787
0.000653162
-0.00405089
0.00118196
-0.00549334
0.00176433
-0.00634265
0.00237542
-0.00676826
0.00300594
-0.00689693
0.00365577
-0.00682271
0.00433028
-0.00661495
0.00503808
-0.00632652
-0.00600248
0.000231711
-0.00201958
0.000643993
-0.00446318
0.001139
-0.00598834
0.00166658
-0.00687023
0.00220481
-0.00730648
0.00274831
-0.00744043
0.00330065
-0.00737506
0.00386951
-0.00718381
0.00446262
-0.00691963
-0.00662292
0.0002233
-0.00224288
0.000599313
-0.00483919
0.00102951
-0.00641854
0.00146704
-0.00730776
0.00189493
-0.00773437
0.00231292
-0.00785842
0.00272904
-0.00779118
0.00315433
-0.0076091
0.00359919
-0.00736448
-0.00709514
0.000201923
-0.0024448
0.000517611
-0.00515488
0.000853462
-0.00675439
0.00116934
-0.00762363
0.00145512
-0.00802015
0.00171647
-0.00811978
0.00196603
-0.00804074
0.0022182
-0.00786127
0.00248632
-0.0076326
-0.00739117
0.000167189
-0.00261199
0.000399774
-0.00538746
0.000615423
-0.00697004
0.000784121
-0.00779233
0.000904057
-0.00814009
0.000987016
-0.00820274
0.00104969
-0.00810342
0.00110877
-0.00792035
0.00117886
-0.00770269
-0.00748627
0.000119548
-0.00273154
0.000249051
-0.00551697
0.000324051
-0.00704504
0.000327588
-0.00779587
0.000266941
-0.00807944
0.000159497
-0.00809529
2.48202e-05
-0.00796875
-0.000118935
-0.00777659
-0.0002576
-0.00756402
-0.00735874
6.03532e-05
-0.00279189
7.07894e-05
-0.0055274
-8.87558e-06
-0.00696538
-0.000180427
-0.00762432
-0.000427567
-0.0078323
-0.000728307
-0.00779455
-0.00106156
-0.00763549
-0.0014103
-0.00742785
-0.00176192
-0.0072124
-0.00701527
-9.08039e-06
-0.00278281
-0.000127977
-0.00540851
-0.000369441
-0.00672391
-0.000718373
-0.00727539
-0.00115009
-0.00740058
-0.00163951
-0.00730514
-0.00216561
-0.00710939
-0.00271301
-0.00688044
-0.00327149
-0.00665392
-0.00645076
-8.45267e-05
-0.00269828
-0.000339264
-0.00515377
-0.000743082
-0.0063201
-0.00126476
-0.0067537
-0.00187259
-0.00679275
-0.00253983
-0.0066379
-0.00324667